;
; TIP4P/Ice water model for GROMACS
;
[ moleculetype ]
; molname       nrexcl
SOL             2

[ atoms ]
; id    at type res nr  residu name     at name cg nr   charge
1      OWT4    1       SOL     OW      1       0
2      HW      1       SOL     HW1     1       0.5897
3      HW      1       SOL     HW2     1       0.5897
4      IW      1       SOL     MW      1      -1.1794

#ifndef FLEXIBLE
[ settles ]
; OW    funct   doh        dhh
1       1       0.09572    0.15139
#else
[ constraints ]
; i   j   funct   doh
1    2    1       0.09572
1    3    1       0.09572
2    3    1       0.15139
#endif

[ exclusions ]
1 2 3 4
2 1 3 4
3 1 2 4
4 1 2 3

; The position of the virtual site is computed as follows:
;
;               O
;             
;               D
;         
;       H               H
;
; const = distance (OD) / [ cos (angle(DOH))    * distance (OH) ]

[ virtual_sites3 ]
; Vsite from                    funct   a               b
4       1       2       3       1       0.13458         0.13458

