;
;	File 'topol.top' was generated
;	By user: konrad_guest (1000)
;	On host: konrad-hp
;	At date: Mon Mar 10 10:48:22 2025
;
;	This is a standalone topology file
;
;	Created by:
;	                    :-) GROMACS - gmx pdb2gmx, 2024.3 (-:
;	
;	Executable:   /usr/local/gromacs/bin/gmx
;	Data prefix:  /usr/local/gromacs
;	Working dir:  /home/konrad_guest/Documents/research/cursor/manual_tip4pice/std_water
;	Command line:
;	  gmx pdb2gmx -f water.pdb -o water.gro -p topol.top -ff amber99sb -water tip3p
;	Force field was read from the standard GROMACS share directory.
;

; Include forcefield parameters
#include "amber99sb.ff/forcefield.itp"

; Include water topology
#include "amber99sb.ff/tip3p.itp"

#ifdef POSRES_WATER
; Position restraint for each water oxygen
[ position_restraints ]
;  i funct       fcx        fcy        fcz
   1    1       1000       1000       1000
#endif

; Include topology for ions
#include "amber99sb.ff/ions.itp"

[ system ]
; Name
Protein

[ molecules ]
; Compound        #mols
SOL                 1
