Protein
22000
    1SOL     OW    1   4.635   3.717   4.558  0.5916  0.1899 -0.4043
    1SOL    HW1    2   4.664   3.756   4.475 -0.0654  1.1758 -0.1962
    1SOL    HW2    3   4.689   3.761   4.624  0.4305  0.1273 -0.2332
    1SOL     MW    4   4.646   3.728   4.556  0.4869  0.3081 -0.3557
    2SOL     OW    5   2.454   0.427   3.294 -0.0284 -0.1889 -0.4316
    2SOL    HW1    6   2.538   0.391   3.267 -0.1253 -0.4697 -0.3600
    2SOL    HW2    7   2.390   0.357   3.277 -0.7767  1.0632 -3.4527
    2SOL     MW    8   2.456   0.413   3.289 -0.1366 -0.0646 -0.8091
    3SOL     OW    9   0.851   3.395   4.264  0.1700  0.1618  0.2433
    3SOL    HW1   10   0.890   3.481   4.279 -0.1012  0.2606  0.3875
    3SOL    HW2   11   0.875   3.373   4.174  1.1547 -0.0923  0.5542
    3SOL     MW   12   0.859   3.403   4.255  0.2613  0.1419  0.3016
    4SOL     OW   13   4.026   4.472   4.471  0.0881 -0.2969 -0.0778
    4SOL    HW1   14   4.092   4.521   4.521  1.5367 -1.3110 -0.8885
    4SOL    HW2   15   3.959   4.537   4.450  1.1402  0.9647  0.2524
    4SOL     MW   16   4.026   4.487   4.474  0.4082 -0.2652 -0.1393
    5SOL     OW   17   1.936   1.362   4.666  0.3650 -0.4747  0.0116
    5SOL    HW1   18   2.018   1.382   4.711  0.9953  0.3806 -1.4492
    5SOL    HW2   19   1.868   1.384   4.729  1.2164 -2.4289  1.7561
    5SOL     MW   20   1.938   1.367   4.680  0.5547 -0.6154  0.0479
    6SOL     OW   21   4.352   3.707   3.754 -0.2375  0.3833  0.1981
    6SOL    HW1   22   4.351   3.622   3.797 -0.7090  0.4713  0.3685
    6SOL    HW2   23   4.272   3.708   3.701 -1.3597  1.5050  1.7878
    6SOL     MW   24   4.341   3.696   3.753 -0.4415  0.5381  0.4234
    7SOL     OW   25   0.564   4.784   4.781 -0.0973  1.0506  0.3312
    7SOL    HW1   26   0.587   4.788   4.874  3.3993 -3.6644  0.0778
    7SOL    HW2   27   0.477   4.743   4.780  0.4760 -0.2828  1.6047
    7SOL     MW   28   0.556   4.779   4.793  0.4237  0.2763  0.4618
    8SOL     OW   29   3.289   2.905   3.287 -0.0996 -0.0861  0.1027
    8SOL    HW1   30   3.351   2.879   3.355 -1.4834  0.7137  1.7339
    8SOL    HW2   31   3.295   3.000   3.283 -1.3779  0.0312  0.4803
    8SOL     MW   32   3.297   2.914   3.295 -0.4404  0.0313  0.3599
    9SOL     OW   33   4.831   0.987   1.341 -0.5003  0.3582  0.2440
    9SOL    HW1   34   4.832   1.067   1.393 -2.6784 -0.5063  1.7329
    9SOL    HW2   35   4.879   0.923   1.394  0.7964  0.4872 -0.7160
    9SOL     MW   36   4.838   0.989   1.354 -0.6131  0.2641  0.3117
   10SOL     OW   37   3.150   1.913   2.647 -0.4298 -0.4964 -0.1880
   10SOL    HW1   38   3.123   1.858   2.721 -2.7298  2.8628  1.6775
   10SOL    HW2   39   3.070   1.952   2.615  0.8753  0.2863 -2.7823
   10SOL     MW   40   3.137   1.911   2.653 -0.5572  0.0338 -0.2813
   11SOL     OW   41   3.673   1.253   4.150 -0.1787  0.0186  0.3309
   11SOL    HW1   42   3.769   1.259   4.140 -0.2295 -0.3899 -0.5759
   11SOL    HW2   43   3.660   1.172   4.200 -0.0131  0.7334  1.5728
   11SOL     MW   44   3.684   1.243   4.155 -0.1640  0.0578  0.3738
   12SOL     OW   45   2.300   1.872   0.398  0.1428  0.3424  0.4831
   12SOL    HW1   46   2.395   1.864   0.383  0.0556  0.3352 -0.0972
   12SOL    HW2   47   2.269   1.924   0.324 -0.3667  0.0215  0.4708
   12SOL     MW   48   2.308   1.878   0.386  0.0664  0.3004  0.4073
   13SOL     OW   49   1.219   2.559   1.035 -0.5981 -0.1688  0.1410
   13SOL    HW1   50   1.204   2.595   0.948  0.2644 -1.2066 -0.4586
   13SOL    HW2   51   1.173   2.475   1.036  0.5021 -0.7952  0.1914
   13SOL     MW   52   1.211   2.553   1.024 -0.3469 -0.3819  0.0707
   14SOL     OW   53   2.711   4.138   0.077  0.4757 -0.1056  0.1876
   14SOL    HW1   54   2.716   4.232   0.061 -1.1208  0.2233  1.3213
   14SOL    HW2   55   2.749   4.097  -0.001 -1.1053  1.4420 -1.4604
   14SOL     MW   56   2.717   4.144   0.065  0.0690  0.1346  0.1217
   15SOL     OW   57   3.422   2.451   1.819  0.1874 -0.5610  0.4432
   15SOL    HW1   58   3.503   2.500   1.837  0.5833 -1.4855  1.2562
   15SOL    HW2   59   3.450   2.361   1.809 -0.3643 -0.4947 -2.4226
   15SOL     MW   60   3.436   2.446   1.820  0.1675 -0.6709  0.1804
   16SOL     OW   61   0.070   5.194   1.793  0.0323  0.1229  0.0582
   16SOL    HW1   62   0.086   5.273   1.845  2.1711 -1.5920  2.2675
   16SOL    HW2   63   0.062   5.226   1.703 -1.8863  3.0690  1.1099
   16SOL     MW   64   0.071   5.208   1.788  0.0605  0.2805  0.4756
   17SOL     OW   65   5.324   1.311   3.544 -0.2208 -0.4312 -0.2541
   17SOL    HW1   66   5.399   1.370   3.556  1.1973 -2.0389 -0.7516
   17SOL    HW2   67   5.247   1.366   3.556  1.0388  1.5516 -0.9283
   17SOL     MW   68   5.324   1.325   3.547  0.1220 -0.3832 -0.4041
   18SOL     OW   69   0.877   4.890   1.837 -0.3048  0.2172  0.0323
   18SOL    HW1   70   0.943   4.857   1.777 -1.4768 -2.4765  0.0905
   18SOL    HW2   71   0.891   4.841   1.918 -1.3069  0.8348  0.5965
   18SOL     MW   72   0.887   4.880   1.840 -0.5831 -0.0486  0.1120
   19SOL     OW   73   4.198   5.088   4.304 -0.0124 -0.5336  0.3401
   19SOL    HW1   74   4.144   5.121   4.232 -0.2357 -0.8383  0.3661
   19SOL    HW2   75   4.255   5.161   4.327 -0.2869 -0.2706  0.1867
   19SOL     MW   76   4.198   5.101   4.298 -0.0761 -0.5390  0.3238
   20SOL     OW   77   0.307   4.989   0.077  0.1968 -0.2746  0.0425
   20SOL    HW1   78   0.403   4.986   0.069  0.0197 -1.7152 -3.6586
   20SOL    HW2   79   0.286   4.916   0.136  1.3477 -0.7923 -0.1500
   20SOL     MW   80   0.317   4.979   0.084  0.3214 -0.5253 -0.4559
   21SOL     OW   81   4.292   1.890   3.269  0.0795  0.2952 -0.0699
   21SOL    HW1   82   4.338   1.910   3.187  0.1214 -0.7812 -0.3193
   21SOL    HW2   83   4.199   1.897   3.246  0.0935  0.2934 -0.1277
   21SOL     MW   84   4.286   1.894   3.255  0.0867  0.1572 -0.1092
   22SOL     OW   85   1.048   4.128   3.317 -0.2446 -0.0729 -0.8347
   22SOL    HW1   86   1.086   4.063   3.257  1.2389 -0.3060  0.3007
   22SOL    HW2   87   1.119   4.148   3.379 -1.4609  0.7859  0.3304
   22SOL     MW   88   1.062   4.122   3.317 -0.2104  0.0072 -0.5402
   23SOL     OW   89   0.669   2.326   4.528  0.2582 -0.1988  0.6023
   23SOL    HW1   90   0.621   2.258   4.576  0.8561 -0.2954  1.0878
   23SOL    HW2   91   0.700   2.283   4.449  0.4217 -0.4228  0.7879
   23SOL     MW   92   0.667   2.312   4.524  0.3556 -0.2398  0.6882
   24SOL     OW   93   2.178   0.775   5.452 -0.1269  0.1194  0.6788
   24SOL    HW1   94   2.102   0.731   5.414 -1.5837  3.1743 -0.2458
   24SOL    HW2   95   2.144   0.818   5.530  1.4446 -0.9863  2.0468
   24SOL     MW   96   2.164   0.775   5.457 -0.1122  0.3689  0.7355
   25SOL     OW   97   1.590   0.468   1.895 -0.1959 -0.0531  0.1146
   25SOL    HW1   98   1.524   0.419   1.944 -0.7057  0.3279 -0.1920
   25SOL    HW2   99   1.602   0.549   1.944 -2.8264  1.6642 -1.8710
   25SOL     MW  100   1.583   0.472   1.908 -0.5979  0.2155 -0.1789
   26SOL     OW  101   3.275   1.104   2.424 -0.5197  0.2264  0.0512
   26SOL    HW1  102   3.303   1.161   2.496 -1.5486  0.3489  0.3692
   26SOL    HW2  103   3.263   1.018   2.465  0.1730 -0.0169 -0.2488
   26SOL     MW  104   3.277   1.100   2.438 -0.5628  0.2109  0.0535
   27SOL     OW  105   0.989   0.947   2.266 -0.4634  0.4451  0.2264
   27SOL    HW1  106   0.919   0.887   2.294 -0.2443 -1.3593 -2.6883
   27SOL    HW2  107   0.946   1.008   2.206 -0.0303  1.0190  0.4924
   27SOL     MW  108   0.974   0.947   2.262 -0.3799  0.2876 -0.1127
   28SOL     OW  109   5.177   2.432   2.103 -0.0834  0.1765  0.2980
   28SOL    HW1  110   5.092   2.452   2.143 -0.9391  0.6509 -1.5986
   28SOL    HW2  111   5.164   2.347   2.060  0.3103  0.3505 -0.1783
   28SOL     MW  112   5.164   2.424   2.102 -0.1425  0.2595 -0.0058
   29SOL     OW  113   2.971   5.267   0.433  0.4440 -0.6304  0.3082
   29SOL    HW1  114   2.956   5.278   0.339  1.2501  1.8665  0.4136
   29SOL    HW2  115   3.044   5.325   0.453  0.7264 -1.6208  2.3813
   29SOL     MW  116   2.978   5.276   0.423  0.5833 -0.4375  0.5870
   30SOL     OW  117   1.950   4.844   2.256 -0.4459  0.3754  0.1880
   30SOL    HW1  118   1.893   4.915   2.228 -0.8043  0.0365  0.0479
   30SOL    HW2  119   2.011   4.832   2.183 -2.2809 -1.4786 -1.1643
   30SOL     MW  120   1.950   4.851   2.243 -0.7267  0.0947 -0.0030
   31SOL     OW  121   5.070   0.033   0.683  0.0743 -0.1397  0.2377
   31SOL    HW1  122   5.116   0.110   0.715 -1.3662  0.3781  1.1378
   31SOL    HW2  123   5.107   0.018   0.595  0.0471  1.8479 -0.1523
   31SOL     MW  124   5.081   0.041   0.676 -0.1136  0.1810  0.3030
   32SOL     OW  125   4.134   3.081   3.490 -0.2119 -0.1296  0.2801
   32SOL    HW1  126   4.120   2.999   3.441  1.8988  0.5129 -1.5301
   32SOL    HW2  127   4.204   3.060   3.552  2.2345  0.8446 -1.9597
   32SOL     MW  128   4.141   3.068   3.492  0.3714  0.0773 -0.2383
   33SOL     OW  129   4.854   1.840   0.877  0.0379  0.3693 -1.0644
   33SOL    HW1  130   4.837   1.822   0.785  0.4206  1.0405 -1.2771
   33SOL    HW2  131   4.950   1.838   0.884 -0.0112 -1.1251 -0.3692
   33SOL     MW  132   4.864   1.837   0.866  0.0806  0.2639 -1.0026
   34SOL     OW  133   3.603   4.153   2.756  0.0948  0.3356 -0.4249
   34SOL    HW1  134   3.629   4.093   2.826 -0.0694 -0.7442 -1.2628
   34SOL    HW2  135   3.527   4.199   2.790  0.4356  0.3233  0.3647
   34SOL     MW  136   3.597   4.152   2.769  0.1174  0.1958 -0.4311
   35SOL     OW  137   5.053   5.446   0.201 -0.2093 -0.1555 -0.0853
   35SOL    HW1  138   4.999   5.525   0.204 -0.9105 -0.6249  4.0567
   35SOL    HW2  139   4.992   5.375   0.184 -0.0879 -0.1930 -0.3832
   35SOL     MW  140   5.038   5.447   0.199 -0.2835 -0.2204  0.4068
   36SOL     OW  141   2.508   2.918   2.409  0.4283 -0.3813  0.2655
   36SOL    HW1  142   2.548   2.880   2.487  1.1973 -2.6562 -1.1242
   36SOL    HW2  143   2.477   2.842   2.359 -1.7434  1.0876 -0.7852
   36SOL     MW  144   2.509   2.903   2.412  0.2487 -0.4845 -0.0469
   37SOL     OW  145   2.542   3.316   1.276 -0.1941 -0.3015  0.3468
   37SOL    HW1  146   2.617   3.314   1.217 -0.2446  1.7055  0.1440
   37SOL    HW2  147   2.549   3.234   1.326  3.0011  0.4181  1.3664
   37SOL     MW  148   2.553   3.305   1.275  0.2085  0.0475  0.4513
   38SOL     OW  149   2.031   2.025   3.348  0.4960 -0.0045 -0.2607
   38SOL    HW1  150   2.088   2.025   3.271  0.3215  0.3884 -0.3939
   38SOL    HW2  151   2.091   2.026   3.422  0.6815 -1.6018 -0.3617
   38SOL     MW  152   2.046   2.026   3.347  0.4974 -0.1587 -0.2907
   39SOL     OW  153   2.753   2.229   3.455 -0.1445  0.3060  0.5374
   39SOL    HW1  154   2.752   2.262   3.545  0.7948  0.2064  0.5959
   39SOL    HW2  155   2.841   2.250   3.423 -1.1356  2.3657 -1.1244
   39SOL     MW  156   2.764   2.236   3.463 -0.1512  0.5569  0.3321
   40SOL     OW  157   0.615   0.890   1.896 -0.1801  0.4573 -0.4801
   40SOL    HW1  158   0.664   0.809   1.911 -0.3738  0.3102 -0.6341
   40SOL    HW2  159   0.589   0.886   1.803  0.5896  1.1215 -0.7398
   40SOL     MW  160   0.618   0.879   1.886 -0.1063  0.5235 -0.5331
   41SOL     OW  161   4.688   4.866   1.623  0.0584 -0.0054  0.4470
   41SOL    HW1  162   4.639   4.937   1.664  1.1241  1.7020 -1.0929
   41SOL    HW2  163   4.762   4.851   1.681  0.1464  0.5612  0.4849
   41SOL     MW  164   4.691   4.873   1.636  0.2061  0.2857  0.2548
   42SOL     OW  165   3.947   3.886   5.021  0.2299  0.3559  0.0550
   42SOL    HW1  166   4.009   3.898   4.949 -0.2809  0.7147 -0.3354
   42SOL    HW2  167   4.000   3.852   5.093  0.8084  0.2983 -0.3872
   42SOL     MW  168   3.962   3.883   5.021  0.2386  0.3945 -0.0516
   43SOL     OW  169   2.878   0.074   1.936 -0.5053  0.5199  0.3857
   43SOL    HW1  170   2.877   0.013   1.862 -0.3272  0.1990  0.6438
   43SOL    HW2  171   2.884   0.018   2.013 -0.3220  0.8661  0.6267
   43SOL     MW  172   2.879   0.059   1.936 -0.4590  0.5231  0.4496
   44SOL     OW  173   1.922   2.608   1.506 -0.2250  0.5506  0.0685
   44SOL    HW1  174   1.889   2.548   1.573 -0.3899  0.2490 -0.2759
   44SOL    HW2  175   1.895   2.568   1.423  1.0799  0.2629 -0.2276
   44SOL     MW  176   1.914   2.596   1.504 -0.0791  0.4752 -0.0135
   45SOL     OW  177   2.686   1.368   0.321  0.4568 -0.1630  0.0798
   45SOL    HW1  178   2.709   1.281   0.354  2.8161 -0.2024 -1.4683
   45SOL    HW2  179   2.746   1.427   0.366 -1.4688  0.8163  1.5065
   45SOL     MW  180   2.696   1.364   0.331  0.5123 -0.0427  0.0643
   46SOL     OW  181   0.319   4.027   4.405  0.5108  0.2014 -0.0717
   46SOL    HW1  182   0.402   4.073   4.418  0.4292  0.1224  0.8120
   46SOL    HW2  183   0.344   3.935   4.396  0.5061  0.1527  0.3986
   46SOL     MW  184   0.333   4.021   4.406  0.4998  0.1851  0.1016
   47SOL     OW  185   2.860   0.319   4.755 -0.3275  0.0296 -0.0592
   47SOL    HW1  186   2.954   0.306   4.746  0.0329  2.8918 -1.6064
   47SOL    HW2  187   2.825   0.304   4.667 -1.4476 -1.6363  0.6395
   47SOL     MW  188   2.868   0.316   4.742 -0.4247  0.1828 -0.1678
   48SOL     OW  189   4.269   1.757   2.494 -0.6868  0.1052  0.0898
   48SOL    HW1  190   4.221   1.825   2.541  1.0240  1.8208 -0.4873
   48SOL    HW2  191   4.327   1.719   2.560 -1.3068 -0.4848  0.3039
   48SOL     MW  192   4.270   1.761   2.508 -0.5472  0.2493  0.0433
   49SOL     OW  193   4.873   1.075   3.189  0.0602  0.0018 -0.5125
   49SOL    HW1  194   4.816   1.125   3.246 -0.6733  0.3044 -1.4842
   49SOL    HW2  195   4.844   1.096   3.100  0.8886 -0.7775 -0.9965
   49SOL     MW  196   4.862   1.084   3.185  0.0724 -0.0592 -0.6988
   50SOL     OW  197   2.286   3.950   2.524 -0.0696  0.2185 -0.4763
   50SOL    HW1  198   2.363   4.007   2.523  1.5555 -1.8594  0.0648
   50SOL    HW2  199   2.252   3.957   2.613  0.4133 -0.0302 -0.2725
   50SOL     MW  200   2.291   3.958   2.535  0.2003 -0.0793 -0.3810
   51SOL     OW  201   1.686   3.170   5.384  0.3856  0.3806 -0.1299
   51SOL    HW1  202   1.631   3.248   5.391 -0.5588 -0.3251  0.5618
   51SOL    HW2  203   1.630   3.105   5.344  1.0141 -0.0870 -0.2581
   51SOL     MW  204   1.672   3.172   5.380  0.3452  0.2304 -0.0577
   52SOL     OW  205   5.343   0.737   2.649 -0.2662 -0.1150  0.2777
   52SOL    HW1  206   5.437   0.752   2.660 -0.2755 -0.1161  0.3611
   52SOL    HW2  207   5.305   0.824   2.648  0.0475  0.0949 -2.8904
   52SOL     MW  208   5.351   0.750   2.651 -0.2272 -0.0883 -0.1172
   53SOL     OW  209   1.847   0.302  -0.006 -0.4459 -0.3580  0.1842
   53SOL    HW1  210   1.928   0.252   0.001 -0.5879 -0.4873  1.0848
   53SOL    HW2  211   1.846   0.356   0.073 -0.7336  0.4088 -0.3329
   53SOL     MW  212   1.857   0.303   0.005 -0.5009 -0.2764  0.2333
   54SOL     OW  213   4.741   3.192   4.036  0.3561 -0.2527 -0.0591
   54SOL    HW1  214   4.749   3.224   4.126  0.6701  1.0544 -0.5415
   54SOL    HW2  215   4.682   3.116   4.044  0.5323 -0.2841  1.2638
   54SOL     MW  216   4.734   3.186   4.049  0.4189 -0.0894  0.0485
   55SOL     OW  217   2.165   2.550   1.201  0.2408  0.4445 -0.5755
   55SOL    HW1  218   2.099   2.599   1.152  0.4711  1.0051 -0.3286
   55SOL    HW2  219   2.118   2.471   1.230 -0.7853  1.5235  0.8518
   55SOL     MW  220   2.150   2.546   1.199  0.1389  0.6544 -0.3612
   56SOL     OW  221   0.547   1.816   3.197 -0.1557  0.2360 -0.5322
   56SOL    HW1  222   0.636   1.806   3.232 -0.1389  1.2105 -0.2451
   56SOL    HW2  223   0.500   1.739   3.228  0.1746  0.4973  0.6718
   56SOL     MW  224   0.553   1.805   3.206 -0.1112  0.3942 -0.3413
   57SOL     OW  225   0.958   4.359   3.183 -0.3726  0.8353 -0.1704
   57SOL    HW1  226   1.015   4.385   3.110  0.0851  1.9085  0.5401
   57SOL    HW2  227   1.000   4.281   3.219 -0.6293  0.2648 -1.0705
   57SOL     MW  228   0.971   4.353   3.178 -0.3469  0.8997 -0.1946
   58SOL     OW  229   4.852   2.132   5.421 -0.8177 -0.1847 -0.0553
   58SOL    HW1  230   4.854   2.093   5.333  0.4609 -0.7562  0.2107
   58SOL    HW2  231   4.760   2.128   5.447 -1.1707 -0.2793 -1.2420
   58SOL     MW  232   4.841   2.127   5.413 -0.6992 -0.2700 -0.1731
   59SOL     OW  233   3.573   2.711   3.077 -0.1222 -0.5476  0.5102
   59SOL    HW1  234   3.515   2.637   3.063 -2.4684  0.9460  1.6423
   59SOL    HW2  235   3.576   2.756   2.992 -0.3195 -0.8517  0.3417
   59SOL     MW  236   3.566   2.707   3.064 -0.4478 -0.3953  0.6335
   60SOL     OW  237   4.294   1.308   1.172  0.6110 -0.4635 -0.0493
   60SOL    HW1  238   4.296   1.401   1.193  0.5953 -0.6897  1.0631
   60SOL    HW2  239   4.384   1.278   1.188  0.9707 -0.3930 -1.7445
   60SOL     MW  240   4.306   1.316   1.177  0.6550 -0.4834 -0.1239
   61SOL     OW  241   2.203   3.718   0.133  0.2282 -0.2683 -0.1280
   61SOL    HW1  242   2.128   3.751   0.182  0.6711  0.9556 -0.2222
   61SOL    HW2  243   2.225   3.635   0.175 -0.0546  0.2382  1.0730
   61SOL     MW  244   2.196   3.712   0.145  0.2487 -0.0468  0.0137
   62SOL     OW  245   3.721   4.116   0.960  0.4112 -0.1627 -0.1383
   62SOL    HW1  246   3.737   4.038   1.013 -0.9285  0.4310  1.2208
   62SOL    HW2  247   3.730   4.189   1.021 -0.3450  0.6108 -0.9164
   62SOL     MW  248   3.724   4.116   0.974  0.1429  0.0123 -0.0640
   63SOL     OW  249   0.763   4.627   3.059 -0.2437 -0.3419 -0.1320
   63SOL    HW1  250   0.832   4.673   3.106 -2.4706  2.6281  0.4771
   63SOL    HW2  251   0.744   4.550   3.112  0.2450  0.6491  1.5294
   63SOL     MW  252   0.769   4.623   3.072 -0.4662  0.1651  0.1587
   64SOL     OW  253   1.651   5.436   1.322 -0.0663  0.6688  0.1852
   64SOL    HW1  254   1.620   5.477   1.403  0.4836  1.1048  0.1728
   64SOL    HW2  255   1.577   5.444   1.262 -0.7426 -0.2897  0.8570
   64SOL     MW  256   1.637   5.442   1.324 -0.0825  0.6019  0.2696
   65SOL     OW  257   3.921   0.466   1.351  0.2245 -0.5337 -0.0030
   65SOL    HW1  258   3.833   0.505   1.351  0.5091  0.1506 -1.2639
   65SOL    HW2  259   3.962   0.501   1.430  0.4985  1.8612 -1.1282
   65SOL     MW  260   3.915   0.476   1.361  0.2960 -0.1395 -0.3084
   66SOL     OW  261   0.786   0.548   1.666 -0.5186  0.2064 -0.4542
   66SOL    HW1  262   0.697   0.518   1.647 -1.4329  2.6917 -0.5677
   66SOL    HW2  263   0.785   0.641   1.642  1.9171  0.4803  0.2241
   66SOL     MW  264   0.775   0.556   1.660 -0.3239  0.5596 -0.3819
   67SOL     OW  265   1.146   1.636   0.650  0.3195 -0.0409 -0.2493
   67SOL    HW1  266   1.198   1.670   0.577  1.1888 -0.0946  0.3327
   67SOL    HW2  267   1.209   1.596   0.708 -0.2248  0.8849  1.0345
   67SOL     MW  268   1.160   1.635   0.648  0.3611  0.0707 -0.0105
   68SOL     OW  269   5.253   0.177   1.644 -0.6464  0.3580  0.0674
   68SOL    HW1  270   5.243   0.129   1.727 -0.3760 -0.1867 -0.2103
   68SOL    HW2  271   5.241   0.110   1.577 -0.1799  0.6677 -0.3273
   68SOL     MW  272   5.250   0.162   1.646 -0.5521  0.3279 -0.0187
   69SOL     OW  273   0.365   2.877   3.726 -0.1365 -0.0531  0.0829
   69SOL    HW1  274   0.345   2.970   3.723  2.0458  0.4404 -0.7647
   69SOL    HW2  275   0.438   2.870   3.788  0.4090 -1.0422 -0.6357
   69SOL     MW  276   0.372   2.888   3.734  0.2127 -0.1166 -0.1176
   70SOL     OW  277   4.788   2.341   2.047 -0.3183  0.4137 -0.2306
   70SOL    HW1  278   4.813   2.260   2.002  3.6709  1.6247 -0.5755
   70SOL    HW2  279   4.837   2.339   2.129 -1.6635  1.6584  0.6489
   70SOL     MW  280   4.797   2.330   2.052  0.0201  0.7281 -0.1622
   71SOL     OW  281   0.764   2.503   4.282  0.7545  0.4040 -0.5996
   71SOL    HW1  282   0.818   2.582   4.284  2.1154 -0.4084 -2.3586
   71SOL    HW2  283   0.701   2.519   4.211  0.1973  0.3978 -0.1141
   71SOL     MW  284   0.763   2.515   4.273  0.8574  0.2992 -0.7626
   72SOL     OW  285   2.232   1.137   0.976  0.3149  0.2521  0.4765
   72SOL    HW1  286   2.286   1.060   0.962  0.0879  0.2506 -0.4849
   72SOL    HW2  287   2.262   1.173   1.059  2.1141  0.5010 -0.2262
   72SOL     MW  288   2.243   1.132   0.985  0.5162  0.2837  0.2635
   73SOL     OW  289   0.281   0.921   4.900 -0.3335 -0.0401 -0.2992
   73SOL    HW1  290   0.192   0.887   4.910 -0.3557 -0.2313 -1.1427
   73SOL    HW2  291   0.271   1.016   4.907 -0.4373 -0.1183  0.7906
   73SOL     MW  292   0.268   0.929   4.902 -0.3497 -0.0746 -0.2677
   74SOL     OW  293   0.508   2.361   4.852 -0.4537  0.1761  0.1645
   74SOL    HW1  294   0.505   2.356   4.947  1.3247 -0.4933  0.2257
   74SOL    HW2  295   0.593   2.402   4.833  0.6973 -2.6049 -1.1676
   74SOL     MW  296   0.519   2.366   4.861 -0.0787 -0.2656  0.0018
   75SOL     OW  297   4.317   4.215   0.670  0.1251 -0.1873 -0.1351
   75SOL    HW1  298   4.273   4.130   0.666  0.7280 -0.5299  0.2782
   75SOL    HW2  299   4.372   4.210   0.749  0.9538  0.1925 -0.6718
   75SOL     MW  300   4.319   4.203   0.680  0.3084 -0.1826 -0.1509
   76SOL     OW  301   4.507   0.963   2.452 -0.3907  0.1518  0.4474
   76SOL    HW1  302   4.581   0.903   2.451 -1.3456 -1.0534 -0.0143
   76SOL    HW2  303   4.461   0.943   2.534  0.4086  1.7113  1.3242
   76SOL     MW  304   4.510   0.953   2.462 -0.4106  0.1971  0.5005
   77SOL     OW  305   1.002   3.567   0.292  0.4525 -0.4047  0.8463
   77SOL    HW1  306   0.947   3.646   0.285  0.0743 -0.6671  0.8120
   77SOL    HW2  307   0.968   3.520   0.368  0.3522 -0.7815  0.5723
   77SOL     MW  308   0.990   3.571   0.301  0.3912 -0.4865  0.8068
   78SOL     OW  309   5.061   1.802   2.433  0.0341 -0.7189  0.5647
   78SOL    HW1  310   5.014   1.882   2.458 -1.6960 -1.8805  1.2615
   78SOL    HW2  311   5.028   1.782   2.346  1.5233  0.0493 -0.2060
   78SOL     MW  312   5.051   1.810   2.425  0.0032 -0.7693  0.5552
   79SOL     OW  313   5.048   1.487   4.141  0.4802  0.2378 -0.6033
   79SOL    HW1  314   4.975   1.529   4.096  0.7682  0.3756 -0.9431
   79SOL    HW2  315   5.094   1.439   4.072  0.2522 -0.5016 -0.2531
   79SOL     MW  316   5.045   1.486   4.126  0.4879  0.1608 -0.6020
   80SOL     OW  317   0.382   4.282   3.107 -0.3828  0.6833  0.4289
   80SOL    HW1  318   0.453   4.222   3.083 -1.5759 -0.5176 -0.2842
   80SOL    HW2  319   0.424   4.350   3.159  1.5851  0.9825 -1.4231
   80SOL     MW  320   0.396   4.283   3.111 -0.2836  0.5679  0.1005
   81SOL     OW  321   4.940   3.995   2.704 -0.6765 -0.1829 -0.1991
   81SOL    HW1  322   4.914   4.024   2.791  1.0837  1.4178 -0.1451
   81SOL    HW2  323   4.965   3.903   2.715  0.2901  0.2104  1.1868
   81SOL     MW  324   4.940   3.987   2.716 -0.3274  0.0724 -0.0148
   82SOL     OW  325   0.308   3.924   1.832 -0.2505  0.1704  0.0744
   82SOL    HW1  326   0.317   4.015   1.862 -1.4398  0.4803 -0.4282
   82SOL    HW2  327   0.397   3.889   1.833  0.0475  0.8884  1.6829
   82SOL     MW  328   0.320   3.932   1.836 -0.3646  0.3020  0.2160
   83SOL     OW  329   0.956   3.695   2.892  0.6671 -0.3127  0.2554
   83SOL    HW1  330   0.889   3.633   2.919  0.9035 -0.3041  0.8650
   83SOL    HW2  331   0.910   3.755   2.833 -0.0643  0.1849  1.2982
   83SOL     MW  332   0.942   3.695   2.888  0.6037 -0.2479  0.4669
   84SOL     OW  333   1.151   2.493   0.320  0.2522 -0.2214  0.1343
   84SOL    HW1  334   1.187   2.406   0.302 -1.3239 -0.8021 -0.3486
   84SOL    HW2  335   1.110   2.484   0.407  0.1636  0.0652  0.1234
   84SOL     MW  336   1.150   2.481   0.329  0.0391 -0.2590  0.0711
   85SOL     OW  337   3.022   2.652   5.063  0.3914 -0.4947  0.0578
   85SOL    HW1  338   3.003   2.743   5.085 -0.2048 -1.0909  2.2111
   85SOL    HW2  339   2.951   2.626   5.005 -0.1942  0.0246  0.5228
   85SOL     MW  340   3.011   2.661   5.059  0.2401 -0.5045  0.3930
   86SOL     OW  341   1.319   3.808   3.390  0.2898 -0.0027 -0.4966
   86SOL    HW1  342   1.385   3.741   3.372 -1.0069 -0.8595 -2.4318
   86SOL    HW2  343   1.246   3.759   3.428 -0.0834  0.5621 -0.4830
   86SOL     MW  344   1.318   3.793   3.392  0.0760 -0.0401 -0.7425
   87SOL     OW  345   3.290   2.330   0.896 -0.1473 -0.0672 -0.3544
   87SOL    HW1  346   3.283   2.239   0.924 -2.1283  0.1919  0.0892
   87SOL    HW2  347   3.343   2.372   0.964 -0.4236 -0.5818  0.1870
   87SOL     MW  348   3.296   2.323   0.908 -0.4362 -0.0999 -0.2283
   88SOL     OW  349   3.517   2.659   0.872 -0.4812  0.5205 -0.2795
   88SOL    HW1  350   3.583   2.715   0.912  0.5746  0.1469 -1.4185
   88SOL    HW2  351   3.509   2.583   0.930 -0.2711  0.8025  0.1134
   88SOL     MW  352   3.524   2.656   0.884 -0.3192  0.5088 -0.3750
   89SOL     OW  353   5.258   3.070   3.525  0.4713 -0.2932  0.3754
   89SOL    HW1  354   5.350   3.077   3.500  0.4757  1.4692  0.7843
   89SOL    HW2  355   5.218   3.015   3.457  1.3383  0.9001 -1.1310
   89SOL     MW  356   5.264   3.064   3.513  0.5828  0.0852  0.2349
   90SOL     OW  357   0.090   0.570   2.311  0.3640  0.7180  0.0318
   90SOL    HW1  358   0.032   0.599   2.241  2.1591  0.9791 -1.4317
   90SOL    HW2  359   0.113   0.480   2.288  0.5615  0.6157  0.5910
   90SOL     MW  360   0.085   0.562   2.299  0.6191  0.7383 -0.0839
   91SOL     OW  361   3.866   4.256   3.321  0.0299  0.4740 -0.1499
   91SOL    HW1  362   3.868   4.300   3.407  0.0719  0.4358 -0.1316
   91SOL    HW2  363   3.860   4.328   3.258  2.8398  0.6764 -0.2929
   91SOL     MW  364   3.865   4.271   3.324  0.3950  0.4950 -0.1658
   92SOL     OW  365   2.813   1.874   1.986 -0.0051 -0.4334  0.1349
   92SOL    HW1  366   2.907   1.862   1.995  0.1521 -0.7483 -1.6309
   92SOL    HW2  367   2.802   1.962   1.953 -0.3188 -0.5163  0.0124
   92SOL     MW  368   2.824   1.884   1.983 -0.0251 -0.4843 -0.1068
   93SOL     OW  369   1.806   1.463   1.360 -0.0684 -0.4631 -0.4003
   93SOL    HW1  370   1.746   1.488   1.290  0.9843 -1.1146 -1.5704
   93SOL    HW2  371   1.850   1.545   1.383 -1.6916  0.1332  0.8248
   93SOL     MW  372   1.804   1.477   1.354 -0.1414 -0.4701 -0.3932
   94SOL     OW  373   4.530   2.841   0.358 -0.4539  0.4324 -0.3294
   94SOL    HW1  374   4.478   2.921   0.355  0.2605  0.8931 -0.8470
   94SOL    HW2  375   4.608   2.865   0.408 -0.0642  0.1629 -0.8044
   94SOL     MW  376   4.533   2.854   0.364 -0.3126  0.4569 -0.4565
   95SOL     OW  377   4.760   1.074   1.814 -0.4057  0.1487 -0.0376
   95SOL    HW1  378   4.780   0.990   1.771  1.4478 -0.2116  1.4067
   95SOL    HW2  379   4.763   1.055   1.907 -1.0557  1.6118  0.3103
   95SOL     MW  380   4.763   1.061   1.820 -0.2516  0.2899  0.1919
   96SOL     OW  381   5.208   3.774   3.735 -0.1136  0.5258 -0.2537
   96SOL    HW1  382   5.235   3.703   3.677 -1.2597  0.0891 -0.2733
   96SOL    HW2  383   5.284   3.833   3.737  0.6908 -0.4688 -0.5818
   96SOL     MW  384   5.221   3.772   3.728 -0.1573  0.3426 -0.2982
   97SOL     OW  385   1.828   0.420   0.442  0.5087  0.2806 -0.6950
   97SOL    HW1  386   1.917   0.440   0.414  0.9109  1.4964  1.2752
   97SOL    HW2  387   1.797   0.500   0.485 -0.2564 -1.1960  1.6901
   97SOL     MW  388   1.835   0.433   0.444  0.4623  0.2472 -0.1375
   98SOL     OW  389   0.065   2.713   4.941  0.1156 -0.3260  0.1078
   98SOL    HW1  390   0.050   2.801   4.976 -0.7250 -0.2113 -0.5118
   98SOL    HW2  391  -0.021   2.671   4.944 -0.2311  0.0423 -2.7418
   98SOL     MW  392   0.052   2.719   4.946 -0.0364 -0.2642 -0.3363
   99SOL     OW  393   3.282   3.068   2.175 -0.1273 -0.0921  0.3090
   99SOL    HW1  394   3.235   3.049   2.257 -1.3426 -1.5400 -0.6793
   99SOL    HW2  395   3.298   3.163   2.180  0.7654 -0.2825  2.6679
   99SOL     MW  396   3.278   3.078   2.186 -0.1686 -0.3018  0.4845
  100SOL     OW  397   0.392   1.568   1.322 -0.7988  0.5781 -0.3471
  100SOL    HW1  398   0.334   1.495   1.344 -1.6254  1.0426 -0.9004
  100SOL    HW2  399   0.420   1.603   1.406  0.0514 -0.7025 -0.0660
  100SOL     MW  400   0.388   1.563   1.335 -0.7958  0.4736 -0.3819
  101SOL     OW  401   1.570   4.349   5.399 -0.3107  0.7204 -0.3203
  101SOL    HW1  402   1.632   4.418   5.373 -0.6221 -0.1153 -3.6793
  101SOL    HW2  403   1.610   4.310   5.477  1.2242  2.9332  0.1055
  101SOL     MW  404   1.583   4.353   5.406 -0.1540  0.8967 -0.6958
  102SOL     OW  405   1.236   0.410   1.534 -0.0962  0.3932  0.2161
  102SOL    HW1  406   1.222   0.398   1.440 -0.3530  0.5822  0.2298
  102SOL    HW2  407   1.151   0.392   1.573  0.6400 -2.5359  0.7006
  102SOL     MW  408   1.223   0.406   1.527 -0.0348  0.0424  0.2799
  103SOL     OW  409   4.658   3.077   0.732 -0.4105  0.0448  0.3043
  103SOL    HW1  410   4.728   3.139   0.753 -0.6895  0.1360  1.0149
  103SOL    HW2  411   4.686   3.034   0.651  0.4248  0.1347  0.5419
  103SOL     MW  412   4.670   3.079   0.724 -0.3393  0.0680  0.4257
  104SOL     OW  413   2.702   3.309   1.021  0.3321 -0.8640 -0.0252
  104SOL    HW1  414   2.630   3.306   0.958 -0.6814  0.7429  0.9796
  104SOL    HW2  415   2.759   3.380   0.991  1.2321 -1.7548 -0.5005
  104SOL     MW  416   2.700   3.318   1.009  0.3175 -0.7724  0.0426
  105SOL     OW  417   1.798   0.640   4.900 -0.1747 -0.3967  0.0283
  105SOL    HW1  418   1.780   0.712   4.960 -0.5607 -0.9547  0.5918
  105SOL    HW2  419   1.750   0.663   4.820  2.4152  1.6512 -1.0760
  105SOL     MW  420   1.789   0.652   4.898  0.1074 -0.2060 -0.0409
  106SOL     OW  421   5.212   0.896   1.662  0.4699  0.3429  0.5288
  106SOL    HW1  422   5.292   0.895   1.610  0.9857 -0.5471  1.3012
  106SOL    HW2  423   5.188   0.988   1.668 -0.5158  0.4040 -2.5777
  106SOL     MW  424   5.219   0.907   1.656  0.4097  0.2368  0.2300
  107SOL     OW  425   1.466   3.731   3.130  0.2464 -0.6183 -0.0508
  107SOL    HW1  426   1.509   3.754   3.048  0.3061  1.0582  0.4026
  107SOL    HW2  427   1.377   3.705   3.104  0.5480 -1.0177 -0.7095
  107SOL     MW  428   1.460   3.731   3.116  0.2926 -0.4548 -0.0771
  108SOL     OW  429   2.452   3.008   0.655  0.1239  0.3510  0.5918
  108SOL    HW1  430   2.530   2.993   0.601 -0.4277 -0.2519 -0.0598
  108SOL    HW2  431   2.471   2.961   0.737  0.2322 -0.2382  0.2366
  108SOL     MW  432   2.465   3.000   0.659  0.0671  0.1984  0.4629
  109SOL     OW  433   0.144   3.363   0.362 -0.4436  0.2735 -0.6064
  109SOL    HW1  434   0.189   3.385   0.280 -0.3598 -0.8219 -0.8747
  109SOL    HW2  435   0.214   3.343   0.424 -0.4863 -2.2405 -1.2541
  109SOL     MW  436   0.159   3.363   0.359 -0.4384 -0.1885 -0.7237
  110SOL     OW  437   0.895   0.462   2.868  0.2545  0.0740 -0.4411
  110SOL    HW1  438   0.983   0.453   2.833  0.7665  0.5889  0.6775
  110SOL    HW2  439   0.883   0.557   2.878 -0.1067 -0.0381  0.2154
  110SOL     MW  440   0.905   0.473   2.865  0.2738  0.1256 -0.2139
  111SOL     OW  441   1.768   5.243   2.498  0.1201  0.3024 -0.5603
  111SOL    HW1  442   1.752   5.194   2.417 -1.2920  0.8701 -0.6538
  111SOL    HW2  443   1.844   5.201   2.537  0.5682 -0.2537 -1.9761
  111SOL     MW  444   1.776   5.232   2.492 -0.0033  0.3039 -0.7535
  112SOL     OW  445   4.403   3.191   0.717 -0.5637 -0.4952 -0.4519
  112SOL    HW1  446   4.423   3.193   0.624  1.5092  0.6665 -0.0448
  112SOL    HW2  447   4.475   3.142   0.756 -1.1576 -0.5574  0.6010
  112SOL     MW  448   4.415   3.185   0.710 -0.3744 -0.3544 -0.2650
  113SOL     OW  449   2.218   5.458   4.452  0.0480 -0.0695 -0.0179
  113SOL    HW1  450   2.142   5.450   4.511  0.3940 -3.0276  0.1684
  113SOL    HW2  451   2.229   5.370   4.415  3.4520  0.2215  0.0245
  113SOL     MW  452   2.209   5.446   4.455  0.5281 -0.4109  0.0114
  114SOL     OW  453   3.703   5.294   1.597  0.3525  0.2170  0.1729
  114SOL    HW1  454   3.647   5.221   1.568  1.1449 -0.3518  0.0264
  114SOL    HW2  455   3.731   5.268   1.684  2.2029 -0.6239 -0.6150
  114SOL     MW  456   3.699   5.281   1.604  0.6908  0.0365  0.0533
  115SOL     OW  457   3.744   2.896   3.846  0.2929  0.7406 -0.3315
  115SOL    HW1  458   3.839   2.890   3.852  0.2160 -0.5084 -0.2422
  115SOL    HW2  459   3.724   2.873   3.755  0.0609  0.8492 -0.3088
  115SOL     MW  460   3.753   2.893   3.835  0.2534  0.5946 -0.3171
  116SOL     OW  461   1.535   1.434   1.801 -0.6368  0.2398  0.0438
  116SOL    HW1  462   1.621   1.462   1.831 -0.3715  0.2373 -0.6956
  116SOL    HW2  463   1.536   1.448   1.706 -0.7209 -1.6380 -0.2792
  116SOL     MW  464   1.546   1.439   1.793 -0.6136 -0.0009 -0.0922
  117SOL     OW  465   4.145   2.836   3.333 -0.0282 -0.2200 -0.3064
  117SOL    HW1  466   4.207   2.766   3.351  0.2785  0.8787  3.9812
  117SOL    HW2  467   4.059   2.795   3.341  0.1484 -0.1954  2.2799
  117SOL     MW  468   4.142   2.822   3.336  0.0336 -0.0762  0.5735
  118SOL     OW  469   4.641   3.531   0.208 -0.2524  0.4830  0.0496
  118SOL    HW1  470   4.679   3.511   0.122 -0.6495 -0.7923  0.1424
  118SOL    HW2  471   4.678   3.615   0.232  2.1721 -0.4843 -0.0460
  118SOL     MW  472   4.650   3.539   0.200  0.0072  0.1959  0.0492
  119SOL     OW  473   4.462   1.691   4.098  0.0543 -0.2558 -0.3871
  119SOL    HW1  474   4.375   1.728   4.111  0.5454  0.4693  1.1878
  119SOL    HW2  475   4.450   1.621   4.035 -1.3712  0.9230 -1.4841
  119SOL     MW  476   4.450   1.687   4.092 -0.0653 -0.0121 -0.3259
  120SOL     OW  477   1.906   3.474   5.201 -0.4424  0.0314 -0.5091
  120SOL    HW1  478   1.938   3.457   5.112  0.1140 -0.0534 -0.3006
  120SOL    HW2  479   1.985   3.471   5.255 -0.7076  0.5989 -0.0856
  120SOL     MW  480   1.921   3.471   5.196 -0.4051  0.0932 -0.4282
  121SOL     OW  481   0.521   3.230   2.339  0.3538  0.1066 -0.4471
  121SOL    HW1  482   0.505   3.306   2.394 -0.4207 -0.1724 -0.2725
  121SOL    HW2  483   0.553   3.266   2.257 -0.8608  0.6871 -0.6886
  121SOL     MW  484   0.523   3.244   2.336  0.0992  0.1452 -0.4557
  122SOL     OW  485   1.934   5.430   1.345 -0.0723  0.5136 -0.2066
  122SOL    HW1  486   1.953   5.368   1.416  2.0376  0.4124 -0.7941
  122SOL    HW2  487   1.839   5.425   1.333 -0.7637  1.5552  3.5348
  122SOL     MW  488   1.924   5.421   1.353  0.1093  0.6340  0.1971
  123SOL     OW  489   4.582   3.517   4.257  0.4068  0.7567 -0.1566
  123SOL    HW1  490   4.549   3.467   4.332  0.2645  0.1505 -0.6141
  123SOL    HW2  491   4.509   3.573   4.231 -0.7726 -1.4319 -1.9155
  123SOL     MW  492   4.568   3.517   4.263  0.2376  0.3989 -0.4403
  124SOL     OW  493   4.983   3.637   1.457  0.2409 -0.1434  0.1028
  124SOL    HW1  494   4.925   3.643   1.381 -0.2698 -1.5927  0.3382
  124SOL    HW2  495   5.043   3.566   1.436 -0.3552 -1.0505  1.3038
  124SOL     MW  496   4.983   3.629   1.445  0.0992 -0.4450  0.2867
  125SOL     OW  497   4.113   3.389   0.832  0.4442  0.3871  0.0537
  125SOL    HW1  498   4.061   3.399   0.911  0.0433  0.3471 -0.2020
  125SOL    HW2  499   4.202   3.413   0.858  0.5030 -0.5267  0.7519
  125SOL     MW  500   4.118   3.393   0.845  0.4004  0.2650  0.1103
  126SOL     OW  501   5.155   2.401   1.259  0.4643 -0.0797  0.1893
  126SOL    HW1  502   5.109   2.365   1.183  0.2055  2.6043 -1.0404
  126SOL    HW2  503   5.085   2.436   1.315  0.8146  1.1890 -0.1405
  126SOL     MW  504   5.140   2.401   1.257  0.4760  0.4263 -0.0104
  127SOL     OW  505   2.627   3.976   2.753 -0.4201  0.0376 -0.4453
  127SOL    HW1  506   2.648   3.883   2.742  1.6200  0.1477  1.7914
  127SOL    HW2  507   2.711   4.018   2.769 -1.3852  2.1898 -0.6282
  127SOL     MW  508   2.640   3.969   2.754 -0.2825  0.3272 -0.1824
  128SOL     OW  509   0.957   4.675   4.662 -0.1558  0.1052  0.1573
  128SOL    HW1  510   0.885   4.622   4.629 -0.6112  1.0637 -0.4230
  128SOL    HW2  511   1.003   4.706   4.584  1.3445 -1.0815  0.5295
  128SOL     MW  512   0.954   4.673   4.648 -0.0221  0.0760  0.1306
  129SOL     OW  513   1.990   1.265   1.299 -0.1736  0.5479  0.4868
  129SOL    HW1  514   1.923   1.332   1.316  1.4252  1.8067  2.5373
  129SOL    HW2  515   2.023   1.243   1.387  0.9189 -1.2637 -0.3350
  129SOL     MW  516   1.986   1.271   1.313  0.1710  0.4771  0.6441
  130SOL     OW  517   4.885   0.553   0.718  0.1757  0.2422 -0.0950
  130SOL    HW1  518   4.851   0.571   0.631  0.3784  0.6978 -0.0820
  130SOL    HW2  519   4.882   0.637   0.763 -0.4185 -0.0967  0.5119
  130SOL     MW  520   4.880   0.566   0.713  0.1256  0.2571 -0.0156
  131SOL     OW  521   2.473   4.561   3.461  0.8312 -0.0947  0.2483
  131SOL    HW1  522   2.554   4.545   3.413 -0.0571 -0.6875 -1.1326
  131SOL    HW2  523   2.409   4.582   3.393 -0.4908 -0.9859  1.1692
  131SOL     MW  524   2.475   4.562   3.446  0.5483 -0.2846  0.1894
  132SOL     OW  525   5.187   0.717   4.536 -0.0811 -0.2530 -0.5565
  132SOL    HW1  526   5.247   0.778   4.580 -0.9663 -1.3675  2.4752
  132SOL    HW2  527   5.211   0.631   4.571 -1.2944 -1.1510 -1.8586
  132SOL     MW  528   5.198   0.714   4.546 -0.3498 -0.5106 -0.3351
  133SOL     OW  529   2.268   2.028   0.648  0.5193  0.2604  0.3062
  133SOL    HW1  530   2.174   2.036   0.665  0.7056  0.3056  1.3870
  133SOL    HW2  531   2.274   2.000   0.557 -0.5595 -0.2278  0.3775
  133SOL     MW  532   2.257   2.026   0.639  0.4050  0.2037  0.4537
  134SOL     OW  533   0.625   4.778   0.173 -0.4853  0.5883  0.1877
  134SOL    HW1  534   0.638   4.708   0.109 -1.2731 -0.1284  0.7846
  134SOL    HW2  535   0.640   4.859   0.125 -0.6299  0.0437 -0.7844
  134SOL     MW  536   0.629   4.779   0.159 -0.6047  0.4268  0.1397
  135SOL     OW  537   2.023   2.378   4.228 -0.0722  0.0549  0.0693
  135SOL    HW1  538   2.018   2.294   4.183 -0.7103  0.5610 -0.8294
  135SOL    HW2  539   1.957   2.372   4.298  1.0705 -0.8101  1.1274
  135SOL     MW  540   2.014   2.367   4.231 -0.0076  0.0090  0.0897
  136SOL     OW  541   1.551   1.979   2.087  0.3193 -0.3270 -0.0908
  136SOL    HW1  542   1.493   2.042   2.131  0.7572  1.6058 -2.0986
  136SOL    HW2  543   1.503   1.954   2.007  1.1227 -0.8055 -0.4383
  136SOL     MW  544   1.537   1.984   2.082  0.4782 -0.1409 -0.3923
  137SOL     OW  545   3.254   4.143   2.924  0.2417  0.0243  0.3135
  137SOL    HW1  546   3.287   4.065   2.969 -1.8473 -0.4125  1.1966
  137SOL    HW2  547   3.229   4.112   2.836  1.2676  0.1582 -0.0349
  137SOL     MW  548   3.255   4.129   2.918  0.1056 -0.0145  0.3820
  138SOL     OW  549   4.754   4.532   1.369 -0.0462 -0.6437 -0.0127
  138SOL    HW1  550   4.835   4.483   1.359  0.6395  0.3998  0.3156
  138SOL    HW2  551   4.720   4.505   1.455  0.0812 -0.8712 -0.0326
  138SOL     MW  552   4.760   4.522   1.379  0.0579 -0.5392  0.0268
  139SOL     OW  553   2.535   0.184   4.735  0.1354 -0.4682  0.3350
  139SOL    HW1  554   2.619   0.197   4.692  0.1792 -0.3627  0.4521
  139SOL    HW2  555   2.487   0.266   4.719 -0.2238 -0.7999 -0.3529
  139SOL     MW  556   2.540   0.196   4.727  0.0950 -0.4972  0.2619
  140SOL     OW  557   4.734   2.598   1.929  0.4465 -0.0245  0.1473
  140SOL    HW1  558   4.649   2.608   1.887  1.1480  0.8438 -1.1252
  140SOL    HW2  559   4.734   2.508   1.961 -1.3398  0.2729  1.1157
  140SOL     MW  560   4.723   2.588   1.928  0.3077  0.1247  0.1084
  141SOL     OW  561   0.663   0.494   0.581  0.7071 -0.3389 -0.7096
  141SOL    HW1  562   0.645   0.437   0.656 -0.1671  0.1071 -0.5672
  141SOL    HW2  563   0.646   0.439   0.504  0.2003 -0.3673 -0.5753
  141SOL     MW  564   0.659   0.480   0.580  0.5303 -0.2855 -0.6742
  142SOL     OW  565   4.519   2.465   5.133  0.1333 -0.7180  0.0332
  142SOL    HW1  566   4.564   2.470   5.049 -0.0148 -0.2755 -0.0208
  142SOL    HW2  567   4.588   2.479   5.198  0.3764 -1.7417  0.0245
  142SOL     MW  568   4.533   2.467   5.130  0.1454 -0.7924  0.0252
  143SOL     OW  569   3.452   2.150   1.583  0.4125  1.0229 -0.0662
  143SOL    HW1  570   3.472   2.172   1.674  1.5646  1.0869 -0.3170
  143SOL    HW2  571   3.367   2.192   1.566  0.3656  1.3267  0.8614
  143SOL     MW  572   3.443   2.158   1.592  0.5540  1.0699  0.0204
  144SOL     OW  573   2.718   4.353   4.653 -0.3818  0.1836 -0.3680
  144SOL    HW1  574   2.800   4.317   4.687 -0.4481 -0.3003 -0.7079
  144SOL    HW2  575   2.737   4.374   4.562 -1.4155 -2.6128 -1.3118
  144SOL     MW  576   2.731   4.351   4.646 -0.5226 -0.2363 -0.5323
  145SOL     OW  577   1.154   3.385   0.740 -0.2258  0.0958 -0.2808
  145SOL    HW1  578   1.136   3.301   0.783  0.9655 -0.5635 -1.0042
  145SOL    HW2  579   1.224   3.365   0.677  0.6507  1.7934  0.0895
  145SOL     MW  580   1.161   3.371   0.737  0.0389  0.2287 -0.3260
  146SOL     OW  581   0.671   2.280   0.439 -0.4536  0.0581 -0.0406
  146SOL    HW1  582   0.756   2.295   0.399 -0.2941 -0.4711  0.0878
  146SOL    HW2  583   0.691   2.244   0.525 -0.8051 -0.6020 -0.2275
  146SOL     MW  584   0.684   2.277   0.445 -0.4782 -0.0941 -0.0481
  147SOL     OW  585   4.907   2.336   1.373 -0.2986 -0.2039  0.1090
  147SOL    HW1  586   4.832   2.288   1.408  0.9717 -0.3794  2.8339
  147SOL    HW2  587   4.977   2.270   1.368 -0.1307  0.0620 -1.9385
  147SOL     MW  588   4.906   2.321   1.377 -0.1145 -0.1923  0.1957
  148SOL     OW  589   5.288   0.049   4.265 -0.2772  0.2672 -0.0021
  148SOL    HW1  590   5.325   0.132   4.296 -2.0137  0.1956  2.6305
  148SOL    HW2  591   5.195   0.067   4.253 -1.0632 -1.6159  2.3906
  148SOL     MW  592   5.281   0.062   4.268 -0.6001  0.0170  0.6412
  149SOL     OW  593   1.204   3.881   5.262  0.5348  0.1883  1.3565
  149SOL    HW1  594   1.192   3.849   5.352  2.0988  0.3870  1.6741
  149SOL    HW2  595   1.295   3.911   5.260  0.5417  0.1409 -0.3188
  149SOL     MW  596   1.214   3.881   5.273  0.7359  0.2076  1.1827
  150SOL     OW  597   5.094   4.415   5.146 -0.3750 -0.1158 -0.0011
  150SOL    HW1  598   5.101   4.326   5.110 -0.7453 -0.5076  0.8813
  150SOL    HW2  599   5.005   4.420   5.181  0.1543  0.0483  1.3829
  150SOL     MW  600   5.084   4.404   5.146 -0.3547 -0.1450  0.2890
  151SOL     OW  601   3.010   0.565   5.103  0.6820 -0.3932 -0.1131
  151SOL    HW1  602   3.041   0.512   5.176  0.7576 -0.5146 -0.2312
  151SOL    HW2  603   3.087   0.576   5.047  1.1799  1.5434  0.9021
  151SOL     MW  604   3.024   0.559   5.105  0.7554 -0.1608  0.0018
  152SOL     OW  605   3.577   3.043   2.291  0.1103  0.0130 -0.1633
  152SOL    HW1  606   3.662   3.078   2.317  0.5400 -1.1401  0.0358
  152SOL    HW2  607   3.577   3.047   2.196  0.1791  0.4694 -0.1465
  152SOL     MW  608   3.588   3.048   2.282  0.1741 -0.0762 -0.1356
  153SOL     OW  609   5.435   3.370   3.832  0.0572  0.4530 -0.0319
  153SOL    HW1  610   5.445   3.448   3.886 -0.7735  0.7142 -0.2296
  153SOL    HW2  611   5.345   3.341   3.848 -0.4438  0.9149 -1.7309
  153SOL     MW  612   5.425   3.377   3.841 -0.1133  0.5456 -0.2747
  154SOL     OW  613   0.369   1.349   3.359 -1.1431 -0.0122 -0.1833
  154SOL    HW1  614   0.293   1.294   3.341 -0.1001 -1.2715 -0.9049
  154SOL    HW2  615   0.357   1.378   3.449 -1.5933 -1.6519  0.3064
  154SOL     MW  616   0.357   1.346   3.368 -1.0672 -0.3833 -0.2130
  155SOL     OW  617   3.334   4.409   1.453 -0.3255 -0.3546 -0.2424
  155SOL    HW1  618   3.354   4.501   1.472 -0.6779  0.0222 -1.5465
  155SOL    HW2  619   3.356   4.362   1.533  0.6588  0.7609  0.1764
  155SOL     MW  620   3.340   4.415   1.466 -0.2446 -0.1635 -0.3557
  156SOL     OW  621   0.896   1.948   3.004  0.2040  0.6622  0.6991
  156SOL    HW1  622   0.991   1.938   3.004  0.4325  2.4212 -0.1388
  156SOL    HW2  623   0.876   1.987   3.088  0.2002  0.2412  0.8980
  156SOL     MW  624   0.906   1.952   3.014  0.2328  0.8335  0.6173
  157SOL     OW  625   4.738   3.508   0.712 -0.3665  0.3064  0.3289
  157SOL    HW1  626   4.676   3.516   0.785 -0.6241 -0.2932  0.1818
  157SOL    HW2  627   4.782   3.425   0.727 -0.2072  0.3237 -0.0356
  157SOL     MW  628   4.736   3.498   0.723 -0.3791  0.2318  0.2634
  158SOL     OW  629   1.637   1.388   0.158 -0.8321 -0.0136 -0.4096
  158SOL    HW1  630   1.576   1.461   0.153  0.4388  1.0139 -1.3405
  158SOL    HW2  631   1.620   1.336   0.080  0.2746  0.9305 -1.2976
  158SOL     MW  632   1.627   1.391   0.148 -0.5277  0.2388 -0.6424
  159SOL     OW  633   2.636   3.717   2.696 -0.0229 -0.0135  0.0782
  159SOL    HW1  634   2.628   3.625   2.720  0.2464  0.6123  2.9941
  159SOL    HW2  635   2.692   3.718   2.619  0.1523 -2.2611  0.1238
  159SOL     MW  636   2.642   3.705   2.689  0.0340 -0.2211  0.4573
  160SOL     OW  637   0.033   1.650   1.224 -0.2587 -0.2322 -0.2039
  160SOL    HW1  638   0.081   1.712   1.277 -1.0534 -0.3229  0.6512
  160SOL    HW2  639  -0.057   1.683   1.223 -0.7494 -1.4571  0.4615
  160SOL     MW  640   0.028   1.662   1.231 -0.4232 -0.4006 -0.0092
  161SOL     OW  641   1.446   1.853   0.615  0.3277  0.0939 -0.1502
  161SOL    HW1  642   1.418   1.897   0.695 -0.3305 -0.5025 -0.0406
  161SOL    HW2  643   1.459   1.761   0.641  0.7125  0.0207 -0.5903
  161SOL     MW  644   1.444   1.847   0.628  0.2927  0.0082 -0.1925
  162SOL     OW  645   0.306   2.236   3.627 -0.0821  0.6262  0.5320
  162SOL    HW1  646   0.215   2.212   3.643  0.0604 -0.8942 -0.6870
  162SOL    HW2  647   0.306   2.331   3.621 -1.6884  0.6068 -0.0757
  162SOL     MW  648   0.295   2.245   3.628 -0.2695  0.4291  0.2982
  163SOL     OW  649   0.502   1.291   2.209 -0.2923  0.3762  0.2492
  163SOL    HW1  650   0.487   1.245   2.126  3.2004 -1.4505  0.4331
  163SOL    HW2  651   0.425   1.272   2.262 -1.2244 -1.0150 -1.4920
  163SOL     MW  652   0.490   1.283   2.205  0.0355 -0.0358  0.0499
  164SOL     OW  653   4.584   0.620   0.198  0.4583 -0.1835 -0.1759
  164SOL    HW1  654   4.661   0.567   0.219 -0.2056 -1.4384 -0.7743
  164SOL    HW2  655   4.511   0.559   0.207 -0.4460  0.9161  0.0992
  164SOL     MW  656   4.585   0.606   0.202  0.2576 -0.2034 -0.2173
  165SOL     OW  657   0.986   4.811   2.086 -0.0657  0.1105  0.0092
  165SOL    HW1  658   0.924   4.739   2.087  0.2516 -0.1821 -0.5483
  165SOL    HW2  659   0.942   4.882   2.132 -0.1701 -0.6083  1.0568
  165SOL     MW  660   0.973   4.811   2.092 -0.0384 -0.0189  0.0720
  166SOL     OW  661   0.502   1.520   0.575 -0.5290  0.1989  0.4487
  166SOL    HW1  662   0.476   1.442   0.625 -0.5059  0.9398  1.6658
  166SOL    HW2  663   0.591   1.501   0.545 -1.2822 -1.1109 -1.1465
  166SOL     MW  664   0.510   1.507   0.578 -0.6225  0.1261  0.4003
  167SOL     OW  665   2.523   4.333   4.838 -0.6624 -0.0737  0.3394
  167SOL    HW1  666   2.597   4.316   4.779 -0.1596  1.3698  0.5188
  167SOL    HW2  667   2.459   4.266   4.815  0.5322 -1.1202 -0.0999
  167SOL     MW  668   2.524   4.322   4.828 -0.4452 -0.0229  0.3061
  168SOL     OW  669   2.894   4.542   0.879 -0.0166 -0.1140 -0.1105
  168SOL    HW1  670   2.981   4.511   0.856  0.5037 -0.2113  1.7900
  168SOL    HW2  671   2.891   4.632   0.846  0.1290 -0.6602 -1.7035
  168SOL     MW  672   2.905   4.550   0.872  0.0687 -0.1964 -0.0711
  169SOL     OW  673   3.065   4.136   4.059  0.1029  0.1501  0.3421
  169SOL    HW1  674   3.138   4.096   4.106 -0.4625  0.0801  1.1798
  169SOL    HW2  675   3.107   4.196   3.997  0.8891 -0.3807  0.3360
  169SOL     MW  676   3.080   4.138   4.057  0.1311  0.0732  0.4485
  170SOL     OW  677   4.708   1.542   2.599  0.0061  0.5214 -0.6435
  170SOL    HW1  678   4.800   1.550   2.625 -0.1655  0.6860 -0.0786
  170SOL    HW2  679   4.709   1.480   2.526  0.7825  1.8394 -1.8205
  170SOL     MW  680   4.720   1.535   2.593  0.0835  0.7111 -0.7218
  171SOL     OW  681   0.154   3.012   2.293  0.3840 -0.5946 -0.1070
  171SOL    HW1  682   0.248   2.994   2.288  0.7412  1.3307 -1.6577
  171SOL    HW2  683   0.146   3.076   2.364  0.6096  0.9761 -1.4464
  171SOL     MW  684   0.165   3.018   2.302  0.4586 -0.1470 -0.4770
  172SOL     OW  685   2.209   4.266   4.088 -0.0783 -0.5789 -0.0937
  172SOL    HW1  686   2.188   4.302   4.174 -2.4243  1.2301 -1.3206
  172SOL    HW2  687   2.298   4.295   4.071 -0.9283  2.4726  0.1316
  172SOL     MW  688   2.218   4.274   4.097 -0.4874  0.0433 -0.2219
  173SOL     OW  689   1.808   1.944   5.345  0.5285  0.1168 -0.1133
  173SOL    HW1  690   1.745   2.005   5.382  0.7694 -0.6389  1.6401
  173SOL    HW2  691   1.764   1.905   5.270  0.2775  2.2134 -1.1305
  173SOL     MW  692   1.795   1.947   5.340  0.5272  0.2884 -0.0190
  174SOL     OW  693   2.366   4.650   2.193  0.1154 -0.1864 -0.0445
  174SOL    HW1  694   2.443   4.607   2.231 -0.1295 -0.1304  0.5288
  174SOL    HW2  695   2.294   4.624   2.250 -0.1958  0.2153 -0.2514
  174SOL     MW  696   2.367   4.642   2.206  0.0442 -0.1278  0.0024
  175SOL     OW  697   1.630   5.372   2.725 -0.8263  0.0928 -0.2995
  175SOL    HW1  698   1.636   5.464   2.701 -0.6344 -0.4387 -2.5349
  175SOL    HW2  699   1.636   5.325   2.642  2.8892 -2.1412  0.9935
  175SOL     MW  700   1.631   5.378   2.711 -0.3261 -0.2612 -0.4201
  176SOL     OW  701   1.947   2.976   3.426 -0.4733  0.3766 -0.5422
  176SOL    HW1  702   1.916   2.993   3.515 -1.6754  1.6624 -1.1482
  176SOL    HW2  703   1.942   3.062   3.383 -1.3164 -0.4731 -2.2369
  176SOL     MW  704   1.942   2.989   3.432 -0.7351  0.4324 -0.8367
  177SOL     OW  705   4.353   3.856   0.382 -0.3053 -0.1016  0.8220
  177SOL    HW1  706   4.298   3.888   0.311  0.3152 -0.0360  0.3586
  177SOL    HW2  707   4.385   3.771   0.352  0.7475  0.3611  0.5835
  177SOL     MW  708   4.350   3.849   0.369 -0.0911 -0.0340  0.7321
  178SOL     OW  709   0.559   0.746   0.604 -0.3165 -0.4494 -0.5074
  178SOL    HW1  710   0.622   0.763   0.674  0.6277 -0.4653 -1.3263
  178SOL    HW2  711   0.583   0.659   0.571 -0.6909 -0.4041 -0.9127
  178SOL     MW  712   0.570   0.737   0.609 -0.2435 -0.4456 -0.6641
  179SOL     OW  713   1.216   2.476   2.105  0.3484  0.1632 -0.3151
  179SOL    HW1  714   1.284   2.534   2.071  0.5309  1.2418  1.6941
  179SOL    HW2  715   1.135   2.525   2.093  0.2732  0.0363 -0.3222
  179SOL     MW  716   1.214   2.490   2.099  0.3621  0.2850 -0.0588
  180SOL     OW  717   2.356   3.211   3.815  0.6280 -0.4287 -0.2998
  180SOL    HW1  718   2.325   3.186   3.902  0.2592 -0.5116 -0.4526
  180SOL    HW2  719   2.410   3.288   3.830 -0.2952  0.1937 -0.1179
  180SOL     MW  720   2.359   3.217   3.828  0.4626 -0.3597 -0.2961
  181SOL     OW  721   0.832   2.657   5.113 -0.0112 -0.2652 -0.4521
  181SOL    HW1  722   0.846   2.751   5.116  0.7764 -0.3926  0.0871
  181SOL    HW2  723   0.761   2.645   5.050  1.2117  0.5519 -2.0720
  181SOL     MW  724   0.825   2.667   5.105  0.2462 -0.1769 -0.5904
  182SOL     OW  725   4.285   3.979   3.765 -0.0221  0.4540 -0.1666
  182SOL    HW1  726   4.324   3.893   3.776 -1.0452  0.1759  1.6899
  182SOL    HW2  727   4.249   4.001   3.851 -0.3749  2.4487 -0.7601
  182SOL     MW  728   4.285   3.971   3.777 -0.1982  0.6738 -0.0050
  183SOL     OW  729   3.967   5.143   4.462  0.0720  0.0577 -0.3762
  183SOL    HW1  730   4.031   5.125   4.394 -0.4307 -1.4392 -0.4962
  183SOL    HW2  731   4.010   5.116   4.543  0.7206  1.9599 -0.0383
  183SOL     MW  732   3.981   5.137   4.464  0.0907  0.1096 -0.3483
  184SOL     OW  733   0.554   5.236   4.007  0.2061 -0.4287  0.1864
  184SOL    HW1  734   0.469   5.238   4.050 -0.0081  1.9503 -0.1971
  184SOL    HW2  735   0.534   5.226   3.914  0.2043  1.4773 -0.0568
  184SOL     MW  736   0.541   5.235   4.001  0.1785  0.1199  0.1061
  185SOL     OW  737   1.509   3.640   1.044  0.1051 -0.0478 -0.5844
  185SOL    HW1  738   1.523   3.684   1.128  3.2226 -1.5296 -0.1786
  185SOL    HW2  739   1.550   3.698   0.980 -1.8645  0.8551 -1.0946
  185SOL     MW  740   1.516   3.653   1.047  0.2520 -0.1219 -0.5977
  186SOL     OW  741   1.645   5.406   3.500 -0.1862  0.1192 -0.2349
  186SOL    HW1  742   1.574   5.467   3.481  0.8906  1.3997 -0.3271
  186SOL    HW2  743   1.652   5.352   3.422 -0.7898  0.2451 -0.3800
  186SOL     MW  744   1.637   5.407   3.488 -0.1256  0.2993 -0.2653
  187SOL     OW  745   4.155   0.146   3.072  0.5850  0.6222  0.2679
  187SOL    HW1  746   4.213   0.100   3.132  1.2113  1.1943  0.1129
  187SOL    HW2  747   4.159   0.096   2.990  1.2140  0.9092  0.1188
  187SOL     MW  748   4.163   0.134   3.069  0.7457  0.7322  0.2290
  188SOL     OW  749   1.283   2.720   0.402 -0.3523  0.1679  0.1668
  188SOL    HW1  750   1.228   2.783   0.356 -0.9283  0.8470  1.7208
  188SOL    HW2  751   1.232   2.639   0.402 -0.4032  0.1987 -0.2627
  188SOL     MW  752   1.269   2.718   0.396 -0.4326  0.2588  0.3108
  189SOL     OW  753   2.955   3.656   5.380 -0.1392  0.3607 -0.1043
  189SOL    HW1  754   2.872   3.643   5.426 -0.4878 -0.6613 -0.9828
  189SOL    HW2  755   3.002   3.573   5.391  0.2489  0.5015 -0.6304
  189SOL     MW  756   2.951   3.644   5.387 -0.1342  0.2479 -0.2841
  190SOL     OW  757   1.620   2.041   1.299 -0.2077  0.4707  0.3079
  190SOL    HW1  758   1.537   2.081   1.325 -0.7098  1.0108 -1.9158
  190SOL    HW2  759   1.616   2.038   1.203  2.4087  0.6905  0.1169
  190SOL     MW  760   1.609   2.046   1.290  0.0630  0.5680 -0.0012
  191SOL     OW  761   0.435   4.236   1.620 -0.0957 -0.2947  0.3473
  191SOL    HW1  762   0.411   4.234   1.712  1.4928  0.6845  0.8275
  191SOL    HW2  763   0.446   4.329   1.600 -1.8019 -0.3841 -1.2420
  191SOL     MW  764   0.433   4.248   1.629 -0.1108 -0.1808  0.2054
  192SOL     OW  765   1.201   0.323   4.860  0.3302  0.6609 -0.4358
  192SOL    HW1  766   1.242   0.404   4.892 -1.7131  2.0069 -1.0239
  192SOL    HW2  767   1.151   0.350   4.783  0.4461 -1.4001 -1.3070
  192SOL     MW  768   1.200   0.337   4.854  0.0835  0.5693 -0.6226
  193SOL     OW  769   1.030   4.425   1.650 -0.0716 -0.1099  0.7717
  193SOL    HW1  770   1.061   4.495   1.593 -1.6556 -1.0718 -1.4477
  193SOL    HW2  771   1.109   4.390   1.691  1.0103  1.4129  0.0741
  193SOL     MW  772   1.044   4.429   1.648 -0.1359 -0.0381  0.3983
  194SOL     OW  773   2.503   3.742   3.846 -0.2884  0.1230 -0.2680
  194SOL    HW1  774   2.591   3.770   3.870 -0.1723 -0.5467  0.1039
  194SOL    HW2  775   2.456   3.736   3.929 -0.3783 -0.5397 -0.3644
  194SOL     MW  776   2.508   3.745   3.859 -0.2850 -0.0476 -0.2327
  195SOL     OW  777   2.966   2.558   0.270  0.3226 -0.5013 -0.4489
  195SOL    HW1  778   3.026   2.504   0.219 -2.6282 -1.8824 -2.7248
  195SOL    HW2  779   2.947   2.506   0.348  1.5844 -0.2733  0.0389
  195SOL     MW  780   2.972   2.545   0.274  0.1064 -0.6490 -0.6778
  196SOL     OW  781   3.256   0.762   3.722  0.1035 -0.0223  0.4682
  196SOL    HW1  782   3.178   0.713   3.693 -0.2676  0.9788 -0.2772
  196SOL    HW2  783   3.329   0.702   3.706 -0.3306 -0.2988 -0.5477
  196SOL     MW  784   3.255   0.748   3.716  0.0005  0.0705  0.2428
  197SOL     OW  785   2.126   0.839   0.845 -0.3203 -0.7911 -0.3859
  197SOL    HW1  786   2.059   0.907   0.844 -0.3417 -0.8164 -0.7225
  197SOL    HW2  787   2.125   0.806   0.935 -0.7176 -0.7548 -0.3755
  197SOL     MW  788   2.118   0.844   0.857 -0.3739 -0.7897 -0.4276
  198SOL     OW  789   4.451   2.020   2.391 -0.0203 -0.1318 -0.1157
  198SOL    HW1  790   4.481   2.101   2.432  0.5198 -1.1457  1.5888
  198SOL    HW2  791   4.392   1.981   2.455 -1.4347 -0.4143 -1.5265
  198SOL     MW  792   4.447   2.025   2.404 -0.1322 -0.2978 -0.0781
  199SOL     OW  793   1.598   0.947   1.216  0.0298 -0.0207  0.2138
  199SOL    HW1  794   1.540   0.985   1.150  1.5719  0.0436 -1.1691
  199SOL    HW2  795   1.541   0.893   1.270 -1.1595 -0.8133 -1.7408
  199SOL     MW  796   1.584   0.945   1.214  0.0750 -0.1139 -0.2135
  200SOL     OW  797   3.866   4.457   3.121 -0.4089  0.5411  0.0269
  200SOL    HW1  798   3.941   4.448   3.062 -2.2920 -0.7810 -2.3393
  200SOL    HW2  799   3.791   4.464   3.063 -2.3661 -0.4811  2.2900
  200SOL     MW  800   3.866   4.457   3.106 -0.9005  0.2410  0.0137
  201SOL     OW  801   1.610   0.546   1.066 -0.5884  0.0886  0.2765
  201SOL    HW1  802   1.673   0.564   1.136 -0.4423  0.0309  0.1595
  201SOL    HW2  803   1.658   0.491   1.004 -1.2222 -1.2612  0.9399
  201SOL     MW  804   1.624   0.542   1.067 -0.6508 -0.0915  0.3465
  202SOL     OW  805   0.215   4.596   1.163 -0.2056 -0.5545  0.1188
  202SOL    HW1  806   0.183   4.519   1.211 -0.7150 -1.6536 -1.8945
  202SOL    HW2  807   0.273   4.561   1.096 -0.0878  0.8735 -0.5741
  202SOL     MW  808   0.218   4.582   1.161 -0.2557 -0.5124 -0.2276
  203SOL     OW  809   4.511   1.810   4.813 -0.3066 -0.1991 -0.3476
  203SOL    HW1  810   4.419   1.788   4.829 -0.5172  0.9124  0.0367
  203SOL    HW2  811   4.559   1.757   4.877 -0.8357  0.7993  0.9217
  203SOL     MW  812   4.505   1.800   4.823 -0.4013  0.0710 -0.1359
  204SOL     OW  813   3.653   1.321   4.676 -0.0626  0.0491 -0.4590
  204SOL    HW1  814   3.640   1.228   4.692 -0.1662  0.2342  0.6725
  204SOL    HW2  815   3.603   1.364   4.746 -0.8579  0.9838 -1.5707
  204SOL     MW  816   3.645   1.315   4.687 -0.1776  0.1924 -0.4565
  205SOL     OW  817   0.487   1.911   2.287 -0.4292  0.1033 -0.3454
  205SOL    HW1  818   0.442   1.893   2.370  1.7139 -1.7988  0.5398
  205SOL    HW2  819   0.454   1.846   2.226  0.9539 -1.2517  0.2863
  205SOL     MW  820   0.477   1.901   2.290  0.0222 -0.3136 -0.1512
  206SOL     OW  821   2.015   0.491   1.106  0.0237  0.1837  0.2257
  206SOL    HW1  822   1.942   0.538   1.148  0.7879  0.5107  1.2257
  206SOL    HW2  823   2.064   0.454   1.179 -0.0638 -1.4709 -0.5095
  206SOL     MW  824   2.012   0.493   1.121  0.1103  0.0137  0.2596
  207SOL     OW  825   4.480   4.182   3.647  0.0581  0.0710  0.4622
  207SOL    HW1  826   4.420   4.126   3.697  1.2942 -1.4740  0.3122
  207SOL    HW2  827   4.457   4.165   3.555 -1.1596  1.6998  0.4279
  207SOL     MW  828   4.470   4.172   3.641  0.0605  0.0817  0.4386
  208SOL     OW  829   0.956   2.348   0.884  0.0624  0.5744 -0.0715
  208SOL    HW1  830   0.928   2.433   0.918 -0.0269  0.3967  0.3049
  208SOL    HW2  831   0.913   2.284   0.941  0.4467  0.2817 -0.1071
  208SOL     MW  832   0.947   2.351   0.895  0.1001  0.5142 -0.0279
  209SOL     OW  833   5.372   2.501   4.760  0.6352 -0.0747 -0.1759
  209SOL    HW1  834   5.439   2.557   4.721  0.2230  0.8904  0.4278
  209SOL    HW2  835   5.421   2.434   4.808  1.3009  1.7426  1.9052
  209SOL     MW  836   5.387   2.500   4.761  0.6676  0.2815  0.1678
  210SOL     OW  837   0.403   3.166   4.387 -0.3563  0.0697  0.3699
  210SOL    HW1  838   0.394   3.249   4.434  1.3112  0.4421  0.0767
  210SOL    HW2  839   0.319   3.155   4.342 -0.2168  2.1983 -0.5229
  210SOL     MW  840   0.391   3.175   4.387 -0.1250  0.3899  0.2181
  211SOL     OW  841   3.440   3.210   5.298 -0.5606  0.1630  0.5089
  211SOL    HW1  842   3.429   3.125   5.341  0.7707  0.8365  2.2950
  211SOL    HW2  843   3.442   3.273   5.370  2.8310  1.2504 -0.3914
  211SOL     MW  844   3.439   3.207   5.313  0.0440  0.3884  0.6223
  212SOL     OW  845   1.789   5.332   4.905 -0.0547 -0.3370 -0.0465
  212SOL    HW1  846   1.733   5.274   4.853  0.0071 -0.2969 -0.1579
  212SOL    HW2  847   1.779   5.301   4.995  0.9782 -1.3477 -0.2530
  212SOL     MW  848   1.780   5.321   4.910  0.0854 -0.4612 -0.0872
  213SOL     OW  849   0.497   2.881   0.420  0.5451 -0.0008  0.1299
  213SOL    HW1  850   0.523   2.849   0.506 -1.8822 -1.8007  0.2963
  213SOL    HW2  851   0.445   2.810   0.383  0.2558  1.3387 -2.2250
  213SOL     MW  852   0.494   2.868   0.426  0.1974 -0.0597 -0.1502
  214SOL     OW  853   5.082   1.822   2.825 -0.2916  0.0590  0.5120
  214SOL    HW1  854   5.175   1.822   2.848 -0.3716  1.1840  0.9204
  214SOL    HW2  855   5.069   1.906   2.781 -1.0453 -0.2511  0.1226
  214SOL     MW  856   5.092   1.833   2.822 -0.3983  0.1633  0.5145
  215SOL     OW  857   0.200   4.524   3.417 -0.0697  0.0977  0.3089
  215SOL    HW1  858   0.165   4.478   3.340 -0.7015 -0.1032  0.7079
  215SOL    HW2  859   0.207   4.615   3.388  1.1165 -0.2155 -0.4564
  215SOL     MW  860   0.196   4.530   3.403  0.0013  0.0319  0.2620
  216SOL     OW  861   1.371   4.460   3.088 -0.6986  0.1415  0.0755
  216SOL    HW1  862   1.385   4.392   3.022 -1.1086  0.1367 -0.0074
  216SOL    HW2  863   1.276   4.470   3.092 -0.7688 -0.7357  1.5521
  216SOL     MW  864   1.361   4.452   3.080 -0.7600  0.0286  0.2539
  217SOL     OW  865  -0.012   2.496   3.948 -0.5702  0.1065  0.4356
  217SOL    HW1  866   0.036   2.532   4.022 -0.2694 -0.2637  0.4207
  217SOL    HW2  867   0.054   2.488   3.878 -0.9130  0.7544  0.0203
  217SOL     MW  868   0.002   2.500   3.948 -0.5756  0.1421  0.3805
  218SOL     OW  869   3.305   0.479   1.292 -0.0045  0.2600  0.3637
  218SOL    HW1  870   3.385   0.430   1.308 -0.6102 -1.7744 -2.1929
  218SOL    HW2  871   3.235   0.415   1.301 -1.3826  1.8897  2.0555
  218SOL     MW  872   3.306   0.465   1.295 -0.2584  0.2082  0.2530
  219SOL     OW  873   0.988   4.335   0.893 -0.0288  0.2635 -0.0150
  219SOL    HW1  874   0.954   4.256   0.851  1.4527  0.4689 -1.6881
  219SOL    HW2  875   0.911   4.391   0.904 -0.4090  0.5778 -3.3820
  219SOL     MW  876   0.973   4.332   0.889  0.1122  0.3300 -0.6602
  220SOL     OW  877   0.882   5.025   2.237  0.1325 -0.3444 -0.0830
  220SOL    HW1  878   0.834   5.069   2.167 -0.8139  0.1891  0.8637
  220SOL    HW2  879   0.965   5.073   2.243  0.6376 -0.9861 -1.4285
  220SOL     MW  880   0.886   5.037   2.229  0.0760 -0.3582 -0.1341
  221SOL     OW  881   5.390   4.672   3.963 -0.5006  0.1603 -0.0850
  221SOL    HW1  882   5.457   4.670   3.894  0.7988 -1.0408  1.1216
  221SOL    HW2  883   5.359   4.762   3.964  0.4802  0.5459 -1.2842
  221SOL     MW  884   5.395   4.683   3.954 -0.2087  0.0559 -0.0841
  222SOL     OW  885   1.326   0.817   1.036 -0.1401  0.6332  0.3315
  222SOL    HW1  886   1.380   0.760   0.982 -0.4866 -0.2010  0.8468
  222SOL    HW2  887   1.360   0.905   1.020 -0.8278  0.5605 -1.9839
  222SOL     MW  888   1.337   0.821   1.027 -0.2725  0.5171  0.1011
  223SOL     OW  889   2.306   2.818   3.832  0.2099  0.5930 -0.1947
  223SOL    HW1  890   2.377   2.883   3.828 -0.8253  1.9663  1.8095
  223SOL    HW2  891   2.241   2.849   3.769  0.4284  0.5849 -0.4252
  223SOL     MW  892   2.307   2.830   3.824  0.1053  0.7678  0.0323
  224SOL     OW  893   3.804   4.631   0.370  0.0888  0.0187  0.3112
  224SOL    HW1  894   3.779   4.713   0.414  0.8851 -0.4921  1.7757
  224SOL    HW2  895   3.758   4.635   0.286  0.2520  2.0579  0.2500
  224SOL     MW  896   3.795   4.642   0.365  0.2117  0.2144  0.4909
  225SOL     OW  897   2.822   1.473   5.418  0.3297 -0.2491 -0.1695
  225SOL    HW1  898   2.914   1.452   5.405  0.3114 -0.6196  0.2784
  225SOL    HW2  899   2.788   1.400   5.469  0.0184  0.3654  0.5150
  225SOL     MW  900   2.829   1.461   5.423  0.2875 -0.2178 -0.0245
  226SOL     OW  901   2.389   1.903   4.068 -0.4752  0.0820 -0.4831
  226SOL    HW1  902   2.425   1.982   4.110  0.0141  0.4612 -1.5627
  226SOL    HW2  903   2.321   1.873   4.127  1.7870 -0.8244  1.8352
  226SOL     MW  904   2.385   1.909   4.081 -0.1229  0.0145 -0.3245
  227SOL     OW  905   2.117   0.373   1.331  0.2426 -0.1266  0.0509
  227SOL    HW1  906   2.067   0.310   1.383 -1.9553 -1.4197 -3.2866
  227SOL    HW2  907   2.183   0.320   1.286 -0.8848  0.0408 -1.9102
  227SOL     MW  908   2.119   0.359   1.332 -0.1831 -0.2707 -0.6274
  228SOL     OW  909   2.663   1.874   0.081 -0.7654  0.2141 -0.4722
  228SOL    HW1  910   2.743   1.828   0.055  0.6337  1.7497  0.8296
  228SOL    HW2  911   2.651   1.852   0.174 -0.4805  1.8149 -0.0246
  228SOL     MW  912   2.672   1.866   0.090 -0.5498  0.6156 -0.2483
  229SOL     OW  913   3.277   0.771   1.296  0.1526  0.3903 -0.3541
  229SOL    HW1  914   3.247   0.684   1.272 -0.7732  1.1620 -2.2059
  229SOL    HW2  915   3.200   0.815   1.331  0.2341  0.9347 -0.8394
  229SOL     MW  916   3.264   0.766   1.297  0.0445  0.5588 -0.6533
  230SOL     OW  917   0.428   1.221   1.527  0.0714 -0.1917 -0.1212
  230SOL    HW1  918   0.488   1.289   1.557 -0.1208 -1.3540  3.2955
  230SOL    HW2  919   0.348   1.268   1.504 -0.4714  0.8001  3.2825
  230SOL     MW  920   0.425   1.236   1.528 -0.0227 -0.2136  0.7519
  231SOL     OW  921   0.127   1.261   2.099 -0.1706 -0.4513 -0.2050
  231SOL    HW1  922   0.215   1.239   2.069  0.2592  0.3479  0.4178
  231SOL    HW2  923   0.081   1.292   2.021  0.2037 -0.5551 -0.4673
  231SOL     MW  924   0.132   1.262   2.086 -0.0677 -0.3623 -0.1588
  232SOL     OW  925   2.683   0.990   1.230  0.0572 -0.7132  0.0066
  232SOL    HW1  926   2.651   1.055   1.167 -0.3235 -1.3081 -0.4248
  232SOL    HW2  927   2.628   1.003   1.307  0.3251 -0.1797  0.1074
  232SOL     MW  928   2.672   1.000   1.232  0.0428 -0.7211 -0.0357
  233SOL     OW  929   3.364   0.313   3.259 -0.2462 -0.4684  0.3610
  233SOL    HW1  930   3.389   0.341   3.347 -3.0755  0.1329  1.0873
  233SOL    HW2  931   3.370   0.393   3.206  1.9499 -0.9369 -0.1912
  233SOL     MW  932   3.368   0.327   3.263 -0.3273 -0.4514  0.3833
  234SOL     OW  933   3.767   3.053   4.910 -0.0678 -0.2665 -0.1507
  234SOL    HW1  934   3.687   3.105   4.919  1.0689  1.3557  1.0562
  234SOL    HW2  935   3.738   2.963   4.921 -1.7468  0.2682  0.1305
  234SOL     MW  936   3.753   3.048   4.912 -0.1372  0.0096  0.0398
  235SOL     OW  937   2.375   2.242   0.136  0.7931  0.7683 -0.3977
  235SOL    HW1  938   2.313   2.187   0.182  0.4603  1.6728  0.2620
  235SOL    HW2  939   2.435   2.181   0.094 -0.0612 -0.1021 -0.3851
  235SOL     MW  940   2.375   2.227   0.136  0.6411  0.7727 -0.3116
  236SOL     OW  941   0.564   4.077   3.072 -0.1691  0.0002 -0.3894
  236SOL    HW1  942   0.586   4.025   3.149 -0.6021 -0.2991 -0.4651
  236SOL    HW2  943   0.589   4.022   2.998  0.8920  0.5670 -0.4670
  236SOL     MW  944   0.570   4.063   3.072 -0.0887  0.0345 -0.4090
  237SOL     OW  945   0.226   3.716   3.879  0.0286  0.2532 -0.0649
  237SOL    HW1  946   0.294   3.652   3.900  0.8806  0.7095 -1.3177
  237SOL    HW2  947   0.157   3.700   3.943  1.0589 -0.6200  0.8604
  237SOL     MW  948   0.226   3.706   3.890  0.2696  0.1999 -0.1068
  238SOL     OW  949   1.453   1.837   5.349 -0.1804  0.3837 -0.0732
  238SOL    HW1  950   1.383   1.883   5.395 -0.4571 -1.4445  1.4528
  238SOL    HW2  951   1.410   1.760   5.312  1.1196 -1.2868  1.7105
  238SOL     MW  952   1.439   1.833   5.350 -0.0494 -0.0642  0.3504
  239SOL     OW  953   2.472   4.547   2.666 -0.3765 -0.6532 -0.5325
  239SOL    HW1  954   2.498   4.622   2.721 -0.0362 -0.6768 -0.6583
  239SOL    HW2  955   2.379   4.537   2.683 -0.8287  0.8992 -1.8078
  239SOL     MW  956   2.464   4.555   2.675 -0.3909 -0.4575 -0.7119
  240SOL     OW  957   3.256   5.106   5.417 -0.0058 -0.3775  0.2858
  240SOL    HW1  958   3.187   5.079   5.357 -0.8062  0.7988  0.6359
  240SOL    HW2  959   3.242   5.053   5.496 -1.2546  0.6538  0.7895
  240SOL     MW  960   3.245   5.096   5.420 -0.2681 -0.0949  0.3951
  241SOL     OW  961   4.394   1.170   2.317 -0.3382  0.1528 -0.0046
  241SOL    HW1  962   4.446   1.106   2.366 -0.6804 -0.5666 -0.5619
  241SOL    HW2  963   4.385   1.245   2.376  1.9101  0.5912 -0.1199
  241SOL     MW  964   4.400   1.172   2.331 -0.0942  0.1168 -0.0907
  242SOL     OW  965   4.009   4.375   0.823 -0.3246 -0.6472  0.6253
  242SOL    HW1  966   3.924   4.420   0.823 -0.6375 -1.2265 -0.0956
  242SOL    HW2  967   4.045   4.392   0.736 -0.1463 -1.2177  0.5831
  242SOL     MW  968   4.002   4.383   0.812 -0.3418 -0.7944  0.5276
  243SOL     OW  969   2.998   1.702   4.278  0.1835  0.1235  0.1229
  243SOL    HW1  970   2.904   1.693   4.296 -0.3106 -1.4501 -2.6546
  243SOL    HW2  971   3.031   1.612   4.280  1.1268  0.4192 -1.2001
  243SOL     MW  972   2.990   1.689   4.281  0.2410 -0.0401 -0.4020
  244SOL     OW  973   4.004   5.137   3.025 -0.2507  0.0415  0.3973
  244SOL    HW1  974   3.934   5.073   3.039  1.0399 -1.1263  1.8255
  244SOL    HW2  975   4.084   5.088   3.040  0.9042  1.3726 -1.1420
  244SOL     MW  976   4.005   5.122   3.028  0.0624  0.0624  0.3831
  245SOL     OW  977   4.522   2.275   2.475 -0.1836 -0.1507  0.1596
  245SOL    HW1  978   4.445   2.325   2.501 -0.7489 -0.7299 -0.3522
  245SOL    HW2  979   4.519   2.276   2.379 -0.5782 -1.6850  0.1187
  245SOL     MW  980   4.512   2.281   2.466 -0.3065 -0.4212  0.0888
  246SOL     OW  981   3.657   3.970   0.345 -0.1474 -0.1847 -0.1979
  246SOL    HW1  982   3.749   3.944   0.355  0.2166  0.8276 -0.8620
  246SOL    HW2  983   3.656   4.064   0.363 -0.9914 -0.1021 -0.6306
  246SOL     MW  984   3.668   3.979   0.349 -0.2088 -0.0445 -0.3383
  247SOL     OW  985   1.406   0.650   4.694  0.7178 -0.2544  0.2355
  247SOL    HW1  986   1.363   0.661   4.609 -0.0004  1.5661  0.7957
  247SOL    HW2  987   1.498   0.635   4.673  0.4360 -0.5027 -0.8747
  247SOL     MW  988   1.412   0.649   4.680  0.5898 -0.0532  0.1651
  248SOL     OW  989   3.347   4.794   1.737  0.1487  0.3083 -0.1890
  248SOL    HW1  990   3.376   4.860   1.800 -0.3091  0.6546 -0.3340
  248SOL    HW2  991   3.398   4.716   1.758 -0.0809  0.3825  0.6865
  248SOL     MW  992   3.357   4.792   1.748  0.0607  0.3621 -0.0955
  249SOL     OW  993   5.077   3.176   0.946 -0.6236 -0.1440  0.2713
  249SOL    HW1  994   5.082   3.094   0.994  4.9034 -0.5463 -0.3561
  249SOL    HW2  995   5.105   3.243   1.009  1.3226  0.1555 -0.8449
  249SOL     MW  996   5.081   3.174   0.960  0.3330 -0.1572  0.0481
  250SOL     OW  997   3.555   0.464   1.484  0.0574 -0.3608 -1.0793
  250SOL    HW1  998   3.588   0.500   1.402  1.5312 -0.3334 -0.5215
  250SOL    HW2  999   3.554   0.539   1.544  0.2029 -0.6188 -0.7471
  250SOL     MW 1000   3.559   0.478   1.481  0.2647 -0.3903 -0.9653
  251SOL     OW 1001   3.041   4.806   1.355 -0.4051  0.3796  0.1480
  251SOL    HW1 1002   3.115   4.859   1.326  0.7583 -0.2118  1.8177
  251SOL    HW2 1003   3.068   4.774   1.441 -2.7477  0.3543  0.9314
  251SOL     MW 1004   3.054   4.808   1.362 -0.5561  0.3007  0.4620
  252SOL     OW 1005   3.040   1.753   5.262  0.5114  0.5476  0.1265
  252SOL    HW1 1006   2.979   1.783   5.195  1.0945  2.3036  0.3197
  252SOL    HW2 1007   2.985   1.728   5.336 -0.0738 -0.2350 -0.5590
  252SOL     MW 1008   3.025   1.754   5.263  0.5111  0.6722  0.0635
  253SOL     OW 1009   4.853   3.425   4.326 -0.3287 -0.9354  0.1618
  253SOL    HW1 1010   4.900   3.435   4.243  1.3023  0.6596  1.2198
  253SOL    HW2 1011   4.784   3.490   4.322 -0.5958 -1.2263 -0.1324
  253SOL     MW 1012   4.850   3.434   4.315 -0.1541 -0.7685  0.2596
  254SOL     OW 1013   0.871   2.165   3.711 -0.1644 -0.2465  0.2753
  254SOL    HW1 1014   0.834   2.107   3.644  1.3011 -0.7068 -0.1834
  254SOL    HW2 1015   0.849   2.253   3.681 -0.1354 -0.4775 -0.4418
  254SOL     MW 1016   0.864   2.169   3.698  0.0269 -0.3350  0.1248
  255SOL     OW 1017   0.304   1.986   4.732  0.2627  0.2315  0.4830
  255SOL    HW1 1018   0.332   1.911   4.785  0.9492  0.4762  0.4790
  255SOL    HW2 1019   0.385   2.021   4.695 -0.0524  0.9389  0.4353
  255SOL     MW 1020   0.318   1.981   4.734  0.3102  0.3534  0.4763
  256SOL     OW 1021   1.103   2.144   0.477 -0.0295 -0.6829 -0.1069
  256SOL    HW1 1022   1.110   2.224   0.529  1.7969 -1.2022  0.5285
  256SOL    HW2 1023   1.113   2.173   0.386  0.6763 -0.1692  0.1208
  256SOL     MW 1024   1.105   2.158   0.472  0.2946 -0.6836  0.0036
  257SOL     OW 1025   3.149   1.457   4.240 -0.3701 -0.0846 -0.0065
  257SOL    HW1 1026   3.185   1.438   4.327  1.4989 -0.6208 -0.8444
  257SOL    HW2 1027   3.224   1.490   4.190 -1.5030  0.6088 -1.3022
  257SOL     MW 1028   3.163   1.459   4.245 -0.2759 -0.0645 -0.2797
  258SOL     OW 1029   2.720   3.659   0.577  0.1166 -0.1019 -0.2735
  258SOL    HW1 1030   2.762   3.717   0.640 -0.0971  1.5176 -1.5586
  258SOL    HW2 1031   2.789   3.636   0.515 -0.3063  0.5992 -1.0214
  258SOL     MW 1032   2.734   3.663   0.577  0.0351  0.1952 -0.5338
  259SOL     OW 1033   2.085   0.836   4.735 -0.0947 -0.5246 -0.0358
  259SOL    HW1 1034   2.040   0.864   4.815 -0.0205 -0.0149 -0.1715
  259SOL    HW2 1035   2.065   0.743   4.728  0.8209 -0.8355  1.2007
  259SOL     MW 1036   2.077   0.828   4.745  0.0320 -0.4992  0.1051
  260SOL     OW 1037   3.939   5.192   0.876 -0.2823  0.4251 -0.2354
  260SOL    HW1 1038   3.991   5.207   0.798  2.1021  0.3764  1.2332
  260SOL    HW2 1039   3.997   5.216   0.949 -1.9207 -0.7424  1.5728
  260SOL     MW 1040   3.953   5.197   0.876 -0.1868  0.2694  0.1841
  261SOL     OW 1041   1.091   4.931   4.232  1.0436 -0.0716  0.3933
  261SOL    HW1 1042   1.108   4.866   4.165  0.6603 -0.7143  0.9101
  261SOL    HW2 1043   1.175   4.977   4.243  1.1388 -0.0287 -0.4304
  261SOL     MW 1044   1.104   4.929   4.225  1.0067 -0.1484  0.3540
  262SOL     OW 1045   0.503   5.316   3.721 -0.0322 -0.1718 -0.8002
  262SOL    HW1 1046   0.486   5.405   3.690  0.1173 -0.0380 -0.5017
  262SOL    HW2 1047   0.433   5.263   3.683 -0.6631  0.2317 -0.2316
  262SOL     MW 1048   0.492   5.321   3.712 -0.0938 -0.1030 -0.6892
  263SOL     OW 1049   3.531   0.154   1.302 -0.0721 -0.1116 -0.2968
  263SOL    HW1 1050   3.617   0.181   1.269 -0.2001  0.3035 -0.2918
  263SOL    HW2 1051   3.546   0.137   1.395 -0.2473  1.0971 -0.0381
  263SOL     MW 1052   3.544   0.155   1.310 -0.1109  0.0963 -0.2631
  264SOL     OW 1053   2.923   5.242   4.849 -0.2596  0.6175 -0.2341
  264SOL    HW1 1054   2.863   5.192   4.904  0.4839  0.3361  0.3430
  264SOL    HW2 1055   3.000   5.257   4.905  0.7584 -0.1710 -1.3474
  264SOL     MW 1056   2.925   5.237   4.863 -0.0341  0.4805 -0.3027
  265SOL     OW 1057   5.048   0.830   2.710 -0.3867 -0.0749 -0.1908
  265SOL    HW1 1058   5.087   0.854   2.794 -0.1169 -1.2519  0.0312
  265SOL    HW2 1059   4.963   0.875   2.710 -0.4757 -0.2213  0.7979
  265SOL     MW 1060   5.042   0.839   2.721 -0.3636 -0.2444 -0.0358
  266SOL     OW 1061   0.334   3.214   4.843 -0.0951 -0.2987 -0.1426
  266SOL    HW1 1062   0.377   3.213   4.928  0.6695 -1.8908 -0.5140
  266SOL    HW2 1063   0.334   3.306   4.817 -1.1457  0.3568  1.9417
  266SOL     MW 1064   0.340   3.225   4.851 -0.1317 -0.4186  0.0767
  267SOL     OW 1065   4.884   4.656   0.720 -0.7421  0.2084  0.2790
  267SOL    HW1 1066   4.890   4.587   0.785 -0.7957  1.4207  1.6265
  267SOL    HW2 1067   4.804   4.704   0.743  0.9081  2.6283  1.4231
  267SOL     MW 1068   4.874   4.653   0.731 -0.5377  0.6734  0.5980
  268SOL     OW 1069   0.093   3.026   4.807 -0.0749 -0.1716  0.1144
  268SOL    HW1 1070   0.146   3.096   4.845 -1.6253  1.2296 -0.1958
  268SOL    HW2 1071   0.154   2.977   4.751  0.7986  1.6786 -0.6132
  268SOL     MW 1072   0.107   3.028   4.805 -0.1615  0.2446 -0.0185
  269SOL     OW 1073   4.973   3.365   2.360 -0.0552 -0.8431  0.3557
  269SOL    HW1 1074   4.975   3.280   2.405 -0.9881  0.0686  2.2627
  269SOL    HW2 1075   5.063   3.395   2.362 -0.1115 -0.6968  1.9846
  269SOL     MW 1076   4.984   3.358   2.366 -0.1818 -0.7076  0.8083
  270SOL     OW 1077   0.857   2.480   1.473  0.3124  0.2312 -0.2347
  270SOL    HW1 1078   0.948   2.455   1.486  0.1520  1.0516  3.9249
  270SOL    HW2 1079   0.807   2.404   1.503 -0.2855  0.8215  0.3169
  270SOL     MW 1080   0.862   2.467   1.479  0.2153  0.4118  0.3684
  271SOL     OW 1081   0.274   4.813   0.828 -0.0200 -0.3573 -0.3669
  271SOL    HW1 1082   0.320   4.784   0.749 -2.0453 -3.2621 -0.6572
  271SOL    HW2 1083   0.184   4.783   0.815 -1.0393  1.3661  1.9753
  271SOL     MW 1084   0.268   4.805   0.816 -0.4098 -0.5086 -0.1042
  272SOL     OW 1085   3.709   3.999   5.435 -0.5827 -0.5225  0.3542
  272SOL    HW1 1086   3.641   3.939   5.466 -1.7810  0.9006  0.5658
  272SOL    HW2 1087   3.686   4.084   5.473  1.6341 -0.0995  0.9018
  272SOL     MW 1088   3.697   4.002   5.444 -0.4523 -0.2862  0.4514
  273SOL     OW 1089   4.679   1.339   2.406  0.1613  0.1119 -0.0624
  273SOL    HW1 1090   4.585   1.347   2.425 -0.1383 -0.8282 -1.0467
  273SOL    HW2 1091   4.683   1.329   2.311  1.1518 -1.2216  0.1026
  273SOL     MW 1092   4.667   1.339   2.397  0.2497 -0.1792 -0.1673
  274SOL     OW 1093   1.447   3.308   2.343  0.4128  0.1989 -0.1267
  274SOL    HW1 1094   1.384   3.292   2.273  1.9925 -0.0772 -1.5616
  274SOL    HW2 1095   1.467   3.222   2.378 -0.1688  0.3099  0.4903
  274SOL     MW 1096   1.442   3.295   2.338  0.5405  0.1777 -0.2314
  275SOL     OW 1097   3.558   4.719   3.972 -0.9311 -0.2977  0.1627
  275SOL    HW1 1098   3.617   4.794   3.962 -1.4980  0.2861  1.0881
  275SOL    HW2 1099   3.569   4.670   3.890 -2.7263  2.3711 -1.8878
  275SOL     MW 1100   3.567   4.723   3.960 -1.2335  0.1186  0.0187
  276SOL     OW 1101   4.944   5.238   2.011 -0.0420 -0.3432  0.0765
  276SOL    HW1 1102   5.011   5.266   2.073 -0.1062 -0.2373  0.0998
  276SOL    HW2 1103   4.942   5.143   2.019 -0.1287 -0.3225  0.3211
  276SOL     MW 1104   4.952   5.230   2.020 -0.0613 -0.3270  0.1108
  277SOL     OW 1105   3.494   5.218   3.047 -0.3298 -0.6878 -0.1275
  277SOL    HW1 1106   3.431   5.163   3.001 -0.7184  0.5017 -1.0856
  277SOL    HW2 1107   3.460   5.223   3.137 -0.6470 -1.4484 -0.1951
  277SOL     MW 1108   3.482   5.212   3.053 -0.4201 -0.6329 -0.2588
  278SOL     OW 1109   2.212   3.988   5.015  0.0249  0.1004 -0.0527
  278SOL    HW1 1110   2.153   3.937   5.070  0.3497 -0.4008 -0.1718
  278SOL    HW2 1111   2.194   4.079   5.040 -1.1220 -0.0121 -0.4063
  278SOL     MW 1112   2.202   3.993   5.025 -0.0803  0.0218 -0.1132
  279SOL     OW 1113   1.392   2.249   1.108 -0.5546 -0.7331 -0.2666
  279SOL    HW1 1114   1.455   2.207   1.050 -1.3582 -1.6470 -0.5109
  279SOL    HW2 1115   1.414   2.216   1.195 -1.1516 -1.6553 -0.4509
  279SOL     MW 1116   1.403   2.239   1.112 -0.7339 -0.9681 -0.3215
  280SOL     OW 1117   0.610   3.477   0.174  1.1940  0.5944  0.2586
  280SOL    HW1 1118   0.686   3.530   0.149  1.4985  0.4005  0.7749
  280SOL    HW2 1119   0.585   3.432   0.093  1.2585  1.1179 -0.0563
  280SOL     MW 1120   0.616   3.478   0.160  1.2412  0.6366  0.2844
  281SOL     OW 1121   2.951   1.753   2.435 -0.7458 -0.0617  0.1432
  281SOL    HW1 1122   2.888   1.759   2.362 -0.4288 -1.0613 -0.2271
  281SOL    HW2 1123   3.032   1.788   2.399 -1.2585  2.0016  0.8709
  281SOL     MW 1124   2.953   1.758   2.421 -0.7709  0.0745  0.1890
  282SOL     OW 1125   4.353   5.312   1.480  0.2943  0.6906  0.0912
  282SOL    HW1 1126   4.413   5.341   1.412  0.9838  1.1530  0.8790
  282SOL    HW2 1127   4.266   5.336   1.448  0.5135  0.0602 -1.0393
  282SOL     MW 1128   4.350   5.319   1.467  0.4106  0.6691  0.0474
  283SOL     OW 1129   1.622   3.857   2.031  0.4252  0.1290 -0.3491
  283SOL    HW1 1130   1.683   3.798   1.986 -1.3403 -1.7158 -0.4658
  283SOL    HW2 1131   1.588   3.805   2.104 -0.3079  1.4269  0.2560
  283SOL     MW 1132   1.625   3.842   2.034  0.1054  0.0590 -0.2866
  284SOL     OW 1133   1.130   2.220   1.135 -0.3315  0.0204 -0.3063
  284SOL    HW1 1134   1.220   2.250   1.122  0.1720 -0.1065  2.3478
  284SOL    HW2 1135   1.136   2.124   1.134 -0.6446 -0.0024 -1.1451
  284SOL     MW 1136   1.142   2.211   1.133 -0.3071  0.0012 -0.0739
  285SOL     OW 1137   2.619   2.146   4.540  0.1041  0.2763 -0.1293
  285SOL    HW1 1138   2.675   2.221   4.517 -0.1138  0.0874 -1.3719
  285SOL    HW2 1139   2.545   2.184   4.587  0.1557  0.8066 -0.4687
  285SOL     MW 1140   2.617   2.161   4.543  0.0828  0.3200 -0.3318
  286SOL     OW 1141   3.514   0.691   0.568  0.1884  0.2657 -0.0019
  286SOL    HW1 1142   3.509   0.724   0.478 -1.0790  0.8065  0.2435
  286SOL    HW2 1143   3.449   0.742   0.616 -0.1739 -0.9994  0.9026
  286SOL     MW 1144   3.505   0.702   0.563 -0.0202  0.1730  0.1453
  287SOL     OW 1145   5.203   4.475   3.905 -0.1363 -0.2367  0.5696
  287SOL    HW1 1146   5.278   4.418   3.886 -0.6646 -0.6707 -0.2851
  287SOL    HW2 1147   5.242   4.555   3.941  0.5790 -1.5047  2.8179
  287SOL     MW 1148   5.218   4.478   3.908 -0.1123 -0.4546  0.7480
  288SOL     OW 1149   3.524   2.331   3.498  0.2307  0.3430  0.2216
  288SOL    HW1 1150   3.539   2.254   3.553  0.2186  0.5590  0.5325
  288SOL    HW2 1151   3.434   2.357   3.516 -0.2689 -0.4567 -1.0196
  288SOL     MW 1152   3.514   2.324   3.507  0.1652  0.2682  0.1025
  289SOL     OW 1153   3.184   4.008   2.690  0.2908 -0.4916 -0.0258
  289SOL    HW1 1154   3.200   3.921   2.726  0.5208  0.4250  2.1954
  289SOL    HW2 1155   3.089   4.012   2.678  0.0988 -0.5061  1.3819
  289SOL     MW 1156   3.174   3.998   2.693  0.2957 -0.3761  0.4388
  290SOL     OW 1157   1.840   1.550   0.074 -0.3862  0.0828  0.2872
  290SOL    HW1 1158   1.784   1.487   0.120  0.3606 -0.2875  0.7025
  290SOL    HW2 1159   1.853   1.621   0.136  1.0565 -0.6609  0.8939
  290SOL     MW 1160   1.835   1.551   0.088 -0.1059 -0.0598  0.4180
  291SOL     OW 1161   4.145   1.741   3.840  0.9168  0.6876 -0.2492
  291SOL    HW1 1162   4.213   1.702   3.785  0.1153 -0.5802 -0.3934
  291SOL    HW2 1163   4.082   1.670   3.853 -0.3439  1.8033 -0.0696
  291SOL     MW 1164   4.145   1.727   3.835  0.6529  0.6682 -0.2447
  292SOL     OW 1165   2.588   2.718   1.608 -0.1940  0.3386 -0.3476
  292SOL    HW1 1166   2.601   2.778   1.681  1.8866 -2.0625  1.4611
  292SOL    HW2 1167   2.656   2.742   1.544 -0.7658  1.2134 -0.6434
  292SOL     MW 1168   2.598   2.729   1.609 -0.0009  0.1432 -0.1539
  293SOL     OW 1169   5.058   4.636   4.293  0.5328 -0.2744  0.3475
  293SOL    HW1 1170   5.045   4.682   4.209 -1.0262 -1.3316 -0.0340
  293SOL    HW2 1171   5.148   4.605   4.289  0.3412 -0.7518 -1.2054
  293SOL     MW 1172   5.068   4.638   4.281  0.3087 -0.4709  0.0999
  294SOL     OW 1173   4.058   3.158   0.580  0.6024  0.4826  0.2471
  294SOL    HW1 1174   3.978   3.164   0.632  1.1250 -0.0268  1.1367
  294SOL    HW2 1175   4.128   3.145   0.644  1.5588  2.0067 -0.4182
  294SOL     MW 1176   4.057   3.157   0.595  0.7918  0.6125  0.2758
  295SOL     OW 1177   0.125   0.462   5.003 -0.2723  0.4733 -0.1196
  295SOL    HW1 1178   0.062   0.459   5.074 -0.0496  1.7682  0.1498
  295SOL    HW2 1179   0.100   0.389   4.946  0.7337 -1.8949  2.2262
  295SOL     MW 1180   0.114   0.452   5.005 -0.1150  0.3359  0.2152
  296SOL     OW 1181   0.114   3.167   2.511  0.3404  0.5877  0.6385
  296SOL    HW1 1182   0.021   3.157   2.528 -0.0572  0.6024 -1.2745
  296SOL    HW2 1183   0.130   3.261   2.517 -0.0072  0.6960  0.0042
  296SOL     MW 1184   0.104   3.178   2.514  0.2450  0.6034  0.3124
  297SOL     OW 1185   1.323   2.967   0.785 -0.0155  0.1642 -0.0258
  297SOL    HW1 1186   1.355   2.886   0.746 -1.3920 -0.1037 -0.6534
  297SOL    HW2 1187   1.352   2.962   0.877  0.9686 -0.4356 -0.3512
  297SOL     MW 1188   1.331   2.956   0.792 -0.0658  0.0531 -0.1478
  298SOL     OW 1189   1.594   4.947   3.475 -0.4233 -0.2337  0.4656
  298SOL    HW1 1190   1.509   4.917   3.443 -0.8970  1.0500  0.4675
  298SOL    HW2 1191   1.641   4.866   3.496 -1.1538 -1.0105 -0.7615
  298SOL     MW 1192   1.589   4.933   3.474 -0.5774 -0.1688  0.3087
  299SOL     OW 1193   2.464   4.960   5.067 -0.3815 -0.1824 -0.4951
  299SOL    HW1 1194   2.433   4.903   4.996 -0.0130 -0.3052 -0.5610
  299SOL    HW2 1195   2.385   5.001   5.102 -0.5212  0.2939 -1.3347
  299SOL     MW 1196   2.450   4.958   5.062 -0.3522 -0.1371 -0.6110
  300SOL     OW 1197   2.598   1.697   3.982  0.2026  0.3332 -0.2098
  300SOL    HW1 1198   2.532   1.710   3.913  0.5290  1.2646 -0.3626
  300SOL    HW2 1199   2.549   1.705   4.064  0.0365  0.5127 -0.3257
  300SOL     MW 1200   2.583   1.700   3.984  0.2231  0.4754 -0.2442
  301SOL     OW 1201   2.324   0.408   3.888  0.4394  0.1605  0.1223
  301SOL    HW1 1202   2.365   0.360   3.817  2.0108  0.2608  0.9079
  301SOL    HW2 1203   2.384   0.481   3.906 -0.5791  0.9038  0.6865
  301SOL     MW 1204   2.337   0.411   3.881  0.5102  0.2685  0.2951
  302SOL     OW 1205   2.017   2.836   4.165 -0.1857 -0.0124  0.0639
  302SOL    HW1 1206   1.976   2.750   4.155 -0.1093 -0.0501  0.0767
  302SOL    HW2 1207   2.110   2.821   4.151 -0.2576  0.1974 -0.7027
  302SOL     MW 1208   2.024   2.823   4.162 -0.1851  0.0096 -0.0326
  303SOL     OW 1209   0.751   0.661   1.920 -0.2355  0.0125  0.6303
  303SOL    HW1 1210   0.763   0.616   1.837 -0.7080  1.0314 -0.0100
  303SOL    HW2 1211   0.830   0.641   1.970 -0.0542 -0.8106  0.0432
  303SOL     MW 1212   0.762   0.652   1.916 -0.2728  0.0376  0.4732
  304SOL     OW 1213   4.995   4.428   1.261 -0.3442  0.3510 -0.3356
  304SOL    HW1 1214   4.938   4.351   1.256 -0.0387  0.2170 -2.2913
  304SOL    HW2 1215   5.049   4.412   1.338 -1.8385 -0.2762  0.6411
  304SOL     MW 1216   4.995   4.416   1.270 -0.4964  0.2536 -0.4609
  305SOL     OW 1217   3.784   2.567   0.941  0.2207 -0.0474 -0.0088
  305SOL    HW1 1218   3.879   2.557   0.949  0.4952  0.8412 -1.6662
  305SOL    HW2 1219   3.762   2.522   0.859 -0.8101 -0.2951  0.3864
  305SOL     MW 1220   3.793   2.560   0.932  0.1239  0.0346 -0.1704
  306SOL     OW 1221   3.901   3.254   5.424 -0.2434  0.1683  0.2474
  306SOL    HW1 1222   3.861   3.314   5.362  1.1588  0.8439 -0.0588
  306SOL    HW2 1223   3.836   3.244   5.494 -1.7056 -0.3502 -1.1357
  306SOL     MW 1224   3.888   3.261   5.425 -0.2510  0.1884  0.0311
  307SOL     OW 1225   1.764   3.216   1.916 -0.1257 -0.2591  0.1760
  307SOL    HW1 1226   1.668   3.211   1.922 -0.0667 -1.8379  0.3032
  307SOL    HW2 1227   1.780   3.276   1.843 -1.1912  0.5170  0.5494
  307SOL     MW 1228   1.754   3.223   1.907 -0.2545 -0.3618  0.2401
  308SOL     OW 1229   4.074   5.191   5.440  0.0620 -0.3480  0.1766
  308SOL    HW1 1230   4.117   5.127   5.497  0.7542  0.5419  0.6613
  308SOL    HW2 1231   4.134   5.200   5.366  0.1231 -0.0146  0.2677
  308SOL     MW 1232   4.087   5.184   5.438  0.1584 -0.1914  0.2503
  309SOL     OW 1233   1.036   2.952   3.957  0.8664 -0.2738 -0.0796
  309SOL    HW1 1234   1.117   2.988   3.995  0.9637 -0.0730 -0.4653
  309SOL    HW2 1235   1.010   3.017   3.892  1.4522 -1.2406 -1.3250
  309SOL     MW 1236   1.043   2.965   3.954  0.9538 -0.3719 -0.2884
  310SOL     OW 1237   4.015   2.135   2.492  0.2735  0.5788  0.4583
  310SOL    HW1 1238   3.945   2.118   2.554 -1.4041 -0.5563 -1.5944
  310SOL    HW2 1239   3.987   2.214   2.446  0.7729  0.6114  0.2058
  310SOL     MW 1240   4.002   2.143   2.494  0.1227  0.4377  0.1632
  311SOL     OW 1241   3.867   1.973   4.868 -0.2739  0.0424  0.4809
  311SOL    HW1 1242   3.872   2.056   4.821 -0.1263 -0.0707  0.2958
  311SOL    HW2 1243   3.901   1.908   4.806  0.3622 -0.0381  0.8977
  311SOL     MW 1244   3.872   1.976   4.854 -0.1736  0.0176  0.5106
  312SOL     OW 1245   3.036   2.982   1.552  0.8317  0.2868  0.3694
  312SOL    HW1 1246   3.045   2.888   1.536 -0.4549  0.1871  0.0923
  312SOL    HW2 1247   2.954   3.005   1.509  0.6893  1.3685  1.1966
  312SOL     MW 1248   3.027   2.973   1.544  0.6488  0.4125  0.4398
  313SOL     OW 1249   2.575   3.372   3.019 -0.3939  0.4944 -0.4964
  313SOL    HW1 1250   2.590   3.279   3.001  1.3433  0.8949 -1.3509
  313SOL    HW2 1251   2.592   3.382   3.112 -0.2651  0.0121 -0.4665
  313SOL     MW 1252   2.579   3.361   3.028 -0.1550  0.4839 -0.6020
  314SOL     OW 1253   2.355   3.685   2.754 -0.0387 -0.0744 -0.5370
  314SOL    HW1 1254   2.303   3.766   2.752  1.8718  1.3929  2.2493
  314SOL    HW2 1255   2.446   3.715   2.753  0.7405 -2.2720 -0.5143
  314SOL     MW 1256   2.360   3.699   2.754  0.3056 -0.1679 -0.1774
  315SOL     OW 1257   2.109   1.880   4.203  1.0764 -0.3157  0.3207
  315SOL    HW1 1258   2.050   1.953   4.187 -1.1282 -1.6671  1.7136
  315SOL    HW2 1259   2.079   1.812   4.142  1.7504 -0.7629  0.4836
  315SOL     MW 1260   2.098   1.881   4.193  0.8805 -0.5459  0.5198
  316SOL     OW 1261   4.623   1.812   0.094 -0.0172  0.0765  0.1014
  316SOL    HW1 1262   4.618   1.815  -0.001  0.4842  1.8619  0.0919
  316SOL    HW2 1263   4.548   1.757   0.120 -0.0667 -0.5622 -1.3047
  316SOL     MW 1264   4.613   1.805   0.085  0.0406  0.2233 -0.0798
  317SOL     OW 1265   5.153   5.071   0.663  0.5134 -0.4290  0.3100
  317SOL    HW1 1266   5.221   5.110   0.719  0.3436  1.1999 -0.5533
  317SOL    HW2 1267   5.127   4.991   0.709  1.9582 -0.3114  1.4099
  317SOL     MW 1268   5.158   5.066   0.676  0.6766 -0.2054  0.3403
  318SOL     OW 1269   1.740   1.826   4.055 -0.4502 -0.3188  0.1383
  318SOL    HW1 1270   1.770   1.912   4.027  1.3011  0.1105  2.9441
  318SOL    HW2 1271   1.817   1.769   4.047 -0.7574 -0.8937  1.0950
  318SOL     MW 1272   1.754   1.829   4.050 -0.2653 -0.3375  0.6199
  319SOL     OW 1273   5.409   3.582   4.671 -0.0950 -0.5849  0.6929
  319SOL    HW1 1274   5.421   3.545   4.584 -1.7855  1.5842 -0.5478
  319SOL    HW2 1275   5.397   3.505   4.728 -1.1543 -2.0250 -1.3458
  319SOL     MW 1276   5.409   3.567   4.667 -0.4470 -0.4916  0.2731
  320SOL     OW 1277   5.004   1.871   5.034 -0.2698  0.0592 -0.2495
  320SOL    HW1 1278   5.035   1.810   5.101  0.9021  0.0638 -0.7590
  320SOL    HW2 1279   4.954   1.816   4.973 -1.1905  0.0283  0.5178
  320SOL     MW 1280   5.002   1.856   5.034 -0.2377  0.0558 -0.2165
  321SOL     OW 1281   0.734   5.015   2.512  0.0380 -0.0456  0.5718
  321SOL    HW1 1282   0.788   5.006   2.434 -1.8499  0.0621 -0.8113
  321SOL    HW2 1283   0.767   4.947   2.571  0.1529 -1.5877 -1.1599
  321SOL     MW 1284   0.745   5.005   2.510 -0.1890 -0.2292  0.1731
  322SOL     OW 1285   4.695   2.306   4.642 -0.2311  0.2328 -0.3010
  322SOL    HW1 1286   4.709   2.215   4.670  0.0662  0.2067 -0.5296
  322SOL    HW2 1287   4.776   2.329   4.595  0.5324  1.2702  1.4380
  322SOL     MW 1288   4.707   2.297   4.639 -0.0953  0.3623 -0.1077
  323SOL     OW 1289   0.688   4.193   4.181  0.5068 -0.8209 -0.0628
  323SOL    HW1 1290   0.634   4.183   4.102  0.7689 -1.6848 -0.1417
  323SOL    HW2 1291   0.626   4.185   4.253  0.1343  0.7923 -0.1726
  323SOL     MW 1292   0.673   4.190   4.180  0.4927 -0.7250 -0.0870
  324SOL     OW 1293   2.955   0.002   1.380  0.2903  0.1526  0.0064
  324SOL    HW1 1294   2.996   0.076   1.425  1.3450 -0.0138 -0.6351
  324SOL    HW2 1295   3.028  -0.057   1.361 -0.6189 -1.4087  1.1289
  324SOL     MW 1296   2.969   0.004   1.383  0.3089 -0.0685  0.0680
  325SOL     OW 1297   4.478   3.138   4.270 -0.0997  0.1236  0.5370
  325SOL    HW1 1298   4.405   3.197   4.251 -1.6614 -1.7254  0.5491
  325SOL    HW2 1299   4.490   3.088   4.189  0.1030 -0.6692  1.0533
  325SOL     MW 1300   4.470   3.139   4.257 -0.2737 -0.2146  0.6046
  326SOL     OW 1301   2.831   2.687   3.357  0.7843 -0.0645 -0.5862
  326SOL    HW1 1302   2.915   2.660   3.393  1.5404  0.5426 -1.8364
  326SOL    HW2 1303   2.784   2.605   3.341  1.5589 -0.4611 -0.8671
  326SOL     MW 1304   2.835   2.673   3.360  0.9802 -0.0375 -0.7822
  327SOL     OW 1305   2.073   5.353   0.103 -0.0211 -0.3806 -0.2219
  327SOL    HW1 1306   2.085   5.446   0.086  0.0768 -0.6599 -1.8099
  327SOL    HW2 1307   1.981   5.345   0.128 -0.0622  0.1309 -0.2036
  327SOL     MW 1308   2.063   5.364   0.104 -0.0138 -0.3509 -0.4228
  328SOL     OW 1309   1.923   0.870   1.281 -0.3926  0.1744 -0.3564
  328SOL    HW1 1310   2.019   0.868   1.288 -0.2685  1.7694 -1.2185
  328SOL    HW2 1311   1.905   0.938   1.217 -2.1866  1.1310  1.0867
  328SOL     MW 1312   1.933   0.878   1.274 -0.6064  0.5011 -0.2820
  329SOL     OW 1313   2.544   0.624   1.511 -0.2973  1.0876 -0.0718
  329SOL    HW1 1314   2.549   0.680   1.433 -2.5554  2.0678  0.3927
  329SOL    HW2 1315   2.511   0.540   1.478  0.7992  0.7778 -0.4319
  329SOL     MW 1316   2.540   0.620   1.497 -0.4460  1.1735 -0.0584
  330SOL     OW 1317   4.884   0.548   5.050 -0.0001  0.1742 -0.1576
  330SOL    HW1 1318   4.947   0.517   4.985  0.2763  2.1355 -0.8908
  330SOL    HW2 1319   4.810   0.580   4.998  0.4200  2.1907  0.4117
  330SOL     MW 1320   4.883   0.548   5.035  0.0891  0.6834 -0.1786
  331SOL     OW 1321   0.473   2.815   4.453  0.2195  0.2852  0.4152
  331SOL    HW1 1322   0.444   2.829   4.363  2.0813  0.4643 -0.2097
  331SOL    HW2 1323   0.502   2.724   4.455 -1.4758 -0.2767  1.3746
  331SOL     MW 1324   0.473   2.805   4.442  0.2408  0.2362  0.4580
  332SOL     OW 1325   2.545   4.750   1.091  0.2871 -0.0354 -0.3434
  332SOL    HW1 1326   2.467   4.802   1.070  0.4329  0.2169 -0.2705
  332SOL    HW2 1327   2.523   4.661   1.063  0.8311  0.4521 -2.5268
  332SOL     MW 1328   2.532   4.745   1.084  0.3754  0.0593 -0.6136
  333SOL     OW 1329   5.429   0.108   0.309  0.9866 -0.3939 -0.2239
  333SOL    HW1 1330   5.505   0.056   0.335  0.6712 -0.7296  0.0498
  333SOL    HW2 1331   5.400   0.150   0.390  0.2523 -1.1068 -0.1022
  333SOL     MW 1332   5.435   0.107   0.323  0.8522 -0.5281 -0.1733
  334SOL     OW 1333   0.547   0.916   3.878  0.2264 -0.2594  0.1513
  334SOL    HW1 1334   0.548   0.833   3.926 -0.1028  0.9162  2.2818
  334SOL    HW2 1335   0.455   0.930   3.857  0.2117 -0.1573  0.2848
  334SOL     MW 1336   0.535   0.907   3.881  0.1824 -0.0958  0.4411
  335SOL     OW 1337   1.331   4.494  -0.018  0.2400 -0.1365  0.3366
  335SOL    HW1 1338   1.322   4.486   0.077  0.0099  0.8587  0.4186
  335SOL    HW2 1339   1.417   4.457  -0.037 -0.2088 -1.4599  0.7618
  335SOL     MW 1340   1.341   4.489  -0.008  0.1531 -0.1785  0.4015
  336SOL     OW 1341   1.249   2.248   2.990 -0.1619 -0.2064 -0.0807
  336SOL    HW1 1342   1.174   2.301   3.018 -0.1163 -1.3349  2.4150
  336SOL    HW2 1343   1.313   2.257   3.061  0.9849 -1.3878 -0.9187
  336SOL     MW 1344   1.248   2.256   3.002 -0.0092 -0.5021  0.1315
  337SOL     OW 1345   2.498   2.770   1.980 -0.2896 -0.2706  0.0621
  337SOL    HW1 1346   2.568   2.721   2.024  0.7296 -0.3965 -1.6339
  337SOL    HW2 1347   2.444   2.702   1.939 -0.3651 -0.0746 -0.1595
  337SOL     MW 1348   2.500   2.755   1.981 -0.1688 -0.2616 -0.1834
  338SOL     OW 1349   4.533   5.413   1.249 -0.4060  0.2443  0.2090
  338SOL    HW1 1350   4.587   5.334   1.253 -0.5187  0.1947  0.9648
  338SOL    HW2 1351   4.591   5.480   1.213 -0.7030 -0.4841 -1.7138
  338SOL     MW 1352   4.547   5.411   1.245 -0.4585  0.1447  0.0596
  339SOL     OW 1353   3.970   0.710   0.571  0.2951 -0.1219  0.2691
  339SOL    HW1 1354   4.002   0.715   0.662 -0.1955  0.8648  0.3984
  339SOL    HW2 1355   4.044   0.740   0.518 -0.3387  2.1035  0.5627
  339SOL     MW 1356   3.984   0.714   0.576  0.1511  0.2893  0.3232
  340SOL     OW 1357   4.501   2.340   3.736 -0.0845 -0.1096  0.2942
  340SOL    HW1 1358   4.427   2.279   3.738 -0.1954 -0.0228 -0.6740
  340SOL    HW2 1359   4.530   2.340   3.644  0.2603  0.8755  0.3887
  340SOL     MW 1360   4.495   2.333   3.724 -0.0546  0.0276  0.1823
  341SOL     OW 1361   4.040   3.300   1.714 -0.5971 -0.7727 -0.9910
  341SOL    HW1 1362   4.060   3.350   1.793 -1.0565 -2.4035  0.2101
  341SOL    HW2 1363   3.953   3.264   1.730 -0.3184 -1.8739 -1.8362
  341SOL     MW 1364   4.032   3.302   1.726 -0.6202 -1.1225 -0.9455
  342SOL     OW 1365   2.972   3.528   2.640  0.2666  0.8098 -0.1784
  342SOL    HW1 1366   2.919   3.529   2.560 -2.1239 -0.1225  1.2970
  342SOL    HW2 1367   3.041   3.465   2.622 -0.8537 -0.1980 -1.1894
  342SOL     MW 1368   2.974   3.520   2.627 -0.1829  0.5614 -0.1190
  343SOL     OW 1369   0.868   4.519   5.065  0.1711  0.7362 -0.4447
  343SOL    HW1 1370   0.900   4.477   4.985  1.0544 -1.1210  0.8182
  343SOL    HW2 1371   0.948   4.545   5.111 -0.2708  0.3185  0.5758
  343SOL     MW 1372   0.882   4.517   5.061  0.2276  0.4450 -0.1524
  344SOL     OW 1373   3.903   0.504   3.249  0.0093 -0.2238 -0.2328
  344SOL    HW1 1374   3.850   0.440   3.201 -0.3618  1.7996 -2.7095
  344SOL    HW2 1375   3.981   0.517   3.194  0.8032  0.3592  0.9834
  344SOL     MW 1376   3.906   0.497   3.236  0.0634  0.1098 -0.3942
  345SOL     OW 1377   3.029   1.463   2.861  0.2399 -0.0975  0.0292
  345SOL    HW1 1378   3.070   1.435   2.779 -0.2422  1.1931 -0.6837
  345SOL    HW2 1379   3.087   1.431   2.930  2.6060  1.8310 -0.9351
  345SOL     MW 1380   3.042   1.456   2.859  0.4811  0.3146 -0.1855
  346SOL     OW 1381   5.263   3.324   2.306  0.2286 -0.4857 -0.0236
  346SOL    HW1 1382   5.260   3.264   2.231  0.2748 -0.1860 -0.2664
  346SOL    HW2 1383   5.327   3.390   2.282 -0.8568  0.4782 -0.3771
  346SOL     MW 1384   5.271   3.324   2.293  0.0956 -0.3240 -0.0999
  347SOL     OW 1385   3.889   5.151   2.635  0.5119  0.2763  0.6241
  347SOL    HW1 1386   3.799   5.128   2.610  0.7739  0.3058 -0.4010
  347SOL    HW2 1387   3.880   5.195   2.719 -0.4684  0.5364  0.3961
  347SOL     MW 1388   3.876   5.153   2.642  0.4200  0.3133  0.4637
  348SOL     OW 1389   1.721   3.068   0.836  0.0832  0.0716  0.2469
  348SOL    HW1 1390   1.683   3.104   0.756  2.2699  0.4088 -0.7308
  348SOL    HW2 1391   1.651   3.073   0.901 -1.6485  0.1113 -1.5391
  348SOL     MW 1392   1.708   3.073   0.834  0.1414  0.1198 -0.1069
  349SOL     OW 1393   2.427   3.161   2.757 -0.1022 -0.0115 -0.0455
  349SOL    HW1 1394   2.468   3.155   2.843  0.1310  0.3163 -0.1341
  349SOL    HW2 1395   2.376   3.243   2.761  0.0017  0.0627 -0.2601
  349SOL     MW 1396   2.425   3.171   2.768 -0.0591  0.0399 -0.0843
  350SOL     OW 1397   4.866   2.084   1.955 -0.1151 -0.4624  0.2262
  350SOL    HW1 1398   4.957   2.089   1.928 -0.2337 -0.3848 -0.1609
  350SOL    HW2 1399   4.823   2.032   1.887 -0.9746  1.9714 -1.2061
  350SOL     MW 1400   4.872   2.078   1.943 -0.2403 -0.1409 -0.0067
  351SOL     OW 1401   3.277   5.298   2.265 -0.0588  0.4613 -0.2507
  351SOL    HW1 1402   3.235   5.313   2.350  0.0535  1.6064 -0.3869
  351SOL    HW2 1403   3.222   5.232   2.222 -0.7397  0.6892  0.2625
  351SOL     MW 1404   3.265   5.292   2.270 -0.1316  0.6371 -0.2024
  352SOL     OW 1405   1.396   0.504   4.940 -0.4985  0.3503 -0.5318
  352SOL    HW1 1406   1.398   0.558   4.861  1.4600  0.6896 -0.3013
  352SOL    HW2 1407   1.435   0.421   4.914 -1.3872 -0.1448 -0.3177
  352SOL     MW 1408   1.401   0.500   4.927 -0.3616  0.3303 -0.4749
  353SOL     OW 1409   0.140   1.199   3.358 -0.3445  0.1575  0.4831
  353SOL    HW1 1410   0.069   1.137   3.346 -0.9509  1.0794 -1.0791
  353SOL    HW2 1411   0.097   1.279   3.390 -0.0465  0.7393 -0.5305
  353SOL     MW 1412   0.125   1.201   3.361 -0.3840  0.3500  0.1534
  354SOL     OW 1413   4.304   4.167   2.211  0.1904 -0.3813 -0.1296
  354SOL    HW1 1414   4.382   4.177   2.265 -0.6960  0.2181  1.0774
  354SOL    HW2 1415   4.293   4.253   2.169 -0.1476 -0.2826  0.1590
  354SOL     MW 1416   4.313   4.180   2.212  0.0337 -0.2919  0.0618
  355SOL     OW 1417   4.756   4.208   1.789 -0.4036  0.1229 -0.2475
  355SOL    HW1 1418   4.755   4.137   1.724 -0.0727 -1.0496  0.9594
  355SOL    HW2 1419   4.682   4.189   1.847  0.9645 -0.5845  1.3914
  355SOL     MW 1420   4.747   4.196   1.788 -0.1861 -0.1177  0.1168
  356SOL     OW 1421   3.886   3.729   4.272 -0.6553 -0.0708  0.3765
  356SOL    HW1 1422   3.918   3.640   4.287 -1.6187 -0.4679  0.2068
  356SOL    HW2 1423   3.964   3.783   4.266 -0.0915 -0.6754  1.9185
  356SOL     MW 1424   3.900   3.725   4.273 -0.7064 -0.1991  0.5522
  357SOL     OW 1425   0.109   2.606   0.894 -0.0167 -0.5122  0.3007
  357SOL    HW1 1426   0.014   2.614   0.904 -0.0075  1.0013 -0.6294
  357SOL    HW2 1427   0.144   2.686   0.933  0.6782  0.2776 -1.8270
  357SOL     MW 1428   0.101   2.617   0.900  0.0734 -0.2174 -0.0908
  358SOL     OW 1429   4.813   1.687   1.092  0.4813  0.2262 -0.1840
  358SOL    HW1 1430   4.827   1.724   1.005  0.3235  0.7942  0.0311
  358SOL    HW2 1431   4.901   1.673   1.127  0.5474  0.9830 -0.0231
  358SOL     MW 1432   4.826   1.690   1.085  0.4695  0.3958 -0.1358
  359SOL     OW 1433   2.733   2.985   2.282  0.5893  0.0791 -0.2675
  359SOL    HW1 1434   2.659   2.971   2.341  0.8428 -1.1840 -0.2162
  359SOL    HW2 1435   2.705   3.056   2.224  0.4540  1.5622  1.5368
  359SOL     MW 1436   2.720   2.992   2.282  0.6044  0.1073 -0.0300
  360SOL     OW 1437   3.399   5.114   3.828 -0.2329  0.3267  0.3152
  360SOL    HW1 1438   3.334   5.047   3.809  0.1176 -0.1424  0.7613
  360SOL    HW2 1439   3.363   5.163   3.903  0.4729 -0.7052  1.3568
  360SOL     MW 1440   3.386   5.112   3.835 -0.0977  0.1346  0.5057
  361SOL     OW 1441   4.605   3.216   2.729  0.3041 -0.8488 -0.0466
  361SOL    HW1 1442   4.659   3.198   2.807 -0.6090 -3.0261  0.1509
  361SOL    HW2 1443   4.613   3.311   2.716  2.2929 -0.7547  1.3407
  361SOL     MW 1444   4.613   3.226   2.738  0.4418 -1.1155  0.1563
  362SOL     OW 1445   2.262   5.017   4.704  0.0058 -0.2008  0.2783
  362SOL    HW1 1446   2.309   5.037   4.623 -0.7913  0.9723  0.0791
  362SOL    HW2 1447   2.170   5.029   4.681 -0.2418 -0.1001  1.2900
  362SOL     MW 1448   2.256   5.021   4.691 -0.1280 -0.0377  0.3823
  363SOL     OW 1449   4.161   2.030   4.598  0.6918 -0.4386  0.5597
  363SOL    HW1 1450   4.128   1.948   4.561  1.0900 -0.5061  0.3448
  363SOL    HW2 1451   4.189   2.082   4.522 -0.6825  0.4064  0.6022
  363SOL     MW 1452   4.160   2.026   4.583  0.5668 -0.3390  0.5376
  364SOL     OW 1453   2.389   2.224   5.254 -0.5250  0.1607  0.0967
  364SOL    HW1 1454   2.455   2.190   5.315 -0.4694 -1.1762 -0.6590
  364SOL    HW2 1455   2.314   2.165   5.265 -1.4832  1.4444  0.6764
  364SOL     MW 1456   2.388   2.212   5.264 -0.6405  0.1539  0.0742
  365SOL     OW 1457   1.768   4.747   4.472 -0.0498 -0.2678  0.0775
  365SOL    HW1 1458   1.854   4.708   4.488 -0.2081 -0.0256  1.6269
  365SOL    HW2 1459   1.784   4.842   4.474 -0.0656 -0.1999 -1.4366
  365SOL     MW 1460   1.781   4.754   4.474 -0.0721 -0.2281  0.0820
  366SOL     OW 1461   3.321   4.596   3.003  0.1282 -0.6520 -0.1530
  366SOL    HW1 1462   3.369   4.519   2.971  0.6625 -0.0394 -0.8841
  366SOL    HW2 1463   3.245   4.602   2.946  1.9699  1.4615 -2.6791
  366SOL     MW 1464   3.318   4.587   2.991  0.4323 -0.3030 -0.5699
  367SOL     OW 1465   4.218   2.137   4.349  0.0961 -0.3263  0.1094
  367SOL    HW1 1466   4.195   2.222   4.311  1.8504  0.5083  0.8065
  367SOL    HW2 1467   4.309   2.124   4.323 -0.6664 -2.9763 -1.6729
  367SOL     MW 1468   4.227   2.146   4.341  0.2231 -0.5587 -0.0295
  368SOL     OW 1469   2.571   2.012   4.898  0.3526  0.4375 -0.3011
  368SOL    HW1 1470   2.623   1.998   4.819 -0.2260  1.1006 -0.8024
  368SOL    HW2 1471   2.606   2.093   4.936  0.2804  0.4023 -0.1589
  368SOL     MW 1472   2.582   2.020   4.893  0.2693  0.5179 -0.3470
  369SOL     OW 1473   2.329   4.156   1.737  0.2399  0.9747 -0.0586
  369SOL    HW1 1474   2.350   4.076   1.785 -1.2610 -0.1494 -1.1553
  369SOL    HW2 1475   2.385   4.223   1.776 -0.9542  0.2108  3.3731
  369SOL     MW 1476   2.339   4.154   1.748 -0.1051  0.7330  0.2403
  370SOL     OW 1477   4.651   0.593   2.045  0.3663 -0.4123  0.4967
  370SOL    HW1 1478   4.657   0.506   2.007  0.3504 -0.1732 -0.0705
  370SOL    HW2 1479   4.558   0.606   2.063  0.1618  0.0187 -0.7331
  370SOL     MW 1480   4.640   0.584   2.042  0.3381 -0.3266  0.2667
  371SOL     OW 1481   4.449   4.911   3.232  0.6478 -0.2929  0.2086
  371SOL    HW1 1482   4.381   4.952   3.180  0.4506 -0.8807 -0.0087
  371SOL    HW2 1483   4.486   4.843   3.175  2.1031  0.6681 -0.0406
  371SOL     MW 1484   4.445   4.907   3.218  0.8088 -0.2452  0.1489
  372SOL     OW 1485   0.514   1.613   0.270  0.6135  0.7572  0.0759
  372SOL    HW1 1486   0.538   1.638   0.180 -0.0504  3.1858  0.4920
  372SOL    HW2 1487   0.421   1.591   0.265  0.5775  0.8881  0.1611
  372SOL     MW 1488   0.505   1.614   0.258  0.5239  1.0849  0.1401
  373SOL     OW 1489   1.815   1.661   0.639 -0.6250  0.0858  0.5216
  373SOL    HW1 1490   1.775   1.653   0.553 -0.9269 -0.6541  0.7211
  373SOL    HW2 1491   1.759   1.609   0.696 -0.0676  0.0443  1.0420
  373SOL     MW 1492   1.803   1.654   0.635 -0.5923 -0.0142  0.6138
  374SOL     OW 1493   0.812   1.184   4.826 -0.5428 -0.1054 -0.5692
  374SOL    HW1 1494   0.831   1.278   4.830  1.7959 -0.4558 -1.6402
  374SOL    HW2 1495   0.745   1.177   4.758 -0.7963  0.7817 -0.4307
  374SOL     MW 1496   0.806   1.195   4.818 -0.2759 -0.0367 -0.6886
  375SOL     OW 1497   0.661   1.531   3.666  0.1490 -0.1923 -0.1202
  375SOL    HW1 1498   0.728   1.598   3.678  0.3170 -0.3400 -0.2363
  375SOL    HW2 1499   0.702   1.450   3.699 -0.4830 -0.0124  1.1773
  375SOL     MW 1500   0.675   1.529   3.672  0.0896 -0.1882  0.0310
  376SOL     OW 1501   0.270   1.517   5.414  0.3600 -0.0440  0.0780
  376SOL    HW1 1502   0.244   1.534   5.504 -1.0071  1.4116 -0.5386
  376SOL    HW2 1503   0.188   1.520   5.364  1.1601 -0.1334 -1.3056
  376SOL     MW 1504   0.256   1.519   5.419  0.2874  0.1309 -0.1781
  377SOL     OW 1505   4.002   3.268   1.248  0.3099  0.0697  0.4612
  377SOL    HW1 1506   3.931   3.204   1.242  0.1883  0.1997  0.4854
  377SOL    HW2 1507   4.076   3.227   1.204  0.1632  0.0096  0.2723
  377SOL     MW 1508   4.002   3.255   1.242  0.2756  0.0787  0.4401
  378SOL     OW 1509   3.907   2.408   1.737 -0.2099 -0.0847  0.1710
  378SOL    HW1 1510   3.859   2.326   1.748 -0.6339 -0.2331 -2.2637
  378SOL    HW2 1511   3.970   2.390   1.668  0.0583  1.4763 -0.0311
  378SOL     MW 1512   3.909   2.395   1.730 -0.2299  0.0961 -0.1665
  379SOL     OW 1513   3.061   5.133   2.400 -0.5841  0.5715 -0.2508
  379SOL    HW1 1514   2.986   5.121   2.342 -1.4222  0.7221  0.7898
  379SOL    HW2 1515   3.024   5.165   2.482  0.6581  1.0510  0.1477
  379SOL     MW 1516   3.047   5.135   2.403 -0.5324  0.6522 -0.0666
  380SOL     OW 1517   2.123   3.415   3.501  0.3545  0.0813  0.1750
  380SOL    HW1 1518   2.086   3.349   3.443 -2.1259  0.2106  1.4818
  380SOL    HW2 1519   2.100   3.499   3.460  0.6505  0.1646  0.1740
  380SOL     MW 1520   2.115   3.418   3.488  0.0748  0.1085  0.3422
  381SOL     OW 1521   4.547   1.067   0.476 -0.2599  0.2454 -0.3866
  381SOL    HW1 1522   4.485   1.129   0.436 -0.4527 -0.4318 -1.1610
  381SOL    HW2 1523   4.624   1.120   0.496 -0.7041  0.8898 -0.3608
  381SOL     MW 1524   4.549   1.082   0.473 -0.3415  0.2412 -0.4825
  382SOL     OW 1525   3.747   4.912   3.931 -0.2966  0.5107 -0.4658
  382SOL    HW1 1526   3.739   4.966   4.010  0.1502 -2.2011  1.6280
  382SOL    HW2 1527   3.836   4.878   3.934 -1.0212 -1.6024 -0.6784
  382SOL     MW 1528   3.757   4.914   3.942 -0.3321 -0.1069 -0.2250
  383SOL     OW 1529   4.087   3.195   4.705 -0.4694  0.2872  0.2114
  383SOL    HW1 1530   4.081   3.282   4.666 -1.7835 -0.3860 -1.1884
  383SOL    HW2 1531   4.050   3.206   4.793 -3.6631  0.5758 -1.0413
  383SOL     MW 1532   4.081   3.207   4.711 -1.0465  0.2380 -0.1282
  384SOL     OW 1533   2.909   2.241   0.183 -0.0774  0.2199 -0.3095
  384SOL    HW1 1534   2.834   2.233   0.242  0.8621 -1.6708  0.7075
  384SOL    HW2 1535   2.870   2.247   0.096 -1.4367  0.8767  0.3113
  384SOL     MW 1536   2.894   2.241   0.180 -0.1312  0.0620 -0.0998
  385SOL     OW 1537   1.777   1.090   4.267  0.1176 -0.0362 -0.1831
  385SOL    HW1 1538   1.780   1.125   4.357  0.7396  1.5141 -0.7633
  385SOL    HW2 1539   1.688   1.105   4.238  0.0202 -0.1793  0.0386
  385SOL     MW 1540   1.766   1.096   4.275  0.1848  0.1439 -0.2290
  386SOL     OW 1541   1.029   1.102   4.058 -0.2504  0.3873  0.1520
  386SOL    HW1 1542   0.974   1.055   3.996 -1.4331 -0.0222  1.4462
  386SOL    HW2 1543   1.062   1.035   4.117  0.8163  0.7723  0.0023
  386SOL     MW 1544   1.026   1.088   4.058 -0.2652  0.3842  0.2985
  387SOL     OW 1545   3.502   1.085   2.221  0.2162  0.5206  0.0648
  387SOL    HW1 1546   3.509   0.990   2.215  0.2772  0.3903  1.7947
  387SOL    HW2 1547   3.426   1.101   2.277 -1.1788  1.5721 -1.9681
  387SOL     MW 1548   3.493   1.075   2.227  0.0454  0.6385  0.0260
  388SOL     OW 1549   0.289   1.223   1.755  0.7785 -0.5936 -0.0874
  388SOL    HW1 1550   0.251   1.310   1.743  1.0595 -0.2213  1.4369
  388SOL    HW2 1551   0.362   1.220   1.693 -1.1037 -0.9745 -2.4009
  388SOL     MW 1552   0.294   1.234   1.746  0.5735 -0.5947 -0.1884
  389SOL     OW 1553  -0.006   3.191   2.109 -0.2577  0.1528  0.3254
  389SOL    HW1 1554   0.063   3.137   2.149  0.3861  0.3593 -0.4806
  389SOL    HW2 1555  -0.020   3.152   2.023  0.9965  1.8878 -0.7199
  389SOL     MW 1556   0.001   3.179   2.103 -0.0147  0.4013  0.0885
  390SOL     OW 1557   5.493   4.968   0.478 -0.0371 -0.5162  0.7752
  390SOL    HW1 1558   5.441   4.908   0.532 -1.4637  1.6043  1.8919
  390SOL    HW2 1559   5.466   4.949   0.388  1.5740 -3.3566  0.7688
  390SOL     MW 1560   5.483   4.958   0.474 -0.0134 -0.6084  0.9173
  391SOL     OW 1561   5.071   5.026   3.657  0.3444 -0.6002 -0.0511
  391SOL    HW1 1562   5.049   5.014   3.750 -0.9172 -1.1541 -0.3997
  391SOL    HW2 1563   5.163   5.002   3.651  0.1058 -1.8628  0.8430
  391SOL     MW 1564   5.080   5.021   3.668  0.1524 -0.8328  0.0187
  392SOL     OW 1565   1.156   3.808   4.724  0.6535 -0.1940  0.6790
  392SOL    HW1 1566   1.201   3.723   4.723  1.3742  0.1815 -0.5749
  392SOL    HW2 1567   1.225   3.872   4.710 -0.1394  0.4569 -0.3943
  392SOL     MW 1568   1.171   3.805   4.722  0.6442 -0.0626  0.3811
  393SOL     OW 1569   0.925   0.971   1.775 -1.0047  0.2120  0.0846
  393SOL    HW1 1570   0.942   0.895   1.831  1.9169  1.8404  1.6461
  393SOL    HW2 1571   0.880   1.033   1.832  0.3329  1.1686  0.1589
  393SOL     MW 1572   0.922   0.969   1.789 -0.4595  0.5429  0.2940
  394SOL     OW 1573   3.454   1.623   2.668 -0.1438  0.2517 -0.0970
  394SOL    HW1 1574   3.455   1.688   2.738  1.1427  1.6057 -1.2820
  394SOL    HW2 1575   3.525   1.562   2.690  0.3710  0.7720 -0.2809
  394SOL     MW 1576   3.464   1.624   2.680  0.0868  0.4917 -0.2722
  395SOL     OW 1577   4.580   4.517   0.808  0.5028  0.0536 -0.0305
  395SOL    HW1 1578   4.602   4.512   0.715 -0.0081  3.1390 -0.4018
  395SOL    HW2 1579   4.525   4.595   0.816 -1.3300 -1.3422  2.5583
  395SOL     MW 1580   4.576   4.526   0.797  0.2028  0.2699  0.2534
  396SOL     OW 1581   3.150   4.353   3.940 -0.1897 -0.0036  0.3595
  396SOL    HW1 1582   3.208   4.401   4.000  0.2752 -0.5065  0.3274
  396SOL    HW2 1583   3.071   4.406   3.935  0.3673  0.8320  0.2089
  396SOL     MW 1584   3.147   4.366   3.947 -0.0589  0.0390  0.3361
  397SOL     OW 1585   2.338   2.540   3.296  0.0686 -0.1869 -0.2428
  397SOL    HW1 1586   2.403   2.494   3.242  0.4666 -0.3284  0.3461
  397SOL    HW2 1587   2.382   2.554   3.380 -0.5193  0.0905  0.0254
  397SOL     MW 1588   2.352   2.536   3.300  0.0443 -0.1695 -0.1331
  398SOL     OW 1589   2.238   1.176   4.190  0.0973  0.6368 -0.0390
  398SOL    HW1 1590   2.305   1.147   4.128  0.2500  2.2061 -0.6601
  398SOL    HW2 1591   2.155   1.149   4.150  0.1852  1.7415 -1.0492
  398SOL     MW 1592   2.236   1.169   4.177  0.1281  0.9791 -0.2478
  399SOL     OW 1593   1.875   3.127   2.160  0.3899  0.4761  0.0145
  399SOL    HW1 1594   1.851   3.145   2.070 -0.0490 -1.4371 -0.3015
  399SOL    HW2 1595   1.826   3.191   2.211 -0.0077  1.0487 -1.0594
  399SOL     MW 1596   1.866   3.137   2.155  0.2828  0.3045 -0.1634
  400SOL     OW 1597   4.684   4.945   4.533  0.1837 -0.0982  0.2260
  400SOL    HW1 1598   4.759   4.893   4.502 -0.1170 -0.2385 -0.2892
  400SOL    HW2 1599   4.618   4.879   4.557  0.3077  0.0190  0.9052
  400SOL     MW 1600   4.685   4.930   4.532  0.1611 -0.1012  0.2470
  401SOL     OW 1601   2.262   1.870   4.607 -0.1755 -0.5034 -0.2658
  401SOL    HW1 1602   2.231   1.797   4.661  2.1330 -0.6258  1.0604
  401SOL    HW2 1603   2.290   1.936   4.671 -0.6765  0.8566 -1.4170
  401SOL     MW 1604   2.262   1.869   4.622  0.0559 -0.3450 -0.2434
  402SOL     OW 1605   1.053   1.144   1.029 -0.6704  0.5599  0.7008
  402SOL    HW1 1606   0.999   1.067   1.008  1.0131 -0.8951  1.4544
  402SOL    HW2 1607   0.992   1.217   1.027 -2.0959 -0.5701 -1.4498
  402SOL     MW 1608   1.038   1.143   1.026 -0.6374  0.2290  0.5219
  403SOL     OW 1609   4.033   1.097   4.359 -0.7339 -0.7620 -0.3488
  403SOL    HW1 1610   4.125   1.068   4.359 -0.6047 -0.3627 -0.2671
  403SOL    HW2 1611   3.987   1.029   4.409 -0.2676 -0.3268  0.7146
  403SOL     MW 1612   4.039   1.084   4.366 -0.6577 -0.6551 -0.2022
  404SOL     OW 1613   3.373   1.515   1.258 -0.4921 -0.5661  0.2372
  404SOL    HW1 1614   3.363   1.565   1.176 -0.5664  0.5802  0.9284
  404SOL    HW2 1615   3.321   1.563   1.322  0.6793 -0.6616  1.2857
  404SOL     MW 1616   3.365   1.528   1.255 -0.3517 -0.4316  0.4599
  405SOL     OW 1617   2.518   2.289   1.970  0.4389  0.0332 -0.2040
  405SOL    HW1 1618   2.482   2.313   1.885  0.4448  0.3722 -0.1116
  405SOL    HW2 1619   2.442   2.283   2.028  0.4012 -0.4908 -0.2960
  405SOL     MW 1620   2.504   2.291   1.967  0.4349  0.0095 -0.2040
  406SOL     OW 1621   5.284   1.856   0.082  0.2274  0.2211 -0.3611
  406SOL    HW1 1622   5.288   1.871  -0.013  1.7065  0.1045 -0.3318
  406SOL    HW2 1623   5.267   1.762   0.090  3.1180 -0.4077 -0.5565
  406SOL     MW 1624   5.282   1.846   0.071  0.7868  0.1256 -0.3824
  407SOL     OW 1625   1.712   0.231   1.207  0.2983 -0.4014 -0.5591
  407SOL    HW1 1626   1.759   0.300   1.254 -1.1356  1.0239 -1.1462
  407SOL    HW2 1627   1.711   0.157   1.268 -0.6472  1.0646  1.3184
  407SOL     MW 1628   1.718   0.230   1.221 -0.0063 -0.0312 -0.3939
  408SOL     OW 1629   3.726   1.825   3.217 -0.0923  0.2798  0.3778
  408SOL    HW1 1630   3.757   1.871   3.296  1.5057  0.0461 -0.0729
  408SOL    HW2 1631   3.697   1.896   3.159 -0.7417  0.4895  0.9440
  408SOL     MW 1632   3.726   1.840   3.220  0.0291  0.2767  0.3926
  409SOL     OW 1633   1.622   1.416   3.788 -0.5837  0.0676 -0.7072
  409SOL    HW1 1634   1.690   1.457   3.734  0.0034 -1.2914 -1.0352
  409SOL    HW2 1635   1.608   1.330   3.748 -2.0224  0.0568 -0.2341
  409SOL     MW 1636   1.629   1.410   3.776 -0.6927 -0.1078 -0.6886
  410SOL     OW 1637   4.194   4.381   3.267 -0.5735 -0.6213  0.0136
  410SOL    HW1 1638   4.184   4.461   3.216 -0.1392 -0.1517  0.6526
  410SOL    HW2 1639   4.126   4.322   3.233 -1.4204  0.2940  0.0793
  410SOL     MW 1640   4.184   4.383   3.256 -0.6263 -0.4440  0.1038
  411SOL     OW 1641   4.477   1.055   1.860 -0.2930 -0.0118 -0.3316
  411SOL    HW1 1642   4.494   1.128   1.920 -0.3419 -0.8163  0.6792
  411SOL    HW2 1643   4.562   1.037   1.820 -0.3164  0.7041 -0.7266
  411SOL     MW 1644   4.490   1.062   1.862 -0.3023 -0.0231 -0.2528
  412SOL     OW 1645   4.601   5.153   5.451  0.1071 -0.2809  0.1063
  412SOL    HW1 1646   4.682   5.198   5.426 -0.0681  0.6307  1.1292
  412SOL    HW2 1647   4.628   5.063   5.469  0.7820 -0.1418 -0.1811
  412SOL     MW 1648   4.614   5.147   5.450  0.1711 -0.1464  0.2005
  413SOL     OW 1649   1.314   5.407   3.939 -0.2396 -0.1716 -0.3446
  413SOL    HW1 1650   1.388   5.445   3.892 -0.0031 -1.2328 -0.8732
  413SOL    HW2 1651   1.302   5.321   3.898  0.9724 -1.8306  2.4574
  413SOL     MW 1652   1.322   5.401   3.928 -0.0541 -0.5198 -0.0536
  414SOL     OW 1653   1.350   4.954   1.270 -0.1078 -0.2257  0.0899
  414SOL    HW1 1654   1.340   5.049   1.276 -1.5252 -0.4311  1.7946
  414SOL    HW2 1655   1.436   4.941   1.228  0.4857  1.7864  0.5976
  414SOL     MW 1656   1.360   4.964   1.265 -0.2133  0.0056  0.3731
  415SOL     OW 1657   2.445   1.867   4.406  0.6992  0.1215 -0.5370
  415SOL    HW1 1658   2.441   1.963   4.399  2.6426  0.2465 -0.4775
  415SOL    HW2 1659   2.401   1.847   4.489  0.8848  1.0367 -0.2065
  415SOL     MW 1660   2.439   1.877   4.416  0.9717  0.2547 -0.4871
  416SOL     OW 1661   3.934   3.953   1.704 -0.2922  0.1442 -0.2681
  416SOL    HW1 1662   3.974   4.037   1.726 -0.8585  0.3482  0.0209
  416SOL    HW2 1663   3.842   3.964   1.728 -0.3025 -0.6735  0.0846
  416SOL     MW 1664   3.927   3.965   1.710 -0.3660  0.0656 -0.1860
  417SOL     OW 1665   1.437   2.630   1.996  0.1114  0.4193  0.0413
  417SOL    HW1 1666   1.448   2.724   2.010  1.4625  0.2765  0.0632
  417SOL    HW2 1667   1.486   2.612   1.915  1.6305 -0.5955  1.1365
  417SOL     MW 1668   1.445   2.640   1.987  0.4788  0.2711  0.1843
  418SOL     OW 1669   3.569   1.497   5.207 -0.5458 -0.0373  0.6275
  418SOL    HW1 1670   3.556   1.412   5.248  0.3251  0.0477  1.1126
  418SOL    HW2 1671   3.651   1.488   5.159 -0.4392  0.5225  0.6953
  418SOL     MW 1672   3.578   1.485   5.206 -0.4206  0.0453  0.6983
  419SOL     OW 1673   2.899   3.431   2.276 -0.3662  0.2683 -0.1188
  419SOL    HW1 1674   2.900   3.346   2.320 -0.0585 -0.8216 -2.1365
  419SOL    HW2 1675   2.848   3.487   2.335 -0.6911 -1.3337  1.2066
  419SOL     MW 1676   2.892   3.427   2.289 -0.3684 -0.0763 -0.2074
  420SOL     OW 1677   0.406   2.491   3.162  0.8690 -0.2775  0.6134
  420SOL    HW1 1678   0.372   2.542   3.089  1.2698 -2.1393 -0.9639
  420SOL    HW2 1679   0.421   2.555   3.232  1.4908  1.7621 -1.2855
  420SOL     MW 1680   0.404   2.506   3.162  0.9999 -0.2547  0.1684
  421SOL     OW 1681   4.621   5.434   0.606 -0.9093  0.0312 -0.0913
  421SOL    HW1 1682   4.582   5.405   0.688 -1.9485 -0.8248 -0.8591
  421SOL    HW2 1683   4.547   5.459   0.551 -0.2156  0.8452 -0.6795
  421SOL     MW 1684   4.607   5.433   0.609 -0.9536  0.0258 -0.2649
  422SOL     OW 1685   0.161   3.086   4.260 -0.8504 -0.0979  0.2724
  422SOL    HW1 1686   0.080   3.135   4.244 -0.7412 -0.2228 -0.7978
  422SOL    HW2 1687   0.133   2.996   4.273 -0.9408 -0.0030  0.7472
  422SOL     MW 1688   0.147   3.081   4.259 -0.8480 -0.1017  0.1962
  423SOL     OW 1689   0.730   2.377   3.151 -0.5000 -0.0264  0.4561
  423SOL    HW1 1690   0.794   2.447   3.157  0.8386 -1.1730  0.1442
  423SOL    HW2 1691   0.656   2.416   3.104  0.0709  1.2492  0.5814
  423SOL     MW 1692   0.729   2.391   3.146 -0.2556 -0.0099  0.4322
  424SOL     OW 1693   1.018   0.484   4.696 -0.5004 -0.1356 -0.0220
  424SOL    HW1 1694   0.944   0.445   4.649  1.2478 -1.9019 -1.4671
  424SOL    HW2 1695   1.071   0.525   4.627  0.3163  0.3620  0.8827
  424SOL     MW 1696   1.015   0.484   4.681 -0.1721 -0.2980 -0.0912
  425SOL     OW 1697   4.866   0.950   4.229  0.1556 -0.4368  0.1346
  425SOL    HW1 1698   4.947   0.974   4.183 -0.0947 -2.0635 -1.2618
  425SOL    HW2 1699   4.887   0.867   4.273 -0.0577  0.3560  1.8048
  425SOL     MW 1700   4.879   0.942   4.229  0.0962 -0.5436  0.1697
  426SOL     OW 1701   5.166   4.969   4.218  0.2791 -0.0919 -0.0824
  426SOL    HW1 1702   5.138   5.057   4.195  1.0007  0.1502 -0.0637
  426SOL    HW2 1703   5.182   4.972   4.313  1.4015  0.0828 -0.2596
  426SOL     MW 1704   5.165   4.980   4.228  0.5152 -0.0386 -0.1027
  427SOL     OW 1705   0.377   3.527   0.312 -0.1758 -0.1678  0.1648
  427SOL    HW1 1706   0.411   3.591   0.376  2.7484  0.2100 -1.5698
  427SOL    HW2 1707   0.455   3.494   0.268 -1.9291 -1.9772 -1.7937
  427SOL     MW 1708   0.392   3.531   0.314 -0.0259 -0.3510 -0.3080
  428SOL     OW 1709   3.669   1.356   1.525  0.3432  0.4285 -0.0665
  428SOL    HW1 1710   3.616   1.276   1.522 -0.2747  0.8261  0.0885
  428SOL    HW2 1711   3.676   1.383   1.433  0.4078  0.2940 -0.1020
  428SOL     MW 1712   3.663   1.349   1.513  0.2724  0.4622 -0.0512
  429SOL     OW 1713   2.366   3.158   5.372 -0.4674  0.1316  0.0840
  429SOL    HW1 1714   2.306   3.142   5.299 -0.6742 -0.0069  0.2868
  429SOL    HW2 1715   2.385   3.072   5.408  1.2695 -0.0305 -1.0958
  429SOL     MW 1716   2.361   3.145   5.367 -0.2715  0.0931 -0.0410
  430SOL     OW 1717   1.252   3.544   2.060  0.3065 -0.4103 -0.2247
  430SOL    HW1 1718   1.232   3.561   1.968 -0.3018 -1.2442 -0.2527
  430SOL    HW2 1719   1.168   3.550   2.104  0.3920 -1.2850  0.0744
  430SOL     MW 1720   1.239   3.547   2.054  0.2396 -0.6290 -0.1900
  431SOL     OW 1721   2.345   1.398   3.841  0.1986 -0.2469 -0.1698
  431SOL    HW1 1722   2.441   1.388   3.838  0.2179  0.0403 -1.5469
  431SOL    HW2 1723   2.326   1.427   3.930  1.3128 -1.0685  0.3663
  431SOL     MW 1724   2.355   1.400   3.852  0.3437 -0.3153 -0.2775
  432SOL     OW 1725   2.374   3.487   4.948 -0.6237  0.3087  0.1288
  432SOL    HW1 1726   2.384   3.556   4.883 -1.3183 -1.4339 -1.9703
  432SOL    HW2 1727   2.311   3.426   4.908 -0.3565 -1.3122  2.0430
  432SOL     MW 1728   2.367   3.488   4.934 -0.6784 -0.1219  0.1051
  433SOL     OW 1729   5.421   4.212   4.122 -0.3840 -0.0987  0.0698
  433SOL    HW1 1730   5.515   4.201   4.138 -0.3419 -0.5391 -0.4519
  433SOL    HW2 1731   5.391   4.125   4.096 -0.9877 -0.0153  0.4610
  433SOL     MW 1732   5.429   4.199   4.121 -0.4559 -0.1444  0.0531
  434SOL     OW 1733   0.412   3.707   0.789  0.0836  0.0379 -0.1160
  434SOL    HW1 1734   0.403   3.646   0.715  0.8088  0.6537 -0.7374
  434SOL    HW2 1735   0.381   3.791   0.754 -0.1107  0.2037  0.4579
  434SOL     MW 1736   0.407   3.710   0.775  0.1516  0.1380 -0.1221
  435SOL     OW 1737   4.528   2.885   1.937 -0.6396  0.5788  0.3312
  435SOL    HW1 1738   4.596   2.921   1.994 -0.4697  0.4586  0.2063
  435SOL    HW2 1739   4.528   2.944   1.861  2.0417 -1.5264 -1.5356
  435SOL     MW 1740   4.537   2.898   1.934 -0.2746  0.2939  0.0763
  436SOL     OW 1741   4.869   4.712   5.416  0.5955  0.0985  0.4092
  436SOL    HW1 1742   4.791   4.764   5.435 -0.4593 -1.2798  0.1115
  436SOL    HW2 1743   4.842   4.622   5.434  2.1495 -0.4212  0.3249
  436SOL     MW 1744   4.856   4.707   5.421  0.6594 -0.1444  0.3603
  437SOL     OW 1745   1.294   4.501   0.246  0.0906 -0.2368  0.2654
  437SOL    HW1 1746   1.362   4.465   0.303 -0.1244 -1.4829 -0.2479
  437SOL    HW2 1747   1.212   4.483   0.292  0.0905  1.9763  1.2786
  437SOL     MW 1748   1.293   4.494   0.260  0.0630 -0.1130  0.3294
  438SOL     OW 1749   3.551   4.466   3.814  0.1271 -0.4899 -0.2972
  438SOL    HW1 1750   3.554   4.521   3.736  0.3203  0.8378  0.6187
  438SOL    HW2 1751   3.539   4.377   3.780 -0.2664  0.1079 -1.8082
  438SOL     MW 1752   3.550   4.462   3.799  0.1014 -0.2434 -0.3734
  439SOL     OW 1753   1.325   4.120   4.914 -0.6041  0.3345 -0.1520
  439SOL    HW1 1754   1.323   4.050   4.980  1.4825 -0.3173 -0.6972
  439SOL    HW2 1755   1.282   4.194   4.956  0.4023 -0.1536  1.8582
  439SOL     MW 1756   1.319   4.120   4.928 -0.2081  0.1886  0.0356
  440SOL     OW 1757   3.587   5.415   3.820 -0.8626 -0.1547 -0.2412
  440SOL    HW1 1758   3.540   5.331   3.823  0.7135 -1.2448 -2.5692
  440SOL    HW2 1759   3.679   5.391   3.831 -0.3602  1.2247 -1.1747
  440SOL     MW 1760   3.592   5.401   3.822 -0.5965 -0.1177 -0.6587
  441SOL     OW 1761   1.008   1.115   4.606  0.2554 -0.4817  0.0067
  441SOL    HW1 1762   0.945   1.124   4.678  0.9073 -0.3131  0.5721
  441SOL    HW2 1763   0.957   1.083   4.532 -0.7914  1.0418  0.0229
  441SOL     MW 1764   0.993   1.112   4.606  0.2049 -0.2651  0.0811
  442SOL     OW 1765   4.114   3.413   3.255  0.0489 -0.0983 -0.4675
  442SOL    HW1 1766   4.145   3.323   3.259  1.1719  0.2613 -0.4863
  442SOL    HW2 1767   4.034   3.414   3.307  0.8580 -0.7972  0.8393
  442SOL     MW 1768   4.108   3.402   3.262  0.2962 -0.1417 -0.3026
  443SOL     OW 1769   0.581   5.375   0.547 -0.2984 -0.0820  0.3848
  443SOL    HW1 1770   0.645   5.306   0.528 -1.9493 -1.6910  0.3393
  443SOL    HW2 1771   0.610   5.412   0.630  1.7530  0.5982 -0.5730
  443SOL     MW 1772   0.593   5.371   0.556 -0.2472 -0.2009  0.2564
  444SOL     OW 1773   5.179   1.347   1.327  0.1719 -0.1044 -0.0268
  444SOL    HW1 1774   5.182   1.384   1.415 -0.3530 -0.9001  0.3391
  444SOL    HW2 1775   5.086   1.350   1.303  0.1985 -0.6531 -0.2106
  444SOL     MW 1776   5.167   1.352   1.335  0.1081 -0.2765 -0.0035
  445SOL     OW 1777   0.291   0.959   3.851 -0.5529 -0.0732  0.3817
  445SOL    HW1 1778   0.200   0.961   3.821 -0.3609 -1.2712 -0.3186
  445SOL    HW2 1779   0.292   0.895   3.922 -0.0400 -0.9727 -0.4141
  445SOL     MW 1780   0.280   0.951   3.856 -0.4627 -0.3417  0.1902
  446SOL     OW 1781   2.085   2.886   4.442 -0.3688 -0.1345  0.0726
  446SOL    HW1 1782   2.129   2.805   4.468 -0.1635 -0.1241 -0.2358
  446SOL    HW2 1783   2.036   2.863   4.363  0.1099  0.1680 -0.3159
  446SOL     MW 1784   2.084   2.873   4.435 -0.2812 -0.0945 -0.0166
  447SOL     OW 1785   3.412   4.370   2.857 -0.4879 -0.1247  0.1693
  447SOL    HW1 1786   3.370   4.414   2.783 -0.4734  0.4305  0.4816
  447SOL    HW2 1787   3.344   4.313   2.893 -1.7750  2.3769  2.0252
  447SOL     MW 1788   3.398   4.369   2.852 -0.6508  0.2666  0.4468
  448SOL     OW 1789   3.254   4.914   0.157  0.1257 -0.3403  0.0880
  448SOL    HW1 1790   3.302   4.918   0.240 -0.8421  1.3760  0.6219
  448SOL    HW2 1791   3.162   4.915   0.183 -0.2170 -1.4649 -0.9760
  448SOL     MW 1792   3.248   4.915   0.171 -0.0421 -0.2646  0.0201
  449SOL     OW 1793   1.083   3.913   0.445 -0.1576 -0.0386  0.1647
  449SOL    HW1 1794   1.130   3.835   0.475 -0.9798 -0.7950 -0.4492
  449SOL    HW2 1795   0.992   3.884   0.433  0.0612  0.1465 -2.9647
  449SOL     MW 1796   1.077   3.899   0.447 -0.2349 -0.1117 -0.3145
  450SOL     OW 1797   0.298   4.681   4.762 -0.2295  0.0877 -0.7814
  450SOL    HW1 1798   0.213   4.714   4.792 -0.2641  0.5834 -1.4116
  450SOL    HW2 1799   0.300   4.700   4.669  0.3993 -0.3185 -0.8590
  450SOL     MW 1800   0.287   4.687   4.754 -0.1534  0.0992 -0.8720
  451SOL     OW 1801   1.428   1.065   1.063  0.1776 -0.0048 -0.0787
  451SOL    HW1 1802   1.412   1.137   1.123  0.9527 -0.3646  0.5686
  451SOL    HW2 1803   1.446   1.107   0.979  1.1156  0.5716  0.4054
  451SOL     MW 1804   1.428   1.079   1.060  0.3969  0.0229  0.0661
  452SOL     OW 1805   1.900   3.229   3.878  0.2699  0.1322  0.1890
  452SOL    HW1 1806   1.976   3.261   3.830 -0.1988  1.5615  0.3598
  452SOL    HW2 1807   1.937   3.166   3.941  0.7521 -2.8797 -2.8156
  452SOL     MW 1808   1.915   3.225   3.880  0.2716 -0.0704 -0.1737
  453SOL     OW 1809   4.005   2.171   1.485 -0.4247  0.4113  0.0221
  453SOL    HW1 1810   3.913   2.149   1.466 -0.3868  0.5271 -0.3004
  453SOL    HW2 1811   4.047   2.172   1.400  0.0170 -0.2583  0.2285
  453SOL     MW 1812   3.998   2.168   1.472 -0.3633  0.3404  0.0072
  454SOL     OW 1813   2.876   4.969   0.434  0.3333  0.1919 -1.0427
  454SOL    HW1 1814   2.913   5.052   0.462 -3.2126  1.1909  1.3077
  454SOL    HW2 1815   2.924   4.903   0.483  1.0295  1.1434 -0.4106
  454SOL     MW 1816   2.887   4.971   0.443 -0.0315  0.4416 -0.6609
  455SOL     OW 1817   5.095   4.682   1.579 -0.1931 -0.2307  0.4317
  455SOL    HW1 1818   5.166   4.713   1.636 -1.4075  1.6688  1.0266
  455SOL    HW2 1819   5.111   4.727   1.496  1.7066 -3.1712 -0.9343
  455SOL     MW 1820   5.106   4.692   1.576 -0.1053 -0.3640  0.3330
  456SOL     OW 1821   3.008   4.171   1.959  0.1578  0.2879 -0.4931
  456SOL    HW1 1822   2.919   4.138   1.945  1.3412 -3.2580 -0.7976
  456SOL    HW2 1823   3.003   4.223   2.039 -2.3134  0.9023 -0.9845
  456SOL     MW 1824   2.996   4.174   1.968 -0.0071 -0.0874 -0.5950
  457SOL     OW 1825   3.404   4.239   5.011 -0.3461  0.4245  0.1408
  457SOL    HW1 1826   3.329   4.283   4.972  0.3926  0.3094 -1.4636
  457SOL    HW2 1827   3.461   4.216   4.937  1.1200  0.2166  1.2775
  457SOL     MW 1828   3.402   4.241   4.997 -0.0638  0.3832  0.0809
  458SOL     OW 1829   5.084   3.072   2.691  0.4501 -0.4648 -0.3371
  458SOL    HW1 1830   5.093   3.158   2.731 -0.5572 -0.2288 -0.5948
  458SOL    HW2 1831   5.045   3.089   2.606  1.9946 -1.0197 -1.2020
  458SOL     MW 1832   5.080   3.085   2.685  0.5189 -0.5056 -0.4808
  459SOL     OW 1833   2.965   4.936   0.166 -0.7014  0.5916 -0.3469
  459SOL    HW1 1834   2.914   4.916   0.245 -0.5868  2.1276  0.1563
  459SOL    HW2 1835   2.943   5.027   0.147 -0.6106  0.2820 -2.0276
  459SOL     MW 1836   2.955   4.945   0.174 -0.6751  0.7486 -0.4977
  460SOL     OW 1837   0.054   4.947   2.388  0.4408  0.4272 -0.2483
  460SOL    HW1 1838  -0.007   4.909   2.325 -1.6213  0.7999  1.4004
  460SOL    HW2 1839   0.140   4.928   2.352 -0.6002 -0.8171 -2.3076
  460SOL     MW 1840   0.057   4.940   2.375  0.0436  0.3156 -0.3008
  461SOL     OW 1841   2.520   0.661   5.207  0.5257 -0.1777  0.3024
  461SOL    HW1 1842   2.609   0.673   5.173  0.1446 -0.3620 -0.7939
  461SOL    HW2 1843   2.510   0.566   5.214 -0.6584 -0.3686 -2.6507
  461SOL     MW 1844   2.530   0.650   5.203  0.3253 -0.2258 -0.2160
  462SOL     OW 1845   5.355   3.440   1.756 -0.4127  0.3545  0.3292
  462SOL    HW1 1846   5.420   3.501   1.720 -0.2374 -0.2676 -0.4236
  462SOL    HW2 1847   5.295   3.423   1.683  0.1729 -1.2304  0.1949
  462SOL     MW 1848   5.355   3.446   1.742 -0.3153  0.0720  0.2157
  463SOL     OW 1849   0.467   5.203   0.943  0.1299  0.0138 -0.1685
  463SOL    HW1 1850   0.561   5.212   0.925  0.6685  1.3145  2.7293
  463SOL    HW2 1851   0.435   5.293   0.946 -0.5704 -0.2662  1.6602
  463SOL     MW 1852   0.475   5.216   0.941  0.1092  0.1445  0.4366
  464SOL     OW 1853   3.672   5.194   0.265  0.0981  0.1689 -0.5636
  464SOL    HW1 1854   3.720   5.275   0.247 -0.5687  0.7044  0.0009
  464SOL    HW2 1855   3.683   5.141   0.186  0.4179  0.8778 -1.0045
  464SOL     MW 1856   3.679   5.198   0.253  0.0537  0.3282 -0.5478
  465SOL     OW 1857   4.417   1.909   5.105  0.2220  0.4359  0.4148
  465SOL    HW1 1858   4.348   1.970   5.130  1.4662  1.4562  1.5814
  465SOL    HW2 1859   4.476   1.961   5.051  0.1395 -0.3878 -0.4851
  465SOL     MW 1860   4.416   1.923   5.101  0.3707  0.4611  0.4490
  466SOL     OW 1861   0.296   4.130   1.180  0.3249 -0.0607  0.2783
  466SOL    HW1 1862   0.254   4.044   1.179 -1.0637  0.5967 -1.2099
  466SOL    HW2 1863   0.301   4.156   1.088  2.0981  0.8243  0.5741
  466SOL     MW 1864   0.291   4.122   1.168  0.3741  0.1367  0.1257
  467SOL     OW 1865   3.270   2.013   0.316 -0.8663 -0.2041 -0.1274
  467SOL    HW1 1866   3.300   1.922   0.310 -0.9864 -0.4286  1.8436
  467SOL    HW2 1867   3.314   2.058   0.243  0.2296 -1.5700 -0.3579
  467SOL     MW 1868   3.280   2.007   0.306 -0.7414 -0.4077  0.0954
  468SOL     OW 1869   1.829   0.216   0.661 -0.3197  0.0416 -0.0389
  468SOL    HW1 1870   1.838   0.287   0.598 -0.3301  0.5821  0.5494
  468SOL    HW2 1871   1.909   0.221   0.714 -0.7184  0.1937  0.5669
  468SOL     MW 1872   1.840   0.226   0.660 -0.3721  0.1303  0.1139
  469SOL     OW 1873   0.903   4.778   1.536 -0.0630  0.1120 -0.4529
  469SOL    HW1 1874   0.857   4.784   1.452 -0.4559 -2.2129 -0.4705
  469SOL    HW2 1875   0.953   4.860   1.542 -0.4539  0.5819 -2.6794
  469SOL     MW 1876   0.904   4.789   1.526 -0.1634 -0.1255 -0.7402
  470SOL     OW 1877   3.387   3.596   4.302  0.0303 -0.1950  0.3408
  470SOL    HW1 1878   3.353   3.613   4.215  1.0573 -0.2596 -0.0835
  470SOL    HW2 1879   3.309   3.590   4.358 -0.5795  0.8808 -0.3758
  470SOL     MW 1880   3.372   3.597   4.298  0.0837 -0.0656  0.1948
  471SOL     OW 1881   2.627   0.592   3.686 -0.0476 -0.2085  0.3956
  471SOL    HW1 1882   2.630   0.588   3.782  0.1802 -2.4781  0.3372
  471SOL    HW2 1883   2.556   0.534   3.661 -0.3471  0.6467 -0.8190
  471SOL     MW 1884   2.619   0.584   3.695 -0.0568 -0.3895  0.2326
  472SOL     OW 1885   4.369   0.728   2.351 -0.1342 -0.3490  0.0835
  472SOL    HW1 1886   4.416   0.807   2.376 -0.5460 -0.0394 -0.0906
  472SOL    HW2 1887   4.418   0.656   2.391  0.7785 -0.0855 -0.5238
  472SOL     MW 1888   4.381   0.729   2.359 -0.0701 -0.2756 -0.0165
  473SOL     OW 1889   1.217   0.446   1.242 -0.0371  0.1928  0.4262
  473SOL    HW1 1890   1.166   0.367   1.225 -0.2410  0.5617 -0.7490
  473SOL    HW2 1891   1.151   0.514   1.256  0.1371  0.1341  1.6255
  473SOL     MW 1892   1.202   0.444   1.241 -0.0409  0.2325  0.4293
  474SOL     OW 1893   0.784   1.760   4.832  0.0959 -0.4949  0.1654
  474SOL    HW1 1894   0.873   1.735   4.807  0.5111 -0.5781  1.6395
  474SOL    HW2 1895   0.731   1.741   4.754  1.2522 -1.0438 -0.5176
  474SOL     MW 1896   0.789   1.754   4.819  0.2971 -0.5758  0.2667
  475SOL     OW 1897   4.202   2.504   0.393 -0.3288  0.0740 -0.2425
  475SOL    HW1 1898   4.228   2.588   0.354  0.2436 -0.9936 -2.3485
  475SOL    HW2 1899   4.230   2.511   0.484  0.9744  1.6524 -0.6987
  475SOL     MW 1900   4.209   2.516   0.399 -0.0887  0.1394 -0.5705
  476SOL     OW 1901   2.494   5.229   4.807 -0.2980  0.3619  0.6077
  476SOL    HW1 1902   2.435   5.303   4.824 -1.6234 -0.5961  0.3166
  476SOL    HW2 1903   2.438   5.161   4.770  0.8814 -0.8122  0.8802
  476SOL     MW 1904   2.479   5.230   4.805 -0.3167  0.0889  0.6054
  477SOL     OW 1905   3.321   4.541   0.975  0.3059  0.0932  0.4981
  477SOL    HW1 1906   3.309   4.507   1.064 -0.9117  0.1060  0.3541
  477SOL    HW2 1907   3.355   4.630   0.988 -1.2845  0.6531  1.0036
  477SOL     MW 1908   3.324   4.548   0.988 -0.0535  0.1665  0.5444
  478SOL     OW 1909   1.974   3.537   0.905 -0.1937 -0.1009  0.0728
  478SOL    HW1 1910   1.988   3.618   0.956  1.5499 -0.7855  0.7684
  478SOL    HW2 1911   2.010   3.558   0.819 -1.9177  0.6150 -0.5091
  478SOL     MW 1912   1.981   3.550   0.901 -0.1912 -0.0969  0.0873
  479SOL     OW 1913   2.308   0.223   1.203 -0.9257 -0.4422  0.1554
  479SOL    HW1 1914   2.376   0.222   1.135 -2.3180 -1.8181 -1.2999
  479SOL    HW2 1915   2.264   0.138   1.193 -2.6678  0.2915  1.2576
  479SOL     MW 1916   2.311   0.212   1.193 -1.3269 -0.5244  0.1102
  480SOL     OW 1917   5.156   4.251   3.619 -0.7752 -0.7100  0.3908
  480SOL    HW1 1918   5.175   4.167   3.577 -0.1411 -0.0978 -0.5945
  480SOL    HW2 1919   5.236   4.272   3.668  0.0182  0.4104 -1.2801
  480SOL     MW 1920   5.169   4.243   3.620 -0.5925 -0.4882  0.0508
  481SOL     OW 1921   4.306   0.219   3.647 -0.1134 -0.1305  0.0981
  481SOL    HW1 1922   4.322   0.311   3.628 -1.1216  0.2140  0.8635
  481SOL    HW2 1923   4.328   0.174   3.565  0.2845  0.7904 -0.3153
  481SOL     MW 1924   4.311   0.225   3.634 -0.1916  0.0315  0.1431
  482SOL     OW 1925   5.169   4.395   1.934 -0.1098  0.3637 -0.2183
  482SOL    HW1 1926   5.169   4.489   1.947 -1.3591  0.6271 -1.8002
  482SOL    HW2 1927   5.218   4.382   1.852  1.0084 -0.4875  0.5448
  482SOL     MW 1928   5.176   4.405   1.925 -0.1266  0.2885 -0.3231
  483SOL     OW 1929   4.026   1.287   3.547 -0.2828  0.5074  0.4578
  483SOL    HW1 1930   3.988   1.273   3.460  0.3016 -1.4183  0.4608
  483SOL    HW2 1931   3.981   1.224   3.603  1.5371 -0.4804  0.8670
  483SOL     MW 1932   4.016   1.277   3.543  0.0250  0.1344  0.5106
  484SOL     OW 1933   1.934   4.349   0.404 -0.1205 -0.1814 -0.0642
  484SOL    HW1 1934   1.895   4.296   0.473  2.3879  0.8176  2.2472
  484SOL    HW2 1935   1.951   4.433   0.445  0.7809  0.7208 -2.1535
  484SOL     MW 1936   1.931   4.353   0.418  0.3160  0.0620 -0.0358
  485SOL     OW 1937   1.674   3.259   4.988  0.0905  0.1351  0.0583
  485SOL    HW1 1938   1.740   3.210   5.037  0.9071  1.7827  0.6914
  485SOL    HW2 1939   1.626   3.308   5.054 -2.4208 -1.6432 -0.2860
  485SOL     MW 1940   1.676   3.259   5.002 -0.1264  0.1184  0.0953
  486SOL     OW 1941   5.383   2.352   0.085  0.1958  0.4399  0.0802
  486SOL    HW1 1942   5.337   2.336   0.168 -0.8101  0.2904 -0.4802
  486SOL    HW2 1943   5.376   2.447   0.071  0.2746  0.4520  0.1287
  486SOL     MW 1944   5.376   2.362   0.094  0.0771  0.4223  0.0147
  487SOL     OW 1945   0.545   4.759   3.152  0.0755 -1.3161 -0.2527
  487SOL    HW1 1946   0.626   4.707   3.145  1.0927  0.1366  0.2622
  487SOL    HW2 1947   0.545   4.814   3.073 -0.5018 -1.4152 -0.3274
  487SOL     MW 1948   0.555   4.759   3.141  0.1318 -1.1429 -0.1963
  488SOL     OW 1949   1.326   0.401   0.443  0.2706 -0.4626  0.3616
  488SOL    HW1 1950   1.359   0.338   0.378  0.4536  0.1725 -0.1726
  488SOL    HW2 1951   1.375   0.482   0.425 -0.6039  0.0980  0.4487
  488SOL     MW 1952   1.337   0.403   0.432  0.1821 -0.3095  0.3044
  489SOL     OW 1953   0.434   3.408   4.505 -0.1521  0.0784 -0.5870
  489SOL    HW1 1954   0.405   3.424   4.594  0.5823 -0.4455 -0.2445
  489SOL    HW2 1955   0.530   3.415   4.509 -0.1695  1.5976 -1.6395
  489SOL     MW 1956   0.443   3.411   4.517 -0.0603  0.2058 -0.6779
  490SOL     OW 1957   0.376   2.472   1.152 -0.1278  0.0125 -0.7911
  490SOL    HW1 1958   0.449   2.487   1.212  1.6998 -1.8154 -2.3996
  490SOL    HW2 1959   0.342   2.385   1.176 -0.0285 -0.2952 -1.7388
  490SOL     MW 1960   0.381   2.463   1.163  0.1188 -0.2609 -1.1183
  491SOL     OW 1961   1.543   5.350   5.137 -0.0896 -0.3207  0.3220
  491SOL    HW1 1962   1.495   5.399   5.204 -2.2103  0.4014 -1.6036
  491SOL    HW2 1963   1.519   5.259   5.153  2.0482 -0.6080  2.4847
  491SOL     MW 1964   1.534   5.344   5.148 -0.0874 -0.2650  0.3523
  492SOL     OW 1965   3.843   5.284   5.092  0.1218 -0.2417  0.2970
  492SOL    HW1 1966   3.781   5.308   5.024  1.5651  0.4145 -0.8376
  492SOL    HW2 1967   3.842   5.357   5.153  0.7878  0.4211 -0.4682
  492SOL     MW 1968   3.835   5.296   5.091  0.3919 -0.0728  0.0538
  493SOL     OW 1969   1.302   1.975   0.271 -0.0135 -0.0419 -0.1804
  493SOL    HW1 1970   1.389   2.006   0.248 -0.0967  1.1213  0.9403
  493SOL    HW2 1971   1.271   2.037   0.338 -2.0154  0.0771 -1.1212
  493SOL     MW 1972   1.309   1.987   0.276 -0.2804  0.1222 -0.1574
  494SOL     OW 1973   2.298   1.332   4.406 -0.2600  0.1999 -0.0652
  494SOL    HW1 1974   2.327   1.284   4.484  0.5398 -0.4092 -0.7127
  494SOL    HW2 1975   2.277   1.264   4.342  0.3192  0.6847 -0.8051
  494SOL     MW 1976   2.299   1.317   4.408 -0.0835  0.1840 -0.2428
  495SOL     OW 1977   2.884   2.096   3.988 -0.4570  0.3027  0.3476
  495SOL    HW1 1978   2.929   2.055   4.062  2.1333 -1.0737 -1.7973
  495SOL    HW2 1979   2.809   2.040   3.971  1.0995 -1.6614 -0.3855
  495SOL     MW 1980   2.880   2.084   3.995  0.0738 -0.1249 -0.0208
  496SOL     OW 1981   5.197   3.736   4.322  0.4345  0.1522  0.0627
  496SOL    HW1 1982   5.270   3.789   4.291  2.5638 -2.1365  0.8522
  496SOL    HW2 1983   5.209   3.731   4.416  1.0098 -2.6020 -0.0853
  496SOL     MW 1984   5.208   3.742   4.330  0.7808 -0.4934  0.1448
  497SOL     OW 1985   2.481   0.042   4.495  0.2218  0.1991  0.4928
  497SOL    HW1 1986   2.389   0.019   4.480 -0.3500  1.6630  1.5385
  497SOL    HW2 1987   2.479   0.099   4.572  2.0125  0.3004  0.5045
  497SOL     MW 1988   2.469   0.046   4.503  0.3778  0.3994  0.6282
  498SOL     OW 1989   3.088   5.428   2.684  0.2393 -0.2361 -0.4610
  498SOL    HW1 1990   3.110   5.458   2.772  0.4612  0.3550 -0.7145
  498SOL    HW2 1991   3.169   5.388   2.651  0.0056 -0.9248 -0.2031
  498SOL     MW 1992   3.101   5.427   2.691  0.2378 -0.2486 -0.4604
  499SOL     OW 1993   4.516   0.328   3.355 -0.3949 -0.4366 -0.0261
  499SOL    HW1 1994   4.579   0.326   3.283  0.9079 -2.3787  1.0899
  499SOL    HW2 1995   4.445   0.385   3.323  1.5516  1.2796 -1.5967
  499SOL     MW 1996   4.515   0.335   3.342  0.0211 -0.4655 -0.0843
  500SOL     OW 1997   3.500   3.246   3.765  0.2615  0.2149  0.1723
  500SOL    HW1 1998   3.586   3.225   3.802  0.0912 -0.5929  0.1327
  500SOL    HW2 1999   3.462   3.161   3.742 -0.9020  0.4877  0.9678
  500SOL     MW 2000   3.506   3.233   3.767  0.0907  0.1464  0.2691
  501SOL     OW 2001   4.576   2.425   0.644 -0.4121  0.1419  0.0398
  501SOL    HW1 2002   4.611   2.411   0.732  0.7231  0.6642 -0.3085
  501SOL    HW2 2003   4.637   2.485   0.603 -1.3823  0.5614 -0.8417
  501SOL     MW 2004   4.588   2.431   0.650 -0.3910  0.2625 -0.1176
  502SOL     OW 2005   4.492   1.321   3.245  0.5897 -0.1428  0.1443
  502SOL    HW1 2006   4.558   1.382   3.212 -0.3535  0.3853 -0.8308
  502SOL    HW2 2007   4.494   1.333   3.340  1.4932  0.2725  0.0899
  502SOL     MW 2008   4.501   1.330   3.253  0.5846 -0.0220  0.0125
  503SOL     OW 2009   1.442   1.639   1.409  0.4020  0.4015 -0.2788
  503SOL    HW1 2010   1.405   1.616   1.324  0.6673  2.4122 -0.9907
  503SOL    HW2 2011   1.493   1.562   1.435 -1.6700 -1.2120 -0.7209
  503SOL     MW 2012   1.444   1.627   1.402  0.1707  0.4524 -0.4265
  504SOL     OW 2013   5.134   0.349   0.150  0.0089  0.3114 -0.3919
  504SOL    HW1 2014   5.123   0.407   0.225  0.1380  0.5034 -0.5204
  504SOL    HW2 2015   5.105   0.401   0.075  3.0730  1.4050 -0.9803
  504SOL     MW 2016   5.129   0.363   0.150  0.4177  0.4760 -0.4837
  505SOL     OW 2017   1.416   4.311   4.088  0.2680  0.1615 -0.2105
  505SOL    HW1 2018   1.398   4.368   4.163  1.0486 -0.1098  0.1982
  505SOL    HW2 2019   1.361   4.234   4.102 -0.8562  0.8260 -0.8083
  505SOL     MW 2020   1.407   4.309   4.099  0.2240  0.2118 -0.2347
  506SOL     OW 2021   0.930   5.152   1.364 -0.1345  0.4786 -0.2044
  506SOL    HW1 2022   0.863   5.222   1.368  0.1883  0.8273 -0.7163
  506SOL    HW2 2023   0.962   5.144   1.454 -2.0003 -0.8313  0.4115
  506SOL     MW 2024   0.925   5.160   1.376 -0.3320  0.3555 -0.1911
  507SOL     OW 2025   1.797   1.308   2.922  1.0029 -0.1999 -0.1437
  507SOL    HW1 2026   1.702   1.309   2.910  1.0011 -1.0785 -0.2586
  507SOL    HW2 2027   1.831   1.365   2.853  0.4804  1.3895  0.8466
  507SOL     MW 2028   1.789   1.315   2.912  0.9358 -0.1089 -0.0317
  508SOL     OW 2029   5.361   4.736   2.252 -0.0196  0.1947  0.2077
  508SOL    HW1 2030   5.386   4.661   2.307 -1.7910 -0.2278  0.4750
  508SOL    HW2 2031   5.434   4.744   2.190  0.2583 -1.7215  0.2080
  508SOL     MW 2032   5.374   4.727   2.251 -0.2108 -0.1047  0.2420
  509SOL     OW 2033   5.445   4.854   0.227  0.7691  0.0999  0.1118
  509SOL    HW1 2034   5.402   4.920   0.173  0.9889 -0.3767 -0.6619
  509SOL    HW2 2035   5.378   4.788   0.244  0.8441 -0.0076 -0.0116
  509SOL     MW 2036   5.431   4.854   0.222  0.8068  0.0251 -0.0031
  510SOL     OW 2037   4.765   4.393   2.734 -0.1231 -0.0392  0.0200
  510SOL    HW1 2038   4.711   4.315   2.729 -0.1536 -0.0637  0.5718
  510SOL    HW2 2039   4.794   4.395   2.826  0.6118  0.1009 -0.2103
  510SOL     MW 2040   4.762   4.383   2.745 -0.0329 -0.0244  0.0611
  511SOL     OW 2041   3.044   5.176   2.719  0.3693 -0.4610  0.0316
  511SOL    HW1 2042   3.049   5.272   2.711  0.2207 -0.4928 -0.4487
  511SOL    HW2 2043   3.037   5.161   2.814 -1.8733  0.1066  0.0153
  511SOL     MW 2044   3.044   5.187   2.730  0.0632 -0.3924 -0.0320
  512SOL     OW 2045   3.163   5.462   3.771  0.2611  0.6689  0.0378
  512SOL    HW1 2046   3.096   5.410   3.727 -0.2257  1.6500 -0.4138
  512SOL    HW2 2047   3.184   5.412   3.850 -0.5898  0.0684 -0.0991
  512SOL     MW 2048   3.157   5.449   3.776  0.0898  0.7177 -0.0376
  513SOL     OW 2049   2.066   1.080   2.112 -0.6858  0.2769 -0.4766
  513SOL    HW1 2050   2.006   1.079   2.038 -0.2694  0.9125 -0.8266
  513SOL    HW2 2051   2.011   1.103   2.187 -1.2959 -1.2859 -0.3974
  513SOL     MW 2052   2.051   1.083   2.112 -0.7106  0.1582 -0.5113
  514SOL     OW 2053   1.462   4.711   0.186  0.2946  0.1181  0.6228
  514SOL    HW1 2054   1.391   4.647   0.189  0.5792 -0.1729  1.7171
  514SOL    HW2 2055   1.525   4.679   0.250  1.5654  0.2103 -0.5270
  514SOL     MW 2056   1.461   4.699   0.194  0.4937  0.0927  0.6157
  515SOL     OW 2057   2.805   0.511   0.879 -0.1104  0.4177  0.3557
  515SOL    HW1 2058   2.771   0.526   0.967  0.1958 -1.1827  0.7838
  515SOL    HW2 2059   2.773   0.584   0.828 -0.4888  1.2574  1.7477
  515SOL     MW 2060   2.797   0.522   0.884 -0.1197  0.3203  0.5887
  516SOL     OW 2061   0.858   1.676   3.728 -0.2548 -0.4889  0.1720
  516SOL    HW1 2062   0.890   1.656   3.816  0.5940 -2.1614 -0.4618
  516SOL    HW2 2063   0.928   1.730   3.689 -0.6696  0.3229  0.5327
  516SOL     MW 2064   0.871   1.680   3.734 -0.1993 -0.5991  0.1370
  517SOL     OW 2065   5.321   2.676   1.192  0.0834 -0.1404  0.2174
  517SOL    HW1 2066   5.231   2.666   1.223 -0.3444 -0.2369 -1.0151
  517SOL    HW2 2067   5.365   2.596   1.221 -0.8983 -1.3143 -1.3880
  517SOL     MW 2068   5.315   2.665   1.200 -0.0971 -0.3030 -0.1459
  518SOL     OW 2069   0.904   4.916   4.962 -0.1094 -0.7891  0.7132
  518SOL    HW1 2070   0.832   4.857   4.981 -0.3269 -0.7760 -0.0264
  518SOL    HW2 2071   0.977   4.858   4.938 -0.5903 -0.7633 -0.9258
  518SOL     MW 2072   0.904   4.901   4.961 -0.1988 -0.7842  0.4087
  519SOL     OW 2073   2.543   0.935   0.722  0.1707 -0.2325  0.3102
  519SOL    HW1 2074   2.618   0.875   0.722 -1.0438 -1.8380 -0.7841
  519SOL    HW2 2075   2.468   0.879   0.702 -1.7558  0.8651  3.7520
  519SOL     MW 2076   2.543   0.920   0.719 -0.2314 -0.2975  0.6107
  520SOL     OW 2077   1.129   4.656   1.883 -0.0669  0.0139  0.6138
  520SOL    HW1 2078   1.098   4.670   1.972 -2.6481  0.1935 -0.2379
  520SOL    HW2 2079   1.099   4.568   1.860  0.8045 -0.1406  0.0062
  520SOL     MW 2080   1.121   4.647   1.891 -0.2858  0.0171  0.4270
  521SOL     OW 2081   1.157   3.904   5.000 -0.6356 -0.3165  0.0303
  521SOL    HW1 2082   1.175   3.880   5.091 -0.6195 -1.0029 -0.1496
  521SOL    HW2 2083   1.093   3.839   4.970  0.5128 -1.0404 -0.9208
  521SOL     MW 2084   1.151   3.893   5.008 -0.4865 -0.4970 -0.1145
  522SOL     OW 2085   4.296   4.793   0.028  0.0729 -0.7544 -0.3870
  522SOL    HW1 2086   4.336   4.804  -0.058  1.4809 -1.3387  0.1577
  522SOL    HW2 2087   4.269   4.881   0.053 -0.8113 -0.6515 -1.6244
  522SOL     MW 2088   4.298   4.806   0.020  0.1399 -0.8161 -0.4757
  523SOL     OW 2089   4.573   0.340   5.368  0.2414 -0.5213  0.0592
  523SOL    HW1 2090   4.575   0.337   5.463 -1.5321  1.2206  0.1995
  523SOL    HW2 2091   4.621   0.261   5.341  1.7645 -0.4735  2.3440
  523SOL     MW 2092   4.580   0.329   5.377  0.2094 -0.2922  0.3696
  524SOL     OW 2093   3.881   0.038   1.516  0.3497 -0.5316 -0.1284
  524SOL    HW1 2094   3.813  -0.022   1.546 -0.9862  1.7432  1.8133
  524SOL    HW2 2095   3.913   0.079   1.596  1.6378  0.8509 -1.2975
  524SOL     MW 2096   3.876   0.036   1.530  0.3436 -0.0634 -0.0295
  525SOL     OW 2097   2.227   2.441   5.296 -0.3194  0.0544  0.2868
  525SOL    HW1 2098   2.266   2.503   5.358 -2.4352  0.3433  1.3931
  525SOL    HW2 2099   2.293   2.372   5.287  0.9983  1.1691  1.0218
  525SOL     MW 2100   2.241   2.440   5.303 -0.4216  0.2341  0.5225
  526SOL     OW 2101   1.302   1.244   5.227  0.4695  0.4621 -0.0874
  526SOL    HW1 2102   1.211   1.217   5.241  0.3117  0.2853 -1.3059
  526SOL    HW2 2103   1.352   1.163   5.227  0.7193  0.6002  1.1009
  526SOL     MW 2104   1.296   1.230   5.229  0.4813  0.4571 -0.0913
  527SOL     OW 2105   2.032   4.168   3.137 -0.0288  0.3075 -0.0593
  527SOL    HW1 2106   2.011   4.195   3.226  0.2930  0.8383 -0.1401
  527SOL    HW2 2107   1.949   4.176   3.089  0.0361  1.0475 -0.0553
  527SOL     MW 2108   2.019   4.173   3.142  0.0207  0.4702 -0.0691
  528SOL     OW 2109   3.014   2.537   4.509 -0.0855  0.4837  0.0863
  528SOL    HW1 2110   3.106   2.555   4.487  0.0683 -0.1673  0.1676
  528SOL    HW2 2111   3.007   2.560   4.601  0.1848 -0.1194  0.2667
  528SOL     MW 2112   3.025   2.542   4.518 -0.0312  0.3231  0.1198
  529SOL     OW 2113   0.676   2.027   2.050  0.1705  0.4021  0.3610
  529SOL    HW1 2114   0.737   2.073   1.992  1.0122 -0.5774  0.4440
  529SOL    HW2 2115   0.699   2.058   2.138  1.0398 -0.4817  0.4608
  529SOL     MW 2116   0.687   2.037   2.054  0.3895  0.1635  0.3844
  530SOL     OW 2117   2.758   4.897   2.561  0.6009 -1.1016  0.0390
  530SOL    HW1 2118   2.837   4.888   2.616 -0.0743  0.5576  1.3625
  530SOL    HW2 2119   2.779   4.969   2.501  0.0976 -0.6307  0.4208
  530SOL     MW 2120   2.771   4.905   2.561  0.4500 -0.8289  0.2573
  531SOL     OW 2121   2.163   4.566   0.341 -0.1155 -0.2318 -0.3144
  531SOL    HW1 2122   2.248   4.558   0.385 -0.3596  1.9684  0.7056
  531SOL    HW2 2123   2.184   4.559   0.248  1.0836 -0.3726 -0.0568
  531SOL     MW 2124   2.177   4.564   0.335  0.0068  0.0319 -0.1509
  532SOL     OW 2125   5.037   1.787   2.164  0.5618 -0.4979 -0.2245
  532SOL    HW1 2126   5.076   1.874   2.162 -0.4202  0.0282  1.5515
  532SOL    HW2 2127   5.109   1.728   2.140  1.9097  0.5947  0.9428
  532SOL     MW 2128   5.051   1.790   2.161  0.6086 -0.2907  0.1523
  533SOL     OW 2129   0.076   4.761   2.084  0.0348  0.2673 -0.0710
  533SOL    HW1 2130   0.068   4.855   2.072 -0.2859  0.3463  0.7290
  533SOL    HW2 2131   0.096   4.727   1.996 -1.4115  0.9026 -0.6743
  533SOL     MW 2132   0.078   4.769   2.071 -0.1914  0.3587 -0.0458
  534SOL     OW 2133   4.905   0.162   3.350 -0.2312  0.5218  0.1580
  534SOL    HW1 2134   4.823   0.121   3.323  0.1425 -0.6103  0.7000
  534SOL    HW2 2135   4.942   0.197   3.269  0.3336 -1.8424 -0.6798
  534SOL     MW 2136   4.899   0.161   3.336 -0.1111  0.0742  0.1202
  535SOL     OW 2137   2.220   1.372   0.348  0.3941  0.3758 -0.5437
  535SOL    HW1 2138   2.198   1.419   0.428  0.2610  1.0293 -0.9495
  535SOL    HW2 2139   2.240   1.283   0.376  0.9626  0.7532  0.2909
  535SOL     MW 2140   2.220   1.367   0.362  0.4498  0.5078 -0.4888
  536SOL     OW 2141   0.842   3.845   1.042  0.3250 -0.0790  0.4084
  536SOL    HW1 2142   0.824   3.787   1.116 -1.1851  1.0433  0.9651
  536SOL    HW2 2143   0.797   3.805   0.968  1.4599 -0.9604  0.1583
  536SOL     MW 2144   0.834   3.832   1.042  0.2770 -0.0482  0.4476
  537SOL     OW 2145   1.243   0.561   0.141 -0.1004  0.4852  0.2984
  537SOL    HW1 2146   1.160   0.541   0.186 -0.2397  1.9787  0.7790
  537SOL    HW2 2147   1.223   0.638   0.088  1.4114  2.0761  1.8933
  537SOL     MW 2148   1.230   0.569   0.140  0.0753  0.8800  0.5641
  538SOL     OW 2149   0.125   2.424   2.236 -0.0537  0.3920 -0.6768
  538SOL    HW1 2150   0.182   2.440   2.162  1.3978 -1.4921 -0.0314
  538SOL    HW2 2151   0.174   2.457   2.312 -0.0785 -0.6577 -0.1887
  538SOL     MW 2152   0.138   2.430   2.236  0.1289  0.0164 -0.5317
  539SOL     OW 2153   0.534   4.639   1.532 -0.9865 -0.3615 -0.2237
  539SOL    HW1 2154   0.577   4.712   1.578  0.1318 -1.0237 -0.1740
  539SOL    HW2 2155   0.497   4.679   1.453 -0.7882  0.3476  0.0351
  539SOL     MW 2156   0.535   4.654   1.528 -0.8180 -0.3555 -0.1842
  540SOL     OW 2157   2.411   3.808   4.458 -0.1044 -0.2640  0.6733
  540SOL    HW1 2158   2.413   3.762   4.542 -1.1462  1.3881  1.6621
  540SOL    HW2 2159   2.478   3.876   4.467  0.3134 -0.5537 -0.1518
  540SOL     MW 2160   2.420   3.811   4.470 -0.1843 -0.0896  0.6942
  541SOL     OW 2161   1.084   3.748   3.782 -0.2323 -0.4473 -0.4508
  541SOL    HW1 2162   1.111   3.667   3.825  0.1609  0.4403  1.0244
  541SOL    HW2 2163   1.039   3.798   3.850 -1.2373  0.2258 -1.5691
  541SOL     MW 2164   1.082   3.744   3.796 -0.3106 -0.2475 -0.4051
  542SOL     OW 2165   3.891   2.785   4.532  0.6512  0.2923  0.2733
  542SOL    HW1 2166   3.811   2.814   4.489  0.9671  0.3228 -0.3149
  542SOL    HW2 2167   3.944   2.864   4.540  0.0671  0.5491  1.9539
  542SOL     MW 2168   3.888   2.799   4.527  0.6169  0.3291  0.4131
  543SOL     OW 2169   1.189   2.088   2.205  0.4941  0.7103  0.3043
  543SOL    HW1 2170   1.133   2.104   2.282 -0.5891  0.7276 -0.4600
  543SOL    HW2 2171   1.144   2.133   2.134 -1.2056 -3.2245 -1.3918
  543SOL     MW 2172   1.176   2.096   2.206  0.1378  0.2088 -0.0107
  544SOL     OW 2173   1.467   1.738   4.663  0.1605 -0.3458 -0.2166
  544SOL    HW1 2174   1.473   1.809   4.728 -0.5584  0.0195 -0.5366
  544SOL    HW2 2175   1.557   1.709   4.651  0.2885 -0.5538  1.0946
  544SOL     MW 2176   1.479   1.743   4.670  0.0849 -0.3256 -0.0897
  545SOL     OW 2177   2.663   0.653   4.863 -0.5561  0.5774  0.2331
  545SOL    HW1 2178   2.699   0.624   4.779 -1.5042  0.3743 -0.1135
  545SOL    HW2 2179   2.690   0.586   4.926  1.5613  1.5542  0.4414
  545SOL     MW 2180   2.671   0.641   4.860 -0.4064  0.6765  0.2154
  546SOL     OW 2181   3.039   1.365   1.295  0.1596  0.1903 -0.3730
  546SOL    HW1 2182   3.105   1.325   1.239  0.5389  1.6242 -0.9961
  546SOL    HW2 2183   3.068   1.346   1.384  0.8409 -0.0990 -0.6522
  546SOL     MW 2184   3.051   1.357   1.299  0.2953  0.3368 -0.4885
  547SOL     OW 2185   0.827   0.547   5.441  0.0962  0.2241 -0.1998
  547SOL    HW1 2186   0.767   0.493   5.493 -0.3328 -0.3257 -1.2183
  547SOL    HW2 2187   0.877   0.483   5.389  1.5146  0.6757  0.5474
  547SOL     MW 2188   0.826   0.532   5.441  0.2228  0.2115 -0.2345
  548SOL     OW 2189   2.189   0.589   2.092 -0.0628 -0.8284 -0.1315
  548SOL    HW1 2190   2.174   0.680   2.068 -2.5239 -1.2306 -0.4038
  548SOL    HW2 2191   2.257   0.558   2.033 -0.0442  0.5082 -0.8252
  548SOL     MW 2192   2.196   0.597   2.082 -0.3755 -0.7088 -0.2552
  549SOL     OW 2193   0.366   2.521   3.891  0.1232  0.4950 -0.2107
  549SOL    HW1 2194   0.432   2.536   3.824  0.6389  1.7372  0.5380
  549SOL    HW2 2195   0.316   2.603   3.894 -0.1472  0.3090  0.6444
  549SOL     MW 2196   0.368   2.534   3.883  0.1546  0.6302 -0.0054
  550SOL     OW 2197   2.152   2.142   1.453  0.2127  0.0005 -0.2741
  550SOL    HW1 2198   2.122   2.169   1.366 -1.9414 -0.5266  0.2298
  550SOL    HW2 2199   2.155   2.223   1.504  1.0883  0.2579 -0.7260
  550SOL     MW 2200   2.148   2.156   1.449  0.0490 -0.0340 -0.2674
  551SOL     OW 2201   4.058   1.474   3.044 -0.4094  0.2067  0.0265
  551SOL    HW1 2202   4.010   1.486   3.126  2.3853  1.5204  1.5930
  551SOL    HW2 2203   4.059   1.560   3.003  0.2117  0.0833 -0.2272
  551SOL     MW 2204   4.052   1.486   3.049  0.0278  0.3591  0.1946
  552SOL     OW 2205   3.328   0.532   1.906 -0.1254  0.0470 -0.7342
  552SOL    HW1 2206   3.405   0.509   1.958  0.4602  1.7494 -0.7698
  552SOL    HW2 2207   3.365   0.569   1.825 -0.9571  1.3433 -0.5421
  552SOL     MW 2208   3.343   0.534   1.902 -0.1569  0.4309 -0.7142
  553SOL     OW 2209   2.795   2.960   2.844  0.3920 -1.0418 -0.3320
  553SOL    HW1 2210   2.808   2.956   2.750  1.7343 -1.0474 -0.1657
  553SOL    HW2 2211   2.881   2.982   2.880 -0.7882  2.8353  0.6512
  553SOL     MW 2212   2.808   2.962   2.837  0.4128 -0.5462 -0.1849
  554SOL     OW 2213   0.200   1.996   2.983 -0.1569  0.1725 -0.3622
  554SOL    HW1 2214   0.137   2.009   3.053 -0.2816 -1.8676 -0.0168
  554SOL    HW2 2215   0.161   1.927   2.929  0.5147  0.8301 -1.7348
  554SOL     MW 2216   0.187   1.989   2.985 -0.0869 -0.0045 -0.4937
  555SOL     OW 2217   1.765   5.144   3.839  0.0917 -0.3966  0.4025
  555SOL    HW1 2218   1.841   5.165   3.785 -0.2622 -0.1541 -0.0058
  555SOL    HW2 2219   1.753   5.050   3.828  0.9942 -0.6360  1.3404
  555SOL     MW 2220   1.773   5.135   3.831  0.1619 -0.3962  0.4703
  556SOL     OW 2221   0.661   2.460   3.402  0.2883  0.4459 -0.4699
  556SOL    HW1 2222   0.747   2.501   3.408  1.4371 -1.6005 -1.5748
  556SOL    HW2 2223   0.656   2.429   3.312 -1.8483  0.9120 -0.5721
  556SOL     MW 2224   0.671   2.461   3.391  0.1618  0.2436 -0.6244
  557SOL     OW 2225   0.447   0.603   0.331 -0.0202  0.3938 -0.3856
  557SOL    HW1 2226   0.483   0.524   0.371  0.4693  0.4180 -0.7698
  557SOL    HW2 2227   0.400   0.572   0.254 -1.2574  0.3122  0.3790
  557SOL     MW 2228   0.446   0.589   0.326 -0.1160  0.3864 -0.3369
  558SOL     OW 2229   4.830   0.028   2.614 -0.9777  0.5372  0.2514
  558SOL    HW1 2230   4.751   0.075   2.642 -2.5738  1.3258 -4.6619
  558SOL    HW2 2231   4.799  -0.034   2.548  2.3782  0.1057 -1.0975
  558SOL     MW 2232   4.816   0.026   2.609 -0.7524  0.5829 -0.5502
  559SOL     OW 2233   0.974   3.192   4.382 -0.3020  0.4901  0.2448
  559SOL    HW1 2234   0.935   3.267   4.336 -1.1297 -0.0504  0.0445
  559SOL    HW2 2235   0.908   3.123   4.375  0.4919 -0.2947  0.3350
  559SOL     MW 2236   0.961   3.193   4.375 -0.3063  0.3204  0.2307
  560SOL     OW 2237   2.943   0.736   0.487 -0.1313 -0.2130 -0.1490
  560SOL    HW1 2238   3.014   0.800   0.476  1.2023 -1.3910  1.2576
  560SOL    HW2 2239   2.973   0.658   0.441 -1.9664  0.2316 -2.2806
  560SOL     MW 2240   2.956   0.734   0.480 -0.1955 -0.3069 -0.2418
  561SOL     OW 2241   0.524   0.175   2.305 -0.0877 -0.0314 -0.0285
  561SOL    HW1 2242   0.540   0.247   2.366 -0.1131  0.0489 -0.1178
  561SOL    HW2 2243   0.586   0.189   2.234  0.0148 -0.1843  0.0291
  561SOL     MW 2244   0.534   0.186   2.304 -0.0778 -0.0407 -0.0325
  562SOL     OW 2245   0.033   4.797   2.619 -0.1021 -0.5167 -0.3221
  562SOL    HW1 2246   0.096   4.729   2.597  0.7277  0.4735 -1.0957
  562SOL    HW2 2247   0.042   4.862   2.549 -2.5897 -0.7236 -0.9489
  562SOL     MW 2248   0.042   4.797   2.607 -0.3143 -0.4164 -0.5014
  563SOL     OW 2249   4.538   0.032   4.203 -0.3527 -0.0798  0.3827
  563SOL    HW1 2250   4.519   0.122   4.177 -1.8493  0.2102  2.1963
  563SOL    HW2 2251   4.542   0.036   4.299 -0.2422 -1.8977  0.4860
  563SOL     MW 2252   4.536   0.044   4.212 -0.5301 -0.2754  0.6281
  564SOL     OW 2253   3.276   2.016   0.795  0.0930  0.0378  0.5015
  564SOL    HW1 2254   3.339   2.014   0.867 -0.1307  0.4018  0.7117
  564SOL    HW2 2255   3.325   1.983   0.720  0.7062  0.8046  0.5396
  564SOL     MW 2256   3.291   2.012   0.794  0.1428  0.1826  0.5333
  565SOL     OW 2257   0.043   4.678   0.817  0.1567  0.2826  0.6100
  565SOL    HW1 2258   0.013   4.724   0.896 -1.3532  1.5149 -0.6125
  565SOL    HW2 2259  -0.014   4.711   0.748  1.5802 -0.6139 -1.0502
  565SOL     MW 2260   0.032   4.688   0.819  0.1456  0.3256  0.2410
  566SOL     OW 2261   5.404   0.738   3.266  0.4934  0.0233 -0.3207
  566SOL    HW1 2262   5.462   0.680   3.315  1.0081  0.3184 -0.5707
  566SOL    HW2 2263   5.434   0.731   3.175  0.4578  0.5572 -0.3771
  566SOL     MW 2264   5.415   0.730   3.261  0.5547  0.1294 -0.3599
  567SOL     OW 2265   5.338   2.491   3.641  0.4037  0.2333 -0.0584
  567SOL    HW1 2266   5.291   2.473   3.722 -1.1072  3.4183 -0.0573
  567SOL    HW2 2267   5.419   2.534   3.669  1.1093 -0.9366 -0.2203
  567SOL     MW 2268   5.342   2.495   3.655  0.3006  0.4913 -0.0790
  568SOL     OW 2269   5.075   5.216   4.144  0.1564  0.2129 -0.1051
  568SOL    HW1 2270   5.031   5.236   4.061  1.0238 -1.7714 -1.1200
  568SOL    HW2 2271   5.164   5.249   4.132 -0.2752  1.8126  0.8951
  568SOL     MW 2272   5.081   5.223   4.132  0.2122  0.1637 -0.1070
  569SOL     OW 2273   5.008   5.201   2.395 -0.1763 -0.9726  0.3335
  569SOL    HW1 2274   5.021   5.109   2.373 -1.4131 -0.6986 -1.8321
  569SOL    HW2 2275   5.056   5.213   2.477  2.0639 -2.9268 -0.5732
  569SOL     MW 2276   5.016   5.191   2.403 -0.0478 -1.1877 -0.0598
  570SOL     OW 2277   3.094   0.896   2.077  0.0375 -0.4023 -0.2272
  570SOL    HW1 2278   3.053   0.840   2.010 -0.8807  1.4607 -1.3066
  570SOL    HW2 2279   3.037   0.887   2.154  0.6053 -1.8784  0.0500
  570SOL     MW 2280   3.081   0.888   2.078 -0.0074 -0.3528 -0.3299
  571SOL     OW 2281   3.745   1.984   1.538 -0.6503  0.0066 -0.4106
  571SOL    HW1 2282   3.729   2.049   1.470  1.2942  0.3019 -0.6498
  571SOL    HW2 2283   3.740   1.900   1.493 -0.3287  0.1470 -0.7075
  571SOL     MW 2284   3.742   1.982   1.524 -0.3602  0.0624 -0.4792
  572SOL     OW 2285   5.140   0.920   2.965 -0.1252  0.1924  0.5338
  572SOL    HW1 2286   5.072   0.889   3.025 -0.2274  2.0509  1.4449
  572SOL    HW2 2287   5.125   1.015   2.959  0.9964  0.3068 -1.0368
  572SOL     MW 2288   5.129   0.929   2.972  0.0053  0.4450  0.4494
  573SOL     OW 2289   1.606   2.251   0.686  0.3117  0.2198  0.0700
  573SOL    HW1 2290   1.623   2.168   0.641  0.3033 -0.3774  1.1113
  573SOL    HW2 2291   1.645   2.318   0.631  0.5096 -0.5049 -0.6831
  573SOL     MW 2292   1.613   2.249   0.673  0.3360  0.0506  0.1069
  574SOL     OW 2293   2.203   4.297   1.531 -0.0716 -0.3149 -0.4857
  574SOL    HW1 2294   2.271   4.334   1.474 -0.0246 -0.7454 -0.7113
  574SOL    HW2 2295   2.253   4.260   1.605  0.0053 -1.3289 -1.0347
  574SOL     MW 2296   2.218   4.297   1.533 -0.0557 -0.4998 -0.5848
  575SOL     OW 2297   3.305   3.750   3.835  0.6451  0.4593 -0.2831
  575SOL    HW1 2298   3.342   3.775   3.920  1.4582  0.7022 -0.7026
  575SOL    HW2 2299   3.354   3.673   3.809  0.9665  0.8714 -0.9136
  575SOL     MW 2300   3.316   3.744   3.843  0.7903  0.5432 -0.4175
  576SOL     OW 2301   3.842   1.915   3.807 -0.3903  0.2255 -0.3631
  576SOL    HW1 2302   3.907   1.862   3.760  0.2910  0.6560  0.0765
  576SOL    HW2 2303   3.841   1.879   3.895  0.0591  0.9207 -0.0682
  576SOL     MW 2304   3.850   1.903   3.812 -0.2455  0.3696 -0.2691
  577SOL     OW 2305   4.784   0.362   1.927 -0.2579  0.1603 -0.2264
  577SOL    HW1 2306   4.733   0.348   1.848 -3.4083  1.8368  1.3297
  577SOL    HW2 2307   4.730   0.326   1.998  0.0655  3.0217  1.6505
  577SOL     MW 2308   4.771   0.355   1.926 -0.6198  0.7412  0.2131
  578SOL     OW 2309   3.512   2.518   0.548  0.7548 -0.3453 -0.9387
  578SOL    HW1 2310   3.569   2.594   0.533  0.8108  0.4157  2.3128
  578SOL    HW2 2311   3.424   2.553   0.538  0.7956 -0.3466 -1.3283
  578SOL     MW 2312   3.508   2.532   0.545  0.7672 -0.2481 -0.5723
  579SOL     OW 2313   1.561   0.642   2.108 -0.1350 -0.0611 -0.4957
  579SOL    HW1 2314   1.647   0.672   2.137 -0.3236  1.3875 -1.3712
  579SOL    HW2 2315   1.544   0.564   2.161  2.6715 -1.7453 -1.7995
  579SOL     MW 2316   1.570   0.636   2.118  0.2001 -0.0913 -0.7746
  580SOL     OW 2317   2.735   0.606   4.592  0.3155 -0.4572 -1.0447
  580SOL    HW1 2318   2.663   0.556   4.554 -0.1983 -1.1008  0.7107
  580SOL    HW2 2319   2.749   0.678   4.530  0.4284 -2.1719 -3.1535
  580SOL     MW 2320   2.728   0.609   4.579  0.2642 -0.7591 -1.0899
  581SOL     OW 2321   1.050   5.356   4.036 -0.4776  0.0818 -0.3589
  581SOL    HW1 2322   1.141   5.361   4.006 -0.2525 -0.3021  0.2351
  581SOL    HW2 2323   1.049   5.404   4.119 -0.6015 -0.6771  0.0984
  581SOL     MW 2324   1.061   5.362   4.043 -0.4646 -0.0645 -0.2244
  582SOL     OW 2325   1.491   0.302   0.046  0.2093  0.4451  0.2157
  582SOL    HW1 2326   1.521   0.393   0.038 -1.5731  1.0071 -0.7160
  582SOL    HW2 2327   1.464   0.278  -0.043  1.0045 -1.1480  0.3721
  582SOL     MW 2328   1.491   0.311   0.034  0.0829  0.3131  0.1165
  583SOL     OW 2329   5.191   1.552   3.387  0.1942 -0.1164 -0.5160
  583SOL    HW1 2330   5.194   1.616   3.458 -0.4748 -0.0841 -0.5113
  583SOL    HW2 2331   5.107   1.506   3.400  1.0162 -1.5595 -0.0107
  583SOL     MW 2332   5.181   1.554   3.398  0.2138 -0.2970 -0.4507
  584SOL     OW 2333   1.996   5.073   4.626 -0.1917 -0.0507 -0.1260
  584SOL    HW1 2334   1.925   5.067   4.690 -0.8792 -0.0879 -0.8631
  584SOL    HW2 2335   1.951   5.073   4.541  0.7033 -0.2054 -0.6145
  584SOL     MW 2336   1.981   5.072   4.623 -0.1652 -0.0753 -0.2829
  585SOL     OW 2337   3.610   5.383   2.272 -0.0311 -0.0125 -0.0852
  585SOL    HW1 2338   3.530   5.354   2.316  0.2404 -0.5023  0.1066
  585SOL    HW2 2339   3.639   5.306   2.222  0.7847 -0.1375  0.5444
  585SOL     MW 2340   3.604   5.369   2.271  0.1081 -0.0912  0.0199
  586SOL     OW 2341   1.757   1.209   0.334  0.0016 -0.2877  0.4445
  586SOL    HW1 2342   1.772   1.261   0.413  1.3127 -0.1166  0.1105
  586SOL    HW2 2343   1.712   1.269   0.274 -0.8964 -0.3846  1.0005
  586SOL     MW 2344   1.753   1.224   0.336  0.0545 -0.2782  0.4729
  587SOL     OW 2345   2.056   3.394   4.276 -0.1633  0.0945  0.4061
  587SOL    HW1 2346   2.000   3.327   4.315  0.9576 -0.9323  0.3292
  587SOL    HW2 2347   2.026   3.401   4.186 -1.0899  0.6051  0.7447
  587SOL     MW 2348   2.045   3.386   4.270 -0.1384  0.0284  0.4396
  588SOL     OW 2349   3.866   1.722   4.721  0.5861  0.0289 -0.2859
  588SOL    HW1 2350   3.792   1.700   4.665  0.3815  2.0114 -0.8490
  588SOL    HW2 2351   3.916   1.640   4.728 -1.0812 -1.0689 -0.7340
  588SOL     MW 2352   3.863   1.709   4.715  0.3465  0.1421 -0.4154
  589SOL     OW 2353   4.019   3.816   1.464  0.6843  0.5233  0.0165
  589SOL    HW1 2354   3.984   3.863   1.540 -0.0390 -0.1404  0.1028
  589SOL    HW2 2355   4.012   3.723   1.488  1.4689  0.3453 -0.4248
  589SOL     MW 2356   4.013   3.810   1.477  0.6922  0.4156 -0.0289
  590SOL     OW 2357   1.090   2.774   3.607  0.0819 -0.6453  0.0802
  590SOL    HW1 2358   1.177   2.804   3.632 -0.0204 -1.0087  0.9159
  590SOL    HW2 2359   1.105   2.693   3.559  0.3405  0.5385 -1.9298
  590SOL     MW 2360   1.103   2.767   3.604  0.1019 -0.5403 -0.0701
  591SOL     OW 2361   3.146   2.360   0.164 -0.1338  0.1500  0.5360
  591SOL    HW1 2362   3.060   2.318   0.157 -0.7648  1.4823 -0.1415
  591SOL    HW2 2363   3.168   2.354   0.257  0.5772 -3.0652  0.2639
  591SOL     MW 2364   3.138   2.354   0.175 -0.1236 -0.0911  0.4144
  592SOL     OW 2365   1.221   1.915   4.975  0.2171  0.0298 -0.1974
  592SOL    HW1 2366   1.180   1.836   5.012  0.4819  0.4720  1.1076
  592SOL    HW2 2367   1.269   1.953   5.048 -0.8260  2.0352 -0.4834
  592SOL     MW 2368   1.222   1.910   4.989  0.1175  0.3431 -0.0670
  593SOL     OW 2369   1.672   2.067   4.922  0.1234 -0.5264  0.2657
  593SOL    HW1 2370   1.667   2.149   4.970 -1.1720 -1.6555  2.1752
  593SOL    HW2 2371   1.593   2.065   4.868  0.1757 -0.5023  0.1878
  593SOL     MW 2372   1.662   2.077   4.921 -0.0357 -0.6679  0.5002
  594SOL     OW 2373   1.795   0.153   3.387 -0.2337  0.3178 -0.0899
  594SOL    HW1 2374   1.836   0.092   3.325 -0.2647  0.6757 -0.4643
  594SOL    HW2 2375   1.756   0.096   3.454  1.0338 -0.0369  0.3863
  594SOL     MW 2376   1.795   0.138   3.388 -0.0754  0.3182 -0.0768
  595SOL     OW 2377   0.653   2.156   0.181  0.0998  0.2266 -0.4848
  595SOL    HW1 2378   0.642   2.224   0.115 -0.3172  0.8018  0.1716
  595SOL    HW2 2379   0.621   2.195   0.262  0.6516 -0.4551  0.0758
  595SOL     MW 2380   0.648   2.170   0.183  0.1170  0.2130 -0.3290
  596SOL     OW 2381   1.166   4.743   4.845 -0.1581  0.4331 -0.1275
  596SOL    HW1 2382   1.167   4.674   4.911  2.5231 -0.8959 -1.4362
  596SOL    HW2 2383   1.127   4.702   4.768 -0.7924  1.1725 -0.2178
  596SOL     MW 2384   1.161   4.729   4.844  0.1039  0.3576 -0.3066
  597SOL     OW 2385   2.392   5.471   1.542  0.5765  0.0066  0.3257
  597SOL    HW1 2386   2.409   5.406   1.474  1.7853  0.6257  0.0113
  597SOL    HW2 2387   2.455   5.451   1.612 -0.1632 -0.1734  0.9591
  597SOL     MW 2388   2.402   5.460   1.542  0.6365  0.0628  0.3665
  598SOL     OW 2389   1.159   3.452   2.805  0.4657  0.0212 -0.2474
  598SOL    HW1 2390   1.076   3.484   2.770  0.1786 -0.2855  0.1411
  598SOL    HW2 2391   1.221   3.461   2.733  0.0656  0.1340 -0.5789
  598SOL     MW 2392   1.157   3.457   2.791  0.3777 -0.0036 -0.2401
  599SOL     OW 2393   3.519   4.316   0.356  0.2252 -0.2346  0.0049
  599SOL    HW1 2394   3.489   4.253   0.421  1.3490 -0.7077  0.0875
  599SOL    HW2 2395   3.515   4.401   0.400 -0.2392 -0.3790  0.2510
  599SOL     MW 2396   3.514   4.319   0.370  0.3096 -0.3136  0.0470
  600SOL     OW 2397   4.882   1.837   3.020  0.2641 -0.3127 -0.0746
  600SOL    HW1 2398   4.827   1.882   2.956  1.2074  2.7017  1.0404
  600SOL    HW2 2399   4.964   1.820   2.973  0.7165  1.2941  0.0737
  600SOL     MW 2400   4.885   1.840   3.006  0.4428  0.2789  0.0871
  601SOL     OW 2401   2.976   0.367   0.092  0.5971 -0.4612  0.4346
  601SOL    HW1 2402   2.914   0.295   0.102  1.6911 -1.4820  0.1967
  601SOL    HW2 2403   2.923   0.446   0.099 -0.7406 -1.2909  0.1057
  601SOL     MW 2404   2.961   0.368   0.094  0.5659 -0.6981  0.3621
  602SOL     OW 2405   3.282   5.477   0.203 -0.4550  0.0458  0.1952
  602SOL    HW1 2406   3.360   5.484   0.148  0.1884 -0.9404  0.9414
  602SOL    HW2 2407   3.295   5.397   0.254 -1.3070  0.6065  1.3543
  602SOL     MW 2408   3.293   5.468   0.203 -0.4817 -0.0086  0.4391
  603SOL     OW 2409   2.227   1.107   3.715 -0.2311 -0.3576 -0.1180
  603SOL    HW1 2410   2.194   1.163   3.644 -0.0236  0.6506  0.5599
  603SOL    HW2 2411   2.322   1.112   3.706 -0.1441  1.1405  1.2244
  603SOL     MW 2412   2.235   1.115   3.705 -0.1934 -0.0368  0.1406
  604SOL     OW 2413   0.574   3.953   0.010  0.0981  0.0430  0.1174
  604SOL    HW1 2414   0.489   3.934   0.050 -0.3598 -0.1170 -0.8768
  604SOL    HW2 2415   0.555   4.022  -0.054  0.5575 -0.5349 -0.6628
  604SOL     MW 2416   0.561   3.960   0.007  0.0983 -0.0514 -0.1098
  605SOL     OW 2417   2.412   0.503   0.831  0.2455  0.2345 -0.2253
  605SOL    HW1 2418   2.318   0.519   0.838  0.2097  0.5185 -1.2406
  605SOL    HW2 2419   2.420   0.432   0.768  0.6344 -1.0643  1.2112
  605SOL     MW 2420   2.401   0.496   0.824  0.2907  0.1046 -0.1714
  606SOL     OW 2421   0.787   0.867   0.707 -0.0106 -0.5690  0.1647
  606SOL    HW1 2422   0.814   0.776   0.719  1.4785 -0.1501  0.1155
  606SOL    HW2 2423   0.818   0.912   0.786 -0.2369  0.0052 -0.0704
  606SOL     MW 2424   0.794   0.861   0.719  0.1511 -0.4419  0.1283
  607SOL     OW 2425   5.163   2.876   3.320  0.0966 -0.0833 -0.3602
  607SOL    HW1 2426   5.215   2.822   3.380 -2.1132 -1.9539 -0.0151
  607SOL    HW2 2427   5.228   2.931   3.276  2.1648 -1.0732  1.2574
  607SOL     MW 2428   5.178   2.876   3.322  0.0784 -0.4495 -0.1089
  608SOL     OW 2429   1.381   0.616   1.616  0.1228  0.4971  0.3313
  608SOL    HW1 2430   1.327   0.694   1.606  0.2112  0.3938 -1.3063
  608SOL    HW2 2431   1.323   0.544   1.588  0.9123  0.3282 -0.9428
  608SOL     MW 2432   1.366   0.616   1.611  0.2352  0.4623 -0.0414
  609SOL     OW 2433   4.611   1.998   3.642  0.1358  0.1335  0.3612
  609SOL    HW1 2434   4.597   2.000   3.737 -1.3432  0.9649  0.1541
  609SOL    HW2 2435   4.672   2.069   3.625 -0.3018  0.5718  0.5979
  609SOL     MW 2436   4.617   2.007   3.652 -0.1095  0.2960  0.3650
  610SOL     OW 2437   1.784   0.049   2.453  0.1307 -0.1179  0.4576
  610SOL    HW1 2438   1.689   0.043   2.439 -0.1922  1.2891  1.7445
  610SOL    HW2 2439   1.812  -0.040   2.470 -0.8167 -0.6719 -0.7431
  610SOL     MW 2440   1.775   0.037   2.453 -0.0319 -0.0087  0.4686
  611SOL     OW 2441   3.980   0.628   2.107 -0.2708 -0.3219  0.8484
  611SOL    HW1 2442   4.022   0.711   2.129  0.6771 -0.4973 -0.2096
  611SOL    HW2 2443   4.022   0.601   2.026 -0.5620 -1.8486  1.1813
  611SOL     MW 2444   3.990   0.635   2.099 -0.1867 -0.5398  0.7556
  612SOL     OW 2445   3.060   3.656   3.719 -0.5744  0.0499  0.2989
  612SOL    HW1 2446   3.094   3.569   3.698  0.6732  0.3271  1.0963
  612SOL    HW2 2447   3.136   3.704   3.751 -1.1075  1.6539 -0.7554
  612SOL     MW 2448   3.074   3.651   3.721 -0.4829  0.2907  0.2660
  613SOL     OW 2449   2.687   5.371   3.444  0.3772 -0.6223  0.1069
  613SOL    HW1 2450   2.655   5.343   3.359  1.9303 -2.3886  0.0365
  613SOL    HW2 2451   2.640   5.453   3.462 -0.9939 -0.9334 -1.7889
  613SOL     MW 2452   2.677   5.378   3.436  0.4005 -0.8882 -0.1448
  614SOL     OW 2453   3.068   3.185   1.744  0.1600 -0.7161  0.4692
  614SOL    HW1 2454   3.074   3.131   1.823 -0.1567 -1.1336  0.2139
  614SOL    HW2 2455   3.037   3.125   1.676 -0.5732 -0.1270  0.2713
  614SOL     MW 2456   3.065   3.170   1.745  0.0256 -0.6942  0.4112
  615SOL     OW 2457   3.399   2.464   3.113  0.2434 -0.5911  0.2980
  615SOL    HW1 2458   3.388   2.454   3.019  0.7521  0.2439  0.1415
  615SOL    HW2 2459   3.323   2.514   3.141  0.6353  0.0947  0.1531
  615SOL     MW 2460   3.388   2.469   3.105  0.3587 -0.3964  0.2594
  616SOL     OW 2461   4.588   0.295   4.126 -0.1416 -0.4816 -0.2436
  616SOL    HW1 2462   4.569   0.306   4.032 -1.9521 -0.3755  0.1037
  616SOL    HW2 2463   4.683   0.298   4.131  0.0370 -1.3046 -2.1822
  616SOL     MW 2464   4.597   0.297   4.114 -0.3505 -0.5734 -0.4473
  617SOL     OW 2465   1.425   0.722   3.903 -0.2573  0.5542  0.3276
  617SOL    HW1 2466   1.487   0.716   3.976 -0.3450  1.4373  0.4865
  617SOL    HW2 2467   1.372   0.643   3.910  1.1150 -0.4349 -0.0591
  617SOL     MW 2468   1.426   0.711   3.914 -0.0929  0.5406  0.2984
  618SOL     OW 2469   4.365   1.234   0.293 -0.3368 -0.1532 -0.4077
  618SOL    HW1 2470   4.376   1.225   0.199 -1.5407  0.6332 -0.6466
  618SOL    HW2 2471   4.318   1.316   0.304 -0.0649 -0.1435  0.8981
  618SOL     MW 2472   4.361   1.243   0.283 -0.4561 -0.0513 -0.2711
  619SOL     OW 2473   2.304   1.186   2.018  0.0881 -0.1354 -0.6772
  619SOL    HW1 2474   2.232   1.150   2.070  1.4213 -0.7988  0.8139
  619SOL    HW2 2475   2.341   1.254   2.074 -0.0162  0.9533 -1.8807
  619SOL     MW 2476   2.299   1.190   2.032  0.2454 -0.0810 -0.6404
  620SOL     OW 2477   3.512   4.920   4.715  0.0568 -0.1361 -0.0306
  620SOL    HW1 2478   3.530   4.882   4.801 -0.8938 -1.0107 -0.2075
  620SOL    HW2 2479   3.582   4.984   4.703  1.7460 -1.8350  0.2671
  620SOL     MW 2480   3.523   4.923   4.725  0.1513 -0.4656 -0.0151
  621SOL     OW 2481   0.682   2.837   1.858  0.3096 -0.5466 -0.2936
  621SOL    HW1 2482   0.740   2.850   1.933  1.0860  0.4504 -1.0441
  621SOL    HW2 2483   0.656   2.745   1.863  0.2483 -0.4610  1.2583
  621SOL     MW 2484   0.686   2.827   1.868  0.4011 -0.4080 -0.1910
  622SOL     OW 2485   3.632   0.972   4.237  0.0813 -0.1433  0.1321
  622SOL    HW1 2486   3.691   0.919   4.292 -0.4082  0.4703  1.2793
  622SOL    HW2 2487   3.551   0.978   4.288  0.0012  1.3915 -0.1525
  622SOL     MW 2488   3.629   0.966   4.251  0.0084  0.1317  0.2425
  623SOL     OW 2489   3.985   4.607   2.386  0.2133 -0.3395 -0.3085
  623SOL    HW1 2490   3.951   4.661   2.315  1.6809  0.6131 -0.3201
  623SOL    HW2 2491   4.067   4.572   2.352  0.9747  0.1870  0.9329
  623SOL     MW 2492   3.991   4.609   2.373  0.4987 -0.1502 -0.1511
  624SOL     OW 2493   2.080   1.709   0.445  0.5133 -0.0149  0.1649
  624SOL    HW1 2494   2.000   1.736   0.400  0.3899 -1.3194 -0.4514
  624SOL    HW2 2495   2.142   1.779   0.427 -0.2558  0.6415 -0.0120
  624SOL     MW 2496   2.078   1.721   0.437  0.3990 -0.0978  0.0633
  625SOL     OW 2497   1.147   5.250   4.657  0.4004  0.5265  0.0080
  625SOL    HW1 2498   1.192   5.302   4.723  1.4253 -0.0643 -0.2009
  625SOL    HW2 2499   1.155   5.159   4.688 -1.8905  0.4983  0.6845
  625SOL     MW 2500   1.154   5.245   4.669  0.2384  0.4472  0.0679
  626SOL     OW 2501   1.315   1.640   5.247  0.5252 -0.2217 -0.2443
  626SOL    HW1 2502   1.357   1.615   5.165 -0.0807  2.1237 -1.3265
  626SOL    HW2 2503   1.223   1.650   5.225  0.1628 -0.6296  1.0012
  626SOL     MW 2504   1.309   1.638   5.234  0.4013  0.0263 -0.2234
  627SOL     OW 2505   0.824   4.267   1.569  0.1329 -0.1865 -0.2351
  627SOL    HW1 2506   0.868   4.196   1.522 -1.2743 -1.0933 -0.2489
  627SOL    HW2 2507   0.895   4.317   1.610  1.1443 -2.2822  0.7224
  627SOL     MW 2508   0.838   4.264   1.568  0.0822 -0.5708 -0.1143
  628SOL     OW 2509   3.236   2.573   0.525  0.1554  0.5418 -0.7069
  628SOL    HW1 2510   3.213   2.489   0.485  2.3010 -0.9570  0.9666
  628SOL    HW2 2511   3.167   2.589   0.589  1.1410 -1.5439  1.0365
  628SOL     MW 2512   3.224   2.564   0.528  0.5562  0.0829 -0.2695
  629SOL     OW 2513   0.471   5.346   3.247 -0.7912 -0.5149  0.2157
  629SOL    HW1 2514   0.391   5.392   3.272  0.6002  1.5635  1.1952
  629SOL    HW2 2515   0.458   5.257   3.279 -1.8445  0.3454  2.4676
  629SOL     MW 2516   0.459   5.341   3.255 -0.7479 -0.1387  0.6294
  630SOL     OW 2517   0.729   1.504   3.417  0.3494  0.2363  0.0202
  630SOL    HW1 2518   0.759   1.589   3.386  0.4820  0.3241  0.3825
  630SOL    HW2 2519   0.703   1.520   3.508 -0.0010 -0.0227 -0.0332
  630SOL     MW 2520   0.730   1.517   3.425  0.3215  0.2144  0.0598
  631SOL     OW 2521   0.950   3.111   5.228 -0.2600 -0.7307 -0.2988
  631SOL    HW1 2522   0.986   3.178   5.287  2.0596 -2.0595 -0.0766
  631SOL    HW2 2523   0.967   3.028   5.274  1.6108 -1.8157 -2.7516
  631SOL     MW 2524   0.957   3.109   5.242  0.2764 -1.0397 -0.5844
  632SOL     OW 2525   4.109   1.482   3.717  0.4344 -0.8727  0.2404
  632SOL    HW1 2526   4.030   1.489   3.771  0.0362 -1.7835 -0.2087
  632SOL    HW2 2527   4.078   1.447   3.633  1.0380  0.5100 -0.6054
  632SOL     MW 2528   4.095   1.479   3.713  0.4607 -0.8123  0.0746
  633SOL     OW 2529   1.257   5.001   4.728 -0.2520 -0.1249 -0.0073
  633SOL    HW1 2530   1.348   4.970   4.724  0.4423  1.7064  0.5530
  633SOL    HW2 2531   1.210   4.931   4.773  0.3914 -2.0963 -2.1862
  633SOL     MW 2532   1.263   4.988   4.733 -0.0808 -0.1428 -0.2145
  634SOL     OW 2533   2.275   0.223   2.648  0.4325  0.3409  0.1106
  634SOL    HW1 2534   2.353   0.240   2.594  0.8688 -1.4257  0.1146
  634SOL    HW2 2535   2.203   0.264   2.600  1.0229  0.0286 -1.0854
  634SOL     MW 2536   2.276   0.231   2.635  0.5639  0.0748 -0.0420
  635SOL     OW 2537   0.974   2.688   4.020  0.2855  0.0029 -0.3042
  635SOL    HW1 2538   1.000   2.779   4.006 -1.2225  0.6987  1.0287
  635SOL    HW2 2539   0.959   2.682   4.115 -0.8591 -1.2747 -0.5363
  635SOL     MW 2540   0.976   2.699   4.031 -0.0541 -0.0716 -0.1633
  636SOL     OW 2541   1.850   1.759   0.258  0.0315  0.2455 -0.2889
  636SOL    HW1 2542   1.776   1.762   0.318  0.5297 -0.4756  0.3848
  636SOL    HW2 2543   1.882   1.849   0.253  0.4496  0.1902  1.1261
  636SOL     MW 2544   1.845   1.771   0.265  0.1488  0.1461 -0.0215
  637SOL     OW 2545   2.209   0.452   4.923 -0.2843  0.1514 -0.2277
  637SOL    HW1 2546   2.288   0.497   4.891 -0.1888 -0.0210 -0.2419
  637SOL    HW2 2547   2.172   0.511   4.988  0.3358 -0.1489  0.4138
  637SOL     MW 2548   2.214   0.465   4.927 -0.1927  0.0909 -0.1474
  638SOL     OW 2549   4.822   1.990   5.180  0.0114 -0.0316  0.0797
  638SOL    HW1 2550   4.812   2.076   5.140  0.4987 -0.2080 -0.4421
  638SOL    HW2 2551   4.888   1.946   5.126 -1.7503 -1.5226 -1.0002
  638SOL     MW 2552   4.829   1.995   5.168 -0.1517 -0.2450 -0.1253
  639SOL     OW 2553   0.524   0.464   1.587  0.2584  0.3818 -0.1367
  639SOL    HW1 2554   0.490   0.381   1.620  1.5295 -0.1694 -0.1197
  639SOL    HW2 2555   0.448   0.508   1.549 -0.3236 -1.1298 -0.8500
  639SOL     MW 2556   0.510   0.459   1.586  0.3466  0.1177 -0.2258
  640SOL     OW 2557   4.685   0.861   4.976  0.1082 -0.0669  0.0807
  640SOL    HW1 2558   4.631   0.939   4.965 -0.2247 -0.4521 -1.0930
  640SOL    HW2 2559   4.712   0.864   5.068 -1.2754  0.5384  0.4941
  640SOL     MW 2560   4.681   0.871   4.987 -0.1116 -0.0387 -0.0166
  641SOL     OW 2561   4.653   4.276   0.398 -0.0254  0.0338 -0.1419
  641SOL    HW1 2562   4.585   4.221   0.361  0.7441 -1.0537  0.0116
  641SOL    HW2 2563   4.606   4.352   0.433 -1.3077 -1.2415  1.0379
  641SOL     MW 2564   4.638   4.279   0.398 -0.0911 -0.2687  0.0288
  642SOL     OW 2565   0.851   2.622   1.231  0.6931 -0.0982  0.0843
  642SOL    HW1 2566   0.859   2.577   1.315 -0.8058  0.4771  0.5696
  642SOL    HW2 2567   0.785   2.689   1.246  1.4604  0.9941 -1.1642
  642SOL     MW 2568   0.844   2.625   1.243  0.5994  0.1152 -0.0134
  643SOL     OW 2569   0.266   5.034   0.571  0.4140 -0.3278 -0.4792
  643SOL    HW1 2570   0.283   4.948   0.611  1.0171  0.4326  0.9818
  643SOL    HW2 2571   0.182   5.024   0.527 -0.3725 -1.2109  1.1136
  643SOL     MW 2572   0.258   5.022   0.571  0.3905 -0.3435 -0.0883
  644SOL     OW 2573   1.380   4.710   0.865  0.1200  0.6076 -0.3214
  644SOL    HW1 2574   1.379   4.735   0.773  1.0551  0.7173 -0.3126
  644SOL    HW2 2575   1.309   4.646   0.874 -0.4234  1.1015 -0.9602
  644SOL     MW 2576   1.370   4.705   0.854  0.1701  0.6849 -0.4020
  645SOL     OW 2577   5.038   0.017   5.022 -0.2613 -0.6870 -0.0799
  645SOL    HW1 2578   5.129   0.037   5.044 -0.3916  0.5537 -0.5649
  645SOL    HW2 2579   4.987   0.061   5.090 -0.5712  1.1200 -1.3954
  645SOL     MW 2580   5.043   0.025   5.033 -0.3177 -0.2968 -0.3104
  646SOL     OW 2581   5.177   2.423   0.814  0.0395  0.3149 -0.5642
  646SOL    HW1 2582   5.093   2.406   0.857  0.2169 -1.3494 -0.7961
  646SOL    HW2 2583   5.155   2.436   0.722  0.0386 -0.3456 -0.6638
  646SOL     MW 2584   5.164   2.422   0.808  0.0621  0.0173 -0.6067
  647SOL     OW 2585   3.020  -0.008   5.056 -0.1085  0.4069 -0.1841
  647SOL    HW1 2586   2.940   0.030   5.021 -0.6750  0.6456  1.3054
  647SOL    HW2 2587   3.088   0.056   5.036 -0.1999  0.0494 -1.7541
  647SOL     MW 2588   3.019   0.005   5.049 -0.1927  0.3917 -0.1944
  648SOL     OW 2589   0.083   1.181   1.305 -0.0998  0.3312  0.5465
  648SOL    HW1 2590   0.115   1.097   1.339 -0.7336 -0.0411  0.2303
  648SOL    HW2 2591  -0.012   1.176   1.313 -0.2899  0.1833 -1.3722
  648SOL     MW 2592   0.075   1.169   1.311 -0.2052  0.2646  0.2604
  649SOL     OW 2593   1.741   5.102   0.031  0.2873 -0.1598 -0.1882
  649SOL    HW1 2594   1.778   5.185   0.060  0.4145 -1.0505  2.4837
  649SOL    HW2 2595   1.780   5.037   0.090 -1.1376 -1.8867 -1.0678
  649SOL     MW 2596   1.751   5.104   0.042  0.1212 -0.4949  0.0412
  650SOL     OW 2597   4.891   1.219   1.478  0.0287  0.1630 -0.4619
  650SOL    HW1 2598   4.853   1.268   1.551  0.8165  0.5140 -0.2687
  650SOL    HW2 2599   4.886   1.279   1.403  0.8819  0.5146 -0.2542
  650SOL     MW 2600   4.886   1.233   1.478  0.2388  0.2530 -0.4106
  651SOL     OW 2601   4.094   2.255   4.764  0.0349  0.0698 -0.2720
  651SOL    HW1 2602   4.139   2.188   4.712 -0.2916  0.0963 -0.5990
  651SOL    HW2 2603   4.086   2.329   4.704  1.0996  0.7039  0.3327
  651SOL     MW 2604   4.099   2.256   4.749  0.1294  0.1544 -0.2364
  652SOL     OW 2605   1.681   0.702   4.661  0.2181  0.3282 -0.5899
  652SOL    HW1 2606   1.724   0.648   4.594  0.2403 -0.3760 -0.0189
  652SOL    HW2 2607   1.677   0.789   4.622 -1.1596 -0.3713 -2.1593
  652SOL     MW 2608   1.686   0.706   4.647  0.0446  0.1485 -0.7177
  653SOL     OW 2609   2.567   2.553   1.009  0.2284 -0.5841 -0.0030
  653SOL    HW1 2610   2.472   2.560   1.002 -0.1668 -1.5146  2.9534
  653SOL    HW2 2611   2.599   2.640   0.986 -1.4332  0.0771  0.0239
  653SOL     MW 2612   2.559   2.565   1.005 -0.0349 -0.6186  0.3789
  654SOL     OW 2613   1.186   4.849   2.928 -0.0489 -0.8389  0.1019
  654SOL    HW1 2614   1.154   4.863   2.839 -0.1845  2.8750  0.5702
  654SOL    HW2 2615   1.242   4.772   2.922  2.4547  0.9849 -3.9448
  654SOL     MW 2616   1.189   4.841   2.916  0.2542 -0.1300 -0.3562
  655SOL     OW 2617   2.657   2.886   3.379 -0.2069  0.1638 -0.0190
  655SOL    HW1 2618   2.718   2.954   3.353 -0.5329  0.4372 -0.0747
  655SOL    HW2 2619   2.710   2.806   3.383  0.2403  0.4736  0.3435
  655SOL     MW 2620   2.672   2.884   3.376 -0.1914  0.2385  0.0203
  656SOL     OW 2621   4.383   2.664   3.178  0.1184  0.6854 -0.5127
  656SOL    HW1 2622   4.408   2.757   3.175 -1.8374  1.2608 -0.2014
  656SOL    HW2 2623   4.298   2.661   3.134 -0.4766 -0.7399  0.6914
  656SOL     MW 2624   4.376   2.676   3.172 -0.2081  0.5766 -0.3187
  657SOL     OW 2625   5.327   0.692   1.872 -0.1295  0.0096 -0.0581
  657SOL    HW1 2626   5.242   0.698   1.916 -0.1050 -0.0057 -0.0085
  657SOL    HW2 2627   5.316   0.743   1.791  0.6373  2.3838  1.2427
  657SOL     MW 2628   5.315   0.699   1.867 -0.0282  0.3116  0.1148
  658SOL     OW 2629   3.194   4.807   5.125  0.3497  0.5007 -0.1951
  658SOL    HW1 2630   3.171   4.807   5.032 -0.7845  0.0263  0.0644
  658SOL    HW2 2631   3.275   4.757   5.129 -0.7859 -1.5172 -0.7084
  658SOL     MW 2632   3.201   4.800   5.114  0.0592  0.1817 -0.2276
  659SOL     OW 2633   0.119   3.675   3.284 -0.2370 -0.1677  0.2667
  659SOL    HW1 2634   0.160   3.722   3.357  1.8418 -1.5702  0.0611
  659SOL    HW2 2635   0.179   3.687   3.211 -1.1214 -0.7558 -0.5775
  659SOL     MW 2636   0.132   3.683   3.284 -0.0841 -0.4225  0.1323
  660SOL     OW 2637   3.351   4.987   0.397  0.1276 -0.4077  0.6739
  660SOL    HW1 2638   3.358   5.081   0.380  1.5625 -0.7575 -0.8819
  660SOL    HW2 2639   3.305   4.981   0.481 -0.1905  1.6643  0.6881
  660SOL     MW 2640   3.346   4.998   0.406  0.2706 -0.1873  0.4765
  661SOL     OW 2641   3.273   1.001   2.956  0.2982 -0.2430 -0.0213
  661SOL    HW1 2642   3.361   1.028   2.982 -0.0031  0.9782 -0.2011
  661SOL    HW2 2643   3.231   0.975   3.039  0.5968 -0.1436  0.1622
  661SOL     MW 2644   3.279   1.001   2.970  0.2978 -0.0739 -0.0208
  662SOL     OW 2645   2.250   5.261   1.669 -0.5861  0.5125 -0.5218
  662SOL    HW1 2646   2.282   5.179   1.632 -1.6757 -0.8157  1.3027
  662SOL    HW2 2647   2.324   5.321   1.663  0.4081 -0.7637 -1.4277
  662SOL     MW 2648   2.263   5.259   1.663 -0.5983  0.1791 -0.4042
  663SOL     OW 2649   3.085   4.797   1.645 -0.1194  0.4789  0.1705
  663SOL    HW1 2650   3.012   4.829   1.697 -0.0567  0.8900  0.0103
  663SOL    HW2 2651   3.160   4.802   1.704 -0.3332 -0.5799  0.5513
  663SOL     MW 2652   3.086   4.802   1.660 -0.1387  0.3960  0.1987
  664SOL     OW 2653   1.353   1.807   3.949  0.2434 -0.2253 -0.1961
  664SOL    HW1 2654   1.370   1.764   3.865 -1.5860  0.3667 -0.9149
  664SOL    HW2 2655   1.411   1.762   4.011  2.5763  0.1606 -1.9607
  664SOL     MW 2656   1.362   1.796   3.946  0.3079 -0.1001 -0.5140
  665SOL     OW 2657   1.156   1.260   1.265  0.3088 -0.7333  0.1266
  665SOL    HW1 2658   1.115   1.230   1.183 -0.7701  0.8953  0.0307
  665SOL    HW2 2659   1.095   1.232   1.333  0.1426 -0.2561  0.1779
  665SOL     MW 2660   1.143   1.252   1.263  0.1494 -0.4638  0.1209
  666SOL     OW 2661   1.837   2.862   0.082  0.1323 -0.1911  0.5800
  666SOL    HW1 2662   1.754   2.911   0.088 -0.4268 -1.0296 -0.0695
  666SOL    HW2 2663   1.895   2.906   0.145 -0.2595  1.4680 -0.1557
  666SOL     MW 2664   1.834   2.874   0.091  0.0105 -0.0861  0.4027
  667SOL     OW 2665   2.932   5.108   2.154  0.2575  0.1270 -0.0885
  667SOL    HW1 2666   2.981   5.095   2.073 -0.3120  1.3892 -0.6702
  667SOL    HW2 2667   2.857   5.050   2.146  0.4612 -0.1172 -0.2418
  667SOL     MW 2668   2.929   5.099   2.143  0.2107  0.2573 -0.1826
  668SOL     OW 2669   3.739   3.493   2.006 -0.4335  0.5040  0.6844
  668SOL    HW1 2670   3.657   3.457   1.971  0.4468 -0.2108 -0.7756
  668SOL    HW2 2671   3.759   3.566   1.948  0.8239 -0.4091 -0.0807
  668SOL     MW 2672   3.731   3.497   1.994 -0.1599  0.2956  0.3995
  669SOL     OW 2673   4.170   0.840   0.434  0.2611  0.0117 -0.2409
  669SOL    HW1 2674   4.247   0.819   0.487 -0.0013 -1.0078 -0.2364
  669SOL    HW2 2675   4.149   0.930   0.456 -0.5576 -0.7299  2.3256
  669SOL     MW 2676   4.177   0.848   0.443  0.1227 -0.2138  0.0882
  670SOL     OW 2677   0.896   2.500   1.818  0.5111  0.4668 -0.0913
  670SOL    HW1 2678   0.825   2.537   1.765  1.1854  1.1873 -0.4953
  670SOL    HW2 2679   0.972   2.553   1.797  1.0324  0.0922  0.8225
  670SOL     MW 2680   0.897   2.511   1.808  0.6641  0.5111 -0.0260
  671SOL     OW 2681   1.709   0.591   3.859  0.2596  0.7117  0.4995
  671SOL    HW1 2682   1.667   0.525   3.914 -1.9944  1.3852 -0.2796
  671SOL    HW2 2683   1.743   0.543   3.784 -0.3994  0.2821  0.4679
  671SOL     MW 2684   1.708   0.576   3.857 -0.1133  0.7429  0.3957
  672SOL     OW 2685   0.034   1.204   0.913 -0.1784  0.4656  0.0612
  672SOL    HW1 2686   0.045   1.289   0.956  0.4233  0.5550 -0.2695
  672SOL    HW2 2687  -0.051   1.173   0.944 -0.4692  1.2534  0.0767
  672SOL     MW 2688   0.024   1.211   0.923 -0.1386  0.5779  0.0209
  673SOL     OW 2689   2.128   1.625   1.227 -0.4273 -0.3141  0.3638
  673SOL    HW1 2690   2.161   1.545   1.268 -1.5903 -0.5606  0.8787
  673SOL    HW2 2691   2.197   1.652   1.167 -0.2891 -2.0856 -0.3291
  673SOL     MW 2692   2.141   1.618   1.225 -0.5585 -0.5724  0.3410
  674SOL     OW 2693   0.484   3.355   1.843  0.2757 -0.2363  0.1470
  674SOL    HW1 2694   0.507   3.437   1.799 -1.4500  0.0106 -0.3755
  674SOL    HW2 2695   0.536   3.288   1.800  1.0075  0.4493 -0.0534
  674SOL     MW 2696   0.493   3.357   1.832  0.1485 -0.1169  0.0545
  675SOL     OW 2697   4.431   0.242   4.841  0.7112  0.4238  0.0501
  675SOL    HW1 2698   4.449   0.187   4.917  0.7274  0.4894  0.0937
  675SOL    HW2 2699   4.393   0.322   4.878 -4.3628 -1.4949 -0.2182
  675SOL     MW 2700   4.429   0.245   4.855  0.0638  0.1866  0.0213
  676SOL     OW 2701   4.918   3.207   4.621 -0.3435  0.6618  0.0311
  676SOL    HW1 2702   4.846   3.206   4.558  0.9896  0.1211 -1.5585
  676SOL    HW2 2703   4.962   3.291   4.607  0.1217  0.4247  0.0340
  676SOL     MW 2704   4.915   3.217   4.611 -0.1133  0.5622 -0.1720
  677SOL     OW 2705   2.938   1.065   1.237 -0.2195  0.4775  0.2304
  677SOL    HW1 2706   2.844   1.050   1.247  0.1960 -1.3626  1.9963
  677SOL    HW2 2707   2.950   1.159   1.255 -1.7412  0.8339 -0.4902
  677SOL     MW 2708   2.928   1.075   1.241 -0.3611  0.2876  0.3642
  678SOL     OW 2709   4.890   5.080   0.792  0.1301 -0.7366 -0.1384
  678SOL    HW1 2710   4.918   4.989   0.802  0.6578 -0.5416  0.1959
  678SOL    HW2 2711   4.939   5.112   0.716  0.6028 -0.4862  0.2610
  678SOL     MW 2712   4.900   5.073   0.784  0.2582 -0.6796 -0.0445
  679SOL     OW 2713   0.799   4.477   0.328 -0.4889  0.1370 -0.3589
  679SOL    HW1 2714   0.793   4.410   0.396  0.4530  0.3414 -0.0520
  679SOL    HW2 2715   0.773   4.432   0.248 -1.3573 -0.1771  0.0882
  679SOL     MW 2716   0.795   4.463   0.326 -0.4795  0.1230 -0.2624
  680SOL     OW 2717   4.160   4.280   5.216  0.1472 -0.3104  0.1941
  680SOL    HW1 2718   4.077   4.278   5.262  0.4295  1.1520  0.8036
  680SOL    HW2 2719   4.212   4.211   5.257  0.0843  0.3844  1.4987
  680SOL     MW 2720   4.156   4.271   5.227  0.1753 -0.0342  0.4391
  681SOL     OW 2721   2.811   3.533   0.919  0.5920 -0.2123 -0.1535
  681SOL    HW1 2722   2.753   3.608   0.931 -0.0346 -0.7685  0.3954
  681SOL    HW2 2723   2.899   3.570   0.922  0.3199  0.3841  1.0203
  681SOL     MW 2724   2.815   3.548   0.921  0.4770 -0.2072  0.0670
  682SOL     OW 2725   0.326   1.502   5.067  0.1363  0.5393 -0.2148
  682SOL    HW1 2726   0.402   1.502   5.009 -0.5346 -0.7585 -1.1462
  682SOL    HW2 2727   0.349   1.563   5.137  3.0456 -1.5898  0.8610
  682SOL     MW 2728   0.339   1.510   5.069  0.4228  0.1006 -0.1963
  683SOL     OW 2729   4.666   1.492   5.413  0.1450 -0.0970  0.0088
  683SOL    HW1 2730   4.577   1.528   5.402  0.1798  0.4007  1.1772
  683SOL    HW2 2731   4.722   1.569   5.417  0.7048 -0.4204 -1.0961
  683SOL     MW 2732   4.662   1.507   5.412  0.2212 -0.0747  0.0169
  684SOL     OW 2733   5.001   5.201   5.002 -0.3359 -0.0330 -0.0454
  684SOL    HW1 2734   5.040   5.199   4.915 -0.7616 -0.2880 -0.2356
  684SOL    HW2 2735   5.035   5.280   5.043  1.8901 -1.1950  0.4982
  684SOL     MW 2736   5.010   5.211   4.996 -0.1054 -0.2144 -0.0001
  685SOL     OW 2737   2.257   1.506   4.078 -0.6517 -0.1653  0.0372
  685SOL    HW1 2738   2.226   1.441   4.141 -0.4106  0.5401  0.8971
  685SOL    HW2 2739   2.178   1.554   4.054 -0.5294  0.4803  0.8852
  685SOL     MW 2740   2.243   1.504   4.083 -0.6052  0.0077  0.2558
  686SOL     OW 2741   4.131   4.120   3.587 -0.1246 -0.1576  0.4589
  686SOL    HW1 2742   4.180   4.090   3.510 -0.5040 -0.5890  0.3866
  686SOL    HW2 2743   4.172   4.074   3.661  1.2319  1.3615  0.7352
  686SOL     MW 2744   4.143   4.111   3.587  0.0005 -0.0183  0.4850
  687SOL     OW 2745   5.218   1.125   3.367 -0.1567 -0.3182 -0.0520
  687SOL    HW1 2746   5.234   1.168   3.451 -0.0547 -0.3091 -0.0761
  687SOL    HW2 2747   5.226   1.195   3.302  0.1401 -0.4016 -0.1021
  687SOL     MW 2748   5.221   1.139   3.370 -0.1056 -0.3277 -0.0615
  688SOL     OW 2749   2.910   2.195   5.188 -0.1968  0.0146  0.2903
  688SOL    HW1 2750   2.954   2.279   5.203  0.4629 -0.5798  1.9273
  688SOL    HW2 2751   2.980   2.136   5.160 -0.8126  0.1863 -1.7863
  688SOL     MW 2752   2.925   2.198   5.187 -0.1912 -0.0395  0.2340
  689SOL     OW 2753   3.439   0.311   0.348 -0.2662 -0.0141 -0.6649
  689SOL    HW1 2754   3.363   0.264   0.385 -1.0412  0.0409 -2.1202
  689SOL    HW2 2755   3.458   0.265   0.266  0.2968  0.9356 -1.0802
  689SOL     MW 2756   3.432   0.299   0.342 -0.2934  0.1145 -0.9044
  690SOL     OW 2757   3.802   1.500   2.025  0.2612  0.2338  0.1547
  690SOL    HW1 2758   3.858   1.423   2.028 -3.1587 -2.5389 -1.4589
  690SOL    HW2 2759   3.801   1.526   1.932 -5.1308 -3.3495 -1.2068
  690SOL     MW 2760   3.809   1.494   2.013 -0.8669 -0.5798 -0.2261
  691SOL     OW 2761   3.399   2.943   3.762  0.5901 -0.6444 -0.1501
  691SOL    HW1 2762   3.305   2.951   3.777  0.7220 -0.7903  0.7939
  691SOL    HW2 2763   3.426   2.870   3.817  1.1563 -0.9993 -0.8852
  691SOL     MW 2764   3.391   2.935   3.771  0.6795 -0.7085 -0.1234
  692SOL     OW 2765   5.114   2.729   1.392  0.3320 -0.1607 -0.0648
  692SOL    HW1 2766   5.163   2.687   1.463 -0.8325 -1.2117  0.1526
  692SOL    HW2 2767   5.112   2.822   1.415 -1.3116 -0.6660  2.1312
  692SOL     MW 2768   5.120   2.736   1.404 -0.0274 -0.3599  0.2442
  693SOL     OW 2769   4.875   0.187   0.236  0.0770  0.2380 -0.1127
  693SOL    HW1 2770   4.784   0.197   0.209  0.1663  1.0839 -0.1546
  693SOL    HW2 2771   4.915   0.271   0.213  0.3655  0.6649  1.8290
  693SOL     MW 2772   4.868   0.199   0.229  0.1253  0.4010  0.1305
  694SOL     OW 2773   0.629   3.384   1.392 -0.2242  0.2021 -0.1002
  694SOL    HW1 2774   0.671   3.443   1.454  0.5279 -1.1969  0.7831
  694SOL    HW2 2775   0.700   3.326   1.364 -1.4493 -2.0358  1.1853
  694SOL     MW 2776   0.644   3.384   1.396 -0.2848 -0.2635  0.1775
  695SOL     OW 2777   2.104   4.104   0.586  0.0555  0.5702  0.3797
  695SOL    HW1 2778   2.097   4.019   0.629 -1.1491 -0.0717 -1.0228
  695SOL    HW2 2779   2.023   4.149   0.608 -0.1782  0.5808 -0.4845
  695SOL     MW 2780   2.093   4.099   0.594 -0.1287  0.4894  0.0895
  696SOL     OW 2781   1.441   5.430   1.104 -0.2962  0.3841 -0.1142
  696SOL    HW1 2782   1.446   5.525   1.114  2.2813  0.3704 -0.6551
  696SOL    HW2 2783   1.441   5.416   1.009  0.0912 -0.1512 -0.0403
  696SOL     MW 2784   1.442   5.440   1.093  0.0833  0.3138 -0.1740
  697SOL     OW 2785   3.535   0.153   4.633 -0.0754 -0.5955  0.6792
  697SOL    HW1 2786   3.484   0.234   4.631  0.5252 -0.2241 -0.3411
  697SOL    HW2 2787   3.622   0.181   4.661  0.3546 -0.7493 -0.4689
  697SOL     MW 2788   3.540   0.167   4.636  0.0566 -0.5676  0.4016
  698SOL     OW 2789   1.063   2.498   3.482 -0.6690  0.2649 -0.3798
  698SOL    HW1 2790   0.995   2.535   3.426 -0.5538  1.0620 -0.0023
  698SOL    HW2 2791   1.019   2.482   3.565 -0.5789  0.0627 -0.3700
  698SOL     MW 2792   1.049   2.501   3.485 -0.6427  0.3410 -0.3302
  699SOL     OW 2793   3.895   1.103   3.725 -0.2402 -0.0050  0.3795
  699SOL    HW1 2794   3.961   1.087   3.792  0.2491  0.6429  0.0572
  699SOL    HW2 2795   3.815   1.120   3.775 -0.0086 -0.0964  0.7875
  699SOL     MW 2796   3.893   1.104   3.740 -0.1479  0.0662  0.3904
  700SOL     OW 2797   4.928   0.947   0.457 -0.2166  0.4339  0.5550
  700SOL    HW1 2798   4.877   1.022   0.425 -1.0177 -0.3749 -0.1275
  700SOL    HW2 2799   5.013   0.956   0.414 -0.0243  1.3804  1.1085
  700SOL     MW 2800   4.932   0.958   0.447 -0.2945  0.4516  0.5385
  701SOL     OW 2801   4.889   3.199   4.911  0.1662  0.1645 -0.1144
  701SOL    HW1 2802   4.929   3.120   4.946  0.3931 -0.0153 -0.7701
  701SOL    HW2 2803   4.896   3.190   4.816  1.3242  1.5374 -0.1874
  701SOL     MW 2804   4.895   3.188   4.904  0.3435  0.3172 -0.2077
  702SOL     OW 2805   4.316   4.650   0.833  0.6423  0.6117 -0.0527
  702SOL    HW1 2806   4.295   4.587   0.901 -1.3799  0.3871 -0.8317
  702SOL    HW2 2807   4.269   4.620   0.755  1.1959  2.0044 -0.9875
  702SOL     MW 2808   4.307   4.638   0.831  0.4543  0.7613 -0.2721
  703SOL     OW 2809   2.994   4.504   3.033  0.1130  0.4637 -0.2893
  703SOL    HW1 2810   2.906   4.470   3.024  0.3831 -0.2213 -0.3733
  703SOL    HW2 2811   3.048   4.428   3.055  0.8389  0.7040 -1.1773
  703SOL     MW 2812   2.990   4.490   3.035  0.2405  0.4067 -0.4137
  704SOL     OW 2813   5.260   2.035   4.543  0.5886  0.2113 -0.5569
  704SOL    HW1 2814   5.280   2.010   4.452  1.6966 -0.8142 -0.0661
  704SOL    HW2 2815   5.276   2.129   4.546  1.0852  0.1613 -1.3083
  704SOL     MW 2816   5.265   2.044   4.531  0.7940  0.0736 -0.5903
  705SOL     OW 2817   3.551   3.116   0.986 -0.6035  0.0632  0.7883
  705SOL    HW1 2818   3.638   3.100   1.022  0.6545  1.1068 -1.5878
  705SOL    HW2 2819   3.511   3.179   1.047  0.1636 -0.6524  2.0602
  705SOL     MW 2820   3.557   3.122   0.999 -0.3443  0.1052  0.6470
  706SOL     OW 2821   0.691   4.768   4.530  0.2098  0.6926 -0.2990
  706SOL    HW1 2822   0.780   4.800   4.516 -0.0471  1.4633 -0.2570
  706SOL    HW2 2823   0.666   4.805   4.616  0.0688 -0.0212 -0.0285
  706SOL     MW 2824   0.699   4.777   4.540  0.1589  0.6999 -0.2590
  707SOL     OW 2825   2.062   3.320   2.048 -0.5744  0.2158 -0.3047
  707SOL    HW1 2826   2.114   3.371   2.110 -1.5175  1.1505 -0.2508
  707SOL    HW2 2827   2.014   3.257   2.103  0.1671 -0.3759 -0.3162
  707SOL     MW 2828   2.063   3.318   2.063 -0.6002  0.2597 -0.2993
  708SOL     OW 2829   1.896   3.817   0.557  0.0224  0.3657  0.2888
  708SOL    HW1 2830   1.814   3.812   0.507  0.6528  0.8087 -0.8295
  708SOL    HW2 2831   1.917   3.726   0.578 -0.3362  0.1790 -0.1390
  708SOL     MW 2832   1.888   3.805   0.553  0.0572  0.3985  0.0909
  709SOL     OW 2833   0.334   3.625   1.321  0.2911  0.1837  0.4904
  709SOL    HW1 2834   0.280   3.575   1.259  3.8330 -1.4574 -1.6072
  709SOL    HW2 2835   0.324   3.580   1.404 -2.2972  0.6384  0.5102
  709SOL     MW 2836   0.326   3.613   1.324  0.4132  0.0318  0.2244
  710SOL     OW 2837   4.000   2.663   4.314  0.0181  0.1972 -0.6723
  710SOL    HW1 2838   3.964   2.719   4.383 -0.1072 -0.4981 -0.1684
  710SOL    HW2 2839   3.923   2.628   4.269 -0.1501 -3.1608  1.8727
  710SOL     MW 2840   3.985   2.666   4.317 -0.0195 -0.3217 -0.2820
  711SOL     OW 2841   4.955   1.256   4.282  0.3272 -0.1616 -0.0116
  711SOL    HW1 2842   4.935   1.344   4.248 -1.6645 -0.8460 -0.7556
  711SOL    HW2 2843   4.884   1.238   4.343  0.7731 -1.2209  0.2078
  711SOL     MW 2844   4.944   1.265   4.285  0.1293 -0.3848 -0.0788
  712SOL     OW 2845   2.606   1.294   3.886  0.1204 -0.4272 -0.6670
  712SOL    HW1 2846   2.579   1.215   3.838  0.7725 -1.5845  0.8073
  712SOL    HW2 2847   2.671   1.263   3.949  1.2499  1.4921 -0.8091
  712SOL     MW 2848   2.611   1.280   3.888  0.3485 -0.3296 -0.4964
  713SOL     OW 2849   2.664   3.440   2.756 -0.0527 -0.2181 -0.1849
  713SOL    HW1 2850   2.651   3.420   2.849 -1.5933  1.8238  0.1067
  713SOL    HW2 2851   2.756   3.464   2.749 -0.0482  0.1466  0.9370
  713SOL     MW 2852   2.674   3.440   2.767 -0.2493  0.0899 -0.0040
  714SOL     OW 2853   3.288   0.220   4.296  0.3165 -0.7842 -0.1498
  714SOL    HW1 2854   3.377   0.226   4.332  0.6588  0.8797 -1.1573
  714SOL    HW2 2855   3.231   0.224   4.373  1.0467  1.8491  0.3550
  714SOL     MW 2856   3.292   0.221   4.310  0.4538 -0.2341 -0.2142
  715SOL     OW 2857   0.100   2.492   2.745  0.0058 -0.2525 -0.1804
  715SOL    HW1 2858   0.110   2.397   2.756  0.2932 -0.2103 -0.0966
  715SOL    HW2 2859   0.005   2.504   2.737 -0.2665 -0.2673  2.3664
  715SOL     MW 2860   0.089   2.481   2.745  0.0078 -0.2490  0.1563
  716SOL     OW 2861   0.860   1.974   4.043 -0.0277 -0.0750  0.1538
  716SOL    HW1 2862   0.803   2.046   4.015  0.2206  0.2661  0.5092
  716SOL    HW2 2863   0.916   2.013   4.111  0.8554 -0.3141 -0.4196
  716SOL     MW 2864   0.860   1.988   4.048  0.1171 -0.0620  0.1259
  717SOL     OW 2865   0.782   1.791   3.324 -0.3023  0.0809  0.4240
  717SOL    HW1 2866   0.869   1.788   3.283  0.1441  1.5101  1.1817
  717SOL    HW2 2867   0.796   1.842   3.404 -1.2471 -2.1024  2.1109
  717SOL     MW 2868   0.795   1.797   3.329 -0.3661 -0.0156  0.7369
  718SOL     OW 2869   2.692   3.125   4.496  0.7879  0.3546  0.4191
  718SOL    HW1 2870   2.719   3.104   4.406  1.2891  1.2897  0.3355
  718SOL    HW2 2871   2.774   3.146   4.541  0.3551  1.9555  0.5190
  718SOL     MW 2872   2.706   3.125   4.490  0.7967  0.6792  0.4212
  719SOL     OW 2873   2.317   0.197   0.395  0.0344 -0.3635  0.7799
  719SOL    HW1 2874   2.287   0.154   0.315  0.7072 -1.2050  0.9672
  719SOL    HW2 2875   2.272   0.282   0.394  1.2982  0.3701 -1.3410
  719SOL     MW 2876   2.307   0.202   0.384  0.2823 -0.3773  0.5323
  720SOL     OW 2877   2.136   1.660   3.804  0.3988  0.0529  0.2654
  720SOL    HW1 2878   2.130   1.565   3.802 -1.3238  0.1173  0.9980
  720SOL    HW2 2879   2.064   1.690   3.749  0.9496  0.9293  0.0095
  720SOL     MW 2880   2.126   1.652   3.797  0.2488  0.1733  0.3264
  721SOL     OW 2881   5.182   5.347   3.881 -0.0726 -0.1327 -0.3521
  721SOL    HW1 2882   5.086   5.345   3.890 -0.1013  0.5664 -0.4520
  721SOL    HW2 2883   5.201   5.281   3.814 -0.3961 -0.9753  0.3681
  721SOL     MW 2884   5.172   5.338   3.873 -0.1177 -0.1510 -0.2727
  722SOL     OW 2885   4.902   3.189   3.819  0.0815 -0.4504 -0.3303
  722SOL    HW1 2886   4.883   3.113   3.764  0.6447 -1.6877  1.1218
  722SOL    HW2 2887   4.824   3.198   3.875  1.1433 -1.8487  1.5159
  722SOL     MW 2888   4.889   3.180   3.819  0.2895 -0.7878  0.0919
  723SOL     OW 2889   5.139   3.302   3.577  1.0209  0.3920 -0.0267
  723SOL    HW1 2890   5.186   3.222   3.556  2.0125  0.5687  1.3986
  723SOL    HW2 2891   5.051   3.288   3.542  0.5848 -2.1146  1.7924
  723SOL     MW 2892   5.133   3.290   3.570  1.0920  0.0937  0.3886
  724SOL     OW 2893   0.302   0.168   2.579 -0.4022 -0.4413 -0.3515
  724SOL    HW1 2894   0.276   0.260   2.571 -0.4126 -0.3259  0.7829
  724SOL    HW2 2895   0.392   0.166   2.545 -0.6285 -0.1394 -0.9762
  724SOL     MW 2896   0.310   0.180   2.574 -0.4325 -0.3879 -0.2862
  725SOL     OW 2897   5.077   0.828   4.084 -0.2124  0.3328 -0.4182
  725SOL    HW1 2898   5.100   0.776   4.161 -1.9238  2.5954  1.7444
  725SOL    HW2 2899   5.121   0.912   4.097 -0.0545  0.5835 -2.2593
  725SOL     MW 2900   5.086   0.832   4.095 -0.4113  0.6545 -0.3771
  726SOL     OW 2901   4.384   0.677   2.776  0.5758  0.3272 -0.1757
  726SOL    HW1 2902   4.365   0.586   2.752  1.3866  0.2090 -0.4147
  726SOL    HW2 2903   4.435   0.671   2.857  0.7184  0.5638 -0.2461
  726SOL     MW 2904   4.388   0.664   2.783  0.6978  0.3424 -0.2153
  727SOL     OW 2905   1.738   0.237   1.920  0.3119  0.0075  0.1116
  727SOL    HW1 2906   1.696   0.321   1.901  0.4921  0.0928  0.0899
  727SOL    HW2 2907   1.722   0.223   2.013  0.1823  0.0102  0.0902
  727SOL     MW 2908   1.730   0.246   1.929  0.3184  0.0187  0.1061
  728SOL     OW 2909   3.484   0.493   4.909 -0.5653  0.6351 -0.1909
  728SOL    HW1 2910   3.568   0.539   4.912 -0.2606  0.0267  1.1746
  728SOL    HW2 2911   3.497   0.415   4.963 -2.0608  0.6046  0.1627
  728SOL     MW 2912   3.496   0.488   4.916 -0.7177  0.5533  0.0292
  729SOL     OW 2913   3.105   1.446   3.562 -0.3586  0.1666 -0.4088
  729SOL    HW1 2914   3.150   1.507   3.504  0.8844  0.2682  0.6182
  729SOL    HW2 2915   3.067   1.502   3.630 -0.0522 -0.1095 -0.0060
  729SOL     MW 2916   3.106   1.461   3.564 -0.1602  0.1443 -0.2258
  730SOL     OW 2917   0.229   2.779   3.958  0.0082 -0.3234 -0.7285
  730SOL    HW1 2918   0.226   2.833   3.879  0.2408  0.7829  0.0051
  730SOL    HW2 2919   0.137   2.757   3.976 -0.1491  0.3575 -0.6795
  730SOL     MW 2920   0.217   2.783   3.950  0.0178 -0.0947 -0.6283
  731SOL     OW 2921   2.307   2.481   0.432  0.1206 -0.2158  0.3008
  731SOL    HW1 2922   2.337   2.568   0.406  0.4861  0.0896  1.6328
  731SOL    HW2 2923   2.384   2.425   0.421 -0.0063 -0.2980 -0.1918
  731SOL     MW 2924   2.321   2.485   0.428  0.1511 -0.1872  0.4083
  732SOL     OW 2925   3.062   5.244   1.584 -0.2054  0.3127 -0.7674
  732SOL    HW1 2926   3.101   5.274   1.502 -1.3941  0.8587 -1.1462
  732SOL    HW2 2927   3.016   5.163   1.561  0.3921 -0.1438 -0.3932
  732SOL     MW 2928   3.061   5.237   1.571 -0.2811  0.3242 -0.7680
  733SOL     OW 2929   5.469   1.020   4.916 -0.5301 -0.0053 -0.0256
  733SOL    HW1 2930   5.478   0.953   4.985  1.2846 -0.2576 -0.4397
  733SOL    HW2 2931   5.432   0.973   4.842  1.1674 -0.7341 -0.4697
  733SOL     MW 2932   5.466   1.005   4.915 -0.0805 -0.1309 -0.1354
  734SOL     OW 2933   3.933   1.197   1.523 -0.3720  0.4539 -0.2170
  734SOL    HW1 2934   3.839   1.212   1.534 -0.4620 -0.2913  0.0954
  734SOL    HW2 2935   3.955   1.242   1.441 -1.6327 -1.9134 -1.9858
  734SOL     MW 2936   3.923   1.204   1.514 -0.5449  0.0555 -0.4034
  735SOL     OW 2937   2.612   3.860   4.134  0.6207 -0.1786 -0.7722
  735SOL    HW1 2938   2.689   3.904   4.098 -0.0630  0.3370 -1.6418
  735SOL    HW2 2939   2.636   3.767   4.136  1.2954 -0.0118 -0.9504
  735SOL     MW 2940   2.625   3.854   4.130  0.6196 -0.0913 -0.9063
  736SOL     OW 2941   2.295   4.916   3.289 -0.2120  0.1008  0.1438
  736SOL    HW1 2942   2.312   4.823   3.274  0.7089  0.3663 -0.5033
  736SOL    HW2 2943   2.201   4.921   3.305 -0.4528 -0.8153 -0.8924
  736SOL     MW 2944   2.285   4.905   3.289 -0.1249  0.0175 -0.0717
  737SOL     OW 2945   0.702   4.053   1.670 -0.4422  0.9216  0.7349
  737SOL    HW1 2946   0.628   4.045   1.609 -0.7661  1.4896  1.0460
  737SOL    HW2 2947   0.743   4.136   1.647 -0.1071  0.7699  0.7881
  737SOL     MW 2948   0.698   4.062   1.659 -0.4408  0.9749  0.7815
  738SOL     OW 2949   0.434   4.718   1.294  0.6301  0.0591 -0.2154
  738SOL    HW1 2950   0.501   4.721   1.225  0.6459  1.1741 -0.1655
  738SOL    HW2 2951   0.365   4.664   1.257  0.2713  1.2981 -1.4716
  738SOL     MW 2952   0.434   4.712   1.280  0.5862  0.3605 -0.3698
  739SOL     OW 2953   1.166   3.835   2.244 -0.1927  0.4643 -0.1179
  739SOL    HW1 2954   1.193   3.926   2.235  2.1239 -0.1301  0.2511
  739SOL    HW2 2955   1.205   3.807   2.327  0.3081 -1.2322 -0.8854
  739SOL     MW 2956   1.174   3.843   2.254  0.1679  0.1710 -0.1689
  740SOL     OW 2957   0.708   3.424   4.992 -0.3047 -0.4259 -0.1674
  740SOL    HW1 2958   0.709   3.455   4.901 -1.9314  0.0371 -0.0614
  740SOL    HW2 2959   0.615   3.414   5.012 -0.1423  2.0667  2.3263
  740SOL     MW 2960   0.696   3.426   4.983 -0.4922 -0.0476  0.1654
  741SOL     OW 2961   5.001   2.749   4.842 -0.1079  0.2174  0.3881
  741SOL    HW1 2962   5.091   2.775   4.824 -0.0559  2.4426  3.1492
  741SOL    HW2 2963   5.008   2.663   4.883  0.6404 -0.1201 -0.4315
  741SOL     MW 2964   5.013   2.741   4.845 -0.0054  0.4591  0.6367
  742SOL     OW 2965   4.005   4.178   4.391  0.0463 -0.1833 -0.2161
  742SOL    HW1 2966   4.004   4.253   4.450  3.2890 -0.0452 -0.1587
  742SOL    HW2 2967   4.032   4.104   4.445 -1.4131 -1.0893 -0.6457
  742SOL     MW 2968   4.008   4.178   4.405  0.2746 -0.2816 -0.2637
  743SOL     OW 2969   3.969   0.950   2.401 -0.8653 -0.2413 -0.1933
  743SOL    HW1 2970   3.992   1.000   2.479 -0.1047 -0.6445 -0.1538
  743SOL    HW2 2971   3.913   1.009   2.351  0.2372  0.7719 -0.2728
  743SOL     MW 2972   3.965   0.964   2.404 -0.6268 -0.1632 -0.1984
  744SOL     OW 2973   3.895   4.419   0.514 -0.4874 -0.4387  0.8299
  744SOL    HW1 2974   3.874   4.490   0.454  0.3086 -0.1688  0.8527
  744SOL    HW2 2975   3.858   4.341   0.474  0.2069 -0.2914 -0.1197
  744SOL     MW 2976   3.888   4.418   0.501 -0.2966 -0.3853  0.7113
  745SOL     OW 2977   3.341   3.100   1.734 -0.1117  0.0391 -0.0403
  745SOL    HW1 2978   3.342   3.034   1.665  0.4059 -0.2580  0.2459
  745SOL    HW2 2979   3.248   3.121   1.746 -0.2194 -0.0744 -0.6608
  745SOL     MW 2980   3.329   3.094   1.727 -0.0592 -0.0135 -0.0831
  746SOL     OW 2981   0.824   5.137   1.950  0.3321  0.4538 -0.1186
  746SOL    HW1 2982   0.733   5.128   1.976  0.7596  0.5977  1.4933
  746SOL    HW2 2983   0.839   5.063   1.890 -0.7518  0.2516 -0.1564
  746SOL     MW 2984   0.814   5.126   1.945  0.2480  0.4464  0.0829
  747SOL     OW 2985   1.623   2.637   4.143  0.3310  0.0068  0.4581
  747SOL    HW1 2986   1.582   2.722   4.157 -1.1447 -0.6380  0.2395
  747SOL    HW2 2987   1.616   2.622   4.049 -0.9305 -1.0531  0.6891
  747SOL     MW 2988   1.617   2.646   4.133 -0.0194 -0.2114  0.4597
  748SOL     OW 2989   2.577   1.125   4.940  0.0995  0.5191  0.1247
  748SOL    HW1 2990   2.595   1.122   5.034  1.1805  1.0627 -0.0505
  748SOL    HW2 2991   2.529   1.207   4.927  2.1952  1.8149 -0.1084
  748SOL     MW 2992   2.573   1.135   4.951  0.5062  0.7546  0.0724
  749SOL     OW 2993   5.084   5.298   0.882 -0.1589 -0.3384 -0.4843
  749SOL    HW1 2994   5.082   5.359   0.808  0.5813 -0.0635 -0.2857
  749SOL    HW2 2995   5.004   5.247   0.872  0.0582 -0.4905 -1.6359
  749SOL     MW 2996   5.074   5.300   0.871 -0.0363 -0.3226 -0.6063
  750SOL     OW 2997   0.197   0.762   1.769  0.5841  0.2336 -0.2021
  750SOL    HW1 2998   0.278   0.773   1.819 -0.8624  0.4534  2.2440
  750SOL    HW2 2999   0.167   0.673   1.790 -0.6946  0.7702  0.3448
  750SOL     MW 3000   0.203   0.752   1.778  0.2352  0.3304  0.1810
  751SOL     OW 3001   4.150   0.767   5.147  0.3223  0.0825 -0.3839
  751SOL    HW1 3002   4.130   0.800   5.060 -0.3325 -2.2570 -1.1728
  751SOL    HW2 3003   4.235   0.724   5.138  0.7692  0.7680  0.4150
  751SOL     MW 3004   4.159   0.766   5.135  0.2957 -0.1292 -0.3826
  752SOL     OW 3005   1.413   5.402   3.137  0.0091  0.4706  0.6614
  752SOL    HW1 3006   1.421   5.385   3.043 -0.8613  1.6216  0.3551
  752SOL    HW2 3007   1.464   5.481   3.152 -0.0405  0.4199  1.1119
  752SOL     MW 3008   1.421   5.410   3.126 -0.1087  0.6114  0.6799
  753SOL     OW 3009   4.315   4.198   2.845 -0.1113  0.3999 -0.6070
  753SOL    HW1 3010   4.307   4.103   2.857  1.0356  0.2608 -0.7829
  753SOL    HW2 3011   4.313   4.210   2.750  1.5599  0.3388 -0.6765
  753SOL     MW 3012   4.314   4.187   2.834  0.2494  0.3743 -0.6384
  754SOL     OW 3013   1.374   5.035   4.039 -0.2068 -0.4636 -0.3884
  754SOL    HW1 3014   1.327   5.049   3.957 -0.6435 -0.6253 -0.1636
  754SOL    HW2 3015   1.451   5.092   4.032  0.3888 -1.3480 -1.4111
  754SOL     MW 3016   1.378   5.044   4.027 -0.1865 -0.5976 -0.4906
  755SOL     OW 3017   1.665   1.194   5.205 -0.3702 -0.0672  0.1432
  755SOL    HW1 3018   1.590   1.139   5.182 -1.6001  2.3640 -2.1163
  755SOL    HW2 3019   1.735   1.163   5.149 -1.1267  0.7616 -1.3049
  755SOL     MW 3020   1.664   1.183   5.195 -0.6245  0.3501 -0.3314
  756SOL     OW 3021   3.009   1.903   0.543  0.3194  0.4643  0.0780
  756SOL    HW1 3022   2.976   1.891   0.633  0.0370  1.3723  0.1035
  756SOL    HW2 3023   3.083   1.842   0.537 -0.2392 -0.2890  0.6163
  756SOL     MW 3024   3.014   1.894   0.554  0.2117  0.4841  0.1502
  757SOL     OW 3025   1.538   4.077   3.050 -0.1111  0.5174  0.5779
  757SOL    HW1 3026   1.487   4.054   3.128 -1.7260 -1.4612 -0.9681
  757SOL    HW2 3027   1.473   4.111   2.989  0.7788 -0.0101 -0.6829
  757SOL     MW 3028   1.523   4.079   3.052 -0.2039  0.1966  0.2186
  758SOL     OW 3029   0.849   4.570   1.754  0.4575  0.2446  0.0721
  758SOL    HW1 3030   0.912   4.512   1.711  1.4599  0.9135  0.5973
  758SOL    HW2 3031   0.837   4.643   1.692  1.4941  0.9438  0.6744
  758SOL     MW 3032   0.855   4.572   1.740  0.7185  0.4197  0.2164
  759SOL     OW 3033   2.360   2.445   1.345 -0.0025 -0.5976 -0.5751
  759SOL    HW1 3034   2.288   2.484   1.296 -1.5288 -2.3243  0.1745
  759SOL    HW2 3035   2.371   2.358   1.307 -0.4816 -1.5550  1.3509
  759SOL     MW 3036   2.352   2.439   1.334 -0.2592 -0.9412 -0.2326
  760SOL     OW 3037   4.628   4.900   1.018  0.1875  0.2604 -0.1095
  760SOL    HW1 3038   4.603   4.817   1.059 -1.5399  0.5208 -0.5706
  760SOL    HW2 3039   4.715   4.918   1.053 -0.6263 -0.2197  2.3632
  760SOL     MW 3040   4.636   4.892   1.028 -0.1378  0.2323  0.1480
  761SOL     OW 3041   3.765   0.724   4.336  0.2973 -0.5999  0.4436
  761SOL    HW1 3042   3.724   0.638   4.351 -1.0521 -0.0632 -0.0333
  761SOL    HW2 3043   3.824   0.709   4.262  0.5398 -1.2681  0.7674
  761SOL     MW 3044   3.767   0.711   4.328  0.1556 -0.6167  0.4240
  762SOL     OW 3045   1.763   2.795   0.786 -0.0366 -0.1703  0.2130
  762SOL    HW1 3046   1.762   2.779   0.691 -0.4694 -1.0103  0.3505
  762SOL    HW2 3047   1.776   2.890   0.794 -0.4288 -0.0274 -0.6958
  762SOL     MW 3048   1.764   2.805   0.775 -0.1422 -0.2595  0.1143
  763SOL     OW 3049   4.214   1.994   1.039 -0.1290  0.2136  0.2824
  763SOL    HW1 3050   4.243   2.044   0.962  0.4847  0.2612  0.5416
  763SOL    HW2 3051   4.261   1.911   1.032 -2.0771 -0.8877 -0.8405
  763SOL     MW 3052   4.224   1.989   1.028 -0.2998  0.0787  0.1719
  764SOL     OW 3053   2.998   2.613   0.685  0.3674 -0.3804 -0.5197
  764SOL    HW1 3054   2.967   2.700   0.708 -0.0363 -0.7362  0.3382
  764SOL    HW2 3055   2.978   2.559   0.762  0.2140 -1.3196 -1.1895
  764SOL     MW 3056   2.991   2.617   0.698  0.2960 -0.5462 -0.4956
  765SOL     OW 3057   4.920   2.128   3.132 -0.3281 -0.2387  0.0482
  765SOL    HW1 3058   4.881   2.059   3.078 -0.4681  0.1225 -0.3141
  765SOL    HW2 3059   4.856   2.199   3.129 -0.2272 -0.1254  0.4977
  765SOL     MW 3060   4.906   2.128   3.125 -0.3331 -0.1780  0.0594
  766SOL     OW 3061   2.910   0.079   3.938  0.3086  0.5790 -0.1675
  766SOL    HW1 3062   2.908   0.086   3.843  0.4637  0.3852 -0.1866
  766SOL    HW2 3063   2.999   0.104   3.962  0.4736 -0.0348 -0.1308
  766SOL     MW 3064   2.921   0.083   3.929  0.3495  0.4756 -0.1652
  767SOL     OW 3065   5.052   0.640   1.297  0.1278  0.3536  0.1431
  767SOL    HW1 3066   5.068   0.557   1.251 -0.5251  0.4353 -0.2320
  767SOL    HW2 3067   4.961   0.661   1.278  0.8992  2.3331 -1.6278
  767SOL     MW 3068   5.042   0.632   1.289  0.1429  0.6175 -0.1316
  768SOL     OW 3069   0.819   0.204   2.480 -0.3382  0.6188 -0.0549
  768SOL    HW1 3070   0.756   0.254   2.532 -0.1994  0.4391  0.2851
  768SOL    HW2 3071   0.819   0.248   2.395 -1.7275 -0.0335 -0.4138
  768SOL     MW 3072   0.811   0.216   2.476 -0.4983  0.5123 -0.0573
  769SOL     OW 3073   1.495   4.425   0.910  0.1042  0.4808  0.5658
  769SOL    HW1 3074   1.528   4.487   0.975  0.9471  0.1957  0.4142
  769SOL    HW2 3075   1.562   4.358   0.903 -0.0774  0.3847 -0.4298
  769SOL     MW 3076   1.508   4.425   0.917  0.1889  0.4320  0.4189
  770SOL     OW 3077   4.225   4.076   2.554  0.3419  0.2895  0.2364
  770SOL    HW1 3078   4.234   4.017   2.480 -2.2019  0.7531 -0.5019
  770SOL    HW2 3079   4.212   4.018   2.629 -1.7098 -0.1486 -0.4142
  770SOL     MW 3080   4.225   4.061   2.554 -0.2464  0.2928  0.0586
  771SOL     OW 3081   2.753   3.947   0.423  0.2072  0.0363  0.4707
  771SOL    HW1 3082   2.783   3.876   0.479 -2.6359 -2.3594 -0.7769
  771SOL    HW2 3083   2.807   3.939   0.344 -0.9290 -1.6920 -0.1904
  771SOL     MW 3084   2.764   3.937   0.420 -0.3022 -0.4916  0.2263
  772SOL     OW 3085   3.094   4.518   2.577 -0.1464 -0.6265 -0.0757
  772SOL    HW1 3086   3.086   4.544   2.485 -0.0081 -0.5648 -0.0714
  772SOL    HW2 3087   3.173   4.463   2.579 -0.4151 -1.0136 -0.0770
  772SOL     MW 3088   3.103   4.514   2.566 -0.1631 -0.6682 -0.0753
  773SOL     OW 3089   4.676   2.579   2.253 -0.0975  0.5541  0.2392
  773SOL    HW1 3090   4.739   2.595   2.324  1.2091 -1.3938 -0.3919
  773SOL    HW2 3091   4.729   2.578   2.174 -1.3628  1.5236 -0.6448
  773SOL     MW 3092   4.691   2.581   2.252 -0.0922  0.4289  0.0453
  774SOL     OW 3093   4.578   3.992   0.988  0.0203  0.0373  0.2840
  774SOL    HW1 3094   4.571   4.087   0.984  0.5369  0.0554 -0.3056
  774SOL    HW2 3095   4.672   3.974   0.978 -0.2943 -0.6375 -1.8234
  774SOL     MW 3096   4.589   4.002   0.986  0.0462 -0.0468 -0.0612
  775SOL     OW 3097   5.346   3.087   2.592 -0.3826 -0.3115 -0.3551
  775SOL    HW1 3098   5.391   3.023   2.648  0.0187  0.6251  0.4138
  775SOL    HW2 3099   5.255   3.081   2.619 -1.0240 -2.9604 -2.6250
  775SOL     MW 3100   5.340   3.078   2.603 -0.4134 -0.5307 -0.5472
  776SOL     OW 3101   2.525   2.372   4.101 -0.2383 -0.3944 -0.1906
  776SOL    HW1 3102   2.614   2.344   4.081  0.0427 -0.0252  0.5348
  776SOL    HW2 3103   2.470   2.319   4.043  0.4027 -1.0959 -0.1685
  776SOL     MW 3104   2.529   2.362   4.091 -0.1203 -0.4369 -0.0949
  777SOL     OW 3105   1.484   4.001   5.192 -0.1199 -0.0929  0.3401
  777SOL    HW1 3106   1.512   4.093   5.187  1.5229 -0.5060  1.0825
  777SOL    HW2 3107   1.509   3.964   5.107 -0.4168  0.0584  0.1879
  777SOL     MW 3108   1.491   4.008   5.180  0.0524 -0.1264  0.4157
  778SOL     OW 3109   3.573   1.346   2.790 -0.2629 -0.2667  0.3469
  778SOL    HW1 3110   3.617   1.324   2.708 -2.1562 -1.2965 -0.4563
  778SOL    HW2 3111   3.616   1.292   2.856  0.2604 -0.5876 -0.2485
  778SOL     MW 3112   3.584   1.337   2.788 -0.4383 -0.4396  0.1678
  779SOL     OW 3113   2.121   4.807   3.675  0.1646  0.3708  0.5883
  779SOL    HW1 3114   2.198   4.851   3.639  0.4278 -0.5155  0.0544
  779SOL    HW2 3115   2.065   4.879   3.706 -0.0539  1.1773 -1.5499
  779SOL     MW 3116   2.124   4.822   3.675  0.1703  0.3606  0.2462
  780SOL     OW 3117   3.181   4.094   2.382 -0.2445 -0.3818  0.5043
  780SOL    HW1 3118   3.107   4.047   2.419 -0.9229 -0.1930 -0.5714
  780SOL    HW2 3119   3.246   4.097   2.452 -1.8703  0.8527  2.0352
  780SOL     MW 3120   3.180   4.089   2.395 -0.5395 -0.1996  0.5626
  781SOL     OW 3121   4.380   0.874   0.853 -0.1493 -0.3406  0.1821
  781SOL    HW1 3122   4.439   0.841   0.785 -0.7814 -0.3088 -0.3989
  781SOL    HW2 3123   4.321   0.801   0.871  0.2893 -0.4953  1.0229
  781SOL     MW 3124   4.380   0.861   0.847 -0.1741 -0.3564  0.2153
  782SOL     OW 3125   3.505   4.222   1.290 -0.5211  0.0851 -0.0230
  782SOL    HW1 3126   3.447   4.260   1.356 -1.3454 -0.1065 -0.6281
  782SOL    HW2 3127   3.446   4.188   1.223  0.3150  2.1831 -1.9490
  782SOL     MW 3128   3.490   4.223   1.290 -0.5196  0.3292 -0.3470
  783SOL     OW 3129   4.262   3.035   4.979  0.1431  0.3715  0.2092
  783SOL    HW1 3130   4.286   3.009   5.068 -0.8645  2.8845  1.3438
  783SOL    HW2 3131   4.321   3.108   4.959 -0.0941  0.2669 -0.9100
  783SOL     MW 3132   4.272   3.041   4.988 -0.0162  0.6798  0.2111
  784SOL     OW 3133   2.035   2.728   2.870  0.3742  0.6505 -0.5403
  784SOL    HW1 3134   2.115   2.750   2.822  1.3557  0.7523  1.0656
  784SOL    HW2 3135   1.998   2.812   2.895  0.7454  0.5829  0.2531
  784SOL     MW 3136   2.040   2.741   2.867  0.5474  0.6549 -0.2332
  785SOL     OW 3137   2.464   3.668   0.525 -0.0350 -0.0366  0.4708
  785SOL    HW1 3138   2.432   3.743   0.474  0.5735 -1.2969 -1.9309
  785SOL    HW2 3139   2.557   3.687   0.539 -0.3648  0.6634  1.8491
  785SOL     MW 3140   2.472   3.680   0.520  0.0007 -0.1083  0.3398
  786SOL     OW 3141   0.996   1.708   1.088 -0.0927  0.6542  0.0582
  786SOL    HW1 3142   1.062   1.741   1.027 -1.4488 -0.6312 -2.2196
  786SOL    HW2 3143   0.917   1.757   1.066 -1.0626 -1.0836 -0.5290
  786SOL     MW 3144   0.995   1.719   1.077 -0.3904  0.2672 -0.3085
  787SOL     OW 3145   3.348   1.740   0.381 -0.3197  0.5545  0.5688
  787SOL    HW1 3146   3.435   1.701   0.391 -1.0072 -1.4296 -0.7061
  787SOL    HW2 3147   3.310   1.734   0.469  1.0271  2.0468  1.2964
  787SOL     MW 3148   3.354   1.734   0.394 -0.2353  0.4915  0.4987
  788SOL     OW 3149   1.945   5.336   1.913 -0.2238 -0.2246 -0.2449
  788SOL    HW1 3150   1.872   5.391   1.885  0.4315 -0.1487 -1.9355
  788SOL    HW2 3151   1.943   5.261   1.853  0.2913 -0.8876  0.5457
  788SOL     MW 3152   1.935   5.333   1.902 -0.0740 -0.2998 -0.3601
  789SOL     OW 3153   1.073   1.313   5.469  0.2558 -0.3119  0.1597
  789SOL    HW1 3154   1.156   1.360   5.469  0.0346  0.1278  1.1847
  789SOL    HW2 3155   1.010   1.375   5.433 -0.0211  0.1901  1.4375
  789SOL     MW 3156   1.076   1.327   5.465  0.1920 -0.1913  0.4545
  790SOL     OW 3157   3.003   4.062   1.018  0.5574 -0.5438 -0.0317
  790SOL    HW1 3158   2.924   4.031   0.973  1.0280 -1.6062 -0.1714
  790SOL    HW2 3159   3.071   4.062   0.951  1.2881 -2.2460  0.6365
  790SOL     MW 3160   3.002   4.058   1.004  0.7112 -0.8977  0.0360
  791SOL     OW 3161   5.279   1.582   0.924  0.0927 -0.3996 -0.3122
  791SOL    HW1 3162   5.319   1.645   0.864 -1.5937 -0.3349 -1.4209
  791SOL    HW2 3163   5.353   1.541   0.968  1.2907  1.1417 -0.8071
  791SOL     MW 3164   5.294   1.585   0.922  0.0302 -0.1940 -0.5175
  792SOL     OW 3165   1.025   0.602   1.364  0.3591 -0.2016  0.4412
  792SOL    HW1 3166   0.940   0.625   1.326  0.4946 -0.9258 -0.3113
  792SOL    HW2 3167   1.005   0.527   1.421  0.3712  0.0900  0.8307
  792SOL     MW 3168   1.012   0.595   1.367  0.3780 -0.2569  0.3947
  793SOL     OW 3169   4.565   2.728   1.301 -0.6748  0.4834  0.3812
  793SOL    HW1 3170   4.510   2.712   1.224 -0.1422 -0.5769  0.2007
  793SOL    HW2 3171   4.615   2.807   1.279 -0.6929  0.3190 -0.2642
  793SOL     MW 3172   4.565   2.736   1.288 -0.6089  0.3266  0.2755
  794SOL     OW 3173   5.383   5.289   4.970  0.3154 -0.1112 -0.3714
  794SOL    HW1 3174   5.353   5.198   4.971  0.0950 -0.0460  0.8458
  794SOL    HW2 3175   5.478   5.283   4.977  0.5424 -0.2837 -2.8200
  794SOL     MW 3176   5.391   5.277   4.971  0.3163 -0.1249 -0.5290
  795SOL     OW 3177   0.275   4.433   2.376  0.4722 -0.2334  0.0996
  795SOL    HW1 3178   0.193   4.478   2.397  0.4267 -0.5210  0.5651
  795SOL    HW2 3179   0.338   4.471   2.437  1.0947  1.2028 -1.3700
  795SOL     MW 3180   0.273   4.444   2.387  0.5460 -0.0864 -0.0289
  796SOL     OW 3181   2.300   3.891   1.853  0.3268 -0.4604 -0.5998
  796SOL    HW1 3182   2.222   3.850   1.889  0.3155  0.0183 -0.0606
  796SOL    HW2 3183   2.370   3.828   1.871  0.6729  0.5257  1.9866
  796SOL     MW 3184   2.299   3.878   1.860  0.3697 -0.2729 -0.1997
  797SOL     OW 3185   4.628   1.836   5.297  0.1622  0.5985 -0.3779
  797SOL    HW1 3186   4.558   1.876   5.245  1.5415  2.8729 -0.6234
  797SOL    HW2 3187   4.708   1.859   5.250  1.2164 -0.1776  0.9782
  797SOL     MW 3188   4.629   1.844   5.284  0.4737  0.7903 -0.2357
  798SOL     OW 3189   3.442   3.585   2.898  0.1291  0.1776 -0.8004
  798SOL    HW1 3190   3.474   3.530   2.969 -1.0051 -0.3286 -0.6736
  798SOL    HW2 3191   3.522   3.621   2.859  0.8963 -1.2819 -0.6689
  798SOL     MW 3192   3.457   3.582   2.902  0.0821 -0.0740 -0.7673
  799SOL     OW 3193   1.917   4.662   2.460 -0.1778  0.5909  0.1194
  799SOL    HW1 3194   1.930   4.729   2.393 -1.2453  0.0286 -0.6818
  799SOL    HW2 3195   1.925   4.579   2.412 -2.7375  0.1759  0.2720
  799SOL     MW 3196   1.920   4.660   2.445 -0.6421  0.4658  0.0364
  800SOL     OW 3197   0.288   5.168   3.603  0.2078  0.1607  0.0600
  800SOL    HW1 3198   0.277   5.076   3.625 -1.4897 -0.1604 -1.8841
  800SOL    HW2 3199   0.206   5.209   3.630  0.6049  0.9528  0.0979
  800SOL     MW 3200   0.276   5.162   3.610  0.0413  0.2210 -0.1840
  801SOL     OW 3201   5.121   5.386   2.164 -0.2040  0.4117 -0.0292
  801SOL    HW1 3202   5.110   5.344   2.250 -0.4577  0.7952  0.1287
  801SOL    HW2 3203   5.196   5.342   2.125 -0.5850 -0.3375  0.0495
  801SOL     MW 3204   5.129   5.375   2.170 -0.2853  0.3649  0.0011
  802SOL     OW 3205   5.181   0.471   3.620  0.0381 -0.1093 -0.0647
  802SOL    HW1 3206   5.226   0.555   3.608 -0.2705  0.2217  1.0123
  802SOL    HW2 3207   5.233   0.409   3.569 -0.1286  0.8482 -1.4527
  802SOL     MW 3208   5.194   0.473   3.612 -0.0227  0.0557 -0.1045
  803SOL     OW 3209   0.449   2.694   1.565  0.0155 -0.1952 -0.7033
  803SOL    HW1 3210   0.533   2.700   1.520  1.1248 -0.3857  1.2212
  803SOL    HW2 3211   0.386   2.732   1.504  1.6787  1.0395 -1.7240
  803SOL     MW 3212   0.452   2.699   1.551  0.3704 -0.0615 -0.5876
  804SOL     OW 3213   0.803   4.117   4.565  0.3999 -0.4063 -0.0386
  804SOL    HW1 3214   0.889   4.127   4.524 -0.3399  1.1945 -1.3111
  804SOL    HW2 3215   0.823   4.091   4.655  2.3471  1.9324  0.3161
  804SOL     MW 3216   0.817   4.115   4.571  0.5545  0.0980 -0.1561
  805SOL     OW 3217   2.339   0.070   0.125  0.0209  0.3005  0.1078
  805SOL    HW1 3218   2.384  -0.002   0.169 -0.1702  1.2154  1.9001
  805SOL    HW2 3219   2.344   0.049   0.032  0.5460 -1.6797  0.5484
  805SOL     MW 3220   2.345   0.058   0.119  0.0637  0.1642  0.3937
  806SOL     OW 3221   5.157   2.056   2.197  0.5367  0.2775  0.0066
  806SOL    HW1 3222   5.123   2.096   2.277 -2.5244  0.6820 -1.3552
  806SOL    HW2 3223   5.111   2.102   2.126  1.1651 -1.8240 -1.8641
  806SOL     MW 3224   5.146   2.067   2.198  0.2253  0.0602 -0.4072
  807SOL     OW 3225   0.825   1.913   5.384  0.4989  0.3313  0.3682
  807SOL    HW1 3226   0.764   1.986   5.374  0.4494  0.1627 -0.7056
  807SOL    HW2 3227   0.771   1.842   5.419 -0.2101 -0.1302 -1.5119
  807SOL     MW 3228   0.810   1.913   5.387  0.4018  0.2506 -0.0099
  808SOL     OW 3229   4.707   2.722   3.242 -0.4247 -0.3582  0.7338
  808SOL    HW1 3230   4.625   2.713   3.290 -0.8955 -0.2771 -0.0381
  808SOL    HW2 3231   4.764   2.654   3.278 -0.6115 -0.0260  1.6936
  808SOL     MW 3232   4.704   2.712   3.253 -0.5089 -0.3053  0.7579
  809SOL     OW 3233   1.063   0.314   1.872  0.3069 -0.5576  0.6170
  809SOL    HW1 3234   1.030   0.338   1.785  0.4637 -1.7598  0.2064
  809SOL    HW2 3235   0.985   0.288   1.921  0.1730  0.4792  0.9659
  809SOL     MW 3236   1.049   0.314   1.867  0.3099 -0.5788  0.6091
  810SOL     OW 3237   2.022   0.096   4.215  0.1417 -0.4328 -0.2261
  810SOL    HW1 3238   2.075   0.154   4.270  0.1130 -0.1447 -0.4966
  810SOL    HW2 3239   1.964   0.051   4.276  0.4688 -0.5061  0.0367
  810SOL     MW 3240   2.021   0.098   4.230  0.1799 -0.4053 -0.2271
  811SOL     OW 3241   1.183   3.863   2.845 -0.2121  0.3811  0.0371
  811SOL    HW1 3242   1.200   3.858   2.939 -0.8946  0.0293  0.1485
  811SOL    HW2 3243   1.103   3.812   2.832 -0.7838  1.3927 -0.5652
  811SOL     MW 3244   1.175   3.856   2.855 -0.3727  0.4656 -0.0257
  812SOL     OW 3245   2.746   1.390   1.216  0.0968 -0.0022  0.1011
  812SOL    HW1 3246   2.835   1.406   1.246  0.5447 -3.1605  0.7509
  812SOL    HW2 3247   2.698   1.364   1.294 -0.2828 -2.3818 -0.8491
  812SOL     MW 3248   2.751   1.389   1.230  0.1055 -0.7112  0.0626
  813SOL     OW 3249   3.030   4.408   5.157 -0.3502  0.6724  0.0243
  813SOL    HW1 3250   2.947   4.383   5.117 -0.2313  0.2926  0.0135
  813SOL    HW2 3251   3.027   4.504   5.160 -1.9182  0.6105  2.4839
  813SOL     MW 3252   3.019   4.417   5.152 -0.5357  0.6159  0.3378
  814SOL     OW 3253   4.192   2.160   1.259  0.2206 -0.7579  0.1357
  814SOL    HW1 3254   4.206   2.091   1.195  2.1553 -0.2150 -0.1174
  814SOL    HW2 3255   4.265   2.150   1.321 -0.5477 -0.1191  1.1685
  814SOL     MW 3256   4.203   2.150   1.259  0.3699 -0.6066  0.2355
  815SOL     OW 3257   2.739   2.776   1.392  0.2741 -0.0803 -0.1589
  815SOL    HW1 3258   2.833   2.761   1.377  0.5592  0.5563  0.8750
  815SOL    HW2 3259   2.696   2.704   1.346  1.1647  0.5070 -2.0509
  815SOL     MW 3260   2.746   2.765   1.384  0.4246  0.0764 -0.2687
  816SOL     OW 3261   4.305   1.711   1.859 -0.5443 -0.1900 -0.1643
  816SOL    HW1 3262   4.369   1.782   1.850 -0.0046 -0.4623  1.2494
  816SOL    HW2 3263   4.245   1.741   1.928  0.0677 -1.3348  0.9215
  816SOL     MW 3264   4.306   1.724   1.867 -0.3969 -0.3714  0.1556
  817SOL     OW 3265   5.134   2.279   4.147  0.0412 -0.5940  0.5499
  817SOL    HW1 3266   5.181   2.203   4.113 -2.0732 -0.6600 -2.5748
  817SOL    HW2 3267   5.068   2.243   4.205 -1.1361 -1.2557 -1.1385
  817SOL     MW 3268   5.132   2.265   4.150 -0.3802 -0.6871 -0.0663
  818SOL     OW 3269   4.955   2.531   3.785 -0.7380  0.3570 -0.4340
  818SOL    HW1 3270   4.897   2.602   3.814 -0.1685  1.2074 -1.3185
  818SOL    HW2 3271   5.029   2.535   3.846 -1.0251  0.0648 -0.0596
  818SOL     MW 3272   4.957   2.541   3.797 -0.7019  0.4284 -0.4993
  819SOL     OW 3273   0.643   2.260   1.203  0.1314  0.4949 -0.2261
  819SOL    HW1 3274   0.680   2.322   1.266 -0.9260 -0.2849  1.2293
  819SOL    HW2 3275   0.719   2.224   1.158  1.0173  0.3574  1.3104
  819SOL     MW 3276   0.658   2.263   1.205  0.1095  0.3775  0.1569
  820SOL     OW 3277   0.256   5.089   2.669  0.4644 -0.4054 -0.2296
  820SOL    HW1 3278   0.284   5.017   2.613  0.3141  0.9871 -2.1895
  820SOL    HW2 3279   0.181   5.128   2.623 -0.8176 -0.2697  1.8484
  820SOL     MW 3280   0.250   5.085   2.656  0.2811 -0.2097 -0.2145
  821SOL     OW 3281   2.194   5.005   4.109 -0.2724 -0.0545 -0.2361
  821SOL    HW1 3282   2.125   4.958   4.062  0.4709  0.6152 -2.0791
  821SOL    HW2 3283   2.274   4.981   4.064  0.5636  0.1306  1.1108
  821SOL     MW 3284   2.195   4.996   4.097 -0.0702  0.0549 -0.2996
  822SOL     OW 3285   4.785   4.043   1.567  0.2133 -0.2770  0.0542
  822SOL    HW1 3286   4.865   3.992   1.560  0.0252 -0.4231 -1.3869
  822SOL    HW2 3287   4.790   4.106   1.495 -0.2528  0.7643  0.8836
  822SOL     MW 3288   4.795   4.045   1.557  0.1296 -0.1624 -0.0241
  823SOL     OW 3289   0.385   4.137   0.419  0.0514  0.0878 -0.4557
  823SOL    HW1 3290   0.387   4.118   0.325 -0.0604  0.2764 -0.4972
  823SOL    HW2 3291   0.304   4.096   0.450  0.4569 -0.6040 -0.3026
  823SOL     MW 3292   0.375   4.129   0.411  0.0890  0.0234 -0.4414
  824SOL     OW 3293   3.117   4.414   0.838 -0.0635  0.0122  0.2613
  824SOL    HW1 3294   3.153   4.325   0.840  0.5353  0.2711  1.2466
  824SOL    HW2 3295   3.183   4.468   0.880 -0.6337  0.8601  0.0942
  824SOL     MW 3296   3.130   4.410   0.843 -0.0599  0.1539  0.3661
  825SOL     OW 3297   2.584   4.538   0.220  0.6452 -0.7062  0.0962
  825SOL    HW1 3298   2.656   4.476   0.232  1.0892 -0.5275 -1.4556
  825SOL    HW2 3299   2.532   4.502   0.148  1.3841  1.0678 -1.4151
  825SOL     MW 3300   2.587   4.526   0.213  0.7966 -0.4562 -0.2959
  826SOL     OW 3301   1.359   3.394   1.720  0.7530  0.2075 -0.6416
  826SOL    HW1 3302   1.342   3.419   1.629 -0.7897 -3.1557 -1.4159
  826SOL    HW2 3303   1.273   3.397   1.762  1.4588  1.8168  0.8340
  826SOL     MW 3304   1.346   3.398   1.714  0.6459 -0.0170 -0.5518
  827SOL     OW 3305   4.346   0.418   2.683 -0.1831  0.0168  0.6461
  827SOL    HW1 3306   4.390   0.391   2.763 -0.4681  0.2308  0.8786
  827SOL    HW2 3307   4.416   0.451   2.626 -0.0433  0.3351  1.0012
  827SOL     MW 3308   4.360   0.419   2.686 -0.2017  0.0849  0.7213
  828SOL     OW 3309   2.526   2.848   0.399 -0.2049  0.2792  0.1312
  828SOL    HW1 3310   2.508   2.785   0.469 -0.3918 -1.9061 -1.7546
  828SOL    HW2 3311   2.599   2.900   0.431  0.6105 -1.5562  1.4297
  828SOL     MW 3312   2.533   2.847   0.412 -0.1244 -0.2355  0.0560
  829SOL     OW 3313   3.567   1.899   1.046 -0.2360  0.6271 -0.1991
  829SOL    HW1 3314   3.604   1.976   1.005 -0.3015  0.0216 -1.4393
  829SOL    HW2 3315   3.476   1.923   1.066 -0.4214  0.6959 -1.0966
  829SOL     MW 3316   3.560   1.912   1.043 -0.2681  0.5584 -0.4728
  830SOL     OW 3317   0.251   1.550   0.855 -0.5516  0.3416  0.2737
  830SOL    HW1 3318   0.325   1.605   0.880 -0.4167 -0.0385  0.7158
  830SOL    HW2 3319   0.211   1.596   0.781 -0.3482  0.9512  0.5379
  830SOL     MW 3320   0.255   1.562   0.848 -0.5083  0.3709  0.3641
  831SOL     OW 3321   4.128   1.115   0.027 -0.1640  0.0303 -0.0537
  831SOL    HW1 3322   4.079   1.179   0.078  0.7079  0.6341  0.0501
  831SOL    HW2 3323   4.135   1.038   0.084 -0.5276  0.1318  0.1278
  831SOL     MW 3324   4.122   1.113   0.040 -0.0989  0.1206 -0.0171
  832SOL     OW 3325   4.015   5.225   4.151  0.0125 -0.1733  0.3890
  832SOL    HW1 3326   4.045   5.231   4.060 -0.8020 -3.2271 -0.1849
  832SOL    HW2 3327   4.002   5.316   4.178 -0.4012  0.8310 -2.7730
  832SOL     MW 3328   4.017   5.237   4.143 -0.1447 -0.4357 -0.0892
  833SOL     OW 3329   4.950   2.351   0.117 -0.5032  0.1689 -0.6260
  833SOL    HW1 3330   4.951   2.277   0.056 -0.5996 -2.3369  2.2047
  833SOL    HW2 3331   4.993   2.422   0.069  2.1990 -2.5162 -2.5570
  833SOL     MW 3332   4.956   2.351   0.103 -0.1696 -0.4956 -0.5108
  834SOL     OW 3333   4.268   2.956   5.398  0.2677 -0.1762  0.5203
  834SOL    HW1 3334   4.271   2.885   5.463  0.1267  0.0070  0.7293
  834SOL    HW2 3335   4.323   2.925   5.326 -0.2938 -0.7604  0.3352
  834SOL     MW 3336   4.276   2.943   5.397  0.1778 -0.2275  0.5234
  835SOL     OW 3337   3.884   1.274   1.079 -0.3376 -0.2773 -0.3462
  835SOL    HW1 3338   3.936   1.280   1.160  0.2741 -0.0193 -0.7457
  835SOL    HW2 3339   3.932   1.211   1.026  1.0626  1.8278 -1.7644
  835SOL     MW 3340   3.897   1.267   1.083 -0.0801  0.0252 -0.5789
  836SOL     OW 3341   4.283   2.339   5.198 -0.2855 -0.4540  0.2712
  836SOL    HW1 3342   4.368   2.372   5.171  0.2016 -0.4135  1.7678
  836SOL    HW2 3343   4.220   2.387   5.144  0.6555 -1.1564 -1.5226
  836SOL     MW 3344   4.286   2.349   5.188 -0.1027 -0.5387  0.2331
  837SOL     OW 3345   5.033   1.278   5.294  0.2676 -0.3785 -0.1002
  837SOL    HW1 3346   4.941   1.249   5.299  0.1374  0.1318  0.7227
  837SOL    HW2 3347   5.029   1.365   5.255  0.3960 -0.3421 -0.0330
  837SOL     MW 3348   5.020   1.285   5.290  0.2673 -0.3085  0.0137
  838SOL     OW 3349   4.198   1.354   0.907 -0.3099  0.0952  0.2302
  838SOL    HW1 3350   4.231   1.326   0.993  0.2595  0.5073  0.1578
  838SOL    HW2 3351   4.260   1.317   0.844  0.3736  1.3602  0.1282
  838SOL     MW 3352   4.211   1.346   0.910 -0.1495  0.3099  0.2079
  839SOL     OW 3353   2.147   2.335   4.800  0.0857 -0.2902 -0.1188
  839SOL    HW1 3354   2.122   2.318   4.709  0.0048 -1.5189  0.1119
  839SOL    HW2 3355   2.119   2.257   4.847  0.8396 -0.0056  0.8293
  839SOL     MW 3356   2.140   2.323   4.794  0.1718 -0.4111  0.0321
  840SOL     OW 3357   1.160   1.690   2.678 -0.1758  0.0303 -0.1576
  840SOL    HW1 3358   1.229   1.746   2.713  0.0788 -0.0835 -0.4788
  840SOL    HW2 3359   1.193   1.601   2.689 -1.0337 -0.1434  1.3669
  840SOL     MW 3360   1.173   1.686   2.684 -0.2530 -0.0065 -0.0035
  841SOL     OW 3361   4.841   1.657   4.920  0.3884  0.6377  0.0507
  841SOL    HW1 3362   4.914   1.599   4.899  0.7471  1.1640 -0.1765
  841SOL    HW2 3363   4.787   1.607   4.981  0.4308 -0.1231 -0.5113
  841SOL     MW 3364   4.843   1.644   4.925  0.4398  0.6077 -0.0503
  842SOL     OW 3365   2.782   2.299   5.425 -0.1556 -0.3684 -0.3522
  842SOL    HW1 3366   2.797   2.393   5.415  1.2824 -0.3098  1.7428
  842SOL    HW2 3367   2.799   2.262   5.339 -0.7757  1.2729 -1.2115
  842SOL     MW 3368   2.786   2.306   5.413 -0.0509 -0.1508 -0.1940
  843SOL     OW 3369   1.142   2.848   4.413 -0.1138  0.0753  0.2141
  843SOL    HW1 3370   1.178   2.933   4.388  1.9282 -0.8178 -0.0864
  843SOL    HW2 3371   1.203   2.815   4.479 -0.0474 -1.7734 -0.7201
  843SOL     MW 3372   1.155   2.855   4.419  0.1561 -0.2757  0.0561
  844SOL     OW 3373   1.109   3.317   0.425 -0.1422 -0.8615 -0.0655
  844SOL    HW1 3374   1.050   3.319   0.349 -0.6928  3.0147  0.2840
  844SOL    HW2 3375   1.197   3.307   0.387 -0.5772 -1.2241 -0.9999
  844SOL     MW 3376   1.113   3.316   0.410 -0.2684 -0.4117 -0.1403
  845SOL     OW 3377   3.766   2.217   3.817  0.0765  0.0706  0.0936
  845SOL    HW1 3378   3.856   2.249   3.812  0.2143 -0.4107 -0.7449
  845SOL    HW2 3379   3.774   2.121   3.811 -0.4742  0.0139  0.1602
  845SOL     MW 3380   3.778   2.208   3.815  0.0237  0.0017 -0.0052
  846SOL     OW 3381   5.370   0.326   4.348  0.3213 -0.2460  0.1645
  846SOL    HW1 3382   5.316   0.363   4.418  1.7864 -0.1568  1.2919
  846SOL    HW2 3383   5.315   0.333   4.270 -2.5364 -2.8146  1.6815
  846SOL     MW 3384   5.356   0.331   4.347  0.1430 -0.5634  0.5030
  847SOL     OW 3385   0.104   1.720   2.545 -0.2295 -0.2262 -0.0955
  847SOL    HW1 3386   0.037   1.756   2.487  0.3745 -0.0266 -0.6933
  847SOL    HW2 3387   0.090   1.625   2.542 -0.3339 -0.2023 -0.4145
  847SOL     MW 3388   0.094   1.712   2.537 -0.1655 -0.1976 -0.2128
  848SOL     OW 3389   0.213   4.943   2.910 -0.7336  0.2373 -0.4504
  848SOL    HW1 3390   0.128   4.901   2.913 -0.2975 -0.7531 -1.3057
  848SOL    HW2 3391   0.215   4.990   2.826 -0.4244  0.2130 -0.4613
  848SOL     MW 3392   0.203   4.944   2.900 -0.6382  0.1074 -0.5613
  849SOL     OW 3393   3.444   3.510   3.875 -0.2182 -0.0320  0.3947
  849SOL    HW1 3394   3.474   3.425   3.843 -1.2845 -0.3305  0.1299
  849SOL    HW2 3395   3.497   3.527   3.953  0.6328 -0.5097 -0.0666
  849SOL     MW 3396   3.454   3.501   3.881 -0.2458 -0.1313  0.3017
  850SOL     OW 3397   4.659   1.458   0.804  0.1198 -0.4104 -0.4333
  850SOL    HW1 3398   4.746   1.454   0.844  0.1130 -1.7961 -0.5318
  850SOL    HW2 3399   4.601   1.484   0.875  0.6603  1.0791 -0.4885
  850SOL     MW 3400   4.662   1.461   0.818  0.1881 -0.3971 -0.4530
  851SOL     OW 3401   0.096   1.779   0.103  0.4301  0.4696 -0.3705
  851SOL    HW1 3402   0.003   1.801   0.112  0.7482  1.6544  0.2456
  851SOL    HW2 3403   0.115   1.797   0.011  0.4176  1.8317 -0.1271
  851SOL     MW 3404   0.086   1.784   0.092  0.4692  0.7956 -0.2605
  852SOL     OW 3405   2.564   4.793   0.821 -0.2045 -0.1508 -0.5100
  852SOL    HW1 3406   2.582   4.804   0.915  1.1378  0.8272 -0.8549
  852SOL    HW2 3407   2.582   4.701   0.804  1.4313  0.0714 -0.1594
  852SOL     MW 3408   2.569   4.783   0.831  0.1767  0.0029 -0.5092
  853SOL     OW 3409   3.744   2.791   5.016 -0.5468 -0.2604 -0.0222
  853SOL    HW1 3410   3.670   2.788   5.076 -0.8429 -0.5777 -0.3980
  853SOL    HW2 3411   3.821   2.791   5.072 -0.8050 -1.2617  0.3456
  853SOL     MW 3412   3.744   2.791   5.031 -0.6177 -0.4292 -0.0232
  854SOL     OW 3413   3.850   0.432   3.989 -0.2043 -0.6129 -0.3818
  854SOL    HW1 3414   3.817   0.357   4.038 -1.1533 -0.6060 -0.9922
  854SOL    HW2 3415   3.789   0.443   3.916  0.6832 -0.0799 -1.0759
  854SOL     MW 3416   3.838   0.424   3.986 -0.2122 -0.5438 -0.5488
  855SOL     OW 3417   2.499   3.248   0.750 -0.5220  0.3091 -0.1616
  855SOL    HW1 3418   2.573   3.284   0.702  0.5860 -1.1176  0.4164
  855SOL    HW2 3419   2.488   3.159   0.716 -1.4144  0.1955  0.3695
  855SOL     MW 3420   2.507   3.241   0.739 -0.4944  0.1119 -0.0196
  856SOL     OW 3421   1.494   1.193   4.191  0.0517 -0.0467  0.3679
  856SOL    HW1 3422   1.561   1.258   4.169  0.2094 -0.1035  0.6741
  856SOL    HW2 3423   1.426   1.205   4.124  0.9883 -0.9235 -0.7632
  856SOL     MW 3424   1.494   1.203   4.180  0.1918 -0.1662  0.2623
  857SOL     OW 3425   0.426   0.206   1.075 -0.6410 -0.5062 -0.0525
  857SOL    HW1 3426   0.335   0.232   1.057 -0.3854  2.5131  2.1587
  857SOL    HW2 3427   0.420   0.156   1.157 -0.3394 -0.4054  0.0320
  857SOL     MW 3428   0.413   0.203   1.083 -0.5697 -0.1068  0.2413
  858SOL     OW 3429   1.704   1.801   2.248 -0.4025 -0.2564  0.2575
  858SOL    HW1 3430   1.654   1.767   2.322 -1.3159 -0.0068 -0.2214
  858SOL    HW2 3431   1.645   1.865   2.208  0.3372  0.0894 -0.2956
  858SOL     MW 3432   1.690   1.805   2.252 -0.4247 -0.1802  0.1254
  859SOL     OW 3433   4.248   4.423   0.994  0.8407  0.1760 -0.1885
  859SOL    HW1 3434   4.184   4.365   0.953 -2.4154  2.7629  0.7639
  859SOL    HW2 3435   4.228   4.418   1.088  1.5837  1.5249  0.0700
  859SOL     MW 3436   4.237   4.415   1.001  0.5190  0.6798 -0.0335
  860SOL     OW 3437   4.023   3.527   1.525 -0.3177 -0.3795 -0.3808
  860SOL    HW1 3438   4.104   3.566   1.494 -0.8429  1.0621  0.0069
  860SOL    HW2 3439   4.050   3.446   1.568  1.3328  1.5665  2.5763
  860SOL     MW 3440   4.037   3.521   1.527 -0.1736  0.0542  0.0474
  861SOL     OW 3441   4.421   1.608   5.374  0.1219 -0.0726 -0.2883
  861SOL    HW1 3442   4.351   1.543   5.371 -0.4683  0.5969 -1.8038
  861SOL    HW2 3443   4.440   1.628   5.282  1.1699  0.9675  0.1251
  861SOL     MW 3444   4.415   1.602   5.362  0.1805  0.1463 -0.4294
  862SOL     OW 3445   1.860   2.950   2.967 -0.6430 -0.1137  0.3901
  862SOL    HW1 3446   1.929   3.015   2.965 -0.9465  0.1997 -0.0689
  862SOL    HW2 3447   1.806   2.975   3.042  0.6651 -1.3438  1.8092
  862SOL     MW 3448   1.862   2.961   2.976 -0.5144 -0.2310  0.5130
  863SOL     OW 3449   5.295   1.833   1.849 -0.3930 -0.0404 -0.1884
  863SOL    HW1 3450   5.280   1.770   1.919  2.2611 -0.7635 -0.1582
  863SOL    HW2 3451   5.217   1.827   1.794 -0.8888 -2.2253  0.6412
  863SOL     MW 3452   5.283   1.824   1.851 -0.1167 -0.4126 -0.0783
  864SOL     OW 3453   2.478   3.437   3.827  0.1200  0.0629 -0.7012
  864SOL    HW1 3454   2.570   3.414   3.812  0.7836 -0.0757  2.7314
  864SOL    HW2 3455   2.478   3.532   3.837 -0.3945  0.2250 -2.0590
  864SOL     MW 3456   2.490   3.446   3.827  0.1391  0.0659 -0.4356
  865SOL     OW 3457   3.052   0.776   3.359 -0.3322  0.2498  0.1127
  865SOL    HW1 3458   2.986   0.845   3.364 -0.1201  0.3521  2.9678
  865SOL    HW2 3459   3.055   0.739   3.447 -0.2998 -3.3206 -1.2059
  865SOL     MW 3460   3.044   0.780   3.371 -0.3009 -0.1942  0.3094
  866SOL     OW 3461   2.433   4.944   3.975 -0.0068 -0.4188 -0.2606
  866SOL    HW1 3462   2.488   5.022   3.979 -0.3946 -0.1638  0.1826
  866SOL    HW2 3463   2.433   4.919   3.882 -0.4017  0.4785 -0.5118
  866SOL     MW 3464   2.440   4.951   3.963 -0.1070 -0.2713 -0.2360
  867SOL     OW 3465   0.181   5.308   4.578  0.3309 -0.1772  0.4379
  867SOL    HW1 3466   0.088   5.313   4.555  0.2393 -0.7517  0.6563
  867SOL    HW2 3467   0.218   5.391   4.549 -0.3563  0.2627  0.7937
  867SOL     MW 3468   0.174   5.319   4.572  0.2312 -0.1944  0.5114
  868SOL     OW 3469   2.733   3.349   3.249 -0.0206 -0.1072  0.0683
  868SOL    HW1 3470   2.788   3.382   3.178  0.8170  0.9197  1.1476
  868SOL    HW2 3471   2.760   3.258   3.260  1.1741  0.2567  0.2921
  868SOL     MW 3472   2.744   3.342   3.241  0.2395  0.0708  0.2351
  869SOL     OW 3473   1.983   0.333   4.043 -0.1875 -0.0444  0.3236
  869SOL    HW1 3474   1.899   0.363   4.076  0.7431 -0.2890  3.1345
  869SOL    HW2 3475   1.999   0.250   4.089  1.3349 -0.2955 -0.5810
  869SOL     MW 3476   1.974   0.326   4.053  0.1265 -0.1078  0.5676
  870SOL     OW 3477   2.517   2.340   0.361 -0.0986 -0.2444 -0.2161
  870SOL    HW1 3478   2.585   2.401   0.330 -1.4895  2.0888  1.0332
  870SOL    HW2 3479   2.470   2.316   0.281 -0.7919  2.0412 -0.5784
  870SOL     MW 3480   2.520   2.345   0.347 -0.3654  0.3469 -0.1025
  871SOL     OW 3481   1.044   3.404   4.589  0.0241 -0.0206 -0.5060
  871SOL    HW1 3482   0.996   3.348   4.651 -1.3122  1.2530 -0.3422
  871SOL    HW2 3483   1.039   3.357   4.506 -1.5658  0.0754 -0.4938
  871SOL     MW 3484   1.037   3.391   4.587 -0.3505  0.1547 -0.4835
  872SOL     OW 3485   2.248   1.791   2.354 -0.3979  0.4101 -0.0529
  872SOL    HW1 3486   2.261   1.697   2.343 -0.8974  0.2700  0.5150
  872SOL    HW2 3487   2.154   1.801   2.368 -0.1147  0.7710  1.8625
  872SOL     MW 3488   2.238   1.781   2.355 -0.4256  0.4384  0.2650
  873SOL     OW 3489   1.946   0.198   1.497 -0.2173 -0.2945  0.3629
  873SOL    HW1 3490   1.996   0.179   1.577  1.2729 -0.3995 -0.5430
  873SOL    HW2 3491   1.944   0.114   1.451 -1.2587 -0.2838  0.3648
  873SOL     MW 3492   1.952   0.184   1.502 -0.1598 -0.3066  0.2471
  874SOL     OW 3493   0.700   1.077   3.759  0.1763 -0.3044  0.1919
  874SOL    HW1 3494   0.705   1.060   3.665 -0.2154 -1.0666  0.2969
  874SOL    HW2 3495   0.641   1.009   3.792  1.4067 -0.9080  1.2052
  874SOL     MW 3496   0.693   1.066   3.751  0.2837 -0.4793  0.3350
  875SOL     OW 3497   4.064   4.488   2.961 -0.3600 -0.1279 -0.4880
  875SOL    HW1 3498   4.155   4.470   2.935  0.8544  0.5787  2.7755
  875SOL    HW2 3499   4.070   4.569   3.011 -2.6393 -0.6550  0.7163
  875SOL     MW 3500   4.077   4.496   2.964 -0.4963 -0.1049  0.0839
  876SOL     OW 3501   2.465   3.238   4.417  0.2027  0.0120  0.4446
  876SOL    HW1 3502   2.551   3.198   4.430 -0.2485 -0.1183  3.9759
  876SOL    HW2 3503   2.403   3.167   4.430 -0.5172  0.5358 -0.0061
  876SOL     MW 3504   2.468   3.224   4.420  0.0528  0.0624  0.8389
  877SOL     OW 3505   3.807   3.738   2.235 -0.2541  0.2499  0.4629
  877SOL    HW1 3506   3.860   3.659   2.249  0.2148  0.8717  2.5097
  877SOL    HW2 3507   3.726   3.704   2.197  0.2126 -1.1587  0.6293
  877SOL     MW 3508   3.803   3.723   2.232 -0.1343  0.1492  0.7462
  878SOL     OW 3509   5.149   3.314   3.848 -0.3060 -0.1090 -0.0974
  878SOL    HW1 3510   5.170   3.335   3.757  1.1246  1.5248  0.5638
  878SOL    HW2 3511   5.080   3.248   3.841 -0.4949  0.2236 -2.3558
  878SOL     MW 3512   5.142   3.308   3.835 -0.1470  0.1427 -0.3019
  879SOL     OW 3513   1.913   2.971   1.815  0.2879 -0.1392  0.1300
  879SOL    HW1 3514   1.870   3.054   1.837 -0.7249  0.0880 -2.4534
  879SOL    HW2 3515   1.999   2.978   1.856 -0.4518  1.3482  1.5719
  879SOL     MW 3516   1.919   2.982   1.823  0.0636  0.0803 -0.0162
  880SOL     OW 3517   2.788   5.440   4.744 -0.6610  0.4822 -0.1344
  880SOL    HW1 3518   2.843   5.373   4.783  1.5669  1.5764 -1.1751
  880SOL    HW2 3519   2.739   5.395   4.675  0.9733 -0.0836 -0.9796
  880SOL     MW 3520   2.789   5.426   4.740 -0.1666  0.5498 -0.3758
  881SOL     OW 3521   0.829   5.206   4.353 -0.1782 -0.1574  0.7533
  881SOL    HW1 3522   0.908   5.253   4.326 -0.3053 -0.6107 -0.4961
  881SOL    HW2 3523   0.799   5.163   4.273 -0.5011 -1.7268  1.6918
  881SOL     MW 3524   0.835   5.207   4.339 -0.2358 -0.4163  0.7135
  882SOL     OW 3525   4.802   1.177   0.262 -0.3800  0.2917 -0.3576
  882SOL    HW1 3526   4.859   1.214   0.195 -0.3970 -0.2268 -0.6676
  882SOL    HW2 3527   4.806   1.240   0.334  0.7928  0.1369 -0.2628
  882SOL     MW 3528   4.810   1.190   0.263 -0.2321  0.2055 -0.3852
  883SOL     OW 3529   1.136   4.703   4.407  0.5025  0.2165  0.3232
  883SOL    HW1 3530   1.217   4.754   4.402  0.1469  0.8738  1.0069
  883SOL    HW2 3531   1.073   4.755   4.356  0.7203 -0.7475 -0.9791
  883SOL     MW 3532   1.138   4.716   4.400  0.4849  0.1772  0.2440
  884SOL     OW 3533   0.726   2.228   2.574 -0.7762 -0.1946  0.2179
  884SOL    HW1 3534   0.790   2.166   2.609 -0.1073 -0.1723 -0.8921
  884SOL    HW2 3535   0.715   2.293   2.643 -0.4013 -0.7780  0.8370
  884SOL     MW 3536   0.733   2.228   2.587 -0.6426 -0.2664  0.1550
  885SOL     OW 3537   3.656   2.834   3.316 -0.3288 -0.3441  0.0515
  885SOL    HW1 3538   3.614   2.801   3.237  2.0539 -1.7635 -0.7266
  885SOL    HW2 3539   3.594   2.814   3.386 -1.7376 -0.6330 -1.2177
  885SOL     MW 3540   3.642   2.827   3.315 -0.2041 -0.5628 -0.2106
  886SOL     OW 3541   0.257   2.471   2.493 -0.1300  0.2051 -0.1109
  886SOL    HW1 3542   0.230   2.482   2.584 -0.1265 -0.1904 -0.0588
  886SOL    HW2 3543   0.300   2.553   2.471  2.3420 -0.6518  1.1168
  886SOL     MW 3544   0.259   2.483   2.502  0.1869  0.0448  0.0529
  887SOL     OW 3545   4.197   4.518   1.624 -0.0467 -0.0607  0.5982
  887SOL    HW1 3546   4.265   4.473   1.575 -0.8918 -1.4157  0.6231
  887SOL    HW2 3547   4.237   4.540   1.708  0.1727 -1.4227  0.8593
  887SOL     MW 3548   4.211   4.515   1.628 -0.1268 -0.4085  0.6348
  888SOL     OW 3549   2.941   4.324   2.443 -0.3099  0.2329 -0.4380
  888SOL    HW1 3550   3.015   4.343   2.500  0.2181 -1.7009 -0.4164
  888SOL    HW2 3551   2.872   4.382   2.474  0.5561  0.6110  0.8811
  888SOL     MW 3552   2.942   4.334   2.454 -0.1314  0.0338 -0.2664
  889SOL     OW 3553   3.058   2.456   3.019  0.3293 -0.1284 -0.5350
  889SOL    HW1 3554   3.083   2.517   3.089  0.6121 -1.1020  0.2319
  889SOL    HW2 3555   3.007   2.509   2.959  0.6597  0.8983  0.0607
  889SOL     MW 3556   3.055   2.471   3.021  0.4078 -0.1216 -0.3605
  890SOL     OW 3557   4.294   5.425   3.217  0.2524 -0.2226 -0.6727
  890SOL    HW1 3558   4.237   5.373   3.273 -1.8049  0.6306 -1.8519
  890SOL    HW2 3559   4.319   5.365   3.147 -0.0966 -0.3216 -0.7175
  890SOL     MW 3560   4.290   5.410   3.215 -0.0556 -0.1261 -0.8294
  891SOL     OW 3561   1.908   4.666   0.179 -0.1531 -0.0077  0.2930
  891SOL    HW1 3562   1.906   4.761   0.176 -2.6709  0.1636  2.6905
  891SOL    HW2 3563   1.970   4.645   0.249 -1.1057  0.0426  1.1883
  891SOL     MW 3564   1.916   4.675   0.188 -0.5974  0.0206  0.7145
  892SOL     OW 3565   5.346   4.392   3.142  0.6189  0.2395 -0.3561
  892SOL    HW1 3566   5.298   4.331   3.085  0.8239  0.1085 -0.3871
  892SOL    HW2 3567   5.433   4.354   3.150  0.9417  0.8516 -0.8861
  892SOL     MW 3568   5.351   4.379   3.136  0.6864  0.3010 -0.4279
  893SOL     OW 3569   0.558   3.591   1.704  0.4241 -0.5189 -0.3313
  893SOL    HW1 3570   0.641   3.607   1.660  0.0010  0.6403 -0.7418
  893SOL    HW2 3571   0.559   3.649   1.780  0.5197 -1.4380  0.3920
  893SOL     MW 3572   0.569   3.600   1.708  0.3822 -0.4881 -0.2912
  894SOL     OW 3573   5.316   1.497   4.440 -0.3290  0.1324 -0.2360
  894SOL    HW1 3574   5.275   1.568   4.391  2.6057  1.9166 -0.3474
  894SOL    HW2 3575   5.329   1.533   4.528  3.6484  0.9495 -0.9851
  894SOL     MW 3576   5.312   1.511   4.445  0.5559  0.4654 -0.3462
  895SOL     OW 3577   0.445   3.537   3.883 -0.4455 -0.1768  0.0850
  895SOL    HW1 3578   0.515   3.600   3.866  0.3189 -0.9694  0.2084
  895SOL    HW2 3579   0.444   3.527   3.979  0.8508 -1.8655 -0.0293
  895SOL     MW 3580   0.454   3.544   3.893 -0.1817 -0.4944  0.0861
  896SOL     OW 3581   0.062   4.934   4.388  0.6726  0.0731 -0.1579
  896SOL    HW1 3582   0.047   5.016   4.341 -0.1892 -1.6218 -3.0967
  896SOL    HW2 3583   0.154   4.914   4.371  0.7091  0.1030  0.0045
  896SOL     MW 3584   0.072   4.942   4.380  0.5670 -0.1400 -0.5133
  897SOL     OW 3585   1.354   0.985   2.812  0.4393  0.4014 -0.3740
  897SOL    HW1 3586   1.429   0.977   2.752  0.8795  0.8017  0.1104
  897SOL    HW2 3587   1.278   0.995   2.755  0.8419  0.6825 -0.8680
  897SOL     MW 3588   1.354   0.985   2.797  0.5472  0.4886 -0.3752
  898SOL     OW 3589   4.215   2.081   5.134 -0.5360  0.1565 -0.3234
  898SOL    HW1 3590   4.239   2.167   5.170  0.4044 -0.5007  0.6796
  898SOL    HW2 3591   4.120   2.077   5.145 -0.4587  0.6431  0.6176
  898SOL     MW 3592   4.206   2.092   5.140 -0.4057  0.1347 -0.0746
  899SOL     OW 3593   3.441   0.220   0.891  0.3807 -0.3309 -0.8756
  899SOL    HW1 3594   3.406   0.248   0.807 -0.8290  0.1009 -0.2593
  899SOL    HW2 3595   3.434   0.297   0.947 -0.2407 -1.0071  0.0203
  899SOL     MW 3596   3.435   0.234   0.888  0.1463 -0.3622 -0.6820
  900SOL     OW 3597   3.375   2.850   1.178  0.0976  0.2459  0.0369
  900SOL    HW1 3598   3.331   2.766   1.186 -0.4206  0.4955 -0.1912
  900SOL    HW2 3599   3.353   2.882   1.091 -0.8752  1.2711  0.6317
  900SOL     MW 3600   3.367   2.843   1.168 -0.0933  0.4091  0.0838
  901SOL     OW 3601   2.798   4.817   1.711 -0.3652  0.4620  0.2523
  901SOL    HW1 3602   2.845   4.744   1.752 -1.3701  0.1911  0.9436
  901SOL    HW2 3603   2.710   4.784   1.694 -0.3070  0.9287 -1.1394
  901SOL     MW 3604   2.793   4.804   1.714 -0.4864  0.4871  0.1627
  902SOL     OW 3605   1.931   2.814   5.212 -0.5561 -0.1261 -0.0831
  902SOL    HW1 3606   1.991   2.793   5.141 -0.4468  3.1045 -1.1044
  902SOL    HW2 3607   1.984   2.805   5.292  0.0850 -1.2042 -0.6074
  902SOL     MW 3608   1.946   2.810   5.213 -0.4600  0.1495 -0.2810
  903SOL     OW 3609   2.021   1.789   5.041  0.2982  0.4668 -0.0329
  903SOL    HW1 3610   2.029   1.708   5.090 -0.6766  1.2507  1.5004
  903SOL    HW2 3611   1.927   1.797   5.022  0.0681  2.1642  1.5674
  903SOL     MW 3612   2.010   1.780   5.045  0.1440  0.7844  0.3683
  904SOL     OW 3613   4.789   2.818   2.652 -0.0429 -0.2771  0.0310
  904SOL    HW1 3614   4.840   2.883   2.701 -1.3712 -0.9509  2.4864
  904SOL    HW2 3615   4.700   2.852   2.652 -0.5776 -1.6100  0.5079
  904SOL     MW 3616   4.784   2.830   2.658 -0.2814 -0.5340  0.4063
  905SOL     OW 3617   0.078   0.311   2.176 -0.1860 -0.5175  1.0777
  905SOL    HW1 3618   0.022   0.267   2.240 -0.1776 -0.1584  1.3358
  905SOL    HW2 3619   0.149   0.249   2.160  0.3551 -0.2080  2.1826
  905SOL     MW 3620   0.080   0.298   2.182 -0.1157 -0.4319  1.2522
  906SOL     OW 3621   3.393   1.508   0.049  0.2885  0.4849  0.7642
  906SOL    HW1 3622   3.333   1.557   0.105 -0.2325  2.2251 -1.1811
  906SOL    HW2 3623   3.437   1.576  -0.003  1.9680 -0.9332  0.2468
  906SOL     MW 3624   3.391   1.523   0.050  0.4368  0.5262  0.4489
  907SOL     OW 3625   5.339   4.563   4.218  0.4394  0.3001  0.3896
  907SOL    HW1 3626   5.299   4.478   4.201 -0.5067  1.0358 -1.3062
  907SOL    HW2 3627   5.376   4.590   4.134 -0.2239  2.0421  0.6078
  907SOL     MW 3628   5.339   4.556   4.205  0.2334  0.6173  0.2005
  908SOL     OW 3629   5.379   5.176   2.779  0.0302  0.4307  0.3153
  908SOL    HW1 3630   5.302   5.121   2.770  0.1966 -0.2184  2.3055
  908SOL    HW2 3631   5.344   5.263   2.800 -0.1759  0.3111  0.4718
  908SOL     MW 3632   5.365   5.180   2.781  0.0251  0.3323  0.5901
  909SOL     OW 3633   3.336   3.525   3.435  0.7138  0.7194  0.0738
  909SOL    HW1 3634   3.407   3.463   3.452  1.2551  1.1972 -0.3958
  909SOL    HW2 3635   3.373   3.611   3.454  0.4535  1.0231 -0.7437
  909SOL     MW 3636   3.350   3.528   3.439  0.7498  0.8194 -0.0909
  910SOL     OW 3637   0.775   2.070   5.060  0.2449  0.1328 -0.2945
  910SOL    HW1 3638   0.870   2.061   5.052  0.2799 -0.6688  0.8192
  910SOL    HW2 3639   0.761   2.099   5.150 -0.6811 -2.6788  0.5715
  910SOL     MW 3640   0.785   2.073   5.070  0.1308 -0.3297 -0.0411
  911SOL     OW 3641   1.588   1.429   1.500 -0.2988 -0.1876  0.2005
  911SOL    HW1 3642   1.562   1.336   1.499 -0.0789 -0.2394 -0.5617
  911SOL    HW2 3643   1.666   1.433   1.446 -0.1103  0.3950  0.5091
  911SOL     MW 3644   1.595   1.417   1.493 -0.2465 -0.1196  0.1425
  912SOL     OW 3645   0.285   5.002   3.959 -0.2727  0.4810  0.0398
  912SOL    HW1 3646   0.236   4.938   4.010 -1.9496  1.0879 -0.7511
  912SOL    HW2 3647   0.300   5.074   4.019 -2.2843  1.2171 -0.2714
  912SOL     MW 3648   0.281   5.003   3.973 -0.7449  0.6530 -0.1012
  913SOL     OW 3649   2.112   3.259   4.590 -0.4726  0.0579 -0.0837
  913SOL    HW1 3650   2.054   3.333   4.574 -2.0471 -0.6161  2.1011
  913SOL    HW2 3651   2.053   3.183   4.596  0.7687 -0.8792  0.8195
  913SOL     MW 3652   2.097   3.259   4.589 -0.5152 -0.1483  0.3116
  914SOL     OW 3653   4.369   4.586   1.837 -0.2615  0.0970  0.0823
  914SOL    HW1 3654   4.408   4.624   1.758  0.6276 -0.6919  0.1161
  914SOL    HW2 3655   4.378   4.654   1.903 -1.9821  1.1830 -0.7173
  914SOL     MW 3656   4.375   4.599   1.835 -0.3679  0.1350 -0.0157
  915SOL     OW 3657   2.440   4.591   0.444  0.0980  0.2169 -0.0688
  915SOL    HW1 3658   2.429   4.686   0.433  0.5635  0.1843 -0.8346
  915SOL    HW2 3659   2.483   4.562   0.364  0.8311 -0.4988  0.5744
  915SOL     MW 3660   2.444   4.600   0.432  0.2515  0.1211 -0.0845
  916SOL     OW 3661   3.063   2.307   4.828 -0.3610 -0.2347  0.5294
  916SOL    HW1 3662   2.998   2.376   4.839 -0.1150  0.1791 -0.4913
  916SOL    HW2 3663   3.145   2.345   4.859  0.5256  1.2588 -3.1761
  916SOL     MW 3664   3.065   2.321   4.833 -0.2160  0.0094 -0.0756
  917SOL     OW 3665   4.009   5.419   4.333  0.2926  0.0817  0.4232
  917SOL    HW1 3666   3.968   5.503   4.311  1.3342  0.5285  0.1010
  917SOL    HW2 3667   4.005   5.415   4.428 -1.3205 -0.3367  0.3721
  917SOL     MW 3668   4.003   5.430   4.342  0.2194  0.0853  0.3754
  918SOL     OW 3669   2.157   3.465   5.330  0.1245 -0.0359 -0.0144
  918SOL    HW1 3670   2.147   3.374   5.304  0.2264 -0.0662  0.0486
  918SOL    HW2 3671   2.249   3.472   5.356  0.3198  0.2793 -0.7736
  918SOL     MW 3672   2.168   3.455   5.330  0.1625  0.0006 -0.1035
  919SOL     OW 3673   3.783   2.148   1.750 -0.1439 -0.2299 -0.3993
  919SOL    HW1 3674   3.841   2.111   1.816 -0.6910 -0.8475 -0.2523
  919SOL    HW2 3675   3.770   2.077   1.687 -1.1473 -0.2855 -0.1518
  919SOL     MW 3676   3.788   2.134   1.751 -0.3424 -0.3161 -0.3488
  920SOL     OW 3677   0.564   4.160   1.252  0.0157  0.1066 -0.4739
  920SOL    HW1 3678   0.569   4.091   1.186  0.1322  0.3662 -0.7370
  920SOL    HW2 3679   0.470   4.179   1.258 -0.3834 -2.0512  1.6630
  920SOL     MW 3680   0.552   4.153   1.244 -0.0205 -0.1364 -0.2340
  921SOL     OW 3681   1.013   0.553   2.022  0.3703 -0.1670 -0.1511
  921SOL    HW1 3682   1.058   0.635   2.002  1.0871 -0.2632  0.9771
  921SOL    HW2 3683   1.062   0.486   1.974  0.1646 -0.0159 -0.5743
  921SOL     MW 3684   1.025   0.555   2.013  0.4357 -0.1600 -0.0608
  922SOL     OW 3685   1.771   3.294   3.176 -0.5389  0.7870 -0.4620
  922SOL    HW1 3686   1.712   3.221   3.155  0.4219 -0.2166  0.2099
  922SOL    HW2 3687   1.714   3.359   3.217 -1.1687 -0.2442  0.3670
  922SOL     MW 3688   1.756   3.293   3.179 -0.4965  0.5265 -0.2699
  923SOL     OW 3689   3.510   1.418   3.559 -0.3589  0.4984 -0.2296
  923SOL    HW1 3690   3.579   1.354   3.542 -0.1299  0.9593 -1.1040
  923SOL    HW2 3691   3.461   1.382   3.632  0.4816 -0.1046  0.0549
  923SOL     MW 3692   3.513   1.405   3.566 -0.2220  0.4802 -0.3051
  924SOL     OW 3693   4.522   1.224   2.071  0.0355 -0.0775  0.0954
  924SOL    HW1 3694   4.474   1.210   2.153  1.4442 -0.4505  0.8703
  924SOL    HW2 3695   4.481   1.303   2.034 -0.2709  0.4156  1.4174
  924SOL     MW 3696   4.510   1.232   2.077  0.1766 -0.0621  0.3638
  925SOL     OW 3697   1.392   2.444   2.789 -0.2237 -0.5024 -0.0166
  925SOL    HW1 3698   1.477   2.479   2.815 -0.2777 -1.7558  2.0155
  925SOL    HW2 3699   1.408   2.350   2.776 -1.4114 -0.8749  1.0511
  925SOL     MW 3700   1.405   2.436   2.790 -0.3826 -0.7105  0.3802
  926SOL     OW 3701   1.854   2.026   0.310 -0.2623 -0.1988  0.4179
  926SOL    HW1 3702   1.889   2.077   0.383 -1.1069  1.6163 -0.4092
  926SOL    HW2 3703   1.760   2.023   0.325 -0.4498  0.2122 -0.5992
  926SOL     MW 3704   1.847   2.032   0.321 -0.3944  0.0862  0.1818
  927SOL     OW 3705   3.585   0.195   4.348  0.4868 -0.1005  0.3064
  927SOL    HW1 3706   3.610   0.108   4.319 -0.9803 -0.1882 -0.7940
  927SOL    HW2 3707   3.565   0.185   4.441 -0.3253 -1.1063  0.0402
  927SOL     MW 3708   3.586   0.183   4.356  0.1950 -0.2405  0.1314
  928SOL     OW 3709   0.372   1.840   5.175  0.3610  0.6141  0.7497
  928SOL    HW1 3710   0.377   1.928   5.213 -1.9292  1.2945 -0.3842
  928SOL    HW2 3711   0.442   1.791   5.219  0.0722  2.2928  3.2677
  928SOL     MW 3712   0.382   1.845   5.186  0.0309  0.9161  0.9269
  929SOL     OW 3713   3.705   3.137   5.174  0.1404  0.6873  0.3350
  929SOL    HW1 3714   3.613   3.113   5.168  0.4447 -0.2908 -0.6917
  929SOL    HW2 3715   3.746   3.096   5.098  1.6444  0.0803  1.4278
  929SOL     MW 3716   3.699   3.129   5.164  0.3719  0.4844  0.3435
  930SOL     OW 3717   0.130   5.382   0.367 -0.0168  0.0185 -0.2947
  930SOL    HW1 3718   0.071   5.321   0.410  0.2879 -0.1210 -0.0673
  930SOL    HW2 3719   0.179   5.328   0.304  0.9039 -0.1688  0.5495
  930SOL     MW 3720   0.129   5.367   0.364  0.1401 -0.0234 -0.1575
  931SOL     OW 3721   1.714   2.400   2.505  0.1659 -0.1578  0.8676
  931SOL    HW1 3722   1.777   2.471   2.514  0.3939 -0.3485  0.8079
  931SOL    HW2 3723   1.762   2.332   2.457 -0.7154  0.4842 -1.0160
  931SOL     MW 3724   1.728   2.400   2.500  0.0823 -0.1000  0.6189
  932SOL     OW 3725   4.931   1.970   1.214  0.1156 -0.3264  0.5822
  932SOL    HW1 3726   4.959   1.982   1.123 -1.4313  0.7711  0.2178
  932SOL    HW2 3727   4.843   1.935   1.207  1.3632 -4.1978  1.6923
  932SOL     MW 3728   4.924   1.967   1.202  0.0773 -0.6815  0.6777
  933SOL     OW 3729   4.673   2.525   0.894 -0.2043 -0.3705 -0.1960
  933SOL    HW1 3730   4.761   2.556   0.919 -0.2568 -0.6517  0.3439
  933SOL    HW2 3731   4.639   2.595   0.837  0.3301 -0.2150 -0.3336
  933SOL     MW 3732   4.680   2.538   0.890 -0.1426 -0.3866 -0.1445
  934SOL     OW 3733   4.144   0.436   3.065  0.2887  0.2096  0.3725
  934SOL    HW1 3734   4.221   0.475   3.106  0.1043  1.4941 -0.4473
  934SOL    HW2 3735   4.169   0.345   3.048  1.2490  0.3411  1.0366
  934SOL     MW 3736   4.157   0.429   3.068  0.3880  0.3908  0.3525
  935SOL     OW 3737   3.108   2.713   0.967 -0.5098  0.5203 -0.2421
  935SOL    HW1 3738   3.048   2.784   0.948 -1.1675 -0.2088 -0.9359
  935SOL    HW2 3739   3.166   2.709   0.891 -0.3680  0.4137 -0.1310
  935SOL     MW 3740   3.108   2.721   0.955 -0.5759  0.4133 -0.3167
  936SOL     OW 3741   3.630   5.139   2.509 -0.6440 -0.2261  0.6561
  936SOL    HW1 3742   3.638   5.235   2.510 -1.3962 -0.1295 -0.7228
  936SOL    HW2 3743   3.579   5.119   2.587  0.1719  0.4121  1.3877
  936SOL     MW 3744   3.625   5.149   2.519 -0.6359 -0.1320  0.5732
  937SOL     OW 3745   4.206   2.332   4.000 -0.0384  0.0135  0.1568
  937SOL    HW1 3746   4.281   2.391   4.003 -0.1130  0.1064  0.1760
  937SOL    HW2 3747   4.159   2.348   4.081 -1.6621  2.0158 -1.0911
  937SOL     MW 3748   4.210   2.342   4.011 -0.2558  0.2817 -0.0005
  938SOL     OW 3749   3.434   4.674   5.088  0.1143 -0.5972 -0.5322
  938SOL    HW1 3750   3.439   4.603   5.023  1.2833 -1.3245  0.3204
  938SOL    HW2 3751   3.473   4.637   5.167 -0.9058  0.4121  0.4832
  938SOL     MW 3752   3.439   4.660   5.089  0.1334 -0.5611 -0.2931
  939SOL     OW 3753   2.830   2.298   3.083  0.2470 -0.1216  0.3500
  939SOL    HW1 3754   2.790   2.353   3.150  1.7961  0.8894  0.5056
  939SOL    HW2 3755   2.917   2.336   3.069  1.1079 -2.0871 -0.0775
  939SOL     MW 3756   2.836   2.310   3.090  0.5555 -0.2438  0.3152
  940SOL     OW 3757   4.519   4.744   4.650 -0.6375 -0.5717  0.2345
  940SOL    HW1 3758   4.560   4.668   4.610 -0.6049 -0.6701  0.4545
  940SOL    HW2 3759   4.487   4.712   4.735 -2.5236 -0.9251 -0.5417
  940SOL     MW 3760   4.520   4.730   4.656 -0.8747 -0.6295  0.1633
  941SOL     OW 3761   0.025   2.032   3.231  0.1337 -0.2266 -0.5217
  941SOL    HW1 3762  -0.067   2.006   3.225 -0.4087  0.9796  1.4984
  941SOL    HW2 3763   0.056   1.990   3.312  0.1248  2.5951  1.0649
  941SOL     MW 3764   0.017   2.023   3.241  0.0631  0.2890 -0.0600
  942SOL     OW 3765   1.893   1.368   3.363 -0.8012  0.2465  0.3696
  942SOL    HW1 3766   1.930   1.394   3.279 -1.4784  0.2600  0.0703
  942SOL    HW2 3767   1.889   1.272   3.358  0.2075  0.1651  0.8415
  942SOL     MW 3768   1.897   1.359   3.351 -0.7587  0.2378  0.3917
  943SOL     OW 3769   4.196   2.311   1.645 -0.7681  0.0061  0.1625
  943SOL    HW1 3770   4.176   2.383   1.586 -0.4176  0.0175  0.0547
  943SOL    HW2 3771   4.128   2.246   1.629 -1.5705  0.6546  0.8467
  943SOL     MW 3772   4.185   2.311   1.635 -0.8260  0.0906  0.2363
  944SOL     OW 3773   3.317   1.141   4.126  0.0236  0.3828 -0.8500
  944SOL    HW1 3774   3.340   1.055   4.090 -0.3901  0.0111 -0.2479
  944SOL    HW2 3775   3.246   1.122   4.187  2.3852  0.5926  2.1531
  944SOL     MW 3776   3.311   1.127   4.129  0.2729  0.3621 -0.3885
  945SOL     OW 3777   2.212   3.869   5.374  0.0677  0.3885  0.1156
  945SOL    HW1 3778   2.210   3.814   5.452  1.3129 -0.6246 -0.5271
  945SOL    HW2 3779   2.304   3.873   5.349 -0.3288  0.3913 -1.5018
  945SOL     MW 3780   2.223   3.863   5.380  0.1763  0.2592 -0.1737
  946SOL     OW 3781   2.757   1.736   2.255  0.6593  0.3681 -0.0714
  946SOL    HW1 3782   2.725   1.648   2.273  1.9093 -0.0309  0.2504
  946SOL    HW2 3783   2.784   1.733   2.163  0.0900  0.6244 -0.2566
  946SOL     MW 3784   2.756   1.724   2.245  0.7464  0.3498 -0.0539
  947SOL     OW 3785   0.620   3.745   1.372  0.2803  0.3875 -0.3266
  947SOL    HW1 3786   0.533   3.721   1.342  0.0435  2.1683 -1.1872
  947SOL    HW2 3787   0.609   3.830   1.414  1.4537  0.1760  0.4801
  947SOL     MW 3788   0.608   3.752   1.374  0.4002  0.5884 -0.3335
  948SOL     OW 3789   4.130   0.811   3.455 -0.2651  0.0433  0.2487
  948SOL    HW1 3790   4.102   0.742   3.515  3.7669 -0.5432  1.7593
  948SOL    HW2 3791   4.116   0.893   3.503  2.2281 -0.3745  1.8280
  948SOL     MW 3792   4.125   0.813   3.469  0.5702 -0.0852  0.6443
  949SOL     OW 3793   0.972   3.928   1.713 -0.2803  0.9174 -0.3079
  949SOL    HW1 3794   1.004   3.966   1.632 -1.0317 -1.1005 -1.6334
  949SOL    HW2 3795   0.882   3.958   1.721 -0.0591  1.5092  0.0768
  949SOL     MW 3796   0.965   3.936   1.704 -0.3482  0.7348 -0.4284
  950SOL     OW 3797   5.174   2.302   0.272  0.1865 -0.3478  0.2361
  950SOL    HW1 3798   5.086   2.325   0.241 -0.0776 -0.3095  0.9936
  950SOL    HW2 3799   5.173   2.207   0.277  0.0143 -0.3284  0.7045
  950SOL     MW 3800   5.162   2.293   0.269  0.1306 -0.3404  0.3931
  951SOL     OW 3801   3.355   2.099   4.821  0.3616  0.2838 -0.2359
  951SOL    HW1 3802   3.387   2.180   4.780 -0.3263  1.7800  1.9714
  951SOL    HW2 3803   3.428   2.070   4.875  0.3653 -0.1989 -0.4986
  951SOL     MW 3804   3.369   2.106   4.822  0.2740  0.4136  0.0131
  952SOL     OW 3805   3.864   2.652   2.261  0.4399  0.0884 -0.4433
  952SOL    HW1 3806   3.900   2.582   2.205 -0.1302  0.9964 -2.0139
  952SOL    HW2 3807   3.772   2.656   2.237  0.1327  0.4031  0.7237
  952SOL     MW 3808   3.857   2.643   2.251  0.3276  0.2449 -0.4949
  953SOL     OW 3809   0.632   0.326   3.780  0.2516  0.0164  0.0041
  953SOL    HW1 3810   0.577   0.250   3.762 -0.4453  0.8132 -1.5084
  953SOL    HW2 3811   0.571   0.393   3.810 -0.1249  1.6079 -3.7544
  953SOL     MW 3812   0.617   0.325   3.781  0.1142  0.3222 -0.6706
  954SOL     OW 3813   2.760   2.711   4.144  0.1317 -0.2213 -0.1033
  954SOL    HW1 3814   2.805   2.750   4.069  0.0401 -0.0861 -0.0882
  954SOL    HW2 3815   2.805   2.747   4.220  0.2961 -0.4449 -0.0960
  954SOL     MW 3816   2.771   2.721   4.144  0.1410 -0.2326 -0.1005
  955SOL     OW 3817   1.211   3.048   4.649 -0.6646 -0.2636  0.2237
  955SOL    HW1 3818   1.181   3.111   4.715 -1.3589 -1.8122  1.4308
  955SOL    HW2 3819   1.159   3.070   4.571 -0.5830  0.9240  0.4759
  955SOL     MW 3820   1.200   3.059   4.647 -0.7430 -0.3098  0.4105
  956SOL     OW 3821   4.084   3.668   3.590 -0.2152  0.1134  0.4000
  956SOL    HW1 3822   4.035   3.750   3.580 -2.3509 -1.1423  0.0047
  956SOL    HW2 3823   4.136   3.661   3.510  1.6119  2.0102  1.3066
  956SOL     MW 3824   4.085   3.678   3.578 -0.2547  0.1955  0.4655
  957SOL     OW 3825   4.453   3.399   4.465  1.1781 -0.2606 -0.2595
  957SOL    HW1 3826   4.444   3.321   4.520 -0.2864 -0.9920 -1.4673
  957SOL    HW2 3827   4.419   3.471   4.519  1.2700 -0.6778  0.3711
  957SOL     MW 3828   4.448   3.398   4.479  1.0024 -0.4077 -0.3334
  958SOL     OW 3829   4.247   0.647   0.929 -0.4149 -0.2062  0.2397
  958SOL    HW1 3830   4.251   0.657   1.024 -0.3893  0.2428  0.1936
  958SOL    HW2 3831   4.266   0.554   0.914 -0.8326 -0.3685  0.6953
  958SOL     MW 3832   4.250   0.636   0.940 -0.4651 -0.1695  0.2922
  959SOL     OW 3833   0.540   2.244   0.927 -0.1467  0.6754 -0.0936
  959SOL    HW1 3834   0.498   2.158   0.935  1.5921 -0.2003  0.2578
  959SOL    HW2 3835   0.578   2.259   1.014 -1.4085  2.3647  0.1986
  959SOL     MW 3836   0.540   2.235   0.939 -0.0856  0.7796 -0.0112
  960SOL     OW 3837   1.736   0.452   0.180  0.3856 -0.1578  0.5188
  960SOL    HW1 3838   1.696   0.540   0.178  0.1648 -0.2564  0.5993
  960SOL    HW2 3839   1.754   0.436   0.273 -0.7376 -0.7199  0.6544
  960SOL     MW 3840   1.733   0.462   0.192  0.2136 -0.2424  0.5465
  961SOL     OW 3841   3.728   1.217   0.282  0.0467 -0.4601 -0.2677
  961SOL    HW1 3842   3.676   1.296   0.266  2.1575  1.0176 -0.2193
  961SOL    HW2 3843   3.703   1.190   0.370  0.0594  0.8077  0.1527
  961SOL     MW 3844   3.718   1.224   0.291  0.3186 -0.1086 -0.2077
  962SOL     OW 3845   3.084   1.742   2.871 -0.7422 -0.1013 -1.3100
  962SOL    HW1 3846   3.060   1.654   2.898 -0.6961  0.0612 -0.7361
  962SOL    HW2 3847   3.022   1.799   2.916  1.4851  0.4423  1.3553
  962SOL     MW 3848   3.073   1.738   2.880 -0.4512 -0.0109 -0.8953
  963SOL     OW 3849   3.190   4.536   0.589 -0.0736  0.3195  0.1380
  963SOL    HW1 3850   3.149   4.488   0.517 -0.4161  0.1606  0.4342
  963SOL    HW2 3851   3.157   4.493   0.668  0.7508  0.1211  0.3804
  963SOL     MW 3852   3.180   4.524   0.590 -0.0119  0.2737  0.2069
  964SOL     OW 3853   3.760   1.276   5.333  0.1148 -0.1482 -0.2930
  964SOL    HW1 3854   3.822   1.229   5.277  1.0615  0.3788  0.2896
  964SOL    HW2 3855   3.806   1.356   5.358 -1.3998  1.0661 -1.1482
  964SOL     MW 3856   3.774   1.280   5.329  0.0421  0.0747 -0.3279
  965SOL     OW 3857   0.899   2.048   0.146 -0.1755 -0.3675  0.1592
  965SOL    HW1 3858   0.893   2.022   0.054  0.0889 -0.1349  0.0774
  965SOL    HW2 3859   0.817   2.094   0.163  0.3199  0.7134 -0.3113
  965SOL     MW 3860   0.888   2.051   0.136 -0.0782 -0.1993  0.0885
  966SOL     OW 3861   0.469   3.063   5.094 -0.1671 -0.1622 -0.4896
  966SOL    HW1 3862   0.466   2.972   5.124 -2.5192 -0.4875 -1.4734
  966SOL    HW2 3863   0.548   3.099   5.135  0.1391 -2.2709  0.9624
  966SOL     MW 3864   0.479   3.056   5.103 -0.4290 -0.4738 -0.4297
  967SOL     OW 3865   1.721   2.190   4.204  0.0836  0.2296 -0.9035
  967SOL    HW1 3866   1.711   2.105   4.247 -0.0494  0.6106 -0.1749
  967SOL    HW2 3867   1.635   2.231   4.213  0.1781  0.4826 -1.1627
  967SOL     MW 3868   1.708   2.184   4.211  0.0787  0.3108 -0.8434
  968SOL     OW 3869   1.115   0.805   1.976 -0.0178 -0.5130  0.3877
  968SOL    HW1 3870   1.203   0.773   1.956 -0.0378 -0.3970  0.1212
  968SOL    HW2 3871   1.122   0.900   1.974 -0.5825 -0.4644 -1.5964
  968SOL     MW 3872   1.127   0.813   1.973 -0.0927 -0.4919  0.0996
  969SOL     OW 3873   1.059   4.273   2.327 -0.2476 -0.6593  0.0343
  969SOL    HW1 3874   1.119   4.205   2.297  0.3786  0.7104 -2.0340
  969SOL    HW2 3875   1.114   4.335   2.374  0.1678  0.8406 -2.2648
  969SOL     MW 3876   1.074   4.272   2.329 -0.1143 -0.2920 -0.5248
  970SOL     OW 3877   1.981   4.259   1.143 -0.1637  0.3254  0.0057
  970SOL    HW1 3878   2.077   4.268   1.144 -0.2951  2.1435  0.0844
  970SOL    HW2 3879   1.965   4.169   1.170  1.5591 -0.3955 -1.1544
  970SOL     MW 3880   1.992   4.249   1.146  0.0400  0.4658 -0.1327
  971SOL     OW 3881   3.017   5.125   2.988 -0.2473  0.1758  0.3073
  971SOL    HW1 3882   3.024   5.206   3.039 -2.3711  1.6880 -1.6401
  971SOL    HW2 3883   2.926   5.098   2.998  0.1182 -1.2893 -0.1323
  971SOL     MW 3884   3.006   5.132   2.996 -0.4724  0.1818  0.0017
  972SOL     OW 3885   0.575   4.483   3.938 -0.1417  0.3507 -0.5345
  972SOL    HW1 3886   0.644   4.545   3.917 -0.1722 -0.1394 -2.1720
  972SOL    HW2 3887   0.518   4.484   3.861 -0.1415 -1.6954 -0.5968
  972SOL     MW 3888   0.576   4.491   3.926 -0.1456  0.0261 -0.7521
  973SOL     OW 3889   0.784   1.770   5.095 -0.3709 -0.0240  0.0370
  973SOL    HW1 3890   0.789   1.746   5.003 -1.7424 -3.0134  0.6244
  973SOL    HW2 3891   0.784   1.866   5.095 -1.9576  0.1072 -3.1846
  973SOL     MW 3892   0.784   1.779   5.083 -0.7496 -0.3899 -0.3002
  974SOL     OW 3893   5.235   4.757   2.549  0.1099  0.4461 -0.2324
  974SOL    HW1 3894   5.329   4.764   2.566  0.9026 -1.0663 -3.2362
  974SOL    HW2 3895   5.220   4.663   2.535 -1.3190  0.8951 -2.1284
  974SOL     MW 3896   5.245   4.746   2.549  0.0285  0.3099 -0.8596
  975SOL     OW 3897   3.401   1.152   0.598  0.6529 -0.0926  0.5616
  975SOL    HW1 3898   3.404   1.206   0.677  1.0648  0.7974 -0.0398
  975SOL    HW2 3899   3.360   1.071   0.626  0.1428  0.4774  1.5328
  975SOL     MW 3900   3.396   1.149   0.612  0.6403  0.0943  0.6089
  976SOL     OW 3901   5.215   0.637   0.836 -0.1527  0.5769  0.2609
  976SOL    HW1 3902   5.245   0.561   0.886  0.7050  1.1074  0.5803
  976SOL    HW2 3903   5.288   0.698   0.840 -0.4469  1.0136 -0.8493
  976SOL     MW 3904   5.228   0.635   0.843 -0.0806  0.7007  0.1596
  977SOL     OW 3905   1.793   4.434   4.285  0.1419 -0.1514 -0.6412
  977SOL    HW1 3906   1.875   4.425   4.333  0.2462 -1.1663 -0.9705
  977SOL    HW2 3907   1.725   4.412   4.348  0.2050 -0.3771 -0.6497
  977SOL     MW 3908   1.794   4.430   4.299  0.1634 -0.3102 -0.6845
  978SOL     OW 3909   4.435   2.464   3.949 -0.3484 -0.6001 -0.1485
  978SOL    HW1 3910   4.472   2.430   3.868  1.0611 -0.1005  0.2498
  978SOL    HW2 3911   4.410   2.554   3.929  0.2345 -0.3944  0.0229
  978SOL     MW 3912   4.436   2.471   3.936 -0.0933 -0.5098 -0.0756
  979SOL     OW 3913   5.405   0.846   1.480  0.1083  0.3336 -0.4069
  979SOL    HW1 3914   5.386   0.817   1.390 -1.1429 -1.1483  0.2941
  979SOL    HW2 3915   5.489   0.891   1.473 -0.1670  0.6317 -2.3945
  979SOL     MW 3916   5.413   0.848   1.467 -0.0871  0.1820 -0.5716
  980SOL     OW 3917   0.411   2.259   2.543  0.1679  0.1270  0.2854
  980SOL    HW1 3918   0.356   2.333   2.516  1.2993  0.2249 -1.9221
  980SOL    HW2 3919   0.350   2.186   2.552 -0.3677  0.1693 -2.3850
  980SOL     MW 3920   0.396   2.259   2.541  0.2442  0.1450 -0.3390
  981SOL     OW 3921   1.775   4.680   4.933  0.1023  0.1963  0.1800
  981SOL    HW1 3922   1.825   4.637   5.003 -1.5582 -2.3857 -0.0730
  981SOL    HW2 3923   1.816   4.649   4.852  0.1907  0.7965 -0.0068
  981SOL     MW 3924   1.787   4.671   4.931 -0.0989 -0.0574  0.1237
  982SOL     OW 3925   3.048   0.334   2.693  0.2270  0.1315  0.4603
  982SOL    HW1 3926   3.013   0.320   2.605  0.2194  0.0418  0.4768
  982SOL    HW2 3927   3.119   0.397   2.681  0.9547 -0.7160  0.2219
  982SOL     MW 3928   3.053   0.340   2.681  0.3192  0.0115  0.4319
  983SOL     OW 3929   1.713   2.847   3.378  0.4142  0.0441  0.1983
  983SOL    HW1 3930   1.653   2.888   3.441  0.4024 -2.1166  1.7282
  983SOL    HW2 3931   1.784   2.911   3.367 -0.5802  1.3120  0.8291
  983SOL     MW 3932   1.714   2.861   3.385  0.2854 -0.0702  0.4749
  984SOL     OW 3933   0.692   5.285   5.336  0.1401 -0.5806  0.0527
  984SOL    HW1 3934   0.608   5.262   5.376  0.3537 -0.3705  0.6198
  984SOL    HW2 3935   0.722   5.203   5.297 -0.1262 -0.7583  0.2137
  984SOL     MW 3936   0.685   5.271   5.336  0.1334 -0.5765  0.1459
  985SOL     OW 3937   4.133   2.543   0.017  0.1695  0.4945 -0.1894
  985SOL    HW1 3938   4.172   2.457   0.032 -1.2138 -0.0066  0.6751
  985SOL    HW2 3939   4.194   2.604   0.058 -0.0281 -0.2889  1.3304
  985SOL     MW 3940   4.146   2.540   0.024 -0.0329  0.3301  0.1158
  986SOL     OW 3941   3.441   3.277   2.418 -0.0754 -0.1616  0.0383
  986SOL    HW1 3942   3.488   3.194   2.423  1.7503  0.8583  0.6687
  986SOL    HW2 3943   3.417   3.285   2.326 -0.7164 -1.5796  0.0441
  986SOL     MW 3944   3.444   3.267   2.407  0.0763 -0.2125  0.1197
  987SOL     OW 3945   3.962   1.253   4.167  0.0765 -0.2301 -0.6583
  987SOL    HW1 3946   4.000   1.335   4.200  0.3909 -0.8928  0.7244
  987SOL    HW2 3947   3.970   1.192   4.241  2.0528 -2.2429 -2.4022
  987SOL     MW 3948   3.968   1.256   4.181  0.3697 -0.5726 -0.7046
  988SOL     OW 3949   5.253   4.525   0.764 -0.3772  0.2777 -0.8640
  988SOL    HW1 3950   5.276   4.611   0.728 -1.4012  0.1493 -1.8775
  988SOL    HW2 3951   5.188   4.490   0.703  0.0804 -1.2637 -0.5163
  988SOL     MW 3952   5.248   4.532   0.751 -0.4497  0.0639 -0.9492
  989SOL     OW 3953   1.708   4.686   0.834 -0.4266  0.8209  0.0100
  989SOL    HW1 3954   1.636   4.729   0.880 -0.4649  1.1785 -0.3764
  989SOL    HW2 3955   1.785   4.737   0.859 -0.4850  1.1834 -0.5226
  989SOL     MW 3956   1.709   4.698   0.843 -0.4390  0.9131 -0.1077
  990SOL     OW 3957   4.610   2.134   0.071 -0.1265 -0.4631 -0.2050
  990SOL    HW1 3958   4.545   2.146   0.002  0.5852 -0.9553 -0.9838
  990SOL    HW2 3959   4.567   2.077   0.136 -1.0338  0.5450  0.1018
  990SOL     MW 3960   4.596   2.128   0.071 -0.1515 -0.3970 -0.2654
  991SOL     OW 3961   3.337   1.929   5.108 -0.4660 -0.2480  0.2445
  991SOL    HW1 3962   3.340   1.841   5.071  1.5253 -0.3615  0.5626
  991SOL    HW2 3963   3.289   1.919   5.190 -0.8714 -0.8914 -0.0660
  991SOL     MW 3964   3.331   1.917   5.114 -0.2630 -0.3449  0.2454
  992SOL     OW 3965   1.921   0.838   0.520  0.1318  0.2608  0.0310
  992SOL    HW1 3966   2.003   0.794   0.498 -0.6235 -0.5626 -1.3043
  992SOL    HW2 3967   1.871   0.773   0.570 -0.1442  0.3392 -0.1346
  992SOL     MW 3968   1.925   0.824   0.523 -0.0002  0.1655 -0.1612
  993SOL     OW 3969   0.006   3.836   1.428  0.3674 -0.0475 -0.3648
  993SOL    HW1 3970   0.053   3.841   1.511 -1.0775 -1.3266  0.5901
  993SOL    HW2 3971  -0.050   3.913   1.427  1.1118  0.4974 -0.6361
  993SOL     MW 3972   0.004   3.846   1.439  0.2777 -0.1415 -0.2773
  994SOL     OW 3973   2.722   4.301   1.783  0.0002 -0.4046 -0.0746
  994SOL    HW1 3974   2.640   4.344   1.759 -0.0605 -0.4357  0.0782
  994SOL    HW2 3975   2.696   4.211   1.803  0.0148 -0.3061  0.3759
  994SOL     MW 3976   2.708   4.295   1.782 -0.0057 -0.3960  0.0026
  995SOL     OW 3977   4.528   1.270   5.290 -0.1255  0.5174  0.5192
  995SOL    HW1 3978   4.588   1.322   5.343 -0.2227 -0.1096  1.2547
  995SOL    HW2 3979   4.577   1.190   5.270 -0.2047  0.6112 -0.0831
  995SOL     MW 3980   4.542   1.267   5.294 -0.1481  0.4491  0.5363
  996SOL     OW 3981   0.270   2.486   3.547  0.1572  0.6687  0.6786
  996SOL    HW1 3982   0.191   2.468   3.497 -0.9394 -1.2016  2.9116
  996SOL    HW2 3983   0.330   2.526   3.484 -2.0231  0.8203 -1.4258
  996SOL     MW 3984   0.268   2.489   3.533 -0.2623  0.4487  0.6951
  997SOL     OW 3985   2.294   2.555   4.881 -0.1703  0.4820 -0.3951
  997SOL    HW1 3986   2.323   2.602   4.803 -0.5031  1.7762  0.2345
  997SOL    HW2 3987   2.253   2.476   4.847  0.0081  0.8540 -1.5184
  997SOL     MW 3988   2.292   2.551   4.867 -0.1901  0.6953 -0.4583
  998SOL     OW 3989   4.006   4.585   1.011  0.0913  0.2452  0.5755
  998SOL    HW1 3990   4.070   4.655   1.025 -0.2223  0.4743  0.9047
  998SOL    HW2 3991   4.047   4.527   0.947  0.5721  0.4561  0.6867
  998SOL     MW 3992   4.019   4.587   1.005  0.1127  0.3015  0.6319
  999SOL     OW 3993   4.879   1.167   4.729 -0.1528 -0.4375  0.2103
  999SOL    HW1 3994   4.960   1.173   4.779  0.4346 -2.9066 -0.3117
  999SOL    HW2 3995   4.875   1.250   4.681  0.9936  0.5733  1.7418
  999SOL     MW 3996   4.889   1.178   4.729  0.0691 -0.6242  0.3396
 1000SOL     OW 3997   3.212   0.237   1.717 -0.2758 -0.2676 -0.0309
 1000SOL    HW1 3998   3.242   0.323   1.690  0.0652 -0.3854 -0.0273
 1000SOL    HW2 3999   3.163   0.252   1.797  0.4508 -0.1739  0.4020
 1000SOL     MW 4000   3.209   0.250   1.724 -0.1392 -0.2707  0.0250
 1001SOL     OW 4001   2.016   3.235   3.343 -0.4732  0.6355  0.4173
 1001SOL    HW1 4002   2.080   3.217   3.274 -1.3902  0.1894 -0.3502
 1001SOL    HW2 4003   1.939   3.268   3.296 -0.4723  2.1143  1.3994
 1001SOL     MW 4004   2.014   3.237   3.328 -0.5904  0.7677  0.4448
 1002SOL     OW 4005   3.431   0.877   1.814  0.0080 -0.1945 -0.5399
 1002SOL    HW1 4006   3.380   0.958   1.806 -1.4268 -1.0367 -0.3666
 1002SOL    HW2 4007   3.414   0.847   1.904 -0.9284 -1.5742 -1.1409
 1002SOL     MW 4008   3.422   0.884   1.825 -0.2955 -0.4789 -0.5946
 1003SOL     OW 4009   2.123   3.494   3.159  0.2413  0.0904  0.3392
 1003SOL    HW1 4010   2.190   3.537   3.106  0.0768  1.3561  1.1138
 1003SOL    HW2 4011   2.172   3.433   3.215  0.5112 -0.5284 -0.5373
 1003SOL     MW 4012   2.138   3.492   3.159  0.2548  0.1732  0.3262
 1004SOL     OW 4013   0.971   3.184   3.839  0.5743 -0.1685  0.0948
 1004SOL    HW1 4014   0.972   3.257   3.776  0.8693 -0.0173  0.2721
 1004SOL    HW2 4015   1.056   3.189   3.883  0.0684  0.2286  1.0705
 1004SOL     MW 4016   0.982   3.194   3.837  0.5473 -0.0983  0.2424
 1005SOL     OW 4017   1.042   4.944   3.330  0.1224  0.1856 -0.1990
 1005SOL    HW1 4018   0.950   4.962   3.347  0.5435  1.3144  1.0513
 1005SOL    HW2 4019   1.072   5.017   3.276  0.3729  0.0250 -0.2826
 1005SOL     MW 4020   1.034   4.955   3.326  0.2084  0.3096 -0.0496
 1006SOL     OW 4021   2.122   2.593   2.542  0.2180 -0.4929 -0.2851
 1006SOL    HW1 4022   2.029   2.616   2.545 -0.4166 -2.9549  1.2676
 1006SOL    HW2 4023   2.156   2.639   2.465 -1.8953  1.7207 -0.0015
 1006SOL     MW 4024   2.115   2.602   2.533 -0.1338 -0.5247 -0.0500
 1007SOL     OW 4025   4.302   2.326   5.483 -0.5248  0.0678 -0.2324
 1007SOL    HW1 4026   4.288   2.334   5.388 -1.9292  1.9677  0.0816
 1007SOL    HW2 4027   4.389   2.365   5.497 -0.5364  0.2653 -0.6736
 1007SOL     MW 4028   4.311   2.332   5.472 -0.7061  0.3363 -0.2487
 1008SOL     OW 4029   3.658   1.143   0.548 -0.2639 -0.0247  0.3709
 1008SOL    HW1 4030   3.696   1.055   0.560  0.6634 -0.0407 -2.1163
 1008SOL    HW2 4031   3.565   1.132   0.568 -0.3321 -1.7985 -0.7390
 1008SOL     MW 4032   3.651   1.130   0.552 -0.1539 -0.2538 -0.0896
 1009SOL     OW 4033   2.310   3.187   4.083  0.2952 -0.3215 -0.4287
 1009SOL    HW1 4034   2.323   3.264   4.138 -1.5962 -0.6564  0.5858
 1009SOL    HW2 4035   2.394   3.142   4.085  1.2182  1.3099 -0.4495
 1009SOL     MW 4036   2.322   3.191   4.090  0.1712 -0.1556 -0.3015
 1010SOL     OW 4037   4.010   5.314   1.991  0.9020 -0.0472  0.8164
 1010SOL    HW1 4038   3.938   5.376   2.001  1.0438  0.2910 -0.1662
 1010SOL    HW2 4039   4.072   5.358   1.933  0.3074 -1.6791 -1.1786
 1010SOL     MW 4040   4.009   5.328   1.985  0.8440 -0.2128  0.4353
 1011SOL     OW 4041   4.018   1.728   2.954  0.2182  0.1569 -0.1298
 1011SOL    HW1 4042   3.943   1.746   2.897  1.1870 -2.1547 -2.3431
 1011SOL    HW2 4043   4.086   1.787   2.923 -0.1180  1.0196  0.7164
 1011SOL     MW 4044   4.017   1.738   2.942  0.2992 -0.0285 -0.3048
 1012SOL     OW 4045   1.747   4.352   1.611 -0.3411 -0.4461  0.0701
 1012SOL    HW1 4046   1.771   4.443   1.629 -0.4216 -0.0901 -1.4568
 1012SOL    HW2 4047   1.720   4.317   1.696 -1.0161  1.1739  0.5694
 1012SOL     MW 4048   1.747   4.359   1.624 -0.4378 -0.1932 -0.0615
 1013SOL     OW 4049   2.294   3.754   1.371 -0.3644  0.0341 -0.0513
 1013SOL    HW1 4050   2.268   3.750   1.279  0.6032  3.2044 -0.5593
 1013SOL    HW2 4051   2.371   3.698   1.376  0.0276  0.4135 -1.3582
 1013SOL     MW 4052   2.300   3.746   1.360 -0.1903  0.4885 -0.2836
 1014SOL     OW 4053   2.541   5.072   0.771  0.1321 -0.1950  0.0049
 1014SOL    HW1 4054   2.532   4.977   0.771  0.7658 -0.2610 -0.5290
 1014SOL    HW2 4055   2.456   5.104   0.801 -0.1049 -0.9274  0.1277
 1014SOL     MW 4056   2.529   5.064   0.775  0.1829 -0.2972 -0.0478
 1015SOL     OW 4057   5.325   2.666   2.946  0.2003 -0.0785  0.2662
 1015SOL    HW1 4058   5.311   2.630   2.858  0.5785 -0.5074  0.3759
 1015SOL    HW2 4059   5.277   2.748   2.947 -0.0979 -0.2482 -0.2264
 1015SOL     MW 4060   5.317   2.672   2.935  0.2105 -0.1551  0.2172
 1016SOL     OW 4061   3.792   3.439   0.367  0.1794  0.2848 -0.7893
 1016SOL    HW1 4062   3.883   3.434   0.395  0.2721 -0.3377 -1.1818
 1016SOL    HW2 4063   3.759   3.520   0.406  1.2541  1.1925 -1.6769
 1016SOL     MW 4064   3.799   3.449   0.376  0.3288  0.3213 -0.9532
 1017SOL     OW 4065   3.671   0.117   0.756 -0.0690 -0.3065 -0.0532
 1017SOL    HW1 4066   3.653   0.192   0.813  0.4070 -0.1783 -0.0639
 1017SOL    HW2 4067   3.640   0.042   0.805  1.9487 -0.3958  1.1889
 1017SOL     MW 4068   3.665   0.117   0.770  0.2502 -0.3015  0.1044
 1018SOL     OW 4069   2.251   2.972   5.183 -0.1062 -0.2071  0.2196
 1018SOL    HW1 4070   2.233   2.878   5.182  1.7739 -0.6144  0.4456
 1018SOL    HW2 4071   2.337   2.980   5.141  0.6111  1.1898  1.8245
 1018SOL     MW 4072   2.260   2.961   5.177  0.2263 -0.0804  0.4540
 1019SOL     OW 4073   3.253   1.186   3.317  0.0824 -0.1243 -0.0668
 1019SOL    HW1 4074   3.214   1.160   3.400 -1.9381  0.2927 -0.8230
 1019SOL    HW2 4075   3.273   1.103   3.273 -1.6749 -0.4350 -0.3784
 1019SOL     MW 4076   3.251   1.172   3.322 -0.4012 -0.1107 -0.2035
 1020SOL     OW 4077   3.803   3.055   4.290 -0.2659 -0.8683 -0.1891
 1020SOL    HW1 4078   3.886   3.036   4.246 -0.4577 -0.2200 -0.8492
 1020SOL    HW2 4079   3.736   3.024   4.228 -0.5328 -0.3900 -0.1408
 1020SOL     MW 4080   3.805   3.049   4.276 -0.3246 -0.7241 -0.2674
 1021SOL     OW 4081   5.138   2.028   4.863  0.1887  0.1088 -0.2569
 1021SOL    HW1 4082   5.089   1.972   4.924 -0.4748  0.2064 -0.6863
 1021SOL    HW2 4083   5.227   1.992   4.863  0.0587 -0.2215  0.3550
 1021SOL     MW 4084   5.143   2.016   4.870  0.0872  0.0790 -0.2335
 1022SOL     OW 4085   2.262   5.343   2.158  0.5616 -0.5344 -0.1098
 1022SOL    HW1 4086   2.279   5.267   2.103 -1.4780 -1.3578  0.3202
 1022SOL    HW2 4087   2.349   5.382   2.172  1.2619 -0.8853 -2.9707
 1022SOL     MW 4088   2.276   5.338   2.153  0.3902 -0.6847 -0.4210
 1023SOL     OW 4089   5.119   4.544   0.038 -0.3050 -0.9973 -0.1888
 1023SOL    HW1 4090   5.025   4.552   0.053 -0.3410 -1.4467 -0.1619
 1023SOL    HW2 4091   5.135   4.450   0.034  0.0718 -0.9160 -0.6658
 1023SOL     MW 4092   5.109   4.533   0.039 -0.2614 -1.0444 -0.2464
 1024SOL     OW 4093   4.829   5.014   5.080  0.1336  0.5737  0.2409
 1024SOL    HW1 4094   4.744   5.047   5.108  0.0535  0.7323 -0.1840
 1024SOL    HW2 4095   4.879   5.093   5.057 -0.6703  0.3505 -2.5234
 1024SOL     MW 4096   4.825   5.029   5.081  0.0204  0.5655 -0.1674
 1025SOL     OW 4097   2.249   4.619   0.047 -0.0971  0.0074  0.2190
 1025SOL    HW1 4098   2.321   4.565   0.015 -0.3638 -0.5948  0.6011
 1025SOL    HW2 4099   2.215   4.663  -0.031 -0.2836 -0.8861 -0.2249
 1025SOL     MW 4100   2.254   4.618   0.033 -0.1551 -0.1840  0.2111
 1026SOL     OW 4101   3.119   5.403   2.063  0.5701 -0.0544 -0.5350
 1026SOL    HW1 4102   3.180   5.457   2.013  1.6185  0.4300  1.1960
 1026SOL    HW2 4103   3.163   5.387   2.146 -1.7325  0.4558  0.8726
 1026SOL     MW 4104   3.133   5.408   2.067  0.4096  0.0729 -0.1332
 1027SOL     OW 4105   2.340   4.104   4.771  0.0228  0.5364  0.7418
 1027SOL    HW1 4106   2.424   4.059   4.756 -0.4130  0.0641 -0.4238
 1027SOL    HW2 4107   2.297   4.050   4.838 -0.5943 -1.0012 -0.8079
 1027SOL     MW 4108   2.346   4.091   4.778 -0.1120  0.2791  0.3942
 1028SOL     OW 4109   5.081   2.979   4.630 -0.0863  0.2525  0.6129
 1028SOL    HW1 4110   5.027   3.058   4.633  1.3768  1.3155 -0.0793
 1028SOL    HW2 4111   5.017   2.907   4.634 -1.4343  1.4331  1.5541
 1028SOL     MW 4112   5.066   2.980   4.631 -0.0715  0.5397  0.6448
 1029SOL     OW 4113   4.198   4.639   3.173 -0.3699  0.1600  0.3830
 1029SOL    HW1 4114   4.268   4.677   3.120 -0.4565  1.8451  1.4139
 1029SOL    HW2 4115   4.204   4.684   3.257 -1.0816 -1.5044  1.3743
 1029SOL     MW 4116   4.207   4.650   3.177 -0.4721  0.1627  0.6419
 1030SOL     OW 4117   1.688   5.245   4.335 -0.1832 -0.8512 -0.2395
 1030SOL    HW1 4118   1.670   5.222   4.244 -1.2699  0.6861 -0.4453
 1030SOL    HW2 4119   1.709   5.338   4.333  0.1989 -0.8860  1.0414
 1030SOL     MW 4120   1.689   5.254   4.323 -0.2734 -0.6588 -0.1018
 1031SOL     OW 4121   3.088   3.359   4.589  0.1890  0.4962 -0.4147
 1031SOL    HW1 4122   2.996   3.379   4.571 -0.1167  1.1059  1.5416
 1031SOL    HW2 4123   3.108   3.285   4.532 -1.8601 -0.4258 -0.0401
 1031SOL     MW 4124   3.079   3.352   4.579 -0.1124  0.4562 -0.1163
 1032SOL     OW 4125   2.970   1.097   2.655  0.0221 -0.1370  0.0008
 1032SOL    HW1 4126   2.881   1.117   2.626  0.7698  1.1083 -1.5474
 1032SOL    HW2 4127   3.020   1.176   2.636  1.6361 -1.0876  0.1275
 1032SOL     MW 4128   2.965   1.109   2.649  0.3244 -0.0993 -0.1812
 1033SOL     OW 4129   1.220   0.769   2.329  0.5405 -0.8089 -0.0273
 1033SOL    HW1 4130   1.154   0.813   2.276  0.5191  1.2392  1.5771
 1033SOL    HW2 4131   1.303   0.802   2.294  0.5349  0.2533  0.8929
 1033SOL     MW 4132   1.222   0.779   2.318  0.5371 -0.4107  0.2959
 1034SOL     OW 4133   4.223   0.529   4.228  0.3123  0.5046 -0.0125
 1034SOL    HW1 4134   4.205   0.622   4.237  0.7438  0.4291  1.9187
 1034SOL    HW2 4135   4.316   0.519   4.247 -0.3879 -0.6789  3.6279
 1034SOL     MW 4136   4.232   0.540   4.232  0.2779  0.3434  0.7007
 1035SOL     OW 4137   3.557   0.843   0.313  0.6080  0.4070  0.0998
 1035SOL    HW1 4138   3.607   0.768   0.280  0.6012  0.5019 -0.1269
 1035SOL    HW2 4139   3.556   0.905   0.240 -0.3698  0.1488 -0.1199
 1035SOL     MW 4140   3.563   0.841   0.299  0.4820  0.3861  0.0426
 1036SOL     OW 4141   3.676   0.558   1.890  0.2226  0.9061 -0.5307
 1036SOL    HW1 4142   3.627   0.531   1.967  1.2833 -0.0015 -0.1483
 1036SOL    HW2 4143   3.692   0.652   1.903  0.0574  0.8425  0.1592
 1036SOL     MW 4144   3.672   0.567   1.901  0.3373  0.7817 -0.3934
 1037SOL     OW 4145   3.583   5.264   0.641  0.4706  0.3252  0.5695
 1037SOL    HW1 4146   3.551   5.174   0.633  2.2287 -0.2307 -0.5647
 1037SOL    HW2 4147   3.566   5.287   0.733  0.8904 -1.5255  1.1462
 1037SOL     MW 4148   3.577   5.256   0.652  0.7494  0.0171  0.4981
 1038SOL     OW 4149   4.352   1.940   1.551 -0.1916 -0.4240 -0.2087
 1038SOL    HW1 4150   4.262   1.944   1.584 -0.5196  0.7543 -1.1362
 1038SOL    HW2 4151   4.375   2.032   1.535  1.7283 -0.5720  1.3784
 1038SOL     MW 4152   4.343   1.953   1.553  0.0122 -0.2921 -0.1243
 1039SOL     OW 4153   5.375   1.483   4.725  0.3982  0.1533  0.5642
 1039SOL    HW1 4154   5.327   1.551   4.772  0.0468  0.7104 -0.5796
 1039SOL    HW2 4155   5.452   1.527   4.690 -0.7718  0.4828 -1.7932
 1039SOL     MW 4156   5.379   1.497   4.727  0.2035  0.2668  0.1160
 1040SOL     OW 4157   4.449   4.692   1.590 -0.3317  0.1207  0.4381
 1040SOL    HW1 4158   4.536   4.731   1.593  0.6962 -2.0270  0.6719
 1040SOL    HW2 4159   4.444   4.650   1.504 -0.9708 -0.1065  0.5725
 1040SOL     MW 4160   4.459   4.691   1.579 -0.2819 -0.1833  0.4852
 1041SOL     OW 4161   0.688   2.841   0.212 -0.0612  0.1489  0.3033
 1041SOL    HW1 4162   0.777   2.865   0.236 -0.1286 -0.1749  0.8989
 1041SOL    HW2 4163   0.635   2.863   0.289 -0.5909  0.8476 -0.2368
 1041SOL     MW 4164   0.692   2.847   0.225 -0.1376  0.1969  0.3104
 1042SOL     OW 4165   3.136   4.957   3.170  0.4553  0.0057 -0.1954
 1042SOL    HW1 4166   3.165   5.011   3.243  1.9570  1.3990 -1.7169
 1042SOL    HW2 4167   3.088   5.018   3.113 -1.0726 -1.1426 -0.2030
 1042SOL     MW 4168   3.133   4.972   3.172  0.4520  0.0371 -0.3912
 1043SOL     OW 4169   1.713   2.253   1.779 -0.6673  0.6918 -0.4411
 1043SOL    HW1 4170   1.727   2.213   1.865  1.0315  2.7135  0.3038
 1043SOL    HW2 4171   1.751   2.190   1.718  1.5947  0.8834  0.6508
 1043SOL     MW 4172   1.719   2.240   1.783 -0.1603  0.9751 -0.2059
 1044SOL     OW 4173   1.294   1.964   2.634 -0.0792  0.4665  0.0378
 1044SOL    HW1 4174   1.305   2.045   2.684 -1.1621 -0.7877  2.4865
 1044SOL    HW2 4175   1.200   1.954   2.625 -0.1953 -2.0352  2.6359
 1044SOL     MW 4176   1.284   1.973   2.639 -0.2327 -0.0143  0.6839
 1045SOL     OW 4177   4.455   4.325   4.619 -0.1743  0.5253  0.1313
 1045SOL    HW1 4178   4.506   4.402   4.593  0.7594  0.5590  1.9247
 1045SOL    HW2 4179   4.469   4.318   4.714  0.2787 -2.2318 -0.0747
 1045SOL     MW 4180   4.463   4.334   4.628  0.0032  0.1766  0.3345
 1046SOL     OW 4181   4.623   1.989   3.273 -0.4363  0.5243  0.1570
 1046SOL    HW1 4182   4.709   2.013   3.307 -0.2709 -0.3017  0.3298
 1046SOL    HW2 4183   4.625   1.894   3.266 -0.8710  0.5902 -1.0930
 1046SOL     MW 4184   4.634   1.980   3.276 -0.4708  0.4270  0.0191
 1047SOL     OW 4185   0.688   2.109   3.912  0.1228  0.0805 -0.1382
 1047SOL    HW1 4186   0.613   2.165   3.890 -0.5632 -0.5355  0.6087
 1047SOL    HW2 4187   0.757   2.139   3.853 -0.9178  0.1702 -1.3501
 1047SOL     MW 4188   0.687   2.120   3.901 -0.0982  0.0131 -0.1977
 1048SOL     OW 4189   5.437   0.969   0.189 -0.4299  0.0736  0.2934
 1048SOL    HW1 4190   5.491   0.974   0.268  0.7604  0.1045 -0.5041
 1048SOL    HW2 4191   5.485   1.019   0.124 -2.1484  1.3485 -0.0602
 1048SOL     MW 4192   5.450   0.976   0.191 -0.4975  0.2408  0.1460
 1049SOL     OW 4193   4.034   1.331   2.032  0.0201  0.2327  0.2646
 1049SOL    HW1 4194   4.086   1.410   2.046  1.5862 -0.8013  0.5723
 1049SOL    HW2 4195   4.046   1.311   1.939 -0.1586  0.1979  0.2484
 1049SOL     MW 4196   4.042   1.339   2.022  0.1977  0.0959  0.3019
 1050SOL     OW 4197   3.940   4.939   0.945  0.0137  0.1861  0.5309
 1050SOL    HW1 4198   3.923   4.972   1.034  2.0077  0.6197  0.7857
 1050SOL    HW2 4199   3.934   5.017   0.890 -1.0376 -0.0526  0.2826
 1050SOL     MW 4200   3.937   4.954   0.949  0.1344  0.2111  0.5317
 1051SOL     OW 4201   3.891   0.038   4.067  0.3779  0.0694  0.4971
 1051SOL    HW1 4202   3.818   0.099   4.055  1.0346  0.8935  0.5294
 1051SOL    HW2 4203   3.869  -0.038   4.013  0.3503  1.0646 -0.9389
 1051SOL     MW 4204   3.879   0.036   4.059  0.4584  0.3023  0.3174
 1052SOL     OW 4205   2.654   2.579   0.319 -0.2416 -0.4297 -0.3071
 1052SOL    HW1 4206   2.728   2.558   0.262 -0.8702 -1.2098 -0.8552
 1052SOL    HW2 4207   2.690   2.574   0.408 -0.0542 -2.7258 -0.4552
 1052SOL     MW 4208   2.668   2.576   0.323 -0.2980 -0.8235 -0.3962
 1053SOL     OW 4209   2.880   1.713   0.038 -0.0396 -0.6633 -0.0764
 1053SOL    HW1 4210   2.915   1.703   0.126  0.1955 -1.2457 -0.2322
 1053SOL    HW2 4211   2.843   1.628   0.016 -0.8318 -0.2857 -0.2328
 1053SOL     MW 4212   2.880   1.701   0.046 -0.1109 -0.6895 -0.1164
 1054SOL     OW 4213   3.220   0.197   5.009  0.2153  0.1159 -0.3241
 1054SOL    HW1 4214   3.220   0.188   5.104 -0.3296 -1.1534 -0.4223
 1054SOL    HW2 4215   3.308   0.229   4.988  1.1565 -1.8162  0.4392
 1054SOL     MW 4216   3.231   0.200   5.018  0.2661 -0.2939 -0.2390
 1055SOL     OW 4217   0.174   1.961   0.945  0.4759  0.1599  0.1420
 1055SOL    HW1 4218   0.116   2.021   0.992  0.8549 -0.2272  1.1131
 1055SOL    HW2 4219   0.117   1.917   0.881  0.2086  1.5810 -0.6357
 1055SOL     MW 4220   0.159   1.963   0.943  0.4902  0.2923  0.1667
 1056SOL     OW 4221   4.073   4.834   1.986 -0.4765  0.0691  0.2366
 1056SOL    HW1 4222   4.159   4.862   2.018 -0.9447  0.0600  1.5490
 1056SOL    HW2 4223   4.010   4.873   2.047 -1.3689 -0.5068 -0.2859
 1056SOL     MW 4224   4.076   4.842   1.998 -0.6506 -0.0058  0.3377
 1057SOL     OW 4225   5.009   2.889   2.271  0.2030  0.0215  0.3732
 1057SOL    HW1 4226   5.013   2.914   2.179  1.1666  1.1831  0.7045
 1057SOL    HW2 4227   5.100   2.873   2.296 -0.0888 -0.7434  1.0229
 1057SOL     MW 4228   5.021   2.890   2.263  0.2890  0.0723  0.4988
 1058SOL     OW 4229   2.273   2.759   3.140 -0.0034  0.2085 -0.3185
 1058SOL    HW1 4230   2.186   2.743   3.105  0.6894 -2.8509 -0.8806
 1058SOL    HW2 4231   2.286   2.692   3.207  1.9947  0.4398 -0.3999
 1058SOL     MW 4232   2.264   2.748   3.144  0.3411 -0.1535 -0.4009
 1059SOL     OW 4233   2.330   1.386   2.505  0.0475  0.3709 -0.8865
 1059SOL    HW1 4234   2.384   1.320   2.463 -0.9127 -0.9319 -0.1587
 1059SOL    HW2 4235   2.390   1.458   2.525  0.9194  0.1258 -2.5293
 1059SOL     MW 4236   2.344   1.387   2.502  0.0362  0.1727 -1.0036
 1060SOL     OW 4237   2.036   3.339   1.092  0.5267  0.3013  0.2095
 1060SOL    HW1 4238   2.015   3.378   1.008 -1.8166 -0.0826  0.5591
 1060SOL    HW2 4239   2.132   3.345   1.098  0.6189  1.7162 -1.7695
 1060SOL     MW 4240   2.046   3.345   1.082  0.2385  0.4333  0.0009
 1061SOL     OW 4241   4.747   2.060   4.756 -0.1106  0.7195  0.3893
 1061SOL    HW1 4242   4.686   2.059   4.831 -1.0541 -1.6457 -0.3120
 1061SOL    HW2 4243   4.755   1.968   4.731  1.6797  1.2643 -1.2667
 1061SOL     MW 4244   4.740   2.048   4.763 -0.0022  0.4865  0.0876
 1062SOL     OW 4245   1.258   4.466   2.400 -0.1502  0.1278  0.0932
 1062SOL    HW1 4246   1.203   4.530   2.447 -1.3763 -0.3488 -0.6421
 1062SOL    HW2 4247   1.281   4.510   2.318 -1.2793 -0.4648 -0.5660
 1062SOL     MW 4248   1.254   4.480   2.396 -0.4517 -0.0091 -0.0853
 1063SOL     OW 4249   0.882   2.791   3.767 -0.1037  0.5696 -0.5211
 1063SOL    HW1 4250   0.969   2.800   3.728  0.7304 -1.9159  0.5749
 1063SOL    HW2 4251   0.898   2.775   3.860 -1.9019  2.8134  0.2714
 1063SOL     MW 4252   0.895   2.790   3.774 -0.2271  0.5386 -0.2793
 1064SOL     OW 4253   4.347   2.585   3.430 -0.3565  0.0884 -0.7138
 1064SOL    HW1 4254   4.421   2.639   3.455 -0.1110 -0.7008  0.3221
 1064SOL    HW2 4255   4.356   2.575   3.335  0.2545  0.8663 -0.7507
 1064SOL     MW 4256   4.357   2.591   3.421 -0.2468  0.0870 -0.5859
 1065SOL     OW 4257   2.349   1.387   0.902 -0.2050  0.0697 -0.5412
 1065SOL    HW1 4258   2.312   1.302   0.926 -0.3340  0.1530 -0.4438
 1065SOL    HW2 4259   2.373   1.377   0.810 -2.3307  0.6339 -1.2256
 1065SOL     MW 4260   2.347   1.374   0.893 -0.4936  0.1526 -0.6163
 1066SOL     OW 4261   2.555   0.052   5.110 -0.0509 -0.1870 -0.1241
 1066SOL    HW1 4262   2.622   0.115   5.083 -0.0260 -0.8378 -1.7352
 1066SOL    HW2 4263   2.602  -0.032   5.118 -0.6230 -0.6288 -1.1762
 1066SOL     MW 4264   2.570   0.049   5.107 -0.1210 -0.3269 -0.4650
 1067SOL     OW 4265   3.619   1.495   4.262 -1.0556  0.1975  0.4507
 1067SOL    HW1 4266   3.703   1.539   4.249 -1.3547  0.4093 -0.9017
 1067SOL    HW2 4267   3.630   1.408   4.224 -1.2525 -0.0119  0.8609
 1067SOL     MW 4268   3.631   1.490   4.256 -1.1191  0.1978  0.3301
 1068SOL     OW 4269   1.563   2.892   4.244 -0.0448  0.0669 -0.0034
 1068SOL    HW1 4270   1.481   2.904   4.195  1.2041  0.9029 -2.0141
 1068SOL    HW2 4271   1.552   2.947   4.322 -0.7631  1.5591 -1.0977
 1068SOL     MW 4272   1.551   2.901   4.248  0.0231  0.3650 -0.4008
 1069SOL     OW 4273   4.249   1.498   2.033 -0.0915  0.1139  0.1551
 1069SOL    HW1 4274   4.278   1.534   2.117  0.9962 -0.7737  0.1822
 1069SOL    HW2 4275   4.314   1.529   1.970  0.6369 -1.4460  0.1140
 1069SOL     MW 4276   4.261   1.507   2.036  0.1410 -0.1994  0.1533
 1070SOL     OW 4277   1.054   1.723   5.110 -0.1746 -0.3572  0.0457
 1070SOL    HW1 4278   1.042   1.641   5.062  0.1794  0.2761 -1.1657
 1070SOL    HW2 4279   0.965   1.751   5.132 -0.3381 -0.7383 -0.1225
 1070SOL     MW 4280   1.041   1.716   5.106 -0.1502 -0.3249 -0.1309
 1071SOL     OW 4281   3.535   4.827   3.247 -0.1902  0.3560  0.4748
 1071SOL    HW1 4282   3.529   4.872   3.331 -0.6898  1.1373  0.0378
 1071SOL    HW2 4283   3.620   4.854   3.211 -0.5395  1.0540  0.1630
 1071SOL     MW 4284   3.546   4.836   3.253 -0.2989  0.5453  0.3789
 1072SOL     OW 4285   2.722   1.901   3.654 -0.0245  0.4166  0.6412
 1072SOL    HW1 4286   2.719   1.942   3.740  2.2598 -0.0310  0.9945
 1072SOL    HW2 4287   2.705   1.808   3.671 -0.2512  0.4299  0.4991
 1072SOL     MW 4288   2.719   1.894   3.667  0.2389  0.3610  0.6682
 1073SOL     OW 4289   3.988   3.238   4.946  0.1558 -0.5795 -0.4288
 1073SOL    HW1 4290   4.063   3.196   4.990  0.0924 -1.0818 -0.7910
 1073SOL    HW2 4291   3.923   3.168   4.939  0.4267 -0.7025 -1.9564
 1073SOL     MW 4292   3.989   3.223   4.951  0.1823 -0.6596 -0.6707
 1074SOL     OW 4293   2.706   1.641   1.952 -0.5077  0.0910  0.3894
 1074SOL    HW1 4294   2.616   1.647   1.985 -0.5215 -1.8263  0.8038
 1074SOL    HW2 4295   2.731   1.732   1.936 -3.3761  0.6098 -2.1179
 1074SOL     MW 4296   2.697   1.653   1.955 -0.8766 -0.0880  0.1215
 1075SOL     OW 4297   1.856   2.068   4.719 -0.3751  0.0943  0.1493
 1075SOL    HW1 4298   1.877   1.981   4.686  0.0663  0.5320 -0.7590
 1075SOL    HW2 4299   1.814   2.053   4.804 -0.4397 -1.0025 -0.0742
 1075SOL     MW 4300   1.853   2.055   4.726 -0.3269  0.0100  0.0044
 1076SOL     OW 4301   3.884   3.610   2.582 -0.7037  0.5330  0.3886
 1076SOL    HW1 4302   3.799   3.566   2.592  0.4406 -1.6482  1.2921
 1076SOL    HW2 4303   3.901   3.648   2.668 -1.0965  1.6739 -0.0232
 1076SOL     MW 4304   3.875   3.609   2.594 -0.6075  0.3998  0.4515
 1077SOL     OW 4305   3.664   1.431   2.351 -0.0399 -0.0233 -0.1599
 1077SOL    HW1 4306   3.569   1.422   2.346 -0.2967  0.1650  2.6373
 1077SOL    HW2 4307   3.697   1.344   2.327 -1.0076 -0.5386  0.2986
 1077SOL     MW 4308   3.656   1.419   2.347 -0.1966 -0.0652  0.2569
 1078SOL     OW 4309   0.595   4.585   5.449  0.0706  0.3549  0.0068
 1078SOL    HW1 4310   0.687   4.564   5.434  0.8661  2.6706  1.0617
 1078SOL    HW2 4311   0.564   4.617   5.364 -0.1662 -1.5584 -0.6735
 1078SOL     MW 4312   0.603   4.587   5.436  0.1421  0.4064  0.0547
 1079SOL     OW 4313   3.089   2.085   2.285 -0.1574  0.2966  0.1917
 1079SOL    HW1 4314   3.091   2.172   2.245 -0.2097 -0.2734 -1.0934
 1079SOL    HW2 4315   2.996   2.064   2.293 -0.1376 -0.1628 -0.6982
 1079SOL     MW 4316   3.078   2.094   2.281 -0.1616  0.1649 -0.0867
 1080SOL     OW 4317   1.926   3.643   2.136  0.0278  0.1584  0.0766
 1080SOL    HW1 4318   1.982   3.575   2.171  1.1452  0.8888 -0.2352
 1080SOL    HW2 4319   1.856   3.596   2.090  0.5385 -0.7597  0.2266
 1080SOL     MW 4320   1.924   3.628   2.135  0.2362  0.1344  0.0559
 1081SOL     OW 4321   5.099   3.613   2.063  0.4527  0.1264  0.0631
 1081SOL    HW1 4322   5.100   3.675   1.990 -0.6323  0.5074  0.3566
 1081SOL    HW2 4323   5.169   3.643   2.121  1.1143  0.0066 -0.6558
 1081SOL     MW 4324   5.108   3.625   2.061  0.3985  0.1598  0.0086
 1082SOL     OW 4325   5.463   0.173   0.725  0.1253 -0.4088 -0.1209
 1082SOL    HW1 4326   5.411   0.118   0.783 -0.6572  0.5794  0.1469
 1082SOL    HW2 4327   5.408   0.184   0.647  0.3768 -0.1889 -0.2694
 1082SOL     MW 4328   5.449   0.167   0.722  0.0573 -0.2541 -0.1056
 1083SOL     OW 4329   2.290   0.015   4.150 -0.5316  0.3722  0.1933
 1083SOL    HW1 4330   2.339   0.092   4.120 -0.2808 -0.0463 -0.5162
 1083SOL    HW2 4331   2.205   0.050   4.177 -0.9442  0.7426 -1.4505
 1083SOL     MW 4332   2.286   0.030   4.149 -0.5523  0.3661 -0.1079
 1084SOL     OW 4333   1.632   1.822   2.827 -0.1817  0.0681 -0.4618
 1084SOL    HW1 4334   1.547   1.804   2.867 -0.5955  0.6661 -1.0685
 1084SOL    HW2 4335   1.673   1.885   2.887  0.9201 -2.0987  1.2090
 1084SOL     MW 4336   1.627   1.828   2.840 -0.0936 -0.1328 -0.3256
 1085SOL     OW 4337   3.477   5.016   2.314  0.3879  0.2575 -0.3553
 1085SOL    HW1 4338   3.533   5.057   2.381 -0.4875 -0.7280  1.0486
 1085SOL    HW2 4339   3.496   5.064   2.234  2.1916  0.8811  0.3847
 1085SOL     MW 4340   3.487   5.027   2.312  0.5067  0.2112 -0.0809
 1086SOL     OW 4341   3.561   4.239   0.095 -0.3696  0.3480 -0.0819
 1086SOL    HW1 4342   3.540   4.245   0.188  0.4365 -0.4383  0.1584
 1086SOL    HW2 4343   3.475   4.238   0.052 -0.7400  1.2168  0.6049
 1086SOL     MW 4344   3.547   4.240   0.101 -0.3138  0.3586  0.0368
 1087SOL     OW 4345   3.756   3.352   2.780  0.0083 -0.0117 -0.3958
 1087SOL    HW1 4346   3.777   3.262   2.758  2.5166  0.8910 -2.1853
 1087SOL    HW2 4347   3.836   3.386   2.821 -1.1566  1.2082  0.9737
 1087SOL     MW 4348   3.769   3.345   2.782  0.1802  0.2600 -0.4495
 1088SOL     OW 4349   2.971   1.134   0.194  0.0582 -0.6940 -0.6161
 1088SOL    HW1 4350   3.012   1.054   0.224 -0.7961 -1.5430 -1.6215
 1088SOL    HW2 4351   2.878   1.113   0.188 -0.5645  1.1158  1.4485
 1088SOL     MW 4352   2.964   1.121   0.197 -0.1309 -0.5710 -0.4805
 1089SOL     OW 4353   3.942   0.178   1.772 -0.5565 -0.1054 -0.0300
 1089SOL    HW1 4354   3.904   0.143   1.852 -0.6816 -0.5585 -0.2822
 1089SOL    HW2 4355   3.896   0.261   1.758 -1.3451 -0.5603 -0.2323
 1089SOL     MW 4356   3.931   0.184   1.780 -0.6735 -0.2216 -0.0882
 1090SOL     OW 4357   2.972   2.713   4.719  0.1443  0.1627 -0.2231
 1090SOL    HW1 4358   3.048   2.765   4.744 -0.0443  0.6697 -0.6947
 1090SOL    HW2 4359   2.914   2.774   4.674  0.0218 -0.4995 -0.9872
 1090SOL     MW 4360   2.974   2.727   4.717  0.1044  0.1428 -0.3813
 1091SOL     OW 4361   3.438   0.412   4.557 -0.2767  0.3483 -0.1605
 1091SOL    HW1 4362   3.344   0.424   4.542 -0.4420 -0.7692 -0.1225
 1091SOL    HW2 4363   3.471   0.500   4.573 -1.3062  0.7685 -0.2488
 1091SOL     MW 4364   3.430   0.424   4.557 -0.4296  0.2590 -0.1669
 1092SOL     OW 4365   3.666   3.637   0.497 -0.3733  0.0054 -0.1010
 1092SOL    HW1 4366   3.627   3.679   0.420 -0.3234 -1.4849 -0.9786
 1092SOL    HW2 4367   3.734   3.698   0.525 -0.3104  0.5267 -1.3046
 1092SOL     MW 4368   3.669   3.650   0.491 -0.3589 -0.1186 -0.3674
 1093SOL     OW 4369   5.360   2.971   4.988  0.1553 -0.0507 -0.2347
 1093SOL    HW1 4370   5.384   2.982   5.080  0.5631 -0.4671 -0.2881
 1093SOL    HW2 4371   5.442   2.982   4.940 -0.4218  2.6641 -0.7755
 1093SOL     MW 4372   5.374   2.974   4.993  0.1336  0.2435 -0.3108
 1094SOL     OW 4373   1.335   2.464   1.729  0.4514  0.4369 -0.1353
 1094SOL    HW1 4374   1.398   2.533   1.752  1.1126 -0.3615  0.4994
 1094SOL    HW2 4375   1.292   2.497   1.650  1.4473  1.1513 -0.4077
 1094SOL     MW 4376   1.338   2.477   1.722  0.6636  0.4262 -0.0889
 1095SOL     OW 4377   0.569   3.042   4.164 -0.2467  0.5026 -0.7933
 1095SOL    HW1 4378   0.531   3.110   4.219  0.8315  0.4473  0.0242
 1095SOL    HW2 4379   0.613   3.090   4.094 -0.0159  0.6233 -0.5644
 1095SOL     MW 4380   0.570   3.057   4.162 -0.0792  0.5110 -0.6593
 1096SOL     OW 4381   1.967   0.762   2.994  0.2444 -0.2008 -0.0255
 1096SOL    HW1 4382   1.912   0.791   2.921 -1.8869  0.0536  1.5898
 1096SOL    HW2 4383   2.007   0.681   2.963 -1.0489 -0.4011 -1.2778
 1096SOL     MW 4384   1.965   0.756   2.980 -0.1940 -0.1939  0.0209
 1097SOL     OW 4385   3.414   4.701   4.613 -0.6406 -0.3361 -0.0853
 1097SOL    HW1 4386   3.484   4.640   4.636 -0.4699 -0.7166 -1.5536
 1097SOL    HW2 4387   3.447   4.786   4.643 -0.0336 -0.6668  0.2199
 1097SOL     MW 4388   3.427   4.704   4.620 -0.5410 -0.4272 -0.2342
 1098SOL     OW 4389   5.450   4.449   5.486  0.2053 -0.5891  0.5384
 1098SOL    HW1 4390   5.399   4.499   5.422  0.1605 -0.6601  0.5184
 1098SOL    HW2 4391   5.497   4.384   5.434  1.0681  0.0868  0.4402
 1098SOL     MW 4392   5.449   4.447   5.471  0.3100 -0.5117  0.5233
 1099SOL     OW 4393   1.742   0.696   3.578 -0.5070  0.3030 -0.0234
 1099SOL    HW1 4394   1.766   0.775   3.625  1.3244  1.9310 -3.3658
 1099SOL    HW2 4395   1.647   0.703   3.566 -0.6538  0.9603  1.3316
 1099SOL     MW 4396   1.733   0.707   3.582 -0.2914  0.5955 -0.2778
 1100SOL     OW 4397   5.240   0.335   0.911  0.0535 -0.0181 -0.3677
 1100SOL    HW1 4398   5.326   0.310   0.876 -0.7215 -0.0647 -2.3783
 1100SOL    HW2 4399   5.210   0.258   0.959  0.4711 -0.5793 -0.9886
 1100SOL     MW 4400   5.248   0.322   0.912  0.0077 -0.0960 -0.7045
 1101SOL     OW 4401   2.760   2.817   0.720  0.2802  0.1459 -0.2927
 1101SOL    HW1 4402   2.730   2.728   0.738 -0.4103  0.5315  0.5515
 1101SOL    HW2 4403   2.699   2.874   0.767  0.1547  1.1236 -1.5787
 1101SOL     MW 4404   2.749   2.813   0.729  0.1758  0.3204 -0.3492
 1102SOL     OW 4405   2.877   5.163   5.355  0.3698  0.2686  0.4709
 1102SOL    HW1 4406   2.942   5.127   5.294 -0.4739  1.2661 -1.0952
 1102SOL    HW2 4407   2.827   5.087   5.384  1.1144 -0.2930  0.3250
 1102SOL     MW 4408   2.879   5.149   5.351  0.3571  0.3244  0.2517
 1103SOL     OW 4409   0.516   5.192   1.803 -0.0465  0.0250 -0.4672
 1103SOL    HW1 4410   0.464   5.153   1.732  0.9840  1.9801 -2.4125
 1103SOL    HW2 4411   0.606   5.171   1.780  0.2716 -0.0032  0.7538
 1103SOL     MW 4412   0.521   5.184   1.791  0.1261  0.2717 -0.5600
 1104SOL     OW 4413   2.664   5.283   5.219 -0.1759  0.5036 -0.3191
 1104SOL    HW1 4414   2.741   5.276   5.275  0.1639  0.9229 -0.7280
 1104SOL    HW2 4415   2.683   5.226   5.144 -1.5091 -1.7363  0.9374
 1104SOL     MW 4416   2.676   5.275   5.216 -0.3031  0.2705 -0.2106
 1105SOL     OW 4417   3.646   2.037   3.001  0.1869 -0.2897  0.0289
 1105SOL    HW1 4418   3.554   2.038   3.029  0.4341 -0.3841  0.8896
 1105SOL    HW2 4419   3.645   1.996   2.915 -0.2789 -2.7779  1.1372
 1105SOL     MW 4420   3.634   2.032   2.994  0.1589 -0.6203  0.2810
 1106SOL     OW 4421   5.441   5.065   3.039  0.0277 -0.5125  0.3339
 1106SOL    HW1 4422   5.466   4.983   2.997  0.0491 -0.0505 -0.5910
 1106SOL    HW2 4423   5.451   5.131   2.970 -0.5293  0.1778  0.8980
 1106SOL     MW 4424   5.445   5.063   3.024 -0.0409 -0.3650  0.2877
 1107SOL     OW 4425   2.295   2.965   4.711  0.3641  0.4293  0.4486
 1107SOL    HW1 4426   2.234   2.990   4.780  1.2313  0.3507  1.2634
 1107SOL    HW2 4427   2.269   3.019   4.636 -1.0879 -0.0579  0.5725
 1107SOL     MW 4428   2.284   2.975   4.710  0.2893  0.3569  0.5688
 1108SOL     OW 4429   1.587   2.076   1.005  0.3783 -0.1828 -0.0280
 1108SOL    HW1 4430   1.606   1.983   0.994  2.8800  0.3484 -0.7525
 1108SOL    HW2 4431   1.671   2.120   0.992 -0.9866  2.3103 -1.1638
 1108SOL     MW 4432   1.600   2.070   1.002  0.5238  0.2044 -0.2662
 1109SOL     OW 4433   2.346   4.585   4.277  0.3538 -0.1227  0.2713
 1109SOL    HW1 4434   2.338   4.578   4.182 -0.8234 -0.2442  0.3682
 1109SOL    HW2 4435   2.288   4.517   4.311 -0.5048  0.9678  1.0859
 1109SOL     MW 4436   2.337   4.575   4.269  0.0932  0.0013  0.3880
 1110SOL     OW 4437   2.984   1.393   4.054 -0.2358  0.0378 -0.1995
 1110SOL    HW1 4438   2.947   1.479   4.034 -0.7057 -0.1143 -0.0001
 1110SOL    HW2 4439   3.048   1.411   4.123  2.0375  0.6908 -2.3342
 1110SOL     MW 4440   2.987   1.407   4.061 -0.0050  0.1019 -0.4472
 1111SOL     OW 4441   0.441   0.867   2.374 -0.4284 -0.1712  0.8490
 1111SOL    HW1 4442   0.391   0.939   2.412 -1.1315 -0.4468  0.4714
 1111SOL    HW2 4443   0.532   0.890   2.391 -0.5980  1.1873  0.0872
 1111SOL     MW 4444   0.446   0.879   2.381 -0.5401 -0.0326  0.7031
 1112SOL     OW 4445   0.158   0.268   5.323  0.1353 -0.5050 -0.4095
 1112SOL    HW1 4446   0.174   0.359   5.298  2.0203 -1.2169 -2.0313
 1112SOL    HW2 4447   0.131   0.273   5.415  0.8073  1.6414 -0.2739
 1112SOL     MW 4448   0.156   0.280   5.331  0.4626 -0.3214 -0.5997
 1113SOL     OW 4449   2.667   3.532   1.874  0.1374  0.1694 -0.3669
 1113SOL    HW1 4450   2.730   3.604   1.873  2.0529 -1.4198 -1.2168
 1113SOL    HW2 4451   2.701   3.472   1.941 -2.2642  0.6869  1.4443
 1113SOL     MW 4452   2.679   3.533   1.883  0.0752  0.0322 -0.2438
 1114SOL     OW 4453   2.692   2.994   0.512  0.0082  0.0746 -0.0339
 1114SOL    HW1 4454   2.738   3.075   0.490  0.2302 -0.2286 -0.6846
 1114SOL    HW2 4455   2.757   2.942   0.559 -0.0252  0.1246  0.0684
 1114SOL     MW 4456   2.706   2.998   0.515  0.0323  0.0422 -0.1041
 1115SOL     OW 4457   0.001   2.709   0.227  0.2301  0.6178  0.0039
 1115SOL    HW1 4458   0.097   2.701   0.234  0.0510 -0.2887  2.7239
 1115SOL    HW2 4459  -0.027   2.733   0.315 -2.1007  0.7291 -0.7005
 1115SOL     MW 4460   0.010   2.711   0.239 -0.0912  0.5160  0.2619
 1116SOL     OW 4461   2.227   2.006   0.170  0.4884 -0.1530 -0.0947
 1116SOL    HW1 4462   2.141   1.982   0.136  0.0279 -1.1488  1.6186
 1116SOL    HW2 4463   2.289   1.951   0.121  0.0313 -0.2984 -0.5177
 1116SOL     MW 4464   2.224   1.996   0.160  0.3710 -0.2991  0.0704
 1117SOL     OW 4465   3.494   1.523   4.857 -0.3986  0.0970 -0.1095
 1117SOL    HW1 4466   3.486   1.588   4.787 -2.2195 -0.2206 -0.2325
 1117SOL    HW2 4467   3.470   1.569   4.937  1.0807  0.2935  0.2583
 1117SOL     MW 4468   3.490   1.537   4.858 -0.4423  0.0815 -0.0782
 1118SOL     OW 4469   2.644   4.747   5.216  0.4899 -0.3761  0.6335
 1118SOL    HW1 4470   2.673   4.682   5.152  0.1195  0.6994 -0.6816
 1118SOL    HW2 4471   2.586   4.805   5.167  1.1766  1.2345  1.6103
 1118SOL     MW 4472   2.640   4.746   5.201  0.5304 -0.0322  0.5902
 1119SOL     OW 4473   2.120   2.101   3.606 -0.1864  0.0384  0.6724
 1119SOL    HW1 4474   2.119   2.195   3.591  0.4992  0.0418  0.5784
 1119SOL    HW2 4475   2.037   2.082   3.647 -0.0276  0.8019  1.3677
 1119SOL     MW 4476   2.109   2.111   3.609 -0.0783  0.1365  0.7494
 1120SOL     OW 4477   4.463   1.193   2.646 -0.8576 -0.2118  0.2983
 1120SOL    HW1 4478   4.387   1.135   2.652  0.0980 -1.6292 -0.4860
 1120SOL    HW2 4479   4.538   1.133   2.643  0.3160  1.1479  1.2349
 1120SOL     MW 4480   4.463   1.178   2.646 -0.5851 -0.2192  0.3178
 1121SOL     OW 4481   3.300   0.816   0.697  0.5249  0.0745  0.0491
 1121SOL    HW1 4482   3.278   0.886   0.758 -0.0608 -0.6568  0.7023
 1121SOL    HW2 4483   3.253   0.839   0.617 -0.1291  0.1431  0.4416
 1121SOL     MW 4484   3.291   0.828   0.695  0.3662 -0.0104  0.1830
 1122SOL     OW 4485   2.637   3.108   5.317  0.4315 -1.0763 -0.2880
 1122SOL    HW1 4486   2.558   3.145   5.355  1.7224 -1.1952  2.9227
 1122SOL    HW2 4487   2.608   3.028   5.273 -1.4447 -0.0389 -1.0196
 1122SOL     MW 4488   2.623   3.102   5.317  0.3566 -0.9587  0.0293
 1123SOL     OW 4489   2.787   4.801   4.285  0.1849 -0.6238  0.3156
 1123SOL    HW1 4490   2.783   4.829   4.193 -2.4100  0.1600  0.5827
 1123SOL    HW2 4491   2.764   4.879   4.335 -4.2279 -2.1798  1.2261
 1123SOL     MW 4492   2.783   4.814   4.279 -0.7122 -0.7227  0.4664
 1124SOL     OW 4493   1.581   5.191   1.442 -0.0749  0.0943  0.0228
 1124SOL    HW1 4494   1.625   5.122   1.392 -1.1416  0.7445 -1.9252
 1124SOL    HW2 4495   1.624   5.272   1.413 -0.4369  0.4474  0.4701
 1124SOL     MW 4496   1.592   5.193   1.432 -0.2578  0.2227 -0.1693
 1125SOL     OW 4497   1.456   3.385   3.866  0.3059 -0.3767 -0.2359
 1125SOL    HW1 4498   1.438   3.428   3.782 -2.5333 -0.1258  0.4044
 1125SOL    HW2 4499   1.431   3.293   3.851  1.1873 -0.6491 -0.0671
 1125SOL     MW 4500   1.450   3.378   3.853  0.0553 -0.3794 -0.1323
 1126SOL     OW 4501   0.661   2.795   1.277 -0.5282  0.2852  1.0752
 1126SOL    HW1 4502   0.687   2.769   1.365  0.1646  0.9414  1.0793
 1126SOL    HW2 4503   0.590   2.858   1.291 -0.1222  0.7262  1.1939
 1126SOL     MW 4504   0.655   2.800   1.290 -0.3876  0.4256  1.0909
 1127SOL     OW 4505   1.930   4.839   0.906  0.3118 -0.1679 -0.4754
 1127SOL    HW1 4506   1.976   4.839   0.822  0.2056 -0.3459 -0.5332
 1127SOL    HW2 4507   1.975   4.772   0.958  1.2580  0.8776  0.0921
 1127SOL     MW 4508   1.942   4.830   0.902  0.4193 -0.0569 -0.4101
 1128SOL     OW 4509   4.784   5.242   4.505  0.3924  0.0244  0.0857
 1128SOL    HW1 4510   4.831   5.260   4.423 -0.2577 -0.0285 -0.3028
 1128SOL    HW2 4511   4.750   5.153   4.493  0.1259  0.0932  0.3359
 1128SOL     MW 4512   4.786   5.233   4.493  0.2750  0.0264  0.0680
 1129SOL     OW 4513   1.518   2.256   5.167  0.4929 -0.0422  0.4181
 1129SOL    HW1 4514   1.598   2.280   5.120  0.5096 -0.5044  0.1974
 1129SOL    HW2 4515   1.458   2.329   5.154 -0.8490 -1.5710 -3.4253
 1129SOL     MW 4516   1.520   2.268   5.159  0.3232 -0.2971 -0.1021
 1130SOL     OW 4517   3.665   5.035   3.460 -0.3311 -0.1418  0.0476
 1130SOL    HW1 4518   3.760   5.044   3.466 -0.3142 -0.3330  0.0913
 1130SOL    HW2 4519   3.638   5.019   3.551 -0.5607  1.3243  0.2515
 1130SOL     MW 4520   3.674   5.034   3.473 -0.3584  0.0214  0.0793
 1131SOL     OW 4521   3.791   2.263   0.468 -0.4766 -0.2932  0.2670
 1131SOL    HW1 4522   3.873   2.280   0.422  0.1284 -2.3496  0.4517
 1131SOL    HW2 4523   3.723   2.297   0.410  0.4062 -0.4851 -0.9130
 1131SOL     MW 4524   3.793   2.269   0.455 -0.2861 -0.5810  0.1396
 1132SOL     OW 4525   3.750   3.403   5.235 -0.1205 -0.1585 -0.4323
 1132SOL    HW1 4526   3.667   3.450   5.224 -0.6161 -1.0877 -0.8009
 1132SOL    HW2 4527   3.725   3.311   5.241  0.6545 -0.2779  2.2968
 1132SOL     MW 4528   3.736   3.397   5.234 -0.0847 -0.2927 -0.1301
 1133SOL     OW 4529   1.527   5.009   1.665  0.1306 -0.3595  0.3506
 1133SOL    HW1 4530   1.560   5.064   1.595  2.2967 -2.4370 -0.4119
 1133SOL    HW2 4531   1.567   5.045   1.745  0.9046 -0.3256 -0.0398
 1133SOL     MW 4532   1.537   5.021   1.666  0.5070 -0.6211  0.2030
 1134SOL     OW 4533   2.427   3.075   3.510 -0.0642 -0.8315  0.0757
 1134SOL    HW1 4534   2.417   3.048   3.419  0.1290 -0.9494  0.0881
 1134SOL    HW2 4535   2.403   3.168   3.511 -2.0202 -1.2928  0.2685
 1134SOL     MW 4536   2.423   3.083   3.498 -0.2899 -0.9056  0.1019
 1135SOL     OW 4537   0.674   0.081   2.942 -0.1528 -0.0779 -0.0794
 1135SOL    HW1 4538   0.765   0.061   2.922 -0.2220 -1.8460  1.1749
 1135SOL    HW2 4539   0.677   0.165   2.987  1.0946 -0.9405  1.5571
 1135SOL     MW 4540   0.686   0.089   2.945 -0.0020 -0.4146  0.2906
 1136SOL     OW 4541   4.557   3.930   2.386 -0.3144  0.0774 -0.1017
 1136SOL    HW1 4542   4.462   3.917   2.388 -0.2405 -0.8776 -1.5144
 1136SOL    HW2 4543   4.589   3.869   2.320  1.5404 -1.1561  1.7770
 1136SOL     MW 4544   4.549   3.920   2.378 -0.0675 -0.2028 -0.0420
 1137SOL     OW 4545   0.493   1.568   3.290 -0.0336 -0.1563 -1.0650
 1137SOL    HW1 4546   0.429   1.497   3.292 -0.8104  0.5343  0.9724
 1137SOL    HW2 4547   0.566   1.537   3.343 -0.1014  0.3221 -0.6870
 1137SOL     MW 4548   0.494   1.555   3.297 -0.1418 -0.0067 -0.7558
 1138SOL     OW 4549   5.034   1.844   1.726 -0.4324  0.1402 -0.3386
 1138SOL    HW1 4550   4.973   1.823   1.797 -1.2374 -0.1806 -1.1121
 1138SOL    HW2 4551   5.022   1.938   1.711 -0.6484  0.0998 -0.4144
 1138SOL     MW 4552   5.025   1.853   1.733 -0.5631  0.0940 -0.4473
 1139SOL     OW 4553   5.413   3.763   2.900  0.0107  0.2330 -0.3120
 1139SOL    HW1 4554   5.460   3.840   2.868 -0.7139  0.8929  0.1808
 1139SOL    HW2 4555   5.476   3.692   2.894 -0.1016  0.2650 -3.3622
 1139SOL     MW 4556   5.427   3.764   2.895 -0.0964  0.3216 -0.6394
 1140SOL     OW 4557   0.977   0.903   0.501  0.1084  0.0137  0.1030
 1140SOL    HW1 4558   0.949   0.848   0.428  0.5115 -1.0821  0.7574
 1140SOL    HW2 4559   0.899   0.909   0.557 -0.6881  2.0994 -1.0972
 1140SOL     MW 4560   0.963   0.897   0.499  0.0580  0.1404  0.0331
 1141SOL     OW 4561   4.047   0.299   0.613 -0.5772 -0.0526  0.2794
 1141SOL    HW1 4562   4.051   0.210   0.578 -0.8798  0.8920 -2.3893
 1141SOL    HW2 4563   4.001   0.289   0.697  0.4258 -2.5139  0.6463
 1141SOL     MW 4564   4.042   0.286   0.619 -0.4875 -0.2468 -0.0152
 1142SOL     OW 4565   0.521   4.216   3.962  0.0233 -0.1263  0.4538
 1142SOL    HW1 4566   0.426   4.218   3.948 -0.0092 -0.5037  0.6212
 1142SOL    HW2 4567   0.547   4.308   3.957 -0.3909  0.0087  0.6672
 1142SOL     MW 4568   0.512   4.228   3.960 -0.0339 -0.1573  0.5025
 1143SOL     OW 4569   0.855   1.923   0.975  0.3801 -0.2368  0.3499
 1143SOL    HW1 4570   0.944   1.935   0.940  0.3797 -0.8975  0.1026
 1143SOL    HW2 4571   0.809   1.874   0.907  0.1004 -0.7091  0.8706
 1143SOL     MW 4572   0.861   1.918   0.962  0.3443 -0.3818  0.3849
 1144SOL     OW 4573   4.454   4.330   3.245 -0.0004 -0.5827 -0.1663
 1144SOL    HW1 4574   4.508   4.374   3.311 -0.1168 -0.6356 -0.0366
 1144SOL    HW2 4575   4.365   4.358   3.263  0.0228 -0.1865 -0.6269
 1144SOL     MW 4576   4.450   4.339   3.255 -0.0123 -0.5388 -0.2086
 1145SOL     OW 4577   4.881   3.452   0.367 -0.2929 -0.0343  0.3128
 1145SOL    HW1 4578   4.925   3.530   0.333  0.0821 -0.8564 -1.1415
 1145SOL    HW2 4579   4.799   3.446   0.318 -0.3709 -0.4952  0.4905
 1145SOL     MW 4580   4.876   3.461   0.357 -0.2549 -0.1985  0.1494
 1146SOL     OW 4581   3.556   3.352   0.475 -0.3901  0.4103  0.5536
 1146SOL    HW1 4582   3.639   3.340   0.429 -0.3957 -1.2906  0.9105
 1146SOL    HW2 4583   3.578   3.407   0.550  0.3937  0.1040  0.5610
 1146SOL     MW 4584   3.570   3.357   0.479 -0.2905  0.1534  0.6002
 1147SOL     OW 4585   3.587   4.655   1.799  0.2490 -0.0579  0.0971
 1147SOL    HW1 4586   3.681   4.649   1.815 -0.1269 -2.5100  2.0261
 1147SOL    HW2 4587   3.547   4.632   1.883 -2.0578 -0.4077 -1.0165
 1147SOL     MW 4588   3.594   4.651   1.812 -0.0944 -0.4166  0.2014
 1148SOL     OW 4589   4.054   1.477   4.717 -0.2956 -0.0617  0.1881
 1148SOL    HW1 4590   4.026   1.437   4.634  0.5821 -1.9463  0.7492
 1148SOL    HW2 4591   4.140   1.438   4.735  0.6812  2.2087  0.7592
 1148SOL     MW 4592   4.061   1.467   4.709 -0.0582 -0.0123  0.3330
 1149SOL     OW 4593   4.510   0.307   0.685 -0.2514  0.4373 -0.1428
 1149SOL    HW1 4594   4.593   0.277   0.646 -0.1513  0.5459 -0.0150
 1149SOL    HW2 4595   4.455   0.328   0.610  0.1318  1.1645 -0.2362
 1149SOL     MW 4596   4.514   0.306   0.670 -0.1896  0.5443 -0.1384
 1150SOL     OW 4597   3.692   0.211   2.518  0.2878 -0.2317 -0.2602
 1150SOL    HW1 4598   3.739   0.254   2.589  0.1386  0.2870 -0.4720
 1150SOL    HW2 4599   3.751   0.141   2.489  0.5858 -0.0882 -0.0029
 1150SOL     MW 4600   3.706   0.207   2.524  0.3068 -0.1469 -0.2544
 1151SOL     OW 4601   2.232   1.525   2.283 -0.4609 -0.1618  0.0778
 1151SOL    HW1 4602   2.291   1.494   2.215 -0.1101  1.2767 -0.3061
 1151SOL    HW2 4603   2.270   1.491   2.364  0.9705  0.7775 -0.1553
 1151SOL     MW 4604   2.244   1.517   2.285 -0.2328  0.1426 -0.0012
 1152SOL     OW 4605   2.166   3.918   2.215  0.4667  0.0054 -0.5550
 1152SOL    HW1 4606   2.073   3.938   2.223  0.0746 -1.2479 -1.7232
 1152SOL    HW2 4607   2.200   3.931   2.304 -1.0594 -0.6733  0.1774
 1152SOL     MW 4608   2.158   3.922   2.228  0.2211 -0.2419 -0.6108
 1153SOL     OW 4609   3.386   4.125   2.561  0.2225 -0.4196  0.3873
 1153SOL    HW1 4610   3.326   4.078   2.618 -1.5530  2.0043  0.6860
 1153SOL    HW2 4611   3.463   4.142   2.617 -0.3909 -0.3579  1.2375
 1153SOL     MW 4612   3.388   4.121   2.576 -0.0833 -0.1014  0.5344
 1154SOL     OW 4613   0.696   3.368   4.486 -0.5229 -0.0300  0.4767
 1154SOL    HW1 4614   0.742   3.363   4.401 -0.4517 -0.0405  0.5153
 1154SOL    HW2 4615   0.699   3.278   4.519 -2.7950 -0.6097 -0.6729
 1154SOL     MW 4616   0.703   3.355   4.479 -0.8046 -0.1055  0.3345
 1155SOL     OW 4617   0.844   0.058   3.945  0.0440 -1.1822 -0.2049
 1155SOL    HW1 4618   0.775   0.025   4.001  0.6610  2.3505  3.0419
 1155SOL    HW2 4619   0.923   0.012   3.974  0.4240  0.8643  2.3284
 1155SOL     MW 4620   0.846   0.048   3.956  0.1716 -0.4680  0.5350
 1156SOL     OW 4621   3.449   4.892   1.494 -0.0300 -0.2229  0.0119
 1156SOL    HW1 4622   3.376   4.900   1.432 -0.8827  3.4220  1.2555
 1156SOL    HW2 4623   3.407   4.872   1.578  0.6904 -0.7374  0.2561
 1156SOL     MW 4624   3.434   4.890   1.496 -0.0469  0.1778  0.2024
 1157SOL     OW 4625   2.136   1.530   0.856 -0.4270 -0.3351 -0.2095
 1157SOL    HW1 4626   2.217   1.483   0.874  0.3281  1.3322  1.0173
 1157SOL    HW2 4627   2.164   1.618   0.830 -1.8217 -0.0597 -0.9295
 1157SOL     MW 4628   2.150   1.535   0.855 -0.5089 -0.0864 -0.1446
 1158SOL     OW 4629   0.957   5.324   4.917 -0.0904 -0.2872 -0.2148
 1158SOL    HW1 4630   0.870   5.358   4.935  0.5720  0.0563  3.1661
 1158SOL    HW2 4631   0.942   5.244   4.866 -2.2703  0.3810 -0.6993
 1158SOL     MW 4632   0.944   5.318   4.913 -0.2846 -0.1577  0.1560
 1159SOL     OW 4633   1.419   4.307   2.868 -0.1874  0.1066 -0.0273
 1159SOL    HW1 4634   1.511   4.323   2.845 -0.0011 -0.8985 -0.0564
 1159SOL    HW2 4635   1.381   4.270   2.788  0.0890 -2.0353  0.7815
 1159SOL     MW 4636   1.426   4.304   2.855 -0.1281 -0.2962  0.0725
 1160SOL     OW 4637   1.221   1.718   0.361 -0.0065  0.5013  0.0020
 1160SOL    HW1 4638   1.261   1.804   0.346  0.9305 -0.1919 -1.7519
 1160SOL    HW2 4639   1.127   1.734   0.352  0.1151  1.4553  0.3318
 1160SOL     MW 4640   1.214   1.731   0.358  0.1290  0.5347 -0.1803
 1161SOL     OW 4641   4.857   1.482   1.573 -0.2234 -0.2700 -0.3605
 1161SOL    HW1 4642   4.810   1.454   1.652 -0.3410  1.7948  0.3661
 1161SOL    HW2 4643   4.792   1.530   1.523 -0.0378 -1.2279 -1.5678
 1161SOL     MW 4644   4.843   1.484   1.577 -0.2147 -0.1283 -0.4221
 1162SOL     OW 4645   5.236   1.486   1.563  0.0947 -0.0167 -0.1117
 1162SOL    HW1 4646   5.176   1.551   1.526  0.4067 -0.1454 -0.8579
 1162SOL    HW2 4647   5.323   1.514   1.534  0.3757  0.0357  0.7653
 1162SOL     MW 4648   5.239   1.498   1.554  0.1706 -0.0265 -0.0950
 1163SOL     OW 4649   0.675   2.082   2.898  0.1286 -0.0188 -0.5431
 1163SOL    HW1 4650   0.601   2.022   2.906  0.0252  0.2037  0.2315
 1163SOL    HW2 4651   0.721   2.075   2.981  0.5853  0.3591 -0.7601
 1163SOL     MW 4652   0.671   2.074   2.910  0.1738  0.0580 -0.4717
 1164SOL     OW 4653   4.892   3.690   5.302  0.2850  0.3155 -0.1631
 1164SOL    HW1 4654   4.907   3.598   5.284  1.6294  0.6548 -0.9468
 1164SOL    HW2 4655   4.979   3.731   5.295 -0.3593  1.7250 -0.4154
 1164SOL     MW 4656   4.905   3.684   5.298  0.3746  0.5393 -0.2957
 1165SOL     OW 4657   1.367   3.931   1.014 -0.3048  0.5031 -0.0123
 1165SOL    HW1 4658   1.334   4.020   1.014 -1.0950  0.2420  1.4404
 1165SOL    HW2 4659   1.339   3.895   1.098  0.3379 -0.9887 -0.4028
 1165SOL     MW 4660   1.359   3.938   1.025 -0.3237  0.2787  0.1237
 1166SOL     OW 4661   5.331   1.911   5.279 -0.0062  0.0022  0.1410
 1166SOL    HW1 4662   5.306   1.989   5.230 -2.0248  0.0050  1.0693
 1166SOL    HW2 4663   5.426   1.910   5.275 -0.0392  0.4739 -2.9424
 1166SOL     MW 4664   5.340   1.921   5.273 -0.2688  0.0629 -0.1349
 1167SOL     OW 4665   3.430   2.894   1.551  0.4905 -0.0402 -0.3001
 1167SOL    HW1 4666   3.433   2.802   1.524  1.9274 -0.2093  0.3665
 1167SOL    HW2 4667   3.521   2.917   1.570  0.0228  1.2344  0.5206
 1167SOL     MW 4668   3.442   2.885   1.550  0.6146  0.1013 -0.1097
 1168SOL     OW 4669   5.034   5.302   3.215  0.2395  0.2877 -0.1694
 1168SOL    HW1 4670   5.112   5.356   3.228  1.4594 -1.6019  0.8033
 1168SOL    HW2 4671   5.068   5.222   3.175 -1.4866  0.1439 -1.4216
 1168SOL     MW 4672   5.049   5.299   3.211  0.1747  0.0274 -0.2052
 1169SOL     OW 4673   1.995   2.113   0.720  0.1444 -0.0205  0.5886
 1169SOL    HW1 4674   1.962   2.154   0.640  1.9810  0.5438  0.0602
 1169SOL    HW2 4675   1.951   2.028   0.723  1.5814 -1.0444 -2.2940
 1169SOL     MW 4676   1.985   2.107   0.710  0.5634 -0.0793  0.1519
 1170SOL     OW 4677   0.370   0.230   5.098  0.4463 -0.4159 -0.3588
 1170SOL    HW1 4678   0.434   0.199   5.163  1.5928 -0.8688 -1.6655
 1170SOL    HW2 4679   0.291   0.248   5.150  1.6902  0.4392  1.3538
 1170SOL     MW 4680   0.368   0.229   5.113  0.7523 -0.3644 -0.3068
 1171SOL     OW 4681   0.940   0.285   0.938 -0.4308  0.0987 -0.4150
 1171SOL    HW1 4682   0.908   0.374   0.948 -0.5915  0.1316 -1.1229
 1171SOL    HW2 4683   1.024   0.294   0.894  0.6003  0.0110  1.4354
 1171SOL     MW 4684   0.947   0.297   0.933 -0.3194  0.0916 -0.2688
 1172SOL     OW 4685   1.902   2.477   4.884  0.3070 -0.6810 -0.2453
 1172SOL    HW1 4686   1.922   2.550   4.825 -0.1857 -0.4312 -0.1117
 1172SOL    HW2 4687   1.969   2.411   4.864 -0.4358 -1.0209 -1.8189
 1172SOL     MW 4688   1.913   2.478   4.874  0.1489 -0.6925 -0.4296
 1173SOL     OW 4689   3.464   3.920   2.061  0.3405  0.1334  0.3067
 1173SOL    HW1 4690   3.400   3.960   2.002  0.4792  0.1271  0.1491
 1173SOL    HW2 4691   3.432   3.939   2.149 -1.1259 -1.8400  0.2514
 1173SOL     MW 4692   3.452   3.928   2.065  0.1705 -0.1200  0.2795
 1174SOL     OW 4693   0.965   0.455   4.251  0.4970  0.0338 -0.5110
 1174SOL    HW1 4694   0.870   0.449   4.242  0.5617 -0.0830 -1.1523
 1174SOL    HW2 4695   0.999   0.378   4.205  0.8615 -0.5932  0.7580
 1174SOL     MW 4696   0.957   0.445   4.244  0.5519 -0.0614 -0.4306
 1175SOL     OW 4697   1.045   2.864   4.865  0.4105  0.2763 -0.0847
 1175SOL    HW1 4698   1.023   2.856   4.772 -0.2362 -1.2581  0.1627
 1175SOL    HW2 4699   0.972   2.913   4.903  0.1496 -0.0226 -0.2031
 1175SOL     MW 4700   1.033   2.869   4.858  0.2943  0.0416 -0.0682
 1176SOL     OW 4701   2.516   1.561   1.357 -0.0066  0.1533  0.1634
 1176SOL    HW1 4702   2.521   1.577   1.263 -1.5127 -0.5237 -0.0727
 1176SOL    HW2 4703   2.475   1.640   1.392 -0.3676  0.0007  0.0940
 1176SOL     MW 4704   2.511   1.573   1.349 -0.2456  0.0471  0.1243
 1177SOL     OW 4705   2.977   4.273   4.736 -0.0325  0.0403 -0.0847
 1177SOL    HW1 4706   3.027   4.317   4.806 -0.6931 -0.1839  0.5451
 1177SOL    HW2 4707   3.028   4.289   4.657  1.1927 -0.4369  0.5795
 1177SOL     MW 4708   2.990   4.281   4.735  0.0398 -0.0495  0.0810
 1178SOL     OW 4709   3.853   0.432   1.745 -0.9367 -0.2318  0.2457
 1178SOL    HW1 4710   3.902   0.495   1.692  1.8401 -0.0232  2.8028
 1178SOL    HW2 4711   3.796   0.486   1.800  1.5973  0.2879  2.5914
 1178SOL     MW 4712   3.852   0.447   1.745 -0.2568 -0.1386  0.8733
 1179SOL     OW 4713   3.339   4.478   0.071  0.0258 -0.0231 -0.0871
 1179SOL    HW1 4714   3.316   4.385   0.075 -0.2144  0.0362 -0.1026
 1179SOL    HW2 4715   3.261   4.524   0.101 -0.0623  0.1976 -0.6385
 1179SOL     MW 4716   3.326   4.472   0.075 -0.0162  0.0128 -0.1597
 1180SOL     OW 4717   1.453   2.265   4.236 -0.1346  0.5200  0.4292
 1180SOL    HW1 4718   1.443   2.357   4.259  0.9265  0.2142  2.3902
 1180SOL    HW2 4719   1.378   2.222   4.277  0.3599  0.2960  1.1176
 1180SOL     MW 4720   1.442   2.271   4.244  0.0645  0.4522  0.7684
 1181SOL     OW 4721   3.034   2.017   4.218 -0.7853 -0.5603 -0.7623
 1181SOL    HW1 4722   2.962   2.017   4.282 -1.5968  1.6856 -1.5662
 1181SOL    HW2 4723   3.036   1.927   4.185 -0.9488 -1.5494  1.7026
 1181SOL     MW 4724   3.025   2.006   4.222 -0.9101 -0.3994 -0.5497
 1182SOL     OW 4725   3.727   5.032   5.123 -0.1382  0.2758 -0.2138
 1182SOL    HW1 4726   3.777   5.113   5.130 -0.7483  0.6674 -0.2534
 1182SOL    HW2 4727   3.648   5.048   5.175 -0.2842 -0.2790 -0.2529
 1182SOL     MW 4728   3.723   5.044   5.131 -0.2350  0.2549 -0.2239
 1183SOL     OW 4729   2.175   1.292   3.505  0.6664 -0.1120 -0.6758
 1183SOL    HW1 4730   2.236   1.344   3.556  0.3972  0.5642 -1.0352
 1183SOL    HW2 4731   2.102   1.351   3.486  0.0130 -0.8210 -0.4820
 1183SOL     MW 4732   2.173   1.306   3.509  0.5483 -0.1162 -0.6970
 1184SOL     OW 4733   0.062   0.563   1.479 -0.5214 -0.2405 -0.7778
 1184SOL    HW1 4734   0.061   0.658   1.494 -1.1025 -0.3329 -0.2185
 1184SOL    HW2 4735   0.122   0.529   1.545  0.8547 -0.1291 -1.9044
 1184SOL     MW 4736   0.070   0.571   1.489 -0.4196 -0.2380 -0.8504
 1185SOL     OW 4737   4.908   1.981   3.351  1.0825 -0.1642 -0.2120
 1185SOL    HW1 4738   4.954   1.906   3.314  1.0899  0.5408 -1.7158
 1185SOL    HW2 4739   4.914   2.049   3.284 -1.8415  0.0841 -0.3729
 1185SOL     MW 4740   4.914   1.980   3.338  0.7091 -0.0421 -0.4251
 1186SOL     OW 4741   2.842   4.251   0.456  0.4855  0.2084  0.5365
 1186SOL    HW1 4742   2.804   4.172   0.417 -0.9358  0.2638  1.7299
 1186SOL    HW2 4743   2.771   4.315   0.453  1.7695  1.6576 -0.8894
 1186SOL     MW 4744   2.828   4.249   0.450  0.4679  0.4010  0.5068
 1187SOL     OW 4745   2.008   5.169   2.631 -0.2640 -0.0127  0.4212
 1187SOL    HW1 4746   2.053   5.099   2.677  0.7291  0.3088 -0.0423
 1187SOL    HW2 4747   1.997   5.238   2.696  2.8900  1.2515 -0.2075
 1187SOL     MW 4748   2.012   5.169   2.645  0.2669  0.1903  0.2814
 1188SOL     OW 4749   4.789   0.672   1.226 -0.5962  0.2180  0.1307
 1188SOL    HW1 4750   4.720   0.681   1.292 -1.5247 -0.4234 -0.7110
 1188SOL    HW2 4751   4.792   0.578   1.208  2.5894 -0.2241  2.2895
 1188SOL     MW 4752   4.780   0.661   1.232 -0.3073  0.0793  0.2993
 1189SOL     OW 4753   0.292   5.222   0.211 -0.2932 -1.0613 -0.2211
 1189SOL    HW1 4754   0.358   5.215   0.279 -1.0129 -0.8501  0.5100
 1189SOL    HW2 4755   0.287   5.135   0.172  1.3343 -0.7727 -1.1823
 1189SOL     MW 4756   0.299   5.210   0.215 -0.1770 -0.9973 -0.2506
 1190SOL     OW 4757   1.106   0.519   2.289 -0.5679  1.0455  0.3119
 1190SOL    HW1 4758   1.128   0.604   2.327 -0.7671  1.2560 -0.0354
 1190SOL    HW2 4759   1.071   0.540   2.203 -1.1528  0.6458  0.4486
 1190SOL     MW 4760   1.105   0.533   2.283 -0.6683  1.0213  0.2849
 1191SOL     OW 4761   2.492   3.737   0.053  0.1566 -0.2268 -0.2836
 1191SOL    HW1 4762   2.409   3.709   0.092  0.3024 -1.4264 -0.7904
 1191SOL    HW2 4763   2.470   3.756  -0.039  0.2092  0.6752 -0.1249
 1191SOL     MW 4764   2.478   3.736   0.046  0.1820 -0.2649 -0.3282
 1192SOL     OW 4765   3.762   1.631   2.791  0.3213  0.1742  0.2362
 1192SOL    HW1 4766   3.726   1.584   2.865 -0.6003  0.5862  0.0618
 1192SOL    HW2 4767   3.781   1.563   2.726  0.8488 -0.1527  0.7278
 1192SOL     MW 4768   3.760   1.616   2.792  0.2708  0.1851  0.2768
 1193SOL     OW 4769   2.959   4.135   1.450 -0.0927  0.1021 -0.6275
 1193SOL    HW1 4770   3.025   4.101   1.389  0.7684 -1.0845  0.8973
 1193SOL    HW2 4771   3.011   4.171   1.522 -1.0973 -0.8518  0.5995
 1193SOL     MW 4772   2.974   4.135   1.451 -0.1111 -0.1719 -0.2753
 1194SOL     OW 4773   4.904   2.813   1.986 -0.1881 -0.5677 -0.2744
 1194SOL    HW1 4774   4.851   2.871   2.041  0.0194 -0.3184 -0.3375
 1194SOL    HW2 4775   4.848   2.736   1.971 -0.7195 -0.1024 -0.7343
 1194SOL     MW 4776   4.890   2.810   1.991 -0.2296 -0.4763 -0.3413
 1195SOL     OW 4777   3.635   4.535   1.183 -0.6555  0.2814 -0.0020
 1195SOL    HW1 4778   3.688   4.457   1.167  1.4805  1.6429 -0.0517
 1195SOL    HW2 4779   3.577   4.511   1.255  0.5389 -1.0952  0.5540
 1195SOL     MW 4780   3.634   4.522   1.190 -0.2291  0.2794  0.0628
 1196SOL     OW 4781   1.157   3.177   3.287  0.0004  0.0453 -0.5150
 1196SOL    HW1 4782   1.105   3.110   3.331  2.8035 -1.6126  0.4961
 1196SOL    HW2 4783   1.195   3.132   3.211  0.6460  0.9704 -0.7519
 1196SOL     MW 4784   1.155   3.163   3.283  0.4419 -0.0485 -0.4159
 1197SOL     OW 4785   2.382   4.404   1.361 -0.2893  0.0984 -0.3417
 1197SOL    HW1 4786   2.348   4.337   1.302  0.0027 -1.4416  1.1514
 1197SOL    HW2 4787   2.474   4.411   1.338 -0.4047  0.2619 -0.7576
 1197SOL     MW 4788   2.389   4.396   1.351 -0.2667 -0.0778 -0.2038
 1198SOL     OW 4789   3.011   0.827   1.811  0.1477  0.0740  0.1254
 1198SOL    HW1 4790   2.934   0.776   1.838 -0.4423  0.4432 -0.8186
 1198SOL    HW2 4791   3.052   0.774   1.743  1.0938 -0.4054  1.0394
 1198SOL     MW 4792   3.006   0.813   1.806  0.1932  0.0599  0.1215
 1199SOL     OW 4793   3.574   3.637   1.438  0.4427 -0.1885  0.5106
 1199SOL    HW1 4794   3.646   3.577   1.417 -0.8712 -1.5576 -0.2075
 1199SOL    HW2 4795   3.566   3.633   1.533  1.2867 -0.0246  0.6016
 1199SOL     MW 4796   3.582   3.629   1.447  0.3825 -0.3428  0.4304
 1200SOL     OW 4797   5.477   4.138   1.747 -0.0743 -0.2332  0.0310
 1200SOL    HW1 4798   5.410   4.203   1.728  2.2950  2.2726 -0.2571
 1200SOL    HW2 4799   5.431   4.071   1.799 -2.5747  1.7788  0.6073
 1200SOL     MW 4800   5.463   4.137   1.751 -0.0911  0.3451  0.0679
 1201SOL     OW 4801   1.178   3.549   3.940 -0.0655 -0.4948 -0.0356
 1201SOL    HW1 4802   1.230   3.469   3.930 -0.7610 -1.1100  1.0254
 1201SOL    HW2 4803   1.242   3.615   3.966  0.1008 -1.5086  2.4105
 1201SOL     MW 4804   1.193   3.547   3.942 -0.1333 -0.7033  0.4133
 1202SOL     OW 4805   1.433   0.109   0.525 -0.0730  0.2378  0.2012
 1202SOL    HW1 4806   1.449   0.136   0.435 -0.0911  2.3044  0.7780
 1202SOL    HW2 4807   1.519   0.085   0.559 -0.1663 -1.3100 -0.5530
 1202SOL     MW 4808   1.446   0.109   0.518 -0.0873  0.3042  0.1785
 1203SOL     OW 4809   4.471   4.375   1.544  0.5587  0.0796 -0.0794
 1203SOL    HW1 4810   4.542   4.429   1.579 -0.3750  1.5252 -0.3173
 1203SOL    HW2 4811   4.476   4.386   1.449 -1.2393  2.0091 -0.0482
 1203SOL     MW 4812   4.480   4.383   1.536  0.2090  0.5117 -0.1059
 1204SOL     OW 4813   3.220   4.099   0.833 -0.3935  0.3246  0.1768
 1204SOL    HW1 4814   3.169   4.036   0.782 -0.0676  0.7711 -0.7172
 1204SOL    HW2 4815   3.292   4.048   0.869 -1.4388 -0.3198  1.4657
 1204SOL     MW 4816   3.222   4.084   0.831 -0.4856  0.2992  0.2273
 1205SOL     OW 4817   5.086   5.045   2.834  0.2269 -0.0882 -0.0661
 1205SOL    HW1 4818   4.993   5.044   2.853  0.4482  0.4660  1.1068
 1205SOL    HW2 4819   5.129   5.027   2.917  1.1710 -0.9042 -0.6999
 1205SOL     MW 4820   5.080   5.043   2.847  0.3761 -0.1217  0.0029
 1206SOL     OW 4821   2.036   4.386   2.622  0.0625 -0.2013 -0.6557
 1206SOL    HW1 4822   2.076   4.299   2.618 -0.3830 -0.5621  1.3263
 1206SOL    HW2 4823   2.109   4.447   2.618  0.8357 -0.8237  1.8568
 1206SOL     MW 4824   2.050   4.383   2.621  0.1044 -0.3272 -0.0803
 1207SOL     OW 4825   1.047   2.808   1.615  0.0476  0.4114  0.2651
 1207SOL    HW1 4826   1.122   2.825   1.559  0.1620  1.6848  0.7709
 1207SOL    HW2 4827   1.074   2.734   1.670 -0.0002 -0.7238 -1.1888
 1207SOL     MW 4828   1.060   2.801   1.615  0.0561  0.4291  0.1438
 1208SOL     OW 4829   5.316   0.739   3.553  0.5858  0.1818 -0.5469
 1208SOL    HW1 4830   5.369   0.703   3.481  0.0917  0.6232 -1.1438
 1208SOL    HW2 4831   5.375   0.739   3.628  0.6528 -1.7215 -0.5532
 1208SOL     MW 4832   5.331   0.735   3.553  0.5311 -0.0053 -0.6241
 1209SOL     OW 4833   5.423   3.965   2.555 -0.9226 -0.2359  0.8228
 1209SOL    HW1 4834   5.472   3.969   2.637 -0.9779 -0.2160  0.8547
 1209SOL    HW2 4835   5.352   4.028   2.565  0.3654  1.4309 -0.1104
 1209SOL     MW 4836   5.420   3.973   2.566 -0.7648 -0.0200  0.7074
 1210SOL     OW 4837   2.757   3.567   2.460  0.9887  0.5345 -0.5122
 1210SOL    HW1 4838   2.777   3.646   2.410 -1.3761  0.8061 -1.1472
 1210SOL    HW2 4839   2.664   3.553   2.446  0.9336 -1.2423  1.2408
 1210SOL     MW 4840   2.748   3.575   2.452  0.6790  0.3418 -0.3691
 1211SOL     OW 4841   5.254   1.364   3.206  0.3694  0.1038 -0.2917
 1211SOL    HW1 4842   5.236   1.443   3.256 -1.6031 -1.0244  0.9014
 1211SOL    HW2 4843   5.347   1.370   3.184  0.9345  1.4430  2.1396
 1211SOL     MW 4844   5.264   1.375   3.210  0.1892  0.1308  0.1722
 1212SOL     OW 4845   3.647   2.569   0.187  0.1758  0.0904  0.3383
 1212SOL    HW1 4846   3.576   2.620   0.148  0.2293  0.2313  0.4217
 1212SOL    HW2 4847   3.711   2.559   0.116 -0.1438 -0.4526  0.1252
 1212SOL     MW 4848   3.646   2.574   0.173  0.1417  0.0389  0.3217
 1213SOL     OW 4849   0.643   3.121   4.616 -0.1830  0.2215 -0.2209
 1213SOL    HW1 4850   0.568   3.137   4.560 -0.2517  0.4534 -0.0637
 1213SOL    HW2 4851   0.605   3.100   4.701 -0.0653  0.7634 -0.0311
 1213SOL     MW 4852   0.629   3.120   4.620 -0.1767  0.3206 -0.1765
 1214SOL     OW 4853   5.084   1.030   4.565  0.3004  0.1661  0.3648
 1214SOL    HW1 4854   5.151   1.088   4.601 -0.7037  1.2773  0.4866
 1214SOL    HW2 4855   5.001   1.075   4.580 -0.4260 -0.8078 -0.4990
 1214SOL     MW 4856   5.082   1.043   4.571  0.0789  0.1837  0.2698
 1215SOL     OW 4857   0.336   1.323   0.700 -0.0324  0.3750  0.4987
 1215SOL    HW1 4858   0.290   1.376   0.766 -0.0640  0.4947  0.3814
 1215SOL    HW2 4859   0.284   1.333   0.620 -0.6391 -0.6970  0.7446
 1215SOL     MW 4860   0.324   1.331   0.698 -0.1142  0.2531  0.5151
 1216SOL     OW 4861   0.703   2.076   2.335  0.3551  0.4148  0.0854
 1216SOL    HW1 4862   0.674   2.145   2.395 -1.4859  0.2560 -0.5346
 1216SOL    HW2 4863   0.625   2.020   2.325  1.0934 -0.4223 -1.2372
 1216SOL     MW 4864   0.689   2.077   2.342  0.2139  0.2873 -0.1633
 1217SOL     OW 4865   5.417   3.620   3.973  0.1914  0.2891  0.0336
 1217SOL    HW1 4866   5.341   3.589   4.023  0.7500 -1.0009  0.1079
 1217SOL    HW2 4867   5.473   3.662   4.038  1.4041 -2.2873  0.7506
 1217SOL     MW 4868   5.414   3.621   3.988  0.4182 -0.2058  0.1349
 1218SOL     OW 4869   2.431   1.456   2.131 -0.3825 -0.2268 -0.0716
 1218SOL    HW1 4870   2.417   1.537   2.082 -1.0986 -0.7111 -0.6931
 1218SOL    HW2 4871   2.507   1.473   2.186  0.1063  0.5129 -0.9714
 1218SOL     MW 4872   2.439   1.468   2.132 -0.4116 -0.1941 -0.2663
 1219SOL     OW 4873   0.291   1.954   1.793 -0.2407  0.0912  0.0848
 1219SOL    HW1 4874   0.223   1.967   1.859  1.3517  1.0891  1.6365
 1219SOL    HW2 4875   0.265   2.009   1.720 -1.6270 -0.3962  0.1831
 1219SOL     MW 4876   0.279   1.962   1.792 -0.2143  0.1566  0.2960
 1220SOL     OW 4877   3.222   3.796   1.347  0.1720 -0.4361 -0.2656
 1220SOL    HW1 4878   3.274   3.716   1.336  1.3656  0.5642 -2.2968
 1220SOL    HW2 4879   3.269   3.846   1.414 -0.0782 -1.0013  0.3475
 1220SOL     MW 4880   3.235   3.792   1.354  0.2927 -0.3804 -0.4472
 1221SOL     OW 4881   4.923   0.156   5.228  0.1266  0.2339 -0.6936
 1221SOL    HW1 4882   4.904   0.250   5.234 -1.2351 -0.1178  2.0734
 1221SOL    HW2 4883   4.994   0.142   5.291 -0.8036 -0.8354  0.1459
 1221SOL     MW 4884   4.930   0.166   5.237 -0.1668  0.0520 -0.2319
 1222SOL     OW 4885   1.653   1.791   1.341 -0.2053 -0.3191  0.3652
 1222SOL    HW1 4886   1.568   1.752   1.360 -0.8278  0.6124 -0.3844
 1222SOL    HW2 4887   1.634   1.884   1.331  0.5852 -0.3040 -1.5074
 1222SOL     MW 4888   1.640   1.798   1.342 -0.1838 -0.1980  0.0295
 1223SOL     OW 4889   4.995   2.047   3.859  0.0606 -0.0619  0.0357
 1223SOL    HW1 4890   4.953   2.130   3.837  0.1770 -0.9385 -4.4967
 1223SOL    HW2 4891   5.088   2.061   3.840  0.0819 -1.1855 -0.8137
 1223SOL     MW 4892   5.002   2.059   3.854  0.0782 -0.3180 -0.6532
 1224SOL     OW 4893   3.781   4.208   5.202  0.2156  0.1382 -0.0531
 1224SOL    HW1 4894   3.703   4.171   5.242 -0.0747 -0.0707 -0.7996
 1224SOL    HW2 4895   3.761   4.301   5.191 -0.7530 -0.2728 -2.1176
 1224SOL     MW 4896   3.769   4.215   5.206  0.0544  0.0588 -0.4130
 1225SOL     OW 4897   4.001   4.921   0.275 -0.2249 -0.5159 -0.2053
 1225SOL    HW1 4898   3.947   4.927   0.196 -0.6971  1.1192  0.2005
 1225SOL    HW2 4899   3.962   4.984   0.335  1.0783 -0.5944  0.7561
 1225SOL     MW 4900   3.989   4.930   0.272 -0.1185 -0.3167 -0.0303
 1226SOL     OW 4901   4.389   2.824   2.187 -0.0061  0.5202 -0.2299
 1226SOL    HW1 4902   4.462   2.820   2.250  0.3517  0.8854 -0.6077
 1226SOL    HW2 4903   4.432   2.825   2.101 -0.5070 -0.4137 -0.4977
 1226SOL     MW 4904   4.404   2.824   2.184 -0.0244  0.4474 -0.3126
 1227SOL     OW 4905   4.567   0.268   2.316  0.3058  0.7402  0.5790
 1227SOL    HW1 4906   4.650   0.231   2.286  0.1761  0.7242  0.2359
 1227SOL    HW2 4907   4.535   0.204   2.380  0.6006  0.7938  0.7835
 1227SOL     MW 4908   4.573   0.255   2.320  0.3269  0.7450  0.5612
 1228SOL     OW 4909   0.836   0.407   2.283 -0.0706  0.2178 -0.1772
 1228SOL    HW1 4910   0.839   0.368   2.196  0.4410  1.5863 -0.7989
 1228SOL    HW2 4911   0.926   0.434   2.301 -0.6218  2.5323 -0.4838
 1228SOL     MW 4912   0.848   0.406   2.274 -0.0757  0.6892 -0.2961
 1229SOL     OW 4913   1.731   0.404   5.006 -0.4471 -0.5166  0.3616
 1229SOL    HW1 4914   1.770   0.485   4.975 -0.5702 -0.1951  1.0288
 1229SOL    HW2 4915   1.661   0.385   4.944 -0.4307 -0.0981  0.2175
 1229SOL     MW 4916   1.727   0.412   4.994 -0.4607 -0.4219  0.4285
 1230SOL     OW 4917   0.425   1.912   3.610 -0.3909 -0.3579  0.3306
 1230SOL    HW1 4918   0.364   1.957   3.668 -0.9381 -0.9427  0.2218
 1230SOL    HW2 4919   0.510   1.922   3.653 -0.6993 -0.3047  0.9496
 1230SOL     MW 4920   0.428   1.919   3.623 -0.5004 -0.4259  0.3959
 1231SOL     OW 4921   1.013   1.855   3.621 -0.9871 -0.2004 -0.1010
 1231SOL    HW1 4922   0.940   1.904   3.584 -0.5363 -0.1797 -0.9687
 1231SOL    HW2 4923   1.038   1.905   3.699 -1.2717  0.3133 -0.3359
 1231SOL     MW 4924   1.007   1.867   3.626 -0.9659 -0.1320 -0.2421
 1232SOL     OW 4925   1.350   3.724   5.010  0.0728 -0.2879 -0.1861
 1232SOL    HW1 4926   1.277   3.780   4.988  0.4879 -0.1045 -1.1521
 1232SOL    HW2 4927   1.314   3.635   5.008  0.1471 -0.3159 -1.9958
 1232SOL     MW 4928   1.336   3.720   5.007  0.1354 -0.2680 -0.5414
 1233SOL     OW 4929   1.464   1.974   1.562 -0.4544  0.4453 -0.1043
 1233SOL    HW1 4930   1.462   1.903   1.498 -1.0376 -0.9392  1.3879
 1233SOL    HW2 4931   1.378   2.015   1.556 -1.2144 -0.9053  1.0668
 1233SOL     MW 4932   1.453   1.971   1.553 -0.6264  0.0952  0.2366
 1234SOL     OW 4933   2.421   2.175   1.298  0.2816 -0.1751 -0.0110
 1234SOL    HW1 4934   2.478   2.111   1.341  1.1311 -0.5868 -1.6647
 1234SOL    HW2 4935   2.371   2.124   1.235 -0.3706  0.5278 -0.0737
 1234SOL     MW 4936   2.422   2.160   1.296  0.3069 -0.1378 -0.2307
 1235SOL     OW 4937   1.479   2.912   1.671  0.1563  0.1056  0.0295
 1235SOL    HW1 4938   1.415   2.969   1.714 -0.5066  0.0692 -0.8982
 1235SOL    HW2 4939   1.536   2.971   1.622 -0.0026  0.0327 -0.2426
 1235SOL     MW 4940   1.478   2.927   1.670  0.0511  0.0916 -0.1241
 1236SOL     OW 4941   2.098   3.281   1.759 -0.8292  0.0160 -0.2981
 1236SOL    HW1 4942   2.082   3.291   1.853  1.6571 -2.9637  0.5985
 1236SOL    HW2 4943   2.173   3.337   1.741 -1.3188  0.6043 -0.5624
 1236SOL     MW 4944   2.105   3.289   1.769 -0.5736 -0.2901 -0.2172
 1237SOL     OW 4945   4.533   4.756   0.291  0.0481 -0.0218  0.3108
 1237SOL    HW1 4946   4.506   4.779   0.380 -1.0847 -0.6832  0.1601
 1237SOL    HW2 4947   4.458   4.708   0.255  0.6874 -0.2011 -0.8277
 1237SOL     MW 4948   4.520   4.753   0.298 -0.0151 -0.1294  0.1458
 1238SOL     OW 4949   4.742   3.437   1.291  0.3475  0.1650 -0.1414
 1238SOL    HW1 4950   4.755   3.528   1.268 -0.4234  0.5526  0.8632
 1238SOL    HW2 4951   4.704   3.439   1.379 -1.9337 -0.9953 -1.0059
 1238SOL     MW 4952   4.738   3.449   1.299 -0.0432  0.0661 -0.1235
 1239SOL     OW 4953   3.794   0.853   3.747 -0.1245  0.3223 -0.3712
 1239SOL    HW1 4954   3.745   0.863   3.829  0.5197  0.4385  0.0088
 1239SOL    HW2 4955   3.836   0.938   3.734 -1.1024  0.6603 -1.4120
 1239SOL     MW 4956   3.793   0.865   3.756 -0.1672  0.3804 -0.4558
 1240SOL     OW 4957   4.695   0.269   4.758  0.7616 -0.3337 -0.4929
 1240SOL    HW1 4958   4.681   0.342   4.698 -2.6162  0.0889  0.5699
 1240SOL    HW2 4959   4.611   0.260   4.804  1.0412 -4.7489 -0.4011
 1240SOL     MW 4960   4.682   0.277   4.756  0.3650 -0.8448 -0.3451
 1241SOL     OW 4961   2.723   0.703   0.685 -0.0905  0.2394 -0.3377
 1241SOL    HW1 4962   2.657   0.683   0.619  0.5764 -0.6800 -0.7482
 1241SOL    HW2 4963   2.804   0.715   0.635  0.3465 -0.1062  0.2678
 1241SOL     MW 4964   2.725   0.702   0.670  0.0508  0.0774 -0.3127
 1242SOL     OW 4965   4.780   1.875   0.620 -0.0201  0.0279 -0.1654
 1242SOL    HW1 4966   4.766   1.968   0.636 -2.3348  0.0522 -1.8564
 1242SOL    HW2 4967   4.873   1.869   0.596  0.6368  1.5687  1.7133
 1242SOL     MW 4968   4.790   1.886   0.619 -0.2323  0.2283 -0.1414
 1243SOL     OW 4969   1.426   4.612   5.144  0.0951 -0.0235  0.5494
 1243SOL    HW1 4970   1.484   4.567   5.083 -1.9439 -1.6240 -0.3564
 1243SOL    HW2 4971   1.470   4.607   5.228  2.7307  1.7398 -0.5844
 1243SOL     MW 4972   1.439   4.606   5.147  0.1714 -0.0027  0.2883
 1244SOL     OW 4973   0.674   4.746   5.021  0.0765  0.0226 -0.2862
 1244SOL    HW1 4974   0.610   4.761   5.090 -0.3562 -0.0474 -0.6655
 1244SOL    HW2 4975   0.741   4.690   5.062  0.2357  0.6356  0.2970
 1244SOL     MW 4976   0.675   4.741   5.035  0.0415  0.0921 -0.2601
 1245SOL     OW 4977   1.653   0.338   5.243 -0.4053  0.2711 -0.0883
 1245SOL    HW1 4978   1.699   0.369   5.165 -0.1695 -1.2549 -0.5933
 1245SOL    HW2 4979   1.721   0.299   5.298 -0.9518 -1.5220 -0.6025
 1245SOL     MW 4980   1.667   0.337   5.240 -0.4451 -0.1537 -0.2187
 1246SOL     OW 4981   3.082   5.166   4.600  0.1132 -0.3394  0.4654
 1246SOL    HW1 4982   3.055   5.230   4.666 -0.7296 -2.6165  2.4936
 1246SOL    HW2 4983   3.170   5.194   4.575  1.2618 -0.2643  3.9708
 1246SOL     MW 4984   3.090   5.178   4.605  0.1524 -0.6213  1.1738
 1247SOL     OW 4985   1.567   2.967   0.114  0.1624 -0.4512 -0.5359
 1247SOL    HW1 4986   1.513   2.975   0.035 -1.3917  2.7187  0.6487
 1247SOL    HW2 4987   1.536   2.887   0.156 -0.4095 -1.1043 -2.1055
 1247SOL     MW 4988   1.556   2.958   0.109 -0.1098 -0.1290 -0.5852
 1248SOL     OW 4989   0.521   1.605   0.928 -0.3370 -0.3651  0.0614
 1248SOL    HW1 4990   0.527   1.624   1.022 -0.6694  1.0565 -0.1676
 1248SOL    HW2 4991   0.551   1.515   0.919 -0.0576 -0.4393  1.5002
 1248SOL     MW 4992   0.525   1.596   0.939 -0.3438 -0.1926  0.2163
 1249SOL     OW 4993   0.407   2.933   2.232  0.0478 -0.3403  0.9863
 1249SOL    HW1 4994   0.496   2.913   2.260  0.7246 -0.0029 -0.8041
 1249SOL    HW2 4995   0.379   2.855   2.184  1.3693  1.3327 -2.8993
 1249SOL     MW 4996   0.415   2.920   2.230  0.3036 -0.0830  0.2597
 1250SOL     OW 4997   1.172   0.044   4.289 -0.3198  0.2610  0.4659
 1250SOL    HW1 4998   1.170   0.122   4.344 -2.2924 -0.7569  1.9535
 1250SOL    HW2 4999   1.122  -0.021   4.337  1.1526 -1.9328 -0.7809
 1250SOL     MW 5000   1.165   0.046   4.302 -0.3838 -0.1501  0.4967
 1251SOL     OW 5001   4.817   0.194   4.523 -0.4226 -0.2503 -0.6367
 1251SOL    HW1 5002   4.787   0.217   4.611  0.0186  1.9002 -0.9911
 1251SOL    HW2 5003   4.903   0.154   4.536  0.3880  1.5521 -0.1434
 1251SOL     MW 5004   4.824   0.192   4.536 -0.2624  0.2557 -0.6189
 1252SOL     OW 5005   2.787   5.207   2.740  0.4789 -0.1674  0.3578
 1252SOL    HW1 5006   2.882   5.192   2.738  0.1296 -2.6826 -0.4549
 1252SOL    HW2 5007   2.756   5.154   2.813 -0.7111 -2.7352 -1.8540
 1252SOL     MW 5008   2.795   5.198   2.750  0.2819 -0.8181 -0.0294
 1253SOL     OW 5009   4.377   4.761   2.400  0.0861  0.1941  0.2793
 1253SOL    HW1 5010   4.338   4.833   2.449 -0.6688 -0.4009  0.5744
 1253SOL    HW2 5011   4.471   4.777   2.404 -0.1094  1.6852 -0.4808
 1253SOL     MW 5012   4.384   4.773   2.407 -0.0355  0.3088  0.2198
 1254SOL     OW 5013   4.640   4.877   0.036  0.4851 -0.3772 -0.3126
 1254SOL    HW1 5014   4.602   4.844   0.118  1.8813 -0.3227  0.3931
 1254SOL    HW2 5015   4.567   4.877  -0.026 -0.8005  0.3380  1.1322
 1254SOL     MW 5016   4.626   4.872   0.039  0.4993 -0.2787 -0.0373
 1255SOL     OW 5017   5.369   2.071   1.303  0.2535  0.0244 -0.4809
 1255SOL    HW1 5018   5.410   2.128   1.369  1.1650 -0.5432 -0.5450
 1255SOL    HW2 5019   5.410   2.096   1.221  0.8715 -0.8999 -0.4700
 1255SOL     MW 5020   5.379   2.081   1.301  0.4493 -0.1666 -0.4877
 1256SOL     OW 5021   2.323   2.071   4.796  0.1396 -0.3411 -0.0454
 1256SOL    HW1 5022   2.253   2.105   4.851  0.0144 -0.6939  0.0144
 1256SOL    HW2 5023   2.398   2.061   4.854  1.1828  2.8217 -0.6609
 1256SOL     MW 5024   2.323   2.074   4.810  0.2571  0.0186 -0.1165
 1257SOL     OW 5025   3.955   1.135   5.208  0.2178 -0.2460  0.7659
 1257SOL    HW1 5026   3.950   1.134   5.112 -1.3808 -1.9488  0.8278
 1257SOL    HW2 5027   4.043   1.102   5.228  1.4815  2.3153 -0.0730
 1257SOL     MW 5028   3.966   1.131   5.198  0.1749 -0.1361  0.6664
 1258SOL     OW 5029   0.260   1.318   2.980  0.0081 -0.2670  0.1776
 1258SOL    HW1 5030   0.246   1.240   2.926 -0.1487 -0.2846  0.2437
 1258SOL    HW2 5031   0.183   1.322   3.037  0.1509 -0.2205  0.3665
 1258SOL     MW 5032   0.248   1.308   2.980  0.0063 -0.2633  0.2102
 1259SOL     OW 5033   1.302   2.846   1.066  0.1102 -0.0322 -0.6702
 1259SOL    HW1 5034   1.310   2.751   1.065  1.0735 -0.1583  3.1738
 1259SOL    HW2 5035   1.208   2.862   1.075  0.1451 -0.8123  1.5030
 1259SOL     MW 5036   1.291   2.836   1.067  0.2380 -0.1482  0.1001
 1260SOL     OW 5037   4.825   0.517   0.329  0.1116  0.2774  0.0450
 1260SOL    HW1 5038   4.920   0.521   0.333  0.1517 -0.6161  0.0132
 1260SOL    HW2 5039   4.801   0.440   0.379 -0.5943  0.4362 -0.0315
 1260SOL     MW 5040   4.834   0.508   0.336  0.0264  0.1833  0.0311
 1261SOL     OW 5041   5.152   2.858   3.946  0.3942  0.2709  0.2528
 1261SOL    HW1 5042   5.084   2.850   4.013  0.2467 -0.3380  0.0392
 1261SOL    HW2 5043   5.232   2.827   3.989  0.6438  1.3777  0.6358
 1261SOL     MW 5044   5.153   2.853   3.960  0.4073  0.3347  0.2745
 1262SOL     OW 5045   0.682   3.219   5.219 -0.1773 -0.5862 -0.5701
 1262SOL    HW1 5046   0.709   3.297   5.171  0.2959 -0.8263 -0.7030
 1262SOL    HW2 5047   0.764   3.181   5.251 -0.5317  0.4557  1.8551
 1262SOL     MW 5048   0.696   3.224   5.217 -0.1621 -0.4836 -0.2767
 1263SOL     OW 5049   3.083   2.535   3.428 -0.2987 -0.1537 -0.2130
 1263SOL    HW1 5050   3.069   2.547   3.522 -0.7368 -0.5456 -0.2209
 1263SOL    HW2 5051   3.069   2.441   3.414 -1.3672  0.0741 -0.8473
 1263SOL     MW 5052   3.079   2.524   3.438 -0.4916 -0.1747 -0.2952
 1264SOL     OW 5053   3.931   2.036   5.151 -0.2037  0.1119 -0.1963
 1264SOL    HW1 5054   3.949   1.947   5.182  0.8702 -0.0554 -1.2488
 1264SOL    HW2 5055   3.883   2.024   5.069 -1.2740  0.5370  0.3446
 1264SOL     MW 5056   3.927   2.023   5.145 -0.2032  0.1449 -0.2618
 1265SOL     OW 5057   2.038   4.709   1.446 -0.3671  0.8639 -0.1463
 1265SOL    HW1 5058   2.125   4.723   1.409 -0.3997 -1.7732 -1.4228
 1265SOL    HW2 5059   2.052   4.649   1.520 -1.2560 -1.8364 -2.0223
 1265SOL     MW 5060   2.051   4.703   1.451 -0.4851  0.1807 -0.5499
 1266SOL     OW 5061   1.492   4.438   2.535 -0.3217 -0.0236 -0.2791
 1266SOL    HW1 5062   1.493   4.513   2.594 -0.4205 -0.2491  0.0143
 1266SOL    HW2 5063   1.408   4.443   2.490 -0.6028 -0.3052  0.2002
 1266SOL     MW 5064   1.482   4.448   2.537 -0.3704 -0.0885 -0.1802
 1267SOL     OW 5065   5.441   0.431   1.224  0.4258  0.1428 -0.7946
 1267SOL    HW1 5066   5.442   0.500   1.157 -1.5588  0.3908 -0.6403
 1267SOL    HW2 5067   5.491   0.468   1.297  0.8269  0.7158 -1.3452
 1267SOL     MW 5068   5.448   0.445   1.225  0.2231  0.2479 -0.8453
 1268SOL     OW 5069   4.487   3.594   1.117  0.2658 -0.0946  0.1441
 1268SOL    HW1 5070   4.496   3.611   1.210  0.4766  1.1109 -0.0816
 1268SOL    HW2 5071   4.533   3.511   1.103  0.9273  0.1226  0.9679
 1268SOL     MW 5072   4.494   3.585   1.127  0.3775  0.0875  0.2207
 1269SOL     OW 5073   4.247   3.666   1.527  0.6246 -0.1541  0.1642
 1269SOL    HW1 5074   4.241   3.761   1.512  1.0398 -0.1104  0.2700
 1269SOL    HW2 5075   4.254   3.658   1.622 -0.5740 -0.3561  0.2526
 1269SOL     MW 5076   4.247   3.677   1.537  0.5243 -0.1743  0.1891
 1270SOL     OW 5077   4.292   1.343   3.034 -0.2067 -0.2116 -0.0804
 1270SOL    HW1 5078   4.340   1.337   3.117  0.3866 -2.6868 -0.5190
 1270SOL    HW2 5079   4.216   1.397   3.055  1.1168  1.1935  1.4463
 1270SOL     MW 5080   4.288   1.349   3.047  0.0387 -0.3486  0.0589
 1271SOL     OW 5081   3.863   4.398   2.484  0.4570  0.2803 -0.2188
 1271SOL    HW1 5082   3.900   4.479   2.450  1.0670 -0.4804 -1.4396
 1271SOL    HW2 5083   3.908   4.329   2.435  0.4897 -0.8315  1.3124
 1271SOL     MW 5084   3.874   4.399   2.473  0.5393  0.0406 -0.1791
 1272SOL     OW 5085   1.355   1.449   0.413 -0.3921  0.2059 -0.2573
 1272SOL    HW1 5086   1.376   1.358   0.432 -0.3045 -0.0603 -1.5358
 1272SOL    HW2 5087   1.364   1.457   0.318 -2.6633  0.9758 -0.4666
 1272SOL     MW 5088   1.359   1.439   0.403 -0.6716  0.2704 -0.4477
 1273SOL     OW 5089   0.817   2.827   0.585 -0.0416 -0.7183 -0.0178
 1273SOL    HW1 5090   0.857   2.755   0.536  1.9898  0.7032 -0.5757
 1273SOL    HW2 5091   0.877   2.844   0.657 -0.7496  0.1021  0.3954
 1273SOL     MW 5092   0.830   2.820   0.588  0.1278 -0.4313 -0.0363
 1274SOL     OW 5093   0.942   5.444   2.448 -0.0197 -0.0726  0.0096
 1274SOL    HW1 5094   0.889   5.519   2.475 -0.1400 -0.4127  0.7381
 1274SOL    HW2 5095   0.938   5.445   2.352 -2.1667 -0.6722  0.0482
 1274SOL     MW 5096   0.935   5.454   2.439 -0.3100 -0.1929  0.1078
 1275SOL     OW 5097   1.491   0.845   2.281  0.5752 -0.1907  0.0471
 1275SOL    HW1 5098   1.540   0.922   2.251  1.6636 -0.6624  0.5578
 1275SOL    HW2 5099   1.501   0.782   2.210 -0.3824  0.1380 -0.4055
 1275SOL     MW 5100   1.498   0.847   2.268  0.5919 -0.2090  0.0545
 1276SOL     OW 5101   4.252   1.328   3.925 -0.1610 -0.6623  0.3121
 1276SOL    HW1 5102   4.221   1.375   3.847  1.6034  0.1499  0.0494
 1276SOL    HW2 5103   4.310   1.260   3.890  1.4582  0.3514  0.9257
 1276SOL     MW 5104   4.256   1.325   3.910  0.2722 -0.4285  0.3571
 1277SOL     OW 5105   4.947   2.355   2.276  0.2049  0.5765 -0.1637
 1277SOL    HW1 5106   5.036   2.326   2.295 -0.4028 -1.2198  0.0773
 1277SOL    HW2 5107   4.904   2.362   2.362 -0.1635  0.4812 -0.3349
 1277SOL     MW 5108   4.953   2.352   2.289  0.0800  0.3343 -0.1548
 1278SOL     OW 5109   4.344   1.671   3.622  0.1668 -0.0884  0.5533
 1278SOL    HW1 5110   4.288   1.617   3.566  2.1690 -0.5160 -1.1871
 1278SOL    HW2 5111   4.368   1.745   3.566  2.0295 -0.3881  0.9011
 1278SOL     MW 5112   4.340   1.674   3.607  0.6615 -0.1815  0.3750
 1279SOL     OW 5113   2.139   0.788   3.372 -0.0013 -0.1160  0.1427
 1279SOL    HW1 5114   2.234   0.779   3.385 -0.1067  0.8620  1.9673
 1279SOL    HW2 5115   2.131   0.852   3.302  0.6989  0.0058  0.1630
 1279SOL     MW 5116   2.150   0.795   3.365  0.0748  0.0248  0.3789
 1280SOL     OW 5117   5.094   0.565   0.303 -0.0286  0.2464  0.0330
 1280SOL    HW1 5118   5.117   0.603   0.388  0.3538 -0.0659  0.0735
 1280SOL    HW2 5119   5.118   0.632   0.239  2.1160 -0.4913 -0.0212
 1280SOL     MW 5120   5.100   0.579   0.306  0.2949  0.1120  0.0312
 1281SOL     OW 5121   4.178   5.292   0.393 -0.2417  0.1143 -0.0920
 1281SOL    HW1 5122   4.130   5.297   0.476  0.2645  1.1532  0.1654
 1281SOL    HW2 5123   4.216   5.204   0.393 -2.1910 -0.7851 -0.3596
 1281SOL     MW 5124   4.177   5.282   0.404 -0.4264  0.1322 -0.0933
 1282SOL     OW 5125   2.735   2.053   3.118 -0.4394 -0.3736 -0.2446
 1282SOL    HW1 5126   2.714   2.043   3.211 -2.6171 -0.8327 -0.7286
 1282SOL    HW2 5127   2.771   2.141   3.111  0.0975 -0.4592  1.0735
 1282SOL     MW 5128   2.736   2.063   3.129 -0.6494 -0.4433 -0.1378
 1283SOL     OW 5129   0.079   2.704   0.629 -0.3527 -0.0339  0.2799
 1283SOL    HW1 5130   0.116   2.793   0.628 -0.9742  0.2281  0.2053
 1283SOL    HW2 5131   0.102   2.670   0.715  1.4502 -0.4733 -0.3448
 1283SOL     MW 5132   0.087   2.711   0.640 -0.2015 -0.0566  0.1904
 1284SOL     OW 5133   1.701   3.544   1.797  0.4488  0.5177 -0.6612
 1284SOL    HW1 5134   1.766   3.609   1.825 -0.1344  1.0219 -0.4392
 1284SOL    HW2 5135   1.638   3.595   1.744 -0.8637  0.4795  0.7820
 1284SOL     MW 5136   1.701   3.559   1.794  0.2062  0.5773 -0.4480
 1285SOL     OW 5137   1.051   5.174   0.022 -0.2158  0.0942 -0.3693
 1285SOL    HW1 5138   1.121   5.214  -0.029 -0.9433 -0.0597 -1.5182
 1285SOL    HW2 5139   0.978   5.236   0.015 -0.7208 -0.5145 -0.5309
 1285SOL     MW 5140   1.050   5.187   0.015 -0.3736 -0.0035 -0.5371
 1286SOL     OW 5141   0.606   2.511   0.554 -0.0884  0.1736  0.1197
 1286SOL    HW1 5142   0.644   2.434   0.513 -0.1576  0.2474 -0.0857
 1286SOL    HW2 5143   0.617   2.497   0.648  0.8485  0.3931  0.0582
 1286SOL     MW 5144   0.612   2.500   0.561  0.0226  0.2111  0.0855
 1287SOL     OW 5145   3.948   2.662   0.645  0.5973  0.3813  0.1497
 1287SOL    HW1 5146   3.891   2.648   0.570  1.6295 -2.2224 -0.2506
 1287SOL    HW2 5147   3.895   2.713   0.706 -0.9981  0.7648 -1.4676
 1287SOL     MW 5148   3.934   2.667   0.643  0.5252  0.0970 -0.1086
 1288SOL     OW 5149   4.762   1.342   2.121 -0.1664  0.1646 -0.2601
 1288SOL    HW1 5150   4.684   1.299   2.086 -0.6807  1.7782 -1.1946
 1288SOL    HW2 5151   4.789   1.404   2.053  0.8380  0.9628  0.8033
 1288SOL     MW 5152   4.756   1.345   2.108 -0.1036  0.4733 -0.2436
 1289SOL     OW 5153   4.834   4.813   2.229 -0.1737 -0.7722  0.2648
 1289SOL    HW1 5154   4.905   4.846   2.284 -1.3711 -0.1802  1.5366
 1289SOL    HW2 5155   4.878   4.772   2.155  1.4641  0.9446  0.1983
 1289SOL     MW 5156   4.849   4.812   2.227 -0.1173 -0.4766  0.4191
 1290SOL     OW 5157   3.600   4.478   2.330 -0.1927  0.1890  0.1542
 1290SOL    HW1 5158   3.583   4.418   2.258 -0.2020  0.6876 -0.2707
 1290SOL    HW2 5159   3.674   4.439   2.377 -1.3153 -1.0497  0.9363
 1290SOL     MW 5160   3.608   4.466   2.327 -0.3376  0.0943  0.1999
 1291SOL     OW 5161   3.541   3.378   3.065 -0.2260 -0.0600  0.8965
 1291SOL    HW1 5162   3.585   3.328   2.995  3.4164  1.9704  1.5131
 1291SOL    HW2 5163   3.526   3.313   3.134  0.4940 -1.1623  0.0639
 1291SOL     MW 5164   3.545   3.363   3.065  0.3325  0.0588  0.8688
 1292SOL     OW 5165   1.441   1.841   2.355  0.3215 -0.2597 -0.0101
 1292SOL    HW1 5166   1.462   1.901   2.427 -1.2866 -0.7126  0.8863
 1292SOL    HW2 5167   1.405   1.898   2.287  0.6654  0.0267  0.0454
 1292SOL     MW 5168   1.439   1.856   2.356  0.1597 -0.2810  0.1118
 1293SOL     OW 5169   2.867   1.836   3.081  0.0521  0.0893  0.4771
 1293SOL    HW1 5170   2.824   1.918   3.103 -0.1186  0.1725 -0.1414
 1293SOL    HW2 5171   2.861   1.783   3.161  0.9537  0.9956  1.1639
 1293SOL     MW 5172   2.861   1.840   3.094  0.1457  0.2160  0.4858
 1294SOL     OW 5173   1.253   4.946   5.240 -0.7700 -0.1849 -0.1188
 1294SOL    HW1 5174   1.235   4.876   5.303 -2.3378  1.5696  1.5089
 1294SOL    HW2 5175   1.169   4.991   5.229 -0.1359  0.6339 -2.1930
 1294SOL     MW 5176   1.240   4.942   5.247 -0.8895  0.1445 -0.1759
 1295SOL     OW 5177   1.194   1.193   3.285  0.4471  0.1193  0.2749
 1295SOL    HW1 5178   1.134   1.240   3.344  0.3642 -1.2625  1.3437
 1295SOL    HW2 5179   1.270   1.251   3.278  0.2458  0.5423  1.3387
 1295SOL     MW 5180   1.196   1.207   3.292  0.4107 -0.0035  0.5479
 1296SOL     OW 5181   3.490   2.965   4.475  0.1580 -0.2246 -0.2103
 1296SOL    HW1 5182   3.451   2.951   4.561 -0.4541  1.7146 -0.1278
 1296SOL    HW2 5183   3.515   3.057   4.475  0.0369 -0.1514 -2.1621
 1296SOL     MW 5184   3.489   2.975   4.486  0.0642  0.0330 -0.4496
 1297SOL     OW 5185   3.205   3.201   4.398 -0.0332 -0.2451 -0.1399
 1297SOL    HW1 5186   3.189   3.231   4.309  1.0976  0.5953 -0.0845
 1297SOL    HW2 5187   3.298   3.219   4.412 -0.4268  0.5929  1.5759
 1297SOL     MW 5188   3.215   3.207   4.388  0.0612 -0.0303  0.0868
 1298SOL     OW 5189   4.011   1.571   1.303 -0.3727  0.1839 -0.0825
 1298SOL    HW1 5190   3.981   1.601   1.388 -0.4501  1.6130 -0.5793
 1298SOL    HW2 5191   3.940   1.596   1.243 -0.0148 -0.1675 -0.6568
 1298SOL     MW 5192   3.998   1.578   1.306 -0.3368  0.3218 -0.2196
 1299SOL     OW 5193   4.322   5.440   1.054  0.1360  0.2145  0.1583
 1299SOL    HW1 5194   4.389   5.437   1.122 -0.5637  0.3615  0.8690
 1299SOL    HW2 5195   4.261   5.508   1.084 -0.4257 -0.0481 -0.3819
 1299SOL     MW 5196   4.323   5.448   1.067 -0.0255  0.1997  0.1801
 1300SOL     OW 5197   0.057   1.448   1.024 -0.0020  0.3755 -0.4298
 1300SOL    HW1 5198   0.053   1.507   1.099 -1.0451  2.5763 -2.1040
 1300SOL    HW2 5199   0.125   1.484   0.967 -1.0787  0.3816 -1.7814
 1300SOL     MW 5200   0.065   1.460   1.026 -0.2734  0.6581 -0.8172
 1301SOL     OW 5201   0.651   1.707   0.047  0.0473  0.0076 -0.2231
 1301SOL    HW1 5202   0.620   1.666  -0.033  0.7591 -1.5882  0.2834
 1301SOL    HW2 5203   0.708   1.642   0.088  0.0622  0.9458  1.3633
 1301SOL     MW 5204   0.654   1.694   0.042  0.1403 -0.0765  0.0448
 1302SOL     OW 5205   2.225   3.205   3.160 -0.3748  0.2758  0.0359
 1302SOL    HW1 5206   2.296   3.148   3.187 -0.1625  0.7135  0.4282
 1302SOL    HW2 5207   2.174   3.154   3.097  0.8156  0.2942 -0.9677
 1302SOL     MW 5208   2.227   3.191   3.156 -0.1952  0.3342 -0.0424
 1303SOL     OW 5209   2.953   4.713  -0.003 -0.6909  0.2718  0.0653
 1303SOL    HW1 5210   2.860   4.696   0.008 -0.8828  0.7834 -0.6507
 1303SOL    HW2 5211   2.964   4.805   0.022 -0.3475  0.1620  0.3234
 1303SOL     MW 5212   2.942   4.723   0.001 -0.6715  0.3232  0.0067
 1304SOL     OW 5213   1.268   4.037   4.046 -0.4319  0.3733 -0.2219
 1304SOL    HW1 5214   1.283   3.957   3.996 -0.6578 -0.4948  1.0322
 1304SOL    HW2 5215   1.232   4.099   3.983 -0.3473 -0.5485 -1.1990
 1304SOL     MW 5216   1.265   4.034   4.032 -0.4500  0.1442 -0.1864
 1305SOL     OW 5217   2.126   3.332   3.768 -0.4092 -0.3380  0.1379
 1305SOL    HW1 5218   2.213   3.291   3.768 -0.0606  0.3629 -0.6439
 1305SOL    HW2 5219   2.128   3.392   3.693 -2.0518 -1.2954 -0.7281
 1305SOL     MW 5220   2.138   3.334   3.758 -0.5749 -0.3709 -0.0730
 1306SOL     OW 5221   0.596   1.346   0.906  0.1261 -0.5701 -0.3019
 1306SOL    HW1 5222   0.553   1.301   0.979 -0.1019 -0.3453 -0.2939
 1306SOL    HW2 5223   0.558   1.308   0.827  0.9424 -1.3724 -0.3271
 1306SOL     MW 5224   0.586   1.336   0.905  0.2014 -0.6440 -0.3041
 1307SOL     OW 5225   0.089   3.110   5.398 -0.4187 -0.2176 -0.6311
 1307SOL    HW1 5226   0.008   3.143   5.358 -0.6147  0.3774  0.2340
 1307SOL    HW2 5227   0.059   3.057   5.472 -0.0098  0.6071  0.1423
 1307SOL     MW 5228   0.075   3.107   5.402 -0.3914 -0.0359 -0.4213
 1308SOL     OW 5229   4.679   0.743   0.988  0.2746 -0.3764  0.1793
 1308SOL    HW1 5230   4.604   0.683   0.987 -0.5147  0.2099  4.7177
 1308SOL    HW2 5231   4.712   0.739   1.077  2.9507  2.6925 -0.4881
 1308SOL     MW 5232   4.673   0.735   0.999  0.5162  0.0915  0.6749
 1309SOL     OW 5233   0.026   1.381   3.096 -0.1248 -0.2672 -0.3271
 1309SOL    HW1 5234  -0.007   1.358   3.009  0.2965 -1.2522 -0.2399
 1309SOL    HW2 5235   0.034   1.476   3.094 -1.4237 -0.1516 -0.8934
 1309SOL     MW 5236   0.023   1.390   3.084 -0.2372 -0.3785 -0.3884
 1310SOL     OW 5237   0.166   4.839   4.127  0.0601 -0.1252 -0.3902
 1310SOL    HW1 5238   0.216   4.836   4.208 -1.6006 -0.1713  0.6813
 1310SOL    HW2 5239   0.159   4.747   4.100  0.6043 -0.1108 -0.5983
 1310SOL     MW 5240   0.171   4.827   4.134 -0.0829 -0.1292 -0.2797
 1311SOL     OW 5241   3.101   3.940   4.408  0.0029  0.5145  0.3920
 1311SOL    HW1 5242   3.041   4.014   4.417 -0.7558  0.1136 -1.1412
 1311SOL    HW2 5243   3.103   3.900   4.495 -1.0710  1.2007  0.7449
 1311SOL     MW 5244   3.094   3.944   4.420 -0.2317  0.5510  0.2409
 1312SOL     OW 5245   2.508   2.484   0.054 -0.1739  0.2956  0.3269
 1312SOL    HW1 5246   2.530   2.476  -0.039  0.2215 -1.4841  0.5454
 1312SOL    HW2 5247   2.449   2.411   0.071  0.6525 -0.0846  1.7302
 1312SOL     MW 5248   2.503   2.474   0.044 -0.0175  0.0191  0.5345
 1313SOL     OW 5249   5.324   4.621   3.291  1.0849  0.2852 -0.5573
 1313SOL    HW1 5250   5.345   4.597   3.381  0.3768  0.4015 -0.3518
 1313SOL    HW2 5251   5.322   4.538   3.244 -1.7119 -0.2027  0.2235
 1313SOL     MW 5252   5.327   4.608   3.297  0.6362  0.2376 -0.4310
 1314SOL     OW 5253   5.317   2.969   0.879  0.3837  0.1447  0.3871
 1314SOL    HW1 5254   5.305   3.024   0.802 -0.3175 -0.7529 -0.1731
 1314SOL    HW2 5255   5.412   2.959   0.887  0.4757 -2.1812 -2.1967
 1314SOL     MW 5256   5.328   2.975   0.870  0.3057 -0.2680 -0.0153
 1315SOL     OW 5257   0.875   2.045   2.696  0.0822 -0.3855 -0.3822
 1315SOL    HW1 5258   0.954   2.078   2.739 -0.3600  0.0580  0.1001
 1315SOL    HW2 5259   0.808   2.049   2.764 -0.7028  0.6225 -1.1982
 1315SOL     MW 5260   0.877   2.049   2.710 -0.0749 -0.1997 -0.4249
 1316SOL     OW 5261  -0.024   2.355   4.272  0.6745 -0.2471 -0.6502
 1316SOL    HW1 5262   0.018   2.353   4.359 -2.0323  0.4095  0.7957
 1316SOL    HW2 5263   0.027   2.419   4.223  1.5396  0.3388  0.9152
 1316SOL     MW 5264  -0.012   2.363   4.277  0.4387 -0.0881 -0.2647
 1317SOL     OW 5265   1.047   2.858   1.182  0.0537 -0.3275 -0.3464
 1317SOL    HW1 5266   0.987   2.930   1.200 -0.3284 -0.5577 -0.7055
 1317SOL    HW2 5267   1.000   2.779   1.211  0.4641 -0.4367  0.0355
 1317SOL     MW 5268   1.033   2.857   1.188  0.0573 -0.3710 -0.3435
 1318SOL     OW 5269   5.118   2.924   1.067 -0.5361  0.0696  0.2386
 1318SOL    HW1 5270   5.158   2.962   1.145  1.5455 -0.0989 -0.6858
 1318SOL    HW2 5271   5.186   2.930   1.000 -2.2015  0.0418 -1.5242
 1318SOL     MW 5272   5.132   2.929   1.068 -0.4828  0.0445 -0.1054
 1319SOL     OW 5273   3.303   2.131   2.676 -0.1895 -0.3687 -0.0839
 1319SOL    HW1 5274   3.241   2.059   2.664  0.1225 -0.5043 -0.9625
 1319SOL    HW2 5275   3.372   2.094   2.731  0.3469 -0.9937 -1.1394
 1319SOL     MW 5276   3.304   2.117   2.681 -0.0809 -0.4661 -0.3315
 1320SOL     OW 5277   1.772   3.320   0.373 -0.4885 -0.1008  0.5131
 1320SOL    HW1 5278   1.726   3.400   0.350 -0.6562 -0.4576 -0.4568
 1320SOL    HW2 5279   1.830   3.303   0.298 -0.9028 -1.2057  0.4167
 1320SOL     MW 5280   1.774   3.328   0.361 -0.5630 -0.2879  0.3766
 1321SOL     OW 5281   5.480   5.176   4.277 -0.7182  0.5882  0.1236
 1321SOL    HW1 5282   5.456   5.239   4.345 -0.4069  1.6331 -0.7171
 1321SOL    HW2 5283   5.448   5.215   4.195  3.4027  1.9784 -1.0682
 1321SOL     MW 5284   5.473   5.189   4.275 -0.1508  0.8999 -0.1366
 1322SOL     OW 5285   1.007   4.036   1.466  0.4454  0.4270  0.3931
 1322SOL    HW1 5286   0.992   4.009   1.375 -1.2480  2.9680 -0.1892
 1322SOL    HW2 5287   1.070   4.107   1.460 -2.9285  3.7189  0.5297
 1322SOL     MW 5288   1.013   4.041   1.454 -0.2032  1.1737  0.3361
 1323SOL     OW 5289   3.070   0.982   3.973  0.4409  0.1580 -0.6674
 1323SOL    HW1 5290   3.098   0.995   4.064  0.3381 -1.8027 -0.3072
 1323SOL    HW2 5291   3.094   1.063   3.929  1.9784  0.5396  0.7615
 1323SOL     MW 5292   3.077   0.994   3.979  0.6245 -0.0441 -0.4384
 1324SOL     OW 5293   1.852   2.123   2.697 -0.2673 -0.0943  0.5749
 1324SOL    HW1 5294   1.898   2.161   2.622  0.0935 -1.5377  0.0238
 1324SOL    HW2 5295   1.914   2.060   2.734 -1.0642 -0.6265  1.0416
 1324SOL     MW 5296   1.866   2.120   2.692 -0.3231 -0.3472  0.5641
 1325SOL     OW 5297   5.181   4.682   1.978 -0.5493 -0.2157 -0.6431
 1325SOL    HW1 5298   5.236   4.692   2.056 -0.6048 -1.2044 -0.4573
 1325SOL    HW2 5299   5.242   4.687   1.905 -0.2461 -0.9157 -0.4535
 1325SOL     MW 5300   5.196   4.684   1.979 -0.5176 -0.4319 -0.5950
 1326SOL     OW 5301   5.015   2.109   1.648  0.1766  0.1198  0.1012
 1326SOL    HW1 5302   5.017   2.199   1.679 -3.2107 -0.5213  2.8136
 1326SOL    HW2 5303   5.014   2.116   1.553  0.3824  2.8868  0.2345
 1326SOL     MW 5304   5.015   2.121   1.640 -0.2307  0.3920  0.4655
 1327SOL     OW 5305   3.323   2.913   0.558 -0.0098 -0.1477 -0.4961
 1327SOL    HW1 5306   3.324   2.851   0.485 -1.1663 -3.2702  1.8944
 1327SOL    HW2 5307   3.243   2.963   0.546 -0.2007 -0.6340 -1.3442
 1327SOL     MW 5308   3.313   2.911   0.547 -0.1823 -0.6096 -0.2987
 1328SOL     OW 5309   3.458   0.097   4.879  0.4375 -0.0091 -0.0823
 1328SOL    HW1 5310   3.377   0.051   4.858 -1.1719  2.3643  0.5179
 1328SOL    HW2 5311   3.497   0.115   4.793  1.2093 -2.5057 -0.3250
 1328SOL     MW 5312   3.453   0.093   4.865  0.3303 -0.0249 -0.0366
 1329SOL     OW 5313   3.557   2.325   0.288 -0.4476  0.1856 -0.3078
 1329SOL    HW1 5314   3.532   2.366   0.370 -0.4031 -0.5479  0.0776
 1329SOL    HW2 5315   3.579   2.399   0.230  1.1200  0.6581  0.8375
 1329SOL     MW 5316   3.557   2.340   0.291 -0.2412  0.1522 -0.1119
 1330SOL     OW 5317   4.389   2.642   2.757  0.2276  0.3896 -0.3750
 1330SOL    HW1 5318   4.397   2.578   2.827  0.3675  1.1802  0.3538
 1330SOL    HW2 5319   4.428   2.600   2.680 -0.1150 -0.5603 -0.0377
 1330SOL     MW 5320   4.395   2.629   2.756  0.2017  0.3692 -0.2385
 1331SOL     OW 5321   1.112   0.033   0.295  0.0444 -0.1078 -0.4225
 1331SOL    HW1 5322   1.113   0.035   0.391  1.0709 -0.1624 -0.4273
 1331SOL    HW2 5323   1.032   0.081   0.272 -0.9121 -1.2110  0.4698
 1331SOL     MW 5324   1.102   0.040   0.304  0.0534 -0.2560 -0.3089
 1332SOL     OW 5325   0.780   3.614   4.005 -0.0035  0.1093 -0.4669
 1332SOL    HW1 5326   0.715   3.559   4.049  0.3609  1.3072  1.7273
 1332SOL    HW2 5327   0.863   3.567   4.018 -0.0350 -0.0284 -0.7639
 1332SOL     MW 5328   0.783   3.601   4.013  0.0391  0.2450 -0.2240
 1333SOL     OW 5329   4.117   0.049   2.815  0.2526 -0.0062 -0.1597
 1333SOL    HW1 5330   4.070  -0.028   2.849  0.2864  0.8899  2.1113
 1333SOL    HW2 5331   4.146   0.023   2.728 -1.7933 -1.6962 -0.4154
 1333SOL     MW 5332   4.115   0.036   2.808 -0.0050 -0.1078  0.0983
 1334SOL     OW 5333   2.259   2.470   0.721  0.5562  0.2951 -0.1566
 1334SOL    HW1 5334   2.166   2.493   0.723  0.4231 -0.2728  0.2361
 1334SOL    HW2 5335   2.286   2.490   0.631 -0.3350 -1.0257 -0.7517
 1334SOL     MW 5336   2.251   2.476   0.709  0.4251  0.0533 -0.1825
 1335SOL     OW 5337   2.175   2.028   5.300  0.6712 -0.2342 -0.0827
 1335SOL    HW1 5338   2.149   2.025   5.392 -1.0210  0.0679 -0.5126
 1335SOL    HW2 5339   2.184   1.936   5.274  2.0800 -0.3132  0.5960
 1335SOL     MW 5340   2.173   2.016   5.308  0.6349 -0.2057 -0.0508
 1336SOL     OW 5341   4.912   4.811   1.756  0.1914  0.1654 -0.1865
 1336SOL    HW1 5342   4.969   4.888   1.764  0.9857 -0.1809 -1.9836
 1336SOL    HW2 5343   4.952   4.759   1.685  0.2286 -2.3939  1.5824
 1336SOL     MW 5344   4.925   4.814   1.748  0.2978 -0.2065 -0.1901
 1337SOL     OW 5345   1.229   5.289   5.345  0.0537 -0.8334  0.1160
 1337SOL    HW1 5346   1.246   5.365   5.400  1.1768 -0.7773 -0.2766
 1337SOL    HW2 5347   1.305   5.233   5.357 -0.7714 -1.9174  0.4094
 1337SOL     MW 5348   1.241   5.292   5.353  0.0919 -0.9650  0.1033
 1338SOL     OW 5349   2.352   2.037   1.673 -0.0001 -0.0984  0.0485
 1338SOL    HW1 5350   2.335   2.096   1.599  2.3550  1.1733  0.4326
 1338SOL    HW2 5351   2.316   1.953   1.645 -1.4614  0.9429 -1.4476
 1338SOL     MW 5352   2.345   2.034   1.660  0.1143  0.1977 -0.0938
 1339SOL     OW 5353   1.975   2.524   0.707 -0.9075 -0.5475 -0.3561
 1339SOL    HW1 5354   1.962   2.515   0.801  0.7439 -0.9813 -0.1418
 1339SOL    HW2 5355   2.000   2.616   0.695  0.3087 -0.8371 -0.1623
 1339SOL     MW 5356   1.977   2.535   0.717 -0.5404 -0.6401 -0.3039
 1340SOL     OW 5357   2.088   0.260   0.807 -0.1080 -0.3808  0.5404
 1340SOL    HW1 5358   2.094   0.355   0.814 -0.7032 -0.4061  1.6470
 1340SOL    HW2 5359   2.053   0.232   0.892  0.2138 -1.6024  0.2905
 1340SOL     MW 5360   2.084   0.268   0.819 -0.1430 -0.5404  0.6501
 1341SOL     OW 5361   5.318   4.633   5.326 -0.3123  0.4188 -0.4822
 1341SOL    HW1 5362   5.244   4.615   5.384  0.4243 -1.0370  0.0688
 1341SOL    HW2 5363   5.333   4.727   5.335 -1.0265  0.4452  0.7212
 1341SOL     MW 5364   5.310   4.642   5.335 -0.3095  0.2358 -0.2576
 1342SOL     OW 5365   2.947   0.330   0.714 -0.0842 -0.0455  0.0742
 1342SOL    HW1 5366   2.918   0.386   0.786 -1.0210 -0.0137 -0.3175
 1342SOL    HW2 5367   2.878   0.263   0.707  0.6756 -0.8514  0.0911
 1342SOL     MW 5368   2.935   0.328   0.722 -0.1068 -0.1446  0.0262
 1343SOL     OW 5369   3.147   3.798   4.646 -0.5305  0.4125 -0.5830
 1343SOL    HW1 5370   3.240   3.821   4.654 -1.0083  2.3395 -0.1002
 1343SOL    HW2 5371   3.114   3.801   4.735 -0.7815 -1.7644 -0.5466
 1343SOL     MW 5372   3.155   3.801   4.658 -0.6238  0.3805 -0.5166
 1344SOL     OW 5373   1.846   3.776   1.861 -0.2934 -0.0604 -0.7773
 1344SOL    HW1 5374   1.855   3.834   1.786  1.7130 -0.1133 -0.6200
 1344SOL    HW2 5375   1.935   3.749   1.883 -0.7620  0.1204  1.7481
 1344SOL     MW 5376   1.858   3.780   1.854 -0.0966 -0.0440 -0.4339
 1345SOL     OW 5377   0.906   1.445   4.776  0.6092 -0.1910  0.3042
 1345SOL    HW1 5378   0.828   1.501   4.768  0.9021  0.1849  0.0237
 1345SOL    HW2 5379   0.968   1.482   4.714  0.5097 -1.3654 -0.5214
 1345SOL     MW 5380   0.904   1.457   4.767  0.6340 -0.2932  0.1626
 1346SOL     OW 5381   4.388   1.226   0.037 -0.3019  0.2340 -0.4111
 1346SOL    HW1 5382   4.429   1.227  -0.050 -1.2699 -1.8469 -0.9567
 1346SOL    HW2 5383   4.299   1.195   0.021 -0.6045  0.1163  1.3063
 1346SOL     MW 5384   4.382   1.222   0.024 -0.4646 -0.0474 -0.2611
 1347SOL     OW 5385   0.780   1.355   2.542 -0.3461  0.0821  0.5023
 1347SOL    HW1 5386   0.872   1.364   2.517 -0.3438  0.4972  0.6466
 1347SOL    HW2 5387   0.747   1.445   2.542 -0.4622  0.0507  1.5414
 1347SOL     MW 5388   0.787   1.368   2.538 -0.3606  0.1312  0.6538
 1348SOL     OW 5389   4.497   2.442   1.076  0.0998 -0.2170 -0.2569
 1348SOL    HW1 5390   4.558   2.384   1.121  0.8460  0.5335 -0.2546
 1348SOL    HW2 5391   4.549   2.480   1.005  0.2377  1.8862  0.8862
 1348SOL     MW 5392   4.512   2.440   1.073  0.2130  0.1483 -0.1102
 1349SOL     OW 5393   0.358   0.770   1.536  0.1017  0.7919 -0.4656
 1349SOL    HW1 5394   0.285   0.797   1.592  1.0995  1.6813  0.4552
 1349SOL    HW2 5395   0.432   0.823   1.566  1.3799 -0.7709 -0.7087
 1349SOL     MW 5396   0.358   0.780   1.547  0.3930  0.7057 -0.3788
 1350SOL     OW 5397   0.035   2.845   1.648  0.3320  0.4965 -0.3524
 1350SOL    HW1 5398   0.042   2.927   1.600 -0.3279 -0.2513 -1.7700
 1350SOL    HW2 5399   0.059   2.868   1.738  2.2023  1.7914 -1.1306
 1350SOL     MW 5400   0.039   2.858   1.654  0.4869  0.5666 -0.6335
 1351SOL     OW 5401   1.208   0.103   5.076 -0.0238  0.3153  0.0962
 1351SOL    HW1 5402   1.271   0.138   5.140  0.0831  0.8186 -0.2754
 1351SOL    HW2 5403   1.212   0.165   5.003  1.5205 -1.4630 -1.4093
 1351SOL     MW 5404   1.217   0.116   5.075  0.1875  0.1521 -0.1441
 1352SOL     OW 5405   3.422   2.564   5.173 -0.2789  0.2173  0.4556
 1352SOL    HW1 5406   3.405   2.524   5.258  1.3077  0.9195  1.1416
 1352SOL    HW2 5407   3.459   2.493   5.120 -1.1032 -0.1730  0.3760
 1352SOL     MW 5408   3.424   2.550   5.177 -0.1813  0.2572  0.5333
 1353SOL     OW 5409   1.089   3.215   2.920 -0.2482  0.2918  0.0756
 1353SOL    HW1 5410   1.103   3.156   2.845  1.3292  1.3674 -0.5288
 1353SOL    HW2 5411   1.112   3.301   2.887 -1.2024  1.0727  1.3431
 1353SOL     MW 5412   1.094   3.218   2.906 -0.1684  0.5295  0.1605
 1354SOL     OW 5413   4.236   2.015   3.926  0.6895 -0.0661 -0.2478
 1354SOL    HW1 5414   4.211   1.936   3.877 -0.0111  0.1423 -0.2406
 1354SOL    HW2 5415   4.246   2.082   3.858  0.3410  0.0675 -0.1713
 1354SOL     MW 5416   4.234   2.014   3.911  0.5552 -0.0223 -0.2371
 1355SOL     OW 5417   0.123   0.558   0.658  0.1813 -0.0579  0.2424
 1355SOL    HW1 5418   0.180   0.606   0.599  0.4868 -0.4873  0.1823
 1355SOL    HW2 5419   0.127   0.467   0.627 -0.7958 -0.0350  0.0311
 1355SOL     MW 5420   0.131   0.552   0.646  0.0954 -0.1099  0.2076
 1356SOL     OW 5421   1.965   2.841   4.912  0.3637  0.6963  0.8404
 1356SOL    HW1 5422   2.037   2.904   4.909 -1.2507  2.6037 -1.5253
 1356SOL    HW2 5423   1.890   2.890   4.945 -0.5137 -0.4994  0.7052
 1356SOL     MW 5424   1.965   2.855   4.915  0.0447  0.7874  0.5203
 1357SOL     OW 5425   3.829   2.096   2.682 -0.3878  0.0086 -0.6708
 1357SOL    HW1 5426   3.882   2.138   2.750 -0.4900  1.4128 -1.4104
 1357SOL    HW2 5427   3.804   2.012   2.720 -1.7943  1.3798  1.7094
 1357SOL     MW 5428   3.833   2.091   2.696 -0.5810  0.3639 -0.4608
 1358SOL     OW 5429   3.355   2.281   3.844  0.0293 -0.2744 -0.3578
 1358SOL    HW1 5430   3.396   2.348   3.899 -0.0964  0.3794 -1.0410
 1358SOL    HW2 5431   3.261   2.295   3.855  0.0007 -0.3816 -0.4596
 1358SOL     MW 5432   3.348   2.291   3.853  0.0096 -0.2044 -0.4583
 1359SOL     OW 5433   1.737   4.115   4.915  0.5714 -0.2288  0.0677
 1359SOL    HW1 5434   1.788   4.042   4.949  2.5898  1.5264  1.1116
 1359SOL    HW2 5435   1.698   4.155   4.993  0.0714  0.2284 -0.4069
 1359SOL     MW 5436   1.738   4.111   4.930  0.7657  0.0544  0.1406
 1360SOL     OW 5437   0.241   2.252   5.345 -0.2753 -0.3159 -0.2040
 1360SOL    HW1 5438   0.284   2.336   5.357 -0.9454 -0.2144  2.1405
 1360SOL    HW2 5439   0.182   2.264   5.271  0.9128  0.7138 -1.0063
 1360SOL     MW 5440   0.239   2.264   5.337 -0.2090 -0.1711 -0.0066
 1361SOL     OW 5441   2.253   2.857   0.945  0.5862  0.0725 -0.1714
 1361SOL    HW1 5442   2.265   2.897   1.031  1.6110 -0.2037 -0.1706
 1361SOL    HW2 5443   2.275   2.765   0.957  0.8852  0.0600 -0.7539
 1361SOL     MW 5444   2.257   2.850   0.957  0.7557  0.0355 -0.2459
 1362SOL     OW 5445   3.273   1.247   0.017 -0.1675 -0.6454  0.4692
 1362SOL    HW1 5446   3.327   1.324  -0.001 -1.4720  0.0242 -0.7616
 1362SOL    HW2 5447   3.285   1.231   0.111 -0.7478  1.7617  1.0172
 1362SOL     MW 5448   3.282   1.255   0.027 -0.4088 -0.2516  0.3818
 1363SOL     OW 5449   4.529   3.785   3.538  0.4618  0.0558  0.4701
 1363SOL    HW1 5450   4.473   3.742   3.603 -1.4753  1.6843 -0.0164
 1363SOL    HW2 5451   4.616   3.787   3.579 -0.5642  0.5007  2.7857
 1363SOL     MW 5452   4.533   3.780   3.552  0.0825  0.3212  0.7042
 1364SOL     OW 5453   0.128   3.945   4.589  0.4053  0.0226 -0.4022
 1364SOL    HW1 5454   0.043   3.951   4.545  0.2587  2.3117  0.0769
 1364SOL    HW2 5455   0.190   3.979   4.525  0.7197 -0.1077 -0.1662
 1364SOL     MW 5456   0.125   3.950   4.575  0.4267  0.2990 -0.3106
 1365SOL     OW 5457   5.246   1.352   0.454 -0.4656  0.4849 -0.5102
 1365SOL    HW1 5458   5.248   1.293   0.379 -0.1619 -0.3287  0.1332
 1365SOL    HW2 5459   5.294   1.306   0.523 -0.5855  1.2991  0.1323
 1365SOL     MW 5460   5.253   1.339   0.454 -0.4421  0.4850 -0.3456
 1366SOL     OW 5461   3.181   3.358   1.061 -0.5757 -0.1219  0.0417
 1366SOL    HW1 5462   3.147   3.269   1.074 -0.7647 -0.1503 -0.6074
 1366SOL    HW2 5463   3.186   3.368   0.965  1.1323 -0.0841  0.0888
 1366SOL     MW 5464   3.178   3.348   1.050 -0.3812 -0.1207 -0.0354
 1367SOL     OW 5465   1.267   4.170   1.428 -0.2025 -0.5396 -0.3343
 1367SOL    HW1 5466   1.332   4.234   1.457  0.0557 -0.4056 -1.1939
 1367SOL    HW2 5467   1.264   4.179   1.333 -1.4735 -0.5535 -0.3208
 1367SOL     MW 5468   1.275   4.179   1.420 -0.3322 -0.5242 -0.4426
 1368SOL     OW 5469   5.115   0.079   3.528  0.3457 -0.1569 -0.1091
 1368SOL    HW1 5470   5.133   0.008   3.466  0.1085 -0.3894  0.0892
 1368SOL    HW2 5471   5.027   0.109   3.505  0.0580 -0.5739  0.4351
 1368SOL     MW 5472   5.106   0.074   3.517  0.2785 -0.2401 -0.0140
 1369SOL     OW 5473   2.559   0.639   0.480  0.0240 -0.1801 -0.1851
 1369SOL    HW1 5474   2.581   0.554   0.441  0.5997  0.4514 -1.2745
 1369SOL    HW2 5475   2.477   0.664   0.437  0.1679  0.0880 -0.3042
 1369SOL     MW 5476   2.551   0.631   0.469  0.1161 -0.0650 -0.3398
 1370SOL     OW 5477   4.382   3.406   0.874  0.3795  0.0617 -0.0842
 1370SOL    HW1 5478   4.395   3.328   0.820 -0.1250 -1.0850  1.3755
 1370SOL    HW2 5479   4.440   3.393   0.949  0.4852  1.2322  0.0559
 1370SOL     MW 5480   4.391   3.395   0.877  0.3284  0.0648  0.1206
 1371SOL     OW 5481   2.778   1.096   3.580  0.1390  0.2286 -0.4043
 1371SOL    HW1 5482   2.723   1.159   3.627  0.5037 -0.7021  1.3481
 1371SOL    HW2 5483   2.744   1.010   3.606  1.9502 -0.3556  0.1688
 1371SOL     MW 5484   2.766   1.093   3.590  0.4176  0.0347 -0.1066
 1372SOL     OW 5485   4.137   2.768   4.923 -0.1534  0.4739 -0.3615
 1372SOL    HW1 5486   4.175   2.852   4.946  1.4612 -0.9539  2.7504
 1372SOL    HW2 5487   4.213   2.712   4.903 -1.0138 -0.8000 -0.1905
 1372SOL     MW 5488   4.152   2.771   4.923 -0.0568  0.1281  0.0588
 1373SOL     OW 5489   3.724   4.859   0.525  0.0856 -0.0356  0.1900
 1373SOL    HW1 5490   3.794   4.851   0.589  0.2003  0.8589  0.1779
 1373SOL    HW2 5491   3.751   4.930   0.467 -0.7456  0.2034  0.0786
 1373SOL     MW 5492   3.736   4.867   0.526 -0.0061  0.1095  0.1742
 1374SOL     OW 5493   2.393   3.432   5.480 -0.0286  0.0762  0.4149
 1374SOL    HW1 5494   2.354   3.348   5.453 -0.1961  0.7098 -1.4103
 1374SOL    HW2 5495   2.488   3.417   5.475 -0.0536 -0.1167  0.4941
 1374SOL     MW 5496   2.400   3.419   5.476 -0.0533  0.1326  0.1914
 1375SOL     OW 5497   4.139   0.376   4.000 -0.1491  0.3095  0.5447
 1375SOL    HW1 5498   4.180   0.418   4.076 -1.0359 -0.7951  1.6685
 1375SOL    HW2 5499   4.047   0.401   4.005 -0.2773 -0.0313  0.0134
 1375SOL     MW 5500   4.132   0.384   4.010 -0.2791  0.1245  0.6206
 1376SOL     OW 5501   3.053   0.208   1.509  0.4974 -0.5440  0.2182
 1376SOL    HW1 5502   3.118   0.226   1.576  1.8042 -1.5659 -0.7277
 1376SOL    HW2 5503   3.094   0.235   1.427 -0.8847  0.2480 -0.2473
 1376SOL     MW 5504   3.066   0.213   1.507  0.4878 -0.5734  0.0375
 1377SOL     OW 5505   2.077   3.104   2.946  0.0214  0.0686 -0.3951
 1377SOL    HW1 5506   2.069   3.180   2.889 -1.2573 -0.3118 -0.7515
 1377SOL    HW2 5507   2.138   3.046   2.901  0.9336  0.8149 -0.1652
 1377SOL     MW 5508   2.084   3.106   2.933 -0.0255  0.1155 -0.4113
 1378SOL     OW 5509   4.396   0.566   3.224  0.2616  0.0235 -0.0248
 1378SOL    HW1 5510   4.408   0.642   3.282  0.5756 -0.2916  0.3292
 1378SOL    HW2 5511   4.456   0.581   3.152  0.9284 -0.2885  0.4591
 1378SOL     MW 5512   4.405   0.578   3.222  0.3871 -0.0567  0.0825
 1379SOL     OW 5513   1.271   2.386   3.699 -0.1596  0.6165 -0.4714
 1379SOL    HW1 5514   1.254   2.301   3.657 -0.7394  0.8526 -0.7245
 1379SOL    HW2 5515   1.198   2.398   3.758  0.8863  0.0725  0.9934
 1379SOL     MW 5516   1.260   2.377   3.701 -0.0999  0.5771 -0.3163
 1380SOL     OW 5517   4.315   3.771   5.293  0.4387 -0.6317  0.0536
 1380SOL    HW1 5518   4.297   3.678   5.283  0.3976 -0.5149 -1.1420
 1380SOL    HW2 5519   4.370   3.777   5.371  0.1330 -1.6141  0.3529
 1380SOL     MW 5520   4.320   3.760   5.301  0.3943 -0.7425 -0.0612
 1381SOL     OW 5521   2.550   3.715   3.147 -0.6484  0.0616 -0.4716
 1381SOL    HW1 5522   2.472   3.666   3.122 -0.0069 -0.3597 -1.7288
 1381SOL    HW2 5523   2.567   3.687   3.237 -2.1394  0.4472 -0.0420
 1381SOL     MW 5524   2.542   3.705   3.156 -0.7572  0.0570 -0.5776
 1382SOL     OW 5525   1.917   0.845   4.302  0.6609 -0.0315 -0.0640
 1382SOL    HW1 5526   1.973   0.848   4.224 -0.4115  0.8077 -0.8384
 1382SOL    HW2 5527   1.862   0.923   4.294 -0.3840 -0.6577  0.8396
 1382SOL     MW 5528   1.917   0.855   4.291  0.3898 -0.0042 -0.0475
 1383SOL     OW 5529   0.698   3.680   0.619  0.4567  0.2637 -0.6537
 1383SOL    HW1 5530   0.681   3.685   0.714 -1.9391 -0.1733 -0.9950
 1383SOL    HW2 5531   0.770   3.617   0.611 -0.8900 -1.5994  0.7943
 1383SOL     MW 5532   0.705   3.672   0.630 -0.0224 -0.0308 -0.5120
 1384SOL     OW 5533   3.170   3.496   3.996  0.3507  0.2238 -0.2480
 1384SOL    HW1 5534   3.113   3.568   4.020  0.2368 -0.5600  2.0885
 1384SOL    HW2 5535   3.242   3.537   3.949 -0.6787  1.5888 -0.6807
 1384SOL     MW 5536   3.172   3.510   3.993  0.2043  0.2982 -0.0043
 1385SOL     OW 5537   4.746   0.790   2.233  0.5036  0.6310 -0.3295
 1385SOL    HW1 5538   4.748   0.879   2.199 -0.9824  1.0141  0.4887
 1385SOL    HW2 5539   4.710   0.737   2.161  0.0273  0.9525 -0.3349
 1385SOL     MW 5540   4.741   0.794   2.219  0.2524  0.7212 -0.2254
 1386SOL     OW 5541   3.383   4.310   4.454 -0.7159  0.4610 -0.1751
 1386SOL    HW1 5542   3.419   4.233   4.411 -0.9054 -0.4597  1.2498
 1386SOL    HW2 5543   3.405   4.298   4.547 -1.4318  1.7273  0.1782
 1386SOL     MW 5544   3.390   4.299   4.460 -0.8318  0.5052  0.0525
 1387SOL     OW 5545   1.976   1.949   2.905 -0.0305  0.4901 -0.3420
 1387SOL    HW1 5546   2.016   2.006   2.971 -0.3823  1.5375 -1.0241
 1387SOL    HW2 5547   1.895   1.918   2.946 -1.5509  3.1277 -1.1466
 1387SOL     MW 5548   1.971   1.952   2.919 -0.2702  0.9618 -0.5323
 1388SOL     OW 5549   3.947   3.878   2.039 -0.3186 -0.0547  0.1190
 1388SOL    HW1 5550   3.957   3.810   1.973  0.2031 -0.0225  0.1587
 1388SOL    HW2 5551   3.915   3.832   2.116  1.2484 -0.4969  0.5506
 1388SOL     MW 5552   3.945   3.864   2.040 -0.0512 -0.1072  0.1793
 1389SOL     OW 5553   2.384   1.800   1.405  0.2749 -0.0510  0.1216
 1389SOL    HW1 5554   2.345   1.766   1.324  0.9401 -1.2972  0.2987
 1389SOL    HW2 5555   2.313   1.797   1.469 -0.3707  1.3257 -0.4859
 1389SOL     MW 5556   2.370   1.795   1.403  0.2774 -0.0343  0.0665
 1390SOL     OW 5557   2.120   4.116   2.040  0.1206 -0.3444  0.2204
 1390SOL    HW1 5558   2.138   4.040   2.094  0.7307 -0.1835  0.2531
 1390SOL    HW2 5559   2.178   4.107   1.964 -0.4653 -0.3813 -0.2380
 1390SOL     MW 5560   2.130   4.105   2.037  0.1237 -0.3285  0.1659
 1391SOL     OW 5561   0.061   4.359   0.253 -0.0051 -0.1159  0.1364
 1391SOL    HW1 5562   0.074   4.280   0.201  0.7750  0.2437 -0.2243
 1391SOL    HW2 5563   0.010   4.417   0.195 -1.3253 -0.6590  0.7124
 1391SOL     MW 5564   0.056   4.356   0.239 -0.0742 -0.1394  0.1640
 1392SOL     OW 5565   0.027   5.180   2.532 -0.3199  0.1477  0.1886
 1392SOL    HW1 5566   0.013   5.101   2.478 -0.5232  0.6920 -0.5702
 1392SOL    HW2 5567  -0.025   5.164   2.610 -0.6193 -0.3414 -0.0973
 1392SOL     MW 5568   0.018   5.168   2.535 -0.3842  0.1547  0.0548
 1393SOL     OW 5569   1.085   4.682   2.469 -0.1807  0.2642 -0.8250
 1393SOL    HW1 5570   0.998   4.656   2.438 -1.1861  1.4151  0.8613
 1393SOL    HW2 5571   1.123   4.730   2.396 -0.7752 -0.6249 -1.7415
 1393SOL     MW 5572   1.079   4.685   2.456 -0.3855  0.2977 -0.7265
 1394SOL     OW 5573   0.483   0.398   2.503  0.1472  0.3922  0.1032
 1394SOL    HW1 5574   0.489   0.434   2.591  1.1841  0.8376 -0.1355
 1394SOL    HW2 5575   0.524   0.464   2.446  2.7835 -1.3752 -0.2589
 1394SOL     MW 5576   0.489   0.411   2.507  0.6174  0.2229  0.0263
 1395SOL     OW 5577   2.504   0.942   2.666  0.4654 -0.3325  0.2400
 1395SOL    HW1 5578   2.471   0.900   2.587  2.0532 -1.8430  0.3171
 1395SOL    HW2 5579   2.444   0.915   2.735  2.2636 -4.0128  0.6076
 1395SOL     MW 5580   2.492   0.933   2.665  0.8989 -0.9970  0.2969
 1396SOL     OW 5581   5.135   0.194   5.385 -0.0734 -0.7813  0.5594
 1396SOL    HW1 5582   5.141   0.233   5.472  0.3309  0.1104  0.1425
 1396SOL    HW2 5583   5.224   0.163   5.367  0.2891  0.6370 -0.2461
 1396SOL     MW 5584   5.147   0.195   5.394  0.0248 -0.4856  0.4029
 1397SOL     OW 5585   0.136   2.819   4.244  0.5667  0.8552 -0.3574
 1397SOL    HW1 5586   0.142   2.808   4.339  0.0533 -0.4992 -0.4739
 1397SOL    HW2 5587   0.227   2.822   4.215  0.7320  1.5536  0.1933
 1397SOL     MW 5588   0.148   2.818   4.253  0.5222  0.7712 -0.3018
 1398SOL     OW 5589   1.971   2.979   0.303 -0.3556 -0.1292 -0.2819
 1398SOL    HW1 5590   2.017   3.063   0.305 -0.6372  0.0270  1.3071
 1398SOL    HW2 5591   1.959   2.956   0.396 -0.4005 -1.8636 -0.6761
 1398SOL     MW 5592   1.976   2.986   0.315 -0.3974 -0.3312 -0.1290
 1399SOL     OW 5593   4.849   2.508   1.688  0.8206  0.1418  0.0266
 1399SOL    HW1 5594   4.786   2.551   1.746  1.6387 -0.1241  1.1443
 1399SOL    HW2 5595   4.823   2.535   1.600  0.8076  2.2218  0.6335
 1399SOL     MW 5596   4.837   2.517   1.685  0.9236  0.3740  0.2474
 1400SOL     OW 5597   1.869   3.015   3.695 -0.0941  0.1065 -0.0273
 1400SOL    HW1 5598   1.913   2.959   3.759 -1.4972 -0.3473  0.5839
 1400SOL    HW2 5599   1.875   3.103   3.732  0.0443  0.0056  0.1936
 1400SOL     MW 5600   1.875   3.019   3.708 -0.2560  0.0355  0.0792
 1401SOL     OW 5601   3.182   1.125   1.551  0.2888 -0.1302  0.2769
 1401SOL    HW1 5602   3.273   1.107   1.529  0.4913 -0.7136  1.4848
 1401SOL    HW2 5603   3.174   1.100   1.643 -1.1191 -0.2125  0.1627
 1401SOL     MW 5604   3.192   1.119   1.560  0.1345 -0.2154  0.4169
 1402SOL     OW 5605   3.427   3.879   4.624 -0.4712 -0.2325  0.0334
 1402SOL    HW1 5606   3.474   3.934   4.686  0.0765  0.7664 -1.2239
 1402SOL    HW2 5607   3.493   3.853   4.560 -1.2403 -0.3079 -0.7468
 1402SOL     MW 5608   3.441   3.883   4.623 -0.4996 -0.1143 -0.2275
 1403SOL     OW 5609   2.970   3.671   0.436 -0.0174 -0.2921 -0.4819
 1403SOL    HW1 5610   3.004   3.753   0.401 -0.1521 -0.3177 -0.6750
 1403SOL    HW2 5611   3.046   3.630   0.479 -0.0253  0.0751 -0.1108
 1403SOL     MW 5612   2.984   3.676   0.437 -0.0356 -0.2484 -0.4592
 1404SOL     OW 5613   0.089   3.813   0.352  0.3220 -0.1550  1.0873
 1404SOL    HW1 5614   0.156   3.789   0.288 -0.5361  0.2422  0.0144
 1404SOL    HW2 5615   0.054   3.729   0.382 -0.9979 -0.3669 -0.8621
 1404SOL     MW 5616   0.093   3.799   0.347  0.0432 -0.1313  0.7004
 1405SOL     OW 5617   2.999   3.908   2.487 -0.1926 -0.0271  0.1237
 1405SOL    HW1 5618   2.970   3.861   2.565 -0.3337 -0.8900 -0.4240
 1405SOL    HW2 5619   3.075   3.858   2.457 -0.0338  0.3994 -0.1940
 1405SOL     MW 5620   3.005   3.895   2.493 -0.1903 -0.0830  0.0129
 1406SOL     OW 5621   0.369   3.894   4.886 -0.0922  0.3695  0.6463
 1406SOL    HW1 5622   0.383   3.975   4.837 -0.7493 -0.6232 -1.2647
 1406SOL    HW2 5623   0.426   3.902   4.962  0.2293  2.4062  0.2457
 1406SOL     MW 5624   0.378   3.905   4.890 -0.1352  0.5032  0.3504
 1407SOL     OW 5625   1.605   3.384   1.083  0.2514  0.0927 -0.2721
 1407SOL    HW1 5626   1.587   3.344   0.998  0.3932 -1.7596  0.5236
 1407SOL    HW2 5627   1.588   3.477   1.070 -0.8126 -0.3019 -2.0292
 1407SOL     MW 5628   1.600   3.391   1.071  0.1333 -0.1949 -0.3952
 1408SOL     OW 5629   1.658   3.895   4.184 -0.0972 -0.0883 -0.2764
 1408SOL    HW1 5630   1.683   3.822   4.128 -0.6710  0.1521 -0.8509
 1408SOL    HW2 5631   1.718   3.966   4.159  0.5405 -0.3797  0.3648
 1408SOL     MW 5632   1.669   3.895   4.174 -0.0890 -0.0949 -0.2678
 1409SOL     OW 5633   4.930   3.735   3.037 -0.2518 -0.0597  0.2463
 1409SOL    HW1 5634   4.928   3.824   3.002  0.6826 -0.0183  0.2939
 1409SOL    HW2 5635   4.926   3.746   3.132  0.6693 -0.0328  0.2850
 1409SOL     MW 5636   4.929   3.748   3.045 -0.0143 -0.0509  0.2574
 1410SOL     OW 5637   4.274   2.607   5.136  0.1445 -0.0452  0.3901
 1410SOL    HW1 5638   4.361   2.569   5.144  0.4176  0.7275  1.1581
 1410SOL    HW2 5639   4.230   2.585   5.218  0.2831  1.2181  0.8194
 1410SOL     MW 5640   4.279   2.599   5.148  0.1972  0.2155  0.5434
 1411SOL     OW 5641   1.929   4.429   0.811  0.1957  0.3681 -0.0325
 1411SOL    HW1 5642   2.007   4.441   0.865  0.8563 -0.6207 -0.7219
 1411SOL    HW2 5643   1.943   4.486   0.735  0.1405  0.3488 -0.0574
 1411SOL     MW 5644   1.940   4.438   0.808  0.2732  0.2390 -0.1239
 1412SOL     OW 5645   0.916   2.805   2.554 -0.2062 -0.1895  0.3413
 1412SOL    HW1 5646   0.990   2.864   2.536  0.8419 -1.2105  1.1423
 1412SOL    HW2 5647   0.866   2.850   2.621  1.0238 -0.5076  1.5240
 1412SOL     MW 5648   0.919   2.819   2.560  0.0854 -0.3609  0.5952
 1413SOL     OW 5649   3.111   3.240   4.120  0.4725  0.3572 -0.2103
 1413SOL    HW1 5650   3.153   3.319   4.086  0.3334  0.6390  0.2765
 1413SOL    HW2 5651   3.044   3.271   4.180 -0.9966 -0.0599 -1.5548
 1413SOL     MW 5652   3.108   3.254   4.123  0.2666  0.3399 -0.3201
 1414SOL     OW 5653   1.629   2.658   5.429  0.0083  0.4485 -0.0343
 1414SOL    HW1 5654   1.673   2.728   5.477 -0.9613  0.5091  0.7973
 1414SOL    HW2 5655   1.701   2.603   5.396  0.7137  0.0277  2.0465
 1414SOL     MW 5656   1.644   2.660   5.431 -0.0255  0.4024  0.3385
 1415SOL     OW 5657   0.598   2.988   4.857 -0.3734  0.1372 -0.0454
 1415SOL    HW1 5658   0.540   3.022   4.925  0.0250  3.1707 -1.0388
 1415SOL    HW2 5659   0.686   3.000   4.892 -0.1863  1.2822 -0.8152
 1415SOL     MW 5660   0.602   2.994   4.870 -0.2985  0.6721 -0.2711
 1416SOL     OW 5661   5.039   0.341   2.837  0.4245 -0.5827 -0.8594
 1416SOL    HW1 5662   5.029   0.340   2.932  0.0272 -2.6256 -0.8792
 1416SOL    HW2 5663   5.104   0.410   2.820 -0.9801  1.2120  0.6838
 1416SOL     MW 5664   5.046   0.350   2.847  0.1938 -0.6145 -0.6644
 1417SOL     OW 5665   4.485   3.636   1.382 -0.1088 -0.2841 -0.1124
 1417SOL    HW1 5666   4.402   3.652   1.427  0.4093  0.6140  0.5742
 1417SOL    HW2 5667   4.543   3.706   1.414  1.2394 -1.5245  0.2568
 1417SOL     MW 5668   4.482   3.647   1.392  0.1301 -0.3279  0.0227
 1418SOL     OW 5669   1.453   1.215   3.473  0.0034  0.1760  0.3261
 1418SOL    HW1 5670   1.409   1.278   3.416  0.7692 -0.4418 -0.9749
 1418SOL    HW2 5671   1.435   1.130   3.434 -0.2797 -0.3559  1.5737
 1418SOL     MW 5672   1.445   1.212   3.461  0.0652  0.0288  0.3193
 1419SOL     OW 5673   2.578   5.305   2.011  0.5060 -0.1261  0.1001
 1419SOL    HW1 5674   2.590   5.342   1.924 -1.1301 -0.3668 -0.2632
 1419SOL    HW2 5675   2.534   5.375   2.061 -1.2733 -0.9937 -0.1705
 1419SOL     MW 5676   2.574   5.319   2.006  0.0688 -0.2680  0.0189
 1420SOL     OW 5677   2.860   4.174   2.803 -0.1519 -0.2940 -0.0839
 1420SOL    HW1 5678   2.773   4.214   2.805 -0.2113 -0.4543  1.0614
 1420SOL    HW2 5679   2.884   4.166   2.895  0.4392 -1.6453 -0.3473
 1420SOL     MW 5680   2.852   4.178   2.815 -0.0838 -0.4875  0.0290
 1421SOL     OW 5681   2.458   1.916   2.499  0.4935 -0.7002  0.3693
 1421SOL    HW1 5682   2.388   1.864   2.459  1.7527 -1.5717 -0.7584
 1421SOL    HW2 5683   2.414   1.997   2.527 -0.9371 -1.1758 -0.3961
 1421SOL     MW 5684   2.443   1.920   2.498  0.4715 -0.8726  0.1270
 1422SOL     OW 5685   0.567   1.083   4.118 -0.0467 -0.0759 -0.2837
 1422SOL    HW1 5686   0.591   1.049   4.032  0.9862 -0.2620  0.0625
 1422SOL    HW2 5687   0.594   1.175   4.116 -1.3217  0.3074 -0.6403
 1422SOL     MW 5688   0.574   1.090   4.107 -0.0777 -0.0506 -0.2850
 1423SOL     OW 5689   2.138   0.821   1.760 -0.5943 -0.7647  0.3896
 1423SOL    HW1 5690   2.086   0.741   1.750  0.2145 -1.0221 -2.3025
 1423SOL    HW2 5691   2.229   0.791   1.756 -0.2196  0.0498  1.9784
 1423SOL     MW 5692   2.143   0.807   1.758 -0.4428 -0.6934  0.2484
 1424SOL     OW 5693   0.585   5.204   4.496 -0.0628 -0.0905  0.3345
 1424SOL    HW1 5694   0.652   5.184   4.430 -1.4810  0.2469 -1.2644
 1424SOL    HW2 5695   0.612   5.153   4.573  2.0102  0.0246 -0.2328
 1424SOL     MW 5696   0.597   5.195   4.498  0.0210 -0.0326  0.0572
 1425SOL     OW 5697   0.812   2.986   4.298 -0.4890  0.1481  0.2515
 1425SOL    HW1 5698   0.769   2.954   4.378  1.4368 -1.4087  0.7593
 1425SOL    HW2 5699   0.742   2.992   4.234 -1.7110 -0.9250  1.4160
 1425SOL     MW 5700   0.798   2.982   4.300 -0.3989 -0.1886  0.4656
 1426SOL     OW 5701   2.677   1.865   2.681  0.3357 -0.4028  0.2694
 1426SOL    HW1 5702   2.606   1.888   2.621  1.1330 -0.4581 -0.7232
 1426SOL    HW2 5703   2.654   1.778   2.712 -0.2086 -0.2793  0.2207
 1426SOL     MW 5704   2.665   1.857   2.677  0.3681 -0.3941  0.1361
 1427SOL     OW 5705   0.394   5.126   1.546 -0.8496  0.1291  1.0344
 1427SOL    HW1 5706   0.312   5.077   1.554 -1.8088  1.6656  1.0895
 1427SOL    HW2 5707   0.372   5.201   1.491  1.4111 -1.2107 -1.9507
 1427SOL     MW 5708   0.380   5.129   1.540 -0.6830  0.1542  0.6594
 1428SOL     OW 5709   4.781   2.744   4.115  0.5384  0.4302 -1.0597
 1428SOL    HW1 5710   4.851   2.783   4.166 -0.1962  0.7385 -0.2499
 1428SOL    HW2 5711   4.791   2.650   4.129  0.0786  0.5270  0.0542
 1428SOL     MW 5712   4.791   2.737   4.123  0.3855  0.4821 -0.8135
 1429SOL     OW 5713   1.344   1.772   2.898 -0.5874 -0.6948  0.2579
 1429SOL    HW1 5714   1.314   1.847   2.949  1.4083 -0.3356  0.9609
 1429SOL    HW2 5715   1.329   1.697   2.956 -0.7702 -0.6059  0.3276
 1429SOL     MW 5716   1.338   1.772   2.912 -0.3554 -0.6374  0.3568
 1430SOL     OW 5717   1.031   1.738   4.753 -0.2229  0.3410 -0.3381
 1430SOL    HW1 5718   1.105   1.726   4.813 -1.4509  1.3806  1.4945
 1430SOL    HW2 5719   1.041   1.827   4.719  0.9224 -0.5137 -2.4461
 1430SOL     MW 5720   1.042   1.748   4.756 -0.2335  0.3647 -0.3733
 1431SOL     OW 5721   4.454   1.421   2.833 -0.0868  0.0973 -0.0103
 1431SOL    HW1 5722   4.396   1.380   2.897 -0.4756  0.3014 -0.2309
 1431SOL    HW2 5723   4.503   1.348   2.795  0.0929 -0.0335  0.4629
 1431SOL     MW 5724   4.453   1.406   2.836 -0.1136  0.1067  0.0220
 1432SOL     OW 5725   1.477   4.326   1.539  0.1312  0.6495  0.3417
 1432SOL    HW1 5726   1.422   4.377   1.598  1.6466 -0.8081  3.2616
 1432SOL    HW2 5727   1.566   4.353   1.559  0.7219  0.2200 -1.4858
 1432SOL     MW 5728   1.481   4.336   1.549  0.4008  0.4079  0.4816
 1433SOL     OW 5729   2.467   4.482   5.452  0.0079  0.2072 -0.3673
 1433SOL    HW1 5730   2.447   4.500   5.360 -1.9973 -0.1227 -0.0429
 1433SOL    HW2 5731   2.431   4.394   5.467  1.3479 -0.2279  0.4637
 1433SOL     MW 5732   2.460   4.473   5.442 -0.0773  0.1093 -0.2194
 1434SOL     OW 5733   5.136   4.635   3.678 -0.1513  0.1382 -0.2707
 1434SOL    HW1 5734   5.106   4.584   3.753 -0.3990  1.2896  0.4462
 1434SOL    HW2 5735   5.055   4.660   3.632 -0.1632  1.2251  0.3062
 1434SOL     MW 5736   5.121   4.632   3.682 -0.1846  0.4247 -0.1051
 1435SOL     OW 5737   5.052   2.057   0.946  0.5593  0.0245  0.0210
 1435SOL    HW1 5738   5.012   2.091   0.866 -1.3837  0.0336  0.9348
 1435SOL    HW2 5739   5.145   2.076   0.936  0.3473  0.2116 -2.1284
 1435SOL     MW 5740   5.059   2.064   0.934  0.2834  0.0496 -0.1372
 1436SOL     OW 5741   2.742   1.350   2.856  0.1380 -0.4908 -0.0778
 1436SOL    HW1 5742   2.672   1.416   2.850 -0.8460 -1.4629  0.4089
 1436SOL    HW2 5743   2.817   1.398   2.892 -0.5295  0.3995  0.1620
 1436SOL     MW 5744   2.743   1.365   2.860 -0.0734 -0.5013  0.0152
 1437SOL     OW 5745   1.567   0.991   2.638  0.6700 -0.0545 -0.4436
 1437SOL    HW1 5746   1.633   0.951   2.695 -0.0287 -0.4386  0.1073
 1437SOL    HW2 5747   1.543   0.921   2.578  0.7893  0.1003 -0.6736
 1437SOL     MW 5748   1.573   0.977   2.638  0.5958 -0.0839 -0.4025
 1438SOL     OW 5749   2.824   2.483   2.809 -0.0516 -0.3810 -0.1392
 1438SOL    HW1 5750   2.739   2.498   2.849  1.4885  0.9319  2.9816
 1438SOL    HW2 5751   2.840   2.389   2.820 -0.5447 -0.3949  0.4842
 1438SOL     MW 5752   2.815   2.473   2.816  0.0824 -0.2147  0.3401
 1439SOL     OW 5753   2.828   5.355   2.117  0.3673 -0.2214  0.0256
 1439SOL    HW1 5754   2.747   5.313   2.087 -0.1640  0.9593 -0.2565
 1439SOL    HW2 5755   2.888   5.283   2.133 -0.4462 -1.0742 -0.6487
 1439SOL     MW 5756   2.825   5.341   2.115  0.1951 -0.1795 -0.0968
 1440SOL     OW 5757   3.143   0.011   0.583 -0.5434  0.2497  0.2420
 1440SOL    HW1 5758   3.125   0.019   0.677  0.3082  0.7199  0.3667
 1440SOL    HW2 5759   3.236  -0.007   0.578 -0.3024  1.6067 -0.5749
 1440SOL     MW 5760   3.152   0.010   0.595 -0.4036  0.4836  0.1534
 1441SOL     OW 5761   0.161   4.058   3.366  0.3797 -0.2763  0.1029
 1441SOL    HW1 5762   0.200   4.042   3.280  0.0047 -2.2294  0.2599
 1441SOL    HW2 5763   0.233   4.043   3.428  0.7157  1.3696  0.1644
 1441SOL     MW 5764   0.175   4.054   3.363  0.3747 -0.3156  0.1309
 1442SOL     OW 5765   2.595   2.595   1.285 -0.2401 -0.2660  0.0790
 1442SOL    HW1 5766   2.515   2.556   1.321  1.0266 -2.6503  0.5571
 1442SOL    HW2 5767   2.605   2.554   1.199  0.9300 -0.7146  0.4122
 1442SOL     MW 5768   2.586   2.585   1.279  0.0718 -0.6287  0.1829
 1443SOL     OW 5769   3.228   3.775   3.231 -0.1440  0.0173 -0.1966
 1443SOL    HW1 5770   3.299   3.821   3.186 -0.0524 -0.7890 -0.9037
 1443SOL    HW2 5771   3.271   3.700   3.273 -0.5234 -0.2736 -0.3259
 1443SOL     MW 5772   3.243   3.771   3.231 -0.1808 -0.1231 -0.3037
 1444SOL     OW 5773   0.344   2.706   0.641 -0.0933 -0.1513  0.3663
 1444SOL    HW1 5774   0.253   2.687   0.616 -0.8502 -0.0973  2.7528
 1444SOL    HW2 5775   0.389   2.622   0.632 -0.4177 -0.2209 -0.6774
 1444SOL     MW 5776   0.338   2.693   0.637 -0.2317 -0.1533  0.5382
 1445SOL     OW 5777   5.202   0.157   2.119  0.4122 -0.2431  0.1510
 1445SOL    HW1 5778   5.158   0.073   2.110 -0.9402  0.5524 -1.0528
 1445SOL    HW2 5779   5.273   0.140   2.181  0.0485 -2.2023  0.0997
 1445SOL     MW 5780   5.205   0.144   2.126  0.1925 -0.3921 -0.0097
 1446SOL     OW 5781   4.041   0.227   2.543  0.0796 -0.1589 -0.2608
 1446SOL    HW1 5782   4.053   0.240   2.449 -1.3206  3.0260 -0.1513
 1446SOL    HW2 5783   4.046   0.316   2.580  2.2719 -1.4311  2.9490
 1446SOL     MW 5784   4.043   0.240   2.536  0.1810  0.0860  0.1641
 1447SOL     OW 5785   3.654   4.820   1.306 -0.1384 -0.2921  0.0326
 1447SOL    HW1 5786   3.576   4.864   1.339  0.0359  0.9669 -1.1650
 1447SOL    HW2 5787   3.622   4.765   1.234  0.0700  0.2115 -0.4477
 1447SOL     MW 5788   3.640   4.818   1.301 -0.0894 -0.0664 -0.1822
 1448SOL     OW 5789   2.211   3.948   3.055 -0.1461  0.2952 -0.6506
 1448SOL    HW1 5790   2.259   3.916   3.131 -0.4443  0.9746 -0.1636
 1448SOL    HW2 5791   2.143   4.004   3.092 -0.1883  0.7683 -1.4239
 1448SOL     MW 5792   2.209   3.951   3.069 -0.1896  0.4427 -0.6872
 1449SOL     OW 5793   3.246   0.626   4.979  0.0863 -0.6710 -0.1298
 1449SOL    HW1 5794   3.269   0.668   5.062  0.3010 -2.3715  0.7265
 1449SOL    HW2 5795   3.320   0.568   4.961 -0.9979 -2.0412 -0.2786
 1449SOL     MW 5796   3.259   0.624   4.987 -0.0250 -1.0641 -0.0392
 1450SOL     OW 5797   5.037   4.803   4.511 -0.4437 -0.2307  0.1887
 1450SOL    HW1 5798   5.035   4.747   4.433  0.3803 -1.7451  1.2012
 1450SOL    HW2 5799   5.113   4.860   4.498 -0.3090 -0.4788 -0.1250
 1450SOL     MW 5800   5.046   4.803   4.500 -0.3210 -0.4564  0.2782
 1451SOL     OW 5801   1.008   2.175   2.393  0.3001  0.1954  0.4269
 1451SOL    HW1 5802   0.924   2.194   2.350  0.5535  0.1323 -0.1110
 1451SOL    HW2 5803   0.984   2.145   2.480 -0.2764 -0.3837  0.0834
 1451SOL     MW 5804   0.994   2.174   2.398  0.2587  0.1132  0.3140
 1452SOL     OW 5805   2.461   4.013   0.136 -0.1270 -0.0243 -0.0810
 1452SOL    HW1 5806   2.470   3.923   0.106 -0.4115  0.2733 -1.0928
 1452SOL    HW2 5807   2.548   4.051   0.122  0.8063 -0.8004  2.7774
 1452SOL     MW 5808   2.473   4.007   0.131 -0.0439 -0.0855  0.1554
 1453SOL     OW 5809   0.464   0.306   3.308 -0.3204 -0.0072 -0.8108
 1453SOL    HW1 5810   0.408   0.324   3.384  1.2036  0.2138  0.3167
 1453SOL    HW2 5811   0.408   0.323   3.232 -0.7864  3.9630  0.1816
 1453SOL     MW 5812   0.450   0.311   3.308 -0.1850  0.5293 -0.5394
 1454SOL     OW 5813   0.061   1.463   3.476 -0.1308  0.0994  0.4425
 1454SOL    HW1 5814   0.118   1.540   3.481 -1.3113  1.0222  0.1581
 1454SOL    HW2 5815  -0.021   1.496   3.439 -1.0764 -1.0569  1.4010
 1454SOL     MW 5816   0.058   1.477   3.472 -0.4029  0.0695  0.5288
 1455SOL     OW 5817   3.475   3.393   0.014  0.1167  0.4808 -0.6106
 1455SOL    HW1 5818   3.431   3.424   0.093  0.3827  0.5176 -0.4771
 1455SOL    HW2 5819   3.503   3.473  -0.031  0.8446  0.4425 -0.2433
 1455SOL     MW 5820   3.473   3.407   0.018  0.2439  0.4806 -0.5465
 1456SOL     OW 5821   3.143   2.740   2.800 -0.1930 -0.4316  0.4366
 1456SOL    HW1 5822   3.077   2.721   2.733 -0.2294  0.3106  0.2572
 1456SOL    HW2 5823   3.204   2.666   2.795 -0.3881 -0.5552 -0.1672
 1456SOL     MW 5824   3.142   2.728   2.791 -0.2226 -0.3524  0.3363
 1457SOL     OW 5825   3.703   0.017   1.922 -0.0200 -0.5799 -0.1493
 1457SOL    HW1 5826   3.736   0.052   2.005  1.1972 -0.5218 -0.6345
 1457SOL    HW2 5827   3.638   0.082   1.894 -0.2396 -0.4542  0.6094
 1457SOL     MW 5828   3.699   0.030   1.929  0.1077 -0.5564 -0.1143
 1458SOL     OW 5829   1.829   3.948   4.496 -0.2994  0.4179 -0.2866
 1458SOL    HW1 5830   1.818   3.871   4.441 -1.7479  0.7958 -0.5640
 1458SOL    HW2 5831   1.859   4.016   4.436  2.2363 -0.1931  0.1774
 1458SOL     MW 5832   1.831   3.947   4.482 -0.1603  0.3881 -0.2627
 1459SOL     OW 5833   2.767   5.289   1.456 -0.3816  0.0540  0.2004
 1459SOL    HW1 5834   2.812   5.205   1.468  0.8963  1.0208  2.7279
 1459SOL    HW2 5835   2.836   5.354   1.450 -1.3789  1.1427  0.0622
 1459SOL     MW 5836   2.781   5.286   1.457 -0.3457  0.3171  0.5063
 1460SOL     OW 5837   3.100   2.731   1.446  0.5634  0.8146  0.1673
 1460SOL    HW1 5838   3.169   2.727   1.512  0.4054  0.3361  0.3087
 1460SOL    HW2 5839   3.052   2.649   1.456  1.1520  0.2801 -1.2047
 1460SOL     MW 5840   3.103   2.720   1.456  0.6185  0.6849  0.0098
 1461SOL     OW 5841   1.565   3.692   2.446 -0.1225 -0.0605  0.6791
 1461SOL    HW1 5842   1.644   3.746   2.442  0.3668 -0.7681  0.7032
 1461SOL    HW2 5843   1.578   3.636   2.522 -0.9158  0.2251  1.0302
 1461SOL     MW 5844   1.577   3.692   2.455 -0.1614 -0.1145  0.7271
 1462SOL     OW 5845   2.258   5.089   0.731 -0.3526  0.2411  0.2076
 1462SOL    HW1 5846   2.174   5.108   0.773 -1.2646 -0.2655 -1.3131
 1462SOL    HW2 5847   2.236   5.069   0.640  1.5678  1.5118 -0.6036
 1462SOL     MW 5848   2.244   5.089   0.725 -0.2235  0.3389 -0.0910
 1463SOL     OW 5849   3.288   2.851   4.025  0.2754 -0.2482  0.0931
 1463SOL    HW1 5850   3.333   2.815   4.102  1.3575 -0.5139 -0.6437
 1463SOL    HW2 5851   3.324   2.939   4.015 -0.1862 -0.0523  0.1473
 1463SOL     MW 5852   3.298   2.858   4.034  0.3548 -0.2572  0.0057
 1464SOL     OW 5853   4.795   0.477   3.904  0.0511 -0.1852 -0.3155
 1464SOL    HW1 5854   4.792   0.545   3.972  1.5339 -1.3737  1.0062
 1464SOL    HW2 5855   4.751   0.518   3.828 -3.0486  0.6557  1.7288
 1464SOL     MW 5856   4.789   0.491   3.903 -0.1559 -0.2297  0.1154
 1465SOL     OW 5857   1.688   2.673   3.853 -0.2941 -0.0590 -0.1037
 1465SOL    HW1 5858   1.704   2.674   3.759 -0.0611  0.4547 -0.0634
 1465SOL    HW2 5859   1.661   2.762   3.874 -1.2814 -0.4040  0.1674
 1465SOL     MW 5860   1.687   2.684   3.844 -0.3907 -0.0374 -0.0638
 1466SOL     OW 5861   5.307   0.071   5.046  0.0591 -0.3547 -0.4158
 1466SOL    HW1 5862   5.359   0.089   5.124  1.0680  0.1950 -1.1960
 1466SOL    HW2 5863   5.350  -0.004   5.006 -0.4641 -0.6434 -0.4387
 1466SOL     MW 5864   5.319   0.064   5.051  0.1213 -0.3213 -0.5186
 1467SOL     OW 5865   2.101   0.546   2.887  0.2081 -0.3883  0.0735
 1467SOL    HW1 5866   2.190   0.513   2.897  0.5285  0.4532  0.0912
 1467SOL    HW2 5867   2.097   0.579   2.797 -0.1861 -0.7182 -0.0314
 1467SOL     MW 5868   2.112   0.546   2.877  0.1986 -0.3228  0.0623
 1468SOL     OW 5869   3.681   2.298   2.996 -0.3505  0.1670 -0.2079
 1468SOL    HW1 5870   3.648   2.208   2.989  0.6797 -0.2079 -0.3929
 1468SOL    HW2 5871   3.700   2.308   3.089  2.2387 -0.8282 -0.5616
 1468SOL     MW 5872   3.679   2.288   3.007  0.1129 -0.0084 -0.2768
 1469SOL     OW 5873   0.612   2.533   4.076  0.7460 -0.2680 -0.0847
 1469SOL    HW1 5874   0.646   2.491   3.997  0.1237  0.5094 -0.7921
 1469SOL    HW2 5875   0.569   2.612   4.044  0.6029  0.1330  1.0587
 1469SOL     MW 5876   0.611   2.538   4.061  0.6480 -0.1171 -0.0289
 1470SOL     OW 5877   3.549   5.353   0.884  0.6095 -0.0885  0.1481
 1470SOL    HW1 5878   3.588   5.296   0.950  0.9750 -1.0410 -0.8560
 1470SOL    HW2 5879   3.468   5.384   0.924  0.1396 -1.7215  0.5347
 1470SOL     MW 5880   3.544   5.350   0.898  0.5962 -0.4195  0.0690
 1471SOL     OW 5881   5.270   5.454   1.441 -0.1404 -0.0206 -0.1844
 1471SOL    HW1 5882   5.199   5.394   1.419 -0.1118 -0.3618  0.6041
 1471SOL    HW2 5883   5.334   5.400   1.487  0.3555  0.4075 -0.3541
 1471SOL     MW 5884   5.270   5.440   1.444 -0.0733 -0.0095 -0.1051
 1472SOL     OW 5885   4.617   3.041   0.130 -0.0429 -0.4972  0.3028
 1472SOL    HW1 5886   4.564   3.094   0.071  0.3175 -1.3357 -0.8198
 1472SOL    HW2 5887   4.700   3.088   0.137 -0.1006 -0.3741  0.1503
 1472SOL     MW 5888   4.621   3.053   0.124 -0.0042 -0.5888  0.1396
 1473SOL     OW 5889   3.338   3.558   1.311  0.1302  0.2048 -0.1378
 1473SOL    HW1 5890   3.420   3.584   1.351  0.0215  0.5720 -0.1555
 1473SOL    HW2 5891   3.328   3.466   1.335  0.2641  0.3117  0.3362
 1473SOL     MW 5892   3.347   3.549   1.319  0.1334  0.2655 -0.0794
 1474SOL     OW 5893   2.849   4.106   4.911 -0.1418 -0.0365  0.0450
 1474SOL    HW1 5894   2.906   4.151   4.849  2.4880 -0.4859  1.9365
 1474SOL    HW2 5895   2.818   4.175   4.970  0.2013 -0.0897  0.2866
 1474SOL     MW 5896   2.852   4.120   4.911  0.2388 -0.1008  0.3180
 1475SOL     OW 5897   0.991   4.394   2.085 -0.1473  0.0778 -0.1064
 1475SOL    HW1 5898   0.983   4.313   2.035  1.0134  0.1295 -0.4180
 1475SOL    HW2 5899   1.022   4.366   2.171  4.1368  0.3323 -1.3191
 1475SOL     MW 5900   0.994   4.380   2.090  0.5497  0.1170 -0.3015
 1476SOL     OW 5901   4.930   0.162   1.343  0.4938 -0.4028 -0.1932
 1476SOL    HW1 5902   4.879   0.207   1.277 -0.7099  1.8644  2.0878
 1476SOL    HW2 5903   5.020   0.164   1.310 -0.1143  0.3050 -1.8931
 1476SOL     MW 5904   4.935   0.168   1.331  0.2619 -0.0219 -0.1188
 1477SOL     OW 5905   3.295   0.238   2.086  0.5735  0.3830  0.1840
 1477SOL    HW1 5906   3.384   0.210   2.063  0.3895 -0.6396  0.6679
 1477SOL    HW2 5907   3.292   0.233   2.182 -0.1274  0.0192  0.1507
 1477SOL     MW 5908   3.306   0.234   2.095  0.4603  0.2055  0.2417
 1478SOL     OW 5909   1.790   4.116   4.137  0.0794 -0.6128  0.5100
 1478SOL    HW1 5910   1.757   4.192   4.088 -2.3562 -1.5906  0.4994
 1478SOL    HW2 5911   1.866   4.086   4.086  0.3394  1.0616 -0.1543
 1478SOL     MW 5912   1.796   4.122   4.124 -0.1991 -0.5236  0.4236
 1479SOL     OW 5913   4.667   1.909   1.144 -0.3658 -0.5010 -0.1322
 1479SOL    HW1 5914   4.724   1.834   1.133 -1.0294 -0.9137 -0.9198
 1479SOL    HW2 5915   4.609   1.886   1.216 -0.2204 -0.5123 -0.0181
 1479SOL     MW 5916   4.667   1.897   1.152 -0.4322 -0.5553 -0.2184
 1480SOL     OW 5917   0.319   0.073   0.467  0.2661  0.4989  0.3387
 1480SOL    HW1 5918   0.394   0.021   0.496 -1.1405 -0.4273  2.6289
 1480SOL    HW2 5919   0.255   0.008   0.436 -0.5609  1.0274  0.8749
 1480SOL     MW 5920   0.320   0.058   0.467 -0.0198  0.4480  0.7005
 1481SOL     OW 5921   1.971   1.076   2.686  0.2340 -0.1920 -0.7006
 1481SOL    HW1 5922   2.063   1.051   2.693  0.5727  1.2501  0.3997
 1481SOL    HW2 5923   1.960   1.148   2.749 -1.5656 -0.1156 -1.0408
 1481SOL     MW 5924   1.982   1.082   2.695  0.0470  0.0024 -0.6033
 1482SOL     OW 5925   3.654   3.963   2.976  0.0378 -0.6591  0.4077
 1482SOL    HW1 5926   3.735   3.972   3.026  1.0164  0.3281 -1.2755
 1482SOL    HW2 5927   3.663   3.880   2.930  0.5427 -0.1003 -0.5206
 1482SOL     MW 5928   3.666   3.954   2.977  0.2277 -0.4612  0.0734
 1483SOL     OW 5929   3.277   1.091   4.685  0.0095  0.6214  0.0876
 1483SOL    HW1 5930   3.233   1.175   4.669  1.9104  1.9544  1.4248
 1483SOL    HW2 5931   3.210   1.037   4.726 -0.5145  2.5175  1.9078
 1483SOL     MW 5932   3.263   1.095   4.688  0.1857  1.0348  0.4918
 1484SOL     OW 5933   1.829   2.616   3.233 -0.2595 -0.5617 -0.1471
 1484SOL    HW1 5934   1.894   2.564   3.280  0.6571 -0.1498 -0.9176
 1484SOL    HW2 5935   1.810   2.690   3.290  0.0916 -0.5914  0.0108
 1484SOL     MW 5936   1.835   2.619   3.246 -0.0972 -0.5128 -0.2255
 1485SOL     OW 5937   1.441   1.247   1.253  0.6352  0.4765  0.0879
 1485SOL    HW1 5938   1.346   1.236   1.258  0.4368  1.1735 -1.5161
 1485SOL    HW2 5939   1.476   1.178   1.309 -0.8046  0.1488  0.6328
 1485SOL     MW 5940   1.434   1.237   1.261  0.4255  0.5238 -0.0477
 1486SOL     OW 5941   5.341   3.966   1.907 -0.1483  0.2033  0.0727
 1486SOL    HW1 5942   5.383   3.897   1.958  0.5084  0.8062  0.3591
 1486SOL    HW2 5943   5.285   4.012   1.969 -1.3257 -0.6379 -0.3212
 1486SOL     MW 5944   5.339   3.963   1.921 -0.2149  0.1728  0.0589
 1487SOL     OW 5945   4.911   2.410   4.506 -0.3011 -0.6537  0.4656
 1487SOL    HW1 5946   4.895   2.504   4.515  0.5708 -0.4369 -0.0727
 1487SOL    HW2 5947   4.987   2.393   4.562 -0.5237 -1.0585  0.6449
 1487SOL     MW 5948   4.919   2.420   4.514 -0.2179 -0.6778  0.4196
 1488SOL     OW 5949   4.133   0.737   2.496 -0.3550 -0.7246 -0.5102
 1488SOL    HW1 5950   4.211   0.721   2.443  0.9556  1.7605  0.5068
 1488SOL    HW2 5951   4.069   0.774   2.435  1.1039  2.0076 -0.5589
 1488SOL     MW 5952   4.135   0.740   2.482 -0.0004 -0.0567 -0.3862
 1489SOL     OW 5953   0.032   1.820   4.951  0.1697  0.1524 -0.3399
 1489SOL    HW1 5954   0.106   1.767   4.922 -1.2004 -2.8515  1.2208
 1489SOL    HW2 5955   0.070   1.883   5.012  1.6316 -0.1646 -0.8826
 1489SOL     MW 5956   0.046   1.822   4.955  0.1815 -0.2727 -0.2096
 1490SOL     OW 5957   3.368   1.786   1.727 -0.0865 -0.6193  0.0914
 1490SOL    HW1 5958   3.347   1.831   1.646 -0.8301 -0.9482  0.0913
 1490SOL    HW2 5959   3.409   1.704   1.700 -2.0275 -1.5982 -0.0385
 1490SOL     MW 5960   3.371   1.781   1.713 -0.4302 -0.7867  0.0747
 1491SOL     OW 5961   0.931   5.260   0.681  0.0433  0.2227  0.1255
 1491SOL    HW1 5962   0.876   5.205   0.624  0.5728 -0.8548  0.6175
 1491SOL    HW2 5963   0.999   5.200   0.713 -1.0123  0.3816  2.9749
 1491SOL     MW 5964   0.932   5.245   0.678 -0.0240  0.1051  0.5532
 1492SOL     OW 5965   3.573   0.163   3.652  0.1139  0.2633  0.3842
 1492SOL    HW1 5966   3.564   0.101   3.725 -1.0333  0.0688  0.1030
 1492SOL    HW2 5967   3.635   0.120   3.592  0.0029 -0.2151  0.6018
 1492SOL     MW 5968   3.580   0.149   3.654 -0.0472  0.1771  0.3761
 1493SOL     OW 5969   4.857   0.820   0.017 -0.2756 -0.0656  0.0371
 1493SOL    HW1 5970   4.810   0.901   0.037 -2.9663 -1.5397  0.2511
 1493SOL    HW2 5971   4.942   0.829   0.060 -0.6149  2.4670  0.3186
 1493SOL     MW 5972   4.862   0.831   0.025 -0.6635  0.0699  0.1005
 1494SOL     OW 5973   2.665   0.845   4.459  0.3765  0.3327 -0.3860
 1494SOL    HW1 5974   2.755   0.878   4.452  0.0630  1.1521 -0.7263
 1494SOL    HW2 5975   2.613   0.922   4.484 -0.3654  0.0868 -1.1240
 1494SOL     MW 5976   2.670   0.859   4.461  0.2414  0.4061 -0.5240
 1495SOL     OW 5977   1.420   5.306   2.885 -0.1868  0.0171  0.6823
 1495SOL    HW1 5978   1.492   5.332   2.826 -0.9414 -2.3371 -1.4860
 1495SOL    HW2 5979   1.342   5.344   2.845 -0.4074  0.8895  1.9040
 1495SOL     MW 5980   1.419   5.314   2.872 -0.3117 -0.1726  0.5611
 1496SOL     OW 5981   4.404   1.652   5.104 -0.1196 -0.0285  0.0695
 1496SOL    HW1 5982   4.405   1.746   5.120 -0.2242 -0.1720  0.9216
 1496SOL    HW2 5983   4.313   1.632   5.084  0.2103  0.3615 -2.0890
 1496SOL     MW 5984   4.393   1.661   5.103 -0.0908  0.0030 -0.0977
 1497SOL     OW 5985   3.736   0.260   4.958  0.1296 -0.1609  0.4276
 1497SOL    HW1 5986   3.676   0.321   5.001 -0.4143  0.2430 -0.8398
 1497SOL    HW2 5987   3.816   0.265   5.009 -0.3016  0.7416  1.0368
 1497SOL     MW 5988   3.738   0.269   4.970  0.0048  0.0063  0.3433
 1498SOL     OW 5989   2.736   1.927   0.543 -0.0322  0.2476  0.2499
 1498SOL    HW1 5990   2.827   1.948   0.524 -0.3689  1.7696  0.1803
 1498SOL    HW2 5991   2.740   1.856   0.607  1.2289  1.3656  1.4555
 1498SOL     MW 5992   2.748   1.920   0.548  0.0861  0.5856  0.3953
 1499SOL     OW 5993   3.821   0.223   4.686  0.1098  0.5175 -0.1728
 1499SOL    HW1 5994   3.904   0.271   4.691  0.4071 -0.0208  0.0585
 1499SOL    HW2 5995   3.789   0.222   4.776  1.2106 -1.6445  0.2620
 1499SOL     MW 5996   3.828   0.229   4.698  0.2888  0.1718 -0.0875
 1500SOL     OW 5997   2.642   1.180   0.685  0.1056  0.1797  0.0692
 1500SOL    HW1 5998   2.720   1.166   0.739  0.5754 -0.1027 -0.6751
 1500SOL    HW2 5999   2.596   1.096   0.687  0.5819 -0.1112 -0.6794
 1500SOL     MW 6000   2.646   1.167   0.692  0.2267  0.1063 -0.1219
 1501SOL     OW 6001   2.111   0.245   5.242  0.1563  0.1004 -0.3220
 1501SOL    HW1 6002   2.107   0.341   5.241  1.1017  0.1411 -0.8602
 1501SOL    HW2 6003   2.195   0.224   5.202  0.9430 -0.9094  1.7420
 1501SOL     MW 6004   2.121   0.255   5.236  0.3780 -0.0236 -0.1267
 1502SOL     OW 6005   4.311   2.992   2.539 -0.3320 -0.0989 -0.0908
 1502SOL    HW1 6006   4.259   3.025   2.612 -0.2234 -0.8601  0.3506
 1502SOL    HW2 6007   4.388   2.953   2.581 -1.7432 -3.3982 -0.2829
 1502SOL     MW 6008   4.315   2.991   2.554 -0.4987 -0.6187 -0.0588
 1503SOL     OW 6009   4.076   4.625   0.025 -0.0753  0.1676  0.1802
 1503SOL    HW1 6010   4.152   4.682   0.014 -0.4730  0.9431  1.3433
 1503SOL    HW2 6011   4.090   4.582   0.109 -1.1514  0.6976  0.6478
 1503SOL     MW 6012   4.088   4.627   0.034 -0.2639  0.3347  0.3890
 1504SOL     OW 6013   3.267   5.239   4.062  0.1639  0.2594 -0.7027
 1504SOL    HW1 6014   3.276   5.307   4.129 -0.7309  0.7685 -1.0833
 1504SOL    HW2 6015   3.241   5.160   4.111  1.1165  0.2076 -0.2709
 1504SOL     MW 6016   3.264   5.237   4.077  0.1713  0.3179 -0.6961
 1505SOL     OW 6017   2.918   0.559   3.227 -0.4552  0.4294 -0.2906
 1505SOL    HW1 6018   2.838   0.606   3.204  0.1144  1.4429 -0.2594
 1505SOL    HW2 6019   2.964   0.618   3.287 -0.2135 -0.6197  0.5933
 1505SOL     MW 6020   2.914   0.573   3.232 -0.3513  0.4248 -0.1735
 1506SOL     OW 6021   5.138   2.471   0.496 -0.0703  0.0608 -0.1500
 1506SOL    HW1 6022   5.135   2.401   0.432  1.0577  0.6477 -0.8790
 1506SOL    HW2 6023   5.071   2.533   0.468 -0.5708 -0.3777  0.0793
 1506SOL     MW 6024   5.129   2.470   0.484  0.0100  0.0798 -0.2140
 1507SOL     OW 6025   1.362   4.305   0.469 -0.3503  0.5799  0.3584
 1507SOL    HW1 6026   1.417   4.357   0.527  0.0102 -1.2942  1.7906
 1507SOL    HW2 6027   1.293   4.271   0.525 -0.9596  0.0798 -0.6695
 1507SOL     MW 6028   1.360   4.307   0.483 -0.3821  0.2760  0.4101
 1508SOL     OW 6029   3.017   1.528   4.709 -0.3465  0.3239  0.4529
 1508SOL    HW1 6030   3.002   1.535   4.803  0.4614 -1.1988  0.7292
 1508SOL    HW2 6031   3.084   1.595   4.690 -0.4674  0.5929  0.9658
 1508SOL     MW 6032   3.024   1.538   4.718 -0.2586  0.1634  0.5539
 1509SOL     OW 6033   5.227   5.212   1.745  0.4559  0.2541  0.4491
 1509SOL    HW1 6034   5.154   5.270   1.768  1.1305  1.3044  0.0186
 1509SOL    HW2 6035   5.305   5.265   1.759  1.0424 -0.1759 -0.9864
 1509SOL     MW 6036   5.228   5.226   1.750  0.6174  0.3335  0.2103
 1510SOL     OW 6037   0.976   0.385   1.627  0.6639  0.4497  0.5507
 1510SOL    HW1 6038   0.909   0.452   1.619  0.4357  0.2685  0.9088
 1510SOL    HW2 6039   0.957   0.322   1.557  1.0783  0.9303  0.0058
 1510SOL     MW 6040   0.965   0.385   1.617  0.6878  0.4880  0.5268
 1511SOL     OW 6041   1.840   3.481   2.483 -0.4444 -0.1173  0.3909
 1511SOL    HW1 6042   1.789   3.429   2.422 -1.1284  2.2844 -1.2203
 1511SOL    HW2 6043   1.781   3.494   2.558 -0.3391 -1.4091  0.7189
 1511SOL     MW 6044   1.826   3.476   2.485 -0.5185  0.0248  0.2266
 1512SOL     OW 6045   3.049   0.059   4.645  0.0907  0.4128 -0.5589
 1512SOL    HW1 6046   2.959   0.029   4.655 -0.1262  1.0787 -0.4534
 1512SOL    HW2 6047   3.074   0.031   4.557 -0.0741 -0.1424 -0.4307
 1512SOL     MW 6048   3.041   0.052   4.635  0.0419  0.4270 -0.5290
 1513SOL     OW 6049   3.123   2.146   1.138  0.4785  0.4442 -0.1123
 1513SOL    HW1 6050   3.052   2.091   1.170  0.8675 -0.5015 -0.8538
 1513SOL    HW2 6051   3.120   2.224   1.194 -1.1754  0.4501 -0.1634
 1513SOL     MW 6052   3.114   2.149   1.149  0.3166  0.3238 -0.2138
 1514SOL     OW 6053   0.237   2.108   4.980  0.5663  0.1374  0.3344
 1514SOL    HW1 6054   0.202   2.191   4.947 -2.4933 -0.0077  2.6931
 1514SOL    HW2 6055   0.282   2.068   4.905 -1.1237  2.2337 -1.9313
 1514SOL     MW 6056   0.238   2.113   4.966 -0.0417  0.3872  0.3463
 1515SOL     OW 6057   4.095   0.691   0.175 -0.3682  0.0389 -0.2283
 1515SOL    HW1 6058   4.082   0.683   0.270  1.7719 -0.2263  0.0781
 1515SOL    HW2 6059   4.139   0.775   0.164 -0.3089 -0.0869 -0.9570
 1515SOL     MW 6060   4.099   0.701   0.186 -0.0866 -0.0111 -0.2824
 1516SOL     OW 6061   0.748   4.221   0.457 -0.4455 -0.0174  0.3401
 1516SOL    HW1 6062   0.805   4.172   0.516  0.9673  2.2501  0.9872
 1516SOL    HW2 6063   0.677   4.252   0.512 -1.1452 -0.9914  0.0081
 1516SOL     MW 6064   0.747   4.219   0.471 -0.3542  0.1482  0.3804
 1517SOL     OW 6065   3.880   0.485   0.813  0.7990  0.4705 -0.0163
 1517SOL    HW1 6066   3.941   0.434   0.865  0.7685 -0.5906 -0.9604
 1517SOL    HW2 6067   3.912   0.575   0.817  1.2626  0.2609  1.1209
 1517SOL     MW 6068   3.892   0.490   0.820  0.8544  0.3079  0.0084
 1518SOL     OW 6069   4.076   4.145   3.156  0.2929  0.1021  0.6440
 1518SOL    HW1 6070   4.035   4.165   3.072 -0.5928  0.6025  1.1782
 1518SOL    HW2 6071   4.004   4.147   3.219  0.7777 -1.2959  1.2697
 1518SOL     MW 6072   4.062   4.148   3.153  0.2416 -0.0128  0.7925
 1519SOL     OW 6073   1.909   1.779   3.381  0.0047  0.0277 -0.1407
 1519SOL    HW1 6074   1.992   1.732   3.384  0.9152  1.5191 -0.5481
 1519SOL    HW2 6075   1.926   1.854   3.323 -0.6248  2.1789  2.2685
 1519SOL     MW 6076   1.922   1.783   3.374  0.0406  0.4940  0.1156
 1520SOL     OW 6077   0.466   5.175   2.826  0.0798 -0.1102 -0.2602
 1520SOL    HW1 6078   0.465   5.257   2.875 -0.3354 -0.2903  0.0415
 1520SOL    HW2 6079   0.376   5.165   2.794  0.4312  0.2044 -1.3937
 1520SOL     MW 6080   0.454   5.184   2.828  0.0716 -0.0930 -0.3667
 1521SOL     OW 6081   5.138   3.377   1.125 -0.0650  0.9749 -0.3257
 1521SOL    HW1 6082   5.131   3.457   1.178  0.1047 -0.5214  2.1174
 1521SOL    HW2 6083   5.232   3.362   1.116 -0.0800  1.5065 -1.6019
 1521SOL     MW 6084   5.149   3.386   1.131 -0.0452  0.8514 -0.1763
 1522SOL     OW 6085   0.700   3.125   3.924 -0.8721 -0.5230 -0.1100
 1522SOL    HW1 6086   0.789   3.145   3.893  0.6976  1.3455  4.6614
 1522SOL    HW2 6087   0.646   3.196   3.889  0.4864  0.7252  0.1997
 1522SOL     MW 6088   0.705   3.137   3.916 -0.4973 -0.1240  0.5404
 1523SOL     OW 6089   3.166   5.321   1.360 -0.1902 -0.0113  0.1673
 1523SOL    HW1 6090   3.174   5.264   1.284 -0.4216 -0.4681  0.4890
 1523SOL    HW2 6091   3.207   5.403   1.332  0.0381 -0.2926 -0.3308
 1523SOL     MW 6092   3.172   5.324   1.347 -0.1906 -0.1058  0.1447
 1524SOL     OW 6093   1.622   1.742   3.456  0.0690 -0.1739  0.3237
 1524SOL    HW1 6094   1.593   1.792   3.532  2.8948 -1.2415  2.2769
 1524SOL    HW2 6095   1.715   1.765   3.447 -0.3502  0.6326 -3.4786
 1524SOL     MW 6096   1.630   1.751   3.465  0.3771 -0.2073  0.0870
 1525SOL     OW 6097   2.348   4.313   3.496 -0.1857  0.6315 -0.4070
 1525SOL    HW1 6098   2.404   4.391   3.494  1.0284 -0.2272 -0.7067
 1525SOL    HW2 6099   2.311   4.308   3.408  1.3093 -0.2222 -1.0177
 1525SOL     MW 6100   2.351   4.323   3.484  0.1611  0.4123 -0.5236
 1526SOL     OW 6101   3.747   1.167   2.298  0.0587  0.4886 -0.2495
 1526SOL    HW1 6102   3.669   1.123   2.265 -0.3838 -0.8539  2.2966
 1526SOL    HW2 6103   3.728   1.182   2.391  3.0373 -0.4949  0.6383
 1526SOL     MW 6104   3.735   1.163   2.306  0.3833  0.1909  0.1901
 1527SOL     OW 6105   4.333   3.496   4.890  0.1733 -0.3030  0.0636
 1527SOL    HW1 6106   4.374   3.538   4.814 -0.0806 -0.9373 -0.4395
 1527SOL    HW2 6107   4.369   3.542   4.965  0.4431  0.3360 -0.4403
 1527SOL     MW 6108   4.343   3.507   4.890  0.1754 -0.3024 -0.0653
 1528SOL     OW 6109   0.520   3.315   5.438 -0.4068 -0.5426 -0.1114
 1528SOL    HW1 6110   0.564   3.272   5.364 -1.2988 -0.7765 -0.5309
 1528SOL    HW2 6111   0.474   3.244   5.482  0.0539 -0.3849  0.6261
 1528SOL     MW 6112   0.520   3.300   5.434 -0.4620 -0.5523 -0.0707
 1529SOL     OW 6113   3.867   3.592   3.887  0.5835 -0.2187  0.0656
 1529SOL    HW1 6114   3.790   3.600   3.943  0.8051 -1.3693  0.5640
 1529SOL    HW2 6115   3.907   3.679   3.889  0.6505 -0.2621  1.7910
 1529SOL     MW 6116   3.862   3.604   3.894  0.6204 -0.3716  0.3503
 1530SOL     OW 6117   1.340   0.722   4.424  0.1342  0.6901 -0.6973
 1530SOL    HW1 6118   1.253   0.692   4.450 -0.4023  0.6443 -2.4445
 1530SOL    HW2 6119   1.380   0.646   4.381  1.2119  0.5945  0.3950
 1530SOL     MW 6120   1.334   0.709   4.422  0.2035  0.6720 -0.7811
 1531SOL     OW 6121   5.201   3.713   0.740 -0.0671  0.0159  0.7242
 1531SOL    HW1 6122   5.217   3.805   0.719 -0.9845  0.2106  0.8678
 1531SOL    HW2 6123   5.106   3.703   0.740 -0.0012 -0.7980  1.2955
 1531SOL     MW 6124   5.191   3.723   0.738 -0.1761 -0.0634  0.8157
 1532SOL     OW 6125   0.170   4.275   1.567 -0.6169 -0.2022  0.2854
 1532SOL    HW1 6126   0.264   4.260   1.578 -0.7201 -1.6379 -0.5307
 1532SOL    HW2 6127   0.130   4.218   1.633 -0.9070  1.4052  1.5428
 1532SOL     MW 6128   0.177   4.266   1.577 -0.6673 -0.1803  0.3419
 1533SOL     OW 6129   5.293   2.931   2.346  0.2049 -0.0544  0.0117
 1533SOL    HW1 6130   5.332   3.013   2.375 -2.9933  2.4295 -2.0213
 1533SOL    HW2 6131   5.309   2.929   2.251 -1.0119 -1.0262 -0.2078
 1533SOL     MW 6132   5.300   2.941   2.337 -0.3603  0.1392 -0.2766
 1534SOL     OW 6133   1.854   3.283   0.117  0.5102 -0.0400 -0.0658
 1534SOL    HW1 6134   1.775   3.253   0.071  0.6778 -1.2465  0.3898
 1534SOL    HW2 6135   1.864   3.374   0.090 -0.7065 -0.0360 -0.5905
 1534SOL     MW 6136   1.845   3.290   0.108  0.3759 -0.1939 -0.0746
 1535SOL     OW 6137   0.294   1.064   0.633 -0.1660 -0.0077  0.1345
 1535SOL    HW1 6138   0.273   1.001   0.702  1.1151 -2.1971 -1.3294
 1535SOL    HW2 6139   0.309   1.147   0.679 -1.2212 -0.9183  2.2326
 1535SOL     MW 6140   0.293   1.067   0.648 -0.1371 -0.4046  0.2157
 1536SOL     OW 6141   0.626   2.856   3.854 -0.4339  0.0713  0.1884
 1536SOL    HW1 6142   0.708   2.817   3.823 -1.5367 -3.1262  0.9459
 1536SOL    HW2 6143   0.650   2.945   3.881  2.7565 -0.7569  0.4030
 1536SOL     MW 6144   0.639   2.863   3.853 -0.1666 -0.4441  0.3128
 1537SOL     OW 6145   4.334   2.908   3.998 -0.2189 -0.4196  0.2958
 1537SOL    HW1 6146   4.301   2.996   4.018 -1.6585 -0.2012 -2.4626
 1537SOL    HW2 6147   4.269   2.849   4.037 -3.3179 -0.0075 -3.5577
 1537SOL     MW 6148   4.321   2.912   4.005 -0.7999 -0.3389 -0.5506
 1538SOL     OW 6149   2.000   2.952   0.598 -0.1864  0.2043  0.0082
 1538SOL    HW1 6150   2.047   2.869   0.590 -1.2958 -0.8524  3.0762
 1538SOL    HW2 6151   2.038   2.993   0.676 -1.4631  1.3068  0.0823
 1538SOL     MW 6152   2.011   2.947   0.607 -0.4919  0.2101  0.4104
 1539SOL     OW 6153   0.980   2.345   4.906  0.1781  0.6483 -0.0935
 1539SOL    HW1 6154   1.025   2.378   4.984 -0.6410 -1.0394  1.1273
 1539SOL    HW2 6155   1.051   2.315   4.849  0.7160  0.6035  0.5863
 1539SOL     MW 6156   0.995   2.346   4.909  0.1421  0.4265  0.1498
 1540SOL     OW 6157   1.217   3.577   0.129 -0.2936  0.1342 -0.8182
 1540SOL    HW1 6158   1.223   3.673   0.121  0.5055  0.0610 -1.1792
 1540SOL    HW2 6159   1.138   3.563   0.181  0.1619  1.0394  0.1774
 1540SOL     MW 6160   1.208   3.588   0.135 -0.1330  0.2407 -0.7370
 1541SOL     OW 6161   3.513   2.722   3.877 -0.5626 -0.0412  0.2674
 1541SOL    HW1 6162   3.601   2.726   3.915 -0.8758  0.6110  0.9466
 1541SOL    HW2 6163   3.526   2.684   3.790  0.1358 -1.7686  1.0954
 1541SOL     MW 6164   3.526   2.718   3.871 -0.5133 -0.1788  0.4604
 1542SOL     OW 6165   0.074   1.813   4.385  0.4156  0.2521  0.1408
 1542SOL    HW1 6166   0.169   1.812   4.371  0.5825  1.1361  1.0355
 1542SOL    HW2 6167   0.061   1.765   4.467  0.0836  0.0758 -0.0136
 1542SOL     MW 6168   0.084   1.807   4.393  0.3945  0.3427  0.2356
 1543SOL     OW 6169   1.127   5.202   5.100  0.3724  0.5438  0.8680
 1543SOL    HW1 6170   1.095   5.247   5.022  0.4226 -0.8862 -0.0205
 1543SOL    HW2 6171   1.178   5.269   5.147  2.5883  0.8363 -1.6731
 1543SOL     MW 6172   1.130   5.216   5.096  0.6625  0.3982  0.4289
 1544SOL     OW 6173   3.983   4.656   2.667  0.3495  0.3586  0.5466
 1544SOL    HW1 6174   4.023   4.742   2.680  0.0565  0.6912 -0.5961
 1544SOL    HW2 6175   3.997   4.636   2.574 -0.3206 -0.4429  0.5980
 1544SOL     MW 6176   3.990   4.664   2.657  0.2262  0.2986  0.4069
 1545SOL     OW 6177   3.418   2.054   3.995  0.2547  0.1827  0.3522
 1545SOL    HW1 6178   3.400   2.129   3.938 -0.5064  0.7802  1.3390
 1545SOL    HW2 6179   3.365   1.983   3.958 -0.7552  0.7450  0.6721
 1545SOL     MW 6180   3.409   2.055   3.983  0.0280  0.3311  0.5194
 1546SOL     OW 6181   2.290   4.050   3.887  0.3068  0.2997 -0.0626
 1546SOL    HW1 6182   2.250   4.016   3.807 -1.3304 -1.1613  1.3064
 1546SOL    HW2 6183   2.370   4.094   3.856  0.0502 -0.7145 -2.4195
 1546SOL     MW 6184   2.295   4.051   3.872  0.0644 -0.0171 -0.1891
 1547SOL     OW 6185   2.473   3.995   5.060 -0.6613 -0.0108  0.5004
 1547SOL    HW1 6186   2.521   3.981   4.978 -0.2825  0.2888  0.6636
 1547SOL    HW2 6187   2.381   3.981   5.038 -0.7487  1.6921 -0.3671
 1547SOL     MW 6188   2.468   3.991   5.047 -0.6240  0.2456  0.4103
 1548SOL     OW 6189   0.564   1.429   1.625  0.0402  0.1999 -0.1110
 1548SOL    HW1 6190   0.601   1.436   1.713  0.2071  0.3312 -0.1889
 1548SOL    HW2 6191   0.640   1.438   1.567  0.0451 -0.7368 -0.2553
 1548SOL     MW 6192   0.579   1.431   1.629  0.0622  0.0968 -0.1394
 1549SOL     OW 6193   4.190   3.912   2.776  0.0206  0.1531 -0.1255
 1549SOL    HW1 6194   4.096   3.929   2.764  0.1662  0.4004 -0.9716
 1549SOL    HW2 6195   4.199   3.818   2.765 -0.1483  0.1029  0.1390
 1549SOL     MW 6196   4.179   3.902   2.773  0.0176  0.1783 -0.2000
 1550SOL     OW 6197   1.741   5.338   0.434  0.1655 -0.1930  0.1012
 1550SOL    HW1 6198   1.653   5.310   0.408 -0.0541  1.5931 -1.3155
 1550SOL    HW2 6199   1.775   5.265   0.486 -1.6742 -1.4533 -0.3466
 1550SOL     MW 6200   1.734   5.325   0.437 -0.0981 -0.1257 -0.1375
 1551SOL     OW 6201   2.139   4.769   5.315 -0.4195  0.1527  0.0767
 1551SOL    HW1 6202   2.109   4.758   5.225 -0.3736  0.8774 -0.0331
 1551SOL    HW2 6203   2.182   4.855   5.316  0.2804 -0.1991  0.6037
 1551SOL     MW 6204   2.140   4.779   5.304 -0.3240  0.2005  0.1301
 1552SOL     OW 6205   5.091   0.862   3.446 -0.1885 -0.1925 -0.6221
 1552SOL    HW1 6206   5.118   0.945   3.408 -0.3777 -0.3482 -1.0953
 1552SOL    HW2 6207   5.173   0.816   3.465 -0.0411  0.5226  0.6119
 1552SOL     MW 6208   5.105   0.867   3.444 -0.1938 -0.1209 -0.5247
 1553SOL     OW 6209   4.195   1.927   2.894  0.3928 -0.1545  0.3929
 1553SOL    HW1 6210   4.258   1.855   2.908 -0.3448 -1.1158 -0.9821
 1553SOL    HW2 6211   4.233   1.977   2.822  0.1324 -0.0934  0.3000
 1553SOL     MW 6212   4.208   1.924   2.887  0.2651 -0.2697  0.2050
 1554SOL     OW 6213   5.256   2.807   1.768 -0.2164  0.4858  0.5694
 1554SOL    HW1 6214   5.260   2.714   1.792 -1.8137 -0.1089 -1.1903
 1554SOL    HW2 6215   5.340   2.824   1.726 -0.2022 -0.3960  0.2101
 1554SOL     MW 6216   5.268   2.797   1.766 -0.4191  0.2968  0.2982
 1555SOL     OW 6217   0.624   3.335   2.114 -0.8121  0.4672  0.1996
 1555SOL    HW1 6218   0.660   3.424   2.107 -0.3514  0.4265  1.5886
 1555SOL    HW2 6219   0.554   3.332   2.050  0.0045  1.4100 -0.7813
 1555SOL     MW 6220   0.620   3.346   2.105 -0.6486  0.5827  0.2518
 1556SOL     OW 6221   3.381   1.266   3.761  0.1505  0.0612  0.1722
 1556SOL    HW1 6222   3.305   1.270   3.819  0.3977  0.5119  0.4726
 1556SOL    HW2 6223   3.364   1.191   3.704 -0.2840 -0.1450  0.5681
 1556SOL     MW 6224   3.369   1.257   3.761  0.1265  0.0925  0.2614
 1557SOL     OW 6225   4.065   1.118   3.967 -0.1341  0.3587  0.2222
 1557SOL    HW1 6226   4.141   1.177   3.967  0.1766 -0.0146  1.2708
 1557SOL    HW2 6227   3.997   1.166   4.014 -0.0654  0.1062  0.5795
 1557SOL     MW 6228   4.066   1.132   3.973 -0.0855  0.2786  0.4022
 1558SOL     OW 6229   3.383   4.441   2.017 -0.1334  0.2596  0.8164
 1558SOL    HW1 6230   3.346   4.403   2.096 -0.5214  2.1000  1.5805
 1558SOL    HW2 6231   3.473   4.408   2.014 -0.6112 -1.1127  1.1139
 1558SOL     MW 6232   3.390   4.432   2.027 -0.2442  0.3196  0.9523
 1559SOL     OW 6233   1.854   1.601   2.126 -0.1647  0.0177 -0.2269
 1559SOL    HW1 6234   1.941   1.639   2.111 -0.0542 -0.2366 -0.2403
 1559SOL    HW2 6235   1.807   1.667   2.177  0.3060 -0.1824  0.4816
 1559SOL     MW 6236   1.859   1.614   2.130 -0.0903 -0.0405 -0.1379
 1560SOL     OW 6237   2.141   4.481   5.184  0.5842 -0.2895  0.8576
 1560SOL    HW1 6238   2.225   4.523   5.164 -0.1072  0.1239 -1.5336
 1560SOL    HW2 6239   2.138   4.405   5.126 -1.5275  0.8883 -0.7270
 1560SOL     MW 6240   2.152   4.477   5.174  0.2254 -0.0858  0.3486
 1561SOL     OW 6241   4.882   3.750   0.718 -0.0747  0.1527 -0.1454
 1561SOL    HW1 6242   4.898   3.774   0.627  2.1625 -0.3585  0.0628
 1561SOL    HW2 6243   4.846   3.662   0.714  3.0979 -1.2451 -0.4968
 1561SOL     MW 6244   4.879   3.742   0.706  0.6178 -0.0917 -0.1637
 1562SOL     OW 6245   3.629   1.016   0.104 -0.4609 -0.2852  0.2527
 1562SOL    HW1 6246   3.658   1.100   0.140 -0.4836  0.0457 -0.4797
 1562SOL    HW2 6247   3.707   0.981   0.060 -0.8537  0.0777 -0.7545
 1562SOL     MW 6248   3.643   1.022   0.103 -0.5141 -0.1964  0.0301
 1563SOL     OW 6249   0.590   5.071   2.032  0.1637  0.2106 -0.2281
 1563SOL    HW1 6250   0.615   4.979   2.040 -0.2832  0.1377  0.3677
 1563SOL    HW2 6251   0.551   5.078   1.945 -2.6011 -0.8605  0.8168
 1563SOL     MW 6252   0.588   5.060   2.022 -0.2474  0.0642 -0.0181
 1564SOL     OW 6253   4.336   1.701   2.988  0.2301  0.4157  0.4504
 1564SOL    HW1 6254   4.380   1.641   3.047  0.7084  1.3949  1.1239
 1564SOL    HW2 6255   4.348   1.664   2.901  1.4857  0.1186  0.7314
 1564SOL     MW 6256   4.343   1.689   2.984  0.4521  0.5030  0.5726
 1565SOL     OW 6257   4.369   1.391   2.472  0.2632  0.2256 -0.1355
 1565SOL    HW1 6258   4.274   1.385   2.467  0.3810 -0.5425 -1.8076
 1565SOL    HW2 6259   4.393   1.336   2.546 -0.5395 -0.0709 -0.0909
 1565SOL     MW 6260   4.360   1.383   2.481  0.1755  0.0893 -0.3439
 1566SOL     OW 6261   4.850   4.897   1.147 -0.0358 -0.2589  0.0139
 1566SOL    HW1 6262   4.800   4.909   1.228 -0.8482 -2.2582 -0.1342
 1566SOL    HW2 6263   4.878   4.805   1.150  1.6878  0.1850 -1.0189
 1566SOL     MW 6264   4.847   4.887   1.158  0.0808 -0.4580 -0.1373
 1567SOL     OW 6265   4.176   3.114   0.828 -0.2442  0.1428 -0.6644
 1567SOL    HW1 6266   4.258   3.136   0.782 -0.1783 -1.1652 -1.2198
 1567SOL    HW2 6267   4.134   3.198   0.843  0.4445  0.7218 -1.8154
 1567SOL     MW 6268   4.181   3.127   0.824 -0.1476  0.0495 -0.8828
 1568SOL     OW 6269   4.982   4.872   0.242 -0.2329  0.2532  0.2041
 1568SOL    HW1 6270   4.991   4.918   0.159 -0.1841 -0.9633 -0.4863
 1568SOL    HW2 6271   4.913   4.807   0.226 -0.8341  0.5809  1.3789
 1568SOL     MW 6272   4.974   4.869   0.229 -0.3036  0.1394  0.2662
 1569SOL     OW 6273   2.268   4.788   2.537  0.2554 -0.2824 -0.2085
 1569SOL    HW1 6274   2.333   4.831   2.593 -0.0756  0.3035 -0.2696
 1569SOL    HW2 6275   2.242   4.855   2.475  0.0679 -0.7129 -0.5996
 1569SOL     MW 6276   2.273   4.802   2.536  0.1890 -0.2625 -0.2664
 1570SOL     OW 6277   5.359   3.306   4.239  0.0531  0.0899  0.6003
 1570SOL    HW1 6278   5.296   3.253   4.289  0.0691 -1.0720 -0.5933
 1570SOL    HW2 6279   5.310   3.386   4.219 -1.3699 -1.1144 -0.9859
 1570SOL     MW 6280   5.344   3.310   4.243 -0.1270 -0.2130  0.2445
 1571SOL     OW 6281   2.049   1.669   2.790 -0.1176  0.8616  0.0940
 1571SOL    HW1 6282   2.038   1.627   2.704 -1.1574  3.7148 -1.2819
 1571SOL    HW2 6283   1.960   1.670   2.827  0.5521 -1.8260  2.0708
 1571SOL     MW 6284   2.036   1.664   2.784 -0.1650  0.8828  0.1710
 1572SOL     OW 6285   2.265   5.182   3.716  0.3710  0.8739  0.3472
 1572SOL    HW1 6286   2.349   5.184   3.762 -0.0298  1.7767  1.0722
 1572SOL    HW2 6287   2.276   5.113   3.650  1.8940  1.3881  0.0049
 1572SOL     MW 6288   2.277   5.173   3.713  0.5147  1.0553  0.3962
 1573SOL     OW 6289   4.590   3.880   1.468 -0.2529  0.4884  0.0752
 1573SOL    HW1 6290   4.649   3.925   1.528  0.7672  1.3128 -1.4913
 1573SOL    HW2 6291   4.503   3.911   1.491  0.1188  0.8132  1.0832
 1573SOL     MW 6292   4.586   3.890   1.479 -0.0748  0.6355  0.0037
 1574SOL     OW 6293   1.860   5.340   5.179 -0.3697  0.0484  1.0458
 1574SOL    HW1 6294   1.832   5.257   5.218  0.4798  0.1220  1.8311
 1574SOL    HW2 6295   1.802   5.406   5.217 -0.5352 -0.0810  1.0171
 1574SOL     MW 6296   1.849   5.338   5.189 -0.2821  0.0413  1.1427
 1575SOL     OW 6297   4.453   3.620   5.091  0.3962  0.0817  0.0777
 1575SOL    HW1 6298   4.546   3.638   5.077  0.4297  1.2908  1.4840
 1575SOL    HW2 6299   4.424   3.693   5.147 -1.1103 -0.9040  0.6303
 1575SOL     MW 6300   4.462   3.632   5.097  0.2076  0.1103  0.3285
 1576SOL     OW 6301   3.955   0.261   5.092  0.0957  0.3358  0.5281
 1576SOL    HW1 6302   4.020   0.318   5.133 -0.2780 -0.0712  1.7192
 1576SOL    HW2 6303   3.970   0.175   5.130 -0.5816  0.0492  0.1712
 1576SOL     MW 6304   3.965   0.257   5.102 -0.0388  0.2470  0.6349
 1577SOL     OW 6305   4.917   5.275   0.532  0.1122 -0.0772 -0.1203
 1577SOL    HW1 6306   4.987   5.339   0.525 -0.1022  0.1455 -0.2276
 1577SOL    HW2 6307   4.846   5.321   0.577 -0.2838 -0.0378 -0.7678
 1577SOL     MW 6308   4.917   5.289   0.537  0.0340 -0.0436 -0.2169
 1578SOL     OW 6309   3.621   0.416   0.643  0.5518 -0.2848 -0.1489
 1578SOL    HW1 6310   3.699   0.425   0.698  0.7221 -1.7577 -0.1015
 1578SOL    HW2 6311   3.588   0.506   0.632  2.1313  0.3419 -0.0128
 1578SOL     MW 6312   3.626   0.429   0.649  0.7758 -0.3931 -0.1254
 1579SOL     OW 6313   2.275   2.520   4.133  0.1632  0.1775  0.6328
 1579SOL    HW1 6314   2.360   2.476   4.141 -1.0226 -2.4325 -0.0826
 1579SOL    HW2 6315   2.211   2.452   4.154 -1.7979  1.9631  0.7544
 1579SOL     MW 6316   2.278   2.505   4.137 -0.2396  0.0719  0.5568
 1580SOL     OW 6317   0.225   1.822   1.365 -0.3497  0.4123  0.0407
 1580SOL    HW1 6318   0.268   1.737   1.355 -1.1796 -0.0305  0.1519
 1580SOL    HW2 6319   0.268   1.879   1.301 -0.6348 -0.4316 -0.9162
 1580SOL     MW 6320   0.236   1.819   1.356 -0.4924  0.2476 -0.0676
 1581SOL     OW 6321   3.266   3.372   5.178  0.3878 -0.1516  0.6148
 1581SOL    HW1 6322   3.326   3.305   5.211  0.1957 -1.1765 -1.0006
 1581SOL    HW2 6323   3.182   3.352   5.220  0.6091 -0.1933  1.0414
 1581SOL     MW 6324   3.263   3.360   5.188  0.3915 -0.2881  0.4626
 1582SOL     OW 6325   1.025   4.396   4.786 -0.3382 -0.5559 -0.2272
 1582SOL    HW1 6326   0.983   4.448   4.718 -1.7262 -0.9197  0.3140
 1582SOL    HW2 6327   1.118   4.411   4.774 -0.5999  0.0459 -1.6718
 1582SOL     MW 6328   1.031   4.405   4.776 -0.5494 -0.5255 -0.3429
 1583SOL     OW 6329   2.170   2.693   3.541  0.8713  0.0952 -0.6613
 1583SOL    HW1 6330   2.083   2.668   3.511 -0.0821  0.2984  1.7429
 1583SOL    HW2 6331   2.162   2.785   3.565  1.1841 -0.3291  1.2729
 1583SOL     MW 6332   2.158   2.702   3.540  0.7893  0.0669 -0.1060
 1584SOL     OW 6333   1.246   0.033   0.029 -0.3007 -0.3834  0.2363
 1584SOL    HW1 6334   1.235   0.127   0.018 -0.3462 -0.4576 -0.3443
 1584SOL    HW2 6335   1.195   0.012   0.108  1.9000  0.5301  2.0362
 1584SOL     MW 6336   1.238   0.042   0.038 -0.0248 -0.2759  0.3923
 1585SOL     OW 6337   0.611   3.743   3.807 -0.2417  0.3068 -0.1083
 1585SOL    HW1 6338   0.630   3.725   3.715 -1.3322  0.0311 -0.2857
 1585SOL    HW2 6339   0.693   3.723   3.853 -0.0898 -0.8093 -0.8515
 1585SOL     MW 6340   0.624   3.738   3.801 -0.3618  0.1286 -0.2262
 1586SOL     OW 6341   0.401   0.020   4.221 -0.8646  0.2061  0.1840
 1586SOL    HW1 6342   0.388   0.034   4.315  0.0875  0.8380  0.2431
 1586SOL    HW2 6343   0.496   0.028   4.209 -1.1467  2.4484 -1.1626
 1586SOL     MW 6344   0.412   0.023   4.232 -0.7789  0.5740  0.0192
 1587SOL     OW 6345   4.828   4.819   2.929  0.4343 -0.2061 -0.3820
 1587SOL    HW1 6346   4.777   4.747   2.966  2.6723 -0.4645  2.5869
 1587SOL    HW2 6347   4.895   4.775   2.875  1.1793 -0.3388  0.6199
 1587SOL     MW 6348   4.830   4.804   2.927  0.8162 -0.2562  0.1263
 1588SOL     OW 6349   4.513   4.594   2.815 -0.0683  0.6547  0.9932
 1588SOL    HW1 6350   4.588   4.538   2.794 -0.3979 -0.0482  1.6665
 1588SOL    HW2 6351   4.456   4.539   2.869 -1.5898  0.8104 -0.3761
 1588SOL     MW 6352   4.516   4.580   2.819 -0.3053  0.5847  0.9041
 1589SOL     OW 6353   2.780   2.275   2.040  0.2700  0.2137  0.3501
 1589SOL    HW1 6354   2.692   2.306   2.021  0.8703  2.3218  0.7600
 1589SOL    HW2 6355   2.767   2.189   2.082 -1.4545 -0.3670 -1.2615
 1589SOL     MW 6356   2.767   2.268   2.043  0.1261  0.4092  0.1962
 1590SOL     OW 6357   3.962   0.944   0.210 -0.4452 -0.1758 -0.1271
 1590SOL    HW1 6358   4.028   0.976   0.272  0.0478 -1.1701 -0.1136
 1590SOL    HW2 6359   3.880   0.984   0.240  0.2090  1.4847 -0.4418
 1590SOL     MW 6360   3.960   0.953   0.222 -0.2984 -0.0905 -0.1656
 1591SOL     OW 6361   0.830   1.431   1.492 -0.4472  0.0177  0.0771
 1591SOL    HW1 6362   0.875   1.514   1.510 -1.5665  0.7079 -0.2575
 1591SOL    HW2 6363   0.820   1.429   1.397 -0.2159 -0.6199  0.0612
 1591SOL     MW 6364   0.835   1.441   1.482 -0.5609  0.0244  0.0322
 1592SOL     OW 6365   5.400   5.236   0.489  0.0243 -0.1677  0.2424
 1592SOL    HW1 6366   5.406   5.271   0.577  0.2465  0.8721 -0.1713
 1592SOL    HW2 6367   5.428   5.144   0.498 -1.8272 -0.6601  1.5538
 1592SOL     MW 6368   5.405   5.228   0.501 -0.1843 -0.0976  0.3573
 1593SOL     OW 6369   2.311   2.140   2.529 -0.1691  0.5625 -0.1715
 1593SOL    HW1 6370   2.365   2.196   2.585 -0.1698 -0.8690  1.3213
 1593SOL    HW2 6371   2.317   2.180   2.442  0.7833  2.1763  0.5926
 1593SOL     MW 6372   2.318   2.153   2.525 -0.0473  0.5858  0.1174
 1594SOL     OW 6373   2.660   3.697   4.971  0.2652 -0.2165  0.0236
 1594SOL    HW1 6374   2.700   3.732   5.051 -0.3109  2.0795 -0.6069
 1594SOL    HW2 6375   2.677   3.603   4.974 -0.1767 -0.3031  3.0980
 1594SOL     MW 6376   2.667   3.690   4.981  0.1349  0.0663  0.3365
 1595SOL     OW 6377   1.444   4.487   0.651 -0.4470 -0.3228  0.3216
 1595SOL    HW1 6378   1.399   4.572   0.650 -3.9665 -2.0147  0.1489
 1595SOL    HW2 6379   1.465   4.473   0.744 -1.6990 -0.1011  0.6586
 1595SOL     MW 6380   1.441   4.496   0.663 -1.0578 -0.5110  0.3427
 1596SOL     OW 6381   0.698   4.216   2.629 -0.4582 -0.2807  0.2890
 1596SOL    HW1 6382   0.685   4.283   2.695 -1.1948  1.3157 -1.3871
 1596SOL    HW2 6383   0.786   4.182   2.644 -0.0192  1.1745  1.0908
 1596SOL     MW 6384   0.707   4.220   2.639 -0.4963  0.1100  0.1770
 1597SOL     OW 6385   3.586   2.472   2.811  0.0231 -0.1387  0.1930
 1597SOL    HW1 6386   3.629   2.439   2.732  0.3184  1.3570 -0.3177
 1597SOL    HW2 6387   3.607   2.409   2.879 -1.2757 -2.1591 -1.1643
 1597SOL     MW 6388   3.594   2.460   2.809 -0.1053 -0.2059 -0.0461
 1598SOL     OW 6389   2.447   2.938   0.033  0.4201 -0.2015 -0.5457
 1598SOL    HW1 6390   2.536   2.902   0.035  0.1456 -0.8626  0.8962
 1598SOL    HW2 6391   2.394   2.872   0.078 -0.3174  1.4587  1.1361
 1598SOL     MW 6392   2.452   2.925   0.039  0.2905 -0.0736 -0.1458
 1599SOL     OW 6393   1.182   2.473   2.404  0.2461  0.0313 -0.4647
 1599SOL    HW1 6394   1.147   2.434   2.324 -0.3590  0.0593 -0.2189
 1599SOL    HW2 6395   1.244   2.408   2.438  0.6227  0.0867 -1.0325
 1599SOL     MW 6396   1.186   2.460   2.399  0.2169  0.0420 -0.5059
 1600SOL     OW 6397   1.707   3.817   0.347 -0.0586  0.2141  0.2011
 1600SOL    HW1 6398   1.663   3.898   0.374  0.7402  0.4871  0.7206
 1600SOL    HW2 6399   1.789   3.846   0.308 -0.4412 -0.2735 -1.0277
 1600SOL     MW 6400   1.712   3.831   0.346 -0.0053  0.1866  0.1103
 1601SOL     OW 6401   4.834   0.202   2.407 -0.3064 -0.4779  0.0409
 1601SOL    HW1 6402   4.830   0.155   2.324 -1.9649  0.2819 -0.3529
 1601SOL    HW2 6403   4.828   0.134   2.473 -0.4955 -0.9867 -0.4907
 1601SOL     MW 6404   4.832   0.187   2.405 -0.5429 -0.4458 -0.0776
 1602SOL     OW 6405   3.022   0.654   1.007 -0.1229 -0.3749 -0.1912
 1602SOL    HW1 6406   3.115   0.641   0.988  0.0079  0.8297 -0.4458
 1602SOL    HW2 6407   2.976   0.618   0.931  0.0757 -1.6976  0.2838
 1602SOL     MW 6408   3.028   0.647   0.995 -0.0807 -0.3900 -0.1630
 1603SOL     OW 6409   1.700   5.451   3.988 -0.6555  0.0575 -0.0680
 1603SOL    HW1 6410   1.664   5.514   4.050 -0.4233 -0.5541  0.7009
 1603SOL    HW2 6411   1.644   5.459   3.911 -2.2908 -0.6878  0.9967
 1603SOL     MW 6412   1.688   5.461   3.986 -0.8351 -0.1162  0.1667
 1604SOL     OW 6413   2.991   2.588   1.784 -0.2944 -0.3069 -0.1750
 1604SOL    HW1 6414   2.935   2.511   1.780  0.7647 -1.1459  0.6753
 1604SOL    HW2 6415   3.066   2.561   1.838  0.4437  1.0870 -0.4560
 1604SOL     MW 6416   2.993   2.575   1.791 -0.0643 -0.2359 -0.1021
 1605SOL     OW 6417   0.646   3.592   3.171 -0.1658  0.4359  0.6898
 1605SOL    HW1 6418   0.654   3.675   3.218  0.3898  0.4281  0.6138
 1605SOL    HW2 6419   0.567   3.551   3.208 -1.5824  1.8533 -0.6183
 1605SOL     MW 6420   0.637   3.598   3.182 -0.2760  0.6164  0.5126
 1606SOL     OW 6421   1.972   0.105   2.992 -0.0325  0.2623  0.3292
 1606SOL    HW1 6422   1.941   0.046   3.061  0.0006  0.2580  0.3405
 1606SOL    HW2 6423   1.947   0.192   3.023 -0.7050  0.1952 -0.0220
 1606SOL     MW 6424   1.965   0.109   3.005 -0.1143  0.2532  0.2857
 1607SOL     OW 6425   5.244   1.644   2.039  0.2442 -0.4079 -0.0365
 1607SOL    HW1 6426   5.309   1.611   2.100 -1.3267 -2.0334  0.8341
 1607SOL    HW2 6427   5.218   1.568   1.987  0.0520  0.5104 -1.3595
 1607SOL     MW 6428   5.249   1.630   2.040  0.0185 -0.4984 -0.0944
 1608SOL     OW 6429   0.658   2.889   2.319  0.0363  0.5146  0.3656
 1608SOL    HW1 6430   0.689   2.804   2.350 -0.4235 -0.1803 -1.0323
 1608SOL    HW2 6431   0.660   2.945   2.397 -1.2797 -1.2055  1.7073
 1608SOL     MW 6432   0.662   2.885   2.333 -0.1910  0.2055  0.3584
 1609SOL     OW 6433   0.917   3.458   2.633 -0.0733 -0.7512 -0.2503
 1609SOL    HW1 6434   0.845   3.521   2.627  2.8598  3.3453  2.2291
 1609SOL    HW2 6435   0.874   3.375   2.653 -4.1543  0.8210 -1.3546
 1609SOL     MW 6436   0.902   3.456   2.635 -0.2203 -0.0255 -0.0743
 1610SOL     OW 6437   1.113   1.822   1.395  0.2487  0.3230 -0.2355
 1610SOL    HW1 6438   1.170   1.789   1.465  0.9578  0.2236 -0.8480
 1610SOL    HW2 6439   1.072   1.900   1.433 -0.7232 -0.6951  0.8997
 1610SOL     MW 6440   1.115   1.828   1.409  0.2151  0.1800 -0.1686
 1611SOL     OW 6441   2.516   1.499   1.072 -0.1644 -0.1516 -0.5179
 1611SOL    HW1 6442   2.591   1.440   1.064 -0.6696 -0.7710 -0.7077
 1611SOL    HW2 6443   2.444   1.455   1.027 -0.4749  0.7502 -0.9478
 1611SOL     MW 6444   2.516   1.486   1.066 -0.2688 -0.1155 -0.5972
 1612SOL     OW 6445   2.794   4.352   5.055  0.7491 -0.0767 -0.4047
 1612SOL    HW1 6446   2.709   4.320   5.084  1.3067  0.1099  1.5695
 1612SOL    HW2 6447   2.774   4.434   5.009 -0.2515 -0.8695 -1.4573
 1612SOL     MW 6448   2.781   4.358   5.053  0.6924 -0.1543 -0.2868
 1613SOL     OW 6449   3.002   1.996   0.198 -0.5309 -0.4022 -0.2977
 1613SOL    HW1 6450   3.072   2.001   0.263 -0.4578 -1.7559 -0.2400
 1613SOL    HW2 6451   2.973   2.086   0.187  1.3852  0.2495 -0.5124
 1613SOL     MW 6452   3.007   2.008   0.205 -0.2762 -0.4921 -0.3178
 1614SOL     OW 6453   0.354   1.831   2.503  0.5367 -0.2078 -0.2663
 1614SOL    HW1 6454   0.418   1.783   2.556 -0.7787 -1.3993  0.3282
 1614SOL    HW2 6455   0.283   1.768   2.489 -0.9823  1.3548 -0.0051
 1614SOL     MW 6456   0.353   1.816   2.508  0.1739 -0.1603 -0.1567
 1615SOL     OW 6457   5.139   3.240   0.349  0.4433  0.3594  0.2327
 1615SOL    HW1 6458   5.144   3.186   0.270  1.4441  0.4972  0.1892
 1615SOL    HW2 6459   5.068   3.201   0.400  2.1751 -2.0860  0.9795
 1615SOL     MW 6460   5.131   3.228   0.346  0.7931  0.0640  0.3228
 1616SOL     OW 6461   1.908   5.034   5.123 -0.0238  0.2213 -0.0866
 1616SOL    HW1 6462   1.975   4.968   5.105 -1.2834 -1.1950  0.2320
 1616SOL    HW2 6463   1.939   5.079   5.202  1.3830  0.7830 -0.9270
 1616SOL     MW 6464   1.921   5.031   5.131 -0.0049  0.1119 -0.1534
 1617SOL     OW 6465   2.727   2.919   0.047  0.0077 -0.2432  0.8295
 1617SOL    HW1 6466   2.757   2.947  -0.040  0.6259 -0.9996  0.7925
 1617SOL    HW2 6467   2.758   2.987   0.106  0.9858 -0.5354  0.6626
 1617SOL     MW 6468   2.735   2.932   0.043  0.2120 -0.3775  0.8034
 1618SOL     OW 6469   3.270   2.594   4.492  0.3234  0.2515 -0.1581
 1618SOL    HW1 6470   3.297   2.510   4.456 -1.5729  0.1214 -1.4518
 1618SOL    HW2 6471   3.280   2.655   4.419 -1.2737  0.4794 -0.2201
 1618SOL     MW 6472   3.275   2.591   4.478 -0.1238  0.2640 -0.3317
 1619SOL     OW 6473   0.505   3.437   2.513  0.0209 -0.3704 -0.0661
 1619SOL    HW1 6474   0.425   3.489   2.505 -0.1110 -0.2377  1.8198
 1619SOL    HW2 6475   0.497   3.393   2.598  2.2293  0.1295  0.4496
 1619SOL     MW 6476   0.494   3.438   2.523  0.2867 -0.2894  0.2413
 1620SOL     OW 6477   2.584   3.172   2.145 -0.4061  1.0724  0.1732
 1620SOL    HW1 6478   2.508   3.115   2.128  0.9814 -1.0011  0.6229
 1620SOL    HW2 6479   2.563   3.215   2.228  0.7411 -3.0730  2.9444
 1620SOL     MW 6480   2.571   3.170   2.153 -0.0816  0.2763  0.5855
 1621SOL     OW 6481   0.107   2.278   3.130  0.1718 -0.2712 -0.1258
 1621SOL    HW1 6482   0.080   2.191   3.160  0.6972 -0.2537  0.3960
 1621SOL    HW2 6483   0.200   2.284   3.152  0.2232  0.2871 -0.4814
 1621SOL     MW 6484   0.115   2.268   3.137  0.2456 -0.1975 -0.1045
 1622SOL     OW 6485   2.407   2.988   3.257 -1.0427 -0.5127  0.1390
 1622SOL    HW1 6486   2.478   2.938   3.296  0.5446  0.3416 -1.4909
 1622SOL    HW2 6487   2.338   2.924   3.239 -0.0616 -1.6404  0.3504
 1622SOL     MW 6488   2.407   2.974   3.259 -0.7139 -0.5477 -0.0426
 1623SOL     OW 6489   4.001   4.692   1.731  0.1193  0.5518  0.3493
 1623SOL    HW1 6490   4.044   4.720   1.811  0.5492  0.0847  0.2892
 1623SOL    HW2 6491   4.061   4.628   1.693 -0.0769  0.7736 -0.3459
 1623SOL     MW 6492   4.014   4.687   1.736  0.1492  0.5204  0.2526
 1624SOL     OW 6493   3.709   3.684   5.084 -0.4564  0.0964  0.0307
 1624SOL    HW1 6494   3.730   3.623   5.014 -1.4653 -0.1510 -0.0713
 1624SOL    HW2 6495   3.768   3.758   5.070  0.4964 -0.6587 -0.0866
 1624SOL     MW 6496   3.720   3.686   5.073 -0.4636 -0.0319  0.0027
 1625SOL     OW 6497   3.699   1.234   3.529  0.4209  0.2413 -0.1183
 1625SOL    HW1 6498   3.643   1.160   3.504 -1.1417  1.6758 -1.0849
 1625SOL    HW2 6499   3.711   1.223   3.623  1.1682 -1.8321 -0.3970
 1625SOL     MW 6500   3.693   1.223   3.538  0.3166  0.1595 -0.2777
 1626SOL     OW 6501   2.572   3.089   2.966 -0.4415 -0.1348  0.0446
 1626SOL    HW1 6502   2.636   3.033   2.923 -1.1340 -0.3470 -0.7426
 1626SOL    HW2 6503   2.522   3.030   3.022 -2.3283 -0.7080 -2.1028
 1626SOL     MW 6504   2.574   3.075   2.968 -0.7717 -0.2354 -0.3311
 1627SOL     OW 6505   5.394   0.838   4.686  0.7325  0.0566  0.3469
 1627SOL    HW1 6506   5.342   0.800   4.757  0.9734 -1.4471 -0.2371
 1627SOL    HW2 6507   5.453   0.768   4.660  2.2391  1.3468  0.1815
 1627SOL     MW 6508   5.395   0.824   4.692  0.9562  0.0293  0.2510
 1628SOL     OW 6509   0.537   1.966   0.525 -0.4840  0.0099  0.0051
 1628SOL    HW1 6510   0.469   2.000   0.467  0.4312  0.7426 -0.6712
 1628SOL    HW2 6511   0.500   1.976   0.613 -1.5655 -0.3717 -0.3871
 1628SOL     MW 6512   0.524   1.972   0.529 -0.5053  0.0548 -0.1317
 1629SOL     OW 6513   4.586   5.143   5.184 -0.0673 -0.1074 -0.0560
 1629SOL    HW1 6514   4.512   5.094   5.148  0.3400 -0.8668  0.1219
 1629SOL    HW2 6515   4.568   5.147   5.278 -0.0825  0.0637 -0.0651
 1629SOL     MW 6516   4.574   5.137   5.192 -0.0171 -0.1827 -0.0344
 1630SOL     OW 6517   0.161   1.355   0.494 -0.1172  0.7240 -0.3114
 1630SOL    HW1 6518   0.140   1.445   0.519 -0.7448  0.3710  0.5155
 1630SOL    HW2 6519   0.091   1.303   0.534  1.1435 -0.2964  0.6494
 1630SOL     MW 6520   0.149   1.360   0.502 -0.0361  0.5482 -0.0826
 1631SOL     OW 6521   2.138   0.686   2.662 -0.1740  0.1737 -0.1937
 1631SOL    HW1 6522   2.158   0.638   2.581 -0.1744  3.9007 -2.6569
 1631SOL    HW2 6523   2.043   0.677   2.672 -0.2648  0.1571 -0.9864
 1631SOL     MW 6524   2.128   0.678   2.653 -0.1857  0.6487 -0.6105
 1632SOL     OW 6525   1.358   3.983   4.700 -0.3445  0.1383  0.4368
 1632SOL    HW1 6526   1.341   4.044   4.771  0.8931  0.3869  0.5417
 1632SOL    HW2 6527   1.453   3.980   4.692 -0.4324 -0.4084 -0.7602
 1632SOL     MW 6528   1.368   3.990   4.708 -0.1973  0.1001  0.2970
 1633SOL     OW 6529   4.095   3.428   0.081  0.0607 -0.5073 -0.1076
 1633SOL    HW1 6530   4.076   3.512   0.124  0.1776 -0.8800  0.6918
 1633SOL    HW2 6531   4.010   3.399   0.047 -0.2232 -0.6667  0.7236
 1633SOL     MW 6532   4.081   3.435   0.082  0.0393 -0.5754  0.1011
 1634SOL     OW 6533   1.283   3.738   0.827 -0.0040 -0.1309 -0.2484
 1634SOL    HW1 6534   1.333   3.672   0.874  0.5998  0.1440 -0.5008
 1634SOL    HW2 6535   1.304   3.820   0.873 -0.3655 -0.0382 -0.2436
 1634SOL     MW 6536   1.292   3.740   0.839  0.0270 -0.0838 -0.2801
 1635SOL     OW 6537   0.869   2.598   0.968 -0.1754 -0.2344 -0.0467
 1635SOL    HW1 6538   0.786   2.632   0.935 -0.6452 -0.7221  0.6122
 1635SOL    HW2 6539   0.865   2.609   1.063  2.2965  3.7477 -0.1736
 1635SOL     MW 6540   0.858   2.604   0.976  0.0809  0.2129  0.0214
 1636SOL     OW 6541   2.065   5.415   0.567  0.4257  0.5129 -0.0068
 1636SOL    HW1 6542   2.106   5.382   0.486  1.5068  0.5677  0.5042
 1636SOL    HW2 6543   2.128   5.478   0.602 -0.0844  0.5701  0.8279
 1636SOL     MW 6544   2.078   5.419   0.561  0.4988  0.5272  0.1654
 1637SOL     OW 6545   0.342   4.190   0.908  0.3277  0.8083 -0.5198
 1637SOL    HW1 6546   0.300   4.123   0.853 -0.2664  1.0359 -0.3543
 1637SOL    HW2 6547   0.316   4.273   0.869  0.6629  0.9553 -0.4342
 1637SOL     MW 6548   0.333   4.192   0.896  0.2945  0.8563 -0.4877
 1638SOL     OW 6549   5.175   4.492   2.505 -0.4664 -0.1178 -0.7704
 1638SOL    HW1 6550   5.116   4.434   2.553 -0.4345 -0.3785 -1.0470
 1638SOL    HW2 6551   5.135   4.503   2.419  0.3503 -1.0413 -1.2816
 1638SOL     MW 6552   5.162   4.486   2.500 -0.3577 -0.2694 -0.8712
 1639SOL     OW 6553   1.690   4.855   3.971 -0.2469 -0.1612  0.4879
 1639SOL    HW1 6554   1.650   4.799   3.904 -0.6685  0.7278 -0.0104
 1639SOL    HW2 6555   1.679   4.806   4.053  0.7080 -1.4889 -0.1437
 1639SOL     MW 6556   1.684   4.841   3.973 -0.1786 -0.2174  0.3433
 1640SOL     OW 6557   3.219   1.725   0.617  0.1731 -0.2033  0.8341
 1640SOL    HW1 6558   3.258   1.753   0.699  1.1963 -1.5677  0.8456
 1640SOL    HW2 6559   3.204   1.631   0.628 -0.8082 -0.1806 -0.0976
 1640SOL     MW 6560   3.222   1.717   0.629  0.1784 -0.3751  0.7163
 1641SOL     OW 6561   3.864   2.224   3.509 -0.0739 -0.0693  0.1901
 1641SOL    HW1 6562   3.820   2.245   3.591 -0.7089  1.1103 -0.4243
 1641SOL    HW2 6563   3.827   2.140   3.482 -1.4034  0.5402  0.0624
 1641SOL     MW 6564   3.854   2.216   3.516 -0.3254  0.1597  0.0951
 1642SOL     OW 6565   5.352   2.545   2.262 -0.4466 -0.0591 -0.3887
 1642SOL    HW1 6566   5.441   2.510   2.254  0.0619  1.4151 -1.5612
 1642SOL    HW2 6567   5.307   2.514   2.184 -0.1516  1.3647 -1.1581
 1642SOL     MW 6568   5.357   2.536   2.251 -0.3438  0.3119 -0.6373
 1643SOL     OW 6569   0.331   0.133   2.842  0.5938 -0.3709 -0.0809
 1643SOL    HW1 6570   0.400   0.067   2.839  0.2912 -0.6511 -1.4901
 1643SOL    HW2 6571   0.305   0.145   2.751  0.1362  1.1703  0.2197
 1643SOL     MW 6572   0.336   0.126   2.830  0.4965 -0.2095 -0.2228
 1644SOL     OW 6573   0.164   5.408   3.395  0.1564 -0.1571  0.0410
 1644SOL    HW1 6574   0.148   5.403   3.489  0.5672 -0.3256  0.1029
 1644SOL    HW2 6575   0.157   5.318   3.364  1.4925 -0.3153  0.1583
 1644SOL     MW 6576   0.161   5.396   3.403  0.3800 -0.1989  0.0639
 1645SOL     OW 6577   0.047   3.069   3.007 -0.7386 -0.4171  0.8098
 1645SOL    HW1 6578   0.023   2.994   2.953  0.8655  0.7925 -1.7842
 1645SOL    HW2 6579   0.135   3.049   3.038 -0.1835  0.4474 -0.1382
 1645SOL     MW 6580   0.055   3.057   3.004 -0.4622 -0.1516  0.3564
 1646SOL     OW 6581   2.100   2.030   4.438  0.7508 -0.5628 -0.0022
 1646SOL    HW1 6582   2.129   2.015   4.348 -1.2632 -1.9535 -0.4845
 1646SOL    HW2 6583   2.154   1.971   4.491  1.7651  0.0746 -0.2993
 1646SOL     MW 6584   2.111   2.020   4.433  0.6228 -0.6592 -0.1019
 1647SOL     OW 6585   2.772   3.362   2.047 -0.0816  0.2059  0.1972
 1647SOL    HW1 6586   2.705   3.316   2.098  1.0363 -1.5464  0.1527
 1647SOL    HW2 6587   2.823   3.410   2.111  0.1348 -0.4608  0.5347
 1647SOL     MW 6588   2.770   3.362   2.061  0.0892 -0.1038  0.2347
 1648SOL     OW 6589   1.478   3.161   4.654  0.1565 -0.6711  0.0072
 1648SOL    HW1 6590   1.384   3.148   4.637  0.2558 -2.1950  0.4274
 1648SOL    HW2 6591   1.481   3.236   4.713 -0.9666 -1.5741  1.2906
 1648SOL     MW 6592   1.466   3.169   4.659  0.0255 -0.9818  0.2253
 1649SOL     OW 6593   1.205   3.267   4.845  0.2538 -0.0271 -0.1359
 1649SOL    HW1 6594   1.183   3.211   4.919 -2.1317 -0.2919 -0.9383
 1649SOL    HW2 6595   1.288   3.308   4.869 -0.5962  0.1950  2.8503
 1649SOL     MW 6596   1.213   3.265   4.857 -0.1604 -0.0326  0.1437
 1650SOL     OW 6597   2.758   0.143   1.144  0.0965 -0.1600 -0.4821
 1650SOL    HW1 6598   2.739   0.194   1.223  2.0533 -0.2035  0.0835
 1650SOL    HW2 6599   2.769   0.054   1.175  1.0437 -0.1506 -0.7437
 1650SOL     MW 6600   2.757   0.138   1.158  0.4683 -0.1644 -0.4432
 1651SOL     OW 6601   0.496   1.009   4.397  0.4386 -0.1841  0.0624
 1651SOL    HW1 6602   0.410   1.049   4.384  0.0232 -0.0766  2.6128
 1651SOL    HW2 6603   0.528   0.990   4.308 -2.4197 -0.7239 -0.9441
 1651SOL     MW 6604   0.489   1.012   4.384  0.0195 -0.2394  0.2600
 1652SOL     OW 6605   2.605   2.453   1.588 -0.0592  0.4960  0.2222
 1652SOL    HW1 6606   2.598   2.548   1.597  0.4311  0.6002 -0.4222
 1652SOL    HW2 6607   2.686   2.430   1.632  0.1352  0.4566 -0.1510
 1652SOL     MW 6608   2.614   2.462   1.595  0.0285  0.5043  0.0920
 1653SOL     OW 6609   2.456   5.061   2.196  0.1103  0.3311 -0.1273
 1653SOL    HW1 6610   2.386   5.013   2.240  0.3036  0.9483  0.8852
 1653SOL    HW2 6611   2.433   5.057   2.103  0.2980 -1.9583 -0.1192
 1653SOL     MW 6612   2.444   5.055   2.190  0.1591  0.1170  0.0034
 1654SOL     OW 6613   3.535   0.252   5.462  0.3221  0.0047 -0.2179
 1654SOL    HW1 6614   3.621   0.293   5.455 -0.4473  1.6427 -0.6855
 1654SOL    HW2 6615   3.489   0.279   5.382 -0.1397 -2.0981 -0.7225
 1654SOL     MW 6616   3.540   0.261   5.450  0.1645 -0.0548 -0.3424
 1655SOL     OW 6617   4.400   3.919   5.034 -0.0980  0.2352 -0.0402
 1655SOL    HW1 6618   4.370   3.863   4.963 -0.3403 -0.1758  0.3880
 1655SOL    HW2 6619   4.473   3.968   4.996 -0.0775 -0.1494 -0.5048
 1655SOL     MW 6620   4.406   3.918   5.020 -0.1264  0.1334 -0.0449
 1656SOL     OW 6621   4.451   4.622   4.888  0.4643  0.4757 -0.2058
 1656SOL    HW1 6622   4.434   4.589   4.976  1.1493  0.0739 -0.2177
 1656SOL    HW2 6623   4.379   4.588   4.834  0.3429  0.2711  0.0879
 1656SOL     MW 6624   4.440   4.614   4.892  0.5365  0.3981 -0.1697
 1657SOL     OW 6625   4.292   0.283   4.430 -0.4946  0.2421 -0.5089
 1657SOL    HW1 6626   4.372   0.307   4.383  0.6898 -2.5749 -0.0927
 1657SOL    HW2 6627   4.246   0.223   4.371 -1.4263  0.4545 -0.0181
 1657SOL     MW 6628   4.296   0.279   4.417 -0.4623 -0.0913 -0.3928
 1658SOL     OW 6629   3.532   3.677   2.137 -0.9381  0.1587  0.1417
 1658SOL    HW1 6630   3.494   3.670   2.225  0.6012 -1.7840  0.7323
 1658SOL    HW2 6631   3.517   3.768   2.112 -0.4240  1.1319  2.9242
 1658SOL     MW 6632   3.525   3.688   2.145 -0.6752  0.0346  0.5735
 1659SOL     OW 6633   0.500   1.042   3.059  0.2123  0.0150 -0.2263
 1659SOL    HW1 6634   0.513   1.108   3.127  0.9883 -0.0949 -0.2501
 1659SOL    HW2 6635   0.571   1.058   2.997  0.4592 -0.8782 -0.1911
 1659SOL     MW 6636   0.511   1.052   3.060  0.3433 -0.1134 -0.2249
 1660SOL     OW 6637   1.035   1.349   2.479 -0.6636  0.2106 -0.4542
 1660SOL    HW1 6638   0.999   1.375   2.395 -1.4043  1.5677  0.2494
 1660SOL    HW2 6639   1.079   1.265   2.462 -0.2473  0.7685 -2.3019
 1660SOL     MW 6640   1.036   1.341   2.466 -0.7051  0.4558 -0.6006
 1661SOL     OW 6641   4.889   1.434   4.645 -0.0191 -0.0246  0.4129
 1661SOL    HW1 6642   4.957   1.423   4.578 -0.7087  1.3703 -0.5656
 1661SOL    HW2 6643   4.810   1.456   4.596 -0.9430 -0.5862  1.6038
 1661SOL     MW 6644   4.888   1.436   4.630 -0.2257  0.0821  0.4401
 1662SOL     OW 6645   1.732   2.343   3.784  0.4793 -0.1768  0.0485
 1662SOL    HW1 6646   1.672   2.412   3.813  0.1044 -0.9047  1.0729
 1662SOL    HW2 6647   1.820   2.378   3.802  0.2838 -0.0464  0.7756
 1662SOL     MW 6648   1.736   2.356   3.790  0.4062 -0.2533  0.2727
 1663SOL     OW 6649   3.793   4.422   0.095 -0.2851 -0.3386  0.2355
 1663SOL    HW1 6650   3.719   4.362   0.091 -1.6100  1.2952 -0.8406
 1663SOL    HW2 6651   3.755   4.509   0.086  1.8855  0.4925 -2.4258
 1663SOL     MW 6652   3.779   4.426   0.093 -0.1768 -0.0231 -0.2430
 1664SOL     OW 6653   1.204   1.245   0.837 -0.2353 -0.6355 -0.1327
 1664SOL    HW1 6654   1.157   1.256   0.755  0.7722  1.6495 -0.4915
 1664SOL    HW2 6655   1.139   1.213   0.899 -1.4143 -0.7794 -1.4184
 1664SOL     MW 6656   1.190   1.243   0.835 -0.2573 -0.3614 -0.3432
 1665SOL     OW 6657   2.455   1.576   0.593 -0.0142 -0.0926  0.3050
 1665SOL    HW1 6658   2.369   1.619   0.599  0.3931  0.6358  1.0039
 1665SOL    HW2 6659   2.476   1.581   0.499 -0.9964 -0.8197  0.0250
 1665SOL     MW 6660   2.447   1.582   0.581 -0.0878 -0.0925  0.3586
 1666SOL     OW 6661   1.378   1.927   1.892  0.1677  0.2322 -0.0838
 1666SOL    HW1 6662   1.352   2.010   1.854  0.0937 -0.2934 -1.2167
 1666SOL    HW2 6663   1.298   1.893   1.934 -0.1129  0.1735 -0.6612
 1666SOL     MW 6664   1.364   1.933   1.893  0.1223  0.1574 -0.3027
 1667SOL     OW 6665   2.420   1.803   0.018 -0.3101  0.2787 -0.1571
 1667SOL    HW1 6666   2.505   1.843   0.040 -0.1714 -0.5837  1.0336
 1667SOL    HW2 6667   2.417   1.724   0.073 -2.0308  0.4661  0.0613
 1667SOL     MW 6668   2.431   1.798   0.028 -0.5126  0.1923  0.0233
 1668SOL     OW 6669   2.705   4.921   2.098 -0.2661 -0.1400  0.0204
 1668SOL    HW1 6670   2.618   4.940   2.134  0.0786  0.4248  0.5685
 1668SOL    HW2 6671   2.726   4.834   2.133 -1.0792 -0.7773 -1.0321
 1668SOL     MW 6672   2.697   4.912   2.107 -0.3260 -0.1493 -0.0442
 1669SOL     OW 6673   0.886   3.715   3.435 -0.0322  0.4421 -0.1126
 1669SOL    HW1 6674   0.918   3.730   3.346  0.9475 -0.3947  0.0806
 1669SOL    HW2 6675   0.923   3.788   3.485  1.3023 -0.3071  0.0317
 1669SOL     MW 6676   0.895   3.726   3.430  0.2641  0.2391 -0.0694
 1670SOL     OW 6677   4.068   0.488   2.654  0.6047  0.2370 -0.3757
 1670SOL    HW1 6678   4.162   0.472   2.665  0.7629  1.6342  0.5664
 1670SOL    HW2 6679   4.063   0.561   2.592  0.0950 -0.4168 -1.1197
 1670SOL     MW 6680   4.079   0.496   2.647  0.5597  0.3321 -0.3503
 1671SOL     OW 6681   4.753   2.507   5.303 -0.4625 -0.2772 -0.2539
 1671SOL    HW1 6682   4.793   2.593   5.293 -0.4342 -0.2362  0.1798
 1671SOL    HW2 6683   4.723   2.505   5.394  0.3648 -1.0805  0.0219
 1671SOL     MW 6684   4.754   2.518   5.313 -0.3529 -0.3748 -0.1631
 1672SOL     OW 6685   1.965   2.804   3.878 -0.5313 -0.3481  0.6102
 1672SOL    HW1 6686   1.998   2.824   3.965  0.6295  1.1082 -0.0944
 1672SOL    HW2 6687   1.927   2.716   3.885 -1.9653  0.3624  2.9404
 1672SOL     MW 6688   1.964   2.795   3.890 -0.5663 -0.0707  0.8183
 1673SOL     OW 6689   1.429   2.783   0.623 -0.5589  0.5230  0.2511
 1673SOL    HW1 6690   1.521   2.794   0.598 -0.8688  3.6545  0.0879
 1673SOL    HW2 6691   1.380   2.790   0.541 -1.0337  0.5620  0.5309
 1673SOL     MW 6692   1.434   2.786   0.609 -0.6593  0.9289  0.2661
 1674SOL     OW 6693   3.402   5.251   0.360  0.2163  0.1068  0.6102
 1674SOL    HW1 6694   3.486   5.250   0.315 -0.8918  2.1230 -1.7564
 1674SOL    HW2 6695   3.416   5.308   0.436  0.9983  0.4127  0.2424
 1674SOL     MW 6696   3.414   5.258   0.364  0.1745  0.4041  0.2602
 1675SOL     OW 6697   2.343   1.556   0.143 -0.0976  0.4050  0.3020
 1675SOL    HW1 6698   2.360   1.507   0.063  0.8843  2.0705 -0.5636
 1675SOL    HW2 6699   2.322   1.489   0.208  0.4923 -1.0986 -0.9874
 1675SOL     MW 6700   2.343   1.541   0.141  0.1036  0.4258  0.0261
 1676SOL     OW 6701   4.229   3.278   0.266 -0.2845 -0.0741  0.2573
 1676SOL    HW1 6702   4.191   3.327   0.193  0.8672  0.8074  0.2182
 1676SOL    HW2 6703   4.162   3.213   0.289 -0.9075  0.0258 -1.1767
 1676SOL     MW 6704   4.215   3.276   0.260 -0.2168  0.0515  0.0687
 1677SOL     OW 6705   0.959   0.129   3.684 -0.1482 -0.0489 -0.2212
 1677SOL    HW1 6706   0.902   0.108   3.759  0.0099 -0.3431 -0.1801
 1677SOL    HW2 6707   1.044   0.150   3.724 -0.2877  0.6314 -0.2664
 1677SOL     MW 6708   0.963   0.129   3.699 -0.1458  0.0005 -0.2217
 1678SOL     OW 6709   2.537   0.449   4.486  0.3110  0.1643  0.0493
 1678SOL    HW1 6710   2.498   0.482   4.405 -0.9626 -1.5037 -0.0693
 1678SOL    HW2 6711   2.463   0.443   4.547  0.8776 -0.5408  0.6815
 1678SOL     MW 6712   2.522   0.452   4.484  0.2205 -0.1395  0.1150
 1679SOL     OW 6713   2.580   5.337   0.525 -0.3256 -0.0013 -0.1810
 1679SOL    HW1 6714   2.626   5.300   0.601  1.2849  0.8038 -0.7138
 1679SOL    HW2 6715   2.588   5.431   0.536 -2.5419  0.2056  0.0695
 1679SOL     MW 6716   2.587   5.344   0.536 -0.4032  0.1282 -0.2171
 1680SOL     OW 6717   2.322   4.640   3.244  0.1068  0.3132 -0.1438
 1680SOL    HW1 6718   2.228   4.626   3.231  0.1357 -0.7813  0.7353
 1680SOL    HW2 6719   2.364   4.581   3.180  0.2155  1.4114 -1.1217
 1680SOL     MW 6720   2.316   4.631   3.234  0.1244  0.3137 -0.1564
 1681SOL     OW 6721   0.214   3.878   1.218 -0.4225 -0.6575  0.2181
 1681SOL    HW1 6722   0.171   3.843   1.296 -0.3453 -2.2561 -0.4197
 1681SOL    HW2 6723   0.287   3.819   1.203  0.3443  0.4000 -0.3294
 1681SOL     MW 6724   0.218   3.866   1.226 -0.3145 -0.7268  0.0664
 1682SOL     OW 6725   0.852   4.442   4.554  0.0351  0.1794  0.1787
 1682SOL    HW1 6726   0.796   4.453   4.477  0.9283  0.5780 -0.4270
 1682SOL    HW2 6727   0.893   4.356   4.542  0.4305  0.3840  0.0251
 1682SOL     MW 6728   0.850   4.432   4.542  0.2000  0.2566  0.0815
 1683SOL     OW 6729   1.227   4.180   0.655  0.2777  0.2074 -1.4195
 1683SOL    HW1 6730   1.132   4.179   0.662  0.3820  0.6673  0.7306
 1683SOL    HW2 6731   1.251   4.090   0.632 -0.5163 -1.0030  1.9594
 1683SOL     MW 6732   1.218   4.168   0.653  0.1894  0.1114 -0.7117
 1684SOL     OW 6733   2.484   3.796   5.261  0.3944  0.8391 -0.0076
 1684SOL    HW1 6734   2.418   3.742   5.216  0.0623  0.9862  0.3040
 1684SOL    HW2 6735   2.499   3.869   5.202  1.8869 -0.2890 -1.1111
 1684SOL     MW 6736   2.478   3.798   5.248  0.5429  0.7135 -0.1089
 1685SOL     OW 6737   2.366   0.186   2.965 -0.3026  0.2976  0.1162
 1685SOL    HW1 6738   2.370   0.113   2.902 -1.0979  1.0097 -0.7844
 1685SOL    HW2 6739   2.302   0.157   3.030 -0.7093  0.2354 -0.3055
 1685SOL     MW 6740   2.358   0.173   2.965 -0.4565  0.3808 -0.0531
 1686SOL     OW 6741   4.575   2.783   0.777 -0.2853  0.3205  0.1326
 1686SOL    HW1 6742   4.582   2.871   0.812  0.4478  0.1159  0.5148
 1686SOL    HW2 6743   4.481   2.770   0.763 -0.4107  1.0848  0.2599
 1686SOL     MW 6744   4.564   2.792   0.780 -0.2075  0.3922  0.1978
 1687SOL     OW 6745   1.502   4.610   1.286  0.0288  0.4085  0.3548
 1687SOL    HW1 6746   1.560   4.557   1.232  0.3897 -0.0520  1.1689
 1687SOL    HW2 6747   1.414   4.586   1.258  0.1257  2.7781 -2.5228
 1687SOL     MW 6748   1.498   4.600   1.276  0.0874  0.6529  0.0907
 1688SOL     OW 6749   0.971   1.325   4.352  0.1623 -0.1225  0.1977
 1688SOL    HW1 6750   1.067   1.324   4.358  0.1922 -0.7420 -0.3271
 1688SOL    HW2 6751   0.944   1.390   4.417  0.9426  0.1167  0.2952
 1688SOL     MW 6752   0.980   1.333   4.361  0.2660 -0.1712  0.1430
 1689SOL     OW 6753   4.935   4.645   1.117 -0.1718  0.0902  0.1770
 1689SOL    HW1 6754   4.932   4.581   1.188 -0.0112 -0.7466 -0.5596
 1689SOL    HW2 6755   5.028   4.656   1.099  0.0028  2.5385  2.0482
 1689SOL     MW 6756   4.946   4.638   1.124 -0.1289  0.2965  0.3222
 1690SOL     OW 6757   4.530   1.545   4.886  0.0657 -0.0973 -0.2973
 1690SOL    HW1 6758   4.593   1.477   4.909  0.8244  1.0528  1.3137
 1690SOL    HW2 6759   4.492   1.571   4.970 -1.4197  0.3322 -1.0642
 1690SOL     MW 6760   4.533   1.540   4.900 -0.0273  0.1049 -0.1892
 1691SOL     OW 6761   2.897   1.566   0.740  0.0758 -0.7119 -0.0490
 1691SOL    HW1 6762   2.940   1.586   0.823 -0.9178 -0.6409  0.4683
 1691SOL    HW2 6763   2.819   1.621   0.740 -0.1482 -1.0167 -0.8461
 1691SOL     MW 6764   2.892   1.576   0.751 -0.0801 -0.7418 -0.0848
 1692SOL     OW 6765   1.723   4.274   0.902  0.4573 -0.9415 -0.0047
 1692SOL    HW1 6766   1.747   4.242   0.989 -1.8952  1.5343  1.7178
 1692SOL    HW2 6767   1.794   4.334   0.879  1.1649 -1.7121  0.0717
 1692SOL     MW 6768   1.735   4.277   0.910  0.2467 -0.7232  0.2256
 1693SOL     OW 6769   0.696   0.835   4.660  0.1797  0.3753 -0.0748
 1693SOL    HW1 6770   0.617   0.810   4.707 -0.1908 -0.7927 -1.2410
 1693SOL    HW2 6771   0.767   0.794   4.709 -0.0520  0.4191  0.2988
 1693SOL     MW 6772   0.695   0.826   4.672  0.1026  0.2314 -0.1762
 1694SOL     OW 6773   2.345   0.438   2.850  0.6168 -0.4683  0.4087
 1694SOL    HW1 6774   2.303   0.389   2.780 -0.2841  0.6428  0.1482
 1694SOL    HW2 6775   2.367   0.372   2.916 -1.0911 -1.1598  0.3260
 1694SOL     MW 6776   2.342   0.424   2.850  0.2829 -0.4146  0.3648
 1695SOL     OW 6777   2.174   3.498   2.226  0.0969 -0.1485 -0.2427
 1695SOL    HW1 6778   2.265   3.509   2.201 -0.3270  0.7506 -1.4558
 1695SOL    HW2 6779   2.177   3.472   2.318  1.5228  1.0823  0.0843
 1695SOL     MW 6780   2.186   3.496   2.235  0.2252  0.1242 -0.3562
 1696SOL     OW 6781   2.387   3.356   3.516 -0.1139  0.0062 -0.4528
 1696SOL    HW1 6782   2.294   3.375   3.505 -0.5379 -1.8688 -0.3998
 1696SOL    HW2 6783   2.401   3.359   3.611 -0.2988 -0.4824 -0.4097
 1696SOL     MW 6784   2.377   3.359   3.527 -0.1918 -0.2963 -0.4405
 1697SOL     OW 6785   4.500   3.046   1.698  0.5016 -0.3416 -0.1242
 1697SOL    HW1 6786   4.535   2.986   1.633  0.7305 -0.3210 -0.0239
 1697SOL    HW2 6787   4.576   3.098   1.725 -0.0240  1.2879 -1.5802
 1697SOL     MW 6788   4.514   3.045   1.693  0.4636 -0.1304 -0.2977
 1698SOL     OW 6789   2.024   5.346   4.623 -0.1685 -0.5999 -0.6155
 1698SOL    HW1 6790   2.018   5.251   4.633 -3.0966 -0.4576 -0.1828
 1698SOL    HW2 6791   2.031   5.379   4.712  0.7795 -0.3745 -0.7624
 1698SOL     MW 6792   2.024   5.338   4.635 -0.4219 -0.5528 -0.5789
 1699SOL     OW 6793   3.258   1.018   0.870 -0.2965  0.2983  0.2880
 1699SOL    HW1 6794   3.196   0.976   0.929  1.3804  0.8710  2.6214
 1699SOL    HW2 6795   3.335   1.037   0.925  1.7062  0.2097 -2.2743
 1699SOL     MW 6796   3.260   1.015   0.885  0.1745  0.3603  0.2587
 1700SOL     OW 6797   1.407   5.387   1.786 -0.2677 -0.1255 -0.4105
 1700SOL    HW1 6798   1.366   5.302   1.770  1.9211 -1.5171  0.8731
 1700SOL    HW2 6799   1.429   5.421   1.699 -1.9859 -0.4033 -0.9767
 1700SOL     MW 6800   1.405   5.381   1.773 -0.2075 -0.3392 -0.3187
 1701SOL     OW 6801   4.419   0.415   0.277  0.2631 -0.2095  0.1045
 1701SOL    HW1 6802   4.370   0.384   0.353  1.3452 -0.0496  0.8926
 1701SOL    HW2 6803   4.352   0.450   0.217 -0.5037  1.1051  1.6529
 1701SOL     MW 6804   4.404   0.416   0.279  0.3035 -0.0208  0.4036
 1702SOL     OW 6805   1.967   0.407   1.944  0.3251 -0.1989 -0.1300
 1702SOL    HW1 6806   1.951   0.445   2.031  0.8535  0.6516 -0.3943
 1702SOL    HW2 6807   1.891   0.351   1.929  1.0845 -1.8114  1.6537
 1702SOL     MW 6808   1.955   0.405   1.953  0.4899 -0.2965  0.0645
 1703SOL     OW 6809   4.125   4.244   4.171 -0.0458 -0.3602  0.6433
 1703SOL    HW1 6810   4.099   4.336   4.161  2.3743  0.2841 -0.5454
 1703SOL    HW2 6811   4.098   4.220   4.260  1.8417  2.4559  2.1217
 1703SOL     MW 6812   4.119   4.253   4.181  0.5056  0.0828  0.6804
 1704SOL     OW 6813   0.661   1.145   5.371  0.3722  0.6462 -0.0623
 1704SOL    HW1 6814   0.696   1.102   5.448  0.1441  0.0346 -0.2908
 1704SOL    HW2 6815   0.670   1.080   5.301  0.5347  1.1740 -0.5414
 1704SOL     MW 6816   0.666   1.131   5.372  0.3638  0.6355 -0.1528
 1705SOL     OW 6817   2.529   5.394   1.757 -0.0222  0.3862  0.1745
 1705SOL    HW1 6818   2.590   5.468   1.753  1.7329 -0.7388  2.9568
 1705SOL    HW2 6819   2.572   5.326   1.705  0.6059 -0.0344  1.2037
 1705SOL     MW 6820   2.542   5.395   1.750  0.2829  0.1883  0.6625
 1706SOL     OW 6821   2.527   0.063   2.422 -0.4250 -0.1409 -0.8279
 1706SOL    HW1 6822   2.502   0.152   2.447  0.2868  0.1963 -1.2743
 1706SOL    HW2 6823   2.483   0.007   2.485 -0.2308  0.5730 -0.0387
 1706SOL     MW 6824   2.518   0.067   2.433 -0.3090 -0.0063 -0.7840
 1707SOL     OW 6825   2.792   0.416   2.784  0.2431  0.2411  0.0849
 1707SOL    HW1 6826   2.740   0.349   2.828 -0.9922  0.6281 -0.7141
 1707SOL    HW2 6827   2.858   0.367   2.735 -0.5102 -0.4015 -0.3195
 1707SOL     MW 6828   2.794   0.402   2.783 -0.0115  0.2084 -0.0692
 1708SOL     OW 6829   3.542   3.376   3.503 -1.2139 -0.1254 -0.4325
 1708SOL    HW1 6830   3.520   3.344   3.590 -2.6169 -1.0948 -1.1135
 1708SOL    HW2 6831   3.601   3.450   3.519  0.9360 -2.0418  1.2489
 1708SOL     MW 6832   3.547   3.381   3.516 -1.1183 -0.4948 -0.3045
 1709SOL     OW 6833   2.475   0.237   0.736  0.0342  0.4196  0.1372
 1709SOL    HW1 6834   2.510   0.227   0.824 -0.9772  1.2373  0.6573
 1709SOL    HW2 6835   2.399   0.178   0.733  0.5464 -0.2143 -0.4646
 1709SOL     MW 6836   2.469   0.229   0.747 -0.0297  0.4431  0.1267
 1710SOL     OW 6837   2.422   1.350   4.861 -0.1763 -0.0274  0.1089
 1710SOL    HW1 6838   2.506   1.382   4.829  0.3829  0.3916  1.8836
 1710SOL    HW2 6839   2.381   1.308   4.784  1.2496  0.5255 -0.9958
 1710SOL     MW 6840   2.427   1.349   4.847  0.0778  0.0970  0.1947
 1711SOL     OW 6841   4.461   2.730   3.832 -0.0233 -0.1553 -0.1200
 1711SOL    HW1 6842   4.516   2.787   3.779  0.4304 -0.0808  0.4213
 1711SOL    HW2 6843   4.431   2.786   3.904  0.2175 -0.5314  0.2754
 1711SOL     MW 6844   4.464   2.745   3.834  0.0656 -0.1939 -0.0001
 1712SOL     OW 6845   3.868   3.433   3.383  0.3129  0.0954  0.6518
 1712SOL    HW1 6846   3.849   3.503   3.445  2.0005 -0.7489  2.2194
 1712SOL    HW2 6847   3.851   3.352   3.431  1.1488 -0.5913 -0.1641
 1712SOL     MW 6848   3.863   3.431   3.397  0.6360 -0.1006  0.7480
 1713SOL     OW 6849   0.401   2.816   4.154  0.2362  0.4616  0.0648
 1713SOL    HW1 6850   0.350   2.809   4.074 -1.4823  0.4905  1.1044
 1713SOL    HW2 6851   0.430   2.907   4.157 -0.2805  0.6328 -0.1730
 1713SOL     MW 6852   0.398   2.826   4.144 -0.0499  0.4872  0.1674
 1714SOL     OW 6853   2.065   2.354   1.970 -0.2767 -0.4451  0.0854
 1714SOL    HW1 6854   2.094   2.267   1.998 -0.0633 -0.5406 -0.4225
 1714SOL    HW2 6855   1.986   2.370   2.021 -0.4988 -1.0779 -0.0457
 1714SOL     MW 6856   2.058   2.345   1.980 -0.2778 -0.5383  0.0036
 1715SOL     OW 6857   3.388   4.803   1.010 -0.1256 -0.5298  0.7566
 1715SOL    HW1 6858   3.308   4.827   0.963  0.2510 -0.6975  0.0081
 1715SOL    HW2 6859   3.458   4.851   0.964  0.4116 -1.6927  0.3221
 1715SOL     MW 6860   3.387   4.812   0.998 -0.0086 -0.7001  0.6052
 1716SOL     OW 6861   0.508   3.983   1.490  0.4052  0.6018 -0.2263
 1716SOL    HW1 6862   0.522   4.036   1.413  2.2573 -0.1891 -0.4827
 1716SOL    HW2 6863   0.443   4.031   1.542 -1.9923  0.4871 -2.8544
 1716SOL     MW 6864   0.501   3.996   1.487  0.3354  0.4859 -0.5955
 1717SOL     OW 6865   5.021   4.849   5.236 -0.7991 -0.3401 -0.2279
 1717SOL    HW1 6866   4.956   4.903   5.191 -1.9152  0.1385  1.8325
 1717SOL    HW2 6867   4.970   4.795   5.296  0.6358 -0.4630  0.9409
 1717SOL     MW 6868   5.006   4.849   5.238 -0.7583 -0.2946  0.1855
 1718SOL     OW 6869   0.282   4.310   2.782  0.5345  0.1180  0.0136
 1718SOL    HW1 6870   0.323   4.373   2.841  0.2813 -0.7369  1.1402
 1718SOL    HW2 6871   0.326   4.227   2.800 -1.3274 -0.7418  0.9626
 1718SOL     MW 6872   0.293   4.307   2.792  0.2637 -0.1015  0.2793
 1719SOL     OW 6873   3.442   5.358   4.626 -0.0108 -0.1244  0.1452
 1719SOL    HW1 6874   3.530   5.380   4.599 -0.1414 -0.3570 -0.4852
 1719SOL    HW2 6875   3.414   5.291   4.564 -0.9091  0.4885 -0.1308
 1719SOL     MW 6876   3.449   5.352   4.615 -0.1425 -0.0757  0.0292
 1720SOL     OW 6877   4.665   1.336   1.760 -0.3486 -0.3466 -0.0782
 1720SOL    HW1 6878   4.712   1.257   1.786  0.3422  0.2698  0.5572
 1720SOL    HW2 6879   4.619   1.310   1.680  1.7885 -0.7260 -1.2601
 1720SOL     MW 6880   4.665   1.322   1.753  0.0134 -0.3162 -0.1481
 1721SOL     OW 6881   2.218   0.770   3.086  0.2965 -0.3370  0.0788
 1721SOL    HW1 6882   2.126   0.762   3.060  0.4208  0.4857 -0.6444
 1721SOL    HW2 6883   2.232   0.697   3.147 -1.0967  0.1168  0.9764
 1721SOL     MW 6884   2.208   0.759   3.090  0.1341 -0.1736  0.1012
 1722SOL     OW 6885   0.466   5.111   2.263  0.2329 -0.3126 -0.0040
 1722SOL    HW1 6886   0.520   5.182   2.299  2.2331 -0.6637 -2.0811
 1722SOL    HW2 6887   0.500   5.097   2.175 -2.6487 -1.3218 -1.0718
 1722SOL     MW 6888   0.477   5.118   2.257  0.1200 -0.4867 -0.4066
 1723SOL     OW 6889   0.275   2.585   5.062 -0.9430  0.0894  0.0393
 1723SOL    HW1 6890   0.198   2.623   5.020 -0.8629 -0.6589 -0.8046
 1723SOL    HW2 6891   0.275   2.494   5.035  1.0265  0.3825 -1.1709
 1723SOL     MW 6892   0.265   2.578   5.054 -0.6807  0.0312 -0.2237
 1724SOL     OW 6893   4.239   4.507   4.716 -0.0687 -0.2634 -0.3185
 1724SOL    HW1 6894   4.285   4.429   4.685  0.0827 -1.2125  2.0931
 1724SOL    HW2 6895   4.147   4.480   4.722 -0.5818  0.7783 -2.4558
 1724SOL     MW 6896   4.233   4.494   4.713 -0.1150 -0.2516 -0.2834
 1725SOL     OW 6897   4.674   2.245   1.160 -0.0364 -0.4171  0.3531
 1725SOL    HW1 6898   4.675   2.182   1.232 -2.0637 -0.8305  0.0654
 1725SOL    HW2 6899   4.667   2.191   1.082 -1.4815  0.1165  0.0836
 1725SOL     MW 6900   4.673   2.230   1.159 -0.4809 -0.4017  0.2818
 1726SOL     OW 6901   1.943  -0.004   3.827 -0.4745 -0.3927 -0.2352
 1726SOL    HW1 6902   1.938   0.092   3.830  1.5053 -0.2772  1.1673
 1726SOL    HW2 6903   1.863  -0.034   3.871 -0.7466  0.6170 -0.0118
 1726SOL     MW 6904   1.932   0.004   3.833 -0.2559 -0.2487 -0.0271
 1727SOL     OW 6905   1.328   5.012   0.871  0.4738 -0.1526  0.3011
 1727SOL    HW1 6906   1.241   5.052   0.867  0.0335 -1.1008  0.2051
 1727SOL    HW2 6907   1.324   4.939   0.809  1.8256  0.6924 -0.8254
 1727SOL     MW 6908   1.316   5.008   0.863  0.5905 -0.1658  0.1446
 1728SOL     OW 6909   3.157   2.490   2.395 -0.2542 -0.2083 -0.0698
 1728SOL    HW1 6910   3.235   2.437   2.414 -1.3917 -1.0912  2.6722
 1728SOL    HW2 6911   3.180   2.537   2.315  2.3015 -1.9354 -0.5087
 1728SOL     MW 6912   3.170   2.489   2.387 -0.0726 -0.5424  0.2250
 1729SOL     OW 6913   1.033   2.403   3.046 -0.0515 -0.1638 -0.7259
 1729SOL    HW1 6914   1.046   2.490   3.085 -0.3405 -0.6895  0.6193
 1729SOL    HW2 6915   0.964   2.416   2.982  0.2529  0.6956 -0.9028
 1729SOL     MW 6916   1.026   2.416   3.043 -0.0496 -0.1211 -0.5764
 1730SOL     OW 6917   4.319   1.149   1.644  0.3805 -0.1662  0.4483
 1730SOL    HW1 6918   4.384   1.110   1.703 -0.0051  0.6179  1.4337
 1730SOL    HW2 6919   4.236   1.141   1.691 -0.0257 -0.0029 -0.2319
 1730SOL     MW 6920   4.317   1.143   1.658  0.2791 -0.0449  0.4874
 1731SOL     OW 6921   1.133   4.141   0.285  0.2898 -0.1969 -0.6224
 1731SOL    HW1 6922   1.130   4.057   0.331  0.9358  0.3803  0.5116
 1731SOL    HW2 6923   1.222   4.173   0.299  0.4727  0.0743 -2.1777
 1731SOL     MW 6924   1.144   4.134   0.292  0.3959 -0.0883 -0.6763
 1732SOL     OW 6925   1.721   4.696   4.195  0.3702  0.4859 -0.1116
 1732SOL    HW1 6926   1.749   4.604   4.202 -1.5545 -0.1676 -0.2898
 1732SOL    HW2 6927   1.718   4.727   4.286  0.7691  0.2964 -0.0304
 1732SOL     MW 6928   1.724   4.688   4.208  0.1749  0.3780 -0.1240
 1733SOL     OW 6929   2.414   1.300   0.635 -0.0454  0.0359 -0.6220
 1733SOL    HW1 6930   2.503   1.264   0.638  0.6879  1.7795 -0.1210
 1733SOL    HW2 6931   2.427   1.392   0.611 -1.7550  0.2151 -0.9291
 1733SOL     MW 6932   2.427   1.307   0.632 -0.1704  0.2821 -0.5971
 1734SOL     OW 6933   4.249   1.020   2.611 -0.3993 -0.2176  0.1023
 1734SOL    HW1 6934   4.162   1.057   2.626  0.1961 -0.1485  4.9585
 1734SOL    HW2 6935   4.245   0.933   2.651  1.6814 -0.3140  0.2048
 1734SOL     MW 6936   4.237   1.013   2.618 -0.0568 -0.2211  0.7371
 1735SOL     OW 6937   2.784   4.532   1.362  0.3090 -0.1743  0.1723
 1735SOL    HW1 6938   2.753   4.621   1.345  1.8547  0.6391  1.3526
 1735SOL    HW2 6939   2.854   4.518   1.298  1.4215  0.2567  1.2565
 1735SOL     MW 6940   2.789   4.541   1.352  0.6493 -0.0150  0.4622
 1736SOL     OW 6941   0.042   1.305   4.896  0.6269  0.1466  0.1943
 1736SOL    HW1 6942   0.024   1.211   4.899 -1.0470  0.4393  0.5568
 1736SOL    HW2 6943  -0.016   1.339   4.827 -0.1258  1.1510  1.2784
 1736SOL     MW 6944   0.032   1.298   4.888  0.3163  0.3126  0.3795
 1737SOL     OW 6945   1.772   3.541   1.424  0.0043  0.4182  0.1913
 1737SOL    HW1 6946   1.839   3.509   1.485 -0.1853 -0.6097 -0.1129
 1737SOL    HW2 6947   1.776   3.479   1.351 -1.6613 -0.0067  0.4299
 1737SOL     MW 6948   1.781   3.529   1.423 -0.2332  0.2322  0.1829
 1738SOL     OW 6949   3.716   4.727   2.606 -0.0091 -0.0855  0.3886
 1738SOL    HW1 6950   3.806   4.693   2.609 -0.1912 -0.4860  1.9398
 1738SOL    HW2 6951   3.717   4.803   2.665 -0.7968 -0.3726  0.7788
 1738SOL     MW 6952   3.728   4.733   2.614 -0.1333 -0.1735  0.6372
 1739SOL     OW 6953   2.444   1.144   5.493  0.2203  0.5611  0.3321
 1739SOL    HW1 6954   2.421   1.233   5.466 -0.0798  0.6421  0.8430
 1739SOL    HW2 6955   2.423   1.090   5.417 -0.1606  0.8497  0.2296
 1739SOL     MW 6956   2.438   1.148   5.480  0.1331  0.6084  0.3844
 1740SOL     OW 6957   0.912   1.755   2.787 -0.1154 -0.6715 -0.3662
 1740SOL    HW1 6958   0.925   1.843   2.823  0.4027 -2.1066  3.3468
 1740SOL    HW2 6959   1.000   1.717   2.785 -0.1407 -0.8093 -3.1498
 1740SOL     MW 6960   0.925   1.761   2.791 -0.0524 -0.8728 -0.2473
 1741SOL     OW 6961   0.593   2.272   3.592 -0.0885 -0.6837 -0.3210
 1741SOL    HW1 6962   0.640   2.312   3.519 -0.1096 -0.6470 -0.3143
 1741SOL    HW2 6963   0.540   2.203   3.552 -0.5541 -0.2728 -0.4176
 1741SOL     MW 6964   0.592   2.268   3.578 -0.1508 -0.6264 -0.3325
 1742SOL     OW 6965   3.753   1.185   1.877  0.2341 -0.3549 -0.2460
 1742SOL    HW1 6966   3.809   1.172   1.954  1.0429 -0.0810 -0.7747
 1742SOL    HW2 6967   3.700   1.261   1.899 -0.6845 -1.2154  0.6716
 1742SOL     MW 6968   3.754   1.193   1.890  0.2200 -0.4300 -0.1962
 1743SOL     OW 6969   5.118   2.856   2.842  0.0596 -0.5142  0.1483
 1743SOL    HW1 6970   5.076   2.791   2.787  2.6031 -1.4873 -0.7767
 1743SOL    HW2 6971   5.111   2.938   2.793 -1.2163 -0.5031  0.3093
 1743SOL     MW 6972   5.112   2.858   2.829  0.2218 -0.6373  0.0505
 1744SOL     OW 6973   2.307   2.602   0.954 -0.1423  0.8245 -0.2284
 1744SOL    HW1 6974   2.256   2.550   1.017  0.4205 -1.6096 -1.6569
 1744SOL    HW2 6975   2.297   2.556   0.871  3.5527  0.7599 -0.7851
 1744SOL     MW 6976   2.299   2.589   0.952  0.4027  0.5047 -0.4826
 1745SOL     OW 6977   3.474   4.810   2.980 -0.0713  0.2512 -0.7939
 1745SOL    HW1 6978   3.477   4.817   3.076 -0.8742 -2.4514 -0.4932
 1745SOL    HW2 6979   3.415   4.737   2.963 -0.0463  0.7488 -3.3899
 1745SOL     MW 6980   3.467   4.801   2.990 -0.1709 -0.0311 -1.0877
 1746SOL     OW 6981   3.582   4.541   3.294  0.2362  0.7302  0.0819
 1746SOL    HW1 6982   3.591   4.497   3.209 -1.0595  1.6029 -0.5365
 1746SOL    HW2 6983   3.579   4.634   3.273 -2.6805  0.8721  0.7798
 1746SOL     MW 6984   3.583   4.547   3.280 -0.3030  0.8601  0.0921
 1747SOL     OW 6985   2.206   5.288   0.335  0.0734  0.8097 -0.0921
 1747SOL    HW1 6986   2.158   5.307   0.254  0.1624 -0.3231 -0.4252
 1747SOL    HW2 6987   2.296   5.275   0.306  0.0664  0.1872  0.1542
 1747SOL     MW 6988   2.211   5.289   0.321  0.0839  0.5850 -0.1032
 1748SOL     OW 6989   1.201   2.955   0.255 -0.0005  0.3132  0.2393
 1748SOL    HW1 6990   1.106   2.969   0.257 -0.0228  0.9852 -2.0156
 1748SOL    HW2 6991   1.235   3.012   0.324 -1.1287  1.4732 -0.1108
 1748SOL     MW 6992   1.193   2.964   0.264 -0.1478  0.5477 -0.0942
 1749SOL     OW 6993   0.959   3.411   4.009  0.2186 -0.0550  0.6180
 1749SOL    HW1 6994   1.045   3.448   3.988  0.4981 -0.0469  1.7225
 1749SOL    HW2 6995   0.957   3.329   3.960  0.7444  0.0733  0.3646
 1749SOL     MW 6996   0.970   3.405   4.000  0.3217 -0.0375  0.7269
 1750SOL     OW 6997   0.980   4.726   1.008  0.0171 -0.2014 -0.3425
 1750SOL    HW1 6998   0.944   4.683   1.086  0.0469  1.6597  0.7416
 1750SOL    HW2 6999   1.040   4.792   1.042  0.3011  0.4168 -1.9646
 1750SOL     MW 7000   0.983   4.729   1.023  0.0573  0.1160 -0.4114
 1751SOL     OW 7001   0.369   3.423   0.745  0.1759  0.5276 -0.0778
 1751SOL    HW1 7002   0.461   3.422   0.773  0.1723 -1.2204 -0.0386
 1751SOL    HW2 7003   0.364   3.357   0.676 -0.8981  1.1592 -0.6187
 1751SOL     MW 7004   0.381   3.414   0.740  0.0379  0.3847 -0.1420
 1752SOL     OW 7005   3.046   0.790   4.291 -0.8469 -0.1304  0.4020
 1752SOL    HW1 7006   2.989   0.715   4.307 -1.0590 -0.1996 -0.6131
 1752SOL    HW2 7007   3.130   0.752   4.268 -1.4630 -0.1456 -2.0711
 1752SOL     MW 7008   3.049   0.776   4.290 -0.9529 -0.1412 -0.0445
 1753SOL     OW 7009   0.221   1.641   4.847 -0.1242  0.1611 -0.0051
 1753SOL    HW1 7010   0.307   1.669   4.817  0.8749  0.4101  2.8327
 1753SOL    HW2 7011   0.238   1.591   4.927 -2.6313  0.6404  0.9144
 1753SOL     MW 7012   0.234   1.638   4.854 -0.3172  0.2543  0.4758
 1754SOL     OW 7013   0.675   0.127   1.502  0.0008  0.0104  0.4240
 1754SOL    HW1 7014   0.673   0.091   1.590  1.5468 -2.6878 -0.5084
 1754SOL    HW2 7015   0.764   0.162   1.492 -0.1390  0.2391 -0.0784
 1754SOL     MW 7016   0.686   0.127   1.512  0.1808 -0.3057  0.2403
 1755SOL     OW 7017   2.998   3.389   5.282 -0.3280  0.2318 -0.1528
 1755SOL    HW1 7018   2.986   3.346   5.367  2.1171 -0.0913  0.0806
 1755SOL    HW2 7019   2.915   3.374   5.237 -0.7005 -2.0209  1.1126
 1755SOL     MW 7020   2.986   3.381   5.287 -0.0627 -0.0980  0.0391
 1756SOL     OW 7021   1.256   5.166   3.826  0.3983 -0.0431 -0.2204
 1756SOL    HW1 7022   1.170   5.162   3.785  0.0257  2.4196  0.1599
 1756SOL    HW2 7023   1.317   5.178   3.753  0.1798  0.3206 -0.3449
 1756SOL     MW 7024   1.253   5.167   3.812  0.3226  0.3187 -0.1876
 1757SOL     OW 7025   3.551   2.598   3.642 -0.1429 -0.1008  0.0991
 1757SOL    HW1 7026   3.552   2.505   3.620 -1.5587  0.2925 -1.9701
 1757SOL    HW2 7027   3.641   2.628   3.624 -0.2295 -0.6582 -1.3759
 1757SOL     MW 7028   3.563   2.590   3.637 -0.3352 -0.1218 -0.3546
 1758SOL     OW 7029   3.716   5.074   4.690 -0.5130  0.4019 -0.3725
 1758SOL    HW1 7030   3.806   5.045   4.700  0.5753  2.9209 -1.7479
 1758SOL    HW2 7031   3.701   5.132   4.765 -0.4026  1.1996 -0.9490
 1758SOL     MW 7032   3.726   5.078   4.701 -0.3596  0.8265 -0.6224
 1759SOL     OW 7033   3.528   4.290   3.445 -0.3433  0.8082 -0.0694
 1759SOL    HW1 7034   3.450   4.284   3.390 -0.5600  0.3304  0.2858
 1759SOL    HW2 7035   3.570   4.372   3.418 -0.4913  0.6274 -0.8843
 1759SOL     MW 7036   3.523   4.299   3.435 -0.3900  0.7239 -0.1282
 1760SOL     OW 7037   4.760   0.820   1.652 -0.3335 -0.2414 -0.4498
 1760SOL    HW1 7038   4.711   0.820   1.569 -0.1851 -2.0029 -0.5686
 1760SOL    HW2 7039   4.849   0.796   1.627 -0.0162  0.3146  0.1055
 1760SOL     MW 7040   4.765   0.817   1.638 -0.2739 -0.3957 -0.3939
 1761SOL     OW 7041   0.687   4.374   2.367  0.0270 -0.4284 -0.1669
 1761SOL    HW1 7042   0.709   4.322   2.444  0.9780  0.3341  0.0969
 1761SOL    HW2 7043   0.611   4.426   2.394  0.6048  0.1414  0.4248
 1761SOL     MW 7044   0.680   4.374   2.380  0.2227 -0.2578 -0.0573
 1762SOL     OW 7045   2.881   0.997   3.338 -0.0394 -0.0186 -0.5762
 1762SOL    HW1 7046   2.837   1.036   3.414  0.1544 -0.1444 -0.3960
 1762SOL    HW2 7047   2.889   1.068   3.275 -0.0384  0.1341 -0.4039
 1762SOL     MW 7048   2.877   1.011   3.340 -0.0145 -0.0151 -0.5311
 1763SOL     OW 7049   2.838   3.390   4.536 -0.9434 -0.7023 -0.3976
 1763SOL    HW1 7050   2.806   3.466   4.488 -0.1500 -1.6004 -2.4399
 1763SOL    HW2 7051   2.766   3.368   4.596 -2.5052 -0.2614 -2.0350
 1763SOL     MW 7052   2.824   3.397   4.538 -1.0418 -0.7608 -0.8686
 1764SOL     OW 7053   1.689   0.182   2.178 -0.1838 -0.3217 -0.3464
 1764SOL    HW1 7054   1.746   0.113   2.213 -0.3577  0.3679  1.3696
 1764SOL    HW2 7055   1.601   0.143   2.178 -0.1330 -0.4377 -0.3638
 1764SOL     MW 7056   1.685   0.168   2.182 -0.1996 -0.2483 -0.1289
 1765SOL     OW 7057   4.533   1.997   3.956 -0.3692 -0.0907  0.1743
 1765SOL    HW1 7058   4.438   1.988   3.943 -0.3559  0.1352 -0.0855
 1765SOL    HW2 7059   4.545   2.088   3.983 -0.1701  0.0407 -0.3374
 1765SOL     MW 7060   4.522   2.007   3.958 -0.3420 -0.0450  0.0755
 1766SOL     OW 7061   3.606   4.947   0.908  0.3790  0.5027  0.4966
 1766SOL    HW1 7062   3.608   5.030   0.955  0.9358  0.8574 -0.1392
 1766SOL    HW2 7063   3.667   4.891   0.957  0.5293  0.6899  0.5270
 1766SOL     MW 7064   3.614   4.950   0.921  0.4695  0.5721  0.4191
 1767SOL     OW 7065   5.015   1.278   1.862  0.1613 -0.7042  0.2136
 1767SOL    HW1 7066   5.014   1.284   1.957  1.9799  0.3113  0.1989
 1767SOL    HW2 7067   5.045   1.189   1.844 -0.2699 -0.9279  0.5726
 1767SOL     MW 7068   5.019   1.267   1.872  0.3389 -0.6028  0.2577
 1768SOL     OW 7069   4.776   3.984   0.233 -0.2856 -0.2149  0.4871
 1768SOL    HW1 7070   4.793   3.949   0.320 -1.6501 -0.2804  0.7398
 1768SOL    HW2 7071   4.857   4.031   0.210 -0.6022  1.5588  2.6395
 1768SOL     MW 7072   4.789   3.986   0.241 -0.5008  0.0038  0.7950
 1769SOL     OW 7073   0.370   1.675   2.144 -0.2011  0.2482  0.4852
 1769SOL    HW1 7074   0.441   1.631   2.192 -0.8494  0.4225  1.6436
 1769SOL    HW2 7075   0.291   1.627   2.168 -0.4461 -0.2071 -1.1318
 1769SOL     MW 7076   0.369   1.663   2.153 -0.3154  0.2122  0.4265
 1770SOL     OW 7077   5.112   2.119   1.385  0.4051 -0.0840 -0.6474
 1770SOL    HW1 7078   5.196   2.091   1.348  0.1616 -0.5213 -0.8852
 1770SOL    HW2 7079   5.046   2.078   1.328  0.0033  2.1273 -1.8767
 1770SOL     MW 7080   5.114   2.110   1.373  0.3225  0.1431 -0.8352
 1771SOL     OW 7081   4.866   2.386   2.755 -0.1667  0.3572 -0.1831
 1771SOL    HW1 7082   4.931   2.334   2.802  1.3366  1.0790 -1.3976
 1771SOL    HW2 7083   4.812   2.426   2.824 -0.2070 -1.3210  0.8037
 1771SOL     MW 7084   4.867   2.384   2.769  0.0206  0.2348 -0.2123
 1772SOL     OW 7085   0.072   0.954   2.122  0.0332  0.1039  0.6332
 1772SOL    HW1 7086   0.036   0.866   2.131  0.9309 -0.1683  1.7718
 1772SOL    HW2 7087   0.019   0.995   2.053  1.4243 -2.2360 -2.0137
 1772SOL     MW 7088   0.061   0.948   2.114  0.3262 -0.2305  0.4401
 1773SOL     OW 7089   2.329   3.100   2.110  0.2033 -0.2468  0.6475
 1773SOL    HW1 7090   2.339   3.184   2.066 -0.2549 -0.5398 -0.0354
 1773SOL    HW2 7091   2.269   3.117   2.182 -0.1718 -0.0664  0.2933
 1773SOL     MW 7092   2.323   3.113   2.113  0.0966 -0.2613  0.5147
 1774SOL     OW 7093   3.826   1.562   1.099 -0.0221 -0.3330 -0.4391
 1774SOL    HW1 7094   3.874   1.481   1.082  0.0157 -0.2374 -0.8047
 1774SOL    HW2 7095   3.854   1.622   1.030  1.9571  0.8966  1.3235
 1774SOL     MW 7096   3.836   1.559   1.088  0.2361 -0.1633 -0.2603
 1775SOL     OW 7097   3.025   0.094   2.446 -0.5343  0.1047  0.1492
 1775SOL    HW1 7098   3.056   0.070   2.533  1.7383 -0.5400 -0.7813
 1775SOL    HW2 7099   2.949   0.038   2.432 -0.9099  0.1803  1.6659
 1775SOL     MW 7100   3.019   0.084   2.455 -0.2915  0.0319  0.2242
 1776SOL     OW 7101   3.307   2.972   0.931  0.2706  0.4113 -0.2175
 1776SOL    HW1 7102   3.323   2.908   0.861  0.2916 -1.1367  1.1371
 1776SOL    HW2 7103   3.393   3.011   0.948  0.4860 -0.0042 -0.3318
 1776SOL     MW 7104   3.320   2.969   0.924  0.3008  0.1599 -0.0587
 1777SOL     OW 7105   1.152   2.572   4.801  0.2455  0.2911  0.1152
 1777SOL    HW1 7106   1.097   2.498   4.827  1.5209 -0.5709  0.4579
 1777SOL    HW2 7107   1.110   2.649   4.841 -1.0867 -0.2303 -0.2353
 1777SOL     MW 7108   1.139   2.573   4.809  0.2382  0.1140  0.1142
 1778SOL     OW 7109   2.617   2.258   1.128 -0.0842  0.4483  0.0314
 1778SOL    HW1 7110   2.558   2.236   1.199  2.5034 -1.0289  1.9142
 1778SOL    HW2 7111   2.598   2.193   1.060  1.0829 -1.8529  1.7395
 1778SOL     MW 7112   2.607   2.247   1.128  0.3965 -0.0354  0.4911
 1779SOL     OW 7113   1.978   0.282   3.759 -0.2125 -0.2428 -0.3339
 1779SOL    HW1 7114   1.932   0.350   3.709 -0.5093 -0.0606  0.1836
 1779SOL    HW2 7115   1.987   0.319   3.847  0.1372 -0.6402 -0.2014
 1779SOL     MW 7116   1.973   0.295   3.764 -0.2057 -0.2703 -0.2507
 1780SOL     OW 7117   1.569   1.956   2.597 -0.1517  0.2290 -0.6072
 1780SOL    HW1 7118   1.604   1.922   2.680 -1.1136 -1.4026 -0.8333
 1780SOL    HW2 7119   1.475   1.958   2.609 -0.2862  0.2189 -1.5651
 1780SOL     MW 7120   1.562   1.952   2.609 -0.2921  0.0189 -0.7588
 1781SOL     OW 7121   4.325   3.934   1.471  0.2546 -0.2967 -0.3593
 1781SOL    HW1 7122   4.242   3.929   1.423  0.8183  0.9571 -1.5220
 1781SOL    HW2 7123   4.318   4.013   1.524  0.3308 -0.7343  0.3230
 1781SOL     MW 7124   4.313   3.943   1.472  0.3365 -0.1922 -0.4208
 1782SOL     OW 7125   1.548   0.991   0.034  0.6484  0.3575  0.2759
 1782SOL    HW1 7126   1.621   1.053   0.040  0.3064  0.7196  0.7060
 1782SOL    HW2 7127   1.582   0.911   0.075  2.7908 -1.4271 -4.2515
 1782SOL     MW 7128   1.562   0.989   0.040  0.8789  0.1754 -0.2486
 1783SOL     OW 7129   1.659   0.119   5.018 -0.4191 -0.1774 -0.2663
 1783SOL    HW1 7130   1.752   0.137   5.030 -0.7140  0.0961  2.0539
 1783SOL    HW2 7131   1.650   0.027   5.042 -0.9028  0.1070  0.6850
 1783SOL     MW 7132   1.670   0.109   5.023 -0.5188 -0.1060  0.1525
 1784SOL     OW 7133   2.999   1.151   2.943 -0.7586 -0.3251  0.3554
 1784SOL    HW1 7134   2.988   1.156   2.848 -1.0426 -0.8299  0.3578
 1784SOL    HW2 7135   3.071   1.090   2.956 -1.5586 -1.2552  0.4957
 1784SOL     MW 7136   3.007   1.144   2.932 -0.8974 -0.5087  0.3737
 1785SOL     OW 7137   1.432   4.673   2.934  0.3682 -0.5155  0.0879
 1785SOL    HW1 7138   1.485   4.713   3.003 -1.9318  0.5363  1.3624
 1785SOL    HW2 7139   1.410   4.586   2.968 -1.5000  0.3243  1.2025
 1785SOL     MW 7140   1.436   4.667   2.947 -0.1654 -0.2733  0.3937
 1786SOL     OW 7141   0.489   0.517   2.794 -0.5702 -0.0514  0.4756
 1786SOL    HW1 7142   0.522   0.603   2.822  0.2801 -0.4927  0.8791
 1786SOL    HW2 7143   0.396   0.531   2.777 -0.3127  1.0845 -0.0440
 1786SOL     MW 7144   0.482   0.530   2.796 -0.4284  0.0375  0.4607
 1787SOL     OW 7145   1.463   2.463   3.521 -0.0616  0.1059  0.1451
 1787SOL    HW1 7146   1.416   2.459   3.605 -0.5594  3.0113  0.1217
 1787SOL    HW2 7147   1.436   2.384   3.475  0.0693 -1.4840  2.6194
 1787SOL     MW 7148   1.453   2.453   3.526 -0.1086  0.2743  0.4588
 1788SOL     OW 7149   5.067   2.768   5.218 -0.2617  0.2035 -0.5155
 1788SOL    HW1 7150   5.118   2.826   5.275 -1.4072  1.0265 -0.3089
 1788SOL    HW2 7151   5.133   2.728   5.161  0.5910  1.6303 -0.5927
 1788SOL     MW 7152   5.082   2.770   5.218 -0.2992  0.4915 -0.4989
 1789SOL     OW 7153   0.346   2.441   0.492  0.1400  0.5541  0.0425
 1789SOL    HW1 7154   0.438   2.462   0.506  0.2078  1.0310 -1.0529
 1789SOL    HW2 7155   0.327   2.373   0.557  1.6304 -0.5923 -0.6822
 1789SOL     MW 7156   0.355   2.435   0.502  0.3395  0.4684 -0.1905
 1790SOL     OW 7157   2.256   0.122   0.638 -0.0767  0.3320  0.0854
 1790SOL    HW1 7158   2.188   0.171   0.684 -0.3397  0.1808 -0.1432
 1790SOL    HW2 7159   2.258   0.159   0.550  2.1011  2.3156  0.8682
 1790SOL     MW 7160   2.248   0.133   0.633  0.1684  0.5665  0.1564
 1791SOL     OW 7161   1.889   4.114   3.730 -0.5217 -0.3221 -0.4055
 1791SOL    HW1 7162   1.947   4.106   3.806  0.7266  0.0580 -1.2721
 1791SOL    HW2 7163   1.875   4.209   3.721 -0.5706 -0.3577 -0.7100
 1791SOL     MW 7164   1.895   4.125   3.739 -0.3682 -0.2780 -0.5554
 1792SOL     OW 7165   4.734   3.812   4.805 -0.4763  0.6630 -0.5500
 1792SOL    HW1 7166   4.708   3.739   4.861 -1.7369  1.6157  0.1764
 1792SOL    HW2 7167   4.817   3.843   4.843 -1.6029  1.6717  1.2478
 1792SOL     MW 7168   4.741   3.807   4.817 -0.7819  0.9141 -0.2269
 1793SOL     OW 7169   0.471   2.347   1.761  0.0985 -0.3847  0.4902
 1793SOL    HW1 7170   0.395   2.336   1.704  1.1863 -1.5381 -0.8181
 1793SOL    HW2 7171   0.459   2.280   1.829 -0.5503  0.1308  0.9013
 1793SOL     MW 7172   0.459   2.337   1.762  0.1547 -0.4663  0.3753
 1794SOL     OW 7173   2.252   1.088   5.039 -0.0127 -0.2346  0.2950
 1794SOL    HW1 7174   2.181   1.136   4.995  1.1036  1.7521  0.5694
 1794SOL    HW2 7175   2.282   1.025   4.973 -0.5377  0.4523 -0.6284
 1794SOL     MW 7176   2.247   1.086   5.025  0.0630  0.1076  0.2119
 1795SOL     OW 7177   0.878   2.388   0.300 -0.0235  0.2546 -0.3760
 1795SOL    HW1 7178   0.811   2.407   0.234  0.3571  0.6526 -0.6492
 1795SOL    HW2 7179   0.955   2.364   0.249  0.4036  0.9886 -0.0782
 1795SOL     MW 7180   0.879   2.387   0.285  0.0799  0.3995 -0.3728
 1796SOL     OW 7181   4.286   2.037   2.655  0.1074 -0.2317  0.4369
 1796SOL    HW1 7182   4.229   2.098   2.609 -0.5559  0.6283  2.3236
 1796SOL    HW2 7183   4.347   2.092   2.704  0.5844 -1.1093  0.8568
 1796SOL     MW 7184   4.286   2.051   2.655  0.0835 -0.2340  0.7322
 1797SOL     OW 7185   0.907   5.056   0.327 -0.1654 -0.5236  0.1871
 1797SOL    HW1 7186   0.988   5.105   0.314 -0.0683 -0.0732  2.1889
 1797SOL    HW2 7187   0.925   4.970   0.289  0.7838 -0.0292 -0.5220
 1797SOL     MW 7188   0.919   5.051   0.320 -0.0315 -0.4027  0.3526
 1798SOL     OW 7189   3.459   5.203   3.371  0.6506  0.5316  0.4437
 1798SOL    HW1 7190   3.472   5.286   3.417 -0.4674  1.0973 -0.2043
 1798SOL    HW2 7191   3.528   5.145   3.405 -0.4800  0.6883  3.2685
 1798SOL     MW 7192   3.470   5.206   3.381  0.3627  0.6240  0.7224
 1799SOL     OW 7193   0.232   1.082   4.390 -0.2354 -0.4851  0.2151
 1799SOL    HW1 7194   0.166   1.065   4.458 -2.0058  0.6581 -1.1047
 1799SOL    HW2 7195   0.189   1.145   4.331  1.8256 -0.2145 -1.0850
 1799SOL     MW 7196   0.218   1.088   4.391 -0.1982 -0.3041 -0.1203
 1800SOL     OW 7197   5.169   4.226   0.733  0.3643  0.0486 -0.0852
 1800SOL    HW1 7198   5.090   4.227   0.788  1.1086  1.2993  0.9933
 1800SOL    HW2 7199   5.144   4.277   0.656  0.0202  0.1744  0.1047
 1800SOL     MW 7200   5.155   4.232   0.730  0.4155  0.2248  0.0772
 1801SOL     OW 7201   2.242   3.514   1.799 -0.5676  0.2526  0.0733
 1801SOL    HW1 7202   2.305   3.517   1.872 -0.5825  1.0894  0.0684
 1801SOL    HW2 7203   2.290   3.551   1.725 -1.3547  1.8704  0.3172
 1801SOL     MW 7204   2.256   3.519   1.799 -0.6702  0.5668  0.1039
 1802SOL     OW 7205   1.836   4.158   0.608  0.3040  0.0188 -0.3956
 1802SOL    HW1 7206   1.772   4.121   0.547  1.3610 -3.7513  0.5011
 1802SOL    HW2 7207   1.792   4.156   0.693  0.7220 -0.1572 -0.1777
 1802SOL     MW 7208   1.822   4.153   0.611  0.4928 -0.4863 -0.2529
 1803SOL     OW 7209   3.790   5.441   0.202 -0.3538  0.2947 -0.3062
 1803SOL    HW1 7210   3.881   5.423   0.178 -0.2368  0.7458 -0.2074
 1803SOL    HW2 7211   3.796   5.496   0.280 -0.7209 -0.3935  0.2283
 1803SOL     MW 7212   3.802   5.445   0.209 -0.3858  0.2643 -0.2252
 1804SOL     OW 7213   3.254   4.892   3.750 -0.0757 -0.3943 -0.2162
 1804SOL    HW1 7214   3.310   4.897   3.673 -0.0407 -0.4354 -0.1933
 1804SOL    HW2 7215   3.165   4.894   3.714 -0.0598 -0.9386 -0.2950
 1804SOL     MW 7216   3.250   4.892   3.735 -0.0692 -0.4692 -0.2234
 1805SOL     OW 7217   0.085   3.776   4.160 -0.2229  0.2268 -0.2164
 1805SOL    HW1 7218   0.102   3.722   4.237  0.1948 -0.2799 -0.6600
 1805SOL    HW2 7219   0.017   3.838   4.188  1.2111  1.2708  1.1108
 1805SOL     MW 7220   0.078   3.777   4.173  0.0142  0.2956 -0.1033
 1806SOL     OW 7221   5.272   1.214   4.700 -0.4866  0.1336  0.2437
 1806SOL    HW1 7222   5.345   1.183   4.645 -0.1157 -1.0608  1.3326
 1806SOL    HW2 7223   5.267   1.308   4.684  1.6306  0.3374  0.4657
 1806SOL     MW 7224   5.281   1.222   4.691 -0.1681  0.0068  0.4115
 1807SOL     OW 7225   2.658   1.490   2.286  0.4483  0.0518 -0.3033
 1807SOL    HW1 7226   2.714   1.417   2.312  0.3767  0.2866  0.5516
 1807SOL    HW2 7227   2.609   1.512   2.365  0.1347  0.7227 -0.6763
 1807SOL     MW 7228   2.659   1.484   2.300  0.3990  0.1677 -0.2416
 1808SOL     OW 7229   4.758   1.290   3.454  0.2131 -0.3002 -0.1272
 1808SOL    HW1 7230   4.778   1.223   3.519 -0.2668  1.7241  2.2612
 1808SOL    HW2 7231   4.663   1.301   3.460  0.2072  0.1550 -0.9390
 1808SOL     MW 7232   4.748   1.282   3.463  0.1509  0.0172  0.0746
 1809SOL     OW 7233   4.025   4.560   3.844  0.1016  0.0879  0.1590
 1809SOL    HW1 7234   4.082   4.551   3.767 -0.1787  2.6768 -0.4531
 1809SOL    HW2 7235   3.964   4.487   3.837 -0.1279  0.4064 -2.3169
 1809SOL     MW 7236   4.024   4.550   3.833  0.0364  0.4601 -0.2363
 1810SOL     OW 7237   4.898   1.759   1.936 -0.1390  0.2948  0.4493
 1810SOL    HW1 7238   4.927   1.750   2.027  0.1275  2.3779  0.6235
 1810SOL    HW2 7239   4.803   1.765   1.942 -0.1727 -0.2191  0.5081
 1810SOL     MW 7240   4.890   1.759   1.949 -0.1092  0.4957  0.4791
 1811SOL     OW 7241   0.341   3.494   1.545  0.1835 -0.5503  0.6317
 1811SOL    HW1 7242   0.349   3.411   1.498  1.7514 -0.3687  0.5365
 1811SOL    HW2 7243   0.426   3.507   1.586 -0.0492  0.9984  0.6850
 1811SOL     MW 7244   0.353   3.485   1.545  0.3544 -0.3288  0.6264
 1812SOL     OW 7245   1.820   0.688   2.238 -0.1803  0.1067  0.1794
 1812SOL    HW1 7246   1.775   0.689   2.322 -0.3061 -1.2256  0.1517
 1812SOL    HW2 7247   1.858   0.600   2.232 -0.5234  0.0285 -1.3195
 1812SOL     MW 7248   1.819   0.677   2.248 -0.2403 -0.0738 -0.0160
 1813SOL     OW 7249   3.755   3.159   3.819  0.3206 -0.1912  0.4774
 1813SOL    HW1 7250   3.837   3.195   3.854  2.2183 -0.0115 -3.6052
 1813SOL    HW2 7251   3.766   3.064   3.822  0.9391 -0.1611 -0.5046
 1813SOL     MW 7252   3.767   3.152   3.824  0.6427 -0.1644 -0.1709
 1814SOL     OW 7253   3.101   4.336   4.502 -0.2505  0.0767  0.2838
 1814SOL    HW1 7254   3.053   4.303   4.426  1.1045 -0.3123 -0.4347
 1814SOL    HW2 7255   3.193   4.329   4.477  0.1710  1.6616  1.2672
 1814SOL     MW 7256   3.107   4.331   4.489 -0.0231  0.2298  0.3177
 1815SOL     OW 7257   3.020   3.052   4.895  0.0988  0.2291 -0.0156
 1815SOL    HW1 7258   3.069   3.128   4.926 -0.0453  0.1352  0.4483
 1815SOL    HW2 7259   3.020   2.991   4.969  1.4093 -0.8171 -0.8240
 1815SOL     MW 7260   3.026   3.054   4.908  0.2482  0.0832 -0.0597
 1816SOL     OW 7261   4.315   1.655   4.596  0.3734  0.2844 -0.1344
 1816SOL    HW1 7262   4.235   1.675   4.546  0.0778 -1.4073 -0.3866
 1816SOL    HW2 7263   4.293   1.676   4.686 -0.7678 -1.1742 -0.0345
 1816SOL     MW 7264   4.302   1.660   4.601  0.1895 -0.1189 -0.1539
 1817SOL     OW 7265   3.371   4.458   4.073  0.1199 -0.8591 -0.6533
 1817SOL    HW1 7266   3.401   4.520   4.006 -0.3935 -0.4530 -0.5101
 1817SOL    HW2 7267   3.403   4.495   4.155 -2.9377  1.0303 -0.1678
 1817SOL     MW 7268   3.379   4.471   4.075 -0.3372 -0.5653 -0.5728
 1818SOL     OW 7269   1.048   0.367   0.477  0.0905  0.5720 -0.8020
 1818SOL    HW1 7270   1.016   0.404   0.395 -0.4597 -0.2037 -0.9589
 1818SOL    HW2 7271   1.136   0.335   0.456  1.0412  2.7852 -0.3514
 1818SOL     MW 7272   1.055   0.367   0.464  0.1418  0.7560 -0.7644
 1819SOL     OW 7273   2.742   0.267   4.486  0.0159  0.3591 -0.3567
 1819SOL    HW1 7274   2.667   0.327   4.482  0.1805  0.5094 -2.1126
 1819SOL    HW2 7275   2.724   0.202   4.418  0.9400 -0.2638 -0.0277
 1819SOL     MW 7276   2.730   0.266   4.477  0.1552  0.2986 -0.5394
 1820SOL     OW 7277   4.443   0.120   5.092 -0.1987  0.1807  0.2213
 1820SOL    HW1 7278   4.433   0.053   5.160 -1.7199  0.6515  0.5004
 1820SOL    HW2 7279   4.420   0.202   5.137 -1.1349  0.5107 -0.8325
 1820SOL     MW 7280   4.439   0.122   5.107 -0.5133  0.2832  0.1222
 1821SOL     OW 7281   2.386   0.011   4.891 -0.1288 -0.4618  0.0053
 1821SOL    HW1 7282   2.438   0.067   4.833  0.2882 -0.8041  0.0369
 1821SOL    HW2 7283   2.446  -0.010   4.963 -0.5385 -0.3087  0.3898
 1821SOL     MW 7284   2.401   0.015   4.893 -0.1279 -0.4860  0.0585
 1822SOL     OW 7285   5.455   0.219   1.921 -0.2893 -0.2370  0.0833
 1822SOL    HW1 7286   5.488   0.235   2.009  0.6797 -3.2009  0.3936
 1822SOL    HW2 7287   5.400   0.295   1.901  0.2255  0.9786  2.8285
 1822SOL     MW 7288   5.452   0.231   1.929 -0.0994 -0.4608  0.4744
 1823SOL     OW 7289   1.806   5.329   0.160  0.6812  0.0608  0.2476
 1823SOL    HW1 7290   1.765   5.411   0.135 -0.2766 -0.8542 -1.3401
 1823SOL    HW2 7291   1.807   5.331   0.256  1.6109  2.3323  0.2498
 1823SOL     MW 7292   1.801   5.340   0.169  0.6776  0.2345  0.0446
 1824SOL     OW 7293   1.597   3.850   0.855 -0.0273  0.3844  0.0502
 1824SOL    HW1 7294   1.685   3.869   0.886  0.4955 -0.3752 -0.8961
 1824SOL    HW2 7295   1.541   3.910   0.904  0.6115 -1.2438  2.9956
 1824SOL     MW 7296   1.601   3.860   0.865  0.1214  0.0788  0.3061
 1825SOL     OW 7297   5.358   2.832   0.470  0.2548  0.2336 -0.1086
 1825SOL    HW1 7298   5.367   2.798   0.558  1.0656  1.0309  0.1335
 1825SOL    HW2 7299   5.265   2.822   0.449  0.3706 -1.5807  0.1439
 1825SOL     MW 7300   5.347   2.827   0.478  0.3734  0.1034 -0.0453
 1826SOL     OW 7301   0.937   2.605   0.476  0.4314  0.0925 -0.2133
 1826SOL    HW1 7302   0.897   2.570   0.555 -0.9534  2.5265  0.2946
 1826SOL    HW2 7303   0.905   2.549   0.406  0.3857 -1.1454  0.7668
 1826SOL     MW 7304   0.928   2.594   0.477  0.2483  0.2456 -0.0228
 1827SOL     OW 7305   1.301   2.736   2.301 -0.2347 -0.1533  0.0503
 1827SOL    HW1 7306   1.287   2.648   2.337  0.3491 -0.4961 -0.5439
 1827SOL    HW2 7307   1.235   2.744   2.231 -0.4388 -0.0273  0.2556
 1827SOL     MW 7308   1.290   2.725   2.297 -0.1861 -0.1811  0.0005
 1828SOL     OW 7309   5.211   3.370   1.984 -0.1886 -0.0097  0.1152
 1828SOL    HW1 7310   5.174   3.454   2.012  1.2083  0.4172  0.7609
 1828SOL    HW2 7311   5.263   3.391   1.906 -0.8363 -0.5091 -0.4651
 1828SOL     MW 7312   5.213   3.383   1.978 -0.0927 -0.0190  0.1236
 1829SOL     OW 7313   4.010   5.325   2.483 -0.1102 -0.3478 -0.2557
 1829SOL    HW1 7314   3.971   5.258   2.539 -1.3942  0.1459 -0.5105
 1829SOL    HW2 7315   3.935   5.373   2.448  0.7697  1.1973 -0.1198
 1829SOL     MW 7316   3.995   5.322   2.485 -0.1619 -0.0868 -0.2709
 1830SOL     OW 7317   4.778   1.165   5.322  0.7759 -0.7578 -0.0299
 1830SOL    HW1 7318   4.815   1.086   5.282 -1.4860 -2.2934  0.7596
 1830SOL    HW2 7319   4.755   1.139   5.411  0.2298  0.8924  0.3405
 1830SOL     MW 7320   4.780   1.152   5.328  0.4164 -0.7431  0.1186
 1831SOL     OW 7321   3.086   4.665   2.322 -0.1398 -0.3357  0.1893
 1831SOL    HW1 7322   3.123   4.751   2.341  0.1267 -0.2192 -0.7832
 1831SOL    HW2 7323   3.115   4.646   2.233 -0.2851 -1.3888  0.3534
 1831SOL     MW 7324   3.094   4.674   2.313 -0.1243 -0.4556  0.0858
 1832SOL     OW 7325   1.006   0.222   4.094 -0.0585 -0.6730 -0.1108
 1832SOL    HW1 7326   1.005   0.151   4.159  1.3642 -0.3166  0.3355
 1832SOL    HW2 7327   0.942   0.195   4.028  0.6139 -2.4972 -0.0763
 1832SOL     MW 7328   0.998   0.210   4.094  0.2097 -0.8609 -0.0493
 1833SOL     OW 7329   4.458   3.766   4.231  0.3395 -0.3912  0.1756
 1833SOL    HW1 7330   4.483   3.799   4.145  0.5595  2.2115  1.1662
 1833SOL    HW2 7331   4.524   3.802   4.290 -0.3216 -1.4011  1.5660
 1833SOL     MW 7332   4.470   3.775   4.227  0.2830 -0.1873  0.4804
 1834SOL     OW 7333   3.409   1.552   4.089  0.1833 -0.1696 -0.2435
 1834SOL    HW1 7334   3.497   1.533   4.120 -0.2789 -0.4815  0.9477
 1834SOL    HW2 7335   3.408   1.523   3.998  1.3424 -0.0471 -0.2994
 1834SOL     MW 7336   3.420   1.546   4.082  0.2725 -0.1938 -0.0982
 1835SOL     OW 7337   2.189   3.916   3.645 -0.1187  0.3464  0.1402
 1835SOL    HW1 7338   2.132   3.839   3.652 -0.5547  0.7259  0.9253
 1835SOL    HW2 7339   2.278   3.880   3.644 -0.3468 -0.2225 -0.6078
 1835SOL     MW 7340   2.193   3.901   3.646 -0.2037  0.3222  0.1449
 1836SOL     OW 7341   0.000   2.987   0.135 -0.5143 -0.0231 -0.0015
 1836SOL    HW1 7342   0.003   2.894   0.155 -0.6938  0.3042  1.7113
 1836SOL    HW2 7343   0.005   3.031   0.221 -2.0923  1.4980 -0.6125
 1836SOL     MW 7344   0.001   2.981   0.149 -0.7393  0.2136  0.1396
 1837SOL     OW 7345   5.132   0.712   3.853 -0.1337  0.2495 -0.5736
 1837SOL    HW1 7346   5.137   0.617   3.866 -1.2546  0.3258  0.7062
 1837SOL    HW2 7347   5.109   0.746   3.940  0.1929  1.6873 -1.0318
 1837SOL     MW 7348   5.129   0.704   3.866 -0.2354  0.4434 -0.4685
 1838SOL     OW 7349   1.123   2.224   0.226 -0.2800 -0.1140  0.2067
 1838SOL    HW1 7350   1.053   2.174   0.183 -1.3547  2.3768 -1.1718
 1838SOL    HW2 7351   1.202   2.201   0.177 -0.5110 -1.2855  0.3473
 1838SOL     MW 7352   1.124   2.215   0.214 -0.4472  0.0549  0.0482
 1839SOL     OW 7353   0.068   3.568   0.828  0.2273 -0.0732  0.2952
 1839SOL    HW1 7354   0.067   3.622   0.906  0.2797  0.0931  0.1810
 1839SOL    HW2 7355   0.157   3.576   0.794 -0.0007  0.4324 -0.1837
 1839SOL     MW 7356   0.080   3.576   0.833  0.2048  0.0128  0.2193
 1840SOL     OW 7357   5.413   1.787   0.778 -0.0586  0.4435  0.0874
 1840SOL    HW1 7358   5.395   1.868   0.730 -0.9262  0.1357 -0.1432
 1840SOL    HW2 7359   5.478   1.742   0.725  0.1010  0.7930 -0.0161
 1840SOL     MW 7360   5.419   1.792   0.765 -0.1493  0.4488  0.0446
 1841SOL     OW 7361   0.841   2.321   2.167  0.2485 -0.5838  0.3972
 1841SOL    HW1 7362   0.748   2.315   2.147  0.6100 -2.1277 -0.9878
 1841SOL    HW2 7363   0.861   2.414   2.162 -0.9262 -0.3755 -0.6670
 1841SOL     MW 7364   0.831   2.332   2.164  0.1444 -0.7548  0.0837
 1842SOL     OW 7365   3.605   5.167   1.080 -0.3545  0.0381  0.0737
 1842SOL    HW1 7366   3.700   5.152   1.085 -0.2026  0.9705  0.2318
 1842SOL    HW2 7367   3.582   5.202   1.166 -0.8476 -0.2039  0.0429
 1842SOL     MW 7368   3.615   5.170   1.092 -0.3982  0.1265  0.0900
 1843SOL     OW 7369   2.088   1.483   5.403  0.2802 -0.0193 -0.2043
 1843SOL    HW1 7370   2.073   1.389   5.397 -0.3274  0.0123  0.5903
 1843SOL    HW2 7371   2.053   1.507   5.489 -0.5605  1.1051 -0.8280
 1843SOL     MW 7372   2.082   1.474   5.414  0.0948  0.1287 -0.1824
 1844SOL     OW 7373   3.462   0.840   1.489 -0.0085 -0.2907  0.9273
 1844SOL    HW1 7374   3.455   0.779   1.562 -1.0920 -0.7548  0.4684
 1844SOL    HW2 7375   3.397   0.809   1.426  0.9661  0.0448 -0.2750
 1844SOL     MW 7376   3.453   0.828   1.490 -0.0224 -0.3072  0.7146
 1845SOL     OW 7377   5.072   3.700   3.986 -0.3059 -0.4283  0.4701
 1845SOL    HW1 7378   5.142   3.695   4.051 -1.5180  1.8255  2.1048
 1845SOL    HW2 7379   5.109   3.754   3.916 -0.3546  0.8157  1.3569
 1845SOL     MW 7380   5.086   3.706   3.986 -0.4673  0.0195  0.7929
 1846SOL     OW 7381   0.145   1.461   2.479  0.0878  0.1200 -0.2040
 1846SOL    HW1 7382   0.212   1.459   2.547 -0.3760  0.1299  0.2562
 1846SOL    HW2 7383   0.074   1.405   2.513  0.1164 -0.3956 -0.9544
 1846SOL     MW 7384   0.144   1.453   2.492  0.0321  0.0553 -0.2411
 1847SOL     OW 7385   3.688   0.652   0.175  0.1780 -0.3534  0.9310
 1847SOL    HW1 7386   3.705   0.564   0.207  2.7317 -0.2941 -0.0803
 1847SOL    HW2 7387   3.759   0.670   0.114 -1.2579  1.7554 -0.2563
 1847SOL     MW 7388   3.699   0.643   0.171  0.3211 -0.0758  0.6495
 1848SOL     OW 7389   4.764   1.962   2.183 -0.2572  0.4067  0.0690
 1848SOL    HW1 7390   4.808   1.997   2.106  0.2742  0.1453  0.2499
 1848SOL    HW2 7391   4.672   1.953   2.156  0.0199 -0.1941 -0.7218
 1848SOL     MW 7392   4.758   1.965   2.170 -0.1537  0.2963 -0.0091
 1849SOL     OW 7393   3.578   1.767   3.959  0.2047  0.1420 -0.3250
 1849SOL    HW1 7394   3.483   1.767   3.951  0.2504  0.4069 -0.9385
 1849SOL    HW2 7395   3.609   1.740   3.872  0.6659 -1.5011  0.3034
 1849SOL     MW 7396   3.570   1.763   3.947  0.2696 -0.0344 -0.3231
 1850SOL     OW 7397   1.911   1.541   2.545  0.0299  0.1196  0.6142
 1850SOL    HW1 7398   1.927   1.496   2.462 -0.7751  0.2583  0.3734
 1850SOL    HW2 7399   1.922   1.633   2.524  0.4323  0.1151  0.8080
 1850SOL     MW 7400   1.915   1.547   2.531 -0.0217  0.1368  0.6082
 1851SOL     OW 7401   0.882   5.376   4.611  0.0687 -0.6895  0.0827
 1851SOL    HW1 7402   0.939   5.312   4.653 -1.8549 -1.7038  1.3167
 1851SOL    HW2 7403   0.838   5.326   4.542  0.5428  0.0421 -0.7714
 1851SOL     MW 7404   0.883   5.361   4.607 -0.1169 -0.7257  0.1313
 1852SOL     OW 7405   1.748   1.881   3.059 -0.3441 -0.2296 -0.0506
 1852SOL    HW1 7406   1.721   1.932   3.135  1.0880  1.6220 -0.7090
 1852SOL    HW2 7407   1.729   1.790   3.082 -1.1139  0.4087  1.9793
 1852SOL     MW 7408   1.742   1.876   3.071 -0.2593  0.0892  0.1250
 1853SOL     OW 7409   0.904   3.271   1.856  0.4327 -0.2976 -0.4275
 1853SOL    HW1 7410   0.875   3.334   1.922 -0.3842 -1.1747  0.0680
 1853SOL    HW2 7411   0.827   3.255   1.802  0.9671  0.0400 -1.3224
 1853SOL     MW 7412   0.891   3.277   1.858  0.3966 -0.3667 -0.4786
 1854SOL     OW 7413   2.039   2.293   4.554 -0.6333  0.1730  0.3772
 1854SOL    HW1 7414   1.955   2.302   4.509 -0.4925  0.5775  0.1909
 1854SOL    HW2 7415   2.061   2.200   4.545 -1.2162 -0.0038  0.7132
 1854SOL     MW 7416   2.031   2.282   4.547 -0.6899  0.2022  0.3964
 1855SOL     OW 7417   4.647   3.537   2.349  0.0387  0.0601  0.1356
 1855SOL    HW1 7418   4.629   3.445   2.327 -0.4597  0.4858 -1.3339
 1855SOL    HW2 7419   4.724   3.533   2.406  1.9822 -1.1037 -2.4006
 1855SOL     MW 7420   4.654   3.525   2.354  0.2237 -0.0344 -0.3772
 1856SOL     OW 7421   1.088   0.529   0.679 -0.1568  0.0759  0.1424
 1856SOL    HW1 7422   1.071   0.492   0.592 -1.1393  0.2500  0.2429
 1856SOL    HW2 7423   1.131   0.459   0.728  0.7356  0.0926 -0.5850
 1856SOL     MW 7424   1.091   0.516   0.674 -0.1683  0.1003  0.0621
 1857SOL     OW 7425   1.505   1.678   4.153 -0.2022  0.2789  0.0878
 1857SOL    HW1 7426   1.580   1.734   4.132 -0.9540  0.9570 -0.9214
 1857SOL    HW2 7427   1.535   1.589   4.135  0.5730  0.4778  0.3684
 1857SOL     MW 7428   1.518   1.674   4.148 -0.1992  0.3912 -0.0055
 1858SOL     OW 7429   0.269   5.060   5.293 -0.1392  0.0804  0.1816
 1858SOL    HW1 7430   0.277   5.013   5.377 -1.1572 -0.0476  0.2165
 1858SOL    HW2 7431   0.210   5.006   5.241 -0.1735  0.5920 -0.3154
 1858SOL     MW 7432   0.263   5.047   5.297 -0.2739  0.1295  0.1224
 1859SOL     OW 7433   5.419   1.462   4.177 -0.1159 -0.7406 -0.0214
 1859SOL    HW1 7434   5.476   1.534   4.151 -1.9328 -0.0351 -2.5415
 1859SOL    HW2 7435   5.393   1.482   4.267  1.5211  0.2699  0.2609
 1859SOL     MW 7436   5.423   1.473   4.185 -0.1390 -0.5209 -0.3079
 1860SOL     OW 7437   4.028   5.098   1.800 -0.3059  0.2525 -0.2571
 1860SOL    HW1 7438   4.096   5.070   1.738 -0.8132  1.3034 -1.3221
 1860SOL    HW2 7439   4.076   5.149   1.865 -0.0841  1.2113 -1.1451
 1860SOL     MW 7440   4.043   5.101   1.800 -0.3425  0.5098 -0.5071
 1861SOL     OW 7441   3.975   1.108   2.628  0.2058 -0.2306  0.6700
 1861SOL    HW1 7442   3.954   1.117   2.721  0.2458  1.3533  0.5470
 1861SOL    HW2 7443   4.000   1.196   2.601  0.2258 -0.6862 -0.8405
 1861SOL     MW 7444   3.975   1.120   2.637  0.2135 -0.0862  0.4609
 1862SOL     OW 7445   3.244   1.827   4.868 -0.0448 -0.0192  0.1110
 1862SOL    HW1 7446   3.287   1.908   4.842  1.4363 -0.4275  1.1438
 1862SOL    HW2 7447   3.217   1.787   4.785  1.2884  0.4326 -0.5842
 1862SOL     MW 7448   3.246   1.832   4.854  0.3155 -0.0137  0.1542
 1863SOL     OW 7449   2.053   4.566   3.243 -0.7281  0.3621 -0.0699
 1863SOL    HW1 7450   1.975   4.539   3.195 -0.3249 -1.7338  0.3674
 1863SOL    HW2 7451   2.089   4.485   3.278  1.5509  1.2910 -0.0830
 1863SOL     MW 7452   2.047   4.552   3.241 -0.3847  0.2127 -0.0156
 1864SOL     OW 7453   1.291   1.602   2.446 -0.1829 -0.4684 -0.2771
 1864SOL    HW1 7454   1.339   1.680   2.419 -1.2988  0.1448 -0.5874
 1864SOL    HW2 7455   1.220   1.635   2.501  0.4132 -1.4559  1.1336
 1864SOL     MW 7456   1.288   1.616   2.449 -0.2494 -0.5163 -0.1362
 1865SOL     OW 7457   3.910   0.194   4.399  0.3073  0.3960 -0.3713
 1865SOL    HW1 7458   3.907   0.171   4.492  0.4806  1.7688 -0.0008
 1865SOL    HW2 7459   3.824   0.232   4.381  1.2945  3.0751  0.0882
 1865SOL     MW 7460   3.899   0.196   4.409  0.4558  0.9147 -0.2650
 1866SOL     OW 7461   1.449   2.281   4.773 -0.4704  0.2903 -0.3370
 1866SOL    HW1 7462   1.465   2.363   4.821  0.0973 -0.5863  1.0248
 1866SOL    HW2 7463   1.526   2.271   4.717  1.0739 -0.8620  1.8189
 1866SOL     MW 7464   1.461   2.290   4.772 -0.2000  0.0305  0.1133
 1867SOL     OW 7465   4.304   2.424   0.642  0.2153 -0.0455 -0.7589
 1867SOL    HW1 7466   4.271   2.471   0.719  0.0205 -1.2125 -0.1151
 1867SOL    HW2 7467   4.399   2.427   0.651  0.1862 -0.7019 -0.1348
 1867SOL     MW 7468   4.312   2.431   0.653  0.1867 -0.2789 -0.5966
 1868SOL     OW 7469   1.243   4.224   3.863 -0.4350 -0.1154 -0.4884
 1868SOL    HW1 7470   1.286   4.150   3.820 -0.7501 -1.5631  1.5423
 1868SOL    HW2 7471   1.316   4.280   3.891 -0.1934  0.3880 -1.9986
 1868SOL     MW 7472   1.258   4.222   3.861 -0.4444 -0.2363 -0.4218
 1869SOL     OW 7473   4.402   2.443   1.340  0.7631  0.3111 -0.0886
 1869SOL    HW1 7474   4.328   2.474   1.392  0.4632  1.5795 -1.2472
 1869SOL    HW2 7475   4.473   2.504   1.360  1.1638 -0.2107  0.1220
 1869SOL     MW 7476   4.402   2.455   1.350  0.7760  0.4066 -0.2099
 1870SOL     OW 7477   1.924   4.882   3.021  0.0050  0.1490  0.0434
 1870SOL    HW1 7478   1.857   4.902   3.086 -1.1215 -0.4782 -0.8923
 1870SOL    HW2 7479   1.887   4.912   2.938  0.7126 -0.5641 -0.5466
 1870SOL     MW 7480   1.911   4.889   3.019 -0.0486 -0.0225 -0.1519
 1871SOL     OW 7481   1.265   1.442   3.896 -0.3392  0.5454 -0.1838
 1871SOL    HW1 7482   1.200   1.504   3.926 -0.3799  0.7268 -0.6304
 1871SOL    HW2 7483   1.316   1.490   3.831  0.3439  0.4560  0.2743
 1871SOL     MW 7484   1.263   1.456   3.891 -0.2569  0.5572 -0.1823
 1872SOL     OW 7485   4.480   2.945   3.178  0.2818  0.4643 -0.6540
 1872SOL    HW1 7486   4.495   2.980   3.090 -0.4312 -0.8996 -1.3461
 1872SOL    HW2 7487   4.395   2.981   3.203 -1.0190 -1.5453 -1.8469
 1872SOL     MW 7488   4.471   2.954   3.170  0.0240  0.0324 -0.8953
 1873SOL     OW 7489   5.434   1.323   1.893 -0.4137 -0.0769  0.2138
 1873SOL    HW1 7490   5.496   1.380   1.849 -0.4734 -0.8936 -0.9739
 1873SOL    HW2 7491   5.350   1.368   1.886 -0.3698 -0.0691 -0.2631
 1873SOL     MW 7492   5.431   1.336   1.886 -0.4157 -0.1805  0.0007
 1874SOL     OW 7493   2.782   4.399   5.500  0.1579  0.0367  0.3903
 1874SOL    HW1 7494   2.751   4.453   5.427 -1.5713 -1.1334  0.1940
 1874SOL    HW2 7495   2.864   4.362   5.468 -0.0454  0.3592 -0.5609
 1874SOL     MW 7496   2.788   4.401   5.486 -0.0895 -0.0718  0.2434
 1875SOL     OW 7497   2.564   2.087   4.167 -0.0063  0.6764  0.6459
 1875SOL    HW1 7498   2.511   2.127   4.236  0.7204  2.7171  0.0804
 1875SOL    HW2 7499   2.633   2.041   4.215 -0.5362  0.5710  1.3183
 1875SOL     MW 7500   2.566   2.086   4.182  0.0189  0.9241  0.6596
 1876SOL     OW 7501   4.165   5.000   2.319 -0.0667 -0.1021  0.0647
 1876SOL    HW1 7502   4.172   5.090   2.287 -0.9165 -0.4473 -1.1565
 1876SOL    HW2 7503   4.072   4.980   2.317  0.1338 -1.1109  0.0277
 1876SOL     MW 7504   4.154   5.009   2.314 -0.1498 -0.2754 -0.0964
 1877SOL     OW 7505   0.088   3.302   5.031  0.2537  0.4962 -0.9709
 1877SOL    HW1 7506   0.116   3.217   5.065 -0.4116 -0.2093 -2.1176
 1877SOL    HW2 7507   0.121   3.366   5.095  2.3937 -0.4541 -1.0564
 1877SOL     MW 7508   0.096   3.300   5.044  0.4425  0.2843 -1.1286
 1878SOL     OW 7509   1.929   2.404   1.740 -0.0773  0.0442 -0.3153
 1878SOL    HW1 7510   1.850   2.353   1.758 -1.6284  2.9539  1.8944
 1878SOL    HW2 7511   1.988   2.382   1.812 -0.4037  0.7093  0.1580
 1878SOL     MW 7512   1.926   2.394   1.751 -0.3177  0.5018  0.0282
 1879SOL     OW 7513   2.090   3.527   3.959 -0.4577 -0.1443  0.3675
 1879SOL    HW1 7514   2.181   3.555   3.966 -0.6495  0.4402  0.6219
 1879SOL    HW2 7515   2.091   3.459   3.892 -0.2528  1.8147 -1.7688
 1879SOL     MW 7516   2.102   3.522   3.951 -0.4560  0.1813  0.1266
 1880SOL     OW 7517   5.200   0.145   3.793  0.3494 -0.2243 -0.0899
 1880SOL    HW1 7518   5.185   0.063   3.840 -1.9009  0.1574 -0.0600
 1880SOL    HW2 7519   5.175   0.126   3.702  0.4003  0.2590 -0.2092
 1880SOL     MW 7520   5.195   0.132   3.787  0.0679 -0.1136 -0.1013
 1881SOL     OW 7521   2.105   0.981   5.256  0.2189 -0.2174  0.2683
 1881SOL    HW1 7522   2.169   0.985   5.185 -0.1331 -1.9604 -0.1991
 1881SOL    HW2 7523   2.145   0.923   5.322 -0.1607  0.0368  0.7272
 1881SOL     MW 7524   2.118   0.974   5.256  0.1253 -0.4079  0.2672
 1882SOL     OW 7525   3.525   5.004   0.662  0.2046  0.7535 -0.5391
 1882SOL    HW1 7526   3.565   4.959   0.587 -0.8047 -1.3933  0.1158
 1882SOL    HW2 7527   3.585   4.988   0.734 -0.2239  0.2959 -0.2736
 1882SOL     MW 7528   3.538   4.996   0.662  0.0205  0.4201 -0.4213
 1883SOL     OW 7529   1.995   3.754   4.080 -0.1117  0.3746  0.2659
 1883SOL    HW1 7530   1.909   3.752   4.040  0.4729  0.1227 -1.0190
 1883SOL    HW2 7531   2.042   3.680   4.042  0.9648  1.0427  0.2227
 1883SOL     MW 7532   1.990   3.745   4.070  0.1009  0.4279  0.0959
 1884SOL     OW 7533   0.805   5.063   3.379 -0.9225 -0.6846 -0.5903
 1884SOL    HW1 7534   0.795   5.109   3.462 -1.3003 -1.9157  0.0764
 1884SOL    HW2 7535   0.793   5.130   3.312  1.9458  0.9203  0.3021
 1884SOL     MW 7536   0.802   5.077   3.381 -0.6037 -0.6368 -0.3908
 1885SOL     OW 7537   4.097   1.739   4.406  0.5512  0.3051 -0.2101
 1885SOL    HW1 7538   4.129   1.794   4.334 -1.4758 -0.2188 -1.5879
 1885SOL    HW2 7539   4.004   1.761   4.414  0.4151 -0.6752  1.3372
 1885SOL     MW 7540   4.089   1.749   4.398  0.2743  0.1125 -0.1884
 1886SOL     OW 7541   4.510   4.053   0.299 -0.1427 -0.2064 -0.1336
 1886SOL    HW1 7542   4.595   4.017   0.271 -1.4765 -1.9942 -2.1912
 1886SOL    HW2 7543   4.471   3.983   0.351 -0.5704  0.4441  0.4359
 1886SOL     MW 7544   4.516   4.040   0.302 -0.3682 -0.3520 -0.3241
 1887SOL     OW 7545   1.632   1.729   0.407  0.3358  0.0706 -0.2976
 1887SOL    HW1 7546   1.584   1.702   0.329 -0.1399  2.1305 -0.7827
 1887SOL    HW2 7547   1.567   1.776   0.459  0.7565 -0.9329  1.1788
 1887SOL     MW 7548   1.617   1.732   0.404  0.3287  0.2058 -0.1707
 1888SOL     OW 7549   0.355   1.168   2.007  0.2361 -0.0588  0.5231
 1888SOL    HW1 7550   0.332   1.182   1.915 -3.2219  0.3337  1.2783
 1888SOL    HW2 7551   0.343   1.074   2.020 -1.5576  0.1845  0.9815
 1888SOL     MW 7552   0.350   1.158   1.997 -0.4362  0.0226  0.6785
 1889SOL     OW 7553   2.275   0.957   2.371  0.0354  0.3239 -0.6206
 1889SOL    HW1 7554   2.330   0.879   2.366 -0.8246 -0.4225  1.0476
 1889SOL    HW2 7555   2.187   0.927   2.349 -0.2352  0.9009 -0.3626
 1889SOL     MW 7556   2.271   0.943   2.367 -0.1093  0.3022 -0.3740
 1890SOL     OW 7557   0.055   4.282   5.300 -0.2147 -0.3937  0.2104
 1890SOL    HW1 7558   0.140   4.326   5.298 -0.1978 -0.4247  0.2432
 1890SOL    HW2 7559   0.002   4.329   5.236 -0.9846  1.2590  1.9587
 1890SOL     MW 7560   0.059   4.294   5.292 -0.3111 -0.1861  0.4384
 1891SOL     OW 7561   2.376   0.908   3.425 -0.1350 -0.6895 -0.5575
 1891SOL    HW1 7562   2.436   0.874   3.359 -0.6031 -1.4299 -0.6099
 1891SOL    HW2 7563   2.371   1.002   3.407  0.0828 -0.8172 -1.3036
 1891SOL     MW 7564   2.383   0.916   3.414 -0.1670 -0.8006 -0.6597
 1892SOL     OW 7565   5.245   3.267   1.533 -0.0308 -0.4645  0.3522
 1892SOL    HW1 7566   5.290   3.191   1.496  0.0148  0.2275 -1.0933
 1892SOL    HW2 7567   5.179   3.231   1.591  0.5293 -1.5778  0.3178
 1892SOL     MW 7568   5.243   3.253   1.536  0.0467 -0.5185  0.1627
 1893SOL     OW 7569   0.315   3.147   0.087  0.7695  0.3887  0.2768
 1893SOL    HW1 7570   0.240   3.161   0.030  0.3611  1.4141  1.0353
 1893SOL    HW2 7571   0.340   3.056   0.072 -1.4353 -0.4031  0.9676
 1893SOL     MW 7572   0.309   3.137   0.078  0.4350  0.4186  0.4623
 1894SOL     OW 7573   2.807   3.785   2.346  0.6324  0.7682  0.0589
 1894SOL    HW1 7574   2.867   3.791   2.271  1.4533  0.5045  0.6844
 1894SOL    HW2 7575   2.845   3.843   2.412 -0.7508  1.9658 -0.1516
 1894SOL     MW 7576   2.820   3.793   2.344  0.5604  0.8877  0.1120
 1895SOL     OW 7577   0.106   1.598   0.604 -0.4053 -0.1289  0.1013
 1895SOL    HW1 7578   0.166   1.662   0.565  1.8914 -2.3276 -0.2064
 1895SOL    HW2 7579   0.029   1.599   0.547  0.2138  1.2119 -0.7674
 1895SOL     MW 7580   0.104   1.606   0.592 -0.0321 -0.2387 -0.0493
 1896SOL     OW 7581   3.123   3.841   0.709  0.0882  1.0735  0.8559
 1896SOL    HW1 7582   3.110   3.762   0.762 -0.6402 -0.0454 -0.8837
 1896SOL    HW2 7583   3.211   3.831   0.672 -0.3248  0.6193 -0.0383
 1896SOL     MW 7584   3.132   3.830   0.711 -0.0579  0.8721  0.5188
 1897SOL     OW 7585   2.922   5.034   1.518 -0.4142 -0.0144  0.7542
 1897SOL    HW1 7586   2.884   4.956   1.560 -1.0754  0.2113  0.5905
 1897SOL    HW2 7587   2.948   5.003   1.431  2.2075 -0.8249  1.7513
 1897SOL     MW 7588   2.920   5.020   1.512 -0.1633 -0.0892  0.8609
 1898SOL     OW 7589   3.713   0.618   1.013 -0.6020 -0.2435 -0.1432
 1898SOL    HW1 7590   3.750   0.556   0.950 -1.0397 -1.6624  0.9405
 1898SOL    HW2 7591   3.706   0.700   0.965  3.6375  0.1081 -0.5408
 1898SOL     MW 7592   3.717   0.621   0.999 -0.1153 -0.3801 -0.0554
 1899SOL     OW 7593   1.064   2.063   5.356  0.3130  0.2479 -0.0838
 1899SOL    HW1 7594   1.073   2.078   5.262 -0.7019  0.6231 -0.1303
 1899SOL    HW2 7595   0.994   1.998   5.363 -2.5435  3.1282  0.5309
 1899SOL     MW 7596   1.057   2.056   5.345 -0.1826  0.6646 -0.0110
 1900SOL     OW 7597   4.518   3.386   5.386  0.1432  0.0697 -0.1445
 1900SOL    HW1 7598   4.464   3.465   5.379  0.3396  0.0594 -2.9228
 1900SOL    HW2 7599   4.459   3.320   5.423 -0.8772  0.8056 -0.3971
 1900SOL     MW 7600   4.503   3.388   5.390  0.0378  0.1626 -0.5325
 1901SOL     OW 7601   5.341   1.812   2.942 -0.0552 -0.1739 -0.3295
 1901SOL    HW1 7602   5.400   1.832   2.869 -1.4537 -1.1465 -1.7853
 1901SOL    HW2 7603   5.378   1.734   2.982  0.9701  0.6179  0.3462
 1901SOL     MW 7604   5.354   1.805   2.938 -0.1030 -0.1971 -0.4294
 1902SOL     OW 7605   4.241   3.172   3.235 -0.0972 -0.4389 -0.6503
 1902SOL    HW1 7606   4.197   3.125   3.306  1.9765 -0.3789  0.7483
 1902SOL    HW2 7607   4.332   3.176   3.262  0.4686  1.0159 -2.5911
 1902SOL     MW 7608   4.247   3.166   3.248  0.2407 -0.2450 -0.7197
 1903SOL     OW 7609   3.271   2.560   1.603  0.0308  0.1607 -0.0602
 1903SOL    HW1 7610   3.201   2.500   1.578 -0.3793  0.3532  0.6191
 1903SOL    HW2 7611   3.304   2.526   1.686 -1.1328  1.6327  1.0578
 1903SOL     MW 7612   3.267   2.548   1.610 -0.1706  0.3738  0.1699
 1904SOL     OW 7613   5.223   3.942   4.761  0.1266 -0.0847  0.2356
 1904SOL    HW1 7614   5.149   3.958   4.820 -0.5497 -1.9427 -0.0403
 1904SOL    HW2 7615   5.187   3.885   4.693  0.9582  1.7775 -1.8672
 1904SOL     MW 7616   5.209   3.937   4.760  0.1465 -0.0842 -0.0689
 1905SOL     OW 7617   0.568   4.289   2.037  0.1619  0.3426 -0.2728
 1905SOL    HW1 7618   0.662   4.304   2.040 -0.0668  1.9227 -0.2131
 1905SOL    HW2 7619   0.530   4.358   2.092 -0.9840 -0.8828  0.5466
 1905SOL     MW 7620   0.575   4.300   2.044 -0.0141  0.3880 -0.1603
 1906SOL     OW 7621   3.992   4.855   1.487 -0.3564  0.5883  0.1984
 1906SOL    HW1 7622   3.939   4.786   1.448 -0.9943  0.9717  0.3777
 1906SOL    HW2 7623   4.004   4.828   1.578 -0.3856  0.5833  0.2008
 1906SOL     MW 7624   3.987   4.843   1.493 -0.4418  0.6367  0.2217
 1907SOL     OW 7625   0.373   4.733   2.081 -0.0095  0.4223  0.2772
 1907SOL    HW1 7626   0.382   4.783   2.000  1.3928 -0.3817 -0.0975
 1907SOL    HW2 7627   0.317   4.787   2.136 -2.2637  0.2980 -1.7447
 1907SOL     MW 7628   0.367   4.746   2.078 -0.1186  0.3035 -0.0296
 1908SOL     OW 7629   4.250   2.347   2.601  0.0012  0.1212 -0.3446
 1908SOL    HW1 7630   4.173   2.403   2.597  1.0229  1.6594  0.3782
 1908SOL    HW2 7631   4.283   2.358   2.690  0.7792 -0.8877 -0.4958
 1908SOL     MW 7632   4.245   2.356   2.612  0.2316  0.1890 -0.2715
 1909SOL     OW 7633   3.605   1.739   4.418 -0.0190 -0.1294  0.0103
 1909SOL    HW1 7634   3.597   1.660   4.364  0.5762  0.1040 -0.4332
 1909SOL    HW2 7635   3.552   1.805   4.372  0.7773  0.1721 -0.5132
 1909SOL     MW 7636   3.597   1.738   4.405  0.1592 -0.0609 -0.1135
 1910SOL     OW 7637   3.516   3.137   2.788  0.1984  0.6494 -0.1062
 1910SOL    HW1 7638   3.496   3.094   2.871 -0.3454  0.1557 -0.4827
 1910SOL    HW2 7639   3.452   3.208   2.782 -0.5359 -0.0388 -0.6380
 1910SOL     MW 7640   3.505   3.141   2.798  0.0348  0.4981 -0.2225
 1911SOL     OW 7641   4.646   2.304   4.306  0.4949 -0.4551  0.1456
 1911SOL    HW1 7642   4.583   2.238   4.333  0.4052 -0.4162  0.0290
 1911SOL    HW2 7643   4.657   2.290   4.212  0.2129 -0.0788  0.0565
 1911SOL     MW 7644   4.640   2.294   4.297  0.4473 -0.4019  0.1193
 1912SOL     OW 7645   0.881   4.062   0.868  0.2026 -0.2659 -0.3798
 1912SOL    HW1 7646   0.897   3.977   0.910 -0.7455 -0.1403  0.2675
 1912SOL    HW2 7647   0.786   4.066   0.856  0.2879  0.4843 -0.8729
 1912SOL     MW 7648   0.871   4.052   0.872  0.0921 -0.1538 -0.3601
 1913SOL     OW 7649   3.486   4.181   4.044  0.4982  0.2987  0.0872
 1913SOL    HW1 7650   3.479   4.226   3.960 -1.9847 -1.3353 -0.6947
 1913SOL    HW2 7651   3.434   4.235   4.104  3.2848  2.1480  1.0110
 1913SOL     MW 7652   3.478   4.194   4.041  0.5371  0.3263  0.1053
 1914SOL     OW 7653   4.974   2.273   1.091  0.4231 -0.7068 -0.4499
 1914SOL    HW1 7654   4.969   2.180   1.069 -0.2172 -0.8398  0.2300
 1914SOL    HW2 7655   4.890   2.293   1.131  0.9660 -0.0932  0.4125
 1914SOL     MW 7656   4.962   2.263   1.093  0.4106 -0.6453 -0.2525
 1915SOL     OW 7657   3.396   5.450   0.576 -0.1068  0.0975  0.1015
 1915SOL    HW1 7658   3.482   5.410   0.588  0.2801  0.7851 -0.2805
 1915SOL    HW2 7659   3.411   5.543   0.593 -1.1599 -0.0163  1.8182
 1915SOL     MW 7660   3.409   5.457   0.579 -0.1921  0.1709  0.2724
 1916SOL     OW 7661   0.554   2.502   0.809  0.2061 -0.0727 -0.4234
 1916SOL    HW1 7662   0.542   2.433   0.875 -2.3741  0.1115 -0.6113
 1916SOL    HW2 7663   0.563   2.583   0.860 -1.3065  0.0056 -0.2449
 1916SOL     MW 7664   0.554   2.504   0.824 -0.3178 -0.0391 -0.4246
 1917SOL     OW 7665   1.275   3.467   1.473  0.3693 -0.2527 -0.2062
 1917SOL    HW1 7666   1.183   3.471   1.444  0.4338  3.8483 -0.5173
 1917SOL    HW2 7667   1.317   3.407   1.411 -1.7645 -0.9023 -1.1388
 1917SOL     MW 7668   1.268   3.460   1.461  0.1044  0.1891 -0.3654
 1918SOL     OW 7669   5.278   0.861   2.355  0.5102 -0.1382  0.2008
 1918SOL    HW1 7670   5.233   0.885   2.436  0.0429 -0.7464  0.1322
 1918SOL    HW2 7671   5.273   0.940   2.301  0.8396  0.2778  0.7658
 1918SOL     MW 7672   5.271   0.874   2.358  0.4926 -0.1628  0.2644
 1919SOL     OW 7673   0.624   4.982   1.455  0.1349  0.0058  0.0856
 1919SOL    HW1 7674   0.633   4.953   1.546 -0.5168  1.6987  0.7239
 1919SOL    HW2 7675   0.552   5.044   1.456 -0.0612 -0.1387 -1.6591
 1919SOL     MW 7676   0.616   4.986   1.467  0.0263  0.2040 -0.0560
 1920SOL     OW 7677   2.500   2.022   0.920  0.3022 -0.4066  0.2015
 1920SOL    HW1 7678   2.470   2.038   0.830 -0.9047  1.6323  0.9015
 1920SOL    HW2 7679   2.554   1.943   0.913 -1.9612 -1.9355 -1.8449
 1920SOL     MW 7680   2.503   2.014   0.908 -0.1420 -0.3413  0.0291
 1921SOL     OW 7681   0.212   3.953   3.731  0.0482  0.0236  0.1718
 1921SOL    HW1 7682   0.278   3.957   3.662 -0.2316 -0.2063 -0.1101
 1921SOL    HW2 7683   0.233   3.874   3.780 -0.5706 -0.5689 -0.4880
 1921SOL     MW 7684   0.223   3.944   3.728 -0.0668 -0.0817  0.0513
 1922SOL     OW 7685   1.794   1.762   1.731 -0.4071  0.3905 -0.1580
 1922SOL    HW1 7686   1.844   1.740   1.653 -0.1323 -1.1062  0.3982
 1922SOL    HW2 7687   1.703   1.741   1.708 -0.3849  0.3848 -0.2390
 1922SOL     MW 7688   1.788   1.756   1.718 -0.3691  0.1982 -0.0971
 1923SOL     OW 7689   1.216   1.928   1.165 -0.2201 -0.2215  0.2422
 1923SOL    HW1 7690   1.191   1.894   1.251  0.2301  0.8426  0.8135
 1923SOL    HW2 7691   1.233   1.850   1.112 -0.2135 -0.8861  1.2020
 1923SOL     MW 7692   1.215   1.914   1.169 -0.1617 -0.1703  0.4382
 1924SOL     OW 7693   3.715   4.086   3.469 -0.1849  0.1759  0.2062
 1924SOL    HW1 7694   3.793   4.124   3.428 -0.1312 -1.2936 -1.1338
 1924SOL    HW2 7695   3.644   4.147   3.447 -0.0730 -0.3413 -1.7821
 1924SOL     MW 7696   3.716   4.099   3.461 -0.1637 -0.0784 -0.2199
 1925SOL     OW 7697   2.322   1.191   3.009 -0.0838  0.0228  0.1178
 1925SOL    HW1 7698   2.415   1.183   3.030 -0.2042 -0.4098  0.4916
 1925SOL    HW2 7699   2.306   1.122   2.945 -0.2028 -0.0558  0.2330
 1925SOL     MW 7700   2.332   1.181   3.003 -0.1144 -0.0426  0.1804
 1926SOL     OW 7701   1.058   2.914   3.371  0.2769  0.0433 -0.8152
 1926SOL    HW1 7702   1.144   2.889   3.336 -0.6789 -1.9683 -1.9369
 1926SOL    HW2 7703   1.055   2.875   3.458  0.3930 -0.1461 -0.8949
 1926SOL     MW 7704   1.068   2.906   3.377  0.1694 -0.2385 -0.9690
 1927SOL     OW 7705   1.765   1.559   3.578  0.2392 -0.6695  0.1423
 1927SOL    HW1 7706   1.826   1.522   3.514  0.9607  1.3767 -0.4328
 1927SOL    HW2 7707   1.696   1.598   3.525  0.5657  0.5838  0.6172
 1927SOL     MW 7708   1.764   1.559   3.563  0.3733 -0.2471  0.1295
 1928SOL     OW 7709   1.348   4.599   2.185  0.3260 -0.2898 -0.0091
 1928SOL    HW1 7710   1.433   4.568   2.217 -0.0051  0.3847  1.6238
 1928SOL    HW2 7711   1.328   4.542   2.111  2.1745 -0.4885 -0.4108
 1928SOL     MW 7712   1.356   4.588   2.179  0.5203 -0.2289  0.1485
 1929SOL     OW 7713   2.036   4.661   4.513 -0.7572 -0.5890 -0.7818
 1929SOL    HW1 7714   2.075   4.688   4.430 -1.0046 -0.7155 -0.9405
 1929SOL    HW2 7715   2.019   4.567   4.502 -1.4384 -0.4611 -0.8491
 1929SOL     MW 7716   2.039   4.652   4.501 -0.8761 -0.5888 -0.8107
 1930SOL     OW 7717   0.656   1.488   4.415 -0.5578  0.2566 -0.6665
 1930SOL    HW1 7718   0.707   1.464   4.337 -1.3111 -3.1349 -0.2417
 1930SOL    HW2 7719   0.565   1.492   4.383 -0.5616  2.0081 -0.5363
 1930SOL     MW 7720   0.650   1.486   4.401 -0.6547  0.0467 -0.5955
 1931SOL     OW 7721   2.473   2.081   3.654 -0.7402  0.0387 -0.0994
 1931SOL    HW1 7722   2.552   2.029   3.640 -1.6002 -1.6012  0.8232
 1931SOL    HW2 7723   2.491   2.131   3.734 -0.4038  0.1434 -0.2402
 1931SOL     MW 7724   2.485   2.081   3.663 -0.8072 -0.1578  0.0007
 1932SOL     OW 7725   1.769   1.166   2.542  0.1095  0.0172  0.7254
 1932SOL    HW1 7726   1.699   1.101   2.549  0.7372 -0.6006  1.3442
 1932SOL    HW2 7727   1.843   1.127   2.588  1.8288 -0.5897 -2.2595
 1932SOL     MW 7728   1.769   1.153   2.549  0.4099 -0.1396  0.4225
 1933SOL     OW 7729   4.693   0.310   3.569  0.4255  0.0465  0.1485
 1933SOL    HW1 7730   4.636   0.345   3.501  0.6225  2.6086  1.1893
 1933SOL    HW2 7731   4.782   0.323   3.534  0.5062 -1.2207 -0.2097
 1933SOL     MW 7732   4.697   0.316   3.555  0.4611  0.2123  0.2359
 1934SOL     OW 7733   5.310   5.162   3.402 -0.1607 -0.6663 -0.1418
 1934SOL    HW1 7734   5.290   5.083   3.352  0.9146 -0.6533 -0.6143
 1934SOL    HW2 7735   5.405   5.168   3.402 -0.2132  0.6544 -0.1731
 1934SOL     MW 7736   5.320   5.153   3.396 -0.0298 -0.4956 -0.2063
 1935SOL     OW 7737   2.482   5.069   3.133  0.6274 -0.3637  0.1943
 1935SOL    HW1 7738   2.424   5.037   3.064  0.1031  2.9832 -1.1109
 1935SOL    HW2 7739   2.434   5.053   3.214 -0.2369 -1.3961 -0.4981
 1935SOL     MW 7740   2.468   5.063   3.135  0.4497 -0.0674 -0.0614
 1936SOL     OW 7741   5.170   4.259   1.067  0.3668 -0.2442 -0.3560
 1936SOL    HW1 7742   5.230   4.316   1.115  0.5985  0.7141 -1.7536
 1936SOL    HW2 7743   5.189   4.275   0.975 -2.9289  1.1185 -0.9177
 1936SOL     MW 7744   5.180   4.268   1.061 -0.0254  0.0529 -0.6068
 1937SOL     OW 7745   1.477   3.188   1.900 -0.4755 -0.2709 -0.4725
 1937SOL    HW1 7746   1.420   3.184   1.977  1.0184 -0.0426  0.6903
 1937SOL    HW2 7747   1.450   3.267   1.854  0.0434  0.8174  1.0174
 1937SOL     MW 7748   1.466   3.198   1.904 -0.2178 -0.1024 -0.1329
 1938SOL     OW 7749   0.806   0.756   2.354 -0.2098 -0.1370 -0.0695
 1938SOL    HW1 7750   0.844   0.684   2.406  0.1036 -0.6744 -1.0197
 1938SOL    HW2 7751   0.746   0.799   2.414 -0.8617 -1.5656  0.3529
 1938SOL     MW 7752   0.803   0.752   2.368 -0.2531 -0.3887 -0.1371
 1939SOL     OW 7753   5.123   5.104   0.376  0.1174  0.2742 -0.4315
 1939SOL    HW1 7754   5.110   5.014   0.348 -0.5630  0.1461  0.2514
 1939SOL    HW2 7755   5.110   5.102   0.471 -1.5137  1.3638 -0.5989
 1939SOL     MW 7756   5.120   5.092   0.385 -0.1785  0.3973 -0.3655
 1940SOL     OW 7757   0.325   1.751   4.272  0.2362 -0.0523  0.0113
 1940SOL    HW1 7758   0.274   1.705   4.205  1.6686  0.1480 -1.2972
 1940SOL    HW2 7759   0.388   1.686   4.302  0.9803  0.4603 -0.4088
 1940SOL     MW 7760   0.327   1.737   4.267  0.5148  0.0390 -0.2100
 1941SOL     OW 7761   0.449   3.721   0.483 -0.3477  0.2121  0.3530
 1941SOL    HW1 7762   0.524   3.680   0.527  0.1087  0.3018 -0.3313
 1941SOL    HW2 7763   0.466   3.815   0.489 -1.1298  0.2969  1.4540
 1941SOL     MW 7764   0.461   3.727   0.489 -0.3894  0.2345  0.4063
 1942SOL     OW 7765   4.127   1.620   5.081 -0.3026  0.1129  0.1314
 1942SOL    HW1 7766   4.095   1.544   5.129 -1.3313  0.8853  0.7021
 1942SOL    HW2 7767   4.097   1.696   5.132  0.9118  0.9032 -0.2889
 1942SOL     MW 7768   4.119   1.620   5.093 -0.2788  0.3129  0.1507
 1943SOL     OW 7769   4.419   4.969   5.046 -0.0946  0.2628 -0.2129
 1943SOL    HW1 7770   4.449   4.995   4.959 -0.0388 -0.4322 -0.4038
 1943SOL    HW2 7771   4.392   4.878   5.036  1.0379 -0.2183  0.7577
 1943SOL     MW 7772   4.420   4.961   5.034  0.0575  0.1123 -0.1131
 1944SOL     OW 7773   5.247   2.608   5.060  0.2381  0.0381  0.3354
 1944SOL    HW1 7774   5.242   2.618   4.965 -2.3062  1.4198  0.5194
 1944SOL    HW2 7775   5.174   2.549   5.082  0.4885  0.1283  1.4611
 1944SOL     MW 7776   5.237   2.602   5.051 -0.0556  0.2265  0.5031
 1945SOL     OW 7777   4.157   0.281   5.350 -0.1048 -0.4412  0.2634
 1945SOL    HW1 7778   4.235   0.291   5.294  2.2773 -3.4177  2.7242
 1945SOL    HW2 7779   4.121   0.370   5.355  3.6943  1.3686 -0.2996
 1945SOL     MW 7780   4.162   0.294   5.343  0.6864 -0.5905  0.5063
 1946SOL     OW 7781   4.323   1.587   1.246 -0.5199 -0.0047  0.0511
 1946SOL    HW1 7782   4.232   1.605   1.270  0.1378  0.7585  2.2353
 1946SOL    HW2 7783   4.374   1.631   1.314  1.4543 -1.8335 -0.1477
 1946SOL     MW 7784   4.318   1.595   1.258 -0.1830 -0.1411  0.3052
 1947SOL     OW 7785   4.321   2.149   3.709  0.1262  0.2258  0.0225
 1947SOL    HW1 7786   4.239   2.148   3.659 -1.8829 -2.7605  2.9410
 1947SOL    HW2 7787   4.370   2.075   3.675  1.0564  1.1630 -0.7489
 1947SOL     MW 7788   4.317   2.140   3.698 -0.0119 -0.0365  0.2973
 1948SOL     OW 7789   0.847   4.866   2.714  0.2911  0.3341 -0.0696
 1948SOL    HW1 7790   0.931   4.904   2.685  0.9904 -1.1758 -0.1329
 1948SOL    HW2 7791   0.839   4.892   2.805  0.4123  1.1984 -0.2993
 1948SOL     MW 7792   0.857   4.874   2.722  0.3961  0.2515 -0.1071
 1949SOL     OW 7793   3.065   4.274   1.704  0.3717 -0.2777 -0.1409
 1949SOL    HW1 7794   3.021   4.358   1.689  0.9478  0.0457 -0.0682
 1949SOL    HW2 7795   3.036   4.247   1.791  0.1370 -0.1836 -0.1892
 1949SOL     MW 7796   3.056   4.281   1.714  0.4154 -0.2242 -0.1377
 1950SOL     OW 7797   1.715   3.338   2.280 -0.5302 -0.3954 -0.1531
 1950SOL    HW1 7798   1.711   3.403   2.210 -1.4965  0.4802  0.6805
 1950SOL    HW2 7799   1.623   3.322   2.303 -0.3239 -2.1973 -0.4426
 1950SOL     MW 7800   1.703   3.344   2.274 -0.6275 -0.5140 -0.0835
 1951SOL     OW 7801   4.432   3.281   0.449  0.1441  0.8148 -0.3268
 1951SOL    HW1 7802   4.350   3.282   0.399  0.1410  1.0927 -0.3155
 1951SOL    HW2 7803   4.430   3.361   0.500  0.3753  0.7691 -0.2460
 1951SOL     MW 7804   4.421   3.291   0.449  0.1733  0.8445 -0.3150
 1952SOL     OW 7805   2.459   2.778   2.950 -0.0783  0.2180  0.1900
 1952SOL    HW1 7806   2.413   2.771   3.034  0.6223 -1.8365  0.4449
 1952SOL    HW2 7807   2.394   2.814   2.890 -2.5064 -3.4601  0.2883
 1952SOL     MW 7808   2.445   2.782   2.953 -0.2994 -0.5158  0.2352
 1953SOL     OW 7809   1.529   4.697   4.570 -0.1152  0.4041 -0.2098
 1953SOL    HW1 7810   1.469   4.755   4.523  0.1583  1.0409  0.2138
 1953SOL    HW2 7811   1.616   4.733   4.551  0.0295  0.3489  0.3440
 1953SOL     MW 7812   1.532   4.709   4.562 -0.0617  0.4785 -0.0847
 1954SOL     OW 7813   0.784   0.326   4.914  0.4343  0.3082 -0.3304
 1954SOL    HW1 7814   0.738   0.255   4.871  1.8586  1.1472 -3.5683
 1954SOL    HW2 7815   0.855   0.283   4.962  0.8690 -0.5609 -1.6869
 1954SOL     MW 7816   0.787   0.311   4.915  0.6723  0.3043 -0.9185
 1955SOL     OW 7817   1.364   2.976   5.355  0.7402  0.0335  1.0376
 1955SOL    HW1 7818   1.419   2.972   5.277  0.2258  3.1754  0.3931
 1955SOL    HW2 7819   1.311   2.896   5.351  1.9714 -0.7498 -0.8432
 1955SOL     MW 7820   1.364   2.965   5.345  0.8320  0.3354  0.7143
 1956SOL     OW 7821   1.604   1.918   3.686  0.0133  0.0234 -0.3971
 1956SOL    HW1 7822   1.546   1.975   3.737 -1.2534 -1.1107 -0.4983
 1956SOL    HW2 7823   1.623   1.845   3.745  0.2760 -0.2496 -0.8142
 1956SOL     MW 7824   1.599   1.916   3.700 -0.1152 -0.1567 -0.4634
 1957SOL     OW 7825   1.604   4.447   4.475  0.5063  0.2594 -0.0127
 1957SOL    HW1 7826   1.572   4.394   4.547  0.1048 -0.3666 -0.6378
 1957SOL    HW2 7827   1.583   4.537   4.499  0.1902  0.0344  0.5513
 1957SOL     MW 7828   1.598   4.452   4.487  0.4144  0.1504 -0.0205
 1958SOL     OW 7829   1.389   2.167   1.373 -0.0059 -0.5240  0.3526
 1958SOL    HW1 7830   1.433   2.215   1.443 -0.9865 -0.7130  1.1125
 1958SOL    HW2 7831   1.296   2.180   1.389 -0.2761  0.2404 -1.4889
 1958SOL     MW 7832   1.383   2.175   1.384 -0.1660 -0.4503  0.2141
 1959SOL     OW 7833   4.143   2.733   2.768 -0.2288  0.3567 -0.0540
 1959SOL    HW1 7834   4.114   2.737   2.859  1.5091  3.0176  0.5089
 1959SOL    HW2 7835   4.225   2.684   2.772 -2.1416 -3.3336 -0.9913
 1959SOL     MW 7836   4.150   2.727   2.780 -0.2512  0.2249 -0.1019
 1960SOL     OW 7837   1.923   4.573   0.559  0.2219  0.0427 -0.7529
 1960SOL    HW1 7838   1.968   4.658   0.555 -0.8669  0.5874 -1.9929
 1960SOL    HW2 7839   1.830   4.595   0.553 -0.1384 -1.1810  0.0327
 1960SOL     MW 7840   1.917   4.587   0.558  0.0364 -0.0442 -0.8110
 1961SOL     OW 7841   1.216   1.847   2.094  0.2132  0.0653  0.3609
 1961SOL    HW1 7842   1.144   1.787   2.113  0.5299 -1.0041 -1.5144
 1961SOL    HW2 7843   1.201   1.922   2.151 -2.7118  0.1305 -0.3303
 1961SOL     MW 7844   1.205   1.849   2.103 -0.1207 -0.0632  0.0324
 1962SOL     OW 7845   0.512   4.374   5.183  0.3371 -0.9127  0.0194
 1962SOL    HW1 7846   0.602   4.369   5.215  0.2376 -0.4481  0.3679
 1962SOL    HW2 7847   0.520   4.415   5.097  0.4033 -0.3600  0.2869
 1962SOL     MW 7848   0.524   4.378   5.176  0.3328 -0.7825  0.0982
 1963SOL     OW 7849   4.283   3.333   4.245  0.6551  0.5350  0.1968
 1963SOL    HW1 7850   4.189   3.329   4.260  0.4636  1.9604 -0.5426
 1963SOL    HW2 7851   4.318   3.381   4.320  0.6475  0.9975 -0.0937
 1963SOL     MW 7852   4.276   3.338   4.257  0.6296  0.7766  0.0649
 1964SOL     OW 7853   5.262   4.976   2.117 -0.2519  0.1653  0.1754
 1964SOL    HW1 7854   5.255   4.911   2.187  1.0483  0.9850  1.1033
 1964SOL    HW2 7855   5.356   4.992   2.108 -0.4953  1.2746 -0.6327
 1964SOL     MW 7856   5.273   4.970   2.125 -0.1166  0.4123  0.1908
 1965SOL     OW 7857   4.674   0.319   3.122 -0.2618  0.1837  0.0398
 1965SOL    HW1 7858   4.761   0.352   3.103 -0.3276  0.3643  0.0521
 1965SOL    HW2 7859   4.687   0.227   3.144 -0.2417 -0.2254 -1.5312
 1965SOL     MW 7860   4.687   0.311   3.122 -0.2677  0.1544 -0.1597
 1966SOL     OW 7861   3.605   1.253   1.069 -0.0386 -0.2465 -0.4807
 1966SOL    HW1 7862   3.699   1.272   1.067 -0.6135  3.0376 -0.8732
 1966SOL    HW2 7863   3.570   1.314   1.134 -1.9242 -1.4286 -0.3371
 1966SOL     MW 7864   3.613   1.263   1.077 -0.3536  0.0226 -0.5125
 1967SOL     OW 7865   1.338   2.575   1.304  0.4303 -0.0236  0.0854
 1967SOL    HW1 7866   1.297   2.594   1.220 -0.0137  1.1137  0.5485
 1967SOL    HW2 7867   1.424   2.539   1.280  0.5723  0.8937 -0.8449
 1967SOL     MW 7868   1.344   2.572   1.290  0.3916  0.2394  0.0256
 1968SOL     OW 7869   0.647   5.455   4.411  0.3065 -0.0304 -0.5289
 1968SOL    HW1 7870   0.656   5.512   4.486  0.0382 -0.0854 -0.4551
 1968SOL    HW2 7871   0.604   5.377   4.445 -1.2197  0.5619 -1.0383
 1968SOL     MW 7872   0.643   5.452   4.425  0.0767  0.0384 -0.5847
 1969SOL     OW 7873   4.361   0.533   4.871 -0.4278 -0.0027  0.3492
 1969SOL    HW1 7874   4.358   0.584   4.790 -0.2985 -2.4362 -1.3036
 1969SOL    HW2 7875   4.271   0.536   4.904 -0.8921 -0.3307 -0.8240
 1969SOL     MW 7876   4.349   0.540   4.865 -0.4707 -0.3562 -0.0126
 1970SOL     OW 7877   0.733   1.141   1.937  0.1257  0.5391 -0.6488
 1970SOL    HW1 7878   0.702   1.209   1.877 -0.6174 -0.4747 -1.4478
 1970SOL    HW2 7879   0.672   1.068   1.924  0.5228 -0.0514  0.6569
 1970SOL     MW 7880   0.721   1.140   1.927  0.0814  0.3338 -0.5839
 1971SOL     OW 7881   3.521   3.354   1.896  0.1479 -0.2070  0.0001
 1971SOL    HW1 7882   3.506   3.334   1.804  1.1904 -0.2305 -0.1771
 1971SOL    HW2 7883   3.555   3.273   1.934 -1.2873 -0.5288  0.6721
 1971SOL     MW 7884   3.524   3.341   1.889  0.0976 -0.2512  0.0634
 1972SOL     OW 7885   2.859   3.117   3.286 -0.3104 -0.1678 -0.0108
 1972SOL    HW1 7886   2.914   3.168   3.345 -1.7566  0.0486  1.1914
 1972SOL    HW2 7887   2.912   3.040   3.265  0.3240 -0.1377  1.3815
 1972SOL     MW 7888   2.873   3.114   3.291 -0.4143 -0.1362  0.3213
 1973SOL     OW 7889   2.734   3.826   5.202 -0.1194 -0.6791 -0.1882
 1973SOL    HW1 7890   2.728   3.920   5.222 -1.7288 -0.1185 -2.8460
 1973SOL    HW2 7891   2.652   3.789   5.233  0.3620 -1.1972  0.5237
 1973SOL     MW 7892   2.723   3.834   5.209 -0.2638 -0.6737 -0.4373
 1974SOL     OW 7893   3.633   2.758   2.499  0.1213  0.0456  0.1216
 1974SOL    HW1 7894   3.567   2.791   2.439  2.1378  2.6384 -0.8634
 1974SOL    HW2 7895   3.592   2.760   2.585 -1.5778 -0.0756 -0.6525
 1974SOL     MW 7896   3.619   2.762   2.502  0.1619  0.3620 -0.1036
 1975SOL     OW 7897   3.282   4.901   1.234  0.0679  0.1137  0.0502
 1975SOL    HW1 7898   3.286   4.996   1.223  0.0271  0.0191 -0.9346
 1975SOL    HW2 7899   3.327   4.866   1.157  1.0136 -0.6646  0.9243
 1975SOL     MW 7900   3.289   4.908   1.223  0.1837  0.0019  0.0361
 1976SOL     OW 7901   1.792   3.255   4.373 -0.3476 -0.2104 -0.1322
 1976SOL    HW1 7902   1.769   3.334   4.423 -1.2606  0.3998 -1.4574
 1976SOL    HW2 7903   1.731   3.255   4.299  1.2105 -0.8619 -1.4721
 1976SOL     MW 7904   1.781   3.265   4.370 -0.2650 -0.2157 -0.4734
 1977SOL     OW 7905   0.745   0.369   0.165 -0.2781 -0.7502 -0.0135
 1977SOL    HW1 7906   0.745   0.277   0.139 -0.4360 -1.3268  1.8468
 1977SOL    HW2 7907   0.683   0.373   0.238  0.2007  0.7076  0.3501
 1977SOL     MW 7908   0.737   0.358   0.171 -0.2370 -0.6374  0.2712
 1978SOL     OW 7909   2.341   3.422   0.503  0.3124 -0.0428 -0.2273
 1978SOL    HW1 7910   2.370   3.509   0.530 -0.8170  0.3301 -0.1464
 1978SOL    HW2 7911   2.286   3.392   0.575 -1.9694  0.5646 -1.6111
 1978SOL     MW 7912   2.337   3.429   0.515 -0.1243  0.0827 -0.3941
 1979SOL     OW 7913   5.272   3.774   0.113 -0.0373 -0.2102  0.0361
 1979SOL    HW1 7914   5.259   3.680   0.127 -1.0806 -0.3794 -1.6774
 1979SOL    HW2 7915   5.339   3.799   0.175  0.9256 -2.2859 -0.0810
 1979SOL     MW 7916   5.279   3.765   0.122 -0.0476 -0.4975 -0.1982
 1980SOL     OW 7917   5.049   4.428   0.570  0.5623  0.1427 -0.1648
 1980SOL    HW1 7918   5.023   4.521   0.572 -1.5053 -0.3772  2.9509
 1980SOL    HW2 7919   4.996   4.391   0.499  0.5413  1.0877 -0.6711
 1980SOL     MW 7920   5.039   4.435   0.561  0.2949  0.1971  0.1692
 1981SOL     OW 7921   3.268   2.748   0.326  0.0357  1.1353  0.4234
 1981SOL    HW1 7922   3.199   2.810   0.300 -0.6216 -0.1811 -1.1533
 1981SOL    HW2 7923   3.226   2.691   0.390 -0.8295 -0.4144 -1.3940
 1981SOL     MW 7924   3.254   2.749   0.331 -0.1592  0.7684 -0.0111
 1982SOL     OW 7925   1.413   3.948   2.484  0.0761 -0.1211  0.0844
 1982SOL    HW1 7926   1.478   4.018   2.474 -1.6503  1.5187 -0.1859
 1982SOL    HW2 7927   1.458   3.881   2.537  2.5331  0.1379 -1.5043
 1982SOL     MW 7928   1.427   3.948   2.490  0.1696  0.1219 -0.1536
 1983SOL     OW 7929   0.303   2.579   2.897 -0.1589  0.0783 -0.2964
 1983SOL    HW1 7930   0.364   2.510   2.873  0.7693  0.2340  1.4677
 1983SOL    HW2 7931   0.224   2.560   2.847  0.7569 -1.1109 -1.3314
 1983SOL     MW 7932   0.301   2.568   2.888  0.0771 -0.0540 -0.2031
 1984SOL     OW 7933   5.221   1.759   3.563  0.5775 -0.4411  0.2490
 1984SOL    HW1 7934   5.244   1.721   3.648 -0.4591  0.0603  0.7643
 1984SOL    HW2 7935   5.136   1.800   3.577  0.8382  0.4925 -0.7767
 1984SOL     MW 7936   5.213   1.760   3.576  0.4782 -0.2574  0.1837
 1985SOL     OW 7937   0.103   1.121   2.362  0.0978 -0.0447  0.0246
 1985SOL    HW1 7938   0.106   1.156   2.273  0.7969  0.3250  0.1871
 1985SOL    HW2 7939   0.078   1.029   2.351  0.5367 -0.0981 -0.5803
 1985SOL     MW 7940   0.100   1.114   2.349  0.2435 -0.0042 -0.0320
 1986SOL     OW 7941   5.082   0.454   3.916  0.0953 -0.4394 -0.2676
 1986SOL    HW1 7942   5.112   0.381   3.861  0.9971  0.6378 -1.2640
 1986SOL    HW2 7943   4.997   0.478   3.879  1.4585  1.4441 -2.4999
 1986SOL     MW 7944   5.075   0.448   3.904  0.3852 -0.0604 -0.6809
 1987SOL     OW 7945   4.171   3.030   2.770 -0.4926  0.4975  0.0398
 1987SOL    HW1 7946   4.140   3.079   2.846 -0.1877 -0.8883  1.1075
 1987SOL    HW2 7947   4.138   2.941   2.784  1.6174 -0.3806 -0.1493
 1987SOL     MW 7948   4.163   3.025   2.782 -0.1835  0.2077  0.1523
 1988SOL     OW 7949   2.102   3.731   1.944  0.2806  0.4145  0.0660
 1988SOL    HW1 7950   2.050   3.695   2.016 -3.4996 -0.7070 -2.9018
 1988SOL    HW2 7951   2.140   3.655   1.901 -1.5412  0.5420 -1.8782
 1988SOL     MW 7952   2.101   3.717   1.948 -0.4365  0.2873 -0.5628
 1989SOL     OW 7953   1.540   0.295   4.826  0.4173  0.3321 -0.7282
 1989SOL    HW1 7954   1.585   0.224   4.871  1.4470  0.6418 -1.2232
 1989SOL    HW2 7955   1.477   0.251   4.769 -0.4595 -0.0816  0.5281
 1989SOL     MW 7956   1.538   0.280   4.824  0.4369  0.3188 -0.6308
 1990SOL     OW 7957   1.778   2.718   1.840  0.1228 -0.2401 -0.2094
 1990SOL    HW1 7958   1.784   2.698   1.934  2.6176  0.4756 -0.1579
 1990SOL    HW2 7959   1.810   2.808   1.832 -0.4735 -0.1295 -1.7346
 1990SOL     MW 7960   1.783   2.727   1.851  0.3658 -0.1343 -0.3981
 1991SOL     OW 7961   4.242   3.652   3.374 -0.0642 -0.4836  0.0632
 1991SOL    HW1 7962   4.336   3.639   3.362 -0.0111 -1.2011  1.1221
 1991SOL    HW2 7963   4.202   3.581   3.323 -0.2147  1.5931 -2.9933
 1991SOL     MW 7964   4.249   3.641   3.366 -0.0767 -0.3096 -0.1925
 1992SOL     OW 7965   0.445   0.795   3.156  0.0814 -0.4704  0.4078
 1992SOL    HW1 7966   0.490   0.847   3.089  1.1042  0.1723  1.5519
 1992SOL    HW2 7967   0.379   0.854   3.191 -1.6460 -1.3727 -1.1825
 1992SOL     MW 7968   0.442   0.809   3.152 -0.0088 -0.5037  0.3507
 1993SOL     OW 7969   5.314   4.060   1.408 -0.2580 -0.1678  0.6213
 1993SOL    HW1 7970   5.354   4.132   1.360  1.2307 -1.8254 -0.7535
 1993SOL    HW2 7971   5.264   4.102   1.478 -1.3416  2.2978 -1.4818
 1993SOL     MW 7972   5.313   4.074   1.410 -0.2061 -0.0644  0.1761
 1994SOL     OW 7973   0.254   4.040   3.129 -0.7881  0.0294 -0.5146
 1994SOL    HW1 7974   0.183   4.060   3.067 -0.6524 -0.5413 -0.8565
 1994SOL    HW2 7975   0.320   4.107   3.111 -0.2470 -0.8064 -1.7947
 1994SOL     MW 7976   0.253   4.052   3.119 -0.7014 -0.1506 -0.7222
 1995SOL     OW 7977   4.800   2.287   2.515  0.1104  0.3997 -0.0122
 1995SOL    HW1 7978   4.816   2.326   2.601 -1.2710  1.5463 -0.2397
 1995SOL    HW2 7979   4.705   2.288   2.506  0.0926 -1.8382 -0.6127
 1995SOL     MW 7980   4.790   2.292   2.525 -0.0687  0.2600 -0.1182
 1996SOL     OW 7981   4.463   5.305   1.968  0.1442  0.7941  0.3342
 1996SOL    HW1 7982   4.461   5.347   1.882 -1.1374  0.1008  0.0019
 1996SOL    HW2 7983   4.436   5.374   2.029  0.1986  1.0484  0.0740
 1996SOL     MW 7984   4.459   5.319   1.965 -0.0129  0.7379  0.2583
 1997SOL     OW 7985   2.189   1.757   3.038 -0.1119 -0.5060  0.4215
 1997SOL    HW1 7986   2.135   1.678   3.045  0.7138 -1.0876  0.3782
 1997SOL    HW2 7987   2.279   1.724   3.033  0.4204  0.5068  2.4642
 1997SOL     MW 7988   2.194   1.742   3.038  0.0620 -0.4508  0.6775
 1998SOL     OW 7989   1.538   4.007   1.819  0.4264 -0.6079  0.6223
 1998SOL    HW1 7990   1.448   4.005   1.853  0.2084 -0.1144  0.0902
 1998SOL    HW2 7991   1.590   3.962   1.886  0.0476  0.5610  1.7353
 1998SOL     MW 7992   1.533   4.001   1.832  0.3500 -0.3951  0.6966
 1999SOL     OW 7993   5.237   3.466   5.379 -0.3072 -0.0088 -0.1151
 1999SOL    HW1 7994   5.219   3.494   5.469  1.7632 -0.7780  0.5918
 1999SOL    HW2 7995   5.248   3.547   5.330  0.4636  0.4420  0.7695
 1999SOL     MW 7996   5.236   3.480   5.385  0.0565 -0.0496  0.0887
 2000SOL     OW 7997   3.325   4.063   0.495 -0.1381  0.1679  0.1265
 2000SOL    HW1 7998   3.339   3.971   0.515  0.9626  0.1609 -0.5410
 2000SOL    HW2 7999   3.304   4.104   0.579 -0.6394 -0.6822  0.4233
 2000SOL     MW 8000   3.324   4.057   0.508 -0.0613  0.0582  0.0790
 2001SOL     OW 8001   1.888   2.271   3.365  0.1007 -0.5310 -0.6275
 2001SOL    HW1 8002   1.922   2.184   3.347  0.3300 -1.2424  2.6082
 2001SOL    HW2 8003   1.950   2.331   3.324  1.9633 -1.8917  0.0665
 2001SOL     MW 8004   1.900   2.268   3.358  0.3685 -0.7962 -0.1244
 2002SOL     OW 8005   4.013   2.418   1.129  0.4547 -0.0297  0.1021
 2002SOL    HW1 8006   4.103   2.391   1.111  0.8557  1.1262  0.2776
 2002SOL    HW2 8007   4.013   2.441   1.222 -0.6118 -2.1777  0.6912
 2002SOL     MW 8008   4.025   2.418   1.139  0.3695 -0.1567  0.2000
 2003SOL     OW 8009   4.731   3.774   0.048 -0.0721 -0.2592  0.2850
 2003SOL    HW1 8010   4.786   3.736  -0.020 -0.7732  1.2744 -1.1995
 2003SOL    HW2 8011   4.787   3.776   0.126  0.5394 -2.6563 -0.0023
 2003SOL     MW 8012   4.745   3.769   0.049 -0.0835 -0.3698  0.0582
 2004SOL     OW 8013   2.333   3.661   0.746  0.1430 -0.0012  0.5462
 2004SOL    HW1 8014   2.333   3.751   0.778  0.0826  0.0719  0.3459
 2004SOL    HW2 8015   2.394   3.662   0.672 -1.3868  0.3675 -0.7708
 2004SOL     MW 8016   2.341   3.673   0.740 -0.0606  0.0553  0.3520
 2005SOL     OW 8017   2.945   4.260   3.400 -0.2229  0.2303  0.6651
 2005SOL    HW1 8018   3.013   4.193   3.414  0.2289  0.4552 -0.3868
 2005SOL    HW2 8019   2.991   4.343   3.412 -0.0334  0.4088 -1.1507
 2005SOL     MW 8020   2.960   4.262   3.404 -0.1408  0.2820  0.2980
 2006SOL     OW 8021   0.551   2.338   2.172 -0.5391 -0.1030  0.2087
 2006SOL    HW1 8022   0.497   2.259   2.164 -0.0768 -0.3860 -0.2523
 2006SOL    HW2 8023   0.521   2.396   2.102  0.3772 -0.6583 -0.6836
 2006SOL     MW 8024   0.540   2.335   2.162 -0.3626 -0.2104  0.0355
 2007SOL     OW 8025   1.691   1.346   3.191 -0.2845  0.6791  0.2618
 2007SOL    HW1 8026   1.704   1.440   3.180  0.4229  0.4134 -1.3690
 2007SOL    HW2 8027   1.742   1.324   3.269 -0.0469  1.5536  0.3619
 2007SOL     MW 8028   1.699   1.355   3.200 -0.1635  0.7570  0.0658
 2008SOL     OW 8029   2.261   4.038   1.396 -0.1500 -0.7439 -0.0628
 2008SOL    HW1 8030   2.266   4.064   1.488  0.7552 -1.0912 -0.0056
 2008SOL    HW2 8031   2.280   3.944   1.397  0.8341 -0.5682 -0.6932
 2008SOL     MW 8032   2.264   4.029   1.408  0.0919 -0.7659 -0.1362
 2009SOL     OW 8033   0.713   0.391   2.702 -0.0076  0.1502  0.1762
 2009SOL    HW1 8034   0.773   0.392   2.777 -0.1243  0.8397  0.2679
 2009SOL    HW2 8035   0.636   0.440   2.732 -0.8572 -1.1698  0.2396
 2009SOL     MW 8036   0.711   0.397   2.715 -0.1313  0.0695  0.1961
 2010SOL     OW 8037   2.906   5.226   0.142  0.0482  0.0256  0.2668
 2010SOL    HW1 8038   2.936   5.205   0.053  2.5883  0.6925  0.8827
 2010SOL    HW2 8039   2.811   5.231   0.134  0.1084 -0.9615 -2.1805
 2010SOL     MW 8040   2.898   5.224   0.129  0.3811 -0.0154  0.0323
 2011SOL     OW 8041   4.101   3.641   0.241  0.6175 -0.1293  0.3041
 2011SOL    HW1 8042   4.117   3.714   0.182  0.5930  1.0187  1.6769
 2011SOL    HW2 8043   4.181   3.634   0.293  0.2208 -0.3975  0.8875
 2011SOL     MW 8044   4.113   3.649   0.240  0.5636 -0.0167  0.5545
 2012SOL     OW 8045   1.989   1.077   0.902  0.1264  0.6374  0.3009
 2012SOL    HW1 8046   1.942   1.074   0.985  0.0453 -1.3892  0.2373
 2012SOL    HW2 8047   2.077   1.108   0.926 -0.1643  0.9460  0.9928
 2012SOL     MW 8048   1.994   1.080   0.916  0.0788  0.4175  0.3814
 2013SOL     OW 8049   3.769   4.084   4.953  0.2876  0.0546  0.2572
 2013SOL    HW1 8050   3.814   4.000   4.970  0.9765  0.5160  0.7897
 2013SOL    HW2 8051   3.772   4.129   5.037 -1.9791 -0.2484  0.5413
 2013SOL     MW 8052   3.775   4.079   4.966  0.0856  0.0749  0.3618
 2014SOL     OW 8053   4.979   0.676   3.287 -0.0876  0.5577 -0.2648
 2014SOL    HW1 8054   4.912   0.631   3.339  2.1313 -1.6383  0.8744
 2014SOL    HW2 8055   5.010   0.747   3.343 -0.1844  0.4422 -0.0638
 2014SOL     MW 8056   4.974   0.679   3.301  0.1841  0.2618 -0.0932
 2015SOL     OW 8057   4.680   3.876   4.348 -0.2356  0.1164 -0.0402
 2015SOL    HW1 8058   4.769   3.873   4.313 -0.7067 -1.3895 -1.1981
 2015SOL    HW2 8059   4.674   3.962   4.390  2.2141 -0.3010  1.3440
 2015SOL     MW 8060   4.691   3.887   4.349  0.0177 -0.1298 -0.0112
 2016SOL     OW 8061   5.271   1.208   0.210 -0.2552 -0.1507 -0.3662
 2016SOL    HW1 8062   5.184   1.192   0.174 -0.6069  0.8668  0.0142
 2016SOL    HW2 8063   5.311   1.121   0.215 -0.7740 -0.4937 -1.7187
 2016SOL     MW 8064   5.265   1.194   0.206 -0.3666 -0.0644 -0.4906
 2017SOL     OW 8065   4.289   4.422   2.028 -0.0352  0.5470 -0.5251
 2017SOL    HW1 8066   4.203   4.388   2.006  0.7741 -0.5141 -2.2573
 2017SOL    HW2 8067   4.319   4.467   1.949  1.7843 -0.8176 -0.6907
 2017SOL     MW 8068   4.282   4.423   2.015  0.3014  0.2365 -0.7680
 2018SOL     OW 8069   0.149   1.878   3.688  0.4820 -0.0942  0.1247
 2018SOL    HW1 8070   0.136   1.864   3.781 -0.1797  1.2485  0.2640
 2018SOL    HW2 8071   0.200   1.802   3.659  0.7006 -0.5325  1.5627
 2018SOL     MW 8072   0.154   1.867   3.696  0.4253  0.0216  0.3266
 2019SOL     OW 8073   4.916   4.594   3.906  0.0334 -0.1264  0.6801
 2019SOL    HW1 8074   4.950   4.654   3.973 -2.2449  0.9590  0.9483
 2019SOL    HW2 8075   4.967   4.514   3.919  0.8328  0.6178  2.5922
 2019SOL     MW 8076   4.927   4.591   3.916 -0.1559  0.1078  0.9592
 2020SOL     OW 8077   3.173   2.323   0.426  0.2246 -0.3441  0.3165
 2020SOL    HW1 8078   3.086   2.289   0.448 -0.2580 -0.3329 -1.4115
 2020SOL    HW2 8079   3.230   2.291   0.495 -0.9336 -1.4000  0.8166
 2020SOL     MW 8080   3.169   2.315   0.437  0.0145 -0.4778  0.1593
 2021SOL     OW 8081   2.039   4.819   0.622  0.5450 -0.1569 -0.0296
 2021SOL    HW1 8082   2.061   4.890   0.562  1.2120  0.2776  0.7183
 2021SOL    HW2 8083   2.117   4.807   0.675 -0.2532 -0.0787  1.2086
 2021SOL     MW 8084   2.052   4.826   0.621  0.5282 -0.0912  0.2247
 2022SOL     OW 8085   4.029   2.890   3.896  0.2021 -0.1966 -0.0141
 2022SOL    HW1 8086   4.101   2.842   3.854 -0.3828 -0.1962 -1.0377
 2022SOL    HW2 8087   4.034   2.864   3.988 -0.3190 -2.5334 -0.5855
 2022SOL     MW 8088   4.039   2.881   3.902  0.0605 -0.4957 -0.2183
 2023SOL     OW 8089   1.490   5.401   0.835 -0.4287 -0.1337  0.0181
 2023SOL    HW1 8090   1.560   5.445   0.788  0.3719 -0.7927  0.5768
 2023SOL    HW2 8091   1.434   5.365   0.767 -0.3624  0.5911 -0.4325
 2023SOL     MW 8092   1.492   5.402   0.820 -0.3177 -0.1252  0.0320
 2024SOL     OW 8093   1.738   3.584   0.762 -0.0366  0.2893 -0.1329
 2024SOL    HW1 8094   1.832   3.581   0.778  0.1627  1.5443 -0.9434
 2024SOL    HW2 8095   1.717   3.677   0.759 -1.1595  0.0335 -0.7192
 2024SOL     MW 8096   1.747   3.595   0.763 -0.1548  0.4172 -0.3117
 2025SOL     OW 8097   2.250   3.467   0.220  0.2179 -0.2406  0.0839
 2025SOL    HW1 8098   2.308   3.468   0.144  0.3317  0.4378  0.1763
 2025SOL    HW2 8099   2.308   3.451   0.294  0.0356 -1.4800 -0.0198
 2025SOL     MW 8100   2.265   3.465   0.220  0.2091 -0.3124  0.0824
 2026SOL     OW 8101   4.555   5.364   2.853 -0.4637  0.3082  0.0686
 2026SOL    HW1 8102   4.584   5.441   2.805 -0.8440  1.2680  1.3326
 2026SOL    HW2 8103   4.630   5.339   2.906 -0.7034  0.5138  0.5144
 2026SOL     MW 8104   4.568   5.370   2.854 -0.5431  0.4574  0.2875
 2027SOL     OW 8105   4.908   3.221   0.499 -0.3126  0.3797  0.5890
 2027SOL    HW1 8106   4.887   3.308   0.465 -1.4226  0.1083  0.5454
 2027SOL    HW2 8107   4.842   3.163   0.459 -1.4144 -0.0165  2.8396
 2027SOL     MW 8108   4.897   3.225   0.489 -0.5958  0.2943  0.8715
 2028SOL     OW 8109   2.599   2.467   4.745  0.6783 -0.0066  0.2312
 2028SOL    HW1 8110   2.609   2.538   4.683  1.1045  1.2643  1.6956
 2028SOL    HW2 8111   2.517   2.424   4.719 -0.3079  1.8460  0.0966
 2028SOL     MW 8112   2.590   2.470   4.734  0.6066  0.3932  0.4014
 2029SOL     OW 8113   0.058   0.441   0.359  0.0270  0.2992  0.6457
 2029SOL    HW1 8114   0.069   0.405   0.271  0.3124  1.0923  0.3561
 2029SOL    HW2 8115   0.106   0.381   0.416  0.1178 -0.0325  0.2208
 2029SOL     MW 8116   0.065   0.429   0.355  0.0752  0.3583  0.5542
 2030SOL     OW 8117   4.723   3.165   2.977 -0.6817  0.0576 -0.9976
 2030SOL    HW1 8118   4.718   3.109   3.054 -1.0752 -0.5878 -1.4772
 2030SOL    HW2 8119   4.716   3.254   3.012 -3.2458 -0.2691 -0.4238
 2030SOL     MW 8120   4.721   3.170   2.991 -1.0603 -0.0669 -0.9856
 2031SOL     OW 8121   5.050   1.441   2.488 -0.0468 -0.0099 -0.5057
 2031SOL    HW1 8122   4.985   1.463   2.422  0.5848 -0.5988 -1.3582
 2031SOL    HW2 8123   5.026   1.492   2.565 -1.9818 -0.8225 -0.5257
 2031SOL     MW 8124   5.039   1.450   2.489 -0.2137 -0.1893 -0.6174
 2032SOL     OW 8125   1.079   5.100   0.859 -0.4149 -0.0690  0.0068
 2032SOL    HW1 8126   1.063   5.016   0.816  1.5979 -1.2791  1.4412
 2032SOL    HW2 8127   1.016   5.103   0.931 -1.2641  0.2238 -0.7304
 2032SOL     MW 8128   1.069   5.090   0.862 -0.2659 -0.1865  0.0961
 2033SOL     OW 8129   4.302   3.743   0.709  0.1139  0.2437 -0.2610
 2033SOL    HW1 8130   4.221   3.694   0.698  0.6277 -0.4632 -1.0161
 2033SOL    HW2 8131   4.342   3.707   0.788 -0.4677  0.8348  0.3088
 2033SOL     MW 8132   4.297   3.732   0.718  0.1053  0.2289 -0.2847
 2034SOL     OW 8133   0.478   2.526   4.459  0.2103 -0.4150  0.0162
 2034SOL    HW1 8134   0.551   2.465   4.468  0.4945  0.1133  1.5376
 2034SOL    HW2 8135   0.410   2.492   4.516  0.2084  0.4227  0.5407
 2034SOL     MW 8136   0.479   2.514   4.467  0.2464 -0.2401  0.2781
 2035SOL     OW 8137   4.902   5.337   4.303  0.4143 -0.0356  0.5258
 2035SOL    HW1 8138   4.922   5.430   4.301  0.9380 -0.0406  2.7485
 2035SOL    HW2 8139   4.973   5.295   4.255  0.1589  0.7036 -0.5068
 2035SOL     MW 8140   4.913   5.343   4.297  0.4486  0.0584  0.6782
 2036SOL     OW 8141   4.413   3.612   4.658 -0.3631  0.1176  0.5373
 2036SOL    HW1 8142   4.496   3.649   4.628  0.1231  0.2532  2.0083
 2036SOL    HW2 8143   4.354   3.626   4.584  1.4565 -2.0839 -1.4793
 2036SOL     MW 8144   4.416   3.619   4.644 -0.0679 -0.1469  0.4675
 2037SOL     OW 8145   3.379   0.275   0.635 -0.0570  0.6706 -0.1537
 2037SOL    HW1 8146   3.460   0.326   0.641  0.1031  0.5119 -0.8820
 2037SOL    HW2 8147   3.313   0.338   0.607 -0.0948  0.7159  0.0407
 2037SOL     MW 8148   3.381   0.290   0.632 -0.0413  0.6561 -0.2220
 2038SOL     OW 8149   2.773   1.995   4.312 -0.0498 -0.3817  0.1589
 2038SOL    HW1 8150   2.733   2.036   4.389  3.1606  0.9174  1.3195
 2038SOL    HW2 8151   2.770   1.901   4.330 -1.6126 -0.2729  0.6180
 2038SOL     MW 8152   2.768   1.989   4.324  0.1611 -0.2015  0.3663
 2039SOL     OW 8153   5.197   4.658   0.989  0.0199 -0.0316 -0.4878
 2039SOL    HW1 8154   5.270   4.670   1.050 -0.3316 -0.1602 -0.0420
 2039SOL    HW2 8155   5.229   4.594   0.926  0.6383  0.6140 -0.8527
 2039SOL     MW 8156   5.211   4.652   0.989  0.0541  0.0346 -0.4774
 2040SOL     OW 8157   3.044   3.122   1.102 -0.0576 -0.1537  0.0890
 2040SOL    HW1 8158   3.021   3.044   1.053  0.8098 -1.4395  1.6267
 2040SOL    HW2 8159   3.086   3.089   1.182  0.3863  1.8794  0.7641
 2040SOL     MW 8160   3.046   3.108   1.106  0.1103 -0.0580  0.3723
 2041SOL     OW 8161   1.055   1.480   5.002  0.1415  0.4404 -0.5403
 2041SOL    HW1 8162   1.016   1.485   4.914 -0.4275 -0.0095 -0.3202
 2041SOL    HW2 8163   1.135   1.429   4.990  0.7613  1.4936 -1.0253
 2041SOL     MW 8164   1.060   1.474   4.989  0.1480  0.5176 -0.5742
 2042SOL     OW 8165   5.105   0.443   4.903  0.5738 -0.1645  0.2175
 2042SOL    HW1 8166   5.158   0.412   4.976  0.2834 -1.0183  0.0839
 2042SOL    HW2 8167   5.066   0.363   4.866 -1.2979  0.4575  0.7042
 2042SOL     MW 8168   5.107   0.429   4.908  0.2970 -0.1942  0.2627
 2043SOL     OW 8169   4.375   0.048   0.428  0.6399  0.0219 -0.1392
 2043SOL    HW1 8170   4.309  -0.021   0.439  0.3828 -0.0405 -1.7941
 2043SOL    HW2 8171   4.408   0.035   0.338  2.6529  0.2797  0.5080
 2043SOL     MW 8172   4.371   0.037   0.418  0.8647  0.0469 -0.2682
 2044SOL     OW 8173   1.160   5.101   0.549 -0.0613 -0.0517  0.0734
 2044SOL    HW1 8174   1.243   5.122   0.591  0.3436 -0.2348 -0.6225
 2044SOL    HW2 8175   1.144   5.175   0.490 -0.5053  0.0938  0.3785
 2044SOL     MW 8176   1.169   5.113   0.547 -0.0663 -0.0565  0.0234
 2045SOL     OW 8177   0.864   0.177   3.424  0.0161 -0.0357 -0.5487
 2045SOL    HW1 8178   0.770   0.162   3.427 -0.1501  0.9550 -0.6075
 2045SOL    HW2 8179   0.892   0.176   3.516  0.2181 -1.8236 -0.5861
 2045SOL     MW 8180   0.856   0.175   3.436  0.0207 -0.1377 -0.5610
 2046SOL     OW 8181   3.379   1.634   1.979  0.2580  0.2120 -0.0961
 2046SOL    HW1 8182   3.359   1.674   1.894 -1.0061 -0.6751 -0.2447
 2046SOL    HW2 8183   3.303   1.578   1.998  1.3595 -1.0626  0.7375
 2046SOL     MW 8184   3.367   1.632   1.971  0.2372 -0.0647 -0.0084
 2047SOL     OW 8185   5.144   0.390   5.161  0.0165 -0.2140  0.2248
 2047SOL    HW1 8186   5.149   0.335   5.239  2.1260 -0.5018 -0.0379
 2047SOL    HW2 8187   5.117   0.476   5.193 -0.3371 -0.6290  1.0780
 2047SOL     MW 8188   5.141   0.394   5.175  0.2413 -0.3040  0.3004
 2048SOL     OW 8189   4.620   1.626   0.610  0.4217 -0.9311 -0.5484
 2048SOL    HW1 8190   4.666   1.710   0.613 -0.9875 -0.0912 -1.3950
 2048SOL    HW2 8191   4.660   1.575   0.681  1.7124  0.2212 -0.3918
 2048SOL     MW 8192   4.631   1.631   0.620  0.4065 -0.6760 -0.6367
 2049SOL     OW 8193   1.423   1.567   0.176  0.1479 -0.3313 -0.1671
 2049SOL    HW1 8194   1.384   1.516   0.105 -1.4524 -1.7428  1.6298
 2049SOL    HW2 8195   1.349   1.611   0.218  0.1555 -3.4537  3.6438
 2049SOL     MW 8196   1.409   1.566   0.172 -0.0560 -0.9117  0.5508
 2050SOL     OW 8197   3.581   3.920   1.419  0.0222  0.6301 -0.4036
 2050SOL    HW1 8198   3.609   3.949   1.506 -2.5004  2.7290 -0.1684
 2050SOL    HW2 8199   3.577   3.824   1.426  1.6863  0.6263  1.1546
 2050SOL     MW 8200   3.584   3.911   1.431 -0.0877  0.8983 -0.1741
 2051SOL     OW 8201   0.859   4.483   0.002  0.2488  0.1315  0.6174
 2051SOL    HW1 8202   0.924   4.413   0.005  1.1485  0.9513  0.5587
 2051SOL    HW2 8203   0.910   4.563   0.002 -0.7775  0.7977  0.7974
 2051SOL     MW 8204   0.874   4.484   0.002  0.2326  0.3218  0.6329
 2052SOL     OW 8205   1.575   1.440   1.164  0.0206 -0.3813  0.2318
 2052SOL    HW1 8206   1.618   1.399   1.089 -0.8940  0.9342 -1.0879
 2052SOL    HW2 8207   1.519   1.372   1.200 -0.9742 -0.5517 -1.4974
 2052SOL     MW 8208   1.574   1.426   1.159 -0.2238 -0.2347 -0.1585
 2053SOL     OW 8209   1.748   0.849   5.066  0.2141  0.1174  0.4057
 2053SOL    HW1 8210   1.762   0.820   5.156 -1.6977 -0.1066  0.6753
 2053SOL    HW2 8211   1.655   0.830   5.049  0.5401  0.1245 -1.6202
 2053SOL     MW 8212   1.738   0.843   5.076  0.0111  0.0896  0.1809
 2054SOL     OW 8213   0.259   3.525   1.910 -0.1876  0.1243 -0.4129
 2054SOL    HW1 8214   0.325   3.462   1.882 -2.1730 -1.2250 -2.4884
 2054SOL    HW2 8215   0.207   3.542   1.831 -0.9326  2.9420  0.5381
 2054SOL     MW 8216   0.260   3.519   1.896 -0.5371  0.3123 -0.5569
 2055SOL     OW 8217   5.406   3.037   1.475  0.1989 -0.3755  0.2536
 2055SOL    HW1 8218   5.446   3.122   1.458  0.6314 -0.7497 -0.6698
 2055SOL    HW2 8219   5.422   2.986   1.395 -1.2995 -0.8601  0.2380
 2055SOL     MW 8220   5.413   3.041   1.463  0.0624 -0.4855  0.1334
 2056SOL     OW 8221   3.784   1.960   3.453  0.2506  0.1062 -0.1107
 2056SOL    HW1 8222   3.721   1.984   3.521 -0.8903 -1.3415 -0.5934
 2056SOL    HW2 8223   3.847   1.903   3.498 -0.4788 -0.8151 -0.2443
 2056SOL     MW 8224   3.784   1.956   3.468  0.0112 -0.1970 -0.1896
 2057SOL     OW 8225   0.372   3.030   2.508  0.3910  0.2140  0.1252
 2057SOL    HW1 8226   0.298   3.076   2.549  0.0577 -0.7962  0.6772
 2057SOL    HW2 8227   0.410   3.095   2.448 -0.5262  0.9649  0.3332
 2057SOL     MW 8228   0.367   3.044   2.505  0.2309  0.1808  0.2225
 2058SOL     OW 8229   4.138   2.217   3.525 -0.1316 -0.3106  0.1081
 2058SOL    HW1 8230   4.162   2.195   3.435  0.1085 -2.7044  0.7079
 2058SOL    HW2 8231   4.043   2.204   3.527 -0.4711  1.6608 -0.2384
 2058SOL     MW 8232   4.129   2.213   3.514 -0.1444 -0.3647  0.1405
 2059SOL     OW 8233   2.123   1.022   3.215 -0.3917 -0.0542  0.4052
 2059SOL    HW1 8234   2.134   0.980   3.129 -1.5959 -0.7051  0.5470
 2059SOL    HW2 8235   2.206   1.068   3.230 -0.6471  1.2021 -1.7117
 2059SOL     MW 8236   2.135   1.022   3.206 -0.5786  0.0233  0.1524
 2060SOL     OW 8237   4.565   4.293   2.028  0.3877 -0.5305 -0.5556
 2060SOL    HW1 8238   4.477   4.329   2.029 -0.0428 -1.5267 -1.0989
 2060SOL    HW2 8239   4.575   4.250   2.113  0.4129 -0.2742 -0.4288
 2060SOL     MW 8240   4.555   4.292   2.039  0.3358 -0.6252 -0.6089
 2061SOL     OW 8241   1.716   0.336   2.396  0.1279 -0.1680  0.1806
 2061SOL    HW1 8242   1.727   0.286   2.477  1.3863  0.4106  0.3866
 2061SOL    HW2 8243   1.729   0.273   2.326 -0.1607 -0.5051  0.4266
 2061SOL     MW 8244   1.719   0.322   2.397  0.2520 -0.1371  0.2384
 2062SOL     OW 8245   2.006   1.913   0.040 -0.0996  0.3316  0.1173
 2062SOL    HW1 8246   2.054   1.846  -0.008  0.6450  0.3689  0.7877
 2062SOL    HW2 8247   1.924   1.923  -0.008  0.0881 -0.5372 -0.4028
 2062SOL     MW 8248   2.002   1.906   0.028  0.0198  0.2252  0.1365
 2063SOL     OW 8249   5.298   1.091   1.358  0.3416  0.2957 -0.5363
 2063SOL    HW1 8250   5.244   1.170   1.353 -0.3131 -0.1173 -0.1951
 2063SOL    HW2 8251   5.318   1.081   1.451 -1.3833 -1.0933 -0.2660
 2063SOL     MW 8252   5.293   1.100   1.369  0.0369  0.0650 -0.4580
 2064SOL     OW 8253   4.683   0.088   5.303 -0.1763  0.2877  0.0926
 2064SOL    HW1 8254   4.770   0.115   5.274 -0.4928  0.1049 -1.0611
 2064SOL    HW2 8255   4.649   0.033   5.232 -1.3475  0.5839  0.3986
 2064SOL     MW 8256   4.690   0.084   5.291 -0.3667  0.3022 -0.0159
 2065SOL     OW 8257   4.674   3.775   2.191  0.1530  0.1357 -0.3421
 2065SOL    HW1 8258   4.651   3.786   2.099 -1.6624  0.8497  0.1412
 2065SOL    HW2 8259   4.657   3.683   2.209 -0.4527  0.2118 -0.4947
 2065SOL     MW 8260   4.669   3.764   2.182 -0.1570  0.2368 -0.2997
 2066SOL     OW 8261   1.052   3.528   4.877 -0.1042  0.3187 -0.0712
 2066SOL    HW1 8262   1.118   3.557   4.814  0.1093 -0.8046 -0.3921
 2066SOL    HW2 8263   1.100   3.514   4.958 -0.2775  1.1974  0.1990
 2066SOL     MW 8264   1.066   3.530   4.879 -0.0991  0.2874 -0.0777
 2067SOL     OW 8265   3.857   4.491   1.856  0.1808  0.1790 -0.0451
 2067SOL    HW1 8266   3.806   4.440   1.792  0.7747 -2.8553  1.7411
 2067SOL    HW2 8267   3.907   4.552   1.802 -0.1110 -1.5182 -2.4327
 2067SOL     MW 8268   3.857   4.492   1.841  0.2195 -0.4267 -0.1221
 2068SOL     OW 8269   0.912   4.978   4.487  0.3451  0.2362 -0.1473
 2068SOL    HW1 8270   1.001   4.978   4.452  1.0448  2.8618  1.4022
 2068SOL    HW2 8271   0.866   5.045   4.437 -0.0658  0.5614  0.6519
 2068SOL     MW 8272   0.918   4.987   4.476  0.3821  0.6140  0.1533
 2069SOL     OW 8273   2.011   5.247   1.531 -0.5098  0.1488 -0.0889
 2069SOL    HW1 8274   2.020   5.176   1.468 -1.4251  1.9498 -2.4206
 2069SOL    HW2 8275   2.100   5.266   1.560 -0.3065 -2.2252  0.9864
 2069SOL     MW 8276   2.023   5.241   1.526 -0.6009  0.0754 -0.2498
 2070SOL     OW 8277   2.071   4.353   3.862 -0.0898  0.1445  0.9932
 2070SOL    HW1 8278   2.084   4.447   3.877  1.1244 -0.0005  0.9956
 2070SOL    HW2 8279   2.099   4.312   3.943 -1.4224 -0.1886  1.3000
 2070SOL     MW 8280   2.076   4.360   3.874 -0.1050  0.0833  1.0328
 2071SOL     OW 8281   0.490   2.098   3.403  0.2225  0.1499  0.5780
 2071SOL    HW1 8282   0.431   2.143   3.342  1.6237 -0.0789 -1.0230
 2071SOL    HW2 8283   0.433   2.039   3.452 -0.9240  0.0081 -0.8472
 2071SOL     MW 8284   0.475   2.096   3.401  0.2551  0.1025  0.1906
 2072SOL     OW 8285   3.575   4.783   5.438 -0.6120  0.8259 -0.1180
 2072SOL    HW1 8286   3.543   4.868   5.408  0.2667  0.2979 -2.8022
 2072SOL    HW2 8287   3.671   4.791   5.436 -0.4857 -0.5938 -1.7285
 2072SOL     MW 8288   3.584   4.795   5.434 -0.4833  0.5766 -0.6677
 2073SOL     OW 8289   0.283   3.353   3.473  0.1995 -0.3191  0.3928
 2073SOL    HW1 8290   0.330   3.301   3.539  0.5176 -0.1321  0.3164
 2073SOL    HW2 8291   0.201   3.377   3.516 -0.1991 -1.3510  0.2337
 2073SOL     MW 8292   0.279   3.349   3.487  0.1892 -0.4273  0.3626
 2074SOL     OW 8293   1.797   3.309   1.668  0.4447 -0.2638 -0.1904
 2074SOL    HW1 8294   1.768   3.397   1.692 -0.9067 -0.2655 -1.6560
 2074SOL    HW2 8295   1.885   3.322   1.632  0.7991  0.2779  0.8172
 2074SOL     MW 8296   1.805   3.322   1.666  0.3171 -0.1947 -0.2490
 2075SOL     OW 8297   2.629   0.759   2.115  0.5919  0.4293 -0.0738
 2075SOL    HW1 8298   2.607   0.695   2.183  0.0775  0.4718 -0.1973
 2075SOL    HW2 8299   2.686   0.822   2.159  1.5160 -0.3762 -0.0720
 2075SOL     MW 8300   2.633   0.759   2.129  0.6443  0.3316 -0.0894
 2076SOL     OW 8301   4.574   4.680   1.193  0.2212 -0.3513 -0.2654
 2076SOL    HW1 8302   4.496   4.639   1.229  0.7681 -0.4372  0.8596
 2076SOL    HW2 8303   4.647   4.630   1.230  0.8204  0.0632 -0.8692
 2076SOL     MW 8304   4.573   4.668   1.202  0.3679 -0.3093 -0.1987
 2077SOL     OW 8305   0.051   4.029   5.325 -0.6120  0.0422  0.1915
 2077SOL    HW1 8306   0.135   3.987   5.304 -1.4195 -2.0058  0.8022
 2077SOL    HW2 8307   0.066   4.121   5.306  1.7190 -0.2741  0.1010
 2077SOL     MW 8308   0.064   4.035   5.320 -0.4170 -0.2605  0.2581
 2078SOL     OW 8309   1.729   2.961   2.330 -0.5183 -0.7710  0.1555
 2078SOL    HW1 8310   1.784   2.990   2.257 -1.2321 -0.4638 -0.2741
 2078SOL    HW2 8311   1.716   2.868   2.315  0.3745 -0.9728  0.5920
 2078SOL     MW 8312   1.735   2.953   2.319 -0.4954 -0.7575  0.1564
 2079SOL     OW 8313   1.682   1.454   5.099  0.0444  0.2474 -0.4609
 2079SOL    HW1 8314   1.658   1.372   5.142 -1.4102  0.6172 -0.4988
 2079SOL    HW2 8315   1.742   1.496   5.161  0.8427 -0.8437 -0.4616
 2079SOL     MW 8316   1.686   1.449   5.113 -0.0396  0.1550 -0.4659
 2080SOL     OW 8317   0.696   2.730   3.550  0.1538  0.5980 -0.7996
 2080SOL    HW1 8318   0.753   2.746   3.626 -0.0813 -0.7991 -0.2847
 2080SOL    HW2 8319   0.639   2.806   3.546  0.2014  0.7189  0.4166
 2080SOL     MW 8320   0.696   2.742   3.560  0.1298  0.4347 -0.5780
 2081SOL     OW 8321   4.933   4.259   0.385  0.9811 -0.3817  0.1545
 2081SOL    HW1 8322   4.954   4.205   0.309  1.3765  2.1116 -1.6268
 2081SOL    HW2 8323   4.841   4.282   0.372  1.2664  0.6966 -0.0242
 2081SOL     MW 8324   4.924   4.255   0.374  1.0682  0.0755 -0.0964
 2082SOL     OW 8325   0.429   2.892   1.757 -0.7727  0.3322 -0.9770
 2082SOL    HW1 8326   0.519   2.902   1.788 -1.1600  0.5293  0.1297
 2082SOL    HW2 8327   0.433   2.819   1.695  0.3047  0.9242 -1.6488
 2082SOL     MW 8328   0.441   2.884   1.753 -0.6843  0.4332 -0.9213
 2083SOL     OW 8329   2.090   4.218   0.116  0.4375 -0.5874  0.0379
 2083SOL    HW1 8330   2.157   4.251   0.176  0.0077 -0.9781  0.7497
 2083SOL    HW2 8331   2.069   4.292   0.059 -0.3881  0.3301  1.4796
 2083SOL     MW 8332   2.096   4.231   0.116  0.2768 -0.5200  0.3136
 2084SOL     OW 8333   3.817   5.275   3.601 -0.5616  0.0076  0.2765
 2084SOL    HW1 8334   3.872   5.203   3.571  2.2377  2.1575 -0.1379
 2084SOL    HW2 8335   3.847   5.294   3.689  0.8388  2.4088 -0.6099
 2084SOL     MW 8336   3.828   5.268   3.608 -0.0240  0.5902  0.1100
 2085SOL     OW 8337   1.712   2.810   4.584 -0.2167  0.2023 -0.1117
 2085SOL    HW1 8338   1.680   2.749   4.518 -0.3034  0.9919 -0.8127
 2085SOL    HW2 8339   1.706   2.896   4.542  1.6390  0.5068  0.1883
 2085SOL     MW 8340   1.707   2.813   4.570  0.0098  0.3424 -0.1631
 2086SOL     OW 8341   2.510   2.443   2.493 -0.3542  0.1252  0.2692
 2086SOL    HW1 8342   2.546   2.366   2.536  1.1615  0.5687 -0.1357
 2086SOL    HW2 8343   2.586   2.497   2.472 -1.3766  1.7820  0.6162
 2086SOL     MW 8344   2.524   2.440   2.496 -0.2911  0.3941  0.2618
 2087SOL     OW 8345   4.905   4.229   5.407  0.1528 -0.3316 -0.1162
 2087SOL    HW1 8346   4.832   4.172   5.385  0.4407 -0.4556 -0.7603
 2087SOL    HW2 8347   4.973   4.209   5.342  0.3250  0.6058 -0.2499
 2087SOL     MW 8348   4.905   4.219   5.396  0.2117 -0.2275 -0.2157
 2088SOL     OW 8349   5.191   3.140   0.703  0.1728  0.4396  0.4219
 2088SOL    HW1 8350   5.148   3.151   0.789  2.9964 -0.4276  2.0610
 2088SOL    HW2 8351   5.118   3.136   0.641 -1.9750  2.0582  2.6207
 2088SOL     MW 8352   5.176   3.141   0.706  0.2593  0.5358  0.9132
 2089SOL     OW 8353   1.683   4.326   4.002  0.1734  0.0250 -0.3090
 2089SOL    HW1 8354   1.708   4.383   4.075 -0.5902 -0.8442  0.6563
 2089SOL    HW2 8355   1.587   4.324   4.005  0.1036  0.3508 -1.6421
 2089SOL     MW 8356   1.674   4.333   4.012  0.0667 -0.0445 -0.3561
 2090SOL     OW 8357   1.265   1.325   1.806 -0.1926 -0.0512  0.2937
 2090SOL    HW1 8358   1.187   1.370   1.837  0.2344  1.0405 -0.1252
 2090SOL    HW2 8359   1.337   1.383   1.831  0.1189  1.5735 -3.6000
 2090SOL     MW 8360   1.265   1.339   1.813 -0.0981  0.2966 -0.2584
 2091SOL     OW 8361   2.236   2.969   1.189  0.0060 -0.1611 -0.1183
 2091SOL    HW1 8362   2.149   3.007   1.205 -0.7965 -1.3829 -1.3858
 2091SOL    HW2 8363   2.260   2.929   1.272 -0.4027  0.6207  0.3935
 2091SOL     MW 8364   2.228   2.969   1.202 -0.1490 -0.2175 -0.2150
 2092SOL     OW 8365   1.014   2.331   4.328 -0.3681  0.4641 -0.1088
 2092SOL    HW1 8366   0.928   2.373   4.319  0.2744  1.5009 -2.0957
 2092SOL    HW2 8367   1.004   2.247   4.283 -0.5000  0.3134  0.1983
 2092SOL     MW 8368   1.002   2.326   4.321 -0.3027  0.5775 -0.3239
 2093SOL     OW 8369   4.643   4.197   2.293  0.1046 -0.3740  0.0371
 2093SOL    HW1 8370   4.575   4.256   2.326 -2.8665 -3.2074 -0.4083
 2093SOL    HW2 8371   4.633   4.118   2.347  1.6649 -1.6360 -1.4266
 2093SOL     MW 8372   4.633   4.194   2.304 -0.0760 -0.8983 -0.2073
 2094SOL     OW 8373   0.046   4.132   2.986  0.1870  0.3001  0.0452
 2094SOL    HW1 8374   0.001   4.188   2.924 -0.1252 -0.3587 -0.3249
 2094SOL    HW2 8375  -0.023   4.081   3.028  0.3371  1.1140  1.3267
 2094SOL     MW 8376   0.032   4.133   2.984  0.1663  0.3200  0.1619
 2095SOL     OW 8377   2.949   3.721   4.354  0.3359  0.4457  0.2741
 2095SOL    HW1 8378   2.978   3.812   4.368  0.4004  0.3017  1.1509
 2095SOL    HW2 8379   3.016   3.668   4.398 -0.6616  0.0561  1.3651
 2095SOL     MW 8380   2.961   3.726   4.362  0.2165  0.3774  0.5260
 2096SOL     OW 8381   3.334   3.693   1.076  0.7774 -0.8113 -0.4335
 2096SOL    HW1 8382   3.323   3.647   1.159 -2.3792  0.0980 -0.2354
 2096SOL    HW2 8383   3.360   3.782   1.101  1.2336 -0.9120 -0.5292
 2096SOL     MW 8384   3.336   3.699   1.090  0.4317 -0.7077 -0.4204
 2097SOL     OW 8385   3.703   2.238   4.075  0.0454 -0.1377 -0.3320
 2097SOL    HW1 8386   3.653   2.158   4.091 -1.2939  0.4625 -1.3134
 2097SOL    HW2 8387   3.721   2.237   3.981  1.0904  0.1164 -0.1446
 2097SOL     MW 8388   3.699   2.228   4.065  0.0077 -0.0283 -0.4336
 2098SOL     OW 8389   5.076   5.266   5.397 -0.1597  0.0546  0.1290
 2098SOL    HW1 8390   4.986   5.293   5.380 -0.0911  1.6849  1.9137
 2098SOL    HW2 8391   5.118   5.345   5.432  2.0052 -0.6402 -0.7623
 2098SOL     MW 8392   5.070   5.279   5.400  0.1262  0.1743  0.2433
 2099SOL     OW 8393   5.040   2.596   5.459  0.1432 -0.4146 -0.0535
 2099SOL    HW1 8394   5.027   2.643   5.376  2.4170  0.3541 -0.0552
 2099SOL    HW2 8395   4.995   2.650   5.524  0.2329  0.1769 -0.4752
 2099SOL     MW 8396   5.033   2.609   5.456  0.4458 -0.2405 -0.1077
 2100SOL     OW 8397   5.284   1.379   2.347  1.0186  0.0798  0.4540
 2100SOL    HW1 8398   5.321   1.462   2.316  0.7034  0.4390  1.0100
 2100SOL    HW2 8399   5.219   1.405   2.412  1.5840 -0.6443  1.3259
 2100SOL     MW 8400   5.280   1.393   2.351  1.0506  0.0331  0.6368
 2101SOL     OW 8401   5.458   4.748   1.102 -0.0607 -0.0981  0.0430
 2101SOL    HW1 8402   5.543   4.718   1.135 -0.6182 -0.5308  1.1644
 2101SOL    HW2 8403   5.424   4.804   1.172 -0.9889 -0.4872 -0.0813
 2101SOL     MW 8404   5.464   4.751   1.115 -0.2509 -0.2033  0.1707
 2102SOL     OW 8405   3.444   1.326   0.859 -0.2049 -0.5705 -0.4989
 2102SOL    HW1 8406   3.367   1.377   0.886  0.0848  0.9456 -2.3590
 2102SOL    HW2 8407   3.491   1.308   0.941 -0.7822  1.4279  0.3148
 2102SOL     MW 8408   3.440   1.330   0.873 -0.2417 -0.1206 -0.6329
 2103SOL     OW 8409   2.594   0.569   3.965 -0.2576  0.1230 -0.1576
 2103SOL    HW1 8410   2.591   0.503   4.034  1.7142 -0.9089 -0.9871
 2103SOL    HW2 8411   2.629   0.647   4.007 -1.3339  0.2567  0.5221
 2103SOL     MW 8412   2.598   0.571   3.979 -0.1430  0.0080 -0.1768
 2104SOL     OW 8413   4.939   3.995   2.989 -0.2524 -0.2943  0.2808
 2104SOL    HW1 8414   4.997   4.070   2.973  0.5030 -0.5457  1.6234
 2104SOL    HW2 8415   4.859   4.034   3.025 -0.6259 -0.0045 -0.8264
 2104SOL     MW 8416   4.937   4.010   2.992 -0.2035 -0.2894  0.3109
 2105SOL     OW 8417   5.150   4.149   2.317 -0.2181 -0.2278  0.1330
 2105SOL    HW1 8418   5.065   4.191   2.314  0.5252  1.2393 -2.1193
 2105SOL    HW2 8419   5.142   4.072   2.260  0.0530  0.1270 -0.3925
 2105SOL     MW 8420   5.138   4.144   2.310 -0.0882  0.0054 -0.2226
 2106SOL     OW 8421   1.102   2.246   2.698 -0.8257  0.5614 -0.3330
 2106SOL    HW1 8422   1.058   2.328   2.716  0.1296  0.9656  0.2087
 2106SOL    HW2 8423   1.188   2.271   2.666 -0.4619 -0.2254 -0.0096
 2106SOL     MW 8424   1.107   2.260   2.696 -0.6568  0.5124 -0.2223
 2107SOL     OW 8425   2.105   4.267   5.006 -0.1511 -0.2535  0.4834
 2107SOL    HW1 8426   2.075   4.277   4.915 -0.0362  1.8584  0.6367
 2107SOL    HW2 8427   2.029   4.229   5.051 -0.8847  0.4145 -0.1418
 2107SOL     MW 8428   2.091   4.263   5.000 -0.2303  0.1023  0.4230
 2108SOL     OW 8429   2.978   4.557   1.152  0.0956 -0.1736  0.3415
 2108SOL    HW1 8430   2.957   4.549   1.059  1.3960  0.7177 -0.0588
 2108SOL    HW2 8431   2.961   4.649   1.172 -1.5658 -0.6630  1.3810
 2108SOL     MW 8432   2.973   4.568   1.143  0.0494 -0.1222  0.4233
 2109SOL     OW 8433   5.372   1.062   4.247 -0.2966 -0.1654  0.3282
 2109SOL    HW1 8434   5.411   0.975   4.241 -0.0388 -0.1277  1.2886
 2109SOL    HW2 8435   5.443   1.122   4.224 -0.7145 -0.2334 -1.2125
 2109SOL     MW 8436   5.386   1.058   4.243 -0.3171 -0.1693  0.2539
 2110SOL     OW 8437   2.941   2.924   0.937 -0.0477  0.6795  0.5558
 2110SOL    HW1 8438   2.946   2.973   0.855  0.2410 -0.3489 -0.0474
 2110SOL    HW2 8439   2.849   2.930   0.963 -0.3931  0.0082 -0.4688
 2110SOL     MW 8440   2.930   2.931   0.930 -0.0550  0.4619  0.3474
 2111SOL     OW 8441   3.205   5.204   0.867  0.8177  0.0280  0.0775
 2111SOL    HW1 8442   3.244   5.184   0.782 -0.2341 -0.5755 -0.2803
 2111SOL    HW2 8443   3.157   5.285   0.852  1.3180  0.3806  0.3327
 2111SOL     MW 8444   3.204   5.212   0.854  0.7471 -0.0041  0.0644
 2112SOL     OW 8445   1.012   4.035   1.166  0.7261 -0.5569  0.0244
 2112SOL    HW1 8446   0.934   3.993   1.130 -0.4196  0.2149  1.5023
 2112SOL    HW2 8447   0.996   4.129   1.158 -0.1768 -0.2654  3.4706
 2112SOL     MW 8448   1.000   4.042   1.161  0.4639 -0.4208  0.6547
 2113SOL     OW 8449   1.125   2.086   3.441  0.2083  0.3016  0.1520
 2113SOL    HW1 8450   1.145   2.168   3.396  0.0065  1.8298  2.6615
 2113SOL    HW2 8451   1.180   2.087   3.520 -0.1082 -1.7975  0.4696
 2113SOL     MW 8452   1.135   2.096   3.445  0.1420  0.2285  0.5139
 2114SOL     OW 8453   2.364   3.589   3.040  0.5243 -0.4771 -0.0029
 2114SOL    HW1 8454   2.346   3.641   2.961  1.4970 -0.5354 -0.2790
 2114SOL    HW2 8455   2.419   3.518   3.010  0.2437 -0.9618  0.6043
 2114SOL     MW 8456   2.369   3.587   3.026  0.6129 -0.5466  0.0395
 2115SOL     OW 8457   3.065   2.731   5.450  0.0023  0.3946  0.0057
 2115SOL    HW1 8458   3.126   2.670   5.407  1.3621 -0.2576  2.6258
 2115SOL    HW2 8459   2.980   2.688   5.445  0.2207  0.0898 -1.4703
 2115SOL     MW 8460   3.062   2.718   5.444  0.2043  0.2721  0.1522
 2116SOL     OW 8461   1.431   0.743   0.768 -0.1383 -0.1878 -0.1208
 2116SOL    HW1 8462   1.366   0.771   0.704 -0.2387  0.4727  0.2652
 2116SOL    HW2 8463   1.498   0.811   0.766  1.0279 -1.2922 -1.1714
 2116SOL     MW 8464   1.432   0.755   0.760 -0.0019 -0.2446 -0.2059
 2117SOL     OW 8465   4.270   2.586   0.881  0.0677  0.8763 -0.0045
 2117SOL    HW1 8466   4.194   2.528   0.881 -0.3489  1.3459 -2.0250
 2117SOL    HW2 8467   4.295   2.593   0.973 -2.1613  0.4873  0.6858
 2117SOL     MW 8468   4.263   2.580   0.892 -0.2710  0.8866 -0.1748
 2118SOL     OW 8469   3.876   1.706   0.872 -0.6713 -0.2071 -0.2858
 2118SOL    HW1 8470   3.824   1.664   0.803  0.2735 -0.4804 -0.8410
 2118SOL    HW2 8471   3.845   1.797   0.873  0.0257  0.0687 -1.7918
 2118SOL     MW 8472   3.865   1.712   0.864 -0.4611 -0.2068 -0.5496
 2119SOL     OW 8473   3.381   2.321   2.461  0.3253  0.2112 -0.1282
 2119SOL    HW1 8474   3.363   2.230   2.484 -0.5323  0.2312 -0.6685
 2119SOL    HW2 8475   3.462   2.342   2.507  0.5137 -0.8115  0.0305
 2119SOL     MW 8476   3.389   2.312   2.470  0.2397  0.0828 -0.1771
 2120SOL     OW 8477   0.393   2.019   0.754 -0.0530 -0.1579 -0.7887
 2120SOL    HW1 8478   0.373   2.107   0.721 -0.7171 -0.1783 -0.4712
 2120SOL    HW2 8479   0.314   1.994   0.801  0.8263 -0.1804  0.7224
 2120SOL     MW 8480   0.380   2.027   0.756 -0.0255 -0.1634 -0.5546
 2121SOL     OW 8481   3.196   3.384   0.793  0.0161 -0.4432  0.0408
 2121SOL    HW1 8482   3.267   3.427   0.746  0.8029 -0.6467  1.0105
 2121SOL    HW2 8483   3.207   3.291   0.773 -0.1014 -0.4558  0.0333
 2121SOL     MW 8484   3.206   3.377   0.784  0.1018 -0.4709  0.1640
 2122SOL     OW 8485   2.356   4.256   0.070 -0.3000  0.2046 -0.2808
 2122SOL    HW1 8486   2.270   4.235   0.033  0.9398 -1.3440 -2.4860
 2122SOL    HW2 8487   2.385   4.175   0.112  1.1979 -0.2121 -1.9925
 2122SOL     MW 8488   2.349   4.243   0.071  0.0505 -0.0470 -0.7822
 2123SOL     OW 8489   4.359   4.544   0.217 -0.0409 -0.2113 -0.0736
 2123SOL    HW1 8490   4.375   4.485   0.291 -1.4903 -2.3060 -1.3400
 2123SOL    HW2 8491   4.400   4.501   0.142 -2.2896 -0.3712 -1.2989
 2123SOL     MW 8492   4.366   4.531   0.217 -0.5143 -0.4999 -0.3926
 2124SOL     OW 8493   4.425   3.367   2.898  0.4649  0.1564  0.6539
 2124SOL    HW1 8494   4.514   3.378   2.863 -0.0064 -0.8302 -0.9313
 2124SOL    HW2 8495   4.372   3.344   2.822 -0.9657 -0.2892  1.7509
 2124SOL     MW 8496   4.430   3.366   2.884  0.2214 -0.0270  0.5914
 2125SOL     OW 8497   2.046   2.299   2.550 -0.1506 -0.4449  0.6198
 2125SOL    HW1 8498   2.049   2.394   2.538 -0.8050 -0.7460 -2.7250
 2125SOL    HW2 8499   2.135   2.276   2.577  0.6012  0.9263 -0.5412
 2125SOL     MW 8500   2.058   2.308   2.552 -0.1382 -0.3079  0.0430
 2126SOL     OW 8501   4.596   2.115   4.991  0.0189  0.2721  0.3291
 2126SOL    HW1 8502   4.655   2.173   5.039  0.7304  0.0857 -0.2900
 2126SOL    HW2 8503   4.558   2.171   4.923  1.8648 -0.2759 -1.2457
 2126SOL     MW 8504   4.599   2.130   4.988  0.3463  0.1781  0.0482
 2127SOL     OW 8505   1.695   0.660   0.570  0.0051 -0.1295  0.0075
 2127SOL    HW1 8506   1.685   0.720   0.644 -1.2290  0.5863 -0.7057
 2127SOL    HW2 8507   1.613   0.612   0.567 -0.0413 -0.0139 -1.0081
 2127SOL     MW 8508   1.683   0.662   0.579 -0.1588 -0.0231 -0.2138
 2128SOL     OW 8509   0.776   0.029   5.208  0.7446 -0.2798 -0.0095
 2128SOL    HW1 8510   0.711   0.096   5.229  1.3062  0.1510  0.3844
 2128SOL    HW2 8511   0.742  -0.051   5.247  0.1226 -0.2092 -0.3885
 2128SOL     MW 8512   0.763   0.027   5.215  0.7369 -0.2156 -0.0076
 2129SOL     OW 8513   4.969   0.616   2.153 -0.0607 -0.2822  0.5164
 2129SOL    HW1 8514   4.948   0.523   2.150  0.2667 -0.3799  1.0286
 2129SOL    HW2 8515   4.900   0.655   2.206  0.3901 -0.4180  1.2251
 2129SOL     MW 8516   4.958   0.610   2.159  0.0390 -0.3121  0.6727
 2130SOL     OW 8517   2.353   1.492   3.598  0.2043  0.4365 -0.0147
 2130SOL    HW1 8518   2.349   1.452   3.684  0.0573 -0.4948 -0.4460
 2130SOL    HW2 8519   2.284   1.558   3.598 -0.4908 -0.2854  0.2170
 2130SOL     MW 8520   2.344   1.495   3.609  0.0965  0.2248 -0.0402
 2131SOL     OW 8521   4.072   0.045   4.822  0.2941  0.2189  0.4402
 2131SOL    HW1 8522   4.083   0.129   4.868 -0.3156  0.0698  0.8563
 2131SOL    HW2 8523   4.157   0.031   4.780  0.4559  0.9722  0.4905
 2131SOL     MW 8524   4.085   0.054   4.822  0.2367  0.2962  0.4999
 2132SOL     OW 8525   0.221   5.156   4.833  0.1987 -0.1142  0.5541
 2132SOL    HW1 8526   0.224   5.210   4.912  0.2567 -0.2780  0.6665
 2132SOL    HW2 8527   0.211   5.218   4.761  0.8103  0.0817  0.6340
 2132SOL     MW 8528   0.220   5.171   4.834  0.2844 -0.1101  0.5787
 2133SOL     OW 8529   1.507   0.392   4.050 -0.3085 -0.3798 -0.8124
 2133SOL    HW1 8530   1.453   0.369   3.974 -1.2934 -0.0602 -0.2244
 2133SOL    HW2 8531   1.516   0.310   4.098 -1.1306 -0.2322 -0.3883
 2133SOL     MW 8532   1.501   0.378   4.046 -0.5398 -0.3200 -0.6829
 2134SOL     OW 8533   1.880   1.157   2.284 -0.1377  0.6880  0.0482
 2134SOL    HW1 8534   1.854   1.138   2.374  0.8751  0.1711  0.2572
 2134SOL    HW2 8535   1.886   1.252   2.279 -1.6001  0.7939  0.1017
 2134SOL     MW 8536   1.878   1.167   2.295 -0.1953  0.6354  0.0818
 2135SOL     OW 8537   3.608   2.768   4.308 -0.3414  0.2258 -0.0306
 2135SOL    HW1 8538   3.579   2.833   4.372  1.3650  0.2806  0.7533
 2135SOL    HW2 8539   3.598   2.811   4.224 -0.9696  0.8140  0.3320
 2135SOL     MW 8540   3.603   2.782   4.306 -0.2033  0.3081  0.1162
 2136SOL     OW 8541   5.252   0.361   4.108 -0.1548 -0.6033  0.6203
 2136SOL    HW1 8542   5.172   0.372   4.056  1.1261  3.6112 -0.9334
 2136SOL    HW2 8543   5.315   0.322   4.047 -0.0206 -0.3119  0.5678
 2136SOL     MW 8544   5.250   0.358   4.093  0.0264 -0.0265  0.4147
 2137SOL     OW 8545   4.207   4.460   5.022  0.2261 -0.0406 -0.3894
 2137SOL    HW1 8546   4.129   4.456   4.967 -0.0691  1.6362 -0.1649
 2137SOL    HW2 8547   4.181   4.416   5.103 -0.5495  0.5658 -0.2852
 2137SOL     MW 8548   4.194   4.454   5.026  0.0890  0.2517 -0.3473
 2138SOL     OW 8549   0.368   1.136   2.392  0.3727  0.1373 -0.3901
 2138SOL    HW1 8550   0.276   1.120   2.368  0.6695 -0.3464 -1.2527
 2138SOL    HW2 8551   0.363   1.172   2.480 -0.5462 -1.9826  0.5130
 2138SOL     MW 8552   0.355   1.138   2.400  0.2931 -0.1960 -0.3849
 2139SOL     OW 8553   0.615   4.405   1.153 -0.0413 -0.1560 -0.1467
 2139SOL    HW1 8554   0.607   4.311   1.169 -0.4793 -0.0667  0.1580
 2139SOL    HW2 8555   0.644   4.441   1.237 -1.9905  0.2666  0.3770
 2139SOL     MW 8556   0.618   4.398   1.166 -0.3469 -0.0905 -0.0406
 2140SOL     OW 8557   3.143   3.247   3.050  0.2186 -0.5266 -0.1839
 2140SOL    HW1 8558   3.073   3.307   3.022 -0.3995 -0.7180  0.9134
 2140SOL    HW2 8559   3.107   3.160   3.035 -0.7568 -0.6882  2.4734
 2140SOL     MW 8560   3.129   3.244   3.044  0.0146 -0.5718  0.2967
 2141SOL     OW 8561   1.323   4.981   0.081 -0.0320 -0.4188 -0.1326
 2141SOL    HW1 8562   1.236   5.019   0.096  0.4860  0.9629 -0.4929
 2141SOL    HW2 8563   1.380   5.057   0.071  1.1517 -1.3205 -0.3082
 2141SOL     MW 8564   1.319   4.996   0.082  0.1858 -0.3574 -0.2012
 2142SOL     OW 8565   1.922   3.863   2.743 -0.2815 -0.0819 -0.2176
 2142SOL    HW1 8566   1.913   3.956   2.721  1.9306 -0.1307 -1.6381
 2142SOL    HW2 8567   1.910   3.859   2.838 -2.5689  1.2889 -0.3548
 2142SOL     MW 8568   1.919   3.874   2.752 -0.2911  0.0873 -0.4170
 2143SOL     OW 8569   3.433   0.331   2.503  0.2476  0.4434  0.1749
 2143SOL    HW1 8570   3.391   0.252   2.469 -1.0695  1.2007 -0.0453
 2143SOL    HW2 8571   3.526   0.313   2.496 -0.0128 -0.7531 -0.6905
 2143SOL     MW 8572   3.439   0.319   2.497  0.0457  0.3872  0.0359
 2144SOL     OW 8573   3.627   5.382   2.857 -0.4441  0.2474  0.3791
 2144SOL    HW1 8574   3.599   5.471   2.878  1.7453  0.6569  1.8621
 2144SOL    HW2 8575   3.605   5.331   2.935  1.9295  0.3898  1.1965
 2144SOL     MW 8576   3.620   5.387   2.870  0.1400  0.3180  0.6736
 2145SOL     OW 8577   1.374   2.034   5.162  1.1074 -0.3854  0.5810
 2145SOL    HW1 8578   1.420   2.118   5.162  0.0298  0.2331  0.8721
 2145SOL    HW2 8579   1.417   1.983   5.230  1.3561  0.1806  0.8562
 2145SOL     MW 8580   1.385   2.038   5.171  1.0013 -0.2337  0.6535
 2146SOL     OW 8581   2.059   5.426   4.900 -0.2309  0.4806  0.3429
 2146SOL    HW1 8582   2.063   5.521   4.884  1.6454  0.3691 -0.0188
 2146SOL    HW2 8583   1.967   5.409   4.918 -0.7053  2.2876 -0.1751
 2146SOL     MW 8584   2.048   5.436   4.900 -0.0514  0.6977  0.2303
 2147SOL     OW 8585   2.479   4.409   1.762  0.8185  0.0021  0.0996
 2147SOL    HW1 8586   2.447   4.494   1.731 -1.6306 -0.8844 -0.0431
 2147SOL    HW2 8587   2.459   4.410   1.856  2.4814  0.2575  0.4766
 2147SOL     MW 8588   2.472   4.420   1.770  0.7178 -0.0787  0.1296
 2148SOL     OW 8589   0.829   1.331   3.757  0.0131 -0.2803  0.2515
 2148SOL    HW1 8590   0.920   1.314   3.731  0.3063  0.3268  0.8349
 2148SOL    HW2 8591   0.789   1.244   3.765 -0.0632 -0.5253 -2.0248
 2148SOL     MW 8592   0.836   1.318   3.755  0.0408 -0.2339  0.0348
 2149SOL     OW 8593   4.371   2.498   4.223  0.0076  0.0826  0.1903
 2149SOL    HW1 8594   4.426   2.452   4.159  1.0778  0.4131  0.8566
 2149SOL    HW2 8595   4.432   2.534   4.286 -0.8838  1.5315  0.2793
 2149SOL     MW 8596   4.386   2.496   4.223  0.0305  0.3104  0.2870
 2150SOL     OW 8597   5.390   1.349   2.827 -0.1681 -0.0530 -0.2135
 2150SOL    HW1 8598   5.391   1.418   2.761 -0.0592  0.1154 -0.0346
 2150SOL    HW2 8599   5.430   1.273   2.783  2.0320  0.7004  0.3649
 2150SOL     MW 8600   5.395   1.348   2.813  0.1275  0.0650 -0.1166
 2151SOL     OW 8601   2.346   3.861   3.272 -0.4173  0.2494  0.0030
 2151SOL    HW1 8602   2.428   3.814   3.257 -0.6129 -0.4595  1.0989
 2151SOL    HW2 8603   2.363   3.917   3.347 -0.9946 -0.0412  0.3566
 2151SOL     MW 8604   2.358   3.862   3.280 -0.5163  0.1214  0.1885
 2152SOL     OW 8605   4.270   0.862   1.914 -0.3900  0.5791  0.3349
 2152SOL    HW1 8606   4.298   0.805   1.842  0.7445  0.1211  1.1045
 2152SOL    HW2 8607   4.314   0.945   1.897 -0.5000  0.6204  0.2504
 2152SOL     MW 8608   4.279   0.865   1.903 -0.2589  0.5257  0.4226
 2153SOL     OW 8609   5.389   3.293   1.081 -0.0709 -0.3087 -0.5998
 2153SOL    HW1 8610   5.390   3.322   0.990  2.4145  0.3223 -0.4268
 2153SOL    HW2 8611   5.433   3.208   1.080 -1.6999 -1.2013 -0.2062
 2153SOL     MW 8612   5.395   3.286   1.069  0.0387 -0.3422 -0.5273
 2154SOL     OW 8613   3.451   3.303   1.143 -0.1846  0.3230  0.0785
 2154SOL    HW1 8614   3.422   3.268   1.227 -1.2645 -0.7553 -0.7175
 2154SOL    HW2 8615   3.372   3.338   1.103  0.2263  0.3429 -0.7271
 2154SOL     MW 8616   3.437   3.303   1.149 -0.2702  0.1875 -0.1265
 2155SOL     OW 8617   1.673   4.661   0.565 -0.0868  0.8174 -0.3403
 2155SOL    HW1 8618   1.634   4.574   0.561 -0.4171  1.0033 -1.4915
 2155SOL    HW2 8619   1.664   4.687   0.657 -1.2851  0.2280 -0.2685
 2155SOL     MW 8620   1.667   4.653   0.577 -0.2825  0.7658 -0.4785
 2156SOL     OW 8621   3.020   4.303   5.409  0.2441  0.0862  0.5105
 2156SOL    HW1 8622   3.101   4.313   5.459 -0.1148  3.1143  0.6263
 2156SOL    HW2 8623   3.043   4.328   5.320 -0.3574  0.0333  0.3337
 2156SOL     MW 8624   3.033   4.307   5.404  0.1212  0.4671  0.5027
 2157SOL     OW 8625   1.851   2.373   2.111 -0.0104 -0.5680  0.0115
 2157SOL    HW1 8626   1.821   2.305   2.051 -0.2548 -0.3780 -0.0876
 2157SOL    HW2 8627   1.845   2.334   2.198 -0.3463 -0.6038 -0.0273
 2157SOL     MW 8628   1.846   2.360   2.114 -0.0847 -0.5483 -0.0061
 2158SOL     OW 8629   3.978   3.977   5.423  0.0008 -0.9035  0.2573
 2158SOL    HW1 8630   3.990   4.070   5.439 -0.6805 -0.6379 -0.7368
 2158SOL    HW2 8631   3.886   3.961   5.442 -0.6105 -0.7700 -2.3232
 2158SOL     MW 8632   3.968   3.987   5.428 -0.1647 -0.8524 -0.2003
 2159SOL     OW 8633   5.244   1.110   2.227  0.1026  0.3977 -0.0692
 2159SOL    HW1 8634   5.277   1.193   2.262  0.1021 -0.1706  1.3385
 2159SOL    HW2 8635   5.284   1.103   2.140 -0.1399  2.0087 -0.3325
 2159SOL     MW 8636   5.254   1.120   2.220  0.0715  0.5312  0.0773
 2160SOL     OW 8637   2.267   4.230   1.189 -0.3380  0.1583 -0.2590
 2160SOL    HW1 8638   2.325   4.187   1.126 -0.2832  0.3492 -0.3393
 2160SOL    HW2 8639   2.243   4.161   1.251  0.7633  0.3050  0.3556
 2160SOL     MW 8640   2.271   4.216   1.189 -0.1900  0.2015 -0.1906
 2161SOL     OW 8641   2.325   0.761   3.769  0.2411 -0.6605 -0.6873
 2161SOL    HW1 8642   2.249   0.819   3.761  0.3512 -0.6206 -1.6686
 2161SOL    HW2 8643   2.390   0.801   3.711  0.9826 -0.7442  0.0753
 2161SOL     MW 8644   2.323   0.774   3.760  0.3501 -0.6661 -0.7153
 2162SOL     OW 8645   2.957   3.882   3.617 -0.1291 -0.0121  0.4083
 2162SOL    HW1 8646   2.985   3.791   3.609  1.0781  0.4214 -0.5366
 2162SOL    HW2 8647   2.888   3.892   3.551  0.5335  0.0393 -0.2923
 2162SOL     MW 8648   2.951   3.872   3.607  0.1103  0.0500  0.1977
 2163SOL     OW 8649   0.372   4.584   1.749 -0.5449 -0.0843 -0.1996
 2163SOL    HW1 8650   0.441   4.537   1.795 -0.4238 -0.4709 -0.7560
 2163SOL    HW2 8651   0.410   4.603   1.663 -1.2794 -0.7175 -0.6833
 2163SOL     MW 8652   0.385   4.580   1.744 -0.6234 -0.2148 -0.3327
 2164SOL     OW 8653   0.842   2.407   2.757 -0.5048  0.6338 -0.2350
 2164SOL    HW1 8654   0.904   2.470   2.718 -0.2134  1.1240  0.9893
 2164SOL    HW2 8655   0.775   2.461   2.798 -0.5224  0.1367  0.4051
 2164SOL     MW 8656   0.842   2.422   2.757 -0.4698  0.6329  0.0037
 2165SOL     OW 8657   1.362   0.517   3.240 -0.2436 -0.3180 -0.6067
 2165SOL    HW1 8658   1.346   0.430   3.203 -1.5067  0.4698 -2.0521
 2165SOL    HW2 8659   1.444   0.545   3.200  0.3354 -0.9593  0.1158
 2165SOL     MW 8660   1.370   0.509   3.230 -0.3312 -0.2993 -0.6992
 2166SOL     OW 8661   1.246   3.098   4.355 -0.3224  0.1815 -0.0516
 2166SOL    HW1 8662   1.296   3.136   4.283 -0.3388  0.3009  0.0002
 2166SOL    HW2 8663   1.157   3.131   4.344 -0.6630 -0.9387 -0.8093
 2166SOL     MW 8664   1.241   3.107   4.344 -0.3681  0.0534 -0.1420
 2167SOL     OW 8665   4.991   4.434   3.470 -0.4962 -0.3742 -0.1140
 2167SOL    HW1 8666   5.049   4.380   3.524  0.2734  0.6076  0.0565
 2167SOL    HW2 8667   4.941   4.486   3.534  0.0795  0.4468 -0.3190
 2167SOL     MW 8668   4.992   4.434   3.485 -0.3240 -0.1434 -0.1184
 2168SOL     OW 8669   3.266   2.690   4.944 -0.4391  0.0315 -0.7865
 2168SOL    HW1 8670   3.180   2.705   4.983  0.4283  2.2829  0.4517
 2168SOL    HW2 8671   3.328   2.715   5.013  1.2244 -1.0133 -1.8300
 2168SOL     MW 8672   3.263   2.695   4.958 -0.1151  0.1859 -0.7616
 2169SOL     OW 8673   1.219   4.758   5.428  0.3278 -0.0296 -0.0491
 2169SOL    HW1 8674   1.250   4.818   5.496  0.6142 -1.0917  0.7730
 2169SOL    HW2 8675   1.286   4.689   5.424 -0.9756 -1.3676  0.4414
 2169SOL     MW 8676   1.232   4.757   5.436  0.1976 -0.3368  0.1189
 2170SOL     OW 8677   5.240   4.863   3.368 -0.5727  0.3509  0.9159
 2170SOL    HW1 8678   5.261   4.770   3.358 -1.2252  0.1231  1.5632
 2170SOL    HW2 8679   5.145   4.865   3.380 -0.6535  1.1636  0.2632
 2170SOL     MW 8680   5.231   4.851   3.368 -0.6666  0.4258  0.9152
 2171SOL     OW 8681   3.308   2.389   4.916 -0.6355  0.0756 -0.5337
 2171SOL    HW1 8682   3.349   2.312   4.956 -0.2246  1.0163  0.9659
 2171SOL    HW2 8683   3.310   2.455   4.986 -0.4666  1.6227 -1.9442
 2171SOL     MW 8684   3.314   2.388   4.930 -0.5613  0.3941 -0.5223
 2172SOL     OW 8685   2.937   0.906   4.508 -0.3651 -0.4959 -0.1440
 2172SOL    HW1 8686   3.000   0.858   4.454  0.7415 -0.6227  1.1947
 2172SOL    HW2 8687   2.957   0.998   4.492 -1.6385 -0.4329 -1.7238
 2172SOL     MW 8688   2.948   0.912   4.499 -0.3865 -0.5040 -0.1749
 2173SOL     OW 8689   0.536   1.605   3.976 -0.4209  0.6027 -0.1791
 2173SOL    HW1 8690   0.602   1.598   3.907  1.2957 -0.5814  1.4819
 2173SOL    HW2 8691   0.573   1.669   4.037  0.4091 -1.6912  1.9078
 2173SOL     MW 8692   0.549   1.612   3.975 -0.0949  0.1575  0.3007
 2174SOL     OW 8693   2.790   5.437   2.384  0.5491  0.0079 -0.5276
 2174SOL    HW1 8694   2.784   5.424   2.289  0.9546 -0.1639 -0.5325
 2174SOL    HW2 8695   2.705   5.474   2.409  1.1605  2.1089 -1.2957
 2174SOL     MW 8696   2.779   5.440   2.375  0.6793  0.2549 -0.6265
 2175SOL     OW 8697   3.588   4.212   0.602 -0.5389  0.5992  0.1625
 2175SOL    HW1 8698   3.599   4.118   0.618  1.2396  0.5028 -1.3004
 2175SOL    HW2 8699   3.614   4.253   0.684  0.7666 -0.1253  0.1400
 2175SOL     MW 8700   3.593   4.205   0.615 -0.1441  0.4941 -0.0276
 2176SOL     OW 8701   0.070   3.463   3.609  0.1439  0.2314 -0.2556
 2176SOL    HW1 8702   0.060   3.432   3.699  0.6910 -0.8536 -0.5530
 2176SOL    HW2 8703  -0.017   3.496   3.586 -0.6855 -1.7134 -0.1176
 2176SOL     MW 8704   0.057   3.463   3.618  0.1078 -0.1564 -0.2760
 2177SOL     OW 8705   3.074   1.373   0.260  0.0677  0.4100 -0.4342
 2177SOL    HW1 8706   3.022   1.409   0.332  0.9249 -0.3781  0.6149
 2177SOL    HW2 8707   3.024   1.296   0.231 -1.1546  1.6859 -1.8781
 2177SOL     MW 8708   3.061   1.368   0.265  0.0210  0.4724 -0.4847
 2178SOL     OW 8709   5.163   0.692   0.523 -0.2327  0.3903 -0.2431
 2178SOL    HW1 8710   5.141   0.680   0.615 -1.4923  0.3969 -0.5177
 2178SOL    HW2 8711   5.257   0.674   0.517  0.0012  1.0746  1.1521
 2178SOL     MW 8712   5.172   0.688   0.534 -0.3640  0.4788 -0.0996
 2179SOL     OW 8713   0.013   0.754   3.014 -0.3558 -0.6176 -0.0619
 2179SOL    HW1 8714   0.094   0.707   2.996 -0.3458 -0.5032 -0.3271
 2179SOL    HW2 8715   0.021   0.835   2.964 -0.4169 -0.3783  0.3110
 2179SOL     MW 8716   0.024   0.758   3.005 -0.3623 -0.5723 -0.0481
 2180SOL     OW 8717   5.186   1.784   4.645  0.2637  0.5504 -0.5542
 2180SOL    HW1 8718   5.195   1.873   4.612 -0.2096  0.5605 -0.6731
 2180SOL    HW2 8719   5.110   1.749   4.597 -1.1287  0.9239  1.2590
 2180SOL     MW 8720   5.177   1.791   4.634  0.0249  0.5995 -0.3373
 2181SOL     OW 8721   4.270   5.095   1.673 -0.3177  0.0631  0.0135
 2181SOL    HW1 8722   4.281   5.157   1.600 -2.4801 -0.6556 -1.0006
 2181SOL    HW2 8723   4.357   5.057   1.685  0.3642  1.0813 -1.3653
 2181SOL     MW 8724   4.283   5.098   1.665 -0.5072  0.1015 -0.2928
 2182SOL     OW 8725   1.851   2.624   2.546  0.5019  0.5622 -0.4594
 2182SOL    HW1 8726   1.785   2.661   2.486 -0.8487 -1.7507 -0.5113
 2182SOL    HW2 8727   1.831   2.662   2.631 -0.0216  0.9189 -0.7383
 2182SOL     MW 8728   1.840   2.634   2.549  0.2620  0.3118 -0.5017
 2183SOL     OW 8729   2.636   0.117   4.280  0.0363 -0.2033  0.8684
 2183SOL    HW1 8730   2.568   0.100   4.345 -1.2602 -1.9219 -0.8275
 2183SOL    HW2 8731   2.669   0.030   4.256 -0.1469  0.2738 -1.3449
 2183SOL     MW 8732   2.632   0.104   4.285 -0.1531 -0.3622  0.3680
 2184SOL     OW 8733   0.488   1.939   0.088 -0.1968 -0.0159 -0.2514
 2184SOL    HW1 8734   0.528   1.852   0.088  1.8993  0.8153 -2.7057
 2184SOL    HW2 8735   0.551   1.994   0.135 -0.1151  0.6638 -1.1295
 2184SOL     MW 8736   0.501   1.935   0.094  0.0820  0.1775 -0.6780
 2185SOL     OW 8737   2.197   0.150   1.677  0.1751 -0.3517 -0.0947
 2185SOL    HW1 8738   2.261   0.112   1.616 -0.2122 -1.6000  0.2563
 2185SOL    HW2 8739   2.187   0.085   1.745 -2.6903 -0.9577 -0.9726
 2185SOL     MW 8740   2.204   0.137   1.678 -0.2413 -0.5891 -0.1621
 2186SOL     OW 8741   0.225   0.425   4.654 -0.1251  0.3153 -0.0137
 2186SOL    HW1 8742   0.313   0.453   4.629  0.0257 -0.8508 -0.8816
 2186SOL    HW2 8743   0.176   0.506   4.664  0.4026  0.9526 -2.0110
 2186SOL     MW 8744   0.230   0.439   4.652 -0.0382  0.2476 -0.3805
 2187SOL     OW 8745   4.967   1.635   2.658 -0.0140 -0.0912  0.1569
 2187SOL    HW1 8746   4.986   1.675   2.743 -1.1065  1.1534 -0.1571
 2187SOL    HW2 8747   5.020   1.685   2.596  0.5036 -0.7627  0.0499
 2187SOL     MW 8748   4.976   1.646   2.661 -0.0876 -0.0179  0.1030
 2188SOL     OW 8749   3.074   1.811   1.984 -0.1461 -0.0873  0.4752
 2188SOL    HW1 8750   3.055   1.739   1.922 -1.3133 -0.3739  1.1346
 2188SOL    HW2 8751   3.063   1.771   2.070 -0.7151  0.8646  0.8517
 2188SOL     MW 8752   3.070   1.796   1.987 -0.3684 -0.0021  0.6078
 2189SOL     OW 8753   4.065   1.483   4.277 -0.1093  0.2499 -0.5106
 2189SOL    HW1 8754   4.034   1.444   4.359 -0.2904  2.6397  0.6265
 2189SOL    HW2 8755   4.104   1.566   4.303  0.2849  0.8493 -2.8134
 2189SOL     MW 8756   4.066   1.488   4.291 -0.0820  0.6325 -0.6598
 2190SOL     OW 8757   2.388   5.061   4.480  0.2247 -0.3836 -0.0036
 2190SOL    HW1 8758   2.470   5.026   4.445  0.4483 -0.7312  0.8639
 2190SOL    HW2 8759   2.358   5.122   4.412  1.4330  0.0933 -0.1290
 2190SOL     MW 8760   2.395   5.065   4.467  0.4080 -0.3670  0.0914
 2191SOL     OW 8761   4.678   4.942   1.358  0.4868  0.8025 -0.0027
 2191SOL    HW1 8762   4.706   4.909   1.443  1.2962  1.5326  0.0278
 2191SOL    HW2 8763   4.629   4.869   1.319 -0.7266  0.7714  1.4554
 2191SOL     MW 8764   4.675   4.929   1.364  0.4351  0.8920  0.1879
 2192SOL     OW 8765   4.223   3.357   2.690  0.8857 -0.3494  0.2194
 2192SOL    HW1 8766   4.210   3.445   2.723  0.6874 -0.1061 -0.4839
 2192SOL    HW2 8767   4.164   3.302   2.742 -0.5075  0.2383 -0.6872
 2192SOL     MW 8768   4.214   3.361   2.701  0.6820 -0.2430  0.0133
 2193SOL     OW 8769   5.114   4.961   1.856  0.9239  0.5342 -0.0675
 2193SOL    HW1 8770   5.172   4.942   1.930  1.1838  1.4509 -0.0116
 2193SOL    HW2 8771   5.154   5.038   1.814  0.3022  0.5572 -0.6386
 2193SOL     MW 8772   5.127   4.969   1.860  0.8776  0.6545 -0.1334
 2194SOL     OW 8773   4.820   3.382   3.606  0.1856 -0.1725  0.0309
 2194SOL    HW1 8774   4.853   3.312   3.662 -2.6609 -0.1763  1.8851
 2194SOL    HW2 8775   4.777   3.443   3.666  1.9609  2.9466 -1.5818
 2194SOL     MW 8776   4.819   3.381   3.621  0.0485  0.2263  0.0618
 2195SOL     OW 8777   5.075   5.318   4.624 -0.0864  0.1833 -0.4356
 2195SOL    HW1 8778   5.119   5.242   4.662 -1.4102 -0.1528  0.4821
 2195SOL    HW2 8779   4.986   5.288   4.606 -0.1890  1.0701 -1.5408
 2195SOL     MW 8780   5.069   5.305   4.626 -0.2690  0.2538 -0.4596
 2196SOL     OW 8781   3.862   4.749   5.201 -0.1986  0.1033  1.1238
 2196SOL    HW1 8782   3.827   4.826   5.156 -0.1420 -0.7992 -0.5317
 2196SOL    HW2 8783   3.945   4.730   5.156 -0.6650 -1.4682  0.8854
 2196SOL     MW 8784   3.868   4.757   5.190 -0.2511 -0.2134  0.8814
 2197SOL     OW 8785   5.470   4.545   4.899 -0.6543  0.0573  0.0555
 2197SOL    HW1 8786   5.435   4.514   4.816  0.5239  0.7400 -0.7181
 2197SOL    HW2 8787   5.468   4.641   4.892  1.0303  0.1253  0.1046
 2197SOL     MW 8788   5.465   4.554   4.888 -0.2878  0.1534 -0.0373
 2198SOL     OW 8789   0.577   0.332   0.395 -0.2222  0.3125  0.2697
 2198SOL    HW1 8790   0.616   0.249   0.421 -0.6196  0.6101  1.9136
 2198SOL    HW2 8791   0.502   0.307   0.342 -0.0139 -0.3529  0.2718
 2198SOL     MW 8792   0.573   0.318   0.391 -0.2464  0.2654  0.4804
 2199SOL     OW 8793   4.562   2.949   3.682 -0.2518 -0.1921 -0.2797
 2199SOL    HW1 8794   4.477   2.991   3.673 -1.1170 -1.9117 -0.5985
 2199SOL    HW2 8795   4.625   3.014   3.650 -1.8151 -0.2956 -4.0880
 2199SOL     MW 8796   4.559   2.962   3.676 -0.5627 -0.4255 -0.8080
 2200SOL     OW 8797   1.638   4.256   5.155 -0.4752 -0.1981  0.3056
 2200SOL    HW1 8798   1.630   4.332   5.097  3.2306  0.8327  0.8780
 2200SOL    HW2 8799   1.596   4.283   5.237  0.3789  1.0977  0.3454
 2200SOL     MW 8800   1.631   4.269   5.158  0.1085  0.0997  0.3839
 2201SOL     OW 8801   3.862   2.196   1.081 -0.1485 -0.0278  0.4682
 2201SOL    HW1 8802   3.803   2.203   1.007 -2.4554 -0.5338  2.1457
 2201SOL    HW2 8803   3.900   2.283   1.090  0.6524 -0.1106 -1.6009
 2201SOL     MW 8804   3.860   2.208   1.073 -0.3413 -0.1032  0.4181
 2202SOL     OW 8805   4.448   2.043   4.620  0.1872  0.6565 -0.2040
 2202SOL    HW1 8806   4.490   1.972   4.667  0.6970  2.2733  1.9529
 2202SOL    HW2 8807   4.357   2.017   4.613  0.3808 -0.2373  0.4723
 2202SOL     MW 8808   4.442   2.031   4.625  0.2772  0.7491  0.1587
 2203SOL     OW 8809   4.779   4.641   0.251 -0.0942  0.2692  0.5485
 2203SOL    HW1 8810   4.688   4.668   0.265 -0.6151 -0.9587 -0.2938
 2203SOL    HW2 8811   4.773   4.568   0.190  1.4017 -0.4816  1.2507
 2203SOL     MW 8812   4.767   4.635   0.245  0.0306  0.0159  0.5306
 2204SOL     OW 8813   4.144   2.474   3.576 -0.0121  0.1693 -0.7836
 2204SOL    HW1 8814   4.152   2.383   3.547  1.1950  0.1785 -0.5263
 2204SOL    HW2 8815   4.215   2.520   3.531  0.8616  0.5154  0.8649
 2204SOL     MW 8816   4.154   2.468   3.566  0.2543  0.2148 -0.5397
 2205SOL     OW 8817   5.201   3.629   3.043 -0.8322 -0.0175 -0.8578
 2205SOL    HW1 8818   5.111   3.643   3.012 -1.0583  1.3268  0.2872
 2205SOL    HW2 8819   5.254   3.690   2.992 -1.0062  1.1937  0.3413
 2205SOL     MW 8820   5.196   3.639   3.033 -0.8834  0.3097 -0.5578
 2206SOL     OW 8821   4.962   3.048   3.431 -0.5199 -0.1870  0.1688
 2206SOL    HW1 8822   5.018   2.980   3.393  0.4972  0.0142  1.2661
 2206SOL    HW2 8823   4.914   3.004   3.501 -2.4112 -0.5605 -1.2761
 2206SOL     MW 8824   4.963   3.034   3.435 -0.6318 -0.2090  0.1243
 2207SOL     OW 8825   5.054   2.336   4.727 -0.7325  0.4209 -0.2123
 2207SOL    HW1 8826   5.144   2.326   4.694 -0.3507  0.8643  0.6561
 2207SOL    HW2 8827   5.009   2.258   4.696  0.1385 -0.1484 -0.0907
 2207SOL     MW 8828   5.060   2.325   4.719 -0.5721  0.4048 -0.0856
 2208SOL     OW 8829   5.182   5.065   3.136 -0.4704  0.4970 -0.0585
 2208SOL    HW1 8830   5.156   4.973   3.140  0.2663  0.1615 -1.8857
 2208SOL    HW2 8831   5.277   5.063   3.128 -0.5170  1.3479 -1.1109
 2208SOL     MW 8832   5.191   5.053   3.135 -0.3821  0.5630 -0.4271
 2209SOL     OW 8833   2.152   1.718   4.807  0.0764  0.4737 -0.1114
 2209SOL    HW1 8834   2.182   1.628   4.820 -0.0475  0.4047 -0.2944
 2209SOL    HW2 8835   2.109   1.741   4.889  0.4222  0.4906  0.0656
 2209SOL     MW 8836   2.151   1.709   4.819  0.1048  0.4670 -0.1122
 2210SOL     OW 8837   2.270   1.237   2.711 -0.0879  0.2163 -0.4854
 2210SOL    HW1 8838   2.283   1.145   2.688  2.1751 -0.1818  1.8176
 2210SOL    HW2 8839   2.291   1.286   2.632  0.7765 -1.2104 -1.1711
 2210SOL     MW 8840   2.274   1.231   2.698  0.3125 -0.0173 -0.2783
 2211SOL     OW 8841   3.335   2.305   0.632 -0.1352  0.4823 -0.0474
 2211SOL    HW1 8842   3.298   2.324   0.718 -1.0194  2.0633 -0.7179
 2211SOL    HW2 8843   3.407   2.367   0.622  0.0514  0.2156 -0.3890
 2211SOL     MW 8844   3.339   2.316   0.642 -0.2245  0.6505 -0.1769
 2212SOL     OW 8845   4.194   1.076   3.539  0.2178  0.0072  0.0195
 2212SOL    HW1 8846   4.138   1.150   3.564  1.3620  0.8335  0.1847
 2212SOL    HW2 8847   4.193   1.076   3.443  1.4806  1.2430 -0.0113
 2212SOL     MW 8848   4.186   1.085   3.530  0.5259  0.2712  0.0367
 2213SOL     OW 8849   0.063   4.558   0.535  0.1351  0.4715  0.3716
 2213SOL    HW1 8850   0.081   4.485   0.476  1.5829  2.7398 -2.2667
 2213SOL    HW2 8851   0.119   4.542   0.611  0.9864 -0.7864 -0.4831
 2213SOL     MW 8852   0.072   4.547   0.537  0.4294  0.6009 -0.0755
 2214SOL     OW 8853   4.820   1.903   3.987  0.2194  0.0689 -0.4272
 2214SOL    HW1 8854   4.883   1.962   3.946 -0.3476 -0.4965 -2.2086
 2214SOL    HW2 8855   4.735   1.943   3.969 -0.0007  0.6891  1.7243
 2214SOL     MW 8856   4.817   1.916   3.979  0.1186  0.0759 -0.3798
 2215SOL     OW 8857   0.052   3.455   2.240  0.0668 -0.2837  0.3685
 2215SOL    HW1 8858   0.006   3.530   2.203  1.1162  0.8962  1.3503
 2215SOL    HW2 8859   0.055   3.391   2.169  0.7815  1.3316 -1.1512
 2215SOL     MW 8860   0.047   3.456   2.226  0.2926  0.0741  0.2997
 2216SOL     OW 8861   5.219   3.930   3.333  0.0946 -0.2943  0.1960
 2216SOL    HW1 8862   5.131   3.917   3.297  0.7157 -0.5397 -1.2925
 2216SOL    HW2 8863   5.261   3.845   3.323  1.3939  0.5308 -1.6657
 2216SOL     MW 8864   5.213   3.918   3.327  0.3405 -0.2201 -0.2329
 2217SOL     OW 8865   3.303   0.108   2.384  0.4916  0.6376 -0.1465
 2217SOL    HW1 8866   3.213   0.076   2.389  0.7162  0.1215  0.7156
 2217SOL    HW2 8867   3.353   0.034   2.351  0.6356  0.8779 -0.4822
 2217SOL     MW 8868   3.298   0.095   2.380  0.5388  0.6023 -0.0791
 2218SOL     OW 8869   0.046   4.062   0.855 -0.0499 -0.8124  0.2449
 2218SOL    HW1 8870   0.036   4.152   0.823  0.5726 -0.7162  0.3197
 2218SOL    HW2 8871   0.003   4.063   0.941  2.6699  0.2777  1.7351
 2218SOL     MW 8872   0.039   4.074   0.862  0.3780 -0.6605  0.4452
 2219SOL     OW 8873   3.687   0.460   4.417  0.1431 -0.2460  0.1937
 2219SOL    HW1 8874   3.695   0.483   4.510  1.3065 -0.8664  0.2652
 2219SOL    HW2 8875   3.619   0.393   4.415 -0.2573  0.1460  0.5316
 2219SOL     MW 8876   3.679   0.454   4.429  0.2408 -0.2752  0.2461
 2220SOL     OW 8877   1.827   3.722   4.340 -0.3325 -0.6297 -0.0279
 2220SOL    HW1 8878   1.763   3.765   4.284 -1.6568 -2.8710 -0.3304
 2220SOL    HW2 8879   1.906   3.716   4.285 -0.4704  0.3766 -0.3585
 2220SOL     MW 8880   1.829   3.727   4.325 -0.5197 -0.7878 -0.1089
 2221SOL     OW 8881   3.279   0.068   1.249 -0.6405  0.1901  0.1022
 2221SOL    HW1 8882   3.272   0.006   1.176 -0.0674 -2.5470  2.1940
 2221SOL    HW2 8883   3.373   0.081   1.260 -0.6045 -1.0774  1.5766
 2221SOL     MW 8884   3.290   0.062   1.241 -0.5625 -0.3225  0.5587
 2222SOL     OW 8885   2.808   1.887   4.759  0.6571  0.1831 -0.5209
 2222SOL    HW1 8886   2.846   1.972   4.737  0.9894 -0.0315 -0.7720
 2222SOL    HW2 8887   2.857   1.858   4.836 -0.4228  0.8784  0.4682
 2222SOL     MW 8888   2.819   1.894   4.766  0.5614  0.2447 -0.4264
 2223SOL     OW 8889   0.430   3.450   3.265  0.3770  0.3950  0.1083
 2223SOL    HW1 8890   0.393   3.442   3.177 -1.4036  0.5453  0.8028
 2223SOL    HW2 8891   0.370   3.401   3.320  2.1004 -0.7113  1.1143
 2223SOL     MW 8892   0.418   3.442   3.260  0.3697  0.2726  0.3260
 2224SOL     OW 8893   1.946   1.136   3.813  1.0071  0.1651  0.2083
 2224SOL    HW1 8894   2.039   1.115   3.821  0.8738  0.1473  2.2214
 2224SOL    HW2 8895   1.909   1.062   3.764  1.9635 -0.0539 -0.2002
 2224SOL     MW 8896   1.953   1.124   3.807  1.1125  0.1348  0.4137
 2225SOL     OW 8897   4.013   1.804   3.615  0.1324  0.0552  0.0024
 2225SOL    HW1 8898   4.054   1.767   3.537 -0.4571  0.0855 -0.3226
 2225SOL    HW2 8899   4.072   1.779   3.687  0.4843 -0.2824 -0.3995
 2225SOL     MW 8900   4.026   1.796   3.614  0.1020  0.0159 -0.0907
 2226SOL     OW 8901   3.512   5.044   5.351 -0.3416  0.0722  0.1937
 2226SOL    HW1 8902   3.424   5.073   5.375  0.0173  1.5749 -0.2044
 2226SOL    HW2 8903   3.571   5.105   5.396  0.4598 -0.0220 -0.6910
 2226SOL     MW 8904   3.508   5.055   5.360 -0.1931  0.2525  0.0295
 2227SOL     OW 8905   4.662   1.637   1.451 -0.6315 -0.0035 -0.3187
 2227SOL    HW1 8906   4.593   1.615   1.514  0.2085  0.1171  0.6759
 2227SOL    HW2 8907   4.712   1.707   1.494  2.1684 -2.3531  0.6064
 2227SOL     MW 8908   4.659   1.643   1.465 -0.1655 -0.2889 -0.0730
 2228SOL     OW 8909   5.333   3.953   4.200  0.3057 -0.2672  0.2210
 2228SOL    HW1 8910   5.329   4.034   4.249  0.2455  0.5721 -1.1231
 2228SOL    HW2 8911   5.270   3.964   4.129  0.5024 -1.3674 -0.1546
 2228SOL     MW 8912   5.324   3.964   4.197  0.3232 -0.3006  0.0009
 2229SOL     OW 8913   4.194   5.382   1.782  0.3776 -0.0117 -0.6302
 2229SOL    HW1 8914   4.220   5.470   1.755 -1.1353  0.0868 -1.9244
 2229SOL    HW2 8915   4.276   5.337   1.800  1.1619  2.1965  2.0290
 2229SOL     MW 8916   4.208   5.387   1.781  0.2843  0.2836 -0.4555
 2230SOL     OW 8917   1.067   4.466   0.413  0.1020 -0.8534 -0.1064
 2230SOL    HW1 8918   0.981   4.449   0.375 -1.4237  0.7254  2.3597
 2230SOL    HW2 8919   1.081   4.395   0.475  0.0517 -0.5242  0.2880
 2230SOL     MW 8920   1.058   4.455   0.416 -0.0997 -0.6091  0.2598
 2231SOL     OW 8921   1.301   2.909   4.937  0.4100 -0.3431  0.1990
 2231SOL    HW1 8922   1.230   2.920   4.873  0.9936 -0.7713 -0.5425
 2231SOL    HW2 8923   1.381   2.910   4.883  1.1316  2.0750  1.1678
 2231SOL     MW 8924   1.302   2.911   4.922  0.5771 -0.0884  0.2281
 2232SOL     OW 8925   0.472   5.351   0.032  0.5161 -0.3576  0.1890
 2232SOL    HW1 8926   0.402   5.364  -0.033 -0.3428 -0.8334  0.9912
 2232SOL    HW2 8927   0.428   5.309   0.105  1.3796  0.5595  1.2680
 2232SOL     MW 8928   0.457   5.347   0.033  0.5167 -0.3011  0.4298
 2233SOL     OW 8929   4.451   3.770   0.061 -0.1454  0.2299  0.3130
 2233SOL    HW1 8930   4.426   3.735   0.146 -1.1137  3.1461  1.3473
 2233SOL    HW2 8931   4.546   3.758   0.056 -0.3562 -1.8766  0.8192
 2233SOL     MW 8932   4.460   3.764   0.071 -0.2963  0.3336  0.5102
 2234SOL     OW 8933   1.957   1.796   4.644 -0.1727 -0.0299  0.3497
 2234SOL    HW1 8934   2.032   1.757   4.688 -0.2652  0.8649  1.3596
 2234SOL    HW2 8935   1.964   1.768   4.553  2.0608  1.0372  0.1481
 2234SOL     MW 8936   1.967   1.787   4.638  0.1013  0.2213  0.4532
 2235SOL     OW 8937   3.631   2.894   1.295  0.2588  0.0811  0.1888
 2235SOL    HW1 8938   3.543   2.855   1.303 -0.0931  0.9966  1.0297
 2235SOL    HW2 8939   3.664   2.895   1.385  0.7707  0.5456 -0.0058
 2235SOL     MW 8940   3.624   2.889   1.308  0.2793  0.2578  0.2715
 2236SOL     OW 8941   0.349   1.745   0.516 -0.2734 -0.4054  0.3628
 2236SOL    HW1 8942   0.405   1.668   0.529  1.3403  0.6298 -0.1181
 2236SOL    HW2 8943   0.406   1.819   0.535 -1.1145  0.7434 -1.3536
 2236SOL     MW 8944   0.364   1.744   0.520 -0.1745 -0.1258  0.0815
 2237SOL     OW 8945   2.940   0.912   4.984  0.3517 -0.7595 -0.1130
 2237SOL    HW1 8946   2.871   0.870   5.035 -0.1029  1.5457  1.3072
 2237SOL    HW2 8947   3.019   0.901   5.037  0.0526  0.8668  0.7307
 2237SOL     MW 8948   2.941   0.905   4.997  0.2553 -0.2562  0.1768
 2238SOL     OW 8949   3.840   1.850   4.423 -0.1322  0.5284  0.2847
 2238SOL    HW1 8950   3.756   1.805   4.415 -0.0802  0.6143 -1.0960
 2238SOL    HW2 8951   3.817   1.941   4.439 -0.2843  0.4451  0.5514
 2238SOL     MW 8952   3.826   1.856   4.424 -0.1450  0.5287  0.1421
 2239SOL     OW 8953   3.242   0.469   1.564 -0.0599  0.9301  0.1924
 2239SOL    HW1 8954   3.283   0.508   1.487 -1.5879  0.6981 -0.7845
 2239SOL    HW2 8955   3.166   0.524   1.583 -0.6476  0.0563  0.5102
 2239SOL     MW 8956   3.237   0.481   1.557 -0.3307  0.7886  0.1080
 2240SOL     OW 8957   3.762   3.035   0.326 -0.0473  0.1618  0.1591
 2240SOL    HW1 8958   3.736   3.055   0.236 -1.2370 -1.9779 -0.0397
 2240SOL    HW2 8959   3.680   3.040   0.376 -0.0053 -1.6571  0.4941
 2240SOL     MW 8960   3.748   3.038   0.321 -0.1942 -0.3449  0.1766
 2241SOL     OW 8961   0.997   4.470   4.044  0.1222  0.3731  0.0790
 2241SOL    HW1 8962   0.993   4.385   4.000  0.1202  1.3644 -1.9410
 2241SOL    HW2 8963   0.907   4.489   4.069  0.3221 -0.8642  1.9549
 2241SOL     MW 8964   0.985   4.461   4.042  0.1476  0.3416  0.0606
 2242SOL     OW 8965   3.121   1.456   0.613 -0.0663  0.0837  0.2126
 2242SOL    HW1 8966   3.124   1.380   0.672  0.1004 -0.2880 -0.2686
 2242SOL    HW2 8967   3.044   1.505   0.641 -1.4464 -1.3780 -0.8321
 2242SOL     MW 8968   3.112   1.452   0.624 -0.2217 -0.1510  0.0173
 2243SOL     OW 8969   1.291   3.263   2.091 -0.1510  0.2043  0.2041
 2243SOL    HW1 8970   1.274   3.356   2.076 -1.2856  0.3016  1.7907
 2243SOL    HW2 8971   1.207   3.221   2.075 -0.4554 -0.1213  2.3371
 2243SOL     MW 8972   1.278   3.270   2.087 -0.3352  0.1751  0.6802
 2244SOL     OW 8973   1.318   2.305   0.039 -0.3680  0.3706 -0.3946
 2244SOL    HW1 8974   1.388   2.252   0.000  0.1306 -0.4262  1.4963
 2244SOL    HW2 8975   1.347   2.395   0.026  0.8702  0.0640  0.0690
 2244SOL     MW 8976   1.331   2.309   0.032 -0.1457  0.2294 -0.0932
 2245SOL     OW 8977   3.827   2.849   0.792 -0.4226 -0.4847 -0.4063
 2245SOL    HW1 8978   3.816   2.938   0.760 -0.8738 -0.6826 -0.8208
 2245SOL    HW2 8979   3.782   2.847   0.876  0.4779 -0.0517  0.1060
 2245SOL     MW 8980   3.820   2.860   0.798 -0.3651 -0.4546 -0.3938
 2246SOL     OW 8981   4.651   3.139   5.030 -0.3072  0.3168 -0.0843
 2246SOL    HW1 8982   4.580   3.200   5.012 -1.5910 -0.9154  0.6280
 2246SOL    HW2 8983   4.725   3.174   4.980 -1.6312  1.1493 -1.5878
 2246SOL     MW 8984   4.651   3.151   5.021 -0.6410  0.2656 -0.1856
 2247SOL     OW 8985   1.029   2.821   5.257 -0.4266 -0.2257  0.6490
 2247SOL    HW1 8986   1.111   2.794   5.214 -1.4160 -3.1095  0.3575
 2247SOL    HW2 8987   1.035   2.782   5.345  0.1798  2.9310  2.1297
 2247SOL     MW 8988   1.041   2.812   5.263 -0.4756 -0.1908  0.8012
 2248SOL     OW 8989   2.999   2.497   1.499 -0.1466 -0.1043 -0.0777
 2248SOL    HW1 8990   2.942   2.420   1.490 -2.1044  1.3383 -0.4899
 2248SOL    HW2 8991   2.986   2.525   1.590 -0.7696  0.7103 -0.4057
 2248SOL     MW 8992   2.990   2.490   1.510 -0.4770  0.1846 -0.1724
 2249SOL     OW 8993   4.779   5.335   3.008 -0.3448  0.0381  0.5521
 2249SOL    HW1 8994   4.836   5.295   3.074  0.8021 -0.9673 -0.9768
 2249SOL    HW2 8995   4.840   5.379   2.947 -1.3196  0.3676 -0.2164
 2249SOL     MW 8996   4.794   5.336   3.008 -0.3228 -0.0484  0.2580
 2250SOL     OW 8997   5.090   1.198   4.905  0.6973  0.7318  0.0407
 2250SOL    HW1 8998   5.075   1.287   4.937  0.3487  0.1148  1.7300
 2250SOL    HW2 8999   5.164   1.205   4.844  0.4379  2.2162 -0.1175
 2250SOL     MW 9000   5.098   1.210   4.901  0.6194  0.8429  0.2367
 2251SOL     OW 9001   2.524   1.415   3.351  0.1057  0.4509  0.2195
 2251SOL    HW1 9002   2.494   1.480   3.415  0.5989 -0.2082  1.1569
 2251SOL    HW2 9003   2.617   1.402   3.372 -0.2982 -1.5975  1.0550
 2251SOL     MW 9004   2.532   1.421   3.362  0.1171  0.1043  0.4465
 2252SOL     OW 9005   4.554   4.284   5.117  0.1796  0.0240 -0.2070
 2252SOL    HW1 9006   4.519   4.279   5.028 -0.3032  0.7036 -0.0629
 2252SOL    HW2 9007   4.501   4.223   5.167 -0.3184  0.4937 -0.1493
 2252SOL     MW 9008   4.543   4.275   5.112  0.0541  0.1711 -0.1811
 2253SOL     OW 9009   2.302   5.335   3.225 -0.0079  0.6076  0.0767
 2253SOL    HW1 9010   2.396   5.338   3.207 -0.3577  0.3877 -1.9611
 2253SOL    HW2 9011   2.270   5.421   3.197 -0.5967  0.2125 -0.4825
 2253SOL     MW 9012   2.310   5.346   3.219 -0.1281  0.5288 -0.2558
 2254SOL     OW 9013   0.163   2.514   1.833 -0.6217 -0.0866  0.3765
 2254SOL    HW1 9014   0.203   2.549   1.754  0.1974  0.2019  0.9014
 2254SOL    HW2 9015   0.148   2.590   1.889 -2.2711 -0.1413  0.0570
 2254SOL     MW 9016   0.166   2.528   1.830 -0.7280 -0.0567  0.4028
 2255SOL     OW 9017   2.159   4.797   4.294  0.0540  0.0170 -0.0544
 2255SOL    HW1 9018   2.186   4.873   4.242  1.9477 -0.1119  0.6931
 2255SOL    HW2 9019   2.218   4.727   4.267 -1.2718 -1.0641 -0.2886
 2255SOL     MW 9020   2.170   4.798   4.284  0.1267 -0.1379  0.0113
 2256SOL     OW 9021  -0.006   0.760   0.802  0.0828 -0.7955 -0.4817
 2256SOL    HW1 9022   0.080   0.801   0.816  1.0420 -3.0352  0.5735
 2256SOL    HW2 9023   0.014   0.675   0.762 -1.7320 -1.0176 -1.0282
 2256SOL     MW 9024   0.008   0.755   0.798 -0.0268 -1.1107 -0.4166
 2257SOL     OW 9025   4.019   2.319   3.807  0.5317 -0.4501  0.3419
 2257SOL    HW1 9026   4.064   2.333   3.723  1.6549  0.2835  1.0426
 2257SOL    HW2 9027   4.090   2.312   3.871 -0.3416  0.9607  1.5190
 2257SOL     MW 9028   4.034   2.319   3.804  0.5637 -0.1756  0.5823
 2258SOL     OW 9029   2.916   2.791   1.948 -0.2374  0.2535 -0.2290
 2258SOL    HW1 9030   2.831   2.819   1.913 -0.2318 -0.7225 -1.0688
 2258SOL    HW2 9031   2.941   2.717   1.893  1.2457  0.6239 -0.0998
 2258SOL     MW 9032   2.908   2.785   1.936 -0.0469  0.1760 -0.3200
 2259SOL     OW 9033   0.784   2.681   5.408  0.3350  0.3890 -0.2954
 2259SOL    HW1 9034   0.813   2.651   5.322  0.6557 -1.3813  0.3885
 2259SOL    HW2 9035   0.839   2.633   5.470 -0.5584  0.8844  0.9155
 2259SOL     MW 9036   0.795   2.671   5.405  0.2617  0.2258 -0.0529
 2260SOL     OW 9037   0.990   4.133   2.562  0.1045 -0.1528 -0.3194
 2260SOL    HW1 9038   1.012   4.191   2.490  2.2359 -0.6825 -0.1654
 2260SOL    HW2 9039   1.029   4.174   2.639  1.4334 -1.6106 -0.1664
 2260SOL     MW 9040   0.998   4.145   2.563  0.5475 -0.4072 -0.2801
 2261SOL     OW 9041   2.703   5.063   4.346 -0.0093 -0.2100 -0.0332
 2261SOL    HW1 9042   2.711   5.096   4.257 -2.6270  0.3078 -0.1603
 2261SOL    HW2 9043   2.683   5.140   4.399  0.4866 -0.6622  0.8449
 2261SOL     MW 9044   2.701   5.077   4.341 -0.2809 -0.2016  0.0630
 2262SOL     OW 9045   3.493   0.820   3.156  0.2922  0.1365 -0.9302
 2262SOL    HW1 9046   3.558   0.769   3.203 -0.4029  0.4272  0.3936
 2262SOL    HW2 9047   3.441   0.755   3.109 -0.0214 -0.3216  0.0263
 2262SOL     MW 9048   3.494   0.805   3.156  0.1631  0.1151 -0.6383
 2263SOL     OW 9049   1.128   2.219   1.412  0.4665 -0.0542  0.1425
 2263SOL    HW1 9050   1.060   2.159   1.445 -0.2341  1.0422  0.7355
 2263SOL    HW2 9051   1.120   2.215   1.317  0.3799 -0.8263  0.1702
 2263SOL     MW 9052   1.118   2.211   1.404  0.3657 -0.0127  0.2220
 2264SOL     OW 9053   0.900   0.558   1.053  0.5816 -0.4551 -0.0165
 2264SOL    HW1 9054   0.895   0.614   1.130 -0.4809 -1.7623  0.8925
 2264SOL    HW2 9055   0.843   0.601   0.989 -3.0126 -2.1319  1.8060
 2264SOL     MW 9056   0.892   0.571   1.054 -0.0145 -0.8371  0.3332
 2265SOL     OW 9057   2.371   4.342   2.842 -0.6366 -0.6149  0.0357
 2265SOL    HW1 9058   2.282   4.368   2.820 -0.3927  1.2554  1.0610
 2265SOL    HW2 9059   2.365   4.248   2.860 -3.0443 -0.0841  2.8140
 2265SOL     MW 9060   2.359   4.333   2.842 -0.9136 -0.3075  0.5226
 2266SOL     OW 9061   5.086   4.714   0.488 -0.2053 -0.4795  0.3969
 2266SOL    HW1 9062   5.020   4.773   0.451  1.0071  0.6462 -0.0576
 2266SOL    HW2 9063   5.135   4.682   0.412  1.9566  1.4233  0.8879
 2266SOL     MW 9064   5.083   4.718   0.474  0.2267 -0.0918  0.4016
 2267SOL     OW 9065   4.641   0.587   3.694  0.0060  0.4433  0.2321
 2267SOL    HW1 9066   4.699   0.549   3.629  1.9055  0.9031  1.5697
 2267SOL    HW2 9067   4.648   0.681   3.681 -0.0745  0.5188  0.7079
 2267SOL     MW 9068   4.649   0.594   3.684  0.2388  0.5119  0.4643
 2268SOL     OW 9069   0.102   0.645   3.475 -0.2812 -0.4781  0.1780
 2268SOL    HW1 9070   0.096   0.581   3.545 -0.1536 -0.1931  0.4525
 2268SOL    HW2 9071   0.185   0.690   3.491 -0.9096  0.5425  0.6722
 2268SOL     MW 9072   0.112   0.643   3.486 -0.3453 -0.3110  0.2764
 2269SOL     OW 9073   1.292   1.495   0.844 -0.0089  0.2453  0.3392
 2269SOL    HW1 9074   1.263   1.404   0.843  0.0520  0.2248  0.4067
 2269SOL    HW2 9075   1.359   1.499   0.776 -2.4672  1.0666 -2.1845
 2269SOL     MW 9076   1.297   1.484   0.835 -0.3158  0.3478  0.0248
 2270SOL     OW 9077   1.094   0.287   3.294  0.2457 -0.1652 -0.0727
 2270SOL    HW1 9078   1.031   0.222   3.327  0.4776 -0.0299  0.6500
 2270SOL    HW2 9079   1.157   0.297   3.365  0.6062  0.3400 -0.4596
 2270SOL     MW 9080   1.094   0.280   3.307  0.3215 -0.0832 -0.0297
 2271SOL     OW 9081   2.205   4.589   2.709 -0.4276 -0.1913  0.2473
 2271SOL    HW1 9082   2.217   4.674   2.666  0.1719  0.7002  2.0600
 2271SOL    HW2 9083   2.161   4.610   2.791 -1.8995 -1.8782 -0.0586
 2271SOL     MW 9084   2.201   4.603   2.714 -0.5393 -0.2931  0.4402
 2272SOL     OW 9085   3.014   4.600   4.529  0.4885  0.0493 -0.3680
 2272SOL    HW1 9086   2.997   4.642   4.445 -1.2884  1.3986  0.6074
 2272SOL    HW2 9087   3.067   4.523   4.507 -3.1313 -1.9402 -3.2162
 2272SOL     MW 9088   3.019   4.595   4.516 -0.2023 -0.0327 -0.6077
 2273SOL     OW 9089   0.192   2.324   0.930 -0.0111 -0.3831 -0.3220
 2273SOL    HW1 9090   0.149   2.408   0.917  0.1363 -0.3252 -0.4381
 2273SOL    HW2 9091   0.280   2.347   0.961 -0.4273 -0.5154  1.0117
 2273SOL     MW 9092   0.198   2.338   0.932 -0.0455 -0.3927 -0.1661
 2274SOL     OW 9093   0.738   1.361   1.244 -0.0977 -0.3027 -0.2350
 2274SOL    HW1 9094   0.788   1.370   1.163 -0.4488  0.6912 -0.3500
 2274SOL    HW2 9095   0.665   1.304   1.221 -0.8145  0.8716 -0.9166
 2274SOL     MW 9096   0.735   1.355   1.231 -0.2344 -0.0251 -0.3370
 2275SOL     OW 9097   2.094   0.870   3.682 -0.0160 -0.0957 -0.0295
 2275SOL    HW1 9098   2.101   0.841   3.591  0.8523 -1.0218  0.3180
 2275SOL    HW2 9099   2.153   0.944   3.689 -0.4264  0.2656 -0.3228
 2275SOL     MW 9100   2.102   0.875   3.672  0.0426 -0.1680 -0.0225
 2276SOL     OW 9101   0.826   1.087   4.394 -0.1549 -0.0625  0.0902
 2276SOL    HW1 9102   0.737   1.107   4.423  0.2275  2.2293 -0.1324
 2276SOL    HW2 9103   0.865   1.172   4.375  1.0050 -1.1717 -3.1157
 2276SOL     MW 9104   0.820   1.100   4.396  0.0425  0.0889 -0.3487
 2277SOL     OW 9105   0.583   2.641   2.576 -0.1089  0.8187  0.3125
 2277SOL    HW1 9106   0.629   2.578   2.520  0.4668  0.4691  1.1604
 2277SOL    HW2 9107   0.500   2.657   2.531 -0.3120 -0.6249  0.1369
 2277SOL     MW 9108   0.578   2.635   2.563 -0.0612  0.5892  0.3985
 2278SOL     OW 9109   2.088   4.849   5.052  0.5177  0.6723 -0.3170
 2278SOL    HW1 9110   2.043   4.821   4.972  0.7003  0.4127 -0.3306
 2278SOL    HW2 9111   2.137   4.927   5.027  0.5199  0.6307 -0.4408
 2278SOL     MW 9112   2.088   4.855   5.038  0.5413  0.6338 -0.3346
 2279SOL     OW 9113   4.903   0.541   3.572  0.4178 -0.1864 -0.3139
 2279SOL    HW1 9114   4.917   0.632   3.599 -0.2575 -0.3623  0.6472
 2279SOL    HW2 9115   4.989   0.500   3.583  0.7253  0.3231 -0.7439
 2279SOL     MW 9116   4.916   0.547   3.577  0.3707 -0.1437 -0.2459
 2280SOL     OW 9117   4.698   4.125   0.643  0.2693 -0.1950 -0.3143
 2280SOL    HW1 9118   4.627   4.062   0.654  1.4671 -1.3863  0.9539
 2280SOL    HW2 9119   4.667   4.184   0.574 -1.3697 -1.4652 -0.7265
 2280SOL     MW 9120   4.685   4.125   0.636  0.2128 -0.5101 -0.2048
 2281SOL     OW 9121   3.245   0.456   4.155 -0.3487  0.1667  0.5614
 2281SOL    HW1 9122   3.273   0.382   4.209 -2.1200  0.1517  1.5214
 2281SOL    HW2 9123   3.150   0.446   4.148 -0.3026  0.6879 -1.8372
 2281SOL     MW 9124   3.236   0.445   4.161 -0.5695  0.2315  0.3773
 2282SOL     OW 9125   0.851   0.719   2.884 -0.7433 -0.6362 -0.1408
 2282SOL    HW1 9126   0.763   0.750   2.862  0.0147  1.5723 -0.3311
 2282SOL    HW2 9127   0.870   0.761   2.968  1.2683  1.5174 -1.5709
 2282SOL     MW 9128   0.842   0.729   2.892 -0.3888 -0.0778 -0.3482
 2283SOL     OW 9129   4.922   5.170   3.444 -0.4856  0.4496  0.7951
 2283SOL    HW1 9130   4.966   5.219   3.374 -1.5388 -0.1370 -0.3155
 2283SOL    HW2 9131   4.991   5.117   3.483  0.1108  0.7029  0.1253
 2283SOL     MW 9132   4.936   5.170   3.440 -0.5441  0.4070  0.5672
 2284SOL     OW 9133   2.261   2.489   3.875  0.0916 -0.0987  0.0984
 2284SOL    HW1 9134   2.298   2.562   3.826 -1.2936  0.2213 -0.5126
 2284SOL    HW2 9135   2.291   2.503   3.964 -1.5101  2.2204  0.3724
 2284SOL     MW 9136   2.270   2.500   3.880 -0.2907  0.2392  0.0552
 2285SOL     OW 9137   1.654   1.429   0.717  0.5615  0.0659  0.3932
 2285SOL    HW1 9138   1.721   1.390   0.661  1.2412  0.7347  0.7272
 2285SOL    HW2 9139   1.681   1.406   0.806  0.3241  0.3091  0.5302
 2285SOL     MW 9140   1.666   1.421   0.722  0.6181  0.1827  0.4535
 2286SOL     OW 9141   3.152   3.474   2.336  0.1315 -0.1361 -0.2808
 2286SOL    HW1 9142   3.061   3.460   2.307  0.0683 -0.4944  0.0785
 2286SOL    HW2 9143   3.171   3.397   2.390  1.0145 -0.5947 -1.2140
 2286SOL     MW 9144   3.143   3.462   2.339  0.2365 -0.2407 -0.3543
 2287SOL     OW 9145   3.412   2.038   0.541  0.1014 -0.5528 -0.8028
 2287SOL    HW1 9146   3.392   2.119   0.586  3.0478  0.4697 -1.1044
 2287SOL    HW2 9147   3.356   2.039   0.463 -2.1364 -0.4082  0.7400
 2287SOL     MW 9148   3.403   2.048   0.537  0.1921 -0.4034 -0.6439
 2288SOL     OW 9149   0.830   0.513   3.697 -0.0999 -0.0173 -0.1101
 2288SOL    HW1 9150   0.775   0.584   3.665 -0.1108 -0.3460 -0.8429
 2288SOL    HW2 9151   0.770   0.449   3.733 -0.1592 -0.0670 -0.2932
 2288SOL     MW 9152   0.816   0.514   3.697 -0.1089 -0.0658 -0.2273
 2289SOL     OW 9153   2.981   0.814   2.342  0.0729  0.3324  0.2618
 2289SOL    HW1 9154   3.035   0.843   2.416  1.4117 -0.2807 -0.4346
 2289SOL    HW2 9155   3.016   0.728   2.319 -0.4959  0.3899 -0.9116
 2289SOL     MW 9156   2.992   0.807   2.348  0.1715  0.2613  0.0224
 2290SOL     OW 9157   5.006   4.545   2.291 -0.3250 -0.1471 -0.4824
 2290SOL    HW1 9158   4.967   4.611   2.348  0.2423  0.6102 -0.9384
 2290SOL    HW2 9159   4.952   4.468   2.302 -1.7351  0.7593 -0.8394
 2290SOL     MW 9160   4.994   4.544   2.300 -0.4329  0.0658 -0.5865
 2291SOL     OW 9161   0.204   4.463   0.809 -0.2699  0.2604 -0.1341
 2291SOL    HW1 9162   0.289   4.482   0.848 -0.3956 -0.8655  0.7438
 2291SOL    HW2 9163   0.151   4.541   0.826  0.3450  0.6377  0.0448
 2291SOL     MW 9164   0.208   4.475   0.817 -0.2073  0.1645  0.0012
 2292SOL     OW 9165   2.870   0.586   4.318 -0.1047  0.1972 -0.6196
 2292SOL    HW1 9166   2.792   0.623   4.278 -0.3311 -0.5954 -0.9185
 2292SOL    HW2 9167   2.848   0.578   4.411  0.2612  1.6065 -0.3734
 2292SOL     MW 9168   2.857   0.590   4.325 -0.0869  0.2761 -0.6263
 2293SOL     OW 9169   4.465   0.720   5.425  0.2648 -0.3322  0.1628
 2293SOL    HW1 9170   4.496   0.804   5.391  2.0690 -0.6178  1.0174
 2293SOL    HW2 9171   4.525   0.699   5.496  0.3768 -2.7583 -0.5535
 2293SOL     MW 9172   4.476   0.728   5.430  0.5101 -0.6793  0.1805
 2294SOL     OW 9173   2.291   1.677   2.629 -0.3183  0.1438 -0.0122
 2294SOL    HW1 9174   2.248   1.668   2.713  0.0279 -0.3278  0.1201
 2294SOL    HW2 9175   2.256   1.758   2.592 -0.8593  0.0764  0.3528
 2294SOL     MW 9176   2.281   1.686   2.635 -0.3433  0.0748  0.0514
 2295SOL     OW 9177   3.744   4.351   1.669 -0.2627 -0.2506 -0.2211
 2295SOL    HW1 9178   3.811   4.299   1.624 -1.8019 -2.2218 -0.3808
 2295SOL    HW2 9179   3.707   4.407   1.600  0.0911 -0.3493 -0.4947
 2295SOL     MW 9180   3.748   4.352   1.654 -0.4144 -0.5155 -0.2766
 2296SOL     OW 9181   2.231   4.352   4.333  0.1905  0.2281 -0.5034
 2296SOL    HW1 9182   2.157   4.350   4.393 -0.3809 -1.1063 -1.1978
 2296SOL    HW2 9183   2.308   4.342   4.389 -0.2641  0.0891  0.1047
 2296SOL     MW 9184   2.231   4.350   4.348  0.0591  0.0395 -0.5145
 2297SOL     OW 9185   0.192   0.575   3.938  0.1639 -0.2541 -0.0426
 2297SOL    HW1 9186   0.167   0.506   4.000  1.4443 -0.6951  0.0165
 2297SOL    HW2 9187   0.205   0.653   3.993 -1.5399  0.1383 -0.1414
 2297SOL     MW 9188   0.190   0.576   3.953  0.1097 -0.2603 -0.0476
 2298SOL     OW 9189   0.812   2.660   2.325  0.0809  0.0455  0.0087
 2298SOL    HW1 9190   0.792   2.568   2.338 -0.4887  0.3268  1.3841
 2298SOL    HW2 9191   0.854   2.688   2.407  0.4988  0.9388 -0.4877
 2298SOL     MW 9192   0.815   2.652   2.337  0.0615  0.1959  0.1212
 2299SOL     OW 9193   0.960   5.340   3.644 -0.3380  0.0907 -0.5531
 2299SOL    HW1 9194   1.038   5.317   3.595  0.0026  0.8254 -0.3668
 2299SOL    HW2 9195   0.964   5.435   3.653 -1.3483  0.1595 -0.6987
 2299SOL     MW 9196   0.970   5.349   3.639 -0.4237  0.1936 -0.5479
 2300SOL     OW 9197   1.119   1.108   0.142  0.6963  0.6816 -0.1252
 2300SOL    HW1 9198   1.068   1.124   0.221 -1.3098 -1.7815 -0.7810
 2300SOL    HW2 9199   1.112   1.188   0.091 -1.6322  0.8199  0.3338
 2300SOL     MW 9200   1.112   1.120   0.146  0.1414  0.3840 -0.1504
 2301SOL     OW 9201   0.088   4.305   1.974  0.0382  0.4857  0.1126
 2301SOL    HW1 9202   0.024   4.305   2.046  1.2204 -0.0506  1.2128
 2301SOL    HW2 9203   0.060   4.232   1.918 -0.3016  0.2302  0.5985
 2301SOL     MW 9204   0.076   4.295   1.976  0.1460  0.3843  0.3156
 2302SOL     OW 9205   5.352   3.534   0.645  0.2139  0.1235  0.1192
 2302SOL    HW1 9206   5.281   3.593   0.673 -0.4675  0.0564 -1.3592
 2302SOL    HW2 9207   5.424   3.553   0.705 -1.1825 -0.1353  1.9839
 2302SOL     MW 9208   5.352   3.544   0.657 -0.0521  0.0818  0.1687
 2303SOL     OW 9209   4.685   2.867   5.058  0.2909  0.3707 -0.3402
 2303SOL    HW1 9210   4.642   2.951   5.041  0.4681  0.5000 -0.1479
 2303SOL    HW2 9211   4.778   2.885   5.051  0.3193  0.0533 -0.9226
 2303SOL     MW 9212   4.691   2.880   5.055  0.3172  0.3466 -0.3902
 2304SOL     OW 9213   3.047   2.971   4.127  0.1067 -0.1427 -0.5212
 2304SOL    HW1 9214   3.134   2.933   4.118  0.3056  0.3545 -0.7799
 2304SOL    HW2 9215   3.060   3.064   4.108  0.2202  0.7056  3.0517
 2304SOL     MW 9216   3.060   2.978   4.123  0.1467  0.0296 -0.0969
 2305SOL     OW 9217   4.198   0.186   1.777  0.0755  0.4206 -0.0903
 2305SOL    HW1 9218   4.104   0.171   1.761  0.1851  0.9137 -1.3209
 2305SOL    HW2 9219   4.220   0.258   1.719  0.8239  1.5600  1.5433
 2305SOL     MW 9220   4.189   0.193   1.768  0.1854  0.6296 -0.0387
 2306SOL     OW 9221   3.996   2.205   0.754  0.3367 -0.7644 -0.0247
 2306SOL    HW1 9222   4.062   2.139   0.775  0.4718 -0.9437 -0.9685
 2306SOL    HW2 9223   3.913   2.158   0.756  0.0331 -0.2818  2.4182
 2306SOL     MW 9224   3.993   2.191   0.757  0.3151 -0.7256  0.1672
 2307SOL     OW 9225   3.209   0.795   2.763 -0.5242  0.1502 -0.5800
 2307SOL    HW1 9226   3.228   0.855   2.835  1.4830 -0.7997 -0.2376
 2307SOL    HW2 9227   3.127   0.753   2.788 -1.0967  1.5337 -0.0345
 2307SOL     MW 9228   3.201   0.797   2.776 -0.3406  0.2057 -0.4663
 2308SOL     OW 9229   2.483   0.028   2.170 -0.5366 -0.0216  0.2467
 2308SOL    HW1 9230   2.478   0.112   2.125  0.4604 -0.1642 -0.1638
 2308SOL    HW2 9231   2.498   0.051   2.262 -1.6593  0.2556  0.3752
 2308SOL     MW 9232   2.484   0.042   2.176 -0.5527 -0.0044  0.2106
 2309SOL     OW 9233   0.060   0.151   1.606 -0.7079  0.4260  0.2355
 2309SOL    HW1 9234  -0.031   0.138   1.634 -0.6711 -1.4872 -0.3999
 2309SOL    HW2 9235   0.056   0.150   1.510  0.0747 -0.6203  0.1946
 2309SOL     MW 9236   0.047   0.149   1.597 -0.6030  0.0471  0.1489
 2310SOL     OW 9237   5.152   3.748   4.589  0.7979  0.4198  0.0810
 2310SOL    HW1 9238   5.208   3.679   4.623  1.0612  0.2909 -0.6000
 2310SOL    HW2 9239   5.070   3.704   4.568  1.1588  0.1725 -0.9066
 2310SOL     MW 9240   5.149   3.733   4.590  0.8778  0.3716 -0.1326
 2311SOL     OW 9241   4.237   2.939   1.378 -0.3687  0.5209  0.5648
 2311SOL    HW1 9242   4.301   2.885   1.424 -0.1013  0.7073  0.4094
 2311SOL    HW2 9243   4.285   3.018   1.354 -0.9231  1.1303  1.3770
 2311SOL     MW 9244   4.251   2.943   1.381 -0.4054  0.6228  0.6489
 2312SOL     OW 9245   5.457   1.224   0.659  0.0301  0.4009  0.8881
 2312SOL    HW1 9246   5.433   1.134   0.637  0.1150  0.7288 -0.6745
 2312SOL    HW2 9247   5.486   1.220   0.750 -0.4956 -1.0402  1.0148
 2312SOL     MW 9248   5.458   1.212   0.668 -0.0263  0.2584  0.7043
 2313SOL     OW 9249   3.732   5.033   3.143  0.2514 -0.2964 -0.5169
 2313SOL    HW1 9250   3.788   5.088   3.198  0.6086  0.2564 -1.4060
 2313SOL    HW2 9251   3.660   5.090   3.117  0.6321 -0.2211 -1.4582
 2313SOL     MW 9252   3.730   5.047   3.147  0.3459 -0.2160 -0.7512
 2314SOL     OW 9253   1.076   1.730   1.766 -0.3631 -0.0025  0.0417
 2314SOL    HW1 9254   1.062   1.824   1.763 -0.8886 -0.0928 -0.7763
 2314SOL    HW2 9255   1.152   1.715   1.710 -0.6193 -0.1173 -0.2791
 2314SOL     MW 9256   1.084   1.740   1.758 -0.4632 -0.0287 -0.1041
 2315SOL     OW 9257   4.998   0.783   0.892  0.1338 -0.4744 -0.1678
 2315SOL    HW1 9258   5.065   0.716   0.880  0.7942  0.2091 -0.4057
 2315SOL    HW2 9259   5.023   0.852   0.830 -0.3937  0.0860  0.2381
 2315SOL     MW 9260   5.010   0.783   0.883  0.1508 -0.3152 -0.1463
 2316SOL     OW 9261   1.673   3.004   3.170 -0.2331 -0.4983  0.0875
 2316SOL    HW1 9262   1.681   2.962   3.256 -0.3698  0.0513  0.3762
 2316SOL    HW2 9263   1.620   2.943   3.118 -0.0943 -0.8639  0.3740
 2316SOL     MW 9264   1.667   2.991   3.174 -0.2328 -0.4747  0.1611
 2317SOL     OW 9265   1.820   0.452   3.627 -0.2702  0.1918 -0.5513
 2317SOL    HW1 9266   1.816   0.396   3.549 -0.6172  0.6294 -0.8546
 2317SOL    HW2 9267   1.810   0.541   3.593  1.3425  0.5406 -0.1945
 2317SOL     MW 9268   1.818   0.456   3.612 -0.1082  0.2924 -0.5445
 2318SOL     OW 9269   2.693   1.260   4.552  0.4262 -0.1596  1.0996
 2318SOL    HW1 9270   2.691   1.320   4.477  2.9342 -0.2486  0.8874
 2318SOL    HW2 9271   2.697   1.317   4.629  1.5261 -0.0329  0.9595
 2318SOL     MW 9272   2.693   1.275   4.552  0.8881 -0.1548  1.0545
 2319SOL     OW 9273   4.578   0.621   1.736 -0.7474  0.2997  0.1244
 2319SOL    HW1 9274   4.649   0.686   1.732 -1.2268  0.8820  0.7826
 2319SOL    HW2 9275   4.562   0.609   1.830 -0.9607 -0.4552 -0.0003
 2319SOL     MW 9276   4.585   0.628   1.748 -0.8361  0.2776  0.1927
 2320SOL     OW 9277   1.701   4.605   3.606  0.1550 -0.1725 -0.0143
 2320SOL    HW1 9278   1.788   4.630   3.576  0.9144 -2.3002  0.2447
 2320SOL    HW2 9279   1.715   4.526   3.658 -1.8021  0.1641  1.1250
 2320SOL     MW 9280   1.714   4.598   3.608  0.0017 -0.4018  0.1647
 2321SOL     OW 9281   2.171   2.030   3.108  0.5720  0.0049 -0.0155
 2321SOL    HW1 9282   2.221   2.093   3.055 -2.0539  1.7007 -0.6585
 2321SOL    HW2 9283   2.180   1.947   3.062  2.6238  0.2514 -0.1677
 2321SOL     MW 9284   2.179   2.028   3.096  0.4985  0.2535 -0.1173
 2322SOL     OW 9285   0.873   4.990   5.402 -0.1352 -0.0553  0.3634
 2322SOL    HW1 9286   0.921   5.060   5.447 -1.6763  0.7950  0.7614
 2322SOL    HW2 9287   0.876   5.015   5.309  1.0276 -0.5533  0.2516
 2322SOL     MW 9288   0.880   5.002   5.396 -0.1836 -0.0102  0.4001
 2323SOL     OW 9289   2.672   5.209   4.089 -0.5811  0.3262  0.1082
 2323SOL    HW1 9290   2.729   5.279   4.120  1.9348 -0.4326 -2.3514
 2323SOL    HW2 9291   2.660   5.227   3.995  2.0498 -3.4735 -1.2224
 2323SOL     MW 9292   2.678   5.220   4.081  0.0777 -0.2574 -0.3770
 2324SOL     OW 9293   4.096   5.256   1.074 -0.3975 -0.6331 -0.3761
 2324SOL    HW1 9294   4.160   5.327   1.069 -1.4606  0.3044 -1.0212
 2324SOL    HW2 9295   4.148   5.180   1.101  0.7635  0.3771  0.3801
 2324SOL     MW 9296   4.111   5.255   1.077 -0.3850 -0.3838 -0.3618
 2325SOL     OW 9297   0.283   2.710   0.217 -0.1644  0.1669 -0.3112
 2325SOL    HW1 9298   0.317   2.624   0.191 -1.8330 -0.4571 -0.5353
 2325SOL    HW2 9299   0.339   2.772   0.169  0.6562 -0.7969 -0.6550
 2325SOL     MW 9300   0.295   2.707   0.207 -0.2730 -0.0364 -0.3839
 2326SOL     OW 9301   5.102   5.254   2.668  0.0189  0.1305  0.0345
 2326SOL    HW1 9302   5.081   5.325   2.729 -1.6998  0.8207 -1.2993
 2326SOL    HW2 9303   5.101   5.175   2.722  0.3562  0.9159  1.2363
 2326SOL     MW 9304   5.100   5.253   2.683 -0.1579  0.3194  0.0176
 2327SOL     OW 9305   2.006   1.779   2.464  0.2665  0.1524  0.1607
 2327SOL    HW1 9306   1.937   1.841   2.442 -0.3171 -1.6096 -3.7906
 2327SOL    HW2 9307   2.060   1.825   2.529 -2.2044  3.2145  0.2631
 2327SOL     MW 9308   2.004   1.792   2.469 -0.1245  0.3189 -0.3320
 2328SOL     OW 9309   1.989   0.913   4.955  0.3000 -0.5779 -0.8088
 2328SOL    HW1 9310   2.045   0.909   5.033  1.0465  3.4266 -0.9158
 2328SOL    HW2 9311   1.903   0.886   4.986  0.8342 -0.1682  1.1608
 2328SOL     MW 9312   1.986   0.909   4.969  0.4639 -0.0128 -0.5704
 2329SOL     OW 9313   2.358   3.467   0.984 -0.1657  0.4906 -0.2331
 2329SOL    HW1 9314   2.385   3.382   1.018  1.6727  1.2565  0.3788
 2329SOL    HW2 9315   2.312   3.447   0.903  0.0733 -1.0832 -0.0143
 2329SOL     MW 9316   2.356   3.453   0.978  0.1003  0.3872 -0.1268
 2330SOL     OW 9317   2.141   0.528   0.845  0.1828 -0.4478 -0.2200
 2330SOL    HW1 9318   2.112   0.604   0.795 -0.4402 -0.6331 -0.1570
 2330SOL    HW2 9319   2.080   0.524   0.918  1.8620  0.5824  1.3091
 2330SOL     MW 9320   2.130   0.537   0.848  0.3180 -0.3397 -0.0162
 2331SOL     OW 9321   1.401   3.128   3.812  0.2926 -0.2554  0.5625
 2331SOL    HW1 9322   1.354   3.068   3.754  0.2627  0.8230 -0.5669
 2331SOL    HW2 9323   1.490   3.092   3.817  0.4769 -0.0168 -0.6985
 2331SOL     MW 9324   1.407   3.116   3.806  0.3124 -0.0868  0.2565
 2332SOL     OW 9325   3.678   3.017   5.497 -0.5694 -0.2421 -0.3079
 2332SOL    HW1 9326   3.684   3.071   5.419 -0.7013 -1.2490 -1.0378
 2332SOL    HW2 9327   3.724   2.936   5.474 -0.8325 -0.6547  0.5596
 2332SOL     MW 9328   3.684   3.013   5.484 -0.6200 -0.4238 -0.2903
 2333SOL     OW 9329   4.356   4.535   2.597 -0.1276  0.3755  0.5214
 2333SOL    HW1 9330   4.388   4.605   2.540 -0.6440  1.0787  1.0861
 2333SOL    HW2 9331   4.420   4.530   2.667 -0.3742  0.6689  0.7742
 2333SOL     MW 9332   4.368   4.543   2.599 -0.2253  0.5031  0.6261
 2334SOL     OW 9333   0.835   4.112   3.615  0.1570 -0.0431  0.2397
 2334SOL    HW1 9334   0.748   4.093   3.649 -0.6758  1.5688 -0.8505
 2334SOL    HW2 9335   0.857   4.198   3.652  0.5881  0.2785 -0.7224
 2334SOL     MW 9336   0.827   4.121   3.624  0.1056  0.2044 -0.0231
 2335SOL     OW 9337   4.517   4.440   3.693  0.1467  0.4054  0.4192
 2335SOL    HW1 9338   4.595   4.435   3.748 -0.4559  0.0180  1.2735
 2335SOL    HW2 9339   4.495   4.349   3.675 -1.2220  0.4045  1.8532
 2335SOL     MW 9340   4.524   4.428   3.698 -0.1057  0.3557  0.7122
 2336SOL     OW 9341   1.643   2.702   2.320 -0.0665 -0.4875  0.0417
 2336SOL    HW1 9342   1.549   2.695   2.302  0.5351 -0.6353 -3.7395
 2336SOL    HW2 9343   1.685   2.664   2.243  3.1454 -0.2980  1.5505
 2336SOL     MW 9344   1.636   2.696   2.308  0.4217 -0.4822 -0.2492
 2337SOL     OW 9345   4.954   3.883   4.315 -0.3376 -0.0011  0.2205
 2337SOL    HW1 9346   5.024   3.823   4.340 -0.0272  0.9290  1.6754
 2337SOL    HW2 9347   4.999   3.966   4.297 -0.9501  0.3088  0.0914
 2337SOL     MW 9348   4.969   3.886   4.316 -0.3763  0.1576  0.3902
 2338SOL     OW 9349   3.782   3.845   2.481 -0.1699  0.5822 -0.1565
 2338SOL    HW1 9350   3.776   3.813   2.391 -0.1570 -0.2181  0.1132
 2338SOL    HW2 9351   3.817   3.770   2.530  0.1435  1.1240  0.4514
 2338SOL     MW 9352   3.786   3.831   2.476 -0.1281  0.5491 -0.0442
 2339SOL     OW 9353   2.884   0.081   5.302  0.7215  0.5503  0.1180
 2339SOL    HW1 9354   2.907   0.015   5.236 -2.0354 -0.5125  0.0958
 2339SOL    HW2 9355   2.924   0.049   5.383 -0.2245 -0.9700  0.0163
 2339SOL     MW 9356   2.892   0.069   5.304  0.2475  0.2197  0.1021
 2340SOL     OW 9357   3.257   0.715   4.721 -0.1749 -0.1249  0.1900
 2340SOL    HW1 9358   3.254   0.692   4.814 -0.0587  1.4698  0.6317
 2340SOL    HW2 9359   3.189   0.781   4.711 -0.3617 -0.4686 -0.9284
 2340SOL     MW 9360   3.248   0.721   4.732 -0.1839  0.0352  0.1034
 2341SOL     OW 9361   2.472   0.949   1.008  0.3088 -0.0185 -0.3016
 2341SOL    HW1 9362   2.521   1.032   1.016  0.5147  0.1722 -2.7212
 2341SOL    HW2 9363   2.492   0.918   0.919 -2.5252 -0.8732 -0.7432
 2341SOL     MW 9364   2.481   0.956   0.997 -0.0276 -0.1035 -0.6679
 2342SOL     OW 9365   3.677   2.556   4.885 -0.0256  0.3277  0.4856
 2342SOL    HW1 9366   3.755   2.545   4.829 -0.4252  1.6854 -0.4079
 2342SOL    HW2 9367   3.694   2.637   4.932 -0.3762 -0.0192  1.2129
 2342SOL     MW 9368   3.689   2.565   4.884 -0.1216  0.4571  0.4643
 2343SOL     OW 9369   1.634   0.517   1.637  0.0212 -0.5515 -0.4911
 2343SOL    HW1 9370   1.636   0.502   1.731 -1.0883 -1.6871 -0.6332
 2343SOL    HW2 9371   1.549   0.558   1.620  0.1709 -0.4470 -1.0205
 2343SOL     MW 9372   1.624   0.521   1.647 -0.1017 -0.6835 -0.5771
 2344SOL     OW 9373   5.308   2.807   4.269  0.1484  0.2352  0.3849
 2344SOL    HW1 9374   5.287   2.714   4.258 -0.2637  0.4080 -0.3172
 2344SOL    HW2 9375   5.388   2.819   4.219 -0.1075  0.3818  0.0122
 2344SOL     MW 9376   5.316   2.797   4.262  0.0629  0.2761  0.2473
 2345SOL     OW 9377   1.216   4.229   3.545  0.3985 -0.3159 -0.2762
 2345SOL    HW1 9378   1.274   4.186   3.608 -0.3757  0.1713  0.7956
 2345SOL    HW2 9379   1.177   4.302   3.594  0.5570  0.7049 -1.6279
 2345SOL     MW 9380   1.218   4.233   3.560  0.3196 -0.1229 -0.3120
 2346SOL     OW 9381   3.299   4.206   3.308 -0.5001 -0.2278 -0.5043
 2346SOL    HW1 9382   3.252   4.162   3.379 -1.0546 -0.0942 -0.7799
 2346SOL    HW2 9383   3.344   4.136   3.262  0.1165 -0.2798  0.1617
 2346SOL     MW 9384   3.299   4.191   3.311 -0.4922 -0.2174 -0.4543
 2347SOL     OW 9385   3.192   5.208   4.971  0.4818 -0.1251  0.2580
 2347SOL    HW1 9386   3.222   5.294   4.942 -0.6019  0.3275  0.4374
 2347SOL    HW2 9387   3.214   5.149   4.899  0.5931  0.4250 -0.1643
 2347SOL     MW 9388   3.199   5.211   4.958  0.3573  0.0033  0.2269
 2348SOL     OW 9389   3.709   4.505   4.057 -0.2445 -0.2772 -0.1761
 2348SOL    HW1 9390   3.636   4.462   4.012 -0.6283 -1.0466  1.1366
 2348SOL    HW2 9391   3.697   4.598   4.038 -1.1385 -0.4638 -0.5814
 2348SOL     MW 9392   3.698   4.511   4.049 -0.4081 -0.3996 -0.0599
 2349SOL     OW 9393   4.502   0.320   3.839 -0.2025  0.0430 -0.5566
 2349SOL    HW1 9394   4.537   0.387   3.781  1.1304  0.3445  0.5557
 2349SOL    HW2 9395   4.429   0.281   3.790 -1.9126  3.1604 -0.7043
 2349SOL     MW 9396   4.497   0.323   3.825 -0.2507  0.4806 -0.4331
 2350SOL     OW 9397   3.438   3.787   3.455  0.3697  0.1169 -0.5016
 2350SOL    HW1 9398   3.445   3.831   3.540  0.2691 -1.4628  0.3751
 2350SOL    HW2 9399   3.368   3.834   3.409 -0.7843 -0.0468  0.9968
 2350SOL     MW 9400   3.430   3.799   3.460  0.2091 -0.1063 -0.1975
 2351SOL     OW 9401   4.007   4.073   0.396 -0.4026 -0.0263 -0.3001
 2351SOL    HW1 9402   4.036   4.079   0.487 -0.6223  1.3490 -0.2971
 2351SOL    HW2 9403   3.932   4.134   0.391 -0.6193 -0.3583 -1.3108
 2351SOL     MW 9404   4.001   4.082   0.407 -0.4585  0.1073 -0.4291
 2352SOL     OW 9405   2.254   2.387   4.421 -0.1937  0.6737 -0.6401
 2352SOL    HW1 9406   2.237   2.481   4.416 -1.8254  0.4051 -0.5790
 2352SOL    HW2 9407   2.175   2.349   4.459  0.2376 -0.7835 -1.0954
 2352SOL     MW 9408   2.242   2.394   4.425 -0.3474  0.4528 -0.6906
 2353SOL     OW 9409   5.235   2.324   2.391  0.4365 -0.4895 -0.3301
 2353SOL    HW1 9410   5.266   2.405   2.352 -1.0953 -0.0611 -0.7585
 2353SOL    HW2 9411   5.261   2.329   2.483  0.2111  0.5893 -0.3096
 2353SOL     MW 9412   5.242   2.335   2.398  0.2116 -0.2966 -0.3823
 2354SOL     OW 9413   3.928   4.155   4.008  0.0426 -0.0924  0.3184
 2354SOL    HW1 9414   3.904   4.219   3.942 -2.3265  0.5532  1.7049
 2354SOL    HW2 9415   4.002   4.195   4.055 -1.3680  1.6891  1.1424
 2354SOL     MW 9416   3.935   4.168   4.006 -0.4412  0.2183  0.6014
 2355SOL     OW 9417   4.702   4.617   1.870 -0.5871  0.2375  0.1004
 2355SOL    HW1 9418   4.771   4.592   1.931  0.1045 -0.6192 -0.9887
 2355SOL    HW2 9419   4.745   4.678   1.809 -0.7137 -0.4675 -0.7096
 2355SOL     MW 9420   4.716   4.622   1.870 -0.5147  0.0376 -0.1427
 2356SOL     OW 9421   5.073   1.520   0.736  0.0060  0.5501  0.4969
 2356SOL    HW1 9422   4.999   1.511   0.796 -0.7649  1.1573 -0.3353
 2356SOL    HW2 9423   5.148   1.538   0.793 -0.6182  0.6420  1.3073
 2356SOL     MW 9424   5.073   1.521   0.751 -0.1726  0.6396  0.4941
 2357SOL     OW 9425   4.460   1.563   1.620 -0.3439 -0.4452 -0.2239
 2357SOL    HW1 9426   4.388   1.579   1.682 -0.6998 -1.2232 -0.4232
 2357SOL    HW2 9427   4.467   1.468   1.616 -0.3671 -0.4166 -1.4239
 2357SOL     MW 9428   4.451   1.553   1.628 -0.3924 -0.5412 -0.4030
 2358SOL     OW 9429   1.154   2.483   1.515 -0.4549 -0.5175 -0.4056
 2358SOL    HW1 9430   1.167   2.394   1.482 -1.5328 -0.2431 -1.6430
 2358SOL    HW2 9431   1.205   2.539   1.456 -1.0763 -0.1804 -0.6423
 2358SOL     MW 9432   1.162   2.479   1.503 -0.6724 -0.4392 -0.5943
 2359SOL     OW 9433   1.366   4.011   3.258 -0.5739 -0.3461 -0.6346
 2359SOL    HW1 9434   1.339   3.940   3.316 -0.9386  1.0587  0.9816
 2359SOL    HW2 9435   1.444   4.048   3.300 -0.1304 -0.0350 -1.6830
 2359SOL     MW 9436   1.373   4.007   3.271 -0.5638 -0.1265 -0.5619
 2360SOL     OW 9437   4.241   3.641   4.465  0.0164 -0.3427 -0.2451
 2360SOL    HW1 9438   4.164   3.588   4.486  1.5605 -3.5131 -1.8850
 2360SOL    HW2 9439   4.228   3.666   4.373  0.1290  0.6782  0.0086
 2360SOL     MW 9440   4.229   3.638   4.456  0.2285 -0.6179 -0.4226
 2361SOL     OW 9441   4.315   2.149   1.913  0.0775 -0.0206 -0.0622
 2361SOL    HW1 9442   4.273   2.155   1.999 -0.7124  0.0339 -0.4436
 2361SOL    HW2 9443   4.353   2.235   1.899  1.8755 -0.5626  1.0392
 2361SOL     MW 9444   4.314   2.161   1.922  0.2066 -0.0830  0.0300
 2362SOL     OW 9445   4.490   1.807   1.345  0.1137  0.7437  0.4043
 2362SOL    HW1 9446   4.547   1.751   1.399 -1.0310 -0.7808  0.0838
 2362SOL    HW2 9447   4.420   1.833   1.405 -1.8448 -1.9533 -0.4876
 2362SOL     MW 9448   4.488   1.803   1.360 -0.2836  0.2033  0.2491
 2363SOL     OW 9449   1.794   4.388   3.765  0.6325 -0.1205 -0.0748
 2363SOL    HW1 9450   1.754   4.368   3.850 -0.1536 -1.5016 -0.7394
 2363SOL    HW2 9451   1.880   4.425   3.787  1.5820 -2.8611  1.3553
 2363SOL     MW 9452   1.800   4.390   3.779  0.6534 -0.6481  0.0232
 2364SOL     OW 9453   2.092   2.138   4.946 -0.4037 -0.4001 -0.6232
 2364SOL    HW1 9454   2.054   2.061   4.903 -1.9009  0.7905 -1.5558
 2364SOL    HW2 9455   2.054   2.137   5.034 -1.1162 -0.2797 -0.9203
 2364SOL     MW 9456   2.082   2.128   4.952 -0.6866 -0.2323 -0.7806
 2365SOL     OW 9457   4.327   2.727   0.093  0.0467 -0.2726  0.6758
 2365SOL    HW1 9458   4.301   2.748   0.183  0.9817 -1.9531  1.3925
 2365SOL    HW2 9459   4.418   2.754   0.087 -0.2504  0.5903 -0.0496
 2365SOL     MW 9460   4.335   2.733   0.104  0.1284 -0.3773  0.6747
 2366SOL     OW 9461   3.733   0.895   0.619  0.2801 -0.0744 -0.2316
 2366SOL    HW1 9462   3.677   0.824   0.589  0.1866  0.3920 -1.2112
 2366SOL    HW2 9463   3.822   0.862   0.606  0.2892 -1.0189  1.8138
 2366SOL     MW 9464   3.737   0.882   0.613  0.2693 -0.1356 -0.0952
 2367SOL     OW 9465   1.878   4.942   0.201  0.0053  0.2107 -0.0062
 2367SOL    HW1 9466   1.823   4.921   0.277  0.9547 -0.6391  0.4615
 2367SOL    HW2 9467   1.941   5.006   0.234 -0.0700  0.4290 -0.2810
 2367SOL     MW 9468   1.879   4.948   0.215  0.1172  0.1298  0.0185
 2368SOL     OW 9469   5.315   3.404   2.927  0.7289 -0.1012 -0.4901
 2368SOL    HW1 9470   5.300   3.482   2.981 -1.2196 -0.7650  0.0301
 2368SOL    HW2 9471   5.408   3.385   2.938  1.0686  1.6763  0.0163
 2368SOL     MW 9472   5.325   3.412   2.936  0.5229  0.0413 -0.3587
 2369SOL     OW 9473   3.619   5.279   4.887 -0.2519  0.1978  0.3710
 2369SOL    HW1 9474   3.550   5.333   4.848 -0.0700  0.7186  0.7651
 2369SOL    HW2 9475   3.577   5.238   4.963 -0.1859  0.3772  0.5074
 2369SOL     MW 9476   3.605   5.281   4.892 -0.2202  0.2874  0.4389
 2370SOL     OW 9477   2.077   0.145   0.036  0.5133 -0.2406 -0.4107
 2370SOL    HW1 9478   2.098   0.181  -0.050  1.2130  0.6425  0.1142
 2370SOL    HW2 9479   2.125   0.200   0.098 -1.8390  0.6638  0.7447
 2370SOL     MW 9480   2.086   0.157   0.033  0.3017 -0.0118 -0.1956
 2371SOL     OW 9481   4.686   5.268   4.136 -0.2845  0.3269  0.4584
 2371SOL    HW1 9482   4.618   5.331   4.163  1.1058  1.5724  1.2002
 2371SOL    HW2 9483   4.758   5.284   4.197  1.6796  0.8374 -1.8446
 2371SOL     MW 9484   4.686   5.278   4.147  0.1449  0.5517  0.2585
 2372SOL     OW 9485   3.610   4.987   3.720  0.2392  0.1226 -0.1126
 2372SOL    HW1 9486   3.660   4.958   3.796 -1.1765  1.0221  1.2208
 2372SOL    HW2 9487   3.521   5.002   3.754 -0.8603 -0.9747 -2.2823
 2372SOL     MW 9488   3.605   4.985   3.734 -0.0828  0.0973 -0.2197
 2373SOL     OW 9489   4.358   1.660   0.155  0.1786 -0.2036  0.2239
 2373SOL    HW1 9490   4.342   1.589   0.217  1.8058 -0.3946  0.4661
 2373SOL    HW2 9491   4.369   1.616   0.070  0.4243 -0.1692  0.2382
 2373SOL     MW 9492   4.357   1.645   0.152  0.4184 -0.2237  0.2567
 2374SOL     OW 9493   4.841   0.341   0.888 -0.1382 -0.0114 -0.5491
 2374SOL    HW1 9494   4.870   0.418   0.839 -0.6350 -0.4788 -1.6079
 2374SOL    HW2 9495   4.820   0.276   0.821 -1.2508 -0.5270  0.2686
 2374SOL     MW 9496   4.842   0.343   0.873 -0.3442 -0.1372 -0.5800
 2375SOL     OW 9497   4.740   5.422   2.020 -0.7452 -0.1545 -0.0034
 2375SOL    HW1 9498   4.804   5.353   2.038  0.5681  0.6369 -1.3758
 2375SOL    HW2 9499   4.665   5.376   1.982 -0.0803 -0.8804 -0.4740
 2375SOL     MW 9500   4.739   5.407   2.017 -0.4920 -0.1461 -0.2393
 2376SOL     OW 9501   4.383   2.250   0.382 -0.4302 -0.2631  0.1241
 2376SOL    HW1 9502   4.318   2.207   0.437  0.4577  0.2032  1.5865
 2376SOL    HW2 9503   4.337   2.326   0.347 -1.4073 -1.2815 -0.8995
 2376SOL     MW 9504   4.369   2.254   0.385 -0.4416 -0.3338  0.1803
 2377SOL     OW 9505   1.142   0.984   3.680  0.0047 -0.0966 -0.2185
 2377SOL    HW1 9506   1.086   0.946   3.747  1.8543 -2.2993  0.1904
 2377SOL    HW2 9507   1.231   0.968   3.711  0.8991  2.1368 -1.4525
 2377SOL     MW 9508   1.146   0.977   3.692  0.3559 -0.0926 -0.3241
 2378SOL     OW 9509   5.275   3.059   3.139  0.6050 -0.2707  0.4163
 2378SOL    HW1 9510   5.356   3.079   3.092  0.2694  0.5159  0.1581
 2378SOL    HW2 9511   5.205   3.074   3.075  0.0608  1.8733  1.4168
 2378SOL     MW 9512   5.276   3.064   3.125  0.4924  0.1045  0.5113
 2379SOL     OW 9513   5.436   0.999   3.292 -0.2468  0.1904 -0.3765
 2379SOL    HW1 9514   5.409   0.907   3.289  0.6267 -0.2201  1.9272
 2379SOL    HW2 9515   5.357   1.046   3.316 -0.0478 -0.4425  1.7879
 2379SOL     MW 9516   5.423   0.993   3.295 -0.1095  0.0569  0.1955
 2380SOL     OW 9517   2.157   2.635   4.498 -0.2955  0.6132  0.0807
 2380SOL    HW1 9518   2.077   2.636   4.550 -0.4021 -2.3084  0.1656
 2380SOL    HW2 9519   2.227   2.652   4.562 -0.6497  0.0550  0.6347
 2380SOL     MW 9520   2.156   2.637   4.513 -0.3545  0.1677  0.1625
 2381SOL     OW 9521   1.185   0.790   0.628 -0.5969  0.1124  0.1956
 2381SOL    HW1 9522   1.154   0.700   0.638 -0.6085  0.1828  0.8586
 2381SOL    HW2 9523   1.111   0.837   0.591 -0.9783  0.0842  0.9073
 2381SOL     MW 9524   1.172   0.784   0.625 -0.6472  0.1178  0.3715
 2382SOL     OW 9525   1.803   3.667   3.707 -0.7738  0.2136  0.2339
 2382SOL    HW1 9526   1.818   3.684   3.614  1.4951  1.6116  0.7775
 2382SOL    HW2 9527   1.771   3.576   3.710  0.7572 -0.4710 -1.7979
 2382SOL     MW 9528   1.801   3.657   3.695 -0.2874  0.3049  0.0434
 2383SOL     OW 9529   1.231   1.341   4.429 -0.4573  0.4352 -0.3468
 2383SOL    HW1 9530   1.324   1.354   4.449 -0.3997 -0.5234  0.0770
 2383SOL    HW2 9531   1.186   1.394   4.495 -0.2155  1.2261 -0.8058
 2383SOL     MW 9532   1.237   1.350   4.440 -0.4190  0.4138 -0.3513
 2384SOL     OW 9533   1.842   5.028   4.425  0.8240  0.0136  0.0922
 2384SOL    HW1 9534   1.774   5.095   4.415  0.0323 -1.0430 -2.2073
 2384SOL    HW2 9535   1.900   5.041   4.350  1.6888 -0.7713  0.5946
 2384SOL     MW 9536   1.841   5.038   4.414  0.8334 -0.2221 -0.1379
 2385SOL     OW 9537   3.907   2.568   3.888  0.1441 -0.2888 -0.5148
 2385SOL    HW1 9538   3.929   2.479   3.863  0.8985  0.1455 -1.4837
 2385SOL    HW2 9539   3.991   2.613   3.895 -0.1163 -0.0267  1.5262
 2385SOL     MW 9540   3.920   2.563   3.886  0.2074 -0.1996 -0.3776
 2386SOL     OW 9541   3.557   3.072   0.490 -0.0999 -0.2542 -0.5313
 2386SOL    HW1 9542   3.474   3.027   0.501 -0.4057  0.4177 -0.0564
 2386SOL    HW2 9543   3.537   3.165   0.501  0.8396 -0.1441  0.4131
 2386SOL     MW 9544   3.544   3.078   0.493 -0.0188 -0.1541 -0.3496
 2387SOL     OW 9545   4.917   3.463   1.648 -0.3285 -0.2222 -0.2691
 2387SOL    HW1 9546   4.949   3.521   1.579  1.8407  0.4442  1.1947
 2387SOL    HW2 9547   4.884   3.522   1.716  0.9727 -0.6705  0.8039
 2387SOL     MW 9548   4.917   3.478   1.648  0.1157 -0.1943  0.0556
 2388SOL     OW 9549   2.704   4.144   1.511 -0.1040 -0.1178 -0.5815
 2388SOL    HW1 9550   2.726   4.209   1.578 -1.2463 -0.5585  0.2482
 2388SOL    HW2 9551   2.788   4.115   1.477  0.4896  0.2802  0.5027
 2388SOL     MW 9552   2.717   4.149   1.515 -0.1742 -0.1233 -0.3365
 2389SOL     OW 9553   3.127   3.049   2.443 -0.0388 -0.0369  0.0348
 2389SOL    HW1 9554   3.113   3.144   2.442  0.8945  0.1182 -1.0785
 2389SOL    HW2 9555   3.181   3.034   2.521  1.1094  0.5874 -0.6054
 2389SOL     MW 9556   3.132   3.059   2.453  0.2277  0.0629 -0.1897
 2390SOL     OW 9557   3.074   1.372   5.360  0.2743 -0.2479 -0.5109
 2390SOL    HW1 9558   3.121   1.408   5.284  1.0167  0.1337  0.1055
 2390SOL    HW2 9559   3.144   1.337   5.416  0.1056  2.3079  1.4828
 2390SOL     MW 9560   3.089   1.372   5.357  0.3478  0.1281 -0.1768
 2391SOL     OW 9561   5.128   3.483   4.790 -0.7989 -0.2831  0.1470
 2391SOL    HW1 9562   5.057   3.470   4.853 -0.8826 -3.0331 -0.4090
 2391SOL    HW2 9563   5.196   3.421   4.818  0.3164  0.4304 -0.8822
 2391SOL     MW 9564   5.128   3.473   4.802 -0.6668 -0.5438 -0.0559
 2392SOL     OW 9565   2.640   4.401   2.514 -0.4605  0.2364 -0.3924
 2392SOL    HW1 9566   2.571   4.451   2.558 -0.2799 -0.4893  0.7659
 2392SOL    HW2 9567   2.640   4.434   2.424 -1.8300  0.7538 -0.2329
 2392SOL     MW 9568   2.631   4.411   2.508 -0.6127  0.2097 -0.2237
 2393SOL     OW 9569   4.018   0.555   1.567 -0.1313  0.1512 -1.0134
 2393SOL    HW1 9570   4.040   0.647   1.580 -1.1158  0.1224  1.7240
 2393SOL    HW2 9571   4.086   0.508   1.615 -2.1147 -0.2238  1.6898
 2393SOL     MW 9572   4.029   0.561   1.575 -0.5112  0.0995 -0.3169
 2394SOL     OW 9573   4.056   3.816   4.740  0.2280  0.5062  0.6411
 2394SOL    HW1 9574   4.147   3.843   4.749  0.4836 -0.0800 -0.1435
 2394SOL    HW2 9575   4.047   3.742   4.799  0.2532  0.5608  0.7145
 2394SOL     MW 9576   4.066   3.810   4.749  0.2639  0.4382  0.5500
 2395SOL     OW 9577   1.491   0.570   4.248  0.4690  0.6632  0.1166
 2395SOL    HW1 9578   1.522   0.655   4.215 -1.1810  1.4945  0.5776
 2395SOL    HW2 9579   1.484   0.515   4.170  1.1021  1.0918 -0.2562
 2395SOL     MW 9580   1.494   0.574   4.234  0.3388  0.8245  0.1279
 2396SOL     OW 9581   3.816   5.303   3.887  0.4303 -0.1531  0.4461
 2396SOL    HW1 9582   3.903   5.279   3.857  0.5624  0.6147  0.2005
 2396SOL    HW2 9583   3.790   5.231   3.945  0.9884 -0.6623  0.0772
 2396SOL     MW 9584   3.824   5.291   3.891  0.5186 -0.1200  0.3674
 2397SOL     OW 9585   0.118   1.828   3.934 -0.1881 -0.0585 -0.0188
 2397SOL    HW1 9586   0.164   1.901   3.976  1.0764 -1.1268  0.5113
 2397SOL    HW2 9587   0.025   1.849   3.945  0.1478  1.5400 -0.0172
 2397SOL     MW 9588   0.112   1.840   3.941  0.0168  0.0094  0.0493
 2398SOL     OW 9589   5.419   0.466   5.195 -0.4355  0.0133  0.4459
 2398SOL    HW1 9590   5.406   0.478   5.289 -1.2844  1.2090  0.1983
 2398SOL    HW2 9591   5.345   0.413   5.166 -0.0925 -0.4857  0.4688
 2398SOL     MW 9592   5.408   0.461   5.203 -0.5003  0.1025  0.4171
 2399SOL     OW 9593   0.326   3.873   4.105 -0.4146 -0.2933  0.5191
 2399SOL    HW1 9594   0.343   3.866   4.012  0.2418 -2.4067  0.7458
 2399SOL    HW2 9595   0.242   3.830   4.118  0.9552 -2.9397  1.2542
 2399SOL     MW 9596   0.317   3.867   4.095 -0.1552 -0.9026  0.6423
 2400SOL     OW 9597   4.274   3.513   5.368 -0.4165 -0.3115  0.1942
 2400SOL    HW1 9598   4.272   3.438   5.309 -0.9733 -1.2652  1.3688
 2400SOL    HW2 9599   4.190   3.509   5.414  0.2622  0.0089  1.5025
 2400SOL     MW 9600   4.263   3.503   5.367 -0.4009 -0.3926  0.5120
 2401SOL     OW 9601   2.478   4.965   2.612 -0.1234  0.1119  0.5184
 2401SOL    HW1 9602   2.461   5.041   2.556 -0.5691  1.4428  2.3480
 2401SOL    HW2 9603   2.568   4.941   2.594 -0.0226  0.9842 -0.2117
 2401SOL     MW 9604   2.487   4.972   2.603 -0.1675  0.3940  0.6592
 2402SOL     OW 9605   2.962   0.670   2.775  0.3987 -0.2048 -0.0613
 2402SOL    HW1 9606   2.893   0.735   2.765  0.8340  0.0905 -1.2956
 2402SOL    HW2 9607   2.916   0.586   2.776  0.0099  0.0015 -0.6750
 2402SOL     MW 9608   2.948   0.667   2.774  0.4047 -0.1406 -0.2978
 2403SOL     OW 9609   1.545   1.211   2.893 -0.7822 -0.1315  0.2531
 2403SOL    HW1 9610   1.543   1.135   2.834 -0.7650 -1.1410  1.5234
 2403SOL    HW2 9611   1.500   1.280   2.844 -1.7531 -1.2614 -0.4994
 2403SOL     MW 9612   1.539   1.210   2.879 -0.9043 -0.4054  0.3194
 2404SOL     OW 9613   0.389   0.337   3.040 -0.2054 -0.1787  0.2510
 2404SOL    HW1 9614   0.355   0.283   2.968 -0.6003 -1.3243  1.2633
 2404SOL    HW2 9615   0.484   0.338   3.027 -0.2674 -0.4398 -0.2357
 2404SOL     MW 9616   0.397   0.330   3.029 -0.2639 -0.3588  0.3183
 2405SOL     OW 9617   4.197   1.782   4.142 -0.0957 -0.1610  0.4443
 2405SOL    HW1 9618   4.178   1.741   4.058  2.0654 -0.2084 -0.0781
 2405SOL    HW2 9619   4.141   1.859   4.145 -1.5539 -1.1617 -0.1790
 2405SOL     MW 9620   4.187   1.787   4.132 -0.0057 -0.2952  0.2976
 2406SOL     OW 9621   1.484   0.926   4.289 -0.4771 -0.1897 -0.4328
 2406SOL    HW1 9622   1.438   1.009   4.281  0.0481  0.3027  1.3156
 2406SOL    HW2 9623   1.420   0.866   4.326 -0.1298  0.1299  0.7070
 2406SOL     MW 9624   1.470   0.929   4.292 -0.3654 -0.0858 -0.0631
 2407SOL     OW 9625   0.885   5.294   2.675 -0.2487 -0.2746 -0.6708
 2407SOL    HW1 9626   0.792   5.275   2.671 -0.1282 -0.9115 -0.5193
 2407SOL    HW2 9627   0.903   5.347   2.597 -0.8107  0.1898 -0.4886
 2407SOL     MW 9628   0.876   5.298   2.665 -0.3052 -0.2967 -0.6281
 2408SOL     OW 9629   3.761   2.848   3.577  0.0699  0.0329 -0.1617
 2408SOL    HW1 9630   3.804   2.767   3.548  0.8392  0.4711 -0.2786
 2408SOL    HW2 9631   3.755   2.901   3.498  0.2889  0.4046  0.0681
 2408SOL     MW 9632   3.766   2.844   3.563  0.1964  0.1365 -0.1472
 2409SOL     OW 9633   2.037   1.187   5.418 -0.7782  0.1881  0.1251
 2409SOL    HW1 9634   2.055   1.151   5.505 -1.8623 -1.8394 -0.4139
 2409SOL    HW2 9635   2.049   1.113   5.359  1.8276  1.9514 -1.7636
 2409SOL     MW 9636   2.041   1.173   5.422 -0.5834  0.1543 -0.1857
 2410SOL     OW 9637   4.484   0.480   4.308  0.0644  0.2425 -0.5089
 2410SOL    HW1 9638   4.502   0.573   4.295  1.3413  0.0296 -0.3418
 2410SOL    HW2 9639   4.520   0.437   4.231  0.1046 -0.1904 -0.2548
 2410SOL     MW 9640   4.491   0.486   4.296  0.2330  0.1598 -0.4550
 2411SOL     OW 9641   1.801   0.443   1.430  0.1278 -0.0287 -0.3993
 2411SOL    HW1 9642   1.739   0.466   1.499  1.8520  0.3433  1.1224
 2411SOL    HW2 9643   1.845   0.364   1.461  1.5903  0.6653 -0.5682
 2411SOL     MW 9644   1.799   0.436   1.443  0.5357  0.1077 -0.2262
 2412SOL     OW 9645   3.135   0.165   4.024 -0.3423  0.0152  0.5916
 2412SOL    HW1 9646   3.182   0.220   3.960 -1.9926  1.7652  0.7776
 2412SOL    HW2 9647   3.184   0.175   4.105  0.0500  0.2463  0.3296
 2412SOL     MW 9648   3.147   0.174   4.026 -0.5034  0.2688  0.5819
 2413SOL     OW 9649   3.478   3.468   0.742  0.4499  0.0273 -0.2071
 2413SOL    HW1 9650   3.544   3.419   0.792  0.0455 -1.2399 -0.8658
 2413SOL    HW2 9651   3.492   3.559   0.767  1.3236 -0.3995  0.9654
 2413SOL     MW 9652   3.488   3.473   0.752  0.5100 -0.1896 -0.1413
 2414SOL     OW 9653   1.343   2.289   2.521 -0.1863  0.2675  0.0230
 2414SOL    HW1 9654   1.382   2.247   2.444 -0.9270 -0.8169  0.2290
 2414SOL    HW2 9655   1.391   2.253   2.595 -1.6985 -1.2570  0.2959
 2414SOL     MW 9656   1.354   2.279   2.520 -0.4747 -0.0665  0.0843
 2415SOL     OW 9657   4.250   0.425   1.639  0.3235  0.4804  0.4630
 2415SOL    HW1 9658   4.295   0.508   1.620  0.9292  0.6221  2.3326
 2415SOL    HW2 9659   4.290   0.363   1.578  0.9293  1.2504  0.0435
 2415SOL     MW 9660   4.261   0.428   1.629  0.4786  0.5971  0.6486
 2416SOL     OW 9661   2.795   0.733   5.153 -0.0831 -0.2118 -0.8162
 2416SOL    HW1 9662   2.873   0.678   5.142 -0.7972 -1.0881 -1.5486
 2416SOL    HW2 9663   2.815   0.786   5.231  0.6841 -1.3754 -0.1839
 2416SOL     MW 9664   2.808   0.733   5.162 -0.0763 -0.4729 -0.8290
 2417SOL     OW 9665   4.732   3.089   1.463  0.5789 -0.5530 -0.3387
 2417SOL    HW1 9666   4.818   3.125   1.486  0.5363 -0.2255 -0.6702
 2417SOL    HW2 9667   4.741   3.065   1.370  0.5299 -1.1798 -0.1837
 2417SOL     MW 9668   4.744   3.091   1.454  0.5672 -0.5913 -0.3613
 2418SOL     OW 9669   2.374   0.508   2.265 -0.3552 -0.3888  0.2300
 2418SOL    HW1 9670   2.307   0.560   2.221  1.6198  0.7091 -1.6989
 2418SOL    HW2 9671   2.424   0.468   2.194  0.6034 -1.7478  1.6101
 2418SOL     MW 9672   2.372   0.510   2.251  0.0203 -0.4222  0.1598
 2419SOL     OW 9673   3.919   2.546   2.965  0.1800 -0.3895 -0.2372
 2419SOL    HW1 9674   3.881   2.618   2.915 -0.4727  0.3817  1.3044
 2419SOL    HW2 9675   3.845   2.511   3.015  0.9783 -0.5578  0.8494
 2419SOL     MW 9676   3.904   2.550   2.965  0.1986 -0.3123  0.0993
 2420SOL     OW 9677   3.717   0.375   0.280  0.0805 -0.4206  0.8652
 2420SOL    HW1 9678   3.779   0.407   0.345 -1.7356  0.5536  2.2215
 2420SOL    HW2 9679   3.633   0.372   0.326 -1.8143  2.4959 -1.9283
 2420SOL     MW 9680   3.714   0.379   0.294 -0.3945  0.0774  0.6812
 2421SOL     OW 9681   2.147   0.945   4.497 -0.0635 -0.5476  0.4128
 2421SOL    HW1 9682   2.083   0.917   4.432  1.9431 -1.3172 -1.3651
 2421SOL    HW2 9683   2.120   0.901   4.578 -1.4458 -1.2824 -0.4097
 2421SOL     MW 9684   2.135   0.936   4.499  0.0164 -0.7402  0.0799
 2422SOL     OW 9685   5.385   1.822   2.393  0.1146  0.1665 -0.4044
 2422SOL    HW1 9686   5.398   1.887   2.323 -0.8039 -0.4111 -1.1435
 2422SOL    HW2 9687   5.290   1.821   2.406  0.1559 -0.7526 -0.1300
 2422SOL     MW 9688   5.374   1.830   2.386  0.0023 -0.0251 -0.4639
 2423SOL     OW 9689   2.926   4.574   1.897  0.2475  0.3126  0.1507
 2423SOL    HW1 9690   2.951   4.510   1.829 -0.4670 -0.5068  0.6313
 2423SOL    HW2 9691   3.003   4.581   1.953  0.8288  0.9579 -0.6979
 2423SOL     MW 9692   2.939   4.566   1.895  0.2305  0.2903  0.1036
 2424SOL     OW 9693   3.983   3.521   5.146  0.2995 -0.0367  0.0711
 2424SOL    HW1 9694   3.971   3.609   5.183  0.0778  0.4870 -1.1917
 2424SOL    HW2 9695   3.913   3.469   5.185 -1.0125  0.9415 -0.8807
 2424SOL     MW 9696   3.972   3.526   5.156  0.1032  0.1556 -0.2124
 2425SOL     OW 9697   1.989   4.040   5.411  0.0367  0.0260 -0.2686
 2425SOL    HW1 9698   2.025   4.103   5.473 -0.5017  1.4138 -1.2894
 2425SOL    HW2 9699   2.063   3.985   5.387  0.3718 -0.1785  1.1596
 2425SOL     MW 9700   2.003   4.041   5.416  0.0107  0.1775 -0.2165
 2426SOL     OW 9701   1.184   4.285   5.084  0.1029  0.1216 -0.1753
 2426SOL    HW1 9702   1.215   4.298   5.174 -0.2464 -0.3787  0.0213
 2426SOL    HW2 9703   1.110   4.225   5.093 -0.5824  0.8722 -0.6916
 2426SOL     MW 9704   1.179   4.279   5.097 -0.0296  0.1536 -0.2162
 2427SOL     OW 9705   2.078   0.196   4.758 -0.0237 -0.5427  0.0924
 2427SOL    HW1 9706   2.155   0.252   4.754 -1.1300  1.0943  0.8150
 2427SOL    HW2 9707   2.040   0.213   4.843 -1.5465 -0.8320 -0.4962
 2427SOL     MW 9708   2.083   0.205   4.768 -0.3602 -0.3702  0.1096
 2428SOL     OW 9709   2.811   5.064   0.857  0.2131  0.3144 -0.1547
 2428SOL    HW1 9710   2.836   5.132   0.794  0.0776  2.1570  1.6920
 2428SOL    HW2 9711   2.716   5.059   0.850  0.2800 -0.2386 -0.8000
 2428SOL     MW 9712   2.802   5.072   0.848  0.2043  0.4795 -0.0009
 2429SOL     OW 9713   2.572   0.742   5.474 -0.0569  0.3719 -0.1546
 2429SOL    HW1 9714   2.562   0.708   5.385  1.0584 -0.2581 -0.0604
 2429SOL    HW2 9715   2.658   0.785   5.473  0.5416 -0.7456  0.9507
 2429SOL     MW 9716   2.582   0.743   5.462  0.1625  0.1482 -0.0010
 2430SOL     OW 9717   2.635   4.338   2.794 -0.2421  0.3145 -0.1138
 2430SOL    HW1 9718   2.540   4.337   2.784  0.0005 -0.3560 -3.8538
 2430SOL    HW2 9719   2.668   4.372   2.711  2.8243 -1.9013 -0.0055
 2430SOL     MW 9720   2.627   4.342   2.782  0.1815 -0.0550 -0.5787
 2431SOL     OW 9721   0.454   1.278   4.728  0.3787 -0.3045 -0.2457
 2431SOL    HW1 9722   0.491   1.196   4.698 -1.4882 -1.0482 -0.6647
 2431SOL    HW2 9723   0.404   1.255   4.806 -1.3248  0.1429 -1.1598
 2431SOL     MW 9724   0.452   1.265   4.734 -0.0784 -0.3424 -0.4163
 2432SOL     OW 9725   0.898   1.180   2.183 -0.3906  0.6205  0.1027
 2432SOL    HW1 9726   0.846   1.189   2.262 -0.5466  2.4535 -0.1785
 2432SOL    HW2 9727   0.834   1.178   2.112 -0.2301 -0.6411 -0.0345
 2432SOL     MW 9728   0.883   1.181   2.184 -0.3900  0.6936  0.0491
 2433SOL     OW 9729   2.562   3.706   0.979 -0.5542 -0.5606  0.7678
 2433SOL    HW1 9730   2.577   3.753   1.060  0.7986  1.1821 -0.4189
 2433SOL    HW2 9731   2.516   3.626   1.005  1.5488 -1.0186  3.4713
 2433SOL     MW 9732   2.558   3.701   0.993 -0.1118 -0.3961  0.9620
 2434SOL     OW 9733   3.701   4.476   4.324 -0.2820 -0.0171  0.0127
 2434SOL    HW1 9734   3.729   4.478   4.233 -0.0034  1.9875  0.0998
 2434SOL    HW2 9735   3.613   4.514   4.324 -0.2648  0.0391  0.5748
 2434SOL     MW 9736   3.694   4.481   4.313 -0.2441  0.2467  0.0958
 2435SOL     OW 9737   0.133   4.927   1.729  0.8158 -0.4778 -0.2144
 2435SOL    HW1 9738   0.129   5.021   1.747 -2.5510 -0.7904  1.5442
 2435SOL    HW2 9739   0.145   4.921   1.634  2.1371  1.6734 -0.2358
 2435SOL     MW 9740   0.134   4.938   1.719  0.5540 -0.2425  0.0080
 2436SOL     OW 9741   2.463   3.650   2.471  0.3532  0.0511  0.2213
 2436SOL    HW1 9742   2.397   3.601   2.521 -1.2916 -0.4493 -2.2673
 2436SOL    HW2 9743   2.480   3.728   2.523 -1.4042 -0.3405  1.4753
 2436SOL     MW 9744   2.457   3.653   2.484 -0.0823 -0.0631  0.0633
 2437SOL     OW 9745   4.795   5.117   2.846 -0.6940 -0.1527 -0.1663
 2437SOL    HW1 9746   4.802   5.208   2.876 -0.3116 -0.3919  0.4947
 2437SOL    HW2 9747   4.746   5.073   2.916 -0.8992 -0.4494 -0.4957
 2437SOL     MW 9748   4.790   5.123   2.859 -0.6713 -0.2213 -0.1238
 2438SOL     OW 9749   0.653   2.299   1.591  0.3687 -0.0696 -0.0795
 2438SOL    HW1 9750   0.579   2.312   1.651  0.9744 -2.9688  1.4681
 2438SOL    HW2 9751   0.631   2.219   1.544  1.4245  0.3902 -1.4065
 2438SOL     MW 9752   0.641   2.290   1.593  0.5814 -0.3819 -0.0513
 2439SOL     OW 9753   4.253   4.068   3.350 -0.0885  0.0547  0.1178
 2439SOL    HW1 9754   4.260   3.985   3.304 -0.9907  0.5625 -1.0089
 2439SOL    HW2 9755   4.191   4.119   3.298 -0.0506  1.1968  1.1336
 2439SOL     MW 9756   4.246   4.064   3.337 -0.1992  0.2659  0.1036
 2440SOL     OW 9757   2.549   3.350   2.346  0.3807 -0.6320  0.1374
 2440SOL    HW1 9758   2.602   3.300   2.408  0.3578  0.2749  0.9058
 2440SOL    HW2 9759   2.463   3.359   2.388  0.6699  0.8863  0.4827
 2440SOL     MW 9760   2.544   3.345   2.359  0.4148 -0.3215  0.2799
 2441SOL     OW 9761   4.554   2.739   3.496  0.3235  0.0228 -0.0553
 2441SOL    HW1 9762   4.545   2.826   3.535 -1.5989 -0.6795  1.1947
 2441SOL    HW2 9763   4.629   2.700   3.540  1.2299  1.0236 -0.6519
 2441SOL     MW 9764   4.563   2.745   3.506  0.1934  0.0610  0.0284
 2442SOL     OW 9765   5.085   2.062   2.735 -0.0271  0.2344  0.8870
 2442SOL    HW1 9766   5.058   2.124   2.667  1.2578 -0.2104 -0.0630
 2442SOL    HW2 9767   5.077   2.110   2.817 -1.8652  0.7088  0.4791
 2442SOL     MW 9768   5.080   2.076   2.737 -0.0979  0.2382  0.7131
 2443SOL     OW 9769   4.951   5.427   2.837 -0.7176 -0.2769 -0.4506
 2443SOL    HW1 9770   5.011   5.495   2.866 -2.0098  1.1545 -0.9951
 2443SOL    HW2 9771   4.920   5.456   2.751 -1.9785 -1.0837 -0.3099
 2443SOL     MW 9772   4.955   5.439   2.829 -1.0444 -0.1970 -0.5023
 2444SOL     OW 9773   5.138   4.118   4.326 -0.1892  0.1805 -0.3258
 2444SOL    HW1 9774   5.157   4.206   4.293  0.8008 -0.2244 -0.8843
 2444SOL    HW2 9775   5.199   4.106   4.399  0.4863 -0.4698 -0.9868
 2444SOL     MW 9776   5.148   4.128   4.331  0.0240  0.0454 -0.4819
 2445SOL     OW 9777   3.697   4.021   3.931 -0.1565 -0.1136 -0.7795
 2445SOL    HW1 9778   3.776   4.063   3.964 -0.2154  1.1840 -2.1595
 2445SOL    HW2 9779   3.626   4.056   3.986  0.1372 -0.7409  0.0089
 2445SOL     MW 9780   3.698   4.031   3.942 -0.1264 -0.0278 -0.8552
 2446SOL     OW 9781   4.179   5.008   3.790 -0.0271  0.9956 -0.1239
 2446SOL    HW1 9782   4.127   4.939   3.831 -0.3000  0.7359 -0.8966
 2446SOL    HW2 9783   4.270   4.980   3.802 -0.1760 -0.1617 -1.5651
 2446SOL     MW 9784   4.184   4.996   3.797 -0.0811  0.8142 -0.4073
 2447SOL     OW 9785   3.728   0.058   3.452  0.1864  0.7439  0.0407
 2447SOL    HW1 9786   3.734  -0.025   3.498 -1.2987  0.7244  0.2181
 2447SOL    HW2 9787   3.806   0.059   3.395  1.0732 -0.0225  1.1945
 2447SOL     MW 9788   3.739   0.048   3.450  0.1098  0.6433  0.2111
 2448SOL     OW 9789   3.491   2.449   3.992  0.0463  0.3037  0.2326
 2448SOL    HW1 9790   3.585   2.435   4.007  0.2671  2.0352  0.7518
 2448SOL    HW2 9791   3.487   2.532   3.945 -1.2493  0.4937  0.6365
 2448SOL     MW 9792   3.503   2.458   3.988 -0.0913  0.5497  0.3507
 2449SOL     OW 9793   1.006   3.312   5.398  0.3631  0.0982 -0.0840
 2449SOL    HW1 9794   1.089   3.320   5.446 -0.7742  0.1897  2.0109
 2449SOL    HW2 9795   0.998   3.395   5.351  0.7328  0.7639  0.9746
 2449SOL     MW 9796   1.016   3.323   5.398  0.2649  0.1951  0.3197
 2450SOL     OW 9797   2.898   4.121   4.365  0.0484 -0.0881  0.6462
 2450SOL    HW1 9798   2.873   4.213   4.360  0.9466  0.1084 -1.0621
 2450SOL    HW2 9799   2.830   4.075   4.316  0.8539 -0.0233 -0.5701
 2450SOL     MW 9800   2.886   4.127   4.358  0.2665 -0.0547  0.2718
 2451SOL     OW 9801   5.384   0.013   0.929 -0.0104  0.0528 -0.0207
 2451SOL    HW1 9802   5.345   0.010   1.017  1.0215 -1.1996  0.4238
 2451SOL    HW2 9803   5.478   0.018   0.945  0.2116 -0.5922 -1.0446
 2451SOL     MW 9804   5.391   0.013   0.942  0.1501 -0.1901 -0.0949
 2452SOL     OW 9805   3.868   2.575   3.625 -0.1988 -0.4130 -0.1852
 2452SOL    HW1 9806   3.960   2.552   3.612 -0.2583 -0.1502 -1.1357
 2452SOL    HW2 9807   3.859   2.584   3.720  0.8703  0.0059 -0.1066
 2452SOL     MW 9808   3.878   2.573   3.635 -0.0696 -0.3257 -0.2968
 2453SOL     OW 9809   2.512   3.002   3.830  0.3060 -0.1470 -0.2110
 2453SOL    HW1 9810   2.553   2.960   3.753 -0.0870  0.8106 -0.9655
 2453SOL    HW2 9811   2.458   3.072   3.793 -0.6694 -0.2865  0.8880
 2453SOL     MW 9812   2.510   3.006   3.815  0.1308 -0.0423 -0.1669
 2454SOL     OW 9813   2.637   1.276   1.477  0.2395  0.1955 -0.1795
 2454SOL    HW1 9814   2.569   1.328   1.519  1.0859  0.5867  0.7476
 2454SOL    HW2 9815   2.699   1.256   1.547  1.2834  0.1776 -1.0760
 2454SOL     MW 9816   2.636   1.280   1.491  0.4815  0.2433 -0.1756
 2455SOL     OW 9817   0.108   1.602   4.603 -0.9039 -0.0605 -0.1326
 2455SOL    HW1 9818   0.150   1.610   4.689  0.0019  3.7526 -0.7324
 2455SOL    HW2 9819   0.138   1.518   4.569  0.3370 -0.7664  2.4371
 2455SOL     MW 9820   0.117   1.592   4.610 -0.6291  0.3372  0.1196
 2456SOL     OW 9821   3.871   4.421   3.557  0.7181  0.2547  0.4080
 2456SOL    HW1 9822   3.962   4.418   3.584  0.1669 -2.0604  2.3727
 2456SOL    HW2 9823   3.856   4.512   3.530  3.3593  0.8700  0.7963
 2456SOL     MW 9824   3.880   4.432   3.557  0.9856  0.0371  0.7092
 2457SOL     OW 9825   5.280   4.565   4.648  0.2034 -0.0538 -0.2347
 2457SOL    HW1 9826   5.300   4.639   4.590  0.9495 -0.1787 -0.1497
 2457SOL    HW2 9827   5.184   4.561   4.650  0.1574  0.0786 -1.3044
 2457SOL     MW 9828   5.270   4.574   4.641  0.2930 -0.0529 -0.3608
 2458SOL     OW 9829   0.294   4.422   5.317  0.6508 -0.3590 -0.1532
 2458SOL    HW1 9830   0.330   4.399   5.403  1.3073  1.6360  0.1600
 2458SOL    HW2 9831   0.365   4.404   5.256  0.6269 -0.5823 -0.1174
 2458SOL     MW 9832   0.308   4.416   5.320  0.7318 -0.1322 -0.1085
 2459SOL     OW 9833   3.606   3.088   2.025  0.2108  0.0352 -0.1566
 2459SOL    HW1 9834   3.698   3.067   2.043 -0.3904 -0.9449  2.0482
 2459SOL    HW2 9835   3.567   3.004   2.001 -0.3793  0.1960  0.2227
 2459SOL     MW 9836   3.613   3.075   2.024  0.0583 -0.0697  0.1742
 2460SOL     OW 9837   1.114   3.796   4.354 -0.7173 -0.1671 -0.1931
 2460SOL    HW1 9838   1.148   3.854   4.422 -1.4203 -1.1447  1.0380
 2460SOL    HW2 9839   1.192   3.755   4.317 -0.3136  0.4887 -0.0853
 2460SOL     MW 9840   1.128   3.798   4.358 -0.7556 -0.2083 -0.0217
 2461SOL     OW 9841   5.121   4.145   1.610 -0.0608  0.2356 -0.1194
 2461SOL    HW1 9842   5.059   4.072   1.621 -0.7298  0.1298 -3.6221
 2461SOL    HW2 9843   5.066   4.221   1.591  0.7721  0.4854 -1.6902
 2461SOL     MW 9844   5.106   4.145   1.609 -0.0398  0.2540 -0.7689
 2462SOL     OW 9845   4.892   0.824   3.066  0.0986 -0.0251 -0.4967
 2462SOL    HW1 9846   4.939   0.756   3.116  1.0266 -0.2103 -1.5798
 2462SOL    HW2 9847   4.873   0.892   3.131  0.4129 -0.6919  0.3146
 2462SOL     MW 9848   4.896   0.824   3.081  0.2577 -0.1342 -0.5315
 2463SOL     OW 9849   3.027   0.283   4.410 -0.0890  0.3185 -0.0019
 2463SOL    HW1 9850   3.068   0.326   4.485  0.4318  0.8458 -0.5733
 2463SOL    HW2 9851   2.935   0.272   4.435  0.0643  0.5538  0.6761
 2463SOL     MW 9852   3.020   0.287   4.423 -0.0027  0.4161  0.0117
 2464SOL     OW 9853   1.351   2.253   0.750  0.3960 -0.3269 -0.0221
 2464SOL    HW1 9854   1.445   2.266   0.739  0.1424  0.8698 -1.0155
 2464SOL    HW2 9855   1.342   2.160   0.770  1.5385 -1.4513 -3.8060
 2464SOL     MW 9856   1.362   2.243   0.751  0.5098 -0.3176 -0.6337
 2465SOL     OW 9857   0.649   3.097   0.867 -0.5211 -0.0015  0.0501
 2465SOL    HW1 9858   0.737   3.095   0.905 -0.4474  0.2074 -0.1105
 2465SOL    HW2 9859   0.634   3.189   0.846 -1.2809  0.1790  1.2642
 2465SOL     MW 9860   0.658   3.109   0.869 -0.6089  0.0484  0.1850
 2466SOL     OW 9861   3.480   4.628   2.500 -0.3438  0.0101 -0.0473
 2466SOL    HW1 9862   3.557   4.650   2.553 -0.5300 -3.2631  1.8399
 2466SOL    HW2 9863   3.517   4.599   2.417  0.2230  1.2783 -0.2667
 2466SOL     MW 9864   3.495   4.627   2.496 -0.2951 -0.2465  0.1662
 2467SOL     OW 9865   4.614   1.493   3.037 -0.0390 -0.7818 -0.2741
 2467SOL    HW1 9866   4.700   1.463   3.007  0.0159 -3.4378  2.1552
 2467SOL    HW2 9867   4.555   1.471   2.965  0.6951 -3.1693 -0.2406
 2467SOL     MW 9868   4.617   1.486   3.024  0.0620 -1.4274  0.0411
 2468SOL     OW 9869   3.099   2.002   3.803  0.1077 -0.4298  0.3031
 2468SOL    HW1 9870   3.013   2.038   3.827  0.0725 -0.1323 -0.2445
 2468SOL    HW2 9871   3.122   2.047   3.722  0.4403 -1.0545  0.0399
 2468SOL     MW 9872   3.091   2.012   3.795  0.1458 -0.4717  0.1993
 2469SOL     OW 9873   0.518   1.457   3.015  1.2948 -0.1914 -0.0104
 2469SOL    HW1 9874   0.539   1.483   3.105  1.3241 -0.4963  0.0725
 2469SOL    HW2 9875   0.434   1.412   3.022  1.7960 -1.1402  0.0221
 2469SOL     MW 9876   0.510   1.455   3.027  1.3627 -0.3519  0.0044
 2470SOL     OW 9877   5.011   3.113   3.026  0.3649 -0.0222  0.1390
 2470SOL    HW1 9878   5.021   3.162   2.945  0.8154  0.0169  0.2146
 2470SOL    HW2 9879   4.919   3.087   3.027  0.0800  0.9230  0.1515
 2470SOL     MW 9880   5.001   3.116   3.016  0.3861  0.1038  0.1503
 2471SOL     OW 9881   4.385   4.266   4.901  0.4211 -0.6614  0.4662
 2471SOL    HW1 9882   4.322   4.331   4.931 -0.4382 -0.7340 -1.0753
 2471SOL    HW2 9883   4.332   4.193   4.868  1.2226 -0.4529 -1.4521
 2471SOL     MW 9884   4.371   4.265   4.900  0.4137 -0.6440  0.0233
 2472SOL     OW 9885   4.325   3.081   3.713  0.1251  0.1916 -0.0412
 2472SOL    HW1 9886   4.337   3.176   3.706 -0.0053  0.3422  1.3464
 2472SOL    HW2 9887   4.323   3.065   3.808 -1.4475 -0.9864 -0.2320
 2472SOL     MW 9888   4.326   3.091   3.725 -0.0929  0.0601  0.1120
 2473SOL     OW 9889   3.311   3.949   5.346  0.1489  0.0870 -0.4161
 2473SOL    HW1 9890   3.316   3.949   5.250  0.5063 -0.6711 -0.4115
 2473SOL    HW2 9891   3.225   3.913   5.365  0.2307 -0.1393 -0.4601
 2473SOL     MW 9892   3.301   3.944   5.336  0.2051 -0.0390 -0.4212
 2474SOL     OW 9893   3.313   3.953   1.537  0.1214  0.6111 -0.2278
 2474SOL    HW1 9894   3.248   3.933   1.604 -0.7295 -1.3075 -1.5295
 2474SOL    HW2 9895   3.288   4.040   1.505  0.8994  1.8251  2.2542
 2474SOL     MW 9896   3.301   3.961   1.542  0.1121  0.5209 -0.0767
 2475SOL     OW 9897   4.305   3.853   3.176  0.3021 -1.1208 -0.2205
 2475SOL    HW1 9898   4.251   3.796   3.230 -0.8980 -0.7931 -1.0311
 2475SOL    HW2 9899   4.273   3.839   3.087 -0.2290  1.0199 -0.4098
 2475SOL     MW 9900   4.294   3.844   3.171  0.0805 -0.8048 -0.3485
 2476SOL     OW 9901   0.476   5.110   4.977 -0.1198  0.2016 -0.5103
 2476SOL    HW1 9902   0.533   5.124   4.901  0.0013  1.3387 -0.2241
 2476SOL    HW2 9903   0.390   5.094   4.939  0.1664 -0.4438 -0.9132
 2476SOL     MW 9904   0.472   5.110   4.962 -0.0677  0.2645 -0.5252
 2477SOL     OW 9905   5.135   1.171   1.606 -0.5628  0.1531  0.4397
 2477SOL    HW1 9906   5.175   1.258   1.612 -0.9216  0.3771 -0.2398
 2477SOL    HW2 9907   5.051   1.187   1.563 -0.7910 -0.4869  0.6406
 2477SOL     MW 9908   5.129   1.184   1.601 -0.6379  0.0998  0.3784
 2478SOL     OW 9909   1.329   1.973   0.838 -0.2258 -0.4590  0.1215
 2478SOL    HW1 9910   1.374   1.955   0.921 -0.2584  1.1917  0.5437
 2478SOL    HW2 9911   1.241   1.937   0.850  0.2156 -1.5127  0.2426
 2478SOL     MW 9912   1.323   1.966   0.850 -0.1735 -0.3826  0.1911
 2479SOL     OW 9913   1.927   0.447   2.236 -0.1629 -0.3431  0.4084
 2479SOL    HW1 9914   1.964   0.360   2.225  0.3155 -0.1711  0.6150
 2479SOL    HW2 9915   1.998   0.498   2.276 -0.0438  0.4310 -0.7270
 2479SOL     MW 9916   1.941   0.443   2.240 -0.0864 -0.2220  0.2895
 2480SOL     OW 9917   5.374   4.091   3.493  0.1071  0.4940 -0.2090
 2480SOL    HW1 9918   5.465   4.077   3.466 -0.0513  1.8591 -1.5933
 2480SOL    HW2 9919   5.322   4.039   3.431 -0.0754 -1.6600  1.5929
 2480SOL     MW 9920   5.379   4.082   3.482  0.0635  0.3931 -0.1555
 2481SOL     OW 9921   3.025   2.959   0.495  0.0636 -1.0014 -0.1412
 2481SOL    HW1 9922   2.980   3.042   0.476 -0.6957 -1.5470 -0.7961
 2481SOL    HW2 9923   2.971   2.893   0.452  1.0833 -1.7663 -0.2603
 2481SOL     MW 9924   3.012   2.961   0.487  0.0969 -1.1692 -0.2403
 2482SOL     OW 9925   3.805   2.556   2.510 -0.1145  0.1518  0.6752
 2482SOL    HW1 9926   3.833   2.553   2.419 -1.2335 -1.3636  0.3463
 2482SOL    HW2 9927   3.742   2.628   2.513  0.7221  0.9081  0.5167
 2482SOL     MW 9928   3.800   2.565   2.499 -0.1506  0.0546  0.6128
 2483SOL     OW 9929   3.872   1.047   2.089  0.0918 -0.0331 -0.3646
 2483SOL    HW1 9930   3.829   1.085   2.166  2.1203  0.3876  0.6469
 2483SOL    HW2 9931   3.951   1.005   2.125 -0.0643 -1.8116 -1.9556
 2483SOL     MW 9932   3.877   1.046   2.104  0.3315 -0.2069 -0.4388
 2484SOL     OW 9933   0.451   2.625   3.385 -0.5458  0.2237  0.2354
 2484SOL    HW1 9934   0.536   2.582   3.399 -1.2334 -0.9849  0.7829
 2484SOL    HW2 9935   0.458   2.707   3.433  0.5520  0.4691 -0.2901
 2484SOL     MW 9936   0.463   2.630   3.393 -0.4933  0.1004  0.2382
 2485SOL     OW 9937   5.437   2.541   5.243  0.3180  0.0567 -0.6167
 2485SOL    HW1 9938   5.364   2.528   5.183 -0.9818  1.1456  0.6546
 2485SOL    HW2 9939   5.396   2.558   5.328  2.0530 -2.3750  0.8603
 2485SOL     MW 9940   5.423   2.541   5.246  0.3737 -0.1152 -0.2649
 2486SOL     OW 9941   4.370   4.108   5.265 -0.4150  0.3984 -0.2553
 2486SOL    HW1 9942   4.371   4.105   5.361  1.0502  0.4136 -0.2541
 2486SOL    HW2 9943   4.361   4.017   5.238  3.5338 -0.1898 -0.0708
 2486SOL     MW 9944   4.369   4.096   5.274  0.2780  0.3251 -0.2315
 2487SOL     OW 9945   1.569   2.069   0.195 -0.0517 -0.0616  0.0709
 2487SOL    HW1 9946   1.602   2.146   0.242 -0.1591 -0.2025  0.3761
 2487SOL    HW2 9947   1.579   2.092   0.103 -2.1563  1.2644  0.0862
 2487SOL     MW 9948   1.574   2.082   0.189 -0.3348  0.0901  0.1119
 2488SOL     OW 9949   4.077   0.882   4.896 -0.2875 -0.3749  0.5614
 2488SOL    HW1 9950   4.014   0.953   4.905 -0.7639 -0.8373  0.9084
 2488SOL    HW2 9951   4.033   0.816   4.842  0.2890 -0.2569 -0.0732
 2488SOL     MW 9952   4.063   0.882   4.890 -0.2747 -0.4190  0.5246
 2489SOL     OW 9953   3.668   0.304   2.217  0.0534 -0.2071  0.1981
 2489SOL    HW1 9954   3.657   0.258   2.300 -0.9825  0.5137  0.4810
 2489SOL    HW2 9955   3.724   0.378   2.238  1.4422 -1.1017 -0.1885
 2489SOL     MW 9956   3.673   0.307   2.230  0.0985 -0.2294  0.1848
 2490SOL     OW 9957   4.608   1.475   1.228 -0.1229 -0.0890  0.1200
 2490SOL    HW1 9958   4.518   1.488   1.200 -0.2750 -0.8991  0.2072
 2490SOL    HW2 9959   4.625   1.546   1.291 -0.4729  0.4585 -0.3986
 2490SOL     MW 9960   4.599   1.486   1.233 -0.1872 -0.1226  0.0648
 2491SOL     OW 9961   3.876   5.125   1.436 -0.7004 -0.3550  0.2945
 2491SOL    HW1 9962   3.840   5.169   1.512  0.9686  0.6025  0.5942
 2491SOL    HW2 9963   3.900   5.038   1.467 -0.7872 -0.2512  0.6494
 2491SOL     MW 9964   3.875   5.120   1.450 -0.4979 -0.2191  0.3783
 2492SOL     OW 9965   1.553   3.253   3.517 -1.2455 -0.4666 -0.5959
 2492SOL    HW1 9966   1.512   3.323   3.568 -1.2995  0.5500 -1.9778
 2492SOL    HW2 9967   1.513   3.260   3.430  0.6862 -0.4436 -1.5463
 2492SOL     MW 9968   1.543   3.263   3.512 -1.0052 -0.3335 -0.8945
 2493SOL     OW 9969   3.220   1.584   2.535 -0.5770  0.2114 -0.3135
 2493SOL    HW1 9970   3.300   1.603   2.583 -0.0571 -1.5740 -0.4056
 2493SOL    HW2 9971   3.152   1.635   2.580  0.3729  0.7503  0.5485
 2493SOL     MW 9972   3.221   1.593   2.547 -0.3889  0.0518 -0.2149
 2494SOL     OW 9973   2.666   5.434   2.939 -0.0671  0.2816  0.4175
 2494SOL    HW1 9974   2.572   5.427   2.924 -0.4721  0.5144  2.5452
 2494SOL    HW2 9975   2.705   5.373   2.877 -1.8288 -2.2614  1.6592
 2494SOL     MW 9976   2.659   5.425   2.929 -0.3444 -0.0141  0.8488
 2495SOL     OW 9977   2.343   5.181   1.956  0.1432 -0.3808 -0.0546
 2495SOL    HW1 9978   2.423   5.231   1.969  1.6361 -2.6531  0.0833
 2495SOL    HW2 9979   2.303   5.219   1.877  1.7528  0.3277 -0.5636
 2495SOL     MW 9980   2.348   5.192   1.947  0.5404 -0.5810 -0.1021
 2496SOL     OW 9981   4.218   3.634   2.806  0.5352  0.0894  0.3012
 2496SOL    HW1 9982   4.224   3.591   2.891 -0.6377 -1.3125 -0.2817
 2496SOL    HW2 9983   4.309   3.658   2.785  0.8641  0.3044  1.8461
 2496SOL     MW 9984   4.231   3.631   2.814  0.4271 -0.0625  0.4243
 2497SOL     OW 9985   4.338   3.617   2.458  0.3608 -0.1011 -0.1990
 2497SOL    HW1 9986   4.302   3.678   2.522  1.0081 -0.6495  0.6953
 2497SOL    HW2 9987   4.414   3.578   2.501 -0.1429 -1.6958 -0.6781
 2497SOL     MW 9988   4.343   3.620   2.471  0.3791 -0.3755 -0.1458
 2498SOL     OW 9989   4.868   2.581   0.512  0.5172 -0.5448  0.0979
 2498SOL    HW1 9990   4.806   2.592   0.440 -1.5902  0.1377  1.9047
 2498SOL    HW2 9991   4.903   2.493   0.501 -0.1682 -0.6484 -1.4477
 2498SOL     MW 9992   4.865   2.571   0.502  0.1597 -0.4707  0.1313
 2499SOL     OW 9993   3.826   0.286   5.370 -0.3397 -0.4899 -0.0614
 2499SOL    HW1 9994   3.862   0.336   5.296 -0.3455 -1.0341 -0.4334
 2499SOL    HW2 9995   3.880   0.312   5.444  0.3236 -0.7116 -0.4609
 2499SOL     MW 9996   3.837   0.296   5.370 -0.2556 -0.5879 -0.1601
 2500SOL     OW 9997   0.525   1.719   2.683 -0.4752  0.5344 -0.2110
 2500SOL    HW1 9998   0.568   1.740   2.766 -1.4629  0.5330  0.3272
 2500SOL    HW2 9999   0.595   1.689   2.626  0.1795  0.2080  0.7388
 2500SOL     MW10000   0.539   1.718   2.686 -0.5178  0.4925 -0.0205
 2501SOL     OW10001   4.680   5.302   3.411  0.2860 -0.2638  0.3872
 2501SOL    HW110002   4.758   5.261   3.448  1.4340  2.9216  1.8455
 2501SOL    HW210003   4.632   5.335   3.487 -0.7238  0.7971 -0.6796
 2501SOL     MW10004   4.684   5.301   3.426  0.3037  0.2798  0.4373
 2502SOL     OW10005   1.315   1.676   1.044 -0.1783 -0.4090  0.1454
 2502SOL    HW110006   1.319   1.610   0.975  0.9959 -2.4899  2.0703
 2502SOL    HW210007   1.270   1.632   1.117  0.2991  1.0508  1.3777
 2502SOL     MW10008   1.310   1.662   1.045  0.0331 -0.4885  0.5496
 2503SOL     OW10009   2.523   4.849   3.705  0.2356 -0.5473  0.1722
 2503SOL    HW110010   2.596   4.851   3.643 -1.0097  0.0296 -1.3341
 2503SOL    HW210011   2.544   4.776   3.764  1.4601 -1.1176 -0.9215
 2503SOL     MW10012   2.535   4.840   3.705  0.2329 -0.5465 -0.1606
 2504SOL     OW10013   2.425   0.710   1.749 -0.3734 -0.2109 -0.2219
 2504SOL    HW110014   2.422   0.694   1.654 -1.0975  0.3967 -0.3115
 2504SOL    HW210015   2.482   0.787   1.758 -2.3609  1.3635 -0.4251
 2504SOL     MW10016   2.432   0.718   1.738 -0.7205  0.0684 -0.2594
 2505SOL     OW10017   2.154   1.658   3.444  0.2982 -0.2698  0.1817
 2505SOL    HW110018   2.210   1.736   3.452 -0.3067  0.3111 -0.9963
 2505SOL    HW210019   2.204   1.599   3.387  0.9205 -0.9379  1.3627
 2505SOL     MW10020   2.168   1.660   3.438  0.3004 -0.2810  0.1821
 2506SOL     OW10021   3.061   1.079   4.241  0.3312 -0.0221 -0.0363
 2506SOL    HW110022   3.024   1.108   4.325 -0.3161 -0.3846 -0.1876
 2506SOL    HW210023   3.058   0.983   4.245  2.2786 -0.1075  0.3866
 2506SOL     MW10024   3.056   1.070   4.252  0.4976 -0.0794 -0.0015
 2507SOL     OW10025   1.414   1.379   3.269 -0.1016  0.1624 -0.1727
 2507SOL    HW110026   1.499   1.344   3.244 -0.1350 -0.5503  0.6578
 2507SOL    HW210027   1.386   1.430   3.193  0.8986  0.1135 -0.5899
 2507SOL     MW10028   1.421   1.381   3.256  0.0222  0.0649 -0.1198
 2508SOL     OW10029   1.472   0.747   2.534  0.0280 -0.4623  0.8929
 2508SOL    HW110030   1.477   0.762   2.439 -0.0760 -1.0979  0.7805
 2508SOL    HW210031   1.540   0.682   2.552  1.0166  0.7063  1.4962
 2508SOL     MW10032   1.481   0.741   2.524  0.1413 -0.3941  0.9558
 2509SOL     OW10033   1.938   0.225   1.046 -0.3928  0.7173  0.2022
 2509SOL    HW110034   1.954   0.317   1.067 -2.0158  1.3002 -0.9488
 2509SOL    HW210035   1.849   0.208   1.074  0.0262 -0.6632  0.8136
 2509SOL     MW10036   1.929   0.234   1.052 -0.5470  0.6152  0.1331
 2510SOL     OW10037   0.405   0.833   0.979  0.2529  0.3510  0.5238
 2510SOL    HW110038   0.487   0.881   0.980  0.4828  0.1124  3.6791
 2510SOL    HW210039   0.430   0.743   0.959  0.3875  0.7095 -1.0133
 2510SOL     MW10040   0.419   0.827   0.977  0.2996  0.3663  0.7310
 2511SOL     OW10041   4.955   1.659   0.393  0.3896  1.4281  0.5037
 2511SOL    HW110042   4.880   1.600   0.387  1.8002 -0.3573 -0.6163
 2511SOL    HW210043   4.926   1.739   0.351 -0.8622  0.7277 -0.0262
 2511SOL     MW10044   4.942   1.661   0.387  0.4099  1.1099  0.2925
 2512SOL     OW10045   1.632   1.415   4.075  0.0634  0.2460  0.2048
 2512SOL    HW110046   1.727   1.423   4.083  0.1628  0.1889 -0.7842
 2512SOL    HW210047   1.616   1.413   3.980 -0.7830 -1.4029  0.3533
 2512SOL     MW10048   1.642   1.416   4.063 -0.0322  0.0276  0.0972
 2513SOL     OW10049   1.202   3.523   5.126  0.2052  0.5512  0.5672
 2513SOL    HW110050   1.241   3.570   5.199  0.2714 -0.1841  1.0174
 2513SOL    HW210051   1.245   3.437   5.127  1.3799  1.0507 -1.3073
 2513SOL     MW10052   1.212   3.518   5.135  0.3640  0.5210  0.3849
 2514SOL     OW10053   3.597   4.923   4.414  0.4595 -0.1330 -0.5868
 2514SOL    HW110054   3.685   4.883   4.413 -0.3003 -1.9207 -0.2575
 2514SOL    HW210055   3.584   4.951   4.504  0.0319 -1.5014 -0.1992
 2514SOL     MW10056   3.607   4.921   4.425  0.3075 -0.5370 -0.4950
 2515SOL     OW10057   4.306   4.650   3.899 -0.4747  0.3570 -0.2198
 2515SOL    HW110058   4.250   4.614   3.968  0.3323 -1.1772 -0.3185
 2515SOL    HW210059   4.395   4.646   3.936 -0.2847  1.8182 -0.4421
 2515SOL     MW10060   4.311   4.645   3.913 -0.3471  0.3477 -0.2609
 2516SOL     OW10061   3.687   4.814   2.341  0.3023  0.3945 -0.0861
 2516SOL    HW110062   3.610   4.870   2.342 -0.0352 -0.0494 -0.6786
 2516SOL    HW210063   3.688   4.773   2.427 -1.9539 -2.0281 -1.0757
 2516SOL     MW10064   3.678   4.816   2.352 -0.0297  0.0275 -0.2886
 2517SOL     OW10065   0.583   0.886   1.605  0.0545 -0.3849 -0.3431
 2517SOL    HW110066   0.581   0.947   1.532  2.2023 -0.2115 -0.3344
 2517SOL    HW210067   0.675   0.860   1.612 -0.1573 -0.7877  1.9538
 2517SOL     MW10068   0.595   0.891   1.597  0.3024 -0.4142 -0.0480
 2518SOL     OW10069   0.367   4.155   4.784 -0.4228 -0.1924 -0.1262
 2518SOL    HW110070   0.310   4.229   4.764 -0.4176  0.1237  0.9335
 2518SOL    HW210071   0.456   4.192   4.784 -0.2413 -0.5879 -1.3288
 2518SOL     MW10072   0.371   4.169   4.782 -0.3989 -0.2025 -0.1445
 2519SOL     OW10073   3.403   1.034   1.234  0.4779 -0.5744  0.0821
 2519SOL    HW110074   3.369   0.951   1.268 -1.6182 -0.1861 -0.8767
 2519SOL    HW210075   3.446   1.010   1.152  0.5237 -0.8018  0.1719
 2519SOL     MW10076   3.404   1.020   1.228  0.2154 -0.5538 -0.0291
 2520SOL     OW10077   3.171   1.748   4.642  0.0530  0.0382 -0.3645
 2520SOL    HW110078   3.266   1.743   4.633  0.0887 -0.1516  0.0801
 2520SOL    HW210079   3.149   1.839   4.621  0.1666 -0.2590 -1.8895
 2520SOL     MW10080   3.180   1.759   4.638  0.0721 -0.0242 -0.5028
 2521SOL     OW10081   1.590   0.688   3.116 -0.0640 -0.0860  0.2275
 2521SOL    HW110082   1.639   0.744   3.176 -1.6462 -0.4530  1.9832
 2521SOL    HW210083   1.513   0.738   3.093 -1.0189 -1.1260  1.0440
 2521SOL     MW10084   1.587   0.701   3.121 -0.3888 -0.2661  0.5568
 2522SOL     OW10085   0.981   5.092   3.762  0.4479  0.1880 -0.0518
 2522SOL    HW110086   0.964   5.088   3.856 -1.1951  1.0667 -0.2626
 2522SOL    HW210087   0.963   5.183   3.738  0.4215 -0.1176 -1.2806
 2522SOL     MW10088   0.976   5.103   3.771  0.2342  0.2614 -0.2361
 2523SOL     OW10089   4.860   1.391   3.775 -0.4965 -0.2425  0.1695
 2523SOL    HW110090   4.894   1.471   3.816 -0.6010  0.1356 -0.4658
 2523SOL    HW210091   4.777   1.418   3.735  0.0606 -0.3509 -1.1211
 2523SOL     MW10092   4.854   1.405   3.775 -0.4386 -0.2080 -0.0770
 2524SOL     OW10093   2.595   3.973   4.830  0.1961  0.2543  0.1672
 2524SOL    HW110094   2.612   3.879   4.833  0.9436  0.4075  1.4013
 2524SOL    HW210095   2.670   4.013   4.873 -0.9188  1.2921  1.2432
 2524SOL     MW10096   2.607   3.966   4.836  0.1491  0.4067  0.4629
 2525SOL     OW10097   2.516   3.126   0.245  0.3506 -0.4359  0.0743
 2525SOL    HW110098   2.458   3.128   0.321 -0.5349 -0.3591 -0.5958
 2525SOL    HW210099   2.484   3.053   0.192  2.6153 -2.2820  1.0278
 2525SOL     MW10100   2.505   3.117   0.248  0.5272 -0.6624  0.1106
 2526SOL     OW10101   2.653   5.290   0.081 -0.5124 -0.3707 -0.1676
 2526SOL    HW110102   2.581   5.250   0.033 -0.7318  0.4400 -0.5282
 2526SOL    HW210103   2.652   5.381   0.054  0.2979 -0.2278  0.2577
 2526SOL     MW10104   2.643   5.296   0.072 -0.4368 -0.2486 -0.1593
 2527SOL     OW10105   3.106   3.310   3.807  0.2306 -0.6546  0.2620
 2527SOL    HW110106   3.059   3.245   3.860 -1.3653  0.4621  0.3056
 2527SOL    HW210107   3.123   3.382   3.868  2.7570 -1.3397  0.4383
 2527SOL     MW10108   3.102   3.311   3.822  0.3497 -0.5994  0.2901
 2528SOL     OW10109   4.226   5.187   5.198 -0.5293  0.4378 -0.5783
 2528SOL    HW110110   4.171   5.228   5.131  0.4437  1.1727 -0.9488
 2528SOL    HW210111   4.268   5.114   5.153  3.5775  3.4283 -2.2576
 2528SOL     MW10112   4.224   5.183   5.184  0.1210  0.9147 -0.8407
 2529SOL     OW10113   0.186   2.685   4.699  0.5493 -0.3433 -0.8473
 2529SOL    HW110114   0.239   2.764   4.684  1.1544 -0.7234 -0.7301
 2529SOL    HW210115   0.149   2.698   4.786 -0.8825  0.6750 -1.5649
 2529SOL     MW10116   0.188   2.697   4.708  0.4435 -0.2616 -0.9242
 2530SOL     OW10117   1.783   0.451   4.172  0.5756 -0.3931  0.0011
 2530SOL    HW110118   1.696   0.472   4.137  0.4819 -2.1106 -0.8542
 2530SOL    HW210119   1.788   0.501   4.254 -0.6911  0.7308 -0.5632
 2530SOL     MW10120   1.773   0.460   4.178  0.4014 -0.4691 -0.1807
 2531SOL     OW10121   3.974   1.692   1.561  0.1071  0.4622 -0.2960
 2531SOL    HW110122   4.006   1.775   1.598 -1.9560  0.5372  1.5115
 2531SOL    HW210123   4.035   1.626   1.594 -0.4718  0.8148  1.5709
 2531SOL     MW10124   3.986   1.694   1.570 -0.2311  0.5169  0.1744
 2532SOL     OW10125   3.406   1.772   5.452 -0.3102  0.2135 -0.4565
 2532SOL    HW110126   3.313   1.792   5.444 -0.9990 -1.8547  1.5471
 2532SOL    HW210127   3.445   1.855   5.480 -1.8285  0.7168  0.3036
 2532SOL     MW10128   3.399   1.786   5.455 -0.5927  0.0132 -0.1027
 2533SOL     OW10129   0.174   3.700   4.726  0.3319 -0.1621 -0.3550
 2533SOL    HW110130   0.083   3.674   4.710 -0.3214  1.4965  0.4550
 2533SOL    HW210131   0.184   3.782   4.678  1.8754 -1.0252 -1.6181
 2533SOL     MW10132   0.163   3.707   4.718  0.4459 -0.0603 -0.4130
 2534SOL     OW10133   5.407   4.331   4.638  0.4167 -0.8471  0.1596
 2534SOL    HW110134   5.375   4.298   4.723 -0.9615  1.0756  0.4654
 2534SOL    HW210135   5.363   4.415   4.628  2.2362 -0.0374 -1.4879
 2534SOL     MW10136   5.397   4.337   4.648  0.4732 -0.4973 -0.0122
 2535SOL     OW10137   4.679   2.162   0.533 -0.0838  0.0788 -0.5334
 2535SOL    HW110138   4.637   2.107   0.467  0.6828 -1.9961  0.6300
 2535SOL    HW210139   4.620   2.237   0.542 -1.1144 -0.4676 -2.2565
 2535SOL     MW10140   4.666   2.164   0.526 -0.1176 -0.2567 -0.6051
 2536SOL     OW10141   2.946   1.811   3.514  0.3622 -0.2645  0.7450
 2536SOL    HW110142   2.902   1.777   3.435 -0.6420 -1.2697  1.6935
 2536SOL    HW210143   2.875   1.849   3.566  0.7070 -1.1873  1.9478
 2536SOL     MW10144   2.931   1.812   3.510  0.2778 -0.5113  1.0204
 2537SOL     OW10145   3.102   5.353   3.121 -0.3910 -0.4712  0.6366
 2537SOL    HW110146   3.124   5.351   3.214 -2.4505 -0.5878  1.1864
 2537SOL    HW210147   3.036   5.423   3.114  0.9378  0.7171 -1.0681
 2537SOL     MW10148   3.096   5.362   3.132 -0.4846 -0.3340  0.4888
 2538SOL     OW10149   0.437   3.660   2.861  0.2310  0.0618  0.3507
 2538SOL    HW110150   0.517   3.614   2.885  0.3341  0.5071  0.8658
 2538SOL    HW210151   0.455   3.694   2.773  0.7425  0.4525  0.5979
 2538SOL     MW10152   0.449   3.658   2.853  0.3097  0.1688  0.4483
 2539SOL     OW10153   2.417   2.288   4.670 -0.0725  0.3061 -0.2081
 2539SOL    HW110154   2.379   2.222   4.728 -1.0948  0.6322 -0.4855
 2539SOL    HW210155   2.344   2.319   4.618  0.5447  1.1228 -0.6126
 2539SOL     MW10156   2.403   2.283   4.670 -0.1244  0.4524 -0.2954
 2540SOL     OW10157   0.954   3.881   2.497 -0.0308 -0.6614 -0.4291
 2540SOL    HW110158   1.040   3.841   2.492  0.2186 -0.3448  1.0089
 2540SOL    HW210159   0.971   3.971   2.527 -0.9112 -0.9044  0.8774
 2540SOL     MW10160   0.967   3.887   2.500 -0.1116 -0.6520 -0.0778
 2541SOL     OW10161   2.252   2.359   2.792 -0.2502 -0.6999 -0.3850
 2541SOL    HW110162   2.307   2.429   2.756 -0.0146 -0.0197  1.2188
 2541SOL    HW210163   2.185   2.406   2.842 -0.1865 -1.6292  0.5813
 2541SOL     MW10164   2.250   2.374   2.793 -0.2119 -0.7318 -0.0560
 2542SOL     OW10165   1.395   3.077   0.540  0.1145 -0.0927  0.3487
 2542SOL    HW110166   1.490   3.080   0.534  0.0296  0.3516 -1.0925
 2542SOL    HW210167   1.378   3.033   0.624  1.5645  0.6013  1.0426
 2542SOL     MW10168   1.405   3.072   0.550  0.2892  0.0530  0.2530
 2543SOL     OW10169   4.384   3.238   2.499 -0.2529  0.1586  0.7074
 2543SOL    HW110170   4.367   3.145   2.482 -0.0310  0.5155 -1.7233
 2543SOL    HW210171   4.323   3.260   2.569 -0.1216 -1.8679  1.5399
 2543SOL     MW10172   4.374   3.229   2.506 -0.2077 -0.0551  0.5028
 2544SOL     OW10173   0.454   0.087   1.337 -0.3341 -0.2782 -0.2079
 2544SOL    HW110174   0.532   0.103   1.390 -1.1086  1.3174  0.5332
 2544SOL    HW210175   0.395   0.160   1.359 -2.0044 -1.3924 -0.7847
 2544SOL     MW10176   0.456   0.098   1.347 -0.6471 -0.2166 -0.1869
 2545SOL     OW10177   4.395   0.649   5.163  0.6781  0.4752 -0.0429
 2545SOL    HW110178   4.476   0.634   5.114  0.5492  0.2651 -0.1966
 2545SOL    HW210179   4.423   0.658   5.254  0.8938  0.5925 -0.1197
 2545SOL     MW10180   4.409   0.648   5.168  0.6892  0.4633 -0.0724
 2546SOL     OW10181   1.253   3.557   4.656  0.1269 -0.1830  0.1088
 2546SOL    HW110182   1.329   3.507   4.684 -0.1325 -0.4233  0.4014
 2546SOL    HW210183   1.192   3.492   4.621 -0.2490 -0.0918  0.5774
 2546SOL     MW10184   1.255   3.542   4.655  0.0455 -0.2021  0.2062
 2547SOL     OW10185   4.660   3.122   0.399  0.0872  0.1507 -0.1122
 2547SOL    HW110186   4.627   3.081   0.319  1.6866 -1.7079  0.1140
 2547SOL    HW210187   4.590   3.182   0.426 -1.3360 -0.6730 -1.7940
 2547SOL     MW10188   4.647   3.124   0.393  0.1097 -0.1927 -0.2986
 2548SOL     OW10189   3.542   1.572   1.616  0.4150 -0.1413 -0.8606
 2548SOL    HW110190   3.588   1.637   1.564  0.4998 -0.2176 -0.8819
 2548SOL    HW210191   3.562   1.488   1.573 -0.6090 -0.0764 -1.5055
 2548SOL     MW10192   3.551   1.569   1.604  0.2948 -0.1428 -0.9459
 2549SOL     OW10193   2.912   3.661   1.938  0.3374  0.1697  0.3959
 2549SOL    HW110194   2.958   3.581   1.913  0.3419  0.4371 -0.4703
 2549SOL    HW210195   2.932   3.723   1.869 -0.3064  0.6851  0.6591
 2549SOL     MW10196   2.921   3.658   1.926  0.2555  0.2699  0.3187
 2550SOL     OW10197   3.008   2.162   1.675  0.1970 -0.3165  0.0318
 2550SOL    HW110198   3.034   2.130   1.761 -0.4414 -0.6220  0.1166
 2550SOL    HW210199   2.922   2.123   1.660  0.2532 -0.1730 -0.6953
 2550SOL     MW10200   3.000   2.153   1.684  0.1225 -0.3372 -0.0504
 2551SOL     OW10201   1.267   0.817   5.162  0.6944  0.0691 -0.4581
 2551SOL    HW110202   1.184   0.827   5.114  0.4381  0.0259 -0.0340
 2551SOL    HW210203   1.259   0.733   5.206  1.5569 -0.6006 -1.5298
 2551SOL     MW10204   1.255   0.808   5.161  0.7720 -0.0222 -0.5410
 2552SOL     OW10205   4.768   2.892   0.556  0.3206 -0.2688 -0.0416
 2552SOL    HW110206   4.857   2.863   0.536 -0.5672 -1.7520 -2.2742
 2552SOL    HW210207   4.745   2.848   0.637  1.8974  0.9064  1.1140
 2552SOL     MW10208   4.776   2.883   0.564  0.4088 -0.3082 -0.1794
 2553SOL     OW10209   1.157   0.897   3.437 -0.0292  0.1961  0.1738
 2553SOL    HW110210   1.173   0.803   3.431  0.6895  0.2632  0.9460
 2553SOL    HW210211   1.155   0.916   3.530 -1.8846  0.6785  0.0786
 2553SOL     MW10212   1.159   0.888   3.448 -0.1747  0.2665  0.2605
 2554SOL     OW10213   4.063   2.788   1.239 -0.1203  0.1650 -0.8702
 2554SOL    HW110214   4.108   2.853   1.292  0.5228 -1.0399  0.1204
 2554SOL    HW210215   4.044   2.833   1.156 -0.0299  1.6910 -0.0871
 2554SOL     MW10216   4.066   2.802   1.235 -0.0264  0.2061 -0.6431
 2555SOL     OW10217   1.631   2.307   0.332  0.2492  0.4717  0.2650
 2555SOL    HW110218   1.705   2.280   0.279 -0.4121  1.9569 -1.4975
 2555SOL    HW210219   1.644   2.401   0.346 -1.6143  0.9172 -0.6804
 2555SOL     MW10220   1.642   2.315   0.327 -0.0740  0.7188 -0.0817
 2556SOL     OW10221   5.068   1.690   1.478 -0.0238 -0.6080 -0.3682
 2556SOL    HW110222   5.061   1.735   1.562 -0.3969 -1.5604  0.1313
 2556SOL    HW210223   5.000   1.623   1.480 -1.0328  0.2999 -2.0566
 2556SOL     MW10224   5.059   1.687   1.489 -0.2007 -0.6137 -0.5204
 2557SOL     OW10225   3.121   2.387   1.257 -0.0537  0.0381  0.6715
 2557SOL    HW110226   3.168   2.467   1.233  1.0605 -0.9354 -0.5350
 2557SOL    HW210227   3.032   2.402   1.225  0.4820  0.2947 -0.7947
 2557SOL     MW10228   3.116   2.399   1.250  0.1575 -0.0537  0.3294
 2558SOL     OW10229   1.521   0.041   3.798  0.1932 -0.2361 -0.5014
 2558SOL    HW110230   1.514   0.037   3.702 -0.0824 -1.4191 -0.4410
 2558SOL    HW210231   1.475   0.121   3.822  0.0713 -0.0455 -1.3459
 2558SOL     MW10232   1.514   0.051   3.789  0.1423 -0.3632 -0.6018
 2559SOL     OW10233   2.541   4.055   4.535 -0.0213  0.6169 -0.1310
 2559SOL    HW110234   2.523   4.149   4.525  0.0174  0.5649 -0.7376
 2559SOL    HW210235   2.622   4.052   4.586 -1.5762  0.8543  2.5501
 2559SOL     MW10236   2.549   4.067   4.540 -0.2154  0.6407  0.1346
 2560SOL     OW10237   4.813   4.457   0.039  0.0067 -0.5871 -0.3386
 2560SOL    HW110238   4.719   4.440   0.029 -0.2398 -0.8092  1.9002
 2560SOL    HW210239   4.855   4.377   0.008 -0.7237 -1.7056  1.3800
 2560SOL     MW10240   4.806   4.445   0.034 -0.1184 -0.7587  0.1680
 2561SOL     OW10241   4.129   1.805   0.008  0.1727 -0.1619 -0.0245
 2561SOL    HW110242   4.146   1.898   0.022  1.0773 -0.1523 -1.0778
 2561SOL    HW210243   4.211   1.761   0.032 -0.5080 -0.7949  1.2740
 2561SOL     MW10244   4.142   1.811   0.013  0.2014 -0.2417  0.0069
 2562SOL     OW10245   3.299   2.411   3.634 -0.4284 -0.2324  0.1924
 2562SOL    HW110246   3.277   2.492   3.680  1.5235  0.4954 -0.0711
 2562SOL    HW210247   3.324   2.350   3.704  0.0579  0.0519  0.2697
 2562SOL     MW10248   3.300   2.414   3.649 -0.1163 -0.1028  0.1686
 2563SOL     OW10249   0.550   4.204   4.429 -0.1946 -0.1721 -0.1457
 2563SOL    HW110250   0.625   4.182   4.484  1.1500 -0.8768 -2.1734
 2563SOL    HW210251   0.524   4.292   4.458  0.6492 -0.3960  1.3707
 2563SOL     MW10252   0.556   4.213   4.440  0.0856 -0.2910 -0.2111
 2564SOL     OW10253   3.147   4.101   3.510  0.2842 -0.0626 -0.1185
 2564SOL    HW110254   3.183   4.169   3.567  0.4981 -1.1590  1.1067
 2564SOL    HW210255   3.076   4.062   3.561 -1.2701  0.6309 -1.6559
 2564SOL     MW10256   3.143   4.104   3.524  0.1126 -0.1141 -0.1584
 2565SOL     OW10257   3.685   5.305   4.530 -0.5791  0.2453 -0.7528
 2565SOL    HW110258   3.768   5.351   4.539 -0.6796  0.9942 -3.1571
 2565SOL    HW210259   3.696   5.226   4.583  2.0296 -0.1480 -1.7331
 2565SOL     MW10260   3.697   5.301   4.538 -0.2581  0.2908 -1.1861
 2566SOL     OW10261   1.021   1.999   4.642  0.2662  0.3910  0.0282
 2566SOL    HW110262   1.093   2.017   4.702  1.0877 -1.2497 -0.3979
 2566SOL    HW210263   0.944   2.039   4.683  0.7071 -0.9745  2.3499
 2566SOL     MW10264   1.021   2.007   4.655  0.4278  0.0062  0.2708
 2567SOL     OW10265   3.149   4.946   0.926  0.5113 -0.3773 -0.1313
 2567SOL    HW110266   3.154   5.037   0.896 -1.0996 -0.4095 -0.5607
 2567SOL    HW210267   3.059   4.919   0.910  0.7375 -1.8098  0.7409
 2567SOL     MW10268   3.138   4.954   0.920  0.3340 -0.5648 -0.0746
 2568SOL     OW10269   0.304   1.057   2.832  0.6394  0.0405 -0.1711
 2568SOL    HW110270   0.282   0.968   2.803  1.7566 -0.3235  0.0657
 2568SOL    HW210271   0.338   1.046   2.920 -0.3204  0.8592  0.3223
 2568SOL     MW10272   0.305   1.044   2.839  0.6596  0.0987 -0.0776
 2569SOL     OW10273   3.154   4.855   4.011  0.0214  0.7409 -0.4038
 2569SOL    HW110274   3.198   4.825   3.932 -0.3179 -0.7380 -0.0584
 2569SOL    HW210275   3.226   4.878   4.071  0.2841  0.6499 -0.6795
 2569SOL     MW10276   3.169   4.854   4.009  0.0116  0.5399 -0.3949
 2570SOL     OW10277   3.558   1.265   4.966  0.0203  0.3419 -0.0825
 2570SOL    HW110278   3.560   1.247   5.060 -0.1847  1.0108  0.0569
 2570SOL    HW210279   3.550   1.361   4.960 -0.8717  0.2401 -0.7740
 2570SOL     MW10280   3.557   1.275   4.977 -0.1202  0.4145 -0.1532
 2571SOL     OW10281   5.323   1.908   4.276 -0.2016  0.0018  0.4144
 2571SOL    HW110282   5.263   1.836   4.255  0.4814  0.5900 -4.8664
 2571SOL    HW210283   5.399   1.865   4.316 -1.0345 -1.8047  0.1496
 2571SOL     MW10284   5.325   1.893   4.278 -0.2208 -0.1542 -0.2955
 2572SOL     OW10285   3.409   1.225   4.365  0.0563  0.2415  0.2442
 2572SOL    HW110286   3.409   1.133   4.392  2.0236 -0.6612 -2.3913
 2572SOL    HW210287   3.405   1.222   4.269  2.3101  2.7714 -0.0657
 2572SOL     MW10288   3.408   1.213   4.356  0.5967  0.4498 -0.1328
 2573SOL     OW10289   2.514   1.064   3.784  0.2429 -0.0081 -0.1525
 2573SOL    HW110290   2.522   0.982   3.734 -0.6625 -0.5080  0.4879
 2573SOL    HW210291   2.489   1.036   3.872 -0.1135  0.9617  0.0671
 2573SOL     MW10292   2.512   1.050   3.789  0.0814  0.0520 -0.0424
 2574SOL     OW10293   2.653   1.196   2.190  0.0817  0.1281 -0.2298
 2574SOL    HW110294   2.733   1.217   2.141 -0.2935  1.5397 -0.2865
 2574SOL    HW210295   2.598   1.148   2.128  0.1208  0.8182 -0.8120
 2574SOL     MW10296   2.656   1.192   2.176  0.0387  0.3971 -0.3116
 2575SOL     OW10297   2.181   0.672   0.492  0.5475 -0.4823 -1.0220
 2575SOL    HW110298   2.239   0.694   0.565  0.6869 -0.9111 -1.0053
 2575SOL    HW210299   2.216   0.723   0.418  0.2819  0.1153 -0.7477
 2575SOL     MW10300   2.193   0.682   0.492  0.5313 -0.4607 -0.9848
 2576SOL     OW10301   0.598   1.394   1.913 -0.0768  0.1529  0.4084
 2576SOL    HW110302   0.672   1.438   1.954  0.7261 -0.7954  0.0147
 2576SOL    HW210303   0.522   1.446   1.939  0.8719  2.1309 -0.5750
 2576SOL     MW10304   0.598   1.406   1.922  0.1474  0.2847  0.2321
 2577SOL     OW10305   1.074   0.631   4.441  0.7675  0.0958 -0.2785
 2577SOL    HW110306   1.013   0.702   4.422  1.7912  0.9216 -0.5208
 2577SOL    HW210307   1.036   0.555   4.396  0.2087  0.7225 -0.8897
 2577SOL     MW10308   1.061   0.630   4.433  0.8270  0.2817 -0.3877
 2578SOL     OW10309   1.950   4.278   3.376  0.2078  0.1046 -0.0568
 2578SOL    HW110310   1.937   4.190   3.410  0.6060  0.4269  0.9572
 2578SOL    HW210311   1.990   4.326   3.448  1.6717  0.6469 -1.1786
 2578SOL     MW10312   1.953   4.273   3.389  0.4462  0.2153 -0.0706
 2579SOL     OW10313   3.282   5.216   1.775 -0.3303 -0.0623  0.2033
 2579SOL    HW110314   3.319   5.303   1.789 -4.7766  1.9252  1.6324
 2579SOL    HW210315   3.227   5.226   1.696 -0.2434 -1.8557 -0.1184
 2579SOL     MW10316   3.279   5.229   1.766 -0.8884 -0.0374  0.3451
 2580SOL     OW10317   2.715   3.869   1.718  0.1406 -0.0134  0.2725
 2580SOL    HW110318   2.625   3.837   1.713  0.1555 -0.0910  0.5167
 2580SOL    HW210319   2.751   3.854   1.630  0.2856 -1.0557  0.5050
 2580SOL     MW10320   2.708   3.863   1.706  0.1611 -0.1568  0.3335
 2581SOL     OW10321   1.908   0.358   4.633  0.3094 -0.0926  0.0565
 2581SOL    HW110322   1.918   0.441   4.680  0.5748  0.4088 -0.8698
 2581SOL    HW210323   1.970   0.299   4.675  1.4142  0.6968 -0.4309
 2581SOL     MW10324   1.917   0.361   4.645  0.4848  0.0727 -0.1245
 2582SOL     OW10325   1.750   3.068   0.533  0.0339 -0.1728 -0.1902
 2582SOL    HW110326   1.838   3.047   0.564 -0.1370 -0.2342  0.2643
 2582SOL    HW210327   1.761   3.146   0.480 -0.0635  1.8347  2.5168
 2582SOL     MW10328   1.763   3.075   0.531 -0.0004  0.0763  0.2145
 2583SOL     OW10329   0.374   2.467   4.215 -0.2861 -0.1774 -0.4102
 2583SOL    HW110330   0.438   2.455   4.145 -0.2541 -1.4015 -0.1900
 2583SOL    HW210331   0.427   2.494   4.291  0.4283 -3.6314  0.5025
 2583SOL     MW10332   0.389   2.469   4.216 -0.1905 -0.7762 -0.2652
 2584SOL     OW10333   1.149   1.086   1.660 -0.3672 -0.0425 -0.3070
 2584SOL    HW110334   1.080   1.062   1.722 -1.1083  0.3550 -0.9660
 2584SOL    HW210335   1.175   1.174   1.686  0.1700 -0.3353  0.1755
 2584SOL     MW10336   1.144   1.094   1.671 -0.3933 -0.0291 -0.3296
 2585SOL     OW10337   3.218   1.433   2.045 -0.4677  0.8474  0.1141
 2585SOL    HW110338   3.138   1.398   2.085 -0.5732 -0.3543 -1.0913
 2585SOL    HW210339   3.265   1.356   2.015  0.9475  1.5744  0.3926
 2585SOL     MW10340   3.214   1.419   2.046 -0.3000  0.7866 -0.0046
 2586SOL     OW10341   3.730   2.691   0.427  0.1867  0.3164  0.4174
 2586SOL    HW110342   3.742   2.784   0.406 -0.4104  0.1215 -0.8940
 2586SOL    HW210343   3.741   2.646   0.343  2.5041 -1.0319  1.3283
 2586SOL     MW10344   3.733   2.697   0.413  0.4069  0.1188  0.3661
 2587SOL     OW10345   1.758   1.167   5.456 -0.1839  0.1700 -0.6639
 2587SOL    HW110346   1.853   1.180   5.457 -0.2802  0.9835  1.2300
 2587SOL    HW210347   1.732   1.185   5.365  1.2106  2.0738 -0.7395
 2587SOL     MW10348   1.767   1.171   5.444 -0.0177  0.5179 -0.4311
 2588SOL     OW10349   3.095   4.266   3.096  0.2050 -0.6091 -0.1558
 2588SOL    HW110350   3.140   4.258   3.180 -0.7356  0.5785  0.5077
 2588SOL    HW210351   3.150   4.219   3.034  0.7172 -1.8710  1.1972
 2588SOL     MW10352   3.108   4.259   3.099  0.1501 -0.6186  0.1024
 2589SOL     OW10353   3.930   3.505   2.212 -0.8405  0.0780 -0.1127
 2589SOL    HW110354   3.942   3.460   2.295 -2.0982 -0.6105 -0.2869
 2589SOL    HW210355   3.858   3.459   2.169 -0.2227  0.4207 -1.5854
 2589SOL     MW10356   3.922   3.494   2.217 -0.9224  0.0337 -0.3236
 2590SOL     OW10357   3.906   5.333   2.839  0.1255  0.4094  0.2939
 2590SOL    HW110358   3.937   5.266   2.900 -0.0110  0.7166  0.7082
 2590SOL    HW210359   3.811   5.334   2.851 -0.1582 -0.9634 -1.4125
 2590SOL     MW10360   3.898   5.325   2.849  0.0717  0.2730  0.1285
 2591SOL     OW10361   1.368   2.509   4.442  0.1653 -0.1689  0.2466
 2591SOL    HW110362   1.335   2.575   4.503 -0.4071  0.5871 -0.8386
 2591SOL    HW210363   1.306   2.512   4.369  0.0467 -2.0232  0.2351
 2591SOL     MW10364   1.356   2.518   4.440  0.0768 -0.3095  0.1062
 2592SOL     OW10365   4.441   2.359   1.771 -0.3864  0.1133 -0.0645
 2592SOL    HW110366   4.439   2.454   1.783  0.0379  0.2516 -0.9754
 2592SOL    HW210367   4.354   2.337   1.736 -0.8673  0.0037  1.1652
 2592SOL     MW10368   4.429   2.368   1.768 -0.3937  0.1170 -0.0237
 2593SOL     OW10369   0.974   3.576   5.284 -0.1391  0.5739 -0.6251
 2593SOL    HW110370   1.049   3.590   5.225 -0.0044 -0.1156 -0.6244
 2593SOL    HW210371   0.897   3.594   5.230  0.0235  1.5998 -0.5414
 2593SOL     MW10372   0.974   3.580   5.269 -0.1010  0.6169 -0.6143
 2594SOL     OW10373   4.507   1.078   4.924 -0.2939 -0.4688 -0.5019
 2594SOL    HW110374   4.439   1.133   4.963 -0.0835  1.2057 -2.3069
 2594SOL    HW210375   4.459   1.014   4.872 -0.5166 -1.3662  0.7599
 2594SOL     MW10376   4.492   1.077   4.922 -0.2955 -0.3693 -0.5715
 2595SOL     OW10377   2.568   2.897   1.224  0.0751 -1.0906  0.0855
 2595SOL    HW110378   2.620   2.852   1.290 -0.9995 -2.1129  0.2652
 2595SOL    HW210379   2.490   2.927   1.272 -1.3272 -2.9483 -0.9310
 2595SOL     MW10380   2.565   2.895   1.239 -0.2420 -1.4593 -0.0216
 2596SOL     OW10381   2.653   1.844   5.099 -0.0503  0.2919  0.2588
 2596SOL    HW110382   2.619   1.891   5.175 -2.0251 -0.0676 -0.3442
 2596SOL    HW210383   2.632   1.900   5.024  0.6371  0.0127 -0.1587
 2596SOL     MW10384   2.646   1.857   5.099 -0.2151  0.2102  0.1281
 2597SOL     OW10385   0.405   3.743   1.068  0.0568  0.6451 -0.0471
 2597SOL    HW110386   0.382   3.730   0.976  0.6951  0.6353 -0.2089
 2597SOL    HW210387   0.461   3.821   1.068  0.3837  0.4115  0.2796
 2597SOL     MW10388   0.409   3.751   1.056  0.1803  0.6140 -0.0260
 2598SOL     OW10389   4.197   1.738   4.821  0.2910  0.1617 -0.2443
 2598SOL    HW110390   4.193   1.829   4.852 -0.1248  0.5235 -1.3112
 2598SOL    HW210391   4.107   1.708   4.824  0.3187  0.0369 -0.6159
 2598SOL     MW10392   4.185   1.746   4.826  0.2413  0.1920 -0.4285
 2599SOL     OW10393   0.260   4.673   2.907  0.4669  0.2706 -0.4884
 2599SOL    HW110394   0.169   4.645   2.914  0.4232  0.1116 -1.5401
 2599SOL    HW210395   0.256   4.769   2.911  0.0777  0.3435 -2.0355
 2599SOL     MW10396   0.248   4.682   2.909  0.4115  0.2596 -0.8211
 2600SOL     OW10397   2.765   1.435   3.665 -0.2131  0.2518 -0.3570
 2600SOL    HW110398   2.834   1.496   3.693  1.3483 -1.2483 -0.7693
 2600SOL    HW210399   2.715   1.417   3.744 -0.1283  1.3362 -0.0358
 2600SOL     MW10400   2.768   1.441   3.679 -0.0024  0.1986 -0.3687
 2601SOL     OW10401   2.756   0.713   2.482  0.4976 -0.1356 -0.3542
 2601SOL    HW110402   2.844   0.750   2.476  1.3311 -1.8728  0.4265
 2601SOL    HW210403   2.727   0.735   2.571 -0.4630  1.5946 -1.0390
 2601SOL     MW10404   2.763   0.721   2.493  0.4814 -0.1365 -0.3419
 2602SOL     OW10405   5.465   0.898   5.195 -0.4239  0.2055  0.1646
 2602SOL    HW110406   5.553   0.935   5.194 -0.1583 -0.2639  2.3011
 2602SOL    HW210407   5.407   0.974   5.195 -0.0061  0.5299 -0.1616
 2602SOL     MW10408   5.469   0.912   5.195 -0.3364  0.1869  0.3963
 2603SOL     OW10409   0.538   2.146   4.691  0.1639 -0.3990 -0.3248
 2603SOL    HW110410   0.629   2.119   4.698  0.3730  0.3647  0.0903
 2603SOL    HW210411   0.528   2.213   4.759 -1.0737 -1.4570  0.5962
 2603SOL     MW10412   0.548   2.151   4.701  0.0323 -0.4367 -0.1538
 2604SOL     OW10413   0.038   0.792   4.260 -0.1987  0.0231 -0.1150
 2604SOL    HW110414  -0.016   0.728   4.214 -0.2156 -1.2675  1.6137
 2604SOL    HW210415   0.050   0.755   4.347 -0.1906  2.3778  0.9588
 2604SOL     MW10416   0.033   0.779   4.265 -0.1998  0.1593  0.2438
 2605SOL     OW10417   0.528   2.331   2.810 -0.5500 -0.2927  0.4009
 2605SOL    HW110418   0.561   2.247   2.843 -0.2168  0.2210  1.4145
 2605SOL    HW210419   0.510   2.314   2.717 -0.8211 -1.5825  0.6579
 2605SOL     MW10420   0.530   2.318   2.802 -0.5421 -0.3921  0.5635
 2606SOL     OW10421   1.089   5.248   0.291 -0.1306 -0.0301  0.1132
 2606SOL    HW110422   1.096   5.221   0.200 -0.5917 -1.7108  0.5409
 2606SOL    HW210423   1.101   5.343   0.289  0.2885 -0.0876 -1.6324
 2606SOL     MW10424   1.092   5.257   0.279 -0.1360 -0.2526 -0.0555
 2607SOL     OW10425   0.031   3.836   2.145 -0.4563 -0.5218  0.7936
 2607SOL    HW110426   0.048   3.930   2.138  0.0849 -0.6480  0.3724
 2607SOL    HW210427   0.113   3.794   2.118 -0.7609 -1.1165  0.7697
 2607SOL     MW10428   0.043   3.843   2.140 -0.4260 -0.6141  0.7366
 2608SOL     OW10429   0.220   4.380   4.700 -0.2529 -0.7866 -0.0092
 2608SOL    HW110430   0.224   4.452   4.763 -0.1225  0.0966 -1.0017
 2608SOL    HW210431   0.129   4.348   4.705 -0.5380 -0.0155 -0.1277
 2608SOL     MW10432   0.209   4.385   4.708 -0.2727 -0.5749 -0.1514
 2609SOL     OW10433   5.439   1.285   2.537  0.9142  0.9491 -0.4131
 2609SOL    HW110434   5.376   1.302   2.467 -1.8798  1.0889  1.9763
 2609SOL    HW210435   5.490   1.211   2.506 -0.5543  0.6866 -2.3725
 2609SOL     MW10436   5.437   1.278   2.524  0.3686  0.9334 -0.3580
 2610SOL     OW10437   1.565   4.160   2.485 -0.2579  0.0855  0.3483
 2610SOL    HW110438   1.624   4.183   2.413 -1.0397  1.7259  0.1777
 2610SOL    HW210439   1.558   4.240   2.536  0.7160 -1.1915  2.6204
 2610SOL     MW10440   1.572   4.173   2.482 -0.2333  0.1320  0.6173
 2611SOL     OW10441   0.375   0.674   1.976 -0.1135 -0.2473 -0.1980
 2611SOL    HW110442   0.456   0.634   2.009 -0.3508 -0.4568  0.1375
 2611SOL    HW210443   0.362   0.751   2.031 -0.3013 -0.3800 -0.0557
 2611SOL     MW10444   0.384   0.678   1.987 -0.1679 -0.2911 -0.1369
 2612SOL     OW10445   4.333   1.208   5.086  0.3108  0.2333  0.0537
 2612SOL    HW110446   4.401   1.252   5.136  2.6177 -3.1187  0.2011
 2612SOL    HW210447   4.291   1.149   5.149  0.0920 -0.7044 -0.9327
 2612SOL     MW10448   4.336   1.206   5.101  0.5781 -0.3158 -0.0537
 2613SOL     OW10449   4.710   0.121   3.771  0.3926 -0.2275 -0.1786
 2613SOL    HW110450   4.647   0.173   3.820 -0.8322 -0.4130 -1.4656
 2613SOL    HW210451   4.735   0.176   3.697  1.2762 -0.3985 -0.0189
 2613SOL     MW10452   4.705   0.135   3.768  0.3489 -0.2732 -0.3229
 2614SOL     OW10453   1.719   4.931   2.031  0.1358 -0.2066 -0.2636
 2614SOL    HW110454   1.785   4.880   1.985  2.1013  1.6498  0.3012
 2614SOL    HW210455   1.636   4.888   2.011  1.4607 -2.4314 -1.3099
 2614SOL     MW10456   1.717   4.919   2.023  0.5570 -0.2538 -0.3252
 2615SOL     OW10457   2.770   0.018   0.799  0.2692 -0.2980  0.4448
 2615SOL    HW110458   2.704  -0.032   0.847 -0.1112 -0.9266 -0.7089
 2615SOL    HW210459   2.826   0.055   0.868 -1.7642  0.9837  1.5042
 2615SOL     MW10460   2.769   0.017   0.814 -0.0398 -0.2144  0.4328
 2616SOL     OW10461   0.661   3.691   3.554 -0.5424  1.0293  0.0245
 2616SOL    HW110462   0.739   3.712   3.502 -0.5522  3.8776  0.9890
 2616SOL    HW210463   0.588   3.701   3.493 -0.3067  0.3562 -0.3789
 2616SOL     MW10464   0.662   3.695   3.539 -0.5135  1.3077  0.0963
 2617SOL     OW10465   1.484   4.802   1.988 -0.3135  0.0604 -0.2899
 2617SOL    HW110466   1.431   4.758   2.054 -0.3980 -0.5053 -0.7276
 2617SOL    HW210467   1.548   4.737   1.961  1.3690  1.0689  1.0482
 2617SOL     MW10468   1.486   4.788   1.993 -0.1089  0.1171 -0.1746
 2618SOL     OW10469   1.625   1.122   2.184 -0.7330  0.5655 -0.2223
 2618SOL    HW110470   1.714   1.142   2.212 -0.7994 -0.3971  0.7529
 2618SOL    HW210471   1.622   1.147   2.092 -0.0519  2.4189  0.2193
 2618SOL     MW10472   1.636   1.128   2.176 -0.6543  0.6795 -0.0409
 2619SOL     OW10473   0.138   3.640   4.384  0.5068 -0.2787  0.0552
 2619SOL    HW110474   0.169   3.666   4.472 -1.7419 -0.7448  1.0409
 2619SOL    HW210475   0.072   3.573   4.401 -0.1214 -0.2266 -2.0202
 2619SOL     MW10476   0.134   3.635   4.398  0.1385 -0.3317 -0.0843
 2620SOL     OW10477   0.387   1.274   5.214  0.3948 -0.6833 -0.0790
 2620SOL    HW110478   0.344   1.355   5.187  0.8179  0.0146  1.2458
 2620SOL    HW210479   0.316   1.219   5.246  0.3084 -0.0534  0.8556
 2620SOL     MW10480   0.373   1.278   5.215  0.4379 -0.5133  0.2102
 2621SOL     OW10481   0.536   4.022   2.518 -0.5478 -0.1780  0.4088
 2621SOL    HW110482   0.464   4.076   2.487 -0.3792  0.7488  1.5554
 2621SOL    HW210483   0.584   4.079   2.579 -0.4756 -1.6484  1.8044
 2621SOL     MW10484   0.533   4.036   2.522 -0.5170 -0.2476  0.7342
 2622SOL     OW10485   4.133   1.650   3.417 -0.2461  0.1686 -0.4192
 2622SOL    HW110486   4.157   1.703   3.341 -1.1394  1.8149  0.3963
 2622SOL    HW210487   4.082   1.578   3.381  0.3712  0.2482 -1.4900
 2622SOL     MW10488   4.130   1.648   3.403 -0.2814  0.3896 -0.4519
 2623SOL     OW10489   2.934   3.388   1.595  0.4486 -0.1279 -0.4422
 2623SOL    HW110490   2.976   3.312   1.633  1.1276 -0.3391 -1.5662
 2623SOL    HW210491   3.006   3.447   1.573 -0.0181  0.5203 -0.2639
 2623SOL     MW10492   2.948   3.386   1.597  0.4758 -0.0719 -0.5632
 2624SOL     OW10493   1.576   5.132   0.863  0.2522 -0.0418  0.0023
 2624SOL    HW110494   1.545   5.223   0.859 -0.2743 -0.0515  2.3435
 2624SOL    HW210495   1.497   5.081   0.880  0.7057 -0.8025 -0.1369
 2624SOL     MW10496   1.562   5.137   0.864  0.2429 -0.1404  0.2842
 2625SOL     OW10497   3.309  -0.006   0.970 -0.0642  0.0980  0.0093
 2625SOL    HW110498   3.342   0.082   0.951  0.0430  0.1715  0.5087
 2625SOL    HW210499   3.224  -0.010   0.925 -0.3977  0.7219  0.5527
 2625SOL     MW10500   3.302   0.005   0.962 -0.0932  0.1873  0.1428
 2626SOL     OW10501   4.480   2.620   1.855 -0.4060 -0.4910 -0.1039
 2626SOL    HW110502   4.497   2.714   1.867  2.4833 -0.8957 -0.4902
 2626SOL    HW210503   4.458   2.589   1.943 -1.3811  0.4915  0.0382
 2626SOL     MW10504   4.479   2.628   1.868 -0.1610 -0.4170 -0.1352
 2627SOL     OW10505   4.840   2.287   3.856 -0.4377  0.2225  0.3179
 2627SOL    HW110506   4.803   2.260   3.772  1.4974 -0.6682 -0.3002
 2627SOL    HW210507   4.892   2.365   3.835  0.1834 -0.0959  0.6434
 2627SOL     MW10508   4.842   2.294   3.842 -0.1105  0.0677  0.2805
 2628SOL     OW10509   4.592   4.481   3.435  0.1480 -0.0476  0.1927
 2628SOL    HW110510   4.547   4.470   3.519  1.0797 -0.1278  0.6933
 2628SOL    HW210511   4.682   4.503   3.459  1.3318 -3.4369 -0.7234
 2628SOL     MW10512   4.597   4.483   3.449  0.4188 -0.4917  0.1395
 2629SOL     OW10513   2.922   5.175   1.082  0.4731  0.1236 -0.3644
 2629SOL    HW110514   2.894   5.142   0.996 -0.9680 -0.6191  0.3374
 2629SOL    HW210515   2.849   5.230   1.111  0.9127  0.3079  0.4101
 2629SOL     MW10516   2.909   5.177   1.075  0.3449  0.0521 -0.1754
 2630SOL     OW10517   2.048   5.186   5.340 -0.3344 -1.0657  0.1100
 2630SOL    HW110518   2.086   5.227   5.262 -1.7011 -2.1521 -1.1813
 2630SOL    HW210519   2.075   5.243   5.412 -1.8398  1.9995 -1.5265
 2630SOL     MW10520   2.056   5.199   5.340 -0.7020 -0.8124 -0.2648
 2631SOL     OW10521   5.150   0.147   2.691 -0.1223  0.3749 -0.0466
 2631SOL    HW110522   5.112   0.215   2.746 -0.0343  0.8026 -0.5079
 2631SOL    HW210523   5.085   0.132   2.622  0.0737  0.3423 -0.2249
 2631SOL     MW10524   5.137   0.154   2.689 -0.0859  0.4255 -0.1285
 2632SOL     OW10525   0.127   0.948   0.423 -0.2127 -0.5469  0.5975
 2632SOL    HW110526   0.174   0.875   0.465 -2.8978 -3.0828 -0.4632
 2632SOL    HW210527   0.107   1.007   0.496  0.6054 -1.6789  1.8071
 2632SOL     MW10528   0.131   0.946   0.438 -0.4517 -1.0165  0.6166
 2633SOL     OW10529   2.176   3.726   4.361 -0.1934  0.0730  0.3575
 2633SOL    HW110530   2.267   3.745   4.383 -0.8176  1.3608  2.0264
 2633SOL    HW210531   2.165   3.761   4.272  0.7842  0.4006  0.3562
 2633SOL     MW10532   2.186   3.733   4.352 -0.1481  0.2798  0.5709
 2634SOL     OW10533   5.333   4.920   3.614  0.0518 -0.3415 -0.2972
 2634SOL    HW110534   5.347   4.840   3.665 -0.1969  0.2517  0.7237
 2634SOL    HW210535   5.298   4.889   3.531  0.3186 -1.3233 -0.0616
 2634SOL     MW10536   5.331   4.905   3.610  0.0541 -0.3913 -0.1364
 2635SOL     OW10537   3.831   3.062   4.599  0.2088  0.3236 -0.9620
 2635SOL    HW110538   3.896   3.084   4.666  0.1927  0.8490 -1.1127
 2635SOL    HW210539   3.868   3.097   4.518  0.6288 -1.0545 -1.3879
 2635SOL     MW10540   3.844   3.070   4.598  0.2605  0.2144 -1.0358
 2636SOL     OW10541   1.855   5.458   4.406  0.3270 -0.4018 -0.1189
 2636SOL    HW110542   1.896   5.406   4.476  2.1557 -2.5151 -2.5423
 2636SOL    HW210543   1.822   5.536   4.451 -0.6529 -2.6091  3.4245
 2636SOL     MW10544   1.856   5.461   4.421  0.4357 -0.9549  0.0245
 2637SOL     OW10545   3.419   2.919   1.943  0.4584  0.4082  0.1981
 2637SOL    HW110546   3.389   2.986   1.881  0.9434  1.4534  1.0590
 2637SOL    HW210547   3.360   2.926   2.017 -0.0733 -0.7920 -0.0948
 2637SOL     MW10548   3.408   2.929   1.944  0.4524  0.3884  0.2708
 2638SOL     OW10549   1.053   5.175   1.593 -0.3535 -0.3770  0.5338
 2638SOL    HW110550   0.981   5.165   1.655 -1.5591 -1.1511 -0.9194
 2638SOL    HW210551   1.132   5.159   1.644 -1.1979  0.4488  2.1658
 2638SOL     MW10552   1.054   5.172   1.607 -0.6159 -0.3704  0.5567
 2639SOL     OW10553   4.505   1.499   1.921  0.1754 -0.1747  0.1727
 2639SOL    HW110554   4.534   1.588   1.902 -0.1897 -0.1651 -0.3481
 2639SOL    HW210555   4.574   1.443   1.885  0.1811 -0.1151  0.0901
 2639SOL     MW10556   4.518   1.503   1.914  0.1294 -0.1658  0.0955
 2640SOL     OW10557   4.390   0.657   2.087 -0.3843  0.3777  0.4935
 2640SOL    HW110558   4.351   0.735   2.047 -1.6609  0.0508  1.0340
 2640SOL    HW210559   4.366   0.663   2.180 -0.1744 -0.4643  0.6122
 2640SOL     MW10560   4.382   0.667   2.094 -0.5208  0.2281  0.5779
 2641SOL     OW10561   0.678   4.877   0.652 -0.1318 -0.0786 -0.7248
 2641SOL    HW110562   0.719   4.819   0.717 -0.3505 -0.4502 -0.9156
 2641SOL    HW210563   0.718   4.851   0.569  0.9275  1.0940 -0.6236
 2641SOL     MW10564   0.689   4.866   0.650 -0.0242  0.0239 -0.7363
 2642SOL     OW10565   0.488   0.452   5.373  0.0736  0.2695  0.2175
 2642SOL    HW110566   0.536   0.527   5.407 -1.3097  0.1948  2.6249
 2642SOL    HW210567   0.425   0.489   5.311  2.3182  0.4909 -2.0430
 2642SOL     MW10568   0.486   0.466   5.369  0.1838  0.2883  0.2363
 2643SOL     OW10569   0.618   1.789   4.352  0.3788  0.4446 -0.3502
 2643SOL    HW110570   0.554   1.842   4.305 -0.1631  0.1287  0.0297
 2643SOL    HW210571   0.649   1.725   4.288 -1.0743 -0.6219 -0.0357
 2643SOL     MW10572   0.614   1.788   4.338  0.1234  0.2677 -0.2613
 2644SOL     OW10573   1.981   4.134   0.889 -0.0493  0.0478 -0.4792
 2644SOL    HW110574   1.990   4.172   0.976  0.0847  0.6175 -0.7361
 2644SOL    HW210575   1.968   4.209   0.831  1.4042 -0.1936 -1.1622
 2644SOL     MW10576   1.980   4.148   0.892  0.1539  0.0898 -0.5995
 2645SOL     OW10577   2.795   3.100   1.503 -0.1767  0.2449 -0.1016
 2645SOL    HW110578   2.706   3.066   1.497 -0.1044  0.0966 -0.3521
 2645SOL    HW210579   2.788   3.192   1.478 -0.0678 -0.0696 -1.3660
 2645SOL     MW10580   2.783   3.107   1.499 -0.1535  0.1856 -0.2955
 2646SOL     OW10581   4.761   2.776   5.316  0.1936  0.3077  0.6962
 2646SOL    HW110582   4.801   2.856   5.351 -0.3520  0.3425  1.2630
 2646SOL    HW210583   4.726   2.803   5.231  0.3012  0.5868  0.7363
 2646SOL     MW10584   4.762   2.790   5.310  0.1375  0.3478  0.7739
 2647SOL     OW10585   4.353   4.608   1.342 -0.1446  0.0297  0.5115
 2647SOL    HW110586   4.320   4.696   1.361 -0.9810 -0.2033  0.1716
 2647SOL    HW210587   4.281   4.564   1.297  0.5917 -0.5335 -0.1483
 2647SOL     MW10588   4.339   4.614   1.339 -0.1574 -0.0722  0.3835
 2648SOL     OW10589   3.851   0.932   5.437 -0.3474  0.1190  0.7273
 2648SOL    HW110590   3.902   0.952   5.515 -0.5713  0.0276  0.8972
 2648SOL    HW210591   3.878   0.997   5.372 -0.1113  0.1505  0.8581
 2648SOL     MW10592   3.861   0.943   5.438 -0.3459  0.1113  0.7658
 2649SOL     OW10593   5.413   1.589   2.243  0.1696 -0.1913  0.2084
 2649SOL    HW110594   5.501   1.553   2.241  0.8313  1.3933 -1.1038
 2649SOL    HW210595   5.422   1.673   2.290 -0.5375  0.2002 -0.3310
 2649SOL     MW10596   5.425   1.595   2.249  0.1638  0.0617 -0.0286
 2650SOL     OW10597   5.447   4.197   0.467 -0.8534  0.7995  0.0268
 2650SOL    HW110598   5.458   4.235   0.554  4.2549  1.6090 -0.6686
 2650SOL    HW210599   5.445   4.273   0.408 -1.7385  0.2039 -0.7265
 2650SOL     MW10600   5.448   4.212   0.471 -0.3127  0.8269 -0.1587
 2651SOL     OW10601   0.979   4.762   3.120  0.3111  0.4592 -0.1077
 2651SOL    HW110602   0.995   4.823   3.193  0.3477 -0.5427  0.7467
 2651SOL    HW210603   1.059   4.767   3.067  0.8501  0.2147  0.6599
 2651SOL     MW10604   0.992   4.771   3.123  0.3848  0.2997  0.0999
 2652SOL     OW10605   1.605   4.272   0.196  0.0322  0.0811 -0.7350
 2652SOL    HW110606   1.693   4.235   0.199  0.3038  0.7419  1.5489
 2652SOL    HW210607   1.615   4.360   0.234 -1.7394 -0.2133  0.5556
 2652SOL     MW10608   1.617   4.279   0.201 -0.1598  0.1280 -0.2774
 2653SOL     OW10609   2.048   0.821   2.355 -0.1032  0.1747 -0.6948
 2653SOL    HW110610   1.960   0.820   2.319  0.0115 -2.1007 -1.0658
 2653SOL    HW210611   2.060   0.734   2.394  1.1690  1.2118  1.4362
 2653SOL     MW10612   2.038   0.809   2.355  0.0743  0.0162 -0.4695
 2654SOL     OW10613   1.928   4.703   3.473  0.0336 -0.5722  0.3329
 2654SOL    HW110614   1.971   4.667   3.396 -1.3031  1.1980 -1.3393
 2654SOL    HW210615   1.997   4.748   3.521  0.5256 -0.0107 -0.8855
 2654SOL     MW10616   1.942   4.704   3.470 -0.0745 -0.2737 -0.0371
 2655SOL     OW10617   3.617   1.670   0.386 -0.1862  0.0758  0.5510
 2655SOL    HW110618   3.617   1.594   0.329 -1.0229  1.0998 -0.8702
 2655SOL    HW210619   3.653   1.741   0.333  2.2206  0.3694  2.3811
 2655SOL     MW10620   3.621   1.670   0.372  0.0148  0.2445  0.6034
 2656SOL     OW10621   1.337   4.424   3.365 -0.0766 -0.5282  0.2828
 2656SOL    HW110622   1.277   4.357   3.398  0.1235 -0.2316  1.2775
 2656SOL    HW210623   1.358   4.395   3.276  0.4279 -2.0590  0.8676
 2656SOL     MW10624   1.332   4.412   3.358  0.0136 -0.6862  0.4850
 2657SOL     OW10625   4.185   5.242   0.691  0.1003  0.1530  0.3465
 2657SOL    HW110626   4.183   5.337   0.679 -0.4948  0.0754 -0.2460
 2657SOL    HW210627   4.271   5.224   0.729  0.5725  0.8397 -0.3635
 2657SOL     MW10628   4.196   5.252   0.694  0.0846  0.2309  0.1798
 2658SOL     OW10629   5.413   3.975   3.736 -0.1002 -0.2467 -0.3247
 2658SOL    HW110630   5.397   4.010   3.649  0.3963 -1.1039 -0.7736
 2658SOL    HW210631   5.507   3.958   3.738 -0.0585  0.0366  0.4849
 2658SOL     MW10632   5.423   3.977   3.725 -0.0313 -0.3202 -0.2785
 2659SOL     OW10633   4.220   3.154   1.142  0.0580  0.4906  0.5231
 2659SOL    HW110634   4.240   3.077   1.089 -2.3183  0.0045  0.2391
 2659SOL    HW210635   4.302   3.172   1.188  1.1659 -1.1912 -0.6527
 2659SOL     MW10636   4.233   3.146   1.141 -0.1044  0.2131  0.3362
 2660SOL     OW10637   1.576   4.491   2.275 -0.1023  0.3180 -0.4071
 2660SOL    HW110638   1.637   4.423   2.246 -1.9742 -1.2340 -0.9063
 2660SOL    HW210639   1.559   4.470   2.367 -1.3983 -0.5302 -0.8059
 2660SOL     MW10640   1.582   4.479   2.283 -0.5078  0.0107 -0.5220
 2661SOL     OW10641   3.106   0.494   3.030 -0.0562  0.3345 -0.1430
 2661SOL    HW110642   3.081   0.510   2.939  0.2095 -2.2275 -0.7426
 2661SOL    HW210643   3.029   0.517   3.081 -1.4105 -1.2964 -1.3523
 2661SOL     MW10644   3.093   0.499   3.025 -0.1955 -0.2023 -0.3746
 2662SOL     OW10645   4.080   1.562   2.389 -0.0150  0.5283  0.0135
 2662SOL    HW110646   4.143   1.629   2.417  2.1618 -1.8844  1.2968
 2662SOL    HW210647   4.030   1.604   2.319  2.1707  3.0249 -0.2006
 2662SOL     MW10648   4.081   1.576   2.384  0.5435  0.5391  0.1504
 2663SOL     OW10649   0.640   0.933   5.187  0.0240 -0.4527 -0.5783
 2663SOL    HW110650   0.674   0.847   5.213  0.6333  0.0523  0.3816
 2663SOL    HW210651   0.693   0.958   5.111  1.3180 -0.0310  0.4088
 2663SOL     MW10652   0.652   0.925   5.181  0.2677 -0.3341 -0.3290
 2664SOL     OW10653   3.972   1.350   0.339 -0.2729  0.3340  0.4612
 2664SOL    HW110654   3.882   1.318   0.342 -0.8620  1.8947  0.1978
 2664SOL    HW210655   3.972   1.429   0.393  0.9085  0.4526  0.3265
 2664SOL     MW10656   3.961   1.356   0.346 -0.1970  0.5490  0.4103
 2665SOL     OW10657   2.368   4.542   4.008  0.0242 -0.5619 -0.5196
 2665SOL    HW110658   2.305   4.573   3.943  0.4748  0.1558 -0.6283
 2665SOL    HW210659   2.408   4.466   3.967  0.1898 -0.2107 -1.0247
 2665SOL     MW10660   2.365   4.536   3.994  0.1031 -0.4251 -0.5982
 2666SOL     OW10661   0.644   3.862   3.257 -0.2680  0.2680  0.4377
 2666SOL    HW110662   0.686   3.923   3.318 -0.4622 -0.0248  0.8703
 2666SOL    HW210663   0.564   3.834   3.302  0.7713 -1.8252  1.1343
 2666SOL     MW10664   0.639   3.866   3.270 -0.1598 -0.0374  0.5823
 2667SOL     OW10665   4.539   5.014   1.777  0.6275  0.0273  0.3095
 2667SOL    HW110666   4.559   5.107   1.792  0.8791 -0.0803  0.6621
 2667SOL    HW210667   4.559   4.972   1.861 -3.7822  0.3180  1.7899
 2667SOL     MW10668   4.544   5.021   1.790  0.0953  0.0507  0.5442
 2668SOL     OW10669   2.856   5.357   1.764  0.1900  0.0034  0.0334
 2668SOL    HW110670   2.845   5.282   1.822  1.5053  1.3663  2.2377
 2668SOL    HW210671   2.902   5.323   1.688  0.1869 -1.5215  0.6900
 2668SOL     MW10672   2.861   5.343   1.762  0.3580 -0.0173  0.3996
 2669SOL     OW10673   1.311   4.072   2.742 -0.0236  0.0144  0.5173
 2669SOL    HW110674   1.267   3.997   2.782 -0.3540 -0.3565 -0.5123
 2669SOL    HW210675   1.339   4.040   2.656  1.0216  0.6730  0.5994
 2669SOL     MW10676   1.309   4.058   2.736  0.0679  0.0512  0.3960
 2670SOL     OW10677   0.645   4.482   2.764 -0.4855 -0.0659 -0.2228
 2670SOL    HW110678   0.691   4.451   2.842  0.1403  0.5595 -0.3404
 2670SOL    HW210679   0.601   4.562   2.792  0.0127  0.3430 -0.5885
 2670SOL     MW10680   0.646   4.488   2.778 -0.3416  0.0665 -0.2847
 2671SOL     OW10681   4.416   4.132   0.066  0.8887  0.6561  0.7693
 2671SOL    HW110682   4.460   4.074   0.128  0.1213 -1.7895 -0.8291
 2671SOL    HW210683   4.330   4.148   0.105 -0.2230 -2.1970 -0.2151
 2671SOL     MW10684   4.410   4.127   0.079  0.6481 -0.0222  0.4387
 2672SOL     OW10685   3.627   2.626   2.132  0.2289 -0.3229  1.1046
 2672SOL    HW110686   3.592   2.541   2.158  0.5170 -0.5543  0.7504
 2672SOL    HW210687   3.604   2.634   2.040 -0.2264  0.2058  1.2572
 2672SOL     MW10688   3.620   2.616   2.124  0.2075 -0.2848  1.0788
 2673SOL     OW10689   1.380   3.596   0.432  0.3990 -0.3268  0.1834
 2673SOL    HW110690   1.299   3.624   0.474  1.0992 -1.0887  2.1253
 2673SOL    HW210691   1.354   3.524   0.374 -0.4667  0.2325 -0.1396
 2673SOL     MW10692   1.366   3.591   0.430  0.3778 -0.3527  0.3906
 2674SOL     OW10693   2.971   1.595   1.804 -0.0200  0.0723  0.4112
 2674SOL    HW110694   3.009   1.512   1.833  0.6473  0.7805  1.6671
 2674SOL    HW210695   2.884   1.597   1.842  0.1350  0.1391  0.7677
 2674SOL     MW10696   2.965   1.585   1.813  0.0852  0.1715  0.6176
 2675SOL     OW10697   3.510   0.991   2.675  0.0094  0.0201  1.2114
 2675SOL    HW110698   3.521   0.920   2.611  1.4098  2.6647 -1.7343
 2675SOL    HW210699   3.556   0.960   2.752  2.5709 -1.4227 -0.7261
 2675SOL     MW10700   3.517   0.978   2.676  0.5166  0.1739  0.5863
 2676SOL     OW10701   4.904   2.164   0.723 -0.9953  0.1473  0.9177
 2676SOL    HW110702   4.935   2.196   0.639  0.8230  0.5749  1.7142
 2676SOL    HW210703   4.808   2.173   0.718 -0.8795  0.7724 -0.8328
 2676SOL     MW10704   4.895   2.169   0.712 -0.7477  0.2821  0.7955
 2677SOL     OW10705   3.186   3.557   0.570 -0.3404  0.1041 -0.6257
 2677SOL    HW110706   3.214   3.468   0.548 -0.5123 -0.1712  0.2506
 2677SOL    HW210707   3.260   3.612   0.544 -0.5260 -0.1996 -1.8685
 2677SOL     MW10708   3.199   3.553   0.564 -0.3862  0.0300 -0.6726
 2678SOL     OW10709   0.658   1.370   4.088  0.0772 -0.7010  0.3130
 2678SOL    HW110710   0.615   1.447   4.050  0.2104 -0.6112  0.3430
 2678SOL    HW210711   0.751   1.387   4.077  0.3225  0.9434  3.6544
 2678SOL     MW10712   0.664   1.382   4.082  0.1256 -0.4790  0.7446
 2679SOL     OW10713   0.567   0.768   2.777  0.2049 -0.7758  0.3838
 2679SOL    HW110714   0.592   0.857   2.799 -1.9895 -0.0710  0.2218
 2679SOL    HW210715   0.570   0.764   2.682 -1.9143 -0.1207  0.2472
 2679SOL     MW10716   0.571   0.779   2.768 -0.3473 -0.6017  0.3456
 2680SOL     OW10717   3.832   2.684   1.318 -0.3545 -0.3058  0.6354
 2680SOL    HW110718   3.913   2.702   1.271  0.2332 -0.7849  1.4428
 2680SOL    HW210719   3.816   2.762   1.370 -0.9399  0.1755 -0.2459
 2680SOL     MW10720   3.840   2.696   1.318 -0.3543 -0.3055  0.6259
 2681SOL     OW10721   0.629   4.987   0.028  0.2372  0.2473 -0.2904
 2681SOL    HW110722   0.715   4.996  -0.014 -0.2260  1.6892 -1.0254
 2681SOL    HW210723   0.633   5.046   0.103  0.9811 -2.1517  1.6960
 2681SOL     MW10724   0.640   4.996   0.032  0.2731  0.1248 -0.1302
 2682SOL     OW10725   0.084   3.836   1.706  0.0312  0.1695 -0.0037
 2682SOL    HW110726   0.152   3.894   1.740 -0.0601  0.6458 -0.6044
 2682SOL    HW210727   0.004   3.865   1.750  0.1824 -0.3005  0.5988
 2682SOL     MW10728   0.082   3.847   1.716  0.0389  0.1703 -0.0035
 2683SOL     OW10729   0.221   0.519   0.913 -0.2685  0.2529  0.1445
 2683SOL    HW110730   0.309   0.554   0.931 -0.6215  0.5888  1.3177
 2683SOL    HW210731   0.211   0.527   0.818  0.6859  0.8826  0.0784
 2683SOL     MW10732   0.231   0.524   0.903 -0.1915  0.3765  0.2862
 2684SOL     OW10733   2.800   3.599   3.029  1.2842  0.1262  0.5753
 2684SOL    HW110734   2.715   3.634   3.055  1.1763 -0.2027  0.6601
 2684SOL    HW210735   2.862   3.669   3.051  0.9223  0.7990 -0.4349
 2684SOL     MW10736   2.797   3.613   3.035  1.2241  0.1702  0.4569
 2685SOL     OW10737   4.214   0.032   2.548 -0.4882  0.0646  0.5354
 2685SOL    HW110738   4.169  -0.049   2.526  1.2500 -0.8265  0.1382
 2685SOL    HW210739   4.144   0.098   2.550 -1.8850 -1.3600  0.5770
 2685SOL     MW10740   4.199   0.030   2.545 -0.4445 -0.2318  0.4899
 2686SOL     OW10741   3.794   2.605   4.160 -0.7557 -0.1858 -0.5516
 2686SOL    HW110742   3.727   2.543   4.187 -0.1758 -0.8012 -0.5042
 2686SOL    HW210743   3.841   2.561   4.089  0.4550 -0.3242  0.3041
 2686SOL     MW10744   3.792   2.592   4.154 -0.5265 -0.2823 -0.4360
 2687SOL     OW10745   1.713   0.111   0.157  0.0872 -0.0774  0.5327
 2687SOL    HW110746   1.762   0.158   0.089 -0.4449 -1.5713 -0.9316
 2687SOL    HW210747   1.679   0.180   0.214  0.6259  1.2038 -0.6459
 2687SOL     MW10748   1.715   0.126   0.156  0.0880 -0.1047  0.1944
 2688SOL     OW10749   4.185   3.697   0.972  0.0888 -0.0204  0.5109
 2688SOL    HW110750   4.121   3.630   0.996 -0.5574  0.3850 -0.0448
 2688SOL    HW210751   4.269   3.660   0.998 -0.2614 -1.0320  0.2647
 2688SOL     MW10752   4.187   3.683   0.978 -0.0388 -0.0980  0.4082
 2689SOL     OW10753   2.971   2.214   0.586 -0.1022 -0.3979 -0.4335
 2689SOL    HW110754   2.915   2.195   0.661 -1.5818 -0.7107 -1.5722
 2689SOL    HW210755   3.006   2.129   0.560 -1.9212 -0.7751 -1.8374
 2689SOL     MW10756   2.969   2.201   0.592 -0.5244 -0.4862 -0.7590
 2690SOL     OW10757   1.597   3.812   3.795  0.1070 -0.1665  0.0580
 2690SOL    HW110758   1.604   3.900   3.759  0.6078 -0.1026  0.3135
 2690SOL    HW210759   1.673   3.765   3.760 -1.2197 -1.1081 -1.7645
 2690SOL     MW10760   1.608   3.817   3.786  0.0013 -0.2788 -0.1426
 2691SOL     OW10761   2.563   2.598   3.974  0.1075  0.9614  0.5432
 2691SOL    HW110762   2.603   2.653   4.041 -1.1914  1.1745  1.1844
 2691SOL    HW210763   2.549   2.514   4.018 -2.2220  1.5776  1.1281
 2691SOL     MW10764   2.566   2.594   3.988 -0.3570  1.0676  0.7001
 2692SOL     OW10765   1.284   1.753   1.587  0.0394  0.2076 -0.0350
 2692SOL    HW110766   1.347   1.799   1.643 -0.2109 -0.5555  0.9197
 2692SOL    HW210767   1.338   1.694   1.534  0.2311  0.5067 -0.1768
 2692SOL     MW10768   1.299   1.751   1.588  0.0319  0.1482  0.0690
 2693SOL     OW10769   3.129   3.606   1.552  0.0040  0.2663 -0.1587
 2693SOL    HW110770   3.158   3.564   1.470  0.9444  1.8969 -0.7145
 2693SOL    HW210771   3.101   3.693   1.525  1.1884  1.1641  1.3564
 2693SOL     MW10772   3.129   3.612   1.538  0.2760  0.5899 -0.0359
 2694SOL     OW10773   1.631   2.609   4.423 -0.0792  0.0561  0.0907
 2694SOL    HW110774   1.544   2.572   4.437 -0.1832  0.2580 -0.0114
 2694SOL    HW210775   1.637   2.621   4.328 -0.7639  2.0005  0.2541
 2694SOL     MW10776   1.621   2.606   4.413 -0.1802  0.3308  0.0985
 2695SOL     OW10777   5.491   5.379   5.398  0.0508 -0.8483  0.8707
 2695SOL    HW110778   5.434   5.311   5.363 -0.7134 -0.5270  1.4717
 2695SOL    HW210779   5.469   5.382   5.491  1.3371 -0.9960  1.1956
 2695SOL     MW10780   5.481   5.370   5.406  0.1177 -0.8261  0.9892
 2696SOL     OW10781   5.411   4.925   1.352  0.3812  0.0203  0.6302
 2696SOL    HW110782   5.432   4.999   1.296  1.5940 -0.5012  0.3595
 2696SOL    HW210783   5.352   4.961   1.419 -0.2258  0.8787 -0.3460
 2696SOL     MW10784   5.406   4.939   1.354  0.4588  0.0634  0.4706
 2697SOL     OW10785   3.389   2.022   3.002  0.6017 -0.3239 -0.3554
 2697SOL    HW110786   3.397   1.935   2.964  0.0047 -0.3187 -0.5042
 2697SOL    HW210787   3.364   2.006   3.093  0.0091 -0.3017 -0.5123
 2697SOL     MW10788   3.387   2.009   3.009  0.4494 -0.3204 -0.3946
 2698SOL     OW10789   4.636   4.836   2.458 -0.0967 -0.0835  0.0012
 2698SOL    HW110790   4.653   4.896   2.531  1.4736 -0.4840 -0.0075
 2698SOL    HW210791   4.702   4.859   2.393 -1.6056  0.4124 -1.4202
 2698SOL     MW10792   4.646   4.847   2.459 -0.0888 -0.0713 -0.1819
 2699SOL     OW10793   3.521   0.011   0.080 -0.1054 -0.1314 -0.0254
 2699SOL    HW110794   3.605   0.009   0.125 -0.5571 -1.4643  0.8201
 2699SOL    HW210795   3.514   0.099   0.044  0.8400  0.5681  1.4424
 2699SOL     MW10796   3.530   0.022   0.081 -0.0422 -0.2124  0.2707
 2700SOL     OW10797   3.511   3.263   4.572  0.3704  0.1000  0.6848
 2700SOL    HW110798   3.511   3.353   4.540 -0.0611  0.5108  1.8176
 2700SOL    HW210799   3.489   3.269   4.664 -1.9518 -1.3242  0.3169
 2700SOL     MW10800   3.508   3.275   4.579  0.0179 -0.0298  0.7828
 2701SOL     OW10801   0.667   5.459   4.136 -0.0152 -0.3039 -0.5999
 2701SOL    HW110802   0.625   5.379   4.105 -0.7547  0.1472 -0.7809
 2701SOL    HW210803   0.673   5.448   4.231 -2.2104  0.3727 -0.3381
 2701SOL     MW10804   0.663   5.447   4.144 -0.3909 -0.1595 -0.5895
 2702SOL     OW10805   2.552   0.860   3.628  0.3191 -0.0380 -0.2341
 2702SOL    HW110806   2.499   0.866   3.548  0.7099  0.3038 -0.4684
 2702SOL    HW210807   2.586   0.770   3.626  1.2250  0.3026 -1.0342
 2702SOL     MW10808   2.549   0.849   3.617  0.4851  0.0494 -0.3665
 2703SOL     OW10809   2.975   0.448   3.832 -0.1594  0.1064  0.1932
 2703SOL    HW110810   2.918   0.389   3.783  0.0512  0.3354 -0.3350
 2703SOL    HW210811   2.981   0.409   3.919 -0.8781 -0.0805  0.1655
 2703SOL     MW10812   2.968   0.435   3.837 -0.2245  0.1118  0.1221
 2704SOL     OW10813   0.945   0.165   4.451  0.2919 -0.0456  0.8012
 2704SOL    HW110814   0.953   0.121   4.536 -0.4301 -1.4138  0.1972
 2704SOL    HW210815   0.948   0.258   4.472 -1.8212 -0.2857  2.5693
 2704SOL     MW10816   0.947   0.171   4.465 -0.0711 -0.2515  0.9502
 2705SOL     OW10817   0.719   1.024   3.499  0.6640 -0.0303  0.1614
 2705SOL    HW110818   0.806   1.018   3.460 -0.0243  0.0617 -1.4525
 2705SOL    HW210819   0.667   1.071   3.434 -0.3944  0.6376  1.4593
 2705SOL     MW10820   0.724   1.029   3.486  0.4404  0.0670  0.1210
 2706SOL     OW10821   3.082   2.929   3.742  0.1600 -0.4618 -0.0271
 2706SOL    HW110822   3.056   2.882   3.821  1.3599 -0.0484  0.6288
 2706SOL    HW210823   3.013   2.996   3.731 -0.3115 -0.8779  0.3382
 2706SOL     MW10824   3.070   2.932   3.751  0.2532 -0.4621  0.1036
 2707SOL     OW10825   0.129   2.012   1.558  0.3864 -0.1921 -0.1297
 2707SOL    HW110826   0.152   1.965   1.479  4.9636  0.7431  0.3800
 2707SOL    HW210827   0.121   2.104   1.531  0.8144 -0.0262  0.2795
 2707SOL     MW10828   0.131   2.018   1.545  1.0271 -0.0511 -0.0121
 2708SOL     OW10829   5.352   2.125   4.119 -0.5098 -0.3543  0.0035
 2708SOL    HW110830   5.349   2.054   4.182  3.2820  0.1726  0.9784
 2708SOL    HW210831   5.382   2.201   4.169  0.5284  0.6161 -1.9782
 2708SOL     MW10832   5.355   2.126   4.133  0.1085 -0.1627 -0.1254
 2709SOL     OW10833   0.760   4.052   5.233 -0.0637  0.0700  0.3066
 2709SOL    HW110834   0.738   4.141   5.263  0.9179  0.4720 -0.1270
 2709SOL    HW210835   0.840   4.063   5.181  0.7587 -1.2289  1.2319
 2709SOL     MW10836   0.767   4.065   5.230  0.1672 -0.0448  0.3695
 2710SOL     OW10837   3.341   5.410   4.259 -0.3452  0.0014  0.2007
 2710SOL    HW110838   3.434   5.388   4.272  0.0324  1.3968  0.0111
 2710SOL    HW210839   3.335   5.503   4.279 -2.1874 -0.5185  2.5723
 2710SOL     MW10840   3.352   5.419   4.263 -0.5326  0.1135  0.4801
 2711SOL     OW10841   4.660   1.802   2.628 -0.1563  0.0412  0.2176
 2711SOL    HW110842   4.673   1.709   2.615 -0.1528  0.0423  0.2134
 2711SOL    HW210843   4.694   1.843   2.548 -0.6417  0.0115 -0.0067
 2711SOL     MW10844   4.666   1.796   2.616 -0.2180  0.0376  0.1884
 2712SOL     OW10845   2.759   4.289   3.622 -0.7749  0.2797  0.3616
 2712SOL    HW110846   2.819   4.236   3.673 -0.6640  1.3346  1.3738
 2712SOL    HW210847   2.803   4.303   3.538 -1.1452 -1.8320 -0.2418
 2712SOL     MW10848   2.772   4.284   3.618 -0.8081  0.1444  0.4139
 2713SOL     OW10849   1.763   2.123   1.992 -0.4069  0.6094  0.5048
 2713SOL    HW110850   1.833   2.059   1.992 -1.3948 -0.5032 -0.1594
 2713SOL    HW210851   1.689   2.079   2.033 -0.5050  2.0484  1.9845
 2713SOL     MW10852   1.763   2.109   1.997 -0.5459  0.6512  0.6092
 2714SOL     OW10853   5.044   1.489   4.879  0.5849  0.0845  0.6095
 2714SOL    HW110854   5.001   1.473   4.795 -2.1542  2.5836  1.3980
 2714SOL    HW210855   5.114   1.551   4.858  0.2626  0.2841  0.1102
 2714SOL     MW10856   5.048   1.495   4.866  0.1930  0.4300  0.6465
 2715SOL     OW10857   2.013   4.619   2.904  0.8095 -0.1867  0.2273
 2715SOL    HW110858   2.005   4.701   2.953 -0.9739  0.0800 -0.4166
 2715SOL    HW210859   1.972   4.554   2.960 -1.4142  0.1538 -0.8941
 2715SOL     MW10860   2.007   4.622   2.917  0.2966 -0.1090  0.0013
 2716SOL     OW10861   3.856   1.605   4.145  0.0749 -0.6128  0.0343
 2716SOL    HW110862   3.862   1.699   4.126 -2.6056 -0.1920  0.7772
 2716SOL    HW210863   3.939   1.583   4.186  0.6688  1.4910  0.0608
 2716SOL     MW10864   3.867   1.614   4.148 -0.1922 -0.2897  0.1328
 2717SOL     OW10865   5.165   0.075   3.028  0.1686  0.0538  0.3259
 2717SOL    HW110866   5.217   0.042   2.955 -0.2426  1.6534 -0.7532
 2717SOL    HW210867   5.187   0.017   3.101  2.2552 -0.2922 -0.4907
 2717SOL     MW10868   5.175   0.063   3.028  0.3831  0.2142  0.0833
 2718SOL     OW10869   4.185   2.678   3.750  0.0137 -0.0583  0.2187
 2718SOL    HW110870   4.197   2.591   3.710 -0.9067  0.8396 -2.2138
 2718SOL    HW210871   4.274   2.713   3.757  0.3107 -0.7849  0.2040
 2718SOL     MW10872   4.198   2.671   3.746 -0.0661 -0.0364 -0.0945
 2719SOL     OW10873   2.262   0.764   1.087 -0.2019  0.0703  0.7487
 2719SOL    HW110874   2.325   0.834   1.071 -0.9273  0.3194 -1.2607
 2719SOL    HW210875   2.235   0.777   1.178  1.5724  0.7898  1.2282
 2719SOL     MW10876   2.267   0.775   1.097 -0.0676  0.1943  0.5529
 2720SOL     OW10877   0.503   4.529   2.510  0.0406  0.3105  0.0726
 2720SOL    HW110878   0.533   4.610   2.469 -0.9863  0.8768  0.3957
 2720SOL    HW210879   0.568   4.511   2.578 -0.3777  1.5822  0.8506
 2720SOL     MW10880   0.515   4.537   2.514 -0.1444  0.5458  0.2136
 2721SOL     OW10881   4.670   3.145   5.303  0.1961 -0.1154  0.3743
 2721SOL    HW110882   4.668   3.131   5.209  1.6179  0.6339  0.2016
 2721SOL    HW210883   4.610   3.219   5.318  0.3641  0.1032 -0.0233
 2721SOL     MW10884   4.662   3.153   5.293  0.3996  0.0085  0.3013
 2722SOL     OW10885   0.489   3.761   2.609  0.1500 -0.2173  0.0650
 2722SOL    HW110886   0.538   3.843   2.609  2.1713 -1.2896 -2.2508
 2722SOL    HW210887   0.488   3.734   2.517 -0.9209 -2.5423  0.6776
 2722SOL     MW10888   0.495   3.768   2.597  0.2716 -0.6522 -0.1530
 2723SOL     OW10889   1.515   1.143   1.525  0.4091 -0.4241  0.1022
 2723SOL    HW110890   1.477   1.095   1.599  0.8533 -2.4510 -0.9084
 2723SOL    HW210891   1.600   1.100   1.510  0.8005  0.6593 -0.9028
 2723SOL     MW10892   1.521   1.131   1.533  0.5160 -0.5449 -0.1558
 2724SOL     OW10893   3.833   1.208   3.288  0.0574  0.1925 -0.5060
 2724SOL    HW110894   3.794   1.172   3.367 -0.2528  1.9409  0.1835
 2724SOL    HW210895   3.765   1.199   3.221  0.4867 -1.7127 -0.7275
 2724SOL     MW10896   3.819   1.203   3.289  0.0727  0.1724 -0.4461
 2725SOL     OW10897   3.333   4.407   2.594 -0.3990  0.8552 -0.2082
 2725SOL    HW110898   3.347   4.317   2.564 -0.6355  0.5334  0.6195
 2725SOL    HW210899   3.376   4.461   2.528  0.0922  0.1192 -0.5081
 2725SOL     MW10900   3.340   4.402   2.581 -0.3664  0.7198 -0.1406
 2726SOL     OW10901   1.902   2.921   1.546 -0.3296  0.2908 -0.4054
 2726SOL    HW110902   1.916   2.918   1.641  1.5201  0.0974 -0.6408
 2726SOL    HW210903   1.878   2.832   1.522 -1.3174  0.4517 -0.0788
 2726SOL     MW10904   1.901   2.909   1.555 -0.2192  0.2867 -0.3938
 2727SOL     OW10905   3.564   0.840   2.209  0.2660  0.5075 -0.2002
 2727SOL    HW110906   3.632   0.825   2.142 -0.5569  1.7398 -1.3602
 2727SOL    HW210907   3.484   0.805   2.169 -0.1291  0.7372  0.3885
 2727SOL     MW10908   3.563   0.833   2.195  0.1101  0.6946 -0.2733
 2728SOL     OW10909   1.428   5.162   4.941 -0.0674 -0.0366  0.0599
 2728SOL    HW110910   1.453   5.111   5.018  2.8531  0.7696 -0.2090
 2728SOL    HW210911   1.363   5.108   4.896  0.7866 -2.2068  1.2641
 2728SOL     MW10912   1.423   5.149   4.945  0.4157 -0.2112  0.1796
 2729SOL     OW10913   5.270   2.401   3.043  0.2304 -0.1338  0.7514
 2729SOL    HW110914   5.356   2.360   3.045 -0.1732 -0.9788  1.0345
 2729SOL    HW210915   5.285   2.486   3.002  0.8982 -0.9480 -0.7507
 2729SOL     MW10916   5.283   2.407   3.038  0.2642 -0.3462  0.5954
 2730SOL     OW10917   4.170   2.185   2.994  0.1834 -0.1457 -0.3940
 2730SOL    HW110918   4.084   2.211   2.958  0.7122  0.6894 -1.0982
 2730SOL    HW210919   4.187   2.100   2.953 -0.2425 -0.2544 -0.3586
 2730SOL     MW10920   4.161   2.178   2.984  0.1966 -0.0527 -0.4796
 2731SOL     OW10921   5.239   2.911   5.395 -0.4783  0.4661 -0.0802
 2731SOL    HW110922   5.253   3.005   5.381 -1.5446  0.3309 -2.7194
 2731SOL    HW210923   5.317   2.870   5.356 -0.2846  0.2348  0.5478
 2731SOL     MW10924   5.251   2.918   5.388 -0.5900  0.4192 -0.3376
 2732SOL     OW10925   4.175   4.368   1.252  0.0002 -0.2134  0.5464
 2732SOL    HW110926   4.123   4.288   1.249  1.2826 -1.0787 -3.1451
 2732SOL    HW210927   4.266   4.338   1.257  0.4343  1.0910  0.9586
 2732SOL     MW10928   4.180   4.354   1.253  0.2199 -0.1572  0.1266
 2733SOL     OW10929   1.459   1.048   3.104  0.4027  0.1603 -0.7333
 2733SOL    HW110930   1.377   1.024   3.060  0.1449  1.2365 -0.8682
 2733SOL    HW210931   1.484   1.131   3.064 -0.8035  2.1678  2.3435
 2733SOL     MW10932   1.452   1.055   3.093  0.2153  0.5550 -0.3567
 2734SOL     OW10933   0.437   2.891   0.088 -0.4895 -0.2056  0.2834
 2734SOL    HW110934   0.454   2.856   0.001 -0.6064  0.2551  0.0693
 2734SOL    HW210935   0.524   2.903   0.126 -0.3744  0.7068 -0.2274
 2734SOL     MW10936   0.450   2.888   0.082 -0.4898 -0.0298  0.1906
 2735SOL     OW10937   1.980   4.022   3.476 -0.1984  0.2508 -0.1732
 2735SOL    HW110938   2.069   4.018   3.511 -0.5645 -0.6736  0.6835
 2735SOL    HW210939   1.927   4.051   3.550 -1.0390 -2.0608  0.1933
 2735SOL     MW10940   1.985   4.025   3.490 -0.3529 -0.1634 -0.0166
 2736SOL     OW10941   3.220   2.233   5.372 -0.6832  0.8561 -0.0605
 2736SOL    HW110942   3.279   2.214   5.299  1.7626 -0.0745  2.0042
 2736SOL    HW210943   3.188   2.147   5.400 -1.6612  1.2115 -0.0485
 2736SOL     MW10944   3.223   2.220   5.366 -0.4953  0.7824  0.2054
 2737SOL     OW10945   1.682   3.464   4.020 -0.6905  0.9052  0.2396
 2737SOL    HW110946   1.615   3.434   3.959  1.2486 -0.5201 -1.3731
 2737SOL    HW210947   1.762   3.420   3.990  1.6580  4.7873  0.1502
 2737SOL     MW10948   1.684   3.454   4.008 -0.1416  1.2197  0.0217
 2738SOL     OW10949   1.026   4.218   4.436 -0.2019  0.3992  0.2599
 2738SOL    HW110950   1.057   4.282   4.372  0.2876  0.5057  0.5993
 2738SOL    HW210951   1.106   4.172   4.463 -0.6124 -0.7963 -0.4581
 2738SOL     MW10952   1.040   4.220   4.431 -0.1918  0.2598  0.2114
 2739SOL     OW10953   2.593   4.691   3.906 -1.4734 -0.1695  0.2106
 2739SOL    HW110954   2.512   4.671   3.952 -1.3993 -0.6564  0.1360
 2739SOL    HW210955   2.616   4.609   3.861 -0.5797 -0.2510  0.7902
 2739SOL     MW10956   2.586   4.678   3.906 -1.3495 -0.2422  0.2753
 2740SOL     OW10957   4.033   1.396   5.196 -0.3629  0.2458  0.2355
 2740SOL    HW110958   3.954   1.434   5.158 -0.5123  0.2227  0.5192
 2740SOL    HW210959   4.020   1.301   5.191 -0.3651  0.2421  0.3066
 2740SOL     MW10960   4.021   1.389   5.191 -0.3823  0.2424  0.2810
 2741SOL     OW10961   3.550   1.383   1.960 -0.0982  0.1762 -0.3577
 2741SOL    HW110962   3.487   1.452   1.939  0.8756  1.6803  1.4417
 2741SOL    HW210963   3.607   1.421   2.026  1.0437 -2.0727  0.0539
 2741SOL     MW10964   3.549   1.397   1.966  0.1726  0.0808 -0.0747
 2742SOL     OW10965   5.135   0.788   0.093 -0.0156 -0.0846 -0.1797
 2742SOL    HW110966   5.208   0.789   0.031 -0.1230  0.3738 -0.2975
 2742SOL    HW210967   5.156   0.856   0.157 -0.2300 -0.1028 -0.0880
 2742SOL     MW10968   5.147   0.797   0.093 -0.0568 -0.0283 -0.1830
 2743SOL     OW10969   4.835   3.256   0.788 -0.1430  0.2118  0.3527
 2743SOL    HW110970   4.861   3.244   0.696 -0.7359  1.6253 -0.0195
 2743SOL    HW210971   4.917   3.249   0.837  0.6189  2.0695 -0.5567
 2743SOL     MW10972   4.849   3.253   0.782 -0.1214  0.6306  0.1886
 2744SOL     OW10973   0.607   4.732   2.348 -0.4920 -0.5621 -0.1922
 2744SOL    HW110974   0.594   4.794   2.420  0.0795  0.6685 -1.1338
 2744SOL    HW210975   0.579   4.779   2.270  3.3430 -0.0905 -1.4677
 2744SOL     MW10976   0.602   4.746   2.347  0.0721 -0.3442 -0.4760
 2745SOL     OW10977   5.009   0.286   3.115 -0.2115  0.0386  0.3579
 2745SOL    HW110978   5.069   0.216   3.086  0.5091  0.9576 -0.4498
 2745SOL    HW210979   5.064   0.344   3.168 -0.5601  0.5255  0.1921
 2745SOL     MW10980   5.024   0.284   3.118 -0.1639  0.2186  0.2333
 2746SOL     OW10981   0.844   2.155   1.849 -0.0690  0.3125  0.1610
 2746SOL    HW110982   0.917   2.200   1.891 -0.4262  1.2779 -0.2147
 2746SOL    HW210983   0.799   2.223   1.798  0.4764 -0.8331 -1.9962
 2746SOL     MW10984   0.847   2.170   1.848 -0.0449  0.2894 -0.1632
 2747SOL     OW10985   0.096   3.336   2.991  0.1068 -0.1167  0.3940
 2747SOL    HW110986   0.086   3.351   3.085 -0.5770  0.8274  0.1833
 2747SOL    HW210987   0.071   3.245   2.979 -1.1606  0.1434  0.9424
 2747SOL     MW10988   0.092   3.326   3.001 -0.1429  0.0375  0.4372
 2748SOL     OW10989   4.501   0.876   0.257 -0.0727 -0.5836  0.4078
 2748SOL    HW110990   4.525   0.783   0.256  0.8632 -0.3596  0.9265
 2748SOL    HW210991   4.548   0.913   0.332  0.1364  0.4568 -0.2113
 2748SOL     MW10992   4.510   0.869   0.266  0.0739 -0.4217  0.3949
 2749SOL     OW10993   0.830   1.051   0.121  0.2428  0.8176  0.4714
 2749SOL    HW110994   0.853   1.144   0.122  0.2390  0.8184  0.7872
 2749SOL    HW210995   0.769   1.041   0.194  0.7559  0.4440  0.8545
 2749SOL     MW10996   0.825   1.062   0.131  0.3080  0.7699  0.5609
 2750SOL     OW10997   1.259   4.974   1.930 -0.1517  0.3858  0.0194
 2750SOL    HW110998   1.336   4.925   1.958 -0.2395  0.0154 -0.3929
 2750SOL    HW210999   1.207   4.912   1.879 -0.5214  0.7518 -0.0562
 2750SOL     MW11000   1.262   4.960   1.927 -0.2102  0.3853 -0.0431
 2751SOL     OW11001   4.872   4.816   4.921  0.3800  0.1614 -0.0306
 2751SOL    HW111002   4.953   4.773   4.947 -1.3811 -2.4017  1.6991
 2751SOL    HW211003   4.858   4.883   4.989  0.4138 -0.2491  0.3831
 2751SOL     MW11004   4.880   4.819   4.933  0.1589 -0.2193  0.2438
 2752SOL     OW11005   2.200   0.977   2.643 -0.4817  0.2246  0.1448
 2752SOL    HW111006   2.203   1.000   2.550  0.0363  1.3873  0.4257
 2752SOL    HW211007   2.201   0.881   2.644  0.3286  0.1967 -1.0287
 2752SOL     MW11008   2.201   0.968   2.631 -0.3117  0.3699  0.0305
 2753SOL     OW11009   3.388   2.175   0.123  0.1699 -0.0066 -0.0707
 2753SOL    HW111010   3.315   2.230   0.096 -0.7502 -0.5581  1.2041
 2753SOL    HW211011   3.449   2.235   0.165  1.0129  0.6400 -2.1143
 2753SOL     MW11012   3.387   2.190   0.125  0.1600  0.0056 -0.1691
 2754SOL     OW11013   5.409   0.140   2.312  0.0355  0.6910 -0.3145
 2754SOL    HW111014   5.475   0.071   2.322 -0.0110  0.6456 -0.3200
 2754SOL    HW211015   5.395   0.173   2.401 -1.6944 -0.9261  0.0881
 2754SOL     MW11016   5.416   0.135   2.325 -0.1919  0.4782 -0.2637
 2755SOL     OW11017   0.855   0.816   1.571 -0.6176  0.2744  0.1135
 2755SOL    HW111018   0.930   0.762   1.547 -1.5404 -0.6619 -0.7684
 2755SOL    HW211019   0.890   0.880   1.634  1.2905  0.9914 -1.5835
 2755SOL     MW11020   0.869   0.817   1.576 -0.4915  0.2463 -0.2167
 2756SOL     OW11021   4.866   3.945   5.191  0.2341  0.0857 -0.5222
 2756SOL    HW111022   4.873   3.864   5.242 -0.2270  0.0677 -0.4848
 2756SOL    HW211023   4.772   3.962   5.185  0.3285  0.6324 -0.5086
 2756SOL     MW11024   4.855   3.937   5.197  0.1872  0.1534 -0.5157
 2757SOL     OW11025   2.541   2.498   2.885  0.2522 -0.2193 -0.2199
 2757SOL    HW111026   2.532   2.579   2.936 -0.0811 -1.2491  1.4549
 2757SOL    HW211027   2.495   2.516   2.803  1.2555  1.6884 -0.4209
 2757SOL     MW11028   2.534   2.510   2.881  0.3380 -0.1069 -0.0313
 2758SOL     OW11029   1.137   1.303   0.574 -0.3220  0.1594 -0.1162
 2758SOL    HW111030   1.082   1.255   0.511 -0.9011 -0.8884  1.1483
 2758SOL    HW211031   1.175   1.374   0.522 -0.4214 -0.9191 -1.7741
 2758SOL     MW11032   1.135   1.306   0.559 -0.4089 -0.1128 -0.1665
 2759SOL     OW11033   3.394   0.543   2.347 -0.5047 -0.1963  0.3372
 2759SOL    HW111034   3.305   0.554   2.314 -1.3508 -1.3082  2.1208
 2759SOL    HW211035   3.390   0.463   2.400  1.2307  0.4521  1.5048
 2759SOL     MW11036   3.382   0.534   2.349 -0.3909 -0.2557  0.7150
 2760SOL     OW11037   4.470   2.791   1.537 -0.1564  0.2843 -0.0155
 2760SOL    HW111038   4.495   2.773   1.447 -2.1700 -1.8432 -0.2307
 2760SOL    HW211039   4.534   2.745   1.591 -0.3022 -0.3841 -0.4157
 2760SOL     MW11040   4.482   2.783   1.533 -0.4328 -0.0736 -0.0943
 2761SOL     OW11041   4.003   4.349   1.530 -0.3879  0.0507 -0.1951
 2761SOL    HW111042   4.061   4.425   1.525  0.4006 -0.5125  0.2537
 2761SOL    HW211043   3.999   4.315   1.441  1.0285 -0.6805  0.0057
 2761SOL     MW11044   4.010   4.355   1.518 -0.1056 -0.1150 -0.1119
 2762SOL     OW11045   0.125   0.406   2.538 -0.0307 -0.1478 -0.0482
 2762SOL    HW111046   0.042   0.364   2.558  0.2514 -0.8630 -0.3626
 2762SOL    HW211047   0.107   0.460   2.461 -0.0783 -0.7119 -0.4354
 2762SOL     MW11048   0.112   0.408   2.531 -0.0007 -0.3115 -0.1380
 2763SOL     OW11049   2.983   5.056   4.025 -0.1065 -0.1511 -0.9123
 2763SOL    HW111050   3.059   4.999   4.016 -0.8537 -1.4291  0.5672
 2763SOL    HW211051   2.911   5.007   3.988 -0.8479 -0.4097  0.7879
 2763SOL     MW11052   2.984   5.043   4.019 -0.2971 -0.3478 -0.5053
 2764SOL     OW11053   2.422   4.082   2.904 -0.1396 -1.0779  0.4401
 2764SOL    HW111054   2.484   4.024   2.859  0.1631 -0.5854  0.2152
 2764SOL    HW211055   2.353   4.023   2.933  0.1484 -1.5548  0.1950
 2764SOL     MW11056   2.421   4.067   2.902 -0.0640 -1.0759  0.3800
 2765SOL     OW11057   3.766   5.245   1.857  0.1283 -0.4096 -0.1439
 2765SOL    HW111058   3.741   5.337   1.864 -2.8087 -1.0046 -1.2130
 2765SOL    HW211059   3.861   5.246   1.853  0.2153  2.5254  0.3232
 2765SOL     MW11060   3.775   5.257   1.857 -0.2365 -0.1101 -0.2210
 2766SOL     OW11061   2.335   0.289   4.152 -0.1012  0.1527 -0.1213
 2766SOL    HW111062   2.307   0.313   4.063  0.9201 -0.3186 -0.5850
 2766SOL    HW211063   2.428   0.310   4.154 -0.0298 -0.2061  0.7183
 2766SOL     MW11064   2.343   0.295   4.141  0.0387  0.0464 -0.0732
 2767SOL     OW11065   5.105   0.342   0.664  0.5153 -0.2570 -0.0200
 2767SOL    HW111066   5.046   0.417   0.660 -0.6298 -1.0220  1.3527
 2767SOL    HW211067   5.155   0.356   0.745  0.2713 -0.9589  0.2603
 2767SOL     MW11068   5.104   0.353   0.674  0.3375 -0.4448  0.1916
 2768SOL     OW11069   1.287   2.758   5.152  0.6164  0.3593 -0.1234
 2768SOL    HW111070   1.325   2.670   5.143  0.9193  0.4605  0.1468
 2768SOL    HW211071   1.285   2.792   5.062  0.7158  0.1680 -0.1999
 2768SOL     MW11072   1.292   2.751   5.139  0.6679  0.3477 -0.0986
 2769SOL     OW11073   1.507   4.687   3.839 -0.2199  0.3324  0.0095
 2769SOL    HW111074   1.424   4.724   3.810 -0.1594 -1.1801 -2.2781
 2769SOL    HW211075   1.563   4.688   3.762  1.8429  1.0505  1.4188
 2769SOL     MW11076   1.503   4.692   3.826  0.0519  0.2307 -0.1029
 2770SOL     OW11077   2.311   3.415   2.734 -0.0058 -0.2330  0.5850
 2770SOL    HW111078   2.325   3.508   2.752 -1.5583 -0.0945  1.2585
 2770SOL    HW211079   2.218   3.401   2.752 -0.2919 -1.4718 -1.5337
 2770SOL     MW11080   2.301   3.425   2.739 -0.2412 -0.3738  0.4000
 2771SOL     OW11081   2.044   5.019   3.371 -0.2784  0.3924 -0.0382
 2771SOL    HW111082   2.044   5.114   3.364  1.8493  0.4559  0.0796
 2771SOL    HW211083   1.985   4.990   3.302  1.8737  1.7363 -2.6611
 2771SOL     MW11084   2.037   5.027   3.361  0.2695  0.5725 -0.3589
 2772SOL     OW11085   1.162   1.970   2.991  0.3411  0.3944 -0.2927
 2772SOL    HW111086   1.184   1.940   3.079  0.5663  1.1007 -0.1023
 2772SOL    HW211087   1.168   2.066   2.996  0.8746  0.4207 -1.2033
 2772SOL     MW11088   1.166   1.979   3.003  0.4382  0.4881 -0.3849
 2773SOL     OW11089   3.541   1.077   4.776 -0.9643  0.3274  0.1956
 2773SOL    HW111090   3.451   1.087   4.745 -0.5348  1.4456 -0.7841
 2773SOL    HW211091   3.552   1.145   4.842 -0.4053  1.1766 -0.7545
 2773SOL     MW11092   3.531   1.087   4.781 -0.8378  0.5792 -0.0514
 2774SOL     OW11093   1.558   1.194   4.826  0.3170  0.6048  0.1095
 2774SOL    HW111094   1.464   1.210   4.827 -0.2603 -2.3079  0.5279
 2774SOL    HW211095   1.566   1.099   4.825  3.2761  0.7767 -0.4167
 2774SOL     MW11096   1.547   1.184   4.826  0.6219  0.2539  0.0957
 2775SOL     OW11097   2.410   0.877   2.897  0.2488 -0.3890 -0.0440
 2775SOL    HW111098   2.466   0.924   2.959  0.7890 -0.0633 -0.7634
 2775SOL    HW211099   2.354   0.822   2.952  0.5200  0.1062  0.7408
 2775SOL     MW11100   2.410   0.876   2.912  0.3527 -0.2839 -0.0356
 2776SOL     OW11101   2.184   2.095   1.935 -0.3896 -0.1491  0.0709
 2776SOL    HW111102   2.240   2.074   2.009  0.2420 -0.2128 -0.4186
 2776SOL    HW211103   2.234   2.067   1.858 -1.4050 -0.9120 -0.3376
 2776SOL     MW11104   2.197   2.089   1.935 -0.4387 -0.2549 -0.0440
 2777SOL     OW11105   2.630   4.513   0.799 -0.3396  0.4846  0.1544
 2777SOL    HW111106   2.724   4.510   0.815 -0.1424  1.1549 -0.7702
 2777SOL    HW211107   2.622   4.507   0.704 -1.1163  2.3048  0.0536
 2777SOL     MW11108   2.641   4.512   0.789 -0.4137  0.8034  0.0232
 2778SOL     OW11109   4.816   0.144   0.698 -0.0100  0.0133  0.2868
 2778SOL    HW111110   4.896   0.097   0.718 -0.0694 -0.3496 -0.3031
 2778SOL    HW211111   4.754   0.076   0.671 -0.3734  0.3359  0.2910
 2778SOL     MW11112   4.818   0.129   0.697 -0.0641  0.0081  0.2118
 2779SOL     OW11113   2.642   2.314   0.820  0.3745  0.5463 -0.5637
 2779SOL    HW111114   2.555   2.289   0.789  1.3884 -1.5714 -1.9385
 2779SOL    HW211115   2.627   2.353   0.906 -1.8720 -0.1961 -0.5618
 2779SOL     MW11116   2.629   2.316   0.827  0.2167  0.1802 -0.7395
 2780SOL     OW11117   5.237   1.224   1.038  0.5867 -0.5680  0.3576
 2780SOL    HW111118   5.227   1.284   1.112 -0.1753  1.8231 -1.5741
 2780SOL    HW211119   5.151   1.185   1.026 -0.0670  1.1497 -0.9016
 2780SOL     MW11120   5.225   1.227   1.046  0.4054 -0.0420 -0.0509
 2781SOL     OW11121   5.392   3.134   1.816 -0.4315 -0.4267  0.1513
 2781SOL    HW111122   5.319   3.087   1.776  0.3781 -1.2496 -0.4100
 2781SOL    HW211123   5.380   3.225   1.789 -1.8204 -0.3453  0.9408
 2781SOL     MW11124   5.381   3.140   1.807 -0.5056 -0.5216  0.1805
 2782SOL     OW11125   4.073   5.416   0.174 -0.4681 -0.0381 -0.1319
 2782SOL    HW111126   4.093   5.339   0.121 -0.7025 -0.4210  0.3279
 2782SOL    HW211127   4.096   5.391   0.263  1.5206  1.1751 -0.2347
 2782SOL     MW11128   4.078   5.403   0.178 -0.2435  0.0682 -0.0862
 2783SOL     OW11129   1.897   3.538   0.052 -0.0940 -0.1801 -0.4452
 2783SOL    HW111130   1.978   3.574   0.088 -0.1899 -1.3885  1.0731
 2783SOL    HW211131   1.876   3.595  -0.022  1.7689  0.5632 -0.4543
 2783SOL     MW11132   1.905   3.550   0.047  0.1322 -0.2396 -0.2520
 2784SOL     OW11133   0.640   4.979   3.666  0.3777  0.1792 -0.1062
 2784SOL    HW111134   0.615   4.932   3.586 -0.9445  2.2692 -1.0416
 2784SOL    HW211135   0.674   5.063   3.634  1.4692  0.3938  1.4977
 2784SOL     MW11136   0.641   4.984   3.651  0.3482  0.4742 -0.0206
 2785SOL     OW11137   0.004   1.083   2.770  0.1990 -0.0906 -0.4409
 2785SOL    HW111138   0.088   1.039   2.781  0.4014  0.4252  0.1980
 2785SOL    HW211139  -0.042   1.066   2.853 -1.0474 -1.8205 -1.4090
 2785SOL     MW11140   0.009   1.075   2.782  0.0653 -0.2460 -0.4831
 2786SOL     OW11141   4.513   1.959   2.102  0.1597 -0.2301 -0.2999
 2786SOL    HW111142   4.477   1.960   2.190  0.8916 -0.2942  0.0122
 2786SOL    HW211143   4.440   1.981   2.045  0.0547  1.5498  0.4574
 2786SOL     MW11144   4.499   1.962   2.106  0.2399 -0.0105 -0.1630
 2787SOL     OW11145   2.922   4.050   3.060  0.1140 -0.4400  1.1596
 2787SOL    HW111146   2.838   4.068   3.100 -0.1179 -0.0232  0.5083
 2787SOL    HW211147   2.979   4.122   3.089  0.1596 -0.5541  1.3527
 2787SOL     MW11148   2.919   4.062   3.069  0.0901 -0.4012  1.1009
 2788SOL     OW11149   1.531   3.255   0.151 -0.0761 -0.4459  0.7454
 2788SOL    HW111150   1.523   3.161   0.135  0.0116 -0.2971 -0.1699
 2788SOL    HW211151   1.613   3.264   0.199  0.0958 -0.7966  0.5205
 2788SOL     MW11152   1.540   3.244   0.155 -0.0429 -0.4717  0.5994
 2789SOL     OW11153   0.862   2.037   3.458 -0.6736 -0.2907  0.3836
 2789SOL    HW111154   0.813   2.067   3.382  0.1553 -2.6710 -1.2260
 2789SOL    HW211155   0.947   2.078   3.450  0.0166 -1.8628 -1.0728
 2789SOL     MW11156   0.866   2.046   3.447 -0.4791 -0.7966 -0.0089
 2790SOL     OW11157   0.523   4.715   2.790  0.2625  0.0540 -0.1414
 2790SOL    HW111158   0.432   4.697   2.816  0.8272 -1.1898  1.0994
 2790SOL    HW211159   0.551   4.785   2.849  1.1721 -1.9680  1.9616
 2790SOL     MW11160   0.515   4.722   2.800  0.4512 -0.3641  0.2866
 2791SOL     OW11161   2.992   3.837   2.142  0.0576 -0.0764  0.2886
 2791SOL    HW111162   3.008   3.912   2.085  2.4336 -0.0007  0.9557
 2791SOL    HW211163   2.974   3.765   2.081 -0.0512  0.5632 -0.4464
 2791SOL     MW11164   2.992   3.837   2.127  0.3478  0.0151  0.2799
 2792SOL     OW11165   1.045   2.474   5.127 -0.0958  0.2004  0.0618
 2792SOL    HW111166   1.064   2.439   5.215 -0.9539 -0.8563 -0.1582
 2792SOL    HW211167   0.961   2.518   5.136 -1.5437 -2.1702 -0.7513
 2792SOL     MW11168   1.037   2.475   5.140 -0.3910 -0.2384 -0.0704
 2793SOL     OW11169   5.254   5.043   0.974  0.1107  0.1101 -0.2833
 2793SOL    HW111170   5.273   5.109   0.907 -0.7766 -1.0378 -1.7184
 2793SOL    HW211171   5.327   5.050   1.035  2.0458 -0.1378 -2.4231
 2793SOL     MW11172   5.266   5.053   0.973  0.2448 -0.0686 -0.7409
 2794SOL     OW11173   3.770   2.326   2.323  0.5440 -0.0660  0.0407
 2794SOL    HW111174   3.687   2.337   2.276  1.4021 -1.3186 -1.9198
 2794SOL    HW211175   3.837   2.334   2.255  2.0780  1.3022  1.6470
 2794SOL     MW11176   3.768   2.328   2.308  0.8502 -0.0512 -0.0047
 2795SOL     OW11177   3.349   1.223   2.663  0.0342  0.5214  0.4583
 2795SOL    HW111178   3.408   1.291   2.694  1.5905 -0.3849 -0.3828
 2795SOL    HW211179   3.383   1.142   2.702  0.1132 -0.1883 -0.9902
 2795SOL     MW11180   3.361   1.221   2.672  0.2436  0.3146  0.1652
 2796SOL     OW11181   0.891   2.864   2.128 -0.6077 -0.1249  0.6577
 2796SOL    HW111182   0.839   2.944   2.123 -0.8333 -0.2958  0.1983
 2796SOL    HW211183   0.856   2.817   2.204  0.7574  1.0542  2.0822
 2796SOL     MW11184   0.880   2.868   2.137 -0.4618  0.0042  0.7813
 2797SOL     OW11185   4.142   0.786   2.758  0.2713  0.0954 -0.1765
 2797SOL    HW111186   4.227   0.756   2.791 -0.0321 -1.1535 -0.4944
 2797SOL    HW211187   4.139   0.755   2.667 -1.6656 -2.4044  0.6323
 2797SOL     MW11188   4.153   0.778   2.750 -0.0155 -0.3845 -0.1137
 2798SOL     OW11189   4.606   0.132   2.705  0.4943 -0.6856  0.0220
 2798SOL    HW111190   4.578   0.206   2.760  1.5427 -0.5053  0.3233
 2798SOL    HW211191   4.541   0.130   2.634  0.9170  1.0651 -0.4613
 2798SOL     MW11192   4.594   0.141   2.703  0.6827 -0.4384 -0.0013
 2799SOL     OW11193   5.199   2.192  -0.020  0.2088 -0.0635 -0.1394
 2799SOL    HW111194   5.270   2.248   0.009  0.8263 -0.6502 -0.4864
 2799SOL    HW211195   5.168   2.150   0.061  0.1087  0.3486  0.0409
 2799SOL     MW11196   5.204   2.194  -0.006  0.2750 -0.0858 -0.1607
 2800SOL     OW11197   0.711   1.172   2.374  0.5788 -0.0252  0.0525
 2800SOL    HW111198   0.631   1.189   2.324  0.6210 -0.3377 -0.1243
 2800SOL    HW211199   0.721   1.249   2.430  0.6015  0.3899 -0.5111
 2800SOL     MW11200   0.702   1.184   2.375  0.5871 -0.0121 -0.0423
 2801SOL     OW11201   0.246   2.245   0.650 -0.3250  0.1675  0.0668
 2801SOL    HW111202   0.171   2.235   0.591 -1.8005 -0.3147  1.9078
 2801SOL    HW211203   0.208   2.282   0.730  1.3692 -0.4177  1.1886
 2801SOL     MW11204   0.232   2.249   0.653 -0.2970  0.0309  0.4461
 2802SOL     OW11205   2.839   1.542   2.577  0.5394 -0.0424  0.1449
 2802SOL    HW111206   2.848   1.553   2.672  4.3405 -1.9131  0.2036
 2802SOL    HW211207   2.885   1.617   2.540 -0.2120  0.2428 -0.2260
 2802SOL     MW11208   2.846   1.553   2.584  0.9298 -0.2454  0.1049
 2803SOL     OW11209   3.765   3.521   3.134  0.0180  0.1797 -0.5262
 2803SOL    HW111210   3.793   3.504   3.223  0.5157  1.9693 -0.3024
 2803SOL    HW211211   3.688   3.466   3.122 -0.5390  0.4964  1.2903
 2803SOL     MW11212   3.759   3.512   3.144  0.0104  0.4493 -0.2650
 2804SOL     OW11213   1.408   5.333   4.480 -0.3836  0.3207 -0.0091
 2804SOL    HW111214   1.425   5.363   4.390 -2.7034 -1.7327 -1.2231
 2804SOL    HW211215   1.495   5.307   4.512  0.5519  1.3866 -1.4941
 2804SOL     MW11216   1.421   5.333   4.473 -0.5608  0.1943 -0.3546
 2805SOL     OW11217   4.599   1.510   3.722 -0.9100  0.3758  0.0432
 2805SOL    HW111218   4.582   1.461   3.803  0.4959 -1.0369 -0.4727
 2805SOL    HW211219   4.523   1.567   3.712 -1.4336  0.0868  1.9907
 2805SOL     MW11220   4.587   1.511   3.731 -0.7970  0.1579  0.2265
 2806SOL     OW11221   1.396   0.253   5.259  0.2257  0.2682 -0.3395
 2806SOL    HW111222   1.369   0.345   5.263 -0.1639  0.1370  2.1613
 2806SOL    HW211223   1.489   0.256   5.239  0.1377  1.1754 -0.6805
 2806SOL     MW11224   1.404   0.265   5.257  0.1645  0.3675 -0.0630
 2807SOL     OW11225   1.605   0.937   4.546  0.3385 -0.4403 -0.3007
 2807SOL    HW111226   1.572   0.925   4.457  1.2874 -1.6388 -0.5301
 2807SOL    HW211227   1.644   1.024   4.546 -1.2110  0.2764 -0.5320
 2807SOL     MW11228   1.606   0.946   4.534  0.2616 -0.5020 -0.3596
 2808SOL     OW11229   4.888   2.981   1.774 -0.0154  0.1563  0.2594
 2808SOL    HW111230   4.980   3.003   1.766 -0.1735  1.3921  1.5837
 2808SOL    HW211231   4.881   2.930   1.855 -0.4615 -0.2585 -0.0246
 2808SOL     MW11232   4.899   2.977   1.783 -0.0928  0.2614  0.3925
 2809SOL     OW11233   4.173   3.856   0.109  0.0878 -0.5070  0.0190
 2809SOL    HW111234   4.109   3.891   0.047  0.4863 -0.8919 -0.6111
 2809SOL    HW211235   4.245   3.825   0.055  0.1301 -1.5035  0.6269
 2809SOL     MW11236   4.174   3.856   0.094  0.1442 -0.6839  0.0161
 2810SOL     OW11237   2.030   1.438   4.386  0.2672 -0.4437 -0.1772
 2810SOL    HW111238   1.983   1.407   4.464  0.5566  1.2459  0.7122
 2810SOL    HW211239   2.121   1.411   4.401  0.1825 -0.8177 -0.3222
 2810SOL     MW11240   2.036   1.430   4.398  0.2934 -0.2753 -0.0819
 2811SOL     OW11241   2.187   0.255   4.393 -0.7390 -0.1301 -0.1833
 2811SOL    HW111242   2.205   0.165   4.420 -0.7578 -0.0037  0.2625
 2811SOL    HW211243   2.252   0.273   4.325 -0.0544 -0.1417  0.4494
 2811SOL     MW11244   2.198   0.246   4.388 -0.6538 -0.1154 -0.0452
 2812SOL     OW11245   2.484   3.281   1.721  0.4474 -0.0755  0.2408
 2812SOL    HW111246   2.516   3.336   1.650 -2.2549 -0.0295 -1.0447
 2812SOL    HW211247   2.561   3.231   1.749  2.1613  1.7867 -0.9133
 2812SOL     MW11248   2.498   3.281   1.716  0.3209  0.1688 -0.0715
 2813SOL     OW11249   1.446   2.532   4.916 -0.2125 -0.2820  0.0868
 2813SOL    HW111250   1.530   2.576   4.904  0.9482 -2.5978 -1.0788
 2813SOL    HW211251   1.395   2.556   4.839  0.1143 -0.3469 -0.1508
 2813SOL     MW11252   1.450   2.540   4.905 -0.0221 -0.5868 -0.0928
 2814SOL     OW11253   5.275   3.569   3.559 -0.0802  0.3446 -0.5060
 2814SOL    HW111254   5.243   3.479   3.551 -0.0308  0.2745  0.0564
 2814SOL    HW211255   5.258   3.607   3.473 -2.4712  0.5687 -0.0213
 2814SOL     MW11256   5.268   3.562   3.547 -0.3799  0.3643 -0.3720
 2815SOL     OW11257   4.423   0.826   3.339  0.2948  0.4182  0.2002
 2815SOL    HW111258   4.334   0.837   3.374  0.3608  1.0256  0.1866
 2815SOL    HW211259   4.416   0.848   3.247  0.4869  0.6080  0.2296
 2815SOL     MW11260   4.411   0.831   3.332  0.3278  0.5203  0.2022
 2816SOL     OW11261   5.124   4.149   5.265 -0.3295  0.0079  0.0980
 2816SOL    HW111262   5.111   4.148   5.170  0.1423  0.2244  0.0254
 2816SOL    HW211263   5.169   4.066   5.283 -0.6467 -0.1518  0.1713
 2816SOL     MW11264   5.128   4.138   5.255 -0.3097  0.0152  0.0981
 2817SOL     OW11265   0.329   2.208   1.256 -0.1803  0.2354 -0.4471
 2817SOL    HW111266   0.348   2.117   1.235  0.3180  0.0775  0.6083
 2817SOL    HW211267   0.406   2.238   1.305 -1.3667  0.4425  1.4223
 2817SOL     MW11268   0.341   2.200   1.260 -0.2684  0.2417 -0.0727
 2818SOL     OW11269   3.938   1.357   4.500  0.2264 -0.1181 -0.3663
 2818SOL    HW111270   3.843   1.348   4.490 -0.0020  1.3089  0.2056
 2818SOL    HW211271   3.972   1.268   4.491 -1.1880 -0.6827 -0.3648
 2818SOL     MW11272   3.930   1.344   4.498  0.0161 -0.0077 -0.2929
 2819SOL     OW11273   2.108   4.300   2.216 -0.3585  0.4172 -0.3511
 2819SOL    HW111274   2.179   4.357   2.188  0.0594  0.1853  0.2347
 2819SOL    HW211275   2.090   4.244   2.140  0.0207  0.5407 -0.5296
 2819SOL     MW11276   2.114   4.300   2.203 -0.2564  0.4033 -0.2990
 2820SOL     OW11277   3.916   0.031   5.251 -0.2215  0.4374 -0.1096
 2820SOL    HW111278   3.975   0.006   5.322 -0.8757  0.7618  0.5694
 2820SOL    HW211279   3.854   0.091   5.292 -1.9154 -1.0051 -0.4283
 2820SOL     MW11280   3.916   0.036   5.265 -0.5221  0.2943 -0.0635
 2821SOL     OW11281   3.970   0.964   1.399  0.3723 -0.5396  0.0566
 2821SOL    HW111282   3.947   1.045   1.444  0.5473  0.3133 -1.3464
 2821SOL    HW211283   3.888   0.936   1.357  0.0864 -1.5936  1.2684
 2821SOL     MW11284   3.956   0.971   1.399  0.3581 -0.5653  0.0321
 2822SOL     OW11285   3.315   1.444   4.469  0.2215 -0.3864 -0.0556
 2822SOL    HW111286   3.353   1.365   4.431  2.3100  1.2490 -1.6616
 2822SOL    HW211287   3.391   1.494   4.500 -1.1422  0.3037  2.4434
 2822SOL     MW11288   3.330   1.440   4.468  0.3143 -0.0887  0.0587
 2823SOL     OW11289   2.458   0.971   5.304 -0.2826 -0.0180  0.4737
 2823SOL    HW111290   2.416   0.937   5.225 -0.4555  0.2558  0.4427
 2823SOL    HW211291   2.468   0.895   5.361 -0.1366 -0.2213  0.1797
 2823SOL     MW11292   2.454   0.957   5.301 -0.2860 -0.0090  0.4321
 2824SOL     OW11293   2.790   0.613   1.628 -0.4014  0.0908  0.1696
 2824SOL    HW111294   2.713   0.640   1.579  1.5867  0.8372 -2.8385
 2824SOL    HW211295   2.802   0.521   1.605 -0.6744 -0.1742  1.0613
 2824SOL     MW11296   2.782   0.605   1.619 -0.1819  0.1524 -0.1013
 2825SOL     OW11297   2.749   0.347   3.657 -0.6946  0.6068  0.3739
 2825SOL    HW111298   2.704   0.424   3.691 -1.9644  0.0214  0.0694
 2825SOL    HW211299   2.718   0.275   3.712 -1.1676 -0.0180 -0.6874
 2825SOL     MW11300   2.740   0.348   3.668 -0.9177  0.4519  0.1990
 2826SOL     OW11301   2.243   1.694   1.848 -0.0114  0.3548  0.2682
 2826SOL    HW111302   2.183   1.706   1.921  0.5053  0.2824  0.7076
 2826SOL    HW211303   2.246   1.599   1.834 -3.9273  0.4542 -3.0636
 2826SOL     MW11304   2.236   1.683   1.855 -0.4465  0.3583 -0.1020
 2827SOL     OW11305   2.006   1.988   1.629 -0.3022  0.1922 -0.0680
 2827SOL    HW111306   1.914   1.992   1.600 -1.4797  2.1199  3.3878
 2827SOL    HW211307   2.049   2.058   1.581 -1.8164  2.3227  1.5152
 2827SOL     MW11308   2.000   1.997   1.619 -0.6468  0.7117  0.5771
 2828SOL     OW11309   3.004   2.267   3.387 -0.1392 -0.5193  0.2203
 2828SOL    HW111310   3.062   2.226   3.452  1.2119 -0.0869 -0.6803
 2828SOL    HW211311   3.033   2.232   3.303 -0.4778  0.5269 -0.3486
 2828SOL     MW11312   3.016   2.257   3.385 -0.0096 -0.3300  0.0322
 2829SOL     OW11313   1.408   4.497   4.275 -0.1893 -0.3126 -0.2542
 2829SOL    HW111314   1.467   4.493   4.350  0.2482  0.2952 -0.5632
 2829SOL    HW211315   1.321   4.488   4.313  0.0143  0.2652  0.3569
 2829SOL     MW11316   1.404   4.495   4.289 -0.1072 -0.1608 -0.2156
 2830SOL     OW11317   2.133   4.101   4.571 -0.5708 -0.7012 -0.1982
 2830SOL    HW111318   2.215   4.071   4.612 -0.7463  0.2103  0.8724
 2830SOL    HW211319   2.143   4.079   4.479  1.7052  1.0451 -0.4742
 2830SOL     MW11320   2.145   4.094   4.565 -0.3019 -0.3610 -0.0965
 2831SOL     OW11321   0.245   4.340   3.619  0.5488  0.1364 -0.6460
 2831SOL    HW111322   0.323   4.381   3.656  0.2216  0.5685 -0.4263
 2831SOL    HW211323   0.223   4.395   3.543  0.2163  0.2606 -0.4612
 2831SOL     MW11324   0.252   4.352   3.614  0.4643  0.2076 -0.5942
 2832SOL     OW11325   3.258   0.357   0.064  0.4194  0.0262  0.3642
 2832SOL    HW111326   3.303   0.393   0.140 -1.0446  1.3213  0.6595
 2832SOL    HW211327   3.171   0.335   0.097  0.5750 -1.8408 -0.3429
 2832SOL     MW11328   3.253   0.358   0.078  0.2519 -0.0470  0.3115
 2833SOL     OW11329   1.006   4.259   0.075  0.5229  0.1539  0.1625
 2833SOL    HW111330   1.052   4.222  -0.000  1.2854 -1.7719  1.4782
 2833SOL    HW211331   1.056   4.228   0.151 -0.5478  1.5358  1.4850
 2833SOL     MW11332   1.018   4.250   0.075  0.4834  0.0843  0.5002
 2834SOL     OW11333   0.598   0.708   5.443  0.1265  0.0092 -0.6667
 2834SOL    HW111334   0.589   0.759   5.523  0.0384  1.7185 -1.7185
 2834SOL    HW211335   0.688   0.674   5.446 -0.4958 -1.6826  1.0736
 2834SOL     MW11336   0.609   0.710   5.454  0.0356  0.0114 -0.5786
 2835SOL     OW11337   4.667   5.086   0.637  0.0626 -0.0082  0.0322
 2835SOL    HW111338   4.755   5.091   0.675  0.4010  2.7024 -0.8764
 2835SOL    HW211339   4.682   5.074   0.544 -0.5826 -0.4834 -0.0146
 2835SOL     MW11340   4.680   5.085   0.630  0.0234  0.2779 -0.0901
 2836SOL     OW11341   4.618   1.751   1.976  0.4314  0.2152  0.1760
 2836SOL    HW111342   4.564   1.821   2.012  0.4435 -0.3087  1.2531
 2836SOL    HW211343   4.659   1.711   2.053  0.8366 -0.6324 -0.4674
 2836SOL     MW11344   4.617   1.755   1.991  0.4848  0.0396  0.2315
 2837SOL     OW11345   0.130   4.784   3.385  0.1553 -0.0229 -0.1773
 2837SOL    HW111346   0.055   4.732   3.357 -0.7681  1.0426  0.2744
 2837SOL    HW211347   0.160   4.828   3.305  0.3599 -0.5050 -0.3716
 2837SOL     MW11348   0.124   4.783   3.371  0.0633  0.0518 -0.1443
 2838SOL     OW11349   4.544   0.336   2.054 -0.5805  0.1379 -0.1996
 2838SOL    HW111350   4.453   0.323   2.028  0.4004 -2.4140 -2.9539
 2838SOL    HW211351   4.543   0.327   2.149 -3.3157  1.4738  0.0040
 2838SOL     MW11352   4.532   0.333   2.063 -0.8051 -0.0177 -0.5261
 2839SOL     OW11353   3.388   3.805   4.077  0.1385  0.2759  0.3052
 2839SOL    HW111354   3.472   3.796   4.123 -0.2619  0.6128  1.1204
 2839SOL    HW211355   3.345   3.878   4.120 -1.4571 -1.1705  1.3050
 2839SOL     MW11356   3.393   3.813   4.088 -0.1170  0.1338  0.5376
 2840SOL     OW11357   3.258   4.211   0.049  0.0842 -0.5322  0.1647
 2840SOL    HW111358   3.277   4.137  -0.009  3.1751 -0.6116  1.0649
 2840SOL    HW211359   3.235   4.170   0.133  1.9291 -0.5704  0.7017
 2840SOL     MW11360   3.258   4.196   0.053  0.7160 -0.5472  0.3487
 2841SOL     OW11361   2.647   5.293   4.543  0.6420 -0.0682  0.0853
 2841SOL    HW111362   2.611   5.253   4.622  0.9099 -1.4910 -0.4859
 2841SOL    HW211363   2.586   5.364   4.523  0.6033  0.3590  1.5814
 2841SOL     MW11364   2.635   5.297   4.550  0.6713 -0.1957  0.2037
 2842SOL     OW11365   1.093   1.846   0.855  0.1158  0.1392  0.4967
 2842SOL    HW111366   1.126   1.761   0.826 -0.8383 -0.4244  1.0345
 2842SOL    HW211367   1.043   1.879   0.781  1.1632  0.6318 -0.0216
 2842SOL     MW11368   1.091   1.840   0.842  0.1278  0.1301  0.4992
 2843SOL     OW11369   0.921   5.093   4.773 -0.2972 -0.2259  0.0526
 2843SOL    HW111370   0.926   5.029   4.844 -3.8443 -2.1566 -1.2070
 2843SOL    HW211371   0.934   5.042   4.693  0.0340  1.2465 -0.8796
 2843SOL     MW11372   0.923   5.078   4.772 -0.7089 -0.2845 -0.2280
 2844SOL     OW11373   1.293   3.413   2.559  0.0989 -0.6484  0.0711
 2844SOL    HW111374   1.359   3.402   2.491 -0.0454 -4.5190  0.3233
 2844SOL    HW211375   1.211   3.390   2.516 -0.6402  0.8047  0.6292
 2844SOL     MW11376   1.291   3.409   2.545 -0.0142 -0.9579  0.1748
 2845SOL     OW11377   3.452   1.965   1.946  0.4194 -0.1604 -0.1881
 2845SOL    HW111378   3.447   1.959   2.041  0.1095  1.4465 -0.0799
 2845SOL    HW211379   3.389   1.901   1.915  0.0752 -0.2674  0.6971
 2845SOL     MW11380   3.444   1.956   1.954  0.3357  0.0316 -0.0609
 2846SOL     OW11381   2.699   1.852   1.206 -0.4550  0.3984  0.2483
 2846SOL    HW111382   2.767   1.920   1.205 -0.6492  0.6407  1.7284
 2846SOL    HW211383   2.638   1.880   1.274 -2.6234  0.7024 -1.6981
 2846SOL     MW11384   2.700   1.864   1.214 -0.7575  0.4683  0.1886
 2847SOL     OW11385   1.811   4.517   3.089 -0.6379 -0.6482 -0.2229
 2847SOL    HW111386   1.736   4.576   3.090 -1.1388 -1.2213 -1.4653
 2847SOL    HW211387   1.775   4.434   3.057  0.3545 -1.1738 -0.0040
 2847SOL     MW11388   1.797   4.514   3.085 -0.5750 -0.7889 -0.3539
 2848SOL     OW11389   1.075   3.476   1.759 -0.1881  0.1534  0.0481
 2848SOL    HW111390   1.000   3.420   1.783 -1.3780  1.4225 -0.5566
 2848SOL    HW211391   1.060   3.557   1.807  1.8857 -0.2117  1.4512
 2848SOL     MW11392   1.063   3.479   1.768 -0.0750  0.2691  0.1503
 2849SOL     OW11393   1.669   3.551   2.689  0.4690  0.1445  0.3313
 2849SOL    HW111394   1.622   3.506   2.759  1.3542  0.7981  1.3769
 2849SOL    HW211395   1.693   3.636   2.726 -0.4242  1.1633 -1.3216
 2849SOL     MW11396   1.666   3.556   2.702  0.4680  0.3586  0.2536
 2850SOL     OW11397   2.726   3.307   3.813  0.3998 -0.2104  0.0483
 2850SOL    HW111398   2.774   3.386   3.788 -1.3661  1.1638  0.7268
 2850SOL    HW211399   2.727   3.308   3.909  0.3851 -1.0174  0.0582
 2850SOL     MW11400   2.732   3.317   3.822  0.1719 -0.1378  0.1364
 2851SOL     OW11401   4.575   2.531   4.416 -0.0238  0.2857  0.6622
 2851SOL    HW111402   4.663   2.564   4.435  0.8445 -0.6648 -1.3780
 2851SOL    HW211403   4.589   2.440   4.389 -1.6616  0.0913  0.3514
 2851SOL     MW11404   4.588   2.524   4.415 -0.1223  0.1391  0.3613
 2852SOL     OW11405   5.082   1.689   1.115  0.4444 -0.4574 -0.7146
 2852SOL    HW111406   5.161   1.640   1.095  0.3889 -1.2310  0.7705
 2852SOL    HW211407   5.108   1.752   1.182 -0.4042 -1.6228  0.8003
 2852SOL     MW11408   5.095   1.691   1.121  0.3286 -0.7056 -0.3306
 2853SOL     OW11409   3.756   0.653   2.519 -0.3191  0.0874  0.0022
 2853SOL    HW111410   3.704   0.733   2.506 -0.1243  0.4403  1.2819
 2853SOL    HW211411   3.735   0.625   2.608  1.0263 -0.2474  0.2378
 2853SOL     MW11412   3.747   0.660   2.529 -0.1219  0.0897  0.1961
 2854SOL     OW11413   1.019   3.714   3.182 -0.4639 -0.1772  0.2975
 2854SOL    HW111414   1.063   3.631   3.200  0.1024 -0.1213 -0.7721
 2854SOL    HW211415   1.011   3.717   3.087 -2.6418 -0.1030  0.4269
 2854SOL     MW11416   1.024   3.704   3.172 -0.6702 -0.1605  0.1771
 2855SOL     OW11417   3.389   1.182   1.989 -0.1744  0.2394  0.1560
 2855SOL    HW111418   3.435   1.144   2.064  0.2406  0.2377 -0.0983
 2855SOL    HW211419   3.437   1.262   1.970  0.7746 -0.6238 -1.1911
 2855SOL     MW11420   3.401   1.187   1.996  0.0002  0.1287 -0.0490
 2856SOL     OW11421   2.790   3.034   4.232  0.1083  0.1556 -0.0108
 2856SOL    HW111422   2.723   3.029   4.164  0.0052  1.5558 -0.0473
 2856SOL    HW211423   2.863   2.982   4.197 -0.4465 -0.2515 -0.5859
 2856SOL     MW11424   2.791   3.027   4.218  0.0241  0.2827 -0.0891
 2857SOL     OW11425   5.381   0.508   0.023 -0.1077  0.5562  0.5479
 2857SOL    HW111426   5.286   0.509   0.010  0.2015  1.6884 -2.5455
 2857SOL    HW211427   5.406   0.600   0.020  1.2800  0.1707 -0.9568
 2857SOL     MW11428   5.372   0.520   0.021  0.1096  0.6518 -0.0407
 2858SOL     OW11429   2.381   4.149   0.960 -0.1314  0.2042 -0.1779
 2858SOL    HW111430   2.355   4.057   0.971 -0.4619  0.3926  0.7091
 2858SOL    HW211431   2.313   4.186   0.904 -1.2731  0.4428  1.2972
 2858SOL     MW11432   2.369   4.142   0.954 -0.3199  0.2588  0.1245
 2859SOL     OW11433   3.150   2.645   3.945 -0.2459  0.0778 -1.1087
 2859SOL    HW111434   3.218   2.706   3.973 -0.3286 -0.5518  0.6008
 2859SOL    HW211435   3.090   2.640   4.019  0.1779 -2.6460 -0.8150
 2859SOL     MW11436   3.151   2.652   3.958 -0.2022 -0.3515 -0.8523
 2860SOL     OW11437   2.634   1.160   5.197 -0.3183  0.4277  0.1312
 2860SOL    HW111438   2.724   1.155   5.228 -0.4316 -2.2262  0.2380
 2860SOL    HW211439   2.583   1.113   5.262 -1.9136  2.2008  0.2802
 2860SOL     MW11440   2.639   1.154   5.209 -0.5370  0.3150  0.1639
 2861SOL     OW11441   2.086   0.895   0.197  0.3953  0.1488  0.1565
 2861SOL    HW111442   1.991   0.904   0.199  0.3148 -0.6773  0.3580
 2861SOL    HW211443   2.119   0.978   0.231 -0.3035 -0.3326  2.1185
 2861SOL     MW11444   2.078   0.907   0.201  0.2955 -0.0186  0.4335
 2862SOL     OW11445   3.702   3.984   0.696 -0.1454 -0.1495 -0.0952
 2862SOL    HW111446   3.768   3.920   0.670 -0.1736  0.3617 -1.5336
 2862SOL    HW211447   3.746   4.040   0.760 -0.1546 -1.6295  1.2778
 2862SOL     MW11448   3.716   3.983   0.701 -0.1502 -0.2735 -0.1035
 2863SOL     OW11449   5.009   4.555   4.712  0.3995 -0.1000  0.0383
 2863SOL    HW111450   5.015   4.579   4.804  3.4593  0.6840 -0.2354
 2863SOL    HW211451   5.012   4.639   4.665 -0.1102 -0.5352 -0.7938
 2863SOL     MW11452   5.010   4.569   4.718  0.7259 -0.0554 -0.1033
 2864SOL     OW11453   0.780   3.290   0.577  0.3741  0.3446  0.3868
 2864SOL    HW111454   0.846   3.222   0.591 -0.0069 -0.1334 -0.0880
 2864SOL    HW211455   0.738   3.266   0.495 -2.1641 -0.8385  1.9163
 2864SOL     MW11456   0.783   3.278   0.568  0.0004  0.1320  0.5218
 2865SOL     OW11457   0.113   0.511   4.361  0.5876 -0.2932 -0.3010
 2865SOL    HW111458   0.045   0.444   4.361 -1.7178  1.8536 -1.7106
 2865SOL    HW211459   0.159   0.498   4.279 -0.1434  0.0640 -0.7812
 2865SOL     MW11460   0.110   0.501   4.351  0.1989  0.0273 -0.5429
 2866SOL     OW11461   3.363   0.474   5.305 -0.0819  0.1198 -0.0084
 2866SOL    HW111462   3.304   0.549   5.295  0.5593  0.6061 -0.1686
 2866SOL    HW211463   3.330   0.428   5.383 -0.5098  0.5338  0.0570
 2866SOL     MW11464   3.351   0.477   5.314 -0.0546  0.2350 -0.0205
 2867SOL     OW11465   3.346   2.033   2.376 -0.1848  0.1047 -0.3569
 2867SOL    HW111466   3.393   1.984   2.309  1.4703 -0.7966  1.3593
 2867SOL    HW211467   3.258   2.043   2.342  0.0375 -2.1481 -1.7464
 2867SOL     MW11468   3.341   2.028   2.363  0.0555 -0.2991 -0.3151
 2868SOL     OW11469   0.218   0.489   3.295 -0.3487  0.0527 -0.5728
 2868SOL    HW111470   0.240   0.521   3.208 -0.0874  0.3078 -0.4131
 2868SOL    HW211471   0.164   0.559   3.333 -1.1880 -0.4294 -0.8457
 2868SOL     MW11472   0.214   0.502   3.289 -0.4227  0.0236 -0.5873
 2869SOL     OW11473   0.429   1.796   4.910  0.2844 -0.3155  0.5572
 2869SOL    HW111474   0.424   1.840   4.995  1.4541  0.6228  0.1710
 2869SOL    HW211475   0.506   1.740   4.917  0.0292 -0.6979  0.3207
 2869SOL     MW11476   0.438   1.795   4.922  0.4015 -0.2444  0.4775
 2870SOL     OW11477   3.745   2.598   1.644 -0.3874 -0.3123  0.7002
 2870SOL    HW111478   3.806   2.530   1.672  0.4636  0.1147 -0.0516
 2870SOL    HW211479   3.796   2.679   1.649 -0.5306 -0.0880 -1.0035
 2870SOL     MW11480   3.760   2.600   1.648 -0.2968 -0.2290  0.3859
 2871SOL     OW11481   2.075   0.540   4.445 -0.1090  0.1655 -0.0665
 2871SOL    HW111482   2.067   0.446   4.458  0.5447  0.3985  2.4195
 2871SOL    HW211483   2.116   0.573   4.525  1.0250  2.3964 -1.4478
 2871SOL     MW11484   2.079   0.532   4.457  0.1199  0.4809  0.0749
 2872SOL     OW11485   5.400   3.576   0.374  0.1973 -0.0742 -0.1852
 2872SOL    HW111486   5.471   3.513   0.362 -0.0771 -0.0712 -2.2881
 2872SOL    HW211487   5.376   3.568   0.466  0.8891 -2.2666 -0.1252
 2872SOL     MW11488   5.406   3.567   0.384  0.2507 -0.3545 -0.4467
 2873SOL     OW11489   0.368   1.082   3.602 -0.1495  0.5129 -0.4600
 2873SOL    HW111490   0.336   1.114   3.686 -0.5176 -0.2061 -0.3200
 2873SOL    HW211491   0.456   1.118   3.594  0.4927 -0.6698  0.9533
 2873SOL     MW11492   0.375   1.091   3.612 -0.1144  0.2695 -0.2611
 2874SOL     OW11493   0.992   4.131   1.945 -0.4885  0.1104 -0.4161
 2874SOL    HW111494   0.987   4.080   1.864  1.3089 -0.2646 -0.3437
 2874SOL    HW211495   0.972   4.068   2.014  0.5140 -0.2230 -0.4125
 2874SOL     MW11496   0.989   4.116   1.943 -0.1301  0.0197 -0.4064
 2875SOL     OW11497   4.383   2.857   5.162 -0.3943  0.5808 -0.1324
 2875SOL    HW111498   4.332   2.777   5.153 -0.5852  0.7485 -0.5665
 2875SOL    HW211499   4.471   2.832   5.134 -0.3427  0.4060  0.1830
 2875SOL     MW11500   4.388   2.844   5.157 -0.4121  0.5799 -0.1476
 2876SOL     OW11501   4.153   1.708   0.766  0.1149 -0.1224  0.1170
 2876SOL    HW111502   4.205   1.711   0.847  0.1304  1.0017  0.0874
 2876SOL    HW211503   4.063   1.693   0.795  0.0679  0.6326  0.3839
 2876SOL     MW11504   4.148   1.707   0.780  0.1109  0.1181  0.1474
 2877SOL     OW11505   1.402   4.872   5.024  0.8858 -0.0006 -0.0661
 2877SOL    HW111506   1.348   4.897   5.099  1.8626 -0.1326  0.7079
 2877SOL    HW211507   1.442   4.789   5.051  0.9541 -0.2371 -0.8872
 2877SOL     MW11508   1.400   4.864   5.037  1.0196 -0.0478 -0.0721
 2878SOL     OW11509   4.949   4.329   4.014 -0.1920 -0.2736  0.0947
 2878SOL    HW111510   4.910   4.293   4.094  0.4742 -1.9076 -0.2798
 2878SOL    HW211511   4.963   4.253   3.958  3.0140  0.2752 -0.0234
 2878SOL     MW11512   4.946   4.315   4.017  0.3037 -0.4125  0.0316
 2879SOL     OW11513   2.201   0.087   3.146  0.2660 -0.7641  0.6151
 2879SOL    HW111514   2.201   0.151   3.216  1.9187  1.1095 -0.9810
 2879SOL    HW211515   2.114   0.095   3.105  0.4131  0.4223  0.4997
 2879SOL     MW11516   2.190   0.096   3.149  0.4964 -0.3724  0.3960
 2880SOL     OW11517   1.682   1.757   5.195  0.1193 -0.3744  0.3006
 2880SOL    HW111518   1.614   1.781   5.259 -0.4087 -1.2000  0.0692
 2880SOL    HW211519   1.745   1.707   5.246  0.3398  0.0157  0.4214
 2880SOL     MW11520   1.681   1.754   5.210  0.0800 -0.4301  0.2864
 2881SOL     OW11521   4.486   2.135   2.830 -0.2556 -0.6908  0.1636
 2881SOL    HW111522   4.474   2.229   2.845 -0.7628 -0.7643  0.2330
 2881SOL    HW211523   4.480   2.096   2.917 -1.5401 -0.9418 -0.0138
 2881SOL     MW11524   4.484   2.142   2.843 -0.4850 -0.7324  0.1498
 2882SOL     OW11525   0.922   3.246   0.198  0.1786 -0.0114  0.6406
 2882SOL    HW111526   0.920   3.301   0.119  0.4265 -0.4363  0.3336
 2882SOL    HW211527   0.837   3.261   0.240 -0.1505 -0.1463  0.0374
 2882SOL     MW11528   0.910   3.255   0.193  0.1682 -0.0831  0.5241
 2883SOL     OW11529   0.254   5.048   0.999 -0.0025  0.0451 -0.1795
 2883SOL    HW111530   0.330   5.105   0.993 -0.2807  0.2521 -3.0725
 2883SOL    HW211531   0.271   4.979   0.936 -2.0643 -0.0527 -0.6871
 2883SOL     MW11532   0.266   5.047   0.990 -0.3020  0.0591 -0.6149
 2884SOL     OW11533   4.977   1.637   3.841  0.2408  0.1017  0.2086
 2884SOL    HW111534   4.910   1.669   3.902  1.7629  1.3905  1.3077
 2884SOL    HW211535   4.980   1.704   3.772 -0.0992 -0.3398 -0.2442
 2884SOL     MW11536   4.969   1.650   3.840  0.3922  0.2102  0.2913
 2885SOL     OW11537   2.395   5.075   1.242  0.3223 -0.4410 -0.0823
 2885SOL    HW111538   2.459   5.007   1.227 -0.8844 -1.7162  0.3124
 2885SOL    HW211539   2.378   5.072   1.336 -1.6683 -1.4618 -0.4155
 2885SOL     MW11540   2.401   5.066   1.252 -0.0870 -0.7349 -0.0744
 2886SOL     OW11541   3.933   1.124   2.914  0.3552 -0.4913 -0.7971
 2886SOL    HW111542   4.022   1.140   2.945  0.0571 -0.1211 -0.1170
 2886SOL    HW211543   3.929   1.029   2.900  0.7314 -0.5605 -0.4382
 2886SOL     MW11544   3.944   1.114   2.916  0.3652 -0.4528 -0.6641
 2887SOL     OW11545   0.385   0.805   5.199 -0.4380 -0.8144 -0.3344
 2887SOL    HW111546   0.360   0.836   5.112 -0.5972  0.1681  0.0444
 2887SOL    HW211547   0.474   0.838   5.211 -0.3714 -1.0531 -0.1687
 2887SOL     MW11548   0.393   0.813   5.189 -0.4499 -0.7191 -0.2647
 2888SOL     OW11549   1.014   3.503   1.395 -0.3569 -0.3095  0.1011
 2888SOL    HW111550   1.058   3.485   1.312 -1.6336 -0.6667 -0.5272
 2888SOL    HW211551   0.960   3.426   1.411 -0.1416 -0.2403  1.2732
 2888SOL     MW11552   1.012   3.491   1.387 -0.4927 -0.3463  0.1707
 2889SOL     OW11553   5.004   0.573   1.647 -0.2573 -0.5261  0.1455
 2889SOL    HW111554   5.050   0.493   1.622 -1.1032 -0.8622 -0.3769
 2889SOL    HW211555   5.013   0.631   1.572  0.3582 -0.1271  0.5261
 2889SOL     MW11556   5.011   0.570   1.634 -0.2868 -0.5181  0.1273
 2890SOL     OW11557   1.245   4.525   1.193  0.2201 -0.0272 -0.6995
 2890SOL    HW111558   1.229   4.535   1.099  0.1760  0.1260 -0.6764
 2890SOL    HW211559   1.246   4.430   1.207  1.7828 -0.0893 -1.1110
 2890SOL     MW11560   1.243   4.514   1.183  0.4145 -0.0155 -0.7492
 2891SOL     OW11561   1.538   0.045   4.646 -0.1519  0.3295  0.2424
 2891SOL    HW111562   1.445   0.025   4.638  0.3146 -1.7279 -0.7865
 2891SOL    HW211563   1.572  -0.025   4.702  1.2157 -0.5522 -1.5968
 2891SOL     MW11564   1.530   0.033   4.652  0.0829 -0.0468 -0.1248
 2892SOL     OW11565   2.563   5.171   1.620  0.2573  0.0732  0.1262
 2892SOL    HW111566   2.634   5.204   1.564 -0.8169  0.9567 -0.7707
 2892SOL    HW211567   2.607   5.121   1.688  1.6393 -0.8790 -1.4070
 2892SOL     MW11568   2.578   5.169   1.621  0.2967  0.0644 -0.1849
 2893SOL     OW11569   0.061   3.754   5.179  0.1237  0.0336 -0.0747
 2893SOL    HW111570   0.018   3.723   5.100  0.5188 -0.1495 -0.2205
 2893SOL    HW211571   0.117   3.826   5.150  0.6963 -0.3975 -0.0576
 2893SOL     MW11572   0.063   3.760   5.165  0.2476 -0.0450 -0.0912
 2894SOL     OW11573   1.588   3.258   4.205 -0.0995 -0.0344 -0.3498
 2894SOL    HW111574   1.593   3.332   4.144  1.6784 -0.2605 -0.5068
 2894SOL    HW211575   1.646   3.192   4.168 -0.6579 -1.0149  0.4824
 2894SOL     MW11576   1.596   3.259   4.193  0.0566 -0.1888 -0.2634
 2895SOL     OW11577   5.199   4.340   4.189  1.2183  0.1976 -0.1349
 2895SOL    HW111578   5.126   4.334   4.127  1.9488  0.3008 -1.0223
 2895SOL    HW211579   5.276   4.318   4.137  1.8901  0.6259  0.6644
 2895SOL     MW11580   5.199   4.336   4.174  1.3978  0.2656 -0.1462
 2896SOL     OW11581   0.217   4.051   2.142 -0.1245 -0.1896 -0.6163
 2896SOL    HW111582   0.290   3.990   2.129  0.8580  1.2201 -1.9555
 2896SOL    HW211583   0.229   4.119   2.076  0.4085  2.9900  2.4527
 2896SOL     MW11584   0.228   4.052   2.132  0.0695  0.3979 -0.3949
 2897SOL     OW11585   0.201   1.499   2.220  0.2204 -0.2286 -0.4695
 2897SOL    HW111586   0.199   1.415   2.173  0.5319 -0.8788  0.6464
 2897SOL    HW211587   0.180   1.477   2.310 -1.2587  1.1231 -0.4365
 2897SOL     MW11588   0.198   1.485   2.225  0.0709 -0.1388 -0.3224
 2898SOL     OW11589   1.221   4.288   1.786 -0.1797  0.4304  0.1980
 2898SOL    HW111590   1.181   4.207   1.818 -1.8472  1.5687  1.1663
 2898SOL    HW211591   1.248   4.334   1.866 -2.3662  2.3267 -0.0799
 2898SOL     MW11592   1.220   4.283   1.800 -0.6730  0.8189  0.2864
 2899SOL     OW11593   0.297   3.230   0.563 -0.1232 -0.1347 -0.1736
 2899SOL    HW111594   0.354   3.188   0.498 -0.3682 -1.5309  0.4721
 2899SOL    HW211595   0.222   3.171   0.571 -0.4692  0.4065  0.7984
 2899SOL     MW11596   0.295   3.217   0.556 -0.1989 -0.2442  0.0335
 2900SOL     OW11597   1.093   3.118   1.954 -0.0248 -0.1303 -0.1969
 2900SOL    HW111598   1.030   3.179   1.916  1.5734  1.7731  0.0516
 2900SOL    HW211599   1.154   3.100   1.883 -0.5288 -1.5942 -0.2980
 2900SOL     MW11600   1.093   3.124   1.940  0.1153 -0.0740 -0.1780
 2901SOL     OW11601   5.357   5.304   2.015  0.2131 -0.1660 -0.3515
 2901SOL    HW111602   5.313   5.383   1.984  1.4132  0.7585  0.2076
 2901SOL    HW211603   5.447   5.314   1.984 -0.0382 -2.2691 -1.9712
 2901SOL     MW11604   5.363   5.316   2.007  0.3346 -0.3169 -0.4873
 2902SOL     OW11605   5.303   4.071   3.126  0.2773  0.0021 -0.2303
 2902SOL    HW111606   5.230   4.120   3.086  0.9547 -0.1724 -1.7498
 2902SOL    HW211607   5.267   4.038   3.208 -1.0931  0.6571 -0.5323
 2902SOL     MW11608   5.289   4.073   3.131  0.1886  0.0636 -0.4635
 2903SOL     OW11609   3.910   2.809   1.676  0.2582 -0.3157 -0.0339
 2903SOL    HW111610   3.891   2.823   1.768  1.5718 -0.5221  0.2880
 2903SOL    HW211611   3.978   2.872   1.655  2.0221 -2.1532 -0.0971
 2903SOL     MW11612   3.916   2.819   1.685  0.6522 -0.5774 -0.0008
 2904SOL     OW11613   4.586   0.493   4.578 -0.1750  0.3928  0.2154
 2904SOL    HW111614   4.638   0.572   4.562  0.2764 -0.0626 -0.6716
 2904SOL    HW211615   4.577   0.453   4.492  0.2253 -0.9018  0.7571
 2904SOL     MW11616   4.592   0.498   4.565 -0.0660  0.1688  0.1712
 2905SOL     OW11617   3.648   3.881   3.311 -0.2166  0.1252  0.0067
 2905SOL    HW111618   3.572   3.846   3.357  0.6887 -0.8372  0.8069
 2905SOL    HW211619   3.681   3.950   3.368  0.4259 -0.5242  0.4437
 2905SOL     MW11620   3.643   3.885   3.324 -0.0184 -0.0811  0.1651
 2906SOL     OW11621   3.616   0.351   3.862  0.0402 -0.0325 -0.0907
 2906SOL    HW111622   3.617   0.283   3.794  2.3985 -1.3711  1.1420
 2906SOL    HW211623   3.534   0.398   3.848 -0.1352 -1.0291 -3.0601
 2906SOL     MW11624   3.606   0.348   3.851  0.3197 -0.3314 -0.3130
 2907SOL     OW11625   2.352   3.607   4.079 -0.2275 -0.1393  0.1075
 2907SOL    HW111626   2.315   3.680   4.129 -2.0757 -0.4344 -0.7549
 2907SOL    HW211627   2.350   3.533   4.140  1.6083  0.4759  0.9693
 2907SOL     MW11628   2.347   3.607   4.093 -0.2291 -0.0983  0.1074
 2908SOL     OW11629   4.026   0.319   0.130 -0.3408 -0.0507 -0.2483
 2908SOL    HW111630   4.103   0.340   0.077 -1.4740 -0.5536 -2.2163
 2908SOL    HW211631   4.017   0.393   0.190 -0.3043  1.7831 -2.3608
 2908SOL     MW11632   4.035   0.331   0.131 -0.4812  0.1197 -0.7706
 2909SOL     OW11633   5.287   3.704   0.988  0.2187  0.3670 -0.3141
 2909SOL    HW111634   5.217   3.733   1.047  1.1611  0.3984  0.8355
 2909SOL    HW211635   5.247   3.704   0.901 -1.2680  0.1308  0.3443
 2909SOL     MW11636   5.273   3.708   0.984  0.1490  0.3408 -0.0826
 2910SOL     OW11637   0.361   0.782   3.554  0.1534 -0.0556  0.3246
 2910SOL    HW111638   0.375   0.864   3.602  1.0932 -0.4049  0.6629
 2910SOL    HW211639   0.449   0.747   3.539 -0.0956  0.1127 -1.8039
 2910SOL     MW11640   0.374   0.788   3.558  0.2418 -0.0788  0.0954
 2911SOL     OW11641   4.989   2.098   4.574  0.5428 -0.0488 -0.5039
 2911SOL    HW111642   5.082   2.078   4.568  0.2308 -1.3586 -1.3930
 2911SOL    HW211643   4.955   2.040   4.642  0.3930  0.4588 -0.1462
 2911SOL     MW11644   4.996   2.088   4.582  0.4837 -0.1515 -0.5719
 2912SOL     OW11645   2.165   2.916   1.906  0.1439  0.5396 -0.3961
 2912SOL    HW111646   2.200   2.871   1.829  0.3310  0.0975 -0.0573
 2912SOL    HW211647   2.232   2.980   1.930  1.2696 -1.0266  0.8967
 2912SOL     MW11648   2.178   2.918   1.900  0.3119  0.2825 -0.1872
 2913SOL     OW11649   3.237   5.053   3.388 -0.0674 -0.1467 -0.0979
 2913SOL    HW111650   3.317   5.106   3.388  0.2399 -0.6025 -0.0361
 2913SOL    HW211651   3.180   5.096   3.451 -0.4062  0.9607 -1.1345
 2913SOL     MW11652   3.240   5.065   3.396 -0.0714 -0.0633 -0.2226
 2914SOL     OW11653   3.860   0.699   4.076 -0.4538 -0.3069  0.3819
 2914SOL    HW111654   3.865   0.607   4.050  0.5762 -0.5470  1.3158
 2914SOL    HW211655   3.941   0.737   4.042 -0.9347  0.2903 -0.1086
 2914SOL     MW11656   3.871   0.692   4.068 -0.3835 -0.2612  0.4387
 2915SOL     OW11657   4.763   1.236   0.540 -0.6237  0.5373 -0.3026
 2915SOL    HW111658   4.859   1.229   0.544 -0.6158  1.0692  0.4529
 2915SOL    HW211659   4.746   1.324   0.508 -0.8673  0.4514 -0.4147
 2915SOL     MW11660   4.773   1.246   0.536 -0.6539  0.5944 -0.2202
 2916SOL     OW11661   1.698   4.519   0.276  0.3028 -0.5126  0.0486
 2916SOL    HW111662   1.746   4.487   0.353 -0.2040 -0.9504  0.1868
 2916SOL    HW211663   1.750   4.593   0.245  0.6742 -0.5205  0.6317
 2916SOL     MW11664   1.711   4.524   0.282  0.2855 -0.5697  0.1409
 2917SOL     OW11665   3.670   4.097   2.042 -0.0808  0.2150 -0.2685
 2917SOL    HW111666   3.716   4.099   2.126 -0.8841 -0.0273  0.1913
 2917SOL    HW211667   3.609   4.024   2.051 -0.6544  0.6249 -0.8033
 2917SOL     MW11668   3.668   4.088   2.054 -0.2571  0.2364 -0.2781
 2918SOL     OW11669   1.470   3.047   2.446  0.2976  0.3002 -0.7740
 2918SOL    HW111670   1.442   2.978   2.506 -1.5791  2.5505  1.1166
 2918SOL    HW211671   1.548   3.011   2.403 -0.7411 -3.0669 -0.1551
 2918SOL     MW11672   1.477   3.034   2.448 -0.0756  0.1573 -0.4527
 2919SOL     OW11673   3.524   3.532   4.530 -0.3760 -0.8889  0.0401
 2919SOL    HW111674   3.484   3.579   4.456  1.3937  1.1586  0.2824
 2919SOL    HW211675   3.464   3.548   4.603 -0.3251  0.1704 -0.1302
 2919SOL     MW11676   3.511   3.540   4.530 -0.1429 -0.4912  0.0493
 2920SOL     OW11677   0.638   4.787   2.068 -0.0634 -0.4411  0.5241
 2920SOL    HW111678   0.691   4.708   2.056  0.6487 -0.0592  1.0996
 2920SOL    HW211679   0.549   4.753   2.078  0.1593 -1.1384  0.2547
 2920SOL     MW11680   0.633   4.772   2.068  0.0563 -0.4815  0.5633
 2921SOL     OW11681   5.392   0.128   5.296 -0.0675  0.2713  0.4430
 2921SOL    HW111682   5.419   0.038   5.316 -0.5353 -0.5709 -2.2663
 2921SOL    HW211683   5.471   0.180   5.311  0.7654 -0.8917  0.2734
 2921SOL     MW11684   5.406   0.123   5.300 -0.0207  0.0146  0.0744
 2922SOL     OW11685   0.463   4.909   2.514  0.0962 -0.0227  0.0260
 2922SOL    HW111686   0.511   4.900   2.596  0.3384  2.7078  0.2825
 2922SOL    HW211687   0.492   4.994   2.479 -1.8086  0.0031 -1.6516
 2922SOL     MW11688   0.473   4.919   2.520 -0.1166  0.3301 -0.1559
 2923SOL     OW11689   0.386   0.601   4.254 -0.3322 -0.0225  0.0378
 2923SOL    HW111690   0.401   0.509   4.274 -0.7684 -0.2808 -0.7785
 2923SOL    HW211691   0.451   0.648   4.306  1.5758 -0.9259 -1.4374
 2923SOL     MW11692   0.396   0.595   4.263 -0.1438 -0.1712 -0.2556
 2924SOL     OW11693   4.880   3.645   4.572 -0.5155 -0.7751 -0.3184
 2924SOL    HW111694   4.791   3.656   4.540 -0.6106 -0.7221 -0.0375
 2924SOL    HW211695   4.873   3.656   4.667 -0.0624  0.1230 -0.3780
 2924SOL     MW11696   4.868   3.647   4.580 -0.4697 -0.6533 -0.2900
 2925SOL     OW11697   4.871   2.952   3.670 -0.4340  0.2278  0.3186
 2925SOL    HW111698   4.815   2.886   3.712 -0.5846 -0.1162 -0.4081
 2925SOL    HW211699   4.959   2.915   3.676 -0.7197 -0.9276 -1.6686
 2925SOL     MW11700   4.875   2.939   3.676 -0.4898  0.0359 -0.0288
 2926SOL     OW11701   3.857   1.926   2.135 -0.2849  0.0835 -0.1553
 2926SOL    HW111702   3.800   1.965   2.201 -0.0784  0.1137  0.0055
 2926SOL    HW211703   3.796   1.888   2.071 -0.4921 -0.3498  0.2856
 2926SOL     MW11704   3.842   1.926   2.135 -0.2850  0.0319 -0.0783
 2927SOL     OW11705   2.214   5.072   5.019  0.0781  0.5064 -0.6206
 2927SOL    HW111706   2.221   5.151   5.072 -1.7637  0.4964 -0.2957
 2927SOL    HW211707   2.222   5.103   4.928 -0.0644  0.9757 -0.4731
 2927SOL     MW11708   2.216   5.086   5.014 -0.1759  0.5652 -0.5601
 2928SOL     OW11709   5.261   2.311   4.526 -0.0153 -0.5826  0.3536
 2928SOL    HW111710   5.227   2.336   4.440  0.6482 -0.7371  0.0374
 2928SOL    HW211711   5.307   2.389   4.557 -0.1883 -0.5527  0.5373
 2928SOL     MW11712   5.263   2.324   4.519  0.0475 -0.5985  0.3366
 2929SOL     OW11713   3.086   3.020   1.976 -0.2761 -0.5638 -0.0794
 2929SOL    HW111714   3.029   2.943   1.983  1.0211 -1.5038  0.3720
 2929SOL    HW211715   3.139   3.018   2.055  0.4597  0.2526 -0.5353
 2929SOL     MW11716   3.085   3.010   1.987 -0.0158 -0.5796 -0.0800
 2930SOL     OW11717   0.136   1.837   5.311  0.5715 -0.2136 -0.3375
 2930SOL    HW111718   0.092   1.757   5.281  0.2954 -0.1238 -0.1740
 2930SOL    HW211719   0.225   1.830   5.276 -0.0768  0.4669 -2.2229
 2930SOL     MW11720   0.142   1.826   5.303  0.4532 -0.1150 -0.5579
 2931SOL     OW11721   3.069   2.043   3.209  0.2240 -0.6301 -0.1306
 2931SOL    HW111722   3.089   2.092   3.129 -0.8730  1.7180  0.9279
 2931SOL    HW211723   2.995   1.987   3.185  0.1684 -0.2488 -0.8910
 2931SOL     MW11724   3.062   2.042   3.196  0.0765 -0.2807 -0.0924
 2932SOL     OW11725   2.200   1.446   2.955  0.1027  0.3667 -0.5324
 2932SOL    HW111726   2.143   1.432   2.880 -2.1489 -0.2136  1.1709
 2932SOL    HW211727   2.229   1.358   2.980  0.6735  0.5378 -0.5670
 2932SOL     MW11728   2.197   1.433   2.949 -0.1125  0.3143 -0.3188
 2933SOL     OW11729   0.287   3.682   3.595 -0.0082  0.4088  0.2057
 2933SOL    HW111730   0.219   3.615   3.590  0.6410 -0.3032  0.6249
 2933SOL    HW211731   0.331   3.665   3.679 -0.8752  2.4009  1.1125
 2933SOL     MW11732   0.284   3.671   3.605 -0.0361  0.5726  0.3755
 2934SOL     OW11733   5.197   0.308   1.251 -0.0235  0.4554  0.0581
 2934SOL    HW111734   5.164   0.289   1.163 -0.3158  1.0268  0.0445
 2934SOL    HW211735   5.280   0.353   1.236  0.2338 -0.0016  0.0846
 2934SOL     MW11736   5.204   0.311   1.238 -0.0280  0.4701  0.0597
 2935SOL     OW11737   1.838   4.625   1.699  0.2205 -0.3311 -0.1862
 2935SOL    HW111738   1.793   4.678   1.633 -0.5483  0.0531  0.6221
 2935SOL    HW211739   1.779   4.625   1.775  0.9600 -0.9791  0.4153
 2935SOL     MW11740   1.824   4.632   1.700  0.2167 -0.3649 -0.0057
 2936SOL     OW11741   2.691   1.107   0.399 -0.1363  0.0606  0.3983
 2936SOL    HW111742   2.675   1.147   0.484  0.0548  0.2478  0.3457
 2936SOL    HW211743   2.604   1.079   0.369 -0.1235 -0.5859  0.9424
 2936SOL     MW11744   2.678   1.109   0.406 -0.1102  0.0018  0.4612
 2937SOL     OW11745   4.195   3.706   4.182  0.0937 -0.0199  0.0776
 2937SOL    HW111746   4.179   3.629   4.129 -1.0725 -0.2345  0.7180
 2937SOL    HW211747   4.285   3.731   4.161  0.1848 -1.0190 -0.7972
 2937SOL     MW11748   4.205   3.699   4.172 -0.0439 -0.1753  0.0476
 2938SOL     OW11749   4.074   4.719   5.034  0.2017 -0.2620  0.2732
 2938SOL    HW111750   4.123   4.639   5.010  1.2489  0.6342 -0.7004
 2938SOL    HW211751   4.071   4.770   4.954 -1.4158  0.2208  0.6119
 2938SOL     MW11752   4.080   4.715   5.021  0.1287 -0.0855  0.1920
 2939SOL     OW11753   4.576   1.743   4.527 -0.1690 -0.6864  0.1277
 2939SOL    HW111754   4.575   1.771   4.435 -0.1560 -1.0959  0.0009
 2939SOL    HW211755   4.485   1.722   4.546 -0.3422  0.3445  0.5088
 2939SOL     MW11756   4.564   1.744   4.517 -0.1895 -0.6069  0.1603
 2940SOL     OW11757   3.272   5.026   4.778 -0.4586 -0.2285 -0.4003
 2940SOL    HW111758   3.221   5.029   4.697 -1.5380  1.3087  0.2952
 2940SOL    HW211759   3.361   5.004   4.749 -0.7426  0.6230 -2.0373
 2940SOL     MW11760   3.277   5.023   4.764 -0.6331  0.0773 -0.5209
 2941SOL     OW11761   2.920   4.162   0.731 -0.1823  0.1350 -0.2771
 2941SOL    HW111762   2.849   4.195   0.786  0.1228  0.3724 -0.0209
 2941SOL    HW211763   2.905   4.203   0.646 -0.2021  0.3938 -0.1496
 2941SOL     MW11764   2.909   4.172   0.727 -0.1458  0.1985 -0.2280
 2942SOL     OW11765   1.691   4.312   3.334 -0.7318  0.0572  0.1268
 2942SOL    HW111766   1.783   4.337   3.345 -1.2040  0.7220  4.2119
 2942SOL    HW211767   1.646   4.395   3.319 -0.8530 -0.0936 -0.3643
 2942SOL     MW11768   1.697   4.326   3.333 -0.8078  0.1230  0.5869
 2943SOL     OW11769   4.067   4.176   1.717  0.0189 -0.0363 -0.2291
 2943SOL    HW111770   4.036   4.249   1.662 -0.7028 -0.0354  0.1595
 2943SOL    HW211771   4.077   4.215   1.804  0.6540 -0.1582 -0.2471
 2943SOL     MW11772   4.064   4.190   1.721  0.0078 -0.0518 -0.1817
 2944SOL     OW11773   0.051   0.087   3.176  0.0984  0.4911  0.4954
 2944SOL    HW111774   0.014   0.175   3.182 -0.1478  0.3335  1.6655
 2944SOL    HW211775   0.095   0.074   3.260 -0.2077 -0.6425  0.5054
 2944SOL     MW11776   0.052   0.096   3.188  0.0277  0.3258  0.6465
 2945SOL     OW11777   0.341   2.460   2.034 -0.3782 -0.4060  0.0181
 2945SOL    HW111778   0.364   2.552   2.023 -1.1729  0.0591  1.8713
 2945SOL    HW211779   0.301   2.434   1.951 -2.7282  1.7340  0.3915
 2945SOL     MW11780   0.339   2.468   2.022 -0.7808 -0.0725  0.3031
 2946SOL     OW11781   3.779   0.541   5.148  0.2668 -0.0105  0.0744
 2946SOL    HW111782   3.729   0.557   5.227 -0.0447  1.8391 -0.4647
 2946SOL    HW211783   3.869   0.533   5.177  0.0766 -0.0185  0.6686
 2946SOL     MW11784   3.784   0.542   5.162  0.2025  0.2253  0.0815
 2947SOL     OW11785   1.563   1.811   1.094 -0.5186 -0.0186  0.1007
 2947SOL    HW111786   1.495   1.745   1.083 -0.3765 -0.6797  2.5363
 2947SOL    HW211787   1.589   1.803   1.186  0.5961  2.3997  0.0664
 2947SOL     MW11788   1.557   1.801   1.104 -0.3577  0.2063  0.4081
 2948SOL     OW11789   3.713   3.049   3.165  0.2263 -0.1952  0.6149
 2948SOL    HW111790   3.640   3.104   3.197  0.7740  1.1008 -0.2711
 2948SOL    HW211791   3.717   2.976   3.227 -2.4022 -0.8002  0.1881
 2948SOL     MW11792   3.704   3.047   3.177 -0.0400 -0.1067  0.4469
 2949SOL     OW11793   3.659   0.794   3.537 -0.2987 -0.2982 -0.5060
 2949SOL    HW111794   3.603   0.729   3.579  0.5710  0.0745  1.3192
 2949SOL    HW211795   3.699   0.841   3.609 -0.0841  1.5788 -1.7828
 2949SOL     MW11796   3.657   0.791   3.551 -0.1599 -0.0102 -0.4358
 2950SOL     OW11797   1.475   2.190   3.398 -0.1086  0.4997  0.5381
 2950SOL    HW111798   1.475   2.107   3.349  0.8605  0.4759  0.5602
 2950SOL    HW211799   1.556   2.189   3.447 -0.2863  1.2854  0.8655
 2950SOL     MW11800   1.485   2.179   3.398 -0.0073  0.5972  0.5828
 2951SOL     OW11801   0.649   2.512   0.154 -0.4681  0.3770 -0.0755
 2951SOL    HW111802   0.561   2.484   0.179 -0.2864 -0.6338 -0.4935
 2951SOL    HW211803   0.651   2.605   0.172 -1.4518  0.3098  0.4388
 2951SOL     MW11804   0.638   2.520   0.159 -0.5708  0.2390 -0.0632
 2952SOL     OW11805   3.279   4.324   2.264 -0.3289  0.2279 -0.4345
 2952SOL    HW111806   3.233   4.245   2.294 -0.6453  0.4756 -0.2548
 2952SOL    HW211807   3.215   4.394   2.276 -0.8847  0.1885 -2.7326
 2952SOL     MW11808   3.265   4.323   2.269 -0.4406  0.2546 -0.7057
 2953SOL     OW11809   1.514   1.940   3.294 -0.2372  0.0499 -0.1937
 2953SOL    HW111810   1.422   1.919   3.310 -0.2377  1.0815  1.3043
 2953SOL    HW211811   1.563   1.877   3.347 -0.1323  0.7397  0.5366
 2953SOL     MW11812   1.508   1.929   3.303 -0.2238  0.2703  0.0916
 2954SOL     OW11813   1.534   5.445   2.363 -0.0837 -0.2117  0.3118
 2954SOL    HW111814   1.464   5.480   2.418  0.7470 -0.8033  1.8176
 2954SOL    HW211815   1.533   5.351   2.380 -0.4035 -0.5446 -1.4361
 2954SOL     MW11816   1.525   5.438   2.372 -0.0183 -0.3301  0.2808
 2955SOL     OW11817   5.343   3.195   5.277 -0.4921  0.4299 -0.5171
 2955SOL    HW111818   5.358   3.214   5.184  1.2479  1.5295 -0.0702
 2955SOL    HW211819   5.335   3.282   5.317  0.9327  0.0486  0.6527
 2955SOL     MW11820   5.344   3.209   5.270 -0.0870  0.5218 -0.3101
 2956SOL     OW11821   3.724   4.239   4.432 -0.4897  0.3533 -0.3953
 2956SOL    HW111822   3.813   4.219   4.403 -0.6986 -0.9509 -0.1897
 2956SOL    HW211823   3.705   4.324   4.392  1.3283  1.3228  0.6550
 2956SOL     MW11824   3.733   4.247   4.423 -0.2837  0.3105 -0.2345
 2957SOL     OW11825   3.282   0.556   0.360 -0.1224 -0.1979 -0.1129
 2957SOL    HW111826   3.228   0.553   0.438 -3.4689 -0.6131 -2.2613
 2957SOL    HW211827   3.345   0.484   0.371 -0.7402 -0.4795  1.9577
 2957SOL     MW11828   3.283   0.546   0.371 -0.6299 -0.2871 -0.1229
 2958SOL     OW11829   1.309   2.890   3.691 -0.0867 -0.0095 -0.3049
 2958SOL    HW111830   1.393   2.906   3.646 -0.0978  0.6839 -0.0910
 2958SOL    HW211831   1.331   2.828   3.761 -0.2006 -1.6678 -1.6728
 2958SOL     MW11832   1.323   2.884   3.694 -0.1027 -0.1330 -0.4526
 2959SOL     OW11833   1.210   1.543   1.230 -0.5307  0.8537 -0.0634
 2959SOL    HW111834   1.194   1.448   1.237  2.8401  0.0055 -1.7559
 2959SOL    HW211835   1.123   1.582   1.237 -2.2713 -2.4644 -0.8336
 2959SOL     MW11836   1.197   1.536   1.232 -0.3220  0.3204 -0.3786
 2960SOL     OW11837   3.373   5.099   2.654  0.2074  0.0377 -0.1008
 2960SOL    HW111838   3.340   5.021   2.609 -0.3072  0.2226 -0.0487
 2960SOL    HW211839   3.387   5.071   2.744  0.1535 -0.0271 -0.1126
 2960SOL     MW11840   3.371   5.085   2.660  0.1346  0.0531 -0.0956
 2961SOL     OW11841   0.612   1.014   0.958  0.0414  0.4924 -0.4399
 2961SOL    HW111842   0.703   0.988   0.974 -0.7514 -2.1963  0.0724
 2961SOL    HW211843   0.614   1.054   0.871  1.4894 -0.8294 -1.0513
 2961SOL     MW11844   0.624   1.016   0.949  0.1252 -0.0210 -0.4526
 2962SOL     OW11845   0.047   2.924   3.760 -0.2715 -0.0042  0.3391
 2962SOL    HW111846   0.066   3.011   3.796 -0.9575 -0.3746  1.6605
 2962SOL    HW211847   0.054   2.936   3.665  1.4222  1.0462  0.5498
 2962SOL     MW11848   0.050   2.937   3.752 -0.1425  0.0828  0.5352
 2963SOL     OW11849   1.130   0.507   3.673 -0.3032  0.1567 -0.0050
 2963SOL    HW111850   1.035   0.503   3.680 -0.2775 -0.9690 -0.0166
 2963SOL    HW211851   1.146   0.557   3.594 -0.9217 -0.5524 -0.5984
 2963SOL     MW11852   1.120   0.513   3.664 -0.3791 -0.0782 -0.0825
 2964SOL     OW11853   1.041   0.222   2.707 -0.0899 -1.3189 -0.2962
 2964SOL    HW111854   0.960   0.214   2.657 -0.5307 -1.6407  0.4426
 2964SOL    HW211855   1.073   0.310   2.687 -0.3389 -1.3876 -1.0129
 2964SOL     MW11856   1.034   0.232   2.698 -0.1782 -1.3689 -0.2934
 2965SOL     OW11857   1.813   0.607   4.414 -0.2496  0.4821  0.2435
 2965SOL    HW111858   1.826   0.693   4.373  0.7046  0.3739  0.2984
 2965SOL    HW211859   1.900   0.582   4.445  0.2409 -1.9488 -2.6355
 2965SOL     MW11860   1.826   0.615   4.413 -0.0646  0.1571 -0.1180
 2966SOL     OW11861   1.741  -0.020   1.811  0.4255  0.2162  0.2338
 2966SOL    HW111862   1.733   0.071   1.842 -0.7725 -0.1904  1.1613
 2966SOL    HW211863   1.670  -0.030   1.747  1.6240  0.4257 -1.1965
 2966SOL     MW11864   1.731  -0.009   1.807  0.4256  0.1910  0.1694
 2967SOL     OW11865   2.708   5.044   1.833  0.0198  0.1604  0.8825
 2967SOL    HW111866   2.733   4.983   1.764  0.1820  0.2887  0.8290
 2967SOL    HW211867   2.715   4.993   1.914  2.0646  0.6436  1.0654
 2967SOL     MW11868   2.712   5.029   1.834  0.3023  0.2387  0.8990
 2968SOL     OW11869   3.222   3.325   2.574 -0.1483  0.0968 -0.4999
 2968SOL    HW111870   3.308   3.333   2.533  0.3679 -1.3188  0.2214
 2968SOL    HW211871   3.241   3.286   2.660 -1.5946 -1.1594 -0.7215
 2968SOL     MW11872   3.236   3.321   2.580 -0.2674 -0.2452 -0.4359
 2969SOL     OW11873   0.731   5.117   0.539  0.1059  0.2855 -0.2704
 2969SOL    HW111874   0.794   5.077   0.478  0.6265  0.8732 -0.1270
 2969SOL    HW211875   0.696   5.043   0.589  2.3409  0.1175  1.2056
 2969SOL     MW11876   0.735   5.102   0.538  0.4587  0.3392 -0.0631
 2970SOL     OW11877   3.159   4.142   0.289  0.0838  0.2824 -0.1641
 2970SOL    HW111878   3.125   4.224   0.324 -0.0754  0.1687 -0.0529
 2970SOL    HW211879   3.211   4.105   0.360  1.0505  0.8138 -0.5821
 2970SOL     MW11880   3.161   4.148   0.303  0.1872  0.3359 -0.2034
 2971SOL     OW11881   0.041   2.161   2.424 -0.5528 -0.6034  0.1229
 2971SOL    HW111882   0.076   2.235   2.374 -1.4183 -0.3977 -0.1997
 2971SOL    HW211883  -0.011   2.202   2.494  1.5181 -0.8630  1.9092
 2971SOL     MW11884   0.039   2.176   2.426 -0.3985 -0.6103  0.3102
 2972SOL     OW11885   0.203   5.232   2.204  0.3118 -0.0922  0.2782
 2972SOL    HW111886   0.156   5.290   2.264 -0.6188 -0.3731 -0.1514
 2972SOL    HW211887   0.292   5.226   2.240  0.1586  0.8509  0.8396
 2972SOL     MW11888   0.208   5.238   2.216  0.1730 -0.0074  0.2951
 2973SOL     OW11889   3.181   1.255   5.127 -0.4501 -0.0119 -0.7161
 2973SOL    HW111890   3.183   1.210   5.042 -0.2958 -1.3291 -0.0430
 2973SOL    HW211891   3.211   1.343   5.108  2.8729 -1.1711 -1.5583
 2973SOL     MW11892   3.185   1.260   5.113 -0.0050 -0.3289 -0.7378
 2974SOL     OW11893   5.219   3.484   0.201  0.1694 -0.0923  0.0784
 2974SOL    HW111894   5.197   3.396   0.233  1.1516 -0.2647  0.2997
 2974SOL    HW211895   5.265   3.525   0.274  0.5811  0.2629 -0.3771
 2974SOL     MW11896   5.222   3.478   0.215  0.3478 -0.0689  0.0484
 2975SOL     OW11897   3.941   0.017   3.274 -0.9215  0.4423  1.1364
 2975SOL    HW111898   3.959   0.061   3.191 -0.3260  1.6994  1.8996
 2975SOL    HW211899   4.002   0.057   3.336 -1.1851 -0.6432  2.1327
 2975SOL     MW11900   3.951   0.028   3.272 -0.8790  0.4643  1.3617
 2976SOL     OW11901   1.604   4.069   3.378  0.1363 -0.3373  0.1857
 2976SOL    HW111902   1.623   4.062   3.472 -1.2916  0.5938  0.5819
 2976SOL    HW211903   1.639   4.155   3.353 -0.1232 -0.2738  0.0360
 2976SOL     MW11904   1.611   4.079   3.387 -0.0797 -0.2100  0.2173
 2977SOL     OW11905   1.207   1.895   3.245 -0.4689  0.0436  0.1900
 2977SOL    HW111906   1.147   1.825   3.220  0.2809 -0.5521  0.0171
 2977SOL    HW211907   1.166   1.936   3.321 -0.0120 -1.8307  1.5069
 2977SOL     MW11908   1.194   1.891   3.251 -0.3144 -0.2726  0.3364
 2978SOL     OW11909   0.973   4.724   0.024 -0.0986 -0.5595  0.2317
 2978SOL    HW111910   1.062   4.708  -0.009  0.0872 -2.2401  1.4086
 2978SOL    HW211911   0.945   4.804  -0.020  1.8973 -0.1327 -0.3644
 2978SOL     MW11912   0.981   4.732   0.014  0.1807 -0.7200  0.3061
 2979SOL     OW11913   2.569   2.126   5.445  0.1646  0.0313  0.5041
 2979SOL    HW111914   2.627   2.050   5.450 -0.9339 -1.3212 -3.6670
 2979SOL    HW211915   2.628   2.201   5.441  1.5007 -1.0112 -0.0457
 2979SOL     MW11916   2.584   2.126   5.445  0.1950 -0.2753 -0.1002
 2980SOL     OW11917   2.245   4.285   0.359  0.0749 -0.3974  0.4590
 2980SOL    HW111918   2.206   4.372   0.351 -0.3039 -0.4943  1.1689
 2980SOL    HW211919   2.174   4.230   0.391  0.3532 -0.9431  0.1569
 2980SOL     MW11920   2.231   4.289   0.362  0.0620 -0.4797  0.5112
 2981SOL     OW11921   1.485   0.761   3.533 -0.5990  0.0612 -0.0253
 2981SOL    HW111922   1.471   0.805   3.617  1.8314  1.6996 -0.3986
 2981SOL    HW211923   1.479   0.830   3.468  2.1786 -0.2572 -0.7348
 2981SOL     MW11924   1.482   0.775   3.536  0.0677  0.2302 -0.1639
 2982SOL     OW11925   3.178   2.029   3.515  0.1336 -0.5788  0.3699
 2982SOL    HW111926   3.220   1.999   3.434 -0.7626  0.1054 -0.3641
 2982SOL    HW211927   3.091   1.990   3.513  0.1357 -0.6365  1.0624
 2982SOL     MW11928   3.173   2.020   3.505  0.0191 -0.4986  0.3646
 2983SOL     OW11929   1.013   2.073   4.248 -0.2636 -0.2565  0.2606
 2983SOL    HW111930   1.093   2.054   4.298 -0.1701 -0.4869  0.0259
 2983SOL    HW211931   0.943   2.029   4.297 -0.0950 -0.9516 -0.1033
 2983SOL     MW11932   1.015   2.065   4.261 -0.2300 -0.3750  0.1840
 2984SOL     OW11933   2.284   3.400   2.456 -0.3976  0.0025  0.5564
 2984SOL    HW111934   2.298   3.394   2.551 -1.7460  1.7805  0.9123
 2984SOL    HW211935   2.244   3.316   2.433  1.2565 -1.0386  1.2619
 2984SOL     MW11936   2.281   3.388   2.465 -0.3585  0.0968  0.6922
 2985SOL     OW11937   4.004   4.141   1.272 -0.1472  0.0432  0.3071
 2985SOL    HW111938   3.933   4.077   1.285  1.4020 -1.7544  0.2968
 2985SOL    HW211939   4.011   4.150   1.177  0.2007 -0.4625  0.2799
 2985SOL     MW11940   3.996   4.134   1.262  0.0957 -0.2517  0.3023
 2986SOL     OW11941   2.697   1.215   0.096 -0.4813 -0.4266  0.5381
 2986SOL    HW111942   2.687   1.279   0.167  0.3444  0.0720  0.2208
 2986SOL    HW211943   2.609   1.183   0.080 -0.4671 -2.1589  3.2637
 2986SOL     MW11944   2.685   1.220   0.103 -0.3738 -0.5846  0.8464
 2987SOL     OW11945   0.502   3.782   4.295 -0.1410 -0.4927 -0.3410
 2987SOL    HW111946   0.548   3.843   4.353 -0.6215 -1.9110  1.6487
 2987SOL    HW211947   0.438   3.836   4.249 -2.2476  0.3191  3.1090
 2987SOL     MW11948   0.500   3.797   4.297 -0.4722 -0.5704  0.3554
 2988SOL     OW11949   4.081   3.595   4.902 -0.1364  0.3161 -0.0886
 2988SOL    HW111950   4.157   3.536   4.896  0.0624  0.5624 -0.0269
 2988SOL    HW211951   4.048   3.581   4.991  1.3716  2.0442  0.8174
 2988SOL     MW11952   4.087   3.586   4.913  0.0821  0.5688  0.0353
 2989SOL     OW11953   2.745   3.341   5.196 -0.3969 -0.4168 -0.2715
 2989SOL    HW111954   2.703   3.362   5.113 -1.0127  1.2589  0.4223
 2989SOL    HW211955   2.742   3.245   5.201 -3.2384 -0.4389 -0.7057
 2989SOL     MW11956   2.740   3.331   5.186 -0.8395 -0.2051 -0.2383
 2990SOL     OW11957   3.632   4.549   1.505 -0.0263  0.0264 -0.3732
 2990SOL    HW111958   3.699   4.591   1.451  0.6716  0.0124  0.4634
 2990SOL    HW211959   3.618   4.609   1.578 -2.2659  0.9211 -1.4325
 2990SOL     MW11960   3.639   4.562   1.507 -0.2236  0.1391 -0.4017
 2991SOL     OW11961   4.532   2.633   2.514 -0.4029  0.8443  0.3119
 2991SOL    HW111962   4.611   2.578   2.513  1.2271  3.0645 -0.0031
 2991SOL    HW211963   4.475   2.595   2.448  0.2476 -0.9967  0.7560
 2991SOL     MW11964   4.535   2.621   2.506 -0.1110  0.8929  0.3284
 2992SOL     OW11965   0.484   4.004   2.111 -0.0122 -0.3137 -0.0990
 2992SOL    HW111966   0.536   3.960   2.178  0.0672 -1.4595 -0.8898
 2992SOL    HW211967   0.506   4.097   2.121  1.1909 -0.6350  0.4284
 2992SOL     MW11968   0.494   4.010   2.121  0.1520 -0.5015 -0.1327
 2993SOL     OW11969   4.741   1.981   2.844  0.3727 -0.1913  0.2706
 2993SOL    HW111970   4.690   2.061   2.832 -0.7235 -0.8758  0.2266
 2993SOL    HW211971   4.735   1.935   2.760  0.9283 -0.3509  0.3172
 2993SOL     MW11972   4.733   1.985   2.832  0.3035 -0.2993  0.2709
 2994SOL     OW11973   1.316   2.131   3.608 -0.3443 -0.2585  0.5733
 2994SOL    HW111974   1.322   2.036   3.621 -0.3387 -0.1378  1.5607
 2994SOL    HW211975   1.376   2.149   3.536 -0.9476 -1.1046 -0.1606
 2994SOL     MW11976   1.324   2.121   3.601 -0.4208 -0.3514  0.6057
 2995SOL     OW11977   2.767   2.334   3.998 -0.2561 -0.1338  0.0847
 2995SOL    HW111978   2.835   2.393   4.032 -1.0438 -0.6198  2.6507
 2995SOL    HW211979   2.809   2.248   3.994 -0.5711 -0.3577  1.2933
 2995SOL     MW11980   2.781   2.331   4.001 -0.3973 -0.2247  0.5679
 2996SOL     OW11981   0.395   3.519   5.315 -0.3607 -0.4947 -0.3257
 2996SOL    HW111982   0.424   3.450   5.374 -1.0671  0.0890  0.7296
 2996SOL    HW211983   0.451   3.594   5.338 -1.2894  0.0209  0.2835
 2996SOL     MW11984   0.406   3.520   5.326 -0.5700 -0.3540 -0.1126
 2997SOL     OW11985   0.810   3.865   2.726 -0.1161 -1.0706  0.0337
 2997SOL    HW111986   0.854   3.868   2.642  0.1162  0.3736  0.1924
 2997SOL    HW211987   0.854   3.931   2.779  0.1028 -2.3099  1.4826
 2997SOL     MW11988   0.821   3.874   2.722 -0.0584 -1.0444  0.2395
 2998SOL     OW11989   4.474   2.268   4.767  0.1202 -0.2123  0.2066
 2998SOL    HW111990   4.449   2.196   4.708  0.1276 -0.5942  0.6665
 2998SOL    HW211991   4.555   2.303   4.729  1.1720 -1.6683  1.0075
 2998SOL     MW11992   4.481   2.263   4.754  0.2558 -0.4476  0.3680
 2999SOL     OW11993   4.147   4.383   2.664 -0.3474  0.0969 -0.0484
 2999SOL    HW111994   4.220   4.441   2.641  0.2859 -0.6178  0.0889
 2999SOL    HW211995   4.078   4.441   2.694  0.7406  0.7335  1.3497
 2999SOL     MW11996   4.148   4.398   2.665 -0.1270  0.0869  0.1482
 3000SOL     OW11997   5.332   4.746   4.440 -0.1653 -0.2130  0.1640
 3000SOL    HW111998   5.334   4.657   4.405  0.5441 -0.6725  1.3124
 3000SOL    HW211999   5.413   4.786   4.407 -0.6984  0.1780 -0.7191
 3000SOL     MW12000   5.342   4.739   4.431 -0.1427 -0.2218  0.1980
 3001SOL     OW12001   2.314   4.883   0.137 -0.3721 -0.2126  0.4668
 3001SOL    HW112002   2.292   4.937   0.062 -1.6293  0.1053  1.0514
 3001SOL    HW212003   2.275   4.798   0.118 -0.3741 -0.2402  0.5901
 3001SOL     MW12004   2.306   4.879   0.125 -0.5333 -0.1754  0.5574
 3002SOL     OW12005   0.928   0.743   0.249  0.3498 -0.6354  0.3592
 3002SOL    HW112006   0.836   0.765   0.234 -0.2251 -1.5268  2.3001
 3002SOL    HW212007   0.975   0.787   0.178 -1.1444  3.0148  1.4299
 3002SOL     MW12008   0.922   0.752   0.238  0.0850 -0.2822  0.7447
 3003SOL     OW12009   1.951   4.191   1.547  0.4100  0.2543 -0.2686
 3003SOL    HW112010   1.873   4.246   1.560  0.2802 -0.2688  1.3385
 3003SOL    HW212011   2.024   4.253   1.547  0.1413  0.5794  0.1329
 3003SOL     MW12012   1.950   4.206   1.549  0.3590  0.2290 -0.0115
 3004SOL     OW12013   4.768   0.945   3.888  0.4938  0.1370  0.2207
 3004SOL    HW112014   4.812   1.022   3.926  0.1725  0.5428 -0.2177
 3004SOL    HW212015   4.836   0.901   3.837  0.4535  0.6444 -0.2804
 3004SOL     MW12016   4.782   0.949   3.886  0.4475  0.2539  0.1004
 3005SOL     OW12017   1.630   3.832   2.940  0.0967 -0.2381  0.0453
 3005SOL    HW112018   1.592   3.915   2.968 -0.0468 -0.3462  0.1719
 3005SOL    HW212019   1.720   3.834   2.975  0.2419  0.0577 -0.3368
 3005SOL     MW12020   1.637   3.843   2.948  0.0970 -0.2140  0.0126
 3006SOL     OW12021   1.228   4.663   3.356  0.2256 -0.5098 -0.0771
 3006SOL    HW112022   1.270   4.578   3.368 -0.0863 -0.6315  0.1561
 3006SOL    HW212023   1.136   4.649   3.379  0.5627  0.3691  1.9792
 3006SOL     MW12024   1.221   4.650   3.360  0.2288 -0.4129  0.2160
 3007SOL     OW12025   1.117   4.730   4.029 -0.0879 -0.0092  0.7775
 3007SOL    HW112026   1.208   4.714   4.054 -0.2066 -0.1079  1.1508
 3007SOL    HW212027   1.078   4.643   4.025 -0.4898  0.1004  1.8748
 3007SOL     MW12028   1.124   4.717   4.032 -0.1545 -0.0078  0.9658
 3008SOL     OW12029   5.003   4.854   3.142 -0.0628  0.5078  0.1613
 3008SOL    HW112030   5.023   4.763   3.167 -0.9475  0.4339  0.6556
 3008SOL    HW212031   4.954   4.846   3.061  0.0412  0.5621  0.0923
 3008SOL     MW12032   4.999   4.841   3.135 -0.1627  0.5053  0.2157
 3009SOL     OW12033   3.516   3.824   2.550 -0.0024  0.1984  0.3298
 3009SOL    HW112034   3.599   3.861   2.518  0.8153 -0.8360  1.1914
 3009SOL    HW212035   3.507   3.742   2.502 -1.3242  0.9687 -0.8577
 3009SOL     MW12036   3.526   3.818   2.540 -0.0669  0.1646  0.2881
 3010SOL     OW12037   1.644   5.150   1.868  0.0108  0.8531  0.3752
 3010SOL    HW112038   1.611   5.208   1.936  1.4784  1.4175  0.6515
 3010SOL    HW212039   1.690   5.081   1.915  0.6642  1.0118 -0.0120
 3010SOL     MW12040   1.646   5.149   1.882  0.2823  0.9457  0.3610
 3011SOL     OW12041   4.944   3.245   1.249  0.0388  0.0883 -0.4286
 3011SOL    HW112042   5.021   3.291   1.215  0.7587 -0.0897  0.8725
 3011SOL    HW212043   4.877   3.314   1.258  0.3509  0.4301 -0.6985
 3011SOL     MW12044   4.945   3.260   1.246  0.1709  0.1093 -0.2966
 3012SOL     OW12045   2.958   0.467   0.374 -0.5718 -0.6008  0.0101
 3012SOL    HW112046   2.971   0.450   0.281  1.5965  1.4196 -0.1462
 3012SOL    HW212047   2.987   0.387   0.418 -1.9387 -1.6987 -1.0255
 3012SOL     MW12048   2.963   0.455   0.368 -0.4692 -0.4827 -0.1424
 3013SOL     OW12049   4.386   4.668   3.650  0.2171 -0.1275 -0.3325
 3013SOL    HW112050   4.431   4.584   3.658  0.9902  0.3764  0.9665
 3013SOL    HW212051   4.348   4.683   3.737  2.8764  2.3504  0.5718
 3013SOL     MW12052   4.387   4.659   3.663  0.6565  0.2542 -0.0505
 3014SOL     OW12053   5.004   4.663   2.794  0.0848  0.1946 -0.1926
 3014SOL    HW112054   4.940   4.668   2.723 -0.7339  1.4393  0.5921
 3014SOL    HW212055   5.070   4.727   2.771  0.8881 -0.8184 -0.8064
 3014SOL     MW12056   5.004   4.671   2.782  0.0828  0.2242 -0.1707
 3015SOL     OW12057   2.376   1.179   3.355 -0.2192  0.1588 -0.0670
 3015SOL    HW112058   2.453   1.234   3.367 -0.4466  0.2117  1.2737
 3015SOL    HW212059   2.301   1.235   3.374 -0.5403 -0.1840 -0.2790
 3015SOL     MW12060   2.376   1.193   3.359 -0.2894  0.1217  0.0775
 3016SOL     OW12061   2.181   3.767   1.631 -0.1084 -0.4812 -0.4876
 3016SOL    HW112062   2.241   3.794   1.700 -0.9174  0.8449 -0.2673
 3016SOL    HW212063   2.235   3.767   1.552  0.1458  0.9621 -0.3446
 3016SOL     MW12064   2.196   3.771   1.630 -0.1794 -0.1267 -0.4411
 3017SOL     OW12065   0.262   0.787   4.103 -0.2572 -0.0450  0.5095
 3017SOL    HW112066   0.306   0.713   4.144 -0.3140 -0.8065 -0.7558
 3017SOL    HW212067   0.190   0.809   4.162 -0.4021 -1.1853  0.7663
 3017SOL     MW12068   0.258   0.781   4.116 -0.2830 -0.2885  0.3804
 3018SOL     OW12069   2.880   3.114   3.702 -0.3227 -0.1967  0.2390
 3018SOL    HW112070   2.817   3.053   3.665 -0.1878 -1.2588  1.6866
 3018SOL    HW212071   2.827   3.182   3.743 -0.4786  0.1944 -0.5827
 3018SOL     MW12072   2.865   3.115   3.703 -0.3254 -0.2826  0.3192
 3019SOL     OW12073   1.062   0.463   3.077 -0.1950 -0.0940 -0.1514
 3019SOL    HW112074   0.995   0.444   3.012  1.1613 -1.4267 -1.2106
 3019SOL    HW212075   1.041   0.404   3.150 -0.4748 -0.1404 -0.2676
 3019SOL     MW12076   1.051   0.453   3.078 -0.0572 -0.2705 -0.3019
 3020SOL     OW12077   3.094   1.635   1.386 -0.3415 -0.1866 -0.5557
 3020SOL    HW112078   3.005   1.624   1.352 -0.6834 -0.6373  0.4608
 3020SOL    HW212079   3.097   1.578   1.463  0.1997  1.3172  0.5690
 3020SOL     MW12080   3.083   1.626   1.391 -0.3160 -0.0518 -0.2816
 3021SOL     OW12081   3.576   4.594   0.202 -0.0854  0.2292 -0.1250
 3021SOL    HW112082   3.575   4.679   0.158 -0.0406  0.8433  1.0384
 3021SOL    HW212083   3.492   4.554   0.181 -0.0188  0.4583 -0.8526
 3021SOL     MW12084   3.565   4.599   0.194 -0.0711  0.3371 -0.0692
 3022SOL     OW12085   4.030   4.950   2.708 -0.6224 -0.0408 -0.0717
 3022SOL    HW112086   3.959   5.007   2.681 -1.7304 -1.2076  0.2646
 3022SOL    HW212087   4.109   4.989   2.671 -1.7385 -0.1816 -2.7755
 3022SOL     MW12088   4.031   4.962   2.700 -0.9071 -0.2082 -0.3748
 3023SOL     OW12089   2.910   0.081   3.134  0.0400  0.6992  0.0704
 3023SOL    HW112090   2.930   0.141   3.063  2.9047 -1.1460 -0.8632
 3023SOL    HW212091   2.818   0.060   3.123  0.0605  1.5739 -2.2175
 3023SOL     MW12092   2.901   0.086   3.124  0.4093  0.5750 -0.3420
 3024SOL     OW12093   0.458   1.671   1.574 -0.3834 -0.2089  0.1593
 3024SOL    HW112094   0.501   1.589   1.599  0.7075  0.3176  0.0448
 3024SOL    HW212095   0.371   1.665   1.614  0.3806 -0.5483  1.8220
 3024SOL     MW12096   0.452   1.659   1.582 -0.1460 -0.1850  0.3575
 3025SOL     OW12097   4.529   0.331   2.872  0.0671 -0.2368  0.2298
 3025SOL    HW112098   4.523   0.332   2.967 -0.3887  1.5406  0.2072
 3025SOL    HW212099   4.619   0.357   2.853  0.0169 -0.1164  0.1588
 3025SOL     MW12100   4.540   0.334   2.882  0.0023  0.0061  0.2178
 3026SOL     OW12101   0.939   5.078   1.086 -0.1891 -0.2702 -0.4299
 3026SOL    HW112102   0.930   5.133   1.163 -0.7449 -0.3568 -0.4245
 3026SOL    HW212103   1.017   5.025   1.103  0.7044  0.9255 -0.7069
 3026SOL     MW12104   0.947   5.078   1.098 -0.1459 -0.1282 -0.4647
 3027SOL     OW12105   0.128   5.411   1.971 -0.1363  0.1852 -0.4427
 3027SOL    HW112106   0.202   5.429   2.029 -1.1543 -0.0613  0.9697
 3027SOL    HW212107   0.074   5.489   1.977 -1.5765 -0.8695  1.0511
 3027SOL     MW12108   0.131   5.423   1.979 -0.4510  0.0186 -0.0707
 3028SOL     OW12109   1.602   2.477   1.151  0.4118  0.2245 -0.4686
 3028SOL    HW112110   1.598   2.559   1.101 -1.7592 -0.4812 -1.5707
 3028SOL    HW212111   1.535   2.421   1.111  1.8223 -2.1173  0.2311
 3028SOL     MW12112   1.593   2.480   1.139  0.3144 -0.1656 -0.5201
 3029SOL     OW12113   4.075   3.001   1.583  0.3076  0.4863 -0.2221
 3029SOL    HW112114   4.128   3.001   1.503  0.9827  0.2401  0.2209
 3029SOL    HW212115   4.047   3.092   1.593  0.8726  0.6709 -0.3066
 3029SOL     MW12116   4.078   3.013   1.574  0.4663  0.4784 -0.1762
 3030SOL     OW12117   3.777   1.866   1.202 -0.0918 -0.6072 -0.0715
 3030SOL    HW112118   3.695   1.882   1.154  0.0593 -1.4998 -0.6661
 3030SOL    HW212119   3.846   1.899   1.144 -0.0097 -0.1064  0.3075
 3030SOL     MW12120   3.775   1.872   1.188 -0.0619 -0.6573 -0.0991
 3031SOL     OW12121   2.859   1.134   0.845  0.5860  0.0014  0.5586
 3031SOL    HW112122   2.897   1.059   0.891  0.1540 -0.9912 -0.6501
 3031SOL    HW212123   2.935   1.186   0.818  0.8568  0.5154  2.1892
 3031SOL     MW12124   2.874   1.131   0.847  0.5654 -0.0599  0.6126
 3032SOL     OW12125   1.173   3.729   1.786  0.4352  0.2140 -0.1357
 3032SOL    HW112126   1.205   3.694   1.703  1.0241  0.2504  0.0725
 3032SOL    HW212127   1.104   3.791   1.761  2.1005  1.9082 -0.7521
 3032SOL     MW12128   1.168   3.733   1.773  0.7238  0.4355 -0.1880
 3033SOL     OW12129   2.109   2.394   3.604  0.2630 -0.4567 -0.2548
 3033SOL    HW112130   2.108   2.461   3.536  2.4166 -0.1346 -0.0482
 3033SOL    HW212131   2.089   2.441   3.685  1.5128 -0.0714 -0.1475
 3033SOL     MW12132   2.107   2.409   3.605  0.6987 -0.3661 -0.2146
 3034SOL     OW12133   5.079   3.103   2.039 -0.1998 -1.0085 -0.2794
 3034SOL    HW112134   5.131   3.179   2.013  1.0521 -1.4150  0.9027
 3034SOL    HW212135   5.000   3.140   2.079  0.8044 -0.2698  1.1089
 3034SOL     MW12136   5.075   3.117   2.041  0.0890 -0.9660  0.0497
 3035SOL     OW12137   0.434   1.210   2.661  0.2949 -0.3486 -0.2275
 3035SOL    HW112138   0.388   1.149   2.718 -0.8793  0.2636 -0.5026
 3035SOL    HW212139   0.523   1.214   2.697 -0.8753  1.4812  2.7502
 3035SOL     MW12140   0.440   1.203   2.673 -0.0052 -0.0360  0.1184
 3036SOL     OW12141   0.120   1.255   4.198 -0.0657 -0.6796 -0.0508
 3036SOL    HW112142   0.174   1.255   4.119 -0.2508 -1.2160 -0.1791
 3036SOL    HW212143   0.089   1.345   4.205  1.9951  0.0384  0.8234
 3036SOL     MW12144   0.123   1.267   4.189  0.1744 -0.6564  0.0447
 3037SOL     OW12145   4.921   3.629   2.449 -0.5918 -0.0600 -0.5764
 3037SOL    HW112146   4.935   3.534   2.444 -1.0600 -0.0817 -1.5804
 3037SOL    HW212147   4.942   3.661   2.361  0.3082  0.8834 -0.0470
 3037SOL     MW12148   4.926   3.621   2.437 -0.5365  0.0580 -0.6372
 3038SOL     OW12149   1.533   4.551   1.845  0.8342  1.0222  0.0491
 3038SOL    HW112150   1.501   4.569   1.756  0.4696  1.1830  0.2103
 3038SOL    HW212151   1.580   4.468   1.837 -0.7538  0.0684  0.0562
 3038SOL     MW12152   1.535   4.543   1.832  0.5842  0.9207  0.0707
 3039SOL     OW12153   3.543   2.219   1.844 -0.7457  0.0181  0.2890
 3039SOL    HW112154   3.520   2.150   1.907 -0.3077  0.8183  1.3701
 3039SOL    HW212155   3.623   2.188   1.802 -0.1876  0.1330  1.2353
 3039SOL     MW12156   3.550   2.206   1.847 -0.6182  0.1352  0.5485
 3040SOL     OW12157   3.087   2.897   0.200 -0.2190 -0.6422  0.3640
 3040SOL    HW112158   3.003   2.861   0.227 -0.1798 -1.0052  0.0154
 3040SOL    HW212159   3.113   2.843   0.125  1.1172 -1.6336  1.4792
 3040SOL     MW12160   3.079   2.885   0.194 -0.0429 -0.8156  0.4621
 3041SOL     OW12161   3.021   2.462   0.914 -0.0733  0.3602  0.4758
 3041SOL    HW112162   3.054   2.547   0.942 -1.2141  0.9128  0.1839
 3041SOL    HW212163   3.099   2.408   0.905  0.6235  1.2385  1.1149
 3041SOL     MW12164   3.035   2.466   0.916 -0.1302  0.5434  0.5203
 3042SOL     OW12165   2.106   5.011   1.045  0.2483  0.3295 -0.3815
 3042SOL    HW112166   2.165   5.078   1.011 -0.8829  1.4838 -0.1946
 3042SOL    HW212167   2.068   4.970   0.967  0.5545  0.2707 -0.5001
 3042SOL     MW12168   2.108   5.014   1.031  0.1427  0.4698 -0.3727
 3043SOL     OW12169   2.264   1.126   0.498  0.2137  0.3705 -0.2382
 3043SOL    HW112170   2.330   1.165   0.556  0.3272  0.0918 -0.1772
 3043SOL    HW212171   2.184   1.128   0.550  0.4344 -0.3799  0.1373
 3043SOL     MW12172   2.263   1.132   0.512  0.2565  0.2388 -0.1823
 3044SOL     OW12173   4.120   2.871   0.553  0.0826  0.2424  0.1189
 3044SOL    HW112174   4.063   2.801   0.583  0.4936 -0.1043  0.1091
 3044SOL    HW212175   4.072   2.951   0.572 -0.6226 -0.0605 -0.3666
 3044SOL     MW12176   4.107   2.872   0.559  0.0450  0.1593  0.0555
 3045SOL     OW12177   2.347   0.361   0.032  0.6409 -0.1950 -0.7951
 3045SOL    HW112178   2.402   0.367  -0.046  1.5584  0.6597 -0.1023
 3045SOL    HW212179   2.382   0.285   0.079  1.2704  0.3726 -0.3347
 3045SOL     MW12180   2.358   0.352   0.028  0.8389 -0.0129 -0.6475
 3046SOL     OW12181   4.208   2.671   4.123  0.0645 -0.5198 -0.1476
 3046SOL    HW112182   4.271   2.612   4.164 -1.3577 -2.7496 -0.9766
 3046SOL    HW212183   4.147   2.693   4.193  0.4389 -0.2496  0.0981
 3046SOL     MW12184   4.208   2.666   4.137 -0.0697 -0.7706 -0.2222
 3047SOL     OW12185   5.409   4.318   2.228 -0.1013 -0.0353 -0.1675
 3047SOL    HW112186   5.317   4.291   2.225 -0.1487 -0.0889  1.2565
 3047SOL    HW212187   5.457   4.240   2.256  0.0321  0.6646  1.6906
 3047SOL     MW12188   5.403   4.305   2.231 -0.0903  0.0474  0.2526
 3048SOL     OW12189   4.797   1.558   4.038  0.2385  0.2744 -0.5795
 3048SOL    HW112190   4.764   1.642   4.069  0.2956 -0.0901  0.5012
 3048SOL    HW212191   4.719   1.512   4.006  0.2111  0.7336 -1.2015
 3048SOL     MW12192   4.782   1.563   4.038  0.2423  0.2865 -0.5208
 3049SOL     OW12193   0.288   3.091   3.352 -0.2562  0.2743  0.2248
 3049SOL    HW112194   0.278   3.181   3.382 -0.8874  0.1667  0.3395
 3049SOL    HW212195   0.301   3.098   3.258  0.7146  0.5480  0.3666
 3049SOL     MW12196   0.289   3.103   3.344 -0.2128  0.2955  0.2576
 3050SOL     OW12197   1.471   0.461   2.287 -0.1702 -0.1514  0.0427
 3050SOL    HW112198   1.427   0.403   2.225  0.0807 -1.3640  0.9736
 3050SOL    HW212199   1.549   0.413   2.314 -0.4960  0.1574  1.6187
 3050SOL     MW12200   1.475   0.448   2.283 -0.1798 -0.2671  0.3636
 3051SOL     OW12201   0.599   1.091   0.709  0.3149 -0.0642  0.3980
 3051SOL    HW112202   0.650   1.018   0.675  0.4583 -0.1783  0.8483
 3051SOL    HW212203   0.512   1.079   0.670  0.2149 -0.7257  0.7962
 3051SOL     MW12204   0.594   1.080   0.700  0.3205 -0.1635  0.5067
 3052SOL     OW12205   3.180   2.513   1.970 -0.0658  0.0642  0.2092
 3052SOL    HW112206   3.258   2.497   1.918 -0.0035 -2.5164  0.9417
 3052SOL    HW212207   3.207   2.574   2.038  1.5960 -1.3880  0.9252
 3052SOL     MW12208   3.193   2.519   1.972  0.1549 -0.4520  0.3946
 3053SOL     OW12209   4.718   4.456   1.634 -0.6000  0.5794  0.0704
 3053SOL    HW112210   4.712   4.372   1.678 -0.9203  0.4521 -0.2093
 3053SOL    HW212211   4.710   4.521   1.704 -1.8969  0.3884  0.1183
 3053SOL     MW12212   4.716   4.454   1.648 -0.8070  0.5386  0.0408
 3054SOL     OW12213   2.475   5.368   0.274 -0.4389 -0.0814 -0.2864
 3054SOL    HW112214   2.553   5.372   0.220  0.0891  0.4548  0.5012
 3054SOL    HW212215   2.507   5.358   0.364 -1.2818 -0.3447  0.0037
 3054SOL     MW12216   2.489   5.367   0.279 -0.4792 -0.0465 -0.1484
 3055SOL     OW12217   0.567   4.462   3.227  0.2009  0.7487  0.1884
 3055SOL    HW112218   0.615   4.466   3.311 -0.1525  0.0656  0.4301
 3055SOL    HW212219   0.513   4.541   3.226  0.3546  0.8595  0.5168
 3055SOL     MW12220   0.567   4.473   3.238  0.1753  0.6755  0.2614
 3056SOL     OW12221   3.950   3.913   3.612  0.5799 -0.1560  0.3612
 3056SOL    HW112222   3.978   4.002   3.593  1.3050 -0.1756  1.2784
 3056SOL    HW212223   3.857   3.922   3.636  0.6055  0.3216  0.2898
 3056SOL     MW12224   3.942   3.926   3.613  0.6760 -0.0974  0.4695
 3057SOL     OW12225   3.306   0.747   5.233  0.0646  0.1825 -0.4592
 3057SOL    HW112226   3.258   0.750   5.316  0.1559  1.7205 -0.4318
 3057SOL    HW212227   3.388   0.792   5.252  0.8893 -1.0677 -0.9263
 3057SOL     MW12228   3.310   0.753   5.246  0.1818  0.2193 -0.5155
 3058SOL     OW12229   1.486   5.218   0.395  0.1078  0.4782 -0.3415
 3058SOL    HW112230   1.498   5.123   0.398 -1.9948  0.1253 -1.5215
 3058SOL    HW212231   1.468   5.237   0.303  1.0944  2.1430 -0.2385
 3058SOL     MW12232   1.485   5.209   0.384 -0.0351  0.6461 -0.4794
 3059SOL     OW12233   1.847   0.768   3.235  0.1182 -0.2811  0.3518
 3059SOL    HW112234   1.864   0.848   3.285 -0.5000 -0.6834  1.2489
 3059SOL    HW212235   1.909   0.771   3.162  2.4753 -0.6326  2.2151
 3059SOL     MW12236   1.857   0.779   3.232  0.3408 -0.3776  0.7052
 3060SOL     OW12237   3.904   5.223   3.271  0.5699  0.3028  0.2473
 3060SOL    HW112238   3.906   5.311   3.308 -0.3890  0.8256 -0.8780
 3060SOL    HW212239   3.969   5.225   3.201 -1.0464  0.8592 -1.2935
 3060SOL     MW12240   3.912   5.234   3.267  0.2403  0.4409 -0.0940
 3061SOL     OW12241   4.175   4.532   0.647  0.0355 -0.3588 -0.1338
 3061SOL    HW112242   4.249   4.492   0.601  0.6887  0.0625  0.5296
 3061SOL    HW212243   4.150   4.606   0.593  1.0517  0.3687  0.3515
 3061SOL     MW12244   4.181   4.536   0.634  0.2492 -0.2117  0.0133
 3062SOL     OW12245   0.154   1.135   0.080  0.0354  0.0087 -0.1318
 3062SOL    HW112246   0.225   1.174   0.132  0.4290 -0.0630 -0.6082
 3062SOL    HW212247   0.101   1.210   0.052 -0.5495  0.0032  0.8841
 3062SOL     MW12248   0.156   1.150   0.083  0.0109 -0.0012 -0.0627
 3063SOL     OW12249   4.278   3.165   4.008 -0.1114 -0.6210 -0.2227
 3063SOL    HW112250   4.289   3.226   4.081 -0.5904 -0.2436 -0.4606
 3063SOL    HW212251   4.189   3.181   3.977  0.3737 -0.1828 -1.4303
 3063SOL     MW12252   4.268   3.175   4.014 -0.1106 -0.5166 -0.4077
 3064SOL     OW12253   4.392   0.924   3.061  0.7334 -0.1047  0.2054
 3064SOL    HW112254   4.468   0.982   3.066  0.8044 -0.0180 -1.3823
 3064SOL    HW212255   4.318   0.981   3.041  0.9300 -0.5809 -2.1280
 3064SOL     MW12256   4.392   0.938   3.059  0.7677 -0.1546 -0.2966
 3065SOL     OW12257   3.020   4.887   3.630  0.6593  0.5371 -0.1824
 3065SOL    HW112258   3.021   4.977   3.599 -1.0005 -0.4452 -3.4535
 3065SOL    HW212259   3.023   4.834   3.551 -1.6386 -2.2460  1.3984
 3065SOL     MW12260   3.020   4.892   3.616  0.1527  0.0551 -0.3988
 3066SOL     OW12261   4.509   5.081   4.805  0.2852 -0.5501  0.3754
 3066SOL    HW112262   4.472   5.098   4.719 -0.5678  1.8000  1.0985
 3066SOL    HW212263   4.593   5.039   4.788  0.6683  0.8935 -1.6710
 3066SOL     MW12264   4.515   5.078   4.792  0.2250 -0.0644  0.2060
 3067SOL     OW12265   5.234   2.132   3.717  1.3507 -0.3767  0.6306
 3067SOL    HW112266   5.317   2.136   3.668  0.8511  0.1101 -0.2048
 3067SOL    HW212267   5.171   2.177   3.661  0.3298 -1.4175  0.9124
 3067SOL     MW12268   5.237   2.139   3.704  1.1560 -0.4476  0.5597
 3068SOL     OW12269   2.550   3.064   4.743  0.0009 -0.0629  0.0521
 3068SOL    HW112270   2.608   3.048   4.668  0.2843  0.8235  0.0696
 3068SOL    HW212271   2.468   3.022   4.718 -0.1330  0.8017 -1.0767
 3068SOL     MW12272   2.547   3.057   4.730  0.0200  0.1612 -0.0901
 3069SOL     OW12273   5.106   1.354   4.507 -0.4358 -0.1468 -0.0626
 3069SOL    HW112274   5.167   1.411   4.459 -0.6907  0.7028  0.6019
 3069SOL    HW212275   5.077   1.291   4.441  2.1548 -1.4400 -0.1221
 3069SOL     MW12276   5.110   1.353   4.492 -0.1368 -0.2036  0.0148
 3070SOL     OW12277   0.912   1.475   3.132  0.3719  0.1505  0.2461
 3070SOL    HW112278   0.896   1.392   3.176  0.5014  0.9315  1.8634
 3070SOL    HW212279   0.833   1.490   3.079  0.7042 -1.3620 -0.7336
 3070SOL     MW12280   0.900   1.467   3.131  0.4310  0.0569  0.3277
 3071SOL     OW12281   3.294   1.816   3.909 -0.5288 -0.6314  0.4426
 3071SOL    HW112282   3.336   1.802   3.824 -0.6217  2.4496 -0.2190
 3071SOL    HW212283   3.207   1.850   3.887 -0.4152  0.5761  1.7222
 3071SOL     MW12284   3.288   1.819   3.895 -0.5262 -0.0824  0.5217
 3072SOL     OW12285   0.354   3.438   2.984  0.2012 -0.0686  0.1092
 3072SOL    HW112286   0.265   3.410   2.961  0.6155 -1.2507 -0.1128
 3072SOL    HW212287   0.362   3.526   2.946 -1.1632  0.4190  0.8895
 3072SOL     MW12288   0.344   3.446   2.976  0.0796 -0.1575  0.1807
 3073SOL     OW12289   4.479   3.232   2.041 -0.2219  0.4860 -0.3551
 3073SOL    HW112290   4.433   3.160   2.085  1.0258  1.2470  2.4016
 3073SOL    HW212291   4.428   3.310   2.063  0.5929  0.9263 -0.0227
 3073SOL     MW12292   4.466   3.233   2.049  0.0421  0.6398  0.0404
 3074SOL     OW12293   3.312   5.350   2.578 -0.2793 -0.1571  0.0625
 3074SOL    HW112294   3.397   5.394   2.576 -0.9668  1.3489  1.3960
 3074SOL    HW212295   3.333   5.257   2.589  1.1930  0.0936 -0.4321
 3074SOL     MW12296   3.326   5.344   2.579 -0.1788  0.0678  0.1699
 3075SOL     OW12297   3.512   4.158   5.269 -0.0629 -0.5611  0.0435
 3075SOL    HW112298   3.480   4.216   5.200  2.2700  0.5948 -0.1949
 3075SOL    HW212299   3.439   4.100   5.288 -2.7608  2.6803  0.5775
 3075SOL     MW12300   3.499   4.158   5.263 -0.1097  0.0018  0.0813
 3076SOL     OW12301   0.591   5.347   2.358 -0.8381  0.0605  0.1024
 3076SOL    HW112302   0.570   5.441   2.354  1.4069  0.7344  1.9609
 3076SOL    HW212303   0.597   5.328   2.452  1.3026 -1.2787 -0.2339
 3076SOL     MW12304   0.589   5.357   2.369 -0.2767 -0.0247  0.2973
 3077SOL     OW12305   1.744   0.604   2.483  0.1380 -0.4221  0.0233
 3077SOL    HW112306   1.747   0.508   2.483  3.3356 -0.4473  0.4821
 3077SOL    HW212307   1.783   0.629   2.567 -0.4855  1.3030 -0.1564
 3077SOL     MW12308   1.750   0.595   2.494  0.4675 -0.2045  0.0590
 3078SOL     OW12309   3.473   1.145   3.106 -0.3097  0.2701  0.7038
 3078SOL    HW112310   3.556   1.191   3.090 -0.6103  0.6181  0.1141
 3078SOL    HW212311   3.473   1.128   3.200  1.3914 -1.5530  0.4561
 3078SOL     MW12312   3.484   1.149   3.116 -0.1304  0.0812  0.5966
 3079SOL     OW12313   5.267   0.530   2.475  0.5928  0.3231 -0.2182
 3079SOL    HW112314   5.251   0.556   2.384  0.6066 -0.2888 -0.3995
 3079SOL    HW212315   5.275   0.613   2.522  2.3761  0.6845 -1.0812
 3079SOL     MW12316   5.266   0.544   2.469  0.8229  0.2910 -0.3519
 3080SOL     OW12317   2.863   1.532   0.431  0.1467  0.9565 -0.3130
 3080SOL    HW112318   2.932   1.597   0.414  1.1771  0.5354  1.8880
 3080SOL    HW212319   2.865   1.520   0.525 -1.9171 -0.2625 -0.3750
 3080SOL     MW12320   2.872   1.539   0.441  0.0144  0.7466 -0.0392
 3081SOL     OW12321   2.365   5.020   1.509 -0.0199 -0.4033  0.0639
 3081SOL    HW112322   2.382   4.926   1.521  1.1445 -0.4580 -1.6190
 3081SOL    HW212323   2.446   5.063   1.537  0.3561 -0.1127 -1.3627
 3081SOL     MW12324   2.378   5.013   1.514  0.1773 -0.3731 -0.3341
 3082SOL     OW12325   4.271   2.763   0.352 -0.5751  0.0695  0.1463
 3082SOL    HW112326   4.224   2.798   0.428  1.8936 -0.0175  1.8200
 3082SOL    HW212327   4.363   2.768   0.376  0.2114 -1.9128 -2.0440
 3082SOL     MW12328   4.277   2.768   0.364 -0.1584 -0.1954  0.0802
 3083SOL     OW12329   2.481   4.496   1.028 -0.4415  0.4168  0.5224
 3083SOL    HW112330   2.542   4.483   0.955 -1.1309 -0.2720  0.0452
 3083SOL    HW212331   2.511   4.435   1.095 -0.8410 -0.2466  0.1178
 3083SOL     MW12332   2.492   4.486   1.027 -0.5809  0.2437  0.4095
 3084SOL     OW12333   4.567   4.066   1.287  0.0715  0.1228  0.3519
 3084SOL    HW112334   4.573   3.979   1.325  3.6065  0.1008  0.0009
 3084SOL    HW212335   4.534   4.052   1.198  1.1885 -0.9544  0.0880
 3084SOL     MW12336   4.563   4.053   1.280  0.6670 -0.0179  0.2732
 3085SOL     OW12337   1.986   2.489   3.845  0.6035 -0.5661 -0.1636
 3085SOL    HW112338   1.937   2.504   3.925 -0.5157  0.6274 -1.0267
 3085SOL    HW212339   2.074   2.520   3.864  0.2185  0.1902  0.4458
 3085SOL     MW12340   1.991   2.495   3.857  0.4109 -0.3165 -0.1961
 3086SOL     OW12341   0.700   1.835   1.638 -0.3584  0.4299  0.2259
 3086SOL    HW112342   0.621   1.796   1.601 -0.2376  2.6050 -2.6684
 3086SOL    HW212343   0.772   1.787   1.598 -0.2412  1.7131 -1.1892
 3086SOL     MW12344   0.699   1.824   1.628 -0.3279  0.8726 -0.3258
 3087SOL     OW12345   1.188   4.555   5.051  0.2068  0.3223  0.0138
 3087SOL    HW112346   1.276   4.557   5.089 -0.1483  0.0864  0.8629
 3087SOL    HW212347   1.162   4.463   5.056  0.3090  0.2104 -1.1867
 3087SOL     MW12348   1.196   4.543   5.056  0.1744  0.2778 -0.0312
 3088SOL     OW12349   4.719   4.582   4.944  0.3533  0.2558  0.5624
 3088SOL    HW112350   4.628   4.602   4.923  1.4332  1.6564 -4.0885
 3088SOL    HW212351   4.764   4.666   4.938  2.4706 -0.8948 -1.3867
 3088SOL     MW12352   4.713   4.595   4.940  0.7625  0.2878 -0.2825
 3089SOL     OW12353   1.948   2.690   4.685  0.2075  0.0273 -0.1760
 3089SOL    HW112354   1.869   2.715   4.637  0.3685 -2.0241 -1.6608
 3089SOL    HW212355   1.947   2.744   4.763 -1.1103  2.1458 -1.5513
 3089SOL     MW12356   1.938   2.700   4.689  0.0594  0.0359 -0.5421
 3090SOL     OW12357   1.353   5.251   1.296 -0.0558  0.1873 -0.0806
 3090SOL    HW112358   1.382   5.300   1.219 -0.5593  0.5307 -0.0573
 3090SOL    HW212359   1.434   5.222   1.338  0.2379  0.5849 -0.3634
 3090SOL     MW12360   1.367   5.253   1.292 -0.0826  0.2822 -0.1138
 3091SOL     OW12361   0.465   2.009   3.049  0.2071 -0.3883  0.3753
 3091SOL    HW112362   0.502   1.935   3.096 -1.0857 -1.1324  0.2848
 3091SOL    HW212363   0.370   1.993   3.052  0.0250  0.2388 -1.3212
 3091SOL     MW12364   0.457   1.997   3.056  0.0183 -0.4033  0.1465
 3092SOL     OW12365   1.635   3.079   1.242 -0.0257  0.1872 -0.3522
 3092SOL    HW112366   1.653   3.063   1.334 -1.8148  1.5386  0.2814
 3092SOL    HW212367   1.688   3.155   1.219  0.3318 -0.0799 -0.4273
 3092SOL     MW12368   1.644   3.087   1.251 -0.2090  0.3260 -0.2807
 3093SOL     OW12369   3.976   3.413   4.216 -0.1720 -0.3829 -0.0983
 3093SOL    HW112370   3.908   3.346   4.207 -0.4399 -0.1023 -0.1508
 3093SOL    HW212371   4.010   3.425   4.128  0.7677 -1.3725  0.0971
 3093SOL     MW12372   3.972   3.406   4.204 -0.0860 -0.4737 -0.0800
 3094SOL     OW12373   0.365   3.168   3.687  0.5224  0.4445  0.8119
 3094SOL    HW112374   0.309   3.192   3.761  0.3756  0.5034  0.6842
 3094SOL    HW212375   0.447   3.215   3.702  0.0300  1.5142  0.2564
 3094SOL     MW12376   0.368   3.177   3.698  0.4406  0.5890  0.7245
 3095SOL     OW12377   0.547   4.876   3.915 -0.2749 -0.1213 -0.3280
 3095SOL    HW112378   0.476   4.936   3.936  0.6368  1.2098 -0.9085
 3095SOL    HW212379   0.592   4.916   3.841  1.6222 -0.4482  0.5762
 3095SOL     MW12380   0.544   4.889   3.909  0.0846  0.0072 -0.2866
 3096SOL     OW12381   0.157   2.231   2.791 -0.2737  0.0496 -0.5297
 3096SOL    HW112382   0.161   2.209   2.885 -0.0885  0.5848 -0.4068
 3096SOL    HW212383   0.239   2.199   2.756  0.4426  1.3754 -0.1549
 3096SOL     MW12384   0.168   2.224   2.799 -0.1583  0.2878 -0.4660
 3097SOL     OW12385   1.854   4.889   1.367 -0.3768  0.0591 -1.0166
 3097SOL    HW112386   1.904   4.964   1.335  0.4192 -0.8085 -1.8620
 3097SOL    HW212387   1.920   4.824   1.391 -1.0364 -0.1771  0.2357
 3097SOL     MW12388   1.869   4.890   1.366 -0.3593 -0.0822 -0.9645
 3098SOL     OW12389   3.137   0.902   2.540  0.0515 -0.0830 -0.1976
 3098SOL    HW112390   3.085   0.975   2.576 -0.9115 -0.4461 -0.7999
 3098SOL    HW212391   3.179   0.862   2.616 -1.8308 -0.7539  0.5421
 3098SOL     MW12392   3.135   0.907   2.554 -0.3128 -0.2154 -0.1800
 3099SOL     OW12393   1.543   3.473   3.237 -0.0552 -0.5517 -0.4275
 3099SOL    HW112394   1.563   3.551   3.184  0.7996 -0.1293  0.4725
 3099SOL    HW212395   1.483   3.422   3.183 -0.6741  0.7571 -1.0196
 3099SOL     MW12396   1.538   3.477   3.223 -0.0250 -0.3301 -0.3881
 3100SOL     OW12397   0.618   4.855   1.689  0.5615  0.4763  0.0139
 3100SOL    HW112398   0.685   4.845   1.756 -0.4760 -0.0479  0.9964
 3100SOL    HW212399   0.539   4.878   1.737 -0.4708 -0.9806 -0.8987
 3100SOL     MW12400   0.617   4.857   1.704  0.2966  0.2227  0.0228
 3101SOL     OW12401   0.255   1.523   0.223 -0.2329  0.1744  0.3791
 3101SOL    HW112402   0.163   1.532   0.249 -0.1617 -0.8346  1.0543
 3101SOL    HW212403   0.270   1.429   0.219  0.8218  0.3234  0.4420
 3101SOL     MW12404   0.245   1.512   0.226 -0.0887  0.0643  0.4736
 3102SOL     OW12405   3.248   4.027   1.909  0.2766 -0.5307 -0.3912
 3102SOL    HW112406   3.201   3.951   1.875  0.7645 -0.5518 -1.0356
 3102SOL    HW212407   3.179   4.084   1.943 -0.1576 -0.9053 -0.6321
 3102SOL     MW12408   3.233   4.025   1.909  0.2835 -0.5814 -0.5045
 3103SOL     OW12409   0.712   2.194   4.296  0.0673 -0.0657 -0.0028
 3103SOL    HW112410   0.668   2.128   4.242  0.8518  0.7061 -1.6336
 3103SOL    HW212411   0.721   2.270   4.240 -0.1013  1.1894  1.5952
 3103SOL     MW12412   0.708   2.195   4.282  0.1461  0.1937 -0.0070
 3104SOL     OW12413   1.904   2.486   0.971  0.0440  0.4297  0.0615
 3104SOL    HW112414   1.891   2.392   0.959  0.7622 -0.1399  2.9567
 3104SOL    HW212415   1.816   2.520   0.988 -0.5589  0.7798 -3.1048
 3104SOL     MW12416   1.891   2.478   0.972  0.0588  0.4016  0.0268
 3105SOL     OW12417   3.935   3.703   2.845 -0.4722  0.5468 -0.1212
 3105SOL    HW112418   3.978   3.622   2.872 -0.0963  0.6318 -0.4668
 3105SOL    HW212419   3.984   3.773   2.889  0.1217  0.6844 -0.9721
 3105SOL     MW12420   3.947   3.702   2.854 -0.3481  0.5753 -0.2744
 3106SOL     OW12421   0.277   1.682   3.543  0.1936  0.5754  0.3620
 3106SOL    HW112422   0.320   1.610   3.589  0.5174  0.3621 -0.2627
 3106SOL    HW212423   0.343   1.751   3.539 -0.3414  1.2022  1.5884
 3106SOL     MW12424   0.291   1.682   3.549  0.1666  0.6283  0.4391
 3107SOL     OW12425   2.740   4.071   2.458 -0.1294  0.1991  0.2804
 3107SOL    HW112426   2.711   4.095   2.370 -1.6323  0.3172  0.7653
 3107SOL    HW212427   2.813   4.130   2.477  0.5263 -0.1555 -1.0544
 3107SOL     MW12428   2.745   4.082   2.449 -0.2379  0.1688  0.1716
 3108SOL     OW12429   2.091   0.551   4.150 -0.1085  0.4321 -0.2130
 3108SOL    HW112430   2.052   0.472   4.113  0.1082  0.8010 -1.2465
 3108SOL    HW212431   2.068   0.547   4.243 -0.0437 -0.8707 -0.2353
 3108SOL     MW12432   2.083   0.540   4.157 -0.0725  0.3126 -0.3482
 3109SOL     OW12433   1.441   0.609   0.328  0.0905  0.2787 -0.1160
 3109SOL    HW112434   1.380   0.601   0.255 -0.4130  1.6103  0.1315
 3109SOL    HW212435   1.416   0.691   0.372  0.6152 -0.2983  1.3302
 3109SOL     MW12436   1.430   0.619   0.325  0.0932  0.3753  0.1008
 3110SOL     OW12437   4.633   3.701   0.525 -0.3287  0.1461 -0.4014
 3110SOL    HW112438   4.597   3.766   0.585 -0.5580 -1.5255  1.3767
 3110SOL    HW212439   4.704   3.659   0.574 -0.6714 -1.4485 -1.1856
 3110SOL     MW12440   4.638   3.704   0.539 -0.4019 -0.2720 -0.2741
 3111SOL     OW12441   4.855   3.933   0.922 -0.1205  0.0989 -0.3459
 3111SOL    HW112442   4.869   4.019   0.884  0.7269 -0.0761 -0.4330
 3111SOL    HW212443   4.868   3.872   0.849 -2.3893 -0.0462 -0.7260
 3111SOL     MW12444   4.858   3.936   0.908 -0.3025  0.0579 -0.4057
 3112SOL     OW12445   0.534   4.307   0.591 -0.2323  0.5296 -0.2714
 3112SOL    HW112446   0.486   4.260   0.523 -1.4012 -1.3925  1.7176
 3112SOL    HW212447   0.543   4.396   0.558 -2.4539  0.1641 -2.0935
 3112SOL     MW12448   0.529   4.313   0.578 -0.6663  0.2368 -0.2500
 3113SOL     OW12449   3.096   4.495   3.458  1.1211  0.2098 -0.0201
 3113SOL    HW112450   3.160   4.553   3.418  2.2508  1.1301  2.8868
 3113SOL    HW212451   3.143   4.452   3.530 -0.8174 -1.0786  0.5604
 3113SOL     MW12452   3.110   4.497   3.462  1.0175  0.1627  0.4263
 3114SOL     OW12453   4.667   2.705   4.797  0.7475 -0.0647 -0.3478
 3114SOL    HW112454   4.580   2.675   4.821  0.5966 -0.3610 -1.2243
 3114SOL    HW212455   4.698   2.754   4.873  0.1439 -0.6452  0.2773
 3114SOL     MW12456   4.660   2.708   4.810  0.6509 -0.1769 -0.3799
 3115SOL     OW12457   5.012   1.250   0.098  0.7363  0.1357 -0.2377
 3115SOL    HW112458   5.024   1.344   0.110  0.9930  0.0922 -0.1500
 3115SOL    HW212459   5.023   1.236   0.004  2.0923  0.0037 -0.0911
 3115SOL     MW12460   5.015   1.260   0.088  0.9427  0.1132 -0.2077
 3116SOL     OW12461   2.465   1.054   1.434  0.3119 -0.3862  0.4983
 3116SOL    HW112462   2.403   1.007   1.489  0.0442 -1.0301 -0.3374
 3116SOL    HW212463   2.513   1.111   1.495 -0.4059 -0.6160  1.2928
 3116SOL     MW12464   2.464   1.055   1.449  0.1857 -0.4980  0.4930
 3117SOL     OW12465   3.974   3.712   1.803 -0.3807  0.2050  0.0659
 3117SOL    HW112466   4.065   3.691   1.780 -0.0861  0.8353  0.6211
 3117SOL    HW212467   3.958   3.796   1.760 -0.8742 -0.1388 -0.4398
 3117SOL     MW12468   3.984   3.720   1.794 -0.4061  0.2417  0.0722
 3118SOL     OW12469   3.474   1.135   1.475  0.0756  0.0545  0.4083
 3118SOL    HW112470   3.500   1.082   1.550 -0.9782 -0.0269  0.7352
 3118SOL    HW212471   3.472   1.073   1.402 -1.2472 -0.4021  0.8082
 3118SOL     MW12472   3.477   1.120   1.475 -0.2287 -0.0143  0.5013
 3119SOL     OW12473   0.937   0.911   5.379 -0.4193 -0.0796  0.1497
 3119SOL    HW112474   0.868   0.912   5.313 -0.1860  3.5449 -0.2759
 3119SOL    HW212475   0.897   0.952   5.456  0.7871  0.6844  0.4017
 3119SOL     MW12476   0.923   0.917   5.380 -0.2350  0.4822  0.1275
 3120SOL     OW12477   2.480   2.383   3.129  0.4557  0.5590  0.4941
 3120SOL    HW112478   2.512   2.424   3.048  1.1932  0.8680  0.9296
 3120SOL    HW212479   2.424   2.311   3.099  1.4282  0.1030 -0.3131
 3120SOL     MW12480   2.477   2.379   3.115  0.6746  0.5402  0.4465
 3121SOL     OW12481   1.804   3.833   1.419 -0.3057 -0.3819  0.3772
 3121SOL    HW112482   1.854   3.759   1.386 -1.8202 -0.7059 -1.3563
 3121SOL    HW212483   1.849   3.859   1.499  2.5996 -0.6237 -1.0663
 3121SOL     MW12484   1.816   3.827   1.425 -0.1277 -0.4543 -0.0295
 3122SOL     OW12485   1.637   2.944   5.229  0.0974  0.1873 -0.6188
 3122SOL    HW112486   1.674   2.863   5.265 -1.5321 -0.0769  0.6104
 3122SOL    HW212487   1.648   2.936   5.134  1.2407 -0.7967 -0.4272
 3122SOL     MW12488   1.643   2.933   5.221  0.0352  0.0275 -0.4369
 3123SOL     OW12489   3.444   2.810   3.509  0.0586 -0.2600  0.2460
 3123SOL    HW112490   3.460   2.722   3.542 -0.2039 -0.5578 -0.4166
 3123SOL    HW212491   3.453   2.866   3.587  0.7838 -0.7988  0.5636
 3123SOL     MW12492   3.448   2.806   3.523  0.1179 -0.3671  0.2019
 3124SOL     OW12493   0.027   0.969   3.780  0.2482  0.3693  0.2795
 3124SOL    HW112494   0.014   0.879   3.811 -0.1164  0.6276  0.8990
 3124SOL    HW212495  -0.054   1.014   3.804  0.3268  0.8042 -0.2566
 3124SOL     MW12496   0.015   0.963   3.787  0.2116  0.4581  0.2902
 3125SOL     OW12497   3.583   2.376   5.090  0.5556 -0.2812 -0.0865
 3125SOL    HW112498   3.650   2.391   5.157  1.1261 -2.0390 -0.2149
 3125SOL    HW212499   3.619   2.415   5.011  0.2171  1.1332  0.4270
 3125SOL     MW12500   3.597   2.383   5.089  0.5853 -0.3251 -0.0372
 3126SOL     OW12501   1.591   3.619   0.034  0.0172 -0.1124  0.1028
 3126SOL    HW112502   1.598   3.596   0.127  0.8180 -0.7958 -0.1188
 3126SOL    HW212503   1.598   3.714   0.033 -1.4306  0.0365  0.8622
 3126SOL     MW12504   1.593   3.628   0.046 -0.0656 -0.1808  0.1716
 3127SOL     OW12505   3.708   0.653   4.922 -0.5236 -0.0478  0.4534
 3127SOL    HW112506   3.711   0.747   4.941 -1.1926 -0.1764  1.2314
 3127SOL    HW212507   3.736   0.611   5.003  0.5817 -0.5204 -0.1442
 3127SOL     MW12508   3.712   0.660   4.935 -0.4678 -0.1248  0.4765
 3128SOL     OW12509   1.323   2.447   5.124 -0.5066 -0.1658  0.2593
 3128SOL    HW112510   1.375   2.492   5.058 -0.2868  2.8582  2.3329
 3128SOL    HW212511   1.233   2.474   5.107 -1.0477 -2.5426 -1.1106
 3128SOL     MW12512   1.318   2.456   5.113 -0.5478 -0.0830  0.3494
 3129SOL     OW12513   2.612   3.857   1.187  0.1113  0.0453  0.1190
 3129SOL    HW112514   2.672   3.876   1.115  0.4899  0.9319  0.6485
 3129SOL    HW212515   2.569   3.941   1.204 -1.0992 -0.5104 -0.0776
 3129SOL     MW12516   2.614   3.870   1.180  0.0048  0.0876  0.1616
 3130SOL     OW12517   2.221   4.293   3.248  0.1018  0.0205 -0.0193
 3130SOL    HW112518   2.157   4.252   3.190  0.2222 -0.1782 -0.0109
 3130SOL    HW212519   2.306   4.267   3.212  0.1929  0.8992 -0.4904
 3130SOL     MW12520   2.224   4.285   3.236  0.1289  0.1075 -0.0785
 3131SOL     OW12521   4.805   4.163   4.962  0.3981 -0.3571  0.1394
 3131SOL    HW112522   4.786   4.223   4.890  0.1644 -0.0520  0.4473
 3131SOL    HW212523   4.806   4.219   5.040  4.0117 -0.0590  0.0306
 3131SOL     MW12524   4.803   4.178   4.963  0.8308 -0.2798  0.1649
 3132SOL     OW12525   4.630   4.550   0.495  0.0747 -0.2350 -0.3287
 3132SOL    HW112526   4.600   4.638   0.474 -2.0461 -1.1339 -1.4384
 3132SOL    HW212527   4.718   4.545   0.459  0.2865  1.4660 -0.0997
 3132SOL     MW12528   4.637   4.560   0.487 -0.1696 -0.1323 -0.4414
 3133SOL     OW12529   3.519   1.016   0.990  0.4455  0.2699  0.7907
 3133SOL    HW112530   3.589   0.961   0.956 -0.2881  0.1833 -0.6361
 3133SOL    HW212531   3.563   1.096   1.020  1.3821 -0.6176  1.8775
 3133SOL     MW12532   3.533   1.019   0.990  0.4715  0.1452  0.7472
 3134SOL     OW12533   3.519   4.087   4.354 -0.6181  0.1382 -0.4740
 3134SOL    HW112534   3.605   4.126   4.368 -0.1343 -0.2811 -2.0529
 3134SOL    HW212535   3.523   4.003   4.401  0.4640 -0.6351 -1.8619
 3134SOL     MW12536   3.531   4.081   4.362 -0.4177 -0.0145 -0.8538
 3135SOL     OW12537   4.600   1.027   4.211 -0.2698  0.3669  0.1918
 3135SOL    HW112538   4.691   1.005   4.194 -0.6285 -0.3539 -0.9387
 3135SOL    HW212539   4.588   1.011   4.304  0.5324 -0.3917  0.1768
 3135SOL     MW12540   4.610   1.022   4.221 -0.2130  0.1775  0.0452
 3136SOL     OW12541   1.384   0.827   0.445 -0.0860 -0.3688  0.1869
 3136SOL    HW112542   1.302   0.832   0.493  0.5027 -0.8351  1.2909
 3136SOL    HW212543   1.418   0.916   0.445  1.0398 -0.7189  2.7649
 3136SOL     MW12544   1.378   0.839   0.451  0.1335 -0.4733  0.6583
 3137SOL     OW12545   2.230   1.003   1.580 -0.0887 -0.5642 -0.6913
 3137SOL    HW112546   2.152   1.059   1.584  0.1905 -0.2079 -0.0501
 3137SOL    HW212547   2.215   0.937   1.648  0.8101  0.3702  0.4572
 3137SOL     MW12548   2.218   1.002   1.590  0.0621 -0.3990 -0.4622
 3138SOL     OW12549   5.466   4.293   0.732  0.3698 -0.7266  0.4051
 3138SOL    HW112550   5.389   4.333   0.771  0.5514 -1.5065  1.6217
 3138SOL    HW212551   5.537   4.355   0.749 -0.1820  0.7540 -2.0740
 3138SOL     MW12552   5.466   4.306   0.739  0.3224 -0.6369  0.2435
 3139SOL     OW12553   1.990   1.697   4.034 -0.3044 -0.3411 -0.1134
 3139SOL    HW112554   2.027   1.689   3.946 -0.7596 -2.9806 -0.1428
 3139SOL    HW212555   1.948   1.613   4.050 -2.4863  0.9555  1.6493
 3139SOL     MW12556   1.989   1.685   4.025 -0.6420 -0.5130  0.1085
 3140SOL     OW12557   3.000   3.456   2.906  0.1337  0.0683 -0.4346
 3140SOL    HW112558   3.004   3.473   2.812  0.5960 -1.7483 -0.7835
 3140SOL    HW212559   2.920   3.500   2.935 -0.8476 -0.6079 -1.9783
 3140SOL     MW12560   2.990   3.463   2.898  0.0673 -0.2508 -0.6769
 3141SOL     OW12561   3.418   0.993   5.409 -0.1809  0.2344  0.5151
 3141SOL    HW112562   3.484   1.013   5.476 -0.6530  3.2556  0.1903
 3141SOL    HW212563   3.342   1.044   5.434 -0.9561  0.1016 -1.4115
 3141SOL     MW12564   3.417   1.002   5.421 -0.3405  0.6042  0.2269
 3142SOL     OW12565   2.460   5.428   3.778  0.0884 -0.1309  0.1931
 3142SOL    HW112566   2.448   5.479   3.698  0.6921 -0.2461  0.0294
 3142SOL    HW212567   2.372   5.424   3.817 -0.1078  0.3740 -0.1865
 3142SOL     MW12568   2.447   5.434   3.773  0.1405 -0.0810  0.1235
 3143SOL     OW12569   2.631   3.420   4.970 -0.2020 -0.1869  0.2353
 3143SOL    HW112570   2.540   3.450   4.967 -0.6884 -1.4681  1.3644
 3143SOL    HW212571   2.656   3.411   4.878 -0.9611  0.8992 -0.0931
 3143SOL     MW12572   2.622   3.423   4.958 -0.3615 -0.2119  0.3378
 3144SOL     OW12573   5.303   5.430   2.831  0.3628 -0.2059 -0.0977
 3144SOL    HW112574   5.390   5.471   2.832  0.1899  0.1716 -0.4285
 3144SOL    HW212575   5.269   5.448   2.743  0.6438 -1.7959 -0.5745
 3144SOL     MW12576   5.310   5.437   2.820  0.3767 -0.3611 -0.2011
 3145SOL     OW12577   2.624   4.171   4.249  0.1996  0.1509 -0.0100
 3145SOL    HW112578   2.593   4.082   4.230 -1.5893  0.4856  1.0758
 3145SOL    HW212579   2.601   4.185   4.341  1.2237  1.4447  0.0711
 3145SOL     MW12580   2.617   4.162   4.258  0.1017  0.3594  0.1394
 3146SOL     OW12581   0.847   0.919   1.012 -0.1178  0.0924 -0.0592
 3146SOL    HW112582   0.929   0.878   0.983  0.2006  0.8541 -0.2411
 3146SOL    HW212583   0.856   0.924   1.108  1.4706  3.0865 -0.2765
 3146SOL     MW12584   0.859   0.914   1.021  0.1263  0.5731 -0.1103
 3147SOL     OW12585   2.533   4.276   5.095 -0.1388  0.2786 -0.2879
 3147SOL    HW112586   2.546   4.303   5.004  0.5277  0.4864 -0.1409
 3147SOL    HW212587   2.509   4.184   5.089 -3.6330  1.1013 -0.8656
 3147SOL     MW12588   2.532   4.268   5.082 -0.5008  0.4105 -0.3430
 3148SOL     OW12589   2.077   4.136   2.462 -0.1939 -0.6433 -0.6447
 3148SOL    HW112590   2.142   4.071   2.490  1.2575  1.2089  0.4451
 3148SOL    HW212591   2.121   4.187   2.395 -1.3876 -0.8372 -1.6178
 3148SOL     MW12592   2.091   4.134   2.457 -0.1609 -0.4310 -0.6297
 3149SOL     OW12593   3.368   2.362   4.401  0.1131  0.0353  0.5362
 3149SOL    HW112594   3.330   2.286   4.358  1.2584 -0.9662  1.2136
 3149SOL    HW212595   3.413   2.327   4.478  1.2039  1.3037  0.5383
 3149SOL     MW12596   3.369   2.348   4.405  0.3994  0.0695  0.6232
 3150SOL     OW12597   4.046   2.467   0.808  0.1291 -0.4588  0.4260
 3150SOL    HW112598   4.005   2.522   0.741  0.4156 -1.7843 -0.8675
 3150SOL    HW212599   4.023   2.378   0.784  1.0456 -1.0306  1.5607
 3150SOL     MW12600   4.037   2.463   0.797  0.2831 -0.7017  0.4057
 3151SOL     OW12601   3.271   5.395   5.386 -0.2370  0.2969  0.0954
 3151SOL    HW112602   3.267   5.300   5.392  1.0865  0.1905 -0.4736
 3151SOL    HW212603   3.364   5.415   5.379 -0.5175  1.6148 -0.1157
 3151SOL     MW12604   3.282   5.385   5.386 -0.1035  0.4520 -0.0044
 3152SOL     OW12605   2.034   0.571   1.732 -0.3425 -0.1163 -0.3530
 3152SOL    HW112606   2.124   0.538   1.736 -0.3813 -0.2800 -0.8259
 3152SOL    HW212607   1.991   0.532   1.809 -0.1168 -0.3531 -0.3461
 3152SOL     MW12608   2.040   0.562   1.743 -0.3186 -0.1676 -0.4126
 3153SOL     OW12609   2.013   5.075   3.662 -0.0826  0.2738 -0.0464
 3153SOL    HW112610   2.029   5.077   3.567  1.2666  1.3669  0.1796
 3153SOL    HW212611   2.084   5.127   3.700  0.3916 -1.5214  1.7273
 3153SOL     MW12612   2.024   5.082   3.655  0.1508  0.1839  0.2096
 3154SOL     OW12613   2.122   0.464   0.094 -0.3969 -0.1923 -0.4720
 3154SOL    HW112614   2.210   0.430   0.079 -0.4474 -1.0799  1.0845
 3154SOL    HW212615   2.133   0.559   0.090  0.9660 -0.2222  1.1738
 3154SOL     MW12616   2.135   0.472   0.092 -0.2289 -0.3097 -0.0621
 3155SOL     OW12617   5.279   1.003   2.609  0.2308  0.5805  0.0371
 3155SOL    HW112618   5.213   1.072   2.609 -1.2460 -0.7200  1.7710
 3155SOL    HW212619   5.351   1.039   2.660 -0.4226  0.9692  0.7144
 3155SOL     MW12620   5.280   1.017   2.616 -0.0419  0.4638  0.3458
 3156SOL     OW12621   2.509   4.241   3.160  0.5273 -0.2762  0.1067
 3156SOL    HW112622   2.558   4.322   3.143 -0.5822  0.3556 -0.1878
 3156SOL    HW212623   2.488   4.207   3.073 -1.1100  0.4424  0.1922
 3156SOL     MW12624   2.513   4.247   3.146  0.1757 -0.1033  0.0799
 3157SOL     OW12625   0.673   2.452   2.409 -0.3909 -0.0988  0.1107
 3157SOL    HW112626   0.668   2.376   2.465  0.8727 -0.4269 -0.1922
 3157SOL    HW212627   0.631   2.425   2.327  1.8774 -1.2252 -0.7577
 3157SOL     MW12628   0.667   2.439   2.405  0.0613 -0.2850 -0.0392
 3158SOL     OW12629   2.495   4.107   2.578  0.4196  0.3377  0.5784
 3158SOL    HW112630   2.527   4.063   2.656  0.4113  0.5160  0.6834
 3158SOL    HW212631   2.574   4.143   2.537  0.6820 -1.3478 -0.5157
 3158SOL     MW12632   2.509   4.106   2.582  0.4521  0.1448  0.4518
 3159SOL     OW12633   0.337   2.920   4.679 -0.6861  0.0172  0.0635
 3159SOL    HW112634   0.386   2.993   4.715 -1.2773  0.1421  0.6212
 3159SOL    HW212635   0.395   2.884   4.612  0.4252 -0.2104  1.1073
 3159SOL     MW12636   0.351   2.925   4.675 -0.6195  0.0041  0.2685
 3160SOL     OW12637   1.915   5.409   2.176 -0.1074  0.0673 -0.0308
 3160SOL    HW112638   1.965   5.346   2.228  0.1236  0.9026  0.7729
 3160SOL    HW212639   1.937   5.387   2.085  2.5597  1.0330  0.2870
 3160SOL     MW12640   1.924   5.398   2.171  0.2636  0.2978  0.1128
 3161SOL     OW12641   4.360   5.253   3.016  0.4671 -0.3891  0.2525
 3161SOL    HW112642   4.364   5.330   2.960 -0.5947  0.9487  1.9259
 3161SOL    HW212643   4.448   5.216   3.012  0.4216 -0.4368 -2.3212
 3161SOL     MW12644   4.372   5.258   3.008  0.3254 -0.2240  0.1372
 3162SOL     OW12645   3.147   2.191   2.997 -0.9631  0.3935  0.2921
 3162SOL    HW112646   3.224   2.157   2.952 -1.1130 -1.2506  1.1828
 3162SOL    HW212647   3.138   2.281   2.965  0.6207  0.2406 -0.7087
 3162SOL     MW12648   3.156   2.198   2.987 -0.7796  0.1634  0.2780
 3163SOL     OW12649   3.647   0.888   2.915  0.0388  0.0103  0.5188
 3163SOL    HW112650   3.738   0.898   2.945  0.1556  1.0282 -0.1170
 3163SOL    HW212651   3.596   0.880   2.995  0.6273  0.0436  0.9059
 3163SOL     MW12652   3.652   0.888   2.929  0.1291  0.1449  0.4870
 3164SOL     OW12653   3.163   4.904   2.033  0.3968  0.1447 -0.2248
 3164SOL    HW112654   3.182   4.903   2.126  1.4744  0.0421 -0.4387
 3164SOL    HW212655   3.240   4.944   1.992  0.1108 -0.1683 -1.1070
 3164SOL     MW12656   3.175   4.909   2.039  0.4981  0.0915 -0.3651
 3165SOL     OW12657   0.240   2.084   4.009  0.1334 -0.2161  0.0589
 3165SOL    HW112658   0.236   2.136   4.089  0.0238  0.0808 -0.1367
 3165SOL    HW212659   0.298   2.133   3.951  2.0259 -1.5303  0.7452
 3165SOL     MW12660   0.247   2.097   4.011  0.3616 -0.3463  0.1217
 3166SOL     OW12661   3.064   5.027   5.236 -0.0775  0.2922  0.6443
 3166SOL    HW112662   3.076   5.103   5.178 -1.8006  0.1564  0.0590
 3166SOL    HW212663   3.111   4.956   5.192 -0.3186  0.4980  0.0423
 3166SOL     MW12664   3.072   5.028   5.223 -0.3289  0.3011  0.4923
 3167SOL     OW12665   4.768   3.016   3.195 -0.2301 -0.5524 -0.0164
 3167SOL    HW112666   4.825   3.006   3.271 -0.9215 -1.7385  0.3636
 3167SOL    HW212667   4.728   2.930   3.183 -2.3132  0.3486  0.0439
 3167SOL     MW12668   4.770   3.004   3.203 -0.5852 -0.5889  0.0400
 3168SOL     OW12669   1.667   4.254   1.862 -0.7355  0.0385 -0.3365
 3168SOL    HW112670   1.648   4.167   1.829 -0.4492  0.0434 -0.5165
 3168SOL    HW212671   1.747   4.244   1.913 -0.4184  0.2835 -0.7712
 3168SOL     MW12672   1.675   4.242   1.864 -0.6582  0.0705 -0.4152
 3169SOL     OW12673   0.474   2.875   3.476 -0.4425 -0.2781  0.7710
 3169SOL    HW112674   0.436   2.954   3.438 -1.2477 -1.6313 -1.4362
 3169SOL    HW212675   0.437   2.870   3.564 -1.1166  1.2821  0.6012
 3169SOL     MW12676   0.465   2.884   3.482 -0.6319 -0.2516  0.4667
 3170SOL     OW12677   0.323   4.490   0.267 -0.0041 -0.6285  0.6630
 3170SOL    HW112678   0.233   4.471   0.240 -0.8839  1.1320  2.1388
 3170SOL    HW212679   0.377   4.445   0.202 -1.9596 -0.1430 -1.4303
 3170SOL     MW12680   0.319   4.482   0.255 -0.3671 -0.3410  0.5839
 3171SOL     OW12681   2.644   2.491   4.346 -0.1028  0.2342 -0.2559
 3171SOL    HW112682   2.587   2.438   4.290 -2.1965  1.1862  0.8551
 3171SOL    HW212683   2.711   2.429   4.376 -0.1811 -0.7962 -2.0378
 3171SOL     MW12684   2.645   2.476   4.343 -0.3809  0.2242 -0.3418
 3172SOL     OW12685   4.795   3.384   5.466 -0.2588  0.2814  0.0040
 3172SOL    HW112686   4.812   3.303   5.514  0.3260 -0.3011 -1.1521
 3172SOL    HW212687   4.710   3.369   5.424 -0.1311  0.2381 -0.2439
 3172SOL     MW12688   4.786   3.371   5.467 -0.1676  0.2013 -0.1757
 3173SOL     OW12689   4.779   4.683   3.361  0.2416  0.2677  0.3565
 3173SOL    HW112690   4.846   4.751   3.360  0.1591  0.3523  0.6369
 3173SOL    HW212691   4.706   4.720   3.411  0.2105 -0.0412  0.5452
 3173SOL     MW12692   4.778   4.696   3.367  0.2270  0.2390  0.4166
 3174SOL     OW12693   1.711   0.802   1.010 -0.6087  0.5074  0.9528
 3174SOL    HW112694   1.688   0.833   1.098 -2.5547 -0.4467  0.8361
 3174SOL    HW212695   1.686   0.709   1.010  1.7296 -0.2065  0.1632
 3174SOL     MW12696   1.705   0.794   1.022 -0.5585  0.2939  0.8368
 3175SOL     OW12697   0.223   0.725   1.161 -0.5902  0.0077 -0.3050
 3175SOL    HW112698   0.149   0.680   1.121 -0.7023  0.7912 -0.9994
 3175SOL    HW212699   0.273   0.760   1.087 -0.1146  0.3950  0.1895
 3175SOL     MW12700   0.220   0.724   1.146 -0.5436  0.1576 -0.3306
 3176SOL     OW12701   2.822   0.328   1.606  0.3568  0.1352 -0.3845
 3176SOL    HW112702   2.795   0.340   1.515 -0.3549  0.3860 -0.1527
 3176SOL    HW212703   2.912   0.297   1.601  0.2943  0.0602 -1.1757
 3176SOL     MW12704   2.830   0.325   1.594  0.2577  0.1577 -0.4561
 3177SOL     OW12705   1.765   1.025   1.473 -0.1144  0.2415  0.2285
 3177SOL    HW112706   1.790   0.986   1.557 -1.7241 -1.5404 -0.0677
 3177SOL    HW212707   1.793   0.962   1.408 -2.9361 -0.6391 -0.2546
 3177SOL     MW12708   1.772   1.012   1.476 -0.6817 -0.0993  0.1287
 3178SOL     OW12709   4.711   3.343   1.937 -0.0545  0.1680 -0.1285
 3178SOL    HW112710   4.731   3.287   1.862  0.3268 -1.4048  1.0973
 3178SOL    HW212711   4.627   3.311   1.970 -0.1289  0.7123  0.2220
 3178SOL     MW12712   4.703   3.332   1.932 -0.0152  0.0364  0.0733
 3179SOL     OW12713   0.820   4.771   3.676 -0.3977  0.1276 -0.1935
 3179SOL    HW112714   0.766   4.850   3.684  0.6496  0.8618 -0.0527
 3179SOL    HW212715   0.907   4.805   3.653  0.6245 -0.7954  2.0523
 3179SOL     MW12716   0.825   4.786   3.674 -0.1328  0.1034  0.1120
 3180SOL     OW12717   4.083   0.810   1.603  0.0898 -0.0288  0.3895
 3180SOL    HW112718   4.179   0.805   1.603  0.2339  1.6253  2.0706
 3180SOL    HW212719   4.063   0.874   1.535  0.1252 -0.7046 -0.2717
 3180SOL     MW12720   4.093   0.818   1.594  0.1128  0.0965  0.5201
 3181SOL     OW12721   0.412   4.751   3.714 -0.6171  0.0259 -0.1288
 3181SOL    HW112722   0.461   4.795   3.784 -0.9053 -1.1024  0.8197
 3181SOL    HW212723   0.332   4.803   3.704 -0.8825 -0.1660  0.8639
 3181SOL     MW12724   0.408   4.763   3.722 -0.6880 -0.1431  0.1197
 3182SOL     OW12725   3.894   4.971   2.241 -0.4765 -0.3459  0.0967
 3182SOL    HW112726   3.830   4.910   2.278 -1.4261  0.7983  0.3630
 3182SOL    HW212727   3.842   5.034   2.191  0.3417  1.0611  0.9502
 3182SOL     MW12728   3.879   4.971   2.240 -0.4933 -0.0193  0.2401
 3183SOL     OW12729   1.734   1.940   4.345  0.1344 -0.0422 -0.0730
 3183SOL    HW112730   1.736   1.907   4.255  0.2573 -0.2879  0.0190
 3183SOL    HW212731   1.803   1.891   4.390  0.1052  0.1150  0.1428
 3183SOL     MW12732   1.743   1.930   4.339  0.1464 -0.0535 -0.0336
 3184SOL     OW12733   5.231   5.002   4.487  0.4640  0.0920  0.0911
 3184SOL    HW112734   5.299   4.935   4.476 -0.4935 -1.2176  1.6659
 3184SOL    HW212735   5.258   5.049   4.566  0.3607  0.6064 -0.1828
 3184SOL     MW12736   5.243   4.999   4.496  0.3282 -0.0098  0.2576
 3185SOL     OW12737   4.987   1.525   0.158  0.4071  0.2086  0.1240
 3185SOL    HW112738   4.961   1.571   0.238 -0.1560  0.0898  0.0154
 3185SOL    HW212739   4.951   1.578   0.087 -0.8237 -0.7240  0.0168
 3185SOL     MW12740   4.979   1.538   0.159  0.1775  0.0740  0.0964
 3186SOL     OW12741   1.555   3.647   3.464 -0.2411  0.3478  0.1795
 3186SOL    HW112742   1.647   3.673   3.465  0.2264 -1.1691 -0.3305
 3186SOL    HW212743   1.542   3.604   3.380 -0.9291 -1.0215  0.9323
 3186SOL     MW12744   1.565   3.645   3.454 -0.2693 -0.0216  0.2106
 3187SOL     OW12745   3.113   2.368   3.892 -0.4052 -0.3881  0.1083
 3187SOL    HW112746   3.116   2.464   3.898 -1.0866 -0.3165 -0.5275
 3187SOL    HW212747   3.036   2.344   3.944 -0.1295 -0.6123  0.4192
 3187SOL     MW12748   3.103   2.377   3.900 -0.4571 -0.4076  0.0667
 3188SOL     OW12749   2.820   2.301   1.418  0.5010 -0.2859 -0.4959
 3188SOL    HW112750   2.799   2.356   1.342 -1.4976 -1.5015 -0.9057
 3188SOL    HW212751   2.736   2.289   1.462  1.6969  0.8747  2.3225
 3188SOL     MW12752   2.807   2.306   1.414  0.3982 -0.2929 -0.1876
 3189SOL     OW12753   4.314   3.092   2.224  0.2183 -0.2691  0.4400
 3189SOL    HW112754   4.343   3.001   2.228  0.2961 -0.2093  1.3266
 3189SOL    HW212755   4.235   3.095   2.277 -0.1438  0.0551 -0.1045
 3189SOL     MW12756   4.308   3.081   2.231  0.1819 -0.2199  0.4838
 3190SOL     OW12757   5.443   4.527   1.599  0.1170  0.2867 -0.1502
 3190SOL    HW112758   5.515   4.466   1.583  0.5542  0.8261 -0.2991
 3190SOL    HW212759   5.466   4.570   1.681  0.4144  1.0809 -0.6372
 3190SOL     MW12760   5.455   4.525   1.607  0.2110  0.4574 -0.2316
 3191SOL     OW12761   1.813   1.504   1.864 -0.4362  0.4967  0.2638
 3191SOL    HW112762   1.806   1.577   1.803  0.0240  0.1298 -0.2414
 3191SOL    HW212763   1.799   1.543   1.951 -2.4028  0.8189 -0.1476
 3191SOL     MW12764   1.810   1.518   1.868 -0.6290  0.4909  0.1465
 3192SOL     OW12765   0.762   4.357   5.241 -0.2115 -1.0080 -0.2356
 3192SOL    HW112766   0.807   4.386   5.321  0.0093 -1.4279 -0.2020
 3192SOL    HW212767   0.774   4.429   5.180 -1.4602 -0.1362  0.5012
 3192SOL     MW12768   0.769   4.370   5.244 -0.3431 -0.9501 -0.1370
 3193SOL     OW12769   5.222   0.025   1.876  0.1753 -0.3111 -0.3762
 3193SOL    HW112770   5.201   0.102   1.930  1.4221 -0.2947  0.1201
 3193SOL    HW212771   5.137  -0.013   1.855 -0.3643 -0.5744  1.9970
 3193SOL     MW12772   5.208   0.030   1.880  0.2658 -0.3427 -0.0089
 3194SOL     OW12773   0.872   2.184   1.076 -0.4479 -0.2803 -0.0214
 3194SOL    HW112774   0.871   2.096   1.040 -2.1646 -0.7955  1.1463
 3194SOL    HW212775   0.965   2.202   1.093 -0.1101 -2.1247  0.3294
 3194SOL     MW12776   0.884   2.175   1.074 -0.6244 -0.5823  0.1730
 3195SOL     OW12777   3.770   2.208   1.345  0.1399 -0.3360  0.1840
 3195SOL    HW112778   3.704   2.277   1.341 -1.4223 -1.7777 -0.2039
 3195SOL    HW212779   3.799   2.197   1.255  0.6090  0.0156  0.2916
 3195SOL     MW12780   3.765   2.215   1.333 -0.0001 -0.4756  0.1481
 3196SOL     OW12781   3.651   0.859   3.992 -0.3313 -0.2769  0.1732
 3196SOL    HW112782   3.645   0.919   4.066 -0.1021  0.6417 -0.5429
 3196SOL    HW212783   3.706   0.788   4.024  0.6946  0.6499  0.5331
 3196SOL     MW12784   3.657   0.858   4.006 -0.1706 -0.0407  0.1276
 3197SOL     OW12785   4.126   2.691   3.049  0.3003 -0.0849 -0.2755
 3197SOL    HW112786   4.094   2.750   3.116  0.9047  1.1482 -1.0296
 3197SOL    HW212787   4.058   2.623   3.042 -0.7175  0.8543  0.1754
 3197SOL     MW12788   4.113   2.690   3.056  0.2474  0.1931 -0.3143
 3198SOL     OW12789   4.779   1.868   1.494  0.0504  0.4384 -0.0702
 3198SOL    HW112790   4.867   1.844   1.465 -0.5879  0.7235 -2.4182
 3198SOL    HW212791   4.792   1.907   1.581  1.9917 -1.1936  0.4621
 3198SOL     MW12792   4.792   1.870   1.502  0.2172  0.2660 -0.3026
 3199SOL     OW12793   0.927   3.521   0.571 -0.3549  0.5269  0.0336
 3199SOL    HW112794   0.874   3.445   0.547 -1.2925  1.6987 -1.8986
 3199SOL    HW212795   1.002   3.484   0.617 -0.3836 -1.6612 -1.4912
 3199SOL     MW12796   0.930   3.507   0.574 -0.4786  0.3968 -0.4089
 3200SOL     OW12797   3.386   3.126   4.010 -0.0029  0.5986 -0.5788
 3200SOL    HW112798   3.378   3.161   3.922  0.8590 -0.4787 -1.1097
 3200SOL    HW212799   3.398   3.203   4.066  0.7523  1.2194 -1.5654
 3200SOL     MW12800   3.387   3.140   4.006  0.2041  0.5402 -0.7731
 3201SOL     OW12801   3.067   5.175   1.937 -0.2124  0.3382 -0.0747
 3201SOL    HW112802   3.136   5.180   1.871 -0.1063 -1.2259 -0.1171
 3201SOL    HW212803   3.080   5.253   1.991 -0.2011  1.5816 -1.7716
 3201SOL     MW12804   3.077   5.185   1.936 -0.1974  0.2971 -0.2973
 3202SOL     OW12805   3.768   4.610   4.909 -0.0534 -0.2874  0.2779
 3202SOL    HW112806   3.709   4.681   4.935  2.1626  1.5340  0.6248
 3202SOL    HW212807   3.789   4.566   4.991  0.7080  0.4242  0.4773
 3202SOL     MW12808   3.763   4.614   4.923  0.3277  0.0369  0.3479
 3203SOL     OW12809   4.965   3.780   2.229 -0.4916  0.8794 -0.2887
 3203SOL    HW112810   4.981   3.724   2.153 -2.1869 -0.3602  0.2210
 3203SOL    HW212811   4.881   3.821   2.211 -0.4509  1.3205  0.4943
 3203SOL     MW12812   4.956   3.778   2.217 -0.7034  0.7772 -0.1232
 3204SOL     OW12813   0.144   0.533   1.901  0.2865 -0.9877  0.1597
 3204SOL    HW112814   0.086   0.506   1.972 -0.4767 -0.4626 -0.2477
 3204SOL    HW212815   0.218   0.574   1.946 -1.1153  1.1908  0.6665
 3204SOL     MW12816   0.146   0.535   1.916  0.0094 -0.6416  0.1725
 3205SOL     OW12817   4.920   1.676   5.418  0.0071 -0.2282 -0.5787
 3205SOL    HW112818   4.976   1.704   5.345  1.5346 -2.4302 -0.3377
 3205SOL    HW212819   4.904   1.756   5.468  0.3293  1.0176 -2.3798
 3205SOL     MW12820   4.925   1.690   5.415  0.2439 -0.3506 -0.7784
 3206SOL     OW12821   1.044   1.450   1.891  0.9034  0.1858  0.4624
 3206SOL    HW112822   1.044   1.537   1.851  1.1803  0.4572  1.0437
 3206SOL    HW212823   1.018   1.465   1.982 -1.3151 -0.6191  0.0214
 3206SOL     MW12824   1.041   1.463   1.898  0.6549  0.1175  0.4803
 3207SOL     OW12825   1.922   2.563   3.493  0.0487 -0.1077  0.8688
 3207SOL    HW112826   1.903   2.470   3.485 -0.8492  0.0910  0.5615
 3207SOL    HW212827   1.845   2.600   3.536 -1.2806  1.0600 -2.2175
 3207SOL     MW12828   1.910   2.556   3.497 -0.2364  0.0672  0.4344
 3208SOL     OW12829   0.733   0.577   4.976 -0.4545 -0.2113 -0.0572
 3208SOL    HW112830   0.762   0.489   4.951 -1.0027  0.2119 -2.4309
 3208SOL    HW212831   0.782   0.636   4.919 -0.7071  0.9918  0.9230
 3208SOL     MW12832   0.743   0.573   4.965 -0.5570 -0.0031 -0.2356
 3209SOL     OW12833   2.761   0.756   0.296  0.4854  0.1473  0.3180
 3209SOL    HW112834   2.693   0.724   0.355  0.4028  1.1208  0.7676
 3209SOL    HW212835   2.835   0.777   0.353  0.3630  1.2051  0.1132
 3209SOL     MW12836   2.762   0.754   0.311  0.4591  0.4074  0.3493
 3210SOL     OW12837   5.120   2.893   3.668  0.1993  0.0681 -0.3430
 3210SOL    HW112838   5.167   2.965   3.627  1.4951 -0.5096  0.0903
 3210SOL    HW212839   5.148   2.896   3.760 -3.0164  1.6795  0.7653
 3210SOL     MW12840   5.129   2.903   3.675 -0.0465  0.2004 -0.1457
 3211SOL     OW12841   4.097   0.872   2.149 -0.2285  0.3891 -0.3217
 3211SOL    HW112842   4.164   0.900   2.087  0.8967 -0.7274  0.3447
 3211SOL    HW212843   4.106   0.932   2.223  1.7104 -1.1473  0.8016
 3211SOL     MW12844   4.106   0.883   2.151  0.1638  0.0495 -0.0926
 3212SOL     OW12845   4.862   0.241   4.017  0.0101  0.5499  0.3086
 3212SOL    HW112846   4.868   0.334   3.992  0.6677  0.0775 -1.4250
 3212SOL    HW212847   4.845   0.195   3.935  0.5019 -0.9547  1.0119
 3212SOL     MW12848   4.860   0.247   4.004  0.1573  0.2968  0.1767
 3213SOL     OW12849   2.624   1.631   3.583 -0.4469 -0.6306 -0.3760
 3213SOL    HW112850   2.552   1.626   3.646 -1.9456 -2.4591 -2.0907
 3213SOL    HW212851   2.677   1.553   3.601  0.1987 -0.1551 -0.1800
 3213SOL     MW12852   2.621   1.620   3.593 -0.5561 -0.8038 -0.5704
 3214SOL     OW12853   4.579   3.275   2.318  0.2965  0.4027  0.0561
 3214SOL    HW112854   4.568   3.239   2.230  1.9714 -2.6422  0.9389
 3214SOL    HW212855   4.496   3.259   2.361 -0.8125  2.6124 -1.0853
 3214SOL     MW12856   4.567   3.268   2.312  0.3690  0.2958  0.0230
 3215SOL     OW12857   5.404   3.282   0.793  0.4709 -0.5650 -0.4922
 3215SOL    HW112858   5.392   3.365   0.747  0.8748  1.9165  3.4154
 3215SOL    HW212859   5.337   3.224   0.756 -2.0617  2.5385 -1.2003
 3215SOL     MW12860   5.394   3.285   0.782  0.1984  0.1500 -0.0827
 3216SOL     OW12861   1.069   4.900   3.602 -0.5513  0.0981  0.3702
 3216SOL    HW112862   1.028   4.971   3.652 -1.9454 -1.6444  1.8833
 3216SOL    HW212863   1.058   4.925   3.511 -0.7579  1.9328  0.8660
 3216SOL     MW12864   1.062   4.912   3.597 -0.7562  0.1099  0.6274
 3217SOL     OW12865   4.682   4.555   2.259 -0.1665 -0.0404  0.5493
 3217SOL    HW112866   4.753   4.526   2.202 -0.3156 -0.4177  0.5530
 3217SOL    HW212867   4.700   4.648   2.275 -0.0075  0.0130  0.0628
 3217SOL     MW12868   4.693   4.563   2.254 -0.1652 -0.0819  0.4875
 3218SOL     OW12869   5.355   2.211   2.649 -0.1933 -0.7526 -0.0789
 3218SOL    HW112870   5.299   2.140   2.682 -1.2980  0.4144  0.6589
 3218SOL    HW212871   5.442   2.189   2.681 -0.5586 -1.6832  0.3139
 3218SOL     MW12872   5.359   2.199   2.657 -0.3815 -0.7224  0.0659
 3219SOL     OW12873   3.807   4.689   3.478 -0.2220  0.2909 -0.0806
 3219SOL    HW112874   3.879   4.751   3.468  1.4930 -1.7561 -1.3364
 3219SOL    HW212875   3.761   4.693   3.394  0.1771 -0.4210 -0.3438
 3219SOL     MW12876   3.810   4.698   3.466  0.0486 -0.0623 -0.2751
 3220SOL     OW12877   4.490   4.551   5.164 -0.1415  0.2860  0.0846
 3220SOL    HW112878   4.416   4.517   5.215 -2.1400  2.3295 -1.2379
 3220SOL    HW212879   4.550   4.477   5.156 -0.5313 -0.6296  3.7992
 3220SOL     MW12880   4.488   4.537   5.169 -0.4472  0.4304  0.3908
 3221SOL     OW12881   1.163   5.366   3.231 -0.0892  0.0023 -0.2256
 3221SOL    HW112882   1.249   5.383   3.191  0.0492 -0.0620  0.0375
 3221SOL    HW212883   1.111   5.444   3.211 -0.8575 -1.0458 -2.6928
 3221SOL     MW12884   1.168   5.378   3.224 -0.1698 -0.1401 -0.5077
 3222SOL     OW12885   3.020   3.758   5.135  0.3341 -0.0605  0.3376
 3222SOL    HW112886   3.107   3.720   5.129  0.8857  1.2860 -0.4103
 3222SOL    HW212887   2.979   3.710   5.208  1.5898 -0.8669  0.5550
 3222SOL     MW12888   3.026   3.747   5.144  0.5655  0.0087  0.2697
 3223SOL     OW12889   4.979   3.116   2.451 -0.2990 -0.0519  0.0808
 3223SOL    HW112890   5.010   3.053   2.387 -0.5236  0.8357 -0.9300
 3223SOL    HW212891   4.886   3.096   2.462 -0.2534 -0.2229  0.1484
 3223SOL     MW12892   4.971   3.106   2.444 -0.3219  0.0398 -0.0400
 3224SOL     OW12893   0.923   0.021   2.875 -0.1929 -0.2061 -0.2225
 3224SOL    HW112894   0.930  -0.051   2.812  1.5186 -0.0165 -0.2852
 3224SOL    HW212895   0.983   0.088   2.842 -0.0365  0.3136  1.0536
 3224SOL     MW12896   0.932   0.020   2.863  0.0462 -0.1153 -0.0672
 3225SOL     OW12897   1.490   1.968   4.483 -0.1700  0.1175  0.0487
 3225SOL    HW112898   1.563   1.931   4.435 -0.9302 -0.5815 -0.6073
 3225SOL    HW212899   1.478   1.909   4.558 -0.7286 -0.3840 -0.4299
 3225SOL     MW12900   1.498   1.956   4.487 -0.3388 -0.0362 -0.0965
 3226SOL     OW12901   1.283   2.790   4.144  0.0531  0.2315  0.5760
 3226SOL    HW112902   1.310   2.731   4.074  1.8348  0.0306  1.3806
 3226SOL    HW212903   1.230   2.735   4.202  1.7239 -0.6576  1.3393
 3226SOL     MW12904   1.279   2.775   4.142  0.4951  0.0919  0.7767
 3227SOL     OW12905   4.522   2.502   3.012  0.3594 -0.1426  0.2460
 3227SOL    HW112906   4.608   2.540   2.992  0.3222 -0.4810 -0.6209
 3227SOL    HW212907   4.483   2.562   3.076  0.6478  0.8210 -0.4525
 3227SOL     MW12908   4.528   2.514   3.018  0.3915 -0.0626  0.0456
 3228SOL     OW12909   4.202   2.531   1.493 -0.0504  0.1995 -0.0714
 3228SOL    HW112910   4.112   2.529   1.463  0.2275  2.5758 -1.3566
 3228SOL    HW212911   4.199   2.582   1.575  0.0344 -0.4380  0.3345
 3228SOL     MW12912   4.190   2.538   1.500 -0.0040  0.4221 -0.1840
 3229SOL     OW12913   2.862   2.498   4.860  0.5627  0.2902  0.0635
 3229SOL    HW112914   2.791   2.455   4.811  1.8386 -1.6350 -0.1993
 3229SOL    HW212915   2.889   2.571   4.804  0.0499 -0.1151 -0.7385
 3229SOL     MW12916   2.856   2.502   4.846  0.6604 -0.0082 -0.0728
 3230SOL     OW12917   1.859   1.035   3.328 -0.2706 -0.9561  0.1099
 3230SOL    HW112918   1.945   1.036   3.287  0.0282 -0.5807  0.7270
 3230SOL    HW212919   1.798   1.054   3.257  0.2571 -0.0935 -0.1350
 3230SOL     MW12920   1.862   1.038   3.314 -0.1648 -0.7976  0.1575
 3231SOL     OW12921   1.800   2.225   0.869  0.3751  0.0364  0.0428
 3231SOL    HW112922   1.735   2.245   0.802  0.1871  1.2052  0.5488
 3231SOL    HW212923   1.877   2.197   0.820  0.4105  1.3639 -0.7090
 3231SOL     MW12924   1.802   2.224   0.854  0.3556  0.3559  0.0114
 3232SOL     OW12925   2.436   5.347   1.268  0.2503 -0.1932  0.2298
 3232SOL    HW112926   2.349   5.380   1.246  0.2539 -0.8337 -0.8091
 3232SOL    HW212927   2.441   5.261   1.225  1.2232 -0.3630  0.6540
 3232SOL     MW12928   2.425   5.340   1.260  0.3753 -0.2969  0.1511
 3233SOL     OW12929   1.216   3.738   2.498 -0.3468 -0.1151 -0.5398
 3233SOL    HW112930   1.300   3.783   2.494  0.0139 -0.6886  0.3044
 3233SOL    HW212931   1.238   3.646   2.511 -1.0905 -0.4321 -1.4181
 3233SOL     MW12932   1.229   3.732   2.499 -0.3959 -0.2291 -0.5442
 3234SOL     OW12933   3.011   1.700   0.969  0.1691 -0.2046 -0.1518
 3234SOL    HW112934   3.065   1.722   1.044  1.3385 -0.5307 -0.8738
 3234SOL    HW212935   2.992   1.785   0.928  0.6319 -0.1336 -0.2228
 3234SOL     MW12936   3.015   1.714   0.973  0.3781 -0.2372 -0.2533
 3235SOL     OW12937   2.619   4.543   2.264  0.4663  0.0974  0.5767
 3235SOL    HW112938   2.647   4.493   2.187  0.1623  1.2097 -0.2776
 3235SOL    HW212939   2.687   4.609   2.275 -0.5243  1.2417 -0.0062
 3235SOL     MW12940   2.631   4.545   2.255  0.3006  0.3863  0.3927
 3236SOL     OW12941   1.348   3.650   4.236  0.0347 -0.6134 -0.0131
 3236SOL    HW112942   1.365   3.652   4.330 -1.8866  1.9829  0.3811
 3236SOL    HW212943   1.382   3.733   4.204 -2.9933  0.4585 -0.7947
 3236SOL     MW12944   1.355   3.661   4.244 -0.5989 -0.1438 -0.0627
 3237SOL     OW12945   0.748   3.509   4.730 -0.5011  0.3979 -0.3217
 3237SOL    HW112946   0.748   3.480   4.639  2.7464  1.8615 -0.9055
 3237SOL    HW212947   0.697   3.590   4.730 -1.1900 -0.0200 -0.6251
 3237SOL     MW12948   0.741   3.515   4.719 -0.1736  0.5318 -0.4353
 3238SOL     OW12949   1.052   0.235   1.188  0.2497 -0.1914  0.4964
 3238SOL    HW112950   0.996   0.260   1.114 -0.9216 -0.8702  1.1296
 3238SOL    HW212951   1.099   0.157   1.156 -0.0005 -0.2846  0.3518
 3238SOL     MW12952   1.051   0.228   1.174  0.0678 -0.2902  0.5590
 3239SOL     OW12953   3.093   1.456   1.580 -0.0631 -0.2029 -0.1152
 3239SOL    HW112954   3.041   1.507   1.642  0.3183 -0.0069  0.0459
 3239SOL    HW212955   3.151   1.403   1.635 -0.4850 -0.8462 -0.2788
 3239SOL     MW12956   3.094   1.456   1.595 -0.0683 -0.2601 -0.1155
 3240SOL     OW12957   5.189   4.488   2.915  0.1859  0.2006 -0.1870
 3240SOL    HW112958   5.120   4.552   2.901 -0.5507 -0.3644  0.6993
 3240SOL    HW212959   5.267   4.540   2.938  0.2121  0.8642 -1.6652
 3240SOL     MW12960   5.191   4.503   2.916  0.0949  0.2132 -0.2628
 3241SOL     OW12961   1.105   5.269   4.387  0.0186  0.1913 -0.1889
 3241SOL    HW112962   1.115   5.279   4.482 -0.0648  0.9226 -0.2501
 3241SOL    HW212963   1.188   5.231   4.359 -0.4366 -1.2659  0.3342
 3241SOL     MW12964   1.117   5.266   4.396 -0.0503  0.0983 -0.1297
 3242SOL     OW12965   0.883   3.045   1.259 -0.1413  0.0515 -0.2457
 3242SOL    HW112966   0.883   3.093   1.177 -0.7193 -0.4426 -0.5441
 3242SOL    HW212967   0.790   3.035   1.281 -0.0610 -1.2892 -0.4164
 3242SOL     MW12968   0.871   3.050   1.252 -0.2050 -0.1833 -0.3058
 3243SOL     OW12969   4.477   4.710   2.083  0.3036 -0.4104  0.2212
 3243SOL    HW112970   4.549   4.773   2.078  0.2534 -0.4309 -1.0864
 3243SOL    HW212971   4.520   4.625   2.092  0.3652 -0.1965  2.6072
 3243SOL     MW12972   4.492   4.707   2.084  0.3051 -0.3856  0.3592
 3244SOL     OW12973   3.674   5.164   2.103 -0.0678 -0.2039  0.3419
 3244SOL    HW112974   3.721   5.212   2.034 -1.0199  0.7331  0.3193
 3244SOL    HW212975   3.642   5.085   2.059  0.3524 -0.2056  0.0254
 3244SOL     MW12976   3.676   5.160   2.088 -0.1359 -0.0842  0.2985
 3245SOL     OW12977   1.236   3.596   3.027 -0.4225 -0.0887  0.1040
 3245SOL    HW112978   1.191   3.572   2.946 -0.7571  0.9586 -0.0289
 3245SOL    HW212979   1.204   3.532   3.091 -0.1455 -0.9328 -0.5809
 3245SOL     MW12980   1.226   3.585   3.025 -0.4299 -0.0627 -0.0007
 3246SOL     OW12981   5.341   4.764   1.752 -0.3022  0.8383  0.9086
 3246SOL    HW112982   5.432   4.794   1.751 -0.1805  0.7758 -2.4856
 3246SOL    HW212983   5.291   4.840   1.784  0.7632  1.6931  0.6136
 3246SOL     MW12984   5.346   4.778   1.756 -0.1502  0.9397  0.4363
 3247SOL     OW12985   4.930   3.836   3.300 -0.1500  0.1625  0.2036
 3247SOL    HW112986   4.850   3.887   3.293  0.2227  0.8563  0.9207
 3247SOL    HW212987   4.927   3.797   3.387 -1.9391 -3.6542 -1.3569
 3247SOL     MW12988   4.920   3.837   3.310 -0.3314 -0.2373  0.0956
 3248SOL     OW12989   3.549   3.339   4.841  0.3487  0.6072  0.2484
 3248SOL    HW112990   3.478   3.402   4.841  1.0016  1.3627 -0.2360
 3248SOL    HW212991   3.520   3.269   4.900 -1.4219  0.1808 -1.0581
 3248SOL     MW12992   3.536   3.338   4.849  0.2056  0.6493  0.0191
 3249SOL     OW12993   4.263   4.884   1.419 -0.4583  0.3046  0.1100
 3249SOL    HW112994   4.293   4.915   1.504 -1.7261  0.8448  0.3866
 3249SOL    HW212995   4.167   4.883   1.426 -0.5409 -2.0037 -0.4763
 3249SOL     MW12996   4.254   4.887   1.431 -0.6312  0.0783  0.0704
 3250SOL     OW12997   4.378   0.008   2.158  0.1170  0.2992  0.2438
 3250SOL    HW112998   4.318  -0.058   2.192 -1.0074  0.5204 -1.2107
 3250SOL    HW212999   4.420   0.046   2.236  0.3158 -1.6510  1.1268
 3250SOL     MW13000   4.376   0.005   2.173 -0.0015  0.0779  0.1707
 3251SOL     OW13001   4.773   2.585   2.948  0.3650  0.7342  0.5531
 3251SOL    HW113002   4.808   2.645   2.882  1.0200  1.2084  1.3038
 3251SOL    HW213003   4.800   2.624   3.032  0.1232 -0.1983  1.0748
 3251SOL     MW13004   4.781   2.598   2.951  0.4179  0.6755  0.7160
 3252SOL     OW13005   3.622   1.766   1.427 -0.0015  0.3261  0.0148
 3252SOL    HW113006   3.678   1.769   1.349  1.9328 -0.0770  1.2963
 3252SOL    HW213007   3.562   1.840   1.417  1.2923  1.2719 -1.1039
 3252SOL     MW13008   3.622   1.776   1.416  0.4118  0.3955  0.0356
 3253SOL     OW13009   5.137   1.513   5.152  0.1614 -0.1902  0.2250
 3253SOL    HW113010   5.083   1.500   5.073  0.2657  0.1290  0.1015
 3253SOL    HW213011   5.224   1.485   5.126  0.7403  2.1008 -0.5103
 3253SOL     MW13012   5.141   1.507   5.138  0.2489  0.1439  0.1150
 3254SOL     OW13013   5.300   2.180   0.867 -0.4091 -0.3781  0.4506
 3254SOL    HW113014   5.300   2.127   0.788 -1.1907  0.9137 -0.4501
 3254SOL    HW213015   5.274   2.268   0.838 -0.0398  0.2954  2.0244
 3254SOL     MW13016   5.297   2.185   0.853 -0.4619 -0.1265  0.5367
 3255SOL     OW13017   4.697   4.537   4.584 -0.5202  0.2856  0.4762
 3255SOL    HW113018   4.750   4.509   4.509  1.0805  1.9588  0.9009
 3255SOL    HW213019   4.720   4.476   4.654 -0.6387 -0.1700  0.1232
 3255SOL     MW13020   4.707   4.525   4.583 -0.3305  0.4415  0.4854
 3256SOL     OW13021   1.092   1.439   3.440 -0.0798 -0.3314  0.0128
 3256SOL    HW113022   1.061   1.383   3.511 -1.9521  0.7670  0.1142
 3256SOL    HW213023   1.013   1.462   3.391  0.3180  3.4818  0.8614
 3256SOL     MW13024   1.078   1.434   3.443 -0.2686  0.2973  0.1344
 3257SOL     OW13025   5.331   2.600   0.009  0.4292 -0.0688 -0.2742
 3257SOL    HW113026   5.361   2.626   0.096  0.9736  0.6287 -0.6667
 3257SOL    HW213027   5.239   2.628   0.006  0.9853  1.9181 -0.6830
 3257SOL     MW13028   5.323   2.607   0.020  0.5701  0.2748 -0.3768
 3258SOL     OW13029   3.880   4.225   4.739 -0.0308 -0.1716  0.3894
 3258SOL    HW113030   3.841   4.162   4.800 -2.7985  0.7467 -0.2786
 3258SOL    HW213031   3.910   4.172   4.666 -1.3887 -0.8729  0.2978
 3258SOL     MW13032   3.879   4.210   4.738 -0.5589 -0.1438  0.2922
 3259SOL     OW13033   3.092   0.892   0.244  0.4042  0.2209 -0.8870
 3259SOL    HW113034   3.112   0.833   0.171  1.7985 -1.0196  0.4375
 3259SOL    HW213035   3.177   0.926   0.271 -0.1050  0.7501  0.1142
 3259SOL     MW13036   3.105   0.889   0.238  0.5175  0.1298 -0.5893
 3260SOL     OW13037   1.998   0.576   4.761  0.2599 -0.2317  0.0295
 3260SOL    HW113038   1.924   0.605   4.816 -1.0596 -3.3120  0.1029
 3260SOL    HW213039   2.053   0.526   4.821  0.3516 -1.1577 -0.8027
 3260SOL     MW13040   1.995   0.573   4.776  0.1028 -0.7446 -0.0676
 3261SOL     OW13041   2.122   3.693   3.381  0.3281  0.7634 -0.2338
 3261SOL    HW113042   2.113   3.639   3.303  1.8196 -0.7564  0.5760
 3261SOL    HW213043   2.204   3.740   3.369  0.2635  0.9819  0.1515
 3261SOL     MW13044   2.131   3.692   3.369  0.5107  0.5968 -0.0808
 3262SOL     OW13045   0.029   1.651   3.109  0.5370  0.1957  0.1792
 3262SOL    HW113046   0.071   1.677   3.191 -1.2808  1.3915  0.7806
 3262SOL    HW213047   0.096   1.667   3.042  1.6583  0.3031  1.2806
 3262SOL     MW13048   0.043   1.656   3.111  0.4478  0.3625  0.3971
 3263SOL     OW13049   4.973   0.441   4.462  0.7617  0.7366 -0.1345
 3263SOL    HW113050   4.927   0.525   4.463  0.7806  0.7473 -0.1566
 3263SOL    HW213051   4.904   0.376   4.473  0.8354  0.7949  0.7650
 3263SOL     MW13052   4.958   0.444   4.464  0.7735  0.7454 -0.0222
 3264SOL     OW13053   1.279   0.085   0.772  0.0086 -0.2675 -0.3167
 3264SOL    HW113054   1.364   0.056   0.806  0.5201  0.6520 -0.7847
 3264SOL    HW213055   1.290   0.086   0.677 -0.6490 -0.4997 -0.4013
 3264SOL     MW13056   1.291   0.081   0.764 -0.0101 -0.1795 -0.3874
 3265SOL     OW13057   5.281   5.414   3.250  0.0134 -0.2162 -0.3468
 3265SOL    HW113058   5.314   5.332   3.288  1.4108  0.4135 -0.1432
 3265SOL    HW213059   5.359   5.465   3.231 -0.7725  0.5703 -1.6680
 3265SOL     MW13060   5.295   5.410   3.252  0.0917 -0.0349 -0.4899
 3266SOL     OW13061   1.779   2.114   3.960  0.1210 -0.1367  0.6976
 3266SOL    HW113062   1.703   2.124   3.902  0.6567 -0.8662 -0.1603
 3266SOL    HW213063   1.750   2.151   4.044 -0.6040  1.1367 -0.0777
 3266SOL     MW13064   1.765   2.120   3.963  0.0968 -0.0671  0.4886
 3267SOL     OW13065   0.169   3.990   0.536 -0.1947  0.3981 -0.1440
 3267SOL    HW113066   0.107   4.061   0.519  0.1681  1.0331  1.1190
 3267SOL    HW213067   0.145   3.923   0.472 -1.1753  1.2541 -0.7163
 3267SOL     MW13068   0.158   3.991   0.525 -0.2738  0.5890 -0.0556
 3268SOL     OW13069   2.822   4.406   4.410 -0.3305 -0.3224  0.0139
 3268SOL    HW113070   2.765   4.463   4.359  1.5426  1.7236  0.0466
 3268SOL    HW213071   2.881   4.466   4.455  1.5968 -2.2885  0.2675
 3268SOL     MW13072   2.822   4.421   4.409  0.1560 -0.3122  0.0505
 3269SOL     OW13073   1.165   3.715   0.592  0.0063  0.7487 -0.3809
 3269SOL    HW113074   1.203   3.731   0.679  0.0721  1.7112 -0.5770
 3269SOL    HW213075   1.092   3.654   0.609  1.4934 -1.0041  0.0181
 3269SOL     MW13076   1.160   3.709   0.606  0.2051  0.6475 -0.3549
 3270SOL     OW13077   2.821   1.758   1.591 -0.3028 -0.3539  0.1888
 3270SOL    HW113078   2.881   1.706   1.644 -0.6023  0.5094  1.4077
 3270SOL    HW213079   2.811   1.707   1.510 -2.0292 -3.2140  2.0184
 3270SOL     MW13080   2.827   1.745   1.587 -0.5621 -0.6095  0.5790
 3271SOL     OW13081   1.615   4.062   0.475  0.1290 -0.1818 -0.4576
 3271SOL    HW113082   1.547   4.103   0.422 -0.0435 -0.2857 -0.3160
 3271SOL    HW213083   1.571   3.991   0.521  0.6374 -1.1958 -1.4815
 3271SOL     MW13084   1.601   4.058   0.474  0.1720 -0.3249 -0.5705
 3272SOL     OW13085   3.808   4.454   2.767  0.2178 -0.5711  0.8286
 3272SOL    HW113086   3.856   4.536   2.754  0.2583 -0.7461 -0.2626
 3272SOL    HW213087   3.790   4.423   2.678 -1.6410 -0.6816  1.1961
 3272SOL     MW13088   3.812   4.460   2.754 -0.0150 -0.6076  0.7359
 3273SOL     OW13089   4.975   1.751   4.456 -0.1135  0.1065  0.2571
 3273SOL    HW113090   4.948   1.817   4.392  0.4920  0.1052 -0.0116
 3273SOL    HW213091   4.908   1.755   4.524 -0.6310  0.2868 -0.2512
 3273SOL     MW13092   4.963   1.760   4.456 -0.1022  0.1294  0.1576
 3274SOL     OW13093   1.266   1.056   4.385 -0.0228  0.2724  0.2478
 3274SOL    HW113094   1.263   1.037   4.478 -1.7906 -0.0766  0.1506
 3274SOL    HW213095   1.232   1.146   4.377  1.2324  0.7491  0.0274
 3274SOL     MW13096   1.261   1.065   4.396 -0.0884  0.2888  0.2071
 3275SOL     OW13097   4.902   0.173   1.650  0.4238  0.1076 -0.1632
 3275SOL    HW113098   4.953   0.208   1.723  1.5737 -1.9237  0.0717
 3275SOL    HW213099   4.948   0.205   1.572  0.7270  0.1376  0.0253
 3275SOL     MW13100   4.915   0.181   1.649  0.6098 -0.1486 -0.1090
 3276SOL     OW13101   3.617   4.518   4.699 -0.1231 -0.1499  0.0585
 3276SOL    HW113102   3.685   4.523   4.633 -0.5387  0.4953 -0.3305
 3276SOL    HW213103   3.661   4.539   4.781  0.3543 -0.7735 -0.0305
 3276SOL     MW13104   3.631   4.521   4.701 -0.1152 -0.1472 -0.0027
 3277SOL     OW13105   1.477   3.662   2.165 -0.4338  0.4167  0.3281
 3277SOL    HW113106   1.474   3.682   2.259 -1.7839 -1.1036  0.6443
 3277SOL    HW213107   1.387   3.642   2.141 -0.0740  0.5531 -1.2604
 3277SOL     MW13108   1.465   3.662   2.174 -0.5606  0.2396  0.1652
 3278SOL     OW13109   3.876   0.935   4.478  0.1682  0.0842 -0.0918
 3278SOL    HW113110   3.858   0.858   4.423  0.6578 -0.5595  0.6222
 3278SOL    HW213111   3.907   0.898   4.561  1.9858  1.0632 -0.2900
 3278SOL     MW13112   3.878   0.920   4.481  0.4635  0.1272 -0.0258
 3279SOL     OW13113   3.597   4.114   1.632 -0.5184  0.3223 -0.4006
 3279SOL    HW113114   3.638   4.200   1.637 -2.8930  1.4873  0.5771
 3279SOL    HW213115   3.505   4.132   1.615 -1.2047 -2.0038  0.4032
 3279SOL     MW13116   3.591   4.127   1.630 -0.9103  0.1737 -0.1726
 3280SOL     OW13117   0.496   2.441   1.404 -0.1117 -0.1198 -0.1118
 3280SOL    HW113118   0.554   2.410   1.473 -1.0839 -0.5182  0.5487
 3280SOL    HW213119   0.455   2.520   1.440  0.6055  0.6434 -0.8905
 3280SOL     MW13120   0.498   2.447   1.417 -0.1444 -0.0731 -0.1270
 3281SOL     OW13121   0.781   4.092   3.353  0.5384 -0.0657  0.4689
 3281SOL    HW113122   0.869   4.120   3.328  0.1873 -0.2480 -1.0536
 3281SOL    HW213123   0.780   4.100   3.448  2.3132 -0.3903  0.5536
 3281SOL     MW13124   0.792   4.097   3.362  0.7207 -0.1306  0.2848
 3282SOL     OW13125   4.870   4.971   3.879  0.4050 -0.1669 -0.0535
 3282SOL    HW113126   4.780   4.979   3.847  0.4039  0.5917  0.1236
 3282SOL    HW213127   4.868   4.896   3.939 -0.5829  1.0998  1.5549
 3282SOL     MW13128   4.858   4.962   3.883  0.2784  0.0924  0.1751
 3283SOL     OW13129   2.542   4.738   2.914 -0.3804  0.3580 -0.7199
 3283SOL    HW113130   2.509   4.827   2.912 -0.6486  0.3548  1.6409
 3283SOL    HW213131   2.637   4.747   2.921 -0.4264  0.4724 -0.2236
 3283SOL     MW13132   2.550   4.750   2.914 -0.4206  0.3722 -0.3541
 3284SOL     OW13133   2.993   0.672   3.688  0.5116 -0.4634 -0.1440
 3284SOL    HW113134   2.964   0.585   3.717 -2.6953 -0.5425 -2.9460
 3284SOL    HW213135   2.956   0.733   3.751  1.9691 -1.0229  1.3039
 3284SOL     MW13136   2.985   0.668   3.700  0.2877 -0.5452 -0.3173
 3285SOL     OW13137   5.037   2.897   4.216  0.2829 -0.2813  0.5179
 3285SOL    HW113138   5.131   2.877   4.217  0.3120 -0.1916 -0.2718
 3285SOL    HW213139   5.032   2.987   4.183 -0.1518 -0.6968 -0.5803
 3285SOL     MW13140   5.049   2.906   4.212  0.2310 -0.3230  0.2763
 3286SOL     OW13141   0.835   4.598   2.400  0.7031  0.4075 -0.0186
 3286SOL    HW113142   0.768   4.660   2.373  1.3720  1.6235  1.0240
 3286SOL    HW213143   0.796   4.512   2.384 -0.5752  1.0836 -0.6678
 3286SOL     MW13144   0.822   4.595   2.395  0.6251  0.6497  0.0318
 3287SOL     OW13145   4.595   5.441   4.488 -0.3076  0.2244 -0.8877
 3287SOL    HW113146   4.646   5.523   4.486 -0.9678  0.6338 -1.2315
 3287SOL    HW213147   4.660   5.373   4.506  0.1961  0.8663 -0.2397
 3287SOL     MW13148   4.610   5.443   4.490 -0.3277  0.3589 -0.8488
 3288SOL     OW13149   5.035   0.566   2.614  0.2932 -0.1588 -0.4171
 3288SOL    HW113150   5.093   0.570   2.538 -1.5110  1.2158 -1.8194
 3288SOL    HW213151   5.031   0.656   2.646  0.7360 -0.6508  1.1473
 3288SOL     MW13152   5.042   0.578   2.609  0.1189 -0.0458 -0.3963
 3289SOL     OW13153   4.379   2.583   4.608  0.3366  0.0948 -0.1359
 3289SOL    HW113154   4.451   2.541   4.561 -1.1478 -0.0260 -2.4662
 3289SOL    HW213155   4.301   2.535   4.581 -0.7469  0.6574  1.7767
 3289SOL     MW13156   4.378   2.571   4.599  0.0079  0.1513 -0.1893
 3290SOL     OW13157   4.139   4.400   3.605 -0.7056  0.0111  0.0499
 3290SOL    HW113158   4.151   4.305   3.598  0.1498  0.1807 -1.1055
 3290SOL    HW213159   4.191   4.436   3.532 -1.2000  1.3497  0.3350
 3290SOL     MW13160   4.147   4.392   3.594 -0.6594  0.2042 -0.0615
 3291SOL     OW13161   1.731   3.055   4.106  0.2810  0.3292  0.5896
 3291SOL    HW113162   1.818   3.061   4.146  0.5471 -3.0893  0.8749
 3291SOL    HW213163   1.692   2.976   4.146 -1.6285 -0.1289 -1.9179
 3291SOL     MW13164   1.737   3.045   4.116  0.0706 -0.1670  0.3052
 3292SOL     OW13165   0.554   0.132   0.094  0.3033 -0.5960  0.1689
 3292SOL    HW113166   0.536   0.043   0.064  0.1784 -0.6338  0.3529
 3292SOL    HW213167   0.473   0.160   0.137  1.0915 -1.2596  2.1957
 3292SOL     MW13168   0.542   0.124   0.096  0.3882 -0.6858  0.4519
 3293SOL     OW13169   0.683   3.264   0.310 -0.3536  0.2910  0.2592
 3293SOL    HW113170   0.610   3.202   0.318 -0.3110  0.1802 -0.1945
 3293SOL    HW213171   0.645   3.339   0.264  0.0088 -0.0860 -0.6711
 3293SOL     MW13172   0.669   3.266   0.305 -0.3017  0.2285  0.0820
 3294SOL     OW13173   1.282   1.843   3.591  0.1978 -0.0200 -0.2393
 3294SOL    HW113174   1.189   1.830   3.576 -0.3337 -1.4598  3.3902
 3294SOL    HW213175   1.324   1.771   3.543 -0.5821  0.2579 -1.3716
 3294SOL     MW13176   1.276   1.832   3.583  0.0299 -0.1688  0.0803
 3295SOL     OW13177   4.006   4.754   4.202  0.0361 -0.2673 -0.2017
 3295SOL    HW113178   4.077   4.778   4.261  0.4971 -1.7082 -0.1402
 3295SOL    HW213179   3.928   4.748   4.258  0.5837 -2.2260  0.4197
 3295SOL     MW13180   4.005   4.756   4.217  0.1652 -0.7025 -0.1143
 3296SOL     OW13181   1.608   4.062   3.658  0.2868 -0.0191 -0.1321
 3296SOL    HW113182   1.694   4.079   3.697  0.8937 -0.9628 -1.0015
 3296SOL    HW213183   1.564   4.147   3.659  1.1655  0.4435  0.4799
 3296SOL     MW13184   1.613   4.075   3.663  0.4770 -0.0807 -0.1651
 3297SOL     OW13185   2.020   1.896   1.218  0.1258 -0.4215  0.0448
 3297SOL    HW113186   2.056   1.807   1.207 -0.1100 -0.6660  1.1403
 3297SOL    HW213187   1.939   1.896   1.167 -0.9508 -1.5246  1.6463
 3297SOL     MW13188   2.014   1.884   1.210 -0.0422 -0.5940  0.3900
 3298SOL     OW13189   0.936   1.982   0.672 -0.4017  0.3897  0.1760
 3298SOL    HW113190   0.858   2.035   0.657 -0.5672 -0.1443 -0.9828
 3298SOL    HW213191   0.999   2.011   0.606 -0.0622 -0.0123  0.3134
 3298SOL     MW13192   0.934   1.992   0.661 -0.3794  0.2699  0.0453
 3299SOL     OW13193   5.314   5.132   0.177  0.0235 -0.5476 -0.3162
 3299SOL    HW113194   5.258   5.121   0.254 -0.3156 -2.6463 -0.8061
 3299SOL    HW213195   5.322   5.227   0.167 -1.5685 -0.2120  1.1047
 3299SOL     MW13196   5.308   5.143   0.186 -0.2237 -0.7733 -0.1971
 3300SOL     OW13197   2.349   1.926   2.138 -0.0177  0.5127 -0.1184
 3300SOL    HW113198   2.435   1.965   2.152  0.0052  0.4039  0.0328
 3300SOL    HW213199   2.327   1.884   2.220  1.3342 -2.5349 -1.1701
 3300SOL     MW13200   2.357   1.926   2.150  0.1583  0.1086 -0.2337
 3301SOL     OW13201   1.274   5.474   1.428 -0.3360 -0.0826 -0.4511
 3301SOL    HW113202   1.293   5.388   1.391  0.2097  0.4643 -1.4812
 3301SOL    HW213203   1.187   5.464   1.466 -0.2157 -1.1348 -0.4025
 3301SOL     MW13204   1.265   5.462   1.428 -0.2508 -0.1473 -0.5768
 3302SOL     OW13205   1.794   2.649   2.104 -0.1740 -0.1384  0.7328
 3302SOL    HW113206   1.872   2.705   2.113 -0.3299  0.0145  1.1329
 3302SOL    HW213207   1.830   2.561   2.092  0.0599 -0.1552  1.5125
 3302SOL     MW13208   1.809   2.645   2.103 -0.1640 -0.1210  0.8838
 3303SOL     OW13209   4.415   1.553   4.338  0.1761  0.0830  0.2485
 3303SOL    HW113210   4.490   1.525   4.391 -0.7745 -2.5396  0.3448
 3303SOL    HW213211   4.454   1.589   4.258  1.5437  0.5693  1.0992
 3303SOL     MW13212   4.430   1.554   4.334  0.2295 -0.1904  0.3698
 3304SOL     OW13213   0.515   2.725   5.370  0.1831 -0.1615  0.1899
 3304SOL    HW113214   0.521   2.741   5.276 -0.4846 -1.5986 -0.1251
 3304SOL    HW213215   0.598   2.684   5.393  0.5158  0.5666  0.3298
 3304SOL     MW13216   0.527   2.722   5.361  0.1402 -0.2523  0.1675
 3305SOL     OW13217   5.041   1.283   0.607  0.3257 -0.3721 -0.1076
 3305SOL    HW113218   5.103   1.300   0.536 -0.2510 -1.4360 -0.8902
 3305SOL    HW213219   5.041   1.364   0.658  2.7789 -0.5293  0.2603
 3305SOL     MW13220   5.049   1.295   0.604  0.5659 -0.5284 -0.1606
 3306SOL     OW13221   3.562   2.801   5.215 -0.3506 -0.1670  0.3309
 3306SOL    HW113222   3.517   2.717   5.212  0.9198 -0.8689  0.2501
 3306SOL    HW213223   3.647   2.782   5.256 -0.0190  1.0662  0.2750
 3306SOL     MW13224   3.567   2.788   5.220 -0.1455 -0.0990  0.3134
 3307SOL     OW13225   4.818   4.460   3.016 -0.0335 -0.2049  0.4149
 3307SOL    HW113226   4.818   4.372   3.053  1.4415  0.0748  1.1264
 3307SOL    HW213227   4.896   4.502   3.051 -0.3935  1.2096 -0.3691
 3307SOL     MW13228   4.828   4.454   3.025  0.1092  0.0120  0.4056
 3308SOL     OW13229   1.523   4.266   1.234 -0.0056 -0.2681 -0.0828
 3308SOL    HW113230   1.433   4.244   1.210  0.0697  0.1422 -0.7674
 3308SOL    HW213231   1.521   4.276   1.329 -1.1345  1.7928 -0.2788
 3308SOL     MW13232   1.511   4.264   1.243 -0.1404  0.0483 -0.1955
 3309SOL     OW13233   1.640   2.718   1.026  0.6377  0.1205  0.0378
 3309SOL    HW113234   1.643   2.725   0.931 -1.2029 -0.2466 -0.0903
 3309SOL    HW213235   1.639   2.809   1.057 -2.1490  0.3860 -0.5252
 3309SOL     MW13236   1.640   2.731   1.018  0.0453  0.1075 -0.0507
 3310SOL     OW13237   4.598   1.862   4.280 -0.3663 -0.0239 -0.1892
 3310SOL    HW113238   4.560   1.819   4.203  0.0926  1.2725 -1.1769
 3310SOL    HW213239   4.689   1.878   4.255  0.1416 -0.7249  1.1269
 3310SOL     MW13240   4.605   1.858   4.267 -0.2425  0.0523 -0.1472
 3311SOL     OW13241   5.256   1.675   4.889 -0.0488  0.0800  0.2111
 3311SOL    HW113242   5.224   1.730   4.818  0.7308 -0.9178 -0.9719
 3311SOL    HW213243   5.335   1.720   4.921 -1.6047  1.6907  2.0259
 3311SOL     MW13244   5.262   1.688   4.884 -0.1482  0.1584  0.2920
 3312SOL     OW13245   5.325   1.959   3.895  0.7287  0.2722 -0.3617
 3312SOL    HW113246   5.307   1.995   3.982 -0.5999  0.7113 -0.7952
 3312SOL    HW213247   5.320   2.035   3.837  0.9042 -0.1333 -0.9115
 3312SOL     MW13248   5.322   1.974   3.899  0.5811  0.2765 -0.4875
 3313SOL     OW13249   2.485   0.112   3.540  0.2838 -0.0507  0.1402
 3313SOL    HW113250   2.480   0.204   3.566  0.6315  0.2826 -0.9041
 3313SOL    HW213251   2.395   0.088   3.516  0.6314  0.9258 -2.4328
 3313SOL     MW13252   2.473   0.121   3.540  0.3728  0.1169 -0.3229
 3314SOL     OW13253   2.470   1.425   2.785 -0.0821 -0.1573  0.2161
 3314SOL    HW113254   2.418   1.350   2.755 -1.4803  0.5555  0.7517
 3314SOL    HW213255   2.437   1.444   2.873  0.5327  0.8189  0.2554
 3314SOL     MW13256   2.459   1.418   2.792 -0.1824  0.0589  0.2897
 3315SOL     OW13257   0.690   1.610   2.501  0.0033  0.2685 -0.3275
 3315SOL    HW113258   0.637   1.586   2.425 -2.1747  2.0069  0.5460
 3315SOL    HW213259   0.743   1.683   2.471  0.4035 -0.1356 -0.6215
 3315SOL     MW13260   0.690   1.616   2.488 -0.2242  0.4393 -0.2533
 3316SOL     OW13261   4.416   3.154   1.385  0.1714  0.1645  0.0256
 3316SOL    HW113262   4.365   3.216   1.437 -1.0215 -0.7639  0.0147
 3316SOL    HW213263   4.504   3.159   1.422 -0.6093 -0.3901  2.1354
 3316SOL     MW13264   4.421   3.162   1.396 -0.0812 -0.0253  0.2943
 3317SOL     OW13265   2.261   5.001   5.373 -0.2862 -0.4389  0.0232
 3317SOL    HW113266   2.345   5.045   5.366 -0.6712  0.0513 -1.9753
 3317SOL    HW213267   2.197   5.072   5.382 -0.4715 -0.8267  2.5908
 3317SOL     MW13268   2.264   5.016   5.373 -0.3592 -0.4258  0.0960
 3318SOL     OW13269   2.257   4.744   0.784  0.6621 -0.3566 -0.5672
 3318SOL    HW113270   2.245   4.649   0.778  1.8184 -0.5303 -0.4702
 3318SOL    HW213271   2.344   4.759   0.746  0.1102  0.7758 -1.4503
 3318SOL     MW13272   2.267   4.734   0.778  0.7395 -0.2338 -0.6678
 3319SOL     OW13273   2.877   3.958   4.092 -0.3121  0.0068  0.4917
 3319SOL    HW113274   2.897   3.869   4.063 -2.3059  0.1224 -1.5652
 3319SOL    HW213275   2.953   4.010   4.066 -0.7480 -0.4696 -1.9891
 3319SOL     MW13276   2.889   3.954   4.085 -0.6232 -0.0394 -0.0892
 3320SOL     OW13277   5.318   5.423   0.139 -0.2675 -0.6490  0.0179
 3320SOL    HW113278   5.351   5.484   0.204 -0.3393 -1.7019  1.0893
 3320SOL    HW213279   5.225   5.441   0.134  0.0619  0.8860 -1.4288
 3320SOL     MW13280   5.311   5.433   0.146 -0.2345 -0.5873 -0.0301
 3321SOL     OW13281   4.777   0.409   2.782 -0.2403  0.4874 -0.1992
 3321SOL    HW113282   4.762   0.423   2.689 -1.8471 -1.5112 -0.3148
 3321SOL    HW213283   4.872   0.400   2.791 -0.0848  0.4776 -1.6809
 3321SOL     MW13284   4.787   0.410   2.771 -0.4261  0.2303 -0.4037
 3322SOL     OW13285   3.282   0.169   5.295  0.3022  1.0640  0.4573
 3322SOL    HW113286   3.262   0.077   5.310  2.6880  0.5253  0.6721
 3322SOL    HW213287   3.261   0.212   5.378 -0.3639  0.6413  0.5121
 3322SOL     MW13288   3.277   0.163   5.308  0.5223  0.9410  0.4918
 3323SOL     OW13289   4.237   5.037   0.163 -0.3056  0.2344  0.2344
 3323SOL    HW113290   4.314   5.081   0.200  0.8523 -1.0474 -0.5460
 3323SOL    HW213291   4.193   4.999   0.239  1.4285 -1.4149  0.5018
 3323SOL     MW13292   4.242   5.037   0.177  0.0646 -0.1408  0.1688
 3324SOL     OW13293   2.347   3.878   0.919 -0.6936 -0.2430  0.6188
 3324SOL    HW113294   2.279   3.837   0.971 -0.4458 -0.0723  1.0834
 3324SOL    HW213295   2.427   3.830   0.942 -0.7966 -1.0080 -0.5590
 3324SOL     MW13296   2.349   3.867   0.928 -0.6751 -0.3191  0.5275
 3325SOL     OW13297   5.192   3.473   1.376  0.3091  0.1091  0.1731
 3325SOL    HW113298   5.205   3.381   1.400 -0.8442 -0.6546 -1.9213
 3325SOL    HW213299   5.279   3.512   1.386  1.0354 -1.4320  0.1703
 3325SOL     MW13300   5.205   3.467   1.380  0.2545 -0.1859 -0.0954
 3326SOL     OW13301   0.426   3.031   1.527  0.3108 -0.6723  0.7276
 3326SOL    HW113302   0.420   2.998   1.617  0.7257 -0.1125  0.9625
 3326SOL    HW213303   0.375   3.112   1.527 -0.4243 -1.1203  0.2326
 3326SOL     MW13304   0.418   3.037   1.539  0.2698 -0.6580  0.6943
 3327SOL     OW13305   4.278   0.148   4.660 -0.8283  0.1190  0.7477
 3327SOL    HW113306   4.331   0.196   4.723 -0.5389  0.0780  0.5333
 3327SOL    HW213307   4.298   0.188   4.575  2.8728 -3.1539 -0.2334
 3327SOL     MW13308   4.287   0.159   4.657 -0.3175 -0.3052  0.5947
 3328SOL     OW13309   2.060   0.530   3.414 -0.2692 -0.2288  0.0148
 3328SOL    HW113310   2.069   0.624   3.398  0.3371 -0.2540  0.1703
 3328SOL    HW213311   2.076   0.520   3.508  0.2778 -0.5499 -0.1052
 3328SOL     MW13312   2.063   0.540   3.424 -0.1215 -0.2731  0.0193
 3329SOL     OW13313   2.833   3.881   0.708 -0.2961  0.3478  0.0297
 3329SOL    HW113314   2.848   3.976   0.703 -1.9490  0.8124  2.2019
 3329SOL    HW213315   2.919   3.844   0.724  0.5591  1.3125 -1.9214
 3329SOL     MW13316   2.846   3.889   0.709 -0.3982  0.5307  0.0580
 3330SOL     OW13317   2.984   0.246   3.586 -0.4472 -0.1935  0.4140
 3330SOL    HW113318   3.005   0.215   3.498 -1.1479 -0.1801  0.2353
 3330SOL    HW213319   2.901   0.292   3.576 -1.4257 -1.6408  1.3566
 3330SOL     MW13320   2.976   0.248   3.574 -0.6622 -0.3771  0.5118
 3331SOL     OW13321   0.895   2.948   3.150  0.2461 -0.0800 -0.3722
 3331SOL    HW113322   0.955   2.924   3.219 -0.3410  1.4319  0.7295
 3331SOL    HW213323   0.825   2.883   3.154  0.9613 -0.8712 -0.5667
 3331SOL     MW13324   0.893   2.937   3.159  0.2625  0.0123 -0.2560
 3332SOL     OW13325   5.409   2.778   3.966 -0.5424  0.0053 -0.3349
 3332SOL    HW113326   5.417   2.692   3.926  2.7704 -0.3602  0.8315
 3332SOL    HW213327   5.433   2.839   3.896 -1.0164 -0.1456 -0.6340
 3332SOL     MW13328   5.413   2.775   3.952 -0.1790 -0.0608 -0.2239
 3333SOL     OW13329   4.379   3.607   0.311 -0.1493  0.5156  0.5175
 3333SOL    HW113330   4.437   3.546   0.264 -0.0297  0.0882  1.2089
 3333SOL    HW213331   4.401   3.595   0.403  0.0583  1.7998  0.6611
 3333SOL     MW13332   4.389   3.598   0.317 -0.1074  0.6253  0.6244
 3334SOL     OW13333   4.285   2.288   1.010  0.2914 -0.1478  0.8687
 3334SOL    HW113334   4.266   2.240   1.090  0.4300 -1.2090  0.2785
 3334SOL    HW213335   4.356   2.347   1.033  0.4272 -0.5455  1.4902
 3334SOL     MW13336   4.291   2.289   1.023  0.3265 -0.3346  0.8727
 3335SOL     OW13337   0.742   5.330   1.394 -0.1031 -0.2659 -0.3274
 3335SOL    HW113338   0.727   5.421   1.422  2.1386  0.1591 -0.3120
 3335SOL    HW213339   0.662   5.306   1.347 -1.5829  0.9973  1.3888
 3335SOL     MW13340   0.730   5.339   1.392 -0.0055 -0.0498 -0.1058
 3336SOL     OW13341   1.207   3.221   3.987  0.4731  0.2278  0.6907
 3336SOL    HW113342   1.272   3.169   3.939  0.7436 -0.5508  1.8501
 3336SOL    HW213343   1.250   3.242   4.070 -0.8883 -0.7149  1.6851
 3336SOL     MW13344   1.221   3.217   3.992  0.3334  0.0075  0.9664
 3337SOL     OW13345   2.019   1.360   2.762  0.2298  0.3714 -0.0350
 3337SOL    HW113346   2.099   1.308   2.751  2.9182  3.7032  2.0150
 3337SOL    HW213347   2.014   1.413   2.682  0.3139  0.4909  0.0397
 3337SOL     MW13348   2.028   1.360   2.750  0.5847  0.8132  0.2370
 3338SOL     OW13349   2.053   2.275   1.210 -0.2783 -0.2223 -0.3930
 3338SOL    HW113350   1.967   2.317   1.210 -0.9901 -1.6354 -0.3218
 3338SOL    HW213351   2.079   2.272   1.118 -1.1207 -1.3750 -0.6120
 3338SOL     MW13352   2.046   2.280   1.198 -0.4773 -0.5508 -0.4119
 3339SOL     OW13353   0.847   3.069   4.980 -0.2105 -0.2653 -0.0731
 3339SOL    HW113354   0.868   3.142   4.922  1.1275 -0.4195  0.1782
 3339SOL    HW213355   0.881   3.096   5.065 -1.0168 -0.5750  0.3518
 3339SOL     MW13356   0.854   3.081   4.983 -0.1425 -0.3247  0.0134
 3340SOL     OW13357   4.414   2.913   4.629  0.3558  0.1129 -0.0833
 3340SOL    HW113358   4.399   2.826   4.594  0.1242  0.2789 -0.4038
 3340SOL    HW213359   4.496   2.906   4.679 -0.1081 -0.4880  0.6086
 3340SOL     MW13360   4.423   2.901   4.631  0.2668  0.0573 -0.0358
 3341SOL     OW13361   4.906   3.053   5.344 -0.3296  0.1304  0.2322
 3341SOL    HW113362   4.962   3.120   5.303 -0.5420  0.6038  0.7023
 3341SOL    HW213363   4.818   3.090   5.339 -0.2435  0.6593  1.9893
 3341SOL     MW13364   4.902   3.067   5.338 -0.3458  0.2587  0.5173
 3342SOL     OW13365   4.581   5.379   3.641 -0.1617  0.0084  0.0817
 3342SOL    HW113366   4.619   5.461   3.673  0.8777  0.3795 -1.9437
 3342SOL    HW213367   4.487   5.392   3.646 -0.0437  0.4926  1.7360
 3342SOL     MW13368   4.574   5.391   3.646 -0.0135  0.1179  0.0342
 3343SOL     OW13369   0.126   0.381   4.094 -0.2054  0.4855  0.1241
 3343SOL    HW113370   0.192   0.333   4.144  0.5234  0.8927 -0.4326
 3343SOL    HW213371   0.100   0.321   4.024  0.1930  0.6392 -0.1564
 3343SOL     MW13372   0.131   0.367   4.092 -0.0611  0.5573  0.0169
 3344SOL     OW13373   4.367   5.282   4.374 -0.3183 -0.8791  0.2692
 3344SOL    HW113374   4.448   5.307   4.419  0.0718 -2.1310  0.2932
 3344SOL    HW213375   4.354   5.351   4.308  0.9394 -0.8319  0.0482
 3344SOL     MW13376   4.376   5.294   4.371 -0.1074 -1.0333  0.2440
 3345SOL     OW13377   4.697   1.028   0.064 -0.1075 -0.1162 -0.1293
 3345SOL    HW113378   4.616   0.984   0.091 -0.6513  2.2873  2.5581
 3345SOL    HW213379   4.727   1.074   0.142  3.5049 -0.2586 -1.2408
 3345SOL     MW13380   4.690   1.028   0.078  0.2853  0.1732  0.0724
 3346SOL     OW13381   2.667   1.446   4.762 -0.5494 -0.3896  0.2546
 3346SOL    HW113382   2.693   1.503   4.690  1.6792 -2.0414 -0.3338
 3346SOL    HW213383   2.691   1.495   4.841  1.0357 -0.3319 -0.2380
 3346SOL     MW13384   2.673   1.460   4.763 -0.0612 -0.5936  0.1162
 3347SOL     OW13385   4.670   4.821   0.756  0.3092 -0.2972 -0.3224
 3347SOL    HW113386   4.657   4.901   0.705 -1.0762 -1.3783 -1.7678
 3347SOL    HW213387   4.643   4.845   0.845 -1.4537  0.5092 -1.0270
 3347SOL     MW13388   4.665   4.834   0.761 -0.0938 -0.3324 -0.5976
 3348SOL     OW13389   0.750   4.708   3.969 -0.2041 -0.4729  0.1554
 3348SOL    HW113390   0.687   4.780   3.975 -0.1028 -0.3056 -0.6038
 3348SOL    HW213391   0.815   4.740   3.906 -1.3861 -2.1286 -2.0198
 3348SOL     MW13392   0.750   4.721   3.962 -0.3424 -0.6635 -0.2203
 3349SOL     OW13393   3.645   2.281   2.568 -0.2650 -0.5116  0.1031
 3349SOL    HW113394   3.705   2.215   2.603  0.2511  0.6090  1.4426
 3349SOL    HW213395   3.702   2.346   2.526 -0.7885 -1.0787 -1.5379
 3349SOL     MW13396   3.660   2.281   2.567 -0.2659 -0.4408  0.0645
 3350SOL     OW13397   0.112   5.422   2.406  0.0564 -0.9754 -0.0854
 3350SOL    HW113398   0.076   5.354   2.462  0.6904 -0.5233  0.8968
 3350SOL    HW213399   0.178   5.466   2.460  1.5225 -1.2691 -1.5670
 3350SOL     MW13400   0.115   5.419   2.420  0.3252 -0.9551 -0.1493
 3351SOL     OW13401   5.107   4.225   3.025 -0.1458 -0.0165 -0.4209
 3351SOL    HW113402   5.055   4.251   3.102  1.5518 -1.5432  1.3603
 3351SOL    HW213403   5.144   4.306   2.991  1.1016  0.5081  1.9776
 3351SOL     MW13404   5.105   4.239   3.031  0.2312 -0.1448  0.1141
 3352SOL     OW13405   2.026   4.636   1.041 -0.0557 -0.4587  0.1228
 3352SOL    HW113406   2.100   4.581   1.015 -1.2735 -2.5477  0.8295
 3352SOL    HW213407   1.989   4.592   1.118 -1.8604  0.6571 -0.0484
 3352SOL     MW13408   2.031   4.623   1.047 -0.4426 -0.5833  0.1914
 3353SOL     OW13409   1.586   1.584   2.403  0.0329  0.4152 -0.6103
 3353SOL    HW113410   1.624   1.510   2.450  0.9304 -0.6406 -2.8718
 3353SOL    HW213411   1.492   1.578   2.421  0.0771 -1.3228 -0.8056
 3353SOL     MW13412   1.578   1.574   2.412  0.1534  0.0576 -0.9248
 3354SOL     OW13413   3.449   1.841   2.192  0.3754 -0.1340  0.3133
 3354SOL    HW113414   3.437   1.780   2.119  1.4716 -0.2876  0.2488
 3354SOL    HW213415   3.487   1.788   2.262 -0.2333  0.1170  0.8493
 3354SOL     MW13416   3.452   1.827   2.191  0.4378 -0.1215  0.3736
 3355SOL     OW13417   0.788   4.278   3.003  0.2344 -0.1106  0.3970
 3355SOL    HW113418   0.714   4.245   3.054 -1.2065  0.4189 -1.2716
 3355SOL    HW213419   0.844   4.321   3.068 -0.8724 -0.5990  1.7216
 3355SOL     MW13420   0.786   4.280   3.018 -0.0917 -0.1054  0.3530
 3356SOL     OW13421   2.900   1.200   2.082  0.2850 -0.2091  0.1451
 3356SOL    HW113422   2.955   1.240   2.150 -2.0796 -0.7199  2.4759
 3356SOL    HW213423   2.902   1.106   2.101 -1.4802 -0.2231  0.3680
 3356SOL     MW13424   2.908   1.193   2.093 -0.2437 -0.2763  0.4720
 3357SOL     OW13425   0.602   0.663   4.044 -0.4645  0.2895 -1.2003
 3357SOL    HW113426   0.693   0.680   4.021 -0.1140  0.4989  0.2805
 3357SOL    HW213427   0.605   0.631   4.134 -1.6921 -1.5133 -1.7255
 3357SOL     MW13428   0.614   0.661   4.052 -0.5768  0.0855 -1.0780
 3358SOL     OW13429   5.220   3.529   4.167 -0.0098  0.1885  0.1921
 3358SOL    HW113430   5.133   3.504   4.135 -0.2134  0.4917  0.5031
 3358SOL    HW213431   5.204   3.605   4.223  0.5982  1.1338 -0.8517
 3358SOL     MW13432   5.207   3.536   4.170  0.0420  0.3483  0.0983
 3359SOL     OW13433   2.713   4.199   0.929 -0.3590 -0.2416  0.2846
 3359SOL    HW113434   2.622   4.214   0.905 -0.8437 -0.9310  1.5502
 3359SOL    HW213435   2.724   4.247   1.011  0.5847  0.2763 -0.1300
 3359SOL     MW13436   2.703   4.207   0.937 -0.3003 -0.2635  0.3935
 3360SOL     OW13437   1.126   4.442   4.310  0.0546  0.2204 -0.0658
 3360SOL    HW113438   1.099   4.453   4.219  1.0997 -1.2858 -0.6085
 3360SOL    HW213439   1.115   4.528   4.350  1.8566  1.5551 -2.2537
 3360SOL     MW13440   1.121   4.454   4.304  0.4191  0.1984 -0.4153
 3361SOL     OW13441   2.510   1.054   4.585  0.1932  0.1575  0.1491
 3361SOL    HW113442   2.589   1.104   4.569  0.4845 -0.6353 -1.0095
 3361SOL    HW213443   2.535   0.989   4.650 -0.0829  1.2250  1.3590
 3361SOL     MW13444   2.523   1.052   4.591  0.1951  0.1927  0.1557
 3362SOL     OW13445   0.331   4.867   4.344  0.2815  0.5447 -0.2885
 3362SOL    HW113446   0.336   4.946   4.397  1.7066 -0.6799  1.5337
 3362SOL    HW213447   0.420   4.857   4.308  0.3762 -0.6794  0.2393
 3362SOL     MW13448   0.343   4.876   4.346  0.4760  0.2313  0.0123
 3363SOL     OW13449   3.445   3.322   4.194  0.1211 -0.2131  0.1129
 3363SOL    HW113450   3.432   3.415   4.213 -0.2904 -0.0596 -0.8908
 3363SOL    HW213451   3.537   3.307   4.216  0.2557  0.4860  0.0644
 3363SOL     MW13452   3.455   3.332   4.199  0.0857 -0.1039 -0.0218
 3364SOL     OW13453   3.825   5.010   1.178 -0.7993  0.0318 -0.0561
 3364SOL    HW113454   3.846   5.030   1.269  1.5092 -0.7279 -0.3469
 3364SOL    HW213455   3.765   4.936   1.182 -2.3120  1.2565  0.8388
 3364SOL     MW13456   3.820   5.003   1.190 -0.6974  0.0914  0.0212
 3365SOL     OW13457   2.046   3.552   4.577  0.5717  0.1205 -0.2523
 3365SOL    HW113458   2.071   3.615   4.509  1.7890 -1.1196 -1.0008
 3365SOL    HW213459   1.951   3.541   4.566  0.4533  1.3164 -0.5290
 3365SOL     MW13460   2.037   3.559   4.566  0.7124  0.1148 -0.3835
 3366SOL     OW13461   1.833   4.127   0.175 -0.0528  0.0501  0.0085
 3366SOL    HW113462   1.856   4.103   0.086  1.1537 -0.1119  0.3472
 3366SOL    HW213463   1.903   4.188   0.202  0.0383 -0.5228  1.1054
 3366SOL     MW13464   1.845   4.132   0.167  0.1133 -0.0439  0.1923
 3367SOL     OW13465   1.051   1.119   5.218 -0.4864 -0.2590  0.3279
 3367SOL    HW113466   1.012   1.046   5.266 -1.2176 -0.1628 -0.0929
 3367SOL    HW213467   0.978   1.180   5.204 -0.6972 -0.9583 -2.2041
 3367SOL     MW13468   1.036   1.117   5.222 -0.6070 -0.3362 -0.0501
 3368SOL     OW13469   5.211   0.629   2.234  0.4657 -0.5200 -0.7831
 3368SOL    HW113470   5.122   0.625   2.200 -0.4200 -0.9767  1.4014
 3368SOL    HW213471   5.217   0.715   2.275  0.0945 -1.4102  1.2755
 3368SOL     MW13472   5.200   0.639   2.235  0.3048 -0.6924 -0.2399
 3369SOL     OW13473   1.173   2.930   2.495 -0.1071 -0.4655 -0.6833
 3369SOL    HW113474   1.140   2.989   2.427 -0.5386 -0.8138 -0.7890
 3369SOL    HW213475   1.240   2.878   2.451 -1.5648 -1.8852 -1.3717
 3369SOL     MW13476   1.177   2.931   2.481 -0.3489 -0.6918 -0.7850
 3370SOL     OW13477   2.041   1.492   5.110 -0.4123  0.3319 -0.1826
 3370SOL    HW113478   1.964   1.436   5.108 -0.4108  0.2308  1.2847
 3370SOL    HW213479   2.105   1.444   5.163 -0.4333  1.6856  1.1538
 3370SOL     MW13480   2.039   1.479   5.117 -0.4148  0.4922  0.1763
 3371SOL     OW13481   2.320   2.900   1.445 -0.2794 -0.4525  0.0791
 3371SOL    HW113482   2.300   2.808   1.465 -2.6000 -0.3864 -1.4469
 3371SOL    HW213483   2.259   2.950   1.499  0.1103  0.1342 -0.0165
 3371SOL     MW13484   2.309   2.894   1.454 -0.5266 -0.3689 -0.1285
 3372SOL     OW13485   4.214   3.941   2.059  0.0259  0.2780  0.0852
 3372SOL    HW113486   4.121   3.924   2.047 -0.1041  0.8828  0.1945
 3372SOL    HW213487   4.218   4.005   2.131  0.5970 -0.7053  0.9536
 3372SOL     MW13488   4.203   3.947   2.067  0.0824  0.2296  0.2103
 3373SOL     OW13489   2.562   5.192   3.839 -0.0354  0.0867 -0.2440
 3373SOL    HW113490   2.533   5.280   3.817  1.7950  0.7402 -0.1995
 3373SOL    HW213491   2.611   5.163   3.763 -0.9194 -1.0642 -0.4006
 3373SOL     MW13492   2.565   5.199   3.826  0.0857  0.0230 -0.2584
 3374SOL     OW13493   2.621   3.346   4.699 -0.0338  0.2668 -0.5871
 3374SOL    HW113494   2.572   3.266   4.680 -0.0211  0.1777 -0.2358
 3374SOL    HW213495   2.562   3.417   4.673  0.4808  0.1464 -2.2560
 3374SOL     MW13496   2.607   3.345   4.693  0.0337  0.2400 -0.7558
 3375SOL     OW13497   0.856   0.573   2.557 -0.2913  0.0273 -0.4660
 3375SOL    HW113498   0.880   0.587   2.649 -0.1801 -0.8599 -0.3461
 3375SOL    HW213499   0.788   0.505   2.561  0.3219 -0.6309 -1.0908
 3375SOL     MW13500   0.850   0.566   2.570 -0.1986 -0.1705 -0.5306
 3376SOL     OW13501   0.407   3.049   2.833  0.4857 -0.0684 -0.2871
 3376SOL    HW113502   0.335   3.002   2.791 -0.8305  1.2730  0.3591
 3376SOL    HW213503   0.380   3.058   2.924  1.1160  1.1258 -0.1918
 3376SOL     MW13504   0.394   3.044   2.839  0.3979  0.2562 -0.1922
 3377SOL     OW13505   3.017   3.912   0.277 -0.2644  0.0838 -0.0451
 3377SOL    HW113506   3.043   3.885   0.189  0.9479 -0.1949  0.3722
 3377SOL    HW213507   3.062   3.996   0.290 -1.3111  0.6633 -0.0851
 3377SOL     MW13508   3.026   3.920   0.267 -0.2432  0.1223  0.0032
 3378SOL     OW13509   5.447   1.590   5.298 -0.5324 -0.0215  0.4572
 3378SOL    HW113510   5.372   1.590   5.358 -0.7315 -0.3748  0.2117
 3378SOL    HW213511   5.429   1.518   5.238  0.5475 -0.8446  1.0886
 3378SOL     MW13512   5.435   1.581   5.298 -0.4196 -0.1721  0.5066
 3379SOL     OW13513   4.940   2.596   0.942  0.7417  0.0317 -0.0686
 3379SOL    HW113514   4.914   2.636   1.025  0.1580 -0.5941  0.0721
 3379SOL    HW213515   5.033   2.614   0.933  0.8376 -0.0047  0.7973
 3379SOL     MW13516   4.948   2.603   0.951  0.6792 -0.0531  0.0603
 3380SOL     OW13517   3.740   4.908   2.819  0.6578 -0.1779 -0.5044
 3380SOL    HW113518   3.660   4.872   2.859 -0.0394  0.7778 -0.9892
 3380SOL    HW213519   3.801   4.916   2.892 -0.9345  2.4932  0.7082
 3380SOL     MW13520   3.737   4.905   2.834  0.3647  0.2864 -0.4113
 3381SOL     OW13521   3.200   0.273   3.755 -0.2543  0.3599 -0.1731
 3381SOL    HW113522   3.186   0.179   3.766 -0.0620  0.4955  1.5859
 3381SOL    HW213523   3.125   0.303   3.704 -0.5752 -0.6689 -0.3238
 3381SOL     MW13524   3.189   0.265   3.750 -0.2708  0.2455  0.0328
 3382SOL     OW13525   1.981   1.163   4.090 -0.2504 -0.2246 -0.1968
 3382SOL    HW113526   1.965   1.143   3.998 -0.6650  0.9588 -0.4033
 3382SOL    HW213527   1.909   1.120   4.137 -0.3029 -0.4350 -0.4667
 3382SOL     MW13528   1.970   1.155   4.084 -0.3102 -0.1001 -0.2578
 3383SOL     OW13529   3.215   4.395   1.208 -0.1514 -0.4074  0.4524
 3383SOL    HW113530   3.127   4.431   1.196 -0.2268 -0.8867 -0.4592
 3383SOL    HW213531   3.239   4.422   1.297 -1.3073 -0.4576  0.8004
 3383SOL     MW13532   3.206   4.403   1.218 -0.3090 -0.4752  0.3803
 3384SOL     OW13533   0.096   1.735   3.345 -0.4144  0.2007 -0.7857
 3384SOL    HW113534   0.030   1.792   3.384 -0.1315  0.1098 -0.1632
 3384SOL    HW213535   0.169   1.735   3.408 -0.2106 -0.4422 -1.0073
 3384SOL     MW13536   0.097   1.742   3.358 -0.3521  0.1068 -0.7344
 3385SOL     OW13537   4.024   4.166   1.004 -0.6147 -0.8471 -0.0721
 3385SOL    HW113538   4.011   4.084   0.957  0.2287 -0.0663 -1.7654
 3385SOL    HW213539   4.007   4.234   0.939  0.5209  0.2993  0.7654
 3385SOL     MW13540   4.020   4.164   0.990 -0.3613 -0.6004 -0.1817
 3386SOL     OW13541   1.254   4.099   2.288  0.2275  0.1369  0.0061
 3386SOL    HW113542   1.323   4.089   2.222  0.1963 -2.6412  0.2851
 3386SOL    HW213543   1.290   4.060   2.367 -0.5088  1.5836  1.1120
 3386SOL     MW13544   1.268   4.093   2.289  0.1292 -0.0335  0.1833
 3387SOL     OW13545   4.979   1.843   3.642  0.0482 -0.3524  0.2559
 3387SOL    HW113546   4.976   1.913   3.707 -1.7930  0.9640 -1.1522
 3387SOL    HW213547   4.888   1.828   3.618  0.4726 -2.5816 -0.2225
 3387SOL     MW13548   4.967   1.850   3.648 -0.1331 -0.4692  0.0144
 3388SOL     OW13549   1.784   0.969   3.668  0.0249 -0.4783  0.1800
 3388SOL    HW113550   1.718   1.038   3.669 -0.7510 -1.1175 -1.7842
 3388SOL    HW213551   1.851   0.999   3.606  1.5329  0.0505  1.9627
 3388SOL     MW13552   1.784   0.982   3.660  0.1186 -0.4925  0.1567
 3389SOL     OW13553   0.715   4.481   1.409  0.2464  0.1040  0.1680
 3389SOL    HW113554   0.649   4.529   1.459 -1.8361 -1.0699 -1.2761
 3389SOL    HW213555   0.726   4.398   1.457  0.1407  0.0045  0.0188
 3389SOL     MW13556   0.708   4.477   1.422 -0.0337 -0.0590 -0.0360
 3390SOL     OW13557   2.599   1.739   0.987  0.0495  0.3740 -0.5560
 3390SOL    HW113558   2.581   1.646   0.998 -1.4358  0.6053 -0.7494
 3390SOL    HW213559   2.628   1.769   1.073  1.4097 -0.4198 -0.7093
 3390SOL     MW13560   2.600   1.731   0.999  0.0335  0.3020 -0.6004
 3391SOL     OW13561   1.626   0.775   1.836  0.4042  0.3138  0.3986
 3391SOL    HW113562   1.706   0.823   1.815  0.7711 -0.9301 -1.2454
 3391SOL    HW213563   1.604   0.729   1.755 -1.6599  0.1679  0.9985
 3391SOL     MW13564   1.634   0.775   1.823  0.1869  0.1359  0.2649
 3392SOL     OW13565   4.662   3.875   2.641 -0.0581 -0.5736 -0.2610
 3392SOL    HW113566   4.756   3.892   2.642  0.2663 -1.9396 -1.8595
 3392SOL    HW213567   4.638   3.881   2.548 -1.2623 -1.5978 -0.0443
 3392SOL     MW13568   4.671   3.878   2.629 -0.1707 -0.8796 -0.4379
 3393SOL     OW13569   1.239   3.093   1.371  0.2152 -0.0995  0.5994
 3393SOL    HW113570   1.261   3.000   1.370  0.4232 -0.0460 -0.8371
 3393SOL    HW213571   1.195   3.108   1.288  0.4960  1.1646  0.6673
 3393SOL     MW13572   1.236   3.083   1.361  0.2778  0.0692  0.4242
 3394SOL     OW13573   3.599   1.919   5.226  0.8501  0.5983  0.0760
 3394SOL    HW113574   3.583   1.969   5.306  0.6135  0.0450  0.3819
 3394SOL    HW213575   3.511   1.901   5.191  0.9371  0.4579 -0.0705
 3394SOL     MW13576   3.585   1.923   5.231  0.8310  0.5095  0.0964
 3395SOL     OW13577   0.652   2.538   2.928 -0.1260  0.0100 -0.0175
 3395SOL    HW113578   0.600   2.477   2.877  3.0353 -1.4765 -1.7593
 3395SOL    HW213579   0.643   2.622   2.882 -0.2540 -0.4454 -0.8351
 3395SOL     MW13580   0.644   2.541   2.916  0.2623 -0.2386 -0.3451
 3396SOL     OW13581   3.617   0.051   5.107  0.1096 -0.0512  0.0019
 3396SOL    HW113582   3.544   0.054   5.046  0.2596 -1.5911 -0.3043
 3396SOL    HW213583   3.686   0.104   5.067 -0.0988 -0.3466 -0.7506
 3396SOL     MW13584   3.617   0.058   5.094  0.1021 -0.2862 -0.1336
 3397SOL     OW13585   2.338   2.693   4.658 -0.1646 -0.8741  0.0571
 3397SOL    HW113586   2.335   2.785   4.684 -1.4024 -0.6550 -0.8042
 3397SOL    HW213587   2.424   2.682   4.619 -0.5688  0.3247 -1.2301
 3397SOL     MW13588   2.349   2.704   4.656 -0.3748 -0.6926 -0.2180
 3398SOL     OW13589   0.675   0.411   4.327  0.1033  0.5070  0.1374
 3398SOL    HW113590   0.633   0.488   4.364  0.3928  0.5076  0.4730
 3398SOL    HW213591   0.604   0.352   4.307 -0.1395  0.9407 -0.3070
 3398SOL     MW13592   0.661   0.414   4.329  0.1093  0.5626  0.1235
 3399SOL     OW13593   1.967   0.620   5.365 -0.3351 -0.0352 -0.3514
 3399SOL    HW113594   1.942   0.542   5.415 -0.7613  2.1915  3.3112
 3399SOL    HW213595   1.885   0.668   5.353  0.3398  1.3751  0.4397
 3399SOL     MW13596   1.953   0.616   5.370 -0.3033  0.4304  0.2188
 3400SOL     OW13597   3.353   1.934   1.405 -0.6056  0.0079 -0.1072
 3400SOL    HW113598   3.388   2.006   1.456 -0.3086  1.7240 -2.5712
 3400SOL    HW213599   3.259   1.935   1.423 -0.3167 -0.4869  1.5833
 3400SOL     MW13600   3.345   1.943   1.414 -0.5306  0.1642 -0.2062
 3401SOL     OW13601   5.368   4.314   1.257  0.2604 -0.3631  0.5151
 3401SOL    HW113602   5.337   4.388   1.308  0.3053 -0.4508  0.6696
 3401SOL    HW213603   5.460   4.333   1.241  0.0963 -0.0267 -0.0754
 3401SOL     MW13604   5.376   4.326   1.261  0.2452 -0.3313  0.4593
 3402SOL     OW13605   5.155   3.926   0.449  0.1061 -0.3545 -0.0443
 3402SOL    HW113606   5.225   3.922   0.384  0.3343  0.2535  0.1583
 3402SOL    HW213607   5.200   3.946   0.531 -0.4004  1.0313 -0.0881
 3402SOL     MW13608   5.170   3.928   0.451  0.0705 -0.0993 -0.0240
 3403SOL     OW13609   4.362   0.917   1.486  0.0364 -0.3615  0.2370
 3403SOL    HW113610   4.337   0.998   1.532 -0.5754 -0.8036  0.7078
 3403SOL    HW213611   4.300   0.911   1.413  0.4277 -0.1316 -0.1195
 3403SOL     MW13612   4.351   0.927   1.483  0.0082 -0.3887  0.2516
 3404SOL     OW13613   1.929   2.175   5.199  0.0995 -0.3372  0.1368
 3404SOL    HW113614   1.957   2.223   5.277  2.0718  0.6973 -1.1443
 3404SOL    HW213615   1.922   2.084   5.228 -1.1270  0.2650  1.9587
 3404SOL     MW13616   1.931   2.169   5.213  0.1949 -0.1277  0.2060
 3405SOL     OW13617   3.867   4.797   5.459  0.1061 -0.2387 -0.1482
 3405SOL    HW113618   3.923   4.729   5.498  0.6497  0.3447  0.1079
 3405SOL    HW213619   3.867   4.777   5.366 -1.7660 -2.0689  0.1719
 3405SOL     MW13620   3.874   4.786   5.452 -0.0639 -0.3983 -0.0745
 3406SOL     OW13621   1.739   4.253   2.289  0.2345  0.3590  0.8014
 3406SOL    HW113622   1.821   4.288   2.323  0.5318 -0.7743  1.3306
 3406SOL    HW213623   1.761   4.217   2.204  0.1226  0.6915  0.6312
 3406SOL     MW13624   1.752   4.253   2.283  0.2582  0.2565  0.8474
 3407SOL     OW13625   1.191   0.330   0.855  0.2987 -0.0916 -0.1357
 3407SOL    HW113626   1.251   0.264   0.820  0.9664 -0.0978  0.9557
 3407SOL    HW213627   1.247   0.388   0.907 -0.5764  0.1200  0.6111
 3407SOL     MW13628   1.206   0.329   0.857  0.2722 -0.0653  0.0996
 3408SOL     OW13629   3.654   4.367   2.023  0.0110  0.2142  0.0501
 3408SOL    HW113630   3.667   4.273   2.027 -0.2335  0.1800  0.0322
 3408SOL    HW213631   3.728   4.399   1.970 -0.8101 -0.1580 -1.3597
 3408SOL     MW13632   3.665   4.359   2.016 -0.1255  0.1621 -0.1326
 3409SOL     OW13633   3.000   5.473   0.062 -0.2094  0.5613  0.4186
 3409SOL    HW113634   3.094   5.490   0.064 -0.1753  0.3386  0.6278
 3409SOL    HW213635   2.988   5.392   0.110 -0.3635 -0.0826 -0.6681
 3409SOL     MW13636   3.010   5.465   0.068 -0.2248  0.4503  0.3063
 3410SOL     OW13637   0.365   2.751   1.099  0.0243 -0.1104  0.0868
 3410SOL    HW113638   0.371   2.657   1.082 -0.4467  0.0256 -0.8638
 3410SOL    HW213639   0.329   2.789   1.019  1.6261  1.0884 -0.1244
 3410SOL     MW13640   0.361   2.744   1.087  0.1691  0.0604 -0.0620
 3411SOL     OW13641   2.397   3.194   1.091  0.3703  0.5905 -0.2656
 3411SOL    HW113642   2.372   3.107   1.120  1.6388  0.3611  0.1976
 3411SOL    HW213643   2.436   3.235   1.168 -0.4235  1.6635 -0.4078
 3411SOL     MW13644   2.399   3.188   1.104  0.4311  0.6985 -0.2245
 3412SOL     OW13645   3.979   4.870   2.968  0.0550  0.1704 -0.4485
 3412SOL    HW113646   4.007   4.898   2.881 -0.7450  0.1187 -0.7219
 3412SOL    HW213647   4.056   4.825   3.004  1.1002  1.9439 -0.3280
 3412SOL     MW13648   3.993   4.868   2.962  0.0864  0.3908 -0.4681
 3413SOL     OW13649   2.246   2.025   1.154 -0.4908 -0.2013 -0.2697
 3413SOL    HW113650   2.169   1.998   1.204 -0.2042  1.4913  1.1386
 3413SOL    HW213651   2.210   2.077   1.082 -0.7165 -0.3985 -0.3040
 3413SOL     MW13652   2.231   2.028   1.151 -0.4830 -0.0099 -0.0938
 3414SOL     OW13653   4.471   0.373   1.257  0.1654 -0.3204 -0.3783
 3414SOL    HW113654   4.512   0.407   1.178 -0.4841  0.3260 -0.4448
 3414SOL    HW213655   4.402   0.314   1.225  0.2297 -0.4489 -0.2834
 3414SOL     MW13656   4.468   0.370   1.243  0.0905 -0.2541 -0.3746
 3415SOL     OW13657   1.495   2.950   3.515 -0.2090  0.2633  0.2989
 3415SOL    HW113658   1.441   2.941   3.436  0.0013  1.2142  0.0398
 3415SOL    HW213659   1.522   3.042   3.515  0.4985  0.0593  1.0235
 3415SOL     MW13660   1.491   2.961   3.505 -0.0915  0.3589  0.3585
 3416SOL     OW13661   0.315   1.188   4.015 -0.1267 -0.2145 -0.4560
 3416SOL    HW113662   0.381   1.133   4.059  0.6256  0.9358 -0.0958
 3416SOL    HW213663   0.286   1.135   3.941  0.4641 -1.1618 -0.0360
 3416SOL     MW13664   0.320   1.174   4.011  0.0453 -0.1885 -0.3561
 3417SOL     OW13665   3.279   2.143   4.228 -0.0996 -0.1767 -0.8003
 3417SOL    HW113666   3.196   2.097   4.223  0.6878 -1.6079 -1.6000
 3417SOL    HW213667   3.320   2.126   4.143  1.3434 -0.1929 -0.1312
 3417SOL     MW13668   3.274   2.135   4.216  0.1859 -0.3620 -0.8170
 3418SOL     OW13669   3.623   4.452   2.991  0.2195 -0.4323 -0.1033
 3418SOL    HW113670   3.666   4.471   2.908  0.3264  0.1868  0.0948
 3418SOL    HW213671   3.546   4.400   2.966 -1.8710  2.7836 -1.0176
 3418SOL     MW13672   3.619   4.448   2.977 -0.0344  0.0586 -0.1950
 3419SOL     OW13673   1.715   1.629   4.657  0.3451  0.3178 -0.1921
 3419SOL    HW113674   1.700   1.555   4.716  1.3996 -0.1933 -0.5313
 3419SOL    HW213675   1.786   1.678   4.698  0.8860  0.1200 -0.8660
 3419SOL     MW13676   1.722   1.625   4.669  0.5494  0.2270 -0.3218
 3420SOL     OW13677   2.064   1.720   2.042  0.1782  0.1407  0.9729
 3420SOL    HW113678   2.111   1.767   2.110  0.1240  0.8833  0.5051
 3420SOL    HW213679   2.024   1.788   1.989 -2.0376 -0.4415  1.7624
 3420SOL     MW13680   2.065   1.735   2.044 -0.1124  0.1613  1.0141
 3421SOL     OW13681   0.582   1.547   2.239 -0.1694  0.3301  0.0741
 3421SOL    HW113682   0.651   1.561   2.174  1.1788 -1.7046  0.9285
 3421SOL    HW213683   0.549   1.459   2.220  0.6945 -0.5873  2.4098
 3421SOL     MW13684   0.587   1.537   2.229  0.1138 -0.0478  0.4824
 3422SOL     OW13685   2.066   3.104   0.033  0.2888  0.1922 -0.2865
 3422SOL    HW113686   1.991   3.139   0.080  0.6151  0.8591 -0.2530
 3422SOL    HW213687   2.142   3.141   0.078  0.6761 -1.2908  0.3266
 3422SOL     MW13688   2.066   3.113   0.045  0.3802  0.0877 -0.2037
 3423SOL     OW13689   2.507   2.924   5.003 -0.1122  0.3926  0.1288
 3423SOL    HW113690   2.555   2.850   4.966 -2.1872 -1.2134  0.4839
 3423SOL    HW213691   2.524   2.996   4.942 -0.6490 -1.2607 -2.1207
 3423SOL     MW13692   2.515   2.924   4.990 -0.4465 -0.0246 -0.1137
 3424SOL     OW13693   1.419   4.979   2.283 -0.4566  0.0173 -0.0846
 3424SOL    HW113694   1.485   4.916   2.311  0.0463  0.8158  0.5712
 3424SOL    HW213695   1.338   4.928   2.277 -0.4702 -0.3328  2.2517
 3424SOL     MW13696   1.417   4.964   2.285 -0.3939  0.0747  0.2984
 3425SOL     OW13697   2.191   0.582   1.492  0.3203  0.0990 -0.7249
 3425SOL    HW113698   2.115   0.575   1.549  0.9213 -2.1860 -0.0757
 3425SOL    HW213699   2.181   0.510   1.430  2.6133 -1.2758  0.3361
 3425SOL     MW13700   2.180   0.572   1.491  0.6908 -0.3695 -0.5060
 3426SOL     OW13701   2.431   2.695   0.650  0.3088 -0.3821  0.1425
 3426SOL    HW113702   2.496   2.631   0.678  1.1256 -0.0487 -0.9514
 3426SOL    HW213703   2.416   2.749   0.728  2.6897  0.6534 -0.0644
 3426SOL     MW13704   2.437   2.694   0.664  0.7181 -0.2069 -0.0240
 3427SOL     OW13705   4.326   2.378   2.863  0.0699  0.7840 -0.3339
 3427SOL    HW113706   4.281   2.313   2.917  0.7602 -0.4294 -1.1441
 3427SOL    HW213707   4.391   2.418   2.921  0.3397 -0.0076 -0.0769
 3427SOL     MW13708   4.329   2.375   2.877  0.1928  0.5274 -0.4047
 3428SOL     OW13709   0.530   1.137   3.340  0.6196 -0.0683 -0.0295
 3428SOL    HW113710   0.472   1.060   3.336  0.4969 -0.0118  0.4885
 3428SOL    HW213711   0.469   1.211   3.346  0.7458 -0.0147  0.6041
 3428SOL     MW13712   0.515   1.136   3.340  0.6200 -0.0542  0.1179
 3429SOL     OW13713   3.717   1.703   5.341  0.4000 -0.1075  0.0336
 3429SOL    HW113714   3.656   1.646   5.294  0.7030  0.1656 -0.7105
 3429SOL    HW213715   3.682   1.791   5.328  0.9030  0.0422 -0.3300
 3429SOL     MW13716   3.704   1.707   5.333  0.5032 -0.0533 -0.1082
 3430SOL     OW13717   1.652   1.424   2.616 -0.6012 -0.3279 -1.0040
 3430SOL    HW113718   1.734   1.472   2.611 -1.0275  0.4910 -0.2426
 3430SOL    HW213719   1.677   1.332   2.602  0.7480 -0.3937  1.3615
 3430SOL     MW13720   1.666   1.418   2.613 -0.4831 -0.2315 -0.6037
 3431SOL     OW13721   3.710   3.312   4.251 -0.3362  0.3640 -0.0897
 3431SOL    HW113722   3.746   3.223   4.255  1.4178  0.9188 -2.1540
 3431SOL    HW213723   3.724   3.347   4.339  1.6173 -0.4464 -0.0284
 3431SOL     MW13724   3.716   3.305   4.263  0.1384  0.3313 -0.3461
 3432SOL     OW13725   4.972   0.205   4.825 -0.4201 -0.1871 -0.0462
 3432SOL    HW113726   4.878   0.224   4.828 -0.4360 -0.2613 -0.0700
 3432SOL    HW213727   4.984   0.136   4.890 -0.1386  0.8585  1.0476
 3432SOL     MW13728   4.961   0.199   4.833 -0.3861 -0.0627  0.0908
 3433SOL     OW13729   4.580   4.863   3.924 -0.5098  0.1368  0.5376
 3433SOL    HW113730   4.546   4.918   3.995 -0.8886  0.1964  0.3139
 3433SOL    HW213731   4.546   4.904   3.844 -0.9577 -0.5378  0.3768
 3433SOL     MW13732   4.571   4.876   3.923 -0.6157  0.0581  0.4884
 3434SOL     OW13733   4.409   1.417   4.690 -0.0896  0.0652  0.3711
 3434SOL    HW113734   4.440   1.457   4.772 -0.3672 -0.7467  0.8908
 3434SOL    HW213735   4.372   1.490   4.640 -1.1724  0.3854  1.5679
 3434SOL     MW13736   4.408   1.431   4.694 -0.2638  0.0023  0.5909
 3435SOL     OW13737   4.253   5.050   1.191  0.2096 -0.4932  0.5074
 3435SOL    HW113738   4.227   4.969   1.147  1.0286 -0.6751  0.3481
 3435SOL    HW213739   4.300   5.021   1.269  1.1478 -0.1873  0.0723
 3435SOL     MW13740   4.255   5.036   1.195  0.4345 -0.4774  0.4313
 3436SOL     OW13741   1.812   0.847   3.913 -0.0054 -0.0355 -0.4557
 3436SOL    HW113742   1.792   0.903   3.838 -0.1706  0.2999 -0.1600
 3436SOL    HW213743   1.821   0.759   3.875  1.8677  0.4085 -1.1810
 3436SOL     MW13744   1.811   0.843   3.898  0.2133  0.0643 -0.5107
 3437SOL     OW13745   2.206   2.039   3.899 -0.0300 -0.0646  0.1952
 3437SOL    HW113746   2.199   2.011   3.808 -1.7730 -1.5926  0.7580
 3437SOL    HW213747   2.272   1.980   3.937  0.1410  0.0742  0.1164
 3437SOL     MW13748   2.214   2.028   3.892 -0.2313 -0.2424  0.2572
 3438SOL     OW13749   3.084   0.916   1.414  0.4312 -0.3787  0.9899
 3438SOL    HW113750   3.110   0.990   1.469 -0.6383  0.4274  0.4452
 3438SOL    HW213751   3.019   0.952   1.354  0.9191 -1.4480 -0.2272
 3438SOL     MW13752   3.079   0.930   1.413  0.3568 -0.4124  0.7643
 3439SOL     OW13753   2.719   3.599   4.411 -0.4295 -0.4530 -0.7382
 3439SOL    HW113754   2.792   3.660   4.405 -0.0626 -0.8476 -0.3784
 3439SOL    HW213755   2.692   3.586   4.320 -1.6353  1.5484 -0.7242
 3439SOL     MW13756   2.725   3.605   4.399 -0.5369 -0.2473 -0.6903
 3440SOL     OW13757   5.332   4.258   4.886 -0.0141  0.1724  0.2509
 3440SOL    HW113758   5.238   4.241   4.898 -0.3545  0.8315 -1.3158
 3440SOL    HW213759   5.361   4.290   4.971 -0.6411 -2.3930  1.5320
 3440SOL     MW13760   5.323   4.260   4.898 -0.1379 -0.0717  0.2143
 3441SOL     OW13761   2.597   1.360   1.864  0.4826  0.5259  0.4227
 3441SOL    HW113762   2.566   1.346   1.953  3.8012 -1.2399  1.4759
 3441SOL    HW213763   2.629   1.450   1.864  1.6885  0.1247  1.4955
 3441SOL     MW13764   2.597   1.370   1.875  1.0618  0.2485  0.6948
 3442SOL     OW13765   4.464   0.068   2.472 -0.4898 -0.3883  0.0923
 3442SOL    HW113766   4.481  -0.018   2.433 -1.9758 -1.0343  0.7769
 3442SOL    HW213767   4.370   0.068   2.490 -0.0936  0.2781  2.6209
 3442SOL     MW13768   4.455   0.057   2.469 -0.6293 -0.3857  0.5037
 3443SOL     OW13769   3.453   0.492   1.009  0.1505  0.2726  0.6727
 3443SOL    HW113770   3.429   0.504   1.101  0.6492 -1.5726  1.0941
 3443SOL    HW213771   3.542   0.526   1.002  0.0161  0.6578  0.8013
 3443SOL     MW13772   3.461   0.498   1.020  0.1971  0.0857  0.7431
 3444SOL     OW13773   1.698   1.540   4.400 -0.3060  0.2669  0.1223
 3444SOL    HW113774   1.718   1.555   4.493  1.9349  0.3770 -0.3091
 3444SOL    HW213775   1.743   1.612   4.355 -1.3325  0.1897 -1.0733
 3444SOL     MW13776   1.706   1.551   4.406 -0.1506  0.2711 -0.0860
 3445SOL     OW13777   4.690   2.245   1.628  0.0108 -0.4771 -0.5745
 3445SOL    HW113778   4.595   2.252   1.640 -0.1449 -0.6396 -1.6199
 3445SOL    HW213779   4.725   2.326   1.665 -0.5318 -0.4457 -0.1241
 3445SOL     MW13780   4.682   2.256   1.634 -0.0786 -0.4939 -0.6506
 3446SOL     OW13781   1.854   1.565   5.290 -0.1573 -0.1960  0.2321
 3446SOL    HW113782   1.949   1.549   5.287 -0.1981 -0.7574  1.3985
 3446SOL    HW213783   1.834   1.575   5.383 -1.4182 -1.2212  0.0999
 3446SOL     MW13784   1.864   1.564   5.301 -0.3240 -0.3991  0.3645
 3447SOL     OW13785   2.125   0.554   5.165  0.3865 -0.6703 -0.1370
 3447SOL    HW113786   2.054   0.576   5.225 -0.1154  0.4705 -1.1114
 3447SOL    HW213787   2.180   0.632   5.162  0.8652 -1.0114 -0.5144
 3447SOL     MW13788   2.123   0.567   5.172  0.3835 -0.5679 -0.3101
 3448SOL     OW13789   3.066   1.287   2.294  0.2809  0.2098  0.4358
 3448SOL    HW113790   2.993   1.286   2.356  1.4211  0.2882  1.8493
 3448SOL    HW213791   3.129   1.224   2.330  0.7605 -0.1394 -0.9472
 3448SOL     MW13792   3.065   1.279   2.307  0.4883  0.1751  0.4397
 3449SOL     OW13793   2.235   4.955   2.321 -0.6524 -0.4620  0.5117
 3449SOL    HW113794   2.173   5.022   2.347  0.3246  0.4746  0.4905
 3449SOL    HW213795   2.187   4.901   2.258 -2.3462 -1.4512  2.5008
 3449SOL     MW13796   2.221   4.956   2.316 -0.7442 -0.4688  0.7636
 3450SOL     OW13797   4.135   1.179   2.237 -0.5755  0.2260  0.0553
 3450SOL    HW113798   4.228   1.166   2.253 -0.4131  0.2845 -0.7724
 3450SOL    HW213799   4.131   1.245   2.168 -1.2606  0.8906  0.7146
 3450SOL     MW13800   4.146   1.185   2.230 -0.6424  0.3186  0.0338
 3451SOL     OW13801   3.214   1.610   0.195  0.1329  0.5560  0.5930
 3451SOL    HW113802   3.276   1.643   0.261  0.3637 -0.8333  1.1269
 3451SOL    HW213803   3.200   1.519   0.221  1.2371 -0.4457 -2.0136
 3451SOL     MW13804   3.220   1.602   0.207  0.3038  0.2499  0.3277
 3452SOL     OW13805   1.633   3.451   5.231 -0.0946  0.3616 -0.1439
 3452SOL    HW113806   1.602   3.539   5.211  0.0835  0.3361 -0.5420
 3452SOL    HW213807   1.728   3.461   5.238  0.0899 -0.0547 -1.6325
 3452SOL     MW13808   1.641   3.464   5.229 -0.0482  0.3050 -0.3854
 3453SOL     OW13809   5.288   0.792   1.237 -0.1471  0.2553 -0.1815
 3453SOL    HW113810   5.271   0.881   1.266  0.1803 -0.1136  1.2326
 3453SOL    HW213811   5.206   0.745   1.255 -0.0002  0.0661  0.0091
 3453SOL     MW13812   5.276   0.797   1.243 -0.0864  0.1839  0.0239
 3454SOL     OW13813   2.524   0.969   1.757 -0.1683 -0.1220  0.1775
 3454SOL    HW113814   2.610   0.977   1.717 -0.3668  1.5452  0.0322
 3454SOL    HW213815   2.537   0.995   1.849 -0.4149 -0.3903  0.2905
 3454SOL     MW13816   2.536   0.973   1.764 -0.2253  0.0571  0.1734
 3455SOL     OW13817   4.785   4.284   4.265  0.2814  0.1458 -0.3063
 3455SOL    HW113818   4.754   4.221   4.330  0.2364 -1.0161 -1.4115
 3455SOL    HW213819   4.707   4.305   4.213  0.9281 -1.5067 -2.0497
 3455SOL     MW13820   4.771   4.279   4.266  0.3585 -0.2145 -0.6709
 3456SOL     OW13821   1.357   4.893   3.354 -0.2836 -0.2285  0.1191
 3456SOL    HW113822   1.305   4.813   3.356  1.1226 -1.1700  0.1713
 3456SOL    HW213823   1.366   4.913   3.261 -2.2104  0.9747  0.1342
 3456SOL     MW13824   1.352   4.885   3.342 -0.3502 -0.1950  0.1277
 3457SOL     OW13825   5.186   4.104   2.600 -0.4660  0.6997 -0.6947
 3457SOL    HW113826   5.191   4.135   2.510 -1.0691 -0.3361 -1.1032
 3457SOL    HW213827   5.094   4.077   2.611 -0.3672  0.6926  0.1872
 3457SOL     MW13828   5.175   4.105   2.590 -0.5306  0.5662 -0.6341
 3458SOL     OW13829   4.422   1.659   2.704  0.1378  0.2167  0.6228
 3458SOL    HW113830   4.497   1.714   2.723  1.3244 -0.7141 -1.0832
 3458SOL    HW213831   4.457   1.570   2.699 -1.3232 -0.4202  1.1044
 3458SOL     MW13832   4.436   1.655   2.706  0.1027  0.0160  0.4660
 3459SOL     OW13833   4.780   2.605   3.552  0.0255  0.0394  0.0650
 3459SOL    HW113834   4.844   2.554   3.602 -0.2829 -1.3984 -0.9596
 3459SOL    HW213835   4.778   2.563   3.466  0.2345  2.1820 -1.0580
 3459SOL     MW13836   4.788   2.593   3.547  0.0128  0.1296 -0.2099
 3460SOL     OW13837   2.562   3.069   4.078 -0.4746  0.6620 -0.3291
 3460SOL    HW113838   2.543   3.049   3.987  0.4304  0.3745 -0.4688
 3460SOL    HW213839   2.532   2.993   4.127  0.5636  0.0708 -0.5804
 3460SOL     MW13840   2.556   3.057   4.073 -0.2258  0.5496 -0.3791
 3461SOL     OW13841   1.842   2.365   2.861  0.2218  0.1697 -0.2586
 3461SOL    HW113842   1.814   2.324   2.943  0.9153  0.4910  0.1530
 3461SOL    HW213843   1.857   2.292   2.801  2.4475 -0.3068  0.7814
 3461SOL     MW13844   1.840   2.351   2.864  0.5955  0.1499 -0.0728
 3462SOL     OW13845   4.074   0.845   4.021  0.1913 -0.2528  0.5809
 3462SOL    HW113846   4.074   0.940   4.032 -0.6630 -0.0296 -0.9749
 3462SOL    HW213847   4.158   0.827   3.978  0.0505 -0.1007  0.2366
 3462SOL     MW13848   4.085   0.855   4.017  0.0639 -0.2047  0.3377
 3463SOL     OW13849   0.719   3.610   2.523 -0.0211 -0.2066 -0.7501
 3463SOL    HW113850   0.646   3.549   2.536 -0.6267  0.6742  0.0294
 3463SOL    HW213851   0.688   3.693   2.557  0.5264  0.7594 -2.4804
 3463SOL     MW13852   0.706   3.613   2.529 -0.0285  0.0298 -0.8719
 3464SOL     OW13853   0.828   0.697   5.217 -0.5780 -0.7392  0.2450
 3464SOL    HW113854   0.775   0.634   5.169  0.8390 -2.0018  0.2521
 3464SOL    HW213855   0.849   0.653   5.299  0.2767 -0.1883  0.3316
 3464SOL     MW13856   0.824   0.683   5.221 -0.2872 -0.8303  0.2570
 3465SOL     OW13857   3.541   0.402   2.982  0.9740  0.0541 -0.1127
 3465SOL    HW113858   3.557   0.458   2.905 -1.0760 -2.3117 -2.4724
 3465SOL    HW213859   3.504   0.322   2.945 -1.7498 -0.5869  3.4880
 3465SOL     MW13860   3.538   0.399   2.967  0.3629 -0.3308  0.0462
 3466SOL     OW13861   0.028   2.738   3.364  0.0444 -0.2215  0.0114
 3466SOL    HW113862   0.037   2.643   3.354  1.9818 -0.1732  0.9177
 3466SOL    HW213863  -0.049   2.749   3.420 -2.3814 -1.0342 -2.8669
 3466SOL     MW13864   0.019   2.727   3.370 -0.0181 -0.3193 -0.2411
 3467SOL     OW13865   0.353   0.555   1.319  0.3209  0.0368  0.3042
 3467SOL    HW113866   0.296   0.608   1.264  0.0320  0.5923  1.1085
 3467SOL    HW213867   0.364   0.607   1.399  0.7522 -0.7269  0.7597
 3467SOL     MW13868   0.347   0.568   1.322  0.3391  0.0101  0.4655
 3468SOL     OW13869   0.151   2.278   0.131  0.0073 -0.0461 -0.2819
 3468SOL    HW113870   0.183   2.259   0.042  0.4620 -0.8153  0.0401
 3468SOL    HW213871   0.060   2.304   0.118 -0.8979 -3.0401 -0.7249
 3468SOL     MW13872   0.144   2.279   0.118 -0.0504 -0.5278 -0.2974
 3469SOL     OW13873   1.396   0.205   0.264  0.2585 -0.0850  0.1902
 3469SOL    HW113874   1.430   0.255   0.189 -0.8665  1.2438  0.5217
 3469SOL    HW213875   1.311   0.173   0.235  1.0244 -2.0316 -0.0699
 3469SOL     MW13876   1.389   0.207   0.251  0.2126 -0.1641  0.1993
 3470SOL     OW13877   2.199   2.953   3.627  0.3969 -0.2053 -0.1588
 3470SOL    HW113878   2.137   3.004   3.575 -0.0183 -0.3803  0.1573
 3470SOL    HW213879   2.284   2.992   3.609  0.0830  0.6107  0.0885
 3470SOL     MW13880   2.202   2.964   3.618  0.3035 -0.1232 -0.0867
 3471SOL     OW13881   4.167   2.286   3.251 -0.2861  0.5139 -0.2721
 3471SOL    HW113882   4.086   2.335   3.265  0.8937  2.7826 -0.8695
 3471SOL    HW213883   4.160   2.252   3.161 -1.2956 -0.8625  0.2954
 3471SOL     MW13884   4.156   2.288   3.241 -0.2643  0.6281 -0.2759
 3472SOL     OW13885   4.070   2.870   2.070 -0.3169  0.5859  0.0115
 3472SOL    HW113886   4.066   2.780   2.103  0.7101  0.1680 -0.9613
 3472SOL    HW213887   4.134   2.868   1.999 -1.1958  1.8307 -0.8655
 3472SOL     MW13888   4.078   2.859   2.065 -0.2979  0.6918 -0.2253
 3473SOL     OW13889   0.816   0.382   4.579  0.0973 -0.4467  0.3467
 3473SOL    HW113890   0.781   0.385   4.490 -0.3580 -0.9572  0.5062
 3473SOL    HW213891   0.752   0.430   4.632  1.3346  1.5940  0.1024
 3473SOL     MW13892   0.804   0.389   4.574  0.1974 -0.2508  0.3359
 3474SOL     OW13893   5.424   3.808   4.871 -0.3863 -0.0226  0.0947
 3474SOL    HW113894   5.510   3.811   4.829 -0.2776 -0.8404  0.2321
 3474SOL    HW213895   5.375   3.881   4.832  0.6734  1.0430  0.7100
 3474SOL     MW13896   5.429   3.818   4.861 -0.2368  0.0091  0.1911
 3475SOL     OW13897   0.317   1.251   0.261  0.2752  0.9913  0.1234
 3475SOL    HW113898   0.411   1.265   0.272  0.6043 -0.4588 -0.6832
 3475SOL    HW213899   0.282   1.257   0.350  1.3325  0.1034  0.6250
 3475SOL     MW13900   0.325   1.254   0.274  0.4527  0.6920  0.0843
 3476SOL     OW13901   3.295   1.045   3.618  0.0334 -0.4963 -0.0511
 3476SOL    HW113902   3.208   1.076   3.594 -0.2223 -0.3695  0.9834
 3476SOL    HW213903   3.281   0.959   3.655  0.4865 -0.9267 -0.8544
 3476SOL     MW13904   3.282   1.038   3.620  0.0587 -0.5351 -0.0215
 3477SOL     OW13905   5.356   0.281   2.531 -0.1322  0.0179 -0.1516
 3477SOL    HW113906   5.305   0.232   2.596  1.1110 -1.5356 -0.2696
 3477SOL    HW213907   5.303   0.357   2.510 -1.0266  0.0290  1.9353
 3477SOL     MW13908   5.343   0.285   2.537 -0.0875 -0.1796  0.1004
 3478SOL     OW13909   0.378   4.859   1.834  0.5582  0.1031 -0.7182
 3478SOL    HW113910   0.293   4.891   1.803  0.1172  0.2070  0.5579
 3478SOL    HW213911   0.390   4.776   1.787 -0.3192  0.0110 -0.8101
 3478SOL     MW13912   0.368   4.852   1.824  0.3894  0.1046 -0.5666
 3479SOL     OW13913   0.640  -0.004   1.751  0.0713  0.6199  0.1177
 3479SOL    HW113914   0.720   0.015   1.801 -0.4141  0.1271  1.1027
 3479SOL    HW213915   0.569   0.018   1.810 -0.5423  1.4709 -0.9156
 3479SOL     MW13916   0.641   0.001   1.765 -0.0694  0.6658  0.1115
 3480SOL     OW13917   1.109   2.629   3.175  0.1421  0.1188 -0.1543
 3480SOL    HW113918   1.062   2.642   3.257 -1.2573  0.5896 -0.9948
 3480SOL    HW213919   1.199   2.653   3.194  0.2705 -1.5866  1.7350
 3480SOL     MW13920   1.114   2.633   3.188 -0.0206 -0.0393 -0.0200
 3481SOL     OW13921   3.493   1.735   4.660 -0.3607  0.6090 -0.5943
 3481SOL    HW113922   3.524   1.809   4.713 -0.9471  0.7603 -0.4515
 3481SOL    HW213923   3.545   1.739   4.581  1.6130 -0.5297  0.5795
 3481SOL     MW13924   3.503   1.745   4.657 -0.1831  0.4826 -0.4257
 3482SOL     OW13925   0.717   4.494   3.555  0.2848 -0.0990  0.0682
 3482SOL    HW113926   0.717   4.588   3.572  0.2497  0.2885 -1.8457
 3482SOL    HW213927   0.775   4.457   3.622  0.7769  1.3520  0.4696
 3482SOL     MW13928   0.724   4.501   3.566  0.3433  0.1364 -0.1254
 3483SOL     OW13929   5.313   1.188   3.818 -0.1310  0.3797 -0.1219
 3483SOL    HW113930   5.345   1.231   3.739 -0.0248 -0.7036 -0.6818
 3483SOL    HW213931   5.281   1.260   3.873  1.4930  1.3162 -0.3447
 3483SOL     MW13932   5.313   1.203   3.815  0.0905  0.3609 -0.2221
 3484SOL     OW13933   4.369   3.911   1.838 -0.0138 -0.2770  0.2828
 3484SOL    HW113934   4.378   3.998   1.799 -1.0248  0.3388  1.3801
 3484SOL    HW213935   4.313   3.924   1.914 -0.0727 -1.8765  0.5460
 3484SOL     MW13936   4.363   3.924   1.843 -0.1507 -0.4029  0.4569
 3485SOL     OW13937   4.099   1.306   2.466 -0.1926 -0.6254  1.0207
 3485SOL    HW113938   4.070   1.388   2.427 -1.4050 -0.7751  1.5769
 3485SOL    HW213939   4.106   1.245   2.392 -1.1687 -0.5371  0.8419
 3485SOL     MW13940   4.096   1.308   2.451 -0.4727 -0.6332  1.0690
 3486SOL     OW13941   2.828   1.318   2.425  0.0354  0.1092  0.2840
 3486SOL    HW113942   2.759   1.265   2.465 -0.6942  0.7967 -0.0350
 3486SOL    HW213943   2.837   1.393   2.483  0.8449 -0.2008  0.5662
 3486SOL     MW13944   2.820   1.321   2.438  0.0456  0.1575  0.2793
 3487SOL     OW13945   2.608   4.817   3.245  0.2586  0.0016 -0.3857
 3487SOL    HW113946   2.647   4.863   3.319 -0.3264  0.2984 -0.2546
 3487SOL    HW213947   2.548   4.880   3.206 -0.1720 -0.4754 -0.5100
 3487SOL     MW13948   2.605   4.831   3.249  0.1286 -0.0215 -0.3848
 3488SOL     OW13949   0.365   4.186   2.360 -0.0744  0.5411 -0.4114
 3488SOL    HW113950   0.323   4.271   2.374 -1.4469 -0.0442 -0.8625
 3488SOL    HW213951   0.316   4.146   2.288  0.6090 -0.6027 -0.2650
 3488SOL     MW13952   0.353   4.192   2.352 -0.1626  0.3197 -0.4504
 3489SOL     OW13953   2.307   4.844   1.059 -0.4121 -0.0110  0.2085
 3489SOL    HW113954   2.240   4.910   1.076 -0.3937 -0.0429  0.4103
 3489SOL    HW213955   2.282   4.806   0.975  0.1161  0.9019 -0.3748
 3489SOL     MW13956   2.295   4.847   1.051 -0.3421  0.1018  0.1597
 3490SOL     OW13957   2.923   3.177   0.785 -0.1452  0.0264  0.4278
 3490SOL    HW113958   2.911   3.221   0.869 -1.2029  0.0831  0.2637
 3490SOL    HW213959   2.853   3.211   0.730 -0.7986 -1.6016  0.1925
 3490SOL     MW13960   2.912   3.187   0.788 -0.3643 -0.1748  0.3766
 3491SOL     OW13961   2.711   0.452   2.435  0.1601 -0.5062 -0.0628
 3491SOL    HW113962   2.731   0.445   2.342  1.0809 -1.6350  0.1921
 3491SOL    HW213963   2.728   0.544   2.456  0.0121 -0.2539 -0.9774
 3491SOL     MW13964   2.716   0.463   2.426  0.2590 -0.6184 -0.1472
 3492SOL     OW13965   1.563   0.177   2.693 -0.1847 -0.3467 -0.2421
 3492SOL    HW113966   1.476   0.152   2.723 -0.3897  0.0555 -0.4967
 3492SOL    HW213967   1.608   0.207   2.772 -0.2883 -0.5137 -0.1187
 3492SOL     MW13968   1.558   0.177   2.707 -0.2242 -0.3166 -0.2589
 3493SOL     OW13969   2.461   4.349   4.470  0.0107 -0.3883 -0.2702
 3493SOL    HW113970   2.529   4.413   4.447 -0.4750 -0.0334 -0.7444
 3493SOL    HW213971   2.416   4.389   4.545 -0.1873 -0.2426 -0.4638
 3493SOL     MW13972   2.464   4.363   4.477 -0.0769 -0.3242 -0.3557
 3494SOL     OW13973   3.785   3.495   4.878  0.3354 -0.4797 -0.0827
 3494SOL    HW113974   3.858   3.453   4.923  1.8231  0.7431 -1.2575
 3494SOL    HW213975   3.721   3.425   4.867  0.5065 -1.1601  2.5827
 3494SOL     MW13976   3.786   3.481   4.883  0.5477 -0.4103  0.1082
 3495SOL     OW13977   4.494   3.701   2.739 -0.0993  0.7836  0.4544
 3495SOL    HW113978   4.542   3.676   2.818 -0.1177  0.1276  0.2610
 3495SOL    HW213979   4.548   3.769   2.699  2.0066 -1.6097 -1.0676
 3495SOL     MW13980   4.507   3.706   2.744  0.1679  0.3932  0.2348
 3496SOL     OW13981   1.038   3.394   3.655  0.3198 -0.1396  0.0331
 3496SOL    HW113982   1.081   3.478   3.637  0.1648  0.1236  0.8562
 3496SOL    HW213983   0.974   3.384   3.584  0.7114  0.1787 -0.3656
 3496SOL     MW13984   1.035   3.403   3.644  0.3501 -0.0651  0.0874
 3497SOL     OW13985   0.410   4.840   0.332 -0.0389  0.5862 -0.1244
 3497SOL    HW113986   0.489   4.799   0.295  0.3974  1.0945  0.2259
 3497SOL    HW213987   0.408   4.811   0.423 -0.0664  0.8465 -0.0417
 3497SOL     MW13988   0.420   4.831   0.339  0.0134  0.6846 -0.0690
 3498SOL     OW13989   4.013   2.337   0.285  0.0602  0.1291 -0.7833
 3498SOL    HW113990   4.087   2.382   0.324  0.7144 -0.8023 -0.9180
 3498SOL    HW213991   3.987   2.392   0.212 -0.1521  1.0676 -0.0136
 3498SOL     MW13992   4.019   2.349   0.281  0.1168  0.1300 -0.7020
 3499SOL     OW13993   2.885   2.219   2.783  0.4531  0.7394 -0.0807
 3499SOL    HW113994   2.903   2.179   2.868 -1.2814  1.8481  0.8690
 3499SOL    HW213995   2.969   2.256   2.756  0.9541  0.7029  1.3310
 3499SOL     MW13996   2.898   2.219   2.791  0.2952  0.8767  0.2216
 3500SOL     OW13997   4.418   5.398   5.289 -0.4752  0.5094  0.2027
 3500SOL    HW113998   4.359   5.430   5.358 -1.0684  1.0028 -0.5144
 3500SOL    HW213999   4.366   5.334   5.241 -0.2345  0.5296 -0.0859
 3500SOL     MW14000   4.404   5.394   5.292 -0.5203  0.5752  0.0740
 3501SOL     OW14001   0.119   3.563   1.668  0.3918  0.2067 -0.0002
 3501SOL    HW114002   0.126   3.657   1.683  1.9920 -0.1285  1.5893
 3501SOL    HW214003   0.202   3.538   1.628  1.5317 -1.0324  2.8597
 3501SOL     MW14004   0.130   3.572   1.665  0.7426  0.0052  0.5694
 3502SOL     OW14005   2.345   2.320   3.528 -0.0785  0.0439  0.2203
 3502SOL    HW114006   2.375   2.243   3.578 -0.1846 -1.4312 -1.8551
 3502SOL    HW214007   2.261   2.342   3.567  0.2756 -0.4324  1.3092
 3502SOL     MW14008   2.338   2.313   3.539 -0.0467 -0.2059  0.0940
 3503SOL     OW14009   4.010   2.396   2.160 -0.0226  0.4917 -0.1450
 3503SOL    HW114010   4.033   2.442   2.080 -0.0822 -1.4172 -1.3373
 3503SOL    HW214011   4.064   2.317   2.159 -1.0758 -0.2873  0.9465
 3503SOL     MW14012   4.020   2.391   2.150 -0.1651  0.1476 -0.1579
 3504SOL     OW14013   0.528   5.228   1.216  0.3039  0.0231  0.0336
 3504SOL    HW114014   0.501   5.137   1.230 -1.1382  0.3049 -0.6556
 3504SOL    HW214015   0.514   5.242   1.122  1.0818  0.7946  0.0202
 3504SOL     MW14016   0.523   5.218   1.206  0.2189  0.1579 -0.0564
 3505SOL     OW14017   4.979   3.739   2.691 -0.5575  0.5568 -0.3071
 3505SOL    HW114018   4.963   3.695   2.608 -0.1656 -0.1744 -0.0128
 3505SOL    HW214019   5.073   3.758   2.690  0.2036 -2.4563  1.3110
 3505SOL     MW14020   4.989   3.736   2.680 -0.4099  0.0775 -0.0623
 3506SOL     OW14021   4.573   5.067   3.007 -0.2209 -0.2953  0.1673
 3506SOL    HW114022   4.538   5.015   2.935  0.5147 -0.5170 -0.0405
 3506SOL    HW214023   4.562   5.011   3.084  2.0126 -1.5084 -0.2761
 3506SOL     MW14024   4.567   5.053   3.008  0.1592 -0.4789  0.0839
 3507SOL     OW14025   4.121   4.481   0.257  0.3731 -0.2216  0.0601
 3507SOL    HW114026   4.107   4.474   0.351  0.4068  0.8132  0.1575
 3507SOL    HW214027   4.210   4.516   0.248  0.9647 -1.7586 -0.4101
 3507SOL     MW14028   4.131   4.485   0.268  0.4532 -0.2859  0.0124
 3508SOL     OW14029   4.602   3.413   4.013 -0.0249 -0.1231  0.2126
 3508SOL    HW114030   4.661   3.339   4.028 -0.2303 -0.3813 -0.2346
 3508SOL    HW214031   4.594   3.455   4.099  0.6585 -0.1984  0.3155
 3508SOL     MW14032   4.608   3.409   4.026  0.0363 -0.1658  0.1685
 3509SOL     OW14033   4.575   4.058   3.993  0.4421 -0.1001  0.2210
 3509SOL    HW114034   4.549   3.967   4.006  0.1001 -0.2937 -1.5366
 3509SOL    HW214035   4.648   4.054   3.931  0.7744  0.7938  0.5346
 3509SOL     MW14036   4.581   4.046   3.986  0.4409 -0.0105  0.0361
 3510SOL     OW14037   0.313   3.257   1.453 -0.3813 -0.1168  0.1237
 3510SOL    HW114038   0.359   3.224   1.376 -2.4655 -2.2153 -0.3300
 3510SOL    HW214039   0.223   3.270   1.424 -0.8447  0.7155  1.8053
 3510SOL     MW14040   0.308   3.255   1.440 -0.7074 -0.2789  0.2809
 3511SOL     OW14041   2.723   5.360   1.185 -0.1809 -0.3325  0.5067
 3511SOL    HW114042   2.689   5.363   1.275  0.3851  0.6355  0.6988
 3511SOL    HW214043   2.647   5.379   1.130 -0.3646 -0.1448  0.8241
 3511SOL     MW14044   2.709   5.363   1.189 -0.1320 -0.1846  0.5719
 3512SOL     OW14045   3.044   3.728   4.094 -0.0136  0.2023 -0.1120
 3512SOL    HW114046   2.975   3.717   4.159 -0.3545  1.3735 -0.2596
 3512SOL    HW214047   3.103   3.793   4.132  0.7650 -0.4341 -0.1970
 3512SOL     MW14048   3.043   3.735   4.107  0.0424  0.2707 -0.1418
 3513SOL     OW14049   4.602   5.200   3.876  0.5351 -0.0848 -0.5347
 3513SOL    HW114050   4.584   5.267   3.811  1.8541  0.3303 -0.5105
 3513SOL    HW214051   4.616   5.248   3.958 -1.3742 -0.6190  0.1593
 3513SOL     MW14052   4.602   5.215   3.878  0.4595 -0.1001 -0.4428
 3514SOL     OW14053   1.412   4.069   0.143 -0.7712 -0.1210  0.3065
 3514SOL    HW114054   1.466   4.029   0.074 -0.4705 -0.1267  0.5443
 3514SOL    HW214055   1.459   4.148   0.167 -1.8269  0.8865 -0.8059
 3514SOL     MW14056   1.425   4.074   0.137 -0.8678  0.0073  0.1945
 3515SOL     OW14057   0.565   2.906   0.716  0.2760  0.3840  0.7552
 3515SOL    HW114058   0.582   2.990   0.759 -0.3970  0.4449  0.9123
 3515SOL    HW214059   0.651   2.877   0.685  0.3768  1.5999 -0.1731
 3515SOL     MW14060   0.578   2.913   0.718  0.2028  0.5474  0.6565
 3516SOL     OW14061   3.782   1.975   0.709  0.3772  0.4091  0.1175
 3516SOL    HW114062   3.736   1.981   0.625 -0.1050 -0.8117  0.2788
 3516SOL    HW214063   3.870   1.944   0.686 -0.2695 -1.6102  0.1736
 3516SOL     MW14064   3.787   1.972   0.695  0.2327 -0.0057  0.1454
 3517SOL     OW14065   3.678   4.114   2.322  0.2254  0.1169  0.0197
 3517SOL    HW114066   3.596   4.107   2.372  0.4788  1.1902  0.6220
 3517SOL    HW214067   3.747   4.096   2.386  0.4714 -0.6974 -0.4678
 3517SOL     MW14068   3.676   4.111   2.337  0.2893  0.1500  0.0344
 3518SOL     OW14069   1.310   5.104   4.300 -0.0876  0.1248 -0.0620
 3518SOL    HW114070   1.351   5.101   4.213  0.3263  0.5600  0.1161
 3518SOL    HW214071   1.366   5.162   4.351  0.6899 -1.5061  1.0335
 3518SOL     MW14072   1.323   5.111   4.295  0.0649 -0.0283  0.1010
 3519SOL     OW14073   1.927   1.523   1.047  0.7304 -0.5466  0.2956
 3519SOL    HW114074   1.999   1.506   0.985  0.1141  0.9707 -0.9115
 3519SOL    HW214075   1.971   1.547   1.129  1.5698 -1.8809  0.2594
 3519SOL     MW14076   1.942   1.524   1.049  0.7590 -0.5232  0.1364
 3520SOL     OW14077   3.766   0.811   2.010  0.1079  0.2983  0.5504
 3520SOL    HW114078   3.827   0.761   2.065 -0.6127 -0.4263  0.7154
 3520SOL    HW214079   3.794   0.902   2.020  1.9993 -0.1096 -0.4216
 3520SOL     MW14080   3.778   0.816   2.018  0.2578  0.1533  0.4471
 3521SOL     OW14081   2.807   0.678   1.895 -0.4363 -0.0892  0.0232
 3521SOL    HW114082   2.778   0.645   1.810 -1.1628 -0.5521  0.4439
 3521SOL    HW214083   2.727   0.710   1.937 -0.3080 -1.1045  1.0816
 3521SOL     MW14084   2.793   0.678   1.890 -0.5129 -0.2784  0.2126
 3522SOL     OW14085   0.018   2.861   1.300  0.1669  0.3527  0.3399
 3522SOL    HW114086   0.094   2.817   1.339  0.9018  0.0820 -1.3252
 3522SOL    HW214087  -0.042   2.790   1.278 -0.3834  0.5300  1.2297
 3522SOL     MW14088   0.020   2.846   1.302  0.1905  0.3408  0.2407
 3523SOL     OW14089   3.107   3.628   0.916  0.0080  0.2732 -0.5460
 3523SOL    HW114090   3.172   3.659   0.978  0.3202  1.6393 -1.5089
 3523SOL    HW214091   3.133   3.538   0.895 -0.0230 -0.1627  1.1391
 3523SOL     MW14092   3.118   3.620   0.921  0.0440  0.3923 -0.4535
 3524SOL     OW14093   0.559   1.406   5.424 -0.4687 -0.1921 -0.3387
 3524SOL    HW114094   0.557   1.315   5.394 -0.1669  0.2819 -1.9017
 3524SOL    HW214095   0.473   1.441   5.400 -1.1148 -0.4142  1.5180
 3524SOL     MW14096   0.547   1.399   5.417 -0.5128 -0.1599 -0.3011
 3525SOL     OW14097   0.735   0.392   3.320 -0.8498 -0.2530  0.2814
 3525SOL    HW114098   0.660   0.383   3.379  0.7137 -0.9972  2.2459
 3525SOL    HW214099   0.799   0.329   3.352  0.6766  0.3916 -1.3210
 3525SOL     MW14100   0.733   0.383   3.331 -0.4543 -0.2657  0.3278
 3526SOL     OW14101   4.310   0.697   1.202 -0.2464  0.1262 -0.1119
 3526SOL    HW114102   4.358   0.667   1.279 -1.9402 -2.2338  0.1386
 3526SOL    HW214103   4.262   0.774   1.231 -0.8615 -0.7259  1.2506
 3526SOL     MW14104   4.310   0.703   1.215 -0.5419 -0.2850  0.0946
 3527SOL     OW14105   5.108   5.265   1.338  0.2367 -0.0336  0.1400
 3527SOL    HW114106   5.088   5.189   1.284  1.7524 -0.6000  0.3105
 3527SOL    HW214107   5.023   5.296   1.369 -0.3464 -2.5985  1.3568
 3527SOL     MW14108   5.095   5.259   1.335  0.3561 -0.4344  0.3176
 3528SOL     OW14109   4.468   4.867   0.510  0.3969 -0.3660  0.0146
 3528SOL    HW114110   4.498   4.955   0.485  0.2204 -0.2509  0.1964
 3528SOL    HW214111   4.372   4.876   0.513  0.4455  0.0065  2.0853
 3528SOL     MW14112   4.459   4.880   0.507  0.3805 -0.3036  0.3030
 3529SOL     OW14113   1.802   1.601   2.882  0.3441  0.0334  0.1046
 3529SOL    HW114114   1.742   1.674   2.866  1.0338  0.5333 -0.2292
 3529SOL    HW214115   1.750   1.540   2.935 -0.7241  0.0861 -0.8300
 3529SOL     MW14116   1.787   1.603   2.887  0.2957  0.1042 -0.0578
 3530SOL     OW14117   0.681   0.951   2.539 -0.4024  0.6400 -0.4841
 3530SOL    HW114118   0.697   0.987   2.626 -0.5167  2.0061 -1.0090
 3530SOL    HW214119   0.673   1.027   2.482 -0.3199 -0.2318 -1.7042
 3530SOL     MW14120   0.682   0.965   2.543 -0.4065  0.7033 -0.7075
 3531SOL     OW14121   4.324   0.227   1.487  0.1339  0.4021  0.0807
 3531SOL    HW114122   4.412   0.240   1.451  0.0769  1.1697  0.1940
 3531SOL    HW214123   4.269   0.210   1.411  0.2463  0.7177 -0.0750
 3531SOL     MW14124   4.328   0.227   1.473  0.1410  0.5408  0.0752
 3532SOL     OW14125   0.056   0.087   2.876  0.3077  0.0328  0.5897
 3532SOL    HW114126   0.147   0.089   2.849  0.4323 -0.6536  0.9287
 3532SOL    HW214127   0.059   0.081   2.972 -0.0995  0.6869  0.6471
 3532SOL     MW14128   0.068   0.086   2.885  0.2716  0.0287  0.6404
 3533SOL     OW14129   4.594   3.102   1.034 -0.4067  0.4343  0.0450
 3533SOL    HW114130   4.627   3.089   0.945 -0.0834  2.1037 -0.1261
 3533SOL    HW214131   4.504   3.070   1.031  0.2958 -1.6452 -0.2359
 3533SOL     MW14132   4.587   3.096   1.022 -0.2754  0.3818 -0.0129
 3534SOL     OW14133   2.769   3.161   0.164 -0.1405 -0.0947  0.1384
 3534SOL    HW114134   2.825   3.163   0.241  1.0900  0.8095 -0.7384
 3534SOL    HW214135   2.682   3.142   0.198  0.2815  0.7520  1.7955
 3534SOL     MW14136   2.765   3.158   0.178  0.0710  0.1294  0.2383
 3535SOL     OW14137   3.758   5.110   4.120 -0.1542 -0.4114  0.1551
 3535SOL    HW114138   3.836   5.112   4.175  0.7493  0.4170 -1.0973
 3535SOL    HW214139   3.691   5.157   4.170  0.4055 -0.3416  0.8563
 3535SOL     MW14140   3.759   5.116   4.133  0.0331 -0.2965  0.0845
 3536SOL     OW14141   3.799   2.365   5.256 -0.0811  0.1563  0.0539
 3536SOL    HW114142   3.815   2.303   5.327 -2.0202 -0.0090  0.3853
 3536SOL    HW214143   3.863   2.341   5.189  0.4101 -1.0189  0.9008
 3536SOL     MW14144   3.809   2.354   5.256 -0.2664 -0.0153  0.2048
 3537SOL     OW14145   0.230   4.684   5.332  0.6771 -0.0885  0.1125
 3537SOL    HW114146   0.245   4.591   5.318 -1.6204 -0.4853 -0.0848
 3537SOL    HW214147   0.215   4.692   5.427  1.2673  0.1517  0.1881
 3537SOL     MW14148   0.230   4.673   5.343  0.4586 -0.1085  0.0969
 3538SOL     OW14149   0.420   2.262   5.101 -0.4445 -0.1012 -0.1031
 3538SOL    HW114150   0.339   2.212   5.086 -0.7094  0.0308  0.7972
 3538SOL    HW214151   0.482   2.197   5.134 -1.3144  0.3754  2.8022
 3538SOL     MW14152   0.417   2.247   5.103 -0.5898 -0.0233  0.3841
 3539SOL     OW14153   5.373   4.544   3.558  0.2900  0.3118  0.7086
 3539SOL    HW114154   5.290   4.570   3.597 -0.9338 -1.8148 -0.2724
 3539SOL    HW214155   5.394   4.460   3.599  1.1204  0.0531 -0.1915
 3539SOL     MW14156   5.365   4.537   3.568  0.2397  0.0064  0.4678
 3540SOL     OW14157   1.333   0.477   1.010  1.3549  0.1040  0.2402
 3540SOL    HW114158   1.296   0.468   1.097  2.1242  1.2725  0.7178
 3540SOL    HW214159   1.423   0.508   1.025  1.5626  0.1297 -0.9527
 3540SOL     MW14160   1.340   0.480   1.023  1.4799  0.2569  0.1486
 3541SOL     OW14161   4.836   1.128   2.481  0.3407 -0.3084 -0.0089
 3541SOL    HW114162   4.774   1.199   2.500 -0.5012 -0.8926 -0.5275
 3541SOL    HW214163   4.865   1.146   2.392  1.5220  0.3817  0.4788
 3541SOL     MW14164   4.832   1.140   2.472  0.3841 -0.2948 -0.0129
 3542SOL     OW14165   0.100   3.956   2.799  0.1331  0.1804 -0.0958
 3542SOL    HW114166   0.082   4.011   2.875  0.3211  0.8662 -0.5394
 3542SOL    HW214167   0.187   3.984   2.770  0.4281 -0.6698 -0.0525
 3542SOL     MW14168   0.109   3.966   2.805  0.1950  0.1593 -0.1471
 3543SOL     OW14169   2.736   0.339   1.337  0.7682 -0.3710 -0.0709
 3543SOL    HW114170   2.761   0.420   1.293  1.7711 -0.0206  1.0904
 3543SOL    HW214171   2.645   0.353   1.364  0.9807  0.4553  0.2626
 3543SOL     MW14172   2.727   0.351   1.335  0.9238 -0.2203  0.1204
 3544SOL     OW14173   2.531   4.138   3.654  0.2403  0.1199  0.6292
 3544SOL    HW114174   2.471   4.192   3.602  0.1112 -1.3184 -0.7935
 3544SOL    HW214175   2.616   4.181   3.645 -0.2892  1.5187  1.7092
 3544SOL     MW14176   2.534   4.151   3.646  0.1560  0.1149  0.5853
 3545SOL     OW14177   5.156   3.947   2.144 -0.1928 -0.2573 -0.6857
 3545SOL    HW114178   5.205   3.876   2.184 -0.2980  0.5972  1.0788
 3545SOL    HW214179   5.064   3.926   2.161 -0.2368  0.1532 -0.3931
 3545SOL     MW14180   5.151   3.935   2.152 -0.2119 -0.0953 -0.4223
 3546SOL     OW14181   3.696   2.417   4.636 -0.2827  0.2390 -0.1053
 3546SOL    HW114182   3.645   2.472   4.696 -0.7106  1.3326 -1.4238
 3546SOL    HW214183   3.684   2.458   4.550  1.2589 -0.6054 -0.7604
 3546SOL     MW14184   3.688   2.430   4.633 -0.1402  0.2709 -0.3580
 3547SOL     OW14185   0.323   4.195   1.891  0.2744  0.1541 -0.0166
 3547SOL    HW114186   0.269   4.253   1.945  0.6923  1.6802 -1.1779
 3547SOL    HW214187   0.412   4.211   1.920  0.4328  0.4358 -0.6349
 3547SOL     MW14188   0.327   4.205   1.902  0.3481  0.3855 -0.2444
 3548SOL     OW14189   5.267   1.552   0.049 -0.8965 -0.2370  0.2106
 3548SOL    HW114190   5.326   1.522   0.118 -0.7120  1.2427  0.7416
 3548SOL    HW214191   5.180   1.524   0.077 -0.7960  0.1666  0.9348
 3548SOL     MW14192   5.263   1.545   0.061 -0.8600  0.0041  0.3713
 3549SOL     OW14193   3.367   5.132   4.485 -0.1661 -0.6178 -0.1286
 3549SOL    HW114194   3.420   5.142   4.405  1.0652  1.0288  0.8349
 3549SOL    HW214195   3.298   5.071   4.459  1.4780 -1.9276 -1.7994
 3549SOL     MW14196   3.365   5.126   4.471  0.2020 -0.5747 -0.2191
 3550SOL     OW14197   1.067   5.474   0.564 -0.0875  0.0317 -0.7561
 3550SOL    HW114198   1.051   5.544   0.627  2.3134 -1.0427  1.2251
 3550SOL    HW214199   1.010   5.402   0.592  1.0267 -0.4681  0.3014
 3550SOL     MW14200   1.058   5.473   0.575  0.3624 -0.1698 -0.3671
 3551SOL     OW14201   1.462   1.167   0.778  0.1147 -0.1431  0.0338
 3551SOL    HW114202   1.376   1.194   0.809  0.4351  1.0405 -0.0232
 3551SOL    HW214203   1.447   1.134   0.690 -0.4468 -1.1183  0.4856
 3551SOL     MW14204   1.449   1.167   0.771  0.0838 -0.1164  0.0843
 3552SOL     OW14205   3.201   3.386   0.217 -0.2088  0.4471  0.2470
 3552SOL    HW114206   3.116   3.426   0.238 -1.8655 -2.1647 -0.9352
 3552SOL    HW214207   3.224   3.336   0.295 -0.4292  0.0993  0.0895
 3552SOL     MW14208   3.193   3.385   0.230 -0.4491  0.0682  0.0755
 3553SOL     OW14209   2.903   0.925   5.340 -0.7733 -0.2440 -0.2163
 3553SOL    HW114210   2.842   0.942   5.412 -0.2743 -1.0241  0.4071
 3553SOL    HW214211   2.927   1.012   5.308 -2.1155  0.0892 -0.4077
 3553SOL     MW14212   2.898   0.938   5.345 -0.8812 -0.3012 -0.1610
 3554SOL     OW14213   2.854   2.457   0.496  0.1365 -0.2623  0.4574
 3554SOL    HW114214   2.910   2.508   0.555  1.3554 -0.8982 -0.1084
 3554SOL    HW214215   2.868   2.366   0.522  1.6521 -0.6752 -1.5054
 3554SOL     MW14216   2.863   2.452   0.507  0.4865 -0.3966  0.1337
 3555SOL     OW14217   0.957   2.535   2.069  0.0276 -0.4025  0.1411
 3555SOL    HW114218   0.935   2.516   1.978 -1.4311 -0.8994  0.5606
 3555SOL    HW214219   0.901   2.609   2.093  0.4091 -0.2620  0.6302
 3555SOL     MW14220   0.947   2.542   2.061 -0.1103 -0.4481  0.2574
 3556SOL     OW14221   1.179   2.751   0.011 -0.1369 -0.6051  0.2224
 3556SOL    HW114222   1.124   2.678   0.042  0.9246 -1.3002  0.5420
 3556SOL    HW214223   1.172   2.816   0.080 -2.0966  0.1861 -0.6292
 3556SOL     MW14224   1.171   2.750   0.024 -0.2519 -0.5928  0.1543
 3557SOL     OW14225   3.159   1.739   2.260 -0.6474 -0.0853  0.1120
 3557SOL    HW114226   3.174   1.656   2.307 -0.5777 -1.2280 -1.8234
 3557SOL    HW214227   3.246   1.779   2.255 -1.0507  1.5942  3.4792
 3557SOL     MW14228   3.172   1.733   2.266 -0.6901 -0.0166  0.2953
 3558SOL     OW14229   2.950   2.890   5.097 -0.6606 -0.3383 -0.0209
 3558SOL    HW114230   2.863   2.897   5.058 -0.6401  0.6788  0.0889
 3558SOL    HW214231   2.950   2.955   5.168  1.0614  1.6687 -1.7129
 3558SOL     MW14232   2.939   2.899   5.101 -0.4375  0.0488 -0.2234
 3559SOL     OW14233   1.962   4.833   4.046  0.1173 -0.1263 -0.0496
 3559SOL    HW114234   1.951   4.833   4.141  1.4726  1.5660  0.1546
 3559SOL    HW214235   1.874   4.850   4.012 -0.2278  0.1293  0.9301
 3559SOL     MW14236   1.949   4.835   4.054  0.2466  0.1230  0.1019
 3560SOL     OW14237   1.973   1.449   3.100 -0.2753  0.0901  0.5592
 3560SOL    HW114238   1.902   1.406   3.052 -1.1627  1.5239  0.5164
 3560SOL    HW214239   2.049   1.442   3.043 -0.6341 -0.6197  0.1666
 3560SOL     MW14240   1.973   1.443   3.087 -0.4348  0.1828  0.5035
 3561SOL     OW14241   3.280   1.354   2.984 -0.3552  0.3134 -0.2728
 3561SOL    HW114242   3.302   1.339   2.892 -1.6768 -1.0046 -0.4200
 3561SOL    HW214243   3.316   1.278   3.030 -1.6148 -0.1691 -0.0473
 3561SOL     MW14244   3.287   1.342   2.978 -0.6856  0.0829 -0.2628
 3562SOL     OW14245   2.750   4.433   2.036 -0.4059 -0.0338 -0.1962
 3562SOL    HW114246   2.801   4.504   1.997  2.0757 -1.5879 -0.0222
 3562SOL    HW214247   2.749   4.365   1.968 -0.3921 -0.8303  0.5873
 3562SOL     MW14248   2.757   4.433   2.022 -0.0864 -0.3347 -0.0737
 3563SOL     OW14249   0.826   5.346   0.098  0.3728  0.4446 -0.1738
 3563SOL    HW114250   0.770   5.292   0.154  0.8702  0.0195 -0.0774
 3563SOL    HW214251   0.773   5.362   0.020  0.6805 -1.2809 -0.7801
 3563SOL     MW14252   0.812   5.341   0.095  0.4759  0.1693 -0.2390
 3564SOL     OW14253   0.672   2.126   5.314  0.4088 -0.1753 -0.4551
 3564SOL    HW114254   0.686   2.212   5.353  0.7298 -1.3818  2.3422
 3564SOL    HW214255   0.579   2.108   5.328  0.3391 -0.2985 -1.0341
 3564SOL     MW14256   0.662   2.134   5.321  0.4410 -0.3455 -0.1711
 3565SOL     OW14257   3.093   2.975   2.954 -0.0197  0.5964  0.2099
 3565SOL    HW114258   3.116   2.896   2.907  1.7278  1.8040 -1.0938
 3565SOL    HW214259   3.042   2.945   3.029 -0.3920 -1.6298 -0.8635
 3565SOL     MW14260   3.089   2.961   2.958  0.1564  0.4660 -0.0944
 3566SOL     OW14261   1.427   2.126   2.281  0.4395 -0.2665  0.1515
 3566SOL    HW114262   1.438   2.216   2.249 -1.4233  0.2496  0.7699
 3566SOL    HW214263   1.333   2.110   2.273  0.6655 -1.9823  0.5503
 3566SOL     MW14264   1.416   2.136   2.276  0.2300 -0.4201  0.2817
 3567SOL     OW14265   0.673   5.173   0.245 -0.2249 -0.0990 -0.7372
 3567SOL    HW114266   0.600   5.169   0.307 -0.2047 -0.3596 -0.7328
 3567SOL    HW214267   0.744   5.126   0.288 -0.0979  0.0279 -0.8066
 3567SOL     MW14268   0.673   5.167   0.259 -0.2060 -0.1161 -0.7455
 3568SOL     OW14269   3.501   0.647   1.703 -0.7129  0.0638  0.9801
 3568SOL    HW114270   3.562   0.599   1.758 -1.4409 -0.6759  1.1608
 3568SOL    HW214271   3.496   0.734   1.742  0.7081  0.3425  0.5789
 3568SOL     MW14272   3.508   0.652   1.715 -0.6242  0.0048  0.9519
 3569SOL     OW14273   2.145   1.918   2.659 -0.2061 -0.5011  0.4956
 3569SOL    HW114274   2.115   1.904   2.748  1.4262 -1.2207  0.9681
 3569SOL    HW214275   2.185   2.006   2.661 -2.2024  0.4859 -0.1481
 3569SOL     MW14276   2.146   1.928   2.670 -0.2527 -0.4668  0.4737
 3570SOL     OW14277   2.174   3.320   4.857 -0.3220 -0.4157 -0.1000
 3570SOL    HW114278   2.162   3.284   4.769  0.7125  1.7583 -1.1810
 3570SOL    HW214279   2.088   3.355   4.880 -0.8024 -1.6808  0.1186
 3570SOL     MW14280   2.161   3.320   4.849 -0.2511 -0.2994 -0.2104
 3571SOL     OW14281   4.749   4.136   3.762  0.1050  0.1695  0.0638
 3571SOL    HW114282   4.682   4.128   3.693  0.0180 -0.0088  0.1690
 3571SOL    HW214283   4.744   4.228   3.788 -0.5507  0.0158  0.5196
 3571SOL     MW14284   4.740   4.147   3.756  0.0100  0.1270  0.1356
 3572SOL     OW14285   0.601   2.579   1.792 -0.3768  0.2042 -0.1631
 3572SOL    HW114286   0.557   2.494   1.797 -0.5172  0.3178  1.0228
 3572SOL    HW214287   0.554   2.627   1.724 -0.4347 -0.5872 -0.6917
 3572SOL     MW14288   0.589   2.574   1.784 -0.4022  0.1175 -0.0790
 3573SOL     OW14289   0.337   5.108   4.431 -0.3294  0.1408 -0.1722
 3573SOL    HW114290   0.265   5.155   4.473 -0.0292  0.1644  0.3277
 3573SOL    HW214291   0.414   5.163   4.446 -0.0710 -0.2513 -0.0404
 3573SOL     MW14292   0.338   5.121   4.438 -0.2579  0.0936 -0.0913
 3574SOL     OW14293   3.276   3.310   0.478  0.0299  0.0477  0.4386
 3574SOL    HW114294   3.364   3.347   0.472 -0.3916  1.6130  2.5620
 3574SOL    HW214295   3.288   3.228   0.526  0.2702  0.8426  1.8165
 3574SOL     MW14296   3.289   3.304   0.484  0.0067  0.3499  0.8868
 3575SOL     OW14297   4.379   3.182   0.041  0.0056 -0.1622  0.0119
 3575SOL    HW114298   4.318   3.117   0.006 -1.4248  1.3037 -0.3799
 3575SOL    HW214299   4.333   3.219   0.117  1.1175 -0.1319  0.6896
 3575SOL     MW14300   4.365   3.179   0.046 -0.0352  0.0293  0.0485
 3576SOL     OW14301   3.039   3.528   1.273  0.3663  0.0826  0.1144
 3576SOL    HW114302   3.077   3.482   1.198  1.0856  1.0261 -0.1226
 3576SOL    HW214303   3.017   3.615   1.239 -0.1181  0.2264  0.7818
 3576SOL     MW14304   3.041   3.533   1.259  0.3964  0.2218  0.1695
 3577SOL     OW14305   3.261   4.969   0.642 -0.3588 -0.5573  0.1396
 3577SOL    HW114306   3.226   4.941   0.727 -0.8483 -0.0812  0.1023
 3577SOL    HW214307   3.356   4.968   0.654 -0.4205 -0.5609  0.6705
 3577SOL     MW14308   3.269   4.965   0.654 -0.4294 -0.4968  0.2028
 3578SOL     OW14309   4.851   0.856   4.762 -0.0521 -0.2695 -0.1494
 3578SOL    HW114310   4.855   0.944   4.723 -0.2738 -0.5322 -0.7714
 3578SOL    HW214311   4.811   0.870   4.848  1.1310  0.4183  0.3013
 3578SOL     MW14312   4.846   0.869   4.768  0.0710 -0.2151 -0.1713
 3579SOL     OW14313   1.190   4.525   0.930  0.0499 -0.1158 -0.3274
 3579SOL    HW114314   1.153   4.437   0.917  1.5997 -1.3455  2.5157
 3579SOL    HW214315   1.115   4.580   0.949 -0.8292 -1.1973 -0.5450
 3579SOL     MW14316   1.176   4.521   0.931  0.1358 -0.4117  0.0087
 3580SOL     OW14317   0.086   3.056   0.602 -0.0288  0.1265 -0.4577
 3580SOL    HW114318   0.045   3.048   0.516  0.3672  0.0548 -0.6388
 3580SOL    HW214319   0.045   3.133   0.642 -0.8116 -0.3188 -0.3833
 3580SOL     MW14320   0.075   3.065   0.596 -0.0783  0.0603 -0.4714
 3581SOL     OW14321   4.013   3.472   1.077 -0.3993  0.4269 -0.4641
 3581SOL    HW114322   3.925   3.498   1.105 -0.5126  0.0573 -0.4684
 3581SOL    HW214323   4.035   3.400   1.136  0.3976  1.3018  0.3500
 3581SOL     MW14324   4.004   3.466   1.088 -0.3118  0.4916 -0.3605
 3582SOL     OW14325   4.459   5.490   0.167  0.5694  0.7412  0.1533
 3582SOL    HW114326   4.520   5.427   0.128  0.0564  0.1610  0.2765
 3582SOL    HW214327   4.385   5.492   0.107  0.6517  1.3442  0.0727
 3582SOL     MW14328   4.458   5.482   0.155  0.5142  0.7441  0.1588
 3583SOL     OW14329   4.964   1.002   5.096 -0.2909 -0.5841  0.5076
 3583SOL    HW114330   4.956   1.087   5.052 -0.3561 -0.8892 -0.0699
 3583SOL    HW214331   5.054   0.974   5.077 -0.5821 -1.0966 -0.1214
 3583SOL     MW14332   4.975   1.010   5.088 -0.3365 -0.6888  0.3531
 3584SOL     OW14333   2.011   1.160   1.533 -0.1060  0.0598 -0.0351
 3584SOL    HW114334   2.008   1.226   1.602  1.3378 -0.2493  0.3681
 3584SOL    HW214335   1.920   1.142   1.512 -0.6185 -0.2713  2.2312
 3584SOL     MW14336   1.999   1.166   1.539  0.0132 -0.0221  0.3066
 3585SOL     OW14337   1.008   3.557   2.199  0.3213 -0.0143 -0.0691
 3585SOL    HW114338   1.006   3.497   2.273  2.2068 -0.5837 -0.4052
 3585SOL    HW214339   1.010   3.644   2.239  1.8584 -0.3265  0.6155
 3585SOL     MW14340   1.008   3.561   2.213  0.7594 -0.1272 -0.0245
 3586SOL     OW14341   1.663   2.013   0.600  0.0863  0.0538 -0.6649
 3586SOL    HW114342   1.582   1.963   0.593  0.0948 -0.0105 -0.3158
 3586SOL    HW214343   1.723   1.955   0.646 -0.6631  1.2685  2.0736
 3586SOL     MW14344   1.660   1.999   0.605 -0.0086  0.2011 -0.2697
 3587SOL     OW14345   2.820   1.651   1.347  0.5521  0.5022 -0.2328
 3587SOL    HW114346   2.760   1.577   1.346  3.4587 -2.0383 -0.3011
 3587SOL    HW214347   2.786   1.712   1.281 -1.4825 -1.1286 -0.7659
 3587SOL     MW14348   2.808   1.650   1.339  0.6637 -0.0318 -0.3098
 3588SOL     OW14349   1.671   3.087   1.535 -0.3640  0.1774  0.1858
 3588SOL    HW114350   1.760   3.052   1.533 -0.2683  0.3421 -2.1352
 3588SOL    HW214351   1.682   3.179   1.558  0.2208  0.4453 -1.0614
 3588SOL     MW14352   1.683   3.094   1.537 -0.2769  0.2328 -0.2710
 3589SOL     OW14353   3.019   1.938   0.811 -0.2098  0.3675  0.3364
 3589SOL    HW114354   3.112   1.961   0.813  0.2543 -1.3756  1.2090
 3589SOL    HW214355   2.973   2.019   0.829  1.2424  0.8456  2.1955
 3589SOL     MW14356   3.025   1.951   0.813  0.0355  0.2055  0.6861
 3590SOL     OW14357   5.393   2.722   2.458  0.5185 -0.1575  0.4170
 3590SOL    HW114358   5.374   2.668   2.381  0.5769  0.4943 -0.0577
 3590SOL    HW214359   5.378   2.812   2.430  0.8042  0.1110  1.0871
 3590SOL     MW14360   5.389   2.726   2.445  0.5625 -0.0397  0.4420
 3591SOL     OW14361   5.243   0.452   4.560  0.3087  0.1659 -0.0035
 3591SOL    HW114362   5.148   0.447   4.556  0.3335 -0.0852 -0.3405
 3591SOL    HW214363   5.268   0.390   4.628  0.3345 -1.0707 -1.1092
 3591SOL     MW14364   5.234   0.444   4.568  0.3152 -0.0245 -0.1882
 3592SOL     OW14365   3.067   0.164   3.345  0.2073 -0.1771 -0.4393
 3592SOL    HW114366   3.148   0.208   3.320  0.1102  0.2134 -0.0647
 3592SOL    HW214367   3.026   0.140   3.261  0.0144  0.8948 -0.6586
 3592SOL     MW14368   3.072   0.166   3.331  0.1702  0.0101 -0.4194
 3593SOL     OW14369   5.026   0.275   1.872 -0.8057 -0.0064  0.6386
 3593SOL    HW114370   4.952   0.331   1.894 -0.1877  0.7847  0.7330
 3593SOL    HW214371   5.102   0.333   1.873 -0.4890 -0.2687 -1.8608
 3593SOL     MW14372   5.026   0.289   1.875 -0.6861  0.0613  0.3307
 3594SOL     OW14373   2.289   1.421   1.390  0.2974  0.1057 -0.6348
 3594SOL    HW114374   2.372   1.467   1.379  1.1138 -1.6075 -2.4025
 3594SOL    HW214375   2.305   1.359   1.460  0.4813 -0.1373 -0.8895
 3594SOL     MW14376   2.302   1.419   1.397  0.4254 -0.1447 -0.8937
 3595SOL     OW14377   3.561   1.684   2.382  0.3074  0.4443  0.5851
 3595SOL    HW114378   3.500   1.640   2.442 -1.0689 -1.3282 -1.9524
 3595SOL    HW214379   3.621   1.615   2.354  1.0018  1.2738  0.0092
 3595SOL     MW14380   3.561   1.670   2.386  0.2201  0.3236  0.1865
 3596SOL     OW14381   1.528   2.656   1.753  0.2065 -0.0780  0.4663
 3596SOL    HW114382   1.498   2.739   1.716 -0.4603 -1.2477 -1.8414
 3596SOL    HW214383   1.619   2.673   1.779  0.4734  1.1019 -1.0474
 3596SOL     MW14384   1.536   2.669   1.752  0.1553 -0.0767 -0.0229
 3597SOL     OW14385   1.323   2.852   2.845 -0.5398 -0.7066 -0.4843
 3597SOL    HW114386   1.263   2.780   2.826 -0.8121 -0.8381  0.8059
 3597SOL    HW214387   1.297   2.921   2.785 -2.2053 -0.6504  0.2435
 3597SOL     MW14388   1.312   2.852   2.835 -0.7879 -0.7162 -0.2259
 3598SOL     OW14389   5.125   2.194   1.978 -0.3413  0.1808  0.3457
 3598SOL    HW114390   5.220   2.197   1.979 -0.3444  2.6501  1.8343
 3598SOL    HW214391   5.100   2.248   1.903 -0.6628 -2.5679 -1.6742
 3598SOL     MW14392   5.134   2.201   1.968 -0.3829  0.1450  0.2777
 3599SOL     OW14393   1.417   0.968   3.363  0.5635  0.0597  0.3662
 3599SOL    HW114394   1.323   0.970   3.379  0.7356  0.0364  1.4394
 3599SOL    HW214395   1.427   1.001   3.273 -0.3026  2.3363  1.0185
 3599SOL     MW14396   1.406   0.973   3.353  0.4746  0.3482  0.5871
 3600SOL     OW14397   1.603   4.731   3.136 -0.3538 -0.2620  0.0082
 3600SOL    HW114398   1.651   4.800   3.182  0.4437  0.5564 -1.9354
 3600SOL    HW214399   1.578   4.669   3.205  0.7160  0.9147  1.5261
 3600SOL     MW14400   1.606   4.732   3.150 -0.1148 -0.0066 -0.0463
 3601SOL     OW14401   2.592   2.075   2.859  0.1735  0.3558 -0.3596
 3601SOL    HW114402   2.635   2.061   2.944 -2.4895 -1.3978  0.8322
 3601SOL    HW214403   2.628   2.006   2.803  1.2394  0.9247 -0.4067
 3601SOL     MW14404   2.602   2.064   2.863 -0.0310  0.2042 -0.2130
 3602SOL     OW14405   3.849   4.830   4.440  0.2956  0.7452  0.3157
 3602SOL    HW114406   3.902   4.909   4.450 -0.9287  1.4431  1.5280
 3602SOL    HW214407   3.837   4.796   4.529 -1.0153  0.4322  0.0434
 3602SOL     MW14408   3.854   4.835   4.452 -0.0289  0.7945  0.4360
 3603SOL     OW14409   4.313   1.304   4.217 -0.4380 -0.2244 -0.2040
 3603SOL    HW114410   4.348   1.383   4.257 -0.0160 -0.2288 -0.5597
 3603SOL    HW214411   4.223   1.327   4.192 -0.2608  0.1933 -0.4593
 3603SOL     MW14412   4.306   1.317   4.219 -0.3613 -0.1715 -0.2822
 3604SOL     OW14413   2.576   2.061   1.854 -0.0385 -0.3315 -0.1809
 3604SOL    HW114414   2.510   2.050   1.785  0.9139  1.8816 -1.5493
 3604SOL    HW214415   2.564   2.152   1.883  1.5765 -0.2979  0.4377
 3604SOL     MW14416   2.566   2.072   1.849  0.2902 -0.0439 -0.2769
 3605SOL     OW14417   2.179   4.990   0.469 -0.2237  0.1382  0.0286
 3605SOL    HW114418   2.250   4.937   0.433  1.2159  2.1128 -0.1759
 3605SOL    HW214419   2.123   5.009   0.394 -0.5458 -0.7313  0.0329
 3605SOL     MW14420   2.181   4.986   0.455 -0.0806  0.2797  0.0029
 3606SOL     OW14421   4.009   2.930   0.999  0.1387  0.0466  0.2229
 3606SOL    HW114422   4.064   2.991   0.952  0.1186  0.6276  0.9388
 3606SOL    HW214423   3.972   2.874   0.931  0.0295  0.9278 -0.4591
 3606SOL     MW14424   4.011   2.930   0.984  0.1222  0.2337  0.2272
 3607SOL     OW14425   2.583   0.561   2.869 -0.4239  0.1076  0.0352
 3607SOL    HW114426   2.644   0.494   2.839 -0.8224  0.2057 -1.0212
 3607SOL    HW214427   2.497   0.518   2.867 -0.2897 -0.5949  3.1421
 3607SOL     MW14428   2.580   0.547   2.865 -0.4577  0.0302  0.2977
 3608SOL     OW14429   5.305   3.671   2.218 -0.0013 -0.4032 -0.7811
 3608SOL    HW114430   5.307   3.672   2.314  1.9775  1.0256 -0.7588
 3608SOL    HW214431   5.367   3.740   2.193 -1.6720  0.3657 -3.1029
 3608SOL     MW14432   5.313   3.680   2.227  0.0381 -0.1219 -1.0755
 3609SOL     OW14433   3.271   4.007   4.200 -0.1140 -0.1617  0.1099
 3609SOL    HW114434   3.211   3.983   4.270  0.3032  1.0067  0.9141
 3609SOL    HW214435   3.351   4.034   4.246  0.0853  0.8548 -0.7943
 3609SOL     MW14436   3.274   4.008   4.215 -0.0351  0.1180  0.0971
 3610SOL     OW14437   2.428   0.559   1.108  0.0920  0.0251  0.3042
 3610SOL    HW114438   2.429   0.520   1.020  2.2531  2.3485 -0.8153
 3610SOL    HW214439   2.349   0.613   1.109 -0.5656 -0.9134  0.2463
 3610SOL     MW14440   2.418   0.561   1.097  0.2845  0.2024  0.1535
 3611SOL     OW14441   1.342   5.278   0.635  0.5710 -0.4393  0.0926
 3611SOL    HW114442   1.276   5.345   0.617 -1.0653 -2.1270 -0.5570
 3611SOL    HW214443   1.378   5.256   0.549  1.7817  0.2169  0.4045
 3611SOL     MW14444   1.338   5.284   0.621  0.5165 -0.5714  0.0493
 3612SOL     OW14445   3.881   0.666  -0.013  0.1756 -0.6700 -0.4926
 3612SOL    HW114446   3.877   0.760  -0.030  0.0610 -0.4754  0.5295
 3612SOL    HW214447   3.940   0.657   0.062  0.4906 -1.4525 -0.8163
 3612SOL     MW14448   3.888   0.677  -0.005  0.2012 -0.7452 -0.4032
 3613SOL     OW14449   2.755   3.604   0.074  0.1176  0.1229 -0.2559
 3613SOL    HW114450   2.712   3.522   0.049  2.1921 -0.9067 -0.7042
 3613SOL    HW214451   2.683   3.663   0.098 -1.4975 -1.4536 -0.9965
 3613SOL     MW14452   2.740   3.601   0.074  0.1764 -0.2107 -0.4081
 3614SOL     OW14453   0.105   2.326   4.513 -0.0443  0.3771  0.4194
 3614SOL    HW114454   0.175   2.338   4.577 -1.9661  2.0743  2.3647
 3614SOL    HW214455   0.058   2.248   4.543  0.8128 -0.6468 -0.7716
 3614SOL     MW14456   0.108   2.317   4.525 -0.1806  0.4633  0.5160
 3615SOL     OW14457   2.350   3.417   4.607  0.1559  0.2798 -0.2459
 3615SOL    HW114458   2.258   3.393   4.613  0.4180 -0.4209  1.7485
 3615SOL    HW214459   2.387   3.352   4.546 -0.7159  0.8888 -1.4824
 3615SOL     MW14460   2.343   3.405   4.600  0.0779  0.2681 -0.1489
 3616SOL     OW14461   3.913   1.572   3.897  0.1045 -0.2994  0.0219
 3616SOL    HW114462   3.888   1.577   3.990  0.6775  0.2703  0.1552
 3616SOL    HW214463   3.831   1.582   3.849 -0.2592 -1.0556  0.4697
 3616SOL     MW14464   3.900   1.574   3.903  0.1313 -0.3233  0.0963
 3617SOL     OW14465   3.906   2.378   3.290  0.1531  0.1705 -0.1177
 3617SOL    HW114466   3.902   2.312   3.360  1.7905  0.3173  0.1622
 3617SOL    HW214467   3.816   2.388   3.261 -0.2005 -1.9026  0.1105
 3617SOL     MW14468   3.894   2.371   3.295  0.3175 -0.0761 -0.0526
 3618SOL     OW14469   3.405  -0.008   3.440 -0.5792  0.3358  0.0786
 3618SOL    HW114470   3.476  -0.002   3.376 -0.4432 -1.8906 -0.0564
 3618SOL    HW214471   3.445   0.023   3.522  1.7174 -3.6495  0.7698
 3618SOL     MW14472   3.419  -0.003   3.443 -0.2678 -0.4594  0.1498
 3619SOL     OW14473   3.314   3.310   1.383  0.4878  0.1753  0.5611
 3619SOL    HW114474   3.368   3.299   1.461  1.2181 -0.5752 -0.0368
 3619SOL    HW214475   3.264   3.228   1.377  0.3016  0.3029  0.3393
 3619SOL     MW14476   3.314   3.298   1.392  0.5575  0.0956  0.4562
 3620SOL     OW14477   1.732   5.107   2.244 -0.0459 -0.1677  0.3311
 3620SOL    HW114478   1.705   5.045   2.176 -0.3078  0.5845 -0.2584
 3620SOL    HW214479   1.711   5.193   2.208  0.7726  0.2953  0.9350
 3620SOL     MW14480   1.726   5.110   2.230  0.0254 -0.0122  0.3329
 3621SOL     OW14481   1.697   2.941   4.938  0.3042  0.1475 -0.5956
 3621SOL    HW114482   1.657   2.857   4.917 -1.3299  0.6488  0.2851
 3621SOL    HW214483   1.646   3.005   4.888  0.5527  0.7397 -0.1084
 3621SOL     MW14484   1.685   2.939   4.929  0.1268  0.2875 -0.4205
 3622SOL     OW14485   0.849   2.454   3.672 -0.2733  0.0382  0.1919
 3622SOL    HW114486   0.903   2.476   3.748  0.5664 -0.2474 -0.3141
 3622SOL    HW214487   0.759   2.476   3.699  0.2168  1.5727  0.6497
 3622SOL     MW14488   0.844   2.460   3.685 -0.1031  0.1981  0.1857
 3623SOL     OW14489   4.580   4.596   3.988  0.3841  0.4164  0.2192
 3623SOL    HW114490   4.652   4.547   3.947  0.8191 -0.0878  1.5369
 3623SOL    HW214491   4.593   4.686   3.959  2.4599  0.6232  1.5539
 3623SOL     MW14492   4.591   4.601   3.979  0.7055  0.3783  0.5587
 3624SOL     OW14493   2.476   4.188   0.521 -0.3460  0.4934  0.6822
 3624SOL    HW114494   2.398   4.205   0.468  1.1266  0.0889 -1.7701
 3624SOL    HW214495   2.489   4.093   0.513  1.1771  0.7458 -0.1755
 3624SOL     MW14496   2.467   4.178   0.513  0.0375  0.4739  0.2584
 3625SOL     OW14497   0.242   1.038   5.292 -0.5509 -0.0691 -0.4732
 3625SOL    HW114498   0.299   0.963   5.274  2.0855  1.3313  1.3060
 3625SOL    HW214499   0.205   1.021   5.378 -0.7480  0.2215 -0.4978
 3625SOL     MW14500   0.245   1.026   5.301 -0.2387  0.1474 -0.2486
 3626SOL     OW14501   4.474   1.954   1.782 -0.1212 -0.4695  0.0931
 3626SOL    HW114502   4.430   2.025   1.827  0.2587 -0.7733  0.9629
 3626SOL    HW214503   4.428   1.946   1.698 -1.9782 -1.0324  1.1178
 3626SOL     MW14504   4.463   1.962   1.777 -0.3103 -0.5805  0.3356
 3627SOL     OW14505   1.383   3.331   5.117 -0.7635 -0.4101 -0.3126
 3627SOL    HW114506   1.410   3.344   5.208  3.5279 -1.7356 -1.1628
 3627SOL    HW214507   1.336   3.248   5.118  0.0911 -0.9093  0.6273
 3627SOL     MW14508   1.381   3.322   5.129 -0.1048 -0.6437 -0.3011
 3628SOL     OW14509   2.813   0.981   1.687 -0.2591  0.1282  0.3494
 3628SOL    HW114510   2.888   0.938   1.728  0.1625 -0.1795 -0.7079
 3628SOL    HW214511   2.828   1.074   1.700  0.2639  0.0604  0.2290
 3628SOL     MW14512   2.824   0.987   1.694 -0.1382  0.0801  0.1987
 3629SOL     OW14513   2.325   0.884   4.871 -0.4433  0.1506 -0.2677
 3629SOL    HW114514   2.276   0.865   4.791 -0.0025 -1.5044 -0.1929
 3629SOL    HW214515   2.413   0.907   4.841 -0.8769  1.8215 -0.3395
 3629SOL     MW14516   2.330   0.885   4.857 -0.4424  0.1526 -0.2673
 3630SOL     OW14517   4.515   2.903   2.689 -0.5324 -0.2165  0.1194
 3630SOL    HW114518   4.481   2.815   2.703 -1.8764  0.0291 -1.3056
 3630SOL    HW214519   4.491   2.951   2.768 -0.8538 -0.8117  0.3914
 3630SOL     MW14520   4.508   2.898   2.701 -0.7456 -0.2612 -0.0282
 3631SOL     OW14521   2.285   4.920   1.854 -0.6081  0.0260 -0.5333
 3631SOL    HW114522   2.215   4.941   1.792 -0.4728  0.7608 -0.4497
 3631SOL    HW214523   2.334   5.001   1.863 -0.3897 -0.1780  0.2417
 3631SOL     MW14524   2.282   4.933   1.847 -0.5628  0.0939 -0.4234
 3632SOL     OW14525   1.134   0.807   0.057  0.6028  0.2431 -0.3837
 3632SOL    HW114526   1.176   0.884   0.095  1.4092 -1.0631  1.4691
 3632SOL    HW214527   1.059   0.843   0.009  1.3020  2.2272 -0.0764
 3632SOL     MW14528   1.129   0.822   0.056  0.7955  0.3299 -0.1072
 3633SOL     OW14529   5.047   2.760   3.110 -0.0025 -0.1825  0.1220
 3633SOL    HW114530   5.052   2.839   3.055  0.5879 -0.3786 -0.1193
 3633SOL    HW214531   5.098   2.782   3.188 -2.7019  0.9323  1.7121
 3633SOL     MW14532   5.055   2.773   3.113 -0.2725 -0.0649  0.2946
 3634SOL     OW14533   5.447   2.882   2.784 -0.5506 -0.4202 -0.0204
 3634SOL    HW114534   5.542   2.881   2.773 -0.4631  0.9190  0.3825
 3634SOL    HW214535   5.422   2.790   2.789  0.6388 -0.8058 -0.8028
 3634SOL     MW14536   5.456   2.870   2.783 -0.3872 -0.2981 -0.0690
 3635SOL     OW14537   2.288   2.652   1.509  0.3768  0.2019  0.3595
 3635SOL    HW114538   2.302   2.574   1.455 -0.8111 -0.5628  1.1074
 3635SOL    HW214539   2.358   2.650   1.573 -0.0951 -0.7304  0.8777
 3635SOL     MW14540   2.298   2.642   1.510  0.1643 -0.0154  0.5215
 3636SOL     OW14541   1.807   1.986   2.412  0.3138 -0.3136 -0.2117
 3636SOL    HW114542   1.760   2.000   2.495 -0.2215 -1.8528 -0.2358
 3636SOL    HW214543   1.754   1.922   2.365  0.7390  0.3565 -1.6633
 3636SOL     MW14544   1.794   1.980   2.416  0.2997 -0.4249 -0.4006
 3637SOL     OW14545   5.292   3.263   3.317  0.0513  0.2738  0.3911
 3637SOL    HW114546   5.201   3.292   3.328 -0.0753  0.1793 -0.3339
 3637SOL    HW214547   5.286   3.191   3.254  0.6897  0.6309 -0.0882
 3637SOL     MW14548   5.279   3.257   3.310  0.1168  0.3074  0.2369
 3638SOL     OW14549   3.189   3.112   0.723  0.3585 -0.4022  0.2148
 3638SOL    HW114550   3.222   3.069   0.802 -0.3820 -0.8857  0.2706
 3638SOL    HW214551   3.098   3.136   0.745  0.1853 -0.4409 -0.4477
 3638SOL     MW14552   3.181   3.110   0.736  0.2415 -0.4691  0.1372
 3639SOL     OW14553   3.707   1.676   3.740 -0.1548 -0.0378  0.3210
 3639SOL    HW114554   3.746   1.642   3.660  1.7451  0.7794  0.8154
 3639SOL    HW214555   3.741   1.766   3.746 -1.9740  0.6441  0.9529
 3639SOL     MW14556   3.717   1.683   3.731 -0.1444  0.1541  0.4651
 3640SOL     OW14557   1.653   2.204   5.429 -0.4322 -0.2041  0.1285
 3640SOL    HW114558   1.711   2.270   5.468 -0.0805 -1.0850  1.1320
 3640SOL    HW214559   1.619   2.247   5.350  1.0420  0.5910 -0.1231
 3640SOL     MW14560   1.656   2.218   5.424 -0.1985 -0.2151  0.2248
 3641SOL     OW14561   1.707   1.200   4.508 -0.1061 -0.1792  0.0968
 3641SOL    HW114562   1.767   1.262   4.547 -0.0151 -0.4010  0.3153
 3641SOL    HW214563   1.625   1.249   4.497  0.3999  0.4067 -1.1140
 3641SOL     MW14564   1.704   1.214   4.512 -0.0297 -0.1326 -0.0302
 3642SOL     OW14565   2.909   4.806   0.815 -0.2167  0.2078 -0.1512
 3642SOL    HW114566   2.852   4.883   0.817  1.6227  1.6799 -1.3389
 3642SOL    HW214567   2.939   4.801   0.724  0.1311 -1.6190  0.0293
 3642SOL     MW14568   2.905   4.815   0.804  0.0633  0.1624 -0.2801
 3643SOL     OW14569   2.953   4.711   3.834 -0.3001 -0.2577 -0.3757
 3643SOL    HW114570   2.948   4.762   3.753 -3.7148  0.1875 -0.0135
 3643SOL    HW214571   3.008   4.763   3.892 -0.3569  0.9740 -1.3851
 3643SOL     MW14572   2.959   4.724   3.831 -0.7445 -0.0431 -0.4586
 3644SOL     OW14573   2.207   4.545   2.412  0.2273  0.0016 -0.2181
 3644SOL    HW114574   2.252   4.613   2.464 -1.4061  0.6480  0.4045
 3644SOL    HW214575   2.115   4.555   2.435 -0.0746 -2.3644 -0.2235
 3644SOL     MW14576   2.201   4.555   2.422 -0.0204 -0.2186 -0.1391
 3645SOL     OW14577   4.397   2.670   4.857  0.5288  0.5484 -0.1275
 3645SOL    HW114578   4.376   2.590   4.905 -1.5458  0.6425 -0.7845
 3645SOL    HW214579   4.370   2.651   4.767 -2.2045  2.6911  0.1188
 3645SOL     MW14580   4.391   2.657   4.852 -0.0867  0.8348 -0.1801
 3646SOL     OW14581   0.051   4.509   4.411 -0.5291 -0.0174 -0.6477
 3646SOL    HW114582   0.048   4.424   4.455 -0.1260  0.6350  0.7063
 3646SOL    HW214583  -0.011   4.501   4.338  0.3230 -1.8188 -1.2312
 3646SOL     MW14584   0.042   4.497   4.407 -0.3684 -0.1645 -0.5490
 3647SOL     OW14585   3.891   3.709   0.722  0.5484 -0.9859  0.0357
 3647SOL    HW114586   3.958   3.661   0.673  0.4892 -0.5166 -0.5206
 3647SOL    HW214587   3.939   3.778   0.767  0.3625 -0.2056 -0.9330
 3647SOL     MW14588   3.906   3.712   0.722  0.5170 -0.8259 -0.1595
 3648SOL     OW14589   0.387   1.601   1.886 -0.7115 -0.0266 -0.2181
 3648SOL    HW114590   0.442   1.669   1.847  0.2209 -0.2646  0.6243
 3648SOL    HW214591   0.373   1.631   1.976  0.8591 -1.5639  0.5973
 3648SOL     MW14592   0.392   1.614   1.893 -0.3911 -0.2539 -0.0059
 3649SOL     OW14593   4.451   0.747   0.598 -0.5658  0.3713 -0.1702
 3649SOL    HW114594   4.477   0.663   0.637 -1.0363  0.6803  0.8430
 3649SOL    HW214595   4.531   0.781   0.558 -0.3977 -0.6140 -0.6858
 3649SOL     MW14596   4.464   0.741   0.598 -0.6045  0.2847 -0.1065
 3650SOL     OW14597   5.353   4.235   2.808  0.6087 -0.3234 -0.1282
 3650SOL    HW114598   5.402   4.301   2.759  2.9037 -2.5305 -0.9903
 3650SOL    HW214599   5.285   4.205   2.748  0.3341  0.3696 -0.1696
 3650SOL     MW14600   5.351   4.240   2.794  0.8673 -0.5172 -0.2439
 3651SOL     OW14601   3.230   4.343   3.642  0.2215 -0.0219  0.1019
 3651SOL    HW114602   3.322   4.325   3.662 -0.3575 -4.1397 -0.0484
 3651SOL    HW214603   3.187   4.344   3.727  0.1931  0.3194  0.0831
 3651SOL     MW14604   3.236   4.341   3.655  0.1437 -0.5053  0.0802
 3652SOL     OW14605   0.785   2.033   4.789 -0.2369 -0.6032 -0.5511
 3652SOL    HW114606   0.786   2.065   4.879 -0.7819 -0.8450 -0.4539
 3652SOL    HW214607   0.778   1.938   4.796  0.6092 -0.6971 -0.8476
 3652SOL     MW14608   0.784   2.025   4.801 -0.1984 -0.6462 -0.5766
 3653SOL     OW14609   4.723   3.634   5.034  0.2812  0.1658 -0.5125
 3653SOL    HW114610   4.757   3.677   5.113 -0.5042  0.2738 -0.2285
 3653SOL    HW214611   4.778   3.556   5.024  0.3705  0.1374  0.1492
 3653SOL     MW14612   4.735   3.630   5.043  0.1921  0.1760 -0.3915
 3654SOL     OW14613   3.168   3.579   4.461  0.1443 -0.2217  0.1176
 3654SOL    HW114614   3.157   3.498   4.510 -0.5544 -0.4157 -0.3517
 3654SOL    HW214615   3.186   3.645   4.527  2.8146 -1.0887  0.4022
 3654SOL     MW14616   3.169   3.577   4.476  0.3967 -0.3575  0.0940
 3655SOL     OW14617   0.108   4.632   3.724 -0.9426  0.0325 -0.1869
 3655SOL    HW114618   0.170   4.701   3.701 -2.2417  1.4805  0.4619
 3655SOL    HW214619   0.060   4.615   3.643 -0.6537 -0.0702 -0.3371
 3655SOL     MW14620   0.109   4.639   3.711 -1.0719  0.2047 -0.1231
 3656SOL     OW14621   2.869   2.810   0.316  0.1747  0.0873 -0.2254
 3656SOL    HW114622   2.891   2.716   0.318  0.0209  0.0449  1.8973
 3656SOL    HW214623   2.786   2.814   0.269  1.8459 -0.3743 -3.5268
 3656SOL     MW14624   2.862   2.798   0.310  0.3689  0.0228 -0.3763
 3657SOL     OW14625   0.900   0.824   4.327 -0.0960 -0.0421 -0.0606
 3657SOL    HW114626   0.977   0.841   4.273  0.0279  0.4976  0.2681
 3657SOL    HW214627   0.873   0.911   4.357 -1.0207 -0.1891 -0.4188
 3657SOL     MW14628   0.906   0.837   4.324 -0.1985  0.0082 -0.0644
 3658SOL     OW14629   2.369   3.664   4.723 -0.2990  0.0386  0.0803
 3658SOL    HW114630   2.279   3.672   4.755 -1.1133  0.9729 -2.2985
 3658SOL    HW214631   2.363   3.600   4.652  0.3153  2.1088 -1.9563
 3658SOL     MW14632   2.357   3.657   4.718 -0.3246  0.4232 -0.4850
 3659SOL     OW14633   0.032   4.830   4.909 -0.5079  0.1098  0.0664
 3659SOL    HW114634   0.075   4.858   4.828 -0.4889 -0.4954 -0.1422
 3659SOL    HW214635   0.090   4.858   4.979 -0.6143  0.8054 -0.1184
 3659SOL     MW14636   0.045   4.837   4.907 -0.5191  0.1214  0.0160
 3660SOL     OW14637   4.919   2.219   0.408  0.4515 -0.4759 -0.0277
 3660SOL    HW114638   4.946   2.127   0.402 -0.9088 -0.8935 -0.1407
 3660SOL    HW214639   4.828   2.215   0.435  0.1784  0.8251 -0.6720
 3660SOL     MW14640   4.911   2.207   0.410  0.2424 -0.3628 -0.1246
 3661SOL     OW14641   4.756   0.947   2.699  0.7071 -0.5551 -0.1426
 3661SOL    HW114642   4.771   0.961   2.605 -1.5745  1.4490 -0.2971
 3661SOL    HW214643   4.697   0.871   2.702 -0.2497  0.1425 -0.4793
 3661SOL     MW14644   4.750   0.939   2.687  0.2925 -0.2092 -0.2055
 3662SOL     OW14645   0.081   0.835   2.428  0.8376 -0.1092 -0.1087
 3662SOL    HW114646   0.093   0.749   2.389 -0.1457  0.4944 -1.8794
 3662SOL    HW214647  -0.011   0.856   2.411  1.4062  1.8865 -1.0899
 3662SOL     MW14648   0.071   0.827   2.421  0.7845  0.2235 -0.4610
 3663SOL     OW14649   3.753   4.715   1.018 -0.6219 -0.3298 -0.3307
 3663SOL    HW114650   3.713   4.639   1.061 -1.0432 -0.7803 -1.4748
 3663SOL    HW214651   3.833   4.681   0.978  1.1786  0.6322  2.1921
 3663SOL     MW14652   3.758   4.701   1.018 -0.4453 -0.2643 -0.1542
 3664SOL     OW14653   2.684   1.177   2.613  0.2846  0.4572  0.0691
 3664SOL    HW114654   2.655   1.233   2.684 -0.5959 -0.5037  0.4918
 3664SOL    HW214655   2.608   1.123   2.592  1.9317 -2.9446  1.9316
 3664SOL     MW14656   2.671   1.177   2.619  0.3828 -0.1013  0.3616
 3665SOL     OW14657   0.685   3.547   2.913  0.2948 -0.3436 -0.5137
 3665SOL    HW114658   0.711   3.455   2.913  2.6254  0.2287  1.1119
 3665SOL    HW214659   0.677   3.570   3.006  1.4109  1.4936 -0.8324
 3665SOL     MW14660   0.687   3.538   2.925  0.7360 -0.0351 -0.3464
 3666SOL     OW14661   0.572   3.841   1.831  0.6428 -0.1675  0.3149
 3666SOL    HW114662   0.630   3.825   1.907  1.1323 -0.5554 -0.1324
 3666SOL    HW214663   0.624   3.898   1.774  0.1578  0.3711  0.3954
 3666SOL     MW14664   0.586   3.847   1.834  0.6434 -0.1482  0.2680
 3667SOL     OW14665   0.900   4.667   4.246  0.2259  0.3156 -0.1160
 3667SOL    HW114666   0.861   4.609   4.312  0.0022 -0.1060 -0.6182
 3667SOL    HW214667   0.840   4.663   4.172 -0.0131  1.5195 -0.0094
 3667SOL     MW14668   0.887   4.659   4.245  0.1666  0.4157 -0.1666
 3668SOL     OW14669   4.312   0.375   0.853 -0.4291  0.5340  0.1107
 3668SOL    HW114670   4.238   0.316   0.871  0.0986 -0.1431  0.0889
 3668SOL    HW214671   4.367   0.327   0.791 -0.2758  1.2855 -0.3518
 3668SOL     MW14672   4.309   0.361   0.847 -0.3419  0.5436  0.0487
 3669SOL     OW14673   5.236   4.256   5.502  0.1818  0.2346  0.1491
 3669SOL    HW114674   5.330   4.263   5.486  0.2219 -0.1542  0.1991
 3669SOL    HW214675   5.199   4.229   5.418  0.3594 -1.5448  0.5929
 3669SOL     MW14676   5.243   4.253   5.489  0.2097 -0.0429  0.2123
 3670SOL     OW14677   0.129   2.742   2.295 -0.0495  0.1575  0.4649
 3670SOL    HW114678   0.063   2.721   2.361  1.2205  0.5930  1.9391
 3670SOL    HW214679   0.117   2.835   2.277 -1.3869 -0.2836 -1.1118
 3670SOL     MW14680   0.119   2.751   2.301 -0.0581  0.1568  0.4518
 3671SOL     OW14681   5.067   1.173   2.600 -0.0600 -1.0404 -0.7178
 3671SOL    HW114682   5.085   1.263   2.576  1.2763 -1.1903 -0.3889
 3671SOL    HW214683   4.993   1.147   2.546  0.2120 -0.0783 -1.5794
 3671SOL     MW14684   5.060   1.181   2.590  0.1459 -0.9365 -0.7860
 3672SOL     OW14685   4.625   2.247   4.033 -0.3100 -0.4004 -0.1042
 3672SOL    HW114686   4.705   2.237   3.981 -1.7341 -1.4070 -2.2114
 3672SOL    HW214687   4.592   2.334   4.009  1.0648  0.8784  2.2428
 3672SOL     MW14688   4.631   2.257   4.023 -0.3163 -0.3655 -0.0735
 3673SOL     OW14689   2.334   0.243   5.038  0.5214 -1.0512 -0.9421
 3673SOL    HW114690   2.306   0.317   4.983 -1.0024 -2.4246 -2.1001
 3673SOL    HW214691   2.345   0.171   4.977 -0.3562 -2.4027  0.4368
 3673SOL     MW14692   2.332   0.243   5.023  0.2140 -1.4000 -0.9138
 3674SOL     OW14693   5.087   1.358   2.124  0.1021  0.1077 -0.2916
 3674SOL    HW114694   5.143   1.318   2.191  1.0125 -0.4741 -1.3731
 3674SOL    HW214695   5.053   1.437   2.166  0.3097 -0.4620  1.0041
 3674SOL     MW14696   5.090   1.363   2.138  0.2452 -0.0397 -0.2642
 3675SOL     OW14697   4.730   3.191   1.721  0.0354 -0.4319 -0.3350
 3675SOL    HW114698   4.726   3.174   1.627 -2.1821 -0.3825 -0.2985
 3675SOL    HW214699   4.777   3.115   1.757  0.2623 -0.8068 -1.3937
 3675SOL     MW14700   4.736   3.179   1.714 -0.2194 -0.4735 -0.4659
 3676SOL     OW14701   2.039   0.198   2.252 -0.2394  0.1209  0.1505
 3676SOL    HW114702   2.085   0.220   2.171  0.8054  1.3666  1.0549
 3676SOL    HW214703   1.974   0.133   2.225 -1.3899  2.0241 -2.1163
 3676SOL     MW14704   2.037   0.193   2.238 -0.2529  0.5240 -0.0239
 3677SOL     OW14705   1.956   2.975   1.266  0.2020 -0.5492 -0.0961
 3677SOL    HW114706   1.929   2.973   1.358  1.5117 -1.2368  0.2989
 3677SOL    HW214707   1.911   3.052   1.230 -0.0652 -0.0623  1.2000
 3677SOL     MW14708   1.947   2.985   1.273  0.3355 -0.5749  0.1204
 3678SOL     OW14709   2.079   0.326   2.495  0.0956  0.6181 -0.5569
 3678SOL    HW114710   2.057   0.275   2.416  1.2092  0.8366 -1.0189
 3678SOL    HW214711   2.006   0.309   2.555  0.7252 -2.0537 -0.4406
 3678SOL     MW14712   2.067   0.317   2.492  0.3187  0.3040 -0.6012
 3679SOL     OW14713   1.447   4.145   2.086  0.5225 -0.4674 -0.4343
 3679SOL    HW114714   1.537   4.122   2.060 -0.0305 -2.6687 -0.5882
 3679SOL    HW214715   1.392   4.088   2.033 -0.9083 -0.3459  0.8674
 3679SOL     MW14716   1.452   4.135   2.076  0.2685 -0.7336 -0.2874
 3680SOL     OW14717   0.870   4.367   3.752  0.0103  0.4187  0.3857
 3680SOL    HW114718   0.958   4.406   3.749  0.8165 -1.3611 -1.3565
 3680SOL    HW214719   0.874   4.307   3.827  1.2393 -1.5679 -1.1584
 3680SOL     MW14720   0.882   4.365   3.761  0.2708 -0.0634 -0.0350
 3681SOL     OW14721   1.657   5.286   3.248 -0.2913  0.0771  0.0893
 3681SOL    HW114722   1.684   5.211   3.195  0.0812 -0.1628  0.6127
 3681SOL    HW214723   1.571   5.310   3.213 -0.8498 -1.1998  0.5338
 3681SOL     MW14724   1.649   5.280   3.237 -0.3151 -0.1171  0.2132
 3682SOL     OW14725   3.485   0.203   1.893  0.0571 -0.0433 -0.0330
 3682SOL    HW114726   3.415   0.147   1.858  0.4402 -0.2186 -0.5259
 3682SOL    HW214727   3.507   0.261   1.821  1.2123 -0.7491 -0.2751
 3682SOL     MW14728   3.479   0.203   1.879  0.2540 -0.1561 -0.1271
 3683SOL     OW14729   0.503   1.198   1.113 -0.3233  0.7265 -0.1005
 3683SOL    HW114730   0.534   1.126   1.058 -0.1398  1.7334 -1.3498
 3683SOL    HW214731   0.407   1.192   1.108 -0.3543 -0.5074  1.2797
 3683SOL     MW14732   0.494   1.188   1.106 -0.3038  0.6975 -0.0837
 3684SOL     OW14733   5.201   0.914   5.039  0.3528  0.5896 -0.0689
 3684SOL    HW114734   5.229   0.997   5.001  0.9691  0.1075 -0.7051
 3684SOL    HW214735   5.189   0.856   4.963 -0.9973  0.3627  0.2895
 3684SOL     MW14736   5.203   0.917   5.024  0.2589  0.4988 -0.1045
 3685SOL     OW14737   2.541   1.581   2.527 -0.3911 -0.4934  0.3360
 3685SOL    HW114738   2.614   1.560   2.585 -0.1025  2.5550  1.2647
 3685SOL    HW214739   2.469   1.601   2.587 -1.1433 -0.6867 -0.4905
 3685SOL     MW14740   2.541   1.581   2.542 -0.4505 -0.1279  0.3490
 3686SOL     OW14741   0.404   4.510   0.982 -0.1455 -0.1658  0.2068
 3686SOL    HW114742   0.458   4.459   1.043 -1.3536 -2.5154 -0.5499
 3686SOL    HW214743   0.445   4.596   0.980  3.2030 -1.6071  0.1546
 3686SOL     MW14744   0.416   4.514   0.989  0.1285 -0.6511  0.1033
 3687SOL     OW14745   2.308   0.361   4.631 -0.3173  0.3748 -0.1895
 3687SOL    HW114746   2.279   0.445   4.667  1.6152  1.5745 -1.2555
 3687SOL    HW214747   2.255   0.350   4.551  1.5801  2.2663 -1.8182
 3687SOL     MW14748   2.297   0.370   4.625  0.1730  0.7705 -0.5344
 3688SOL     OW14749   3.341   4.556   4.866  0.3261 -0.0299  0.0933
 3688SOL    HW114750   3.291   4.636   4.884 -0.5174 -0.4456 -0.3311
 3688SOL    HW214751   3.384   4.573   4.782 -0.0791 -0.1299 -0.1336
 3688SOL     MW14752   3.340   4.568   4.858  0.1662 -0.0959  0.0099
 3689SOL     OW14753   1.144   0.500   2.774  0.0675 -0.2243 -1.1904
 3689SOL    HW114754   1.151   0.575   2.714  1.1749  0.0787 -0.7126
 3689SOL    HW214755   1.227   0.499   2.821 -1.0129  0.0221  0.8950
 3689SOL     MW14756   1.155   0.510   2.773  0.0709 -0.1540 -0.8623
 3690SOL     OW14757   3.632   1.994   4.162 -0.6603  0.2023 -0.3024
 3690SOL    HW114758   3.603   2.001   4.253  2.1963  0.8651  0.6523
 3690SOL    HW214759   3.552   1.977   4.113 -2.5152  1.3022  2.1356
 3690SOL     MW14760   3.618   1.993   4.167 -0.5321  0.4279  0.1319
 3691SOL     OW14761   3.974   4.056   2.411  0.5813  0.2046 -0.1533
 3691SOL    HW114762   4.019   4.084   2.490 -0.9176  1.0757  0.4459
 3691SOL    HW214763   3.946   3.966   2.430 -0.4999  0.6839  0.6996
 3691SOL     MW14764   3.976   4.048   2.424  0.2510  0.3775  0.0326
 3692SOL     OW14765   2.354   2.177   2.960 -0.5812 -0.4399 -0.0638
 3692SOL    HW114766   2.439   2.153   2.922 -0.0748 -0.0041  0.7857
 3692SOL    HW214767   2.332   2.261   2.919 -0.3019 -0.2479  0.1740
 3692SOL     MW14768   2.362   2.185   2.950 -0.4806 -0.3595  0.0754
 3693SOL     OW14769   1.429   3.216   3.271  0.5233  0.0622  0.1154
 3693SOL    HW114770   1.441   3.143   3.210 -0.8843 -0.1372  0.0571
 3693SOL    HW214771   1.341   3.204   3.306  0.8955  0.8084  1.3618
 3693SOL     MW14772   1.419   3.205   3.268  0.3907  0.1322  0.2675
 3694SOL     OW14773   2.937   4.937   4.537 -0.2252  0.4229 -0.1271
 3694SOL    HW114774   3.026   4.904   4.532  0.6560  2.7242 -3.5285
 3694SOL    HW214775   2.946   5.026   4.571 -1.1943  0.6526 -0.4341
 3694SOL     MW14776   2.949   4.944   4.540 -0.2365  0.7469 -0.6018
 3695SOL     OW14777   2.645   0.188   3.860 -0.5636  0.0754 -0.5966
 3695SOL    HW114778   2.599   0.109   3.832 -1.4080  0.2056  0.3244
 3695SOL    HW214779   2.725   0.156   3.901 -0.6187 -0.2628 -0.7461
 3695SOL     MW14780   2.649   0.174   3.862 -0.6787  0.0488 -0.4978
 3696SOL     OW14781   1.638   2.536   2.859 -0.1872  1.0052  0.3572
 3696SOL    HW114782   1.700   2.463   2.858 -0.7748  0.4950 -0.3402
 3696SOL    HW214783   1.690   2.612   2.833  0.1518  0.5951 -0.1762
 3696SOL     MW14784   1.653   2.536   2.856 -0.2190  0.8874  0.1997
 3697SOL     OW14785   1.545   4.898   4.765 -0.0297 -0.4207 -0.1704
 3697SOL    HW114786   1.525   4.864   4.853 -1.5779 -0.9380 -0.6756
 3697SOL    HW214787   1.522   4.826   4.706  0.2682  0.1815 -1.0464
 3697SOL     MW14788   1.539   4.884   4.769 -0.1897 -0.4099 -0.3472
 3698SOL     OW14789   0.613   4.274   4.783 -0.0085 -0.0447 -0.0335
 3698SOL    HW114790   0.598   4.345   4.845  2.4498  2.6851 -2.2612
 3698SOL    HW214791   0.586   4.309   4.698  4.0978 -0.3755 -1.7263
 3698SOL     MW14792   0.608   4.288   4.780  0.8319  0.2624 -0.5354
 3699SOL     OW14793   0.662   4.150   0.186  0.0536  0.2654  0.1565
 3699SOL    HW114794   0.672   4.119   0.276  0.2479  1.6336  0.6290
 3699SOL    HW214795   0.644   4.071   0.135  0.5943 -0.6128  1.2894
 3699SOL     MW14796   0.661   4.136   0.191  0.1477  0.3281  0.3620
 3700SOL     OW14797   4.456   0.795   4.203  0.6998 -0.1788  0.0188
 3700SOL    HW114798   4.505   0.875   4.184  0.0577  0.5460  1.2377
 3700SOL    HW214799   4.412   0.774   4.121  1.9855 -0.0979 -0.7176
 3700SOL     MW14800   4.456   0.803   4.190  0.7822 -0.0757  0.0805
 3701SOL     OW14801  -0.024   2.839   5.220 -0.1305 -0.1460 -0.0607
 3701SOL    HW114802   0.065   2.873   5.234 -0.5964  0.9248  0.3904
 3701SOL    HW214803  -0.013   2.744   5.219  0.7766 -0.0959  1.8083
 3701SOL     MW14804  -0.011   2.831   5.221 -0.0740 -0.0025  0.2363
 3702SOL     OW14805   3.805   2.815   1.922 -0.1786  0.0216  0.4752
 3702SOL    HW114806   3.872   2.772   1.976  0.0082 -2.0113 -1.2797
 3702SOL    HW214807   3.726   2.764   1.936 -0.6282  0.6454  0.2638
 3702SOL     MW14808   3.804   2.803   1.931 -0.2123 -0.1588  0.2235
 3703SOL     OW14809   1.607   5.213   4.062 -0.2816  0.7434 -0.3053
 3703SOL    HW114810   1.624   5.307   4.057  0.1576  0.6431 -0.7983
 3703SOL    HW214811   1.656   5.176   3.989 -1.0138  0.2038 -0.5317
 3703SOL     MW14812   1.616   5.220   4.052 -0.3191  0.6615 -0.3974
 3704SOL     OW14813   1.091   4.461   2.978  0.4957 -0.3740 -0.0371
 3704SOL    HW114814   1.035   4.527   2.938  0.6070  0.4688  1.1325
 3704SOL    HW214815   1.121   4.407   2.905  0.1774  0.7019 -0.9928
 3704SOL     MW14816   1.088   4.463   2.963  0.4692 -0.1284 -0.0097
 3705SOL     OW14817   0.121   0.474   3.690  0.2363  0.3671 -0.2042
 3705SOL    HW114818   0.119   0.555   3.741 -0.7916  0.5474 -0.4978
 3705SOL    HW214819   0.074   0.410   3.744  0.1813  0.2363 -0.4067
 3705SOL     MW14820   0.114   0.476   3.703  0.0977  0.3734 -0.2677
 3706SOL     OW14821   3.801   0.815   1.635 -0.0151  0.0400 -0.0292
 3706SOL    HW114822   3.777   0.896   1.680 -1.1786 -1.2562  1.8419
 3706SOL    HW214823   3.896   0.815   1.634  0.0150  0.8736  1.0325
 3706SOL     MW14824   3.810   0.826   1.641 -0.1602 -0.0192  0.3462
 3707SOL     OW14825   0.595   3.898   2.888  0.1608  0.3532 -0.2503
 3707SOL    HW114826   0.563   3.808   2.880 -0.4429  0.5759 -0.3748
 3707SOL    HW214827   0.677   3.899   2.839  0.3779 -0.2296  0.0849
 3707SOL     MW14828   0.602   3.887   2.881  0.1113  0.3071 -0.2233
 3708SOL     OW14829   4.933   2.075   2.415  0.4372  0.5221  0.6156
 3708SOL    HW114830   4.887   2.140   2.468 -0.6642 -1.3579  2.1354
 3708SOL    HW214831   4.875   2.059   2.341  1.1553  1.8890 -0.2818
 3708SOL     MW14832   4.920   2.081   2.412  0.3881  0.4564  0.6953
 3709SOL     OW14833   2.977   5.213   4.268  0.1947 -0.1262 -0.0362
 3709SOL    HW114834   3.002   5.165   4.189 -0.0549 -3.2228  1.6291
 3709SOL    HW214835   2.972   5.147   4.336 -2.2165  1.9783  2.0556
 3709SOL     MW14836   2.979   5.199   4.266 -0.1459 -0.2532  0.4447
 3710SOL     OW14837   4.852   1.484   1.910  0.3110  0.0984 -0.0111
 3710SOL    HW114838   4.889   1.573   1.907  0.0996  0.2290  0.9177
 3710SOL    HW214839   4.925   1.427   1.886  0.2355  0.5661 -1.4325
 3710SOL     MW14840   4.866   1.488   1.906  0.2743  0.1750 -0.0741
 3711SOL     OW14841   3.243   1.449   0.962 -0.1671  0.1046 -0.0979
 3711SOL    HW114842   3.259   1.409   1.048 -0.8392 -0.2083 -0.1139
 3711SOL    HW214843   3.215   1.539   0.982  0.3720  0.2622 -0.0246
 3711SOL     MW14844   3.242   1.456   0.976 -0.1841  0.0847 -0.0906
 3712SOL     OW14845   3.295   0.857   0.427  0.0439  0.2198  0.3009
 3712SOL    HW114846   3.379   0.890   0.395 -0.0092  0.8778  0.7982
 3712SOL    HW214847   3.293   0.765   0.402  0.7449  0.2993 -0.0550
 3712SOL     MW14848   3.305   0.850   0.420  0.1268  0.3142  0.3190
 3713SOL     OW14849   1.274   4.196   1.156  0.1588  0.2292 -0.0274
 3713SOL    HW114850   1.306   4.222   1.069  0.5186 -1.4462 -0.4277
 3713SOL    HW214851   1.212   4.126   1.139  0.9697 -0.7990  1.1093
 3713SOL     MW14852   1.270   4.190   1.142  0.3087 -0.1169  0.0669
 3714SOL     OW14853   2.220   5.279   1.015 -0.2199  0.0965  0.2106
 3714SOL    HW114854   2.251   5.316   0.932 -1.7614  1.6376  0.2876
 3714SOL    HW214855   2.174   5.350   1.058 -1.4512 -1.3281  1.3523
 3714SOL     MW14856   2.218   5.293   1.010 -0.5748  0.1114  0.3666
 3715SOL     OW14857   5.253   3.920   5.338 -0.1659  0.0142  0.3167
 3715SOL    HW114858   5.338   3.948   5.303 -0.4880  1.3797  0.5696
 3715SOL    HW214859   5.271   3.892   5.428  0.3302 -1.6429 -0.2560
 3715SOL     MW14860   5.266   3.920   5.345 -0.1436 -0.0231  0.2757
 3716SOL     OW14861   4.450   1.622   2.326  0.0158 -0.5448 -0.2493
 3716SOL    HW114862   4.396   1.676   2.384 -0.4922  0.0494 -1.2588
 3716SOL    HW214863   4.426   1.532   2.349 -0.9118 -0.2984 -0.2201
 3716SOL     MW14864   4.440   1.617   2.337 -0.1679 -0.4372 -0.3748
 3717SOL     OW14865   2.084   2.681   1.731  0.2758  1.2035 -0.0795
 3717SOL    HW114866   2.056   2.656   1.642  0.3791  0.8814 -0.0248
 3717SOL    HW214867   2.002   2.692   1.779  0.2325  0.4466  0.0320
 3717SOL     MW14868   2.070   2.679   1.726  0.2835  1.0653 -0.0582
 3718SOL     OW14869   0.302   3.776   3.097 -0.1293  0.0040 -0.3272
 3718SOL    HW114870   0.297   3.869   3.116  0.9280  0.3935 -1.7620
 3718SOL    HW214871   0.351   3.771   3.015 -1.8022 -1.6848 -1.3228
 3718SOL     MW14872   0.307   3.787   3.089 -0.2081 -0.1624 -0.6383
 3719SOL     OW14873   1.799   5.076   1.010 -0.3493  0.0899  0.9731
 3719SOL    HW114874   1.821   4.986   0.984  1.1675  1.3606 -2.9051
 3719SOL    HW214875   1.715   5.093   0.967 -0.0987  0.8619  0.7883
 3719SOL     MW14876   1.791   5.066   1.001 -0.1231  0.3514  0.4530
 3720SOL     OW14877   1.949   3.220   2.539  0.2691 -0.0310  0.4564
 3720SOL    HW114878   1.886   3.167   2.588  0.6097  0.5130  1.5126
 3720SOL    HW214879   1.896   3.290   2.500 -0.1240 -0.8989 -0.6398
 3720SOL     MW14880   1.934   3.222   2.540  0.2624 -0.0725  0.4513
 3721SOL     OW14881   4.577   0.959   1.108 -0.4867 -0.1605 -0.1956
 3721SOL    HW114882   4.493   0.917   1.127  0.6270 -2.0698  0.7989
 3721SOL    HW214883   4.619   0.900   1.045  0.0669  0.8643 -0.8173
 3721SOL     MW14884   4.571   0.946   1.102 -0.2732 -0.2738 -0.1479
 3722SOL     OW14885   4.453   2.534   2.119 -0.5112  0.1013  0.2032
 3722SOL    HW114886   4.532   2.558   2.167 -0.4385  0.9437 -0.3236
 3722SOL    HW214887   4.381   2.555   2.179 -0.3703  0.0172  0.4031
 3722SOL     MW14888   4.454   2.540   2.133 -0.4839  0.1984  0.1613
 3723SOL     OW14889   4.094   4.865   4.807  0.4832 -0.2293  0.2316
 3723SOL    HW114890   4.065   4.950   4.840  1.1454 -0.7041  2.1802
 3723SOL    HW214891   4.165   4.885   4.746 -0.8849  0.6932 -1.1371
 3723SOL     MW14892   4.099   4.879   4.803  0.3928 -0.1720  0.3058
 3724SOL     OW14893   2.561   3.719   3.424  0.1022  0.8170  0.5268
 3724SOL    HW114894   2.538   3.767   3.504  1.6509 -1.7863  2.7284
 3724SOL    HW214895   2.586   3.632   3.455 -1.7342 -1.2343 -3.1148
 3724SOL     MW14896   2.562   3.714   3.438  0.0653  0.2211  0.3425
 3725SOL     OW14897   5.177   2.756   0.745  0.5355 -0.8131  0.4900
 3725SOL    HW114898   5.210   2.678   0.791  0.9812  0.4205  2.3897
 3725SOL    HW214899   5.213   2.829   0.795 -1.2051  0.6109 -0.2582
 3725SOL     MW14900   5.186   2.755   0.757  0.3697 -0.4729  0.6374
 3726SOL     OW14901   0.574   3.869   5.087 -0.2552  0.6158  0.4929
 3726SOL    HW114902   0.624   3.931   5.141  1.0295 -0.4400  0.5918
 3726SOL    HW214903   0.633   3.794   5.078 -1.6964 -0.5208  0.2498
 3726SOL     MW14904   0.588   3.867   5.093 -0.2752  0.3351  0.4744
 3727SOL     OW14905   3.675   2.805   1.017 -0.2073  0.0781 -0.6463
 3727SOL    HW114906   3.731   2.729   1.036 -0.3255  0.1241 -0.1070
 3727SOL    HW214907   3.635   2.827   1.101 -0.4663  0.5063 -0.8798
 3727SOL     MW14908   3.677   2.798   1.030 -0.2556  0.1388 -0.6072
 3728SOL     OW14909   0.673   1.919   3.690  0.1369  0.8171 -0.0203
 3728SOL    HW114910   0.694   1.965   3.771 -0.7686  0.9596  0.1333
 3728SOL    HW214911   0.730   1.841   3.692  1.0571  1.4747  0.1138
 3728SOL     MW14912   0.683   1.915   3.701  0.1388  0.9195  0.0165
 3729SOL     OW14913   3.895   2.710   3.344  0.1697  0.0813  0.0937
 3729SOL    HW114914   3.892   2.618   3.371 -0.7717  0.3486  0.9339
 3729SOL    HW214915   3.806   2.728   3.313  0.3208  0.7416  0.0419
 3729SOL     MW14916   3.883   2.700   3.343  0.0685  0.2000  0.1947
 3730SOL     OW14917   3.026   3.198   3.473 -0.2898 -0.3659 -0.4824
 3730SOL    HW114918   2.992   3.162   3.555  0.2832 -2.3162 -1.0532
 3730SOL    HW214919   3.044   3.290   3.494  0.9243 -1.0558  1.9407
 3730SOL     MW14920   3.024   3.205   3.487 -0.0611 -0.7039 -0.2453
 3731SOL     OW14921   2.685   4.556   3.270 -0.2522 -0.3305  0.4576
 3731SOL    HW114922   2.772   4.577   3.305 -0.9727 -0.1810  2.3165
 3731SOL    HW214923   2.643   4.641   3.260  0.3228 -0.2727 -2.0350
 3731SOL     MW14924   2.691   4.569   3.273 -0.2709 -0.3039  0.3765
 3732SOL     OW14925   4.054   3.805   5.250 -0.2880  0.6961 -0.5497
 3732SOL    HW114926   4.033   3.884   5.301  0.6612 -0.5750  1.9718
 3732SOL    HW214927   4.149   3.798   5.255 -0.4156 -1.0701  0.0570
 3732SOL     MW14928   4.063   3.814   5.257 -0.1829  0.3073 -0.1493
 3733SOL     OW14929   0.760   4.825   1.301  0.2045 -0.0895  0.1497
 3733SOL    HW114930   0.707   4.881   1.359  0.1211 -0.9318  0.9106
 3733SOL    HW214931   0.828   4.883   1.267  1.1593  0.1233  2.2536
 3733SOL     MW14932   0.762   4.840   1.304  0.3160 -0.1701  0.5164
 3734SOL     OW14933   0.728   2.741   3.124  0.2487  0.7690 -0.0139
 3734SOL    HW114934   0.770   2.734   3.038 -0.6023 -1.1026 -0.3351
 3734SOL    HW214935   0.635   2.751   3.104  0.2963  3.0718  0.6993
 3734SOL     MW14936   0.721   2.741   3.110  0.1458  0.8242  0.0363
 3735SOL     OW14937   2.178   5.463   1.879 -0.2444 -0.5294  0.0032
 3735SOL    HW114938   2.231   5.437   1.954 -1.6229  1.2139  1.6911
 3735SOL    HW214939   2.094   5.418   1.892 -0.5676 -0.0466 -0.3782
 3735SOL     MW14940   2.174   5.454   1.890 -0.4622 -0.2444  0.1705
 3736SOL     OW14941   4.143   2.102   0.087 -0.4473 -0.2655  0.1543
 3736SOL    HW114942   4.225   2.138   0.054  0.2402 -0.7661  1.2589
 3736SOL    HW214943   4.126   2.152   0.167 -0.7412 -0.7689  0.4130
 3736SOL     MW14944   4.151   2.113   0.093 -0.3969 -0.3940  0.3288
 3737SOL     OW14945   1.812   0.630   1.235 -0.2001  0.0757  0.5443
 3737SOL    HW114946   1.849   0.718   1.244 -1.5835  0.8162 -0.7003
 3737SOL    HW214947   1.827   0.590   1.321 -0.2723  1.8191  1.4286
 3737SOL     MW14948   1.819   0.636   1.247 -0.3864  0.3937  0.4982
 3738SOL     OW14949   2.745   2.026   1.638 -0.1177 -0.3283 -1.0156
 3738SOL    HW114950   2.688   2.028   1.714  1.7139 -1.4103  0.4869
 3738SOL    HW214951   2.761   1.932   1.623 -0.1996 -0.1215 -2.5692
 3738SOL     MW14952   2.740   2.014   1.646  0.1063 -0.4403 -1.0222
 3739SOL     OW14953   1.450   0.222   1.137 -0.5249  0.0043  0.3577
 3739SOL    HW114954   1.539   0.239   1.167 -0.5975 -0.6809  0.9857
 3739SOL    HW214955   1.422   0.305   1.098  0.2188  0.3679  0.5726
 3739SOL     MW14956   1.458   0.235   1.136 -0.4390 -0.0369  0.4656
 3740SOL     OW14957   2.572   4.462   3.727 -0.2255  0.5390  0.2930
 3740SOL    HW114958   2.646   4.411   3.693 -1.9430 -1.9343  0.0096
 3740SOL    HW214959   2.545   4.517   3.654  1.8666  2.2238  0.6990
 3740SOL     MW14960   2.578   4.462   3.713 -0.1776  0.4381  0.3087
 3741SOL     OW14961   0.708   2.716   1.526 -0.0709  0.8011 -0.6694
 3741SOL    HW114962   0.776   2.648   1.522 -1.6727 -0.8918 -0.3143
 3741SOL    HW214963   0.752   2.790   1.568  0.9712 -1.0448  1.7730
 3741SOL     MW14964   0.722   2.717   1.531 -0.1425  0.3481 -0.3113
 3742SOL     OW14965   4.796   5.306   5.348  0.7369 -0.0852  0.5109
 3742SOL    HW114966   4.755   5.390   5.371  1.8712  0.6356  0.0118
 3742SOL    HW214967   4.778   5.295   5.255  0.0876 -0.7032  0.7027
 3742SOL     MW14968   4.789   5.315   5.339  0.7990 -0.0721  0.4716
 3743SOL     OW14969   0.829   3.613   1.222 -0.4897 -0.0142 -0.0306
 3743SOL    HW114970   0.896   3.572   1.277 -1.5553 -0.2682  1.1338
 3743SOL    HW214971   0.756   3.629   1.282 -1.7681 -0.4569 -1.4039
 3743SOL     MW14972   0.828   3.609   1.237 -0.7897 -0.1034 -0.0574
 3744SOL     OW14973   1.452   5.111   5.237 -0.4074  0.3240 -0.1043
 3744SOL    HW114974   1.518   5.050   5.269  0.1288  1.3680  0.8567
 3744SOL    HW214975   1.378   5.056   5.213  0.1736 -0.7291  0.4552
 3744SOL     MW14976   1.451   5.096   5.238 -0.2644  0.3228  0.0903
 3745SOL     OW14977   0.180   5.354   5.002  0.1271  0.2379 -0.3263
 3745SOL    HW114978   0.226   5.364   5.085  0.5122 -1.6738 -0.2591
 3745SOL    HW214979   0.213   5.425   4.947 -0.2755  1.6464  1.1936
 3745SOL     MW14980   0.190   5.364   5.005  0.1249  0.1734 -0.1231
 3746SOL     OW14981   2.579   1.984   1.416  0.2926  0.2276  0.2993
 3746SOL    HW114982   2.499   1.934   1.431 -0.4762  1.1752 -0.5236
 3746SOL    HW214983   2.618   1.994   1.503  0.7207 -2.1542  0.4339
 3746SOL     MW14984   2.574   1.979   1.429  0.2490  0.0440  0.2112
 3747SOL     OW14985   1.838   1.100   1.146 -0.5497  0.2571  0.3686
 3747SOL    HW114986   1.877   1.161   1.208 -0.2630  0.5477 -0.0943
 3747SOL    HW214987   1.750   1.083   1.181 -0.6036  0.8692  0.5467
 3747SOL     MW14988   1.832   1.106   1.158 -0.5199  0.3726  0.3321
 3748SOL     OW14989   2.501   2.849   4.252 -0.1525 -0.3480  0.1646
 3748SOL    HW114990   2.548   2.767   4.262 -0.0124 -0.4932 -1.4769
 3748SOL    HW214991   2.418   2.825   4.211  0.0027  0.3578 -0.5866
 3748SOL     MW14992   2.496   2.835   4.248 -0.1147 -0.2762 -0.1417
 3749SOL     OW14993   4.600   4.798   3.553  0.2936  0.2418  0.1407
 3749SOL    HW114994   4.568   4.887   3.538 -0.8960 -0.0333  0.9256
 3749SOL    HW214995   4.523   4.749   3.583  0.6928 -1.3063 -1.1983
 3749SOL     MW14996   4.586   4.803   3.555  0.1924  0.0084  0.0698
 3750SOL     OW14997   4.151   2.951   4.570  0.2249  0.1156 -0.4183
 3750SOL    HW114998   4.118   3.029   4.615  0.1888  1.2382 -2.2997
 3750SOL    HW214999   4.230   2.927   4.618  0.2439  1.3246  0.1931
 3750SOL     MW15000   4.157   2.958   4.582  0.2227  0.4141 -0.5809
 3751SOL     OW15001   2.276   0.784   5.128  0.1177 -0.4131  1.1628
 3751SOL    HW115002   2.270   0.802   5.034  0.0063 -0.0622  1.2358
 3751SOL    HW215003   2.353   0.727   5.136  0.1940 -0.3547  0.8729
 3751SOL     MW15004   2.285   0.779   5.117  0.1132 -0.3607  1.1351
 3752SOL     OW15005   1.002   2.807   0.797  0.5641 -0.1164 -0.1206
 3752SOL    HW115006   1.076   2.756   0.765  1.6479  0.4070  1.4564
 3752SOL    HW215007   0.955   2.747   0.854  0.2214 -0.1960 -0.4812
 3752SOL     MW15008   1.005   2.793   0.800  0.6589 -0.0596  0.0351
 3753SOL     OW15009   1.756   2.443   0.564  0.0908 -0.4217 -0.0544
 3753SOL    HW115010   1.744   2.497   0.486  0.7940  0.1875  0.2441
 3753SOL    HW215011   1.822   2.490   0.616  0.0029 -1.0732  0.6691
 3753SOL     MW15012   1.763   2.456   0.561  0.1696 -0.4271  0.0764
 3754SOL     OW15013   1.511   2.999   1.034 -0.2302  0.3998  0.1634
 3754SOL    HW115014   1.553   3.027   1.115 -0.6430 -1.1676  0.9736
 3754SOL    HW215015   1.440   2.942   1.062  0.3530 -1.1577 -1.3116
 3754SOL     MW15016   1.507   2.995   1.048 -0.2084 -0.0002  0.0783
 3755SOL     OW15017   1.970   5.150   0.352  0.3560 -0.5452  0.0627
 3755SOL    HW115018   2.049   5.198   0.377 -0.1620  0.7820 -0.7262
 3755SOL    HW215019   1.904   5.176   0.416  0.6970 -2.1637  1.1178
 3755SOL     MW15020   1.972   5.160   0.363  0.3334 -0.5825  0.0968
 3756SOL     OW15021   2.832   2.106   2.344 -0.0690  0.4592 -0.2019
 3756SOL    HW115022   2.745   2.069   2.330  0.4111 -0.4073 -0.9276
 3756SOL    HW215023   2.858   2.074   2.430 -1.1355  2.0937  0.7935
 3756SOL     MW15024   2.825   2.097   2.353 -0.1441  0.5575 -0.1674
 3757SOL     OW15025   4.645   0.899   0.782  0.0805  0.2437 -0.1010
 3757SOL    HW115026   4.686   0.851   0.710 -0.6374  0.8277 -0.9251
 3757SOL    HW215027   4.640   0.836   0.854 -1.2446 -1.0895 -1.2824
 3757SOL     MW15028   4.650   0.885   0.782 -0.1810  0.1478 -0.3577
 3758SOL     OW15029   4.484   3.920   0.618 -0.1515 -0.4313 -0.0226
 3758SOL    HW115030   4.442   3.863   0.683  0.7986 -0.8784  0.2113
 3758SOL    HW215031   4.425   3.917   0.542 -1.3443  0.2042  0.8407
 3758SOL     MW15032   4.471   3.912   0.616 -0.1826 -0.4072  0.1178
 3759SOL     OW15033   0.610   4.445   1.798 -0.4748  0.2413  0.2000
 3759SOL    HW115034   0.702   4.442   1.770  0.0048  2.8581  1.1656
 3759SOL    HW215035   0.607   4.387   1.874  0.2683 -0.2669 -0.1426
 3759SOL     MW15036   0.622   4.437   1.804 -0.3183  0.5112  0.2798
 3760SOL     OW15037   4.705   1.706   2.225 -0.1152 -0.6659 -0.0707
 3760SOL    HW115038   4.730   1.798   2.233 -0.0175 -0.7908  1.5236
 3760SOL    HW215039   4.622   1.700   2.273  0.3891 -1.5726  0.7223
 3760SOL     MW15040   4.698   1.717   2.232 -0.0382 -0.7980  0.2349
 3761SOL     OW15041   0.775   4.788   0.408  0.3861 -0.0281 -0.2228
 3761SOL    HW115042   0.853   4.734   0.401  1.6333  1.4982  1.2300
 3761SOL    HW215043   0.736   4.785   0.320  1.6934 -1.3348 -0.7970
 3761SOL     MW15044   0.780   4.781   0.396  0.7131  0.0000 -0.1103
 3762SOL     OW15045   1.523   3.421   2.883 -0.0995  0.3049  0.8158
 3762SOL    HW115046   1.491   3.344   2.837  0.4541 -0.0933  1.0901
 3762SOL    HW215047   1.444   3.460   2.922 -0.6563  0.9648 -0.9031
 3762SOL     MW15048   1.509   3.416   2.882 -0.0999  0.3384  0.6308
 3763SOL     OW15049   5.386   2.300   1.683  0.2681  0.1523  0.2150
 3763SOL    HW115050   5.407   2.263   1.768 -0.2071  0.2798  0.3922
 3763SOL    HW215051   5.290   2.303   1.681  0.2866  1.6328  0.3213
 3763SOL     MW15052   5.376   2.296   1.693  0.2096  0.3581  0.2513
 3764SOL     OW15053   1.902   1.445   4.122 -0.5093  0.7210  0.1450
 3764SOL    HW115054   1.930   1.449   4.214  3.5905 -0.0779 -0.8752
 3764SOL    HW215055   1.932   1.360   4.091 -1.1137  1.2657 -2.1564
 3764SOL     MW15056   1.909   1.435   4.130 -0.0619  0.6884 -0.2802
 3765SOL     OW15057   1.082   2.336   5.378  0.3207 -0.0266 -0.1775
 3765SOL    HW115058   1.060   2.244   5.365 -0.4917 -0.4544  3.1333
 3765SOL    HW215059   1.178   2.336   5.388  0.1566 -0.9632  1.9611
 3765SOL     MW15060   1.092   2.325   5.378  0.1957 -0.2013  0.5201
 3766SOL     OW15061   1.116   5.107   3.113 -0.4012  0.0697  0.5237
 3766SOL    HW115062   1.045   5.117   3.050  0.6923 -1.1676 -0.9809
 3766SOL    HW215063   1.122   5.192   3.156 -0.1936  1.5353 -2.1679
 3766SOL     MW15064   1.108   5.119   3.110 -0.2346  0.0989 -0.0135
 3767SOL     OW15065   3.336   4.264   1.678 -0.2718  0.4307 -0.6309
 3767SOL    HW115066   3.242   4.255   1.691 -0.0035 -1.4568  0.5471
 3767SOL    HW215067   3.370   4.287   1.765  0.2145  3.1723 -1.4586
 3767SOL     MW15068   3.328   4.265   1.691 -0.1752  0.5400 -0.5860
 3768SOL     OW15069   3.359   3.547   1.973  0.2984  0.2534  0.3435
 3768SOL    HW115070   3.416   3.479   1.938  0.0267 -0.0662  0.5103
 3768SOL    HW215071   3.412   3.590   2.040  0.5907  0.4344 -0.0055
 3768SOL     MW15072   3.373   3.544   1.977  0.3010  0.2356  0.3201
 3769SOL     OW15073   4.705   5.201   1.239  0.0542 -0.0979  0.1983
 3769SOL    HW115074   4.745   5.210   1.152  0.6460 -1.5660  0.2904
 3769SOL    HW215075   4.707   5.106   1.256  0.3505  0.2057  2.0002
 3769SOL     MW15076   4.711   5.190   1.230  0.1679 -0.2470  0.4408
 3770SOL     OW15077   0.683   0.272   1.126 -0.2140 -0.0062  0.5431
 3770SOL    HW115078   0.599   0.237   1.098 -0.2224 -1.4456  2.2065
 3770SOL    HW215079   0.746   0.205   1.102  0.5326  1.1284 -0.8311
 3770SOL     MW15080   0.680   0.259   1.119 -0.1195 -0.0452  0.5801
 3771SOL     OW15081   1.314   4.210   0.901 -0.1567  0.1022 -0.0145
 3771SOL    HW115082   1.274   4.204   0.814 -0.9991  0.1825  0.3583
 3771SOL    HW215083   1.354   4.297   0.903 -1.4461  0.7213  0.2049
 3771SOL     MW15084   1.314   4.221   0.890 -0.4296  0.1917  0.0613
 3772SOL     OW15085   3.652   0.270   1.648 -0.3440 -0.3252  0.4684
 3772SOL    HW115086   3.710   0.337   1.685  1.9634 -1.3638 -1.0041
 3772SOL    HW215087   3.603   0.317   1.580  0.4387  0.1196  0.1916
 3772SOL     MW15088   3.653   0.285   1.644  0.0516 -0.4012  0.2445
 3773SOL     OW15089   4.186   1.078   3.025  0.5994  0.1695  0.2570
 3773SOL    HW115090   4.135   1.058   3.103 -1.6520  0.9305 -0.9585
 3773SOL    HW215091   4.217   1.167   3.039  0.3766  0.2300  0.3676
 3773SOL     MW15092   4.184   1.087   3.037  0.2827  0.2747  0.1156
 3774SOL     OW15093   1.583   3.330   0.805 -0.3084  0.4810  0.1374
 3774SOL    HW115094   1.510   3.343   0.743 -0.9134 -0.9603  0.5122
 3774SOL    HW215095   1.639   3.407   0.792 -1.2345  0.9880 -1.0754
 3774SOL     MW15096   1.581   3.342   0.795 -0.5044  0.3614  0.0301
 3775SOL     OW15097   2.682   0.450   5.364  0.3259  0.2889  0.6553
 3775SOL    HW115098   2.759   0.418   5.317 -0.1739  0.4235 -0.2932
 3775SOL    HW215099   2.612   0.390   5.338 -0.1591  0.9015  0.5140
 3775SOL     MW15100   2.683   0.438   5.354  0.1998  0.3846  0.5158
 3776SOL     OW15101   4.109   3.568   0.643  0.2958  0.5423  0.1787
 3776SOL    HW115102   4.107   3.504   0.714 -0.5330  0.3825  0.0195
 3776SOL    HW215103   4.090   3.517   0.564 -0.3181  0.9664  0.0440
 3776SOL     MW15104   4.106   3.553   0.642  0.1112  0.5762  0.1411
 3777SOL     OW15105   0.985   1.700   2.171  0.1345  0.4290  0.5183
 3777SOL    HW115106   0.942   1.737   2.248 -0.4914 -0.5501  0.6576
 3777SOL    HW215107   1.009   1.611   2.197 -0.0256  0.1060 -0.3817
 3777SOL     MW15108   0.982   1.693   2.184  0.0339  0.2623  0.4209
 3778SOL     OW15109   2.620   4.582   4.339 -0.0308  0.0359 -0.3104
 3778SOL    HW115110   2.672   4.662   4.333  0.3588 -0.0183  1.6587
 3778SOL    HW215111   2.530   4.613   4.342  0.1146  0.4227  0.3994
 3778SOL     MW15112   2.615   4.597   4.339  0.0377  0.0785  0.0325
 3779SOL     OW15113   0.132   2.558   4.167 -0.1218  0.0560  0.1202
 3779SOL    HW115114   0.224   2.533   4.181  0.8337  1.9190 -1.9986
 3779SOL    HW215115   0.124   2.643   4.211 -1.1209 -0.5189  1.0642
 3779SOL     MW15116   0.143   2.566   4.174 -0.1274  0.2209 -0.0302
 3780SOL     OW15117   1.347   0.314   3.053 -0.2035 -0.2283  0.3054
 3780SOL    HW115118   1.368   0.380   2.986 -0.6730  0.0046  0.3861
 3780SOL    HW215119   1.251   0.308   3.051 -0.1069 -2.4704 -1.2152
 3780SOL     MW15120   1.337   0.322   3.044 -0.2512 -0.4855  0.1210
 3781SOL     OW15121   4.753   5.421   1.634  0.3415  0.4760  0.4065
 3781SOL    HW115122   4.790   5.509   1.641  0.4844  0.3157  2.1219
 3781SOL    HW215123   4.779   5.391   1.547 -0.4930  2.4432 -0.5786
 3781SOL     MW15124   4.761   5.429   1.624  0.2530  0.7073  0.5000
 3782SOL     OW15125   4.400   0.573   1.421 -0.3781 -0.0532 -0.1492
 3782SOL    HW115126   4.430   0.504   1.363 -0.6061 -0.2099 -0.0813
 3782SOL    HW215127   4.471   0.637   1.421 -0.7790  0.4121 -1.3445
 3782SOL     MW15128   4.413   0.573   1.414 -0.4586 -0.0137 -0.2935
 3783SOL     OW15129   2.157   5.344   2.930 -0.4903 -0.4487 -0.2754
 3783SOL    HW115130   2.182   5.398   3.005 -1.0231 -1.9868  1.0668
 3783SOL    HW215131   2.118   5.406   2.868 -0.2730  0.8306  0.8210
 3783SOL     MW15132   2.155   5.359   2.932 -0.5307 -0.4819  0.0368
 3784SOL     OW15133   3.758   3.522   1.719 -0.2194  0.0024 -0.0254
 3784SOL    HW115134   3.695   3.591   1.698 -0.2106 -0.0652 -0.2752
 3784SOL    HW215135   3.843   3.567   1.721  0.3403 -0.5783 -3.8122
 3784SOL     MW15136   3.761   3.537   1.717 -0.1466 -0.0806 -0.5422
 3785SOL     OW15137   1.577   3.692   5.185 -0.0378 -0.7909  0.5776
 3785SOL    HW115138   1.518   3.704   5.111 -0.8014 -3.4810  0.6609
 3785SOL    HW215139   1.519   3.682   5.261  0.7257  2.2374  1.7260
 3785SOL     MW15140   1.562   3.692   5.185 -0.0378 -0.7476  0.7352
 3786SOL     OW15141   2.169   4.071   4.274  0.0187  0.0440  0.0442
 3786SOL    HW115142   2.219   3.991   4.258  2.5813  0.8755  2.8419
 3786SOL    HW215143   2.205   4.135   4.213  1.2316  0.1678  0.8512
 3786SOL     MW15144   2.180   4.069   4.264  0.5020  0.1663  0.5057
 3787SOL     OW15145   1.111   4.560   1.449  0.8453 -0.1042  0.2360
 3787SOL    HW115146   1.129   4.536   1.358  2.0961  0.4473  0.3276
 3787SOL    HW215147   1.111   4.656   1.449  2.2260 -0.0840  1.0667
 3787SOL     MW15148   1.113   4.569   1.437  1.1821 -0.0310  0.3541
 3788SOL     OW15149   0.098   2.943   1.904 -0.2125 -0.4953  0.6453
 3788SOL    HW115150   0.179   2.992   1.921 -0.0282 -0.5228 -0.1091
 3788SOL    HW215151   0.035   3.010   1.878 -0.6400 -0.3908  1.8843
 3788SOL     MW15152   0.101   2.958   1.903 -0.2436 -0.4854  0.7073
 3789SOL     OW15153   3.722   0.821   1.378 -0.1505 -0.5095  0.6432
 3789SOL    HW115154   3.629   0.836   1.392 -0.1619 -1.2495  1.4291
 3789SOL    HW215155   3.758   0.809   1.466  0.5140 -1.1788  0.2909
 3789SOL     MW15156   3.715   0.822   1.391 -0.0669 -0.6899  0.6987
 3790SOL     OW15157   2.243   3.340   0.743 -0.2571 -0.0816 -0.9043
 3790SOL    HW115158   2.195   3.261   0.716  0.4304 -0.8108 -0.0440
 3790SOL    HW215159   2.334   3.313   0.746  0.0120  0.8105 -0.7812
 3790SOL     MW15160   2.248   3.326   0.740 -0.1346 -0.0607 -0.7784
 3791SOL     OW15161   1.814   4.930   2.577  0.1702  0.4278  0.0677
 3791SOL    HW115162   1.754   4.950   2.506  2.3427 -0.2865 -2.0857
 3791SOL    HW215163   1.839   4.839   2.563  1.9142  0.7580  0.7374
 3791SOL     MW15164   1.809   4.921   2.566  0.6716  0.3786 -0.1222
 3792SOL     OW15165   4.509   3.198   3.301  0.7199 -0.2682 -0.4729
 3792SOL    HW115166   4.532   3.269   3.361 -0.2031  1.4809 -2.0588
 3792SOL    HW215167   4.575   3.131   3.316  0.1429 -0.2493  2.9219
 3792SOL     MW15168   4.520   3.199   3.311  0.5279 -0.0419 -0.2413
 3793SOL     OW15169   1.518   2.306   1.578  0.5022 -0.1113  0.5281
 3793SOL    HW115170   1.591   2.315   1.639  0.4232  0.5649  0.5292
 3793SOL    HW215171   1.451   2.366   1.611 -0.0917 -0.7819  0.5731
 3793SOL     MW15172   1.519   2.315   1.590  0.4161 -0.1106  0.5340
 3794SOL     OW15173   0.963   2.027   1.492 -0.2503 -0.3376 -0.5130
 3794SOL    HW115174   0.869   2.043   1.494 -0.7006 -2.5844 -1.3052
 3794SOL    HW215175   0.988   2.017   1.584 -0.3154  2.3857 -0.1326
 3794SOL     MW15176   0.954   2.028   1.504 -0.3162 -0.2766 -0.5657
 3795SOL     OW15177   4.116   4.757   0.526 -0.0711 -0.2465 -0.1626
 3795SOL    HW115178   4.048   4.758   0.592 -1.0767  3.3258 -1.0867
 3795SOL    HW215179   4.069   4.756   0.442  1.1564 -2.2622 -0.9227
 3795SOL     MW15180   4.102   4.757   0.524 -0.0427 -0.0473 -0.3782
 3796SOL     OW15181   0.383   2.442   0.201 -0.2312  0.1455  0.3897
 3796SOL    HW115182   0.306   2.398   0.165 -0.1125  0.5175 -0.3423
 3796SOL    HW215183   0.370   2.440   0.295 -0.5281 -0.9005  0.3396
 3796SOL     MW15184   0.372   2.436   0.208 -0.2540  0.0592  0.2896
 3797SOL     OW15185   2.257   0.413   1.712  0.1759  0.1083 -0.2695
 3797SOL    HW115186   2.257   0.441   1.620  2.4774 -0.3918 -0.4912
 3797SOL    HW215187   2.232   0.321   1.708 -0.8013  0.3601 -0.2505
 3797SOL     MW15188   2.254   0.405   1.700  0.3455  0.0765 -0.2954
 3798SOL     OW15189   1.196   0.087   2.439 -0.1695  0.0095  0.0321
 3798SOL    HW115190   1.186   0.180   2.456  1.7719  0.2887 -0.1492
 3798SOL    HW215191   1.108   0.051   2.449 -1.0385  1.9172 -0.3451
 3798SOL     MW15192   1.184   0.094   2.442 -0.0322  0.2894 -0.0394
 3799SOL     OW15193   3.600   4.857   4.968 -0.3309  0.4642 -0.0463
 3799SOL    HW115194   3.640   4.937   5.003  0.3191 -0.1470  0.6530
 3799SOL    HW215195   3.540   4.829   5.037 -0.5247  0.3284 -0.2721
 3799SOL     MW15196   3.598   4.864   4.982 -0.2725  0.3685  0.0143
 3800SOL     OW15197   1.449   3.399   4.848  0.2113 -0.4442  0.1811
 3800SOL    HW115198   1.447   3.368   4.939 -0.6331 -1.6692 -0.2366
 3800SOL    HW215199   1.541   3.424   4.834  0.1852  0.6353  1.6272
 3800SOL     MW15200   1.461   3.399   4.858  0.0998 -0.4628  0.3127
 3801SOL     OW15201   4.102   1.992   2.267 -0.3784  0.4347 -0.2944
 3801SOL    HW115202   4.078   2.019   2.356  0.3394  1.2479 -0.3283
 3801SOL    HW215203   4.019   1.969   2.226 -0.8018  0.7176  0.3765
 3801SOL     MW15204   4.088   1.993   2.273 -0.3407  0.5750 -0.2129
 3802SOL     OW15205   1.160   2.799   2.077  0.7021  0.0204  0.3879
 3802SOL    HW115206   1.086   2.853   2.105  0.5666 -0.2335  0.5193
 3802SOL    HW215207   1.218   2.860   2.032  0.1438  0.1095 -0.2229
 3802SOL     MW15208   1.158   2.814   2.075  0.6133 -0.0007  0.3265
 3803SOL     OW15209   0.851   0.251   2.039 -0.0550 -0.0815  0.4721
 3803SOL    HW115210   0.761   0.274   2.016  0.0558 -0.1519 -0.0482
 3803SOL    HW215211   0.844   0.170   2.090 -0.1768 -0.9843 -0.9413
 3803SOL     MW15212   0.839   0.244   2.043 -0.0564 -0.2061  0.2246
 3804SOL     OW15213   0.867   5.404   1.917 -0.4647 -0.1929  0.3621
 3804SOL    HW115214   0.959   5.418   1.893 -0.4135  0.6702  0.9614
 3804SOL    HW215215   0.857   5.309   1.922 -0.3906 -0.4400 -2.5530
 3804SOL     MW15216   0.877   5.394   1.915 -0.4487 -0.1141  0.0657
 3805SOL     OW15217   3.977   1.590   0.525 -0.2205  0.1882  0.2626
 3805SOL    HW115218   3.892   1.615   0.562 -0.5722 -1.9338  1.1042
 3805SOL    HW215219   4.002   1.512   0.576  1.2192 -0.4845 -1.3762
 3805SOL     MW15220   3.970   1.583   0.536 -0.0813 -0.1695  0.1606
 3806SOL     OW15221   1.852   4.116   2.639 -0.3567 -0.1437 -0.0603
 3806SOL    HW115222   1.761   4.096   2.616  0.0799 -2.7265  0.1114
 3806SOL    HW215223   1.893   4.140   2.555 -0.9894  0.2487 -0.2698
 3806SOL     MW15224   1.846   4.117   2.625 -0.3818 -0.4241 -0.0652
 3807SOL     OW15225   5.134   3.047   1.763 -0.4147  0.4202 -0.2320
 3807SOL    HW115226   5.119   3.059   1.857 -2.9814 -0.1190 -0.4809
 3807SOL    HW215227   5.160   2.955   1.755  2.5914  1.1362  0.1243
 3807SOL     MW15228   5.135   3.037   1.774 -0.3585  0.4428 -0.2183
 3808SOL     OW15229   2.342   0.669   4.500  0.1447 -0.6491  0.5294
 3808SOL    HW115230   2.385   0.653   4.416  1.9633 -0.1137  1.3068
 3808SOL    HW215231   2.288   0.746   4.485  0.8388 -0.2584 -0.0334
 3808SOL     MW15232   2.341   0.677   4.487  0.4664 -0.5306  0.5569
 3809SOL     OW15233   3.982   1.061   0.942  0.5034 -0.7311  0.8148
 3809SOL    HW115234   4.069   1.059   0.982  1.2266  0.0790 -0.6485
 3809SOL    HW215235   3.997   1.097   0.854 -1.6464  2.1649  1.4843
 3809SOL     MW15236   3.995   1.066   0.936  0.3208 -0.2567  0.7132
 3810SOL     OW15237   1.410   4.814   0.565 -0.4057 -0.1498  0.2479
 3810SOL    HW115238   1.505   4.807   0.556  0.0905  1.7399  2.7936
 3810SOL    HW215239   1.384   4.877   0.497  0.0447 -1.0178 -0.7585
 3810SOL     MW15240   1.419   4.821   0.555 -0.2845 -0.0190  0.4450
 3811SOL     OW15241   0.864   5.472   1.140 -0.4331  0.0568  0.1639
 3811SOL    HW115242   0.842   5.452   1.231 -0.0558  0.2033  0.2869
 3811SOL    HW215243   0.955   5.499   1.143 -0.2945 -0.3421 -0.3164
 3811SOL     MW15244   0.873   5.473   1.152 -0.3671  0.0245  0.1181
 3812SOL     OW15245   4.629   3.825   1.909 -0.1323 -0.1780 -0.0065
 3812SOL    HW115246   4.642   3.746   1.857  1.8246 -0.2753  0.5479
 3812SOL    HW215247   4.545   3.860   1.879 -0.5913 -1.9443 -0.9228
 3812SOL     MW15248   4.620   3.820   1.899  0.0594 -0.4165 -0.0528
 3813SOL     OW15249   4.956   4.995   4.734  0.4574 -0.5447  0.2009
 3813SOL    HW115250   4.931   4.936   4.663  1.2558 -0.3589 -0.2446
 3813SOL    HW215251   4.908   4.963   4.811  0.1387 -1.1741 -0.2566
 3813SOL     MW15252   4.946   4.983   4.735  0.5188 -0.6015  0.0853
 3814SOL     OW15253   3.842   0.032   2.359 -0.9075  0.1445  0.1542
 3814SOL    HW115254   3.764  -0.002   2.315 -1.2180  1.2155 -0.1612
 3814SOL    HW215255   3.888   0.082   2.291  0.3819 -0.9571  0.1771
 3814SOL     MW15256   3.838   0.034   2.344 -0.7822  0.1406  0.1168
 3815SOL     OW15257   1.655   2.947   3.868  0.1257 -0.1434  0.5844
 3815SOL    HW115258   1.685   2.989   3.948 -1.1251 -0.2266  1.1204
 3815SOL    HW215259   1.718   2.974   3.801  0.6871  0.6331  1.4089
 3815SOL     MW15260   1.667   2.956   3.870  0.0374 -0.0546  0.7586
 3816SOL     OW15261   4.083   1.932   1.641 -0.2385 -0.4253 -0.5663
 3816SOL    HW115262   4.058   2.004   1.583  1.8635  0.4953 -0.3993
 3816SOL    HW215263   4.031   1.946   1.720 -1.0508 -0.0558 -1.1454
 3816SOL     MW15264   4.073   1.943   1.644 -0.0734 -0.2602 -0.6190
 3817SOL     OW15265   5.176   2.514   3.969 -0.2499  0.5316 -0.3435
 3817SOL    HW115266   5.152   2.434   4.017 -0.7050  0.5722 -0.4998
 3817SOL    HW215267   5.271   2.512   3.966 -0.0688  1.4200  2.1407
 3817SOL     MW15268   5.185   2.504   3.975 -0.2850  0.6505 -0.0455
 3818SOL     OW15269   3.785   3.103   0.677 -0.5094  0.0556 -0.1221
 3818SOL    HW115270   3.752   3.187   0.709  0.6483  0.7531 -0.7076
 3818SOL    HW215271   3.717   3.071   0.618  0.2672  2.0213 -2.2272
 3818SOL     MW15272   3.772   3.109   0.674 -0.2618  0.3965 -0.4665
 3819SOL     OW15273   5.409   1.388   5.123  0.7655 -0.2361 -0.6748
 3819SOL    HW115274   5.374   1.301   5.140 -1.1491  0.5028 -0.5780
 3819SOL    HW215275   5.455   1.379   5.039  1.9618 -1.6594  0.0893
 3819SOL     MW15276   5.410   1.376   5.114  0.6735 -0.3237 -0.5646
 3820SOL     OW15277   3.779   3.877   1.040  0.6082  0.2013  0.4508
 3820SOL    HW115278   3.716   3.808   1.018 -2.1117  2.6851 -0.3649
 3820SOL    HW215279   3.793   3.868   1.134 -1.0117 -0.5162  0.6664
 3820SOL     MW15280   3.773   3.867   1.049  0.0526  0.4274  0.3740
 3821SOL     OW15281   1.321   3.924   1.947  0.2966 -0.3000 -0.7072
 3821SOL    HW115282   1.270   3.873   1.885 -2.1972 -1.6222  2.1464
 3821SOL    HW215283   1.377   3.860   1.990  0.0362  0.0534  0.1902
 3821SOL     MW15284   1.322   3.909   1.945 -0.0560 -0.4241 -0.2270
 3822SOL     OW15285   1.134   2.642   1.843 -0.0482 -0.3943 -0.3700
 3822SOL    HW115286   1.145   2.697   1.920  1.1446  0.0854 -0.8569
 3822SOL    HW215287   1.207   2.581   1.846  0.5540  0.2194 -1.5786
 3822SOL     MW15288   1.145   2.641   1.853  0.1816 -0.2543 -0.5870
 3823SOL     OW15289   2.626   2.665   3.711  0.2221 -0.1644 -0.1569
 3823SOL    HW115290   2.548   2.670   3.656  0.3307  0.3349 -0.2761
 3823SOL    HW215291   2.593   2.652   3.800  0.0979 -2.9922 -0.5436
 3823SOL     MW15292   2.612   2.664   3.715  0.2201 -0.4625 -0.2216
 3824SOL     OW15293   3.381   0.862   4.022  0.1645  0.0572  0.1775
 3824SOL    HW115294   3.335   0.855   3.938  0.7244 -0.4062 -0.0946
 3824SOL    HW215295   3.473   0.851   3.999  0.2545 -0.8805  0.9633
 3824SOL     MW15296   3.387   0.860   4.008  0.2477 -0.1221  0.2433
 3825SOL     OW15297   3.862   0.478   2.324 -0.3846  0.1589  0.6344
 3825SOL    HW115298   3.911   0.541   2.270 -0.7417  0.0583  0.1789
 3825SOL    HW215299   3.822   0.531   2.393 -0.2571  0.3535  0.5594
 3825SOL     MW15300   3.863   0.493   2.326 -0.4140  0.1709  0.5665
 3826SOL     OW15301   0.892   0.017   2.164 -0.0895  0.4289  0.6934
 3826SOL    HW115302   0.984   0.038   2.154 -0.0518  0.1853  0.5235
 3826SOL    HW215303   0.868  -0.027   2.082 -0.4578  0.8501  0.5686
 3826SOL     MW15304   0.901   0.014   2.152 -0.1318  0.4516  0.6557
 3827SOL     OW15305   5.272   0.403   1.815  0.4512 -0.0472 -0.0970
 3827SOL    HW115306   5.268   0.354   1.733 -2.6184  0.9532 -0.7102
 3827SOL    HW215307   5.297   0.492   1.788  2.0623 -0.3056  0.4603
 3827SOL     MW15308   5.274   0.408   1.801  0.2645  0.0478 -0.1042
 3828SOL     OW15309   4.956   0.970   1.100 -0.3239  0.0593 -0.2027
 3828SOL    HW115310   4.929   0.883   1.070 -2.2269  0.0419  1.3340
 3828SOL    HW215311   4.925   0.974   1.191  2.1220  1.3520  0.6627
 3828SOL     MW15312   4.948   0.959   1.108 -0.2544  0.2226  0.1048
 3829SOL     OW15313   2.129   5.048   2.902  0.4444  0.1579 -0.2147
 3829SOL    HW115314   2.138   5.143   2.901  0.8745  0.1762  1.6919
 3829SOL    HW215315   2.079   5.030   2.981 -0.2133 -1.1889 -0.8995
 3829SOL     MW15316   2.123   5.058   2.912  0.4153 -0.0121 -0.0583
 3830SOL     OW15317   0.890   0.197   0.666 -0.7259 -0.8795  0.1446
 3830SOL    HW115318   0.920   0.275   0.618  0.5286 -1.1273  0.4757
 3830SOL    HW215319   0.892   0.224   0.758  1.1364 -1.6956  0.3951
 3830SOL     MW15320   0.894   0.211   0.672 -0.3270 -1.0157  0.2191
 3831SOL     OW15321   0.338   5.433   1.724 -0.3010  0.0640 -0.4938
 3831SOL    HW115322   0.285   5.435   1.803 -0.8828 -1.6524 -0.7932
 3831SOL    HW215323   0.418   5.386   1.750  0.1274  0.7385 -0.5779
 3831SOL     MW15324   0.342   5.427   1.737 -0.3207 -0.0694 -0.5429
 3832SOL     OW15325   4.196   1.019   5.258 -0.0233  0.6496 -0.0510
 3832SOL    HW115326   4.167   1.018   5.349  1.8739  0.2990  0.6025
 3832SOL    HW215327   4.169   0.934   5.223 -1.6074  1.1516 -0.1558
 3832SOL     MW15328   4.189   1.008   5.265  0.0167  0.6690  0.0192
 3833SOL     OW15329   2.705   2.908   3.642  0.2208 -0.2116  0.1396
 3833SOL    HW115330   2.674   2.917   3.552 -1.5713  0.5996  0.7779
 3833SOL    HW215331   2.697   2.814   3.660 -0.4150 -0.2327 -0.2233
 3833SOL     MW15332   2.700   2.897   3.633 -0.0900 -0.1105  0.1749
 3834SOL     OW15333   3.149   4.126   1.241  0.6339  0.2079 -0.0747
 3834SOL    HW115334   3.093   4.120   1.164 -1.2046 -1.1428  1.2820
 3834SOL    HW215335   3.179   4.217   1.242 -1.3745  0.9391 -0.9921
 3834SOL     MW15336   3.146   4.137   1.232  0.1414  0.1286 -0.0185
 3835SOL     OW15337   1.386   4.712   4.124 -0.1848  0.5051  0.2511
 3835SOL    HW115338   1.412   4.632   4.170  1.5979  1.2863  0.6956
 3835SOL    HW215339   1.442   4.713   4.046 -0.3958  1.1683  0.1026
 3835SOL     MW15340   1.396   4.701   4.120  0.0164  0.6900  0.2890
 3836SOL     OW15341   1.466   0.279   1.652 -0.0510 -0.1971  0.6057
 3836SOL    HW115342   1.374   0.305   1.652  0.0816  0.3157  1.3335
 3836SOL    HW215343   1.513   0.361   1.666  0.4838 -0.5327  0.8029
 3836SOL     MW15344   1.460   0.293   1.654  0.0345 -0.1744  0.7241
 3837SOL     OW15345   3.523   3.706   1.723 -0.2221 -0.6181 -0.1538
 3837SOL    HW115346   3.565   3.784   1.760 -1.5605  0.3921 -0.6747
 3837SOL    HW215347   3.430   3.719   1.739 -0.4720 -2.2130 -0.1222
 3837SOL     MW15348   3.517   3.718   1.730 -0.4254 -0.6930 -0.2164
 3838SOL     OW15349   0.539   3.982   0.570  0.1787 -0.2259  0.3983
 3838SOL    HW115350   0.628   3.998   0.538  0.3608  1.2774  1.5868
 3838SOL    HW215351   0.484   4.038   0.516 -0.0932 -1.1943 -0.3726
 3838SOL     MW15352   0.543   3.991   0.559  0.1672 -0.1574  0.4518
 3839SOL     OW15353   3.792   1.584   1.761 -0.4636 -0.3573  0.0581
 3839SOL    HW115354   3.712   1.568   1.710 -0.2007  1.6896 -1.1000
 3839SOL    HW215355   3.854   1.620   1.698  0.8110 -0.3005  1.2975
 3839SOL     MW15356   3.789   1.586   1.747 -0.2668 -0.0880  0.0685
 3840SOL     OW15357   5.444   1.906   3.477 -0.3914 -0.1425 -0.0065
 3840SOL    HW115358   5.368   1.864   3.517  0.4664 -0.9870  0.7985
 3840SOL    HW215359   5.505   1.919   3.550 -0.5192  2.3531 -0.2371
 3840SOL     MW15360   5.442   1.903   3.492 -0.2979  0.0688  0.0671
 3841SOL     OW15361   0.916   3.748   4.924 -0.5768 -0.2245  0.7006
 3841SOL    HW115362   0.937   3.669   4.876 -0.1001  0.1126  0.3429
 3841SOL    HW215363   0.911   3.817   4.857  2.2029  0.6865  1.2563
 3841SOL     MW15364   0.918   3.747   4.909 -0.1600 -0.0647  0.7259
 3842SOL     OW15365   2.901   2.040   1.291 -0.0177 -0.1357 -0.6912
 3842SOL    HW115366   2.969   2.009   1.350  0.0195  0.4953 -0.3985
 3842SOL    HW215367   2.855   2.108   1.340 -2.1312 -1.8481 -0.1386
 3842SOL     MW15368   2.904   2.045   1.305 -0.2835 -0.2741 -0.5830
 3843SOL     OW15369   5.374   5.356   4.454  0.1434  0.5366  0.3049
 3843SOL    HW115370   5.347   5.423   4.392  0.7823  3.4523  2.9321
 3843SOL    HW215371   5.293   5.331   4.499 -0.2649 -1.3346 -1.3482
 3843SOL     MW15372   5.360   5.361   4.452  0.1729  0.6703  0.4296
 3844SOL     OW15373   2.377   5.384   2.567  0.0654  0.6229 -0.2375
 3844SOL    HW115374   2.409   5.304   2.524 -1.3718  0.0712 -0.3458
 3844SOL    HW215375   2.288   5.395   2.533 -0.4594  1.1784  1.2588
 3844SOL     MW15376   2.369   5.375   2.557 -0.1858  0.6234 -0.0598
 3845SOL     OW15377   5.276   2.171   5.207  0.4781  0.1472  0.4848
 3845SOL    HW115378   5.196   2.194   5.159  1.7086  0.8597 -1.3118
 3845SOL    HW215379   5.248   2.168   5.299 -1.4460  1.1306 -0.0031
 3845SOL     MW15380   5.262   2.174   5.213  0.3893  0.3643  0.1924
 3846SOL     OW15381   1.146   0.981   2.666  0.1213  0.3071  0.2960
 3846SOL    HW115382   1.158   0.887   2.650 -0.7069  0.1181  0.7405
 3846SOL    HW215383   1.153   1.021   2.579  0.6226 -0.1498  0.1247
 3846SOL     MW15384   1.148   0.974   2.652  0.0794  0.2244  0.3310
 3847SOL     OW15385   4.505   0.504   2.443 -0.2196 -0.0188  0.4605
 3847SOL    HW115386   4.593   0.530   2.469 -0.5404  0.3605  1.1862
 3847SOL    HW215387   4.517   0.423   2.393  0.4086 -0.7565  1.7738
 3847SOL     MW15388   4.517   0.497   2.440 -0.1802 -0.0647  0.7215
 3848SOL     OW15389   0.912   5.227   2.936  0.4119 -0.2808 -0.1833
 3848SOL    HW115390   0.899   5.242   2.842  0.1910 -0.1849 -0.1379
 3848SOL    HW215391   0.954   5.307   2.967 -1.1447  0.4532  0.1386
 3848SOL     MW15392   0.916   5.239   2.928  0.1843 -0.1746 -0.1362
 3849SOL     OW15393   1.840   2.478   1.268  0.3415  0.5699  0.0552
 3849SOL    HW115394   1.747   2.481   1.242 -0.0698  0.2116  1.4013
 3849SOL    HW215395   1.884   2.533   1.204 -0.6071 -0.2550 -1.3674
 3849SOL     MW15396   1.834   2.485   1.256  0.1674  0.4185  0.0454
 3850SOL     OW15397   0.217   0.935   0.833  0.4918  0.5754 -0.2880
 3850SOL    HW115398   0.178   1.007   0.883 -0.8132 -0.6828  0.6161
 3850SOL    HW215399   0.295   0.910   0.883  1.7417  2.1869 -1.3363
 3850SOL     MW15400   0.222   0.941   0.846  0.4847  0.6206 -0.3065
 3851SOL     OW15401   4.212   3.055   4.331 -0.1284  0.0810 -0.0710
 3851SOL    HW115402   4.199   3.015   4.417 -0.7641  3.2495  1.4539
 3851SOL    HW215403   4.307   3.067   4.324  0.0522 -1.3695 -0.4636
 3851SOL     MW15404   4.223   3.051   4.341 -0.1867  0.3009  0.0739
 3852SOL     OW15405   2.802   4.730   2.293 -0.4316 -0.3070  0.1751
 3852SOL    HW115406   2.807   4.774   2.377  0.4250  0.1805 -0.1225
 3852SOL    HW215407   2.885   4.684   2.285 -0.1068  0.4237 -0.8254
 3852SOL     MW15408   2.813   4.729   2.303 -0.2804 -0.1511  0.0089
 3853SOL     OW15409   1.933   5.406   0.779  0.1895  0.2989  0.0461
 3853SOL    HW115410   1.975   5.395   0.694 -1.9280  0.2416 -1.0418
 3853SOL    HW215411   1.840   5.411   0.760 -0.6473 -2.6233  2.6041
 3853SOL     MW15412   1.927   5.405   0.766 -0.1887 -0.0825  0.2343
 3854SOL     OW15413   0.927   2.720   4.300  0.9808  0.0938 -0.5446
 3854SOL    HW115414   0.889   2.804   4.276  0.6958  0.3718  0.7720
 3854SOL    HW215415   1.008   2.743   4.347 -0.0596 -0.2184  1.5508
 3854SOL     MW15416   0.933   2.733   4.303  0.8111  0.0894 -0.1078
 3855SOL     OW15417   3.914   3.821   0.375  0.0653 -0.0364  0.3646
 3855SOL    HW115418   3.948   3.908   0.355 -0.0225  0.3753  1.8982
 3855SOL    HW215419   3.981   3.761   0.341 -0.2481  0.5552 -1.4257
 3855SOL     MW15420   3.927   3.824   0.368  0.0140  0.0920  0.3318
 3856SOL     OW15421   4.907   0.720   4.406  0.0233 -0.1514 -0.9078
 3856SOL    HW115422   4.831   0.734   4.463 -0.3796 -1.6680 -1.0398
 3856SOL    HW215423   4.980   0.761   4.453 -1.2368  3.9375 -2.0676
 3856SOL     MW15424   4.907   0.727   4.419 -0.1896  0.1779 -1.0732
 3857SOL     OW15425   0.204   1.563   2.891  0.2368  0.2837  0.0364
 3857SOL    HW115426   0.261   1.585   2.818  0.7408 -1.9997 -0.3347
 3857SOL    HW215427   0.229   1.474   2.915 -1.5110  0.1238  1.4753
 3857SOL     MW15428   0.214   1.554   2.885  0.0776 -0.0291  0.1731
 3858SOL     OW15429   0.524   0.562   0.930  0.8301  0.0208 -0.2440
 3858SOL    HW115430   0.538   0.488   0.871  0.2706  1.0806 -1.7804
 3858SOL    HW215431   0.550   0.530   1.016 -1.1850 -2.5893 -0.4854
 3858SOL     MW15432   0.529   0.549   0.934  0.5006 -0.1777 -0.4716
 3859SOL     OW15433   3.936   3.986   2.714  0.1099  0.0057 -0.3174
 3859SOL    HW115434   3.861   4.008   2.659  0.0371  0.1350 -0.1706
 3859SOL    HW215435   3.951   4.066   2.765 -1.4198 -0.8746  1.6704
 3859SOL     MW15436   3.928   3.999   2.714 -0.0953 -0.0905 -0.0442
 3860SOL     OW15437   3.466   4.528   0.544 -0.2865 -0.5165  0.0974
 3860SOL    HW115438   3.371   4.527   0.554 -0.2128 -0.7242  0.8488
 3860SOL    HW215439   3.487   4.617   0.515 -0.9660 -1.2411 -2.9326
 3860SOL     MW15440   3.457   4.539   0.542 -0.3641 -0.6358 -0.1943
 3861SOL     OW15441   3.846   4.361   3.848  0.0891 -0.0765 -0.1753
 3861SOL    HW115442   3.808   4.404   3.771  0.8804  1.1399  0.0682
 3861SOL    HW215443   3.811   4.410   3.922 -0.2089 -0.8667  0.2056
 3861SOL     MW15444   3.837   4.373   3.847  0.1523 -0.0219 -0.0954
 3862SOL     OW15445   0.047   5.384   1.190 -0.3788  1.0424 -0.3088
 3862SOL    HW115446   0.128   5.358   1.233  0.6328  2.2471 -1.3983
 3862SOL    HW215447   0.007   5.447   1.250 -0.8204  0.0355  0.4843
 3862SOL     MW15448   0.052   5.389   1.203 -0.3058  1.0677 -0.3467
 3863SOL     OW15449   1.380   3.566   5.342  0.5816 -0.5403 -0.0206
 3863SOL    HW115450   1.305   3.525   5.386 -0.3050  0.8186 -0.1788
 3863SOL    HW215451   1.449   3.568   5.408  0.4450 -1.6896  0.1793
 3863SOL     MW15452   1.379   3.561   5.356  0.4506 -0.5135 -0.0153
 3864SOL     OW15453  -0.002   3.555   1.370  0.3970  0.6768 -0.0231
 3864SOL    HW115454   0.006   3.541   1.276  1.4701  1.3492 -0.0527
 3864SOL    HW215455   0.004   3.650   1.380  1.3741  0.5428  0.8002
 3864SOL     MW15456  -0.000   3.566   1.359  0.6594  0.7458  0.0785
 3865SOL     OW15457   4.469   4.393   2.359  0.3874  0.2374  0.4948
 3865SOL    HW115458   4.381   4.432   2.354 -0.4421 -1.3610  1.8283
 3865SOL    HW215459   4.528   4.466   2.338 -1.1717  1.7548  1.0884
 3865SOL     MW15460   4.465   4.407   2.356  0.0816  0.2270  0.7415
 3866SOL     OW15461   3.948   2.842   2.565 -0.6483  0.5117 -0.3415
 3866SOL    HW115462   4.025   2.801   2.526  1.2850  2.4982  1.1338
 3866SOL    HW215463   3.876   2.819   2.506  1.2674 -0.4602 -2.4506
 3866SOL     MW15464   3.949   2.834   2.552 -0.1556  0.6416 -0.4226
 3867SOL     OW15465   5.311   3.664   3.295 -0.3049 -0.4320  0.3396
 3867SOL    HW115466   5.405   3.675   3.281 -0.3108 -1.4961 -0.6419
 3867SOL    HW215467   5.272   3.670   3.208 -1.0805 -0.6634  0.6588
 3867SOL     MW15468   5.318   3.666   3.282 -0.4050 -0.5978  0.2548
 3868SOL     OW15469   0.036   2.455   3.367  0.0125  1.0811 -0.1923
 3868SOL    HW115470  -0.022   2.402   3.421  1.4526  1.4795  1.8746
 3868SOL    HW215471   0.067   2.396   3.299  0.0456 -0.1904  0.8776
 3868SOL     MW15472   0.033   2.441   3.365  0.2011  0.9694  0.2092
 3869SOL     OW15473   1.272   2.813   1.463 -0.2941 -0.7560 -0.0151
 3869SOL    HW115474   1.350   2.828   1.517  0.3169 -1.4556 -0.6843
 3869SOL    HW215475   1.300   2.749   1.398 -1.8974 -2.3310  0.7543
 3869SOL     MW15476   1.285   2.807   1.462 -0.4211 -1.0471 -0.0023
 3870SOL     OW15477   2.138   3.066   1.587  0.7991 -0.3294  0.0487
 3870SOL    HW115478   2.053   3.022   1.579  0.7429  0.0514 -2.1577
 3870SOL    HW215479   2.120   3.144   1.640 -0.1273 -0.5241  0.0399
 3870SOL     MW15480   2.124   3.070   1.593  0.6733 -0.3056 -0.2348
 3871SOL     OW15481   1.148   3.624   3.548  0.2162 -0.1571  0.1990
 3871SOL    HW115482   1.167   3.674   3.627  0.3020  0.2651 -0.0859
 3871SOL    HW215483   1.074   3.669   3.508  2.0055  1.4080 -1.4961
 3871SOL     MW15484   1.141   3.636   3.553  0.4562  0.0973 -0.0544
 3872SOL     OW15485   1.180   2.324   3.308 -0.4116 -0.4865  0.3021
 3872SOL    HW115486   1.118   2.319   3.235  0.6082  0.4698 -0.6674
 3872SOL    HW215487   1.141   2.387   3.368  0.1843  1.1283 -0.9259
 3872SOL     MW15488   1.167   2.332   3.306 -0.2048 -0.1574  0.0208
 3873SOL     OW15489   0.977   3.112   0.597 -0.1172 -0.3928 -0.3062
 3873SOL    HW115490   1.014   3.047   0.656 -1.2543  0.1851  1.0824
 3873SOL    HW215491   1.048   3.175   0.583 -0.1416  0.0214  1.3003
 3873SOL     MW15492   0.991   3.112   0.603 -0.2659 -0.2658  0.0772
 3874SOL     OW15493   3.380   3.942   2.307  0.7894 -0.0265  0.6626
 3874SOL    HW115494   3.309   4.004   2.318  0.0373 -0.7018 -0.1750
 3874SOL    HW215495   3.403   3.915   2.396 -0.8038 -0.6596  0.9267
 3874SOL     MW15496   3.374   3.946   2.320  0.4892 -0.1940  0.5892
 3875SOL     OW15497   0.277   1.197   4.954 -0.7300  0.6219 -0.1167
 3875SOL    HW115498   0.200   1.253   4.955 -0.7166  0.6479 -0.5199
 3875SOL    HW215499   0.309   1.199   5.044 -0.0933  2.1481 -0.3445
 3875SOL     MW15500   0.271   1.205   4.966 -0.6467  0.8206 -0.1975
 3876SOL     OW15501   3.626   0.113   0.475  0.1295  0.2527 -0.2124
 3876SOL    HW115502   3.640   0.134   0.567  0.5995 -0.0537 -0.2060
 3876SOL    HW215503   3.554   0.169   0.447 -1.8378 -1.5258  1.0325
 3876SOL     MW15504   3.619   0.123   0.483 -0.0622 -0.0142 -0.0522
 3877SOL     OW15505   1.728   3.605   4.942 -0.3504 -0.4213  0.0978
 3877SOL    HW115506   1.781   3.684   4.948  0.8144 -1.1280 -0.4522
 3877SOL    HW215507   1.698   3.588   5.032  0.8377 -0.3102  0.5276
 3877SOL     MW15508   1.731   3.613   4.954 -0.0492 -0.4975  0.0824
 3878SOL     OW15509   1.304   0.529   5.231 -0.2716 -0.1143 -0.1116
 3878SOL    HW115510   1.327   0.532   5.138 -0.1942 -0.7686 -0.1172
 3878SOL    HW215511   1.210   0.511   5.232  0.0083 -1.7572 -0.0701
 3878SOL     MW15512   1.295   0.527   5.219 -0.2259 -0.4084 -0.1070
 3879SOL     OW15513   0.130   4.421   3.907  0.4138  0.3218 -0.6257
 3879SOL    HW115514   0.162   4.474   3.834  1.8844  0.4234  0.0692
 3879SOL    HW215515   0.168   4.461   3.985  2.6790 -2.4488 -0.1589
 3879SOL     MW15516   0.139   4.433   3.908  0.8920 -0.0199 -0.4770
 3880SOL     OW15517   5.428   0.711   3.806  0.0328  0.0366  0.3190
 3880SOL    HW115518   5.333   0.713   3.822 -0.1577  0.9411 -0.7511
 3880SOL    HW215519   5.466   0.685   3.889 -1.0000  2.5906  1.7008
 3880SOL     MW15520   5.421   0.708   3.818 -0.1238  0.4793  0.3589
 3881SOL     OW15521   4.237   5.031   3.109  0.4354 -0.3221 -0.2481
 3881SOL    HW115522   4.206   5.045   3.198 -0.7218 -1.0255 -0.5282
 3881SOL    HW215523   4.281   5.113   3.086  0.1658  0.1076  0.7225
 3881SOL     MW15524   4.239   5.043   3.117  0.2528 -0.3571 -0.1597
 3882SOL     OW15525   0.124   4.577   1.858 -0.1269  0.3072 -0.3462
 3882SOL    HW115526   0.216   4.578   1.832 -0.0567  1.1283 -0.0902
 3882SOL    HW215527   0.111   4.491   1.898  0.8484  0.6514  0.7310
 3882SOL     MW15528   0.134   4.566   1.860  0.0069  0.4564 -0.1756
 3883SOL     OW15529   0.675   5.361   4.984  0.0269  0.0749 -0.1843
 3883SOL    HW115530   0.620   5.284   5.001  1.8826 -1.4184 -0.4814
 3883SOL    HW215531   0.665   5.415   5.061 -1.2332 -0.5276  0.1038
 3883SOL     MW15532   0.667   5.358   4.996  0.1032 -0.1934 -0.1854
 3884SOL     OW15533   4.735   2.989   2.119 -0.0620 -0.5403  0.0782
 3884SOL    HW115534   4.763   3.077   2.142 -0.1629 -0.2264 -0.9419
 3884SOL    HW215535   4.712   2.948   2.202  0.8744  0.0805  0.6608
 3884SOL     MW15536   4.736   2.995   2.133  0.0450 -0.4206  0.0222
 3885SOL     OW15537   3.285   2.741   0.771  0.3108  0.3562  0.2750
 3885SOL    HW115538   3.372   2.704   0.789  0.1309  0.1043  0.6467
 3885SOL    HW215539   3.295   2.787   0.688  1.0539  1.1783  0.8011
 3885SOL     MW15540   3.297   2.742   0.763  0.3829  0.4292  0.3899
 3886SOL     OW15541   4.265   1.070   1.029  0.1655 -0.5260 -0.0199
 3886SOL    HW115542   4.310   1.140   1.078 -0.2889  0.1556 -0.5633
 3886SOL    HW215543   4.332   1.035   0.971 -0.0512  0.6925 -1.0444
 3886SOL     MW15544   4.280   1.075   1.028  0.0796 -0.2828 -0.2206
 3887SOL     OW15545   4.152   0.117   1.235  0.4584 -0.1611 -0.1661
 3887SOL    HW115546   4.080   0.135   1.175  1.1449 -0.6144 -1.1521
 3887SOL    HW215547   4.115   0.058   1.300 -0.7512  1.6450  0.8608
 3887SOL     MW15548   4.138   0.111   1.236  0.3914  0.0121 -0.1609
 3888SOL     OW15549   4.802   0.839   5.229  0.1334  0.4433 -0.0613
 3888SOL    HW115550   4.893   0.857   5.203  0.3579 -1.1678 -0.4890
 3888SOL    HW215551   4.807   0.820   5.323  0.5095 -1.1548 -0.3762
 3888SOL     MW15552   4.814   0.839   5.238  0.2103  0.0325 -0.1563
 3889SOL     OW15553   0.447   4.095   5.237 -0.4621  0.3969  0.2411
 3889SOL    HW115554   0.391   4.049   5.174  0.3104  0.8638 -0.8392
 3889SOL    HW215555   0.441   4.187   5.211  0.4848  0.4980  0.3481
 3889SOL     MW15556   0.439   4.101   5.225 -0.2420  0.4696  0.1165
 3890SOL     OW15557   4.293   3.270   1.600  0.4895  0.0466  0.3629
 3890SOL    HW115558   4.199   3.281   1.614  0.4417  0.5050 -0.2698
 3890SOL    HW215559   4.314   3.186   1.640 -0.0621  0.2495  1.0967
 3890SOL     MW15560   4.284   3.261   1.607  0.4128  0.1313  0.3758
 3891SOL     OW15561   1.513   2.847   2.638  0.5658 -0.3392 -0.1930
 3891SOL    HW115562   1.465   2.828   2.718  0.1915 -0.1797 -0.3755
 3891SOL    HW215563   1.505   2.768   2.585 -0.2807  0.0004 -0.6023
 3891SOL     MW15564   1.506   2.835   2.642  0.4095 -0.2753 -0.2688
 3892SOL     OW15565   0.250   1.153   1.088  0.4762  0.4338  0.0346
 3892SOL    HW115566   0.189   1.180   1.020  0.1770 -0.0681  0.0913
 3892SOL    HW215567   0.199   1.160   1.169  0.2310 -0.7138  0.0037
 3892SOL     MW15568   0.236   1.157   1.090  0.4065  0.2226  0.0379
 3893SOL     OW15569   1.337   3.384   0.277  0.4864 -0.0289  0.2456
 3893SOL    HW115570   1.315   3.447   0.208 -1.9469 -2.0787 -1.0256
 3893SOL    HW215571   1.422   3.349   0.251  0.5902  0.7609 -0.5406
 3893SOL     MW15572   1.345   3.388   0.264  0.1882 -0.1902 -0.0178
 3894SOL     OW15573   1.227   2.275   4.483  0.2976 -0.0676 -0.3447
 3894SOL    HW115574   1.269   2.361   4.492  0.0528  0.1339 -1.1005
 3894SOL    HW215575   1.147   2.292   4.434  0.4183 -0.7832 -0.8080
 3894SOL     MW15576   1.222   2.288   4.478  0.2817 -0.1334 -0.5007
 3895SOL     OW15577   3.420   2.967   5.406  0.4445  0.0756  0.6815
 3895SOL    HW115578   3.464   2.907   5.345  2.2678 -0.0134  2.0004
 3895SOL    HW215579   3.487   2.989   5.470 -1.5322 -0.3619  3.0563
 3895SOL     MW15580   3.434   2.962   5.406  0.4249  0.0082  1.1544
 3896SOL     OW15581   1.932   4.408   2.372  0.2900 -0.3615  0.0105
 3896SOL    HW115582   2.002   4.378   2.314 -1.0663 -2.2932 -0.7195
 3896SOL    HW215583   1.959   4.378   2.459  1.7426  1.4995  0.2840
 3896SOL     MW15584   1.945   4.401   2.376  0.3024 -0.3705 -0.0480
 3897SOL     OW15585   4.703   3.112   2.495  0.0209 -0.0921  0.3692
 3897SOL    HW115586   4.663   3.168   2.428 -0.6837 -1.1627 -0.1221
 3897SOL    HW215587   4.672   3.148   2.578 -0.8656 -0.0699  0.0391
 3897SOL     MW15588   4.694   3.124   2.497 -0.1827 -0.2263  0.2640
 3898SOL     OW15589   0.661   1.905   1.205  0.5180 -0.2816 -0.3563
 3898SOL    HW115590   0.721   1.932   1.135  1.7242 -0.6606  0.5019
 3898SOL    HW215591   0.657   1.810   1.198 -1.2229 -0.1716 -1.3657
 3898SOL     MW15592   0.668   1.896   1.195  0.4495 -0.3160 -0.3757
 3899SOL     OW15593   1.328   3.808   3.927 -0.6443 -0.0450 -0.1129
 3899SOL    HW115594   1.264   3.821   3.856  1.9043 -1.5117 -2.8662
 3899SOL    HW215595   1.413   3.806   3.883  1.5076  2.3955  3.4263
 3899SOL     MW15596   1.330   3.810   3.912 -0.0426  0.0797 -0.0123
 3900SOL     OW15597   1.418   0.077   2.043 -0.2648 -0.0602  0.1855
 3900SOL    HW115598   1.417   0.022   1.964 -1.5124  0.6539 -0.3217
 3900SOL    HW215599   1.331   0.065   2.081 -0.0536  0.4790  0.8544
 3900SOL     MW15600   1.407   0.068   2.038 -0.3974  0.1003  0.2062
 3901SOL     OW15601   4.872   2.690   2.428 -0.4684  0.0881 -0.1200
 3901SOL    HW115602   4.906   2.760   2.372 -0.6709  0.8598  0.7021
 3901SOL    HW215603   4.839   2.735   2.505 -0.3559 -0.9478  0.5495
 3901SOL     MW15604   4.872   2.704   2.430 -0.4799  0.0543  0.0709
 3902SOL     OW15605   4.701   1.281   4.392  0.2282 -0.0323  0.1209
 3902SOL    HW115606   4.652   1.343   4.446 -1.5953 -2.3435  1.3441
 3902SOL    HW215607   4.658   1.284   4.306  1.4935  1.8174 -0.4906
 3902SOL     MW15608   4.689   1.289   4.388  0.1567 -0.0914  0.1992
 3903SOL     OW15609   4.568   1.416   0.190 -0.3071 -0.0832  0.0488
 3903SOL    HW115610   4.599   1.469   0.117 -2.3290  1.7923  0.4497
 3903SOL    HW215611   4.511   1.351   0.149  1.8013 -1.7924 -0.3887
 3903SOL     MW15612   4.565   1.414   0.175 -0.2960 -0.0619  0.0441
 3904SOL     OW15613   1.041   3.603   0.906 -0.5298  0.2873  0.6246
 3904SOL    HW115614   1.094   3.535   0.864 -0.3548  0.7495  0.0846
 3904SOL    HW215615   1.095   3.681   0.902 -1.1571  0.7155  0.2632
 3904SOL     MW15616   1.054   3.604   0.900 -0.5877  0.4013  0.5092
 3905SOL     OW15617   0.900   1.677   1.551  0.1959  0.0749 -0.0203
 3905SOL    HW115618   0.952   1.729   1.490 -0.7245  2.2534  0.9417
 3905SOL    HW215619   0.940   1.693   1.636 -0.5273 -0.2604  0.3966
 3905SOL     MW15620   0.912   1.686   1.554 -0.0145  0.3108  0.1562
 3906SOL     OW15621   1.305   0.618   1.892  0.4063 -0.3680 -0.0410
 3906SOL    HW115622   1.384   0.601   1.944 -0.0380  2.6583  1.8469
 3906SOL    HW215623   1.336   0.616   1.801  2.5495  0.1442  0.6118
 3906SOL     MW15624   1.319   0.615   1.887  0.6238  0.0850  0.2843
 3907SOL     OW15625   1.771   4.218   3.045 -0.2571  0.0700 -0.2984
 3907SOL    HW115626   1.705   4.157   3.078 -0.1392  0.5740  0.9456
 3907SOL    HW215627   1.738   4.247   2.960 -1.1816 -0.3895 -0.1031
 3907SOL     MW15628   1.758   4.214   3.039 -0.3604  0.0757 -0.1141
 3908SOL     OW15629   2.711   2.760   4.953  0.6412 -0.1449 -0.1042
 3908SOL    HW115630   2.723   2.741   4.860 -3.0067  0.3852 -0.8448
 3908SOL    HW215631   2.674   2.679   4.989  0.2830  0.2482  0.4343
 3908SOL     MW15632   2.708   2.747   4.946  0.1284 -0.0267 -0.1301
 3909SOL     OW15633   1.358   4.847   4.375  0.2908  0.1163 -0.8413
 3909SOL    HW115634   1.387   4.809   4.292 -0.4641  0.7565 -1.4145
 3909SOL    HW215635   1.333   4.937   4.353  1.5263  0.8000  0.3792
 3909SOL     MW15636   1.358   4.854   4.361  0.3524  0.2858 -0.7585
 3910SOL     OW15637   2.368   2.579   2.675 -0.2163 -0.2268 -0.4010
 3910SOL    HW115638   2.403   2.544   2.593  0.2470  0.9534 -0.7269
 3910SOL    HW215639   2.275   2.594   2.657 -0.1341 -0.0479 -0.6890
 3910SOL     MW15640   2.361   2.576   2.662 -0.1465 -0.0528 -0.4796
 3911SOL     OW15641   4.258   4.996   2.567  0.1644  0.5222 -0.1501
 3911SOL    HW115642   4.231   5.013   2.477 -0.4004  0.4798  0.0070
 3911SOL    HW215643   4.327   5.059   2.584  1.8806 -0.9429 -1.3587
 3911SOL     MW15644   4.263   5.006   2.558  0.3118  0.3292 -0.2847
 3912SOL     OW15645   0.780   4.120   2.282 -0.2762 -0.0652 -0.1721
 3912SOL    HW115646   0.733   4.082   2.356  0.9886  1.8290  1.7036
 3912SOL    HW215647   0.752   4.212   2.280  1.4282  0.4847 -0.5738
 3912SOL     MW15648   0.770   4.127   2.291  0.1039  0.2477  0.0166
 3913SOL     OW15649   1.703   0.271   2.923  0.1704  0.0864  0.1020
 3913SOL    HW115650   1.659   0.221   2.992 -0.3993 -0.2240 -0.4787
 3913SOL    HW215651   1.784   0.302   2.964  0.2770 -0.8572  0.6371
 3913SOL     MW15652   1.708   0.269   2.937  0.1111 -0.0741  0.0962
 3914SOL     OW15653   1.234   2.057   3.999  0.1460 -0.1130 -0.4254
 3914SOL    HW115654   1.240   2.056   4.094 -1.9189  2.4265 -0.1358
 3914SOL    HW215655   1.234   1.965   3.973  2.0364 -0.8627  1.8494
 3914SOL     MW15656   1.235   2.045   4.008  0.1236  0.1161 -0.0971
 3915SOL     OW15657   0.074   3.711   1.060  0.7458 -0.2164  0.0427
 3915SOL    HW115658   0.117   3.770   1.121 -1.1282  0.4657  0.7814
 3915SOL    HW215659  -0.017   3.740   1.058  0.3732 -1.3367 -1.7407
 3915SOL     MW15660   0.068   3.722   1.068  0.4582 -0.2725 -0.0910
 3916SOL     OW15661   4.122   1.118   0.372 -0.1003 -0.3769 -0.4995
 3916SOL    HW115662   4.085   1.201   0.400  0.0153 -0.6619  0.5203
 3916SOL    HW215663   4.211   1.140   0.345 -0.1491 -0.1314 -0.4604
 3916SOL     MW15664   4.129   1.132   0.372 -0.0918 -0.3820 -0.3639
 3917SOL     OW15665   2.327   0.748   0.696  0.1381  0.0385  0.1379
 3917SOL    HW115666   2.251   0.779   0.747  0.9286  1.4771  0.4938
 3917SOL    HW215667   2.374   0.690   0.756 -1.1395 -1.6232 -0.3953
 3917SOL     MW15668   2.323   0.745   0.711  0.0757  0.0099  0.1152
 3918SOL     OW15669   2.060   2.411   3.239 -0.2848 -0.6655  0.2949
 3918SOL    HW115670   2.044   2.429   3.146 -2.5546 -1.3331  0.4880
 3918SOL    HW215671   2.147   2.446   3.256 -0.6043  1.2402 -1.6207
 3918SOL     MW15672   2.069   2.418   3.229 -0.6163 -0.5070  0.0744
 3919SOL     OW15673   3.412   1.562   3.083  0.0300 -0.1447 -0.0378
 3919SOL    HW115674   3.381   1.477   3.052  1.9632 -1.4387  1.3020
 3919SOL    HW215675   3.404   1.557   3.178 -1.3329  1.8442 -0.0049
 3919SOL     MW15676   3.407   1.550   3.091  0.1030 -0.0557  0.1379
 3920SOL     OW15677   1.352   0.759   1.327 -0.6005  0.1454 -0.5778
 3920SOL    HW115678   1.347   0.774   1.232 -0.5839  0.1064 -0.5849
 3920SOL    HW215679   1.306   0.676   1.340 -1.2514  0.5176 -0.4581
 3920SOL     MW15680   1.346   0.750   1.316 -0.6817  0.1881 -0.5634
 3921SOL     OW15681   1.047   2.499   3.835 -0.5961  0.0600  0.2612
 3921SOL    HW115682   1.019   2.555   3.907 -0.3163  0.7045 -0.1209
 3921SOL    HW215683   1.067   2.415   3.876 -1.5796  0.0550  0.7587
 3921SOL     MW15684   1.046   2.496   3.849 -0.6862  0.1419  0.2760
 3922SOL     OW15685   3.511   0.334   5.104  0.1440 -0.0082 -0.4492
 3922SOL    HW115686   3.527   0.250   5.148 -1.9523  0.5072  1.4945
 3922SOL    HW215687   3.485   0.393   5.174 -0.3007  1.7619 -2.0250
 3922SOL     MW15688   3.510   0.331   5.119 -0.1813  0.2843 -0.4021
 3923SOL     OW15689   1.062   2.237   2.020  0.1872  0.5380  0.0791
 3923SOL    HW115690   1.122   2.310   2.036 -0.2271  0.7580  0.6386
 3923SOL    HW215691   0.982   2.260   2.067 -0.3246  0.2186 -0.6183
 3923SOL     MW15692   1.060   2.249   2.028  0.0686  0.5253  0.0614
 3924SOL     OW15693   4.965   4.220   1.986 -0.4610 -0.3953  0.2617
 3924SOL    HW115694   5.049   4.262   1.968  0.0435 -1.4665  0.0593
 3924SOL    HW215695   4.906   4.256   1.920 -0.2904  0.7060  0.6910
 3924SOL     MW15696   4.968   4.230   1.975 -0.3746 -0.3915  0.2908
 3925SOL     OW15697   0.585   3.958   1.070  0.1795  0.4556  0.1101
 3925SOL    HW115698   0.576   4.013   0.992  1.0425  0.3540 -0.0670
 3925SOL    HW215699   0.665   3.908   1.055 -0.4408 -0.6395  0.4025
 3925SOL     MW15700   0.594   3.959   1.058  0.2105  0.3024  0.1249
 3926SOL     OW15701   0.836   1.492   5.387 -0.2985  0.2642 -0.1531
 3926SOL    HW115702   0.744   1.466   5.395 -0.6230  1.1709 -0.6608
 3926SOL    HW215703   0.861   1.521   5.475 -1.5846  3.2652 -0.6502
 3926SOL     MW15704   0.827   1.493   5.399 -0.5046  0.7645 -0.2817
 3927SOL     OW15705   4.664   4.136   4.477 -0.6714 -1.4258  0.0075
 3927SOL    HW115706   4.734   4.095   4.528  0.4834 -2.1854 -2.0667
 3927SOL    HW215707   4.601   4.167   4.543  0.9375 -1.9320  1.8756
 3927SOL     MW15708   4.665   4.135   4.492 -0.3176 -1.5878 -0.0189
 3928SOL     OW15709   4.013   4.851   3.401 -0.0270  0.1242  0.4399
 3928SOL    HW115710   4.102   4.814   3.402  1.1393  2.6653 -0.3647
 3928SOL    HW215711   3.971   4.809   3.325  1.3648  0.6603 -0.6855
 3928SOL     MW15712   4.019   4.841   3.391  0.3005  0.5181  0.1929
 3929SOL     OW15713   2.001   1.081   0.619  0.3485  0.8968  0.1934
 3929SOL    HW115714   1.965   0.994   0.599  1.2492  0.5361  0.0999
 3929SOL    HW215715   2.001   1.085   0.715 -0.2335  1.0341  0.1945
 3929SOL     MW15716   1.996   1.070   0.629  0.3893  0.8682  0.1816
 3930SOL     OW15717   4.288   2.100   0.807  0.2404 -0.5044  0.1635
 3930SOL    HW115718   4.288   2.191   0.836  1.4422 -0.6798  0.7988
 3930SOL    HW215719   4.275   2.104   0.712  0.1712  0.3192  0.2074
 3930SOL     MW15720   4.286   2.112   0.799  0.3854 -0.4214  0.2504
 3931SOL     OW15721   4.516   5.047   3.465 -0.1047  0.0355  0.0967
 3931SOL    HW115722   4.507   5.008   3.378 -0.1389  0.7841 -0.2407
 3931SOL    HW215723   4.572   5.123   3.452  1.2545 -0.7668  1.0258
 3931SOL     MW15724   4.522   5.052   3.452  0.0649  0.0286  0.1724
 3932SOL     OW15725   0.771   5.190   1.647 -0.0798 -0.5255  0.2015
 3932SOL    HW115726   0.784   5.281   1.674  2.3032 -0.4039 -1.0335
 3932SOL    HW215727   0.757   5.194   1.553 -0.9719 -1.3996  0.2769
 3932SOL     MW15728   0.771   5.202   1.638  0.1110 -0.6218  0.0531
 3933SOL     OW15729   2.656   3.410   1.535  0.1012  0.1129 -0.3696
 3933SOL    HW115730   2.672   3.410   1.440  0.2199  0.1147 -0.3501
 3933SOL    HW215731   2.741   3.391   1.573  0.0995  0.3335 -0.2563
 3933SOL     MW15732   2.669   3.408   1.527  0.1162  0.1414 -0.3526
 3934SOL     OW15733   1.882   3.905   2.220 -0.0125 -0.0520 -0.0723
 3934SOL    HW115734   1.861   3.898   2.313 -1.3344  0.5704 -0.3055
 3934SOL    HW215735   1.903   3.815   2.194  2.3349  0.0365  1.2228
 3934SOL     MW15736   1.882   3.892   2.229  0.1188  0.0390  0.0636
 3935SOL     OW15737   2.784   5.179   2.474 -0.1096  0.1846  0.1520
 3935SOL    HW115738   2.807   5.252   2.417 -0.3920  0.0474 -0.1432
 3935SOL    HW215739   2.776   5.218   2.561  1.9701  0.1071  0.4164
 3935SOL     MW15740   2.786   5.193   2.478  0.1205  0.1571  0.1480
 3936SOL     OW15741   5.433   2.021   0.413  0.7699 -0.0431  0.5257
 3936SOL    HW115742   5.479   2.103   0.393  1.3861 -0.2413  1.0961
 3936SOL    HW215743   5.490   1.953   0.378  0.9204 -0.2914  1.2426
 3936SOL     MW15744   5.446   2.023   0.406  0.8681 -0.1003  0.6905
 3937SOL     OW15745   2.457   1.035   0.286  0.6211 -0.0904 -0.1525
 3937SOL    HW115746   2.382   1.062   0.338 -0.0221 -0.6877 -0.7527
 3937SOL    HW215747   2.433   1.054   0.196  0.7809 -1.1893 -0.4472
 3937SOL     MW15748   2.445   1.041   0.281  0.5592 -0.3076 -0.2670
 3938SOL     OW15749   4.007   3.901   0.894 -0.0728 -0.7881 -0.5443
 3938SOL    HW115750   3.931   3.888   0.951  0.3365 -1.3992 -0.1288
 3938SOL    HW215751   4.065   3.828   0.914  1.5693  0.7288  0.6543
 3938SOL     MW15752   4.004   3.890   0.904  0.1898 -0.6722 -0.3376
 3939SOL     OW15753   4.954   1.405   3.267 -0.4519  0.4830 -0.4628
 3939SOL    HW115754   4.889   1.374   3.331 -0.3838 -1.2210 -1.1463
 3939SOL    HW215755   5.029   1.347   3.280 -0.3993  0.1778 -1.9807
 3939SOL     MW15756   4.955   1.393   3.277 -0.4364  0.2258 -0.7446
 3940SOL     OW15757   4.628   0.225   1.484 -0.3136  0.0827  0.0900
 3940SOL    HW115758   4.651   0.309   1.525  1.7689 -0.6294  0.4760
 3940SOL    HW215759   4.708   0.173   1.489 -1.1702 -1.4571 -1.3862
 3940SOL     MW15760   4.641   0.230   1.490 -0.1567 -0.2056 -0.0495
 3941SOL     OW15761   0.632   5.082   4.734 -0.0614 -0.0564  0.3265
 3941SOL    HW115762   0.618   4.987   4.733 -1.7319  0.0293  3.3526
 3941SOL    HW215763   0.715   5.094   4.779 -1.1984 -0.0898  2.5388
 3941SOL     MW15764   0.641   5.071   4.740 -0.4208 -0.0497  0.9970
 3942SOL     OW15765   0.748   4.693   0.849  0.0864  0.0762  0.6196
 3942SOL    HW115766   0.735   4.599   0.866 -0.3783  0.0958  0.3978
 3942SOL    HW215767   0.842   4.707   0.862  0.3119 -0.5931 -0.1689
 3942SOL     MW15768   0.758   4.683   0.853  0.0558 -0.0069  0.4903
 3943SOL     OW15769   3.628   1.041   1.704  0.4894  0.1753 -0.2346
 3943SOL    HW115770   3.681   1.085   1.770  1.0551  1.3161 -1.3993
 3943SOL    HW215771   3.576   0.978   1.753  1.2172  0.6710  1.2337
 3943SOL     MW15772   3.628   1.039   1.719  0.6550  0.3848 -0.1957
 3944SOL     OW15773   1.843   1.321   0.565 -0.1825  0.0957  0.3687
 3944SOL    HW115774   1.885   1.238   0.589 -1.2396 -0.2136  1.1956
 3944SOL    HW215775   1.915   1.385   0.567  0.6846 -0.8098 -0.4754
 3944SOL     MW15776   1.858   1.319   0.568 -0.2068 -0.0598  0.3665
 3945SOL     OW15777   0.773   3.218   2.701 -0.4703  0.2447  0.1099
 3945SOL    HW115778   0.678   3.226   2.712 -0.6170 -1.2770  0.0976
 3945SOL    HW215779   0.794   3.130   2.731  0.8981  0.4261 -0.2315
 3945SOL     MW15780   0.763   3.208   2.706 -0.3139  0.0731  0.0646
 3946SOL     OW15781   4.916   2.180   4.303 -0.2409 -0.1049 -0.2124
 3946SOL    HW115782   4.952   2.190   4.391 -0.0323 -0.8268 -0.2089
 3946SOL    HW215783   4.822   2.193   4.314  0.0031  1.8756 -0.2313
 3946SOL     MW15784   4.909   2.183   4.316 -0.1830  0.0562 -0.2144
 3947SOL     OW15785   0.620   0.064   0.788 -0.5234 -0.2862 -0.2878
 3947SOL    HW115786   0.659  -0.009   0.837  0.2897  0.8107  0.7667
 3947SOL    HW215787   0.528   0.040   0.779 -0.1231 -1.7872 -0.6330
 3947SOL     MW15788   0.613   0.052   0.793 -0.3680 -0.3379 -0.1970
 3948SOL     OW15789   1.490   5.063   2.723 -0.3147 -0.3661 -0.6062
 3948SOL    HW115790   1.468   5.116   2.800 -0.0084  0.5879 -1.1539
 3948SOL    HW215791   1.576   5.025   2.743 -0.1907 -0.0403 -0.5157
 3948SOL     MW15792   1.498   5.065   2.735 -0.2596 -0.2023 -0.6647
 3949SOL     OW15793   2.502   0.198   1.005 -0.2469  0.1548 -0.4765
 3949SOL    HW115794   2.590   0.199   1.042 -0.2335  1.2339 -0.4897
 3949SOL    HW215795   2.479   0.106   1.000  0.3480 -0.0841  0.7867
 3949SOL     MW15796   2.511   0.186   1.009 -0.1690  0.2623 -0.3165
 3950SOL     OW15797   4.847   2.919   4.390  0.3334 -0.4131  0.0457
 3950SOL    HW115798   4.808   3.007   4.389  0.4633 -0.2689  2.4892
 3950SOL    HW215799   4.928   2.928   4.340 -1.8771 -0.3804 -3.9219
 3950SOL     MW15800   4.852   2.931   4.383  0.0670 -0.3904 -0.1494
 3951SOL     OW15801   0.095   4.871   5.179 -0.1819 -0.1293 -0.6470
 3951SOL    HW115802   0.003   4.879   5.206 -0.1822 -0.2240 -0.6196
 3951SOL    HW215803   0.124   4.787   5.216  0.6274  0.9693  1.3565
 3951SOL     MW15804   0.087   4.861   5.187 -0.0784 -0.0008 -0.3870
 3952SOL     OW15805   4.440   4.657   4.248 -0.2155 -0.1930 -0.4600
 3952SOL    HW115806   4.513   4.626   4.194 -0.6974  0.8391 -1.7566
 3952SOL    HW215807   4.404   4.577   4.287  1.3309 -0.7654 -0.1205
 3952SOL     MW15808   4.445   4.643   4.246 -0.0792 -0.1342 -0.5825
 3953SOL     OW15809   4.484   5.167   0.213 -0.0547 -0.1540  0.2500
 3953SOL    HW115810   4.538   5.105   0.262 -1.7125 -2.2952 -0.4729
 3953SOL    HW215811   4.518   5.163   0.123  0.1097  0.3285  0.2892
 3953SOL     MW15812   4.495   5.158   0.208 -0.2459 -0.3663  0.1625
 3954SOL     OW15813   2.066   3.819   5.162 -0.6383 -0.0467  0.6136
 3954SOL    HW115814   2.123   3.758   5.115 -0.5808 -0.1965  0.8715
 3954SOL    HW215815   2.115   3.839   5.242 -0.5174  0.5839  0.3823
 3954SOL     MW15816   2.080   3.814   5.166 -0.6155  0.0149  0.6170
 3955SOL     OW15817   3.537   2.908   4.762  0.5975 -0.5328 -0.3638
 3955SOL    HW115818   3.617   2.916   4.710  0.1295 -0.2806 -1.0658
 3955SOL    HW215819   3.512   2.816   4.753  1.6165 -0.9797  1.1030
 3955SOL     MW15820   3.544   2.897   4.754  0.6680 -0.5578 -0.2659
 3956SOL     OW15821   0.628   5.235   2.612 -0.1434 -0.3130  0.1355
 3956SOL    HW115822   0.567   5.213   2.682 -0.6394 -2.1914 -0.8087
 3956SOL    HW215823   0.668   5.151   2.588  3.8728  0.9499  1.5738
 3956SOL     MW15824   0.625   5.221   2.618  0.3073 -0.3918  0.1988
 3957SOL     OW15825   5.124   0.691   5.178 -0.3327  0.0509  0.5372
 3957SOL    HW115826   5.144   0.775   5.137  2.0598 -0.2424  0.9724
 3957SOL    HW215827   5.044   0.661   5.134  1.5098  0.1958 -3.2860
 3957SOL     MW15828   5.116   0.697   5.167  0.2095  0.0319  0.1035
 3958SOL     OW15829   1.389   2.546   0.017 -0.4342 -0.4189  0.7414
 3958SOL    HW115830   1.322   2.614   0.004 -1.0049 -1.1468 -0.2775
 3958SOL    HW215831   1.469   2.584  -0.020  0.0994  0.9542  3.0670
 3958SOL     MW15832   1.391   2.560   0.010 -0.4390 -0.3363  0.9087
 3959SOL     OW15833   0.459   0.537   4.905  0.1571 -0.0766 -0.4717
 3959SOL    HW115834   0.548   0.531   4.938  0.1469 -0.3507 -0.4886
 3959SOL    HW215835   0.407   0.485   4.968  0.2143 -1.0419 -1.2002
 3959SOL     MW15836   0.463   0.529   4.918  0.1631 -0.2353 -0.5671
 3960SOL     OW15837   2.349   1.225   1.225  0.0857  0.5006 -0.2365
 3960SOL    HW115838   2.389   1.157   1.279 -1.6682 -1.3026 -1.1060
 3960SOL    HW215839   2.301   1.279   1.288  1.3760  0.9153  0.4441
 3960SOL     MW15840   2.348   1.223   1.240  0.0264  0.3228 -0.2607
 3961SOL     OW15841   2.239   4.480   0.889 -0.5411 -0.1739 -0.2522
 3961SOL    HW115842   2.322   4.473   0.937 -1.3649 -1.8278  1.0299
 3961SOL    HW215843   2.241   4.408   0.827 -0.9702 -0.1402 -0.3047
 3961SOL     MW15844   2.250   4.470   0.887 -0.7015 -0.3813 -0.0948
 3962SOL     OW15845   4.595   4.872   2.758  0.1785 -0.1077 -1.1109
 3962SOL    HW115846   4.550   4.788   2.768  0.1838  0.1635  2.6959
 3962SOL    HW215847   4.682   4.857   2.797  0.0978  1.6687 -0.1349
 3962SOL     MW15848   4.600   4.859   2.764  0.1688  0.1544 -0.4986
 3963SOL     OW15849   2.555   4.786   1.601 -0.3077 -0.2561 -0.1415
 3963SOL    HW115850   2.540   4.806   1.509 -1.3314  0.7062  0.2228
 3963SOL    HW215851   2.474   4.744   1.630  1.3092 -4.1867 -0.5922
 3963SOL     MW15852   2.543   4.783   1.593 -0.2318 -0.6361 -0.1526
 3964SOL     OW15853   1.317   3.356   4.198  0.0018 -0.1721  0.0821
 3964SOL    HW115854   1.411   3.342   4.212 -0.1406 -1.2829  0.0403
 3964SOL    HW215855   1.306   3.451   4.201  1.2477  0.0129 -0.7260
 3964SOL     MW15856   1.327   3.367   4.200  0.1431 -0.2906 -0.0267
 3965SOL     OW15857   0.297   0.164   2.131  0.2810  0.1450 -0.4988
 3965SOL    HW115858   0.353   0.155   2.208 -0.6218 -1.1253  0.0587
 3965SOL    HW215859   0.357   0.184   2.060  1.2983 -0.0105  0.2888
 3965SOL     MW15860   0.312   0.165   2.132  0.2956 -0.0375 -0.3266
 3966SOL     OW15861   4.263   1.503   0.342  0.2689  0.4170  0.1545
 3966SOL    HW115862   4.288   1.512   0.434 -1.2493 -1.8590  0.8487
 3966SOL    HW215863   4.185   1.558   0.332  0.0262  0.1174  0.4078
 3966SOL     MW15864   4.256   1.511   0.352  0.0435  0.0873  0.2758
 3967SOL     OW15865   2.667   0.058   5.465  0.4790 -0.6877 -0.0499
 3967SOL    HW115866   2.679   0.141   5.510 -1.6524  0.1531 -0.9133
 3967SOL    HW215867   2.728   0.062   5.391  0.1282  0.2991 -0.3021
 3967SOL     MW15868   2.677   0.069   5.461  0.1613 -0.4538 -0.1927
 3968SOL     OW15869   5.243   1.431   3.981  0.1364 -0.0900 -0.1998
 3968SOL    HW115870   5.317   1.422   4.042  0.8487 -0.7035 -1.1331
 3968SOL    HW215871   5.258   1.516   3.939  0.7568 -0.5601 -0.9505
 3968SOL     MW15872   5.254   1.441   3.984  0.3070 -0.2287 -0.4154
 3969SOL     OW15873   3.239   0.932   3.208  0.5176  0.1674  0.8763
 3969SOL    HW115874   3.329   0.899   3.198  1.4033  1.6065  3.1891
 3969SOL    HW215875   3.200   0.874   3.274  0.3041  0.5410  1.0815
 3969SOL     MW15876   3.246   0.920   3.215  0.6037  0.3995  1.1986
 3970SOL     OW15877   0.734   3.765   2.066  0.0352  0.0329  0.3769
 3970SOL    HW115878   0.817   3.804   2.096  1.2084 -1.7507 -0.4070
 3970SOL    HW215879   0.723   3.688   2.121 -0.0819 -0.8222 -0.8121
 3970SOL     MW15880   0.743   3.760   2.077  0.1704 -0.3049  0.1244
 3971SOL     OW15881   1.725   1.141   0.770  0.6424  0.1018 -0.3947
 3971SOL    HW115882   1.759   1.192   0.843  1.7154 -1.4162  0.2179
 3971SOL    HW215883   1.630   1.154   0.775  0.7240  0.3775  1.0090
 3971SOL     MW15884   1.717   1.149   0.780  0.7902 -0.0572 -0.1366
 3972SOL     OW15885   2.386   0.485   1.940 -0.2114 -0.2624  0.4980
 3972SOL    HW115886   2.408   0.571   1.904 -0.7614 -0.2191  0.2633
 3972SOL    HW215887   2.349   0.437   1.866  2.3498 -1.5701 -0.0531
 3972SOL     MW15888   2.384   0.490   1.926  0.0461 -0.4243  0.3974
 3973SOL     OW15889   0.749   3.436   3.534 -0.3289 -0.4711 -0.0657
 3973SOL    HW115890   0.720   3.527   3.541 -2.6132 -1.0578 -0.9384
 3973SOL    HW215891   0.769   3.424   3.441  0.1723 -0.8222  0.0812
 3973SOL     MW15892   0.748   3.446   3.523 -0.5572 -0.5912 -0.1586
 3974SOL     OW15893   4.859   3.232   2.136  0.4837  0.3622 -0.1089
 3974SOL    HW115894   4.835   3.291   2.064  2.8525  0.5583 -0.8300
 3974SOL    HW215895   4.903   3.288   2.200 -0.1321 -0.1008  0.7356
 3974SOL     MW15896   4.862   3.246   2.135  0.7081  0.3280 -0.0931
 3975SOL     OW15897   1.588   2.548   3.122  0.3228  0.4500  0.0417
 3975SOL    HW115898   1.615   2.526   3.033  1.0056 -0.5587  0.4770
 3975SOL    HW215899   1.670   2.563   3.169  0.0694 -0.8957  0.9579
 3975SOL     MW15900   1.602   2.547   3.117  0.3778  0.1486  0.2147
 3976SOL     OW15901   5.072   0.109   4.578  0.3454 -0.3615  0.3755
 3976SOL    HW115902   5.097   0.017   4.582  1.2833 -0.1110  0.6668
 3976SOL    HW215903   5.055   0.133   4.669 -0.0651 -0.2888  0.2805
 3976SOL     MW15904   5.073   0.100   4.590  0.4129 -0.3201  0.4006
 3977SOL     OW15905   3.834   2.320   4.313 -0.1012  0.3308 -0.4495
 3977SOL    HW115906   3.823   2.283   4.225  0.2515  1.5979 -1.0536
 3977SOL    HW215907   3.757   2.377   4.324  0.4239  1.0389 -0.3967
 3977SOL     MW15908   3.823   2.322   4.303  0.0112  0.5836 -0.5201
 3978SOL     OW15909   1.758   1.328   1.000  0.0668  0.1862 -0.1767
 3978SOL    HW115910   1.793   1.241   1.021  0.9980  0.3592 -0.9474
 3978SOL    HW215911   1.822   1.389   1.036 -1.1972  0.6233  1.4678
 3978SOL     MW15912   1.771   1.324   1.007  0.0242  0.2643 -0.0649
 3979SOL     OW15913   3.306   1.230   0.320 -0.2213  0.0257 -0.5484
 3979SOL    HW115914   3.315   1.220   0.415  1.5938 -0.6532 -0.7491
 3979SOL    HW215915   3.223   1.275   0.309 -0.2947  0.4746  1.3824
 3979SOL     MW15916   3.296   1.234   0.331  0.0016 -0.0037 -0.3269
 3980SOL     OW15917   0.593   2.525   3.741  0.0899  0.0418  0.2835
 3980SOL    HW115918   0.586   2.442   3.694 -0.5111  0.1549  0.1642
 3980SOL    HW215919   0.578   2.592   3.675  1.6238  0.3081  0.1588
 3980SOL     MW15920   0.590   2.523   3.727  0.2093  0.0904  0.2523
 3981SOL     OW15921   4.409   3.185   4.622  1.0902 -0.0555  0.1315
 3981SOL    HW115922   4.392   3.094   4.599  1.6552 -0.0321 -0.4076
 3981SOL    HW215923   4.329   3.215   4.664  1.0533 -0.9221  0.6948
 3981SOL     MW15924   4.397   3.177   4.624  1.1578 -0.1634  0.1346
 3982SOL     OW15925   1.424   1.561   5.025 -0.3343 -0.3081 -0.5918
 3982SOL    HW115926   1.519   1.554   5.020 -0.3908 -1.6150 -0.0903
 3982SOL    HW215927   1.392   1.473   5.007 -1.4691  0.1611 -0.9902
 3982SOL     MW15928   1.432   1.549   5.022 -0.4868 -0.4153 -0.5786
 3983SOL     OW15929   1.300   5.150   1.721 -0.5851 -0.3145 -0.2500
 3983SOL    HW115930   1.280   5.090   1.793  0.7992 -1.5644 -0.8388
 3983SOL    HW215931   1.381   5.115   1.683 -0.3576  1.2941 -1.3514
 3983SOL     MW15932   1.308   5.138   1.725 -0.3788 -0.2686 -0.4664
 3984SOL     OW15933   4.775   0.447   2.514  0.1889  0.0518  0.4435
 3984SOL    HW115934   4.861   0.480   2.538  0.6293 -1.5329  1.2198
 3984SOL    HW215935   4.793   0.359   2.478 -1.1043 -0.3666  0.7669
 3984SOL     MW15936   4.788   0.440   2.512  0.0797 -0.2046  0.5843
 3985SOL     OW15937   0.044   4.440   2.686 -0.4506  0.6566 -0.0670
 3985SOL    HW115938   0.032   4.465   2.594 -1.3726  0.9211  0.1149
 3985SOL    HW215939   0.132   4.402   2.689 -0.8898 -0.5758 -1.3449
 3985SOL     MW15940   0.053   4.438   2.675 -0.6249  0.5327 -0.2073
 3986SOL     OW15941   2.659   0.232   2.928  0.1682  0.3076 -0.4722
 3986SOL    HW115942   2.668   0.137   2.921 -1.5488  0.0937 -0.2124
 3986SOL    HW215943   2.566   0.246   2.945  0.5971  1.9640  0.7712
 3986SOL     MW15944   2.649   0.221   2.929  0.0033  0.4922 -0.2798
 3987SOL     OW15945   2.329   3.392   4.239  0.3009  0.8812 -0.2120
 3987SOL    HW115946   2.396   3.348   4.291  0.1380 -0.8117 -1.3455
 3987SOL    HW215947   2.248   3.378   4.289 -0.2023 -2.4304 -1.6790
 3987SOL     MW15948   2.327   3.384   4.252  0.2156  0.2406 -0.5449
 3988SOL     OW15949   4.993   3.423   5.267  0.0088  0.0556  0.1481
 3988SOL    HW115950   4.932   3.392   5.335  0.1418  0.9858  0.7055
 3988SOL    HW215951   5.073   3.443   5.315 -0.0310  1.1266 -0.2183
 3988SOL     MW15952   4.995   3.422   5.282  0.0207  0.3118  0.1726
 3989SOL     OW15953   0.388   2.743   1.984 -0.4784 -0.2077 -0.1222
 3989SOL    HW115954   0.299   2.761   2.012  0.3384  1.8300  1.3970
 3989SOL    HW215955   0.402   2.803   1.911 -0.2171 -0.1897 -0.0575
 3989SOL     MW15956   0.378   2.753   1.978 -0.3404  0.0555  0.0805
 3990SOL     OW15957   2.231   3.077   0.491 -0.4602 -0.4913 -0.0804
 3990SOL    HW115958   2.304   3.051   0.547 -0.6179 -1.0704 -0.1465
 3990SOL    HW215959   2.161   3.016   0.512 -1.0653  0.3042  0.2654
 3990SOL     MW15960   2.232   3.066   0.501 -0.5579 -0.4636 -0.0446
 3991SOL     OW15961   3.322   1.448   3.365 -0.1388  0.7200  0.0191
 3991SOL    HW115962   3.386   1.429   3.434 -0.2220  0.0828 -0.0757
 3991SOL    HW215963   3.273   1.367   3.355  1.0231  0.1871 -2.0011
 3991SOL     MW15964   3.324   1.435   3.373 -0.0007  0.5702 -0.2516
 3992SOL     OW15965   1.273   1.331   4.962  0.1857  0.2996 -0.2731
 3992SOL    HW115966   1.288   1.292   5.049  0.9899  2.3076  0.5414
 3992SOL    HW215967   1.264   1.256   4.904 -0.7691 -1.1221  1.6023
 3992SOL     MW15968   1.274   1.316   4.966  0.1664  0.3746  0.0713
 3993SOL     OW15969   0.816   2.964   2.792  0.0903  0.3129 -0.2637
 3993SOL    HW115970   0.886   2.920   2.841  0.9455  1.2197 -0.6399
 3993SOL    HW215971   0.741   2.905   2.800  0.9489 -0.7853 -0.0254
 3993SOL     MW15972   0.816   2.951   2.800  0.3097  0.2884 -0.2814
 3994SOL     OW15973   2.794   2.093   0.754  0.2110  0.3862 -0.2180
 3994SOL    HW115974   2.729   2.159   0.776 -0.6739 -1.0750  1.9100
 3994SOL    HW215975   2.763   2.056   0.672 -0.0060  1.6757 -0.7407
 3994SOL     MW15976   2.782   2.097   0.746  0.0700  0.3642 -0.0125
 3995SOL     OW15977   3.604   1.934   4.825 -0.7709 -0.3282  0.3363
 3995SOL    HW115978   3.695   1.960   4.808 -0.9896  0.7109  0.7170
 3995SOL    HW215979   3.611   1.872   4.898 -0.4629  0.7433  1.2438
 3995SOL     MW15980   3.617   1.929   4.832 -0.7595 -0.0580  0.5012
 3996SOL     OW15981   3.433   5.139   5.086  0.2602  0.1442  0.4880
 3996SOL    HW115982   3.344   5.158   5.057  0.1107 -0.0244  0.8400
 3996SOL    HW215983   3.436   5.168   5.177  0.2995 -0.6596  0.7509
 3996SOL     MW15984   3.422   5.145   5.094  0.2461  0.0197  0.5667
 3997SOL     OW15985   0.912   0.203   1.434 -0.1396  0.0273 -0.1144
 3997SOL    HW115986   0.963   0.127   1.462 -0.7394 -0.6740 -0.8946
 3997SOL    HW215987   0.941   0.221   1.345 -0.4388  0.3351 -0.1526
 3997SOL     MW15988   0.922   0.196   1.426 -0.2547 -0.0230 -0.2191
 3998SOL     OW15989   3.381   1.459   2.302  0.0752  0.0319 -0.4031
 3998SOL    HW115990   3.348   1.479   2.215 -0.2162  1.2016 -0.0430
 3998SOL    HW215991   3.305   1.429   2.352  0.0688  0.2224 -0.2984
 3998SOL     MW15992   3.367   1.457   2.298  0.0370  0.2060 -0.3436
 3999SOL     OW15993   4.682   4.665   3.108 -0.2753 -0.4245  0.4911
 3999SOL    HW115994   4.711   4.574   3.101  1.8485  0.3019 -1.3447
 3999SOL    HW215995   4.715   4.694   3.193  0.8653 -0.7993  0.1912
 3999SOL     MW15996   4.690   4.657   3.118  0.1426 -0.3795  0.2177
 4000SOL     OW15997   0.915   3.936   4.742 -0.0359  0.0223 -0.3716
 4000SOL    HW115998   1.004   3.904   4.727  0.5788  1.9152 -0.9702
 4000SOL    HW215999   0.926   4.015   4.794 -1.4369 -0.1002  0.1559
 4000SOL     MW16000   0.928   3.942   4.747 -0.1366  0.2490 -0.3807
 4001SOL     OW16001   3.954   1.963   1.021  0.4759 -0.2558  0.2680
 4001SOL    HW116002   4.049   1.957   1.029  0.5159  2.1915  3.6110
 4001SOL    HW216003   3.931   2.042   1.070 -3.3628 -1.1960  0.2644
 4001SOL     MW16004   3.963   1.972   1.028 -0.0104 -0.0629  0.6955
 4002SOL     OW16005   2.272   5.235   4.273 -0.2650  0.1931  0.0862
 4002SOL    HW116006   2.221   5.187   4.208  1.9219 -0.9734 -0.8621
 4002SOL    HW216007   2.273   5.325   4.242 -0.3018 -0.1078 -0.8046
 4002SOL     MW16008   2.266   5.241   4.261  0.0103  0.0053 -0.1492
 4003SOL     OW16009   4.190   2.775   2.404 -0.1954 -0.0211 -0.5261
 4003SOL    HW116010   4.227   2.784   2.316  0.8784 -1.1429 -0.2204
 4003SOL    HW216011   4.234   2.843   2.455  0.1753 -0.2291 -0.5625
 4003SOL     MW16012   4.200   2.785   2.399 -0.0105 -0.1913 -0.4916
 4004SOL     OW16013   2.001   5.150   0.807  0.2668  0.3151 -0.4167
 4004SOL    HW116014   1.974   5.118   0.893 -1.1877 -0.2071 -1.0496
 4004SOL    HW216015   1.981   5.244   0.808 -0.6187  0.1269 -0.5147
 4004SOL     MW16016   1.995   5.158   0.818 -0.0328  0.2241 -0.5102
 4005SOL     OW16017   4.662   1.744   3.160 -0.1646 -0.0234  0.4496
 4005SOL    HW116018   4.638   1.665   3.111  1.0587  0.0357 -0.2803
 4005SOL    HW216019   4.739   1.777   3.115 -0.1743  1.1383  1.2566
 4005SOL     MW16020   4.668   1.738   3.148 -0.0092  0.1329  0.4595
 4006SOL     OW16021   1.095   5.189   2.271 -0.3736 -0.2962 -0.1806
 4006SOL    HW116022   1.181   5.158   2.244  0.5164  0.4520  1.6144
 4006SOL    HW216023   1.097   5.185   2.367 -1.6136  1.5586 -0.0225
 4006SOL     MW16024   1.106   5.185   2.280 -0.4184  0.0370  0.0694
 4007SOL     OW16025   0.244   0.152   3.875 -0.5192 -0.0559  0.0500
 4007SOL    HW116026   0.305   0.128   3.805 -0.5464 -1.1506  0.3785
 4007SOL    HW216027   0.215   0.068   3.911 -1.8514  0.4563  0.2236
 4007SOL     MW16028   0.248   0.138   3.870 -0.6932 -0.1305  0.1142
 4008SOL     OW16029   4.723   3.197   4.372  0.2807  0.5441  0.0668
 4008SOL    HW116030   4.747   3.279   4.329  1.5064 -0.5586 -1.4357
 4008SOL    HW216031   4.630   3.186   4.354  0.6078  0.4882 -1.7169
 4008SOL     MW16032   4.714   3.206   4.364  0.4794  0.3958 -0.3539
 4009SOL     OW16033   3.360   3.956   3.651  0.1874 -0.5660  0.3450
 4009SOL    HW116034   3.341   3.906   3.730 -0.8358 -1.6354 -0.5298
 4009SOL    HW216035   3.274   3.971   3.611  0.7621 -1.2622 -1.2569
 4009SOL     MW16036   3.346   3.952   3.656  0.1300 -0.7920  0.0280
 4010SOL     OW16037   0.450   0.493   3.906  0.0446 -0.0441  0.5824
 4010SOL    HW116038   0.356   0.497   3.922  0.0022 -2.2633  1.1177
 4010SOL    HW216039   0.487   0.562   3.962 -1.3034  1.6206 -0.4873
 4010SOL     MW16040   0.443   0.503   3.916 -0.1334 -0.1151  0.5140
 4011SOL     OW16041   4.235   0.028  -0.009  0.5474  0.2634  0.0924
 4011SOL    HW116042   4.214   0.119  -0.029 -0.2858 -0.0857 -0.6913
 4011SOL    HW216043   4.166   0.001   0.052  0.2103 -0.1270 -0.4538
 4011SOL     MW16044   4.224   0.036  -0.003  0.3976  0.1688 -0.0779
 4012SOL     OW16045   0.443   0.163   4.693  0.0159  0.0499  0.4102
 4012SOL    HW116046   0.381   0.149   4.764  0.8719 -1.3726  0.9091
 4012SOL    HW216047   0.521   0.113   4.717  1.1250  1.2329 -0.5309
 4012SOL     MW16048   0.445   0.155   4.705  0.2674  0.0192  0.3536
 4013SOL     OW16049   2.605   1.957   2.269 -0.4610 -0.1173  0.5696
 4013SOL    HW116050   2.663   1.882   2.277 -0.2614  0.1117  1.2927
 4013SOL    HW216051   2.550   1.954   2.346  0.2903  1.0977  1.1928
 4013SOL     MW16052   2.606   1.947   2.280 -0.3393  0.0676  0.7419
 4014SOL     OW16053   0.901   0.706   4.808 -0.0445 -0.4207 -0.1535
 4014SOL    HW116054   0.950   0.751   4.877 -0.0047  1.0353 -1.0803
 4014SOL    HW216055   0.960   0.637   4.777  0.9819  0.5696 -0.4647
 4014SOL     MW16056   0.915   0.703   4.812  0.0920 -0.1076 -0.3120
 4015SOL     OW16057   0.880   2.633   3.351 -0.1604 -0.5036  0.5660
 4015SOL    HW116058   0.824   2.656   3.277 -0.4698 -0.7060  0.7365
 4015SOL    HW216059   0.856   2.695   3.420  1.0263  0.5318  0.0921
 4015SOL     MW16060   0.870   2.644   3.351 -0.0481 -0.3970  0.5272
 4016SOL     OW16061   4.776   5.358   2.389  0.6076 -0.9474  1.0155
 4016SOL    HW116062   4.840   5.288   2.377  0.3567 -0.7576 -2.3131
 4016SOL    HW216063   4.691   5.316   2.376  0.3251 -0.4411  1.1899
 4016SOL     MW16064   4.773   5.344   2.386  0.5393 -0.8583  0.6117
 4017SOL     OW16065   5.099   2.379   1.756 -0.5479 -0.2687 -0.5096
 4017SOL    HW116066   5.025   2.434   1.731  0.8800  1.4851 -1.0817
 4017SOL    HW216067   5.171   2.440   1.769  0.9019 -1.9410 -0.3199
 4017SOL     MW16068   5.098   2.394   1.754 -0.1795 -0.2583 -0.5585
 4018SOL     OW16069   0.670   3.583   2.253  0.0322  0.4839  0.5306
 4018SOL    HW116070   0.579   3.610   2.270 -0.2783  0.6725 -1.2206
 4018SOL    HW216071   0.713   3.589   2.338 -1.4287  1.0561  1.2685
 4018SOL     MW16072   0.664   3.587   2.266 -0.1946  0.5813  0.4009
 4019SOL     OW16073   1.383   3.921   4.245  0.3344  0.0477 -0.1736
 4019SOL    HW116074   1.333   3.962   4.175 -1.0727 -1.7435 -0.3075
 4019SOL    HW216075   1.473   3.919   4.213 -0.1839 -0.2096 -1.6946
 4019SOL     MW16076   1.388   3.926   4.232  0.0879 -0.2145 -0.3855
 4020SOL     OW16077   1.868   2.240   2.350 -0.1976 -0.2103 -0.9862
 4020SOL    HW116078   1.936   2.261   2.414 -3.0014  2.9018  1.3436
 4020SOL    HW216079   1.849   2.147   2.363  0.4046 -0.0147  1.6755
 4020SOL     MW16080   1.874   2.231   2.359 -0.4794  0.2132 -0.3472
 4021SOL     OW16081   1.183   0.886   4.179  0.0157 -0.6899  0.3149
 4021SOL    HW116082   1.249   0.884   4.109  0.5834  0.8119  0.7826
 4021SOL    HW216083   1.231   0.910   4.257 -1.0145 -0.0156  0.7608
 4021SOL     MW16084   1.198   0.889   4.180 -0.0435 -0.4113  0.4319
 4022SOL     OW16085   0.842   3.208   3.076 -0.1842 -0.0863 -0.1428
 4022SOL    HW116086   0.892   3.209   2.994 -0.9368  0.8997 -0.6144
 4022SOL    HW216087   0.866   3.125   3.117  0.7867 -0.2604 -0.9993
 4022SOL     MW16088   0.851   3.197   3.070 -0.1562  0.0176 -0.3128
 4023SOL     OW16089   4.714   3.409   3.109  0.2436  0.2769 -0.6166
 4023SOL    HW116090   4.784   3.425   3.172 -0.5374 -0.7053  0.5343
 4023SOL    HW216091   4.634   3.437   3.154 -0.2887 -0.1416 -1.2826
 4023SOL     MW16092   4.713   3.415   3.123  0.0755  0.0976 -0.5545
 4024SOL     OW16093   4.496   5.137   2.656 -0.1242 -0.3717 -0.2083
 4024SOL    HW116094   4.514   5.056   2.704 -0.8765  0.8139  2.1930
 4024SOL    HW216095   4.494   5.205   2.723  1.5593  1.8775 -2.2528
 4024SOL     MW16096   4.498   5.135   2.670 -0.0050  0.0680 -0.1626
 4025SOL     OW16097   4.360   3.841   4.769  0.2734  0.5495 -0.6486
 4025SOL    HW116098   4.427   3.909   4.761  0.6866 -0.0015 -2.2465
 4025SOL    HW216099   4.403   3.761   4.741 -1.0011  0.1622 -1.6070
 4025SOL     MW16100   4.374   3.840   4.764  0.1631  0.4294 -0.9758
 4026SOL     OW16101   1.223   5.347   3.521  0.1629  0.2604  0.2605
 4026SOL    HW116102   1.296   5.290   3.544 -0.6009 -0.6280  0.5310
 4026SOL    HW216103   1.201   5.323   3.431 -0.7530 -0.5473  0.6807
 4026SOL     MW16104   1.230   5.337   3.512 -0.0521  0.0433  0.3489
 4027SOL     OW16105   4.804   4.204   1.367 -0.1544  0.0278  0.3320
 4027SOL    HW116106   4.725   4.163   1.333  0.8429 -0.6444 -1.2941
 4027SOL    HW216107   4.876   4.154   1.329  1.0820  1.3701  0.7732
 4027SOL     MW16108   4.803   4.193   1.358  0.1315  0.1136  0.1803
 4028SOL     OW16109   2.429   0.546   4.246  0.2474 -0.3091 -0.3820
 4028SOL    HW116110   2.360   0.488   4.214  0.5587 -0.2703 -1.1261
 4028SOL    HW216111   2.442   0.609   4.176  1.0776 -0.3420 -0.2663
 4028SOL     MW16112   2.422   0.547   4.233  0.3935 -0.3083 -0.4625
 4029SOL     OW16113   2.521   1.011   2.032 -0.3098  0.3423 -0.1074
 4029SOL    HW116114   2.427   1.028   2.040 -0.5473  0.1836 -1.9937
 4029SOL    HW216115   2.528   0.916   2.030 -0.4615  0.3147 -2.6241
 4029SOL     MW16116   2.510   1.001   2.032 -0.3596  0.3185 -0.6710
 4030SOL     OW16117   5.420   3.150   0.367 -0.2048 -0.2275 -0.4305
 4030SOL    HW116118   5.331   3.181   0.381  0.2852 -0.0130  3.0369
 4030SOL    HW216119   5.471   3.230   0.350 -0.6158 -0.3729 -2.6684
 4030SOL     MW16120   5.415   3.165   0.367 -0.1947 -0.2187 -0.2731
 4031SOL     OW16121   2.951   2.505   4.093  0.0995  0.0281 -0.1489
 4031SOL    HW116122   2.895   2.569   4.135  0.1808 -0.5129  0.8049
 4031SOL    HW216123   3.000   2.464   4.164 -0.2948 -1.4324 -0.6664
 4031SOL     MW16124   2.950   2.508   4.107  0.0595 -0.2281 -0.0931
 4032SOL     OW16125   1.347   0.759   2.973 -0.4194 -0.2249  0.3795
 4032SOL    HW116126   1.260   0.752   3.012 -0.1746 -2.1490  0.6929
 4032SOL    HW216127   1.341   0.833   2.913 -2.0153  0.1955  1.0133
 4032SOL     MW16128   1.335   0.768   2.970 -0.5924 -0.4174  0.5008
 4033SOL     OW16129   1.919   4.141   5.155  0.4065  0.4016  0.3252
 4033SOL    HW116130   1.844   4.198   5.171 -0.0943 -0.3042  0.5326
 4033SOL    HW216131   1.942   4.107   5.242  0.5369  0.0987  0.1737
 4033SOL     MW16132   1.912   4.144   5.169  0.3591  0.2725  0.3324
 4034SOL     OW16133   2.131  -0.005   2.676  0.2384  0.0510  0.1161
 4034SOL    HW116134   2.192   0.067   2.659 -0.3580  0.2380 -1.3631
 4034SOL    HW216135   2.107  -0.037   2.590 -0.0045 -1.5257  0.7404
 4034SOL     MW16136   2.136   0.000   2.663  0.1309 -0.1269  0.0067
 4035SOL     OW16137   2.862   5.272   0.678 -0.2962 -0.1646  0.3237
 4035SOL    HW116138   2.887   5.278   0.586  0.1503 -1.1908  0.3715
 4035SOL    HW216139   2.852   5.363   0.706 -0.6546  0.1558 -0.7903
 4035SOL     MW16140   2.864   5.285   0.670 -0.2849 -0.2550  0.1872
 4036SOL     OW16141   0.567   1.657   5.235  0.9143 -0.1579  0.4011
 4036SOL    HW116142   0.574   1.564   5.210  0.0917 -0.7716  2.2574
 4036SOL    HW216143   0.647   1.697   5.200  1.9579 -1.8662  0.7137
 4036SOL     MW16144   0.578   1.650   5.227  0.9426 -0.4551  0.6787
 4037SOL     OW16145   3.419   4.851   3.520  0.1412  0.2756 -0.4587
 4037SOL    HW116146   3.382   4.763   3.516 -0.4556  0.3310  2.0423
 4037SOL    HW216147   3.354   4.907   3.476 -0.0219 -0.3608 -1.0421
 4037SOL     MW16148   3.406   4.847   3.514  0.0439  0.2012 -0.2132
 4038SOL     OW16149   1.123   4.492   3.658 -0.2214  0.2962 -0.4524
 4038SOL    HW116150   1.089   4.527   3.576  1.4408  2.2213 -0.4084
 4038SOL    HW216151   1.178   4.563   3.693 -0.7097 -0.5428  2.2256
 4038SOL     MW16152   1.126   4.506   3.652 -0.0711  0.4352 -0.1040
 4039SOL     OW16153   4.869   1.927   4.241 -0.4161 -0.5957 -0.5059
 4039SOL    HW116154   4.857   1.936   4.147 -2.4380  0.3691 -0.2011
 4039SOL    HW216155   4.900   2.013   4.270  0.3996 -0.9460 -0.2868
 4039SOL     MW16156   4.871   1.939   4.233 -0.5705 -0.5171 -0.4388
 4040SOL     OW16157   4.486   1.439   3.963  0.1780  0.2286 -0.3540
 4040SOL    HW116158   4.400   1.412   3.994  1.1681 -2.0668  0.6726
 4040SOL    HW216159   4.547   1.396   4.023  2.0637  2.2215 -0.6986
 4040SOL     MW16160   4.483   1.430   3.975  0.5461  0.1899 -0.2667
 4041SOL     OW16161   4.975   4.877   3.446  0.0801  0.2683  0.2601
 4041SOL    HW116162   4.959   4.943   3.378  0.1250  0.7718  0.7295
 4041SOL    HW216163   4.972   4.926   3.528 -0.1118 -0.3563  0.6373
 4041SOL     MW16164   4.972   4.892   3.448  0.0613  0.2528  0.3685
 4042SOL     OW16165   4.005   4.812   3.930 -0.6206  0.1878  0.1804
 4042SOL    HW116166   4.017   4.724   3.894  1.1662  0.0685  0.9684
 4042SOL    HW216167   3.995   4.798   4.024 -2.4364  0.7098  0.1120
 4042SOL     MW16168   4.005   4.799   3.937 -0.6243  0.2393  0.2725
 4043SOL     OW16169   3.440   3.725   4.961 -0.4113 -0.7742 -0.3651
 4043SOL    HW116170   3.416   3.817   4.966 -1.5622 -1.0873  0.0787
 4043SOL    HW216171   3.536   3.725   4.959 -0.4072  0.4287 -0.4112
 4043SOL     MW16172   3.450   3.737   4.962 -0.5581 -0.6603 -0.3142
 4044SOL     OW16173   1.742   1.597   3.161  0.3392 -0.0974 -0.2310
 4044SOL    HW116174   1.754   1.599   3.256  1.1860 -0.2182 -0.3229
 4044SOL    HW216175   1.828   1.570   3.127  0.2330  0.5931 -1.0711
 4044SOL     MW16176   1.755   1.594   3.169  0.4340 -0.0244 -0.3503
 4045SOL     OW16177   1.569   3.907   5.452 -0.1033 -0.6578  0.1341
 4045SOL    HW116178   1.556   3.928   5.359  0.6505  2.2066  0.5789
 4045SOL    HW216179   1.664   3.901   5.461 -0.0167  1.2196  1.0334
 4045SOL     MW16180   1.579   3.909   5.441  0.0043 -0.0508  0.3062
 4046SOL     OW16181   2.829   2.369   1.752  0.0319  0.0404  0.0635
 4046SOL    HW116182   2.908   2.322   1.724  0.7297 -0.1572  2.1782
 4046SOL    HW216183   2.812   2.337   1.841 -2.0734  0.5622 -0.0834
 4046SOL     MW16184   2.837   2.359   1.760 -0.1483  0.0819  0.3154
 4047SOL     OW16185   1.538   4.810   1.079  0.5006  0.2506 -0.2662
 4047SOL    HW116186   1.562   4.750   1.149  1.7925  2.0899  0.9602
 4047SOL    HW216187   1.452   4.780   1.050 -0.0859 -0.5649  2.1067
 4047SOL     MW16188   1.530   4.798   1.084  0.5909  0.3816  0.1945
 4048SOL     OW16189   0.430   2.253   3.867 -0.4117 -0.0712 -0.0539
 4048SOL    HW116190   0.398   2.338   3.898 -0.4902  0.0282 -0.4055
 4048SOL    HW216191   0.394   2.245   3.779  0.0872 -0.2054 -0.2441
 4048SOL     MW16192   0.421   2.263   3.860 -0.3579 -0.0757 -0.1233
 4049SOL     OW16193   4.419   3.527   0.569  0.1329  0.1665 -0.6489
 4049SOL    HW116194   4.367   3.589   0.620  0.9500 -0.0991  0.5457
 4049SOL    HW216195   4.505   3.568   0.562  0.3459 -0.3057 -0.8513
 4049SOL     MW16196   4.423   3.540   0.575  0.2648  0.0720 -0.5219
 4050SOL     OW16197   0.098   3.622   5.502  0.0600 -0.2334 -0.1828
 4050SOL    HW116198   0.100   3.573   5.419 -1.1488 -0.0131 -0.3589
 4050SOL    HW216199   0.042   3.697   5.483 -1.4186 -0.9211  1.2293
 4050SOL     MW16200   0.091   3.625   5.489 -0.2840 -0.2932 -0.0246
 4051SOL     OW16201   4.972   3.447   4.079  0.0652  0.1846  0.3210
 4051SOL    HW116202   4.988   3.374   4.019  0.3519  0.2584  0.3086
 4051SOL    HW216203   4.994   3.525   4.028  1.9077  0.1780  1.0349
 4051SOL     MW16204   4.977   3.448   4.065  0.3378  0.1932  0.4108
 4052SOL     OW16205   2.846   0.595   0.101  0.3286 -0.2540 -0.3190
 4052SOL    HW116206   2.813   0.655   0.168 -0.2773  0.4622 -1.2306
 4052SOL    HW216207   2.769   0.571   0.050  0.1706 -3.3931  1.1459
 4052SOL     MW16208   2.832   0.600   0.103  0.2308 -0.5642 -0.2482
 4053SOL     OW16209   3.033   1.289   1.854  0.2296 -0.2255  0.3241
 4053SOL    HW116210   2.981   1.263   1.930 -2.2356  0.3190 -1.0472
 4053SOL    HW216211   3.078   1.210   1.827  1.8812 -0.2308  2.7993
 4053SOL     MW16212   3.032   1.276   1.860  0.1255 -0.1565  0.4654
 4054SOL     OW16213   3.458   2.650   4.692 -0.0175 -0.1231 -0.6738
 4054SOL    HW116214   3.380   2.643   4.638 -1.1006 -1.0421  0.9247
 4054SOL    HW216215   3.443   2.590   4.765  1.4039  0.9839  0.6099
 4054SOL     MW16216   3.446   2.641   4.695  0.0258 -0.0990 -0.3048
 4055SOL     OW16217   0.096   2.702   2.031  0.0905 -0.6547  0.3050
 4055SOL    HW116218   0.088   2.699   2.126  1.0807  0.8072  0.4620
 4055SOL    HW216219   0.090   2.795   2.009  2.0684 -0.7390 -0.8378
 4055SOL     MW16220   0.094   2.714   2.040  0.4705 -0.4784  0.1788
 4056SOL     OW16221   1.026   1.890   2.532 -0.5641  0.1640  0.3339
 4056SOL    HW116222   1.053   1.809   2.577 -0.1055  0.1204 -0.0090
 4056SOL    HW216223   0.964   1.931   2.592 -0.3050 -0.1181  0.8029
 4056SOL     MW16224   1.021   1.885   2.545 -0.4722  0.1223  0.3500
 4057SOL     OW16225   3.923   0.480   0.422  0.0531  0.5277  0.1083
 4057SOL    HW116226   3.970   0.420   0.480  0.0429  1.3913  1.0269
 4057SOL    HW216227   3.912   0.560   0.473 -1.2905  0.7934 -0.5470
 4057SOL     MW16228   3.927   0.482   0.436 -0.1202  0.6723  0.1420
 4058SOL     OW16229   5.110   1.106   4.139 -0.2496  0.1839 -0.3270
 4058SOL    HW116230   5.064   1.164   4.201 -1.5501  0.3108 -1.3785
 4058SOL    HW216231   5.192   1.084   4.184 -0.2515  1.8805  0.6073
 4058SOL     MW16232   5.115   1.111   4.153 -0.4163  0.4173 -0.3420
 4059SOL     OW16233   2.948   4.128   3.744 -0.4245  0.6649 -0.0364
 4059SOL    HW116234   2.943   4.042   3.702  0.3501  0.4760  0.2317
 4059SOL    HW216235   2.926   4.111   3.835  1.7529  0.3432  0.4941
 4059SOL     MW16236   2.945   4.115   3.750 -0.0466  0.5995  0.0658
 4060SOL     OW16237   1.366   4.982   3.085 -0.3464  0.7409 -0.7874
 4060SOL    HW116238   1.308   4.921   3.039  0.3655 -0.1697 -0.5123
 4060SOL    HW216239   1.307   5.045   3.126 -1.2300 -0.7776  0.3649
 4060SOL     MW16240   1.351   4.982   3.084 -0.3684  0.4300 -0.6047
 4061SOL     OW16241   3.391   3.929   3.040 -0.3907  0.0527  0.2751
 4061SOL    HW116242   3.356   3.877   2.967  0.8551 -1.2543  0.5607
 4061SOL    HW216243   3.486   3.918   3.034 -0.2242  0.5725  1.6238
 4061SOL     MW16244   3.399   3.921   3.030 -0.2099 -0.0481  0.4843
 4062SOL     OW16245   4.229   4.542   2.278 -0.4388  0.5030  0.2384
 4062SOL    HW116246   4.249   4.527   2.186  0.1335 -0.2934  0.4765
 4062SOL    HW216247   4.268   4.628   2.297 -1.8781  1.3736 -0.6204
 4062SOL     MW16248   4.237   4.551   2.269 -0.5498  0.5125  0.1590
 4063SOL     OW16249   2.344   1.435   1.835 -0.5762  0.0920 -0.2945
 4063SOL    HW116250   2.299   1.357   1.869  1.2999 -0.4991  0.9865
 4063SOL    HW216251   2.437   1.413   1.841  0.0262  2.5351  0.4148
 4063SOL     MW16252   2.350   1.422   1.840 -0.2589  0.3291 -0.0397
 4064SOL     OW16253   1.707   2.584   0.286 -0.6487 -0.5182 -0.6722
 4064SOL    HW116254   1.634   2.636   0.253  0.1835  0.7821 -0.5381
 4064SOL    HW216255   1.778   2.600   0.225 -0.0632 -0.6473 -0.0424
 4064SOL     MW16256   1.707   2.593   0.274 -0.4672 -0.3683 -0.5744
 4065SOL     OW16257   1.486   2.714   0.197 -0.2805  0.1827 -0.3107
 4065SOL    HW116258   1.450   2.674   0.117 -0.3379  2.1194 -1.3108
 4065SOL    HW216259   1.415   2.710   0.260 -0.7486 -0.0248 -0.8405
 4065SOL     MW16260   1.473   2.708   0.195 -0.3478  0.4040 -0.5066
 4066SOL     OW16261   1.594   0.795   4.101 -0.3571 -0.3449  0.0592
 4066SOL    HW116262   1.670   0.808   4.044  0.9554 -2.4616  1.2027
 4066SOL    HW216263   1.577   0.882   4.138  1.0392  0.3206 -0.7884
 4066SOL     MW16264   1.602   0.808   4.098 -0.0103 -0.5307  0.0970
 4067SOL     OW16265   4.771   0.168   2.157  0.4539  0.0270  0.0477
 4067SOL    HW116266   4.753   0.085   2.112  0.2886  0.2511 -0.3023
 4067SOL    HW216267   4.855   0.197   2.121  0.4063  0.1199  0.0112
 4067SOL     MW16268   4.779   0.161   2.147  0.4266  0.0676 -0.0018
 4068SOL     OW16269   2.839   2.322   4.494  0.3902 -0.8917  0.0319
 4068SOL    HW116270   2.889   2.254   4.538  2.2200 -0.9576 -1.9652
 4068SOL    HW216271   2.900   2.396   4.486 -0.8625  0.2047  0.2800
 4068SOL     MW16272   2.853   2.323   4.498  0.4641 -0.7598 -0.1920
 4069SOL     OW16273   0.635   3.352   0.795 -0.2392  0.1258 -0.0107
 4069SOL    HW116274   0.679   3.337   0.712 -1.0908  0.2858 -0.5130
 4069SOL    HW216275   0.699   3.398   0.849  0.7421 -1.0625 -0.1362
 4069SOL     MW16276   0.649   3.356   0.791 -0.2226 -0.0058 -0.0911
 4070SOL     OW16277   3.808   0.427   3.534  0.1750 -0.1875 -0.0128
 4070SOL    HW116278   3.827   0.426   3.441 -1.3090  1.1316 -0.3714
 4070SOL    HW216279   3.811   0.335   3.561  1.6874 -0.4825 -1.1006
 4070SOL     MW16280   3.811   0.416   3.526  0.1786 -0.0564 -0.1980
 4071SOL     OW16281   2.712   2.208   4.998  0.1623 -0.0230 -0.4210
 4071SOL    HW116282   2.695   2.302   5.012 -1.1240 -0.3538  0.4517
 4071SOL    HW216283   2.788   2.189   5.052  0.1284  0.4177 -0.2108
 4071SOL     MW16284   2.719   2.218   5.007 -0.0067 -0.0089 -0.2824
 4072SOL     OW16285   0.306   1.450   3.918  0.3428  0.2079  0.2431
 4072SOL    HW116286   0.381   1.509   3.932  0.0819  0.7058 -0.4474
 4072SOL    HW216287   0.330   1.371   3.966  0.7716  0.8049  1.0606
 4072SOL     MW16288   0.319   1.448   3.926  0.3643  0.3481  0.2594
 4073SOL     OW16289   0.081   0.310   1.005 -0.2002 -0.0223 -0.1558
 4073SOL    HW116290   0.119   0.384   0.959  0.5411 -0.5372 -0.3899
 4073SOL    HW216291   0.061   0.344   1.092  1.0485  0.2054  0.0604
 4073SOL     MW16292   0.083   0.324   1.010  0.0545 -0.0590 -0.1581
 4074SOL     OW16293   2.536   3.641   1.338  0.5322  0.3741 -0.1442
 4074SOL    HW116294   2.577   3.712   1.289  0.8518  0.7848  0.6999
 4074SOL    HW216295   2.548   3.564   1.283 -0.2081  1.0438 -1.2761
 4074SOL     MW16296   2.543   3.640   1.325  0.4784  0.5124 -0.1811
 4075SOL     OW16297   5.036   4.425   1.569  0.6987  0.4976  0.4495
 4075SOL    HW116298   4.950   4.420   1.611  1.1617  0.2790  1.3892
 4075SOL    HW216299   5.064   4.515   1.582  0.3575  0.7341 -0.3901
 4075SOL     MW16300   5.028   4.436   1.576  0.7143  0.4999  0.4623
 4076SOL     OW16301   4.719   4.798   4.262  0.1070  0.2088 -0.3348
 4076SOL    HW116302   4.677   4.747   4.331  0.5656  0.0315 -0.1817
 4076SOL    HW216303   4.655   4.865   4.239 -0.1713  0.0764  0.0450
 4076SOL     MW16304   4.705   4.800   4.268  0.1301  0.1691 -0.2666
 4077SOL     OW16305   4.711   2.307   3.095  0.7249  0.4811  0.1392
 4077SOL    HW116306   4.649   2.239   3.122  1.7116 -0.4816  0.0563
 4077SOL    HW216307   4.667   2.352   3.023  0.8058 -1.3439 -1.1272
 4077SOL     MW16308   4.697   2.304   3.089  0.8615  0.1243 -0.0336
 4078SOL     OW16309   1.664   0.342   0.854 -0.0345  0.2804 -0.9630
 4078SOL    HW116310   1.728   0.297   0.799  0.6076  0.4942 -0.3992
 4078SOL    HW216311   1.599   0.376   0.792 -0.8350 -1.8206 -1.3875
 4078SOL     MW16312   1.664   0.340   0.839 -0.0548  0.0388 -0.9452
 4079SOL     OW16313   0.839   1.804   2.372  0.2958  0.2440 -0.1361
 4079SOL    HW116314   0.796   1.882   2.336  1.0254  1.1325  0.8781
 4079SOL    HW216315   0.905   1.838   2.432 -0.8418 -1.1705  2.0529
 4079SOL     MW16316   0.842   1.818   2.375  0.2435  0.1766  0.2740
 4080SOL     OW16317   2.142   3.056   4.945 -0.1755 -0.6127 -0.0049
 4080SOL    HW116318   2.180   3.036   5.030 -1.9876 -0.3785  0.9007
 4080SOL    HW216319   2.143   3.152   4.940  0.3438 -0.6349 -0.4633
 4080SOL     MW16320   2.147   3.066   4.955 -0.3410 -0.5856  0.0524
 4081SOL     OW16321   1.823   0.506   3.260 -0.0247 -0.2221 -0.6623
 4081SOL    HW116322   1.895   0.499   3.322  0.5653 -0.1237 -1.3214
 4081SOL    HW216323   1.799   0.599   3.261 -0.5122 -0.3484 -0.0438
 4081SOL     MW16324   1.829   0.517   3.268 -0.0116 -0.2257 -0.6675
 4082SOL     OW16325   0.894   3.276   4.814 -0.1483 -0.0993  0.1283
 4082SOL    HW116326   0.840   3.346   4.777 -1.2077 -0.8512  0.2111
 4082SOL    HW216327   0.974   3.320   4.843 -0.2978  0.8745 -0.9003
 4082SOL     MW16328   0.897   3.291   4.813 -0.3031 -0.0709  0.0072
 4083SOL     OW16329   0.460   5.179   0.426 -0.1168  0.0842 -0.6892
 4083SOL    HW116330   0.487   5.244   0.491  0.2962  0.9470 -1.6737
 4083SOL    HW216331   0.399   5.122   0.472  0.1922  0.6416  0.4503
 4083SOL     MW16332   0.456   5.180   0.440 -0.0244  0.2660 -0.6694
 4084SOL     OW16333   1.521   1.712   1.749  0.1408  0.2700  0.1688
 4084SOL    HW116334   1.489   1.638   1.801  0.2408  0.4539  0.4916
 4084SOL    HW216335   1.510   1.788   1.806 -0.4679  0.5920 -0.3540
 4084SOL     MW16336   1.515   1.712   1.763  0.0757  0.3347  0.1432
 4085SOL     OW16337   0.592   0.084   3.393 -0.0902  0.1917 -0.1189
 4085SOL    HW116338   0.554   0.162   3.351 -2.0170 -0.2391  0.7235
 4085SOL    HW216339   0.548   0.011   3.351 -0.0998 -0.3445  0.8156
 4085SOL     MW16340   0.582   0.085   3.382 -0.3381  0.0679  0.1086
 4086SOL     OW16341   3.690   0.225   4.085  0.6391  0.4054 -0.3684
 4086SOL    HW116342   3.630   0.215   4.158  2.2242  1.3045  1.1316
 4086SOL    HW216343   3.637   0.265   4.015 -1.4389 -2.4153 -0.5470
 4086SOL     MW16344   3.676   0.229   4.085  0.5760  0.1594 -0.1992
 4087SOL     OW16345   2.797   1.382   3.387 -0.6524 -0.3201 -0.1758
 4087SOL    HW116346   2.861   1.318   3.356 -0.2176  0.7591 -1.6232
 4087SOL    HW216347   2.806   1.382   3.482  1.0634 -0.6432 -0.3184
 4087SOL     MW16348   2.806   1.374   3.395 -0.3771 -0.2233 -0.3794
 4088SOL     OW16349   1.396   3.476   3.613 -0.0570 -0.2616  0.0998
 4088SOL    HW116350   1.309   3.467   3.575 -0.1358  0.0397  0.2088
 4088SOL    HW216351   1.432   3.554   3.571  0.3546 -0.6688 -0.3208
 4088SOL     MW16352   1.390   3.485   3.602 -0.0144 -0.2751  0.0599
 4089SOL     OW16353   4.731   2.446   4.906 -0.5016  0.1540 -0.4199
 4089SOL    HW116354   4.798   2.513   4.893  0.2296 -0.6364 -0.7952
 4089SOL    HW216355   4.717   2.409   4.819 -0.7336 -0.3343 -0.1783
 4089SOL     MW16356   4.738   2.450   4.893 -0.4377 -0.0097 -0.4370
 4090SOL     OW16357   3.693   1.894   2.756  0.2384  0.7880 -0.4242
 4090SOL    HW116358   3.714   1.802   2.768  2.6755  1.4143  0.7830
 4090SOL    HW216359   3.638   1.897   2.678  0.5828 -1.6039 -0.8127
 4090SOL     MW16360   3.689   1.883   2.748  0.5945  0.5619 -0.3194
 4091SOL     OW16361   0.042   1.982   1.930  0.2400  0.2531  0.1591
 4091SOL    HW116362  -0.027   1.928   1.891  0.5743  0.5059 -0.8201
 4091SOL    HW216363   0.042   1.959   2.022 -0.0304 -0.9743 -0.1380
 4091SOL     MW16364   0.033   1.972   1.937  0.2482  0.1283 -0.0043
 4092SOL     OW16365   5.298   4.896   5.232 -0.0077 -0.4235  0.4698
 4092SOL    HW116366   5.299   4.983   5.271 -0.0026 -0.3336  0.2725
 4092SOL    HW216367   5.205   4.879   5.213  0.1979  0.6734 -1.9639
 4092SOL     MW16368   5.286   4.905   5.234  0.0193 -0.2716  0.1330
 4093SOL     OW16369   3.607   0.594   5.342  0.4385 -0.5607  0.3537
 4093SOL    HW116370   3.519   0.556   5.350 -0.8435  2.1524  0.2675
 4093SOL    HW216371   3.645   0.585   5.429 -1.4794  1.5617  1.5127
 4093SOL     MW16372   3.600   0.588   5.354  0.0289  0.0583  0.4910
 4094SOL     OW16373   1.493   4.646   1.556  0.3292  0.2501  0.4729
 4094SOL    HW116374   1.481   4.631   1.463 -1.0421 -0.3397  0.7223
 4094SOL    HW216375   1.572   4.699   1.562  0.4511  0.2636 -1.0153
 4094SOL     MW16376   1.501   4.651   1.545  0.1692  0.1763  0.3143
 4095SOL     OW16377   5.249   2.369   3.434  0.2394 -0.1219  0.3674
 4095SOL    HW116378   5.269   2.412   3.517 -2.1407  0.2697  0.8092
 4095SOL    HW216379   5.233   2.440   3.372  0.8111 -0.4020 -0.1070
 4095SOL     MW16380   5.249   2.383   3.436  0.0079 -0.1077  0.3632
 4096SOL     OW16381   3.850   1.468   2.573  0.1894  0.1067 -0.0309
 4096SOL    HW116382   3.933   1.501   2.538  1.0141 -1.1497  0.6563
 4096SOL    HW216383   3.789   1.473   2.500  0.9275  0.8850 -0.6009
 4096SOL     MW16384   3.853   1.473   2.559  0.3894  0.0455 -0.0159
 4097SOL     OW16385   3.140   1.975   5.425  0.4359 -0.1796 -0.3904
 4097SOL    HW116386   3.091   1.909   5.375 -0.4854  2.4206 -3.1979
 4097SOL    HW216387   3.098   1.973   5.512  0.6669 -3.3901 -0.2085
 4097SOL     MW16388   3.128   1.966   5.430  0.3475 -0.2577 -0.7265
 4098SOL     OW16389   1.038   2.132   5.068 -0.4205 -0.0086 -0.2981
 4098SOL    HW116390   1.105   2.083   5.022 -0.5586  0.1870 -0.7184
 4098SOL    HW216391   1.016   2.204   5.008 -0.9982 -0.0689 -0.1696
 4098SOL     MW16392   1.044   2.135   5.054 -0.5121  0.0087 -0.3354
 4099SOL     OW16393   2.257   1.469   3.263  0.4258  0.4939  0.2490
 4099SOL    HW116394   2.340   1.423   3.272  0.0456 -0.4146 -0.6850
 4099SOL    HW216395   2.244   1.477   3.169  0.0262  1.6961  0.3974
 4099SOL     MW16396   2.266   1.464   3.253  0.3260  0.5315  0.1484
 4100SOL     OW16397   3.699   1.775   5.017  0.3329 -0.3359  0.1212
 4100SOL    HW116398   3.652   1.811   5.092  1.7454 -0.5105  1.1297
 4100SOL    HW216399   3.759   1.845   4.990 -1.1896  0.3145 -1.8681
 4100SOL     MW16400   3.701   1.789   5.023  0.3188 -0.2750 -0.0044
 4101SOL     OW16401   0.894   1.329   5.167  0.0108  0.6782  0.6051
 4101SOL    HW116402   0.874   1.401   5.227 -0.8357  0.9515  0.0119
 4101SOL    HW216403   0.945   1.369   5.097 -1.1629  0.8971 -0.1551
 4101SOL     MW16404   0.898   1.343   5.166 -0.2478  0.7412  0.4318
 4102SOL     OW16405   2.719   2.159   0.344  0.3032 -0.2136  0.3861
 4102SOL    HW116406   2.650   2.224   0.360 -0.0053 -0.7615  1.3860
 4102SOL    HW216407   2.676   2.074   0.359  0.9792 -0.6019  0.1689
 4102SOL     MW16408   2.705   2.156   0.348  0.3502 -0.3334  0.4863
 4103SOL     OW16409   2.516   2.855   0.864  0.3732 -0.6885 -0.4585
 4103SOL    HW116410   2.575   2.905   0.922 -0.3918 -0.4483  0.1316
 4103SOL    HW216411   2.431   2.858   0.908 -0.7379  1.1866 -2.5485
 4103SOL     MW16412   2.513   2.862   0.877  0.1331 -0.4177 -0.6505
 4104SOL     OW16413   4.224   4.812   4.330  0.3730 -0.2662  0.1741
 4104SOL    HW116414   4.302   4.770   4.294  0.5073  0.3825 -0.3162
 4104SOL    HW216415   4.242   4.906   4.322 -0.0191 -0.1097  1.0332
 4104SOL     MW16416   4.236   4.819   4.324  0.3400 -0.1631  0.2213
 4105SOL     OW16417   0.911  -0.008   4.260  0.3615 -0.4668  0.8424
 4105SOL    HW116418   0.825   0.016   4.227  1.0543 -1.0773 -1.5929
 4105SOL    HW216419   0.927   0.053   4.332 -0.7501  1.8659 -0.7749
 4105SOL     MW16420   0.902   0.003   4.265  0.3079 -0.2464  0.3236
 4106SOL     OW16421   4.587   0.786   1.413  0.4115  0.2171 -0.3143
 4106SOL    HW116422   4.519   0.814   1.476  1.8144 -1.6166  2.2128
 4106SOL    HW216423   4.611   0.866   1.368 -0.4574  1.7687  1.7649
 4106SOL     MW16424   4.581   0.800   1.416  0.4799  0.1810  0.2754
 4107SOL     OW16425   3.592   2.644   1.851 -0.4454 -0.0555 -0.3945
 4107SOL    HW116426   3.541   2.723   1.833  0.4762  0.5799 -0.2897
 4107SOL    HW216427   3.645   2.631   1.772 -0.2477 -0.3047 -0.2253
 4107SOL     MW16428   3.593   2.652   1.838 -0.3021 -0.0060 -0.3595
 4108SOL     OW16429   3.984   0.799   3.222  0.0605 -0.4269  0.3883
 4108SOL    HW116430   4.049   0.786   3.291 -0.4543  0.1579  0.9897
 4108SOL    HW216431   3.900   0.796   3.267 -0.2383  1.1585 -0.0256
 4108SOL     MW16432   3.982   0.797   3.236 -0.0436 -0.1491  0.4123
 4109SOL     OW16433   3.676   3.305   0.834  0.1153  0.4560  0.1604
 4109SOL    HW116434   3.738   3.321   0.905  0.7035  0.9738 -0.4645
 4109SOL    HW216435   3.623   3.232   0.865  0.4492  0.5964  1.0801
 4109SOL     MW16436   3.677   3.298   0.847  0.2333  0.5403  0.1982
 4110SOL     OW16437   4.348   1.623   0.581  0.2906 -0.1067 -0.1073
 4110SOL    HW116438   4.294   1.652   0.655  0.5232 -0.8827  0.3879
 4110SOL    HW216439   4.430   1.595   0.621  1.3804  1.7514 -0.9282
 4110SOL     MW16440   4.352   1.623   0.596  0.4599  0.0318 -0.1490
 4111SOL     OW16441   2.566   5.318   3.193  0.0705 -0.4361 -0.1540
 4111SOL    HW116442   2.557   5.228   3.163 -0.7157 -0.1644 -0.7720
 4111SOL    HW216443   2.598   5.367   3.117  1.6007 -0.3763  0.4929
 4111SOL     MW16444   2.569   5.313   3.180  0.1657 -0.3936 -0.1503
 4112SOL     OW16445   0.830   4.940   2.982  0.0967  0.1268  0.4566
 4112SOL    HW116446   0.880   5.020   2.995  0.5815 -0.3848  2.0706
 4112SOL    HW216447   0.881   4.873   3.028 -1.6011 -0.5817  1.4164
 4112SOL     MW16448   0.843   4.941   2.990 -0.0586 -0.0294  0.7861
 4113SOL     OW16449   1.038   3.130   2.343  0.3935 -0.1768 -0.1948
 4113SOL    HW116450   0.944   3.112   2.332  0.3402  0.1277 -0.2691
 4113SOL    HW216451   1.065   3.167   2.259  0.0195  2.0294  0.5760
 4113SOL     MW16452   1.029   3.133   2.331  0.3388  0.1446 -0.1057
 4114SOL     OW16453   3.437   0.970   4.471 -0.2573 -0.2174 -0.0818
 4114SOL    HW116454   3.380   1.007   4.538  1.8679  0.9585  1.1465
 4114SOL    HW216455   3.449   0.879   4.498 -0.8380 -0.2353  0.1308
 4114SOL     MW16456   3.431   0.963   4.483 -0.0596 -0.0692  0.1027
 4115SOL     OW16457   4.796   4.396   5.142 -0.1418 -0.2771  0.1808
 4115SOL    HW116458   4.774   4.464   5.079 -0.2205  0.5390  1.0708
 4115SOL    HW216459   4.711   4.357   5.166 -0.6806  2.2478  2.9110
 4115SOL     MW16460   4.782   4.400   5.137 -0.2208  0.1505  0.6442
 4116SOL     OW16461   2.228   3.697   1.079 -0.1221 -0.1713 -0.0590
 4116SOL    HW116462   2.132   3.704   1.082 -0.1078  0.4172 -0.6497
 4116SOL    HW216463   2.244   3.611   1.041 -0.4210 -0.1748 -0.1866
 4116SOL     MW16464   2.217   3.687   1.075 -0.1586 -0.0964 -0.1509
 4117SOL     OW16465   2.483   1.659   4.215  0.0670  0.1091  0.5813
 4117SOL    HW116466   2.460   1.732   4.274 -0.6930  0.4082 -0.0789
 4117SOL    HW216467   2.400   1.622   4.188  0.4379 -0.6197  0.4040
 4117SOL     MW16468   2.470   1.664   4.219  0.0172  0.0541  0.4741
 4118SOL     OW16469   4.707   2.627   0.308 -0.4409  0.1920 -0.2789
 4118SOL    HW116470   4.626   2.679   0.310 -0.7687 -0.1741 -2.1128
 4118SOL    HW216471   4.680   2.542   0.274  0.7058  0.0304 -0.8344
 4118SOL     MW16472   4.693   2.622   0.304 -0.3361  0.1244 -0.5848
 4119SOL     OW16473   2.943   1.623   3.729  0.1093 -0.1682 -0.5650
 4119SOL    HW116474   2.949   1.702   3.675 -0.0195  0.0504 -0.2601
 4119SOL    HW216475   2.946   1.656   3.819 -0.5778 -0.4650 -0.4344
 4119SOL     MW16476   2.944   1.638   3.734  0.0049 -0.1782 -0.5092
 4120SOL     OW16477   0.303   4.623   4.471  0.0440  0.2072 -0.3715
 4120SOL    HW116478   0.225   4.580   4.438  0.0176 -0.3720  0.4143
 4120SOL    HW216479   0.308   4.706   4.423 -0.1632 -0.4558 -1.5644
 4120SOL     MW16480   0.294   4.628   4.461  0.0141  0.0482 -0.4236
 4121SOL     OW16481   1.136   3.956   3.136 -0.2520 -0.3012 -0.0401
 4121SOL    HW116482   1.224   3.963   3.173  0.6052  1.0538 -2.1641
 4121SOL    HW216483   1.101   3.874   3.172  1.8117 -0.8049  0.9443
 4121SOL     MW16484   1.143   3.947   3.146  0.1219 -0.1923 -0.1860
 4122SOL     OW16485   4.819   2.270   5.104  0.6455  0.0285  0.0780
 4122SOL    HW116486   4.787   2.329   5.036  0.8385  0.3567  0.2716
 4122SOL    HW216487   4.834   2.326   5.180  0.8678 -0.2600  0.2490
 4122SOL     MW16488   4.817   2.284   5.105  0.6987  0.0336  0.1247
 4123SOL     OW16489   0.870   1.266   3.357 -0.0101 -0.4323  0.0491
 4123SOL    HW116490   0.839   1.209   3.288 -0.3777 -0.2611  0.0713
 4123SOL    HW216491   0.804   1.335   3.364  1.6811  1.5329 -1.8149
 4123SOL     MW16492   0.858   1.268   3.349  0.1593 -0.1588 -0.1867
 4124SOL     OW16493   3.484   3.739   0.823 -0.2196 -0.0958 -0.0442
 4124SOL    HW116494   3.492   3.832   0.845  0.1724 -0.0354 -0.4237
 4124SOL    HW216495   3.413   3.707   0.879 -1.1678  0.6963 -0.7668
 4124SOL     MW16496   3.476   3.747   0.833 -0.2908  0.0133 -0.1853
 4125SOL     OW16497   0.752   2.189   0.703  0.3327 -1.0159 -0.1435
 4125SOL    HW116498   0.817   2.255   0.727  0.1265 -1.1269  0.7275
 4125SOL    HW216499   0.685   2.194   0.770 -0.5319 -0.9672 -0.9886
 4125SOL     MW16500   0.752   2.198   0.715  0.1956 -1.0239 -0.1402
 4126SOL     OW16501   0.924   1.418   4.061 -0.2483  0.2340  0.2110
 4126SOL    HW116502   0.942   1.378   4.146 -0.2824  1.2499  0.7072
 4126SOL    HW216503   0.942   1.348   3.998  1.7273  0.0449  0.9196
 4126SOL     MW16504   0.929   1.404   4.064  0.0002  0.3399  0.3652
 4127SOL     OW16505   4.996   3.279   3.238  0.2717  0.2326  0.0639
 4127SOL    HW116506   4.952   3.218   3.297 -0.4314  2.4102  1.9513
 4127SOL    HW216507   4.986   3.240   3.151 -2.8162 -0.8473  0.7853
 4127SOL     MW16508   4.989   3.266   3.234 -0.2136  0.3731  0.3978
 4128SOL     OW16509   3.561   1.925   2.525  0.3332  0.2014 -0.1893
 4128SOL    HW116510   3.572   1.842   2.478 -1.2067  0.8683 -1.8535
 4128SOL    HW216511   3.471   1.951   2.506  0.9772  2.5977 -0.2742
 4128SOL     MW16512   3.551   1.917   2.517  0.2185  0.5935 -0.4132
 4129SOL     OW16513   2.197   0.243   2.024  0.2052  0.2573 -0.7944
 4129SOL    HW116514   2.123   0.289   1.984  0.9924  2.3970  0.0552
 4129SOL    HW216515   2.209   0.165   1.970 -1.9148  0.4443 -1.6472
 4129SOL     MW16516   2.189   0.239   2.012  0.0346  0.5551 -0.7948
 4130SOL     OW16517   4.034   1.222   1.762  0.1809 -0.6909 -0.6233
 4130SOL    HW116518   4.011   1.218   1.670  1.7544 -0.2944 -1.0578
 4130SOL    HW216519   3.951   1.206   1.808 -0.7167 -0.4191 -2.0823
 4130SOL     MW16520   4.020   1.219   1.756  0.2674 -0.6054 -0.8657
 4131SOL     OW16521   1.898   4.513   1.252  0.0591  0.2919 -0.0340
 4131SOL    HW116522   1.935   4.425   1.250  0.4155  0.4502 -0.5117
 4131SOL    HW216523   1.916   4.545   1.340  0.4079  0.0913 -0.0321
 4131SOL     MW16524   1.905   4.506   1.263  0.1493  0.2865 -0.0949
 4132SOL     OW16525   5.387   2.220   1.963  0.6049 -0.1526  0.0846
 4132SOL    HW116526   5.420   2.250   2.048 -1.0138 -1.7006  1.3326
 4132SOL    HW216527   5.415   2.129   1.958 -0.9136 -0.6191 -0.1723
 4132SOL     MW16528   5.395   2.213   1.973  0.2033 -0.4105  0.2115
 4133SOL     OW16529   0.147   3.173   3.850  0.1455 -0.4195  0.2300
 4133SOL    HW116530   0.199   3.176   3.931  1.4888  0.3864 -0.6277
 4133SOL    HW216531   0.084   3.245   3.859 -0.9912 -1.4920  1.3390
 4133SOL     MW16532   0.146   3.182   3.862  0.1719 -0.4536  0.2622
 4134SOL     OW16533   2.428   0.397   3.565 -0.0629  0.4325  0.4391
 4134SOL    HW116534   2.451   0.415   3.473  0.7772  0.8001  0.7024
 4134SOL    HW216535   2.338   0.427   3.574  0.0520  0.9631 -0.1196
 4134SOL     MW16536   2.420   0.403   3.554  0.0593  0.5475  0.4013
 4135SOL     OW16537   0.231   1.374   1.415 -0.5088  0.2252 -0.1817
 4135SOL    HW116538   0.170   1.434   1.458 -0.0113  0.0782  0.7535
 4135SOL    HW216539   0.176   1.303   1.383 -0.7698 -0.2730  1.2996
 4135SOL     MW16540   0.216   1.373   1.417 -0.4785  0.1426  0.1276
 4136SOL     OW16541   4.135   5.256   2.242 -0.3306  0.9419  0.2823
 4136SOL    HW116542   4.074   5.280   2.172 -1.8247 -0.1145  1.1804
 4136SOL    HW216543   4.088   5.275   2.323 -0.1752 -1.4159  1.0081
 4136SOL     MW16544   4.121   5.261   2.243 -0.5020  0.5048  0.4902
 4137SOL     OW16545   4.951   3.460   4.989 -0.0171  0.7937 -0.3703
 4137SOL    HW116546   4.964   3.457   5.083 -2.0632  1.5739 -0.0166
 4137SOL    HW216547   4.920   3.373   4.966 -0.7380  0.9765 -0.1056
 4137SOL     MW16548   4.949   3.448   4.998 -0.3713  0.9170 -0.2912
 4138SOL     OW16549   0.361   1.962   1.176 -0.2346 -0.5729  0.2445
 4138SOL    HW116550   0.438   1.925   1.134 -0.6156  0.1033 -1.1125
 4138SOL    HW216551   0.294   1.961   1.107 -0.0620  3.3206 -0.1937
 4138SOL     MW16552   0.362   1.957   1.161 -0.2613  0.0121  0.0147
 4139SOL     OW16553   3.350   3.345   2.181 -0.0963 -0.4392  0.3683
 4139SOL    HW116554   3.366   3.377   2.092  0.5878  0.0210  0.6399
 4139SOL    HW216555   3.289   3.408   2.219  1.0169  0.4243  0.8027
 4139SOL     MW16556   3.344   3.357   2.175  0.1337 -0.2698  0.4587
 4140SOL     OW16557   4.781   0.401   1.258 -0.3931 -0.4063 -0.1808
 4140SOL    HW116558   4.814   0.416   1.347 -0.7532 -1.1503  0.0901
 4140SOL    HW216559   4.695   0.361   1.271 -0.0158 -1.4798 -0.8456
 4140SOL     MW16560   4.774   0.397   1.271 -0.3909 -0.6390 -0.2312
 4141SOL     OW16561   2.264   4.277   0.702 -0.1817  0.7472 -0.5858
 4141SOL    HW116562   2.356   4.256   0.687  0.1573  1.2945  0.6380
 4141SOL    HW216563   2.216   4.210   0.652  0.8524 -1.4034  1.1290
 4141SOL     MW16564   2.270   4.266   0.693 -0.0059  0.5419 -0.2096
 4142SOL     OW16565   4.019   3.190   3.878 -0.1238  0.0702  0.1001
 4142SOL    HW116566   4.029   3.099   3.849  1.3113 -0.2473  1.4266
 4142SOL    HW216567   4.062   3.241   3.809  0.2271 -0.3733 -0.0194
 4142SOL     MW16568   4.026   3.185   3.865  0.1048 -0.0272  0.2546
 4143SOL     OW16569   4.727   2.541   1.459  0.0951 -0.3005  0.5191
 4143SOL    HW116570   4.681   2.599   1.398 -0.2067 -2.1914 -1.1571
 4143SOL    HW216571   4.776   2.481   1.403 -1.1800 -2.9407  2.0246
 4143SOL     MW16572   4.727   2.541   1.444 -0.1068 -0.8805  0.4973
 4144SOL     OW16573   5.440   0.642   1.055  0.0808 -0.2942 -0.1327
 4144SOL    HW116574   5.379   0.704   1.096  1.3041  0.0183  1.2983
 4144SOL    HW216575   5.453   0.677   0.966 -1.0014  0.2108 -0.1050
 4144SOL     MW16576   5.434   0.655   1.049  0.0988 -0.1895  0.0540
 4145SOL     OW16577   3.054   4.793   0.585  0.4053 -0.0779  0.6191
 4145SOL    HW116578   3.077   4.701   0.572 -0.1002 -0.2686  1.0598
 4145SOL    HW216579   3.125   4.841   0.541  1.0995 -0.6646  1.0725
 4145SOL     MW16580   3.066   4.787   0.577  0.4295 -0.1775  0.7336
 4146SOL     OW16581   0.812   3.882   0.482 -0.5588 -0.8067 -0.2972
 4146SOL    HW116582   0.790   3.811   0.542 -0.0430 -0.1029  0.7491
 4146SOL    HW216583   0.786   3.849   0.396  1.0786 -2.9060 -0.0806
 4146SOL     MW16584   0.806   3.868   0.479 -0.2832 -0.9853 -0.1356
 4147SOL     OW16585   2.093   4.949   1.680  0.4230  0.4232  0.5105
 4147SOL    HW116586   2.009   4.991   1.695  1.3422  2.5927  0.0157
 4147SOL    HW216587   2.073   4.873   1.625 -1.1887  0.9533  0.3314
 4147SOL     MW16588   2.080   4.945   1.675  0.3344  0.7688  0.4243
 4148SOL     OW16589   4.813   4.445   0.927 -0.1133  0.0489 -0.6564
 4148SOL    HW116590   4.845   4.515   0.983 -2.8577 -0.8222  2.2505
 4148SOL    HW216591   4.728   4.476   0.896 -1.0808 -1.6609  0.1510
 4148SOL     MW16592   4.806   4.458   0.930 -0.5884 -0.2815 -0.1809
 4149SOL     OW16593   2.821   5.412   4.182  0.4448 -0.3760 -0.1862
 4149SOL    HW116594   2.890   5.358   4.219  0.7002  0.0231 -0.0680
 4149SOL    HW216595   2.867   5.486   4.142  0.1086 -0.2774 -0.3974
 4149SOL     MW16596   2.836   5.415   4.182  0.4344 -0.3123 -0.1981
 4150SOL     OW16597   4.096   5.261   3.894  0.4237 -0.0197 -0.0184
 4150SOL    HW116598   4.125   5.174   3.868 -0.3764 -0.0856 -0.7687
 4150SOL    HW216599   4.155   5.320   3.848  2.6599 -0.1106  2.5166
 4150SOL     MW16600   4.107   5.258   3.884  0.6075 -0.0398  0.2101
 4151SOL     OW16601   0.379   4.103   3.541  0.3941 -0.2970  0.1760
 4151SOL    HW116602   0.444   4.090   3.609  0.1494 -0.4100  0.3910
 4151SOL    HW216603   0.342   4.190   3.559 -0.9483 -1.0604  1.2937
 4151SOL     MW16604   0.383   4.113   3.552  0.1909 -0.4092  0.3466
 4152SOL     OW16605   4.157   4.834   1.057  0.5194 -0.5141 -0.3576
 4152SOL    HW116606   4.224   4.861   0.995  0.9670  1.8950  1.0198
 4152SOL    HW216607   4.074   4.863   1.018  0.7030  0.0734 -0.3243
 4152SOL     MW16608   4.155   4.841   1.044  0.6002 -0.1305 -0.1770
 4153SOL     OW16609   2.039   4.490   1.949 -0.0330  0.2498  0.2879
 4153SOL    HW116610   2.126   4.465   1.978  0.1526  1.3549  0.7527
 4153SOL    HW216611   2.009   4.554   2.014 -1.1042  0.0380  0.0250
 4153SOL     MW16612   2.046   4.495   1.961 -0.1464  0.3642  0.3137
 4154SOL     OW16613   2.903   4.077   5.333  0.1754  0.2468  0.0299
 4154SOL    HW116614   2.954   4.141   5.382 -0.1217  0.2631  0.3165
 4154SOL    HW216615   2.954   4.063   5.253  0.3709  0.6470  0.0813
 4154SOL     MW16616   2.916   4.083   5.329  0.1624  0.3001  0.0732
 4155SOL     OW16617   3.286   5.171   1.151  0.6018 -0.2787  0.0608
 4155SOL    HW116618   3.364   5.217   1.180 -0.4718  0.8685  1.2586
 4155SOL    HW216619   3.267   5.206   1.064 -1.2797  3.2070  1.6407
 4155SOL     MW16620   3.293   5.181   1.144  0.2235  0.3144  0.4164
 4156SOL     OW16621   3.918   4.790   0.709 -0.1390  0.0480  0.3585
 4156SOL    HW116622   3.872   4.712   0.740  0.4700 -0.5830 -0.2878
 4156SOL    HW216623   3.947   4.834   0.788 -1.7576  0.4033  0.7759
 4156SOL     MW16624   3.916   4.785   0.723 -0.2682  0.0127  0.3292
 4157SOL     OW16625   3.633   2.143   0.886  0.6581 -0.3359 -0.4613
 4157SOL    HW116626   3.668   2.079   0.824 -0.4029 -0.1919 -1.2506
 4157SOL    HW216627   3.638   2.227   0.840  1.0734 -0.0079  0.1663
 4157SOL     MW16628   3.638   2.146   0.872  0.5754 -0.2755 -0.4820
 4158SOL     OW16629   2.956   0.284   1.040  0.0115  0.0043 -0.1975
 4158SOL    HW116630   2.921   0.368   1.069 -0.2526 -0.0265 -0.4201
 4158SOL    HW216631   2.892   0.220   1.071  0.8814 -0.2563  1.1550
 4158SOL     MW16632   2.943   0.287   1.048  0.0890 -0.0330 -0.0529
 4159SOL     OW16633   1.213   3.004   1.747  0.0441 -0.3510 -1.0070
 4159SOL    HW116634   1.191   3.090   1.710 -0.4547  1.3329  2.6582
 4159SOL    HW216635   1.162   2.942   1.696 -1.8168  1.8693 -2.0490
 4159SOL     MW16636   1.203   3.007   1.736 -0.2579  0.1488 -0.6712
 4160SOL     OW16637   3.635   3.560   4.053  0.2443 -0.3039  0.0188
 4160SOL    HW116638   3.678   3.506   4.119  1.0571  1.0097  0.5961
 4160SOL    HW216639   3.639   3.649   4.088 -0.2175  0.2751 -1.3336
 4160SOL     MW16640   3.641   3.564   4.066  0.2893 -0.0616 -0.0804
 4161SOL     OW16641   4.024   1.900   0.590 -0.3235 -1.1496  0.3895
 4161SOL    HW116642   4.051   1.919   0.500  1.4076  0.2889  1.1554
 4161SOL    HW216643   4.061   1.814   0.609 -0.4346 -1.3237 -0.1497
 4161SOL     MW16644   4.032   1.892   0.581 -0.1161 -0.9877  0.4185
 4162SOL     OW16645   4.111   4.510   4.094  0.2181  0.1968  0.3936
 4162SOL    HW116646   4.078   4.514   4.004 -0.1694  0.4816  0.5474
 4162SOL    HW216647   4.085   4.593   4.133  1.5508  0.6294  0.3748
 4162SOL     MW16648   4.103   4.521   4.087  0.3391  0.2886  0.4109
 4163SOL     OW16649   0.983   4.028   4.219 -0.4005  0.2496  0.3176
 4163SOL    HW116650   1.034   3.958   4.261 -0.1018 -0.2012 -0.7387
 4163SOL    HW216651   0.988   4.101   4.280  1.1569  0.0697  0.4593
 4163SOL     MW16652   0.990   4.028   4.232 -0.1629  0.1689  0.2005
 4164SOL     OW16653   1.047   1.866   3.889  0.4564  0.2523  0.3222
 4164SOL    HW116654   0.984   1.905   3.948 -1.1636  0.1059 -1.2241
 4164SOL    HW216655   1.056   1.776   3.918 -0.5647  0.0959  0.1754
 4164SOL     MW16656   1.040   1.860   3.900  0.1183  0.2135  0.1055
 4165SOL     OW16657   1.729   1.053   3.084  0.3041 -0.9269 -0.1412
 4165SOL    HW116658   1.716   1.136   3.038 -0.0106 -2.4475 -3.0529
 4165SOL    HW216659   1.641   1.024   3.107  0.5221  0.4428  2.8400
 4165SOL     MW16660   1.716   1.060   3.081  0.2917 -0.9462 -0.1323
 4166SOL     OW16661   5.379   0.972   0.677  0.0675 -0.4245 -0.1375
 4166SOL    HW116662   5.411   0.884   0.698 -0.8403 -1.1464 -1.6396
 4166SOL    HW216663   5.284   0.966   0.690  0.0072  0.3687 -0.1844
 4166SOL     MW16664   5.371   0.960   0.682 -0.0564 -0.4154 -0.3358
 4167SOL     OW16665   0.606   3.054   1.311 -0.4769 -0.5973 -0.2635
 4167SOL    HW116666   0.553   3.043   1.390 -0.2142 -3.3925 -0.3770
 4167SOL    HW216667   0.553   3.108   1.253 -1.8155 -0.6659  0.8457
 4167SOL     MW16668   0.593   3.059   1.314 -0.6146 -0.9639 -0.1360
 4168SOL     OW16669   2.735   3.162   1.779 -0.4202 -0.1244 -0.1423
 4168SOL    HW116670   2.794   3.221   1.825 -2.7620  1.5435  0.9021
 4168SOL    HW216671   2.789   3.123   1.709  1.9065  1.1119  0.8694
 4168SOL     MW16672   2.750   3.164   1.776 -0.4221  0.2474  0.1209
 4169SOL     OW16673   1.838   0.947   1.738  0.4636 -0.1921  0.3158
 4169SOL    HW116674   1.929   0.917   1.731  1.3729  2.3739  0.0887
 4169SOL    HW216675   1.840   1.012   1.808 -1.9122 -2.2898  2.5387
 4169SOL     MW16676   1.850   0.951   1.746  0.2759 -0.1321  0.5713
 4170SOL     OW16677   1.465   0.448   0.687 -0.2754 -0.0285 -0.4616
 4170SOL    HW116678   1.437   0.536   0.712 -0.6510 -0.4226  0.5886
 4170SOL    HW216679   1.400   0.419   0.623  1.2306  1.3586 -2.7512
 4170SOL     MW16680   1.453   0.455   0.682 -0.1307  0.0986 -0.6203
 4171SOL     OW16681   3.342   2.769   4.287 -0.0775  0.1366 -0.6518
 4171SOL    HW116682   3.436   2.772   4.301 -0.2742 -1.6083  1.4136
 4171SOL    HW216683   3.307   2.843   4.336 -0.1195 -1.9894  2.8294
 4171SOL     MW16684   3.349   2.779   4.295 -0.1080 -0.3589  0.0582
 4172SOL     OW16685   1.753   2.334   5.091  0.1001 -0.6536 -0.0175
 4172SOL    HW116686   1.822   2.283   5.133  1.4485  0.9487 -0.1519
 4172SOL    HW216687   1.796   2.378   5.018 -0.9193  0.7939  0.1905
 4172SOL     MW16688   1.767   2.333   5.087  0.1422 -0.2632 -0.0081
 4173SOL     OW16689   3.207   2.635   3.224  0.1050  0.1090  0.0726
 4173SOL    HW116690   3.255   2.708   3.261 -1.5625  0.7702  1.0546
 4173SOL    HW216691   3.167   2.591   3.299 -0.0107 -1.0024 -0.6117
 4173SOL     MW16692   3.208   2.638   3.238 -0.1232  0.0513  0.1107
 4174SOL     OW16693   3.922   1.096   4.933  0.2233 -0.8256 -0.2668
 4174SOL    HW116694   3.907   1.181   4.893 -0.0822 -0.8515 -0.2073
 4174SOL    HW216695   3.837   1.053   4.933  0.2748 -0.9394  0.1513
 4174SOL     MW16696   3.910   1.101   4.928  0.1908 -0.8435 -0.2056
 4175SOL     OW16697   2.215   2.737   2.330 -0.2187  0.0343  0.0900
 4175SOL    HW116698   2.245   2.660   2.282 -1.1075 -0.5878  0.4961
 4175SOL    HW216699   2.162   2.785   2.266 -1.4194 -0.8050  0.4176
 4175SOL     MW16700   2.212   2.733   2.316 -0.4862 -0.1527  0.1839
 4176SOL     OW16701   1.787   0.930   2.835 -0.0104 -0.1010 -0.2741
 4176SOL    HW116702   1.860   0.977   2.794  1.0823 -1.9362 -0.5162
 4176SOL    HW216703   1.780   0.969   2.922  0.4777  0.8966 -0.6634
 4176SOL     MW16704   1.795   0.941   2.841  0.1919 -0.2082 -0.3550
 4177SOL     OW16705   3.837   2.173   4.696  0.1836 -0.5108 -0.5032
 4177SOL    HW116706   3.791   2.257   4.702  0.7581  0.0619 -2.9018
 4177SOL    HW216707   3.928   2.194   4.713  0.1309 -0.9353  0.3447
 4177SOL     MW16708   3.842   2.187   4.699  0.2504 -0.4918 -0.7017
 4178SOL     OW16709   4.357   0.776   3.960 -0.2551  0.4189 -0.2686
 4178SOL    HW116710   4.420   0.835   3.920 -0.0931  1.0333  0.8440
 4178SOL    HW216711   4.350   0.702   3.900 -0.4685  1.5663 -1.6869
 4178SOL     MW16712   4.364   0.774   3.947 -0.2617  0.6444 -0.3078
 4179SOL     OW16713   2.341   2.118   3.334  0.5046 -0.6054  0.2298
 4179SOL    HW116714   2.280   2.107   3.261 -0.0338 -0.9918  0.7264
 4179SOL    HW216715   2.317   2.202   3.374  0.6633 -0.4934  0.0919
 4179SOL     MW16716   2.330   2.127   3.330  0.4560 -0.6405  0.2757
 4180SOL     OW16717   3.794   4.535   0.747 -0.0834 -0.0373 -0.2953
 4180SOL    HW116718   3.699   4.533   0.755 -0.1387 -0.2288 -0.9964
 4180SOL    HW216719   3.813   4.485   0.668  0.7599 -1.9663  1.0582
 4180SOL     MW16720   3.784   4.528   0.738  0.0174 -0.3088 -0.2118
 4181SOL     OW16721   4.684   2.115   1.396 -0.4127  0.3767  0.1438
 4181SOL    HW116722   4.711   2.024   1.406  1.4469  1.0297  1.6282
 4181SOL    HW216723   4.692   2.153   1.483 -0.2032  2.2030 -0.6161
 4181SOL     MW16724   4.688   2.108   1.408 -0.1478  0.6941  0.2365
 4182SOL     OW16725   5.250   3.770   2.680  0.6199  0.0497 -0.2305
 4182SOL    HW116726   5.300   3.837   2.633  0.5389  0.7462  0.6263
 4182SOL    HW216727   5.298   3.760   2.763  1.1164 -1.6015 -0.6874
 4182SOL     MW16728   5.263   3.777   2.685  0.6731 -0.0725 -0.1793
 4183SOL     OW16729   4.722   0.060   1.081  0.0612 -0.1223 -0.0968
 4183SOL    HW116730   4.740  -0.014   1.024  1.6758 -0.1424  0.3727
 4183SOL    HW216731   4.677   0.123   1.026  1.0450 -0.3803 -1.2376
 4183SOL     MW16732   4.719   0.058   1.067  0.3939 -0.1579 -0.1827
 4184SOL     OW16733   1.879   3.504   3.000 -0.3831  0.1369 -0.1012
 4184SOL    HW116734   1.968   3.504   3.037  0.4066 -0.4474 -1.8917
 4184SOL    HW216735   1.832   3.440   3.053  0.3968  0.0907  0.5675
 4184SOL     MW16736   1.884   3.496   3.012 -0.1822  0.0562 -0.2448
 4185SOL     OW16737   2.065   0.816   4.059  0.1957 -0.0811 -0.0724
 4185SOL    HW116738   2.067   0.722   4.072 -0.4959 -0.1680 -0.5685
 4185SOL    HW216739   2.016   0.829   3.978  0.9074  0.6644 -0.4047
 4185SOL     MW16740   2.059   0.806   4.051  0.1982  0.0032 -0.1785
 4186SOL     OW16741   3.737   0.873   0.886  0.4333  0.0268 -0.0169
 4186SOL    HW116742   3.811   0.929   0.909 -0.1613  0.3927  1.0311
 4186SOL    HW216743   3.733   0.878   0.790  1.1170  0.8298 -0.0199
 4186SOL     MW16744   3.746   0.881   0.876  0.4447  0.1765  0.1169
 4187SOL     OW16745   0.764   1.832   0.463  0.0387 -0.3095  0.1496
 4187SOL    HW116746   0.813   1.864   0.539 -0.2479  0.0698  0.1819
 4187SOL    HW216747   0.679   1.877   0.469  0.6745  1.2240 -1.4332
 4187SOL     MW16748   0.759   1.842   0.473  0.0834 -0.0646 -0.0489
 4188SOL     OW16749   1.568   4.563   3.361 -0.4750  0.2522  0.2313
 4188SOL    HW116750   1.627   4.578   3.435  0.1879  1.7035 -0.5451
 4188SOL    HW216751   1.487   4.532   3.401  1.2322 -3.5200  1.2615
 4188SOL     MW16752   1.565   4.561   3.376 -0.1716 -0.0449  0.2638
 4189SOL     OW16753   0.411   3.655   2.323  0.0622 -0.3053  0.1701
 4189SOL    HW116754   0.326   3.634   2.362  0.0963  1.1786  1.1105
 4189SOL    HW216755   0.390   3.690   2.237 -0.1860 -1.1373 -0.1148
 4189SOL     MW16756   0.398   3.657   2.317  0.0348 -0.2219  0.2540
 4190SOL     OW16757   4.745   1.971   1.745 -0.2028 -0.3175  1.3387
 4190SOL    HW116758   4.751   2.062   1.719  0.1397 -1.0277 -1.3723
 4190SOL    HW216759   4.651   1.951   1.742 -0.1241 -0.6456 -0.6446
 4190SOL     MW16760   4.734   1.980   1.741 -0.1489 -0.4504  0.7378
 4191SOL     OW16761   0.211   3.251   0.900 -0.0300  0.2830 -0.6715
 4191SOL    HW116762   0.129   3.240   0.852  0.2076 -0.0913 -0.9938
 4191SOL    HW216763   0.262   3.311   0.846 -0.2195  0.7827 -0.3048
 4191SOL     MW16764   0.207   3.258   0.887 -0.0239  0.2990 -0.6658
 4192SOL     OW16765   0.474   5.405   2.966 -0.0533 -0.2929 -0.0504
 4192SOL    HW116766   0.543   5.470   2.953 -0.7640  0.2814 -1.0688
 4192SOL    HW216767   0.464   5.399   3.061 -1.0217  2.2625  0.0788
 4192SOL     MW16768   0.481   5.412   2.977 -0.2683  0.1078 -0.1643
 4193SOL     OW16769   4.524   3.780   3.969  0.3392 -0.1762 -0.3618
 4193SOL    HW116770   4.616   3.776   3.943  0.3967  1.6033 -0.5942
 4193SOL    HW216771   4.475   3.760   3.889  0.5120 -0.7417 -0.3294
 4193SOL     MW16772   4.529   3.777   3.955  0.3687 -0.0208 -0.3874
 4194SOL     OW16773   0.966   1.812   0.280 -0.4148  0.5006  0.0986
 4194SOL    HW116774   0.918   1.818   0.363  0.1423  1.4530  0.3702
 4194SOL    HW216775   0.929   1.882   0.227 -1.1349 -0.4399 -0.6708
 4194SOL     MW16776   0.955   1.822   0.284 -0.4357  0.5021  0.0348
 4195SOL     OW16777   4.410   0.079   3.443  0.2572  0.0891  0.1583
 4195SOL    HW116778   4.389   0.039   3.359  0.1635 -0.5281  0.4656
 4195SOL    HW216779   4.455   0.160   3.421  2.8164 -1.4071 -0.4974
 4195SOL     MW16780   4.413   0.084   3.430  0.5728 -0.1815  0.1137
 4196SOL     OW16781   1.763   4.519   5.365  0.0057  0.3566  0.0060
 4196SOL    HW116782   1.823   4.539   5.437  1.3216  1.6070 -1.3660
 4196SOL    HW216783   1.689   4.579   5.378  0.2363  0.5708  0.3358
 4196SOL     MW16784   1.762   4.529   5.376  0.2037  0.5441 -0.1274
 4197SOL     OW16785   2.773   3.927   3.433  0.4350 -0.0301  0.3732
 4197SOL    HW116786   2.745   3.984   3.362  0.1532 -1.2346 -0.5199
 4197SOL    HW216787   2.721   3.848   3.422  0.3287 -0.2164  1.9845
 4197SOL     MW16788   2.763   3.924   3.423  0.3854 -0.2081  0.4651
 4198SOL     OW16789   2.270   2.794   4.123 -0.8002  0.1480  0.4399
 4198SOL    HW116790   2.277   2.813   4.030  0.8661  1.9709  0.8596
 4198SOL    HW216791   2.274   2.699   4.129  0.5131  0.0405 -1.2813
 4198SOL     MW16792   2.272   2.785   4.112 -0.4188  0.3676  0.2733
 4199SOL     OW16793   4.256   3.679   1.795 -0.6189 -0.1972  0.1356
 4199SOL    HW116794   4.287   3.764   1.826  0.0661 -0.6264  0.6667
 4199SOL    HW216795   4.329   3.619   1.813 -0.1794 -0.4787 -2.3007
 4199SOL     MW16796   4.269   3.682   1.801 -0.4749 -0.2882 -0.1083
 4200SOL     OW16797   3.850   0.129   3.004 -0.0332  0.4957 -0.4827
 4200SOL    HW116798   3.860   0.036   2.984 -0.1411  0.6475 -1.2450
 4200SOL    HW216799   3.849   0.173   2.919  0.2577  1.2217 -0.1255
 4200SOL     MW16800   3.851   0.123   2.991 -0.0098  0.6081 -0.5346
 4201SOL     OW16801   1.398   0.984   3.792  0.2651  0.1212  0.2169
 4201SOL    HW116802   1.365   1.040   3.862 -0.8898  0.5306 -0.6193
 4201SOL    HW216803   1.411   0.899   3.834  0.2538  0.5319  1.0745
 4201SOL     MW16804   1.395   0.980   3.807  0.1158  0.2262  0.2197
 4202SOL     OW16805   1.782   4.910   3.268 -0.1933 -0.6207  0.3622
 4202SOL    HW116806   1.805   4.848   3.337 -1.6232 -1.1715  0.3719
 4202SOL    HW216807   1.715   4.967   3.307 -1.3126 -1.1867 -0.6620
 4202SOL     MW16808   1.776   4.910   3.282 -0.5196 -0.7636  0.2323
 4203SOL     OW16809   0.200   4.933   1.458  1.0165 -0.1172  0.5730
 4203SOL    HW116810   0.114   4.932   1.416  0.4234  0.6377  1.7009
 4203SOL    HW216811   0.260   4.898   1.392  0.3675  2.2085 -1.3797
 4203SOL     MW16812   0.196   4.928   1.445  0.8575  0.2772  0.4674
 4204SOL     OW16813   4.627   1.491   4.553 -0.3897  0.2415  0.0243
 4204SOL    HW116814   4.557   1.456   4.608 -0.0686  0.3779  0.5320
 4204SOL    HW216815   4.611   1.586   4.552  1.0131  0.5764  1.9703
 4204SOL     MW16816   4.616   1.499   4.560 -0.1690  0.3018  0.3384
 4205SOL     OW16817   4.919   3.642   3.507  0.1972 -0.1283 -0.6130
 4205SOL    HW116818   4.900   3.565   3.562  1.0112  0.6595  0.8396
 4205SOL    HW216819   4.981   3.610   3.442 -0.1599 -0.9017 -0.5974
 4205SOL     MW16820   4.924   3.628   3.506  0.2557 -0.1265 -0.4250
 4206SOL     OW16821   3.708   2.033   2.334  0.6781  0.2748 -0.2790
 4206SOL    HW116822   3.649   2.001   2.402 -0.0123  0.6228 -0.7019
 4206SOL    HW216823   3.722   2.125   2.356 -1.0457  0.9044 -1.6180
 4206SOL     MW16824   3.702   2.041   2.346  0.3690  0.4000 -0.5046
 4207SOL     OW16825   0.166   0.066   1.000 -0.0424  0.1193  0.4609
 4207SOL    HW116826   0.120   0.150   1.007 -2.1081 -0.8770 -0.2093
 4207SOL    HW216827   0.132   0.015   1.074  0.9384 -0.2449  0.6675
 4207SOL     MW16828   0.156   0.070   1.011 -0.1813 -0.0549  0.4016
 4208SOL     OW16829   5.472   3.433   4.443  0.0091  0.4061  0.2145
 4208SOL    HW116830   5.447   3.389   4.362  0.8366 -1.8154  1.0802
 4208SOL    HW216831   5.472   3.363   4.509  1.4948  1.7084  1.6768
 4208SOL     MW16832   5.469   3.419   4.441  0.3052  0.2884  0.5125
 4209SOL     OW16833   4.659   1.128   0.924 -0.1281  0.1654  0.1927
 4209SOL    HW116834   4.625   1.079   0.999 -1.2896  0.9541  0.2109
 4209SOL    HW216835   4.661   1.065   0.853 -2.8790  0.3091 -0.1431
 4209SOL     MW16836   4.655   1.114   0.924 -0.6290  0.2848  0.1521
 4210SOL     OW16837   3.454   4.207   3.695 -0.0368  0.4506  0.2369
 4210SOL    HW116838   3.416   4.119   3.687 -1.8586  1.3079 -1.3598
 4210SOL    HW216839   3.494   4.224   3.610  0.3972  1.1290  0.5654
 4210SOL     MW16840   3.454   4.198   3.683 -0.2145  0.6472  0.0745
 4211SOL     OW16841   2.216   0.873   2.028 -0.2247 -0.0358  0.4184
 4211SOL    HW116842   2.158   0.940   2.063 -0.2753  0.0895  0.1043
 4211SOL    HW216843   2.211   0.885   1.933 -0.7785 -0.9422  0.3279
 4211SOL     MW16844   2.208   0.883   2.020 -0.3021 -0.1358  0.3666
 4212SOL     OW16845   4.367   1.766   1.015 -0.3314 -0.8887 -0.1348
 4212SOL    HW116846   4.333   1.753   1.104 -2.8388 -0.3491 -0.9414
 4212SOL    HW216847   4.462   1.766   1.026 -0.5230 -2.4756  2.2992
 4212SOL     MW16848   4.375   1.765   1.028 -0.6769 -1.0227  0.0735
 4213SOL     OW16849   1.504   0.763   4.975 -0.3239 -0.2354 -0.2778
 4213SOL    HW116850   1.474   0.673   4.964  1.2420 -0.5674 -2.6635
 4213SOL    HW216851   1.443   0.802   5.037 -2.5768 -2.2101 -1.1303
 4213SOL     MW16852   1.493   0.756   4.982 -0.4118 -0.5307 -0.6923
 4214SOL     OW16853   1.291   2.709   4.596  0.1647  0.0037  0.8820
 4214SOL    HW116854   1.343   2.777   4.639  0.5348  0.1619  0.1896
 4214SOL    HW216855   1.226   2.684   4.662 -0.3605  1.4392  0.9437
 4214SOL     MW16856   1.289   2.714   4.610  0.1449  0.2077  0.8013
 4215SOL     OW16857   1.091   4.858   0.243  0.1878 -0.2368  0.0716
 4215SOL    HW116858   1.103   4.790   0.310  1.1196 -0.2508 -0.0882
 4215SOL    HW216859   1.065   4.810   0.165  1.1610 -0.4691 -0.1296
 4215SOL     MW16860   1.090   4.843   0.242  0.4317 -0.2683  0.0253
 4216SOL     OW16861   2.277   2.934   2.807  0.2292  0.9711 -0.2236
 4216SOL    HW116862   2.261   2.926   2.713  3.1009  0.0077 -0.7457
 4216SOL    HW216863   2.348   2.998   2.813 -0.4308  1.5853  1.3738
 4216SOL     MW16864   2.284   2.941   2.796  0.5123  0.9264 -0.0859
 4217SOL     OW16865   3.677   0.606   2.803  0.3122  0.3182  0.0608
 4217SOL    HW116866   3.668   0.691   2.845  0.9677 -0.0717  1.0183
 4217SOL    HW216867   3.760   0.571   2.837  0.4476 -0.3578 -0.9330
 4217SOL     MW16868   3.687   0.612   2.813  0.4134  0.1818  0.0562
 4218SOL     OW16869   3.500   2.246   4.614 -0.0249 -0.1305  0.6048
 4218SOL    HW116870   3.568   2.312   4.628 -0.2048 -0.2467  2.2014
 4218SOL    HW216871   3.544   2.176   4.566  0.0699  1.2755 -1.4864
 4218SOL     MW16872   3.514   2.245   4.609 -0.0358  0.0346  0.5415
 4219SOL     OW16873   2.392   2.258   3.895  0.1595  0.1429 -0.6786
 4219SOL    HW116874   2.345   2.341   3.894 -0.3607 -0.1478 -0.6353
 4219SOL    HW216875   2.324   2.192   3.886  0.6394 -0.2494 -1.5087
 4219SOL     MW16876   2.377   2.260   3.894  0.1543  0.0555 -0.7793
 4220SOL     OW16877   0.415   0.214   1.767 -0.0901  0.2166 -0.3806
 4220SOL    HW116878   0.392   0.125   1.741  0.0096  0.2381 -0.5518
 4220SOL    HW216879   0.343   0.268   1.734 -0.3040  0.1614  0.0016
 4220SOL     MW16880   0.403   0.209   1.759 -0.1047  0.2123 -0.3536
 4221SOL     OW16881   0.091   2.635   3.686  0.2591 -0.4775 -0.8953
 4221SOL    HW116882   0.103   2.730   3.686 -2.4217 -0.0055 -3.4349
 4221SOL    HW216883   0.161   2.602   3.629  0.4870  0.0836 -0.9463
 4221SOL     MW16884   0.102   2.643   3.679 -0.0549 -0.3452 -1.2269
 4222SOL     OW16885   1.118   2.345   0.662  0.2340 -0.1926  0.3416
 4222SOL    HW116886   1.204   2.319   0.696  0.2767  0.2595  0.5811
 4222SOL    HW216887   1.061   2.345   0.739  0.0279 -0.4339  0.1921
 4222SOL     MW16888   1.122   2.342   0.676  0.2131 -0.1656  0.3532
 4223SOL     OW16889   3.630   4.697   3.681 -0.0830  0.2120 -0.3028
 4223SOL    HW116890   3.602   4.788   3.671 -0.6209  0.0540 -0.2869
 4223SOL    HW216891   3.683   4.679   3.604  0.1258  0.5777 -0.2445
 4223SOL     MW16892   3.633   4.707   3.670 -0.1251  0.2386 -0.2933
 4224SOL     OW16893   5.084   3.426   4.520  0.3867  0.2447  0.2037
 4224SOL    HW116894   5.085   3.454   4.611 -0.2795  2.2436 -0.3584
 4224SOL    HW216895   4.998   3.453   4.487  0.9212  0.2987 -1.2216
 4224SOL     MW16896   5.073   3.433   4.527  0.3699  0.5075 -0.0507
 4225SOL     OW16897   3.122   0.286   4.752 -0.1996  0.6126 -0.2534
 4225SOL    HW116898   3.171   0.291   4.834 -0.1045  1.6421 -0.3588
 4225SOL    HW216899   3.119   0.193   4.731 -0.2321  0.3429  0.9165
 4225SOL     MW16900   3.128   0.275   4.760 -0.1916  0.7099 -0.1171
 4226SOL     OW16901   1.987   3.883   0.299  0.2816 -0.0404 -0.0896
 4226SOL    HW116902   1.950   3.970   0.288 -0.3421 -0.2127  0.5329
 4226SOL    HW216903   2.009   3.877   0.392  2.1475  0.1388 -0.4850
 4226SOL     MW16904   1.985   3.893   0.309  0.4406 -0.0395 -0.0606
 4227SOL     OW16905   5.051   2.252   2.924  0.2788 -0.0672 -0.2289
 4227SOL    HW116906   5.126   2.298   2.963 -2.2805  3.1771  1.4221
 4227SOL    HW216907   5.017   2.197   2.995 -0.2693  0.4098 -0.1035
 4227SOL     MW16908   5.056   2.251   2.938 -0.1190  0.4091 -0.0015
 4228SOL     OW16909   4.721   1.015   2.097 -0.1424  0.3379 -0.6300
 4228SOL    HW116910   4.628   1.027   2.113 -0.1077 -0.5457  0.3217
 4228SOL    HW216911   4.763   1.091   2.137 -0.4746  0.9164 -1.3723
 4228SOL     MW16912   4.715   1.026   2.104 -0.1804  0.2989 -0.6032
 4229SOL     OW16913   2.745   0.945   0.086  0.3072 -0.0751 -0.5733
 4229SOL    HW116914   2.753   0.896   0.168 -1.1984 -1.5795 -1.2560
 4229SOL    HW216915   2.693   1.022   0.108 -3.9715 -2.5773 -0.7301
 4229SOL     MW16916   2.739   0.948   0.099 -0.4333 -0.5880 -0.6808
 4230SOL     OW16917   5.007   5.371   1.791 -0.1392 -0.1503 -0.2556
 4230SOL    HW116918   4.935   5.408   1.739 -0.0268  2.2752  1.1396
 4230SOL    HW216919   4.965   5.329   1.865 -0.1930  0.9081  0.3413
 4230SOL     MW16920   4.993   5.371   1.794 -0.1317  0.2957 -0.0006
 4231SOL     OW16921   3.046   2.307   2.128  0.1289  0.4547  0.4937
 4231SOL    HW116922   2.955   2.279   2.118  0.9317 -1.4668 -2.3645
 4231SOL    HW216923   3.049   2.393   2.087 -0.4022  0.5817  0.7093
 4231SOL     MW16924   3.034   2.315   2.122  0.1637  0.2250  0.1554
 4232SOL     OW16925   2.209   0.322   3.308 -0.2143  0.1530 -0.0906
 4232SOL    HW116926   2.169   0.272   3.379  0.3809  0.8291  0.7428
 4232SOL    HW216927   2.154   0.400   3.299  0.1161  0.4167  0.1276
 4232SOL     MW16928   2.197   0.326   3.316 -0.0958  0.2733  0.0440
 4233SOL     OW16929   0.573   3.190   3.191  0.0677  0.5046 -0.5437
 4233SOL    HW116930   0.555   3.266   3.246  1.5487 -0.6139  1.6449
 4233SOL    HW216931   0.660   3.206   3.154  0.5683 -0.2300  0.2503
 4233SOL     MW16932   0.582   3.201   3.194  0.3214  0.2674 -0.1619
 4234SOL     OW16933   0.246   2.848   0.845 -0.1064  0.4032  0.1010
 4234SOL    HW116934   0.281   2.937   0.847  1.6924 -0.2725  0.5706
 4234SOL    HW216935   0.288   2.807   0.769 -0.9468 -0.0532 -0.1364
 4234SOL     MW16936   0.256   2.854   0.835  0.0163  0.2582  0.1307
 4235SOL     OW16937   1.765   2.771   0.504 -0.4277 -0.1146  0.2304
 4235SOL    HW116938   1.763   2.864   0.479 -1.9731 -0.2290 -0.1655
 4235SOL    HW216939   1.766   2.724   0.420 -0.6662 -0.4573  0.4154
 4235SOL     MW16940   1.765   2.777   0.490 -0.6561 -0.1731  0.2034
 4236SOL     OW16941   1.954   3.044   4.633 -0.4232 -0.3909 -0.2363
 4236SOL    HW116942   1.988   2.982   4.569 -1.8493 -0.2452 -1.1593
 4236SOL    HW216943   1.932   2.990   4.709  0.3017 -0.7114 -0.2459
 4236SOL     MW16944   1.956   3.029   4.635 -0.5129 -0.4132 -0.3557
 4237SOL     OW16945   1.879   5.109   1.749 -0.0602 -0.0347 -0.1956
 4237SOL    HW116946   1.791   5.145   1.761 -0.1750 -0.1124 -0.7710
 4237SOL    HW216947   1.917   5.161   1.678  1.1090  1.3119  1.3535
 4237SOL     MW16948   1.872   5.120   1.741  0.0748  0.1278 -0.0710
 4238SOL     OW16949   5.309   2.755   3.533  0.1798 -0.7349  0.2176
 4238SOL    HW116950   5.251   2.801   3.594 -1.1402 -0.8405 -0.9189
 4238SOL    HW216951   5.335   2.675   3.580 -1.1075 -0.9878  0.5281
 4238SOL     MW16952   5.305   2.751   3.547 -0.1539 -0.7808  0.1119
 4239SOL     OW16953   1.028   2.559   2.620 -0.3206  0.0196 -0.9617
 4239SOL    HW116954   0.991   2.645   2.597 -0.2125  0.2512 -0.2768
 4239SOL    HW216955   1.081   2.535   2.544  0.4173  1.0057 -0.7771
 4239SOL     MW16956   1.030   2.567   2.607 -0.2123  0.1755 -0.8504
 4240SOL     OW16957   5.066   4.086   1.238  0.1136  0.2533  0.1491
 4240SOL    HW116958   5.147   4.068   1.287 -0.1899  2.0731  1.4469
 4240SOL    HW216959   5.091   4.154   1.176 -0.5985  1.6233  1.2992
 4240SOL     MW16960   5.080   4.092   1.237 -0.0164  0.6617  0.4625
 4241SOL     OW16961   0.711   5.218   3.583 -0.4763 -0.9929 -0.5390
 4241SOL    HW116962   0.795   5.263   3.594 -0.6145 -0.3576 -1.8849
 4241SOL    HW216963   0.650   5.265   3.640 -0.4815  0.1973 -1.4911
 4241SOL     MW16964   0.714   5.230   3.592 -0.4947 -0.7592 -0.8331
 4242SOL     OW16965   1.615   5.340   2.078  0.3504 -0.0181 -0.6550
 4242SOL    HW116966   1.689   5.388   2.042  1.8388 -2.2726 -0.7812
 4242SOL    HW216967   1.539   5.396   2.061  1.7778  1.5944 -2.0450
 4242SOL     MW16968   1.615   5.353   2.072  0.7237 -0.1003 -0.8491
 4243SOL     OW16969   1.270   1.165   4.741  0.0470  0.0381 -0.2161
 4243SOL    HW116970   1.177   1.174   4.721  0.3592  0.1466 -1.7303
 4243SOL    HW216971   1.290   1.074   4.721 -0.1738 -0.6216  2.2381
 4243SOL     MW16972   1.260   1.154   4.736  0.0587 -0.0324 -0.0958
 4244SOL     OW16973   3.777   3.230   1.799 -0.0731 -0.2771  0.1869
 4244SOL    HW116974   3.761   3.322   1.821 -2.7011 -0.2635 -1.3151
 4244SOL    HW216975   3.755   3.183   1.880  0.4672  0.3611  0.7124
 4244SOL     MW16976   3.772   3.236   1.812 -0.3403 -0.1937  0.0619
 4245SOL     OW16977   0.611   4.087   0.834  0.1430 -0.2735 -0.8240
 4245SOL    HW116978   0.604   4.043   0.749 -1.1216  0.2916 -1.0387
 4245SOL    HW216979   0.525   4.126   0.848  0.9670  1.4568 -0.2592
 4245SOL     MW16980   0.599   4.086   0.825  0.0866  0.0203 -0.7792
 4246SOL     OW16981   2.771   4.620   4.976 -0.3884 -0.2061  0.0512
 4246SOL    HW116982   2.824   4.644   5.052 -0.5853 -0.1109  0.1589
 4246SOL    HW216983   2.830   4.629   4.901 -0.4228  0.4930  0.1034
 4246SOL     MW16984   2.785   4.624   4.976 -0.4180 -0.1044  0.0716
 4247SOL     OW16985   1.935   1.718   4.380  0.1587 -0.1326  0.7551
 4247SOL    HW116986   2.013   1.766   4.351  0.3234 -0.9759 -0.2702
 4247SOL    HW216987   1.968   1.629   4.397 -0.6807 -0.6601 -0.2839
 4247SOL     MW16988   1.950   1.712   4.379  0.0724 -0.3081  0.4909
 4248SOL     OW16989   1.262   0.055   4.663 -0.7068  0.2670  0.3134
 4248SOL    HW116990   1.243  -0.019   4.606 -0.4131  1.1952 -1.0320
 4248SOL    HW216991   1.260   0.018   4.751 -0.4629 -1.3518 -0.3255
 4248SOL     MW16992   1.259   0.041   4.667 -0.6380  0.1786  0.0594
 4249SOL     OW16993   4.301   2.823   0.758 -0.1311  0.7811  0.3520
 4249SOL    HW116994   4.243   2.843   0.684  0.9071 -0.1148 -0.7517
 4249SOL    HW216995   4.272   2.737   0.789  0.3041  0.5330  0.0845
 4249SOL     MW16996   4.290   2.814   0.752  0.0575  0.6347  0.1765
 4250SOL     OW16997   4.810   1.081   3.594  0.2251  0.7657  0.0510
 4250SOL    HW116998   4.881   1.030   3.555 -2.3143 -2.4873 -0.7455
 4250SOL    HW216999   4.806   1.051   3.685  0.7576  2.0837  0.5400
 4250SOL     MW17000   4.819   1.071   3.601 -0.0318  0.5180  0.0117
 4251SOL     OW17001   4.679   4.062   5.410  0.4640  0.1671 -0.0417
 4251SOL    HW117002   4.598   4.104   5.439  0.0504 -0.9287  0.4640
 4251SOL    HW217003   4.686   3.984   5.466  0.4823 -1.1585 -1.7989
 4251SOL     MW17004   4.669   4.057   5.421  0.4134 -0.1429 -0.2019
 4252SOL     OW17005   3.177   1.537   5.121 -0.1474  0.0992 -0.2008
 4252SOL    HW117006   3.135   1.593   5.186 -1.3468  0.0791 -0.9404
 4252SOL    HW217007   3.113   1.529   5.050  1.3780  0.7127 -1.7434
 4252SOL     MW17008   3.164   1.544   5.120 -0.1056  0.1751 -0.4929
 4253SOL     OW17009   1.330   5.169   2.116 -0.3931  0.5176 -0.0840
 4253SOL    HW117010   1.373   5.109   2.178  0.9561  1.7757  0.2718
 4253SOL    HW217011   1.296   5.112   2.048  1.6065 -0.6374 -0.2169
 4253SOL     MW17012   1.331   5.154   2.116  0.0356  0.5308 -0.0555
 4254SOL     OW17013   2.163   1.435   4.873  0.2791 -0.5143 -0.3033
 4254SOL    HW117014   2.139   1.450   4.965 -0.4668 -3.2905  0.0196
 4254SOL    HW217015   2.259   1.438   4.873  0.2702  0.8234  0.2670
 4254SOL     MW17016   2.172   1.438   4.885  0.1825 -0.6985 -0.1890
 4255SOL     OW17017   2.927   1.816   5.022  0.0019 -0.3713  0.4490
 4255SOL    HW117018   2.970   1.901   5.010 -0.4954 -0.2769 -0.7718
 4255SOL    HW217019   2.835   1.838   5.037 -0.2676 -0.7096 -0.6425
 4255SOL     MW17020   2.921   1.830   5.023 -0.0962 -0.4025  0.1530
 4256SOL     OW17021   4.309   1.046   4.356  0.1565 -0.2352 -0.4089
 4256SOL    HW117022   4.316   1.122   4.299 -0.9665 -0.2214 -0.5519
 4256SOL    HW217023   4.330   1.078   4.443 -1.3352  0.4997 -0.2906
 4256SOL     MW17024   4.313   1.060   4.360 -0.1782 -0.1394 -0.4121
 4257SOL     OW17025   1.510   4.308   3.561 -0.1812 -0.1840 -0.3638
 4257SOL    HW117026   1.433   4.351   3.525 -1.0242 -0.5756  0.9011
 4257SOL    HW217027   1.584   4.347   3.514 -1.0197  1.4875 -0.3640
 4257SOL     MW17028   1.509   4.318   3.550 -0.3964 -0.0202 -0.2019
 4258SOL     OW17029   0.989   2.809   4.631  0.1655  0.5489  0.4005
 4258SOL    HW117030   1.045   2.846   4.563 -0.2248 -1.3366 -1.0336
 4258SOL    HW217031   0.900   2.817   4.596 -0.3071  1.6578  1.7506
 4258SOL     MW17032   0.984   2.815   4.618  0.0550  0.4495  0.3897
 4259SOL     OW17033   5.250   4.620   0.283  0.2487 -0.1720  0.0431
 4259SOL    HW117034   5.210   4.613   0.197 -0.7495  1.6960  0.2856
 4259SOL    HW217035   5.256   4.530   0.315 -1.8157 -0.6943 -0.8934
 4259SOL     MW17036   5.246   4.608   0.276 -0.1433  0.0003 -0.0457
 4260SOL     OW17037   1.555   2.819   3.016  0.0013  0.4962 -0.2932
 4260SOL    HW117038   1.482   2.800   2.957 -2.8765  1.4312  2.6255
 4260SOL    HW217039   1.566   2.739   3.067 -0.2452  0.9368  0.4698
 4260SOL     MW17040   1.547   2.807   3.015 -0.3986  0.6723  0.1781
 4261SOL     OW17041   2.481   4.662   4.960  0.0592 -0.0264 -0.1955
 4261SOL    HW117042   2.572   4.678   4.936 -0.2219  0.7710 -0.7982
 4261SOL    HW217043   2.432   4.677   4.878 -0.8036  1.4424  0.5566
 4261SOL     MW17044   2.486   4.666   4.946 -0.0872  0.2637 -0.1763
 4262SOL     OW17045   0.042   4.117   0.118  0.6578 -0.2539 -0.0121
 4262SOL    HW117046   0.015   4.084   0.032 -2.4382  1.6115  0.0717
 4262SOL    HW217047  -0.015   4.071   0.180  0.0491  1.2343  0.5978
 4262SOL     MW17048   0.031   4.107   0.115  0.1835  0.1754  0.0767
 4263SOL     OW17049   5.438   2.028   2.187 -0.2126 -0.0448 -0.2885
 4263SOL    HW117050   5.455   2.066   2.273  0.1877  2.9492 -1.5682
 4263SOL    HW217051   5.343   2.037   2.175 -0.3103 -0.7322 -0.0584
 4263SOL     MW17052   5.428   2.034   2.196 -0.1739  0.2505 -0.4228
 4264SOL     OW17053   2.568   0.145   0.508 -0.3232  0.4276  0.1011
 4264SOL    HW117054   2.482   0.133   0.467 -0.5559 -0.6762  0.8368
 4264SOL    HW217055   2.551   0.200   0.584 -0.5267 -0.3691  0.6471
 4264SOL     MW17056   2.555   0.150   0.513 -0.3790  0.1843  0.2652
 4265SOL     OW17057   5.317   5.208   3.669 -0.3227  0.4028  0.2804
 4265SOL    HW117058   5.311   5.197   3.574  0.6217  0.1649  0.2454
 4265SOL    HW217059   5.354   5.126   3.701 -0.2897  0.6218  0.8184
 4265SOL     MW17060   5.321   5.196   3.661 -0.1976  0.4004  0.3448
 4266SOL     OW17061   3.737   3.620   3.596  0.0521  0.2487  0.3477
 4266SOL    HW117062   3.704   3.699   3.638  2.0717  1.0118  0.6047
 4266SOL    HW217063   3.818   3.600   3.643 -0.1600 -1.7050 -0.0432
 4266SOL     MW17064   3.744   3.627   3.607  0.2835  0.0963  0.3306
 4267SOL     OW17065   2.175   2.700   5.128  0.4682  0.9919 -1.0014
 4267SOL    HW117066   2.171   2.630   5.194  0.2171  1.0552 -0.9491
 4267SOL    HW217067   2.213   2.657   5.051  3.1885  1.4994 -0.0762
 4267SOL     MW17068   2.179   2.685   5.127  0.7843  1.0650 -0.8763
 4268SOL     OW17069   3.617   1.450   0.206 -0.8539  0.0321  0.3193
 4268SOL    HW117070   3.555   1.455   0.133  1.0789  0.3645 -1.4029
 4268SOL    HW217071   3.696   1.492   0.172 -0.0653  0.7442  2.8514
 4268SOL     MW17072   3.619   1.456   0.192 -0.5055  0.1658  0.4230
 4269SOL     OW17073   1.214   3.137   5.092  0.1233 -0.1845  0.5768
 4269SOL    HW117074   1.229   3.049   5.058  2.3234  1.0973 -2.1087
 4269SOL    HW217075   1.130   3.130   5.138  0.8821 -3.9508  1.7438
 4269SOL     MW17076   1.205   3.125   5.093  0.5021 -0.5026  0.3824
 4270SOL     OW17077   5.227   4.022   3.965 -0.2400  0.3338  0.1790
 4270SOL    HW117078   5.288   4.019   3.891  0.7762  1.1246  0.9554
 4270SOL    HW217079   5.144   4.050   3.926 -0.7472 -2.8060 -1.2480
 4270SOL     MW17080   5.225   4.025   3.951 -0.1748  0.0331  0.0957
 4271SOL     OW17081   0.797   3.493   0.971  0.7764  0.2812 -0.0677
 4271SOL    HW117082   0.793   3.508   1.065 -0.6918  0.1744 -0.0902
 4271SOL    HW217083   0.875   3.541   0.942  0.9893  0.6806  1.1276
 4271SOL     MW17084   0.807   3.501   0.979  0.6157  0.3186  0.0824
 4272SOL     OW17085   4.164   0.096   4.010 -0.1285  0.2469 -0.0653
 4272SOL    HW117086   4.074   0.077   3.982  0.4145  0.4909 -2.1990
 4272SOL    HW217087   4.175   0.189   3.994  0.4217  0.2837  0.4836
 4272SOL     MW17088   4.154   0.105   4.004  0.0115  0.2828 -0.2682
 4273SOL     OW17089   4.625   1.035   4.505  0.2883  0.4223  0.0145
 4273SOL    HW117090   4.657   1.114   4.461 -0.1908 -0.0759 -1.2964
 4273SOL    HW217091   4.549   1.065   4.555 -0.6223  0.6330 -1.4093
 4273SOL     MW17092   4.619   1.049   4.506  0.1104  0.3855 -0.3356
 4274SOL     OW17093   2.893   2.794   3.893 -0.4861 -0.8661  0.5532
 4274SOL    HW117094   2.870   2.704   3.867  0.3860 -0.6257 -1.1782
 4274SOL    HW217095   2.845   2.849   3.831  1.5221 -0.2525 -0.5429
 4274SOL     MW17096   2.884   2.789   3.882 -0.1174 -0.7567  0.1913
 4275SOL     OW17097   0.154   1.614   4.082  0.3647  0.1643  0.1555
 4275SOL    HW117098   0.198   1.547   4.030 -0.9837  0.3279 -1.2620
 4275SOL    HW217099   0.128   1.681   4.019  0.8804  1.6040  1.4120
 4275SOL     MW17100   0.156   1.614   4.068  0.2581  0.3695  0.1349
 4276SOL     OW17101   4.787   1.798   4.684 -0.0330 -0.1225  0.6069
 4276SOL    HW117102   4.786   1.729   4.750 -1.5005 -0.1788  0.5545
 4276SOL    HW217103   4.701   1.793   4.643 -0.6329  2.4562  1.3683
 4276SOL     MW17104   4.776   1.789   4.687 -0.2977  0.2004  0.6977
 4277SOL     OW17105   1.617   2.188   4.542 -0.2206  0.0877 -0.0958
 4277SOL    HW117106   1.689   2.140   4.582 -0.0862  0.0637 -0.3642
 4277SOL    HW217107   1.549   2.121   4.529  0.3576 -0.2771 -1.4437
 4277SOL     MW17108   1.617   2.173   4.545 -0.1294  0.0379 -0.3027
 4278SOL     OW17109   2.135   0.186   3.526 -0.1210 -0.2983 -0.4213
 4278SOL    HW117110   2.119   0.236   3.606  0.4182  0.7413 -0.9391
 4278SOL    HW217111   2.138   0.095   3.555 -0.2830  0.0314  0.6825
 4278SOL     MW17112   2.133   0.181   3.540 -0.0727 -0.1230 -0.3463
 4279SOL     OW17113   0.730   2.125   3.237  0.2093 -0.3115 -0.0788
 4279SOL    HW117114   0.645   2.118   3.281 -0.1710  0.8425 -0.5835
 4279SOL    HW217115   0.727   2.210   3.193  2.5597  0.9231  1.8768
 4279SOL     MW17116   0.719   2.135   3.237  0.4615 -0.0057  0.1069
 4280SOL     OW17117   4.178   1.521   1.701 -0.5584 -0.0472 -0.0592
 4280SOL    HW117118   4.153   1.441   1.747 -0.4291  0.6307  1.2194
 4280SOL    HW217119   4.204   1.582   1.770  0.9899  0.5502 -1.0967
 4280SOL     MW17120   4.178   1.519   1.716 -0.3436  0.1160 -0.0283
 4281SOL     OW17121   3.472   3.993   0.907 -0.2361 -0.1524 -0.1443
 4281SOL    HW117122   3.465   4.002   1.002  1.6188 -0.5911  0.0846
 4281SOL    HW217123   3.556   4.034   0.885  0.0259 -1.2803 -1.4029
 4281SOL     MW17124   3.482   3.999   0.916  0.0349 -0.3529 -0.2761
 4282SOL     OW17125   5.307   0.215   4.681  0.1263 -0.0440 -0.2533
 4282SOL    HW117126   5.391   0.195   4.639  1.1486 -0.4106  1.8146
 4282SOL    HW217127   5.242   0.164   4.632  1.2973 -0.7769 -1.0935
 4282SOL     MW17128   5.309   0.206   4.670  0.4071 -0.1848 -0.0962
 4283SOL     OW17129   2.495   0.768   2.413  0.0223 -0.3357 -0.3808
 4283SOL    HW117130   2.465   0.679   2.398 -0.4391 -0.1869 -0.3835
 4283SOL    HW217131   2.588   0.760   2.434 -0.6174 -1.1618  2.7153
 4283SOL     MW17132   2.503   0.756   2.414 -0.1186 -0.4224  0.0152
 4284SOL     OW17133   3.114   1.343   2.630  0.3228 -0.4058 -0.0690
 4284SOL    HW117134   3.189   1.288   2.651  0.3065 -0.6318 -0.5853
 4284SOL    HW217135   3.152   1.424   2.596  0.3382 -0.3053  0.1847
 4284SOL     MW17136   3.128   1.346   2.629  0.3226 -0.4219 -0.1026
 4285SOL     OW17137   0.306   3.238   4.061  0.2591  0.5421  0.2255
 4285SOL    HW117138   0.261   3.184   4.126 -1.7507  0.5111 -1.1077
 4285SOL    HW217139   0.300   3.327   4.096  0.8509  0.3003  0.9590
 4285SOL     MW17140   0.299   3.242   4.074  0.0776  0.5072  0.1487
 4286SOL     OW17141   2.950   4.744   3.174  0.5895 -0.5780 -0.2327
 4286SOL    HW117142   2.982   4.662   3.137  1.7308 -1.0053  1.5575
 4286SOL    HW217143   3.027   4.801   3.176  0.3100 -0.2091  0.4582
 4286SOL     MW17144   2.964   4.741   3.170  0.6998 -0.5855  0.0849
 4287SOL     OW17145   0.668   3.717   0.902 -0.1477  0.0908  0.6509
 4287SOL    HW117146   0.679   3.629   0.939  0.7895 -0.1890 -0.2411
 4287SOL    HW217147   0.576   3.722   0.878 -0.5103 -0.1522  1.9095
 4287SOL     MW17148   0.658   3.706   0.904 -0.0742  0.0239  0.6978
 4288SOL     OW17149   2.778   0.390   2.191  0.0298  0.1404 -0.3255
 4288SOL    HW117150   2.732   0.329   2.133  0.1375 -0.8226  0.5555
 4288SOL    HW217151   2.858   0.413   2.144  0.4122 -1.1128 -0.3186
 4288SOL     MW17152   2.782   0.385   2.178  0.0925 -0.1433 -0.2119
 4289SOL     OW17153   1.904   1.757   3.737  0.3306 -0.1135 -0.0577
 4289SOL    HW117154   1.890   1.847   3.707  2.1000  0.4770  0.7211
 4289SOL    HW217155   1.852   1.703   3.678  0.6109  1.2922 -1.6589
 4289SOL     MW17156   1.896   1.762   3.726  0.5930  0.1421 -0.1629
 4290SOL     OW17157   0.712   3.861   4.488  0.4566 -0.5641 -0.5698
 4290SOL    HW117158   0.755   3.939   4.523  0.7052 -0.3883 -1.2545
 4290SOL    HW217159   0.777   3.820   4.431  0.3411 -1.2991 -0.1826
 4290SOL     MW17160   0.726   3.866   4.485  0.4737 -0.6357 -0.6078
 4291SOL     OW17161   0.169   0.384   1.663  0.3751  0.0415 -0.0729
 4291SOL    HW117162   0.154   0.422   1.750  2.6102  0.8505  0.0278
 4291SOL    HW217163   0.131   0.296   1.669  0.2583  0.1585  1.6556
 4291SOL     MW17164   0.162   0.377   1.675  0.6463  0.1600  0.1613
 4292SOL     OW17165   1.785   5.138   0.625 -0.2847 -0.1625  0.0714
 4292SOL    HW117166   1.710   5.149   0.682 -0.0746  1.6677  0.0697
 4292SOL    HW217167   1.861   5.136   0.684 -0.2446 -0.8687  0.0041
 4292SOL     MW17168   1.785   5.139   0.640 -0.2527 -0.0186  0.0626
 4293SOL     OW17169   4.839   3.727   1.250 -0.3516  0.0204 -0.0470
 4293SOL    HW117170   4.909   3.767   1.199 -2.0486  0.6062 -2.0460
 4293SOL    HW217171   4.763   3.782   1.234 -1.3464 -0.6736  1.9302
 4293SOL     MW17172   4.838   3.739   1.242 -0.6962  0.0065 -0.0498
 4294SOL     OW17173   2.351   4.673   1.735  0.0877 -0.7928  0.2630
 4294SOL    HW117174   2.265   4.663   1.695 -0.0158  1.6211 -0.2626
 4294SOL    HW217175   2.338   4.734   1.807  1.0313 -1.9527  1.4702
 4294SOL     MW17176   2.338   4.679   1.739  0.1953 -0.6322  0.3503
 4295SOL     OW17177   4.567   5.001   4.189 -0.4357 -0.3818 -0.3615
 4295SOL    HW117178   4.494   5.034   4.241  0.6524  1.0279  0.3711
 4295SOL    HW217179   4.607   5.080   4.153  0.1461 -1.1967 -1.5396
 4295SOL     MW17180   4.563   5.016   4.191 -0.2219 -0.3056 -0.4186
 4296SOL     OW17181   3.028   5.443   1.095 -0.0418  0.1279  0.0970
 4296SOL    HW117182   2.999   5.485   1.176 -0.0517  0.9503 -0.3195
 4296SOL    HW217183   2.983   5.359   1.093 -1.2879  0.7753  0.1696
 4296SOL     MW17184   3.019   5.438   1.105 -0.2026  0.3161  0.0530
 4297SOL     OW17185   5.253   0.532   2.857  0.3677 -0.1197 -0.5096
 4297SOL    HW117186   5.248   0.606   2.918 -2.3673 -0.9057  0.3902
 4297SOL    HW217187   5.254   0.573   2.770 -1.2948  1.0168 -0.0447
 4297SOL     MW17188   5.252   0.547   2.854 -0.1952 -0.0748 -0.3349
 4298SOL     OW17189   3.100   3.424   3.570  0.2964 -0.1755 -0.2162
 4298SOL    HW117190   3.186   3.450   3.536  0.0637 -0.1460 -0.7897
 4298SOL    HW217191   3.120   3.375   3.650  0.7888  1.0899  0.4720
 4298SOL     MW17192   3.114   3.421   3.576  0.3297 -0.0097 -0.2015
 4299SOL     OW17193   1.561   3.706   1.574  0.1583 -0.4694  0.1323
 4299SOL    HW117194   1.621   3.652   1.523 -2.1054  0.1882 -3.5777
 4299SOL    HW217195   1.599   3.794   1.572  0.9644 -0.7619  1.2608
 4299SOL     MW17196   1.573   3.710   1.568 -0.0283 -0.4226 -0.1982
 4300SOL     OW17197   2.203   1.805   1.603 -0.4087  0.7694  0.1898
 4300SOL    HW117198   2.131   1.867   1.612 -1.3585 -0.2460 -0.1911
 4300SOL    HW217199   2.220   1.774   1.692 -0.2180  1.2503  0.3224
 4300SOL     MW17200   2.196   1.809   1.615 -0.5059  0.7010  0.1580
 4301SOL     OW17201   2.155   3.183   2.343 -0.6660  0.6141 -0.3712
 4301SOL    HW117202   2.191   3.107   2.389  0.9598  1.7557  0.3350
 4301SOL    HW217203   2.074   3.204   2.390  0.4624  1.1598  1.4092
 4301SOL     MW17204   2.149   3.176   2.355 -0.3135  0.8301 -0.0529
 4302SOL     OW17205   3.750   0.328   3.137  0.6454  0.0861 -0.3052
 4302SOL    HW117206   3.789   0.266   3.076  1.3889 -1.0975  1.3151
 4302SOL    HW217207   3.669   0.356   3.094  0.7892 -1.2440 -1.5083
 4302SOL     MW17208   3.745   0.324   3.123  0.7590 -0.2357 -0.2518
 4303SOL     OW17209   5.016   0.805   1.497 -0.7169 -0.3999  0.2981
 4303SOL    HW117210   5.084   0.838   1.555 -1.2001  1.8968 -0.3142
 4303SOL    HW217211   5.062   0.754   1.431  0.4303  0.8756  0.0612
 4303SOL     MW17212   5.030   0.803   1.496 -0.6319  0.0574  0.1894
 4304SOL     OW17213   3.006   2.434   5.249 -0.0421 -0.1252  0.1299
 4304SOL    HW117214   3.009   2.509   5.191 -2.0750  0.3735  0.5956
 4304SOL    HW217215   3.084   2.442   5.303 -0.4175  1.8845  0.4337
 4304SOL     MW17216   3.016   2.444   5.248 -0.3504  0.1959  0.2284
 4305SOL     OW17217   5.203   0.917   0.355  0.1785 -0.2406 -0.0901
 4305SOL    HW117218   5.174   0.848   0.415  0.9794 -0.4121  0.1135
 4305SOL    HW217219   5.297   0.922   0.368  0.1855  0.6197 -0.4006
 4305SOL     MW17220   5.211   0.909   0.364  0.2819 -0.1524 -0.1038
 4306SOL     OW17221   0.797   2.949   1.638  0.2986  0.4299  0.0501
 4306SOL    HW117222   0.790   2.911   1.726 -0.9206  0.1993 -0.1356
 4306SOL    HW217223   0.889   2.934   1.613  0.5166  0.0139  1.0600
 4306SOL     MW17224   0.808   2.942   1.646  0.1704  0.3471  0.1556
 4307SOL     OW17225   1.860   1.878   0.771  0.3128 -0.4574  0.3912
 4307SOL    HW117226   1.845   1.794   0.726 -1.3681 -0.3664  0.7002
 4307SOL    HW217227   1.859   1.856   0.864  0.8643 -0.2294  0.4539
 4307SOL     MW17228   1.858   1.864   0.777  0.1682 -0.4165  0.4388
 4308SOL     OW17229   0.294   4.895   2.304  0.3760 -0.2753  0.1349
 4308SOL    HW117230   0.343   4.970   2.270 -0.4291  0.3373  0.2961
 4308SOL    HW217231   0.339   4.871   2.385 -0.4289  1.2170  1.0618
 4308SOL     MW17232   0.306   4.901   2.310  0.1699 -0.0058  0.2742
 4309SOL     OW17233   3.402   3.010   3.026  0.0561 -0.4314 -0.2946
 4309SOL    HW117234   3.406   2.962   3.109  2.2247 -2.5007 -1.4657
 4309SOL    HW217235   3.317   2.986   2.989 -0.0435 -1.1964  0.3870
 4309SOL     MW17236   3.392   3.001   3.032  0.3210 -0.7942 -0.3573
 4310SOL     OW17237   4.494   3.568   3.251  0.3909 -0.0635  0.3120
 4310SOL    HW117238   4.522   3.656   3.224  0.3331 -0.2289 -0.3127
 4310SOL    HW217239   4.429   3.543   3.186  2.1615 -1.5584 -0.9996
 4310SOL     MW17240   4.489   3.576   3.239  0.6102 -0.2760  0.0641
 4311SOL     OW17241   2.792   4.835   2.944 -0.0013 -0.4414 -0.7643
 4311SOL    HW117242   2.846   4.821   3.022 -1.8220  1.8374  1.0397
 4311SOL    HW217243   2.855   4.837   2.871  2.1591  0.4648  1.0189
 4311SOL     MW17244   2.807   4.833   2.944  0.0422 -0.0337 -0.3051
 4312SOL     OW17245   3.711   3.218   1.533  0.0123  0.1475  0.0269
 4312SOL    HW117246   3.740   3.238   1.622 -0.3197 -0.7028  0.3397
 4312SOL    HW217247   3.719   3.301   1.486  0.7430  0.4717  0.6964
 4312SOL     MW17248   3.716   3.231   1.539  0.0633  0.0802  0.1526
 4313SOL     OW17249   0.778   1.719   4.129 -0.1423 -0.7401 -0.0649
 4313SOL    HW117250   0.840   1.687   4.194 -0.1123 -0.3549  0.1017
 4313SOL    HW217251   0.817   1.801   4.097 -1.6454  0.7799  1.7307
 4313SOL     MW17252   0.791   1.725   4.133 -0.3309 -0.4962  0.1863
 4314SOL     OW17253   4.055   3.403   0.449  0.4198 -0.0339 -0.3227
 4314SOL    HW117254   4.120   3.394   0.379  1.3396 -0.1975  0.5303
 4314SOL    HW217255   4.054   3.318   0.493 -0.4548 -0.0633 -0.3809
 4314SOL     MW17256   4.063   3.391   0.445  0.4256 -0.0586 -0.2210
 4315SOL     OW17257   1.160   0.188   3.852 -0.0546  0.5110 -0.4629
 4315SOL    HW117258   1.163   0.100   3.889 -1.5005  0.9671  0.8293
 4315SOL    HW217259   1.138   0.245   3.925 -3.0566  1.4749 -1.9416
 4315SOL     MW17260   1.158   0.184   3.866 -0.6240  0.6928 -0.4868
 4316SOL     OW17261   4.962   1.954   0.340  0.2284 -0.1501  0.0370
 4316SOL    HW117262   4.907   1.952   0.261 -1.1968  0.0347  0.9767
 4316SOL    HW217263   5.050   1.969   0.308  0.0629 -2.3495 -1.7093
 4316SOL     MW17264   4.966   1.956   0.326  0.0248 -0.4080 -0.0662
 4317SOL     OW17265   3.940   1.679   2.200  0.2175 -0.5178  0.1185
 4317SOL    HW117266   3.890   1.614   2.150 -0.2909 -0.0484  0.0085
 4317SOL    HW217267   3.885   1.757   2.198  0.2403 -0.4589  1.3341
 4317SOL     MW17268   3.926   1.680   2.193  0.1553 -0.4502  0.2600
 4318SOL     OW17269   4.730   0.719   2.845 -0.5301  0.1629  0.3268
 4318SOL    HW117270   4.751   0.627   2.827 -1.3095 -0.4265  2.2511
 4318SOL    HW217271   4.791   0.745   2.914  0.3157  1.4142 -0.8345
 4318SOL     MW17272   4.741   0.711   2.851 -0.5216  0.2476  0.4245
 4319SOL     OW17273   3.526   1.037   3.465  0.5710 -0.1652  0.2462
 4319SOL    HW117274   3.453   1.029   3.526 -0.9819 -0.9526 -1.6120
 4319SOL    HW217275   3.574   0.955   3.474 -0.2195 -0.6959 -0.2462
 4319SOL     MW17276   3.523   1.026   3.474  0.2710 -0.3339 -0.0547
 4320SOL     OW17277   1.719   0.777   5.338 -0.1222  0.4311  0.5621
 4320SOL    HW117278   1.657   0.704   5.338 -0.1615  0.3151  4.1672
 4320SOL    HW217279   1.680   0.842   5.396  1.1844  2.2001 -0.4649
 4320SOL     MW17280   1.706   0.776   5.345  0.0400  0.6427  0.8922
 4321SOL     OW17281   3.676   3.804   4.119 -0.3215 -1.1708 -0.3704
 4321SOL    HW117282   3.707   3.870   4.058 -2.1275  0.8400  0.7666
 4321SOL    HW217283   3.754   3.783   4.172  0.5243 -0.7390 -1.4096
 4321SOL     MW17284   3.690   3.809   4.118 -0.4444 -0.8581 -0.3579
 4322SOL     OW17285   2.043   1.398   3.814 -0.4026 -0.0912  0.3379
 4322SOL    HW117286   1.991   1.318   3.805 -0.2694  0.0130 -2.0309
 4322SOL    HW217287   2.132   1.368   3.830 -0.5717 -0.3795  0.7440
 4322SOL     MW17288   2.047   1.384   3.815 -0.4072 -0.1147  0.0866
 4323SOL     OW17289   0.593   4.033   3.761  0.2059  0.2157 -0.1912
 4323SOL    HW117290   0.580   3.941   3.783  1.3419 -0.0661 -0.6239
 4323SOL    HW217291   0.585   4.078   3.845  0.2664 -0.3544  0.1302
 4323SOL     MW17292   0.590   4.027   3.775  0.3591  0.1066 -0.2055
 4324SOL     OW17293   2.076   3.604   0.658  0.0972  0.5639  0.3362
 4324SOL    HW117294   2.083   3.523   0.608 -0.2723 -0.0910  1.3154
 4324SOL    HW217295   2.165   3.620   0.689 -0.0508 -0.1556  1.1703
 4324SOL     MW17296   2.088   3.595   0.655  0.0309  0.3880  0.5683
 4325SOL     OW17297   0.472   0.932   0.416  0.5923 -0.3010  0.1803
 4325SOL    HW117298   0.512   0.869   0.475  1.1416  1.8681  2.2394
 4325SOL    HW217299   0.386   0.950   0.454  1.1206  1.4532  0.6320
 4325SOL     MW17300   0.466   0.926   0.428  0.7303  0.2012  0.5017
 4326SOL     OW17301   0.585   0.205   5.296 -0.0256 -0.0702 -0.2106
 4326SOL    HW117302   0.568   0.298   5.312 -0.1153 -0.1449  0.1179
 4326SOL    HW217303   0.569   0.163   5.380  0.5891 -0.3058 -0.2092
 4326SOL     MW17304   0.581   0.212   5.309  0.0416 -0.1099 -0.1684
 4327SOL     OW17305   0.341   5.428   0.844  0.1645 -0.7172 -0.0426
 4327SOL    HW117306   0.278   5.357   0.826 -0.0847 -0.5465  0.1490
 4327SOL    HW217307   0.292   5.489   0.899  0.4362 -0.4801 -0.0666
 4327SOL     MW17308   0.326   5.426   0.849  0.1674 -0.6650 -0.0212
 4328SOL     OW17309   3.820   0.212   1.290 -0.2032  0.5186  0.4117
 4328SOL    HW117310   3.844   0.151   1.360  1.7923  0.0580 -0.5889
 4328SOL    HW217311   3.858   0.295   1.316 -0.0084  0.5017  0.1873
 4328SOL     MW17312   3.828   0.215   1.302  0.0772  0.4575  0.2549
 4329SOL     OW17313   2.860   0.028   3.664 -0.8735 -0.1952 -0.2883
 4329SOL    HW117314   2.909   0.105   3.636  1.2678 -1.4411 -0.1712
 4329SOL    HW217315   2.808   0.003   3.587 -0.7047  0.6885 -0.6968
 4329SOL     MW17316   2.859   0.034   3.650 -0.5778 -0.2416 -0.3256
 4330SOL     OW17317   0.056   3.075   1.120  0.0550 -0.4169 -0.5790
 4330SOL    HW117318   0.139   3.096   1.079  0.0363 -0.0099 -0.4060
 4330SOL    HW217319   0.070   2.989   1.161  0.3029 -0.4714 -0.7783
 4330SOL     MW17320   0.068   3.067   1.120  0.0843 -0.3718 -0.5824
 4331SOL     OW17321   2.192   0.844   1.345  0.0757  0.0466 -0.3170
 4331SOL    HW117322   2.193   0.766   1.400  0.7071 -0.8771 -1.5886
 4331SOL    HW217323   2.203   0.917   1.407  1.9432 -1.0158  0.6912
 4331SOL     MW17324   2.194   0.843   1.360  0.3956 -0.2077 -0.3508
 4332SOL     OW17325   2.589   2.239   2.658 -0.0597 -0.1294  0.4517
 4332SOL    HW117326   2.594   2.197   2.743  0.0384  1.8868  1.4923
 4332SOL    HW217327   2.680   2.249   2.630 -0.0579 -0.0555  0.4844
 4332SOL     MW17328   2.601   2.235   2.665 -0.0469  0.1381  0.5891
 4333SOL     OW17329   4.039   0.500   5.268  0.6956  0.4887 -0.1048
 4333SOL    HW117330   3.999   0.548   5.341 -0.9669 -1.5248  0.4141
 4333SOL    HW217331   4.074   0.568   5.210  1.1914  2.1702  2.0632
 4333SOL     MW17332   4.038   0.515   5.270  0.5463  0.4462  0.2391
 4334SOL     OW17333   3.074   0.078   0.843  0.0706  0.1027  0.3325
 4334SOL    HW117334   3.060   0.170   0.817  1.5834  0.3807  0.4211
 4334SOL    HW217335   3.039   0.073   0.932 -3.4813 -0.3958 -0.9221
 4334SOL     MW17336   3.067   0.089   0.851 -0.1904  0.0744  0.1832
 4335SOL     OW17337   3.343   0.010   1.764 -0.7492 -0.4593  0.0697
 4335SOL    HW117338   3.413   0.034   1.703 -0.2103  0.8392  1.1538
 4335SOL    HW217339   3.271   0.069   1.742 -0.2011  0.7170  1.2964
 4335SOL     MW17340   3.343   0.021   1.753 -0.6101 -0.1425  0.3655
 4336SOL     OW17341   3.975   1.366   0.722  0.4322 -0.3028 -0.3950
 4336SOL    HW117342   3.881   1.370   0.740  0.3639 -2.0944 -0.2334
 4336SOL    HW217343   4.016   1.361   0.809  0.5327 -1.6355 -0.5005
 4336SOL     MW17344   3.968   1.366   0.736  0.4363 -0.7028 -0.3878
 4337SOL     OW17345   0.711   5.056   4.136  0.4387  0.2973  0.5144
 4337SOL    HW117346   0.800   5.056   4.102  0.0384 -0.0566 -0.5846
 4337SOL    HW217347   0.663   5.115   4.079 -0.5397 -1.3042 -0.4003
 4337SOL     MW17348   0.716   5.063   4.125  0.2622  0.0470  0.2566
 4338SOL     OW17349   4.129   3.988   0.627 -1.0088 -0.4544 -0.1626
 4338SOL    HW117350   4.191   3.916   0.613 -0.2919  0.1977 -0.4382
 4338SOL    HW217351   4.096   3.974   0.716 -0.6577 -0.9627 -0.1039
 4338SOL     MW17352   4.133   3.977   0.637 -0.8721 -0.4360 -0.1903
 4339SOL     OW17353   3.323   5.003   2.911  0.3801 -0.0734  0.5622
 4339SOL    HW117354   3.367   4.918   2.915 -1.1181 -0.9738 -0.8090
 4339SOL    HW217355   3.245   4.992   2.966 -0.2487  0.1386 -0.2750
 4339SOL     MW17356   3.319   4.991   2.919  0.1078 -0.1616  0.2795
 4340SOL     OW17357   3.735   3.410   1.097 -0.3138 -0.1723  0.0677
 4340SOL    HW117358   3.719   3.485   1.040 -2.2095  0.8671  1.8377
 4340SOL    HW217359   3.648   3.378   1.120  0.1669  0.7702  3.9376
 4340SOL     MW17360   3.722   3.416   1.092 -0.4949  0.0814  0.7896
 4341SOL     OW17361   4.328   5.257   4.644 -0.4279 -0.4445 -0.0792
 4341SOL    HW117362   4.309   5.241   4.552 -0.4813 -2.2868  0.2175
 4341SOL    HW217363   4.362   5.347   4.647 -0.0951 -0.4853 -1.9168
 4341SOL     MW17364   4.330   5.267   4.633 -0.3921 -0.6856 -0.2765
 4342SOL     OW17365   0.106   1.002   1.698  0.4668 -0.1822 -0.7523
 4342SOL    HW117366   0.151   1.072   1.747 -1.1473 -0.4128  1.1687
 4342SOL    HW217367   0.125   0.923   1.748 -1.8302 -0.3154  0.0080
 4342SOL     MW17368   0.114   1.001   1.711 -0.0339 -0.2288 -0.4091
 4343SOL     OW17369   3.112   3.448   4.831 -0.2771 -0.0246  0.1832
 4343SOL    HW117370   3.047   3.514   4.854 -0.1174  0.6654 -1.2272
 4343SOL    HW217371   3.099   3.433   4.737  0.6787 -0.8884  0.1705
 4343SOL     MW17372   3.102   3.455   4.822 -0.1343 -0.0469  0.0010
 4344SOL     OW17373   0.679   1.688   4.594 -0.0681  0.0720  0.8249
 4344SOL    HW117374   0.637   1.737   4.524  1.0630 -0.5199 -0.2986
 4344SOL    HW217375   0.680   1.597   4.563 -0.6476 -0.4224  2.1550
 4344SOL     MW17376   0.673   1.682   4.581  0.0025 -0.0670  0.8514
 4345SOL     OW17377   0.631   0.826   0.216  0.6089 -0.4839 -0.2440
 4345SOL    HW117378   0.586   0.885   0.277  0.7853  1.1400 -1.6003
 4345SOL    HW217379   0.602   0.739   0.241 -0.1990  0.2092  1.4265
 4345SOL     MW17380   0.622   0.823   0.227  0.5281 -0.1873 -0.2038
 4346SOL     OW17381   3.783   3.079   2.746  0.0232 -0.3156  0.7166
 4346SOL    HW117382   3.811   3.045   2.660  0.2486  2.0491 -0.2295
 4346SOL    HW217383   3.688   3.079   2.742 -0.0099 -1.6392  1.1005
 4346SOL     MW17384   3.774   3.074   2.734  0.0478 -0.1823  0.6446
 4347SOL     OW17385   4.046   2.907   4.178 -0.0311  0.5692  0.2076
 4347SOL    HW117386   4.025   2.826   4.224 -2.8100  1.4640  0.7382
 4347SOL    HW217387   4.112   2.950   4.233  0.6374 -0.7812  0.4998
 4347SOL     MW17388   4.052   2.903   4.191 -0.3012  0.5109  0.3130
 4348SOL     OW17389   0.393   3.049   0.966  0.2192 -0.0864 -0.7506
 4348SOL    HW117390   0.483   3.056   0.934  0.3840  1.1153 -0.0776
 4348SOL    HW217391   0.348   3.124   0.927 -0.5631 -0.7986 -1.2518
 4348SOL     MW17392   0.399   3.059   0.957  0.1401 -0.0237 -0.7286
 4349SOL     OW17393   3.165   1.235   3.926 -0.0223 -0.2897  0.2622
 4349SOL    HW117394   3.111   1.304   3.964  0.8524  0.2446  0.5721
 4349SOL    HW217395   3.222   1.206   3.997  1.9373  1.0263 -0.6713
 4349SOL     MW17396   3.165   1.240   3.940  0.3405 -0.0528  0.1824
 4350SOL     OW17397   1.315   2.897   3.275 -0.2462  0.9871  0.0103
 4350SOL    HW117398   1.355   2.810   3.276 -0.7401  0.7489 -0.5214
 4350SOL    HW217399   1.316   2.923   3.183 -1.1856  1.0287  0.0023
 4350SOL     MW17400   1.320   2.889   3.264 -0.4297  0.9619 -0.0587
 4351SOL     OW17401   0.198   0.910   1.355  0.1132 -0.0673 -0.1445
 4351SOL    HW117402   0.192   0.844   1.287 -0.9688  0.9792 -1.1112
 4351SOL    HW217403   0.260   0.874   1.418  0.7010 -1.3160 -1.3869
 4351SOL     MW17404   0.205   0.897   1.354  0.0499 -0.0932 -0.4273
 4352SOL     OW17405   0.194   3.977   5.076  0.0581 -0.1851 -0.7305
 4352SOL    HW117406   0.241   3.979   4.992  0.4125  2.8769 -0.6011
 4352SOL    HW217407   0.121   4.037   5.064  0.1586  0.3957  1.1376
 4352SOL     MW17408   0.191   3.985   5.064  0.1163  0.2812 -0.4748
 4353SOL     OW17409   2.486   3.108   1.464 -0.4186 -0.5050  0.1464
 4353SOL    HW117410   2.430   3.033   1.446 -0.0840 -0.7189 -0.0004
 4353SOL    HW217411   2.446   3.150   1.540  0.1362 -1.5695  1.0521
 4353SOL     MW17412   2.474   3.104   1.471 -0.3047 -0.6687  0.2436
 4354SOL     OW17413   3.515   2.363   2.220 -0.2191  0.5995  0.0234
 4354SOL    HW117414   3.470   2.339   2.302  0.1610 -0.3364 -0.0238
 4354SOL    HW217415   3.461   2.324   2.151  0.2648  0.0872 -0.0747
 4354SOL     MW17416   3.502   2.355   2.222 -0.1085  0.4141  0.0048
 4355SOL     OW17417   2.000   3.537   1.632  0.6847 -0.1876  0.1520
 4355SOL    HW117418   2.062   3.602   1.598  1.3844 -0.0156  1.6633
 4355SOL    HW217419   2.051   3.486   1.695 -0.0396 -1.7629 -0.4690
 4355SOL     MW17420   2.015   3.538   1.636  0.6816 -0.3673  0.2659
 4356SOL     OW17421   4.745   2.718   3.844  0.3746 -0.3374  0.5547
 4356SOL    HW117422   4.753   2.735   3.938 -0.5162 -0.9255  0.7512
 4356SOL    HW217423   4.657   2.684   3.833 -0.6159  2.3767 -0.9169
 4356SOL     MW17424   4.735   2.716   3.854  0.1338 -0.0652  0.3915
 4357SOL     OW17425   1.083   1.362   2.931 -0.8726 -0.5048  0.4789
 4357SOL    HW117426   1.008   1.397   2.979 -0.3031 -0.2346  1.1765
 4357SOL    HW217427   1.058   1.271   2.912 -1.4301 -0.3804  0.5908
 4357SOL     MW17428   1.070   1.355   2.935 -0.8711 -0.4543  0.5825
 4358SOL     OW17429   3.789   4.259   0.338  0.0038  0.7775 -0.5785
 4358SOL    HW117430   3.702   4.288   0.365  0.6186  1.1274  1.1375
 4358SOL    HW217431   3.818   4.325   0.275 -1.5313 -0.1477 -2.3704
 4358SOL     MW17432   3.781   4.271   0.334 -0.1140  0.7039 -0.5882
 4359SOL     OW17433   3.929   1.504   3.312  0.0645  0.0089 -0.0745
 4359SOL    HW117434   3.876   1.538   3.384  0.0818 -0.3233  0.1005
 4359SOL    HW217435   3.878   1.431   3.277 -0.0865  0.3690 -0.6064
 4359SOL     MW17436   3.916   1.499   3.317  0.0474  0.0124 -0.1202
 4360SOL     OW17437   5.052   3.944   3.578 -0.4541  0.0963  0.3265
 4360SOL    HW117438   5.120   3.954   3.511  0.2212  2.8523  1.2912
 4360SOL    HW217439   5.088   3.881   3.640  1.2686  1.4685  0.7894
 4360SOL     MW17440   5.065   3.937   3.577 -0.1471  0.6248  0.5092
 4361SOL     OW17441   3.420   2.482   1.086 -0.0612  0.2701  0.1743
 4361SOL    HW117442   3.484   2.468   1.156  0.4043  1.6519  0.0606
 4361SOL    HW217443   3.369   2.557   1.115 -1.4701 -0.6515  0.1335
 4361SOL     MW17444   3.422   2.489   1.098 -0.1820  0.3290  0.1546
 4362SOL     OW17445   5.081   3.537   3.326  0.0636  0.3294  0.0363
 4362SOL    HW117446   5.047   3.461   3.279  0.9804 -0.5340  0.7276
 4362SOL    HW217447   5.155   3.567   3.273  1.4615 -0.9960  1.1591
 4362SOL     MW17448   5.086   3.531   3.313  0.3599  0.0492  0.2685
 4363SOL     OW17449   4.097   5.362   1.368 -0.2765  0.3598  0.1775
 4363SOL    HW117450   4.020   5.351   1.424  0.3595 -0.4190  0.9142
 4363SOL    HW217451   4.074   5.316   1.287 -0.6355  0.2487  0.3403
 4363SOL     MW17452   4.084   5.355   1.365 -0.2411  0.2459  0.2926
 4364SOL     OW17453   2.952   1.157   4.469  0.0099  0.4069 -0.9517
 4364SOL    HW117454   3.030   1.208   4.493  1.0693 -1.5372 -0.0248
 4364SOL    HW217455   2.880   1.200   4.515  1.1323  0.1195  1.2133
 4364SOL     MW17456   2.953   1.169   4.478  0.2892  0.1212 -0.5559
 4365SOL     OW17457   1.108   0.304   0.019 -0.0981 -0.4034 -0.4128
 4365SOL    HW117458   1.028   0.263   0.052 -0.4874 -0.0913 -0.9634
 4365SOL    HW217459   1.112   0.388   0.065  0.3962 -0.8000  0.2866
 4365SOL     MW17460   1.098   0.309   0.029 -0.0847 -0.4142 -0.3937
 4366SOL     OW17461   4.877   3.934   1.979 -0.1447 -0.6347 -0.0841
 4366SOL    HW117462   4.797   3.917   1.930 -0.1257  0.0883 -0.3851
 4366SOL    HW217463   4.884   4.030   1.981 -0.3487 -0.6305  1.6807
 4366SOL     MW17464   4.868   3.944   1.973 -0.1684 -0.5416  0.1033
 4367SOL     OW17465   1.098   3.447   3.231 -0.2888  0.0661 -0.0701
 4367SOL    HW117466   1.008   3.433   3.261 -0.3624 -0.5530 -0.5687
 4367SOL    HW217467   1.141   3.363   3.245 -0.1559 -0.0511 -1.0855
 4367SOL     MW17468   1.092   3.435   3.237 -0.2812 -0.0282 -0.2639
 4368SOL     OW17469   3.236   3.705   1.785  0.1299  0.0287 -0.1188
 4368SOL    HW117470   3.268   3.645   1.852  1.8893  0.2215 -0.7316
 4368SOL    HW217471   3.209   3.648   1.713 -1.5938 -0.1688  0.6429
 4368SOL     MW17472   3.237   3.690   1.784  0.1345  0.0281 -0.0998
 4369SOL     OW17473   1.592   1.151   3.686  0.0877  0.1422 -0.0857
 4369SOL    HW117474   1.530   1.095   3.732  0.5931  0.5868  1.1691
 4369SOL    HW217475   1.550   1.168   3.601 -1.4985  0.4230  0.7169
 4369SOL     MW17476   1.579   1.146   3.681 -0.0507  0.2350  0.1777
 4370SOL     OW17477   4.450   5.132   2.171 -0.3647  0.3054 -0.5451
 4370SOL    HW117478   4.439   5.176   2.087 -1.1833 -0.0585 -0.6356
 4370SOL    HW217479   4.395   5.054   2.165 -0.0077 -0.0078  0.1289
 4370SOL     MW17480   4.442   5.128   2.159 -0.4238  0.2187 -0.4704
 4371SOL     OW17481   2.662   1.180   1.030 -0.4718  0.2201 -0.4060
 4371SOL    HW117482   2.711   1.171   0.949 -1.8805  1.8658 -1.4996
 4371SOL    HW217483   2.718   1.235   1.086  0.0149 -0.0091 -0.6616
 4371SOL     MW17484   2.676   1.186   1.027 -0.5898  0.4014 -0.5787
 4372SOL     OW17485   4.432   5.127   0.768  0.2543 -0.5131 -0.2876
 4372SOL    HW117486   4.520   5.108   0.736  0.5842  0.8850 -0.2988
 4372SOL    HW217487   4.405   5.047   0.814  0.6627 -1.7253 -2.0754
 4372SOL     MW17488   4.440   5.115   0.770  0.3488 -0.4893 -0.5179
 4373SOL     OW17489   1.292   2.010  -0.003 -0.2777  0.4158 -0.1371
 4373SOL    HW117490   1.215   2.010  -0.060 -0.4613 -0.1537  0.1012
 4373SOL    HW217491   1.260   1.975   0.080  0.3580 -0.3565 -0.2069
 4373SOL     MW17492   1.278   2.005   0.000 -0.2198  0.2440 -0.1155
 4374SOL     OW17493   3.520   3.206   3.295  0.1335 -0.0938 -0.8444
 4374SOL    HW117494   3.427   3.181   3.296 -0.2052  1.0251 -1.8098
 4374SOL    HW217495   3.528   3.269   3.367  0.4281 -1.0513 -0.0135
 4374SOL     MW17496   3.509   3.211   3.304  0.1279 -0.0731 -0.8616
 4375SOL     OW17497   2.691   2.432   3.286 -0.4011  0.1323 -0.2035
 4375SOL    HW117498   2.608   2.416   3.240  0.3097  0.4579 -1.6525
 4375SOL    HW217499   2.698   2.359   3.348 -0.8373 -0.9916 -1.4315
 4375SOL     MW17500   2.681   2.421   3.288 -0.3659  0.0301 -0.5462
 4376SOL     OW17501   5.060   0.189   1.041  0.2338  0.0192 -0.0739
 4376SOL    HW117502   4.995   0.214   0.976 -0.0470  0.4639  0.3725
 4376SOL    HW217503   5.040   0.098   1.061  0.3145 -0.1181 -0.5961
 4376SOL     MW17504   5.049   0.181   1.035  0.2082  0.0585 -0.0836
 4377SOL     OW17505   4.082   0.010   0.579  0.0311 -0.0109  0.2711
 4377SOL    HW117506   4.002   0.006   0.528  0.3408  1.6544 -0.4019
 4377SOL    HW217507   4.052   0.025   0.669 -0.4124  0.7806 -0.0022
 4377SOL     MW17508   4.068   0.011   0.584  0.0140  0.3036  0.1500
 4378SOL     OW17509   0.876   1.569   0.170  0.4539 -0.2396  0.3324
 4378SOL    HW117510   0.841   1.537   0.253 -0.0617 -1.0755 -0.2008
 4378SOL    HW217511   0.914   1.654   0.192  0.2525 -0.4121  1.4084
 4378SOL     MW17512   0.876   1.576   0.184  0.3621 -0.3687  0.4019
 4379SOL     OW17513   3.723   2.118   4.457 -0.2971 -0.1918 -0.7347
 4379SOL    HW117514   3.770   2.180   4.402 -0.6625  2.2680  1.5276
 4379SOL    HW217515   3.764   2.128   4.544 -2.1541 -1.1238  0.3128
 4379SOL     MW17516   3.734   2.127   4.461 -0.5816  0.0038 -0.3110
 4380SOL     OW17517   4.497   5.293   2.387  0.5051 -0.1936 -0.2798
 4380SOL    HW117518   4.480   5.222   2.325  0.0282  0.5150 -0.9762
 4380SOL    HW217519   4.504   5.250   2.472  0.5322 -1.1069 -0.7384
 4380SOL     MW17520   4.496   5.278   2.390  0.4475 -0.2198 -0.4277
 4381SOL     OW17521   3.127   1.307   4.584 -0.4716 -0.0119  0.1444
 4381SOL    HW117522   3.083   1.365   4.646  0.1089  0.0435  0.5086
 4381SOL    HW217523   3.209   1.350   4.564  0.8047 -1.5207  1.8069
 4381SOL     MW17524   3.132   1.320   4.589 -0.2339 -0.1979  0.4039
 4382SOL     OW17525   3.510   3.590   5.264 -0.2631  0.7639  0.5056
 4382SOL    HW117526   3.420   3.607   5.238  0.4000 -0.3952 -3.1191
 4382SOL    HW217527   3.563   3.632   5.196  1.7851 -1.4784  0.5532
 4382SOL     MW17528   3.505   3.598   5.252  0.0840  0.3285  0.0477
 4383SOL     OW17529   1.837   3.739   5.322  0.0334 -0.1069 -0.1549
 4383SOL    HW117530   1.759   3.724   5.269  0.0630  1.7343 -0.7935
 4383SOL    HW217531   1.908   3.745   5.258  0.2256  1.1491  0.1596
 4383SOL     MW17532   1.836   3.738   5.307  0.0618  0.2896 -0.1964
 4384SOL     OW17533   2.558   2.525   5.005  0.3496 -0.1104  0.0023
 4384SOL    HW117534   2.576   2.484   4.921  1.5266  1.7723 -0.7337
 4384SOL    HW217535   2.462   2.533   5.008  0.2621 -0.7065 -0.8750
 4384SOL     MW17536   2.548   2.521   4.995  0.4891  0.0543 -0.2042
 4385SOL     OW17537   0.355   0.245   0.246  0.0901  0.2636 -0.0972
 4385SOL    HW117538   0.323   0.197   0.323  0.4309  1.6016  0.9151
 4385SOL    HW217539   0.277   0.287   0.210  0.3247  1.7919  1.1106
 4385SOL     MW17540   0.341   0.244   0.251  0.1638  0.6305  0.1870
 4386SOL     OW17541   2.951   1.522   2.092 -0.0352  0.0581  0.1214
 4386SOL    HW117542   2.864   1.503   2.056 -0.5396 -0.7425  1.6643
 4386SOL    HW217543   2.942   1.505   2.186  2.2059 -1.6547  0.1133
 4386SOL     MW17544   2.939   1.517   2.100  0.1871 -0.2637  0.3179
 4387SOL     OW17545   2.892   0.795   3.921  0.2335  0.6730 -0.3562
 4387SOL    HW117546   2.960   0.861   3.911 -0.1454  1.3559  1.1777
 4387SOL    HW217547   2.935   0.724   3.969  0.3028  0.3454 -0.8929
 4387SOL     MW17548   2.906   0.794   3.926  0.1938  0.7185 -0.2285
 4388SOL     OW17549   1.286   5.387   4.888  0.0556 -0.0740 -0.4723
 4388SOL    HW117550   1.342   5.321   4.928 -0.7282 -0.5636 -0.1499
 4388SOL    HW217551   1.238   5.426   4.961  1.8650  2.2529 -0.3941
 4388SOL     MW17552   1.287   5.383   4.902  0.1869  0.1612 -0.4210
 4389SOL     OW17553   1.727   0.868   0.762  0.0423 -0.0322  0.1423
 4389SOL    HW117554   1.743   0.963   0.761  0.7302 -0.1216  1.0690
 4389SOL    HW217555   1.725   0.845   0.855 -0.2282 -0.9148 -0.0704
 4389SOL     MW17556   1.729   0.877   0.774  0.0957 -0.1566  0.2337
 4390SOL     OW17557   3.194   4.840   4.520 -0.5734 -0.3321 -0.5259
 4390SOL    HW117558   3.177   4.787   4.442  0.5175 -0.7570 -0.5015
 4390SOL    HW217559   3.251   4.784   4.574  2.2677  1.5424 -1.3613
 4390SOL     MW17560   3.199   4.826   4.517 -0.0701 -0.1466 -0.6297
 4391SOL     OW17561   3.669   2.027   0.467  0.1257 -0.0418  0.0602
 4391SOL    HW117562   3.577   2.040   0.489  0.3924 -1.3199  2.3258
 4391SOL    HW217563   3.703   2.114   0.448 -1.4116  0.5055 -0.2303
 4391SOL     MW17564   3.662   2.040   0.468 -0.0370 -0.1354  0.3130
 4392SOL     OW17565   3.835   2.805   2.854  0.2825  0.0442  0.1166
 4392SOL    HW117566   3.883   2.811   2.771  2.1200 -2.5219  0.8520
 4392SOL    HW217567   3.873   2.874   2.908 -0.1543  1.0254 -0.7884
 4392SOL     MW17568   3.846   2.815   2.850  0.4618 -0.1587  0.0949
 4393SOL     OW17569   3.488   3.778   5.452 -0.1938  0.1752 -0.3132
 4393SOL    HW117570   3.506   3.718   5.379  0.7191  0.5610 -0.4209
 4393SOL    HW217571   3.424   3.839   5.418 -0.8410 -0.4986 -0.3301
 4393SOL     MW17572   3.482   3.778   5.438 -0.1598  0.1383 -0.3291
 4394SOL     OW17573   0.073   1.874   2.764  0.5746 -0.0953  0.2419
 4394SOL    HW117574   0.113   1.954   2.731 -0.4630  0.0564 -0.6937
 4394SOL    HW217575   0.096   1.807   2.699 -1.2925  0.1596 -0.7344
 4394SOL     MW17576   0.081   1.876   2.752  0.2028 -0.0432 -0.0028
 4395SOL     OW17577   3.196   0.192   0.377 -0.5173 -0.1186  0.2039
 4395SOL    HW117578   3.158   0.137   0.445  1.6230 -0.1682  1.4597
 4395SOL    HW217579   3.233   0.130   0.314  1.1294 -0.1724  1.1728
 4395SOL     MW17580   3.196   0.177   0.378 -0.0325 -0.1318  0.4887
 4396SOL     OW17581   0.579   4.896   3.386  0.0001  0.0155 -0.8752
 4396SOL    HW117582   0.665   4.932   3.366 -0.8115  2.3564 -0.4816
 4396SOL    HW217583   0.553   4.848   3.307  0.8969  0.8520 -1.7029
 4396SOL     MW17584   0.587   4.894   3.373  0.0110  0.4223 -0.9308
 4397SOL     OW17585   1.868   2.038   3.673  0.0470  0.7622  0.0112
 4397SOL    HW117586   1.847   2.085   3.754 -0.8720  1.2290 -0.4860
 4397SOL    HW217587   1.790   2.047   3.619 -0.0789 -1.1334 -0.2038
 4397SOL     MW17588   1.855   2.045   3.677 -0.0868  0.5793 -0.0800
 4398SOL     OW17589   0.045   3.004   3.468  0.0253 -0.2637  0.1599
 4398SOL    HW117590   0.136   3.026   3.450  0.2896 -0.1798  1.4981
 4398SOL    HW217591   0.026   2.930   3.410  0.8118 -0.0259 -0.4170
 4398SOL     MW17592   0.054   2.998   3.458  0.1598 -0.2225  0.2573
 4399SOL     OW17593   2.080   2.468   2.953  0.4982  0.0856  0.7299
 4399SOL    HW117594   2.052   2.559   2.948 -1.3391 -0.3685  1.6293
 4399SOL    HW217595   2.002   2.418   2.928  1.3366 -1.2434  0.7043
 4399SOL     MW17596   2.066   2.473   2.949  0.3703 -0.1426  0.8417
 4400SOL     OW17597   2.400   2.158   4.363 -0.1941  0.0780 -0.0759
 4400SOL    HW117598   2.331   2.223   4.376 -1.1199 -1.0125  0.6413
 4400SOL    HW217599   2.476   2.195   4.410 -0.5153  0.9039 -0.1823
 4400SOL     MW17600   2.401   2.171   4.371 -0.3537  0.0441  0.0023
 4401SOL     OW17601   1.949   4.176   4.343 -0.1122  0.0730  0.8866
 4401SOL    HW117602   1.875   4.167   4.283 -0.8230  0.4707  1.6849
 4401SOL    HW217603   2.021   4.129   4.300 -0.8352 -0.3508  0.1197
 4401SOL     MW17604   1.949   4.169   4.330 -0.2957  0.0697  0.8906
 4402SOL     OW17605   1.524   2.287   3.123 -0.3015  0.0587 -0.1764
 4402SOL    HW117606   1.539   2.381   3.113 -0.4483  0.1737  0.6182
 4402SOL    HW217607   1.501   2.276   3.215  0.3473 -0.8473 -0.1106
 4402SOL     MW17608   1.523   2.298   3.134 -0.2372 -0.0425 -0.0663
 4403SOL     OW17609   2.971   4.536   1.598 -0.0831 -0.2537  0.3617
 4403SOL    HW117610   2.916   4.550   1.521  0.1981 -0.1765  0.1759
 4403SOL    HW217611   3.000   4.624   1.622 -0.8198 -0.1838  1.0369
 4403SOL     MW17612   2.967   4.549   1.591 -0.1414 -0.2349  0.4243
 4404SOL     OW17613   4.041   3.063   5.287  0.1101 -0.2478 -0.4778
 4404SOL    HW117614   3.985   3.111   5.348  0.0404 -0.1358 -0.6297
 4404SOL    HW217615   4.115   3.034   5.341 -0.8091 -1.6790  0.0659
 4404SOL     MW17616   4.043   3.066   5.302 -0.0165 -0.4166 -0.4276
 4405SOL     OW17617   0.287   0.546   5.209  0.5125 -0.2399  0.1441
 4405SOL    HW117618   0.228   0.529   5.135  0.3633  0.9084 -0.0115
 4405SOL    HW217619   0.302   0.640   5.207 -0.7386  0.0848  2.5257
 4405SOL     MW17620   0.281   0.556   5.199  0.3332 -0.0513  0.4291
 4406SOL     OW17621   0.091   0.665   4.609 -0.5186 -0.1770 -0.2070
 4406SOL    HW117622   0.168   0.713   4.580 -0.7845  0.3813 -0.0134
 4406SOL    HW217623   0.073   0.604   4.538 -0.8531  0.8027 -1.0022
 4406SOL     MW17624   0.099   0.664   4.596 -0.5954  0.0199 -0.2840
 4407SOL     OW17625   5.327   1.142   5.250 -0.2712  0.2738  0.6503
 4407SOL    HW117626   5.372   1.197   5.315 -1.2929  3.1006 -0.8894
 4407SOL    HW217627   5.234   1.148   5.274 -0.5902  0.8330 -0.6285
 4407SOL     MW17628   5.321   1.150   5.262 -0.4429  0.7073  0.2895
 4408SOL     OW17629   2.852   2.425   1.152  0.0371  0.0297 -0.0244
 4408SOL    HW117630   2.766   2.384   1.159 -0.3968  1.1468  2.0923
 4408SOL    HW217631   2.866   2.436   1.058 -1.7009 -1.0398 -0.4505
 4408SOL     MW17632   2.843   2.421   1.141 -0.2409  0.0358  0.1920
 4409SOL     OW17633   0.434   0.754   4.753 -0.1716  0.0047  0.1350
 4409SOL    HW117634   0.434   0.681   4.814 -2.6902 -1.3819 -1.3799
 4409SOL    HW217635   0.380   0.821   4.795 -0.4311 -0.2339  0.1797
 4409SOL     MW17636   0.427   0.753   4.766 -0.5272 -0.2034 -0.0532
 4410SOL     OW17637   1.215   2.476   4.206 -0.4683 -0.4479 -0.2080
 4410SOL    HW117638   1.144   2.414   4.224 -0.1617 -0.8097 -0.2159
 4410SOL    HW217639   1.253   2.446   4.124 -0.6019  0.0234 -0.4426
 4410SOL     MW17640   1.211   2.464   4.198 -0.4461 -0.4339 -0.2390
 4411SOL     OW17641   4.732   1.459   5.103  0.2059 -0.1510 -0.1672
 4411SOL    HW117642   4.724   1.379   5.052 -2.4309 -0.4640  0.5632
 4411SOL    HW217643   4.698   1.436   5.189  0.6844  1.4223  0.4860
 4411SOL     MW17644   4.727   1.446   5.107 -0.0704  0.0103  0.0099
 4412SOL     OW17645   4.994   4.588   3.201  0.2419 -0.5149  0.0627
 4412SOL    HW117646   5.030   4.547   3.279  0.0995  2.2051  1.6775
 4412SOL    HW217647   4.902   4.605   3.222 -0.4576 -1.8659 -1.6590
 4412SOL     MW17648   4.987   4.585   3.213  0.1341 -0.3396  0.0490
 4413SOL     OW17649   2.942   2.123   4.657 -0.1621  0.1023  0.1035
 4413SOL    HW117650   3.028   2.115   4.615  0.6223  1.3695  1.4122
 4413SOL    HW217651   2.959   2.172   4.737 -1.9981 -0.3011  0.7704
 4413SOL     MW17652   2.956   2.128   4.662 -0.2967  0.2129  0.3564
 4414SOL     OW17653   0.632   4.727   1.086 -0.4954 -0.0649 -0.2844
 4414SOL    HW117654   0.692   4.768   1.148  1.1636 -4.2621  1.2684
 4414SOL    HW217655   0.675   4.739   1.001  0.6690  0.1557  0.3120
 4414SOL     MW17656   0.645   4.733   1.083 -0.1340 -0.5740 -0.0093
 4415SOL     OW17657   0.942   0.972   3.344  0.0386  0.4706 -0.0192
 4415SOL    HW117658   0.952   1.067   3.347 -0.7330  0.6030 -1.0166
 4415SOL    HW217659   1.027   0.938   3.374  1.6724  1.4892 -2.9823
 4415SOL     MW17660   0.955   0.980   3.348  0.1490  0.6179 -0.5262
 4416SOL     OW17661   2.703   0.312   0.126 -0.3582  0.5018  0.5663
 4416SOL    HW117662   2.678   0.368   0.199  1.3407  1.8053  0.2134
 4416SOL    HW217663   2.697   0.369   0.049 -1.8714 -0.7719 -0.3101
 4416SOL     MW17664   2.699   0.326   0.125 -0.3344  0.5056  0.4089
 4417SOL     OW17665   1.813   3.297   1.242 -0.0214 -0.7544 -0.0774
 4417SOL    HW117666   1.745   3.325   1.181 -1.1057  0.0654  1.4506
 4417SOL    HW217667   1.896   3.321   1.200 -0.8070  1.9712 -0.1948
 4417SOL     MW17668   1.815   3.303   1.229 -0.2607 -0.3005  0.1032
 4418SOL     OW17669   1.453   0.445   2.596 -0.0171 -0.0524 -0.2568
 4418SOL    HW117670   1.516   0.378   2.623 -0.0502  0.7584  2.0018
 4418SOL    HW217671   1.471   0.457   2.503  1.9135 -1.1622 -0.0867
 4418SOL     MW17672   1.464   0.438   2.587  0.2258 -0.0907  0.0541
 4419SOL     OW17673   5.405   0.590   4.123  0.3793  0.4608 -0.1022
 4419SOL    HW117674   5.322   0.607   4.168  0.5863  1.3428 -0.0392
 4419SOL    HW217675   5.444   0.517   4.172  0.4719  1.2244  0.9950
 4419SOL     MW17676   5.399   0.583   4.135  0.4177  0.6714  0.0463
 4420SOL     OW17677   0.001   4.558   2.931 -0.5871  0.8606 -0.8606
 4420SOL    HW117678  -0.016   4.486   2.991 -1.1221  0.5108 -1.4282
 4420SOL    HW217679   0.024   4.516   2.848 -0.9388  1.3392 -1.2053
 4420SOL     MW17680   0.002   4.544   2.928 -0.7006  0.8771 -0.9774
 4421SOL     OW17681   0.300   0.982   3.314  0.2527  0.0674  0.3143
 4421SOL    HW117682   0.234   1.051   3.319 -0.8322 -0.8779 -0.5378
 4421SOL    HW217683   0.292   0.935   3.397 -1.1768 -0.9149 -0.3358
 4421SOL     MW17684   0.290   0.985   3.325 -0.0692 -0.1794  0.1220
 4422SOL     OW17685   0.877   0.829   3.119  0.2887 -0.2069  0.4375
 4422SOL    HW117686   0.820   0.783   3.179 -1.1891  1.0326  0.0419
 4422SOL    HW217687   0.924   0.892   3.174 -2.2136  2.0369  0.2026
 4422SOL     MW17688   0.876   0.831   3.134 -0.2208  0.2390  0.3568
 4423SOL     OW17689   5.281   2.894   2.078  0.6437  0.1181  0.2699
 4423SOL    HW117690   5.207   2.955   2.075 -0.0323 -0.5739  1.6049
 4423SOL    HW217691   5.274   2.844   1.997  0.0831  0.5550  0.0348
 4423SOL     MW17692   5.270   2.896   2.068  0.4854  0.0855  0.4107
 4424SOL     OW17693   4.505   3.718   0.891 -0.6374  0.4866 -0.5611
 4424SOL    HW117694   4.516   3.812   0.906 -3.1944  0.6040  1.4478
 4424SOL    HW217695   4.513   3.679   0.978 -0.9385 -0.9800 -1.1568
 4424SOL     MW17696   4.507   3.725   0.904 -1.0033  0.3139 -0.3802
 4425SOL     OW17697   3.426   4.857   4.190  0.0003 -0.0676  0.5631
 4425SOL    HW117698   3.467   4.805   4.121  0.1535 -1.7640  1.8596
 4425SOL    HW217699   3.487   4.851   4.264 -0.3218  1.3975  0.9863
 4425SOL     MW17700   3.439   4.850   4.191 -0.0213 -0.0972  0.7832
 4426SOL     OW17701   2.703   0.693   3.101  0.0020  0.6225  0.7069
 4426SOL    HW117702   2.761   0.756   3.057  1.2651 -0.6854  0.4226
 4426SOL    HW217703   2.659   0.647   3.030 -0.7236  0.9960  0.9076
 4426SOL     MW17704   2.705   0.695   3.087  0.0708  0.5029  0.6962
 4427SOL     OW17705   3.305   0.714   4.269 -0.1978 -0.1515  0.6126
 4427SOL    HW117706   3.326   0.767   4.192  0.1165  0.4632  1.1104
 4427SOL    HW217707   3.311   0.623   4.238 -2.1323  0.0826 -0.6135
 4427SOL     MW17708   3.309   0.709   4.255 -0.4052 -0.0429  0.5194
 4428SOL     OW17709   3.690   3.890   3.687  0.2238  0.2055  0.1059
 4428SOL    HW117710   3.683   3.952   3.614  2.5220  0.4825  0.0164
 4428SOL    HW217711   3.688   3.945   3.765 -0.6479  0.0769  0.1765
 4428SOL     MW17712   3.689   3.905   3.687  0.4064  0.2245  0.1035
 4429SOL     OW17713   4.386   0.692   4.658 -0.0510 -0.3133 -0.0792
 4429SOL    HW117714   4.309   0.694   4.602  2.1774  2.0139 -3.3956
 4429SOL    HW217715   4.447   0.633   4.614  1.3608  0.6591  0.4777
 4429SOL     MW17716   4.384   0.685   4.645  0.4150  0.1091 -0.4324
 4430SOL     OW17717   0.221   4.503   4.146  0.3679  0.3634 -0.1240
 4430SOL    HW117718   0.313   4.500   4.174  0.2991 -2.1111  0.0396
 4430SOL    HW217719   0.178   4.434   4.198 -1.5623  1.3667 -0.3185
 4430SOL     MW17720   0.227   4.494   4.156  0.1120  0.1751 -0.1280
 4431SOL     OW17721   5.144   0.731   4.858  0.3189  0.0748 -0.0529
 4431SOL    HW117722   5.143   0.636   4.871 -0.5823  0.0647 -0.1446
 4431SOL    HW217723   5.060   0.750   4.816  0.3114  0.9670  0.3500
 4431SOL     MW17724   5.133   0.721   4.854  0.2026  0.1877 -0.0131
 4432SOL     OW17725   5.439   4.844   2.869  0.5959  0.1623  0.3361
 4432SOL    HW117726   5.461   4.841   2.776  0.5684  0.3130  0.3246
 4432SOL    HW217727   5.426   4.753   2.893  1.5411  0.0396  0.4213
 4432SOL     MW17728   5.440   4.832   2.860  0.7134  0.1659  0.3455
 4433SOL     OW17729   1.398   0.286   3.833  0.5003  0.2786  0.5059
 4433SOL    HW117730   1.420   0.342   3.759  0.9951  0.6429  0.9132
 4433SOL    HW217731   1.313   0.249   3.811  0.0258  1.4141  0.3442
 4433SOL     MW17732   1.390   0.288   3.821  0.5029  0.4706  0.5373
 4434SOL     OW17733   3.996   0.748   0.850 -0.0622 -0.3076  0.1468
 4434SOL    HW117734   3.965   0.812   0.915 -1.0617 -0.5242 -0.0908
 4434SOL    HW217735   4.083   0.723   0.881 -0.0964  0.3609  0.8346
 4434SOL     MW17736   4.003   0.753   0.862 -0.1945 -0.2498  0.2044
 4435SOL     OW17737   4.335   4.322   0.411 -0.0345  0.4221 -0.0485
 4435SOL    HW117738   4.288   4.262   0.353  0.3578  0.3520 -0.2976
 4435SOL    HW217739   4.318   4.288   0.499 -1.4122  1.0728 -0.0270
 4435SOL     MW17740   4.327   4.310   0.415 -0.1606  0.4964 -0.0776
 4436SOL     OW17741   2.906   3.463   0.277 -0.0488  0.3969 -0.4076
 4436SOL    HW117742   2.922   3.541   0.330  0.2782  0.4145 -0.5345
 4436SOL    HW217743   2.825   3.483   0.229  0.7123  1.1713 -1.3976
 4436SOL     MW17744   2.898   3.475   0.277  0.0905  0.4982 -0.5506
 4437SOL     OW17745   3.268   3.650   5.138 -0.0427  0.9229  0.2949
 4437SOL    HW117746   3.330   3.675   5.069 -0.1280  0.6939  0.1354
 4437SOL    HW217747   3.279   3.555   5.147 -2.1028  0.4487 -1.4454
 4437SOL     MW17748   3.278   3.641   5.131 -0.3173  0.8329  0.0517
 4438SOL     OW17749   3.813   1.576   0.071  0.0643 -0.0837 -0.3657
 4438SOL    HW117750   3.782   1.637   0.005  0.6800  0.1157 -0.4713
 4438SOL    HW217751   3.866   1.629   0.130 -0.5983 -0.2307  0.3805
 4438SOL     MW17752   3.815   1.590   0.070  0.0583 -0.0770 -0.2837
 4439SOL     OW17753   1.193   5.159   2.546 -0.2192  0.1851 -0.4391
 4439SOL    HW117754   1.150   5.180   2.629 -0.4447  0.3748 -0.6036
 4439SOL    HW217755   1.282   5.194   2.556  0.4718 -1.7314  0.5691
 4439SOL     MW17756   1.199   5.166   2.558 -0.1596 -0.0359 -0.3311
 4440SOL     OW17757   0.091   2.052   4.567 -0.5665  0.3452  0.1475
 4440SOL    HW117758   0.146   2.047   4.645  1.2283  1.0424 -1.0107
 4440SOL    HW217759   0.112   1.972   4.518  0.3011  1.1482 -0.8321
 4440SOL     MW17760   0.101   2.041   4.571 -0.2257  0.5372 -0.1261
 4441SOL     OW17761   1.576   0.138   4.172  0.1885 -0.2333  0.1205
 4441SOL    HW117762   1.592   0.185   4.254 -0.8748 -1.3616  1.0187
 4441SOL    HW217763   1.509   0.074   4.195 -0.3306 -0.3914 -1.7105
 4441SOL     MW17764   1.569   0.136   4.186 -0.0141 -0.3980  0.0011
 4442SOL     OW17765   2.724   4.915   3.466 -0.2674 -0.6840 -0.2018
 4442SOL    HW117766   2.794   4.855   3.492  0.1230 -0.4989 -0.8114
 4442SOL    HW217767   2.747   4.998   3.507  0.2685 -0.4311 -1.0039
 4442SOL     MW17768   2.736   4.918   3.475 -0.1488 -0.6279 -0.3825
 4443SOL     OW17769   0.574   1.345   0.239 -0.6361  0.1448 -0.0351
 4443SOL    HW117770   0.583   1.378   0.150 -0.8500  0.5391  0.0865
 4443SOL    HW217771   0.597   1.419   0.295  0.8744 -0.5084  0.2457
 4443SOL     MW17772   0.578   1.359   0.235 -0.4702  0.1117  0.0164
 4444SOL     OW17773   4.380   0.472   3.605 -0.3148  0.1405  0.6405
 4444SOL    HW117774   4.465   0.508   3.581 -1.1269  1.4614 -0.4145
 4444SOL    HW217775   4.359   0.513   3.688  1.2006 -2.2223  2.3295
 4444SOL     MW17776   4.388   0.482   3.613 -0.2248  0.0071  0.7216
 4445SOL     OW17777   0.285   0.738   0.532  0.3454 -0.5128 -0.6119
 4445SOL    HW117778   0.324   0.699   0.454  3.3788 -1.1245  1.0428
 4445SOL    HW217779   0.360   0.769   0.583 -1.5761  1.0211  1.4928
 4445SOL     MW17780   0.299   0.737   0.529  0.4878 -0.3947 -0.1307
 4446SOL     OW17781   2.458   4.304   3.937  0.5991  0.0628 -0.1333
 4446SOL    HW117782   2.534   4.314   3.995 -0.0817 -0.9650  0.9814
 4446SOL    HW217783   2.486   4.343   3.854  2.1789  0.1044  0.3819
 4446SOL     MW17784   2.471   4.311   3.934  0.7142 -0.0634  0.0753
 4447SOL     OW17785   3.174   0.470   4.576 -0.2877 -0.5082 -0.5701
 4447SOL    HW117786   3.150   0.414   4.650  1.2776  0.0275  0.3888
 4447SOL    HW217787   3.193   0.555   4.615  0.6898 -0.2469 -1.5471
 4447SOL     MW17788   3.174   0.474   4.591  0.0378 -0.4062 -0.5724
 4448SOL     OW17789   4.887   1.443   2.997 -0.0672  0.4643 -0.0930
 4448SOL    HW117790   4.972   1.461   2.957  0.7375  0.5027  1.5397
 4448SOL    HW217791   4.908   1.418   3.087 -1.8754  1.6381  0.7034
 4448SOL     MW17792   4.901   1.442   3.003 -0.1956  0.6195  0.2179
 4449SOL     OW17793   2.617   4.418   0.528 -0.3094  0.0729  0.1458
 4449SOL    HW117794   2.569   4.493   0.493  0.0559  0.4537  0.4470
 4449SOL    HW217795   2.558   4.344   0.517  0.2553 -0.1021 -2.5318
 4449SOL     MW17796   2.603   4.418   0.522 -0.1903  0.0992 -0.1584
 4450SOL     OW17797   4.614   0.846   3.526 -0.2614 -0.0857 -0.1243
 4450SOL    HW117798   4.652   0.934   3.522 -0.3304 -0.0501  0.0324
 4450SOL    HW217799   4.548   0.845   3.457 -1.2959  0.4642  0.8333
 4450SOL     MW17800   4.611   0.857   3.516 -0.4026 -0.0107  0.0183
 4451SOL     OW17801   0.419   5.109   3.365  0.1032 -0.2659 -0.4188
 4451SOL    HW117802   0.478   5.046   3.406  1.2947  0.8519 -0.3555
 4451SOL    HW217803   0.373   5.151   3.437  2.6491  2.1445 -0.0519
 4451SOL     MW17804   0.420   5.106   3.379  0.5816  0.1857 -0.3637
 4452SOL     OW17805   1.977   3.997   1.217  0.6463  0.6665  0.4106
 4452SOL    HW117806   1.968   3.992   1.312  1.4272 -0.6580  0.4416
 4452SOL    HW217807   1.888   4.011   1.185  0.3371  0.8261  1.3176
 4452SOL     MW17808   1.965   3.998   1.225  0.7067  0.5174  0.5306
 4453SOL     OW17809   5.251   5.093   1.509  0.1828 -0.3221 -0.4502
 4453SOL    HW117810   5.256   5.127   1.598  1.7347  0.8014 -0.9259
 4453SOL    HW217811   5.186   5.148   1.465  0.3007 -0.1052 -0.3488
 4453SOL     MW17812   5.243   5.104   1.514  0.3965 -0.1505 -0.4982
 4454SOL     OW17813   2.320   3.896   4.112  0.6483  0.0492 -0.3004
 4454SOL    HW117814   2.415   3.885   4.108  0.5510 -0.5528 -1.5676
 4454SOL    HW217815   2.299   3.952   4.037 -0.0488 -0.3002 -0.3762
 4454SOL     MW17816   2.330   3.902   4.102  0.5466 -0.0726 -0.4723
 4455SOL     OW17817   0.964   3.903   3.961  0.1981  0.3668 -0.2755
 4455SOL    HW117818   1.018   3.929   4.036  1.3229  1.1001 -1.2977
 4455SOL    HW217819   0.880   3.878   3.999  0.6593  0.9629  1.2015
 4455SOL     MW17820   0.960   3.903   3.975  0.4011  0.5370 -0.2173
 4456SOL     OW17821   3.755   4.299   1.181 -0.2191 -0.3782  0.9557
 4456SOL    HW117822   3.674   4.264   1.219 -0.7190 -0.2660  0.0248
 4456SOL    HW217823   3.825   4.263   1.235 -0.9423  0.6321  2.6564
 4456SOL     MW17824   3.754   4.290   1.193 -0.3756 -0.2345  1.0542
 4457SOL     OW17825   0.819   3.402   3.277 -0.4277  0.0892  0.1246
 4457SOL    HW117826   0.785   3.482   3.237  2.2625  1.8237  1.0391
 4457SOL    HW217827   0.823   3.338   3.206 -1.6690  1.0559 -0.8566
 4457SOL     MW17828   0.815   3.404   3.263 -0.2422  0.4350  0.1161
 4458SOL     OW17829   3.310   2.506   2.847  0.4508  0.0948  0.2269
 4458SOL    HW117830   3.395   2.485   2.807  0.5637 -0.9879  1.0137
 4458SOL    HW217831   3.247   2.456   2.796  0.7002 -2.1415  1.9808
 4458SOL     MW17832   3.313   2.497   2.835  0.4972 -0.3301  0.5521
 4459SOL     OW17833   3.817   3.646   4.653  0.2068 -0.5336 -0.1128
 4459SOL    HW117834   3.897   3.692   4.679 -0.2966  0.3436 -0.0726
 4459SOL    HW217835   3.783   3.608   4.735  0.3036 -0.4607 -0.0385
 4459SOL     MW17836   3.823   3.647   4.667  0.1547 -0.4120 -0.0982
 4460SOL     OW17837   5.002   4.111   0.156  0.3409  0.2337  0.1950
 4460SOL    HW117838   5.091   4.134   0.131 -0.4076  1.5261 -1.4901
 4460SOL    HW217839   4.948   4.139   0.082 -1.5197 -0.1452  1.3357
 4460SOL     MW17840   5.007   4.117   0.143  0.0069  0.3506  0.1253
 4461SOL     OW17841   1.362   2.625   3.272  0.0198  0.3010  0.0010
 4461SOL    HW117842   1.442   2.589   3.235 -0.2291  0.4377 -0.6700
 4461SOL    HW217843   1.344   2.569   3.348  1.3972  0.9886  0.8908
 4461SOL     MW17844   1.370   2.613   3.277  0.1643  0.4065  0.0290
 4462SOL     OW17845   1.185   1.418   2.688 -0.0491 -0.1430  0.0770
 4462SOL    HW117846   1.130   1.403   2.765 -2.2367  1.4704 -1.0481
 4462SOL    HW217847   1.131   1.391   2.614  1.7465 -1.0308 -0.9887
 4462SOL     MW17848   1.171   1.412   2.689 -0.0993 -0.0501 -0.2034
 4463SOL     OW17849   4.940   2.769   1.185  0.2088 -0.8493 -0.5158
 4463SOL    HW117850   4.975   2.745   1.271  0.2537 -0.3594 -0.3906
 4463SOL    HW217851   5.010   2.818   1.143 -1.0548  2.3448  0.7117
 4463SOL     MW17852   4.953   2.772   1.191  0.0528 -0.3777 -0.3427
 4464SOL     OW17853   0.294   2.439   4.686 -0.4733 -0.5356  0.0288
 4464SOL    HW117854   0.354   2.426   4.759 -0.5652 -0.8664  0.0462
 4464SOL    HW217855   0.278   2.533   4.685 -0.0341 -0.4547  0.0887
 4464SOL     MW17856   0.300   2.450   4.695 -0.4288 -0.5676  0.0387
 4465SOL     OW17857   1.531   0.064   1.544  0.1919 -0.3251  0.2833
 4465SOL    HW117858   1.509   0.147   1.587  2.3168  1.4737 -1.7989
 4465SOL    HW217859   1.450   0.037   1.501 -0.3593  1.1829  0.2927
 4465SOL     MW17860   1.518   0.071   1.544  0.3933  0.0982  0.0180
 4466SOL     OW17861   4.785   3.836   3.653 -0.2212 -0.4284  0.2284
 4466SOL    HW117862   4.818   3.756   3.613 -0.7522 -1.4133  1.6834
 4466SOL    HW217863   4.855   3.900   3.640  0.6149 -1.3884 -0.1023
 4466SOL     MW17864   4.798   3.834   3.646 -0.1822 -0.6774  0.3723
 4467SOL     OW17865   2.907   4.717   3.435  0.1391  0.2877 -0.1676
 4467SOL    HW117866   2.932   4.730   3.343 -3.4594 -1.2236 -1.5401
 4467SOL    HW217867   2.954   4.637   3.461 -1.2834 -1.2208 -1.9186
 4467SOL     MW17868   2.916   4.708   3.427 -0.5037 -0.0988 -0.5674
 4468SOL     OW17869   3.320   1.948   1.141  0.7048 -0.0637  0.5050
 4468SOL    HW117870   3.349   1.944   1.232  1.5107  1.5500  0.3663
 4468SOL    HW217871   3.257   2.020   1.139 -0.6769 -1.2247  0.0888
 4468SOL     MW17872   3.316   1.957   1.153  0.6311 -0.0057  0.4340
 4469SOL     OW17873   3.963   3.840   3.888  0.2637 -0.1787 -0.1481
 4469SOL    HW117874   3.964   3.862   3.795  0.5117  1.1016  0.1422
 4469SOL    HW217875   3.996   3.919   3.932  3.2703 -1.8070  0.8302
 4469SOL     MW17876   3.967   3.853   3.882  0.6803 -0.2233  0.0143
 4470SOL     OW17877   2.889   1.642   4.020  0.1685 -0.4928 -0.2959
 4470SOL    HW117878   2.795   1.642   4.036  0.3624 -1.5926  0.9290
 4470SOL    HW217879   2.927   1.675   4.101  0.8710 -0.3997 -0.6586
 4470SOL     MW17880   2.882   1.646   4.032  0.2833 -0.6217 -0.1855
 4471SOL     OW17881   4.109   3.498   3.996 -1.0219 -0.6359 -0.5077
 4471SOL    HW117882   4.184   3.493   3.937 -1.0173  0.2264 -0.5969
 4471SOL    HW217883   4.038   3.530   3.940 -1.0788 -0.0509 -0.1105
 4471SOL     MW17884   4.109   3.502   3.981 -1.0286 -0.4507 -0.4683
 4472SOL     OW17885   3.832   3.946   1.301  0.3561 -0.0940 -0.1162
 4472SOL    HW117886   3.749   3.932   1.347  0.7471  1.4539  1.1271
 4472SOL    HW217887   3.895   3.892   1.348  0.6629  1.1406  0.9398
 4472SOL     MW17888   3.829   3.937   1.313  0.4454  0.2622  0.1781
 4473SOL     OW17889   4.742   1.474   0.384  0.3782  0.1083 -1.1992
 4473SOL    HW117890   4.682   1.447   0.314  1.7405 -2.2172 -1.5520
 4473SOL    HW217891   4.686   1.524   0.445 -2.3862 -3.1561 -0.7201
 4473SOL     MW17892   4.727   1.477   0.383  0.1987 -0.6073 -1.1830
 4474SOL     OW17893   2.648   4.407   4.114 -0.7118 -0.3579  0.1362
 4474SOL    HW117894   2.643   4.330   4.171 -0.3780  0.3738  1.1974
 4474SOL    HW217895   2.611   4.478   4.167  1.2964  0.7256  0.1846
 4474SOL     MW17896   2.643   4.406   4.128 -0.4120 -0.1256  0.2782
 4475SOL     OW17897   2.559   0.277   2.051 -0.0414 -0.2782  0.0495
 4475SOL    HW117898   2.597   0.238   1.973 -0.0920 -0.0657 -0.0824
 4475SOL    HW217899   2.492   0.336   2.018 -1.1941 -1.3936  0.3041
 4475SOL     MW17900   2.555   0.279   2.037 -0.1954 -0.3938  0.0652
 4476SOL     OW17901   3.515   5.292   1.310  0.1579  0.3349 -0.2434
 4476SOL    HW117902   3.567   5.366   1.342 -1.5314  2.0236 -1.1841
 4476SOL    HW217903   3.477   5.254   1.389  0.9774  0.5209  0.2525
 4476SOL     MW17904   3.517   5.297   1.324  0.0466  0.5749 -0.3003
 4477SOL     OW17905   2.405   3.720   2.199  0.1767 -0.2548 -0.4298
 4477SOL    HW117906   2.333   3.783   2.201  1.1344  0.9284 -1.3426
 4477SOL    HW217907   2.414   3.691   2.289 -1.5085 -0.5232 -0.3179
 4477SOL     MW17908   2.397   3.725   2.211  0.0836 -0.1377 -0.5324
 4478SOL     OW17909   3.815   5.069   0.049 -0.9147  0.0974  0.3290
 4478SOL    HW117910   3.828   4.977   0.026 -0.2774  0.3489 -0.3183
 4478SOL    HW217911   3.875   5.118  -0.007 -2.2487  1.0234 -0.3555
 4478SOL     MW17912   3.824   5.064   0.039 -1.0039  0.2482  0.1585
 4479SOL     OW17913   3.127   5.376   4.414 -0.6522 -0.5926 -0.2351
 4479SOL    HW117914   3.205   5.378   4.360 -0.2213 -1.6783  0.3244
 4479SOL    HW217915   3.071   5.310   4.374 -1.2491  0.1136 -0.5791
 4479SOL     MW17916   3.130   5.368   4.402 -0.6734 -0.6412 -0.2075
 4480SOL     OW17917   0.170   4.701   0.127 -0.1303  0.3106  0.4518
 4480SOL    HW117918   0.229   4.685   0.200 -0.6372  1.4800  1.1366
 4480SOL    HW217919   0.096   4.748   0.165 -1.1919 -0.5179 -0.5168
 4480SOL     MW17920   0.168   4.705   0.141 -0.3311  0.3543  0.4155
 4481SOL     OW17921   5.343   5.228   0.774  0.5257 -0.2045  0.2995
 4481SOL    HW117922   5.295   5.289   0.830  0.5200 -0.3045  0.4055
 4481SOL    HW217923   5.435   5.239   0.799  0.3433 -1.7383  1.8304
 4481SOL     MW17924   5.348   5.237   0.785  0.5016 -0.4137  0.5090
 4482SOL     OW17925   0.582   3.511   4.216 -0.3349  0.8248 -0.2352
 4482SOL    HW117926   0.621   3.448   4.277 -2.8996  1.0004  1.7762
 4482SOL    HW217927   0.583   3.594   4.263 -1.1209  1.2766 -0.9770
 4482SOL     MW17928   0.587   3.513   4.230 -0.7638  0.9051 -0.0727
 4483SOL     OW17929   1.701   1.399   4.826  0.2318 -0.2480  0.2856
 4483SOL    HW117930   1.702   1.411   4.921  0.6777  0.0337  0.2458
 4483SOL    HW217931   1.655   1.316   4.814 -1.3955  0.5649  0.6426
 4483SOL     MW17932   1.696   1.390   4.837  0.0806 -0.1079  0.3262
 4484SOL     OW17933   4.506   0.674   3.004 -0.1361  0.0061  0.1164
 4484SOL    HW117934   4.580   0.694   2.947 -0.7942  0.8627 -0.4580
 4484SOL    HW217935   4.475   0.760   3.033  0.8530 -0.3990  2.6852
 4484SOL     MW17936   4.512   0.688   3.001 -0.0938  0.0639  0.3717
 4485SOL     OW17937   5.246   1.959   3.175  0.1294  0.0176  0.2026
 4485SOL    HW117938   5.256   1.919   3.089 -2.3722 -0.7869  0.2006
 4485SOL    HW217939   5.179   1.906   3.219 -0.5318  1.9156  1.6755
 4485SOL     MW17940   5.238   1.947   3.170 -0.2755  0.1576  0.3909
 4486SOL     OW17941   2.467   0.326   2.499  0.2230  0.1337 -0.0028
 4486SOL    HW117942   2.426   0.391   2.443 -0.4424  0.6910  1.0912
 4486SOL    HW217943   2.558   0.354   2.507  0.0834  0.5922 -0.0174
 4486SOL     MW17944   2.473   0.338   2.493  0.1199  0.2637  0.1353
 4487SOL     OW17945   1.512  -0.013  -0.007  0.0593 -0.0126 -0.1247
 4487SOL    HW117946   1.553   0.042   0.059 -0.6293  0.3768 -0.0112
 4487SOL    HW217947   1.420   0.015  -0.008  0.1188  0.2145 -1.4643
 4487SOL     MW17948   1.505  -0.003   0.001 -0.0212  0.0663 -0.2817
 4488SOL     OW17949   0.947   0.231   5.122 -0.4213 -0.0042  0.5500
 4488SOL    HW117950   0.895   0.155   5.150  1.0801 -0.9216  1.0053
 4488SOL    HW217951   1.026   0.192   5.083  0.3365  1.3220  0.7153
 4488SOL     MW17952   0.951   0.216   5.121 -0.1321  0.0482  0.6294
 4489SOL     OW17953   5.391   4.924   4.055 -0.1870 -0.2422 -0.1644
 4489SOL    HW117954   5.317   4.942   4.113 -0.0827  1.6098 -0.5369
 4489SOL    HW217955   5.465   4.908   4.114 -0.7685 -1.7923  0.2050
 4489SOL     MW17956   5.391   4.924   4.070 -0.2481 -0.2035 -0.1648
 4490SOL     OW17957   2.197   5.322   5.116 -0.0835 -0.1064 -0.5960
 4490SOL    HW117958   2.144   5.360   5.046  1.1568  0.3596 -1.3139
 4490SOL    HW217959   2.240   5.396   5.158 -1.7359 -0.2379  1.5276
 4490SOL     MW17960   2.196   5.336   5.112 -0.1362 -0.0636 -0.4161
 4491SOL     OW17961   2.707   0.967   4.083 -0.2869 -0.6115  0.1532
 4491SOL    HW117962   2.788   0.940   4.040  1.8126  1.1124  2.7214
 4491SOL    HW217963   2.725   1.055   4.116 -2.8395 -0.5723  1.7833
 4491SOL     MW17964   2.719   0.975   4.082 -0.3449 -0.3858  0.6906
 4492SOL     OW17965   2.659   3.354   5.477  0.0376  0.4717 -0.2075
 4492SOL    HW117966   2.683   3.273   5.523 -0.2588  0.5398  0.0661
 4492SOL    HW217967   2.684   3.338   5.386  0.2596  0.1864 -0.0976
 4492SOL     MW17968   2.666   3.342   5.471  0.0280  0.4439 -0.1584
 4493SOL     OW17969   0.520   4.559   0.447 -0.1474 -0.0318 -0.6395
 4493SOL    HW117970   0.576   4.564   0.370  0.2226 -1.2618 -0.4737
 4493SOL    HW217971   0.436   4.526   0.414 -1.1654  2.7499 -1.0525
 4493SOL     MW17972   0.516   4.555   0.433 -0.2303  0.1668 -0.6711
 4494SOL     OW17973   0.743   2.476   4.771  0.7036 -0.0412  0.6192
 4494SOL    HW117974   0.749   2.446   4.681 -0.4994 -0.7529  0.7560
 4494SOL    HW217975   0.818   2.437   4.815  1.1701  0.1294 -0.0116
 4494SOL     MW17976   0.754   2.467   4.765  0.6093 -0.1105  0.5560
 4495SOL     OW17977   2.326   4.457   4.698  0.0970  0.0643  0.2614
 4495SOL    HW117978   2.403   4.438   4.753  1.1960  0.5608 -1.0576
 4495SOL    HW217979   2.321   4.553   4.697 -0.4313  0.0365  0.1707
 4495SOL     MW17980   2.335   4.467   4.705  0.1700  0.1243  0.0810
 4496SOL     OW17981   3.166   0.953   5.152  0.2972 -0.0155  0.1563
 4496SOL    HW117982   3.215   0.885   5.199 -0.1583 -0.1697  0.4110
 4496SOL    HW217983   3.169   1.029   5.210 -1.6419 -0.6759  1.2303
 4496SOL     MW17984   3.173   0.954   5.166 -0.0093 -0.1198  0.3264
 4497SOL     OW17985   3.870   4.731   4.695 -0.1932  0.7644  0.2746
 4497SOL    HW117986   3.848   4.712   4.786 -0.4223 -2.9079 -0.3715
 4497SOL    HW217987   3.960   4.764   4.697 -0.0060  0.2045  1.8049
 4497SOL     MW17988   3.879   4.733   4.707 -0.1986  0.2226  0.3878
 4498SOL     OW17989   0.983   1.155   0.392 -0.0379 -0.0604  0.4140
 4498SOL    HW117990   0.975   1.068   0.432 -0.2044 -0.7780 -1.0891
 4498SOL    HW217991   0.893   1.180   0.373 -0.0004  0.5251  0.9751
 4498SOL     MW17992   0.970   1.147   0.394 -0.0544 -0.0773  0.2934
 4499SOL     OW17993   1.594   4.466   4.977 -0.4297  0.5119  0.5362
 4499SOL    HW117994   1.594   4.434   4.887  0.5251 -1.5144  1.2056
 4499SOL    HW217995   1.654   4.541   4.976 -0.2430  0.3598 -0.4593
 4499SOL     MW17996   1.602   4.472   4.966 -0.2836  0.2330  0.4945
 4500SOL     OW17997   2.438   3.669   1.945 -0.0692 -0.1023 -0.6805
 4500SOL    HW117998   2.431   3.691   2.038 -0.8479 -0.0725 -0.7358
 4500SOL    HW217999   2.510   3.607   1.940 -0.0157 -0.0978 -0.0574
 4500SOL     MW18000   2.446   3.664   1.956 -0.1620 -0.0979 -0.6078
 4501SOL     OW18001   5.183   0.448   3.242  0.4329 -0.7678 -0.2530
 4501SOL    HW118002   5.165   0.529   3.291  1.3676  0.6630 -2.1309
 4501SOL    HW218003   5.261   0.468   3.191 -0.1841 -2.3393 -1.9348
 4501SOL     MW18004   5.191   0.461   3.242  0.4736 -0.7858 -0.7087
 4502SOL     OW18005   5.021   3.891   1.577  0.1992  0.0542  1.1196
 4502SOL    HW118006   5.027   3.814   1.522 -1.0996  1.2841 -0.8593
 4502SOL    HW218007   5.050   3.861   1.663  0.0373 -2.5289  0.3601
 4502SOL     MW18008   5.026   3.878   1.581  0.0122 -0.1190  0.7690
 4503SOL     OW18009   0.558   4.945   2.942 -0.5740 -0.2040 -0.4596
 4503SOL    HW118010   0.652   4.958   2.955 -0.2786 -0.9136 -1.6816
 4503SOL    HW218011   0.526   5.029   2.910 -0.1006 -0.2897 -1.1984
 4503SOL     MW18012   0.566   4.957   2.939 -0.4756 -0.3058 -0.7106
 4504SOL     OW18013   1.881   5.427   3.197 -0.2624 -0.2990 -0.2562
 4504SOL    HW118014   1.800   5.390   3.233 -0.1213 -0.1092  0.2620
 4504SOL    HW218015   1.949   5.405   3.261 -0.4017  2.0342  0.7981
 4504SOL     MW18016   1.879   5.419   3.210 -0.2622  0.0240 -0.0549
 4505SOL     OW18017   0.204   1.718   1.655  0.3960 -0.0484  0.4131
 4505SOL    HW118018   0.177   1.753   1.570  2.9711  0.4002 -0.3336
 4505SOL    HW218019   0.227   1.796   1.705  1.1584 -0.4168  0.6439
 4505SOL     MW18020   0.204   1.733   1.650  0.8232 -0.0381  0.3470
 4506SOL     OW18021   2.507   0.547   0.178 -0.2266 -0.3173  0.1288
 4506SOL    HW118022   2.546   0.604   0.112  1.0600 -1.4244 -0.0949
 4506SOL    HW218023   2.450   0.489   0.129 -0.3398 -0.2421  0.1704
 4506SOL     MW18024   2.505   0.547   0.163 -0.0764 -0.4494  0.1055
 4507SOL     OW18025   4.723   4.378   3.890  0.1496  0.3347 -0.5402
 4507SOL    HW118026   4.809   4.365   3.929  0.5061 -0.7800 -1.6282
 4507SOL    HW218027   4.661   4.350   3.957  0.6502  0.5732  0.0291
 4507SOL     MW18028   4.726   4.373   3.903  0.2594  0.2225 -0.6066
 4508SOL     OW18029   1.031   1.424   2.189 -0.2684 -0.6549 -0.2665
 4508SOL    HW118030   1.012   1.334   2.162  0.9246 -0.9899 -0.0572
 4508SOL    HW218031   1.125   1.434   2.173 -0.5455  0.8453 -1.0884
 4508SOL     MW18032   1.040   1.414   2.183 -0.1511 -0.5058 -0.3449
 4509SOL     OW18033   4.493   2.102   4.357 -0.0782 -0.0393 -0.2158
 4509SOL    HW118034   4.480   2.091   4.451 -1.7305 -2.0841 -0.6044
 4509SOL    HW218035   4.515   2.014   4.326 -0.3262  0.4528 -1.8487
 4509SOL     MW18036   4.495   2.089   4.365 -0.3215 -0.2381 -0.4746
 4510SOL     OW18037   4.923   4.269   3.238  0.1219 -0.0122  0.0686
 4510SOL    HW118038   4.848   4.215   3.261 -0.4212 -0.1663 -1.8707
 4510SOL    HW218039   4.937   4.325   3.315 -1.8553 -0.1069  0.5415
 4510SOL     MW18040   4.915   4.269   3.251 -0.2007 -0.0441 -0.1191
 4511SOL     OW18041   2.886   2.416   2.392  0.3769 -0.1276  0.6578
 4511SOL    HW118042   2.854   2.327   2.374 -0.4731  0.6423 -2.1760
 4511SOL    HW218043   2.979   2.413   2.370  0.4196 -0.3584  0.8577
 4511SOL     MW18044   2.893   2.404   2.387  0.2736 -0.0586  0.3207
 4512SOL     OW18045   0.688   3.215   1.654  0.0394 -0.0331  0.1489
 4512SOL    HW118046   0.735   3.145   1.608  0.9654  1.0381 -0.5729
 4512SOL    HW218047   0.692   3.290   1.594 -1.4311  0.4912  0.6555
 4512SOL     MW18048   0.694   3.215   1.640 -0.0303  0.1711  0.1213
 4513SOL     OW18049   3.081   4.403   0.380 -0.1622  0.2627  0.7219
 4513SOL    HW118050   2.994   4.366   0.398 -0.7867  1.5356  0.4556
 4513SOL    HW218051   3.066   4.464   0.308  0.7280  1.3340  1.4266
 4513SOL     MW18052   3.068   4.406   0.373 -0.1282  0.5628  0.7780
 4514SOL     OW18053   0.597   2.374   5.409  0.4489 -0.4838 -0.3364
 4514SOL    HW118054   0.614   2.456   5.455 -1.2032  0.0842 -0.6553
 4514SOL    HW218055   0.524   2.395   5.350 -0.5953 -2.3950  0.1873
 4514SOL     MW18056   0.590   2.387   5.407  0.1037 -0.6558 -0.3102
 4515SOL     OW18057   1.093   1.625   4.010 -0.2610  0.2921 -0.1539
 4515SOL    HW118058   1.153   1.636   4.083 -1.0723 -0.4908  0.6640
 4515SOL    HW218059   1.037   1.551   4.036 -1.6471  1.0627 -0.8104
 4515SOL     MW18060   1.093   1.617   4.023 -0.5423  0.2905 -0.1332
 4516SOL     OW18061   0.300   3.728   2.061 -0.8305 -0.0671 -0.1840
 4516SOL    HW118062   0.280   3.644   2.021  0.2097 -0.1710 -0.5100
 4516SOL    HW218063   0.314   3.787   1.987  0.4307 -0.0962  0.0155
 4516SOL     MW18064   0.299   3.725   2.047 -0.5359 -0.0841 -0.2002
 4517SOL     OW18065   0.661   0.716   3.558 -0.0199 -0.3384  0.0797
 4517SOL    HW118066   0.699   0.692   3.474 -0.5611 -1.0251  0.0262
 4517SOL    HW218067   0.696   0.804   3.576  0.1411 -0.2080 -0.8280
 4517SOL     MW18068   0.670   0.724   3.549 -0.0686 -0.4096 -0.0434
 4518SOL     OW18069   4.870   3.922   0.474  0.0543 -0.0335 -0.0818
 4518SOL    HW118070   4.820   3.984   0.526  0.3513 -0.1725  0.3723
 4518SOL    HW218071   4.956   3.963   0.464  0.1663 -0.2511 -0.0102
 4518SOL     MW18072   4.875   3.935   0.479  0.1067 -0.0791 -0.0145
 4519SOL     OW18073   4.439   1.495   0.977 -0.0152  0.1976  0.0757
 4519SOL    HW118074   4.405   1.581   1.000 -1.3288 -0.5904  1.2636
 4519SOL    HW218075   4.365   1.450   0.935  0.2044 -0.8213  0.7373
 4519SOL     MW18076   4.425   1.500   0.974 -0.1552 -0.0337  0.3124
 4520SOL     OW18077   4.004   4.218   2.824 -0.0974 -0.4543  0.0499
 4520SOL    HW118078   3.944   4.292   2.830  0.3273 -0.1660  0.8961
 4520SOL    HW218079   4.063   4.240   2.752 -0.7347 -0.5468 -0.5099
 4520SOL     MW18080   4.004   4.230   2.815 -0.1246 -0.4292  0.0865
 4521SOL     OW18081   4.931   4.430   4.432  0.1593 -0.2390 -0.3630
 4521SOL    HW118082   4.990   4.474   4.371  0.0391  0.7440  0.1999
 4521SOL    HW218083   4.874   4.377   4.377  0.2113  0.4386 -1.0832
 4521SOL     MW18084   4.932   4.429   4.417  0.1506 -0.0264 -0.3831
 4522SOL     OW18085   2.783   0.446   4.984 -0.2629 -0.1340 -0.0454
 4522SOL    HW118086   2.822   0.426   4.900  1.5370 -2.1421  1.1751
 4522SOL    HW218087   2.853   0.489   5.033 -1.1059  0.5044  0.6418
 4522SOL     MW18088   2.797   0.449   4.980 -0.1404 -0.3093  0.1988
 4523SOL     OW18089   1.129   4.880   2.651  0.1229 -0.3389  0.4088
 4523SOL    HW118090   1.177   4.940   2.596 -0.1721 -0.3330  0.1533
 4523SOL    HW218091   1.114   4.803   2.596 -1.6204  0.3110 -0.1145
 4523SOL     MW18092   1.133   4.878   2.637 -0.1380 -0.2549  0.3091
 4524SOL     OW18093   4.854   4.624   3.644 -0.2726  0.0109 -0.2513
 4524SOL    HW118094   4.869   4.623   3.738 -0.1822  0.0048 -0.2665
 4524SOL    HW218095   4.791   4.696   3.631 -1.6199 -1.0813  0.0134
 4524SOL     MW18096   4.848   4.633   3.654 -0.4335 -0.1297 -0.2193
 4525SOL     OW18097   3.277   1.289   1.179  0.1571 -0.2232 -0.5672
 4525SOL    HW118098   3.322   1.209   1.207  0.0894 -0.3905 -0.9242
 4525SOL    HW218099   3.329   1.360   1.216  0.9774 -0.3986 -1.3367
 4525SOL     MW18100   3.289   1.288   1.187  0.2534 -0.2671 -0.7114
 4526SOL     OW18101   2.162   0.566   2.432  0.2394  0.0380 -0.4704
 4526SOL    HW118102   2.133   0.479   2.460 -0.9202  0.3956 -0.5243
 4526SOL    HW218103   2.238   0.550   2.375  1.1969 -0.8299  0.9869
 4526SOL     MW18104   2.168   0.553   2.429  0.2135 -0.0273 -0.2908
 4527SOL     OW18105   3.953   0.766   4.677 -0.3274  0.1210  0.4246
 4527SOL    HW118106   4.021   0.731   4.620 -0.9583  0.9374 -0.8857
 4527SOL    HW218107   3.885   0.698   4.677  0.0590 -0.2696  0.9413
 4527SOL     MW18108   3.953   0.753   4.670 -0.3587  0.1755  0.3230
 4528SOL     OW18109   0.816   3.768   0.231 -0.2593 -0.1315 -0.5264
 4528SOL    HW118110   0.870   3.836   0.189 -0.6654 -0.5303 -1.7301
 4528SOL    HW218111   0.803   3.703   0.163  0.0043 -1.3730  0.5838
 4528SOL     MW18112   0.821   3.769   0.217 -0.2776 -0.3415 -0.5384
 4529SOL     OW18113   3.264   3.169   3.295 -0.0154 -0.2990  0.6092
 4529SOL    HW118114   3.235   3.201   3.209  1.0289 -1.4341 -0.1961
 4529SOL    HW218115   3.197   3.201   3.356 -0.7044  0.6532 -0.5946
 4529SOL     MW18116   3.252   3.177   3.292  0.0301 -0.3224  0.3520
 4530SOL     OW18117   1.386   2.398   3.977 -0.7106 -0.3735 -0.3867
 4530SOL    HW118118   1.426   2.319   4.012 -1.7913 -0.1307  1.4819
 4530SOL    HW218119   1.340   2.369   3.898  0.5525 -1.2039 -0.8393
 4530SOL     MW18120   1.385   2.384   3.971 -0.6873 -0.4487 -0.2054
 4531SOL     OW18121   1.487   2.113   3.868 -0.1625  0.0975  0.8734
 4531SOL    HW118122   1.435   2.156   3.800 -1.2095  0.1295  1.6790
 4531SOL    HW218123   1.423   2.068   3.923  0.6780 -0.0515  1.7662
 4531SOL     MW18124   1.472   2.112   3.866 -0.1889  0.0825  1.0908
 4532SOL     OW18125   0.251   2.819   2.752 -0.1917 -0.5272  0.4273
 4532SOL    HW118126   0.296   2.806   2.669  2.0978 -1.5023  1.7447
 4532SOL    HW218127   0.271   2.741   2.803 -2.5245 -0.4892  1.5150
 4532SOL     MW18128   0.259   2.808   2.748 -0.1972 -0.6472  0.7352
 4533SOL     OW18129   3.834   3.211   3.558 -0.1335 -0.5984 -0.1889
 4533SOL    HW118130   3.799   3.195   3.645 -1.3568 -1.6535 -0.8428
 4533SOL    HW218131   3.888   3.134   3.539 -0.9229 -1.0109 -0.8497
 4533SOL     MW18132   3.836   3.199   3.567 -0.3912 -0.7863 -0.3572
 4534SOL     OW18133   2.897   4.716   4.748 -0.0536  0.2235  0.1182
 4534SOL    HW118134   2.926   4.661   4.674 -1.0083 -0.9792  0.6032
 4534SOL    HW218135   2.874   4.800   4.708  0.2790 -0.1256 -0.8298
 4534SOL     MW18136   2.898   4.719   4.733 -0.1333  0.0248  0.0589
 4535SOL     OW18137   2.961   4.681   5.189 -0.0755  0.1211 -0.1587
 4535SOL    HW118138   2.964   4.692   5.284  1.0248  0.6884 -0.2467
 4535SOL    HW218139   3.028   4.740   5.156  0.4000 -0.9784 -1.2159
 4535SOL     MW18140   2.970   4.690   5.197  0.1262  0.0530 -0.3053
 4536SOL     OW18141   1.560   4.705   5.387  0.0146  0.0327 -0.0650
 4536SOL    HW118142   1.540   4.720   5.480  1.9194 -0.4801  0.4732
 4536SOL    HW218143   1.603   4.786   5.358  1.6310 -0.6771  0.2167
 4536SOL     MW18144   1.563   4.717   5.396  0.4654 -0.1238  0.0400
 4537SOL     OW18145   2.712   0.789   2.752 -0.0070  0.3140 -0.0093
 4537SOL    HW118146   2.676   0.719   2.806  0.0563  0.8760  0.7749
 4537SOL    HW218147   2.636   0.842   2.728 -0.0479  0.0119 -0.5598
 4537SOL     MW18148   2.697   0.787   2.756 -0.0041  0.3473  0.0206
 4538SOL     OW18149   4.543   2.026   0.320  0.4119  0.3891  0.0320
 4538SOL    HW118150   4.494   1.951   0.354 -0.0486  1.2450  1.3455
 4538SOL    HW218151   4.484   2.100   0.332  1.2127  1.1092 -0.3939
 4538SOL     MW18152   4.529   2.026   0.326  0.4555  0.5908  0.1456
 4539SOL     OW18153   3.416   2.727   0.099 -0.0875 -0.4872 -0.5982
 4539SOL    HW118154   3.356   2.755   0.168  1.3828  0.4261  0.3753
 4539SOL    HW218155   3.396   2.786   0.026 -0.5733 -0.3892 -0.3934
 4539SOL     MW18156   3.406   2.738   0.099  0.0385 -0.3578 -0.4474
 4540SOL     OW18157   4.098   2.487   4.603  0.0968  0.1384 -0.0412
 4540SOL    HW118158   4.088   2.526   4.690  0.7027  0.4619 -0.1135
 4540SOL    HW218159   4.027   2.526   4.552  0.1093  0.4060  0.1432
 4540SOL     MW18160   4.087   2.497   4.608  0.1760  0.2141 -0.0268
 4541SOL     OW18161   3.919   0.493   2.871  0.6651 -0.2319  0.1001
 4541SOL    HW118162   3.983   0.502   2.801  1.1517 -1.1920  0.3943
 4541SOL    HW218163   3.970   0.462   2.946  0.2914  1.5207  1.1371
 4541SOL     MW18164   3.934   0.490   2.871  0.6795 -0.1305  0.2705
 4542SOL     OW18165   1.392   0.507   2.875 -0.6921 -0.2070 -0.0765
 4542SOL    HW118166   1.397   0.600   2.898  0.5091 -0.3785  0.4559
 4542SOL    HW218167   1.429   0.501   2.787  0.4466 -0.3331  0.3967
 4542SOL     MW18168   1.397   0.518   2.867 -0.3925 -0.2451  0.0522
 4543SOL     OW18169   4.856   3.153   0.094 -0.4009  0.7488 -0.8358
 4543SOL    HW118170   4.880   3.096   0.167  1.5514  0.4927 -1.6328
 4543SOL    HW218171   4.875   3.101   0.016 -1.2263  1.4933 -1.5521
 4543SOL     MW18172   4.861   3.139   0.093 -0.2566  0.8113 -1.0295
 4544SOL     OW18173   0.875   0.118   0.190 -0.4168  0.7440 -0.3310
 4544SOL    HW118174   0.829   0.130   0.273 -1.9916  2.7261 -1.4134
 4544SOL    HW218175   0.843   0.034   0.157 -0.6983  0.5244  0.4788
 4544SOL     MW18176   0.865   0.109   0.196 -0.6545  0.9696 -0.3659
 4545SOL     OW18177   2.833   3.331   1.273  0.5495  0.0300 -0.6859
 4545SOL    HW118178   2.870   3.265   1.215 -0.8203 -1.2024 -0.2219
 4545SOL    HW218179   2.894   3.405   1.268  2.0511 -1.2116 -1.3161
 4545SOL     MW18180   2.845   3.332   1.265  0.5664 -0.2867 -0.7072
 4546SOL     OW18181   4.272   4.807   2.765 -0.0625  0.5451  0.0729
 4546SOL    HW118182   4.248   4.883   2.712  0.8010  0.4336 -0.4794
 4546SOL    HW218183   4.259   4.732   2.707  0.6400  0.4031  0.0947
 4546SOL     MW18184   4.267   4.807   2.751  0.1379  0.5127  0.0050
 4547SOL     OW18185   4.322   0.679   1.726  0.3088 -0.1664 -0.1627
 4547SOL    HW118186   4.286   0.624   1.795  2.8375  0.1748  1.5757
 4547SOL    HW218187   4.416   0.659   1.726  1.1383  3.1003 -0.3242
 4547SOL     MW18188   4.330   0.670   1.735  0.7387  0.2954  0.0392
 4548SOL     OW18189   1.891   2.601   4.096 -0.1195  0.0423  0.5453
 4548SOL    HW118190   1.796   2.606   4.109 -0.2293 -0.7609  0.1205
 4548SOL    HW218191   1.918   2.528   4.150 -0.0311 -0.9265 -0.7602
 4548SOL     MW18192   1.882   2.592   4.104 -0.1222 -0.1846  0.3238
 4549SOL     OW18193   1.054   1.995   1.755  0.6244  0.1601 -0.0510
 4549SOL    HW118194   0.972   2.040   1.774 -0.3260 -0.7846 -1.6863
 4549SOL    HW218195   1.122   2.061   1.770 -0.2737  0.5699  2.6253
 4549SOL     MW18196   1.052   2.009   1.759  0.3878  0.0916  0.0823
 4550SOL     OW18197   1.444   3.790   2.717  0.7556  0.0664  0.1765
 4550SOL    HW118198   1.496   3.823   2.790  1.5502 -1.6479  0.4336
 4550SOL    HW218199   1.360   3.764   2.756  0.4169  1.0008  0.1022
 4550SOL     MW18200   1.440   3.791   2.731  0.8140 -0.0335  0.1999
 4551SOL     OW18201   0.487   4.734   5.245  0.7260 -0.1369  0.4979
 4551SOL    HW118202   0.494   4.825   5.274  1.2587  0.0957 -0.3141
 4551SOL    HW218203   0.395   4.711   5.257  0.7182  0.3000  1.3112
 4551SOL     MW18204   0.476   4.742   5.250  0.7932 -0.0512  0.4981
 4552SOL     OW18205   0.740   2.882   4.545  0.6725 -0.0710 -0.0353
 4552SOL    HW118206   0.659   2.838   4.521  0.4158  0.7374 -0.7289
 4552SOL    HW218207   0.712   2.964   4.586  1.1303 -0.2033  0.5456
 4552SOL     MW18208   0.726   2.887   4.547  0.6982  0.0156 -0.0497
 4553SOL     OW18209   4.559   4.306   4.105  0.0048  0.1745  0.2729
 4553SOL    HW118210   4.487   4.316   4.167  1.7843 -1.1613  2.7237
 4553SOL    HW218211   4.553   4.215   4.075 -0.0404  0.4194 -0.4811
 4553SOL     MW18212   4.549   4.296   4.109  0.2268  0.0348  0.4901
 4554SOL     OW18213   2.098   4.305   4.739 -0.1282 -0.1031 -0.0807
 4554SOL    HW118214   2.177   4.358   4.726  1.8973 -2.3928  1.7972
 4554SOL    HW218215   2.107   4.233   4.676 -0.8765 -0.2420 -0.0374
 4554SOL     MW18216   2.109   4.302   4.729  0.0353 -0.4140  0.1652
 4555SOL     OW18217   5.204   1.463   1.851  0.0972  0.4518  0.3690
 4555SOL    HW118218   5.140   1.392   1.850 -0.1270  0.6151  1.3513
 4555SOL    HW218219   5.213   1.489   1.760  0.2278 -0.8721 -0.0226
 4555SOL     MW18220   5.197   1.457   1.839  0.0852  0.3032  0.4446
 4556SOL     OW18221   3.294   4.863   2.562  0.3760  0.2236 -0.2911
 4556SOL    HW118222   3.352   4.787   2.560  0.7430  0.4975 -0.1347
 4556SOL    HW218223   3.236   4.851   2.486 -0.0964 -0.6166  0.1859
 4556SOL     MW18224   3.294   4.852   2.552  0.3625  0.1511 -0.2100
 4557SOL     OW18225   3.369   0.582   3.099 -0.7128 -0.2641  0.1833
 4557SOL    HW118226   3.419   0.511   3.059 -1.1533 -0.2065 -0.4803
 4557SOL    HW218227   3.278   0.561   3.081 -0.8157  0.9480 -0.8664
 4557SOL     MW18228   3.364   0.570   3.092 -0.7823 -0.1016 -0.0360
 4558SOL     OW18229   1.644   5.039   1.241  0.2974 -0.3353  0.4148
 4558SOL    HW118230   1.679   4.952   1.264  0.5568 -0.6227 -1.0030
 4558SOL    HW218231   1.685   5.060   1.158  0.7636  1.4748  1.0648
 4558SOL     MW18232   1.654   5.030   1.233  0.3903 -0.1404  0.3165
 4559SOL     OW18233   1.367   4.396   2.012  0.1767 -0.3707  0.1557
 4559SOL    HW118234   1.436   4.457   1.984 -0.6422  0.0378 -1.0504
 4559SOL    HW218235   1.414   4.315   2.033  0.8998 -0.9137 -2.9779
 4559SOL     MW18236   1.382   4.394   2.011  0.1644 -0.3879 -0.3998
 4560SOL     OW18237   0.197   0.296   0.571 -0.0914  0.1370 -0.4862
 4560SOL    HW118238   0.268   0.238   0.544  1.7207  0.9112  2.2801
 4560SOL    HW218239   0.147   0.245   0.635 -1.7139 -0.1455 -1.8851
 4560SOL     MW18240   0.199   0.282   0.575 -0.0672  0.1999 -0.3111
 4561SOL     OW18241   3.238   2.513   5.427 -0.3392 -0.5016 -0.0335
 4561SOL    HW118242   3.274   2.564   5.499 -0.9467  1.0758 -0.8031
 4561SOL    HW218243   3.210   2.430   5.467 -0.7337  0.3631  1.5368
 4561SOL     MW18244   3.239   2.509   5.441 -0.4675 -0.1890  0.0690
 4562SOL     OW18245   1.759   3.558   4.540 -0.6215 -0.4449  0.1968
 4562SOL    HW118246   1.765   3.603   4.456  0.6714 -0.6835  0.1369
 4562SOL    HW218247   1.722   3.623   4.600  2.9836  1.5149  0.6005
 4562SOL     MW18248   1.755   3.572   4.537  0.0055 -0.2246  0.2408
 4563SOL     OW18249   1.750   3.717   3.998 -0.3128 -0.0860  0.1213
 4563SOL    HW118250   1.735   3.622   3.992 -0.7163 -0.0319  0.2879
 4563SOL    HW218251   1.695   3.754   3.929 -0.4708  0.0599  0.3253
 4563SOL     MW18252   1.741   3.709   3.989 -0.3847 -0.0604  0.1687
 4564SOL     OW18253   4.225   3.388   2.368  0.2076 -0.3807 -0.3131
 4564SOL    HW118254   4.286   3.329   2.413  0.7017 -0.3250 -0.8915
 4564SOL    HW218255   4.261   3.475   2.384 -1.2510 -0.0880  1.6632
 4564SOL     MW18256   4.238   3.392   2.376  0.0841 -0.3361 -0.1341
 4565SOL     OW18257   5.019   2.486   4.958 -0.1983  0.0010 -0.4351
 4565SOL    HW118258   5.031   2.417   5.024  0.3762  0.4901 -0.0243
 4565SOL    HW218259   5.017   2.439   4.875  1.0108 -0.4413 -0.2235
 4565SOL     MW18260   5.020   2.471   4.956  0.0300  0.0070 -0.3554
 4566SOL     OW18261   5.409   1.017   3.026  0.2244 -0.1529  0.1096
 4566SOL    HW118262   5.331   0.962   3.019  0.0721  0.0610  0.1144
 4566SOL    HW218263   5.431   1.014   3.119  0.7565 -0.9427 -0.0272
 4566SOL     MW18264   5.402   1.009   3.037  0.2730 -0.2266  0.0927
 4567SOL     OW18265   0.596   0.515   1.185  0.2219 -0.9669  0.3559
 4567SOL    HW118266   0.640   0.431   1.178 -3.4655 -2.9871 -1.5642
 4567SOL    HW218267   0.517   0.497   1.235 -1.0938  1.1358 -0.7924
 4567SOL     MW18268   0.591   0.502   1.190 -0.4185 -0.9563 -0.0369
 4568SOL     OW18269   4.065   4.298   1.946  0.1329  0.1507 -0.2126
 4568SOL    HW118270   4.014   4.257   2.016 -0.3730  0.2345 -0.5264
 4568SOL    HW218271   4.004   4.359   1.904  0.1345 -0.5801 -1.3219
 4568SOL     MW18272   4.051   4.300   1.949  0.0683  0.0678 -0.3948
 4569SOL     OW18273   5.089   1.761   0.604 -0.7892  1.0763  0.1001
 4569SOL    HW118274   5.109   1.679   0.650  1.9040  1.7807  0.3795
 4569SOL    HW218275   5.022   1.738   0.540  1.0716 -1.7346 -0.9742
 4569SOL     MW18276   5.083   1.748   0.602 -0.2062  0.8066 -0.0017
 4570SOL     OW18277   2.778   0.131   4.979  0.4681  0.8612  0.2788
 4570SOL    HW118278   2.760   0.224   4.963  0.4707  0.8920  0.4550
 4570SOL    HW218279   2.778   0.092   4.891  1.2868  1.1671  0.1285
 4570SOL     MW18280   2.776   0.138   4.965  0.5732  0.9043  0.2821
 4571SOL     OW18281   4.774   4.375   4.805 -0.1605 -0.1784  0.1017
 4571SOL    HW118282   4.759   4.462   4.842 -0.3176 -0.3740  0.5100
 4571SOL    HW218283   4.859   4.381   4.762 -0.4146  0.3269 -0.3319
 4571SOL     MW18284   4.783   4.387   4.804 -0.2131 -0.1388  0.0984
 4572SOL     OW18285   0.381   2.793   3.108 -0.4561 -0.5435  0.0776
 4572SOL    HW118286   0.394   2.756   3.195  2.0119  0.3568  0.2001
 4572SOL    HW218287   0.299   2.756   3.077 -1.0318 -1.4538  2.4892
 4572SOL     MW18288   0.372   2.784   3.115 -0.2139 -0.5447  0.4020
 4573SOL     OW18289   1.617   5.078   3.063  0.1788  0.5930 -0.4681
 4573SOL    HW118290   1.528   5.044   3.065 -0.2063  1.5839 -0.6044
 4573SOL    HW218291   1.653   5.045   2.980 -0.2913  0.7821 -0.7479
 4573SOL     MW18292   1.610   5.069   3.052  0.0693  0.7441 -0.5214
 4574SOL     OW18293   3.708   2.939   1.540 -0.1358 -0.1324  0.4105
 4574SOL    HW118294   3.786   2.906   1.585  1.6208 -0.0836 -2.4236
 4574SOL    HW218295   3.719   3.034   1.539  0.0922 -0.1599 -0.4937
 4574SOL     MW18296   3.719   2.947   1.546  0.1182 -0.1297 -0.0680
 4575SOL     OW18297   3.019   3.226   0.040 -0.3275  0.0590 -0.7455
 4575SOL    HW118298   3.053   3.285   0.107  0.3177 -1.9686  0.7719
 4575SOL    HW218299   2.930   3.205   0.070 -0.9330  0.9468 -1.7996
 4575SOL     MW18300   3.012   3.231   0.052 -0.3225 -0.0869 -0.6862
 4576SOL     OW18301   1.866   3.706   3.445  0.2074  0.4547 -0.2992
 4576SOL    HW118302   1.960   3.713   3.432  0.0569  1.3907 -1.0792
 4576SOL    HW218303   1.830   3.784   3.401 -0.6643  2.0556  2.9474
 4576SOL     MW18304   1.873   3.717   3.438  0.0766  0.7795  0.0166
 4577SOL     OW18305   3.561   5.165   4.309 -0.9101 -0.0025  0.0245
 4577SOL    HW118306   3.575   5.072   4.328  1.0779 -0.4962 -3.1275
 4577SOL    HW218307   3.606   5.211   4.379 -0.3808 -1.4643  0.6817
 4577SOL     MW18308   3.568   5.159   4.320 -0.5879 -0.2528 -0.2949
 4578SOL     OW18309   1.836   4.979   4.854  0.2864 -0.5021 -0.6504
 4578SOL    HW118310   1.745   4.950   4.850  0.3119 -0.5849 -0.6296
 4578SOL    HW218311   1.849   5.004   4.946  0.0127  0.3896 -0.8458
 4578SOL     MW18312   1.826   4.978   4.865  0.2546 -0.3985 -0.6727
 4579SOL     OW18313   3.717   2.387   0.702 -0.3888 -0.5842  0.1874
 4579SOL    HW118314   3.642   2.436   0.669  0.9027  1.1989 -0.1976
 4579SOL    HW218315   3.752   2.342   0.625 -0.6715 -0.9306  0.2543
 4579SOL     MW18316   3.712   2.387   0.688 -0.2597 -0.4003  0.1467
 4580SOL     OW18317   1.937   3.918   1.650 -0.2642  0.1984  0.2850
 4580SOL    HW118318   2.019   3.870   1.658 -0.5053 -0.1967  0.4172
 4580SOL    HW218319   1.963   4.005   1.619  0.0911 -0.2972 -0.8587
 4580SOL     MW18320   1.951   3.923   1.647 -0.2496  0.0844  0.1556
 4581SOL     OW18321   3.856   4.752   3.188  0.1505  0.1697  0.4892
 4581SOL    HW118322   3.873   4.786   3.101 -2.4822  0.6502  0.0932
 4581SOL    HW218323   3.857   4.657   3.177 -1.7111  0.2098 -0.4784
 4581SOL     MW18324   3.859   4.744   3.176 -0.4248  0.2363  0.3147
 4582SOL     OW18325   2.998   0.541   2.050 -0.0492 -0.5752 -0.0245
 4582SOL    HW118326   3.020   0.467   1.994 -1.3499 -1.7176  0.9328
 4582SOL    HW218327   2.944   0.598   1.995  2.4131  0.6541 -1.3540
 4582SOL     MW18328   2.994   0.539   2.036  0.0995 -0.5641 -0.0722
 4583SOL     OW18329   0.446   3.458   5.033 -0.0196  0.1269  0.6916
 4583SOL    HW118330   0.416   3.491   5.118  0.5544  1.0393  0.5618
 4583SOL    HW218331   0.396   3.508   4.969 -0.6450 -0.7493  0.4832
 4583SOL     MW18332   0.436   3.469   5.036 -0.0262  0.1315  0.6483
 4584SOL     OW18333   1.448   1.011   5.235 -0.0904 -0.0117 -0.1263
 4584SOL    HW118334   1.478   0.992   5.324  2.3813 -2.3944 -1.2932
 4584SOL    HW218335   1.368   0.959   5.225  0.0758 -0.4001  0.4806
 4584SOL     MW18336   1.442   1.002   5.245  0.2473 -0.3664 -0.1980
 4585SOL     OW18337   4.206   2.196   0.570 -0.2887 -0.2399  0.8229
 4585SOL    HW118338   4.117   2.199   0.607 -0.8752 -0.2653 -0.5199
 4585SOL    HW218339   4.248   2.275   0.603 -1.7032  1.2043 -0.6170
 4585SOL     MW18340   4.200   2.206   0.579 -0.5449 -0.0583  0.4667
 4586SOL     OW18341   0.106   5.368   3.671  0.1661 -0.8437  0.1835
 4586SOL    HW118342   0.015   5.340   3.680 -0.4894  1.2862  0.7256
 4586SOL    HW218343   0.138   5.377   3.761  0.5438 -0.4493  0.0124
 4586SOL     MW18344   0.099   5.366   3.683  0.1306 -0.5206  0.2310
 4587SOL     OW18345   1.329   1.575   3.477  0.0030 -0.5240 -0.1366
 4587SOL    HW118346   1.387   1.558   3.402 -0.9452  1.7544 -1.4913
 4587SOL    HW218347   1.255   1.516   3.463 -0.5342  0.4075 -1.4995
 4587SOL     MW18348   1.327   1.565   3.465 -0.1872 -0.1131 -0.4845
 4588SOL     OW18349   4.259   4.079   3.999 -0.6463 -0.0505 -0.6416
 4588SOL    HW118350   4.212   4.127   4.067 -0.4163  0.0225 -0.5326
 4588SOL    HW218351   4.348   4.114   4.002 -0.4476 -0.5469 -0.4947
 4588SOL     MW18352   4.265   4.089   4.008 -0.5914 -0.1047 -0.6089
 4589SOL     OW18353   3.197   3.038   1.341  0.5057  0.4269  0.3511
 4589SOL    HW118354   3.152   2.997   1.415 -1.8476 -0.9168 -1.6737
 4589SOL    HW218355   3.249   2.967   1.303  0.1376  0.5554 -0.4155
 4589SOL     MW18356   3.198   3.023   1.345  0.1574  0.2714 -0.0063
 4590SOL     OW18357   0.919   4.582   1.236 -0.2398 -0.7735 -0.0130
 4590SOL    HW118358   0.991   4.587   1.299 -0.2648  0.5073 -0.0513
 4590SOL    HW218359   0.840   4.589   1.290 -0.2516  0.8145 -0.1933
 4590SOL     MW18360   0.918   4.584   1.251 -0.2445 -0.4062 -0.0410
 4591SOL     OW18361   1.686   3.506   2.070  0.2730  0.8803 -0.5573
 4591SOL    HW118362   1.673   3.518   1.976  0.4811  0.1526 -0.6823
 4591SOL    HW218363   1.614   3.554   2.111 -0.4518  0.2847 -1.1144
 4591SOL     MW18364   1.675   3.514   2.063  0.2068  0.7109 -0.6446
 4592SOL     OW18365   4.368   1.153   3.741  0.1699  0.2141 -0.1692
 4592SOL    HW118366   4.410   1.070   3.765  0.8242  0.2177 -1.2294
 4592SOL    HW218367   4.313   1.131   3.665  1.6414  1.0268 -1.5446
 4592SOL     MW18368   4.366   1.140   3.734  0.4420  0.3186 -0.4810
 4593SOL     OW18369   1.182   2.608   2.847  0.1693 -0.7740 -0.0834
 4593SOL    HW118370   1.126   2.588   2.772 -0.8481 -0.8134  0.6532
 4593SOL    HW218371   1.253   2.544   2.843 -0.6229 -1.6574 -0.2528
 4593SOL     MW18372   1.184   2.597   2.837 -0.0623 -0.8921 -0.0108
 4594SOL     OW18373   0.579   4.819   4.260 -0.1213  0.3371 -0.5745
 4594SOL    HW118374   0.647   4.878   4.228  0.1583 -0.0959 -0.7773
 4594SOL    HW218375   0.613   4.784   4.342 -0.0439  0.0282 -0.7363
 4594SOL     MW18376   0.592   4.822   4.266 -0.0756  0.2422 -0.6212
 4595SOL     OW18377   3.211   2.239   1.495  0.4134  0.6351  0.0559
 4595SOL    HW118378   3.169   2.292   1.427 -1.3392 -0.8184 -0.0586
 4595SOL    HW218379   3.139   2.193   1.538  1.5019  1.2327  2.7224
 4595SOL     MW18380   3.197   2.240   1.492  0.3284  0.5255  0.3826
 4596SOL     OW18381   4.829   0.409   5.278 -0.2066 -0.1094  0.4427
 4596SOL    HW118382   4.739   0.401   5.310 -0.0947 -1.1405  0.5115
 4596SOL    HW218383   4.820   0.458   5.196 -0.8439 -0.3232  0.3769
 4596SOL     MW18384   4.816   0.414   5.271 -0.2738 -0.2687  0.4431
 4597SOL     OW18385   5.320   0.741   5.370 -0.0960  0.3543 -0.0910
 4597SOL    HW118386   5.250   0.719   5.309 -0.2746 -0.6387  0.4506
 4597SOL    HW218387   5.391   0.775   5.315 -0.2850 -0.4339 -0.8311
 4597SOL     MW18388   5.320   0.743   5.355 -0.1431  0.1263 -0.1164
 4598SOL     OW18389   0.843   1.010   1.284  0.4146 -0.4439 -0.2700
 4598SOL    HW118390   0.766   1.043   1.329  0.7386 -0.6170  0.4258
 4598SOL    HW218391   0.917   1.043   1.335  0.7629 -1.6085  0.0132
 4598SOL     MW18392   0.843   1.018   1.296  0.5007 -0.6151 -0.1446
 4599SOL     OW18393   1.425   0.078   3.473 -0.1174  0.1546  0.3337
 4599SOL    HW118394   1.388   0.163   3.450 -0.8827  0.1190  1.3589
 4599SOL    HW218395   1.360   0.015   3.443  1.1364 -0.1997 -1.8187
 4599SOL     MW18396   1.412   0.081   3.466 -0.0549  0.1047  0.1894
 4600SOL     OW18397   5.380   3.998   0.298  0.0565 -0.0457  0.1275
 4600SOL    HW118398   5.457   3.955   0.335 -0.7434  0.2244  2.1917
 4600SOL    HW218399   5.374   4.081   0.344 -1.6637 -0.2015  0.2415
 4600SOL     MW18400   5.389   4.003   0.308 -0.2661 -0.0311  0.4063
 4601SOL     OW18401   4.453   0.958   5.294  0.9562  0.5284  0.5442
 4601SOL    HW118402   4.459   0.956   5.198 -0.3043 -1.2364  0.4482
 4601SOL    HW218403   4.359   0.962   5.312  0.9376 -2.3702  1.6315
 4601SOL     MW18404   4.442   0.958   5.284  0.7925 -0.0686  0.6711
 4602SOL     OW18405   4.004   5.042   3.591 -0.1534  0.0882 -0.7985
 4602SOL    HW118406   4.071   5.017   3.655  1.1445 -0.8050 -2.4428
 4602SOL    HW218407   3.999   4.968   3.531 -2.9923 -0.0705 -0.4768
 4602SOL     MW18408   4.012   5.030   3.592 -0.3507 -0.0465 -0.9678
 4603SOL     OW18409   2.321   4.408   2.078 -0.5830 -0.0067  0.1806
 4603SOL    HW118410   2.369   4.359   2.144 -0.2905  0.3196  0.2102
 4603SOL    HW218411   2.354   4.498   2.085  1.6970 -0.5183 -2.4182
 4603SOL     MW18412   2.331   4.413   2.087 -0.2537 -0.0304 -0.1483
 4604SOL     OW18413   1.452   1.107   0.500  0.6064 -0.3385 -0.1748
 4604SOL    HW118414   1.546   1.124   0.499  0.4559  0.6772  1.0529
 4604SOL    HW218415   1.420   1.139   0.415  1.3057 -0.3779 -0.4548
 4604SOL     MW18416   1.460   1.113   0.489  0.6767 -0.2135 -0.0535
 4605SOL     OW18417   1.421   1.591   3.728 -0.3862  0.2361  0.6119
 4605SOL    HW118418   1.502   1.540   3.728 -1.2821 -1.2539  1.2571
 4605SOL    HW218419   1.377   1.568   3.647 -0.9055 -0.2350  1.0144
 4605SOL     MW18420   1.425   1.582   3.718 -0.5673 -0.0149  0.7460
 4606SOL     OW18421   1.220   0.710   2.604  0.2530 -0.2743 -0.0420
 4606SOL    HW118422   1.183   0.717   2.515  1.7133 -1.3737 -0.7725
 4606SOL    HW218423   1.314   0.716   2.591  0.4462  2.7496  1.8158
 4606SOL     MW18424   1.227   0.712   2.591  0.4647 -0.0279  0.1023
 4607SOL     OW18425   2.630   1.159   2.992  0.3281 -0.4420 -0.1908
 4607SOL    HW118426   2.674   1.076   2.971 -0.7136 -0.3021 -3.5257
 4607SOL    HW218427   2.671   1.223   2.935  0.4429  1.1862  1.6439
 4607SOL     MW18428   2.641   1.156   2.982  0.2094 -0.2156 -0.3828
 4608SOL     OW18429   0.336   5.229   4.153 -0.1232 -0.2243  0.2301
 4608SOL    HW118430   0.331   5.190   4.240  0.6852  0.0805  0.4320
 4608SOL    HW218431   0.349   5.323   4.170  0.3983 -0.2095 -0.2058
 4608SOL     MW18432   0.337   5.236   4.166  0.0470 -0.1834  0.2001
 4609SOL     OW18433   3.705   1.631   0.645 -0.3356 -0.7437 -0.3002
 4609SOL    HW118434   3.683   1.538   0.653 -0.8489 -0.6852 -0.9759
 4609SOL    HW218435   3.697   1.649   0.551 -3.3170  0.7322  0.1311
 4609SOL     MW18436   3.701   1.621   0.634 -0.7830 -0.5472 -0.3315
 4610SOL     OW18437   0.259   5.323   5.270 -0.3202 -0.4733 -0.0089
 4610SOL    HW118438   0.190   5.371   5.316 -0.9473 -0.1007 -1.2922
 4610SOL    HW218439   0.251   5.233   5.302 -1.0085 -0.3075  0.3063
 4610SOL     MW18440   0.249   5.317   5.280 -0.4886 -0.4044 -0.1328
 4611SOL     OW18441   0.040   2.303   5.178 -0.0651  0.1639 -0.0253
 4611SOL    HW118442   0.028   2.394   5.207 -0.5887  0.0518  0.1007
 4611SOL    HW218443  -0.046   2.263   5.185  0.1533 -0.3343 -0.1343
 4611SOL     MW18444   0.028   2.310   5.182 -0.1041  0.0858 -0.0232
 4612SOL     OW18445   1.714   4.325   2.791 -0.4506 -0.0566  0.2921
 4612SOL    HW118446   1.783   4.279   2.743  0.1584  2.0037 -0.9167
 4612SOL    HW218447   1.737   4.417   2.784 -1.1676  0.4668  3.3355
 4612SOL     MW18448   1.726   4.331   2.784 -0.4644  0.2742  0.5269
 4613SOL     OW18449   2.561   1.343   4.288 -0.0102  0.5351  0.0377
 4613SOL    HW118450   2.474   1.316   4.317 -1.1267 -1.1299 -4.1057
 4613SOL    HW218451   2.545   1.423   4.237  0.7423 -0.1289 -1.2797
 4613SOL     MW18452   2.548   1.350   4.285 -0.0568  0.2369 -0.6614
 4614SOL     OW18453   3.623   2.472   4.350 -0.0386 -0.5296 -0.6197
 4614SOL    HW118454   3.534   2.444   4.328 -0.3603 -0.8914  1.0502
 4614SOL    HW218455   3.617   2.567   4.358 -0.3895 -0.5969 -0.0549
 4614SOL     MW18456   3.611   2.481   4.348 -0.1247 -0.5846 -0.3336
 4615SOL     OW18457   0.042   2.305   4.905  0.3580 -0.1314  0.2999
 4615SOL    HW118458   0.021   2.301   4.998 -1.4479 -0.5939 -0.0770
 4615SOL    HW218459   0.007   2.223   4.869 -1.6905  1.2866 -1.2322
 4615SOL     MW18460   0.035   2.294   4.912 -0.1354 -0.0091  0.0556
 4616SOL     OW18461   0.328   2.207   4.245 -0.0724 -0.0466 -0.5004
 4616SOL    HW118462   0.258   2.216   4.311  0.7456 -0.0863  0.3894
 4616SOL    HW218463   0.367   2.294   4.240 -0.4686  0.0880 -1.3282
 4616SOL     MW18464   0.324   2.219   4.253 -0.0184 -0.0345 -0.4925
 4617SOL     OW18465   3.029   3.901   1.732  0.1074  0.0199 -0.2774
 4617SOL    HW118466   2.960   3.877   1.671 -0.4359  0.3786  0.1891
 4617SOL    HW218467   3.080   3.820   1.743  0.0012 -0.1399 -0.9191
 4617SOL     MW18468   3.027   3.888   1.726  0.0243  0.0454 -0.2998
 4618SOL     OW18469   3.872   1.380   4.862 -0.1828 -0.4573 -0.0652
 4618SOL    HW118470   3.943   1.417   4.810  0.7566 -0.6710  1.0130
 4618SOL    HW218471   3.809   1.348   4.798  0.2565  0.5739 -1.0383
 4618SOL     MW18472   3.873   1.380   4.847 -0.0063 -0.3526 -0.0518
 4619SOL     OW18473   3.047   4.733   4.280  0.0850 -0.2248  0.4978
 4619SOL    HW118474   3.039   4.691   4.194  0.2138 -2.1275  1.3792
 4619SOL    HW218475   2.964   4.780   4.291  0.0752  0.0577 -0.6578
 4619SOL     MW18476   3.035   4.734   4.270  0.1002 -0.4322  0.4627
 4620SOL     OW18477   1.956   0.368   3.058  0.0376 -0.4998 -0.1477
 4620SOL    HW118478   1.910   0.424   3.121 -0.6248 -1.7992  0.5742
 4620SOL    HW218479   1.986   0.428   2.990 -1.9818  0.5393 -0.1938
 4620SOL     MW18480   1.954   0.383   3.057 -0.3057 -0.5332 -0.0612
 4621SOL     OW18481   5.169   3.689   5.238  0.4172  0.3819  0.0763
 4621SOL    HW118482   5.207   3.773   5.262 -0.5017  1.0591 -0.7599
 4621SOL    HW218483   5.172   3.688   5.142  2.0074 -1.3093  0.0630
 4621SOL     MW18484   5.175   3.699   5.229  0.5031  0.2521 -0.0324
 4622SOL     OW18485   2.416   2.584   3.546 -0.0963  0.1068  0.2856
 4622SOL    HW118486   2.329   2.622   3.532  0.3068  1.0213  0.2570
 4622SOL    HW218487   2.398   2.491   3.561 -1.0518  0.2159 -0.0802
 4622SOL     MW18488   2.403   2.577   3.546 -0.1670  0.2379  0.2351
 4623SOL     OW18489   5.464   0.144   1.340 -0.0303  0.0832 -0.2082
 4623SOL    HW118490   5.383   0.095   1.354 -0.7020  0.8307 -1.3169
 4623SOL    HW218491   5.435   0.232   1.314  1.0501 -0.2527 -2.9177
 4623SOL     MW18492   5.450   0.149   1.338  0.0220  0.1359 -0.6970
 4624SOL     OW18493   4.295   0.253   2.043 -0.2363 -0.2869 -0.1014
 4624SOL    HW118494   4.329   0.170   2.078 -0.3215  0.1975  1.1770
 4624SOL    HW218495   4.289   0.238   1.948  1.9829 -0.9289 -0.1895
 4624SOL     MW18496   4.298   0.240   2.035  0.0369 -0.3071  0.0510
 4625SOL     OW18497   2.887   2.910   2.572 -0.2739  0.2908  0.2154
 4625SOL    HW118498   2.942   2.957   2.510  0.6586  1.0691  1.5696
 4625SOL    HW218499   2.921   2.821   2.572 -0.5398  0.1787 -0.6597
 4625SOL     MW18500   2.898   2.905   2.564 -0.1886  0.3761  0.2768
 4626SOL     OW18501   2.814   0.960   2.192  0.5261 -0.4560  0.4081
 4626SOL    HW118502   2.756   1.023   2.236  1.7350  1.3058 -0.3820
 4626SOL    HW218503   2.866   0.923   2.262  1.1578  0.9460  0.7170
 4626SOL     MW18504   2.813   0.963   2.206  0.7617 -0.0510  0.3465
 4627SOL     OW18505   0.907   3.243   1.436 -0.2733  0.1336 -0.5913
 4627SOL    HW118506   0.975   3.245   1.503 -1.6190  1.0761  0.7968
 4627SOL    HW218507   0.915   3.156   1.397  0.6306 -0.3955  0.6924
 4627SOL     MW18508   0.917   3.232   1.439 -0.3299  0.1865 -0.2493
 4628SOL     OW18509   3.847   5.092   0.423  0.6491 -0.6956  0.7005
 4628SOL    HW118510   3.785   5.127   0.359  1.2080 -1.4327 -0.2829
 4628SOL    HW218511   3.844   5.154   0.496 -2.1058 -1.3031  1.2283
 4628SOL     MW18512   3.839   5.104   0.424  0.3680 -0.8678  0.6422
 4629SOL     OW18513   1.654   2.115   2.880 -0.4857  0.0092 -0.3111
 4629SOL    HW118514   1.700   2.112   2.796 -0.7257  0.4494 -0.4601
 4629SOL    HW218515   1.719   2.147   2.942 -0.4325  0.1079 -0.4168
 4629SOL     MW18516   1.668   2.119   2.877 -0.5096  0.0782 -0.3437
 4630SOL     OW18517   2.455   1.172   2.399  0.5502  0.5707 -0.1771
 4630SOL    HW118518   2.505   1.165   2.318 -0.3158 -1.0369 -0.5994
 4630SOL    HW218519   2.398   1.095   2.400 -1.1569  1.7864  0.8190
 4630SOL     MW18520   2.454   1.161   2.389  0.2208  0.5206 -0.1037
 4631SOL     OW18521   2.368   0.615   4.765 -0.1746  0.0029  0.2821
 4631SOL    HW118522   2.377   0.647   4.675 -1.4480 -2.1300 -0.6586
 4631SOL    HW218523   2.451   0.640   4.806  1.3171 -0.6828 -2.0573
 4631SOL     MW18524   2.380   0.622   4.759 -0.1467 -0.3579 -0.1378
 4632SOL     OW18525   0.551   0.615   2.333  0.1702 -0.4503  0.0834
 4632SOL    HW118526   0.488   0.686   2.343 -0.1534 -0.5867 -0.9261
 4632SOL    HW218527   0.634   0.659   2.313  0.2411 -0.3112  0.6549
 4632SOL     MW18528   0.554   0.630   2.332  0.1378 -0.4500  0.0273
 4633SOL     OW18529   4.695   5.037   0.360 -0.4520 -0.3358  0.1320
 4633SOL    HW118530   4.735   5.120   0.333 -1.1209 -0.9396 -3.1067
 4633SOL    HW218531   4.767   4.975   0.358 -0.8303 -0.7973 -2.6395
 4633SOL     MW18532   4.710   5.040   0.356 -0.5860 -0.4722 -0.6374
 4634SOL     OW18533   1.743   2.089   1.542  0.0819 -0.0093  0.2187
 4634SOL    HW118534   1.727   2.112   1.450 -0.8729 -1.8467 -0.1214
 4634SOL    HW218535   1.667   2.037   1.567  1.5619 -1.8491  1.2001
 4634SOL     MW18536   1.731   2.085   1.533  0.1491 -0.4801  0.3008
 4635SOL     OW18537   1.772   3.398   3.686 -0.5548  0.0198 -0.1603
 4635SOL    HW118538   1.771   3.323   3.746 -0.3044 -0.9847 -1.3780
 4635SOL    HW218539   1.719   3.370   3.612 -0.1758  0.9178 -0.7830
 4635SOL     MW18540   1.765   3.385   3.684 -0.4742  0.0061 -0.3959
 4636SOL     OW18541   2.411   4.840   0.381 -0.5227  0.6402 -0.9602
 4636SOL    HW118542   2.385   4.857   0.291  0.0699  1.8923 -0.9138
 4636SOL    HW218543   2.491   4.892   0.394 -0.4034  0.2146  0.1797
 4636SOL     MW18544   2.418   4.849   0.371 -0.4315  0.7460 -0.8083
 4637SOL     OW18545   2.557   1.854   0.345 -0.0419 -1.0409  0.2851
 4637SOL    HW118546   2.616   1.875   0.417  2.5190 -1.0187 -1.6434
 4637SOL    HW218547   2.561   1.759   0.337  0.0426 -1.0125 -0.0660
 4637SOL     MW18548   2.565   1.845   0.353  0.2967 -1.0344 -0.0067
 4638SOL     OW18549   4.400   4.744   3.020  0.0926  0.3825 -0.1472
 4638SOL    HW118550   4.487   4.708   3.005  0.4099  0.5331  1.2262
 4638SOL    HW218551   4.358   4.742   2.934  0.9880 -0.9130 -0.5871
 4638SOL     MW18552   4.405   4.739   3.007  0.2478  0.2359 -0.0277
 4639SOL     OW18553   0.417   1.457   4.295  0.1374  0.0044  0.6462
 4639SOL    HW118554   0.357   1.405   4.349 -1.1155 -0.3396 -1.0066
 4639SOL    HW218555   0.440   1.400   4.222  3.0560 -0.1072  1.4996
 4639SOL     MW18556   0.412   1.443   4.293  0.3507 -0.0539  0.5439
 4640SOL     OW18557   4.556   3.415   3.471  0.0247 -0.4117  0.6473
 4640SOL    HW118558   4.555   3.484   3.404  0.3048 -1.7560 -0.8214
 4640SOL    HW218559   4.639   3.426   3.516 -0.3536  0.7834  1.0814
 4640SOL     MW18560   4.566   3.425   3.468  0.0121 -0.4308  0.5149
 4641SOL     OW18561   2.642   0.733   4.208  0.3719  0.3600  0.4760
 4641SOL    HW118562   2.633   0.758   4.300  0.3210  0.6175  0.4023
 4641SOL    HW218563   2.653   0.815   4.161 -3.0383  0.6183 -0.1639
 4641SOL     MW18564   2.642   0.746   4.214 -0.0712  0.4260  0.3847
 4642SOL     OW18565   3.994   2.805   5.179  0.1615  0.4377  0.4258
 4642SOL    HW118566   4.000   2.891   5.220 -0.1165  0.4143  0.5211
 4642SOL    HW218567   4.062   2.806   5.111 -0.3316  1.0184 -0.0874
 4642SOL     MW18568   4.003   2.816   5.175  0.0628  0.5090  0.3723
 4643SOL     OW18569   3.188   2.865   4.748  0.3521 -0.2472  0.1214
 4643SOL    HW118570   3.237   2.802   4.801  0.5519 -0.6610 -0.5305
 4643SOL    HW218571   3.160   2.933   4.809 -0.0192 -1.0590  0.8799
 4643SOL     MW18572   3.190   2.866   4.763  0.3302 -0.4041  0.1350
 4644SOL     OW18573   4.674   4.115   3.013 -0.7862  0.0573 -0.0472
 4644SOL    HW118574   4.652   4.130   2.922 -0.5937  1.5026  0.1170
 4644SOL    HW218575   4.594   4.137   3.061 -0.1910  1.6530  0.2777
 4644SOL     MW18576   4.661   4.120   3.008 -0.6853  0.4466  0.0154
 4645SOL     OW18577   3.181   3.770   2.355  0.0363  0.2073  0.0125
 4645SOL    HW118578   3.127   3.776   2.276  0.0211 -0.3151 -0.0205
 4645SOL    HW218579   3.262   3.815   2.333  0.8385 -1.6340 -0.9938
 4645SOL     MW18580   3.184   3.777   2.342  0.1371 -0.0953 -0.1205
 4646SOL     OW18581   2.517   5.191   2.439  0.1564 -0.1587 -0.1591
 4646SOL    HW118582   2.612   5.198   2.439  0.1850 -0.5391  0.2778
 4646SOL    HW218583   2.495   5.158   2.352  0.4834 -0.8500  0.0157
 4646SOL     MW18584   2.526   5.188   2.428  0.2019 -0.2959 -0.0808
 4647SOL     OW18585   1.784   2.237   3.108 -0.0707 -0.4280 -0.1556
 4647SOL    HW118586   1.690   2.249   3.119 -0.4369 -1.7593 -1.3595
 4647SOL    HW218587   1.822   2.258   3.193 -1.5494 -0.7074  0.6061
 4647SOL     MW18588   1.776   2.241   3.120 -0.3069 -0.6342 -0.2122
 4648SOL     OW18589   2.616   0.329   4.110 -0.1277  0.1031 -0.0025
 4648SOL    HW118590   2.616   0.277   4.030  0.4730  1.5072 -0.9493
 4648SOL    HW218591   2.635   0.266   4.180 -0.9465 -1.1940 -0.9098
 4648SOL     MW18592   2.618   0.314   4.109 -0.1556  0.1168 -0.2399
 4649SOL     OW18593   0.131   4.303   3.226 -0.6310 -0.4790 -0.3057
 4649SOL    HW118594   0.148   4.227   3.282 -0.3186 -0.1282  0.0908
 4649SOL    HW218595   0.188   4.291   3.151 -1.5386 -1.2938 -0.8886
 4649SOL     MW18596   0.140   4.292   3.224 -0.7072 -0.5384 -0.3296
 4650SOL     OW18597   0.344   2.725   2.464 -0.5672  0.3484 -0.4854
 4650SOL    HW118598   0.384   2.811   2.476 -0.5858  0.4069 -0.8391
 4650SOL    HW218599   0.272   2.740   2.403 -2.3517  0.6103  1.5460
 4650SOL     MW18600   0.340   2.738   2.458 -0.7980  0.3894 -0.2706
 4651SOL     OW18601   1.825   2.365   4.415 -0.0090  0.4418 -0.3679
 4651SOL    HW118602   1.762   2.431   4.443 -0.2640  0.7145 -1.5303
 4651SOL    HW218603   1.772   2.288   4.396  0.3886 -0.5198  2.0369
 4651SOL     MW18604   1.810   2.364   4.416  0.0093  0.3536 -0.2088
 4652SOL     OW18605   4.553   2.459   0.050  0.5737  0.3590 -0.0979
 4652SOL    HW118606   4.623   2.413   0.096 -1.4213 -0.6854  2.1104
 4652SOL    HW218607   4.553   2.547   0.087  2.6370  1.4809 -2.4016
 4652SOL     MW18608   4.562   2.464   0.061  0.5824  0.3690 -0.1101
 4653SOL     OW18609   3.391   2.241   3.274  0.2641 -0.7556  1.0758
 4653SOL    HW118610   3.390   2.310   3.207 -0.8462 -1.9194 -0.1664
 4653SOL    HW218611   3.471   2.258   3.324  0.1794  1.2477  0.6367
 4653SOL     MW18612   3.401   2.252   3.272  0.1111 -0.6481  0.8606
 4654SOL     OW18613   3.814   5.374   0.534 -0.0348  0.0414  0.6960
 4654SOL    HW118614   3.780   5.458   0.503  1.4941  0.4563  0.0688
 4654SOL    HW218615   3.737   5.328   0.569 -1.2186  0.9430 -0.6261
 4654SOL     MW18616   3.800   5.379   0.534  0.0094  0.2099  0.4465
 4655SOL     OW18617   0.734   4.442   4.299 -0.2917 -0.0649  0.1701
 4655SOL    HW118618   0.729   4.350   4.272  0.5462 -0.0469 -0.0539
 4655SOL    HW218619   0.655   4.482   4.263 -1.2776 -0.9498  1.2668
 4655SOL     MW18620   0.723   4.435   4.291 -0.3106 -0.1759  0.2818
 4656SOL     OW18621   5.061   3.859   1.103  0.1681 -0.2543 -0.5709
 4656SOL    HW118622   4.992   3.885   1.041 -2.7787 -1.4512  1.9244
 4656SOL    HW218623   5.070   3.934   1.162 -1.0892 -1.0656  0.7214
 4656SOL     MW18624   5.053   3.872   1.103 -0.3701 -0.5113 -0.0861
 4657SOL     OW18625   0.684   0.055   4.752  0.2201 -0.3451  0.0589
 4657SOL    HW118626   0.693  -0.004   4.826  1.8005 -0.9813 -0.6053
 4657SOL    HW218627   0.763   0.042   4.700 -0.2910  0.9512 -1.1259
 4657SOL     MW18628   0.695   0.046   4.755  0.3570 -0.2606 -0.1778
 4658SOL     OW18629   3.730   0.611   4.657  0.1872 -0.0641 -0.5229
 4658SOL    HW118630   3.707   0.620   4.750 -1.2498 -0.6756 -0.7959
 4658SOL    HW218631   3.669   0.669   4.612 -1.0045 -1.8000 -1.2714
 4658SOL     MW18632   3.719   0.620   4.663 -0.1493 -0.3646 -0.6537
 4659SOL     OW18633   1.690   4.555   1.086 -0.1946  0.3788  0.7453
 4659SOL    HW118634   1.770   4.530   1.132  0.3350  0.8393  0.0804
 4659SOL    HW218635   1.717   4.570   0.996 -1.3694 -1.3467  0.0557
 4659SOL     MW18636   1.704   4.554   1.081 -0.2772  0.2168  0.5719
 4660SOL     OW18637   1.283   4.805   1.490  0.0321 -0.2908  0.5242
 4660SOL    HW118638   1.364   4.767   1.525  0.5276  0.3392  0.1020
 4660SOL    HW218639   1.314   4.873   1.429 -0.7980 -0.9633 -0.6872
 4660SOL     MW18640   1.298   4.809   1.487 -0.0107 -0.2962  0.3150
 4661SOL     OW18641   0.371   3.510   4.758  0.7817  0.4472 -0.2136
 4661SOL    HW118642   0.442   3.566   4.725 -0.1908  0.8899 -1.6595
 4661SOL    HW218643   0.295   3.569   4.762  0.4918  0.0222  1.4568
 4661SOL     MW18644   0.370   3.525   4.754  0.6201  0.4494 -0.1848
 4662SOL     OW18645   1.291   2.675   3.854 -0.2189 -0.3535  0.2054
 4662SOL    HW118646   1.339   2.594   3.870 -0.5212 -0.4985  0.3920
 4662SOL    HW218647   1.215   2.648   3.802 -0.1750 -0.1492  0.0326
 4662SOL     MW18648   1.287   2.661   3.849 -0.2520 -0.3459  0.2072
 4663SOL     OW18649   2.413   1.734   3.769  0.4273  0.0990  0.2362
 4663SOL    HW118650   2.401   1.804   3.704 -0.6149  0.0828  0.3913
 4663SOL    HW218651   2.326   1.724   3.809  0.8733 -0.4265  1.0898
 4663SOL     MW18652   2.400   1.742   3.766  0.3510  0.0296  0.3653
 4664SOL     OW18653   1.620   3.723   4.703 -0.3297 -0.1577  0.5907
 4664SOL    HW118654   1.641   3.817   4.701 -0.2065 -0.1706  1.1688
 4664SOL    HW218655   1.661   3.691   4.783 -1.8839 -0.3555  1.3399
 4664SOL     MW18656   1.628   3.731   4.713 -0.5129 -0.1846  0.7606
 4665SOL     OW18657   3.704   1.841   1.930  0.2451  0.8101  0.2372
 4665SOL    HW118658   3.697   1.810   1.840  2.6211  2.1765 -0.5164
 4665SOL    HW218659   3.623   1.889   1.946  0.4802  1.9929 -1.8188
 4665SOL     MW18660   3.693   1.843   1.921  0.5793  1.1364 -0.1224
 4666SOL     OW18661   5.415   2.463   0.492  0.0559  0.2692 -0.1809
 4666SOL    HW118662   5.451   2.534   0.546  2.0348 -1.3983  0.8390
 4666SOL    HW218663   5.320   2.479   0.492  0.2424  1.8237  1.6047
 4666SOL     MW18664   5.407   2.474   0.499  0.3331  0.2547  0.1782
 4667SOL     OW18665   2.287   5.363   0.781  0.4586 -0.8704  0.1442
 4667SOL    HW118666   2.281   5.278   0.736  1.0884 -0.6767 -0.3199
 4667SOL    HW218667   2.263   5.427   0.714 -1.1362 -0.7401  0.7966
 4667SOL     MW18668   2.283   5.360   0.766  0.3350 -0.8289  0.1683
 4668SOL     OW18669   0.074   0.301   0.131  0.4499 -0.1197 -0.2408
 4668SOL    HW118670   0.012   0.369   0.103  0.3128  0.2979  0.9907
 4668SOL    HW218671   0.023   0.220   0.130  0.7822 -0.3407 -2.3157
 4668SOL     MW18672   0.060   0.300   0.127  0.4749 -0.0946 -0.3488
 4669SOL     OW18673   4.049   0.339   0.952  0.0273 -0.0706  0.2657
 4669SOL    HW118674   4.069   0.397   1.025 -0.1812  0.2707  0.0524
 4669SOL    HW218675   3.989   0.274   0.989  1.7523 -1.3284  1.0101
 4669SOL     MW18676   4.044   0.338   0.966  0.2214 -0.1879  0.3337
 4670SOL     OW18677   0.308   3.957   0.761  0.6850 -0.4197 -0.4344
 4670SOL    HW118678   0.264   3.964   0.676  1.0233  1.5338 -0.4909
 4670SOL    HW218679   0.236   3.952   0.824  0.3337  1.4759 -0.6228
 4670SOL     MW18680   0.293   3.958   0.758  0.6834  0.0730 -0.4657
 4671SOL     OW18681   1.520   0.455   3.641 -0.2657 -0.0543 -0.1109
 4671SOL    HW118682   1.517   0.545   3.610  0.5949  0.5762  1.5441
 4671SOL    HW218683   1.613   0.435   3.650 -0.3950 -1.4841 -1.4056
 4671SOL     MW18684   1.532   0.464   3.638 -0.1721 -0.1566 -0.0648
 4672SOL     OW18685   4.880   4.007   4.576  0.1258  0.2104 -0.1462
 4672SOL    HW118686   4.918   3.956   4.505 -0.3718 -0.1073 -0.1955
 4672SOL    HW218687   4.949   4.068   4.602 -0.1987  1.4743 -2.0000
 4672SOL     MW18688   4.893   4.008   4.570  0.0205  0.3315 -0.3898
 4673SOL     OW18689  -0.008   5.097   1.142  0.7624  0.5126 -0.5619
 4673SOL    HW118690   0.078   5.077   1.105  1.2170  1.8736 -0.3170
 4673SOL    HW218691  -0.010   5.193   1.147 -0.4249  0.4685  0.2597
 4673SOL     MW18692   0.003   5.107   1.138  0.6686  0.6812 -0.4253
 4674SOL     OW18693   0.356   0.275   4.174 -0.7815  0.3267  0.1121
 4674SOL    HW118694   0.382   0.192   4.213  0.9781  1.5626  1.7643
 4674SOL    HW218695   0.370   0.263   4.080  1.4279 -0.6132  0.5026
 4674SOL     MW18696   0.361   0.263   4.167 -0.2734  0.3646  0.3736
 4675SOL     OW18697   0.284   5.330   1.339 -0.5701 -0.1005 -0.4540
 4675SOL    HW118698   0.319   5.413   1.372 -1.0823 -0.5008  1.1673
 4675SOL    HW218699   0.356   5.293   1.287  0.5386  0.2397  0.7822
 4675SOL     MW18700   0.298   5.336   1.336 -0.4937 -0.1082 -0.0882
 4676SOL     OW18701   0.857   3.520   1.973 -0.2339 -0.3496  0.0282
 4676SOL    HW118702   0.916   3.543   2.045 -0.6052  1.2001 -0.1323
 4676SOL    HW218703   0.801   3.597   1.962 -0.8426 -0.9444 -1.2719
 4676SOL     MW18704   0.857   3.532   1.981 -0.3594 -0.2273 -0.1588
 4677SOL     OW18705   0.365   3.054   3.090  0.0837 -0.6475  0.2159
 4677SOL    HW118706   0.383   2.963   3.113  0.7046 -0.5013  0.3472
 4677SOL    HW218707   0.439   3.103   3.127 -0.4959 -0.0262  0.5683
 4677SOL     MW18708   0.377   3.049   3.097  0.0890 -0.5493  0.2778
 4678SOL     OW18709   1.330   1.495   3.027  0.2172  0.0709 -0.1394
 4678SOL    HW118710   1.379   1.488   2.945  2.1337 -2.3403  1.0713
 4678SOL    HW218711   1.246   1.453   3.009  0.7713 -0.7943 -0.7985
 4678SOL     MW18712   1.326   1.489   3.014  0.5335 -0.3485 -0.0688
 4679SOL     OW18713   1.677   0.017   0.642 -0.5877  0.3113 -0.7432
 4679SOL    HW118714   1.707  -0.025   0.561 -1.8957  0.7174 -1.4839
 4679SOL    HW218715   1.736   0.091   0.654  0.4118 -0.4875 -0.6043
 4679SOL     MW18716   1.688   0.021   0.633 -0.6272  0.2610 -0.8202
 4680SOL     OW18717   5.008   4.929   2.395 -0.3995 -0.0644  0.6443
 4680SOL    HW118718   5.077   4.897   2.452 -0.6287 -0.7286  0.5544
 4680SOL    HW218719   4.939   4.958   2.455 -0.4664 -0.3685  0.7173
 4680SOL     MW18720   5.008   4.929   2.410 -0.4374 -0.1884  0.6421
 4681SOL     OW18721   3.662   1.258   3.849  0.0862  0.0460  0.1488
 4681SOL    HW118722   3.675   1.238   3.941  2.9638 -1.0847 -0.4070
 4681SOL    HW218723   3.569   1.279   3.842 -0.2334  0.0961  3.2591
 4681SOL     MW18724   3.652   1.258   3.860  0.4136 -0.0924  0.4758
 4682SOL     OW18725   1.361   4.968   0.339 -0.0883 -0.5450 -0.1886
 4682SOL    HW118726   1.265   4.968   0.346  0.0114 -1.2547  1.7737
 4682SOL    HW218727   1.378   4.943   0.248 -1.7612 -1.6478 -0.2395
 4682SOL     MW18728   1.351   4.965   0.328 -0.2897 -0.7770  0.0560
 4683SOL     OW18729   3.762   3.435   1.400  0.1733 -0.0257  0.2407
 4683SOL    HW118730   3.840   3.461   1.449  0.6456 -1.2994  0.2014
 4683SOL    HW218731   3.797   3.398   1.319 -0.4610 -0.7188  0.2782
 4683SOL     MW18732   3.777   3.434   1.396  0.1526 -0.2775  0.2404
 4684SOL     OW18733   3.085   1.892   1.457  0.3263  0.8184 -0.0660
 4684SOL    HW118734   3.090   1.801   1.430  1.8370  1.0448 -0.6419
 4684SOL    HW218735   3.025   1.892   1.531  2.4572 -1.1187  1.8015
 4684SOL     MW18736   3.078   1.880   1.463  0.7925  0.5994  0.0994
 4685SOL     OW18737   1.456   5.186   2.486 -0.3519 -0.1295  0.0161
 4685SOL    HW118738   1.444   5.122   2.417 -0.4878  0.2101 -0.2754
 4685SOL    HW218739   1.474   5.134   2.564  0.1373 -0.5024 -0.3418
 4685SOL     MW18740   1.457   5.171   2.487 -0.3067 -0.1337 -0.0671
 4686SOL     OW18741   4.674   1.278   4.097  0.1499  0.3433  0.1026
 4686SOL    HW118742   4.629   1.195   4.115  0.3171  0.1691 -0.2670
 4686SOL    HW218743   4.764   1.252   4.078  0.3741  0.6786  0.6993
 4686SOL     MW18744   4.680   1.264   4.097  0.2000  0.3639  0.1317
 4687SOL     OW18745   4.284   0.886   0.090 -0.6786  0.1043  0.3248
 4687SOL    HW118746   4.349   0.898   0.159 -0.6737 -1.6141  0.6617
 4687SOL    HW218747   4.324   0.825   0.029 -1.2188  0.5468 -0.4994
 4687SOL     MW18748   4.297   0.880   0.091 -0.7471 -0.0590  0.2624
 4688SOL     OW18749   0.899   3.642   4.386  0.9602  0.2871  0.0022
 4688SOL    HW118750   0.901   3.641   4.482  1.3861 -1.2205 -0.0014
 4688SOL    HW218751   0.969   3.703   4.362  0.5837  0.9903  0.6415
 4688SOL     MW18752   0.908   3.650   4.395  0.9665  0.1841  0.0836
 4689SOL     OW18753   2.017   2.132   4.083 -0.0910 -0.2377 -0.0986
 4689SOL    HW118754   1.940   2.139   4.027  1.1799  1.3379 -1.7258
 4689SOL    HW218755   2.085   2.094   4.027  1.0025  0.6655  0.5767
 4689SOL     MW18756   2.016   2.128   4.069  0.2117  0.0796 -0.2205
 4690SOL     OW18757   2.334   1.858   3.507 -0.2321 -0.0730 -0.4296
 4690SOL    HW118758   2.397   1.831   3.440  2.2603 -0.3480  1.8753
 4690SOL    HW218759   2.349   1.952   3.518  1.3453 -0.4803  1.5182
 4690SOL     MW18760   2.344   1.866   3.500  0.2889 -0.1603  0.1148
 4691SOL     OW18761   1.928   3.411   4.934  0.0457  0.1249  0.5015
 4691SOL    HW118762   1.891   3.499   4.924  0.9317  0.3217 -1.4689
 4691SOL    HW218763   1.852   3.355   4.947 -0.6052  1.0507  0.8176
 4691SOL     MW18764   1.913   3.415   4.934  0.0758  0.2686  0.2898
 4692SOL     OW18765   3.910   2.619   4.765 -0.0987 -0.2274  0.4711
 4692SOL    HW118766   3.939   2.682   4.831  3.8595  0.6676 -1.7579
 4692SOL    HW218767   3.903   2.670   4.685 -1.5922 -1.8362 -0.4960
 4692SOL     MW18768   3.913   2.633   4.763  0.2168 -0.3188  0.0620
 4693SOL     OW18769   1.265   2.057   4.331  0.2525  0.6814  0.0769
 4693SOL    HW118770   1.336   2.012   4.377 -1.3717 -1.9443  0.2133
 4693SOL    HW218771   1.236   2.125   4.392  2.2254  1.4537  0.2338
 4693SOL     MW18772   1.270   2.060   4.345  0.2971  0.4441  0.1144
 4694SOL     OW18773   4.129   3.201   2.962  0.7086  0.0546 -0.4492
 4694SOL    HW118774   4.052   3.151   2.989  1.0565 -0.1192  0.2234
 4694SOL    HW218775   4.191   3.191   3.034  1.3238  0.2837 -0.9412
 4694SOL     MW18776   4.127   3.193   2.975  0.8319  0.0617 -0.4260
 4695SOL     OW18777   2.704   1.673   2.873 -0.3844 -0.3831  0.3861
 4695SOL    HW118778   2.755   1.712   2.943  0.6081 -0.0019 -0.5130
 4695SOL    HW218779   2.614   1.669   2.907  0.1171 -0.4290  1.7378
 4695SOL     MW18780   2.699   1.678   2.886 -0.1932 -0.3402  0.4441
 4696SOL     OW18781   1.446   1.569   0.640  0.0672  0.1477 -0.2199
 4696SOL    HW118782   1.520   1.512   0.661 -0.4856 -0.5553 -0.1540
 4696SOL    HW218783   1.416   1.541   0.554  0.2054  0.7877 -0.4852
 4696SOL     MW18784   1.451   1.558   0.632  0.0141  0.1397 -0.2454
 4697SOL     OW18785   0.769   3.589   1.521 -0.5834  0.0697 -0.5760
 4697SOL    HW118786   0.858   3.624   1.512 -0.3287 -0.4633 -0.1631
 4697SOL    HW218787   0.713   3.655   1.480 -0.0804  0.8122 -0.0927
 4697SOL     MW18788   0.773   3.602   1.514 -0.4864  0.0966 -0.4613
 4698SOL     OW18789   4.328   1.034   0.624 -0.7138 -0.6843 -0.0773
 4698SOL    HW118790   4.419   1.018   0.600 -0.8435 -0.1292 -0.9953
 4698SOL    HW218791   4.310   0.971   0.694 -0.2772 -2.2917 -1.3659
 4698SOL     MW18792   4.338   1.024   0.630 -0.6745 -0.8190 -0.3597
 4699SOL     OW18793   4.713   0.774   0.520  0.3504  0.3020  0.3967
 4699SOL    HW118794   4.791   0.826   0.498  0.3784  0.3225  0.5428
 4699SOL    HW218795   4.706   0.711   0.449 -0.8875  1.8208 -0.8947
 4699SOL     MW18796   4.722   0.773   0.508  0.1955  0.4990  0.2501
 4700SOL     OW18797   5.406   3.560   2.538  0.4341 -0.1869 -0.6958
 4700SOL    HW118798   5.351   3.625   2.582  2.2911  1.2002 -0.3065
 4700SOL    HW218799   5.353   3.481   2.538 -1.6762  1.1323 -0.6097
 4700SOL     MW18800   5.392   3.559   2.544  0.4016  0.1595 -0.6349
 4701SOL     OW18801   2.785   0.942   2.967 -0.0029  0.2421  0.4395
 4701SOL    HW118802   2.784   0.928   2.872  0.6996 -0.8615  0.5730
 4701SOL    HW218803   2.857   1.004   2.981  0.4840 -0.2909  0.3263
 4701SOL     MW18804   2.794   0.948   2.957  0.1494  0.0326  0.4421
 4702SOL     OW18805   2.595   3.942   2.203  0.7594 -0.1506  0.7110
 4702SOL    HW118806   2.657   3.884   2.247  0.3494 -2.1065 -1.1232
 4702SOL    HW218807   2.518   3.888   2.189 -0.6334  1.6417  1.1497
 4702SOL     MW18808   2.593   3.928   2.207  0.5286 -0.1716  0.5324
 4703SOL     OW18809   0.917   0.045   3.169 -0.2952  0.2624 -0.0398
 4703SOL    HW118810   0.891   0.021   3.080  0.4755  0.7891 -0.4208
 4703SOL    HW218811   0.853   0.002   3.225  0.4403 -1.8781 -0.7375
 4703SOL     MW18812   0.906   0.036   3.165 -0.1024  0.0558 -0.1779
 4704SOL     OW18813   1.851   3.773   2.476  0.3871 -0.2588  0.3653
 4704SOL    HW118814   1.876   3.684   2.455  1.5804  0.1989 -0.2280
 4704SOL    HW218815   1.895   3.792   2.559  3.1227  0.9230 -1.2209
 4704SOL     MW18816   1.860   3.764   2.484  0.8901 -0.0489  0.0863
 4705SOL     OW18817   0.373   4.062   2.751  0.1281 -0.0815 -0.2014
 4705SOL    HW118818   0.405   3.984   2.796 -0.8172 -0.2625  0.1635
 4705SOL    HW218819   0.415   4.058   2.665  1.8267  0.1831  0.5757
 4705SOL     MW18820   0.383   4.051   2.746  0.2245 -0.0708 -0.0552
 4706SOL     OW18821   4.825   5.047   2.559 -0.4791  0.4815 -0.0407
 4706SOL    HW118822   4.791   5.074   2.644 -0.6754  2.5596 -0.7129
 4706SOL    HW218823   4.894   5.111   2.540  0.5615 -0.8090 -0.8281
 4706SOL     MW18824   4.830   5.059   2.567 -0.3710  0.5823 -0.2275
 4707SOL     OW18825   3.801   3.078   1.142 -0.1020 -0.8010  0.3594
 4707SOL    HW118826   3.757   3.013   1.197  0.7763 -1.1666  0.6432
 4707SOL    HW218827   3.854   3.027   1.081 -1.5602 -0.4310 -1.3095
 4707SOL     MW18828   3.802   3.063   1.141 -0.1762 -0.8004  0.1821
 4708SOL     OW18829   0.302   0.066   4.491 -0.9475 -0.2581  0.2216
 4708SOL    HW118830   0.369   0.074   4.559 -1.0024  1.7972  0.0907
 4708SOL    HW218831   0.227   0.114   4.525 -1.9566 -1.5214 -0.1471
 4708SOL     MW18832   0.301   0.073   4.504 -1.0837 -0.1567  0.1577
 4709SOL     OW18833   1.729   0.214   4.502 -0.0156 -0.1159 -0.4268
 4709SOL    HW118834   1.789   0.263   4.559 -0.0457  0.7008 -1.0818
 4709SOL    HW218835   1.676   0.162   4.562 -1.6524  2.4676  0.5148
 4709SOL     MW18836   1.730   0.213   4.517 -0.2290  0.3194 -0.3901
 4710SOL     OW18837   0.889   1.535   0.679 -0.1204 -0.0179  0.1167
 4710SOL    HW118838   0.904   1.446   0.647  0.8424  0.2371 -0.1814
 4710SOL    HW218839   0.975   1.577   0.673  0.2430 -0.0159  3.2671
 4710SOL     MW18840   0.902   1.529   0.674  0.0494  0.0150  0.4818
 4711SOL     OW18841   1.106   4.238   2.804 -0.0259  0.3684  0.0898
 4711SOL    HW118842   1.177   4.176   2.783  0.7859  1.6014 -0.9322
 4711SOL    HW218843   1.048   4.188   2.862  1.0102 -1.0910 -0.0575
 4711SOL     MW18844   1.108   4.223   2.809  0.2107  0.3394 -0.0599
 4712SOL     OW18845   2.904   1.211   4.970  0.7361  0.2869  0.6987
 4712SOL    HW118846   2.818   1.237   4.935  1.2736  1.3201  0.0856
 4712SOL    HW218847   2.898   1.116   4.981 -0.9400  0.4836  1.9231
 4712SOL     MW18848   2.892   1.202   4.967  0.5903  0.4443  0.7770
 4713SOL     OW18849   2.213   5.406   3.901  0.2928 -0.8459 -0.5040
 4713SOL    HW118850   2.245   5.409   3.992  0.5536  0.3014 -0.6186
 4713SOL    HW218851   2.135   5.461   3.901  0.2712 -0.8749 -0.9670
 4713SOL     MW18852   2.207   5.413   3.913  0.3234 -0.7028 -0.5780
 4714SOL     OW18853   3.709   1.607   3.446  0.6083 -0.2686 -0.5124
 4714SOL    HW118854   3.646   1.565   3.504  0.7652  0.4248  0.1862
 4714SOL    HW218855   3.655   1.650   3.379  0.2944  0.7607  0.3811
 4714SOL     MW18856   3.694   1.608   3.445  0.5882 -0.0481 -0.3086
 4715SOL     OW18857   1.978   1.415   2.302 -0.0795  0.4043 -0.7883
 4715SOL    HW118858   2.072   1.429   2.315 -0.2223  0.6193  0.0630
 4715SOL    HW218859   1.953   1.479   2.235  0.5232 -0.1906 -1.6051
 4715SOL     MW18860   1.987   1.425   2.295 -0.0207  0.3557 -0.7839
 4716SOL     OW18861   3.002   3.841   1.217  0.1265 -0.6758  0.1292
 4716SOL    HW118862   3.020   3.898   1.142  0.5899 -0.8660  0.0946
 4716SOL    HW218863   3.087   3.828   1.259  0.1392 -1.8241 -0.2122
 4716SOL     MW18864   3.015   3.846   1.213  0.1874 -0.8472  0.0811
 4717SOL     OW18865   3.845   4.651   1.360  0.2476  0.1937  0.1635
 4717SOL    HW118866   3.877   4.628   1.273  0.8185 -0.3930  0.5234
 4717SOL    HW218867   3.779   4.719   1.344 -1.0800 -1.2575 -0.8753
 4717SOL     MW18868   3.840   4.657   1.347  0.1508 -0.0671  0.0766
 4718SOL     OW18869   2.050   3.103   4.073  0.2657 -0.6686  0.5011
 4718SOL    HW118870   2.142   3.129   4.078  0.0397  0.0699  1.0064
 4718SOL    HW218871   2.043   3.028   4.133  0.2228  0.2483  1.6720
 4718SOL     MW18872   2.061   3.096   4.081  0.2313 -0.4567  0.7157
 4719SOL     OW18873   1.389   3.341   0.621 -0.2292  0.1551 -0.0239
 4719SOL    HW118874   1.384   3.262   0.566 -1.4466  0.7153 -0.7535
 4719SOL    HW218875   1.406   3.412   0.559 -0.5240  0.6480  0.4525
 4719SOL     MW18876   1.391   3.340   0.606 -0.4228  0.2899 -0.0563
 4720SOL     OW18877   2.850   3.856   1.489 -0.4318 -0.0037 -0.0804
 4720SOL    HW118878   2.862   3.782   1.430  0.6005  0.8902 -1.0372
 4720SOL    HW218879   2.888   3.931   1.442 -0.2662  0.8789  1.3980
 4720SOL     MW18880   2.857   3.856   1.476 -0.2785  0.2237 -0.0136
 4721SOL     OW18881   5.102   3.816   1.869 -0.0264  0.2390 -0.4927
 4721SOL    HW118882   5.024   3.846   1.915 -0.2570 -1.3316  0.2348
 4721SOL    HW218883   5.171   3.877   1.895 -0.3492 -0.1074  1.3179
 4721SOL     MW18884   5.101   3.827   1.878 -0.0972 -0.0064 -0.1678
 4722SOL     OW18885   1.389   2.913   1.969 -0.3673 -0.0116  0.4998
 4722SOL    HW118886   1.479   2.941   1.979 -0.3990  0.7302 -1.0277
 4722SOL    HW218887   1.353   2.970   1.902 -0.9287 -2.5845 -1.5522
 4722SOL     MW18888   1.396   2.924   1.962 -0.4433 -0.2460  0.0416
 4723SOL     OW18889   0.394   3.188   1.192 -0.6561  0.2177 -0.1739
 4723SOL    HW118890   0.390   3.118   1.126 -2.4183 -0.6648  0.8190
 4723SOL    HW218891   0.428   3.264   1.143  0.8284 -1.1474 -1.3943
 4723SOL     MW18892   0.398   3.189   1.177 -0.6917 -0.0700 -0.2030
 4724SOL     OW18893   3.078   0.912   4.747 -0.0855 -0.5210 -0.1657
 4724SOL    HW118894   3.035   0.895   4.831 -0.5624  0.6025 -0.1605
 4724SOL    HW218895   3.006   0.910   4.683  0.0144  0.2534 -0.3112
 4724SOL     MW18896   3.063   0.910   4.750 -0.1338 -0.2780 -0.1837
 4725SOL     OW18897   5.020   0.124   4.228  0.0672  0.5012 -0.0415
 4725SOL    HW118898   4.995   0.189   4.294  2.2090  0.0396  1.3206
 4725SOL    HW218899   4.990   0.162   4.145 -0.7859  2.1178  0.9402
 4725SOL     MW18900   5.013   0.137   4.226  0.2322  0.6490  0.2586
 4726SOL     OW18901   3.398   2.839   2.351 -0.0819  0.1098 -0.0123
 4726SOL    HW118902   3.362   2.868   2.435 -0.9262 -0.5057 -0.1476
 4726SOL    HW218903   3.447   2.915   2.319 -0.7968  0.7903  0.4520
 4726SOL     MW18904   3.400   2.853   2.358 -0.2815  0.1181  0.0298
 4727SOL     OW18905   5.333   1.609   0.504  0.1872  0.7555  0.2579
 4727SOL    HW118906   5.267   1.675   0.484 -0.5415 -0.1398 -0.3358
 4727SOL    HW218907   5.288   1.525   0.494  0.7026  0.1596  2.3797
 4727SOL     MW18908   5.319   1.607   0.500  0.1599  0.5646  0.4535
 4728SOL     OW18909   0.871   1.034   5.043  0.4396  0.4648  0.4715
 4728SOL    HW118910   0.845   1.089   4.969  0.5665  1.0520  0.8554
 4728SOL    HW218911   0.948   1.078   5.080  0.2870  0.2664  1.0405
 4728SOL     MW18912   0.877   1.047   5.038  0.4363  0.5146  0.5935
 4729SOL     OW18913   0.444   2.139   1.948 -0.4869 -0.0533 -0.2123
 4729SOL    HW118914   0.387   2.067   1.920 -0.5150 -0.1800  0.1583
 4729SOL    HW218915   0.529   2.097   1.965 -0.3115  0.1164 -0.6570
 4729SOL     MW18916   0.448   2.124   1.947 -0.4681 -0.0478 -0.2217
 4730SOL     OW18917   2.796   2.859   4.570  0.1413 -0.2368  0.1217
 4730SOL    HW118918   2.851   2.835   4.496  0.8510 -1.1617  0.9197
 4730SOL    HW218919   2.826   2.946   4.596  0.2714 -0.1489 -0.3207
 4730SOL     MW18920   2.806   2.867   4.564  0.2488 -0.3439  0.1672
 4731SOL     OW18921   2.580   0.903   4.788 -0.4159 -0.3745  0.0712
 4731SOL    HW118922   2.645   0.834   4.799 -0.8280 -1.0798 -1.6539
 4731SOL    HW218923   2.613   0.976   4.840  0.2825 -1.6815  1.5287
 4731SOL     MW18924   2.592   0.904   4.796 -0.3792 -0.6321  0.0369
 4732SOL     OW18925   0.863   1.900   4.396  0.2971  0.6260  0.3252
 4732SOL    HW118926   0.773   1.867   4.403  0.7294 -0.4823  0.9482
 4732SOL    HW218927   0.886   1.927   4.484  0.6049  0.8252  0.1842
 4732SOL     MW18928   0.855   1.899   4.408  0.3919  0.5096  0.3869
 4733SOL     OW18929   5.443   0.698   4.937  0.0197 -0.6950 -0.6684
 4733SOL    HW118930   5.388   0.700   5.016 -0.1753 -1.5345 -0.7770
 4733SOL    HW218931   5.479   0.610   4.936  1.5553 -0.1046 -0.4808
 4733SOL     MW18932   5.441   0.687   4.947  0.1913 -0.7269 -0.6583
 4734SOL     OW18933   0.439   3.715   3.366 -0.0354  0.2232  0.2792
 4734SOL    HW118934   0.402   3.642   3.317  0.1101 -0.4408  1.1428
 4734SOL    HW218935   0.388   3.718   3.447  0.0979  0.9454  0.3450
 4734SOL     MW18936   0.428   3.706   3.370  0.0003  0.2306  0.3982
 4735SOL     OW18937   0.102   2.250   1.411  0.4837 -0.0908 -0.9699
 4735SOL    HW118938   0.182   2.247   1.358  0.5755  0.1482 -0.8460
 4735SOL    HW218939   0.043   2.308   1.362  0.9832  1.0531 -0.2465
 4735SOL     MW18940   0.105   2.257   1.398  0.5594  0.0862 -0.8614
 4736SOL     OW18941   2.174   3.925   2.769  0.2336 -0.2853 -0.0528
 4736SOL    HW118942   2.171   3.920   2.865  0.4489 -1.9208 -0.1084
 4736SOL    HW218943   2.087   3.898   2.741 -0.1138  1.0263 -0.3279
 4736SOL     MW18944   2.163   3.921   2.778  0.2167 -0.3268 -0.0951
 4737SOL     OW18945   0.698   2.053   1.447  1.2232  0.0728  0.0169
 4737SOL    HW118946   0.678   2.011   1.363  1.3708 -2.4497  1.1389
 4737SOL    HW218947   0.708   1.980   1.508  1.1485  1.8172  2.2459
 4737SOL     MW18948   0.697   2.038   1.444  1.2325 -0.0268  0.4459
 4738SOL     OW18949   2.422   2.709   0.209 -0.3384 -0.7098 -0.2870
 4738SOL    HW118950   2.460   2.761   0.280 -1.9022 -0.4679  0.4271
 4738SOL    HW218951   2.493   2.652   0.179  0.3767 -0.7689  1.4321
 4738SOL     MW18952   2.436   2.708   0.214 -0.4470 -0.6864  0.0245
 4739SOL     OW18953   1.650   3.561   0.317  0.2646 -0.0750  0.4009
 4739SOL    HW118954   1.562   3.565   0.355 -0.3487 -1.5172 -0.7727
 4739SOL    HW218955   1.682   3.651   0.322  0.2689 -0.1145  4.3026
 4739SOL     MW18956   1.643   3.573   0.322  0.1866 -0.2647  0.7502
 4740SOL     OW18957   4.061   3.479   4.628 -0.5469  0.8135  0.3133
 4740SOL    HW118958   3.973   3.459   4.595 -0.9412 -0.9187  2.2117
 4740SOL    HW218959   4.047   3.535   4.704  0.0415  1.0706  0.2398
 4740SOL     MW18960   4.048   3.483   4.633 -0.5220  0.6247  0.5469
 4741SOL     OW18961   4.045   1.859   3.217 -0.3460 -0.1908  0.4366
 4741SOL    HW118962   4.029   1.836   3.125  0.0838  0.2543  0.2443
 4741SOL    HW218963   3.958   1.856   3.258 -0.6741  0.4427 -0.1796
 4741SOL     MW18964   4.031   1.856   3.210 -0.3329 -0.0527  0.3331
 4742SOL     OW18965   2.988   1.720   0.294  0.2806  0.0550 -0.1509
 4742SOL    HW118966   3.072   1.687   0.263 -0.0590 -0.7299 -0.2487
 4742SOL    HW218967   2.991   1.814   0.275  1.5326  0.2303  0.7317
 4742SOL     MW18968   3.000   1.728   0.288  0.3974 -0.0230 -0.0504
 4743SOL     OW18969   3.935   2.269   2.868  0.3958 -0.0176 -0.0811
 4743SOL    HW118970   3.853   2.288   2.914  0.6567  1.6952 -0.2752
 4743SOL    HW218971   3.966   2.354   2.837  1.8593 -0.7327 -0.6835
 4743SOL     MW18972   3.929   2.282   2.870  0.6165  0.1101 -0.1831
 4744SOL     OW18973   4.594   1.111   3.100  0.3221 -0.3120 -0.0428
 4744SOL    HW118974   4.537   1.181   3.133 -0.5004 -0.7429 -0.5034
 4744SOL    HW218975   4.617   1.139   3.012  1.9299  0.4940  0.6021
 4744SOL     MW18976   4.590   1.124   3.093  0.4226 -0.2640 -0.0192
 4745SOL     OW18977   3.448   4.543   4.314  0.8193  0.1229 -0.6182
 4745SOL    HW118978   3.418   4.620   4.363  1.5166  0.1463 -0.2076
 4745SOL    HW218979   3.431   4.469   4.372  0.6756  0.0325 -0.7762
 4745SOL     MW18980   3.442   4.544   4.328  0.8901  0.1144 -0.5859
 4746SOL     OW18981   1.110   4.871   1.710 -0.1266 -0.3002  0.1421
 4746SOL    HW118982   1.173   4.857   1.639 -2.6685 -1.3382 -2.0622
 4746SOL    HW218983   1.111   4.789   1.759 -0.5246 -0.7190 -0.5408
 4746SOL     MW18984   1.118   4.859   1.707 -0.5030 -0.4867 -0.2275
 4747SOL     OW18985   3.040   0.241   2.959 -0.5996 -0.4500  0.6273
 4747SOL    HW118986   3.072   0.324   2.995  1.6050 -0.4965 -0.9828
 4747SOL    HW218987   3.025   0.259   2.866  0.0130 -1.8533  0.2245
 4747SOL     MW18988   3.042   0.254   2.952 -0.2389 -0.6356  0.3697
 4748SOL     OW18989   1.986   3.783   1.064  1.0439  0.2312 -0.4289
 4748SOL    HW118990   1.982   3.856   1.127  1.9016  0.6421 -0.8354
 4748SOL    HW218991   1.949   3.819   0.983 -2.3969 -1.0017  0.4101
 4748SOL     MW18992   1.981   3.797   1.062  0.7132  0.1260 -0.3735
 4749SOL     OW18993   1.259   2.177   1.838  0.3226  0.5795  0.2231
 4749SOL    HW118994   1.301   2.259   1.810 -0.0250  1.0114  0.9350
 4749SOL    HW218995   1.201   2.203   1.910 -1.7275  0.1241 -1.1855
 4749SOL     MW18996   1.257   2.191   1.844  0.0157  0.5765  0.1339
 4750SOL     OW18997   3.519   0.792   2.477  0.0518 -0.4671 -0.0714
 4750SOL    HW118998   3.465   0.713   2.477 -2.9643  1.4268  0.3591
 4750SOL    HW218999   3.525   0.818   2.385  0.3041 -0.6886 -0.1206
 4750SOL     MW19000   3.513   0.785   2.465 -0.3020 -0.2530 -0.0226
 4751SOL     OW19001   3.757   4.501   5.173  0.4796 -0.3483 -0.5617
 4751SOL    HW119002   3.676   4.493   5.224 -0.3398  0.0021 -1.7672
 4751SOL    HW219003   3.790   4.588   5.197 -0.1071 -0.0221 -0.9023
 4751SOL     MW19004   3.751   4.511   5.183  0.2996 -0.2617 -0.7596
 4752SOL     OW19005   3.321   1.963   3.268  0.4807  0.1344 -0.2726
 4752SOL    HW119006   3.231   1.965   3.237  0.6219 -0.1219 -0.7218
 4752SOL    HW219007   3.346   2.055   3.276  0.3889  0.2068 -0.7817
 4752SOL     MW19008   3.313   1.975   3.265  0.4871  0.1108 -0.3953
 4753SOL     OW19009   5.222   3.198   4.451  0.0373 -0.4292  0.2241
 4753SOL    HW119010   5.180   3.275   4.488  2.2827 -0.0335  2.1490
 4753SOL    HW219011   5.164   3.125   4.473 -0.1535  0.2101  1.9051
 4753SOL     MW19012   5.209   3.198   4.458  0.3003 -0.2967  0.6857
 4754SOL     OW19013   4.610   3.411   1.508 -0.0396 -0.2882 -0.0090
 4754SOL    HW119014   4.564   3.487   1.472  0.1990  0.8080  1.8792
 4754SOL    HW219015   4.658   3.445   1.583 -2.4516 -2.7924  2.9529
 4754SOL     MW19016   4.610   3.425   1.513 -0.3178 -0.4684  0.6119
 4755SOL     OW19017   4.002   1.107   0.665 -0.5731  0.3460  0.1506
 4755SOL    HW119018   3.982   1.197   0.688  1.8393  0.2202  3.5752
 4755SOL    HW219019   4.088   1.111   0.624 -1.0804 -0.2967 -1.0060
 4755SOL     MW19020   4.011   1.119   0.663 -0.3292  0.2476  0.4409
 4756SOL     OW19021   4.604   0.607   4.987 -0.0328 -0.3360 -0.1814
 4756SOL    HW119022   4.532   0.590   4.927 -0.6847  0.2675  0.4090
 4756SOL    HW219023   4.625   0.700   4.975 -0.2020 -0.1971  0.5526
 4756SOL     MW19024   4.598   0.617   4.978 -0.1379 -0.2410 -0.0119
 4757SOL     OW19025   3.322   4.642   3.335 -0.3180 -0.6270 -1.0266
 4757SOL    HW119026   3.327   4.687   3.251  0.6721 -0.0057 -0.6556
 4757SOL    HW219027   3.408   4.602   3.347 -0.0049  0.3562  0.2525
 4757SOL     MW19028   3.334   4.643   3.326 -0.1511 -0.4216 -0.8154
 4758SOL     OW19029   2.069   1.172   0.238  0.3603  0.2118 -0.2873
 4758SOL    HW119030   1.989   1.168   0.291  0.1485  0.2589 -0.6012
 4758SOL    HW219031   2.111   1.254   0.264 -0.2564  0.7344 -0.9184
 4758SOL     MW19032   2.064   1.182   0.248  0.2543  0.2847 -0.4083
 4759SOL     OW19033   5.053   1.777   3.254  0.1304 -0.0961 -1.2959
 4759SOL    HW119034   5.116   1.710   3.278 -0.3754 -0.5597 -1.2621
 4759SOL    HW219035   4.980   1.730   3.213 -1.4620  0.0880  1.0855
 4759SOL     MW19036   5.051   1.763   3.252 -0.1382 -0.1319 -0.9868
 4760SOL     OW19037   3.536   4.263   4.660 -0.1416 -0.1494  0.0363
 4760SOL    HW119038   3.600   4.226   4.599 -0.5972 -0.9713  0.0477
 4760SOL    HW219039   3.570   4.350   4.680  0.6676 -0.3516 -0.4159
 4760SOL     MW19040   3.549   4.270   4.655 -0.0963 -0.2805 -0.0202
 4761SOL     OW19041   3.309   3.970   5.038 -0.0971  0.1160  0.1011
 4761SOL    HW119042   3.342   4.057   5.016  0.4858 -0.4808 -1.5476
 4761SOL    HW219043   3.216   3.982   5.053 -0.0428  1.0071 -0.2283
 4761SOL     MW19044   3.302   3.983   5.037 -0.0156  0.1537 -0.1521
 4762SOL     OW19045   4.614   2.098   0.909  0.6021 -0.1336  0.3796
 4762SOL    HW119046   4.662   2.033   0.962  0.7932  0.3241  0.7727
 4762SOL    HW219047   4.524   2.067   0.910  0.4695  0.2429  1.5758
 4762SOL     MW19048   4.609   2.085   0.916  0.6096 -0.0268  0.5831
 4763SOL     OW19049   0.638   0.340   0.809 -0.0248 -0.2913 -0.1199
 4763SOL    HW119050   0.687   0.344   0.891  0.6225 -3.2245 -0.2366
 4763SOL    HW219051   0.637   0.247   0.786 -2.8662  0.0357 -1.8672
 4763SOL     MW19052   0.644   0.329   0.817 -0.3057 -0.6249 -0.3585
 4764SOL     OW19053   1.191   2.638   0.704 -0.1431  0.1776 -0.5735
 4764SOL    HW119054   1.204   2.548   0.672  0.0361 -0.2047  0.5429
 4764SOL    HW219055   1.247   2.691   0.647 -0.7687 -0.3194 -1.6848
 4764SOL     MW19056   1.200   2.633   0.692 -0.2002  0.0651 -0.5729
 4765SOL     OW19057   5.043   0.736   1.906 -0.5828  0.3134 -0.3045
 4765SOL    HW119058   5.025   0.686   1.827  1.4228 -0.9205 -0.0327
 4765SOL    HW219059   5.003   0.684   1.976  0.5075 -0.3327 -0.1514
 4765SOL     MW19060   5.035   0.723   1.905 -0.1865  0.0727 -0.2501
 4766SOL     OW19061   0.261   0.627   3.041  0.0137  0.2152 -0.0102
 4766SOL    HW119062   0.322   0.692   3.073  0.6431  1.3606 -3.2029
 4766SOL    HW219063   0.312   0.546   3.035 -0.2485 -0.1680  2.0788
 4766SOL     MW19064   0.275   0.625   3.045  0.0607  0.3128 -0.1515
 4767SOL     OW19065   4.717   1.165   2.864  0.3884  0.4734 -0.2944
 4767SOL    HW119066   4.760   1.091   2.819  1.0423  0.4354  0.3890
 4767SOL    HW219067   4.782   1.235   2.862 -0.6601  1.4711 -2.0162
 4767SOL     MW19068   4.731   1.164   2.858  0.3379  0.5963 -0.4273
 4768SOL     OW19069   0.932   3.998   0.038  0.2721 -0.1990 -0.2401
 4768SOL    HW119070   0.930   4.090   0.064  0.9994 -0.2963  0.1923
 4768SOL    HW219071   0.878   3.994  -0.040 -0.1289  0.5145 -0.0105
 4768SOL     MW19072   0.925   4.010   0.032  0.3139 -0.1201 -0.1553
 4769SOL     OW19073   2.738   4.036   1.939 -0.3061  0.4892  0.3225
 4769SOL    HW119074   2.749   3.973   1.868 -0.4464  0.7408  0.0750
 4769SOL    HW219075   2.724   3.983   2.017 -1.0694  0.2269  0.0088
 4769SOL     MW19076   2.738   4.021   1.940 -0.4218  0.4878  0.2506
 4770SOL     OW19077   2.649   4.998   0.064 -0.7709  0.4014 -0.4919
 4770SOL    HW119078   2.640   5.012   0.158 -1.6930  1.2074 -0.6914
 4770SOL    HW219079   2.640   4.903   0.053  1.2096  0.0604  0.4093
 4770SOL     MW19080   2.647   4.987   0.075 -0.6354  0.4609 -0.4021
 4771SOL     OW19081   2.606   4.368   1.219  0.2274 -0.5411  0.1974
 4771SOL    HW119082   2.594   4.274   1.233  1.0735 -0.7255 -0.2178
 4771SOL    HW219083   2.665   4.396   1.289  1.0328 -0.5995 -0.4412
 4771SOL     MW19084   2.612   4.360   1.229  0.4388 -0.5722  0.0625
 4772SOL     OW19085   4.455   4.268   0.913  0.0352 -0.2926 -0.4266
 4772SOL    HW119086   4.396   4.330   0.956 -0.6164 -1.5039  0.4690
 4772SOL    HW219087   4.525   4.323   0.878  0.0468  0.8527  1.2748
 4772SOL     MW19088   4.456   4.283   0.914 -0.0467 -0.3011 -0.0941
 4773SOL     OW19089   2.208   2.600   0.049 -0.6393 -0.2830  0.4796
 4773SOL    HW119090   2.178   2.683   0.010  1.0402 -0.0269 -0.3751
 4773SOL    HW219091   2.291   2.622   0.090  0.5802 -1.7964 -1.0225
 4773SOL     MW19092   2.214   2.614   0.049 -0.2682 -0.4439  0.1779
 4774SOL     OW19093   0.502   3.305   2.735 -0.0034 -0.1668 -0.2493
 4774SOL    HW119094   0.476   3.215   2.754  1.8578 -0.7923 -0.5204
 4774SOL    HW219095   0.492   3.350   2.819 -0.4384 -0.7451  0.0171
 4774SOL     MW19096   0.498   3.300   2.748  0.1792 -0.3209 -0.2499
 4775SOL     OW19097   2.096   3.214   5.252  0.8460 -0.3060  0.3041
 4775SOL    HW119098   2.026   3.180   5.195  0.5407  2.1123 -0.9118
 4775SOL    HW219099   2.075   3.178   5.338 -1.4747 -0.2997 -0.1694
 4775SOL     MW19100   2.084   3.205   5.256  0.5099  0.0043  0.0878
 4776SOL     OW19101   4.951   3.735   0.272 -0.1613 -0.1701  0.2392
 4776SOL    HW119102   5.044   3.744   0.251 -0.1480  1.6602  0.9040
 4776SOL    HW219103   4.943   3.768   0.361 -1.4836 -0.0948  0.1183
 4776SOL     MW19104   4.962   3.741   0.281 -0.3289  0.0738  0.3088
 4777SOL     OW19105   3.973   3.373   2.446  0.0767  0.0199  0.2869
 4777SOL    HW119106   3.950   3.453   2.494 -0.4586  1.1520 -1.7421
 4777SOL    HW219107   4.065   3.386   2.422  0.1738 -0.2806  0.4918
 4777SOL     MW19108   3.982   3.385   2.449  0.0206  0.1263  0.0534
 4778SOL     OW19109   2.488   0.695   3.268  0.0060 -0.2991  0.0125
 4778SOL    HW119110   2.489   0.603   3.292 -1.4746 -0.3446  0.0182
 4778SOL    HW219111   2.565   0.707   3.213  1.2875 -1.0882  1.5553
 4778SOL     MW19112   2.498   0.685   3.264 -0.0195 -0.4060  0.2107
 4779SOL     OW19113   1.158   0.035   1.040 -0.3183 -0.4776 -0.2289
 4779SOL    HW119114   1.240   0.002   1.078 -1.0670 -0.3899  1.5476
 4779SOL    HW219115   1.166   0.015   0.947  1.3160 -1.3289  0.0484
 4779SOL     MW19116   1.170   0.028   1.033 -0.2049 -0.5753  0.0340
 4780SOL     OW19117   1.236   1.085   1.952  0.0153 -0.1520  0.4624
 4780SOL    HW119118   1.233   1.176   1.924  1.2824 -0.1540  0.2257
 4780SOL    HW219119   1.256   1.089   2.045  0.8636 -0.1765  0.2924
 4780SOL     MW19120   1.238   1.097   1.960  0.2861 -0.1554  0.4103
 4781SOL     OW19121   4.031   3.091   0.265  0.0325  0.0314  0.3471
 4781SOL    HW119122   4.059   3.006   0.301 -0.0275 -0.0255  0.2591
 4781SOL    HW219123   3.936   3.090   0.275  0.1261  0.5956  1.4766
 4781SOL     MW19124   4.022   3.080   0.271  0.0368  0.0963  0.4804
 4782SOL     OW19125   4.791   3.778   3.917 -0.4378 -0.0329 -0.7126
 4782SOL    HW119126   4.870   3.778   3.971 -0.5844 -0.6252 -0.4936
 4782SOL    HW219127   4.822   3.794   3.828  0.0305 -1.2181 -0.7753
 4782SOL     MW19128   4.805   3.780   3.913 -0.3966 -0.2604 -0.6926
 4783SOL     OW19129   4.261   0.509   0.068 -0.0851  0.0418 -0.1824
 4783SOL    HW119130   4.291   0.556  -0.010 -1.6773  0.5336 -0.5422
 4783SOL    HW219131   4.199   0.569   0.109 -0.5149 -0.8881  0.5507
 4783SOL     MW19132   4.257   0.523   0.063 -0.3439 -0.0143 -0.1346
 4784SOL     OW19133   2.327   4.739   4.749  0.4689 -0.4789  0.2324
 4784SOL    HW119134   2.247   4.740   4.802 -1.4333 -1.0462 -2.4097
 4784SOL    HW219135   2.337   4.829   4.719  1.1545 -0.3066  0.9271
 4784SOL     MW19136   2.318   4.750   4.752  0.3132 -0.5295 -0.0169
 4785SOL     OW19137   2.251   1.737   0.690 -0.0849 -0.7255 -0.4907
 4785SOL    HW119138   2.187   1.729   0.619  1.1860  0.3022 -1.8300
 4785SOL    HW219139   2.273   1.830   0.692 -1.2830 -0.3939  2.4243
 4785SOL     MW19140   2.245   1.748   0.681 -0.0756 -0.5515 -0.2890
 4786SOL     OW19141   2.981   2.646   2.602 -0.4409  0.5859  0.1786
 4786SOL    HW119142   2.987   2.633   2.507 -2.7317  1.1665 -0.1027
 4786SOL    HW219143   2.940   2.567   2.635  1.3683 -0.1135  0.9110
 4786SOL     MW19144   2.977   2.634   2.594 -0.5026  0.5707  0.2364
 4787SOL     OW19145   4.791   5.285   0.942  0.3872  0.3874  0.3570
 4787SOL    HW119146   4.702   5.309   0.918 -1.0492 -0.2173  4.3308
 4787SOL    HW219147   4.815   5.215   0.882 -1.2945  1.3394 -1.5392
 4787SOL     MW19148   4.783   5.279   0.931 -0.0120  0.4318  0.6229
 4788SOL     OW19149   4.525   1.205   1.249 -0.1680  0.1867  0.2323
 4788SOL    HW119150   4.576   1.132   1.213  1.2528  0.6464  1.1970
 4788SOL    HW219151   4.571   1.283   1.218 -0.5212  0.6261  0.7957
 4788SOL     MW19152   4.538   1.205   1.241 -0.0314  0.3018  0.4279
 4789SOL     OW19153   3.066   1.167   3.565  0.3572  0.3382 -0.0047
 4789SOL    HW119154   2.981   1.138   3.598  0.9445  0.5725  1.8603
 4789SOL    HW219155   3.066   1.262   3.580  0.3840  0.5930 -1.4258
 4789SOL     MW19156   3.056   1.176   3.571  0.4358  0.4008  0.0521
 4790SOL     OW19157   4.044   0.441   4.423  0.3213 -0.6272 -0.6255
 4790SOL    HW119158   4.002   0.357   4.402  0.1011 -0.3709 -1.2156
 4790SOL    HW219159   4.125   0.440   4.373 -0.4789  0.2372 -1.9823
 4790SOL     MW19160   4.049   0.430   4.414  0.1907 -0.4838 -0.8748
 4791SOL     OW19161   4.101   2.353   4.248  0.5202 -0.4802  0.6363
 4791SOL    HW119162   4.128   2.437   4.284  0.3621 -0.0515 -0.2158
 4791SOL    HW219163   4.017   2.335   4.290  1.6813 -1.4248  2.6722
 4791SOL     MW19164   4.094   2.361   4.258  0.6486 -0.5463  0.7878
 4792SOL     OW19165   2.030   4.034   3.976  0.4668  0.1562 -0.1038
 4792SOL    HW119166   2.120   4.065   3.978  1.1121 -1.5702  1.7460
 4792SOL    HW219167   2.038   3.939   3.981 -1.4493 -0.1625 -1.9397
 4792SOL     MW19168   2.042   4.026   3.977  0.3042 -0.1056 -0.1020
 4793SOL     OW19169   1.514   1.627   2.083 -0.0720  0.1509 -0.4449
 4793SOL    HW119170   1.600   1.588   2.068 -0.0005 -1.1142  2.5541
 4793SOL    HW219171   1.534   1.712   2.123 -0.1541 -0.3689  0.7483
 4793SOL     MW19172   1.528   1.633   2.086 -0.0734 -0.0776  0.0918
 4794SOL     OW19173   4.968   3.201   1.519 -0.1606  0.1175 -0.0853
 4794SOL    HW119174   4.958   3.238   1.431 -1.9675  0.9098  0.4176
 4794SOL    HW219175   4.941   3.271   1.578  0.1009 -0.7244  1.0744
 4794SOL     MW19176   4.963   3.215   1.516 -0.3584  0.1111  0.1276
 4795SOL     OW19177   2.205   0.528   3.675  0.5857 -0.3774  0.5649
 4795SOL    HW119178   2.237   0.604   3.723 -0.1495 -0.0215  0.5159
 4795SOL    HW219179   2.185   0.463   3.742 -1.4976  0.5158  0.8784
 4795SOL     MW19180   2.206   0.529   3.689  0.2249 -0.2175  0.5988
 4796SOL     OW19181   0.055   4.113   2.335  0.3625 -0.4838 -0.0928
 4796SOL    HW119182   0.112   4.057   2.283 -0.0660 -1.5181  0.5155
 4796SOL    HW219183   0.012   4.053   2.396 -0.1323  0.5114  0.5607
 4796SOL     MW19184   0.057   4.098   2.336  0.2443 -0.4888  0.0687
 4797SOL     OW19185   4.534   4.384   0.000 -0.4911 -0.0920  0.1394
 4797SOL    HW119186   4.503   4.305   0.045 -0.6211 -0.2436 -0.2190
 4797SOL    HW219187   4.456   4.424  -0.037 -0.4099  0.1463  0.2163
 4797SOL     MW19188   4.520   4.379   0.001 -0.4974 -0.0809  0.1033
 4798SOL     OW19189   1.688   2.665   4.914 -0.2807  0.4904 -0.9618
 4798SOL    HW119190   1.738   2.647   4.994 -1.2729  1.0591 -0.2034
 4798SOL    HW219191   1.730   2.610   4.847  0.2883 -0.3112  0.0337
 4798SOL     MW19192   1.700   2.656   4.915 -0.3349  0.4606 -0.7373
 4799SOL     OW19193   1.823   2.258   0.177 -0.3029  0.3718 -0.3868
 4799SOL    HW119194   1.837   2.164   0.185 -0.9689  0.3014  0.0549
 4799SOL    HW219195   1.888   2.287   0.113 -1.1392 -0.6510 -1.7323
 4799SOL     MW19196   1.833   2.250   0.170 -0.4952  0.2319 -0.5025
 4800SOL     OW19197   0.055   3.381   3.268 -0.1614 -0.0614  0.0435
 4800SOL    HW119198   0.069   3.473   3.292 -1.4837  0.5575 -1.4105
 4800SOL    HW219199  -0.035   3.363   3.296 -0.2692 -0.5821 -0.6348
 4800SOL     MW19200   0.045   3.391   3.275 -0.3445 -0.0489 -0.2295
 4801SOL     OW19201   1.861   0.260   2.649  0.1345 -0.4137  0.5279
 4801SOL    HW119202   1.872   0.274   2.743  1.7763  0.6774  0.2348
 4801SOL    HW219203   1.856   0.165   2.639  0.5329 -0.5714  1.6718
 4801SOL     MW19204   1.862   0.249   2.659  0.3957 -0.2942  0.6368
 4802SOL     OW19205   2.004   3.386   0.501 -0.4241 -0.0696  0.7683
 4802SOL    HW119206   2.046   3.329   0.436 -0.1056  0.8695  0.1378
 4802SOL    HW219207   1.920   3.409   0.461  0.1035  1.1459  0.3161
 4802SOL     MW19208   1.999   3.381   0.487 -0.3158  0.2062  0.6297
 4803SOL     OW19209   2.663   1.967   3.922 -0.1211 -0.7020  0.2162
 4803SOL    HW119210   2.599   2.018   3.971 -1.4645 -0.9350 -1.2151
 4803SOL    HW219211   2.644   1.876   3.945  1.2395 -0.6840  1.5505
 4803SOL     MW19212   2.652   1.962   3.931 -0.1189 -0.7295  0.2038
 4804SOL     OW19213   3.794   3.392   4.508  0.5504  0.0895 -0.4040
 4804SOL    HW119214   3.730   3.335   4.550  1.0526  0.2317  0.5846
 4804SOL    HW219215   3.758   3.480   4.515  1.0408  0.2300  0.5685
 4804SOL     MW19216   3.781   3.396   4.514  0.6775  0.1257 -0.1530
 4805SOL     OW19217   2.965   4.879   2.736 -0.0031  0.0147  0.0356
 4805SOL    HW119218   3.011   4.802   2.771 -0.4580  0.0854  0.8303
 4805SOL    HW219219   3.035   4.939   2.711  0.3503 -0.1861  0.5150
 4805SOL     MW19220   2.980   4.877   2.738 -0.0161 -0.0020  0.1987
 4806SOL     OW19221   2.598   2.030   3.365  0.2572  0.1919 -0.4983
 4806SOL    HW119222   2.637   2.104   3.412  0.2447 -0.3436  0.3799
 4806SOL    HW219223   2.510   2.060   3.342  0.7151  0.9386 -1.3586
 4806SOL     MW19224   2.592   2.043   3.368  0.3142  0.2189 -0.4960
 4807SOL     OW19225   5.053   4.857   0.809 -0.4440  0.0275  0.1005
 4807SOL    HW119226   4.994   4.785   0.786  0.7196 -0.9883  0.1615
 4807SOL    HW219227   5.111   4.820   0.876  1.5316  0.3380 -1.3556
 4807SOL     MW19228   5.053   4.843   0.815 -0.0422 -0.0628 -0.0781
 4808SOL     OW19229   4.123   3.455   1.930  0.2372  0.0095 -0.7159
 4808SOL    HW119230   4.065   3.480   2.002  1.5749 -0.0658  0.4217
 4808SOL    HW219231   4.130   3.534   1.876  0.4197  0.5431  0.0729
 4808SOL     MW19232   4.116   3.468   1.932  0.4318  0.0682 -0.4693
 4809SOL     OW19233   0.140   4.932   4.679  0.7220  0.0327  0.5833
 4809SOL    HW119234   0.124   4.969   4.593 -0.5585  0.1845  0.8675
 4809SOL    HW219235   0.148   5.007   4.737 -1.5244 -0.0457  1.0971
 4809SOL     MW19236   0.139   4.946   4.676  0.2705  0.0421  0.6855
 4810SOL     OW19237   5.214   2.043   0.249 -0.3481 -0.4559  0.3077
 4810SOL    HW119238   5.236   1.984   0.177 -0.2471 -0.5985  0.4563
 4810SOL    HW219239   5.291   2.042   0.306 -0.3686 -0.2275  0.3421
 4810SOL     MW19240   5.227   2.035   0.247 -0.3378 -0.4449  0.3311
 4811SOL     OW19241   2.888   3.296   4.283 -0.1475 -0.0412 -0.2702
 4811SOL    HW119242   2.868   3.202   4.285 -0.0951 -0.0376  1.0988
 4811SOL    HW219243   2.852   3.330   4.365  1.1580  0.8610 -0.0470
 4811SOL     MW19244   2.881   3.288   4.293  0.0263  0.0748 -0.0663
 4812SOL     OW19245   2.340   0.772   4.040 -0.2944 -0.2454  0.1201
 4812SOL    HW119246   2.350   0.771   3.944 -0.6876  1.3008  0.0363
 4812SOL    HW219247   2.247   0.789   4.054 -0.5282 -1.9573  0.8053
 4812SOL     MW19248   2.329   0.774   4.029 -0.3747 -0.2666  0.1971
 4813SOL     OW19249   4.306   5.444   3.803  0.0180  0.1466 -0.0653
 4813SOL    HW119250   4.298   5.526   3.755 -0.0283 -0.3936 -1.0144
 4813SOL    HW219251   4.280   5.465   3.892 -4.2301  0.2753 -1.1167
 4813SOL     MW19252   4.302   5.457   3.808 -0.5317  0.0939 -0.3214
 4814SOL     OW19253   3.350   3.529   4.784 -0.0127 -0.2653  0.2172
 4814SOL    HW119254   3.267   3.484   4.801 -0.4431 -0.1507 -1.3722
 4814SOL    HW219255   3.346   3.608   4.838 -1.5895  0.4283 -0.8333
 4814SOL     MW19256   3.339   3.534   4.793 -0.2696 -0.1618 -0.1207
 4815SOL     OW19257   0.924   4.291   1.183 -0.5392  0.4048  0.2892
 4815SOL    HW119258   0.951   4.317   1.095  1.0439  0.3949  0.7383
 4815SOL    HW219259   0.883   4.370   1.219 -1.9987  0.1590 -0.7108
 4815SOL     MW19260   0.922   4.305   1.176 -0.5234  0.3721  0.2187
 4816SOL     OW19261   2.089   5.274   3.370 -0.0460  0.0343 -0.1480
 4816SOL    HW119262   2.167   5.307   3.325  0.4793  0.6973  1.1905
 4816SOL    HW219263   2.103   5.297   3.462 -1.3762 -0.7109  0.2674
 4816SOL     MW19264   2.101   5.281   3.376 -0.1490  0.0237  0.0765
 4817SOL     OW19265   3.553   5.456   2.586 -0.5536  0.0537 -0.6913
 4817SOL    HW119266   3.577   5.427   2.674  1.7549 -1.2808 -1.6692
 4817SOL    HW219267   3.578   5.548   2.584 -0.1138 -0.0406 -0.0990
 4817SOL     MW19268   3.560   5.464   2.597 -0.2018 -0.1292 -0.7406
 4818SOL     OW19269   3.057   0.672   1.574 -0.0881  0.4265 -0.1431
 4818SOL    HW119270   3.060   0.752   1.521 -0.1437  0.5661  0.0632
 4818SOL    HW219271   2.967   0.639   1.564  0.7699 -1.3979 -2.8477
 4818SOL     MW19272   3.046   0.678   1.566  0.0146  0.2108 -0.4629
 4819SOL     OW19273   0.840   0.686   3.916  0.3455 -0.4289  0.0883
 4819SOL    HW119274   0.834   0.623   3.844 -0.4463  1.7511 -1.8761
 4819SOL    HW219275   0.923   0.666   3.959  0.9149 -1.7193 -1.5065
 4819SOL     MW19276   0.850   0.675   3.912  0.3170 -0.3150 -0.3673
 4820SOL     OW19277   4.607   2.857   2.357  0.2242  0.3553  0.0086
 4820SOL    HW119278   4.614   2.935   2.413 -0.8453  1.0449 -0.7642
 4820SOL    HW219279   4.604   2.784   2.418  1.2989  0.8964  0.7565
 4820SOL     MW19280   4.607   2.858   2.372  0.2249  0.5128  0.0054
 4821SOL     OW19281   5.027   4.270   4.646  0.6798  0.1969  0.7433
 4821SOL    HW119282   5.053   4.340   4.706  1.7270 -0.5008  1.1201
 4821SOL    HW219283   4.987   4.317   4.572  0.7649  1.1490  1.2773
 4821SOL     MW19284   5.025   4.285   4.644  0.8248  0.2295  0.8599
 4822SOL     OW19285   5.043   2.223   3.552 -0.4773  0.3040  0.3519
 4822SOL    HW119286   5.027   2.146   3.496  0.2595  0.0164  0.5255
 4822SOL    HW219287   5.089   2.285   3.494 -1.4265  0.7804  0.0982
 4822SOL     MW19288   5.047   2.221   3.537 -0.5045  0.3282  0.3416
 4823SOL     OW19289   3.518   4.679   2.063 -0.2852 -0.5418  0.0348
 4823SOL    HW119290   3.539   4.706   2.152 -0.7366  0.2350 -0.0865
 4823SOL    HW219291   3.463   4.601   2.073  0.1140 -0.7752  0.4180
 4823SOL     MW19292   3.514   4.672   2.075 -0.2919 -0.4722  0.0683
 4824SOL     OW19293   3.242   0.612   0.865  0.3857 -0.0290 -0.1548
 4824SOL    HW119294   3.269   0.699   0.835  0.5598  1.5924  4.0191
 4824SOL    HW219295   3.309   0.586   0.927 -0.1654 -2.8212 -0.5665
 4824SOL     MW19296   3.254   0.620   0.869  0.3374 -0.1789  0.3268
 4825SOL     OW19297   2.537   4.103   1.294  0.4880 -0.1579 -0.3166
 4825SOL    HW119298   2.596   4.113   1.369  1.0393 -0.1201 -0.7492
 4825SOL    HW219299   2.451   4.090   1.333  0.5074  1.4394  0.3194
 4825SOL     MW19300   2.534   4.103   1.308  0.5610  0.0514 -0.2906
 4826SOL     OW19301   1.101   1.518   4.592 -0.1338 -0.3669 -0.6872
 4826SOL    HW119302   1.081   1.611   4.586  0.5195 -0.1634  0.0730
 4826SOL    HW219303   1.172   1.513   4.656 -0.6164 -1.4536 -0.2060
 4826SOL     MW19304   1.108   1.529   4.600 -0.1120 -0.4799 -0.5283
 4827SOL     OW19305   2.619   3.599   4.141  0.1283  0.4058  0.0254
 4827SOL    HW119306   2.654   3.511   4.123  1.4563  0.8862  0.1920
 4827SOL    HW219307   2.526   3.592   4.120  0.2462 -1.0000 -0.1251
 4827SOL     MW19308   2.611   3.587   4.136  0.3134  0.2874  0.0275
 4828SOL     OW19309   1.619   0.762   0.181  1.0489  0.2420  0.3009
 4828SOL    HW119310   1.677   0.805   0.243  1.6518 -0.1851  0.0408
 4828SOL    HW219311   1.564   0.705   0.235  0.4593  1.0833  0.6108
 4828SOL     MW19312   1.619   0.760   0.196  1.0506  0.2950  0.3073
 4829SOL     OW19313   5.081   5.040   1.187  0.2082  0.2769  0.0338
 4829SOL    HW119314   5.116   5.051   1.099 -0.5075  0.8673 -0.1821
 4829SOL    HW219315   5.005   4.983   1.176 -0.6719  1.3996  0.0580
 4829SOL     MW19316   5.076   5.034   1.174  0.0039  0.4962  0.0093
 4830SOL     OW19317   2.548   2.471   5.262  0.2681 -0.8795  0.5126
 4830SOL    HW119318   2.555   2.504   5.173  0.0317  1.2351  1.1960
 4830SOL    HW219319   2.509   2.384   5.254 -0.9207 -0.2229 -1.3578
 4830SOL     MW19320   2.544   2.464   5.250  0.0856 -0.5247  0.3606
 4831SOL     OW19321   1.611   5.206   4.733 -0.3267  0.2970  0.0409
 4831SOL    HW119322   1.561   5.188   4.813 -0.3968 -0.7801 -0.2290
 4831SOL    HW219323   1.621   5.120   4.692 -0.9030  0.9425 -1.4894
 4831SOL     MW19324   1.606   5.192   4.738 -0.4094  0.2417 -0.1896
 4832SOL     OW19325   5.436   2.046   4.821  0.1385 -0.4200 -0.0478
 4832SOL    HW119326   5.434   1.955   4.850 -0.2432 -0.3367  0.1886
 4832SOL    HW219327   5.455   2.041   4.727  2.1650 -0.6642  0.3219
 4832SOL     MW19328   5.438   2.034   4.812  0.3490 -0.4406  0.0298
 4833SOL     OW19329   0.709   1.012   2.837  0.2795 -0.1524  0.2423
 4833SOL    HW119330   0.696   1.107   2.827  2.0700  0.0932 -0.1929
 4833SOL    HW219331   0.796   1.005   2.877 -0.5239 -1.5870  1.8495
 4833SOL     MW19332   0.719   1.024   2.841  0.4059 -0.3046  0.3924
 4834SOL     OW19333   2.129   4.562   1.653  0.6196 -0.0596  0.2344
 4834SOL    HW119334   2.173   4.487   1.613  0.1030 -0.2363 -0.0119
 4834SOL    HW219335   2.092   4.528   1.734 -0.6206 -0.3932 -0.4316
 4834SOL     MW19336   2.130   4.548   1.658  0.3947 -0.1249  0.1176
 4835SOL     OW19337   2.737   3.936   0.949  0.4007 -0.2644  0.6577
 4835SOL    HW119338   2.774   3.905   0.867 -1.1325  0.1942 -0.2560
 4835SOL    HW219339   2.733   4.031   0.939 -1.2377 -0.3110  0.5810
 4835SOL     MW19340   2.741   3.944   0.937 -0.0053 -0.2117  0.5309
 4836SOL     OW19341   2.621   5.039   0.368 -0.2694  0.3021 -0.0942
 4836SOL    HW119342   2.606   5.120   0.416 -1.0870  0.2469 -0.2440
 4836SOL    HW219343   2.712   5.015   0.389 -0.3301  0.7387  0.7064
 4836SOL     MW19344   2.631   5.046   0.376 -0.3818  0.3509 -0.0109
 4837SOL     OW19345   0.337   0.897   2.112 -0.6275  0.0578 -0.8383
 4837SOL    HW119346   0.241   0.904   2.114 -0.6878 -0.3996 -1.4600
 4837SOL    HW219347   0.364   0.909   2.202 -1.2617  0.3743 -0.6817
 4837SOL     MW19348   0.328   0.899   2.124 -0.7164  0.0398 -0.8978
 4838SOL     OW19349   1.692   4.961   5.286  0.1023  0.6523 -0.7630
 4838SOL    HW119350   1.729   5.014   5.357 -0.3998  1.3688 -1.0221
 4838SOL    HW219351   1.768   4.936   5.233  0.9347 -2.4290  1.5907
 4838SOL     MW19352   1.707   4.965   5.289  0.1446  0.3496 -0.4949
 4839SOL     OW19353   4.877   1.905   0.102 -0.1519  0.2569 -0.1366
 4839SOL    HW119354   4.897   1.970   0.035  0.0204  0.4492  0.0988
 4839SOL    HW219355   4.782   1.895   0.099 -0.0944 -0.1611 -0.8020
 4839SOL     MW19356   4.868   1.912   0.093 -0.1225  0.2280 -0.1917
 4840SOL     OW19357   3.036   2.115   1.938 -0.6865  0.1218  0.0905
 4840SOL    HW119358   3.051   2.180   2.006 -1.6806  0.2119  0.2474
 4840SOL    HW219359   3.061   2.032   1.978 -0.4492  0.2749  0.2632
 4840SOL     MW19360   3.041   2.112   1.952 -0.7834  0.1529  0.1327
 4841SOL     OW19361   2.013   1.361   1.728  0.4568 -0.0338 -0.6141
 4841SOL    HW119362   1.951   1.412   1.779  0.1323  0.2714 -1.2966
 4841SOL    HW219363   2.031   1.416   1.651  1.7184 -0.0283 -0.3329
 4841SOL     MW19364   2.008   1.375   1.725  0.5768  0.0060 -0.6654
 4842SOL     OW19365   2.635   3.453   3.472 -0.0484 -0.4135 -0.4612
 4842SOL    HW119366   2.547   3.416   3.479 -0.3813 -0.0217 -2.1280
 4842SOL    HW219367   2.677   3.402   3.403  1.6174 -1.6182  1.3404
 4842SOL     MW19368   2.629   3.442   3.464  0.1222 -0.5176 -0.4439
 4843SOL     OW19369   2.957   3.785   2.726  0.5471 -0.3191 -0.5226
 4843SOL    HW119370   2.915   3.791   2.812 -0.9759 -0.8862 -1.1781
 4843SOL    HW219371   2.961   3.691   2.708  2.5622 -0.3178 -0.3102
 4843SOL     MW19372   2.952   3.774   2.734  0.6101 -0.3915 -0.5793
 4844SOL     OW19373   4.904   5.263   3.930  0.2724 -0.3039 -0.3955
 4844SOL    HW119374   4.882   5.171   3.918 -1.5185 -0.2916  2.0643
 4844SOL    HW219375   4.824   5.310   3.907  1.2436  0.7401 -1.8799
 4844SOL     MW19376   4.891   5.258   3.925  0.1675 -0.1687 -0.2706
 4845SOL     OW19377   2.325   3.018   4.418 -0.4624 -0.2696 -0.2573
 4845SOL    HW119378   2.240   2.972   4.415 -0.4865 -0.2433  0.0336
 4845SOL    HW219379   2.384   2.961   4.368 -0.7070 -0.1676 -0.6681
 4845SOL     MW19380   2.322   3.005   4.411 -0.4968 -0.2531 -0.2726
 4846SOL     OW19381   5.275   1.803   1.288  0.0127  0.3397 -0.1207
 4846SOL    HW119382   5.299   1.895   1.296 -0.5215  0.4053  0.9253
 4846SOL    HW219383   5.231   1.782   1.370  1.2823 -1.2060  0.2337
 4846SOL     MW19384   5.272   1.812   1.299  0.1069  0.1502  0.0586
 4847SOL     OW19385   4.690   3.570   1.802 -0.5075  0.2713 -0.5739
 4847SOL    HW119386   4.707   3.498   1.863 -0.1045 -1.1146 -2.2503
 4847SOL    HW219387   4.599   3.557   1.776 -0.0892 -0.3847 -1.7818
 4847SOL     MW19388   4.680   3.559   1.807 -0.4024  0.0099 -0.9431
 4848SOL     OW19389   2.404   4.512   5.190 -0.0871 -0.2467 -0.4088
 4848SOL    HW119390   2.442   4.569   5.123 -0.1092 -2.2474 -2.2234
 4848SOL    HW219391   2.418   4.423   5.157 -3.1458 -1.2150  0.5776
 4848SOL     MW19392   2.411   4.508   5.178 -0.4815 -0.6268 -0.5148
 4849SOL     OW19393   3.136   0.279   1.265 -0.0166 -0.3081  0.0506
 4849SOL    HW119394   3.095   0.280   1.178  0.9886 -0.4130 -0.4369
 4849SOL    HW219395   3.192   0.201   1.263 -0.9125 -1.0211  1.2466
 4849SOL     MW19396   3.138   0.269   1.253 -0.0026 -0.4128  0.1413
 4850SOL     OW19397   1.254   0.033   2.711  0.3302 -0.1077 -0.3398
 4850SOL    HW119398   1.248   0.029   2.616  0.7635 -0.2829 -0.3599
 4850SOL    HW219399   1.201   0.109   2.735  1.1194  0.6013 -0.8010
 4850SOL     MW19400   1.246   0.042   2.702  0.4867 -0.0394 -0.4014
 4851SOL     OW19401   1.082   0.814   0.939  0.7024  0.3985 -0.0920
 4851SOL    HW119402   1.102   0.776   0.854  0.4029 -1.0187  0.4304
 4851SOL    HW219403   1.167   0.821   0.983  0.7360 -0.0122 -0.0795
 4851SOL     MW19404   1.096   0.810   0.934  0.6683  0.1645 -0.0236
 4852SOL     OW19405   1.457   1.431   2.788 -0.2003 -0.6734 -0.1189
 4852SOL    HW119406   1.521   1.458   2.723 -0.3805  1.9064  0.6657
 4852SOL    HW219407   1.373   1.434   2.743 -0.1058 -1.0255 -0.3224
 4852SOL     MW19408   1.454   1.435   2.774 -0.2113 -0.3883 -0.0445
 4853SOL     OW19409   0.223   4.185   4.214  0.2011  0.3366 -0.0241
 4853SOL    HW119410   0.244   4.115   4.275 -1.1712  0.1346  0.2565
 4853SOL    HW219411   0.253   4.152   4.129  0.0132 -0.3979  0.1833
 4853SOL     MW19412   0.230   4.172   4.211  0.0014  0.2167  0.0384
 4854SOL     OW19413   4.925   2.771   0.134  0.3989 -0.1802  0.0622
 4854SOL    HW119414   4.969   2.846   0.175 -0.6943  0.1295  0.7316
 4854SOL    HW219415   4.852   2.751   0.194 -0.3531 -0.6738 -0.9853
 4854SOL     MW19416   4.921   2.778   0.147  0.1627 -0.2037  0.0138
 4855SOL     OW19417   1.163   0.990   3.096  0.3592 -0.0746 -0.1356
 4855SOL    HW119418   1.175   1.056   3.165  0.0823 -1.1059  0.9354
 4855SOL    HW219419   1.156   0.907   3.143 -0.1054 -0.7846 -1.4004
 4855SOL     MW19420   1.164   0.988   3.111  0.2643 -0.2975 -0.1604
 4856SOL     OW19421   2.782   3.785   3.839  0.2559  0.2724 -0.2754
 4856SOL    HW119422   2.772   3.690   3.830  0.4789  0.0483  1.4327
 4856SOL    HW219423   2.820   3.813   3.757 -0.6519 -0.9865 -1.1733
 4856SOL     MW19424   2.786   3.776   3.827  0.1682  0.0826 -0.1717
 4857SOL     OW19425   3.013   3.790   3.033 -0.1101 -0.2893 -0.1060
 4857SOL    HW119426   2.981   3.880   3.033 -0.1630 -0.3002 -0.7261
 4857SOL    HW219427   3.083   3.789   3.099  0.2644  0.3409 -0.4806
 4857SOL     MW19428   3.018   3.801   3.041 -0.0690 -0.2100 -0.2333
 4858SOL     OW19429   3.985   0.643   3.649 -0.0967 -0.3628  0.3470
 4858SOL    HW119430   3.896   0.674   3.660  0.3993  2.3439 -2.0269
 4858SOL    HW219431   3.977   0.565   3.595 -1.0191  0.1311 -0.2485
 4858SOL     MW19432   3.973   0.637   3.644 -0.1513  0.0469 -0.0331
 4859SOL     OW19433   3.708   3.640   0.934  0.3321 -0.3402  0.5490
 4859SOL    HW119434   3.756   3.651   0.852  0.0151 -1.6116  0.1820
 4859SOL    HW219435   3.618   3.666   0.912  0.4908  0.4906  0.8261
 4859SOL     MW19436   3.703   3.645   0.921  0.3118 -0.3966  0.5375
 4860SOL     OW19437   5.399   3.365   4.817  0.4192  0.1135 -0.3151
 4860SOL    HW119438   5.425   3.318   4.738  0.6331 -1.2626  0.5491
 4860SOL    HW219439   5.469   3.347   4.880 -0.6929 -0.4568  0.8016
 4860SOL     MW19440   5.411   3.357   4.815  0.3042 -0.1357 -0.0615
 4861SOL     OW19441   4.216   5.024   0.476  0.5016 -0.0752 -0.8129
 4861SOL    HW119442   4.239   5.056   0.564 -1.7244 -0.3928 -0.0467
 4861SOL    HW219443   4.176   4.938   0.492  0.1623 -0.1837 -2.1514
 4861SOL     MW19444   4.214   5.017   0.489  0.1732 -0.1297 -0.8862
 4862SOL     OW19445   3.584   2.746   2.777  0.0880  0.6980  0.5760
 4862SOL    HW119446   3.669   2.788   2.790 -0.0547  1.4343 -0.6926
 4862SOL    HW219447   3.601   2.653   2.794  1.2509  0.7678 -0.0402
 4862SOL     MW19448   3.597   2.739   2.780  0.2186  0.8012  0.3347
 4863SOL     OW19449   3.140   0.572   2.278  0.0206 -0.1843 -0.1150
 4863SOL    HW119450   3.105   0.495   2.324 -1.2098  0.4301  0.0147
 4863SOL    HW219451   3.107   0.563   2.189 -1.4235  0.9380  0.2614
 4863SOL     MW19452   3.131   0.561   2.273 -0.3218  0.0381 -0.0502
 4864SOL     OW19453   2.649   3.215   2.572  0.2239  0.6432  0.1516
 4864SOL    HW119454   2.591   3.150   2.612 -0.1613  0.2385 -1.0169
 4864SOL    HW219455   2.652   3.287   2.635 -0.1678 -0.0633  1.0039
 4864SOL     MW19456   2.642   3.216   2.585  0.1244  0.5010  0.1111
 4865SOL     OW19457   0.667   0.325   3.056  0.5965  0.9377  0.5070
 4865SOL    HW119458   0.725   0.385   3.010 -1.3559  4.7793  2.5238
 4865SOL    HW219459   0.690   0.334   3.148 -1.0068  0.0010  1.0562
 4865SOL     MW19460   0.677   0.334   3.062  0.1413  1.3096  0.8355
 4866SOL     OW19461   4.858   5.377   1.379  0.4749  0.4732 -0.2121
 4866SOL    HW119462   4.797   5.322   1.330  0.6984  0.2647 -0.2589
 4866SOL    HW219463   4.858   5.460   1.331 -0.9878  1.0404  0.7074
 4866SOL     MW19464   4.851   5.381   1.366  0.3162  0.5191 -0.1004
 4867SOL     OW19465   4.585   0.479   0.993 -0.1382  0.2105 -0.0351
 4867SOL    HW119466   4.672   0.449   0.967 -0.1510  1.3574 -1.5621
 4867SOL    HW219467   4.525   0.430   0.937 -0.4436 -0.1174  0.5717
 4867SOL     MW19468   4.589   0.469   0.982 -0.1789  0.3154 -0.1529
 4868SOL     OW19469   2.745   3.397   0.686  0.0820 -0.2476  0.0163
 4868SOL    HW119470   2.712   3.478   0.648 -2.7382 -0.5803  1.5176
 4868SOL    HW219471   2.799   3.426   0.760  2.2540  0.2562 -1.6419
 4868SOL     MW19472   2.748   3.411   0.691 -0.0010 -0.2257 -0.0038
 4869SOL     OW19473   5.005   4.136   3.835 -0.2925 -0.0525 -0.0643
 4869SOL    HW119474   4.921   4.103   3.804  0.7127 -0.4004 -2.6997
 4869SOL    HW219475   5.036   4.192   3.763  1.7894 -0.0547  0.7841
 4869SOL     MW19476   4.998   4.139   3.821  0.1027 -0.0973 -0.2931
 4870SOL     OW19477   4.926   3.002   0.300 -0.5176  0.1193 -0.3150
 4870SOL    HW119478   5.001   2.949   0.327 -0.8550 -0.2705 -0.1245
 4870SOL    HW219479   4.866   2.998   0.374 -0.4052  1.0531 -0.1616
 4870SOL     MW19480   4.928   2.995   0.313 -0.5464  0.1889 -0.2710
 4871SOL     OW19481   2.953   0.339   5.288  0.3107  0.6031  0.4071
 4871SOL    HW119482   2.963   0.353   5.382 -3.5428  1.3240  0.8742
 4871SOL    HW219483   2.933   0.246   5.280  1.6436  0.3148  0.1077
 4871SOL     MW19484   2.952   0.329   5.299 -0.0120  0.6585  0.4286
 4872SOL     OW19485   1.730   0.088   5.330 -0.5977  0.5488 -0.0331
 4872SOL    HW119486   1.650   0.054   5.371  0.4512 -1.8872  0.1445
 4872SOL    HW219487   1.699   0.130   5.250 -2.0964  0.1393  0.2911
 4872SOL     MW19488   1.716   0.089   5.325 -0.6553  0.1846  0.0312
 4873SOL     OW19489   3.027   4.016   5.085  0.1023 -0.4972 -0.1651
 4873SOL    HW119490   3.011   3.921   5.089 -0.3798 -0.4567 -0.9270
 4873SOL    HW219491   2.963   4.048   5.021 -0.4796  0.5116  0.8779
 4873SOL     MW19492   3.017   4.008   5.078 -0.0339 -0.3629 -0.1291
 4874SOL     OW19493   5.312   2.591   2.686  0.0354  0.0750  0.4347
 4874SOL    HW119494   5.217   2.595   2.680  0.0041 -1.7091 -1.8015
 4874SOL    HW219495   5.343   2.635   2.607  0.9901 -0.3847  0.5306
 4874SOL     MW19496   5.304   2.597   2.675  0.1536 -0.2122  0.1607
 4875SOL     OW19497   3.156   4.754   4.872 -0.0314  0.4473 -0.2454
 4875SOL    HW119498   3.187   4.834   4.830 -0.6217  0.2248 -1.1315
 4875SOL    HW219499   3.079   4.729   4.821  0.0696 -0.6110  0.1094
 4875SOL     MW19500   3.150   4.761   4.860 -0.0941  0.2833 -0.3134
 4876SOL     OW19501   3.087   3.885   5.484 -0.3117 -0.4758  0.2861
 4876SOL    HW119502   3.024   3.942   5.440  0.2644  0.1542  0.2620
 4876SOL    HW219503   3.057   3.797   5.463 -1.2369 -0.1903  0.3502
 4876SOL     MW19504   3.075   3.881   5.475 -0.3564 -0.3586  0.2912
 4877SOL     OW19505   4.785   4.065   3.330  0.1623 -0.0278 -0.4287
 4877SOL    HW119506   4.700   4.067   3.287 -0.7023 -3.2521  0.8120
 4877SOL    HW219507   4.768   4.095   3.420  0.3691 -0.4449 -0.2449
 4877SOL     MW19508   4.772   4.069   3.336  0.0781 -0.4939 -0.2463
 4878SOL     OW19509   2.155   0.002   2.398 -0.3122  0.2632  0.1555
 4878SOL    HW119510   2.141   0.080   2.344 -1.8581  1.3465  1.9681
 4878SOL    HW219511   2.167  -0.069   2.336  0.1244  1.7776 -1.5712
 4878SOL     MW19512   2.155   0.003   2.383 -0.4542  0.5957  0.1665
 4879SOL     OW19513   3.121   1.242   0.809  0.2170 -0.0859  0.1031
 4879SOL    HW119514   3.173   1.166   0.836 -0.9516 -0.9690 -0.0458
 4879SOL    HW219515   3.156   1.315   0.861  1.2033 -0.7704  0.4249
 4879SOL     MW19516   3.132   1.242   0.819  0.1937 -0.2866  0.1252
 4880SOL     OW19517   0.283   4.663   2.610 -0.2309 -0.5994  0.3811
 4880SOL    HW119518   0.371   4.631   2.594 -0.5129 -1.3926  0.3653
 4880SOL    HW219519   0.253   4.615   2.687 -0.4736  0.0217  0.6840
 4880SOL     MW19520   0.290   4.653   2.618 -0.2980 -0.6214  0.4178
 4881SOL     OW19521   0.091   2.249   0.398  0.0265 -0.0110  0.0344
 4881SOL    HW119522   0.029   2.317   0.422 -2.4973 -1.2528 -2.4634
 4881SOL    HW219523   0.136   2.283   0.321 -0.9135 -0.8835 -0.9416
 4881SOL     MW19524   0.089   2.262   0.391 -0.4169 -0.2817 -0.4103
 4882SOL     OW19525   1.674   2.642   3.600 -0.3052  0.1070 -0.3531
 4882SOL    HW119526   1.656   2.704   3.529 -0.3097 -0.8325 -1.2078
 4882SOL    HW219527   1.592   2.594   3.610 -0.6113  0.8664  0.9707
 4882SOL     MW19528   1.661   2.644   3.592 -0.3449  0.0839 -0.2930
 4883SOL     OW19529   4.723   2.952   1.211  0.1139  0.1046 -0.2920
 4883SOL    HW119530   4.682   3.011   1.148  1.0343  2.3640  1.0973
 4883SOL    HW219531   4.801   2.920   1.166  1.0227  2.0722 -0.2086
 4883SOL     MW19532   4.728   2.955   1.197  0.3481  0.6457 -0.1034
 4884SOL     OW19533   4.427   4.228   2.585  0.1734  0.2724  0.6102
 4884SOL    HW119534   4.347   4.175   2.577 -0.1181  0.5808  1.3491
 4884SOL    HW219535   4.429   4.280   2.505 -0.0139 -0.2088  0.2822
 4884SOL     MW19536   4.417   4.228   2.574  0.1121  0.2503  0.6628
 4885SOL     OW19537   2.479   3.939   0.421 -0.8947 -0.5071 -0.0611
 4885SOL    HW119538   2.464   3.959   0.329 -1.4909 -1.7055 -0.2426
 4885SOL    HW219539   2.572   3.955   0.434 -1.0210  0.7867 -0.5591
 4885SOL     MW19540   2.489   3.944   0.411 -0.9872 -0.4949 -0.1481
 4886SOL     OW19541   1.855   3.851   4.966  0.4296  0.1554  0.2964
 4886SOL    HW119542   1.920   3.869   4.897  1.1544 -1.9746  0.3591
 4886SOL    HW219543   1.907   3.846   5.046 -0.2034  0.9984  0.7799
 4886SOL     MW19544   1.870   3.853   4.967  0.4413 -0.0094  0.3663
 4887SOL     OW19545   4.609   3.361   1.065  0.7823 -0.0922 -0.0607
 4887SOL    HW119546   4.665   3.388   1.137  0.1792 -0.1529  0.4411
 4887SOL    HW219547   4.610   3.265   1.067 -0.5411 -0.1120  0.9283
 4887SOL     MW19548   4.616   3.352   1.074  0.5357 -0.1025  0.1302
 4888SOL     OW19549   4.479   4.319   1.280 -0.4055  0.1960  0.0935
 4888SOL    HW119550   4.548   4.367   1.236 -0.3209  0.5747  0.6240
 4888SOL    HW219551   4.515   4.232   1.295 -0.1918  0.2724  0.0176
 4888SOL     MW19552   4.492   4.314   1.276 -0.3673  0.2543  0.1517
 4889SOL     OW19553   4.006   4.447   4.845 -0.3252  0.5160 -0.0052
 4889SOL    HW119554   3.932   4.507   4.842 -0.5740  0.2616  0.7487
 4889SOL    HW219555   3.970   4.363   4.818 -0.0111  0.6702 -0.9153
 4889SOL     MW19556   3.992   4.444   4.841 -0.3169  0.5032 -0.0252
 4890SOL     OW19557   3.147   2.923   4.431  0.3225 -0.6412 -0.4290
 4890SOL    HW119558   3.173   2.939   4.522  1.8848 -0.2989 -0.9137
 4890SOL    HW219559   3.170   3.003   4.384  2.4723 -1.8904 -1.6907
 4890SOL     MW19560   3.154   2.935   4.437  0.7977 -0.7573 -0.6526
 4891SOL     OW19561   0.227   3.473   2.456  0.3980 -0.0635 -0.1943
 4891SOL    HW119562   0.173   3.452   2.380 -0.9777  0.0796  0.6977
 4891SOL    HW219563   0.171   3.529   2.510  1.2082 -0.4457  1.0885
 4891SOL     MW19564   0.213   3.478   2.453  0.3256 -0.0941  0.0841
 4892SOL     OW19565   2.210   1.300   5.219 -0.5425 -0.6348  0.7119
 4892SOL    HW119566   2.169   1.262   5.296  2.2481 -0.2277  2.5227
 4892SOL    HW219567   2.235   1.224   5.165  0.1723 -1.1204  1.6934
 4892SOL     MW19568   2.208   1.285   5.222 -0.0938 -0.6448  1.0693
 4893SOL     OW19569   4.086   5.292   4.964  0.3549 -0.2820  0.0458
 4893SOL    HW119570   4.089   5.386   4.944 -1.1779 -0.4415 -1.1373
 4893SOL    HW219571   3.999   5.279   5.001  0.1796 -1.3931 -0.7262
 4893SOL     MW19572   4.075   5.303   4.966  0.1362 -0.4446 -0.2045
 4894SOL     OW19573   4.888   1.456   0.915 -0.3069  0.1491  0.0088
 4894SOL    HW119574   4.885   1.511   0.993 -0.5381 -0.1237  0.1986
 4894SOL    HW219575   4.913   1.370   0.948  4.1899  0.9179 -0.7488
 4894SOL     MW19576   4.891   1.452   0.930  0.2392  0.2126 -0.0639
 4895SOL     OW19577   2.707   2.602   2.410  0.1632 -0.4018  0.3913
 4895SOL    HW119578   2.725   2.658   2.334  0.2800  1.0522  1.4560
 4895SOL    HW219579   2.783   2.544   2.415  1.6446  1.5036  1.1504
 4895SOL     MW19580   2.719   2.601   2.401  0.3678  0.0282  0.6248
 4896SOL     OW19581   0.379   4.993   1.234  0.5999 -0.0325  0.0203
 4896SOL    HW119582   0.329   4.989   1.153  0.2661  0.8612  0.1764
 4896SOL    HW219583   0.435   4.915   1.231 -0.2953 -0.6814 -0.4775
 4896SOL     MW19584   0.380   4.983   1.223  0.4425 -0.0012 -0.0235
 4897SOL     OW19585   4.927   1.137   2.214 -0.4543  0.5767 -0.0505
 4897SOL    HW119586   4.990   1.092   2.158  1.4488  0.9538  1.6697
 4897SOL    HW219587   4.932   1.229   2.188 -1.9192  0.3333 -1.3356
 4897SOL     MW19588   4.935   1.143   2.204 -0.3982  0.5938  0.0052
 4898SOL     OW19589   3.549   0.036   1.561  0.6538  0.3664  0.2503
 4898SOL    HW119590   3.586  -0.048   1.588  1.4139  0.5485 -0.1740
 4898SOL    HW219591   3.607   0.101   1.603  0.1354  0.6748  0.4927
 4898SOL     MW19592   3.561   0.034   1.570  0.6847  0.4292  0.2270
 4899SOL     OW19593   2.425   1.016   4.050  0.5646 -0.0311 -0.1620
 4899SOL    HW119594   2.514   0.988   4.071  0.8302 -0.0377 -1.2046
 4899SOL    HW219595   2.373   0.936   4.052  1.0114 -0.3895 -1.5931
 4899SOL     MW19596   2.430   1.003   4.053  0.6558 -0.0779 -0.4787
 4900SOL     OW19597   4.049   1.316   1.306  0.2363  0.1023  0.3204
 4900SOL    HW119598   4.033   1.410   1.291 -1.3888 -0.1458  0.3064
 4900SOL    HW219599   4.142   1.304   1.286  0.6625  1.8406  1.0108
 4900SOL     MW19600   4.059   1.327   1.302  0.0828  0.2931  0.4070
 4901SOL     OW19601   0.643   1.376   5.103  0.4425 -0.1327 -0.1683
 4901SOL    HW119602   0.731   1.358   5.135  0.2801 -0.3291  0.1769
 4901SOL    HW219603   0.593   1.298   5.126  0.2751 -0.1897 -0.7277
 4901SOL     MW19604   0.648   1.364   5.110  0.4003 -0.1651 -0.1957
 4902SOL     OW19605   2.454   4.525   3.057 -0.5997 -0.3203 -0.0721
 4902SOL    HW119606   2.412   4.469   2.993 -1.6733 -0.2466  0.5354
 4902SOL    HW219607   2.474   4.606   3.009  1.1320 -1.2429 -0.9968
 4902SOL     MW19608   2.452   4.528   3.043 -0.5154 -0.4289 -0.1127
 4903SOL     OW19609   0.441   3.129   0.350 -0.3345 -0.5162  0.0847
 4903SOL    HW119610   0.471   3.041   0.370  0.1393 -0.3560  0.0985
 4903SOL    HW219611   0.389   3.119   0.270  0.3873 -0.6948 -0.3745
 4903SOL     MW19612   0.438   3.117   0.342 -0.1815 -0.5185  0.0277
 4904SOL     OW19613   1.443   3.663   4.486 -0.5862 -0.1537  0.1145
 4904SOL    HW119614   1.514   3.680   4.548  0.0669  0.5564 -0.7994
 4904SOL    HW219615   1.365   3.654   4.541 -0.1014  0.9017  1.0152
 4904SOL     MW19616   1.443   3.664   4.501 -0.4405  0.0723  0.1128
 4905SOL     OW19617   3.215   1.077   1.825 -0.1690 -0.6454 -0.1318
 4905SOL    HW119618   3.270   1.115   1.894 -1.4793 -0.1828  0.6970
 4905SOL    HW219619   3.162   1.012   1.870 -1.0327 -0.3503 -0.7024
 4905SOL     MW19620   3.216   1.074   1.840 -0.4473 -0.5484 -0.0988
 4906SOL     OW19621   1.849   3.137   5.161 -0.1842  0.0681 -0.1611
 4906SOL    HW119622   1.812   3.157   5.247 -0.0182  0.5856 -0.2057
 4906SOL    HW219623   1.847   3.041   5.156 -1.7875  0.0747 -0.2821
 4906SOL     MW19624   1.844   3.127   5.172 -0.3682  0.1352 -0.1823
 4907SOL     OW19625   0.489   3.441   1.131  0.0475 -0.9831  0.6072
 4907SOL    HW119626   0.435   3.520   1.129 -0.9050 -1.6003  1.3048
 4907SOL    HW219627   0.532   3.443   1.217 -0.3378 -1.4513  0.8155
 4907SOL     MW19628   0.488   3.451   1.142 -0.1238 -1.1220  0.7232
 4908SOL     OW19629   2.793   1.265   1.707  0.6395  0.4282 -0.0538
 4908SOL    HW119630   2.719   1.289   1.763  0.7593 -0.1721  0.3720
 4908SOL    HW219631   2.870   1.287   1.759  0.7923  1.9041 -0.8484
 4908SOL     MW19632   2.793   1.271   1.721  0.6744  0.5403 -0.1010
 4909SOL     OW19633   3.389   4.997   1.913  0.2890 -0.3852 -0.2628
 4909SOL    HW119634   3.373   5.068   1.851 -0.5006 -1.0058 -0.8001
 4909SOL    HW219635   3.483   4.983   1.910  0.4626  0.6691 -0.1069
 4909SOL     MW19636   3.399   5.004   1.904  0.2102 -0.3297 -0.3116
 4910SOL     OW19637   2.736   5.150   3.586  0.5107  0.7948 -0.1583
 4910SOL    HW119638   2.703   5.223   3.534 -0.4165  1.2604  1.0459
 4910SOL    HW219639   2.815   5.185   3.628 -0.7835  1.6775  1.6595
 4910SOL     MW19640   2.742   5.164   3.585  0.2264  0.9674  0.2285
 4911SOL     OW19641   2.950   1.474   4.970  0.2659  0.0933 -0.4844
 4911SOL    HW119642   2.862   1.501   4.998  0.7975 -0.2134  1.6491
 4911SOL    HW219643   2.944   1.380   4.957  0.6614 -0.2239  1.4056
 4911SOL     MW19644   2.938   1.466   4.972  0.3846  0.0134  0.0306
 4912SOL     OW19645   0.577   3.705   5.342  0.2459  0.1603  0.1765
 4912SOL    HW119646   0.623   3.708   5.258  1.6085 -0.5563  0.8421
 4912SOL    HW219647   0.577   3.796   5.373  0.0302  0.3737 -0.4402
 4912SOL     MW19648   0.583   3.717   5.335  0.3927  0.0959  0.1828
 4913SOL     OW19649   1.265   0.612   3.475  0.1347 -0.3032 -0.4986
 4913SOL    HW119650   1.339   0.664   3.506 -2.1276  4.1138 -1.6018
 4913SOL    HW219651   1.286   0.594   3.383  0.2477  0.1526 -0.5661
 4913SOL     MW19652   1.277   0.616   3.467 -0.1405  0.3206 -0.6485
 4914SOL     OW19653   0.780   3.143   2.397  0.0046 -0.2360 -0.2018
 4914SOL    HW119654   0.703   3.191   2.368  0.2817  0.4790  0.2076
 4914SOL    HW219655   0.790   3.168   2.489  1.4365  0.6651 -0.5628
 4914SOL     MW19656   0.771   3.152   2.405  0.2233 -0.0291 -0.1956
 4915SOL     OW19657   4.425   2.181   1.439  0.2481 -0.0160  0.6259
 4915SOL    HW119658   4.512   2.149   1.416  0.3225 -0.9837  2.1035
 4915SOL    HW219659   4.416   2.264   1.392  1.3167 -0.6827 -0.8270
 4915SOL     MW19660   4.435   2.187   1.430  0.3944 -0.2252  0.6291
 4916SOL     OW19661   2.799   0.557   1.147 -0.2614 -0.4161  0.3458
 4916SOL    HW119662   2.745   0.621   1.194 -0.7202 -1.6078  1.5032
 4916SOL    HW219663   2.878   0.606   1.123 -2.0392  1.5794 -1.9951
 4916SOL     MW19664   2.802   0.572   1.150 -0.5477 -0.3132  0.1943
 4917SOL     OW19665   0.362   2.510   5.319 -0.3277 -0.3927 -0.0602
 4917SOL    HW119666   0.396   2.590   5.359 -0.6582 -0.2740 -0.0153
 4917SOL    HW219667   0.343   2.534   5.229 -0.4945 -0.3994 -0.0276
 4917SOL     MW19668   0.364   2.523   5.313 -0.3913 -0.3784 -0.0503
 4918SOL     OW19669   4.612   3.633   2.965  0.0190  0.4771 -0.2129
 4918SOL    HW119670   4.664   3.560   2.997  0.2813  0.6422 -0.2516
 4918SOL    HW219671   4.657   3.711   2.999 -0.8722  0.5877  0.7310
 4918SOL     MW19672   4.625   3.634   2.973 -0.0615  0.5124 -0.0970
 4919SOL     OW19673   1.320   1.448   5.430  0.0614 -0.1120  0.3020
 4919SOL    HW119674   1.344   1.374   5.375  0.0100 -0.4320  0.7129
 4919SOL    HW219675   1.321   1.523   5.370  0.3163 -0.4076 -0.0686
 4919SOL     MW19676   1.323   1.448   5.415  0.0874 -0.1908  0.3071
 4920SOL     OW19677   0.581   0.260   1.976 -0.9530  0.1935 -0.0905
 4920SOL    HW119678   0.575   0.354   1.991 -2.4708  0.1347 -0.1894
 4920SOL    HW219679   0.547   0.248   1.887 -0.3048 -0.4060 -0.2652
 4920SOL     MW19680   0.576   0.270   1.966 -1.0643  0.1092 -0.1255
 4921SOL     OW19681   1.217   1.565   4.249  0.0306 -0.4745 -0.4336
 4921SOL    HW119682   1.226   1.479   4.292 -1.3990 -0.4667 -0.0547
 4921SOL    HW219683   1.297   1.612   4.272  0.7493 -1.6405 -0.4856
 4921SOL     MW19684   1.228   1.560   4.258 -0.0604 -0.6228 -0.3917
 4922SOL     OW19685   0.998   1.094   2.875 -0.2633 -0.4016 -0.0515
 4922SOL    HW119686   1.017   1.053   2.791 -0.3370 -0.0153 -0.2611
 4922SOL    HW219687   1.055   1.050   2.937  2.5006  1.7427 -0.8961
 4922SOL     MW19688   1.007   1.083   2.872  0.0811 -0.0777 -0.1864
 4923SOL     OW19689   2.542   5.380   0.960 -0.3929  0.0729  0.3156
 4923SOL    HW119690   2.549   5.329   0.879 -0.8003  1.2602 -0.4795
 4923SOL    HW219691   2.461   5.349   1.001 -1.7427  1.4644 -1.1798
 4923SOL     MW19692   2.533   5.369   0.955 -0.6178  0.4030  0.0224
 4924SOL     OW19693   1.888   1.151   1.909 -0.4225  0.7297  0.3273
 4924SOL    HW119694   1.936   1.200   1.843  0.3087 -0.9914 -0.4749
 4924SOL    HW219695   1.799   1.187   1.906 -0.3815  0.7802 -1.5445
 4924SOL     MW19696   1.882   1.162   1.900 -0.3236  0.5158 -0.0150
 4925SOL     OW19697   2.314   1.217   4.662  0.3414  0.5808 -0.1335
 4925SOL    HW119698   2.231   1.174   4.637  0.3647  0.1739  0.4797
 4925SOL    HW219699   2.379   1.147   4.657  0.3545  0.4905  1.0277
 4925SOL     MW19700   2.312   1.202   4.658  0.3461  0.5171  0.0936
 4926SOL     OW19701   2.383   2.319   2.258  0.2097  0.1723  0.2645
 4926SOL    HW119702   2.442   2.371   2.314  1.5427 -0.2270 -0.7232
 4926SOL    HW219703   2.326   2.384   2.217  0.9851  0.7435  0.0614
 4926SOL     MW19704   2.383   2.334   2.260  0.4796  0.1943  0.1120
 4927SOL     OW19705   4.893   5.227   0.259 -0.1736 -0.6198 -0.1401
 4927SOL    HW119706   4.912   5.238   0.352  1.0592  2.7034 -0.6503
 4927SOL    HW219707   4.968   5.177   0.225 -0.0965 -0.9202  0.4504
 4927SOL     MW19708   4.905   5.222   0.267 -0.0059 -0.2328 -0.1299
 4928SOL     OW19709   3.145   4.626   0.207 -0.0697  0.3091  0.3526
 4928SOL    HW119710   3.190   4.710   0.196 -1.8949  1.4242  0.9456
 4928SOL    HW219711   3.073   4.629   0.144 -0.3104 -0.6993  0.5691
 4928SOL     MW19712   3.141   4.637   0.198 -0.3342  0.3228  0.4563
 4929SOL     OW19713   2.074   3.682   3.734 -0.2288  0.5815  0.0287
 4929SOL    HW119714   1.982   3.666   3.717  0.0935 -0.7634 -0.5761
 4929SOL    HW219715   2.082   3.674   3.829 -0.7474  0.8224  0.0959
 4929SOL     MW19716   2.063   3.678   3.744 -0.2539  0.4402 -0.0401
 4930SOL     OW19717   0.616   2.775   2.792  0.0456  0.0321  0.2383
 4930SOL    HW119718   0.533   2.821   2.805  0.1463  0.5400 -0.7905
 4930SOL    HW219719   0.600   2.715   2.720  1.0051  1.3644 -1.1600
 4930SOL     MW19720   0.604   2.773   2.784  0.1813  0.2677 -0.0724
 4931SOL     OW19721   4.140   0.535   1.912 -0.2846  0.0013 -0.9645
 4931SOL    HW119722   4.083   0.464   1.881  0.1766  0.0128 -1.8961
 4931SOL    HW219723   4.198   0.493   1.975 -2.1637  0.2614  1.0803
 4931SOL     MW19724   4.140   0.521   1.916 -0.4661  0.0361 -0.8220
 4932SOL     OW19725   5.239   2.511   4.285  0.0078 -0.0738 -0.3529
 4932SOL    HW119726   5.213   2.480   4.198 -1.7061 -1.1066  0.4770
 4932SOL    HW219727   5.328   2.478   4.297  0.6614  0.9711 -2.1121
 4932SOL     MW19728   5.247   2.503   4.276 -0.1279 -0.0722 -0.4719
 4933SOL     OW19729   5.344   4.747   0.629 -0.3955  0.0370 -0.7604
 4933SOL    HW119730   5.262   4.758   0.581  1.6155  2.8678 -4.0548
 4933SOL    HW219731   5.397   4.690   0.574  0.3443 -0.7015  0.6586
 4933SOL     MW19732   5.340   4.741   0.616 -0.0433  0.3048 -1.0005
 4934SOL     OW19733   0.474   2.793   5.099  0.1261  0.3397 -0.5481
 4934SOL    HW119734   0.402   2.731   5.086 -0.6683  1.1826 -0.2801
 4934SOL    HW219735   0.543   2.762   5.041  0.1934 -1.4651  0.3941
 4934SOL     MW19736   0.473   2.781   5.090  0.0330  0.2166 -0.3932
 4935SOL     OW19737   4.313   4.924   2.086 -0.1132 -0.1431  0.4381
 4935SOL    HW119738   4.364   4.843   2.092 -2.3976 -2.2603 -3.5978
 4935SOL    HW219739   4.251   4.919   2.159  0.2893 -1.7193  0.7039
 4935SOL     MW19740   4.311   4.913   2.096 -0.3541 -0.6159 -0.0445
 4936SOL     OW19741   2.351   4.972   3.555  0.0075 -0.1993  0.0857
 4936SOL    HW119742   2.435   4.932   3.576 -0.7359 -1.9585 -0.0859
 4936SOL    HW219743   2.333   4.945   3.465 -0.1545  1.2623 -0.3474
 4936SOL     MW19744   2.359   4.964   3.546 -0.1084 -0.2374  0.0083
 4937SOL     OW19745   2.579   4.854   1.337 -0.4737  0.3831 -0.2263
 4937SOL    HW119746   2.562   4.807   1.256  3.0209 -1.2366 -0.1833
 4937SOL    HW219747   2.659   4.904   1.320  0.7329 -0.5041  2.3408
 4937SOL     MW19748   2.587   4.855   1.325  0.1281  0.0622  0.1078
 4938SOL     OW19749   1.115   0.042   1.826  0.3880  0.3497  0.0789
 4938SOL    HW119750   1.117   0.127   1.871 -0.3404  0.3386  0.1331
 4938SOL    HW219751   1.208   0.018   1.817  0.5699 -0.0242  2.2951
 4938SOL     MW19752   1.127   0.050   1.831  0.3181  0.3004  0.3695
 4939SOL     OW19753   4.166   0.799   4.272  1.4594 -0.2562  0.1891
 4939SOL    HW119754   4.115   0.830   4.197 -0.3941 -0.3790  1.3512
 4939SOL    HW219755   4.215   0.876   4.302  0.1137  0.4983  0.5011
 4939SOL     MW19756   4.166   0.813   4.266  1.0499 -0.1754  0.3778
 4940SOL     OW19757   5.041   1.010   0.702  0.0233  0.0949 -0.2291
 4940SOL    HW119758   4.987   0.977   0.630  0.5372  0.6022 -0.8588
 4940SOL    HW219759   5.035   1.105   0.695  1.9600  0.1886 -1.0735
 4940SOL     MW19760   5.033   1.018   0.692  0.3370  0.1718 -0.4178
 4941SOL     OW19761   1.941   0.229   5.020  0.0500 -0.3450 -0.0565
 4941SOL    HW119762   1.999   0.237   5.096 -0.7455  0.9503  0.4456
 4941SOL    HW219763   1.877   0.300   5.031  0.6973  0.7410 -2.6159
 4941SOL     MW19764   1.940   0.239   5.031  0.0310 -0.0402 -0.3199
 4942SOL     OW19765   2.074   5.162   2.368 -0.0378  0.0128 -0.9026
 4942SOL    HW119766   1.981   5.149   2.350 -0.0408 -0.7069 -0.3988
 4942SOL    HW219767   2.079   5.176   2.462  0.5190 -1.6262 -0.6571
 4942SOL     MW19768   2.063   5.162   2.378  0.0331 -0.2891 -0.8067
 4943SOL     OW19769   3.667   2.474   1.217  0.2469  0.8509  0.1762
 4943SOL    HW119770   3.703   2.547   1.268 -0.2268  0.7491  0.6571
 4943SOL    HW219771   3.700   2.489   1.128  1.2423  0.9250  0.5408
 4943SOL     MW19772   3.676   2.485   1.212  0.3137  0.8474  0.2844
 4944SOL     OW19773   5.294   0.261   0.506 -0.3078 -0.2369 -0.2583
 4944SOL    HW119774   5.344   0.337   0.477  1.3303 -0.2458  2.2861
 4944SOL    HW219775   5.213   0.298   0.542  0.4173  0.3550  0.8367
 4944SOL     MW19776   5.290   0.275   0.507 -0.0053 -0.1623  0.2076
 4945SOL     OW19777   4.901   1.166   3.968 -0.0971  0.1287  0.6265
 4945SOL    HW119778   4.911   1.232   3.899  1.1472 -0.9275 -0.2440
 4945SOL    HW219779   4.990   1.148   3.998 -0.4171 -1.1436  0.8551
 4945SOL     MW19780   4.913   1.172   3.963  0.0212 -0.1694  0.5443
 4946SOL     OW19781   1.232   4.161   5.320  0.0546 -0.1112  0.1952
 4946SOL    HW119782   1.283   4.164   5.401  0.9569  1.3950 -0.3655
 4946SOL    HW219783   1.181   4.080   5.325  0.4216 -0.2605  2.0503
 4946SOL     MW19784   1.232   4.151   5.331  0.2171  0.0625  0.3609
 4947SOL     OW19785   4.219   0.939   1.261  0.0425  0.0467 -0.0270
 4947SOL    HW119786   4.218   0.979   1.174  1.1174 -0.3755 -0.2436
 4947SOL    HW219787   4.130   0.954   1.295 -1.0122 -1.3328 -1.9262
 4947SOL     MW19788   4.207   0.946   1.254  0.0451 -0.1839 -0.2978
 4948SOL     OW19789   1.556   0.189   3.140  0.5143  0.4578  0.3534
 4948SOL    HW119790   1.578   0.257   3.204  0.8852  0.9892 -0.3339
 4948SOL    HW219791   1.469   0.211   3.109  0.6815  0.6936  0.0440
 4948SOL     MW19792   1.548   0.200   3.144  0.5832  0.5560  0.2258
 4949SOL     OW19793   4.110   0.512   1.168 -0.2716  0.4864 -0.1712
 4949SOL    HW119794   4.184   0.556   1.210  0.4362 -0.5029 -0.3578
 4949SOL    HW219795   4.052   0.488   1.240  0.2455  0.0792  0.1178
 4949SOL     MW19796   4.112   0.514   1.182 -0.1148  0.3077 -0.1581
 4950SOL     OW19797   2.753   1.728   4.378  0.1462 -0.0669  0.3230
 4950SOL    HW119798   2.788   1.718   4.467 -0.6500 -1.9312  0.4547
 4950SOL    HW219799   2.660   1.708   4.387  0.0935 -0.4460 -0.9679
 4950SOL     MW19800   2.745   1.724   4.391  0.0375 -0.3541  0.1746
 4951SOL     OW19801   1.183   2.231   4.754  0.1203  0.7054 -0.3346
 4951SOL    HW119802   1.274   2.243   4.784 -0.2668 -1.6895  2.2746
 4951SOL    HW219803   1.191   2.217   4.660  2.4122  1.1303 -0.2756
 4951SOL     MW19804   1.196   2.231   4.746  0.3641  0.4532  0.0070
 4952SOL     OW19805   1.348   1.171   2.202 -0.2097  0.0774 -0.5133
 4952SOL    HW119806   1.331   1.265   2.193 -1.7651 -0.2500 -1.5553
 4952SOL    HW219807   1.443   1.163   2.202 -0.0523  1.6629 -0.2399
 4952SOL     MW19808   1.358   1.182   2.201 -0.3887  0.2384 -0.6117
 4953SOL     OW19809   1.082   2.250   3.896  0.7676 -0.3361 -0.4621
 4953SOL    HW119810   1.130   2.175   3.933  1.5727  0.4014  0.0267
 4953SOL    HW219811   1.022   2.211   3.833  1.4472 -1.3675 -0.4962
 4953SOL     MW19812   1.080   2.235   3.893  0.9577 -0.3738 -0.4039
 4954SOL     OW19813   0.053   5.353   1.549  0.4424  0.1628 -0.1324
 4954SOL    HW119814   0.096   5.426   1.592 -0.1509 -0.3670  1.4125
 4954SOL    HW219815   0.121   5.315   1.493  1.2330  0.8621  0.3384
 4954SOL     MW19816   0.067   5.357   1.547  0.4677  0.1845  0.1257
 4955SOL     OW19817   0.921   3.950   2.143  0.0021  0.1256  0.4744
 4955SOL    HW119818   0.977   3.894   2.197  1.5529  1.1210 -0.0324
 4955SOL    HW219819   0.871   4.002   2.206 -0.4245 -0.8085  0.9338
 4955SOL     MW19820   0.922   3.949   2.158  0.1460  0.1334  0.4684
 4956SOL     OW19821   0.879   5.112   5.165  0.4286 -0.3791  0.1980
 4956SOL    HW119822   0.886   5.044   5.098  2.0477 -0.8129  0.7646
 4956SOL    HW219823   0.962   5.158   5.162  1.0933 -1.2465  2.7255
 4956SOL     MW19824   0.890   5.109   5.156  0.7210 -0.5457  0.5941
 4957SOL     OW19825   4.467   5.395   1.717  0.0335  1.0900  0.0360
 4957SOL    HW119826   4.552   5.432   1.694  0.0984  0.5639 -0.5846
 4957SOL    HW219827   4.415   5.402   1.637  0.6371 -1.8535 -0.7447
 4957SOL     MW19828   4.471   5.401   1.704  0.1191  0.6459 -0.1434
 4958SOL     OW19829   5.463   1.075   4.542  0.0009 -0.6889  0.2863
 4958SOL    HW119830   5.420   0.996   4.575  0.8941 -1.8270 -1.0892
 4958SOL    HW219831   5.425   1.088   4.455 -1.0853  1.2142  1.0087
 4958SOL     MW19832   5.453   1.066   4.535 -0.0238 -0.5910  0.2027
 4959SOL     OW19833   1.998   2.355   5.408 -0.2194  0.5713  0.3290
 4959SOL    HW119834   2.089   2.371   5.384 -0.3059  0.2121 -0.2587
 4959SOL    HW219835   1.948   2.421   5.359 -0.5970 -1.4867 -2.2700
 4959SOL     MW19836   2.003   2.366   5.398 -0.2788  0.2618 -0.0789
 4960SOL     OW19837   2.101   3.676   4.822 -0.1626  0.4539 -0.0920
 4960SOL    HW119838   2.080   3.762   4.786 -1.1647 -0.3350 -1.4582
 4960SOL    HW219839   2.076   3.614   4.753 -0.0693 -0.9782  1.1163
 4960SOL     MW19840   2.095   3.679   4.808 -0.2789  0.1696 -0.1122
 4961SOL     OW19841   4.725   0.497   1.561  0.1974  0.1106  0.0397
 4961SOL    HW119842   4.805   0.506   1.613 -0.6944 -1.9972  1.9634
 4961SOL    HW219843   4.656   0.529   1.618 -0.8193 -2.3071  0.2954
 4961SOL     MW19844   4.726   0.502   1.575 -0.0469 -0.4687  0.3187
 4962SOL     OW19845   3.965   3.457   2.933  0.1113 -0.7047  0.2209
 4962SOL    HW119846   3.909   3.469   3.010  1.4751 -1.9416  1.4726
 4962SOL    HW219847   4.025   3.386   2.958  3.0427  1.3081 -0.5271
 4962SOL     MW19848   3.966   3.450   2.946  0.6611 -0.6053  0.2854
 4963SOL     OW19849   1.700   4.818   1.587  0.9486 -0.2149 -0.2845
 4963SOL    HW119850   1.757   4.860   1.523 -0.9568 -0.3402 -2.1845
 4963SOL    HW219851   1.640   4.887   1.615  1.3863 -0.3127  0.9529
 4963SOL     MW19852   1.700   4.832   1.582  0.7607 -0.2435 -0.3693
 4964SOL     OW19853   2.944   5.255   3.840 -0.4692 -0.1029  0.1845
 4964SOL    HW119854   2.927   5.345   3.866  1.5336  0.1910  0.6268
 4964SOL    HW219855   2.961   5.209   3.922  1.7489 -0.1064 -0.2105
 4964SOL     MW19856   2.944   5.260   3.853  0.0712 -0.0657  0.1905
 4965SOL     OW19857   5.448   4.497   2.431 -0.0777  0.2659  0.4481
 4965SOL    HW119858   5.458   4.447   2.350 -0.7817  2.5441 -1.1534
 4965SOL    HW219859   5.358   4.478   2.459  0.1832 -0.5625  0.7736
 4965SOL     MW19860   5.437   4.488   2.424 -0.1344  0.4515  0.2848
 4966SOL     OW19861   0.624   2.682   4.886  0.3446 -0.3720 -0.3811
 4966SOL    HW119862   0.611   2.757   4.829 -0.1720 -0.6946 -0.6995
 4966SOL    HW219863   0.652   2.611   4.828 -0.6784 -0.8420 -0.3306
 4966SOL     MW19864   0.626   2.682   4.871  0.1475 -0.4735 -0.4154
 4967SOL     OW19865   2.269   3.653   5.144 -0.2091 -0.6812 -0.5875
 4967SOL    HW119866   2.306   3.584   5.089  0.2490 -1.8611  1.1245
 4967SOL    HW219867   2.228   3.607   5.217 -0.8399  0.8272  0.0602
 4967SOL     MW19868   2.268   3.638   5.146 -0.2312 -0.6391 -0.2855
 4968SOL     OW19869   4.702   1.263   4.912  0.1013 -0.1621 -0.1584
 4968SOL    HW119870   4.742   1.221   4.836  2.5279 -1.3404  1.6406
 4968SOL    HW219871   4.629   1.206   4.936 -0.2768 -0.1298 -1.1823
 4968SOL     MW19872   4.698   1.251   4.905  0.3635 -0.3088 -0.0592
 4969SOL     OW19873   4.100   3.402   3.654  0.1741 -0.3139  0.1268
 4969SOL    HW119874   4.096   3.497   3.654 -0.1732 -0.3259  0.7163
 4969SOL    HW219875   4.022   3.374   3.606 -1.2249 -0.3369  2.2844
 4969SOL     MW19876   4.090   3.410   3.648 -0.0494 -0.3184  0.4785
 4970SOL     OW19877   4.658   3.478   2.704 -0.3698 -0.0122 -0.1979
 4970SOL    HW119878   4.603   3.556   2.700 -0.0904  0.2489  0.7330
 4970SOL    HW219879   4.741   3.508   2.741 -0.8116 -1.0147  1.7735
 4970SOL     MW19880   4.662   3.492   2.708 -0.3906 -0.1071  0.1736
 4971SOL     OW19881   1.412   5.405   4.202 -0.0008 -0.0884  1.1820
 4971SOL    HW119882   1.389   5.378   4.113 -2.1119 -1.7885  2.1559
 4971SOL    HW219883   1.336   5.454   4.233  0.6602  0.3804  2.1098
 4971SOL     MW19884   1.399   5.408   4.194 -0.1864 -0.2460  1.4254
 4972SOL     OW19885   2.478   0.417   1.353 -0.0439 -0.1746 -0.2116
 4972SOL    HW119886   2.422   0.339   1.346 -2.6990  1.5337  0.4969
 4972SOL    HW219887   2.457   0.468   1.275  0.5580  0.5062  0.0689
 4972SOL     MW19888   2.468   0.413   1.342 -0.3068  0.1313 -0.0850
 4973SOL     OW19889   5.017   1.168   2.888  0.5884  0.5149 -0.1819
 4973SOL    HW119890   5.049   1.258   2.893  0.6930  0.4726 -0.0763
 4973SOL    HW219891   5.034   1.141   2.798 -1.1946  1.2409 -0.7711
 4973SOL     MW19892   5.023   1.176   2.877  0.3735  0.6024 -0.2438
 4974SOL     OW19893   5.032   2.796   0.497  0.0976 -0.3376 -0.1726
 4974SOL    HW119894   4.969   2.724   0.499  0.9444 -1.0813  1.4015
 4974SOL    HW219895   5.096   2.774   0.565  2.1420  0.3265 -1.7893
 4974SOL     MW19896   5.032   2.784   0.506  0.4677 -0.3478 -0.1780
 4975SOL     OW19897   4.328   2.933   0.998  0.1259 -0.0430  0.1303
 4975SOL    HW119898   4.333   2.848   1.042 -1.9127 -0.4366 -0.3064
 4975SOL    HW219899   4.302   2.912   0.909  1.6019  0.9367 -0.5740
 4975SOL     MW19900   4.326   2.919   0.992  0.0539  0.0320 -0.0158
 4976SOL     OW19901   0.887   4.204   3.974  0.1662 -0.0660  0.0622
 4976SOL    HW119902   0.898   4.110   3.960  1.5445  0.1836 -0.7986
 4976SOL    HW219903   0.846   4.212   4.060  0.4786 -1.4342  0.3560
 4976SOL     MW19904   0.883   4.193   3.983  0.3826 -0.2092 -0.0104
 4977SOL     OW19905   1.954   1.910   1.905 -0.6474  0.2302 -0.1854
 4977SOL    HW119906   1.877   1.864   1.871 -0.2703 -0.5253 -0.0234
 4977SOL    HW219907   1.996   1.948   1.828 -1.0191  0.4030 -0.3065
 4977SOL     MW19908   1.949   1.909   1.891 -0.6467  0.1556 -0.1802
 4978SOL     OW19909   4.229   2.660   1.760 -0.0588 -0.6001  0.0239
 4978SOL    HW119910   4.225   2.756   1.754  0.7555 -0.6331 -4.2137
 4978SOL    HW219911   4.320   2.641   1.783  0.5218 -0.2559 -1.7840
 4978SOL     MW19912   4.240   2.670   1.762  0.1197 -0.5603 -0.7500
 4979SOL     OW19913   0.759   3.667   5.126 -0.6635  0.2414  0.2509
 4979SOL    HW119914   0.736   3.582   5.087  2.1869 -0.8728  0.7417
 4979SOL    HW219915   0.812   3.710   5.059 -2.6848  2.0896 -0.2960
 4979SOL     MW19916   0.763   3.661   5.112 -0.5574  0.3354  0.2437
 4980SOL     OW19917   0.268   4.183   3.913 -0.3841  0.7055 -0.2336
 4980SOL    HW119918   0.221   4.266   3.902  2.9150  2.5102 -2.6551
 4980SOL    HW219919   0.236   4.127   3.842 -0.8663  0.8101 -0.1039
 4980SOL     MW19920   0.258   4.187   3.902 -0.0235  0.9499 -0.5270
 4981SOL     OW19921   1.800   4.578   2.724  0.0514 -0.3774 -0.0635
 4981SOL    HW119922   1.838   4.590   2.637  0.6599  0.4641  0.3141
 4981SOL    HW219923   1.868   4.607   2.785 -0.7636  0.0623  0.6590
 4981SOL     MW19924   1.813   4.583   2.721  0.0250 -0.2134  0.0773
 4982SOL     OW19925   4.357   4.388   4.304 -0.3554 -0.1646 -0.0240
 4982SOL    HW119926   4.391   4.325   4.368  0.5062 -1.2407 -1.4868
 4982SOL    HW219927   4.280   4.345   4.266  1.2314 -1.1948 -2.2739
 4982SOL     MW19928   4.351   4.375   4.308 -0.0420 -0.4343 -0.4993
 4983SOL     OW19929   2.522   1.393   3.091  0.3879  0.4429 -0.1654
 4983SOL    HW119930   2.588   1.334   3.053  0.3234  0.7972 -0.8553
 4983SOL    HW219931   2.541   1.394   3.184  1.2715  0.4177 -0.3360
 4983SOL     MW19932   2.533   1.385   3.098  0.4927  0.4850 -0.2756
 4984SOL     OW19933   4.248   0.050   4.272  0.0538 -0.1120  0.5799
 4984SOL    HW119934   4.167   0.020   4.313  0.5139 -0.8459  0.9832
 4984SOL    HW219935   4.230   0.048   4.178 -0.5036  0.0719  0.6780
 4984SOL     MW19936   4.235   0.046   4.265  0.0414 -0.1824  0.6441
 4985SOL     OW19937   2.149   2.391   1.582  0.4088 -0.1992  0.1929
 4985SOL    HW119938   2.067   2.395   1.631  0.0365  1.4621 -0.5134
 4985SOL    HW219939   2.168   2.481   1.559  2.7461 -0.4689  0.7839
 4985SOL     MW19940   2.140   2.403   1.586  0.6603 -0.0210  0.1781
 4986SOL     OW19941   0.990   1.181   1.466 -0.6298  0.1483 -0.1125
 4986SOL    HW119942   0.953   1.253   1.517 -3.8590 -1.3696 -0.0631
 4986SOL    HW219943   1.053   1.140   1.524 -1.2630  0.8919  1.1505
 4986SOL     MW19944   0.993   1.185   1.480 -1.1243  0.0492  0.0555
 4987SOL     OW19945   3.487   3.775   0.271 -0.2923  0.2123 -0.5623
 4987SOL    HW119946   3.486   3.766   0.175  2.0647  0.2979 -0.6753
 4987SOL    HW219947   3.549   3.846   0.287  0.3365 -0.6531  1.0590
 4987SOL     MW19948   3.495   3.783   0.261  0.0899  0.1125 -0.3692
 4988SOL     OW19949   3.706   1.172   2.574 -0.1986 -0.0181  0.2234
 4988SOL    HW119950   3.652   1.099   2.604  0.1871  0.2158  1.5638
 4988SOL    HW219951   3.796   1.142   2.587 -0.0272  1.0326  1.7627
 4988SOL     MW19952   3.710   1.159   2.580 -0.1273  0.1464  0.5920
 4989SOL     OW19953   5.277   2.562   1.860 -0.1724 -0.3909 -0.2003
 4989SOL    HW119954   5.240   2.551   1.948 -0.7512  1.2032 -0.2204
 4989SOL    HW219955   5.372   2.565   1.875 -0.2929  0.7875  0.5176
 4989SOL     MW19956   5.284   2.561   1.873 -0.2620 -0.0360 -0.1110
 4990SOL     OW19957   3.641   1.432   1.269 -0.1418 -0.5663 -0.1290
 4990SOL    HW119958   3.555   1.474   1.279 -0.2812 -0.8375 -0.1774
 4990SOL    HW219959   3.689   1.490   1.210 -0.8755 -1.2564 -1.4420
 4990SOL     MW19960   3.636   1.445   1.263 -0.2536 -0.6894 -0.3033
 4991SOL     OW19961   0.741   4.438   0.881  0.0882 -0.1330  0.1038
 4991SOL    HW119962   0.711   4.421   0.970 -1.4632  0.1445 -0.3394
 4991SOL    HW219963   0.700   4.369   0.829  0.9963 -0.3045 -0.4131
 4991SOL     MW19964   0.732   4.427   0.886  0.0058 -0.1194 -0.0191
 4992SOL     OW19965   2.320   2.598   1.851  0.1616 -0.3671  0.2567
 4992SOL    HW119966   2.347   2.522   1.799  0.2577 -0.5169  0.5260
 4992SOL    HW219967   2.242   2.630   1.807  0.5583 -0.1589 -0.3098
 4992SOL     MW19968   2.314   2.592   1.839  0.2247 -0.3597  0.2186
 4993SOL     OW19969   3.676   5.430   4.243  0.2783  0.1001 -0.1701
 4993SOL    HW119970   3.757   5.398   4.281  0.3855  1.4594  0.8186
 4993SOL    HW219971   3.703   5.478   4.164  0.4543  0.6458  0.2186
 4993SOL     MW19972   3.690   5.432   4.237  0.3146  0.3439  0.0062
 4994SOL     OW19973   4.531   1.303   1.542 -0.1828  0.1958  0.1397
 4994SOL    HW119974   4.529   1.268   1.453 -1.8311  0.8154 -0.1045
 4994SOL    HW219975   4.451   1.270   1.582 -0.4219  1.4502  0.7594
 4994SOL     MW19976   4.520   1.294   1.536 -0.4244  0.4357  0.1878
 4995SOL     OW19977   3.994   1.992   1.885 -0.2350 -0.0040 -0.2974
 4995SOL    HW119978   4.076   2.032   1.914 -0.5184  0.8002 -0.6078
 4995SOL    HW219979   3.959   1.951   1.964  0.5584 -0.5314 -0.2034
 4995SOL     MW19980   4.000   1.992   1.899 -0.1697  0.0314 -0.3251
 4996SOL     OW19981   4.507   1.330   3.511  0.3176 -0.3405 -0.0701
 4996SOL    HW119982   4.529   1.404   3.568  0.7270 -0.2926 -0.2841
 4996SOL    HW219983   4.467   1.266   3.569  1.0621 -0.4384  0.3497
 4996SOL     MW19984   4.505   1.331   3.526  0.4653 -0.3469 -0.0438
 4997SOL     OW19985   0.602   1.789   1.889 -0.3179 -0.1544  0.4015
 4997SOL    HW119986   0.628   1.864   1.944 -0.0208 -0.7376  1.0728
 4997SOL    HW219987   0.649   1.803   1.807 -2.2365  1.7409 -0.4580
 4997SOL     MW19988   0.612   1.801   1.886 -0.5254  0.0136  0.3774
 4998SOL     OW19989   4.516   5.366   0.875  0.2811 -0.1829  0.0693
 4998SOL    HW119990   4.453   5.394   0.942 -0.3480  1.5169 -1.1753
 4998SOL    HW219991   4.484   5.280   0.848 -0.9183  0.1799  0.2274
 4998SOL     MW19992   4.504   5.359   0.880  0.0470  0.0811 -0.0698
 4999SOL     OW19993   1.210   3.807   1.202 -0.1275 -0.3172  0.0765
 4999SOL    HW119994   1.154   3.884   1.204 -0.5605 -0.6345  0.3384
 4999SOL    HW219995   1.262   3.813   1.283  2.6074  1.6972 -1.6347
 4999SOL     MW19996   1.210   3.817   1.213  0.1672 -0.0999 -0.1091
 5000SOL     OW19997   4.902   1.529   2.269  0.1221  0.7312  0.3245
 5000SOL    HW119998   4.843   1.468   2.226  1.0109  0.1608 -0.1128
 5000SOL    HW219999   4.850   1.608   2.283 -0.6489  0.3409 -0.3157
 5000SOL     MW20000   4.888   1.531   2.266  0.1371  0.6082  0.1866
 5001SOL     OW20001   2.814   1.672   3.305 -0.3292 -0.1183  0.4640
 5001SOL    HW120002   2.720   1.685   3.302 -0.5797 -1.0217  2.5522
 5001SOL    HW220003   2.825   1.578   3.321  0.8836  0.0557  0.7664
 5001SOL     MW20004   2.804   1.662   3.307 -0.2060 -0.2117  0.7701
 5002SOL     OW20005   0.666   1.106   0.331  0.1324 -0.5222 -0.3091
 5002SOL    HW120006   0.596   1.067   0.383 -0.2919  1.0623  0.3764
 5002SOL    HW220007   0.625   1.180   0.286  1.2713  0.2506 -0.1302
 5002SOL     MW20008   0.652   1.110   0.332  0.2239 -0.2205 -0.1984
 5003SOL     OW20009   3.281   0.475   2.699  0.0096  0.5032 -0.1771
 5003SOL    HW120010   3.291   0.567   2.674 -1.2515  0.4146 -1.0980
 5003SOL    HW220011   3.342   0.428   2.643  0.3426  0.7308 -0.0076
 5003SOL     MW20012   3.290   0.481   2.689 -0.1092  0.5210 -0.2733
 5004SOL     OW20013   2.047   4.428   5.451  0.4418 -0.1310  0.9185
 5004SOL    HW120014   2.072   4.440   5.359 -1.0350  1.1068  0.6392
 5004SOL    HW220015   2.095   4.495   5.498  0.1052  0.1747  0.8322
 5004SOL     MW20016   2.056   4.438   5.445  0.2096  0.0666  0.8717
 5005SOL     OW20017   4.516   4.039   3.398  0.6467 -0.3539  0.0042
 5005SOL    HW120018   4.424   4.049   3.372  0.5879 -0.3236  0.2146
 5005SOL    HW220019   4.516   3.965   3.459  0.4767  0.6663  1.3095
 5005SOL     MW20020   4.504   4.031   3.403  0.6174 -0.2194  0.1982
 5006SOL     OW20021   4.569   4.036   4.782 -0.7147 -0.2436 -0.2201
 5006SOL    HW120022   4.640   3.978   4.809 -0.3118 -1.0098 -2.6746
 5006SOL    HW220023   4.598   4.123   4.810 -0.0695 -0.8700  1.1355
 5006SOL     MW20024   4.582   4.040   4.789 -0.5806 -0.4218 -0.3608
 5007SOL     OW20025   1.813   4.298   4.732 -0.0878  0.3977 -0.4630
 5007SOL    HW120026   1.904   4.324   4.747  0.1899 -0.4487 -0.6315
 5007SOL    HW220027   1.787   4.255   4.813 -0.5702  1.2253 -0.1583
 5007SOL     MW20028   1.821   4.296   4.744 -0.1140  0.3953 -0.4456
 5008SOL     OW20029   0.751   1.598   2.033 -0.0784  0.6318  0.0983
 5008SOL    HW120030   0.726   1.684   2.000 -0.1029  0.6111  0.0632
 5008SOL    HW220031   0.837   1.612   2.074  0.9124  0.2597 -1.7298
 5008SOL     MW20032   0.759   1.611   2.034  0.0453  0.5815 -0.1402
 5009SOL     OW20033   2.676   2.373   3.703 -0.4745  0.2841  0.0701
 5009SOL    HW120034   2.684   2.337   3.792  0.1094  0.0822 -0.0573
 5009SOL    HW220035   2.641   2.461   3.716  1.7911  1.1505  0.6908
 5009SOL     MW20036   2.673   2.379   3.716 -0.1097  0.3692  0.1332
 5010SOL     OW20037   1.831   1.794   1.040  0.0060  0.9235 -0.2042
 5010SOL    HW120038   1.873   1.711   1.061  0.2031  0.9825 -0.3577
 5010SOL    HW220039   1.739   1.781   1.062 -0.1146  0.3918 -0.9773
 5010SOL     MW20040   1.825   1.782   1.045  0.0158  0.8629 -0.3228
 5011SOL     OW20041   4.170   0.681   4.525 -0.1780  0.2639  0.3647
 5011SOL    HW120042   4.194   0.720   4.441 -1.2381 -1.4210 -0.7685
 5011SOL    HW220043   4.145   0.591   4.504 -1.9223  0.2250  2.2742
 5011SOL     MW20044   4.170   0.675   4.511 -0.5370  0.0432  0.4641
 5012SOL     OW20045   4.694   0.039   3.233  0.3678 -0.0053 -0.5283
 5012SOL    HW120046   4.678  -0.029   3.299  0.2092  1.9280  1.5764
 5012SOL    HW220047   4.696  -0.008   3.150  1.0249 -2.6744  0.8585
 5012SOL     MW20048   4.692   0.024   3.231  0.4316 -0.0995 -0.0813
 5013SOL     OW20049   3.951   5.489   0.810 -0.2676  0.3660 -0.1719
 5013SOL    HW120050   3.932   5.395   0.819  0.4972  0.1921 -0.2939
 5013SOL    HW220051   3.875   5.524   0.764 -2.3535  0.5383  3.1565
 5013SOL     MW20052   3.939   5.481   0.805 -0.4367  0.3658  0.2386
 5014SOL     OW20053   5.166   5.400   0.459 -0.0942  0.3099 -0.1740
 5014SOL    HW120054   5.237   5.338   0.443 -0.5375  0.2787 -2.2664
 5014SOL    HW220055   5.138   5.428   0.372 -0.6960  2.5758  0.6688
 5014SOL     MW20056   5.172   5.396   0.446 -0.2280  0.5959 -0.3340
 5015SOL     OW20057   3.569   0.841   5.222  0.2131 -0.1833  0.1840
 5015SOL    HW120058   3.607   0.777   5.283 -1.5168 -0.1092  1.4028
 5015SOL    HW220059   3.538   0.912   5.277 -0.5316  0.3532 -0.8869
 5015SOL     MW20060   3.570   0.842   5.237 -0.1036 -0.1051  0.2030
 5016SOL     OW20061   2.659   1.724   0.699 -0.2530  0.0468 -0.7270
 5016SOL    HW120062   2.613   1.648   0.665  0.0025 -1.0476  1.1888
 5016SOL    HW220063   2.617   1.742   0.783  2.1238 -0.4843  0.7057
 5016SOL     MW20064   2.648   1.716   0.705  0.0840 -0.1612 -0.2984
 5017SOL     OW20065   3.086   2.658   3.675 -0.3970  0.3911 -0.0183
 5017SOL    HW120066   3.115   2.746   3.655  1.7204 -0.0988  0.6731
 5017SOL    HW220067   3.103   2.647   3.769 -1.7300 -0.3845  0.1677
 5017SOL     MW20068   3.092   2.668   3.684 -0.2966  0.2291  0.0940
 5018SOL     OW20069   1.905   1.163   5.067 -0.6442 -0.3923 -0.1630
 5018SOL    HW120070   1.939   1.123   4.987  0.5973  1.3459 -0.5566
 5018SOL    HW220071   1.962   1.131   5.137 -0.3403 -0.1655 -0.3078
 5018SOL     MW20072   1.916   1.154   5.066 -0.4464 -0.1408 -0.2319
 5019SOL     OW20073   1.373   1.140   0.224 -0.1775  0.3119 -0.3988
 5019SOL    HW120074   1.283   1.142   0.190  0.2742  1.0691 -1.5817
 5019SOL    HW220075   1.424   1.099   0.155  0.5706  0.8402 -0.1724
 5019SOL     MW20076   1.368   1.135   0.211 -0.0239  0.4765 -0.5213
 5020SOL     OW20077   4.474   4.801   5.288 -0.3339  0.3927  0.0817
 5020SOL    HW120078   4.502   4.713   5.263 -0.3044 -0.3184  2.3738
 5020SOL    HW220079   4.523   4.860   5.230  1.7036 -1.0076  0.2698
 5020SOL     MW20080   4.484   4.797   5.277 -0.0693  0.1224  0.3992
 5021SOL     OW20081   4.219   2.941   1.801 -0.0080  0.1683  0.0918
 5021SOL    HW120082   4.162   2.988   1.740 -1.6776 -0.6872  0.9193
 5021SOL    HW220083   4.308   2.966   1.776 -0.6457  0.1792 -2.4069
 5021SOL     MW20084   4.223   2.950   1.790 -0.3034  0.0602 -0.1221
 5022SOL     OW20085   4.994   0.344   2.200 -0.0766  0.1646 -0.0956
 5022SOL    HW120086   5.064   0.288   2.166 -0.0177  0.4500 -0.4554
 5022SOL    HW220087   4.975   0.309   2.287 -0.4023 -0.7319 -0.5199
 5022SOL     MW20088   5.001   0.332   2.206 -0.1108  0.0864 -0.1960
 5023SOL     OW20089   1.282   3.041   3.037 -0.3749 -0.0310 -0.0672
 5023SOL    HW120090   1.289   2.965   2.979 -2.2139 -0.8520  0.7250
 5023SOL    HW220091   1.227   3.103   2.990  1.4605  1.0753 -0.8969
 5023SOL     MW20092   1.276   3.039   3.024 -0.3754  0.0056 -0.0720
 5024SOL     OW20093   4.832   4.620   2.577  0.1892  0.4442 -0.2386
 5024SOL    HW120094   4.800   4.534   2.603 -0.2427  0.1384 -1.6878
 5024SOL    HW220095   4.754   4.669   2.554  0.4712  1.0631  0.0989
 5024SOL     MW20096   4.818   4.615   2.577  0.1700  0.4843 -0.3809
 5025SOL     OW20097   2.831   3.224   0.416 -0.3927  0.7402  0.2743
 5025SOL    HW120098   2.744   3.265   0.412 -0.0692  1.3684 -0.4278
 5025SOL    HW220099   2.892   3.295   0.396  0.3218  0.4038  1.1912
 5025SOL     MW20100   2.827   3.239   0.413 -0.2598  0.7776  0.3018
 5026SOL     OW20101   3.478   0.604   3.626 -0.2048  0.1342 -0.5271
 5026SOL    HW120102   3.481   0.524   3.573  0.0051  0.2993 -0.7648
 5026SOL    HW220103   3.495   0.573   3.716 -1.8886 -0.3323 -0.3356
 5026SOL     MW20104   3.481   0.590   3.631 -0.3934  0.0956 -0.5331
 5027SOL     OW20105   2.715   4.424   3.033 -0.4933  0.1499  0.2986
 5027SOL    HW120106   2.686   4.424   2.942 -0.2513 -0.3110  0.2158
 5027SOL    HW220107   2.677   4.503   3.071  0.4414  1.0262 -0.5285
 5027SOL     MW20108   2.706   4.434   3.026 -0.3427  0.2031  0.1821
 5028SOL     OW20109   3.226   2.026   4.602 -0.1497  0.1489 -0.6070
 5028SOL    HW120110   3.288   2.035   4.529  1.8383  0.6227  1.0273
 5028SOL    HW220111   3.274   2.060   4.678 -1.6024 -1.5822  1.2044
 5028SOL     MW20112   3.240   2.031   4.602 -0.0812 -0.0121 -0.1659
 5029SOL     OW20113   2.832   3.522   3.736  0.4829  0.2066  0.4472
 5029SOL    HW120114   2.915   3.571   3.737 -0.4110  1.9751 -1.7531
 5029SOL    HW220115   2.815   3.508   3.643 -2.3193  1.0552  0.7579
 5029SOL     MW20116   2.841   3.526   3.724  0.0097  0.5416  0.2053
 5030SOL     OW20117   2.414   5.398   2.841 -0.0250  0.2117 -0.2152
 5030SOL    HW120118   2.336   5.357   2.879 -0.7326  1.5930 -0.1055
 5030SOL    HW220119   2.396   5.400   2.747  0.2290 -0.1661 -0.2735
 5030SOL     MW20120   2.401   5.393   2.834 -0.0831  0.3402 -0.2086
 5031SOL     OW20121   5.431   1.496   0.256  0.7498  0.2816 -0.2662
 5031SOL    HW120122   5.434   1.416   0.309 -0.9511 -0.7391 -1.6036
 5031SOL    HW220123   5.408   1.564   0.318 -0.7868 -0.8146  0.4463
 5031SOL     MW20124   5.428   1.494   0.271  0.3354  0.0106 -0.3462
 5032SOL     OW20125   0.158   5.366   3.948 -0.3943 -0.6293 -0.7261
 5032SOL    HW120126   0.067   5.341   3.963 -0.3138 -1.3275 -1.3306
 5032SOL    HW220127   0.206   5.324   4.019 -0.7378  1.2824  0.7091
 5032SOL     MW20128   0.152   5.357   3.959 -0.4280 -0.4739 -0.6198
 5033SOL     OW20129   3.244   3.789   2.861  0.2888  0.8054  0.1310
 5033SOL    HW120130   3.296   3.713   2.888 -0.7939  0.6493  1.9620
 5033SOL    HW220131   3.159   3.776   2.904  0.3783  3.4942  1.3082
 5033SOL     MW20132   3.240   3.778   2.870  0.1616  1.1296  0.5161
 5034SOL     OW20133   2.720   2.723   2.148  0.5391  0.2892  0.3353
 5034SOL    HW120134   2.712   2.813   2.178 -0.6328  0.4876 -0.5358
 5034SOL    HW220135   2.799   2.722   2.094  0.2976  0.8933 -0.0273
 5034SOL     MW20136   2.729   2.734   2.145  0.3581  0.3920  0.1774
 5035SOL     OW20137   5.448   2.575   1.554  0.1979 -0.2339 -0.5613
 5035SOL    HW120138   5.483   2.662   1.573  0.3191 -0.6776  1.5283
 5035SOL    HW220139   5.483   2.520   1.624 -1.4962 -1.5244 -0.6785
 5035SOL     MW20140   5.457   2.579   1.566 -0.0034 -0.4559 -0.3088
 5036SOL     OW20141   3.559   1.999  -0.003 -0.1275  0.4731  0.1060
 5036SOL    HW120142   3.607   1.968   0.074 -0.9784 -0.8400  0.1547
 5036SOL    HW220143   3.495   2.061   0.032 -0.2406  0.1867  0.4151
 5036SOL     MW20144   3.557   2.003   0.012 -0.2509  0.2683  0.1518
 5037SOL     OW20145   4.749   5.383   5.066 -0.7944 -0.2015 -0.0646
 5037SOL    HW120146   4.671   5.328   5.059  0.1078 -1.7780  1.4386
 5037SOL    HW220147   4.808   5.351   4.997 -1.6314  1.3843 -1.5953
 5037SOL     MW20148   4.747   5.372   5.056 -0.7860 -0.2003 -0.0681
 5038SOL     OW20149   4.242   0.562   3.811 -0.3614 -0.0681  0.1791
 5038SOL    HW120150   4.168   0.605   3.769 -0.2981  0.8025  0.9274
 5038SOL    HW220151   4.205   0.483   3.849 -1.4450  1.4017  2.4298
 5038SOL     MW20152   4.228   0.558   3.810 -0.4920  0.2315  0.5630
 5039SOL     OW20153   3.486   0.135   2.920 -0.4383  0.2486 -0.3129
 5039SOL    HW120154   3.402   0.102   2.889 -0.1524 -1.2865  0.4752
 5039SOL    HW220155   3.487   0.115   3.014  1.1516 -0.5626 -0.4584
 5039SOL     MW20156   3.475   0.129   2.928 -0.1982 -0.0517 -0.2306
 5040SOL     OW20157   4.451   5.019   3.746  0.4828  0.7684 -0.0814
 5040SOL    HW120158   4.496   5.078   3.806  1.2526  0.0352  0.0906
 5040SOL    HW220159   4.489   5.038   3.660  0.7825  0.5011 -0.0149
 5040SOL     MW20160   4.462   5.029   3.742  0.6197  0.6403 -0.0509
 5041SOL     OW20161   3.793   1.517   5.072  0.4132 -0.4672 -0.7115
 5041SOL    HW120162   3.775   1.608   5.049 -1.6988 -1.1253 -1.9624
 5041SOL    HW220163   3.815   1.476   4.988  3.0346 -0.8481  0.0512
 5041SOL     MW20164   3.794   1.523   5.058  0.4784 -0.6002 -0.7740
 5042SOL     OW20165   3.691   0.931   4.957  0.7049  0.3875  0.2304
 5042SOL    HW120166   3.641   0.925   5.039 -0.3777  0.3486 -0.4163
 5042SOL    HW220167   3.625   0.951   4.891  1.4585 -0.3844 -0.7651
 5042SOL     MW20168   3.676   0.933   4.959  0.6628  0.2837  0.0202
 5043SOL     OW20169   0.239   2.326   1.626  0.2288  0.3488 -0.0994
 5043SOL    HW120170   0.192   2.300   1.547  1.6685  0.3596 -1.0036
 5043SOL    HW220171   0.172   2.327   1.695 -0.5696 -2.3259 -0.7104
 5043SOL     MW20172   0.224   2.323   1.625  0.3109  0.0078 -0.2933
 5044SOL     OW20173   2.084   4.385   3.568 -0.4987 -0.2382  0.1637
 5044SOL    HW120174   2.172   4.360   3.539 -1.5574 -2.6833 -1.3297
 5044SOL    HW220175   2.088   4.384   3.663  1.2262  0.3192  0.1230
 5044SOL     MW20176   2.096   4.382   3.576 -0.4135 -0.4798 -0.0327
 5045SOL     OW20177   4.406   3.268   5.020  0.6525  0.1172  0.3225
 5045SOL    HW120178   4.403   3.352   4.974  0.5969  1.1695  2.1445
 5045SOL    HW220179   4.338   3.275   5.086  0.0679 -1.7373 -0.0306
 5045SOL     MW20180   4.397   3.280   5.022  0.5705  0.0145  0.5105
 5046SOL     OW20181   2.692   3.004   1.024 -0.0485 -0.2397 -0.2471
 5046SOL    HW120182   2.695   3.099   1.029  1.6389 -0.2539 -0.3436
 5046SOL    HW220183   2.640   2.977   1.099 -1.3207  0.7729 -0.7211
 5046SOL     MW20184   2.686   3.013   1.034  0.0046 -0.1119 -0.3201
 5047SOL     OW20185   0.345   1.469   2.646  0.2112 -0.0316 -0.0114
 5047SOL    HW120186   0.392   1.386   2.646 -1.3402 -1.0282  2.1326
 5047SOL    HW220187   0.408   1.533   2.679  0.5558 -1.0205  1.3337
 5047SOL     MW20188   0.359   1.466   2.650  0.0567 -0.2858  0.4353
 5048SOL     OW20189   5.086   2.244   5.044 -0.3851 -0.0715  0.7257
 5048SOL    HW120190   5.100   2.193   4.965  0.1152  1.2517 -0.0715
 5048SOL    HW220191   4.996   2.224   5.071 -0.5236 -0.5991 -0.1163
 5048SOL     MW20192   5.076   2.235   5.038 -0.3388  0.0304  0.5158
 5049SOL     OW20193   3.885   2.148   5.414 -0.0294 -0.0297 -0.0504
 5049SOL    HW120194   3.895   2.082   5.346  1.7568  1.1185 -0.9702
 5049SOL    HW220195   3.963   2.138   5.469 -1.8800 -1.5827  2.5233
 5049SOL     MW20196   3.896   2.138   5.413 -0.0377 -0.0815  0.1613
 5050SOL     OW20197   3.800   3.142   2.409 -0.2682  0.0028  1.1001
 5050SOL    HW120198   3.837   3.226   2.436 -0.3627  0.4234 -0.0215
 5050SOL    HW220199   3.876   3.087   2.394 -0.2097 -0.1851  2.0167
 5050SOL     MW20200   3.815   3.146   2.411 -0.2728  0.0326  1.0739
 5051SOL     OW20201   3.720   3.284   0.148  0.3640  0.1417 -0.4214
 5051SOL    HW120202   3.768   3.341   0.208  2.1325 -0.2912 -1.3646
 5051SOL    HW220203   3.628   3.306   0.163  0.8967  1.8942  0.5745
 5051SOL     MW20204   3.715   3.294   0.158  0.6586  0.3106 -0.4146
 5052SOL     OW20205   1.284   1.594   4.794 -0.4527  0.0812 -0.2279
 5052SOL    HW120206   1.326   1.590   4.880  0.2188 -1.7896 -0.5840
 5052SOL    HW220207   1.345   1.642   4.739 -0.4827  0.5392  0.1380
 5052SOL     MW20208   1.297   1.599   4.798 -0.3705 -0.0996 -0.2266
 5053SOL     OW20209   0.932   4.624   2.832  0.3338 -0.3919 -0.0367
 5053SOL    HW120210   0.916   4.693   2.767 -0.2323 -1.2163 -0.8005
 5053SOL    HW220211   0.853   4.625   2.887 -0.4531 -1.5205 -1.0871
 5053SOL     MW20212   0.920   4.633   2.831  0.1606 -0.6419 -0.2689
 5054SOL     OW20213   3.471   3.105   4.978 -0.2190 -0.1285  0.4423
 5054SOL    HW120214   3.464   3.042   4.905 -1.2006  0.4464  0.0144
 5054SOL    HW220215   3.382   3.140   4.987  0.5215  1.9951 -0.0362
 5054SOL     MW20216   3.458   3.101   4.970 -0.2499  0.2170  0.3262
 5055SOL     OW20217   1.714   4.060   1.134  0.4048  0.3403  0.3168
 5055SOL    HW120218   1.660   4.139   1.143 -0.8131 -0.1876 -1.7010
 5055SOL    HW220219   1.661   3.990   1.173  1.0197  0.3262  1.1462
 5055SOL     MW20220   1.700   4.061   1.140  0.3276  0.2709  0.1647
 5056SOL     OW20221   0.612   2.729   0.928 -0.0547 -0.1530 -0.0802
 5056SOL    HW120222   0.562   2.750   1.007 -0.5925 -0.3911 -0.3522
 5056SOL    HW220223   0.583   2.793   0.863  2.3763  1.8627  0.6394
 5056SOL     MW20224   0.602   2.740   0.929  0.1877  0.0745 -0.0229
 5057SOL     OW20225   0.045   0.409   2.882 -0.6588 -0.2967  0.1527
 5057SOL    HW120226   0.066   0.318   2.860 -0.0593  0.2959 -2.0272
 5057SOL    HW220227  -0.050   0.414   2.873 -0.5354 -0.3292 -1.5720
 5057SOL     MW20228   0.036   0.398   2.878 -0.5662 -0.2250 -0.3472
 5058SOL     OW20229   0.774   1.550   0.435 -0.5522  0.1929 -0.4020
 5058SOL    HW120230   0.740   1.638   0.418  1.7612  0.8279 -2.2277
 5058SOL    HW220231   0.810   1.555   0.524 -1.0425  0.8639 -0.2338
 5058SOL     MW20232   0.774   1.562   0.444 -0.3188  0.3601 -0.6142
 5059SOL     OW20233   2.492   3.630   1.646  0.0480 -0.3040  0.0531
 5059SOL    HW120234   2.551   3.585   1.706  0.8735  1.3999  0.5776
 5059SOL    HW220235   2.528   3.614   1.559  0.8982  0.1224  0.3162
 5059SOL     MW20236   2.504   3.622   1.642  0.2625 -0.0313  0.1539
 5060SOL     OW20237   0.870   4.172   4.859  0.5155 -0.2899  0.2757
 5060SOL    HW120238   0.925   4.248   4.842  0.4127 -0.1779  0.4474
 5060SOL    HW220239   0.784   4.196   4.826  0.3957 -0.1966  0.6494
 5060SOL     MW20240   0.866   4.185   4.853  0.4870 -0.2637  0.3455
 5061SOL     OW20241   2.698   4.724   5.472  0.4920  0.4164  0.5808
 5061SOL    HW120242   2.690   4.726   5.377  2.5232  0.1837  0.3612
 5061SOL    HW220243   2.633   4.660   5.501  0.2314  0.0864 -0.6913
 5061SOL     MW20244   2.689   4.716   5.464  0.7187  0.3444  0.3898
 5062SOL     OW20245   4.066   2.013   4.164 -0.4702 -0.3119 -0.0580
 5062SOL    HW120246   4.110   2.041   4.084  1.0358 -2.5727 -0.1014
 5062SOL    HW220247   4.110   2.060   4.234  1.6400 -1.9870 -0.1709
 5062SOL     MW20248   4.077   2.022   4.163 -0.0073 -0.8157 -0.0780
 5063SOL     OW20249   3.116   0.760   5.442 -0.0132  0.3234 -0.1656
 5063SOL    HW120250   3.057   0.827   5.406 -0.4561 -0.5351 -1.0646
 5063SOL    HW220251   3.060   0.705   5.496  0.1073 -0.0626 -0.4323
 5063SOL     MW20252   3.101   0.762   5.444 -0.0545  0.1641 -0.3148
 5064SOL     OW20253   1.618   1.220   1.918  0.0493  0.2345  0.2332
 5064SOL    HW120254   1.589   1.296   1.868  2.1337  1.5920  0.9223
 5064SOL    HW220255   1.580   1.145   1.873 -0.8534  1.5844 -1.3756
 5064SOL     MW20256   1.610   1.220   1.906  0.2005  0.5811  0.1155
 5065SOL     OW20257   0.982   4.103   5.093  0.3319  0.5872  0.0448
 5065SOL    HW120258   0.919   4.132   5.027 -1.3629 -2.2731  0.2468
 5065SOL    HW220259   1.045   4.050   5.044  1.0556  1.2516  0.2464
 5065SOL     MW20260   0.982   4.100   5.078  0.2076  0.3061  0.0965
 5066SOL     OW20261   5.156   4.821   1.349 -0.1179 -0.5014 -0.2792
 5066SOL    HW120262   5.251   4.823   1.360 -0.3007  1.9849  1.8203
 5066SOL    HW220263   5.138   4.894   1.291 -0.7809 -0.8758 -0.5506
 5066SOL     MW20264   5.166   4.830   1.343 -0.2262 -0.2311 -0.0452
 5067SOL     OW20265   4.080   5.142   4.736  0.1027 -0.6449  0.4421
 5067SOL    HW120266   4.165   5.171   4.704  0.0084 -0.2574  0.5384
 5067SOL    HW220267   4.072   5.181   4.822 -1.2880  1.5235 -0.5932
 5067SOL     MW20268   4.090   5.150   4.743 -0.0874 -0.3177  0.3219
 5068SOL     OW20269   5.096   1.092   3.671  0.3731  0.1378 -0.4032
 5068SOL    HW120270   5.131   1.008   3.640  0.5183  0.2163 -0.4528
 5068SOL    HW220271   5.160   1.123   3.735 -0.3023 -0.3788  0.5428
 5068SOL     MW20272   5.109   1.085   3.675  0.3052  0.0817 -0.2884
 5069SOL     OW20273   0.732   0.102   0.433 -0.4879  0.7554 -0.3728
 5069SOL    HW120274   0.683   0.021   0.445  0.3548  0.3209  0.2260
 5069SOL    HW220275   0.790   0.106   0.508  1.6120  0.3705 -1.8764
 5069SOL     MW20276   0.733   0.092   0.444 -0.1112  0.6505 -0.4886
 5070SOL     OW20277   3.408   1.670   5.069  0.2808 -0.3379  0.0026
 5070SOL    HW120278   3.464   1.620   5.127 -0.6866  1.3131  2.5192
 5070SOL    HW220279   3.328   1.618   5.061 -0.3491  0.2645  1.8386
 5070SOL     MW20280   3.405   1.657   5.075  0.0763 -0.0494  0.5598
 5071SOL     OW20281   1.486   3.858   0.588  0.0877 -0.3739  0.1514
 5071SOL    HW120282   1.508   3.863   0.681 -1.9358 -0.6330  0.7076
 5071SOL    HW220283   1.450   3.770   0.577  0.5328 -0.4308 -0.9476
 5071SOL     MW20284   1.484   3.847   0.599 -0.1143 -0.4143  0.0819
 5072SOL     OW20285   0.541   4.497   4.910  0.0805  0.0088 -0.3171
 5072SOL    HW120286   0.605   4.568   4.918 -0.0934  0.1989 -0.5887
 5072SOL    HW220287   0.464   4.539   4.872  0.3379 -0.5307 -1.5102
 5072SOL     MW20288   0.540   4.511   4.906  0.0912 -0.0359 -0.5046
 5073SOL     OW20289   0.958   5.093   4.041 -0.4875 -0.0132  0.1244
 5073SOL    HW120290   0.991   5.183   4.044 -1.0148  0.2330 -0.8472
 5073SOL    HW220291   1.003   5.048   4.112 -0.3812  1.0776  0.7720
 5073SOL     MW20292   0.968   5.099   4.051 -0.5414  0.1580  0.0829
 5074SOL     OW20293   5.419   2.439   1.286 -0.0194 -0.3136  0.7503
 5074SOL    HW120294   5.327   2.418   1.270  0.2743 -2.0370  1.0947
 5074SOL    HW220295   5.420   2.470   1.376 -0.4537  1.1376  0.2756
 5074SOL     MW20296   5.407   2.440   1.296 -0.0374 -0.3484  0.7336
 5075SOL     OW20297   0.505   4.553   4.204 -0.1889  0.2322 -0.4390
 5075SOL    HW120298   0.525   4.521   4.116  0.4892  0.4051 -0.3517
 5075SOL    HW220299   0.546   4.639   4.208 -0.0848  0.1628  0.0963
 5075SOL     MW20300   0.513   4.560   4.193 -0.0887  0.2455 -0.3593
 5076SOL     OW20301   3.368   2.207   5.141  0.1292 -0.0788  0.2451
 5076SOL    HW120302   3.451   2.256   5.134  0.3277 -0.3837  0.4339
 5076SOL    HW220303   3.392   2.117   5.121 -0.6307  0.2034 -2.2183
 5076SOL     MW20304   3.382   2.202   5.138  0.0573 -0.0817 -0.0460
 5077SOL     OW20305   1.186   5.486   2.153 -0.3543  0.1404 -0.4991
 5077SOL    HW120306   1.207   5.512   2.243  0.3215 -0.1900 -0.5573
 5077SOL    HW220307   1.178   5.390   2.158  1.0151 -0.0134 -1.0566
 5077SOL     MW20308   1.187   5.477   2.165 -0.0925  0.0784 -0.5779
 5078SOL     OW20309   2.002   4.399   4.503  0.0956 -0.6262 -0.4558
 5078SOL    HW120310   1.971   4.314   4.473  0.1147 -0.9598  0.4305
 5078SOL    HW220311   2.050   4.379   4.584 -1.1315  0.3785  0.5567
 5078SOL     MW20312   2.004   4.385   4.510 -0.0590 -0.5403 -0.2127
 5079SOL     OW20313   5.076   4.155   4.994 -0.0109  0.0116 -0.4284
 5079SOL    HW120314   4.987   4.178   4.967 -0.1245 -0.2262 -0.2632
 5079SOL    HW220315   5.083   4.061   4.976  1.0495  0.4747 -2.7820
 5079SOL     MW20316   5.065   4.146   4.988  0.1103  0.0405 -0.7085
 5080SOL     OW20317   0.083   5.169   3.307  0.4738 -0.5143 -0.0433
 5080SOL    HW120318   0.105   5.077   3.312 -0.5925 -0.7217  1.3458
 5080SOL    HW220319   0.034   5.177   3.225  0.7330 -1.1408 -0.2645
 5080SOL     MW20320   0.079   5.159   3.297  0.3705 -0.6210  0.1063
 5081SOL     OW20321   0.974   4.106   0.633 -0.3838 -0.3135  0.2061
 5081SOL    HW120322   0.994   4.034   0.573  1.1830 -0.3828  0.7656
 5081SOL    HW220323   0.931   4.064   0.707  1.2918 -0.8726  0.9292
 5081SOL     MW20324   0.971   4.091   0.635  0.0313 -0.3939  0.3703
 5082SOL     OW20325   2.335   4.268   2.406  0.0811 -0.1409  0.1199
 5082SOL    HW120326   2.324   4.363   2.413  1.3892  0.0403 -0.1183
 5082SOL    HW220327   2.353   4.240   2.496  0.7740 -0.0142  0.0216
 5082SOL     MW20328   2.336   4.276   2.419  0.3373 -0.1015  0.0768
 5083SOL     OW20329   4.273   4.842   4.615  0.5702 -0.4801 -0.0830
 5083SOL    HW120330   4.362   4.809   4.628  1.0850  0.6099 -0.6982
 5083SOL    HW220331   4.250   4.814   4.526  0.9750  0.6846 -0.5742
 5083SOL     MW20332   4.282   4.834   4.605  0.6879 -0.1915 -0.2246
 5084SOL     OW20333   3.063   0.292   1.936  0.2236 -0.1448 -0.6725
 5084SOL    HW120334   3.125   0.278   2.009  1.2964 -1.2696 -1.7601
 5084SOL    HW220335   3.013   0.211   1.931  0.2817 -0.1473 -1.2925
 5084SOL     MW20336   3.065   0.280   1.945  0.3684 -0.2892 -0.8911
 5085SOL     OW20337   0.008   0.284   3.849 -0.4036  0.0996 -0.0824
 5085SOL    HW120338  -0.067   0.231   3.819 -0.0883 -1.5462  1.8110
 5085SOL    HW220339   0.083   0.225   3.843  0.0428  0.4307  1.6977
 5085SOL     MW20340   0.008   0.269   3.844 -0.3061 -0.0687  0.3878
 5086SOL     OW20341   0.735   1.746   0.799 -0.1050 -0.0117 -0.6198
 5086SOL    HW120342   0.664   1.706   0.850  0.6536 -0.7538 -0.1322
 5086SOL    HW220343   0.782   1.672   0.761  0.4677  0.4771 -0.8716
 5086SOL     MW20344   0.732   1.731   0.801  0.0655 -0.0441 -0.5896
 5087SOL     OW20345   2.781   2.640   0.049 -0.0153  0.5666 -0.0030
 5087SOL    HW120346   2.744   2.727   0.060 -2.0720 -0.4988  2.2900
 5087SOL    HW220347   2.706   2.581   0.054  1.6404 -1.5455  1.8568
 5087SOL     MW20348   2.766   2.644   0.051 -0.0666  0.1598  0.5286
 5088SOL     OW20349   3.216   4.937   2.310  0.1899 -0.3034 -0.4482
 5088SOL    HW120350   3.165   5.009   2.345 -0.2520  0.8761 -3.3022
 5088SOL    HW220351   3.307   4.965   2.319  0.0773  0.0458 -0.4084
 5088SOL     MW20352   3.221   4.950   2.316  0.1189 -0.1077 -0.8084
 5089SOL     OW20353   2.704   1.586   5.000  0.0184 -0.0888  0.1611
 5089SOL    HW120354   2.684   1.674   5.031  2.5474  0.6766 -0.1323
 5089SOL    HW220355   2.655   1.528   5.059 -1.3145  1.4660  0.6643
 5089SOL     MW20356   2.695   1.590   5.012  0.1715  0.2082  0.1880
 5090SOL     OW20357   4.294   3.859   2.338  0.0698 -0.2226  0.8858
 5090SOL    HW120358   4.311   3.765   2.348 -0.3940 -0.5225 -0.8863
 5090SOL    HW220359   4.266   3.869   2.247  0.3341  1.6812  0.9801
 5090SOL     MW20360   4.293   3.848   2.328  0.0443 -0.0173  0.6710
 5091SOL     OW20361   0.904   0.941   3.862  0.1573 -0.2056 -0.0547
 5091SOL    HW120362   0.827   0.971   3.813 -1.1306 -0.6892  1.5506
 5091SOL    HW220363   0.872   0.866   3.913  1.4515  0.1308  1.3396
 5091SOL     MW20364   0.890   0.935   3.862  0.1581 -0.2244  0.3293
 5092SOL     OW20365   1.149   4.715   0.463 -0.1527 -0.1978 -0.4297
 5092SOL    HW120366   1.142   4.619   0.464  0.6127 -0.2689 -0.7917
 5092SOL    HW220367   1.244   4.731   0.464 -0.2773  0.5540 -0.4933
 5092SOL     MW20368   1.160   4.705   0.463 -0.0706 -0.1107 -0.4841
 5093SOL     OW20369   2.801   1.657   4.622  0.2980  0.0138 -0.3105
 5093SOL    HW120370   2.794   1.743   4.663  0.3340 -0.2626  0.2955
 5093SOL    HW220371   2.876   1.616   4.665  0.0330 -0.4721 -0.3006
 5093SOL     MW20372   2.810   1.663   4.633  0.2687 -0.0838 -0.2316
 5094SOL     OW20373   3.491   0.095   3.198  0.5063 -0.1361  0.5639
 5094SOL    HW120374   3.576   0.112   3.238  0.7989  0.5567 -0.3060
 5094SOL    HW220375   3.446   0.180   3.200 -1.3276 -1.0607  3.5504
 5094SOL     MW20376   3.497   0.108   3.203  0.3090 -0.1658  0.8349
 5095SOL     OW20377   5.444   3.222   4.618  0.2661  0.0781  0.1503
 5095SOL    HW120378   5.374   3.210   4.553  0.9593  1.9221 -1.0115
 5095SOL    HW220379   5.453   3.136   4.659 -0.8951 -0.8921 -1.4971
 5095SOL     MW20380   5.436   3.209   4.615  0.2062  0.1899 -0.2093
 5096SOL     OW20381   5.152   1.412   2.899 -0.3953 -1.2788  0.6267
 5096SOL    HW120382   5.171   1.419   2.993 -0.2812  0.6956  0.4976
 5096SOL    HW220383   5.233   1.379   2.860  0.1588 -0.4540  1.0415
 5096SOL     MW20384   5.164   1.409   2.906 -0.3097 -0.9205  0.6632
 5097SOL     OW20385   5.097   2.501   3.225  0.4213  0.6653 -0.0296
 5097SOL    HW120386   5.083   2.573   3.163 -0.2828 -0.1944 -0.9196
 5097SOL    HW220387   5.158   2.443   3.180 -0.3431 -0.1255 -0.0720
 5097SOL     MW20388   5.103   2.503   3.211  0.2333  0.4540 -0.1490
 5098SOL     OW20389   3.002   2.890   3.209  0.4179 -0.1097  0.3238
 5098SOL    HW120390   3.086   2.883   3.254 -0.2296 -0.7793  1.4981
 5098SOL    HW220391   2.955   2.810   3.233 -0.7213  0.4553  0.0648
 5098SOL     MW20392   3.006   2.879   3.218  0.1892 -0.1231  0.4409
 5099SOL     OW20393   1.594   3.829   1.251 -0.1517  0.0694  0.1682
 5099SOL    HW120394   1.674   3.815   1.301  0.3505  1.8035 -0.0678
 5099SOL    HW220395   1.531   3.864   1.315 -0.8162 -1.4914  0.3997
 5099SOL     MW20396   1.596   3.832   1.265 -0.1725  0.0916  0.1676
 5100SOL     OW20397   4.958   2.936   5.035 -1.1312 -0.4867  0.4093
 5100SOL    HW120398   5.016   2.915   5.108  2.3386  1.1452 -1.6136
 5100SOL    HW220399   4.973   2.866   4.971 -1.6821 -0.2242 -0.0160
 5100SOL     MW20400   4.967   2.924   5.036 -0.7575 -0.2442  0.0959
 5101SOL     OW20401   0.726   3.072   2.088  0.0393 -0.5612  0.1807
 5101SOL    HW120402   0.720   3.167   2.098 -0.0059 -0.0807 -3.2956
 5101SOL    HW220403   0.635   3.042   2.091  0.0452 -0.5334  1.1272
 5101SOL     MW20404   0.713   3.080   2.090  0.0343 -0.4961 -0.1432
 5102SOL     OW20405   1.267   0.229   4.442  0.3120 -0.3134  0.2835
 5102SOL    HW120406   1.287   0.186   4.525 -0.3567  2.5091  2.0200
 5102SOL    HW220407   1.350   0.265   4.412  0.2930 -0.1006  0.4859
 5102SOL     MW20408   1.280   0.228   4.448  0.2240  0.0752  0.5317
 5103SOL     OW20409   4.692   0.759   4.559 -0.3783  0.1020  0.0724
 5103SOL    HW120410   4.732   0.796   4.638  1.8308  0.5010 -1.1571
 5103SOL    HW220411   4.655   0.835   4.514 -1.1124 -0.0456  0.4128
 5103SOL     MW20412   4.692   0.774   4.564 -0.1895  0.1342 -0.0414
 5104SOL     OW20413   4.270   4.776   3.416 -0.5141  0.5260  0.1272
 5104SOL    HW120414   4.290   4.736   3.501 -0.7445 -0.7019 -0.3832
 5104SOL    HW220415   4.346   4.829   3.396 -0.2016  0.3556  0.8238
 5104SOL     MW20416   4.282   4.778   3.424 -0.5036  0.3470  0.1511
 5105SOL     OW20417   3.352   3.794   0.529  0.0210  0.6363  0.0201
 5105SOL    HW120418   3.371   3.774   0.437 -0.8101 -1.0473  0.1738
 5105SOL    HW220419   3.434   3.775   0.574  0.5360  1.7950 -0.3953
 5105SOL     MW20420   3.365   3.789   0.523 -0.0195  0.5691 -0.0134
 5106SOL     OW20421   4.420   3.050   2.914  0.0187 -0.6779 -0.0714
 5106SOL    HW120422   4.332   3.053   2.876 -0.1766 -3.5447 -0.0610
 5106SOL    HW220423   4.457   3.136   2.895 -1.8555 -0.2746 -2.3441
 5106SOL     MW20424   4.413   3.061   2.907 -0.2462 -0.9933 -0.3610
 5107SOL     OW20425   4.166   3.306   5.188 -0.0111 -0.5676 -0.0215
 5107SOL    HW120426   4.119   3.226   5.211  1.1724 -0.7482  2.0744
 5107SOL    HW220427   4.099   3.364   5.154 -1.0174 -2.2064 -0.9920
 5107SOL     MW20428   4.152   3.303   5.187  0.0116 -0.8005  0.1226
 5108SOL     OW20429   1.488   2.564   2.543  0.1202  0.5355  0.3093
 5108SOL    HW120430   1.558   2.507   2.509  0.8033  1.6070 -0.1333
 5108SOL    HW220431   1.445   2.511   2.609  1.1341 -0.2943  0.3383
 5108SOL     MW20432   1.492   2.550   2.547  0.3374  0.5664  0.2563
 5109SOL     OW20433   4.563   3.828   3.201  0.2802 -0.0167  0.4362
 5109SOL    HW120434   4.569   3.894   3.270 -1.2818 -0.6797  1.2557
 5109SOL    HW220435   4.469   3.821   3.183  0.5108 -1.2961 -0.3379
 5109SOL     MW20436   4.552   3.836   3.208  0.1098 -0.2654  0.4420
 5110SOL     OW20437   0.252   0.107   4.870 -0.4713  0.4174  0.2348
 5110SOL    HW120438   0.306   0.149   4.936 -0.9957 -0.2739  1.1198
 5110SOL    HW220439   0.163   0.134   4.891 -0.8642 -1.3516  1.0334
 5110SOL     MW20440   0.247   0.116   4.881 -0.5887  0.1025  0.4503
 5111SOL     OW20441   1.716   0.563   2.916 -0.0851 -0.3152  0.2149
 5111SOL    HW120442   1.694   0.625   2.986  1.2508  1.2634 -0.6933
 5111SOL    HW220443   1.654   0.491   2.928 -1.3700  0.9409  1.6340
 5111SOL     MW20444   1.705   0.561   2.927 -0.0786  0.0477  0.2803
 5112SOL     OW20445   0.077   0.224   4.558  0.2259  0.2411  0.4842
 5112SOL    HW120446   0.051   0.255   4.471  2.8580 -2.4667 -1.4720
 5112SOL    HW220447   0.140   0.289   4.588  0.5527  0.3466 -0.3984
 5112SOL     MW20448   0.081   0.236   4.551  0.6047 -0.0920  0.1208
 5113SOL     OW20449   1.927   2.712   1.155 -0.1449 -0.4299  0.3454
 5113SOL    HW120450   1.866   2.727   1.083 -0.6759 -0.0190  0.8709
 5113SOL    HW220451   1.946   2.799   1.189  0.3413 -0.5968  0.5185
 5113SOL     MW20452   1.922   2.725   1.150 -0.1506 -0.3987  0.4348
 5114SOL     OW20453   3.631   4.933   1.972  0.2958  0.4959  0.0640
 5114SOL    HW120454   3.673   4.948   1.887  0.9193  1.1862  0.4839
 5114SOL    HW220455   3.600   4.843   1.967 -1.5099  1.1246 -1.6766
 5114SOL     MW20456   3.633   4.924   1.960  0.1444  0.6647 -0.1051
 5115SOL     OW20457   4.893   1.216   1.021 -0.1691  0.1753  0.3184
 5115SOL    HW120458   4.806   1.214   0.982  0.4689  0.5820 -1.1690
 5115SOL    HW220459   4.920   1.124   1.025  0.3636  0.2147 -1.6528
 5115SOL     MW20460   4.886   1.204   1.017 -0.0192  0.2324 -0.1243
 5116SOL     OW20461   4.414   1.267   0.771 -0.6212 -0.2895  0.9234
 5116SOL    HW120462   4.395   1.190   0.718 -0.2185  0.0874  0.2057
 5116SOL    HW220463   4.507   1.259   0.792 -0.0761  0.9325 -0.7831
 5116SOL     MW20464   4.424   1.256   0.767 -0.4999 -0.0848  0.6130
 5117SOL     OW20465   3.206   2.642   1.215  0.6214  0.2893  0.0915
 5117SOL    HW120466   3.147   2.675   1.284 -0.4453 -0.3455 -0.4864
 5117SOL    HW220467   3.164   2.668   1.133  0.7531 -0.8325 -0.3452
 5117SOL     MW20468   3.193   2.650   1.214  0.5017  0.0644 -0.0384
 5118SOL     OW20469   3.993   2.369   5.018  0.2043  0.0543  0.3538
 5118SOL    HW120470   3.956   2.430   4.954  1.2646  0.2424 -0.0886
 5118SOL    HW220471   4.011   2.289   4.968 -1.4755 -0.7908  0.9901
 5118SOL     MW20472   3.990   2.366   5.003  0.1250 -0.0298  0.3787
 5119SOL     OW20473   4.362   4.419   2.957  0.1496  0.1138  0.2623
 5119SOL    HW120474   4.333   4.341   2.910 -0.6038  0.8442 -0.5147
 5119SOL    HW220475   4.391   4.385   3.042  0.3322 -1.0698 -0.2469
 5119SOL     MW20476   4.362   4.404   2.962  0.0765  0.0558  0.0977
 5120SOL     OW20477   4.971   3.904   4.923 -0.4783  0.2846 -0.3705
 5120SOL    HW120478   4.931   3.917   5.009 -2.5546  0.1511 -1.2518
 5120SOL    HW220479   5.032   3.832   4.935  1.5727  2.1944  1.6351
 5120SOL     MW20480   4.974   3.897   4.935 -0.4815  0.5120 -0.2265
 5121SOL     OW20481   3.938   0.163   0.346  0.0954  0.2901 -0.1006
 5121SOL    HW120482   3.859   0.213   0.324 -0.0507 -0.3251 -1.0542
 5121SOL    HW220483   4.001   0.186   0.277  0.7258  0.7033  0.5997
 5121SOL     MW20484   3.936   0.172   0.334  0.1574  0.2642 -0.1330
 5122SOL     OW20485   3.224   3.229   4.959 -0.0872 -0.9945  0.1396
 5122SOL    HW120486   3.183   3.294   4.902 -1.0804 -0.2542  1.6470
 5122SOL    HW220487   3.242   3.276   5.040 -0.3437 -2.4682  1.0753
 5122SOL     MW20488   3.221   3.243   4.962 -0.2472 -1.0884  0.4523
 5123SOL     OW20489   0.649   1.794   2.932  0.2883  0.0267  0.4868
 5123SOL    HW120490   0.723   1.849   2.959 -1.0652  1.9752  0.4366
 5123SOL    HW220491   0.598   1.783   3.012  0.6771 -1.4458  0.5577
 5123SOL     MW20492   0.652   1.800   2.946  0.1648  0.0876  0.4894
 5124SOL     OW20493   0.568   0.516   2.069  0.2028 -0.1278 -0.1338
 5124SOL    HW120494   0.555   0.550   2.157 -2.2293  1.6507 -1.0668
 5124SOL    HW220495   0.645   0.563   2.036  0.6183 -0.1900  0.7110
 5124SOL     MW20496   0.576   0.526   2.076 -0.0554  0.0919 -0.1451
 5125SOL     OW20497   3.931   1.721   0.264  0.2717 -0.2798  0.3610
 5125SOL    HW120498   4.001   1.784   0.280  0.1699 -0.1249  0.1928
 5125SOL    HW220499   3.930   1.666   0.343  1.9162 -1.5620 -0.4486
 5125SOL     MW20500   3.940   1.722   0.276  0.4692 -0.4241  0.2358
 5126SOL     OW20501   2.396   2.346   1.719  0.5082 -0.2615 -0.0303
 5126SOL    HW120502   2.450   2.389   1.653  0.4566  1.0712  0.7666
 5126SOL    HW220503   2.307   2.348   1.684  0.7039 -0.9845 -0.6034
 5126SOL     MW20504   2.392   2.351   1.706  0.5267 -0.1834 -0.0017
 5127SOL     OW20505   5.176   1.671   4.299 -0.1234  0.3445 -0.1356
 5127SOL    HW120506   5.151   1.600   4.239  0.9099 -1.9682  1.9906
 5127SOL    HW220507   5.101   1.681   4.357 -0.9889  2.3477 -1.4922
 5127SOL     MW20508   5.163   1.663   4.298 -0.1019  0.3049 -0.0371
 5128SOL     OW20509   0.964   1.646   4.362 -0.2128  0.4385  0.2827
 5128SOL    HW120510   0.968   1.742   4.362  0.4564  0.4165  0.8113
 5128SOL    HW220511   1.054   1.618   4.349 -0.4982 -0.1330 -0.5177
 5128SOL     MW20512   0.976   1.655   4.361 -0.1637  0.3625  0.2479
 5129SOL     OW20513   5.427   2.170   3.549  0.5093  0.2564  0.0766
 5129SOL    HW120514   5.365   2.233   3.511 -1.3775 -1.3907  0.2342
 5129SOL    HW220515   5.422   2.094   3.492  1.1457 -0.5177  1.0269
 5129SOL     MW20516   5.418   2.168   3.537  0.3493 -0.0535  0.2184
 5130SOL     OW20517   1.251   3.272   1.106  0.1016  0.4805  0.0186
 5130SOL    HW120518   1.217   3.362   1.100  0.3322  0.5126 -1.0050
 5130SOL    HW220519   1.334   3.282   1.153 -0.5116  0.6169  1.0916
 5130SOL     MW20520   1.257   3.285   1.111  0.0526  0.5021  0.0249
 5131SOL     OW20521   3.681   1.554   3.024  0.0511  0.5801  0.5384
 5131SOL    HW120522   3.587   1.569   3.031  0.0460  0.5184  0.6083
 5131SOL    HW220523   3.721   1.633   3.060  0.0254  0.2791  1.2479
 5131SOL     MW20524   3.674   1.566   3.030  0.0471  0.5337  0.6382
 5132SOL     OW20525   1.871   0.677   2.713  0.1471  0.1220 -0.3113
 5132SOL    HW120526   1.839   0.765   2.730  0.6894 -0.2222  3.0204
 5132SOL    HW220527   1.814   0.620   2.765  1.0020 -1.3111 -0.8855
 5132SOL     MW20528   1.860   0.681   2.722  0.3260 -0.1055  0.0417
 5133SOL     OW20529   4.881   1.364   1.243 -1.0181 -0.9134  0.2074
 5133SOL    HW120530   4.802   1.409   1.212  0.0375 -0.3775 -1.9068
 5133SOL    HW220531   4.899   1.300   1.175  0.1808 -1.2666  0.8432
 5133SOL     MW20532   4.873   1.362   1.230 -0.7295 -0.8900  0.0182
 5134SOL     OW20533   3.420   3.605   2.383 -0.1578  0.2879 -0.4584
 5134SOL    HW120534   3.455   3.525   2.421 -0.1968  1.1233  1.4290
 5134SOL    HW220535   3.325   3.597   2.392 -0.1059  1.4932  1.9221
 5134SOL     MW20536   3.413   3.594   2.389 -0.1561  0.5491  0.0879
 5135SOL     OW20537   2.983   4.358   2.173  0.0855  0.2316  0.1188
 5135SOL    HW120538   2.898   4.372   2.132 -0.2090  1.3214  1.0441
 5135SOL    HW220539   2.963   4.344   2.266  0.9142  0.4379  0.3407
 5135SOL     MW20540   2.970   4.358   2.180  0.1539  0.3975  0.2657
 5136SOL     OW20541   1.744   3.067   2.582 -0.0570 -0.3562 -0.1018
 5136SOL    HW120542   1.705   2.997   2.634  0.4494 -0.6107 -0.0580
 5136SOL    HW220543   1.757   3.028   2.495  1.7981 -0.8891  0.3715
 5136SOL     MW20544   1.741   3.053   2.577  0.2453 -0.4570 -0.0356
 5137SOL     OW20545   4.182   4.073   4.895  0.6676 -0.4884 -0.3121
 5137SOL    HW120546   4.250   4.026   4.944 -0.3581 -1.2728  0.4178
 5137SOL    HW220547   4.115   4.094   4.961 -0.3425 -0.8067 -1.1974
 5137SOL     MW20548   4.182   4.070   4.910  0.4070 -0.6296 -0.3320
 5138SOL     OW20549   1.268   0.323   3.518  0.0342 -0.7001 -0.1545
 5138SOL    HW120550   1.207   0.367   3.577 -0.3334 -0.8569 -0.4123
 5138SOL    HW220551   1.340   0.384   3.508 -0.3895 -0.2246 -0.3693
 5138SOL     MW20552   1.269   0.336   3.524 -0.0671 -0.6593 -0.2150
 5139SOL     OW20553   4.787   0.310   0.475 -0.0594  0.5256 -0.2579
 5139SOL    HW120554   4.815   0.247   0.409 -1.1011  0.2592 -0.4570
 5139SOL    HW220555   4.810   0.269   0.558 -0.0913  0.2018 -0.4099
 5139SOL     MW20556   4.793   0.297   0.477 -0.1968  0.4501 -0.3028
 5140SOL     OW20557   1.040   0.435   5.266  0.3612  0.1889  0.0851
 5140SOL    HW120558   1.059   0.383   5.345  2.1541  0.0572 -0.3942
 5140SOL    HW220559   1.000   0.372   5.205 -1.0680  0.3010  0.8611
 5140SOL     MW20560   1.037   0.420   5.268  0.4078  0.1864  0.1231
 5141SOL     OW20561   2.380   5.469   5.319  0.9952 -0.1213  0.3074
 5141SOL    HW120562   2.435   5.475   5.240 -0.2526 -2.7070 -0.9120
 5141SOL    HW220563   2.396   5.380   5.351 -1.0428 -0.2835  0.9809
 5141SOL     MW20564   2.389   5.458   5.313  0.5746 -0.4730  0.2375
 5142SOL     OW20565   4.322   2.693   1.119  0.0092  0.3888  0.7625
 5142SOL    HW120566   4.241   2.705   1.169 -0.1208 -1.3281  1.0288
 5142SOL    HW220567   4.359   2.612   1.153  1.5058  0.7773  0.1573
 5142SOL     MW20568   4.317   2.684   1.130  0.1841  0.2187  0.7191
 5143SOL     OW20569   3.008   0.949   1.012 -0.7096 -0.3029  0.4093
 5143SOL    HW120570   2.997   1.002   1.091  1.2818 -0.5090  0.9050
 5143SOL    HW220571   2.995   0.859   1.042 -1.0755 -0.3065  0.2430
 5143SOL     MW20572   3.005   0.944   1.026 -0.5015 -0.3297  0.4514
 5144SOL     OW20573   3.420   1.763   0.835 -0.0665 -0.1764  0.2937
 5144SOL    HW120574   3.489   1.784   0.898  0.6655  1.2202 -0.8978
 5144SOL    HW220575   3.465   1.713   0.767 -0.8542 -1.6987  0.8641
 5144SOL     MW20576   3.435   1.759   0.835 -0.0736 -0.1925  0.2142
 5145SOL     OW20577   0.300   0.301   1.394 -0.3454 -0.0233  0.8915
 5145SOL    HW120578   0.255   0.309   1.478  0.6115  3.2319  1.2607
 5145SOL    HW220579   0.306   0.392   1.362  0.3697 -1.0190 -2.1388
 5145SOL     MW20580   0.295   0.314   1.401 -0.1314  0.2660  0.5508
 5146SOL     OW20581   0.299   3.769   0.162 -0.3634 -0.1085  0.3996
 5146SOL    HW120582   0.360   3.712   0.208  0.5886  0.6184  0.0675
 5146SOL    HW220583   0.255   3.713   0.099  0.8141 -0.4206 -0.1685
 5146SOL     MW20584   0.301   3.755   0.160 -0.0908 -0.0554  0.2844
 5147SOL     OW20585   4.919   4.287   2.255 -0.3569 -0.6874  0.0035
 5147SOL    HW120586   4.832   4.247   2.264  0.3621 -2.5081 -0.5863
 5147SOL    HW220587   4.944   4.270   2.164  0.4953  0.0790  0.0768
 5147SOL     MW20588   4.911   4.280   2.245 -0.1558 -0.8224 -0.0626
 5148SOL     OW20589   4.288   3.523   3.067  0.5349 -0.0919 -0.3073
 5148SOL    HW120590   4.326   3.465   3.000 -0.9699  0.4597 -1.6951
 5148SOL    HW220591   4.238   3.464   3.124 -1.3376 -0.2119 -1.9543
 5148SOL     MW20592   4.287   3.508   3.066  0.1026 -0.0366 -0.6958
 5149SOL     OW20593   2.635   1.430   5.209  0.5431 -0.0607 -0.0264
 5149SOL    HW120594   2.704   1.458   5.269  0.5733  0.4239 -0.2808
 5149SOL    HW220595   2.638   1.335   5.211 -0.2184 -0.0846  1.6285
 5149SOL     MW20596   2.644   1.422   5.217  0.4495 -0.0017  0.1529
 5150SOL     OW20597   3.804   2.787   5.406  0.2076  0.0012  1.0677
 5150SOL    HW120598   3.784   2.702   5.445  0.0756 -0.5394 -0.1391
 5150SOL    HW220599   3.894   2.778   5.374 -0.3830 -0.3117 -0.6157
 5150SOL     MW20600   3.813   2.775   5.407  0.1151 -0.1080  0.6977
 5151SOL     OW20601   4.050   2.543   1.916  0.2059 -0.0893  0.5342
 5151SOL    HW120602   4.113   2.586   1.859  0.9390 -0.0411  1.3757
 5151SOL    HW220603   4.005   2.481   1.858  0.0507  0.8414 -0.3785
 5151SOL     MW20604   4.052   2.540   1.901  0.2799  0.0360  0.5251
 5152SOL     OW20605   3.953   2.462   1.426  0.1983  0.7437 -0.3477
 5152SOL    HW120606   3.906   2.380   1.439  1.0418 -0.0256 -1.9108
 5152SOL    HW220607   3.884   2.528   1.417 -0.5147  0.0008 -0.3656
 5152SOL     MW20608   3.938   2.460   1.426  0.2150  0.5502 -0.5501
 5153SOL     OW20609   0.904   4.041   2.921  0.2933 -0.1418  0.6581
 5153SOL    HW120610   0.864   4.128   2.922 -1.4391 -0.8880  0.0515
 5153SOL    HW220611   0.919   4.020   3.013  0.5475  0.7211  0.8172
 5153SOL     MW20612   0.901   4.049   2.933  0.1041 -0.1268  0.6008
 5154SOL     OW20613   1.238   3.086   2.705 -0.1616  0.2020 -0.4703
 5154SOL    HW120614   1.314   3.144   2.703 -0.6297  0.8811  0.6215
 5154SOL    HW220615   1.239   3.043   2.619  1.0732  0.6748 -0.7184
 5154SOL     MW20616   1.248   3.088   2.694 -0.0634  0.3495 -0.3623
 5155SOL     OW20617   2.877   3.190   2.421 -0.3135 -0.2604  0.1492
 5155SOL    HW120618   2.811   3.199   2.491 -1.6713 -2.0631 -0.8262
 5155SOL    HW220619   2.846   3.117   2.369  1.9066 -0.4046 -1.0428
 5155SOL     MW20620   2.864   3.182   2.424 -0.2031 -0.5096 -0.1282
 5156SOL     OW20621   0.928   2.969   0.299 -0.0544  0.7742  0.2799
 5156SOL    HW120622   0.889   3.046   0.258  0.7369  0.6789 -0.6754
 5156SOL    HW220623   0.924   2.988   0.393  1.7002  2.7796  0.0250
 5156SOL     MW20624   0.923   2.981   0.306  0.2715  1.0187  0.1250
 5157SOL     OW20625   3.115   4.622   2.839  0.2574  0.1942  0.5347
 5157SOL    HW120626   3.062   4.566   2.897  1.1065 -0.0035  1.1349
 5157SOL    HW220627   3.122   4.571   2.758 -1.0656  0.5377  0.1818
 5157SOL     MW20628   3.109   4.608   2.836  0.1967  0.2128  0.5663
 5158SOL     OW20629   0.129   3.480   5.250  0.6923  0.0796  0.0377
 5158SOL    HW120630   0.224   3.474   5.265  0.8440 -0.3440 -0.9861
 5158SOL    HW220631   0.118   3.565   5.206  1.0031 -1.0553 -2.4066
 5158SOL     MW20632   0.140   3.491   5.246  0.7515 -0.1199 -0.4063
 5159SOL     OW20633   4.640   4.143   2.762 -0.2374  0.1174  0.3200
 5159SOL    HW120634   4.576   4.165   2.694  2.2064  1.0732 -1.8586
 5159SOL    HW220635   4.658   4.050   2.748 -1.6457 -0.3493  1.4451
 5159SOL     MW20636   4.634   4.134   2.751 -0.1049  0.1800  0.1852
 5160SOL     OW20637   3.857   3.757   3.233 -0.1153 -0.1881  0.1106
 5160SOL    HW120638   3.823   3.688   3.176  0.3918  0.6630 -1.2717
 5160SOL    HW220639   3.779   3.794   3.274 -0.6325  0.0432 -1.0410
 5160SOL     MW20640   3.842   3.753   3.231 -0.1166 -0.0496 -0.2137
 5161SOL     OW20641   1.197   3.878   0.060  0.2611  0.0572  0.4562
 5161SOL    HW120642   1.116   3.912   0.096 -1.0371 -2.3167  0.0135
 5161SOL    HW220643   1.267   3.919   0.112 -1.3732 -1.1405  3.8591
 5161SOL     MW20644   1.196   3.887   0.071 -0.1143 -0.4000  0.8352
 5162SOL     OW20645   5.171   3.713   4.939 -0.4419 -0.0876  0.5652
 5162SOL    HW120646   5.158   3.623   4.909  0.1882 -0.1410  0.4536
 5162SOL    HW220647   5.252   3.742   4.897 -0.9846  0.7646  0.0651
 5162SOL     MW20648   5.180   3.705   4.930 -0.4307  0.0146  0.4869
 5163SOL     OW20649   2.741   5.088   3.001 -0.0035 -0.4491  0.3614
 5163SOL    HW120650   2.742   4.996   2.974 -1.5384 -0.3129 -0.3022
 5163SOL    HW220651   2.651   5.103   3.032  0.4331  0.6410  1.1648
 5163SOL     MW20652   2.730   5.078   3.001 -0.1441 -0.2921  0.3793
 5164SOL     OW20653   0.755   1.510   2.876  0.5747 -0.8092  0.0177
 5164SOL    HW120654   0.785   1.600   2.864  0.8989 -0.9464 -0.2047
 5164SOL    HW220655   0.663   1.519   2.901  0.7019 -0.4064  0.3437
 5164SOL     MW20656   0.747   1.523   2.877  0.6325 -0.7752  0.0309
 5165SOL     OW20657   1.500   2.871   4.730  0.1451  0.3834  0.3532
 5165SOL    HW120658   1.578   2.831   4.691  0.8876  0.3026  1.8794
 5165SOL    HW220659   1.490   2.954   4.684 -0.6138 -0.8572 -1.8957
 5165SOL     MW20660   1.509   2.876   4.719  0.1430  0.2143  0.2607
 5166SOL     OW20661   3.418   0.335   3.524  0.1542 -0.0140 -0.5349
 5166SOL    HW120662   3.482   0.273   3.559 -1.3454 -2.8576 -2.4208
 5166SOL    HW220663   3.347   0.335   3.588  0.4326  0.2013 -0.2302
 5166SOL     MW20664   3.417   0.327   3.536 -0.0021 -0.3505 -0.7374
 5167SOL     OW20665   4.323   0.949   4.788  0.5914  0.1362 -0.0835
 5167SOL    HW120666   4.231   0.929   4.807  0.5842 -1.1654 -1.3149
 5167SOL    HW220667   4.351   0.879   4.728  2.1914  0.8878 -0.2669
 5167SOL     MW20668   4.315   0.937   4.783  0.7953  0.0658 -0.2646
 5168SOL     OW20669   5.386   1.039   1.898  0.0629 -0.6613 -0.3173
 5168SOL    HW120670   5.371   1.131   1.877  0.2343 -0.3089  1.0346
 5168SOL    HW220671   5.435   1.005   1.823 -0.1470  0.3076 -0.9045
 5168SOL     MW20672   5.391   1.046   1.886  0.0580 -0.4922 -0.2194
 5169SOL     OW20673   4.687   0.745   2.491  0.1737 -0.5270 -0.0141
 5169SOL    HW120674   4.760   0.703   2.536  0.7223 -0.2397 -0.6176
 5169SOL    HW220675   4.716   0.754   2.400 -0.2082  0.4940 -0.0593
 5169SOL     MW20676   4.700   0.741   2.485  0.1950 -0.3595 -0.0971
 5170SOL     OW20677   4.616   0.232   0.157 -0.1490  0.1563 -0.0954
 5170SOL    HW120678   4.570   0.150   0.137 -1.3332  0.6006  0.7072
 5170SOL    HW220679   4.548   0.290   0.190  0.7162  1.3980 -0.4152
 5170SOL     MW20680   4.601   0.229   0.159 -0.1898  0.3721 -0.0336
 5171SOL     OW20681   0.866   1.431   1.015 -0.2484 -0.3035  0.3368
 5171SOL    HW120682   0.904   1.517   1.028 -0.5012 -0.1139 -0.1668
 5171SOL    HW220683   0.812   1.440   0.936  1.7055 -1.5549 -1.2588
 5171SOL     MW20684   0.864   1.443   1.006 -0.0306 -0.4394  0.0681
 5172SOL     OW20685   0.402   2.051   5.323  0.1525  0.0840  0.3528
 5172SOL    HW120686   0.415   2.017   5.412  0.7672  2.3979  1.2072
 5172SOL    HW220687   0.330   2.114   5.331  0.2822  0.3988 -0.7759
 5172SOL     MW20688   0.394   2.054   5.336  0.2478  0.4205  0.3177
 5173SOL     OW20689   3.649   2.418   3.257 -0.0708  0.6418 -0.3526
 5173SOL    HW120690   3.639   2.369   3.338  1.8849  1.3241  0.3572
 5173SOL    HW220691   3.563   2.458   3.242 -0.5150  0.3579  1.2866
 5173SOL     MW20692   3.637   2.417   3.265  0.1227  0.6928 -0.0519
 5174SOL     OW20693   4.060   2.998   2.299  0.1925 -0.7028 -0.0643
 5174SOL    HW120694   4.111   2.938   2.354  0.2546  1.6671  2.6442
 5174SOL    HW220695   4.069   2.961   2.211  3.1720 -2.6787  0.8811
 5174SOL     MW20696   4.068   2.985   2.295  0.5819 -0.6524  0.4034
 5175SOL     OW20697   5.247   4.547   1.367  0.1481 -0.5875  0.0970
 5175SOL    HW120698   5.188   4.621   1.375  1.2361  0.3488 -0.2714
 5175SOL    HW220699   5.315   4.563   1.433  0.1824 -1.4738  0.2993
 5175SOL     MW20700   5.248   4.558   1.377  0.2917 -0.5811  0.0757
 5176SOL     OW20701   2.049   4.787   4.763 -0.3777  0.6260  0.3586
 5176SOL    HW120702   2.047   4.763   4.670 -0.0048  0.7779  0.3087
 5176SOL    HW220703   1.966   4.832   4.777 -0.7604 -0.0379  0.2772
 5176SOL     MW20704   2.038   4.790   4.753 -0.3790  0.5605  0.3418
 5177SOL     OW20705   2.394   4.967   2.875  0.3120 -0.0255  0.1690
 5177SOL    HW120706   2.299   4.971   2.869  0.1953 -1.6148  0.6977
 5177SOL    HW220707   2.423   4.973   2.784 -0.2612  0.7881  0.0275
 5177SOL     MW20708   2.386   4.968   2.862  0.2237 -0.1248  0.2186
 5178SOL     OW20709   1.427   3.940   1.403  0.3796 -1.1663  0.1575
 5178SOL    HW120710   1.373   3.887   1.462 -1.5311  0.3750 -0.1400
 5178SOL    HW220711   1.388   4.027   1.406  1.3390 -0.6034 -2.0221
 5178SOL     MW20712   1.415   3.944   1.411  0.2578 -0.8969 -0.1596
 5179SOL     OW20713   0.822   4.594   2.041 -0.9603  0.2347  0.1069
 5179SOL    HW120714   0.869   4.515   2.066 -2.0088 -0.2741  0.5339
 5179SOL    HW220715   0.826   4.595   1.945  0.0058  0.2622  0.1438
 5179SOL     MW20716   0.828   4.584   2.032 -0.9708  0.1731  0.1663
 5180SOL     OW20717   2.146   2.728   0.581  0.0508 -0.1219 -0.0104
 5180SOL    HW120718   2.239   2.734   0.603  0.3948 -1.4877 -0.9758
 5180SOL    HW220719   2.139   2.651   0.525 -2.0543 -1.6030  2.0430
 5180SOL     MW20720   2.157   2.719   0.577 -0.1746 -0.4864  0.1289
 5181SOL     OW20721   2.402   1.402   5.392  0.0348  0.1610  0.3693
 5181SOL    HW120722   2.475   1.432   5.338 -1.8168  1.9039 -1.3682
 5181SOL    HW220723   2.332   1.382   5.329 -0.9605 -1.6451  1.9367
 5181SOL     MW20724   2.402   1.403   5.377 -0.3297  0.1529  0.3476
 5182SOL     OW20725   0.014   2.145   1.058 -0.0390  0.4807 -0.4242
 5182SOL    HW120726   0.073   2.211   1.022  0.2492 -1.3668 -3.7713
 5182SOL    HW220727  -0.066   2.153   1.005 -0.1059 -1.5990 -0.7182
 5182SOL     MW20728   0.011   2.154   1.047 -0.0107 -0.0220 -0.8903
 5183SOL     OW20729   3.930   0.126   1.060  0.1410 -0.7921 -0.4742
 5183SOL    HW120730   3.889   0.142   1.145  0.8287 -2.3986  0.2016
 5183SOL    HW220731   3.908   0.035   1.040  0.7599 -0.7079 -1.5945
 5183SOL     MW20732   3.922   0.117   1.068  0.3083 -0.9870 -0.5311
 5184SOL     OW20733   0.716   0.655   3.268 -0.1068 -0.2706  0.0326
 5184SOL    HW120734   0.622   0.675   3.259 -0.0119  0.7933  1.1484
 5184SOL    HW220735   0.718   0.560   3.284 -1.1388 -0.0539  1.6653
 5184SOL     MW20736   0.704   0.645   3.269 -0.2268 -0.1067  0.3845
 5185SOL     OW20737   0.204   4.893   3.610 -0.1175  0.1298  0.0054
 5185SOL    HW120738   0.128   4.945   3.638  0.0521  0.4507 -0.1316
 5185SOL    HW220739   0.178   4.858   3.524 -0.8077 -1.2003  0.7145
 5185SOL     MW20740   0.191   4.895   3.602 -0.1841  0.0006  0.0787
 5186SOL     OW20741   1.167   1.123   2.424 -0.9498  0.1861  0.2434
 5186SOL    HW120742   1.099   1.080   2.374 -1.4496  0.9623  0.2392
 5186SOL    HW220743   1.239   1.134   2.362 -2.2687  2.9171 -0.9549
 5186SOL     MW20744   1.168   1.119   2.410 -1.1826  0.6351  0.0895
 5187SOL     OW20745   3.481   0.700   4.553  0.2998 -0.1351 -0.3539
 5187SOL    HW120746   3.395   0.694   4.594  1.1980  1.2982  1.9118
 5187SOL    HW220747   3.464   0.688   4.460 -2.1439 -1.2826  0.1683
 5187SOL     MW20748   3.468   0.698   4.546  0.1020 -0.0985  0.0030
 5188SOL     OW20749   2.994   0.431   4.124  0.1391 -0.0142  0.0829
 5188SOL    HW120750   2.964   0.344   4.149  1.4065 -0.0633  1.5733
 5188SOL    HW220751   2.948   0.490   4.183 -0.9493  0.3800 -1.1302
 5188SOL     MW20752   2.985   0.427   4.135  0.1620  0.0299  0.1184
 5189SOL     OW20753   1.887   3.891   0.834  0.4787 -0.0076 -0.3282
 5189SOL    HW120754   1.918   3.870   0.746  0.9666  1.0257 -0.4187
 5189SOL    HW220755   1.911   3.983   0.847 -0.8854  0.2844  0.3385
 5189SOL     MW20756   1.894   3.900   0.824  0.3666  0.1621 -0.2544
 5190SOL     OW20757   3.291   1.693   1.072 -0.1079  0.5607 -0.7378
 5190SOL    HW120758   3.321   1.715   0.984 -0.1438  1.3747 -0.5567
 5190SOL    HW220759   3.274   1.777   1.113 -1.9882  0.1685 -0.6083
 5190SOL     MW20760   3.292   1.706   1.066 -0.3532  0.6147 -0.6980
 5191SOL     OW20761   0.975   2.785   2.929 -0.1648 -0.4081  0.3383
 5191SOL    HW120762   1.048   2.724   2.935  0.1512 -0.0172  0.5364
 5191SOL    HW220763   0.988   2.845   3.003  0.7188  1.1878 -1.0346
 5191SOL     MW20764   0.986   2.785   2.939 -0.0112 -0.1537  0.1879
 5192SOL     OW20765   1.404   0.329   2.034  0.3643 -0.0346 -0.0827
 5192SOL    HW120766   1.426   0.237   2.049  0.7427  0.0394 -0.1885
 5192SOL    HW220767   1.314   0.327   2.002 -0.7322 -0.1736  2.7435
 5192SOL     MW20768   1.395   0.317   2.032  0.2724 -0.0429  0.2656
 5193SOL     OW20769   0.686   1.271   2.760 -0.1719 -0.4877 -0.8528
 5193SOL    HW120770   0.703   1.312   2.675  1.4770  0.2018 -0.2378
 5193SOL    HW220771   0.706   1.340   2.824  0.4269 -1.5546  0.1367
 5193SOL     MW20772   0.691   1.285   2.757  0.1158 -0.5360 -0.6474
 5194SOL     OW20773   5.203   2.963   0.227 -0.1621  0.1676  0.0023
 5194SOL    HW120774   5.258   3.005   0.294 -0.6898 -1.9060  1.8544
 5194SOL    HW220775   5.264   2.930   0.162  0.7663 -1.2602  1.5404
 5194SOL     MW20776   5.218   2.964   0.228 -0.1108 -0.2806  0.4363
 5195SOL     OW20777   4.430   3.468   1.748 -0.3621 -0.5044  0.2201
 5195SOL    HW120778   4.449   3.398   1.811  1.0648 -1.8485 -1.5886
 5195SOL    HW220779   4.415   3.421   1.665  0.6336  1.3203 -1.0543
 5195SOL     MW20780   4.430   3.453   1.745 -0.0520 -0.4429 -0.1746
 5196SOL     OW20781   0.219   0.563   2.739  0.1424 -0.0597 -0.1365
 5196SOL    HW120782   0.166   0.530   2.811 -0.1550  1.6609  0.4675
 5196SOL    HW220783   0.195   0.506   2.665 -0.7173 -0.8544  0.7133
 5196SOL     MW20784   0.209   0.551   2.738 -0.0057  0.0588  0.0496
 5197SOL     OW20785   5.121   1.744   5.239  0.0622  0.0426 -0.3015
 5197SOL    HW120786   5.143   1.652   5.223 -0.5206 -0.1844  0.1541
 5197SOL    HW220787   5.206   1.788   5.245  0.4025 -0.7400  1.0115
 5197SOL     MW20788   5.135   1.738   5.238  0.0311 -0.0867 -0.0751
 5198SOL     OW20789   0.348   2.041   0.345  0.3513 -0.2053  0.0636
 5198SOL    HW120790   0.257   2.070   0.337  0.8051  1.5485  0.8134
 5198SOL    HW220791   0.366   1.997   0.262 -0.0608  2.7686 -1.7403
 5198SOL     MW20792   0.338   2.039   0.333  0.3566  0.3999 -0.0713
 5199SOL     OW20793   1.251   0.499   3.947  0.2476  0.2096  0.3979
 5199SOL    HW120794   1.194   0.564   3.988 -0.2752 -0.4214  0.6879
 5199SOL    HW220795   1.200   0.466   3.873  0.1665 -0.4703  0.7523
 5199SOL     MW20796   1.237   0.503   3.943  0.1703  0.0418  0.4804
 5200SOL     OW20797   1.468   3.204   2.690 -0.3976 -0.0303  0.5193
 5200SOL    HW120798   1.421   3.259   2.627 -2.5039  0.5594  2.4796
 5200SOL    HW220799   1.528   3.152   2.637 -2.1665  0.3281 -1.9812
 5200SOL     MW20800   1.470   3.204   2.675 -0.8937  0.0911  0.4501
 5201SOL     OW20801   5.309   2.609   0.935  0.2673  0.0767  0.4245
 5201SOL    HW120802   5.304   2.629   1.028 -3.0851  0.1691  0.3345
 5201SOL    HW220803   5.281   2.517   0.928  0.0580  0.1995 -0.5200
 5201SOL     MW20804   5.305   2.600   0.946 -0.1886  0.1043  0.2921
 5202SOL     OW20805   1.985   3.894   4.716 -0.6394  0.2282 -0.0609
 5202SOL    HW120806   1.934   3.882   4.636  0.4786 -1.7987 -0.5424
 5202SOL    HW220807   2.048   3.963   4.695 -0.3431 -0.3007 -0.9793
 5202SOL     MW20808   1.987   3.901   4.703 -0.4584 -0.0990 -0.2401
 5203SOL     OW20809   0.232   2.059   2.570  0.0300 -0.5507 -0.1310
 5203SOL    HW120810   0.257   1.971   2.540  1.4164  0.3215 -1.7258
 5203SOL    HW220811   0.160   2.084   2.512 -1.4511 -1.1802  1.3405
 5203SOL     MW20812   0.226   2.051   2.559  0.0179 -0.5196 -0.1468
 5204SOL     OW20813   2.490   0.273   5.289 -0.2233  0.1613 -0.4054
 5204SOL    HW120814   2.509   0.182   5.310  1.2583 -0.4151 -3.6811
 5204SOL    HW220815   2.454   0.270   5.201 -1.8712  2.6650  0.0796
 5204SOL     MW20816   2.488   0.261   5.281 -0.2446  0.4080 -0.7626
 5205SOL     OW20817   0.465   4.363   0.085 -0.4383  0.1465  0.3497
 5205SOL    HW120818   0.528   4.292   0.100 -2.4711 -1.2506  3.4338
 5205SOL    HW220819   0.515   4.430   0.039  2.0239 -2.6274 -1.3916
 5205SOL     MW20820   0.479   4.362   0.081 -0.3833 -0.3874  0.5216
 5206SOL     OW20821   4.606   2.966   4.082  0.0708 -0.6874  0.2646
 5206SOL    HW120822   4.643   2.882   4.110 -1.0505 -1.7263 -1.2090
 5206SOL    HW220823   4.532   2.942   4.026 -1.5018  1.2967  1.3665
 5206SOL     MW20824   4.601   2.952   4.078 -0.2741 -0.5664  0.2170
 5207SOL     OW20825   3.686   0.582   1.278  0.2420  0.1633 -0.9463
 5207SOL    HW120826   3.691   0.599   1.184  0.0372  0.8543 -0.8359
 5207SOL    HW220827   3.706   0.667   1.318  0.2990 -0.1232 -0.3677
 5207SOL     MW20828   3.690   0.595   1.271  0.2231  0.2151 -0.8581
 5208SOL     OW20829   0.371   2.230   3.197 -0.1276 -0.6082 -0.4280
 5208SOL    HW120830   0.413   2.314   3.179  0.0397 -0.7363 -0.6553
 5208SOL    HW220831   0.421   2.167   3.144 -0.9025 -0.6940 -1.0771
 5208SOL     MW20832   0.383   2.233   3.188 -0.2054 -0.6356 -0.5402
 5209SOL     OW20833   3.970   4.149   2.138  0.3601  0.7701  0.1393
 5209SOL    HW120834   3.939   4.076   2.084 -0.8583  1.6336 -0.3887
 5209SOL    HW220835   3.982   4.111   2.225  0.9215 -0.3198 -0.4012
 5209SOL     MW20836   3.967   4.135   2.142  0.2760  0.7411  0.0025
 5210SOL     OW20837   2.167   2.211   0.952 -0.2281  0.1392  0.2340
 5210SOL    HW120838   2.245   2.234   0.902 -0.3199  0.3415  0.1853
 5210SOL    HW220839   2.113   2.160   0.891  1.0897 -2.4152  1.0625
 5210SOL     MW20840   2.170   2.207   0.938 -0.0712 -0.1619  0.3338
 5211SOL     OW20841   3.281   2.954   2.646  0.3180  0.2662 -0.1476
 5211SOL    HW120842   3.229   2.908   2.713  1.9554 -0.3397  0.7561
 5211SOL    HW220843   3.347   3.002   2.696 -0.5123  2.6248 -1.1530
 5211SOL     MW20844   3.283   2.954   2.661  0.4213  0.4906 -0.1606
 5212SOL     OW20845   4.469   2.004   3.058  0.1824  0.3466 -0.2110
 5212SOL    HW120846   4.467   1.914   3.023  0.3426  0.5887 -0.8636
 5212SOL    HW220847   4.541   2.004   3.121  0.0244 -0.0474 -0.0267
 5212SOL     MW20848   4.478   1.992   3.061  0.1827  0.3272 -0.2709
 5213SOL     OW20849   3.951   0.848   2.938 -0.3586 -0.3676  0.1691
 5213SOL    HW120850   3.999   0.827   3.018 -0.7870  0.0246  0.5264
 5213SOL    HW220851   4.011   0.823   2.868  0.5479  0.5137  0.6127
 5213SOL     MW20852   3.965   0.842   2.939 -0.2974 -0.2046  0.2716
 5214SOL     OW20853   2.099   5.056   1.340 -0.2943 -0.0319 -0.0908
 5214SOL    HW120854   2.172   5.040   1.400 -0.7315 -1.3788  0.1263
 5214SOL    HW220855   2.141   5.075   1.256  0.3134  0.9978  0.4318
 5214SOL     MW20856   2.114   5.056   1.337 -0.2725 -0.0725  0.0039
 5215SOL     OW20857  -0.029   0.698   0.459 -0.0871  0.1278 -0.0870
 5215SOL    HW120858   0.014   0.625   0.414  0.2719  0.2815  0.0018
 5215SOL    HW220859   0.032   0.771   0.449 -0.9568  0.7462 -1.1991
 5215SOL     MW20860  -0.015   0.698   0.452 -0.1525  0.2266 -0.2180
 5216SOL     OW20861   1.604   0.373   3.326 -0.5178 -0.2515  0.0278
 5216SOL    HW120862   1.669   0.429   3.284 -0.2160 -1.1784 -0.7905
 5216SOL    HW220863   1.655   0.300   3.362 -0.9689 -0.3595  0.4636
 5216SOL     MW20864   1.619   0.371   3.325 -0.5369 -0.3840 -0.0211
 5217SOL     OW20865   0.068   5.050   3.807 -0.1682 -0.0760 -0.2929
 5217SOL    HW120866   0.152   5.025   3.847 -0.0086  2.5366  1.2131
 5217SOL    HW220867   0.002   5.017   3.869 -0.1212  0.2424 -0.0727
 5217SOL     MW20868   0.070   5.042   3.820 -0.1418  0.2992 -0.0719
 5218SOL     OW20869   1.071   0.654   4.086 -0.4091  0.1358 -0.0992
 5218SOL    HW120870   1.125   0.713   4.139 -0.8274 -0.0654  0.5696
 5218SOL    HW220871   1.024   0.601   4.150 -2.6201  1.3652 -0.5896
 5218SOL     MW20872   1.072   0.655   4.101 -0.7457  0.2674 -0.0764
 5219SOL     OW20873   0.180   3.477   1.136 -0.3130 -0.2773 -0.1793
 5219SOL    HW120874   0.165   3.547   1.073  0.5319 -0.7233 -0.8876
 5219SOL    HW220875   0.175   3.397   1.085  3.0061 -0.5517 -0.2733
 5219SOL     MW20876   0.177   3.476   1.122  0.2201 -0.3695 -0.2820
 5220SOL     OW20877   5.312   0.266   3.438  0.0337 -0.5856  0.3204
 5220SOL    HW120878   5.258   0.190   3.460  0.4377 -0.7306  0.8442
 5220SOL    HW220879   5.274   0.300   3.357  0.5859 -2.0804 -0.6107
 5220SOL     MW20880   5.300   0.260   3.431  0.1561 -0.7955  0.2683
 5221SOL     OW20881   2.925   1.171   5.259  0.4762  0.0893 -0.5298
 5221SOL    HW120882   2.928   1.175   5.163 -0.1284  0.5660 -0.5286
 5221SOL    HW220883   2.992   1.233   5.287  0.4468  0.1729 -0.6407
 5221SOL     MW20884   2.934   1.179   5.250  0.3950  0.1610 -0.5438
 5222SOL     OW20885   0.917   4.562   3.379  0.3214  0.0820  0.0152
 5222SOL    HW120886   0.920   4.483   3.324  1.5083 -1.1132  1.6969
 5222SOL    HW220887   0.845   4.546   3.440  0.7368  0.1638  0.5345
 5222SOL     MW20888   0.908   4.550   3.380  0.5265 -0.0605  0.2969
 5223SOL     OW20889   1.280   4.464   4.703 -0.2660 -0.2629 -0.0136
 5223SOL    HW120890   1.277   4.560   4.700  0.9604 -0.2356 -1.0780
 5223SOL    HW220891   1.373   4.443   4.710 -0.3624 -1.4013 -1.6340
 5223SOL     MW20892   1.292   4.474   4.703 -0.1213 -0.4052 -0.3573
 5224SOL     OW20893   4.373   4.910   0.907 -0.0315 -0.4706 -0.3757
 5224SOL    HW120894   4.465   4.909   0.934  0.5735 -1.7419 -2.2842
 5224SOL    HW220895   4.358   4.823   0.870 -2.1953 -0.4851  0.3747
 5224SOL     MW20896   4.383   4.898   0.906 -0.2310 -0.6352 -0.5240
 5225SOL     OW20897   5.152   2.997   1.399 -0.6078  0.2230 -0.3652
 5225SOL    HW120898   5.230   3.013   1.453 -0.2603 -0.8177 -0.5317
 5225SOL    HW220899   5.088   3.062   1.430  0.4613  1.3991 -0.5407
 5225SOL     MW20900   5.154   3.007   1.410 -0.4264  0.2403 -0.4090
 5226SOL     OW20901   1.424   2.186   2.765 -0.0415 -0.7499  0.1089
 5226SOL    HW120902   1.376   2.203   2.846  0.0487 -0.2679  0.0606
 5226SOL    HW220903   1.500   2.135   2.793  0.1428 -0.3377  0.3724
 5226SOL     MW20904   1.428   2.181   2.779 -0.0063 -0.6354  0.1364
 5227SOL     OW20905   1.323   3.263   5.428 -0.1952 -0.5566 -0.3111
 5227SOL    HW120906   1.317   3.169   5.442 -0.7580 -0.3750  0.8180
 5227SOL    HW220907   1.404   3.289   5.471  0.3852 -0.6192 -1.3220
 5227SOL     MW20908   1.332   3.254   5.435 -0.1930 -0.5414 -0.2959
 5228SOL     OW20909   0.166   5.192   0.779  0.5066 -0.0130  0.6093
 5228SOL    HW120910   0.203   5.145   0.705  0.3462  1.5162 -0.4845
 5228SOL    HW220911   0.200   5.146   0.856  1.5015 -1.0196 -0.3943
 5228SOL     MW20912   0.175   5.180   0.780  0.6134  0.0539  0.3408
 5229SOL     OW20913   5.438   0.706   2.124 -0.4894  0.1374 -0.2727
 5229SOL    HW120914   5.352   0.693   2.165 -0.2860  1.7868  0.7897
 5229SOL    HW220915   5.425   0.682   2.033 -2.0475  0.1664 -0.0827
 5229SOL     MW20916   5.425   0.701   2.118 -0.6628  0.3523 -0.1124
 5230SOL     OW20917   1.884   4.513   5.122 -0.3127  0.0051  0.4569
 5230SOL    HW120918   1.979   4.503   5.132 -0.0086  0.1034 -1.8470
 5230SOL    HW220919   1.851   4.516   5.212  1.8201 -0.3465  1.3168
 5230SOL     MW20920   1.892   4.512   5.135 -0.0008 -0.0274  0.2720
 5231SOL     OW20921   3.919   5.442   4.596 -0.6214  0.1469  0.0750
 5231SOL    HW120922   3.958   5.370   4.644 -0.7096 -0.0079 -0.0833
 5231SOL    HW220923   3.920   5.516   4.657  0.6765  0.3778 -0.1935
 5231SOL     MW20924   3.924   5.442   4.610 -0.4665  0.1566  0.0203
 5232SOL     OW20925   4.367   1.828   0.380 -0.3552 -0.6399  0.8635
 5232SOL    HW120926   4.382   1.782   0.298 -0.4123  0.9183 -0.0678
 5232SOL    HW220927   4.380   1.762   0.448  1.5090 -1.5389 -0.3009
 5232SOL     MW20928   4.371   1.814   0.378 -0.1239 -0.5555  0.5952
 5233SOL     OW20929   1.439   3.312   1.306 -0.0508  0.2491  0.2397
 5233SOL    HW120930   1.513   3.330   1.247  0.2587 -0.1599  0.4930
 5233SOL    HW220931   1.442   3.217   1.319  1.1566  0.5232  2.5182
 5233SOL     MW20932   1.449   3.302   1.301  0.1434  0.2318  0.5638
 5234SOL     OW20933   5.064   0.516   5.428  0.3250  0.3518 -0.5705
 5234SOL    HW120934   5.049   0.607   5.452  0.4662  0.0413  0.7588
 5234SOL    HW220935   4.983   0.489   5.386 -0.3085  0.6552  0.4189
 5234SOL     MW20936   5.052   0.524   5.426  0.2620  0.3509 -0.2737
 5235SOL     OW20937   1.629   4.005   4.676  0.0597  0.5104 -0.3134
 5235SOL    HW120938   1.664   4.026   4.763  1.7690 -3.0371  0.0251
 5235SOL    HW220939   1.701   4.025   4.616  0.4055 -0.8840 -0.3816
 5235SOL     MW20940   1.643   4.010   4.680  0.3228 -0.1222 -0.2788
 5236SOL     OW20941   5.380   4.392   5.124 -0.1724  0.2399  0.1687
 5236SOL    HW120942   5.302   4.435   5.159  0.4978  1.0731  0.6727
 5236SOL    HW220943   5.410   4.450   5.054  0.2997  0.2074  0.3410
 5236SOL     MW20944   5.374   4.405   5.119 -0.0262  0.3424  0.2553
 5237SOL     OW20945   3.543   5.346   5.320 -0.0316  0.1813  0.3648
 5237SOL    HW120946   3.548   5.417   5.256 -0.2936  0.6416  0.8531
 5237SOL    HW220947   3.574   5.384   5.402 -0.7459 -0.0798  0.7733
 5237SOL     MW20948   3.547   5.360   5.322 -0.1566  0.2068  0.4796
 5238SOL     OW20949   0.322   3.536   4.169 -0.0309  0.2758 -0.2375
 5238SOL    HW120950   0.265   3.563   4.240 -1.0955 -0.1311 -0.9048
 5238SOL    HW220951   0.408   3.528   4.208 -0.3258  1.4216  0.6855
 5238SOL     MW20952   0.326   3.538   4.183 -0.2049  0.3704 -0.2048
 5239SOL     OW20953   1.238   0.839   1.592  0.3968  0.1192 -0.1626
 5239SOL    HW120954   1.233   0.843   1.496  2.0454 -2.6193 -0.4422
 5239SOL    HW220955   1.217   0.928   1.620  2.5536  1.7752 -3.2039
 5239SOL     MW20956   1.234   0.851   1.583  0.8840 -0.0194 -0.5878
 5240SOL     OW20957   5.088   5.020   0.034  0.1147 -0.1928 -0.0867
 5240SOL    HW120958   5.074   5.106  -0.006 -2.6646 -0.3294  0.3564
 5240SOL    HW220959   5.067   4.957  -0.035 -1.1655 -0.4474  0.5045
 5240SOL     MW20960   5.084   5.023   0.020 -0.4050 -0.2429  0.0457
 5241SOL     OW20961   1.888   3.793   3.011  0.0338  0.1471 -0.1102
 5241SOL    HW120962   1.884   3.698   2.997 -0.3524  0.2369 -0.6524
 5241SOL    HW220963   1.849   3.806   3.098  0.9589 -0.2730  0.3811
 5241SOL     MW20964   1.883   3.782   3.021  0.1028  0.1048 -0.1167
 5242SOL     OW20965   5.023   2.612   2.679 -0.0675  0.1986  0.3219
 5242SOL    HW120966   4.974   2.532   2.702 -0.8518  0.4127 -0.5653
 5242SOL    HW220967   4.986   2.640   2.596  1.3925  0.5339 -0.2407
 5242SOL     MW20968   5.012   2.605   2.672  0.0190  0.2689  0.1363
 5243SOL     OW20969   1.622   3.042   4.471 -0.1249  0.0383 -0.3457
 5243SOL    HW120970   1.575   3.101   4.529 -0.9336 -0.5343 -0.3930
 5243SOL    HW220971   1.704   3.087   4.451 -0.7039  1.1099 -0.3529
 5243SOL     MW20972   1.626   3.055   4.476 -0.3026  0.1022 -0.3527
 5244SOL     OW20973   3.172   0.491   0.625  0.4063 -0.0302 -0.0619
 5244SOL    HW120974   3.095   0.435   0.634  0.9072 -0.6358  0.5747
 5244SOL    HW220975   3.186   0.527   0.713 -1.3774  3.1524 -0.9130
 5244SOL     MW20976   3.164   0.489   0.637  0.2421  0.2997 -0.0894
 5245SOL     OW20977   0.162   1.475   1.803 -0.2176 -0.2084 -0.3296
 5245SOL    HW120978   0.142   1.545   1.741 -1.5686  0.0871  0.3801
 5245SOL    HW220979   0.227   1.513   1.862  0.5410 -0.2504 -1.1282
 5245SOL     MW20980   0.168   1.489   1.803 -0.2934 -0.1759 -0.3409
 5246SOL     OW20981   1.734   1.806   4.939 -0.1544  0.3518 -0.3879
 5246SOL    HW120982   1.700   1.771   5.022  1.1957  0.6892  0.3404
 5246SOL    HW220983   1.692   1.892   4.931 -0.3568  0.2835 -0.0918
 5246SOL     MW20984   1.725   1.812   4.949 -0.0075  0.3862 -0.2567
 5247SOL     OW20985   1.609   4.797   2.414  0.7473  0.4284  0.4179
 5247SOL    HW120986   1.654   4.719   2.380  1.0689  0.3407  1.0265
 5247SOL    HW220987   1.570   4.769   2.496 -0.1459  0.6032  0.0689
 5247SOL     MW20988   1.610   4.784   2.420  0.6741  0.4396  0.4511
 5248SOL     OW20989   0.440   4.763   0.602 -0.1944  0.3218 -0.0256
 5248SOL    HW120990   0.520   4.815   0.599 -1.4040  2.2424 -0.9256
 5248SOL    HW220991   0.467   4.676   0.573  1.5248  0.9650 -0.4709
 5248SOL     MW20992   0.454   4.758   0.598 -0.1292  0.6500 -0.1978
 5249SOL     OW20993   3.217   0.046   2.925  0.3123  0.5799 -0.2779
 5249SOL    HW120994   3.156   0.113   2.957  1.0052  1.5861 -1.0213
 5249SOL    HW220995   3.205  -0.028   2.986 -0.8585  1.1576  0.2270
 5249SOL     MW20996   3.208   0.045   2.937  0.2511  0.7827 -0.3084
 5250SOL     OW20997   3.150   4.625   2.050 -0.3236 -0.5514 -0.2491
 5250SOL    HW120998   3.238   4.589   2.038  0.2340 -0.4467  2.6075
 5250SOL    HW220999   3.160   4.719   2.035  0.2207 -0.4635  0.5667
 5250SOL     MW21000   3.163   4.632   2.047 -0.1825 -0.5268  0.2210
 5251SOL     OW21001   0.469   4.475   3.689 -0.3982  0.7672 -0.8950
 5251SOL    HW121002   0.436   4.564   3.672 -1.4391  0.5137 -0.2339
 5251SOL    HW221003   0.559   4.477   3.655 -0.4368  2.0438 -0.9821
 5251SOL     MW21004   0.476   4.487   3.682 -0.5364  0.8982 -0.8215
 5252SOL     OW21005   3.407   3.974   1.185 -0.0335 -0.7007  0.2033
 5252SOL    HW121006   3.446   3.974   1.272  1.0812  0.0856 -0.2792
 5252SOL    HW221007   3.313   3.986   1.201  0.1822 -0.3335  1.2812
 5252SOL     MW21008   3.400   3.976   1.198  0.1368 -0.5531  0.2795
 5253SOL     OW21009   2.029   2.845   2.147  0.0081  0.6934  0.0201
 5253SOL    HW121010   1.998   2.934   2.161 -0.4868  0.6191 -0.5631
 5253SOL    HW221011   2.085   2.852   2.069 -2.2432  0.0447 -1.7724
 5253SOL     MW21012   2.033   2.857   2.139 -0.3434  0.6009 -0.2840
 5254SOL     OW21013   3.116   2.317   2.704  0.1248  0.2179  0.0677
 5254SOL    HW121014   3.182   2.247   2.703 -1.7528 -1.6642 -1.8462
 5254SOL    HW221015   3.106   2.343   2.613 -0.4015  1.8685  0.5560
 5254SOL     MW21016   3.123   2.311   2.692 -0.1829  0.1883 -0.1148
 5255SOL     OW21017   1.478   5.222   0.093  0.1206  0.4289 -0.4179
 5255SOL    HW121018   1.472   5.304   0.044 -3.8949 -0.4700 -1.8120
 5255SOL    HW221019   1.566   5.189   0.075  1.2651  3.5629 -1.1640
 5255SOL     MW21020   1.488   5.228   0.085 -0.2469  0.7151 -0.6919
 5256SOL     OW21021   1.533   4.349   4.716  0.3535  0.2658  0.0521
 5256SOL    HW121022   1.627   4.332   4.719  0.3828  0.1080 -1.0984
 5256SOL    HW221023   1.494   4.262   4.712  0.1697  0.3366  0.2985
 5256SOL     MW21024   1.540   4.336   4.716  0.3337  0.2546 -0.0637
 5257SOL     OW21025   3.319   3.313   2.841  0.0483  0.3057 -0.0390
 5257SOL    HW121026   3.330   3.408   2.848 -0.1946  0.3297  0.0329
 5257SOL    HW221027   3.260   3.290   2.913 -1.0381  0.3054 -0.8902
 5257SOL     MW21028   3.313   3.322   2.851 -0.1218  0.3087 -0.1388
 5258SOL     OW21029   1.459   5.216   3.592 -0.5534 -0.3261  0.3019
 5258SOL    HW121030   1.493   5.129   3.571  0.2828  0.0065  0.2545
 5258SOL    HW221031   1.535   5.274   3.590 -0.6227 -0.0214  2.9014
 5258SOL     MW21032   1.473   5.213   3.589 -0.4552 -0.2445  0.6286
 5259SOL     OW21033   1.725   3.852   3.252  0.0500  0.2992  0.1009
 5259SOL    HW121034   1.703   3.931   3.302  1.8449  1.3712 -0.6768
 5259SOL    HW221035   1.641   3.814   3.228 -0.8834  2.1054  0.3268
 5259SOL     MW21036   1.711   3.857   3.256  0.1603  0.6676  0.0302
 5260SOL     OW21037   3.223   5.021   4.255 -0.3693 -0.0863  0.2130
 5260SOL    HW121038   3.173   4.940   4.266 -0.0094 -0.2918  0.3518
 5260SOL    HW221039   3.308   4.992   4.223 -0.5156  0.3037 -0.5536
 5260SOL     MW21040   3.227   5.007   4.252 -0.3420 -0.0627  0.1326
 5261SOL     OW21041   2.679   3.351   4.080  0.5743  0.1858 -0.5555
 5261SOL    HW121042   2.756   3.348   4.137  0.5996  0.7439 -0.5573
 5261SOL    HW221043   2.629   3.273   4.103  0.0119  0.9595  1.0393
 5261SOL     MW21044   2.682   3.341   4.090  0.5056  0.3563 -0.3515
 5262SOL     OW21045   4.829   2.486   4.172 -0.0204 -0.2790 -0.5501
 5262SOL    HW121046   4.821   2.428   4.247  2.2505  0.3140  0.2446
 5262SOL    HW221047   4.915   2.465   4.135 -0.6034  0.2305 -2.3262
 5262SOL     MW21048   4.839   2.476   4.177  0.1957 -0.1379 -0.6757
 5263SOL     OW21049   0.072   2.835   4.511  0.2178 -0.3681 -0.9034
 5263SOL    HW121050   0.088   2.759   4.566 -1.3873 -0.7611 -0.9490
 5263SOL    HW221051  -0.023   2.837   4.498 -0.1863  3.0677  1.1652
 5263SOL     MW21052   0.062   2.826   4.516 -0.0394  0.0215 -0.6445
 5264SOL     OW21053   3.687   3.931   1.820  0.3202  0.5320 -0.4245
 5264SOL    HW121054   3.711   3.979   1.899 -1.5599 -0.3007  0.7250
 5264SOL    HW221055   3.633   3.992   1.770  1.0523  0.8676 -0.8237
 5264SOL     MW21056   3.683   3.945   1.824  0.1732  0.4684 -0.3285
 5265SOL     OW21057   4.371   0.369   5.201  0.4246 -0.3012  0.6433
 5265SOL    HW121058   4.455   0.359   5.245  0.4736  1.5115  1.0730
 5265SOL    HW221059   4.369   0.462   5.176 -1.5248 -0.2655  0.8245
 5265SOL     MW21060   4.382   0.380   5.203  0.1813 -0.0646  0.7215
 5266SOL     OW21061   0.507   0.425   4.647  0.3939  0.4824 -0.0800
 5266SOL    HW121062   0.495   0.450   4.739 -0.5880 -0.9348  0.2057
 5266SOL    HW221063   0.498   0.330   4.647 -0.6925  0.5512 -1.8030
 5266SOL     MW21064   0.504   0.416   4.659  0.1291  0.3098 -0.2640
 5267SOL     OW21065   3.876   3.094   2.039  0.0346  0.0867 -0.2236
 5267SOL    HW121066   3.935   3.021   2.020  0.4952  0.0318  1.2784
 5267SOL    HW221067   3.935   3.169   2.053 -0.4041  0.6355 -1.2174
 5267SOL     MW21068   3.891   3.094   2.039  0.0374  0.1500 -0.1585
 5268SOL     OW21069   5.297   4.352   1.706  0.4172  0.5364 -0.2837
 5268SOL    HW121070   5.221   4.338   1.649 -0.1457  1.0720  0.3232
 5268SOL    HW221071   5.344   4.425   1.665  0.8744 -0.0889 -0.9137
 5268SOL     MW21072   5.293   4.359   1.693  0.4037  0.5250 -0.2866
 5269SOL     OW21073   4.181   5.166   3.348 -0.0824 -0.3282  0.3275
 5269SOL    HW121074   4.239   5.157   3.423  0.0141 -1.7409  0.1004
 5269SOL    HW221075   4.097   5.132   3.379 -0.3123  0.0193  0.0941
 5269SOL     MW21076   4.177   5.161   3.362 -0.0995 -0.4646  0.2686
 5270SOL     OW21077   2.820   4.939   1.243 -0.3762  0.0049 -0.2661
 5270SOL    HW121078   2.883   4.869   1.256 -2.4671 -2.1816 -1.0207
 5270SOL    HW221079   2.860   4.997   1.179  1.0950 -0.9714 -0.2596
 5270SOL     MW21080   2.833   4.937   1.236 -0.4556 -0.4000 -0.3618
 5271SOL     OW21081   0.516   2.023   4.175 -0.0517  0.5052  0.0523
 5271SOL    HW121082   0.479   1.987   4.095  0.5286  0.0453 -0.0152
 5271SOL    HW221083   0.445   2.074   4.214 -1.1748 -1.3710  0.5714
 5271SOL     MW21084   0.502   2.025   4.170 -0.1212  0.2062  0.1101
 5272SOL     OW21085   4.231   2.216   2.162  0.7600 -0.5074  0.4339
 5272SOL    HW121086   4.326   2.215   2.173  0.8587  0.7118 -0.1419
 5272SOL    HW221087   4.199   2.149   2.222  1.8696  0.0982  1.7471
 5272SOL     MW21088   4.239   2.207   2.171  0.9147 -0.2738  0.5283
 5273SOL     OW21089   0.581   1.070   1.359 -0.3669 -0.6242  0.1569
 5273SOL    HW121090   0.524   1.117   1.421 -0.1230  1.4490 -1.1001
 5273SOL    HW221091   0.562   1.110   1.274  1.4965 -1.3086 -0.6280
 5273SOL     MW21092   0.571   1.081   1.356 -0.0971 -0.4464 -0.1045
 5274SOL     OW21093   3.539   4.437   0.783  0.3153 -0.1943 -0.2736
 5274SOL    HW121094   3.482   4.485   0.843 -0.3685 -0.8962 -0.3357
 5274SOL    HW221095   3.500   4.450   0.697  0.4947 -0.3270 -0.3761
 5274SOL     MW21096   3.526   4.445   0.780  0.2507 -0.3011 -0.2947
 5275SOL     OW21097   1.314   1.464   2.211  0.4813 -0.1857  0.0389
 5275SOL    HW121098   1.290   1.513   2.289  0.0475  1.1038 -0.8611
 5275SOL    HW221099   1.394   1.506   2.179 -0.0199  0.1076 -0.8733
 5275SOL     MW21100   1.321   1.475   2.217  0.3616  0.0169 -0.1930
 5276SOL     OW21101   4.116   1.928   0.329 -0.0998 -0.0563  0.6472
 5276SOL    HW121102   4.194   1.885   0.365  1.3248  2.0043  0.2009
 5276SOL    HW221103   4.147   1.971   0.250 -2.0667 -0.3775 -0.3458
 5276SOL     MW21104   4.130   1.928   0.324 -0.1693  0.1663  0.4630
 5277SOL     OW21105   2.561   1.753   3.343 -0.3348 -0.3280 -0.1952
 5277SOL    HW121106   2.593   1.843   3.344  2.1975 -1.1297 -0.3633
 5277SOL    HW221107   2.588   1.717   3.428  0.0729 -1.3374 -0.7332
 5277SOL     MW21108   2.569   1.760   3.354  0.0415 -0.5598 -0.2856
 5278SOL     OW21109   0.296   2.805   1.383  0.3766  0.6435  0.0769
 5278SOL    HW121110   0.332   2.802   1.294  0.8215  0.6689  0.2491
 5278SOL    HW221111   0.334   2.885   1.420  1.6948 -0.3262  0.9058
 5278SOL     MW21112   0.306   2.815   1.376  0.6023  0.5226  0.2051
 5279SOL     OW21113   2.108   0.020   1.146  0.8181  0.4262  0.0882
 5279SOL    HW121114   2.061  -0.001   1.226  0.7470  0.2033 -0.0112
 5279SOL    HW221115   2.047   0.074   1.096  0.5760 -0.0649 -0.1470
 5279SOL     MW21116   2.094   0.024   1.150  0.7780  0.3348  0.0454
 5280SOL     OW21117   0.175   4.346   1.294  0.9709  0.4998 -0.3055
 5280SOL    HW121118   0.170   4.319   1.386  0.2914  0.3835 -0.3746
 5280SOL    HW221119   0.218   4.272   1.250  0.2683  0.0646 -0.2735
 5280SOL     MW21120   0.180   4.333   1.300  0.7940  0.4292 -0.3103
 5281SOL     OW21121   3.047   3.411   1.898 -0.7275  0.7665  0.4638
 5281SOL    HW121122   3.013   3.375   1.980  0.7219 -1.0044  0.3548
 5281SOL    HW221123   3.080   3.335   1.850  0.9937  2.0549 -0.5325
 5281SOL     MW21124   3.047   3.397   1.903 -0.3216  0.7047  0.3223
 5282SOL     OW21125   2.936   2.988   5.341  0.3472 -0.3592  0.7143
 5282SOL    HW121126   2.987   2.918   5.381  1.3244  0.0798  0.2708
 5282SOL    HW221127   2.971   3.068   5.379  0.3927 -0.0193 -0.0230
 5282SOL     MW21128   2.947   2.989   5.351  0.4782 -0.2595  0.5632
 5283SOL     OW21129   1.523   0.330   4.368  0.6978 -0.1225 -0.2529
 5283SOL    HW121130   1.603   0.325   4.420  0.7699  0.7612 -0.2659
 5283SOL    HW221131   1.516   0.422   4.343  0.0825 -0.3323 -0.8930
 5283SOL     MW21132   1.533   0.341   4.371  0.6283 -0.0363 -0.3365
 5284SOL     OW21133   0.183   3.038   5.136  0.1686  0.4839  0.0649
 5284SOL    HW121134   0.275   3.046   5.110 -0.1312  0.6104 -1.0051
 5284SOL    HW221135   0.183   3.053   5.230  1.2399  0.5188  0.0688
 5284SOL     MW21136   0.195   3.041   5.145  0.2673  0.5046 -0.0716
 5285SOL     OW21137   5.258   1.701   3.850  0.2100  0.6413 -0.3572
 5285SOL    HW121138   5.273   1.795   3.859  0.6798  0.6329 -0.9868
 5285SOL    HW221139   5.163   1.692   3.838  0.1978  1.0640 -0.5885
 5285SOL     MW21140   5.248   1.712   3.849  0.2686  0.6943 -0.4674
 5286SOL     OW21141   0.859   3.186   0.994 -1.2648 -0.2209  0.1468
 5286SOL    HW121142   0.842   3.268   0.948 -0.5924 -0.0105  0.2641
 5286SOL    HW221143   0.934   3.147   0.948 -1.1137 -0.4114  0.5452
 5286SOL     MW21144   0.866   3.191   0.982 -1.1594 -0.2183  0.2128
 5287SOL     OW21145   2.255   2.962   2.490  0.4765 -0.6674 -0.2632
 5287SOL    HW121146   2.347   2.967   2.462  0.3518  1.1080 -0.4231
 5287SOL    HW221147   2.228   2.873   2.466  2.3414 -1.4633  0.4127
 5287SOL     MW21148   2.264   2.951   2.483  0.6993 -0.5420 -0.1972
 5288SOL     OW21149   3.032   5.165   3.588 -0.4957  0.1966  0.3820
 5288SOL    HW121150   3.003   5.194   3.675 -0.1872  1.1901  0.1630
 5288SOL    HW221151   3.032   5.244   3.535 -0.5906 -0.3900 -0.5111
 5288SOL     MW21152   3.028   5.179   3.592 -0.4683  0.2487  0.2397
 5289SOL     OW21153   3.504   2.635   1.489 -0.1085  0.4335 -0.6954
 5289SOL    HW121154   3.580   2.605   1.539  0.9193  2.3335 -1.0595
 5289SOL    HW221155   3.430   2.586   1.526  1.2441 -1.3830 -0.2674
 5289SOL     MW21156   3.504   2.625   1.500  0.1962  0.4442 -0.6872
 5290SOL     OW21157   1.036   3.904   3.567 -0.4225 -0.4396  0.2765
 5290SOL    HW121158   0.980   3.980   3.552  1.8334  1.1900 -0.4216
 5290SOL    HW221159   1.042   3.896   3.662 -1.0676 -0.0480  0.3538
 5290SOL     MW21160   1.030   3.912   3.577 -0.2163 -0.1809  0.1970
 5291SOL     OW21161   0.160   0.834   2.711  0.2760 -0.3668 -0.1947
 5291SOL    HW121162   0.131   0.830   2.620 -1.9543 -2.3302  0.5000
 5291SOL    HW221163   0.175   0.743   2.735 -1.8347 -0.2105  2.1325
 5291SOL     MW21164   0.158   0.822   2.702 -0.2797 -0.5981  0.1921
 5292SOL     OW21165   2.440   1.696   2.020  0.2510  0.2800 -0.1030
 5292SOL    HW121166   2.411   1.776   2.064  1.1158  0.0894  0.8438
 5292SOL    HW221167   2.402   1.702   1.932  0.1894  1.6558 -0.0041
 5292SOL     MW21168   2.431   1.707   2.014  0.3538  0.4317  0.0308
 5293SOL     OW21169   5.293   1.997   0.650 -0.2955  0.0760  0.1212
 5293SOL    HW121170   5.224   1.931   0.640 -1.7758  1.5282  0.2913
 5293SOL    HW221171   5.344   1.991   0.570  0.5266 -2.2357  0.7384
 5293SOL     MW21172   5.290   1.988   0.639 -0.3798 -0.0340  0.2220
 5294SOL     OW21173   2.528   4.235   2.233  0.3687  0.1052 -0.5025
 5294SOL    HW121174   2.540   4.141   2.216 -0.4371 -0.2746  0.8534
 5294SOL    HW221175   2.461   4.238   2.302 -0.0530  1.7033 -0.9445
 5294SOL     MW21176   2.521   4.223   2.240  0.2116  0.2611 -0.3855
 5295SOL     OW21177   2.045   1.520   1.526 -0.1440  0.0861  0.6591
 5295SOL    HW121178   1.999   1.604   1.514 -0.3004 -0.2181 -0.9751
 5295SOL    HW221179   2.132   1.535   1.490 -0.3145 -0.5810 -0.0366
 5295SOL     MW21180   2.050   1.533   1.520 -0.1859 -0.0383  0.3608
 5296SOL     OW21181   4.398   1.155   4.599 -0.0222 -0.0640  0.1885
 5296SOL    HW121182   4.348   1.093   4.652 -0.7156  0.3546  0.0496
 5296SOL    HW221183   4.396   1.236   4.650 -0.7782  0.3715 -0.4919
 5296SOL     MW21184   4.391   1.158   4.612 -0.2077  0.0453  0.0836
 5297SOL     OW21185   2.612   0.725   1.261  0.1287 -0.1846 -0.3747
 5297SOL    HW121186   2.636   0.813   1.230 -0.7269 -0.1653 -1.0173
 5297SOL    HW221187   2.529   0.706   1.217  0.1372 -1.1838  0.0188
 5297SOL     MW21188   2.604   0.734   1.251  0.0203 -0.3100 -0.4066
 5298SOL     OW21189   2.991   0.384   2.427 -0.7173  0.6966 -0.3691
 5298SOL    HW121190   2.897   0.391   2.406 -0.6915 -0.2498 -0.8226
 5298SOL    HW221191   3.012   0.292   2.412 -0.4154  0.1640  2.6526
 5298SOL     MW21192   2.981   0.373   2.423 -0.6753  0.5072 -0.0403
 5299SOL     OW21193   1.822   0.933   0.278 -0.1897  0.4982 -0.5909
 5299SOL    HW121194   1.792   1.022   0.295 -1.4372  0.1034 -0.5820
 5299SOL    HW221195   1.866   0.907   0.359  0.0887  1.0591 -0.5544
 5299SOL     MW21196   1.824   0.941   0.291 -0.3137  0.5195 -0.5851
 5300SOL     OW21197   0.544   5.008   5.211 -0.0607  0.0670 -0.0083
 5300SOL    HW121198   0.469   5.037   5.262  0.6323 -0.2195  1.2070
 5300SOL    HW221199   0.522   5.031   5.121 -1.5825  0.0013  0.3271
 5300SOL     MW21200   0.532   5.015   5.206 -0.1668  0.0219  0.1902
 5301SOL     OW21201   0.729   5.327   0.923  0.0188 -0.4183 -0.1188
 5301SOL    HW121202   0.779   5.368   0.993  1.2191 -0.2444 -1.0495
 5301SOL    HW221203   0.795   5.292   0.863 -0.9772 -0.8925 -0.9797
 5301SOL     MW21204   0.744   5.328   0.924  0.0449 -0.4568 -0.3482
 5302SOL     OW21205   4.337   4.140   1.629  0.0365  0.3042 -0.0511
 5302SOL    HW121206   4.244   4.156   1.644 -0.0966  1.9397 -2.1449
 5302SOL    HW221207   4.372   4.225   1.600  2.1532 -0.3105  0.5220
 5302SOL     MW21208   4.330   4.153   1.627  0.2904  0.4349 -0.2458
 5303SOL     OW21209   5.333   4.069   4.532  0.2876  0.2763  0.2491
 5303SOL    HW121210   5.364   4.158   4.547 -0.2638  1.0515 -2.6022
 5303SOL    HW221211   5.298   4.042   4.617  0.3366  2.8258  1.1834
 5303SOL     MW21212   5.332   4.077   4.545  0.2233  0.7019  0.0037
 5304SOL     OW21213   3.696   1.371   0.739 -0.0110 -0.2002 -0.2544
 5304SOL    HW121214   3.625   1.364   0.802  1.2699 -1.0044  1.1745
 5304SOL    HW221215   3.680   1.300   0.676 -1.3722  0.6939 -0.9626
 5304SOL     MW21216   3.685   1.361   0.739 -0.0213 -0.1887 -0.1621
 5305SOL     OW21217   2.490   5.136   5.378 -0.5092  0.5936  0.2610
 5305SOL    HW121218   2.545   5.075   5.427 -1.1089 -0.6745 -0.5847
 5305SOL    HW221219   2.549   5.174   5.313 -0.2376  0.5345  0.4723
 5305SOL     MW21220   2.505   5.133   5.376 -0.5512  0.4237  0.1798
 5306SOL     OW21221   3.612   2.976   4.091 -0.1653  0.2355  0.0183
 5306SOL    HW121222   3.663   2.940   4.019 -0.1949  1.1110 -0.4562
 5306SOL    HW221223   3.549   3.035   4.049 -1.6928 -0.9240  0.5618
 5306SOL     MW21224   3.610   2.979   4.077 -0.3647  0.1992  0.0272
 5307SOL     OW21225   2.975   1.215   3.201  0.5405 -0.0614  0.5716
 5307SOL    HW121226   3.068   1.232   3.220  1.1488 -0.4344 -1.7934
 5307SOL    HW221227   2.971   1.211   3.106 -1.9119 -0.2072  0.6368
 5307SOL     MW21228   2.986   1.217   3.191  0.3044 -0.1278  0.2772
 5308SOL     OW21229   3.365   1.764   2.896  0.1446  0.1212  0.6737
 5308SOL    HW121230   3.367   1.695   2.963 -0.3771 -0.3181  0.2522
 5308SOL    HW221231   3.273   1.767   2.869  0.4693 -0.1852 -0.5012
 5308SOL     MW21232   3.354   1.755   2.901  0.1194  0.0258  0.4693
 5309SOL     OW21233   1.465   2.382   2.234 -0.0773  0.3185  0.6245
 5309SOL    HW121234   1.483   2.445   2.304  0.4401 -2.2288  2.9334
 5309SOL    HW221235   1.388   2.418   2.190 -0.3156  2.1380  2.3537
 5309SOL     MW21236   1.458   2.395   2.237 -0.0415  0.2253  1.1414
 5310SOL     OW21237   1.031   0.823   5.027 -0.1444 -0.2121 -0.4343
 5310SOL    HW121238   0.993   0.771   5.098  0.9627 -1.4382 -0.6820
 5310SOL    HW221239   0.972   0.897   5.016 -1.7087 -1.3399  0.0545
 5310SOL     MW21240   1.019   0.826   5.035 -0.2030 -0.5134 -0.4035
 5311SOL     OW21241   4.559   2.375   3.484  0.0025 -0.3336 -0.0445
 5311SOL    HW121242   4.493   2.444   3.494 -1.2831 -1.6467  0.7670
 5311SOL    HW221243   4.535   2.331   3.402  0.6875  0.0191 -0.4434
 5311SOL     MW21244   4.547   2.378   3.475 -0.0744 -0.4566  0.0083
 5312SOL     OW21245   5.388   1.821   1.592 -0.3853  0.3560  0.7268
 5312SOL    HW121246   5.425   1.904   1.565  0.3998 -0.1947  0.0557
 5312SOL    HW221247   5.414   1.812   1.684  1.6433 -0.2460  0.1464
 5312SOL     MW21248   5.396   1.830   1.601 -0.0251  0.2084  0.5666
 5313SOL     OW21249   0.548   1.511   4.889  0.2789  0.1466 -0.0536
 5313SOL    HW121250   0.526   1.435   4.836 -1.8217  0.2929  0.5139
 5313SOL    HW221251   0.591   1.475   4.967 -0.0189 -0.4023 -0.1399
 5313SOL     MW21252   0.551   1.497   4.892 -0.0281  0.0951  0.0080
 5314SOL     OW21253   2.909   2.029   2.605  0.0882  0.1231  0.3771
 5314SOL    HW121254   2.883   2.083   2.680  0.6077  0.0329  0.6242
 5314SOL    HW221255   2.840   1.962   2.599 -0.8103  1.0646 -0.2139
 5314SOL     MW21256   2.896   2.028   2.614  0.0397  0.2321  0.3331
 5315SOL     OW21257   5.045   1.358   3.542  0.0881  0.8069  0.0016
 5315SOL    HW121258   4.973   1.384   3.600  0.2086 -0.5680  0.7977
 5315SOL    HW221259   5.060   1.266   3.561  1.8997  0.9916 -0.3227
 5315SOL     MW21260   5.038   1.350   3.552  0.3355  0.6546  0.0620
 5316SOL     OW21261   2.597   2.680   4.546 -0.5403  0.5867  0.3969
 5316SOL    HW121262   2.612   2.620   4.472 -0.2154 -1.1392  1.8011
 5316SOL    HW221263   2.676   2.734   4.550  0.3376 -0.6826  0.6939
 5316SOL     MW21264   2.609   2.679   4.537 -0.3863  0.2033  0.6147
 5317SOL     OW21265   0.107   2.714   3.066 -0.0976  0.7659  0.4486
 5317SOL    HW121266   0.027   2.687   3.022  0.1164  1.8861 -0.6716
 5317SOL    HW221267   0.086   2.710   3.159 -1.3484  0.7335  0.1787
 5317SOL     MW21268   0.094   2.710   3.072 -0.2303  0.9051  0.2706
 5318SOL     OW21269   5.167   0.649   4.255  0.2546 -0.5308 -0.0310
 5318SOL    HW121270   5.171   0.671   4.348  0.6856  0.0948 -0.1901
 5318SOL    HW221271   5.093   0.590   4.248  0.3564 -0.7688  0.7483
 5318SOL     MW21272   5.158   0.644   4.266  0.3228 -0.4811  0.0484
 5319SOL     OW21273   2.262   2.520   2.134 -0.0343 -0.2130  0.1946
 5319SOL    HW121274   2.341   2.545   2.087  0.0075 -1.0987 -0.2232
 5319SOL    HW221275   2.209   2.473   2.070 -1.3536  1.1963  0.1846
 5319SOL     MW21276   2.265   2.517   2.120 -0.1978 -0.1460  0.1399
 5320SOL     OW21277   1.062   4.889   0.692 -0.0892  0.1228  0.3549
 5320SOL    HW121278   1.020   4.831   0.628 -2.1098  1.4376  0.4038
 5320SOL    HW221279   1.126   4.939   0.640 -2.2529  1.7428 -0.9241
 5320SOL     MW21280   1.065   4.888   0.677 -0.6248  0.4985  0.1974
 5321SOL     OW21281   4.102   0.281   2.280  0.1187  0.5576 -0.3511
 5321SOL    HW121282   4.081   0.374   2.285  1.8614  0.9350  0.9324
 5321SOL    HW221283   4.168   0.275   2.211  0.7527  0.4578  0.2466
 5321SOL     MW21284   4.108   0.292   2.272  0.4229  0.5932 -0.1103
 5322SOL     OW21285   0.331   0.759   4.503 -0.5674  0.1753 -0.1129
 5322SOL    HW121286   0.360   0.739   4.592  1.7464  0.1451 -0.8068
 5322SOL    HW221287   0.360   0.850   4.488  0.0662 -0.1847 -1.1836
 5322SOL     MW21288   0.338   0.768   4.513 -0.1901  0.1253 -0.3388
 5323SOL     OW21289   4.723   2.799   1.653  0.3721  0.3986  0.2863
 5323SOL    HW121290   4.765   2.769   1.572 -1.2681  2.9043 -1.6646
 5323SOL    HW221291   4.774   2.876   1.679 -0.7715  1.2973 -0.0508
 5323SOL     MW21292   4.735   2.805   1.646  0.0157  0.8344 -0.0066
 5324SOL     OW21293   1.163   4.909   1.076  0.6158  0.4554 -0.6891
 5324SOL    HW121294   1.217   4.915   1.155 -0.5238  4.3478  0.0289
 5324SOL    HW221295   1.218   4.943   1.006  0.8159 -0.7132 -1.1243
 5324SOL     MW21296   1.177   4.914   1.077  0.4955  0.8041 -0.6529
 5325SOL     OW21297   4.837   2.491   3.306  0.0932 -0.0833  0.1189
 5325SOL    HW121298   4.928   2.497   3.275 -0.4360 -0.8924 -1.7724
 5325SOL    HW221299   4.797   2.426   3.248 -1.6841  0.2193  0.9496
 5325SOL     MW21300   4.844   2.483   3.294 -0.2021 -0.1481 -0.0169
 5326SOL     OW21301   0.315   4.044   0.170  0.0197  0.1005  0.1751
 5326SOL    HW121302   0.322   3.949   0.176 -0.7792  0.0958  1.2396
 5326SOL    HW221303   0.237   4.059   0.117 -0.6864  0.1584  1.2218
 5326SOL     MW21304   0.306   4.034   0.164 -0.1730  0.1073  0.4453
 5327SOL     OW21305   4.587   2.758   0.077 -0.0736  0.0647 -0.5407
 5327SOL    HW121306   4.636   2.774  -0.004 -0.6136  0.9969 -0.6987
 5327SOL    HW221307   4.602   2.836   0.130  0.6574 -0.7341  0.4770
 5327SOL     MW21308   4.595   2.770   0.074 -0.0492  0.0818 -0.4307
 5328SOL     OW21309   1.289   3.736   1.515  0.0182  0.6899 -0.4654
 5328SOL    HW121310   1.376   3.742   1.555  0.5475 -0.2726 -1.4275
 5328SOL    HW221311   1.282   3.646   1.485 -1.4870  0.6402 -0.0490
 5328SOL     MW21312   1.299   3.726   1.516 -0.1067  0.5603 -0.5353
 5329SOL     OW21313   2.044   3.319   2.791 -0.4478 -0.0568 -0.1863
 5329SOL    HW121314   2.013   3.286   2.706 -2.2173  1.6255 -0.2849
 5329SOL    HW221315   1.969   3.367   2.826  0.6878  0.4069  1.7451
 5329SOL     MW21316   2.030   3.321   2.784 -0.5290  0.2179  0.0483
 5330SOL     OW21317   1.019   2.546   0.088 -0.2681  0.4727 -0.3200
 5330SOL    HW121318   1.034   2.474   0.026  0.5772 -0.6061  1.0802
 5330SOL    HW221319   1.080   2.529   0.160 -0.6203  2.1592  0.4286
 5330SOL     MW21320   1.029   2.534   0.089 -0.2050  0.5505 -0.0449
 5331SOL     OW21321   3.080   2.044   5.015  0.2459  0.2539 -0.5212
 5331SOL    HW121322   3.101   2.123   4.965 -0.1829 -0.9981 -2.8175
 5331SOL    HW221323   3.159   1.990   5.008 -0.3442 -0.5540 -1.1699
 5331SOL     MW21324   3.093   2.048   5.007  0.1155 -0.0098 -0.8982
 5332SOL     OW21325   0.841   0.610   0.777 -0.4737  0.2916  0.1656
 5332SOL    HW121326   0.784   0.574   0.709  1.0189 -1.4979 -0.1918
 5332SOL    HW221327   0.929   0.583   0.752  0.1520 -0.2494  2.6924
 5332SOL     MW21328   0.845   0.602   0.765 -0.2025 -0.0067  0.4433
 5333SOL     OW21329   5.103   3.318   2.822  0.0879  0.1144  0.4241
 5333SOL    HW121330   5.175   3.360   2.869  0.2035  0.1210  0.2458
 5333SOL    HW221331   5.034   3.384   2.819  0.5961  0.6205 -0.6260
 5333SOL     MW21332   5.104   3.332   2.827  0.1677  0.1801  0.2669
 5334SOL     OW21333   0.779   0.696   1.302 -0.4790 -0.5085 -0.3380
 5334SOL    HW121334   0.707   0.644   1.267 -1.5404 -0.6068  1.8611
 5334SOL    HW221335   0.748   0.786   1.297 -1.1638 -0.6080  1.3497
 5334SOL     MW21336   0.766   0.701   1.297 -0.7025 -0.5338  0.1595
 5335SOL     OW21337   1.756   2.759   2.762 -0.3877  0.1524 -0.0748
 5335SOL    HW121338   1.782   2.807   2.840 -2.1533 -0.5585  0.9979
 5335SOL    HW221339   1.670   2.792   2.740 -0.6863 -0.9325 -0.6324
 5335SOL     MW21340   1.749   2.769   2.769 -0.6519 -0.0775 -0.0089
 5336SOL     OW21341   2.325   1.750   1.087  0.3935 -0.0507  0.1230
 5336SOL    HW121342   2.404   1.744   1.032  0.2460  1.5701 -0.3079
 5336SOL    HW221343   2.305   1.843   1.090 -0.3638 -0.2320  1.8908
 5336SOL     MW21344   2.333   1.761   1.080  0.2776  0.1335  0.2942
 5337SOL     OW21345   3.895   3.960   4.568  0.4258 -0.3974  0.0779
 5337SOL    HW121346   3.947   3.901   4.623 -0.4227 -0.9102  0.3594
 5337SOL    HW221347   3.811   3.915   4.559  0.9774 -1.0113 -2.8127
 5337SOL     MW21348   3.891   3.946   4.574  0.3878 -0.5416 -0.2561
 5338SOL     OW21349   2.889   4.484   3.993 -0.0766 -0.2244 -0.0796
 5338SOL    HW121350   2.804   4.458   4.027 -1.0617  0.4236 -1.9416
 5338SOL    HW221351   2.871   4.557   3.935  1.7993  0.1236 -0.3021
 5338SOL     MW21352   2.876   4.490   3.990  0.0374 -0.0969 -0.3465
 5339SOL     OW21353  -0.011   0.439   3.154 -0.6272 -0.1079  0.2890
 5339SOL    HW121354   0.027   0.457   3.068  0.2048  1.7751  0.9965
 5339SOL    HW221355   0.065   0.429   3.212 -1.1483 -2.1393  0.7284
 5339SOL     MW21356   0.004   0.440   3.150 -0.5874 -0.1269  0.4358
 5340SOL     OW21357   1.160   0.711   3.172 -0.2442  0.4713 -0.1787
 5340SOL    HW121358   1.226   0.642   3.177  0.0579  0.5502 -2.1896
 5340SOL    HW221359   1.081   0.668   3.139 -0.2933  0.9035 -0.6549
 5340SOL     MW21360   1.159   0.697   3.168 -0.2118  0.5367 -0.4971
 5341SOL     OW21361   4.293   4.040   4.352 -0.0288  0.1425  0.0105
 5341SOL    HW121362   4.273   4.039   4.258  0.5757 -1.6733 -0.1446
 5341SOL    HW221363   4.320   3.950   4.371  0.6894  0.6927  1.7576
 5341SOL     MW21364   4.294   4.028   4.342  0.1405 -0.0195  0.2143
 5342SOL     OW21365   5.287   3.970   0.709 -0.0746  0.2256  0.4011
 5342SOL    HW121366   5.234   4.049   0.723  0.6075  1.0623 -1.4607
 5342SOL    HW221367   5.377   4.000   0.723  0.1344 -0.4085  0.4061
 5342SOL     MW21368   5.291   3.984   0.713  0.0395  0.2516  0.1634
 5343SOL     OW21369   1.859   4.135   2.076 -0.2082 -0.3596 -0.4111
 5343SOL    HW121370   1.845   4.049   2.116 -1.0746 -0.4320 -0.8582
 5343SOL    HW221371   1.943   4.127   2.030  0.4128 -0.5131  0.7249
 5343SOL     MW21372   1.868   4.123   2.075 -0.2396 -0.3885 -0.3229
 5344SOL     OW21373   2.918   3.133   4.655 -0.3199 -0.0710 -0.0415
 5344SOL    HW121374   2.916   3.093   4.742  1.8139  0.1444  0.1602
 5344SOL    HW221375   2.953   3.221   4.670  0.0970 -0.0443 -1.1095
 5344SOL     MW21376   2.923   3.139   4.668  0.0066 -0.0400 -0.1524
 5345SOL     OW21377   1.544   4.664   2.679 -0.5397  0.1344 -0.2039
 5345SOL    HW121378   1.636   4.641   2.696 -1.0911 -1.1541  1.2180
 5345SOL    HW221379   1.507   4.680   2.766 -1.5630  1.1284 -0.8022
 5345SOL     MW21380   1.551   4.663   2.692 -0.7413  0.0967 -0.0985
 5346SOL     OW21381   2.130   4.624   3.893 -0.4063  0.1486  0.2734
 5346SOL    HW121382   2.120   4.688   3.822  0.1306  0.6263  0.6194
 5346SOL    HW221383   2.080   4.661   3.966 -0.6216 -0.1466  0.2816
 5346SOL     MW21384   2.122   4.637   3.893 -0.3651  0.1720  0.3188
 5347SOL     OW21385   0.818   1.148   3.113  0.0159 -0.1621  0.0402
 5347SOL    HW121386   0.875   1.167   3.039  0.5240  0.4861  0.5936
 5347SOL    HW221387   0.836   1.056   3.134  0.3329 -0.1651 -0.2437
 5347SOL     MW21388   0.827   1.138   3.106  0.1215 -0.0795  0.0747
 5348SOL     OW21389   0.242   1.345   4.504  0.2313  0.1846  0.0743
 5348SOL    HW121390   0.212   1.264   4.464  0.3059 -0.3476  1.0642
 5348SOL    HW221391   0.307   1.317   4.569 -0.6014  0.9184  1.2635
 5348SOL     MW21392   0.246   1.331   4.507  0.1343  0.2104  0.3533
 5349SOL     OW21393   4.328   3.430   2.097  0.0217  0.0065 -0.3374
 5349SOL    HW121394   4.301   3.413   2.187  0.8914 -0.5094 -0.1702
 5349SOL    HW221395   4.247   3.421   2.046 -0.4913  0.3950  0.3952
 5349SOL     MW21396   4.314   3.426   2.102  0.0673 -0.0098 -0.2222
 5350SOL     OW21397   2.100   3.059   0.827  0.2017  0.5184  0.4111
 5350SOL    HW121398   2.055   3.107   0.897  3.1560  1.6931  1.6726
 5350SOL    HW221399   2.134   2.980   0.869  1.7106  1.0595  0.2657
 5350SOL     MW21400   2.098   3.055   0.841  0.7730  0.7380  0.5539
 5351SOL     OW21401   5.407   1.302   5.454  0.4053  0.0984  0.1562
 5351SOL    HW121402   5.365   1.274   5.536 -0.6885  1.0982 -0.0275
 5351SOL    HW221403   5.362   1.384   5.431  2.6112  1.3691  0.0433
 5351SOL     MW21404   5.396   1.309   5.462  0.5476  0.3891  0.1182
 5352SOL     OW21405   4.955   0.780   3.669  0.2805  0.0716  0.6512
 5352SOL    HW121406   5.008   0.755   3.744  0.9116 -1.7655 -0.3246
 5352SOL    HW221407   5.018   0.795   3.599 -0.3874 -2.0125 -0.4951
 5352SOL     MW21408   4.970   0.778   3.669  0.2758 -0.4304  0.3795
 5353SOL     OW21409   4.062   0.090   3.562  0.1446 -0.4031 -0.6104
 5353SOL    HW121410   4.123   0.155   3.595 -0.6468 -0.5295  1.2194
 5353SOL    HW221411   4.118   0.019   3.530  1.0642 -1.2153  2.4176
 5353SOL     MW21412   4.077   0.089   3.562  0.1610 -0.5233  0.0115
 5354SOL     OW21413   2.129   2.396   0.227  0.1806  0.0159 -0.1663
 5354SOL    HW121414   2.193   2.412   0.297 -1.3854  0.5443  1.2098
 5354SOL    HW221415   2.152   2.459   0.159  2.1320 -0.9360 -0.4645
 5354SOL     MW21416   2.140   2.406   0.227  0.2299 -0.0383 -0.0283
 5355SOL     OW21417   3.942   4.250   5.408  0.0802  0.3922 -0.0626
 5355SOL    HW121418   3.907   4.330   5.447 -0.0726  0.5188 -0.4550
 5355SOL    HW221419   3.876   4.223   5.344  0.4826  0.3753 -0.4772
 5355SOL     MW21420   3.929   4.257   5.405  0.1122  0.4062 -0.1659
 5356SOL     OW21421   4.903   3.515   2.830 -0.7394  0.5295 -0.0940
 5356SOL    HW121422   4.936   3.602   2.809 -1.2144  0.3509 -1.7451
 5356SOL    HW221423   4.884   3.518   2.924  3.1435  0.8773  0.8616
 5356SOL     MW21424   4.905   3.526   2.839 -0.3031  0.5512 -0.1830
 5357SOL     OW21425   5.469   1.587   1.506 -0.2520 -0.3435  0.5510
 5357SOL    HW121426   5.476   1.613   1.414 -2.1811  0.8062  0.7054
 5357SOL    HW221427   5.456   1.668   1.554 -0.2526 -1.0248  1.7450
 5357SOL     MW21428   5.469   1.600   1.500 -0.4990 -0.2835  0.7236
 5358SOL     OW21429   2.136   5.400   3.617 -0.0330 -0.1792 -0.0336
 5358SOL    HW121430   2.187   5.343   3.674 -0.2433  0.5027  0.8628
 5358SOL    HW221431   2.052   5.410   3.662  0.0537  0.9545 -0.0911
 5358SOL     MW21432   2.132   5.394   3.630 -0.0488  0.0532  0.0738
 5359SOL     OW21433   2.660   2.560   0.689 -0.3898  0.0527 -0.1324
 5359SOL    HW121434   2.645   2.487   0.749 -0.2414 -0.5202 -0.7901
 5359SOL    HW221435   2.729   2.530   0.631  0.5189  1.1627  0.3268
 5359SOL     MW21436   2.667   2.547   0.690 -0.2545  0.1215 -0.1578
 5360SOL     OW21437   0.616   1.092   4.614 -0.5013 -0.6571 -0.5563
 5360SOL    HW121438   0.673   1.023   4.648 -0.9387 -0.8875 -0.2790
 5360SOL    HW221439   0.576   1.053   4.536  0.4132 -0.1700 -1.2800
 5360SOL     MW21440   0.618   1.078   4.609 -0.4402 -0.6242 -0.6135
 5361SOL     OW21441   1.253   4.057   4.436  0.6331  0.2264 -0.1014
 5361SOL    HW121442   1.296   4.051   4.521 -0.3329  0.1460  0.3857
 5361SOL    HW221443   1.312   4.010   4.376  1.4507  0.5232  0.4581
 5361SOL     MW21444   1.266   4.050   4.439  0.6141  0.2541  0.0326
 5362SOL     OW21445   2.537   1.590   0.333 -0.1463  0.6848  0.1045
 5362SOL    HW121446   2.471   1.598   0.265  1.0067  1.3749 -0.9637
 5362SOL    HW221447   2.589   1.514   0.307 -0.8638 -0.2774  1.2974
 5362SOL     MW21448   2.535   1.581   0.321 -0.0905  0.6499  0.1204
 5363SOL     OW21449   3.693   1.277   3.009  0.2279 -0.4841  0.2583
 5363SOL    HW121450   3.698   1.372   3.013 -0.4462 -0.3916 -0.6616
 5363SOL    HW221451   3.780   1.249   2.978  0.2245 -0.1132 -0.0982
 5363SOL     MW21452   3.705   1.285   3.005  0.1412 -0.4248  0.0949
 5364SOL     OW21453   0.225   4.957   3.208  0.1169  0.3450  0.0763
 5364SOL    HW121454   0.225   4.961   3.112  1.4509 -1.3675 -0.0553
 5364SOL    HW221455   0.298   5.013   3.234 -1.2960  2.1725  0.2274
 5364SOL     MW21456   0.234   4.964   3.199  0.1068  0.3597  0.0788
 5365SOL     OW21457   3.617   2.098   3.628  0.1871  0.3691  0.0475
 5365SOL    HW121458   3.645   2.152   3.702 -0.2127  0.8374 -0.1337
 5365SOL    HW221459   3.548   2.042   3.664  2.2857 -1.8532  0.8745
 5365SOL     MW21460   3.611   2.098   3.642  0.4046  0.1446  0.1301
 5366SOL     OW21461   3.244   5.401   4.800 -0.0628  0.5594  0.7996
 5366SOL    HW121462   3.167   5.448   4.769  0.4599  2.1510  1.8363
 5366SOL    HW221463   3.302   5.396   4.724 -0.5814  0.5908  0.3958
 5366SOL     MW21464   3.242   5.406   4.786 -0.0623  0.7672  0.8806
 5367SOL     OW21465   3.606   3.436   2.583  0.7348  0.2267 -0.1738
 5367SOL    HW121466   3.575   3.358   2.538  1.5254 -0.2313  0.0503
 5367SOL    HW221467   3.660   3.403   2.655  0.6340  0.9678  0.2551
 5367SOL     MW21468   3.609   3.422   2.586  0.8231  0.2629 -0.0902
 5368SOL     OW21469   2.387   3.345   1.962  0.0112  0.4388 -0.3444
 5368SOL    HW121470   2.479   3.354   1.989  0.7632  0.2225 -2.5480
 5368SOL    HW221471   2.393   3.323   1.869 -2.3071  0.9500 -0.6602
 5368SOL     MW21472   2.400   3.343   1.953 -0.1893  0.4765 -0.6669
 5369SOL     OW21473   1.699   2.220   3.544  0.2793  0.3801 -0.2246
 5369SOL    HW121474   1.769   2.251   3.487 -0.3602 -0.2532 -1.3969
 5369SOL    HW221475   1.720   2.256   3.630  2.1579  0.0255 -0.4974
 5369SOL     MW21476   1.711   2.228   3.548  0.4379  0.2536 -0.4096
 5370SOL     OW21477   0.317   0.518   0.089 -0.4110 -0.1022 -0.4387
 5370SOL    HW121478   0.304   0.603   0.047  2.1287  0.0317 -1.0884
 5370SOL    HW221479   0.370   0.468   0.027  0.3739 -1.2026  1.0615
 5370SOL     MW21480   0.322   0.523   0.076  0.0146 -0.2260 -0.3298
 5371SOL     OW21481   2.138   0.415   0.359 -0.2563 -0.1379  0.0989
 5371SOL    HW121482   2.137   0.503   0.398  0.7196 -0.0460 -0.0783
 5371SOL    HW221483   2.131   0.431   0.265  0.9626 -0.1886 -0.0130
 5371SOL     MW21484   2.137   0.429   0.352  0.0246 -0.1326  0.0619
 5372SOL     OW21485   2.177   1.737   5.376  0.4864  0.6736  0.2071
 5372SOL    HW121486   2.167   1.646   5.404 -0.3734  1.2543  1.9507
 5372SOL    HW221487   2.261   1.764   5.414  0.6756  0.6567 -0.1941
 5372SOL     MW21488   2.187   1.729   5.385  0.4005  0.7457  0.3789
 5373SOL     OW21489   0.606   0.668   4.414  0.3035  0.7434 -0.4369
 5373SOL    HW121490   0.683   0.720   4.391  1.0727 -0.0630  0.2380
 5373SOL    HW221491   0.574   0.707   4.496  1.0454 -0.0049  0.2171
 5373SOL     MW21492   0.611   0.680   4.422  0.4969  0.5443 -0.2668
 5374SOL     OW21493   3.158   5.381   3.430  0.6457 -0.0756  0.2241
 5374SOL    HW121494   3.100   5.457   3.422 -0.8829 -1.0763  1.3464
 5374SOL    HW221495   3.246   5.417   3.420 -0.0579  1.7730  0.3165
 5374SOL     MW21496   3.162   5.395   3.428  0.3599  0.0329  0.3796
 5375SOL     OW21497   4.304   0.303   0.497  0.2289 -0.2639 -0.4421
 5375SOL    HW121498   4.328   0.215   0.470 -0.5304 -0.2238 -1.3142
 5375SOL    HW221499   4.223   0.292   0.547 -1.1814  0.1038 -2.5111
 5375SOL     MW21500   4.297   0.291   0.500 -0.0488 -0.2117 -0.8186
 5376SOL     OW21501   3.498   1.228   5.246  0.4086  0.0305  0.1382
 5376SOL    HW121502   3.587   1.239   5.281 -0.4952 -0.2202  2.7371
 5376SOL    HW221503   3.460   1.159   5.301 -2.0721  1.6030  0.5225
 5376SOL     MW21504   3.505   1.220   5.258 -0.0246  0.1997  0.5201
 5377SOL     OW21505   1.013   5.462   1.592 -0.0531  0.3208 -0.2384
 5377SOL    HW121506   1.064   5.486   1.670  1.2842  0.4419 -1.1200
 5377SOL    HW221507   1.024   5.367   1.584 -0.4072  0.2703 -0.1290
 5377SOL     MW21508   1.021   5.453   1.601  0.0727  0.3298 -0.3372
 5378SOL     OW21509   1.758   5.011   2.824 -1.0222  0.0122  0.0931
 5378SOL    HW121510   1.791   5.101   2.830 -0.4650 -0.1731 -0.1374
 5378SOL    HW221511   1.799   4.975   2.746 -0.1026 -0.9019  0.9555
 5378SOL     MW21512   1.768   5.018   2.815 -0.8331 -0.1285  0.1740
 5379SOL     OW21513   2.685   2.870   1.827  0.4067 -0.4698 -0.2241
 5379SOL    HW121514   2.702   2.962   1.849 -1.0204 -0.1616 -0.3404
 5379SOL    HW221515   2.616   2.843   1.887 -0.2601 -1.0042 -1.2105
 5379SOL     MW21516   2.678   2.878   1.837  0.1387 -0.4988 -0.3652
 5380SOL     OW21517   1.295   1.176   3.986  0.5675  0.4732 -0.1204
 5380SOL    HW121518   1.295   1.267   3.956  1.2651  0.6520  0.3819
 5380SOL    HW221519   1.202   1.154   3.998  0.3142  0.5953 -1.7399
 5380SOL     MW21520   1.283   1.185   3.984  0.6244  0.5117 -0.2634
 5381SOL     OW21521   1.099   1.279   3.693 -0.7012  0.1718 -0.3770
 5381SOL    HW121522   1.149   1.290   3.774  0.5357 -0.5957 -1.0099
 5381SOL    HW221523   1.131   1.197   3.656 -2.7483 -0.5568 -0.6240
 5381SOL     MW21524   1.110   1.270   3.699 -0.8049 -0.0197 -0.4897
 5382SOL     OW21525   3.324   0.758   2.070  0.1844 -0.2199  0.5318
 5382SOL    HW121526   3.244   0.810   2.075  0.6648  0.5900  0.0045
 5382SOL    HW221527   3.299   0.680   2.020  0.2140  1.0417 -1.5665
 5382SOL     MW21528   3.311   0.755   2.064  0.2497  0.0453  0.1957
 5383SOL     OW21529   5.375   5.343   4.073  0.0783 -0.5971  0.1138
 5383SOL    HW121530   5.327   5.364   3.993  1.5177  2.4704 -0.0979
 5383SOL    HW221531   5.336   5.397   4.141  0.6524 -1.0847  0.8628
 5383SOL     MW21532   5.364   5.352   4.071  0.3361 -0.2669  0.1826
 5384SOL     OW21533   2.064   1.202   4.853  0.4549  0.0530  0.0272
 5384SOL    HW121534   2.110   1.285   4.871  0.8122 -0.5868  2.4645
 5384SOL    HW221535   1.983   1.229   4.810  0.4993  1.7117  0.8817
 5384SOL     MW21536   2.059   1.216   4.850  0.5063  0.1834  0.4486
 5385SOL     OW21537   2.582   3.350   0.366 -0.3972 -0.1889  0.2269
 5385SOL    HW121538   2.545   3.302   0.292 -0.8138  0.5448 -0.0488
 5385SOL    HW221539   2.506   3.379   0.416 -0.2852  1.8103 -0.6440
 5385SOL     MW21540   2.567   3.348   0.363 -0.4362  0.1610  0.0801
 5386SOL     OW21541   0.447   0.122   3.620  0.3223 -0.3174 -0.5453
 5386SOL    HW121542   0.512   0.120   3.549  0.8526  1.4439 -0.1433
 5386SOL    HW221543   0.385   0.190   3.594  0.2511  0.0133  0.4524
 5386SOL     MW21544   0.447   0.130   3.607  0.3810 -0.0496 -0.3661
 5387SOL     OW21545   4.370   3.475   3.874  0.5358  0.4931  0.8560
 5387SOL    HW121546   4.384   3.428   3.792 -1.3802  0.1863  0.6480
 5387SOL    HW221547   4.450   3.460   3.924  1.3857 -0.0511 -0.5939
 5387SOL     MW21548   4.382   3.467   3.870  0.3993  0.3841  0.6438
 5388SOL     OW21549   4.951   4.795   4.094 -0.0902  0.0228  0.2308
 5388SOL    HW121550   4.876   4.795   4.153 -0.2537  2.3991  0.1228
 5388SOL    HW221551   5.012   4.858   4.132  0.2174  0.9000 -1.5835
 5388SOL     MW21552   4.949   4.803   4.106 -0.0718  0.4393 -0.0153
 5389SOL     OW21553   1.147   3.508   1.168  0.1769 -0.4737 -0.0652
 5389SOL    HW121554   1.185   3.595   1.167 -0.9676  0.1169  1.8880
 5389SOL    HW221555   1.078   3.511   1.102 -0.9637  0.6997  1.1075
 5389SOL     MW21556   1.143   3.519   1.159 -0.1156 -0.2479  0.3349
 5390SOL     OW21557   3.396   1.989   4.402  0.6137  0.0799  0.8087
 5390SOL    HW121558   3.368   2.043   4.328 -2.5332  0.1402  1.9074
 5390SOL    HW221559   3.362   1.901   4.381 -0.1490  0.0585  2.0294
 5390SOL     MW21560   3.388   1.985   4.390  0.1132  0.0849  1.1056
 5391SOL     OW21561   4.815   0.686   4.064 -0.4413 -0.1917 -0.5464
 5391SOL    HW121562   4.781   0.756   4.008 -3.1999 -0.9282  0.0684
 5391SOL    HW221563   4.876   0.730   4.123  1.1448  0.9087 -2.8499
 5391SOL     MW21564   4.819   0.701   4.064 -0.5914 -0.1451 -0.7626
 5392SOL     OW21565   4.282   4.477   5.343  0.1995 -0.0443 -0.1360
 5392SOL    HW121566   4.235   4.411   5.291  0.9101  1.0718 -2.3178
 5392SOL    HW221567   4.214   4.525   5.389 -0.5240 -0.6828 -0.5239
 5392SOL     MW21568   4.267   4.474   5.342  0.1979  0.0169 -0.4650
 5393SOL     OW21569   0.748   5.254   3.193 -0.0336  0.2315  0.2792
 5393SOL    HW121570   0.753   5.211   3.108 -0.6128  1.0399 -0.1777
 5393SOL    HW221571   0.656   5.278   3.203 -0.1351 -0.5490  1.4989
 5393SOL     MW21572   0.737   5.252   3.184 -0.1207  0.2351  0.3768
 5394SOL     OW21573   0.130   1.807   0.366  0.3768  0.1282  0.2013
 5394SOL    HW121574   0.152   1.786   0.275  0.7974  0.3890  0.2420
 5394SOL    HW221575   0.212   1.796   0.414  0.5132  1.4383  0.2936
 5394SOL     MW21576   0.143   1.803   0.360  0.4481  0.3293  0.2184
 5395SOL     OW21577   4.815   2.666   4.557 -0.1011 -0.0410  0.1792
 5395SOL    HW121578   4.788   2.688   4.646 -2.2260  1.4130 -0.7393
 5395SOL    HW221579   4.829   2.750   4.514  1.2192 -0.7248 -0.7895
 5395SOL     MW21580   4.813   2.679   4.563 -0.2041  0.0576 -0.0624
 5396SOL     OW21581   5.184   5.424   1.110 -0.3600  0.6297 -0.1888
 5396SOL    HW121582   5.148   5.370   1.040  0.5853  0.7873 -0.8247
 5396SOL    HW221583   5.175   5.370   1.189 -0.1939 -0.1215 -0.6699
 5396SOL     MW21584   5.178   5.410   1.112 -0.2177  0.5537 -0.3318
 5397SOL     OW21585   3.644   3.750   2.813  0.2789  0.4025  0.1805
 5397SOL    HW121586   3.735   3.727   2.796  0.2837  0.4276  0.1726
 5397SOL    HW221587   3.610   3.777   2.728 -0.3355 -1.6506 -0.2644
 5397SOL     MW21588   3.651   3.751   2.800  0.2009  0.1429  0.1225
 5398SOL     OW21589   1.490   1.361   4.428 -0.2222  0.1207  0.3598
 5398SOL    HW121590   1.557   1.428   4.413  0.7950 -0.3695  2.3902
 5398SOL    HW221591   1.499   1.301   4.354  0.8212  0.6703  0.0158
 5398SOL     MW21592   1.500   1.362   4.417  0.0416  0.1283  0.5757
 5399SOL     OW21593   2.471   1.656   3.054  0.0337 -0.7139 -0.0866
 5399SOL    HW121594   2.466   1.561   3.067 -0.3947 -0.3822  2.7393
 5399SOL    HW221595   2.516   1.688   3.132  1.6819  1.3054 -1.7404
 5399SOL     MW21596   2.476   1.648   3.065  0.1899 -0.4129  0.0634
 5400SOL     OW21597   0.576   3.744   4.709  0.0509  0.7775 -0.2042
 5400SOL    HW121598   0.516   3.797   4.762 -1.4863  0.8587 -1.9401
 5400SOL    HW221599   0.603   3.802   4.638 -1.2772 -0.5357 -1.8683
 5400SOL     MW21600   0.571   3.758   4.707 -0.3159  0.6198 -0.6394
 5401SOL     OW21601   3.859   2.519   5.473 -0.0624  0.1245  0.1013
 5401SOL    HW121602   3.843   2.471   5.391 -0.1177 -1.5260  1.0348
 5401SOL    HW221603   3.954   2.520   5.481 -0.0632 -2.5998  1.5647
 5401SOL     MW21604   3.869   2.513   5.463 -0.0696 -0.4355  0.4081
 5402SOL     OW21605   4.508   0.908   3.780  0.0631 -0.2741  0.1392
 5402SOL    HW121606   4.542   0.861   3.705 -0.9909 -0.7049 -0.0855
 5402SOL    HW221607   4.584   0.950   3.819  0.5557  0.4015 -1.4784
 5402SOL     MW21608   4.522   0.908   3.776 -0.0088 -0.2428 -0.0967
 5403SOL     OW21609   2.730   4.126   3.252  0.0097 -0.3203  0.4713
 5403SOL    HW121610   2.651   4.160   3.211 -0.6004 -0.0227  1.8450
 5403SOL    HW221611   2.769   4.201   3.297 -0.5014 -1.0249  2.2014
 5403SOL     MW21612   2.725   4.140   3.253 -0.1338 -0.3724  0.8686
 5404SOL     OW21613   4.633   4.966   2.061  0.3164 -0.0784  0.7975
 5404SOL    HW121614   4.588   5.032   2.113  0.1801 -0.5399  1.2868
 5404SOL    HW221615   4.712   4.945   2.112 -0.2691 -1.1865  1.3014
 5404SOL     MW21616   4.637   4.972   2.075  0.2240 -0.2794  0.9247
 5405SOL     OW21617   4.298   2.540   2.345  0.1838 -0.0697  0.5279
 5405SOL    HW121618   4.239   2.466   2.330 -0.8014  0.8337 -0.2133
 5405SOL    HW221619   4.241   2.610   2.378  0.8637  0.7680 -0.0329
 5405SOL     MW21620   4.283   2.540   2.347  0.1447  0.1532  0.3612
 5406SOL     OW21621   4.895   4.175   0.813  0.2298  0.2549  0.1944
 5406SOL    HW121622   4.831   4.169   0.743  0.4260  1.7360 -0.1500
 5406SOL    HW221623   4.867   4.251   0.864  0.2113 -0.6659  1.6181
 5406SOL     MW21624   4.883   4.184   0.811  0.2526  0.3266  0.3326
 5407SOL     OW21625   0.048   5.022   2.029 -0.3161  0.0124 -0.0263
 5407SOL    HW121626   0.020   5.069   1.951 -0.9985 -0.1447  0.1170
 5407SOL    HW221627   0.098   5.086   2.079 -1.7767  0.8123  0.4754
 5407SOL     MW21628   0.051   5.036   2.026 -0.5904  0.0947  0.0563
 5408SOL     OW21629   1.395   1.974   4.794  0.1209 -0.0224  0.2918
 5408SOL    HW121630   1.366   2.051   4.744 -1.0362 -1.5402 -1.4862
 5408SOL    HW221631   1.322   1.956   4.854 -0.6819 -1.0989 -0.9596
 5408SOL     MW21632   1.382   1.982   4.795 -0.1300 -0.3545 -0.0960
 5409SOL     OW21633   5.336   5.021   4.987  0.0482 -0.0288 -0.7452
 5409SOL    HW121634   5.326   4.982   5.074 -1.2543 -0.5760 -1.1252
 5409SOL    HW221635   5.393   4.960   4.940  0.8838  0.3487 -0.2379
 5409SOL     MW21636   5.342   5.008   4.992 -0.0116 -0.0505 -0.7289
 5410SOL     OW21637   0.371   1.471   3.655 -0.0207 -0.1347 -0.5885
 5410SOL    HW121638   0.341   1.464   3.745 -2.1337  0.0471 -1.2141
 5410SOL    HW221639   0.465   1.482   3.661  0.1891 -2.3366  1.4928
 5410SOL     MW21640   0.379   1.472   3.667 -0.2643 -0.3933 -0.4021
 5411SOL     OW21641   1.559   0.539   5.373  0.4623  0.4228  0.0912
 5411SOL    HW121642   1.604   0.460   5.344 -2.3206 -1.6714  1.1312
 5411SOL    HW221643   1.476   0.539   5.327 -0.4642  1.6408  1.6340
 5411SOL     MW21644   1.554   0.529   5.364 -0.0126  0.3107  0.4218
 5412SOL     OW21645   4.197   1.807   2.106 -0.2877  0.1567  0.1452
 5412SOL    HW121646   4.118   1.754   2.106  0.2337 -0.6807  1.0755
 5412SOL    HW221647   4.179   1.879   2.167 -0.4612  0.1618  0.0849
 5412SOL     MW21648   4.185   1.809   2.114 -0.2432  0.0501  0.2566
 5413SOL     OW21649   2.690   0.360   3.195 -0.0145 -0.3792 -0.1065
 5413SOL    HW121650   2.775   0.399   3.214 -0.9313  1.8290 -0.2858
 5413SOL    HW221651   2.691   0.344   3.101 -0.2854  0.9997 -0.3649
 5413SOL     MW21652   2.701   0.363   3.185 -0.1665  0.0800 -0.1625
 5414SOL     OW21653   4.713   3.557   3.784  0.0846 -0.4249  0.0941
 5414SOL    HW121654   4.749   3.643   3.807  1.5484 -0.6093 -1.2987
 5414SOL    HW221655   4.704   3.511   3.867 -0.0041  0.8238  0.7846
 5414SOL     MW21656   4.717   3.562   3.797  0.2607 -0.2886  0.0042
 5415SOL     OW21657   3.856   0.252   2.779 -0.2233 -0.4357  0.5610
 5415SOL    HW121658   3.874   0.342   2.807 -0.0677 -0.5557  0.8444
 5415SOL    HW221659   3.939   0.222   2.741  0.0006 -0.7748  1.3032
 5415SOL     MW21660   3.869   0.260   2.778 -0.1747 -0.4945  0.6923
 5416SOL     OW21661   0.346   4.447   2.104  0.5589  0.6573  0.4630
 5416SOL    HW121662   0.369   4.539   2.094 -0.2628  0.7336 -1.0905
 5416SOL    HW221663   0.316   4.439   2.194  0.2089  2.0130  0.4866
 5416SOL     MW21664   0.345   4.457   2.114  0.4089  0.8406  0.2672
 5417SOL     OW21665   3.356   0.493   3.891  0.5014  0.2114  0.1710
 5417SOL    HW121666   3.296   0.442   3.836  0.8920  0.4108 -0.4607
 5417SOL    HW221667   3.307   0.510   3.971 -1.2557  2.3807 -1.2191
 5417SOL     MW21668   3.342   0.489   3.894  0.3265  0.5146 -0.0878
 5418SOL     OW21669   3.859   1.859   4.083  0.6410  0.1978  0.7931
 5418SOL    HW121670   3.769   1.882   4.107  0.1123 -1.0850  0.1094
 5418SOL    HW221671   3.910   1.935   4.109 -0.7368  1.2513  0.5428
 5418SOL     MW21672   3.854   1.872   4.089  0.3969  0.1684  0.6735
 5419SOL     OW21673   3.512   0.481   2.088  0.0434 -0.0544  0.2124
 5419SOL    HW121674   3.549   0.398   2.116  1.0271 -0.0184 -0.9249
 5419SOL    HW221675   3.473   0.518   2.168  1.0712 -0.8267  1.1010
 5419SOL     MW21676   3.512   0.475   2.102  0.3009 -0.1487  0.1806
 5420SOL     OW21677   4.932   4.605   2.052 -0.2145 -1.0029 -0.2884
 5420SOL    HW121678   4.996   4.641   1.990 -0.3039  2.3702  1.3248
 5420SOL    HW221679   4.985   4.576   2.126 -0.3687 -0.9016 -0.1384
 5420SOL     MW21680   4.947   4.606   2.054 -0.2457 -0.5581 -0.0626
 5421SOL     OW21681   5.252   2.832   4.801  0.0882 -0.3427 -0.0782
 5421SOL    HW121682   5.278   2.885   4.876  1.3495 -1.6535  0.4512
 5421SOL    HW221683   5.211   2.894   4.741 -0.0932  0.9008  1.2720
 5421SOL     MW21684   5.250   2.847   4.803  0.2264 -0.3513  0.1624
 5422SOL     OW21685   2.679   0.400   0.377 -0.1643 -0.0822  0.1270
 5422SOL    HW121686   2.769   0.422   0.404 -0.4041 -0.0077  0.8719
 5422SOL    HW221687   2.662   0.314   0.415  0.2950 -1.0510 -1.6975
 5422SOL     MW21688   2.689   0.392   0.385 -0.1362 -0.1967 -0.0112
 5423SOL     OW21689   4.098   0.502   4.920  0.4991 -0.2907  0.2152
 5423SOL    HW121690   4.041   0.579   4.920 -1.0882 -1.3940  1.4431
 5423SOL    HW221691   4.078   0.456   4.839  0.4259 -0.1273  0.1417
 5423SOL     MW21692   4.088   0.506   4.910  0.2865 -0.4111  0.3630
 5424SOL     OW21693   1.139   3.229   1.579 -0.2667 -0.0769 -0.3151
 5424SOL    HW121694   1.191   3.190   1.510  0.4194 -0.5850  0.4670
 5424SOL    HW221695   1.155   3.323   1.573 -0.8103 -0.0379 -1.3102
 5424SOL     MW21696   1.147   3.236   1.570 -0.2485 -0.1370 -0.3424
 5425SOL     OW21697   2.067   1.473   0.581  0.2518  0.3740  0.0934
 5425SOL    HW121698   2.074   1.566   0.561  0.4023  0.8088  2.0043
 5425SOL    HW221699   2.082   1.467   0.675 -0.6048 -1.4912  0.1634
 5425SOL     MW21700   2.070   1.484   0.590  0.1614  0.1909  0.3470
 5426SOL     OW21701   0.582   3.309   3.755  0.2949  0.0113 -0.3703
 5426SOL    HW121702   0.636   3.367   3.701 -0.1265 -0.1512 -0.9767
 5426SOL    HW221703   0.523   3.367   3.803  1.0597  0.1981  0.3715
 5426SOL     MW21704   0.582   3.324   3.754  0.3388  0.0144 -0.3530
 5427SOL     OW21705   4.016   3.862   3.055 -0.3838 -0.2113  0.3367
 5427SOL    HW121706   3.967   3.812   3.121  1.9732 -1.4744  1.2865
 5427SOL    HW221707   4.025   3.949   3.092 -0.6068 -0.4088  0.8639
 5427SOL     MW21708   4.011   3.867   3.068 -0.1106 -0.3983  0.5258
 5428SOL     OW21709   1.208   0.347   2.483 -0.1715  0.1207 -0.2867
 5428SOL    HW121710   1.159   0.410   2.431 -0.1595 -0.5687 -1.1606
 5428SOL    HW221711   1.286   0.394   2.510 -0.2312  0.5311 -0.8034
 5428SOL     MW21712   1.211   0.361   2.480 -0.1776  0.0850 -0.4647
 5429SOL     OW21713   4.065   0.361   4.683 -0.0011 -0.1874  0.4738
 5429SOL    HW121714   4.055   0.385   4.591  0.1734 -1.2554  0.1610
 5429SOL    HW221715   4.142   0.305   4.685 -0.6439 -1.0921  1.0762
 5429SOL     MW21716   4.073   0.357   4.671 -0.0611 -0.4399  0.5108
 5430SOL     OW21717   2.742   1.233   4.118  0.3423 -1.0465 -0.6209
 5430SOL    HW121718   2.811   1.298   4.132 -0.2059 -0.6036  0.1073
 5430SOL    HW221719   2.666   1.268   4.165 -1.0852 -0.4067 -3.2357
 5430SOL     MW21720   2.741   1.245   4.126  0.0894 -0.9079 -0.8624
 5431SOL     OW21721   0.058   3.274   1.375  0.0026 -0.6382  0.4057
 5431SOL    HW121722   0.029   3.363   1.397  1.6768 -0.6006  2.8850
 5431SOL    HW221723   0.047   3.268   1.281 -1.6979  1.6114  0.3726
 5431SOL     MW21724   0.053   3.285   1.366 -0.0008 -0.3454  0.7188
 5432SOL     OW21725   4.044   2.494   2.615  0.0947  0.4811 -0.2127
 5432SOL    HW121726   4.091   2.567   2.655 -0.8264  0.4683  0.9511
 5432SOL    HW221727   3.966   2.534   2.577 -1.0554 -0.0194  1.5148
 5432SOL     MW21728   4.040   2.508   2.615 -0.1705  0.4154  0.1574
 5433SOL     OW21729   0.987   0.486   0.249  0.5147  0.2032 -0.0746
 5433SOL    HW121730   0.907   0.447   0.215  0.6112 -0.1010  0.0360
 5433SOL    HW221731   0.967   0.579   0.259 -0.1549 -0.0325  0.9237
 5433SOL     MW21732   0.975   0.493   0.246  0.4413  0.1340  0.0673
 5434SOL     OW21733   2.677   0.145   1.785 -0.3253  0.3021  0.1575
 5434SOL    HW121734   2.754   0.140   1.842  1.1925 -2.4964 -1.8738
 5434SOL    HW221735   2.701   0.209   1.718  0.6855 -1.1997 -0.9669
 5434SOL     MW21736   2.690   0.153   1.784 -0.0016 -0.2484 -0.2465
 5435SOL     OW21737   2.171   4.846   2.073  0.2025 -0.1628 -0.1089
 5435SOL    HW121738   2.231   4.775   2.093 -0.5398 -0.6690  0.3741
 5435SOL    HW221739   2.204   4.883   1.991  1.7801  0.2613  0.6797
 5435SOL     MW21740   2.183   4.842   2.065  0.3094 -0.1733  0.0539
 5436SOL     OW21741   4.359   1.942   3.523  0.1558 -0.0012  0.0448
 5436SOL    HW121742   4.437   1.997   3.518  0.9321 -1.1829 -2.4611
 5436SOL    HW221743   4.333   1.928   3.432 -2.6733 -0.1331  0.7920
 5436SOL     MW21744   4.366   1.947   3.511 -0.1070 -0.1693 -0.1804
 5437SOL     OW21745   0.454   4.418   4.587  0.2375  0.1255 -0.0555
 5437SOL    HW121746   0.439   4.501   4.543  0.2989 -0.2438 -0.7844
 5437SOL    HW221747   0.367   4.389   4.615  0.1843  0.2920 -0.0467
 5437SOL     MW21748   0.441   4.425   4.585  0.2386  0.0996 -0.1477
 5438SOL     OW21749   1.483   1.026   1.780  0.3208 -0.0783  0.5476
 5438SOL    HW121750   1.524   0.941   1.796 -1.3999 -0.9759  0.5317
 5438SOL    HW221751   1.400   1.021   1.828 -0.5452  0.9513 -0.7721
 5438SOL     MW21752   1.477   1.014   1.788 -0.0103 -0.0614  0.3766
 5439SOL     OW21753   2.372   1.284   1.612 -0.3411 -0.1564 -0.5491
 5439SOL    HW121754   2.354   1.351   1.679 -1.3800  0.3169 -1.2676
 5439SOL    HW221755   2.360   1.201   1.657 -0.0735  0.1387  0.0900
 5439SOL     MW21756   2.368   1.282   1.626 -0.4398 -0.0580 -0.5593
 5440SOL     OW21757   1.829   2.548   5.290  0.3029 -0.1449  0.0299
 5440SOL    HW121758   1.780   2.504   5.221 -0.0042 -0.8419  0.6749
 5440SOL    HW221759   1.857   2.631   5.251  1.2906 -1.0997 -1.3565
 5440SOL     MW21760   1.826   2.553   5.276  0.3900 -0.3564 -0.0650
 5441SOL     OW21761   1.192   4.816   2.260  0.5691  0.0909 -0.0793
 5441SOL    HW121762   1.120   4.821   2.197 -0.1150 -0.9972  0.5786
 5441SOL    HW221763   1.246   4.743   2.229  2.2786  1.8338 -1.4181
 5441SOL     MW21764   1.189   4.807   2.248  0.7003  0.1747 -0.1665
 5442SOL     OW21765   2.138   2.851   5.409  0.2056  0.2824  0.4372
 5442SOL    HW121766   2.193   2.910   5.357 -0.1263  0.5383  0.3711
 5442SOL    HW221767   2.086   2.909   5.465 -2.6031  0.3394 -1.9881
 5442SOL     MW21768   2.138   2.866   5.410 -0.1965  0.3224  0.1183
 5443SOL     OW21769   3.879   0.167   2.133  0.1996 -0.6300  0.4272
 5443SOL    HW121770   3.809   0.227   2.156 -0.2266 -1.4463  1.3494
 5443SOL    HW221771   3.957   0.202   2.177  0.2182 -0.1146 -0.0115
 5443SOL     MW21772   3.880   0.179   2.141  0.1474 -0.6685  0.4891
 5444SOL     OW21773   1.946   2.284   0.449  0.2435 -0.0106  0.4293
 5444SOL    HW121774   1.985   2.304   0.364  0.2258 -0.2566  0.3604
 5444SOL    HW221775   1.874   2.346   0.458 -0.4710 -0.7142 -0.2498
 5444SOL     MW21776   1.942   2.294   0.439  0.1498 -0.1322  0.3335
 5445SOL     OW21777   2.932   3.666   4.887 -0.2447  0.2625  0.1189
 5445SOL    HW121778   2.942   3.689   4.979  1.7799  1.0274 -0.2323
 5445SOL    HW221779   2.841   3.687   4.866 -0.7910 -0.1051  1.9635
 5445SOL     MW21780   2.922   3.672   4.896 -0.0555  0.3134  0.3101
 5446SOL     OW21781   5.099   0.997   1.947  0.4292  0.7522 -1.0398
 5446SOL    HW121782   5.192   0.988   1.926  0.3091  0.9815 -1.7131
 5446SOL    HW221783   5.063   0.910   1.929  0.5260  0.6376 -0.6905
 5446SOL     MW21784   5.107   0.985   1.942  0.4262  0.7669 -1.0813
 5447SOL     OW21785   2.945   2.753   4.364  0.1425  0.4704  0.0085
 5447SOL    HW121786   3.019   2.813   4.374 -0.6551  1.3493  0.9706
 5447SOL    HW221787   2.975   2.670   4.402  1.2915  0.1989 -1.4195
 5447SOL     MW21788   2.958   2.750   4.370  0.1875  0.5482 -0.0511
 5448SOL     OW21789   3.459   5.155   1.550 -0.0181 -0.1068  0.0503
 5448SOL    HW121790   3.476   5.061   1.548  1.5021  0.1026  1.0762
 5448SOL    HW221791   3.422   5.171   1.637 -1.5477  0.0768 -0.6095
 5448SOL     MW21792   3.457   5.145   1.561 -0.0193 -0.0565  0.0972
 5449SOL     OW21793   3.462   3.303   1.627 -0.0115 -0.1299 -0.4995
 5449SOL    HW121794   3.536   3.252   1.592 -1.0520 -1.2343 -1.1563
 5449SOL    HW221795   3.406   3.237   1.668 -0.7341  0.6811 -0.1702
 5449SOL     MW21796   3.465   3.288   1.628 -0.2372 -0.1675 -0.5415
 5450SOL     OW21797   2.738   4.876   4.016 -0.2303  0.1138  0.2720
 5450SOL    HW121798   2.674   4.948   4.019 -1.0092 -0.5911  1.1209
 5450SOL    HW221799   2.695   4.808   3.964 -0.3217 -0.4957  1.1292
 5450SOL     MW21800   2.724   4.877   4.009 -0.3417 -0.0545  0.4904
 5451SOL     OW21801   0.643   1.600   1.227  0.2410  0.1645 -0.1926
 5451SOL    HW121802   0.675   1.510   1.226  1.4250  0.5581  0.3321
 5451SOL    HW221803   0.555   1.594   1.262 -0.5094 -1.0113 -2.1090
 5451SOL     MW21804   0.636   1.588   1.231  0.2965  0.0644 -0.3707
 5452SOL     OW21805   3.530   4.059   4.821 -0.7974  0.0264  0.1369
 5452SOL    HW121806   3.538   4.141   4.771 -0.7000  1.2468  2.0716
 5452SOL    HW221807   3.605   4.061   4.880 -1.4197 -0.9331  0.9689
 5452SOL     MW21808   3.541   4.070   4.822 -0.8646  0.0598  0.4911
 5453SOL     OW21809   4.047   1.062   3.250 -0.2184  0.3641 -0.8536
 5453SOL    HW121810   4.006   0.978   3.234 -0.4742  0.1704  0.6860
 5453SOL    HW221811   3.979   1.126   3.231  0.1847  0.3066 -2.7153
 5453SOL     MW21812   4.033   1.060   3.245 -0.1996  0.3319 -0.8948
 5454SOL     OW21813   3.767   4.980   1.737 -0.5908 -0.7163  0.0450
 5454SOL    HW121814   3.817   4.905   1.703 -0.4540 -0.3826 -0.5049
 5454SOL    HW221815   3.834   5.037   1.775 -0.7760 -1.2464  1.2161
 5454SOL     MW21816   3.782   4.977   1.738 -0.5970 -0.7414  0.1245
 5455SOL     OW21817   5.117   0.365   1.523  0.0975  0.0740 -0.1167
 5455SOL    HW121818   5.177   0.297   1.553  2.2051  2.4485  1.4631
 5455SOL    HW221819   5.121   0.361   1.427 -1.9414 -3.6274 -0.2210
 5455SOL     MW21820   5.125   0.356   1.514  0.1063 -0.0958  0.0722
 5456SOL     OW21821   5.472   0.197   4.894  0.5611 -0.6944  0.2161
 5456SOL    HW121822   5.416   0.148   4.954  0.1371  1.4096  1.6346
 5456SOL    HW221823   5.421   0.202   4.813  0.1743 -1.6816  0.3840
 5456SOL     MW21824   5.458   0.192   4.891  0.4573 -0.5515  0.4192
 5457SOL     OW21825   2.383   2.233   0.750  0.7769 -0.2074 -0.0522
 5457SOL    HW121826   2.336   2.315   0.733  0.0605 -0.7417 -0.7310
 5457SOL    HW221827   2.331   2.167   0.704  1.8752 -0.9074 -0.2949
 5457SOL     MW21828   2.370   2.235   0.742  0.8258 -0.3654 -0.1702
 5458SOL     OW21829   1.055   3.383   2.426 -0.6655  0.0114 -0.4343
 5458SOL    HW121830   1.007   3.416   2.502  0.5190 -0.0794  0.3755
 5458SOL    HW221831   1.031   3.291   2.419 -2.0427  0.3938 -1.1903
 5458SOL     MW21832   1.045   3.376   2.435 -0.6902  0.0487 -0.4274
 5459SOL     OW21833   0.794   3.615   5.491  0.8302  0.0868 -0.0143
 5459SOL    HW121834   0.859   3.594   5.424 -1.2150 -1.7631 -1.5790
 5459SOL    HW221835   0.715   3.638   5.441 -0.5796 -0.7360  1.7377
 5459SOL     MW21836   0.792   3.615   5.476  0.3879 -0.2553  0.0097
 5460SOL     OW21837   3.209   2.685   2.195  0.1548  0.0803 -0.0910
 5460SOL    HW121838   3.276   2.737   2.238 -0.2425 -0.2448  0.9575
 5460SOL    HW221839   3.130   2.739   2.198  0.0621 -0.0481 -0.1795
 5460SOL     MW21840   3.208   2.698   2.201  0.0921  0.0223  0.0319
 5461SOL     OW21841   5.040   3.142   4.060 -0.1122  0.3834  0.5591
 5461SOL    HW121842   5.119   3.112   4.014  0.8766 -0.0396  2.4139
 5461SOL    HW221843   4.968   3.123   4.000  0.7617 -3.0952  0.4088
 5461SOL     MW21844   5.041   3.136   4.047  0.1262 -0.1160  0.7773
 5462SOL     OW21845   1.857   5.285   2.837  0.1552  0.6072 -0.6726
 5462SOL    HW121846   1.865   5.339   2.916  0.7042 -0.1234 -0.2233
 5462SOL    HW221847   1.780   5.320   2.793 -0.0192  1.1853  0.0607
 5462SOL     MW21848   1.848   5.297   2.842  0.2031  0.5876 -0.5212
 5463SOL     OW21849   2.593   2.789   2.608  0.5122 -0.1625 -0.4676
 5463SOL    HW121850   2.538   2.745   2.673  0.8530  1.5038  1.0163
 5463SOL    HW221851   2.675   2.740   2.609 -0.2316 -1.5180 -1.3482
 5463SOL     MW21852   2.596   2.777   2.616  0.4606 -0.1227 -0.3904
 5464SOL     OW21853   4.756   2.210   3.594 -0.5693 -0.4419  0.2875
 5464SOL    HW121854   4.850   2.218   3.578 -0.3900 -2.0808  0.3352
 5464SOL    HW221855   4.715   2.272   3.534  0.4662 -0.8219 -0.8311
 5464SOL     MW21856   4.763   2.219   3.584 -0.4138 -0.7003  0.1504
 5465SOL     OW21857   5.337   5.141   5.364 -0.5392  0.9479  0.0713
 5465SOL    HW121858   5.252   5.179   5.344 -1.0875 -0.4195 -0.3194
 5465SOL    HW221859   5.327   5.107   5.453 -1.9517 -3.0719 -1.4001
 5465SOL     MW21860   5.325   5.142   5.373 -0.7902  0.2583 -0.1671
 5466SOL     OW21861   5.085   4.622   4.970  0.0199  0.4380 -0.3815
 5466SOL    HW121862   5.079   4.541   5.021 -1.0758 -0.0408 -1.2004
 5466SOL    HW221863   5.159   4.669   5.007  0.9233 -1.1161 -0.1256
 5466SOL     MW21864   5.093   4.618   4.981 -0.0047  0.1777 -0.4536
 5467SOL     OW21865   2.349   0.772   0.275 -0.2035 -0.7186  0.4181
 5467SOL    HW121866   2.381   0.861   0.292  2.0752 -1.6953  1.6784
 5467SOL    HW221867   2.411   0.735   0.213 -1.6830 -1.1713 -0.8614
 5467SOL     MW21868   2.361   0.779   0.269 -0.1012 -0.9016  0.4156
 5468SOL     OW21869   0.267   0.317   3.509 -0.8714 -0.4238 -0.2606
 5468SOL    HW121870   0.217   0.360   3.440 -0.8982  1.0232  0.6012
 5468SOL    HW221871   0.228   0.349   3.590  0.8692  0.0765  0.4324
 5468SOL     MW21872   0.256   0.327   3.511 -0.6520 -0.1745 -0.0616
 5469SOL     OW21873   3.651   3.815   4.472 -0.2284  0.4151  0.3925
 5469SOL    HW121874   3.689   3.823   4.385  0.3978  1.7966  0.7611
 5469SOL    HW221875   3.709   3.753   4.518  0.4104  0.9467  0.3222
 5469SOL     MW21876   3.663   3.808   4.467 -0.0665  0.6600  0.4307
 5470SOL     OW21877   2.119   3.226   0.306  0.2327  0.2440  0.1230
 5470SOL    HW121878   2.163   3.307   0.279  0.6768  0.3110  1.0270
 5470SOL    HW221879   2.180   3.184   0.365  0.7123 -1.5955 -1.5782
 5470SOL     MW21880   2.132   3.231   0.310  0.3509  0.0171  0.0210
 5471SOL     OW21881   5.202   5.086   4.760  0.2440 -0.1678 -0.2562
 5471SOL    HW121882   5.123   5.034   4.750  0.7737 -0.6131 -3.0703
 5471SOL    HW221883   5.239   5.059   4.844 -0.4629 -2.9945 -0.7735
 5471SOL     MW21884   5.197   5.076   4.769  0.2213 -0.5866 -0.6827
 5472SOL     OW21885   3.310   1.749   4.300  0.0094  0.0653  0.1759
 5472SOL    HW121886   3.222   1.711   4.311  0.0045  0.5643  2.3350
 5472SOL    HW221887   3.345   1.706   4.222 -2.8417  1.2478 -1.9214
 5472SOL     MW21888   3.303   1.739   4.291 -0.3562  0.2806  0.1838
 5473SOL     OW21889   3.921   3.045   2.977  0.7547  0.5808  0.4512
 5473SOL    HW121890   3.856   3.052   3.046  0.5811  0.4079  0.3080
 5473SOL    HW221891   3.871   3.055   2.896  0.5455 -1.6429  0.2381
 5473SOL     MW21892   3.907   3.047   2.975  0.7057  0.2740  0.4056
 5474SOL     OW21893   3.706   1.896   0.232  0.3265 -0.0547 -0.1958
 5474SOL    HW121894   3.800   1.876   0.226  0.6943  1.0373  1.3542
 5474SOL    HW221895   3.696   1.940   0.317 -1.6745 -0.5643 -0.1106
 5474SOL     MW21896   3.717   1.899   0.242  0.1174  0.0198  0.0135
 5475SOL     OW21897   1.118   3.142   0.886 -0.0469 -0.1706  0.0452
 5475SOL    HW121898   1.170   3.072   0.847  1.5964  1.4262 -0.7736
 5475SOL    HW221899   1.172   3.174   0.958 -0.6975  0.3784  0.2972
 5475SOL     MW21900   1.132   3.137   0.890  0.0802  0.1041 -0.0273
 5476SOL     OW21901   4.208   1.436   5.412  0.1144 -0.1777 -0.4960
 5476SOL    HW121902   4.158   1.440   5.331 -0.9891 -0.0933  0.1667
 5476SOL    HW221903   4.151   1.390   5.474  0.7003  0.2553  0.3938
 5476SOL     MW21904   4.195   1.431   5.410  0.0482 -0.1114 -0.2973
 5477SOL     OW21905   4.300   2.423   4.882 -0.5169 -0.7184 -0.5196
 5477SOL    HW121906   4.357   2.373   4.824 -1.1552 -1.4514 -0.5324
 5477SOL    HW221907   4.215   2.378   4.877 -0.3869 -1.3082  1.6267
 5477SOL     MW21908   4.296   2.411   4.874 -0.5819 -0.8878 -0.2465
 5478SOL     OW21909   0.998   1.737   3.159  0.4089  0.5757 -0.6232
 5478SOL    HW121910   0.967   1.769   3.075 -2.4740  0.3482  0.2583
 5478SOL    HW221911   0.974   1.644   3.161 -0.5234  0.8042  0.8056
 5478SOL     MW21912   0.991   1.729   3.149 -0.0795  0.5758 -0.3274
 5479SOL     OW21913   1.385   0.923   4.692  0.3281 -0.2382 -0.3529
 5479SOL    HW121914   1.378   0.834   4.725  0.1962  0.1544  0.7001
 5479SOL    HW221915   1.460   0.921   4.633  0.3860 -1.0188 -0.2603
 5479SOL     MW21916   1.394   0.911   4.688  0.3186 -0.2879 -0.2062
 5480SOL     OW21917   3.176   4.374   4.921 -0.5828  0.1743 -0.7132
 5480SOL    HW121918   3.140   4.383   5.009  1.5153 -1.7349  0.4495
 5480SOL    HW221919   3.233   4.450   4.910  1.5512 -1.0651  0.9334
 5480SOL     MW21920   3.179   4.385   4.931 -0.0410 -0.2287 -0.3536
 5481SOL     OW21921   0.302   3.113   1.992  1.0968 -0.1797 -0.3866
 5481SOL    HW121922   0.339   3.181   1.936  0.2634  0.1056 -0.6096
 5481SOL    HW221923   0.305   3.150   2.080  1.1000 -0.0608 -0.4373
 5481SOL     MW21924   0.307   3.126   1.996  0.9905 -0.1280 -0.4216
 5482SOL     OW21925   3.003   2.830   2.285  0.1965 -0.0441 -0.0578
 5482SOL    HW121926   3.064   2.897   2.316  0.3548 -0.7107  1.1313
 5482SOL    HW221927   2.932   2.879   2.244  1.0470  0.7831 -0.5924
 5482SOL     MW21928   3.002   2.845   2.283  0.3256 -0.0235  0.0260
 5483SOL     OW21929   1.918   1.731   1.442 -0.7602  0.1490  0.1549
 5483SOL    HW121930   1.977   1.797   1.405 -0.4009 -0.3941 -0.2589
 5483SOL    HW221931   1.831   1.755   1.408 -0.8374  1.1253  1.0071
 5483SOL     MW21932   1.914   1.743   1.433 -0.7241  0.2045  0.2110
 5484SOL     OW21933   2.680   5.147   4.980  0.0990 -0.1861  0.3934
 5484SOL    HW121934   2.620   5.173   4.910 -0.0392 -2.1016 -0.2749
 5484SOL    HW221935   2.631   5.081   5.030 -0.8652  3.0086  4.1000
 5484SOL     MW21936   2.666   5.142   4.977 -0.0421 -0.0224  0.7824
 5485SOL     OW21937   2.456   3.888   3.618 -0.4868  0.3021 -0.0103
 5485SOL    HW121938   2.468   3.859   3.708 -0.4070  1.0102  0.2173
 5485SOL    HW221939   2.480   3.981   3.620 -0.7081  0.3775 -0.7096
 5485SOL     MW21940   2.460   3.896   3.630 -0.5049  0.4024 -0.0707
 5486SOL     OW21941   4.513   2.266   2.191 -0.0760  0.4763  0.1257
 5486SOL    HW121942   4.500   2.356   2.161  1.8449  0.4079 -1.0433
 5486SOL    HW221943   4.569   2.226   2.125 -1.1910 -1.7357  0.4169
 5486SOL     MW21944   4.518   2.273   2.179  0.0272  0.1844  0.0133
 5487SOL     OW21945   3.525   4.539   5.317  0.1156  0.4901  0.4435
 5487SOL    HW121946   3.473   4.478   5.369  1.0904 -0.3430  0.4668
 5487SOL    HW221947   3.553   4.606   5.379  0.8776 -0.2413  0.9063
 5487SOL     MW21948   3.522   4.540   5.331  0.3379  0.2898  0.5057
 5488SOL     OW21949   3.968   1.769   5.250  0.1673 -0.7073  0.5511
 5488SOL    HW121950   4.008   1.788   5.335  0.0007  1.0274  0.2738
 5488SOL    HW221951   3.880   1.738   5.271 -0.4339  1.1860  1.0141
 5488SOL     MW21952   3.962   1.767   5.264  0.0690 -0.2428  0.5749
 5489SOL     OW21953   5.411   4.311   3.731 -0.3448  0.6140  0.1006
 5489SOL    HW121954   5.464   4.334   3.808  0.7430  1.0492 -0.7443
 5489SOL    HW221955   5.469   4.255   3.679 -0.4961  1.5385 -1.1024
 5489SOL     MW21956   5.425   4.307   3.735 -0.2249  0.7881 -0.1616
 5490SOL     OW21957   2.306   4.700   1.358  0.2082 -0.4136 -0.0898
 5490SOL    HW121958   2.317   4.718   1.264  2.1794  0.0619  0.1928
 5490SOL    HW221959   2.329   4.608   1.367 -0.3389 -0.5538 -0.1241
 5490SOL     MW21960   2.311   4.691   1.347  0.3905 -0.3706 -0.0581
 5491SOL     OW21961   1.296   3.986   3.676  0.5172  0.1347 -0.4766
 5491SOL    HW121962   1.364   3.944   3.623  1.0669 -0.9518  1.0203
 5491SOL    HW221963   1.215   3.974   3.625  1.0071 -0.9512 -1.0379
 5491SOL     MW21964   1.294   3.979   3.662  0.6503 -0.1434 -0.3568
 5492SOL     OW21965   4.720   2.361   0.251 -0.4540  0.1922 -0.7688
 5492SOL    HW121966   4.802   2.359   0.200 -0.9895 -1.3229 -1.6322
 5492SOL    HW221967   4.679   2.277   0.234 -2.4071  1.0651 -0.6656
 5492SOL     MW21968   4.726   2.350   0.242 -0.7726  0.1100 -0.8661
 5493SOL     OW21969   1.740   4.915   0.437 -0.4576  0.3465 -0.0293
 5493SOL    HW121970   1.740   4.987   0.500  0.7000  1.5589 -1.3579
 5493SOL    HW221971   1.717   4.838   0.489  1.3057  1.1393  2.0632
 5493SOL     MW21972   1.737   4.914   0.452 -0.0837  0.6032  0.0685
 5494SOL     OW21973   1.912   4.780   1.914  0.4267 -0.0567 -0.0100
 5494SOL    HW121974   1.996   4.821   1.931  1.4889 -1.4147 -1.6445
 5494SOL    HW221975   1.925   4.732   1.832 -2.3103  0.6941 -0.9898
 5494SOL     MW21976   1.924   4.779   1.905  0.2123 -0.1344 -0.3447
 5495SOL     OW21977   4.469   2.241   3.277  0.1933 -0.7658  0.3532
 5495SOL    HW121978   4.374   2.251   3.273  0.2344 -0.0567  0.8959
 5495SOL    HW221979   4.483   2.159   3.325 -0.1724  0.4531  2.7232
 5495SOL     MW21980   4.459   2.232   3.283  0.1517 -0.5190  0.7260
 5496SOL     OW21981   3.396   1.910   3.660 -0.2361  0.0805  0.0302
 5496SOL    HW121982   3.391   1.863   3.577  0.8589  0.7115 -0.4090
 5496SOL    HW221983   3.324   1.973   3.657 -0.6846 -0.4264 -0.0858
 5496SOL     MW21984   3.386   1.912   3.649 -0.1533  0.0964 -0.0408
 5497SOL     OW21985   3.717   0.744   3.280 -0.7409  0.2228 -0.0376
 5497SOL    HW121986   3.750   0.655   3.269 -2.2584 -0.2504 -1.0554
 5497SOL    HW221987   3.694   0.749   3.373 -0.1509 -0.2571  0.1421
 5497SOL     MW21988   3.719   0.733   3.291 -0.8596  0.1008 -0.1449
 5498SOL     OW21989   4.364   3.335   3.635  0.3110  0.0147 -0.7603
 5498SOL    HW121990   4.413   3.366   3.559  0.5948 -2.4504 -1.6615
 5498SOL    HW221991   4.274   3.360   3.616  0.6188  1.0183 -1.0101
 5498SOL     MW21992   4.359   3.342   3.623  0.3867 -0.1724 -0.9076
 5499SOL     OW21993   4.172   4.197   0.233  0.3012 -0.4224 -0.0929
 5499SOL    HW121994   4.143   4.288   0.245  1.6767  0.0120  0.0908
 5499SOL    HW221995   4.103   4.145   0.275 -0.9016  0.4678 -0.8641
 5499SOL     MW21996   4.159   4.202   0.240  0.3233 -0.2528 -0.1681
 5500SOL     OW21997   1.236   4.722   3.773 -0.2914  0.1354 -0.6293
 5500SOL    HW121998   1.176   4.717   3.848  0.8445 -0.3385  0.2698
 5500SOL    HW221999   1.213   4.805   3.731 -0.7123  0.5975  0.4465
 5500SOL     MW22000   1.225   4.732   3.778 -0.1999  0.1339 -0.3765
   5.47478   5.47478   5.47478
