Protein
22000
    1SOL     OW    1   4.538   0.533   0.611 -0.4325 -0.0595  0.3898
    1SOL    HW1    2   4.549   0.493   0.697 -2.3451 -2.0756 -0.2428
    1SOL    HW2    3   4.509   0.622   0.630  1.7478  0.4425  1.7914
    1SOL     MW    4   4.536   0.540   0.624 -0.3982 -0.2533  0.4882
    2SOL     OW    5   1.215   0.328   1.011  0.3441 -0.7231 -0.0558
    2SOL    HW1    6   1.141   0.271   1.031 -0.3209  0.5024  1.0982
    2SOL    HW2    7   1.228   0.318   0.917 -0.3911 -1.9981 -0.0528
    2SOL     MW    8   1.207   0.319   1.002  0.1649 -0.7294  0.0923
    3SOL     OW    9   1.060   5.424   2.579  0.3219  0.3088  0.2979
    3SOL    HW1   10   1.023   5.401   2.494 -1.6379 -0.9115  1.4010
    3SOL    HW2   11   1.054   5.520   2.582  0.8772  0.4120 -1.1067
    3SOL     MW   12   1.054   5.434   2.569  0.1421  0.1658  0.2593
    4SOL     OW   13   4.722   3.798   4.104  0.4187  0.1479  0.3950
    4SOL    HW1   14   4.752   3.740   4.174  0.1216  0.0204  0.4142
    4SOL    HW2   15   4.803   3.827   4.062  0.6751  1.1722  1.5372
    4SOL     MW   16   4.736   3.794   4.108  0.4135  0.2627  0.5437
    5SOL     OW   17   3.994   1.420   2.413  0.2487  0.6657  0.8225
    5SOL    HW1   18   4.000   1.514   2.433  2.3531  1.8212 -3.8450
    5SOL    HW2   19   4.082   1.386   2.433  0.9529  0.8692 -1.5577
    5SOL     MW   20   4.006   1.428   2.418  0.6082  0.8397 -0.0797
    6SOL     OW   21   5.396   2.491   4.161 -0.3054  0.0108 -0.1703
    6SOL    HW1   22   5.473   2.520   4.112 -0.8823 -0.1122 -1.1861
    6SOL    HW2   23   5.332   2.468   4.093 -1.0351 -0.4336  0.6496
    6SOL     MW   24   5.398   2.492   4.146 -0.4727 -0.0618 -0.1954
    7SOL     OW   25   2.860   2.172   4.186 -0.1919 -0.2926 -0.1375
    7SOL    HW1   26   2.769   2.166   4.215 -0.8875  0.9039 -1.8871
    7SOL    HW2   27   2.902   2.227   4.251 -1.4679  1.5331 -0.7602
    7SOL     MW   28   2.853   2.178   4.198 -0.4443  0.0943 -0.4412
    8SOL     OW   29   0.730   1.790   1.128  0.1561 -0.0579 -0.7685
    8SOL    HW1   30   0.753   1.836   1.048 -3.3207  1.7409 -0.9269
    8SOL    HW2   31   0.744   1.855   1.198 -0.8271 -0.1188 -0.4901
    8SOL     MW   32   0.735   1.804   1.127 -0.4149  0.1646 -0.7531
    9SOL     OW   33   5.219   3.309   1.051 -0.8393  0.2659  0.2159
    9SOL    HW1   34   5.209   3.239   1.116  1.4859  0.4601  0.8910
    9SOL    HW2   35   5.202   3.266   0.967  0.7173 -1.2302  0.5988
    9SOL     MW   36   5.216   3.295   1.049 -0.3424  0.0992  0.3514
   10SOL     OW   37   3.550   1.167   1.105  0.1172 -0.1354  0.4938
   10SOL    HW1   38   3.504   1.159   1.021 -1.5772 -1.0528  1.4717
   10SOL    HW2   39   3.601   1.248   1.096 -0.5605  0.1506 -1.1732
   10SOL     MW   40   3.551   1.177   1.093 -0.1865 -0.2162  0.4056
   11SOL     OW   41   2.445   1.783   3.599 -0.5679 -0.0020 -0.1302
   11SOL    HW1   42   2.509   1.812   3.534  1.0953 -1.5488  0.7306
   11SOL    HW2   43   2.473   1.826   3.681 -1.4625  0.3707 -0.0078
   11SOL     MW   44   2.457   1.792   3.602 -0.4695 -0.1523 -0.0043
   12SOL     OW   45   1.191   1.203   2.020  0.1093  0.3040 -0.3185
   12SOL    HW1   46   1.284   1.225   2.027 -0.0037  0.6831  0.0926
   12SOL    HW2   47   1.185   1.115   2.056  0.4021  0.0216 -0.9403
   12SOL     MW   48   1.202   1.195   2.025  0.1323  0.3164 -0.3455
   13SOL     OW   49   4.417   2.213   1.637 -0.1486  0.2776 -0.0800
   13SOL    HW1   50   4.357   2.241   1.706  0.7714 -0.5633  1.0794
   13SOL    HW2   51   4.500   2.255   1.658  0.0100  0.4196 -0.9600
   13SOL     MW   52   4.420   2.222   1.648 -0.0105  0.1881 -0.0442
   14SOL     OW   53   3.821   4.955   1.493 -0.1579  0.5046 -0.0192
   14SOL    HW1   54   3.905   4.974   1.535 -0.3918 -0.3015  0.8476
   14SOL    HW2   55   3.843   4.907   1.414  0.1831 -0.3018  0.5505
   14SOL     MW   56   3.834   4.951   1.488 -0.1442  0.2982  0.1647
   15SOL     OW   57   0.709   4.953   3.258  0.2613  0.3925  0.4079
   15SOL    HW1   58   0.770   4.916   3.322  2.4135  1.1615 -1.0542
   15SOL    HW2   59   0.715   5.048   3.271 -0.4692  0.4916  0.0728
   15SOL     MW   60   0.718   4.960   3.268  0.4433  0.5036  0.1778
   16SOL     OW   61   4.359   1.820   3.728 -0.1758 -0.2225  0.0096
   16SOL    HW1   62   4.297   1.893   3.732  0.0762 -0.0294  0.4554
   16SOL    HW2   63   4.432   1.853   3.675  0.1862  0.0469  0.6597
   16SOL     MW   64   4.361   1.833   3.722 -0.0972 -0.1633  0.1499
   17SOL     OW   65   0.868   4.936   1.536  0.2603 -0.0965 -0.0929
   17SOL    HW1   66   0.876   4.997   1.609  0.9820  1.7386 -1.6111
   17SOL    HW2   67   0.906   4.983   1.461  1.0201 -2.4970 -1.3156
   17SOL     MW   68   0.874   4.950   1.536  0.4499 -0.1688 -0.4438
   18SOL     OW   69   4.371   4.230   5.470  0.2274 -0.3445 -0.0788
   18SOL    HW1   70   4.288   4.220   5.423 -1.6797  4.1807  1.7932
   18SOL    HW2   71   4.429   4.273   5.407 -0.6552  1.2361  0.1591
   18SOL     MW   72   4.368   4.234   5.456 -0.1297  0.4371  0.1913
   19SOL     OW   73   5.324   4.850   2.213 -0.0400  0.0600  0.2220
   19SOL    HW1   74   5.379   4.784   2.255  0.6053 -0.4396 -1.3309
   19SOL    HW2   75   5.380   4.889   2.146 -1.4998 -0.3252 -1.2830
   19SOL     MW   76   5.338   4.846   2.210 -0.1443 -0.0533 -0.1694
   20SOL     OW   77   4.178   0.639   3.645  0.5083  0.2990 -0.1644
   20SOL    HW1   78   4.197   0.584   3.722 -1.4887 -0.2476  0.0004
   20SOL    HW2   79   4.202   0.727   3.672  1.4805 -0.1376  0.4562
   20SOL     MW   80   4.183   0.643   3.659  0.3771  0.1732 -0.0638
   21SOL     OW   81   4.991   0.845   1.325 -0.5217 -0.6780  0.0785
   21SOL    HW1   82   4.943   0.769   1.290 -0.5359 -0.7960  0.3564
   21SOL    HW2   83   4.972   0.844   1.419  0.0996 -0.7758  0.2058
   21SOL     MW   84   4.982   0.835   1.332 -0.4440 -0.7056  0.1304
   22SOL     OW   85   3.075   1.798   0.480  0.2068  0.1219 -0.9362
   22SOL    HW1   86   3.015   1.726   0.497  0.2966  0.1764 -0.3645
   22SOL    HW2   87   3.028   1.876   0.510  1.0425  0.0289  0.7144
   22SOL     MW   88   3.062   1.799   0.486  0.3253  0.1170 -0.6517
   23SOL     OW   89   3.192   0.056   0.000 -0.1646 -0.0286 -0.2949
   23SOL    HW1   90   3.100   0.072  -0.020 -0.3992 -0.9765 -0.0057
   23SOL    HW2   91   3.210   0.116   0.073 -0.8940 -0.6896  0.4481
   23SOL     MW   92   3.182   0.066   0.007 -0.2880 -0.2346 -0.1628
   24SOL     OW   93   2.544   2.462   4.944  0.0933 -0.2405  0.5618
   24SOL    HW1   94   2.612   2.447   5.009  0.8318  0.6744  0.0121
   24SOL    HW2   95   2.462   2.448   4.991  0.5067  2.4886  2.3009
   24SOL     MW   96   2.542   2.458   4.958  0.2407  0.2260  0.7141
   25SOL     OW   97   3.050   2.972   3.626  0.2656  0.1856  0.2346
   25SOL    HW1   98   3.138   2.944   3.601 -0.0258  1.2828 -2.2548
   25SOL    HW2   99   2.993   2.941   3.555 -0.3535  5.0345 -1.7653
   25SOL     MW  100   3.054   2.964   3.614  0.1491  0.9468 -0.3401
   26SOL     OW  101  -0.021   1.684   2.174 -0.0787  0.5082  0.2005
   26SOL    HW1  102   0.035   1.639   2.237  0.3532  1.2097  0.3292
   26SOL    HW2  103   0.014   1.661   2.089  0.9120  1.5848  0.3043
   26SOL     MW  104  -0.010   1.675   2.171  0.1034  0.7358  0.2302
   27SOL     OW  105   2.977   2.054   4.794  0.0388 -0.2898 -0.1700
   27SOL    HW1  106   2.907   1.999   4.828  0.5557 -2.4165 -2.2576
   27SOL    HW2  107   3.034   2.069   4.870  1.0061 -4.5599  0.1971
   27SOL     MW  108   2.976   2.049   4.808  0.2288 -1.1086 -0.3903
   28SOL     OW  109   4.929   1.124   0.519  0.4631 -0.0611  0.5034
   28SOL    HW1  110   4.986   1.096   0.591  0.1237 -0.5899  0.5769
   28SOL    HW2  111   4.854   1.065   0.524 -0.6714  1.3788  1.1357
   28SOL     MW  112   4.927   1.113   0.528  0.2744  0.0555  0.5938
   29SOL     OW  113   5.427   2.072   2.544  0.2737  0.1871  0.3303
   29SOL    HW1  114   5.381   2.030   2.471  1.0796  0.6827 -0.4865
   29SOL    HW2  115   5.396   2.163   2.542 -0.1438  0.0617  0.9837
   29SOL     MW  116   5.417   2.078   2.534  0.3234  0.2345  0.3094
   30SOL     OW  117   3.726   5.205   1.233 -0.9168 -0.6546 -0.1690
   30SOL    HW1  118   3.660   5.237   1.295  0.8997  0.5972  1.2187
   30SOL    HW2  119   3.808   5.209   1.281  0.3641 -1.1647 -2.1881
   30SOL     MW  120   3.728   5.209   1.247 -0.5203 -0.5597 -0.2498
   31SOL     OW  121   1.731   0.068   5.400 -0.2329  0.1346  0.0547
   31SOL    HW1  122   1.639   0.094   5.406 -0.2029  1.1635 -2.4408
   31SOL    HW2  123   1.780   0.147   5.423  0.0303 -0.2525  0.8466
   31SOL     MW  124   1.726   0.082   5.403 -0.1954  0.2168 -0.1633
   32SOL     OW  125   2.597   4.671   1.005 -0.4007 -0.6283 -0.5269
   32SOL    HW1  126   2.530   4.733   1.033  0.4263  0.1065 -0.1288
   32SOL    HW2  127   2.633   4.709   0.925  1.6348  0.6061  0.8896
   32SOL     MW  128   2.593   4.684   0.998 -0.0342 -0.3762 -0.2946
   33SOL     OW  129   5.348   0.510   5.348 -0.0828 -0.4453 -0.0338
   33SOL    HW1  130   5.348   0.574   5.278  0.5236  0.4562  0.7621
   33SOL    HW2  131   5.256   0.494   5.367 -0.2516  0.8736  0.3424
   33SOL     MW  132   5.337   0.516   5.342 -0.0267 -0.1611  0.1163
   34SOL     OW  133   3.086   2.093   2.459  0.0772  0.3473 -0.0626
   34SOL    HW1  134   3.016   2.140   2.504 -1.9141  0.4516 -3.0289
   34SOL    HW2  135   3.072   2.001   2.481 -0.1461  0.4939  0.4097
   34SOL     MW  136   3.075   2.087   2.468 -0.2063  0.3794 -0.3819
   35SOL     OW  137   4.470   3.967   5.226  0.5766 -0.0222 -0.0525
   35SOL    HW1  138   4.531   3.978   5.299  0.9182 -1.2615 -0.1307
   35SOL    HW2  139   4.387   4.001   5.259  0.4869 -1.4026  1.2707
   35SOL     MW  140   4.467   3.973   5.239  0.6089 -0.3576  0.1069
   36SOL     OW  141   3.704   1.974   2.849  0.1776 -0.3073 -0.5632
   36SOL    HW1  142   3.793   1.977   2.883  0.0172  1.0255 -0.2356
   36SOL    HW2  143   3.704   1.898   2.790  0.8417 -1.7963  1.2665
   36SOL     MW  144   3.715   1.964   2.845  0.2421 -0.3273 -0.2870
   37SOL     OW  145   0.389   1.387   3.984 -0.4104 -0.0290  0.4247
   37SOL    HW1  146   0.405   1.296   4.009  2.1732  0.3715  0.4373
   37SOL    HW2  147   0.445   1.438   4.042 -1.6323  1.5824  0.2472
   37SOL     MW  148   0.398   1.382   3.995 -0.2361  0.2285  0.4036
   38SOL     OW  149   2.537   1.563   5.375 -0.0104 -0.1775 -0.6143
   38SOL    HW1  150   2.455   1.528   5.338 -0.3240  1.3272 -1.4340
   38SOL    HW2  151   2.596   1.488   5.377 -1.7076 -1.5775  0.9866
   38SOL     MW  152   2.534   1.549   5.371 -0.2678 -0.1641 -0.5143
   39SOL     OW  153   5.185   4.328   4.859 -0.5186 -0.2675 -0.0678
   39SOL    HW1  154   5.201   4.413   4.899 -1.0830 -0.8091  1.3795
   39SOL    HW2  155   5.154   4.273   4.931  1.2922 -2.1431 -0.6348
   39SOL     MW  156   5.183   4.332   4.873 -0.3590 -0.5769  0.0449
   40SOL     OW  157   1.336   0.627   5.340  0.4112  0.1354  0.5071
   40SOL    HW1  158   1.398   0.700   5.334 -0.4802  1.0308  1.5342
   40SOL    HW2  159   1.318   0.619   5.434 -0.3633 -0.6770  0.3071
   40SOL     MW  160   1.341   0.635   5.352  0.1979  0.1460  0.6130
   41SOL     OW  161   1.164   1.840   1.154  0.3039 -0.5122  0.4919
   41SOL    HW1  162   1.193   1.916   1.105  1.4835 -1.2596  0.0006
   41SOL    HW2  163   1.136   1.777   1.088 -0.6898 -0.5256  0.8953
   41SOL     MW  164   1.164   1.842   1.139  0.3277 -0.6096  0.4806
   42SOL     OW  165   1.987   3.982   5.175 -0.6858 -0.4836 -0.1613
   42SOL    HW1  166   2.075   3.964   5.141 -0.3295  0.7698  0.0677
   42SOL    HW2  167   1.976   4.076   5.165 -0.7800 -0.1065  2.6704
   42SOL     MW  168   1.997   3.992   5.169 -0.6522 -0.2749  0.2305
   43SOL     OW  169   2.347   5.413   1.857  0.0013  0.3238 -0.2081
   43SOL    HW1  170   2.400   5.485   1.825  1.3604 -0.4744  0.1490
   43SOL    HW2  171   2.278   5.402   1.792 -0.3621  2.0515 -0.1611
   43SOL     MW  172   2.345   5.420   1.845  0.1287  0.4428 -0.1564
   44SOL     OW  173   4.342   1.608   2.539 -0.0783 -0.0381 -0.4773
   44SOL    HW1  174   4.374   1.639   2.454  2.3120  0.9948  0.6891
   44SOL    HW2  175   4.420   1.608   2.595 -1.7977  0.6432  2.0979
   44SOL     MW  176   4.356   1.612   2.535  0.0076  0.1813  0.0016
   45SOL     OW  177   4.562   1.747   1.666 -0.0084  0.2237  0.3888
   45SOL    HW1  178   4.537   1.828   1.711 -2.7465 -0.4795  0.2867
   45SOL    HW2  179   4.602   1.694   1.734 -1.8596  0.1408  1.4750
   45SOL     MW  180   4.564   1.751   1.680 -0.5959  0.1231  0.5148
   46SOL     OW  181   1.594   0.314   3.588  0.1722  0.0008 -0.4262
   46SOL    HW1  182   1.521   0.376   3.589  1.1635  1.2013 -0.4852
   46SOL    HW2  183   1.570   0.249   3.655  0.8753  2.6076  2.5735
   46SOL     MW  184   1.581   0.313   3.597  0.3891  0.4882 -0.0498
   47SOL     OW  185   0.094   4.383   2.395  0.2455  0.0193 -0.0522
   47SOL    HW1  186   0.104   4.466   2.348 -0.0252  0.4305  0.6022
   47SOL    HW2  187   0.171   4.379   2.452 -0.0542  0.1176  0.3607
   47SOL     MW  188   0.106   4.393   2.396  0.1725  0.0845  0.0844
   48SOL     OW  189   5.374   5.023   2.423 -0.1118  0.1869 -0.5178
   48SOL    HW1  190   5.353   4.954   2.360 -0.0787 -0.8177  0.5414
   48SOL    HW2  191   5.463   5.050   2.400  0.0912 -0.5294 -0.5940
   48SOL     MW  192   5.383   5.018   2.412 -0.0816 -0.0334 -0.3920
   49SOL     OW  193   2.044   2.640   4.026  0.2922  0.4397  0.6196
   49SOL    HW1  194   1.965   2.597   4.058 -0.6572  0.1489 -1.8390
   49SOL    HW2  195   2.020   2.732   4.018 -0.0223  0.2732 -0.6121
   49SOL     MW  196   2.031   2.647   4.029  0.1304  0.3812  0.1472
   50SOL     OW  197   5.290   3.801   4.460 -0.1549  0.0648  0.0371
   50SOL    HW1  198   5.229   3.845   4.519  1.3704 -0.8417  2.4442
   50SOL    HW2  199   5.369   3.855   4.462  0.5776 -0.9703  0.3965
   50SOL     MW  200   5.293   3.813   4.468  0.1341 -0.1838  0.3913
   51SOL     OW  201   2.974   4.926   4.939 -0.6465  0.1228  0.1092
   51SOL    HW1  202   2.960   4.890   4.852  0.9529  1.4253 -0.7417
   51SOL    HW2  203   3.022   4.859   4.986  1.3807  0.6412 -1.1115
   51SOL     MW  204   2.978   4.913   4.934 -0.1822  0.3559 -0.1560
   52SOL     OW  205   2.320   1.721   3.952  0.3384  0.1479 -0.1545
   52SOL    HW1  206   2.321   1.641   3.900 -1.2579 -0.4823  0.7067
   52SOL    HW2  207   2.372   1.784   3.902 -0.8324 -0.5243 -2.3146
   52SOL     MW  208   2.327   1.719   3.939 -0.0158 -0.0188 -0.3208
   53SOL     OW  209   4.036   2.075   2.275  0.0649 -0.2835 -0.4554
   53SOL    HW1  210   3.976   2.054   2.203 -0.0780  0.5396 -0.5888
   53SOL    HW2  211   3.981   2.071   2.353 -0.1427  0.3059 -0.5606
   53SOL     MW  212   4.021   2.072   2.276  0.0200 -0.1027 -0.4860
   54SOL     OW  213   0.517   0.707   1.168 -0.0003  0.0549  0.1060
   54SOL    HW1  214   0.533   0.768   1.240  1.0125 -1.4135  1.1802
   54SOL    HW2  215   0.471   0.759   1.103 -0.1979  1.6576  1.4540
   54SOL     MW  216   0.514   0.722   1.169  0.1041  0.0721  0.4161
   55SOL     OW  217   3.868   0.546   1.982 -0.3011  0.0446 -0.4518
   55SOL    HW1  218   3.883   0.633   2.021  1.7112  0.4498 -1.9847
   55SOL    HW2  219   3.774   0.532   1.992 -0.3368  1.3400  1.9599
   55SOL     MW  220   3.858   0.556   1.989 -0.0481  0.2623 -0.3393
   56SOL     OW  221   4.620   5.359   2.408  0.5365  0.1650  0.2576
   56SOL    HW1  222   4.665   5.323   2.331 -0.0575 -0.1599  0.0516
   56SOL    HW2  223   4.573   5.435   2.374 -0.8145 -0.7455 -0.0165
   56SOL     MW  224   4.619   5.364   2.394  0.2875  0.0068  0.1961
   57SOL     OW  225   1.643   0.460   2.628  0.1480 -0.0589  0.1455
   57SOL    HW1  226   1.670   0.536   2.577  0.1422  0.2579  0.6052
   57SOL    HW2  227   1.671   0.385   2.576  2.1922  0.2333  0.7057
   57SOL     MW  228   1.650   0.460   2.615  0.4089  0.0191  0.2760
   58SOL     OW  229   3.950   1.936   2.963  0.1938 -0.4632 -0.5087
   58SOL    HW1  230   3.967   2.029   2.974 -0.1009 -0.3471 -0.9879
   58SOL    HW2  231   4.015   1.907   2.898  0.7041 -0.7357  0.1072
   58SOL     MW  232   3.961   1.944   2.956  0.2214 -0.4832 -0.4912
   59SOL     OW  233   2.582   3.256   4.174 -0.2718  0.1635  0.6146
   59SOL    HW1  234   2.533   3.296   4.246  1.0520  1.4738  0.8365
   59SOL    HW2  235   2.603   3.329   4.116  0.1629 -0.6020 -0.2081
   59SOL     MW  236   2.578   3.271   4.176 -0.0467  0.2333  0.5377
   60SOL     OW  237   3.081   3.862   2.722  0.3947  0.0196  0.0253
   60SOL    HW1  238   3.045   3.950   2.709 -0.7146 -0.5101 -0.6150
   60SOL    HW2  239   3.172   3.869   2.693 -0.3714  0.3444 -2.5553
   60SOL     MW  240   3.088   3.874   2.717  0.1546 -0.0066 -0.3870
   61SOL     OW  241   2.984   2.217   1.018 -0.4222 -0.3797 -0.4543
   61SOL    HW1  242   2.905   2.202   1.070 -0.8514 -1.2452 -1.2985
   61SOL    HW2  243   3.025   2.294   1.057 -2.5384  1.1146 -0.9573
   61SOL     MW  244   2.979   2.225   1.029 -0.7480 -0.2992 -0.6268
   62SOL     OW  245   1.262   3.210   3.481 -0.3369  0.3095 -0.5159
   62SOL    HW1  246   1.335   3.262   3.450  0.9553 -1.4145 -0.5162
   62SOL    HW2  247   1.280   3.196   3.574  1.2735 -2.9322 -1.1594
   62SOL     MW  248   1.273   3.215   3.489  0.0346 -0.3262 -0.5983
   63SOL     OW  249   4.957   1.900   2.836 -0.6267  0.1316  0.0190
   63SOL    HW1  250   4.943   1.822   2.890  2.1392 -0.6762 -0.2842
   63SOL    HW2  251   4.870   1.922   2.802 -1.8505 -1.4432  1.9165
   63SOL     MW  252   4.944   1.893   2.839 -0.4293 -0.1734  0.2231
   64SOL     OW  253   3.752   4.648   0.515  0.0379 -0.0675  0.2486
   64SOL    HW1  254   3.808   4.571   0.518  0.2856 -0.0251 -1.6379
   64SOL    HW2  255   3.669   4.620   0.553  0.7983 -0.6012  1.5805
   64SOL     MW  256   3.749   4.635   0.520  0.1669 -0.1304  0.1776
   65SOL     OW  257   4.640   0.264   1.524  0.6827  0.3419 -0.1692
   65SOL    HW1  258   4.625   0.356   1.501  1.5089  0.3766 -0.6415
   65SOL    HW2  259   4.559   0.220   1.500  0.3256  0.9252 -0.0627
   65SOL     MW  260   4.628   0.270   1.518  0.7428  0.4210 -0.2160
   66SOL     OW  261   4.930   4.665   1.545 -0.0414 -0.3330  0.0957
   66SOL    HW1  262   4.942   4.607   1.469 -1.3192 -1.1448  0.4758
   66SOL    HW2  263   4.963   4.614   1.619 -1.5742 -0.7941  0.4972
   66SOL     MW  264   4.936   4.651   1.545 -0.4012 -0.4959  0.1958
   67SOL     OW  265   2.308   1.262   2.093  0.1753  0.2602 -0.2122
   67SOL    HW1  266   2.276   1.350   2.071 -2.1203 -1.0964 -3.0838
   67SOL    HW2  267   2.261   1.239   2.173 -1.4709  0.6379 -1.0151
   67SOL     MW  268   2.298   1.270   2.100 -0.3293  0.1349 -0.6826
   68SOL     OW  269   3.654   1.719   5.123  0.0706 -0.0622 -0.0792
   68SOL    HW1  270   3.600   1.673   5.188 -0.6690  0.5735 -0.2177
   68SOL    HW2  271   3.622   1.686   5.039 -0.3155  0.5234 -0.1717
   68SOL     MW  272   3.643   1.709   5.120 -0.0735  0.0941 -0.1087
   69SOL     OW  273   1.454   0.330   4.602 -0.3855  0.2055 -0.2547
   69SOL    HW1  274   1.359   0.325   4.610 -0.2891 -1.0021  0.3414
   69SOL    HW2  275   1.478   0.251   4.553  0.2244  1.0704 -1.4078
   69SOL     MW  276   1.445   0.320   4.597 -0.2951  0.1616 -0.3260
   70SOL     OW  277   0.559   0.762   2.304 -0.1422 -0.2760 -0.0296
   70SOL    HW1  278   0.598   0.849   2.315 -1.8294  0.7352 -1.5408
   70SOL    HW2  279   0.635   0.703   2.294  1.0691  0.7366  2.3657
   70SOL     MW  280   0.574   0.765   2.304 -0.2031 -0.0170  0.0836
   71SOL     OW  281   0.291   5.233   0.714 -0.0982  0.7032  0.0996
   71SOL    HW1  282   0.274   5.248   0.807 -0.2409 -2.2324  0.6581
   71SOL    HW2  283   0.341   5.151   0.712 -1.4441 -0.1579 -2.4698
   71SOL     MW  284   0.295   5.224   0.726 -0.2888  0.2171 -0.1578
   72SOL     OW  285   1.897   3.626   5.257  0.7890 -0.7137  0.0382
   72SOL    HW1  286   1.988   3.596   5.253  1.1830  0.5934 -1.7957
   72SOL    HW2  287   1.879   3.659   5.169 -0.8614  0.7977  0.9035
   72SOL     MW  288   1.906   3.626   5.245  0.6281 -0.3529 -0.0858
   73SOL     OW  289   5.268   2.823   4.929 -0.4050 -0.2498  0.1292
   73SOL    HW1  290   5.269   2.842   5.023  1.5243 -4.6096  1.2445
   73SOL    HW2  291   5.195   2.762   4.917  0.6658 -1.4343 -0.6850
   73SOL     MW  292   5.259   2.817   4.939 -0.0209 -0.9595  0.1677
   74SOL     OW  293   5.395   1.243   4.695 -0.4350 -0.5650 -0.0976
   74SOL    HW1  294   5.397   1.324   4.644  1.5782 -0.1801  0.5141
   74SOL    HW2  295   5.435   1.267   4.779 -1.0290 -1.8879  0.5884
   74SOL     MW  296   5.400   1.257   4.699 -0.2533 -0.6851  0.0685
   75SOL     OW  297   3.832   0.035   3.873  0.7141  0.3406  0.8699
   75SOL    HW1  298   3.872   0.034   3.959  1.6458  1.1826  0.4693
   75SOL    HW2  299   3.839  -0.055   3.842  2.9504  0.5535  0.5610
   75SOL     MW  300   3.838   0.024   3.880  1.1197  0.4756  0.7791
   76SOL     OW  301   3.246   3.277   0.641  0.3438  0.2302 -0.1772
   76SOL    HW1  302   3.257   3.287   0.735 -0.6705  0.9736 -0.1223
   76SOL    HW2  303   3.317   3.218   0.615  2.3439  2.1476  0.6124
   76SOL     MW  304   3.256   3.270   0.650  0.4700  0.5708 -0.0691
   77SOL     OW  305   5.027   2.416   2.417  0.2304 -0.1912 -0.4857
   77SOL    HW1  306   4.943   2.453   2.390 -0.2416 -0.9349 -0.0373
   77SOL    HW2  307   5.070   2.392   2.335  0.0388  0.2491 -0.7184
   77SOL     MW  308   5.022   2.418   2.403  0.1455 -0.2300 -0.4581
   78SOL     OW  309   0.225   5.434   2.078 -0.2750 -0.3633 -0.2862
   78SOL    HW1  310   0.158   5.486   2.122 -1.2969 -1.0109 -1.0141
   78SOL    HW2  311   0.293   5.497   2.054 -1.0936  0.4989 -0.4110
   78SOL     MW  312   0.225   5.449   2.080 -0.5106 -0.3358 -0.3954
   79SOL     OW  313   2.618   0.989   1.800 -0.7603  0.0548  0.2569
   79SOL    HW1  314   2.563   0.934   1.744 -0.9609  1.8061 -1.3771
   79SOL    HW2  315   2.695   1.008   1.747  0.3750 -0.4852  1.6600
   79SOL     MW  316   2.621   0.985   1.786 -0.6406  0.2098  0.2273
   80SOL     OW  317   5.244   2.549   2.490  0.1866  0.1315  0.4656
   80SOL    HW1  318   5.267   2.607   2.418 -0.8906  0.0870  0.0542
   80SOL    HW2  319   5.165   2.503   2.460  2.0062 -2.9830 -0.0099
   80SOL     MW  320   5.237   2.550   2.477  0.2816 -0.2729  0.3520
   81SOL     OW  321   0.337   4.036   3.230  0.4913  0.1179 -0.1471
   81SOL    HW1  322   0.342   3.941   3.243  1.2485 -0.0986 -1.7054
   81SOL    HW2  323   0.310   4.046   3.138  0.8273  1.4026 -0.1277
   81SOL     MW  324   0.334   4.025   3.220  0.6313  0.2546 -0.3441
   82SOL     OW  325   5.316   5.364   4.802 -0.0604  0.2421  0.4919
   82SOL    HW1  326   5.283   5.375   4.713  0.1518  1.1479  0.5208
   82SOL    HW2  327   5.402   5.323   4.790  0.7453  1.9472  0.1601
   82SOL     MW  328   5.323   5.360   4.789  0.0699  0.5763  0.4531
   83SOL     OW  329   5.129   3.833   1.259 -0.7014 -0.5645 -0.5421
   83SOL    HW1  330   5.093   3.805   1.175 -0.4352  1.2672 -1.3099
   83SOL    HW2  331   5.095   3.921   1.272  0.4326 -0.2585  0.5864
   83SOL     MW  332   5.120   3.840   1.250 -0.5221 -0.2909 -0.4959
   84SOL     OW  333   2.619   2.316   1.296  0.0269 -0.4679  0.3614
   84SOL    HW1  334   2.589   2.402   1.324 -0.7216 -0.9120  0.9841
   84SOL    HW2  335   2.557   2.255   1.336  1.4209 -1.3962  1.2425
   84SOL     MW  336   2.608   2.319   1.305  0.1095 -0.6436  0.5539
   85SOL     OW  337   5.190   1.304   5.023 -0.6972  0.3987 -0.0491
   85SOL    HW1  338   5.170   1.358   5.099 -0.6022 -0.2844  0.4675
   85SOL    HW2  339   5.147   1.349   4.950 -1.0070  0.9194  0.4481
   85SOL     MW  340   5.182   1.317   5.023 -0.7247  0.3779  0.0807
   86SOL     OW  341   0.550   1.757   4.980 -0.4433 -0.1939  0.2490
   86SOL    HW1  342   0.519   1.784   4.893 -0.8501  2.7447  1.2007
   86SOL    HW2  343   0.472   1.760   5.035  0.1983  0.0516  1.1642
   86SOL     MW  344   0.536   1.760   4.976 -0.4132  0.2137  0.4880
   87SOL     OW  345   3.947   2.489   1.697  0.4895  0.0863  0.1630
   87SOL    HW1  346   3.878   2.432   1.660  2.3893 -1.7272 -0.8058
   87SOL    HW2  347   3.946   2.469   1.791  0.0890 -0.3712  0.0692
   87SOL     MW  348   3.938   2.479   1.704  0.6814 -0.2044  0.0270
   88SOL     OW  349   0.530   1.059   3.788  0.2422  0.2894  0.7740
   88SOL    HW1  350   0.611   1.012   3.766 -0.1613  0.2610 -0.7107
   88SOL    HW2  351   0.536   1.072   3.883  0.4216 -2.6888  1.2801
   88SOL     MW  352   0.541   1.055   3.798  0.2135 -0.0955  0.6487
   89SOL     OW  353   5.015   3.803   0.452 -0.9964 -0.1978 -0.1766
   89SOL    HW1  354   5.039   3.751   0.528  0.8347  0.6313 -0.1266
   89SOL    HW2  355   5.094   3.804   0.398 -1.8524  0.3072 -1.4594
   89SOL     MW  356   5.028   3.797   0.455 -0.8715 -0.0270 -0.3344
   90SOL     OW  357   2.218   5.120   0.035  0.1852 -0.0756 -0.6322
   90SOL    HW1  358   2.275   5.186  -0.005 -0.9701 -0.8602 -3.8220
   90SOL    HW2  359   2.191   5.160   0.118  0.3478  3.0536 -1.9299
   90SOL     MW  360   2.222   5.134   0.041  0.0581  0.2245 -1.2067
   91SOL     OW  361   3.138   3.642   0.810  0.9005  0.2902  0.2209
   91SOL    HW1  362   3.228   3.615   0.796  0.7820 -0.1152  0.2170
   91SOL    HW2  363   3.097   3.567   0.853  0.5279  0.4087  0.0775
   91SOL     MW  364   3.144   3.629   0.813  0.8376  0.2535  0.2020
   92SOL     OW  365   0.678   5.328   3.942  0.2594 -0.5722 -0.5719
   92SOL    HW1  366   0.597   5.377   3.954  0.0178 -0.8982 -0.8655
   92SOL    HW2  367   0.686   5.317   3.847  1.1882  0.3584 -0.6318
   92SOL     MW  368   0.669   5.333   3.931  0.3474 -0.4948 -0.6172
   93SOL     OW  369   5.009   1.393   1.026 -0.1649  0.6321 -0.4455
   93SOL    HW1  370   5.074   1.338   1.069 -0.4833  0.9058  0.3930
   93SOL    HW2  371   5.053   1.477   1.013 -0.7432  1.2483  1.3143
   93SOL     MW  372   5.023   1.397   1.029 -0.2797  0.7460 -0.1129
   94SOL     OW  373   2.655   4.940   3.720  0.3990  0.0210  0.2715
   94SOL    HW1  374   2.605   4.932   3.801  0.7687 -1.1159  0.4054
   94SOL    HW2  375   2.592   4.920   3.651  0.0619  1.0748  0.2492
   94SOL     MW  376   2.641   4.937   3.722  0.4032  0.0103  0.2858
   95SOL     OW  377   1.561   2.221   1.848 -0.0636  0.4236  0.2625
   95SOL    HW1  378   1.614   2.267   1.783 -0.2411  0.4437  0.1297
   95SOL    HW2  379   1.575   2.270   1.929  2.9206 -1.6308  1.1196
   95SOL     MW  380   1.569   2.233   1.850  0.2957  0.1632  0.3552
   96SOL     OW  381   1.790   1.699   0.669 -0.1372  0.3913  0.2640
   96SOL    HW1  382   1.861   1.634   0.669 -0.5692 -0.1333 -1.2345
   96SOL    HW2  383   1.712   1.647   0.648 -0.8281  1.0904  1.0826
   96SOL     MW  384   1.789   1.684   0.666 -0.2810  0.4136  0.1769
   97SOL     OW  385   0.472   0.810   2.876 -0.6420 -0.0578 -0.5866
   97SOL    HW1  386   0.544   0.750   2.893 -1.9874 -2.0276 -1.4062
   97SOL    HW2  387   0.511   0.880   2.824  0.7607 -0.8919 -0.7133
   97SOL     MW  388   0.486   0.811   2.871 -0.6347 -0.4168 -0.7077
   98SOL     OW  389   3.059   0.521   0.430  0.3443 -0.4397  0.2125
   98SOL    HW1  390   2.991   0.474   0.479  0.6801 -0.6735  0.4579
   98SOL    HW2  391   3.013   0.595   0.390 -0.0402 -0.5542  0.4396
   98SOL     MW  392   3.044   0.524   0.431  0.3380 -0.4843  0.2730
   99SOL     OW  393   0.108   1.123   3.794  0.3586  0.4948  0.2183
   99SOL    HW1  394   0.149   1.040   3.818  0.2676  0.3813 -0.0116
   99SOL    HW2  395   0.106   1.174   3.875 -0.3138 -0.0345  0.5435
   99SOL     MW  396   0.113   1.119   3.807  0.2608  0.4125  0.2305
  100SOL     OW  397   4.061   2.006   1.858 -0.7098 -0.3245 -0.2030
  100SOL    HW1  398   3.991   2.012   1.923 -1.6165 -0.8234 -1.0980
  100SOL    HW2  399   4.030   2.058   1.784 -1.4980 -2.7963 -1.7451
  100SOL     MW  400   4.048   2.013   1.857 -0.9268 -0.7048 -0.5150
  101SOL     OW  401   4.658   3.377   2.940  0.3533 -0.0896 -0.2153
  101SOL    HW1  402   4.610   3.456   2.916  2.7129  1.1592 -1.1943
  101SOL    HW2  403   4.649   3.319   2.864  0.0158 -0.0626 -0.1957
  101SOL     MW  404   4.651   3.380   2.927  0.6122  0.0737 -0.3381
  102SOL     OW  405   0.653   4.539   2.013 -0.3647 -0.1047  0.1256
  102SOL    HW1  406   0.600   4.483   1.957 -1.1124 -0.2044  0.9071
  102SOL    HW2  407   0.741   4.535   1.975 -0.8773 -0.0474 -1.1089
  102SOL     MW  408   0.658   4.531   2.001 -0.5260 -0.1101  0.0676
  103SOL     OW  409   2.541   4.142   1.561  0.4357  0.2054 -0.1676
  103SOL    HW1  410   2.467   4.083   1.577  0.6736  0.3933  1.8827
  103SOL    HW2  411   2.519   4.187   1.480 -0.9092 -0.9206 -0.4687
  103SOL     MW  412   2.529   4.140   1.553  0.2940  0.0853  0.0563
  104SOL     OW  413   1.054   5.179   3.750 -0.5645 -0.8822 -0.2084
  104SOL    HW1  414   1.035   5.242   3.820  0.0855 -0.5068 -0.3554
  104SOL    HW2  415   1.131   5.131   3.781  0.1653 -0.2374 -0.9473
  104SOL     MW  416   1.062   5.181   3.763 -0.3879 -0.7516 -0.3218
  105SOL     OW  417   2.476   1.841   3.243  0.0173  0.2419  0.3775
  105SOL    HW1  418   2.414   1.904   3.204  1.3966  1.6948  0.4433
  105SOL    HW2  419   2.562   1.881   3.230  1.0886 -2.1853 -0.6039
  105SOL     MW  420   2.479   1.854   3.236  0.3310  0.1172  0.2603
  106SOL     OW  421   4.617   1.588   4.489  0.3471 -0.0420  0.2322
  106SOL    HW1  422   4.626   1.635   4.406  0.8746  0.4499  0.5526
  106SOL    HW2  423   4.630   1.496   4.466 -0.9664 -0.0813 -0.4516
  106SOL     MW  424   4.620   1.582   4.475  0.2465  0.0159  0.1857
  107SOL     OW  425   3.666   1.290   1.832  0.4593  0.0194  0.0243
  107SOL    HW1  426   3.708   1.210   1.863 -0.7663  0.2134  2.4601
  107SOL    HW2  427   3.574   1.280   1.856 -0.1582  1.2543 -1.6061
  107SOL     MW  428   3.659   1.279   1.839  0.2233  0.2023  0.1274
  108SOL     OW  429   1.791   5.013   4.820 -0.0265 -0.2575 -0.3409
  108SOL    HW1  430   1.865   5.012   4.759  0.1817  0.6398 -0.1186
  108SOL    HW2  431   1.777   5.106   4.839 -0.3802 -0.5014  0.6251
  108SOL     MW  432   1.799   5.025   4.815 -0.0451 -0.1738 -0.1887
  109SOL     OW  433   2.189   0.272   1.582 -0.3468 -0.0711 -0.0628
  109SOL    HW1  434   2.265   0.328   1.591 -1.5237  1.5656  0.2005
  109SOL    HW2  435   2.211   0.213   1.510  0.5726  1.4161 -1.0554
  109SOL     MW  436   2.201   0.272   1.574 -0.3798  0.3288 -0.1562
  110SOL     OW  437   2.413   5.282   5.438  0.0293 -0.5653  0.6578
  110SOL    HW1  438   2.408   5.304   5.346 -3.0573 -2.6303  0.1770
  110SOL    HW2  439   2.425   5.366   5.483  3.2271  0.3433 -1.5685
  110SOL     MW  440   2.414   5.295   5.432  0.0435 -0.7134  0.3113
  111SOL     OW  441   1.281   0.432   4.881 -0.2710  0.4585 -1.1631
  111SOL    HW1  442   1.310   0.518   4.909 -0.6089 -0.2494  1.6460
  111SOL    HW2  443   1.351   0.373   4.907 -1.7173 -0.5707  0.6219
  111SOL     MW  444   1.293   0.435   4.888 -0.4994  0.2362 -0.5750
  112SOL     OW  445   5.135   2.450   1.155 -0.0920  0.2734  0.4372
  112SOL    HW1  446   5.043   2.476   1.154 -0.0607  0.3574 -0.3810
  112SOL    HW2  447   5.154   2.424   1.065  0.4475 -0.5946  0.7853
  112SOL     MW  448   5.125   2.450   1.144 -0.0189  0.1730  0.3770
  113SOL     OW  449   2.274   3.211   3.438 -0.0265 -0.4512  0.2069
  113SOL    HW1  450   2.361   3.196   3.475 -0.1798  0.3139  0.9177
  113SOL    HW2  451   2.276   3.167   3.353  0.6490 -1.4860  0.7317
  113SOL     MW  452   2.285   3.203   3.432  0.0403 -0.4857  0.3651
  114SOL     OW  453   3.360   1.000   1.350  0.0444 -0.3413  0.1467
  114SOL    HW1  454   3.432   0.995   1.413 -1.1446  1.8662  1.8377
  114SOL    HW2  455   3.351   1.094   1.331 -0.6538 -0.8051 -2.1678
  114SOL     MW  456   3.368   1.012   1.356 -0.1972 -0.1181  0.0669
  115SOL     OW  457   1.773   4.708   2.099  0.0454  0.0143  0.1290
  115SOL    HW1  458   1.790   4.797   2.066  0.0711  0.6028  1.6734
  115SOL    HW2  459   1.859   4.673   2.120  0.2230 -1.1096 -2.1621
  115SOL     MW  460   1.786   4.715   2.097  0.0714 -0.0542  0.0334
  116SOL     OW  461   4.624   0.965   1.866 -0.1801  0.4544  0.3848
  116SOL    HW1  462   4.711   0.933   1.843 -1.1082 -0.5991 -2.0468
  116SOL    HW2  463   4.597   1.018   1.791 -1.9526  0.0580  0.6848
  116SOL     MW  464   4.631   0.968   1.854 -0.5258  0.2688  0.1120
  117SOL     OW  465   2.817   0.152   4.721 -0.4416  0.4090 -0.2322
  117SOL    HW1  466   2.798   0.080   4.782  1.3428 -0.7095 -0.9346
  117SOL    HW2  467   2.804   0.114   4.634  1.3924  0.6263 -0.6385
  117SOL     MW  468   2.813   0.138   4.718  0.0216  0.2936 -0.3741
  118SOL     OW  469   2.219   4.207   2.398 -0.0986 -0.2258  0.1188
  118SOL    HW1  470   2.240   4.135   2.339 -0.1423  0.3663 -0.6219
  118SOL    HW2  471   2.291   4.208   2.460  0.0811 -0.6809 -0.0762
  118SOL     MW  472   2.231   4.198   2.399 -0.0812 -0.2082 -0.0010
  119SOL     OW  473   3.891   2.327   1.352 -0.4657 -0.2085 -0.3124
  119SOL    HW1  474   3.812   2.279   1.324 -0.2918 -0.7551  0.1135
  119SOL    HW2  475   3.868   2.365   1.436 -0.6701  0.6446 -0.7436
  119SOL     MW  476   3.878   2.325   1.359 -0.4696 -0.1693 -0.3131
  120SOL     OW  477   4.086   4.247   4.011 -0.4281 -0.2891 -0.0557
  120SOL    HW1  478   4.031   4.173   4.037  0.5362  0.1070  3.6601
  120SOL    HW2  479   4.171   4.207   3.990 -0.0676 -0.3667  1.4214
  120SOL     MW  480   4.090   4.232   4.012 -0.2585 -0.2483  0.6090
  121SOL     OW  481   1.708   5.285   5.395 -0.0490  0.6340 -1.0192
  121SOL    HW1  482   1.649   5.261   5.467 -0.3358 -0.4846 -1.5984
  121SOL    HW2  483   1.718   5.380   5.403 -2.5245  1.0001 -1.3265
  121SOL     MW  484   1.702   5.294   5.405 -0.4026  0.5377 -1.1327
  122SOL     OW  485   3.318   3.003   3.262  0.0850  0.0857  0.4603
  122SOL    HW1  486   3.231   3.012   3.223  0.2493  0.9011  0.2603
  122SOL    HW2  487   3.301   2.979   3.353 -0.3550  0.3567  0.4514
  122SOL     MW  488   3.305   3.001   3.269  0.0497  0.2248  0.4336
  123SOL     OW  489   1.840   1.178   4.340  0.4447  0.1716  0.2756
  123SOL    HW1  490   1.848   1.084   4.355  0.3363  0.1900  0.4419
  123SOL    HW2  491   1.874   1.218   4.420  0.6097  0.2763  0.1549
  123SOL     MW  492   1.846   1.171   4.352  0.4520  0.1874  0.2814
  124SOL     OW  493   5.238   3.529   0.451  0.4229  0.5073  0.1059
  124SOL    HW1  494   5.327   3.513   0.482  0.6185 -1.4401 -1.3056
  124SOL    HW2  495   5.249   3.583   0.373  0.3982  0.1915 -0.1206
  124SOL     MW  496   5.251   3.534   0.445  0.4448  0.2176 -0.1038
  125SOL     OW  497   0.819   1.739   1.456 -0.4118 -0.0942  0.1923
  125SOL    HW1  498   0.786   1.674   1.518 -3.0473  0.7121 -0.2242
  125SOL    HW2  499   0.828   1.691   1.374 -0.4020 -0.3872  0.3642
  125SOL     MW  500   0.816   1.725   1.454 -0.7479 -0.0285  0.1610
  126SOL     OW  501   4.361   2.085   2.965  0.0010 -0.4836  0.1752
  126SOL    HW1  502   4.445   2.079   2.921 -0.5744  0.6259 -1.1707
  126SOL    HW2  503   4.297   2.061   2.898 -0.8457  0.3107  0.6654
  126SOL     MW  504   4.363   2.081   2.951 -0.1811 -0.2399  0.0656
  127SOL     OW  505  -0.031   5.133   0.019  0.0289 -0.0111  0.1189
  127SOL    HW1  506   0.003   5.218   0.047 -0.6990  0.3554 -0.0964
  127SOL    HW2  507   0.047   5.082  -0.001  0.4792  0.5597  0.3829
  127SOL     MW  508  -0.017   5.138   0.020 -0.0066  0.1089  0.1251
  128SOL     OW  509   5.396   1.843   3.361  0.3421 -0.1420  0.1069
  128SOL    HW1  510   5.309   1.875   3.337  0.7572  0.8011 -0.1811
  128SOL    HW2  511   5.455   1.885   3.298  1.0987 -0.1185  0.8203
  128SOL     MW  512   5.392   1.852   3.350  0.4921 -0.0183  0.1614
  129SOL     OW  513   3.280   0.082   4.041 -0.3841 -0.1451 -0.0259
  129SOL    HW1  514   3.250   0.004   4.086 -0.0145  0.2924  1.0169
  129SOL    HW2  515   3.220   0.151   4.070  0.6265  0.4053  0.8338
  129SOL     MW  516   3.268   0.081   4.051 -0.2074 -0.0186  0.2176
  130SOL     OW  517   4.205   0.476   0.076  0.0324 -0.1761  0.1758
  130SOL    HW1  518   4.199   0.391   0.120 -1.0836 -0.4162 -0.3992
  130SOL    HW2  519   4.253   0.532   0.137  0.3175 -1.0717  0.7863
  130SOL     MW  520   4.211   0.472   0.089 -0.0740 -0.3215  0.1804
  131SOL     OW  521   1.419   4.502   4.132  0.1958 -0.0003  0.1257
  131SOL    HW1  522   1.436   4.492   4.226  0.0435 -0.6662  0.0883
  131SOL    HW2  523   1.441   4.417   4.094  0.2139  0.2502 -0.4384
  131SOL     MW  524   1.424   4.490   4.139  0.1786 -0.0535  0.0487
  132SOL     OW  525   3.023   3.314   2.128 -0.1622  0.0068 -0.6410
  132SOL    HW1  526   3.047   3.239   2.182  0.1262  0.5316 -0.0313
  132SOL    HW2  527   3.102   3.367   2.125  0.3510 -0.7415 -2.8576
  132SOL     MW  528   3.036   3.311   2.135 -0.0596 -0.0218 -0.8467
  133SOL     OW  529   0.222   4.935   3.594  0.5930  0.0572  0.5116
  133SOL    HW1  530   0.159   4.987   3.545  2.1514  1.3854 -0.1786
  133SOL    HW2  531   0.246   4.863   3.535 -0.1628 -0.3959  0.7398
  133SOL     MW  532   0.217   4.932   3.581  0.6957  0.1692  0.4524
  134SOL     OW  533   1.883   2.043   0.554 -0.2045 -0.3689  0.1088
  134SOL    HW1  534   1.852   1.991   0.480  0.4077 -0.2489 -0.2432
  134SOL    HW2  535   1.963   2.086   0.521  1.7271 -2.5267  1.6676
  134SOL     MW  536   1.889   2.042   0.540  0.1211 -0.6298  0.2633
  135SOL     OW  537   5.307   2.914   2.727 -0.0023  0.0336 -0.2677
  135SOL    HW1  538   5.389   2.920   2.678 -0.2606  1.4747 -0.5545
  135SOL    HW2  539   5.249   2.977   2.685 -0.4981  0.7241  1.3636
  135SOL     MW  540   5.310   2.923   2.715 -0.0988  0.3065 -0.0956
  136SOL     OW  541   1.208   5.035   4.116  0.2480  0.1597  0.4853
  136SOL    HW1  542   1.298   5.021   4.144  0.1846  0.0858  0.6554
  136SOL    HW2  543   1.204   5.000   4.027  0.9436  2.1195 -0.3761
  136SOL     MW  544   1.219   5.029   4.108  0.3289  0.4011  0.3968
  137SOL     OW  545   4.972   5.467   2.381  0.7431 -0.3136  0.3126
  137SOL    HW1  546   5.052   5.519   2.383  0.8797 -0.5325  0.7280
  137SOL    HW2  547   4.974   5.417   2.463  0.4461 -0.7147  0.0803
  137SOL     MW  548   4.983   5.467   2.392  0.7226 -0.3929  0.3361
  138SOL     OW  549   0.868   5.290   2.773 -0.0290 -0.3594 -0.0285
  138SOL    HW1  550   0.926   5.261   2.844  0.9441  0.1063 -0.6184
  138SOL    HW2  551   0.923   5.346   2.718 -1.1538  0.4319 -0.3811
  138SOL     MW  552   0.882   5.294   2.775 -0.0484 -0.1985 -0.1491
  139SOL     OW  553   4.691   3.358   2.021 -0.1474  0.1047  0.4285
  139SOL    HW1  554   4.743   3.309   2.084 -0.1085  0.3691  0.6050
  139SOL    HW2  555   4.754   3.385   1.954 -0.4686 -1.5750 -0.6096
  139SOL     MW  556   4.706   3.355   2.021 -0.1836 -0.0765  0.3182
  140SOL     OW  557   2.401   4.060   4.038 -0.2869 -0.0303 -0.0110
  140SOL    HW1  558   2.388   3.966   4.039 -0.9474  0.0559  0.8943
  140SOL    HW2  559   2.493   4.071   4.012 -0.2402 -0.9097 -0.2484
  140SOL     MW  560   2.411   4.050   4.035 -0.3655 -0.1318  0.0745
  141SOL     OW  561   1.284   4.932   3.392  0.4911  0.2354  0.3965
  141SOL    HW1  562   1.286   4.913   3.298 -2.0035 -0.0667  0.3274
  141SOL    HW2  563   1.289   4.846   3.433 -1.0910  0.1206  0.4087
  141SOL     MW  564   1.285   4.918   3.385 -0.0308  0.1820  0.3892
  142SOL     OW  565   4.143   0.565   4.896  0.2769 -0.0077 -0.0858
  142SOL    HW1  566   4.063   0.513   4.905 -0.2895  0.9344  0.4904
  142SOL    HW2  567   4.118   0.653   4.925  1.4407  0.3785 -0.1992
  142SOL     MW  568   4.129   0.570   4.901  0.3534  0.1623 -0.0266
  143SOL     OW  569   1.311   1.107   1.331  0.6463 -0.5407  0.3151
  143SOL    HW1  570   1.371   1.160   1.278  0.0022 -0.3128 -0.1997
  143SOL    HW2  571   1.320   1.018   1.295  0.0260 -0.3417 -0.3591
  143SOL     MW  572   1.320   1.102   1.319  0.4845 -0.4861  0.1629
  144SOL     OW  573   1.944   3.933   3.792  0.3717 -0.1366  0.7166
  144SOL    HW1  574   1.911   3.843   3.786  1.4687 -0.4716 -1.6009
  144SOL    HW2  575   1.993   3.935   3.874 -1.4801 -0.9606  1.9164
  144SOL     MW  576   1.946   3.922   3.802  0.2751 -0.2849  0.5735
  145SOL     OW  577   1.932   2.444   0.517  0.0357 -0.1603  0.0254
  145SOL    HW1  578   1.837   2.434   0.526  0.0287 -0.8562 -0.7278
  145SOL    HW2  579   1.945   2.539   0.515 -0.7337 -0.0576 -0.6932
  145SOL     MW  580   1.921   2.455   0.518 -0.0637 -0.2362 -0.1630
  146SOL     OW  581   1.879   4.065   0.381  0.6097  0.1632  0.0480
  146SOL    HW1  582   1.931   4.071   0.461 -1.3769 -1.3819  1.5509
  146SOL    HW2  583   1.859   3.972   0.372 -0.2074  0.4701 -1.6055
  146SOL     MW  584   1.883   4.054   0.390  0.2508  0.0047  0.0287
  147SOL     OW  585   1.255   3.659   5.008  0.2925  0.3518  0.5471
  147SOL    HW1  586   1.166   3.662   4.973 -0.0771  0.0676  1.4443
  147SOL    HW2  587   1.254   3.586   5.070  1.3683 -0.1419  0.0004
  147SOL     MW  588   1.243   3.650   5.011  0.3829  0.2522  0.5920
  148SOL     OW  589   1.591   3.898   0.396 -0.3104 -0.8189 -0.0458
  148SOL    HW1  590   1.496   3.897   0.383 -0.6607 -0.9965  2.1288
  148SOL    HW2  591   1.628   3.897   0.308 -2.3310  1.0663 -0.9857
  148SOL     MW  592   1.584   3.898   0.383 -0.6139 -0.6003  0.1122
  149SOL     OW  593   1.708   1.666   3.031 -0.3198 -0.2266  0.0267
  149SOL    HW1  594   1.706   1.737   3.095 -1.6221 -0.6561  0.5071
  149SOL    HW2  595   1.666   1.593   3.077 -1.2278 -0.5619 -1.3044
  149SOL     MW  596   1.703   1.666   3.045 -0.6028 -0.3245 -0.0822
  150SOL     OW  597   5.290   0.430   4.030  0.0026  0.3215 -0.4746
  150SOL    HW1  598   5.203   0.469   4.029 -0.8146 -1.3368  1.4169
  150SOL    HW2  599   5.331   0.465   4.109  0.4981 -0.0798 -0.5488
  150SOL     MW  600   5.284   0.440   4.040 -0.0386  0.0579 -0.2419
  151SOL     OW  601   2.627   3.734   2.243  0.1751  0.2288 -0.0155
  151SOL    HW1  602   2.607   3.704   2.331 -1.1711 -1.7536 -0.9342
  151SOL    HW2  603   2.679   3.664   2.204 -0.1918  0.5606 -1.1517
  151SOL     MW  604   2.631   3.721   2.249 -0.0442  0.0175 -0.2786
  152SOL     OW  605   3.975   3.000   2.950  0.2764  0.1319  0.2483
  152SOL    HW1  606   4.008   3.088   2.969  1.8063  0.0113 -1.5961
  152SOL    HW2  607   4.017   2.943   3.014  1.4375  0.3831 -0.2790
  152SOL     MW  608   3.984   3.004   2.961  0.6209  0.1486 -0.0553
  153SOL     OW  609   2.633   1.821   5.430  0.3683 -0.0601  0.4708
  153SOL    HW1  610   2.729   1.823   5.436  0.3573 -1.3569  1.5909
  153SOL    HW2  611   2.614   1.736   5.392 -0.3305  0.5025 -0.4599
  153SOL     MW  612   2.643   1.810   5.426  0.2775 -0.1541  0.4950
  154SOL     OW  613   1.152   2.202   1.530  0.2944  0.2838 -0.5223
  154SOL    HW1  614   1.153   2.187   1.625  0.1923  2.5789 -0.1043
  154SOL    HW2  615   1.188   2.121   1.493  1.3904 -0.2584  1.5447
  154SOL     MW  616   1.157   2.190   1.537  0.4216  0.5082 -0.2042
  155SOL     OW  617   2.607   1.700   0.689 -0.3144 -0.1606 -0.4632
  155SOL    HW1  618   2.568   1.755   0.621  0.4599 -0.1865 -0.9418
  155SOL    HW2  619   2.701   1.701   0.670  0.2178  1.4908  1.7861
  155SOL     MW  620   2.614   1.707   0.678 -0.1472  0.0475 -0.2365
  156SOL     OW  621   2.201   3.301   4.969 -0.0220 -0.0289 -0.0353
  156SOL    HW1  622   2.254   3.313   4.890 -0.5725  0.0642 -0.3901
  156SOL    HW2  623   2.206   3.207   4.987  1.0167  0.0968  0.4703
  156SOL     MW  624   2.209   3.291   4.961  0.0405 -0.0009 -0.0160
  157SOL     OW  625   4.984   0.592   2.702 -0.3301 -0.0401 -0.1774
  157SOL    HW1  626   4.946   0.559   2.783  0.5374  1.1877  0.7613
  157SOL    HW2  627   4.976   0.687   2.708 -0.2420  0.0751 -1.5286
  157SOL     MW  628   4.978   0.600   2.713 -0.2078  0.1318 -0.2302
  158SOL     OW  629   3.549   2.671   1.268  0.2675  0.2062  0.2299
  158SOL    HW1  630   3.532   2.652   1.176  1.5550  0.3072 -0.0545
  158SOL    HW2  631   3.542   2.766   1.275  1.4012  0.3335 -0.0690
  158SOL     MW  632   3.546   2.680   1.257  0.5775  0.2354  0.1553
  159SOL     OW  633   1.816   0.765   4.841 -0.1711  0.2429  0.3833
  159SOL    HW1  634   1.752   0.780   4.771 -1.9052  1.9563  2.1858
  159SOL    HW2  635   1.763   0.765   4.921  1.9715  0.4811  1.8700
  159SOL     MW  636   1.801   0.766   4.842 -0.1188  0.4927  0.8043
  160SOL     OW  637   0.328   4.333   2.516 -0.2678 -0.0876 -0.0558
  160SOL    HW1  638   0.414   4.356   2.481 -0.8882 -0.0243 -1.6277
  160SOL    HW2  639   0.306   4.250   2.472 -1.1054  0.0100  0.1601
  160SOL     MW  640   0.336   4.325   2.506 -0.4545 -0.0670 -0.2294
  161SOL     OW  641   0.815   2.906   0.621 -0.1193 -0.2352  0.1138
  161SOL    HW1  642   0.783   2.853   0.548 -0.5638 -1.1294  0.9308
  161SOL    HW2  643   0.736   2.932   0.668  0.1705  0.1875  0.3692
  161SOL     MW  644   0.801   2.902   0.617 -0.1391 -0.2956  0.2511
  162SOL     OW  645   3.523   1.601   1.081  0.1587  0.2866  0.0505
  162SOL    HW1  646   3.584   1.530   1.062  1.2722  1.1376  0.3369
  162SOL    HW2  647   3.524   1.655   1.002 -2.3461 -1.1074 -1.0526
  162SOL     MW  648   3.531   1.599   1.069 -0.0194  0.2171 -0.0541
  163SOL     OW  649   3.082   0.079   1.395 -0.5128 -0.1513  0.5031
  163SOL    HW1  650   3.060   0.150   1.456  0.7338  0.9222 -0.2587
  163SOL    HW2  651   2.997   0.045   1.367 -1.1210 -0.0467  2.1182
  163SOL     MW  652   3.068   0.084   1.399 -0.4311 -0.0005  0.6123
  164SOL     OW  653   2.003   2.391   0.250  0.4679 -0.1143 -0.2297
  164SOL    HW1  654   1.915   2.426   0.234  1.7447  3.6828  0.0273
  164SOL    HW2  655   2.004   2.374   0.344 -0.2448 -1.1304 -0.3878
  164SOL     MW  656   1.992   2.394   0.260  0.5401  0.2417 -0.2170
  165SOL     OW  657   1.555   1.786   0.399  0.0367 -0.2135  0.2643
  165SOL    HW1  658   1.645   1.818   0.395  0.1137 -0.5281 -1.0083
  165SOL    HW2  659   1.520   1.803   0.311 -1.1167 -0.1765  0.7180
  165SOL     MW  660   1.562   1.792   0.387 -0.1011 -0.2490  0.1595
  166SOL     OW  661   4.322   2.768   3.177  0.4345  0.4733  0.3645
  166SOL    HW1  662   4.369   2.753   3.095 -1.6650 -1.1105 -0.6264
  166SOL    HW2  663   4.309   2.681   3.214 -0.1619  1.0227  1.5056
  166SOL     MW  664   4.327   2.755   3.172  0.0894  0.3409  0.3837
  167SOL     OW  665   3.046   3.653   0.117  0.1788 -0.0843  0.3409
  167SOL    HW1  666   3.105   3.626   0.047  0.2444 -0.4711  0.5430
  167SOL    HW2  667   3.007   3.735   0.086  1.2166  0.4547  0.4261
  167SOL     MW  668   3.049   3.660   0.104  0.3200 -0.0648  0.3777
  168SOL     OW  669   2.076   4.614   5.021 -0.0726  0.2354  0.1725
  168SOL    HW1  670   2.108   4.664   5.096  1.9026  0.7475 -0.9467
  168SOL    HW2  671   2.154   4.594   4.970 -1.4836  1.4403 -2.6945
  168SOL     MW  672   2.090   4.618   5.024 -0.0004  0.4552 -0.3378
  169SOL     OW  673   4.483   2.986   1.813 -0.1513  0.7115  0.1281
  169SOL    HW1  674   4.477   3.018   1.903 -0.3883  2.3188 -0.4342
  169SOL    HW2  675   4.576   2.967   1.801  0.0259  1.3647  0.4337
  169SOL     MW  676   4.494   2.988   1.823 -0.1589  1.0009  0.0952
  170SOL     OW  677   3.753   0.485   2.409  0.1425 -0.0080 -0.3106
  170SOL    HW1  678   3.837   0.529   2.400 -0.4273  0.9961 -0.9083
  170SOL    HW2  679   3.751   0.455   2.500  1.1387 -0.0437 -0.2933
  170SOL     MW  680   3.763   0.487   2.420  0.1971  0.1159 -0.3849
  171SOL     OW  681   0.776   5.202   0.664 -0.1983  0.0344  0.0389
  171SOL    HW1  682   0.802   5.172   0.576  0.5582  1.3582 -0.2162
  171SOL    HW2  683   0.692   5.244   0.650 -0.1246  0.1579 -0.0370
  171SOL     MW  684   0.769   5.203   0.651 -0.0920  0.2197 -0.0035
  172SOL     OW  685   3.877   3.277   1.957 -0.0003 -0.1702  0.3346
  172SOL    HW1  686   3.893   3.206   1.894 -0.5221  0.0888 -0.0972
  172SOL    HW2  687   3.925   3.250   2.035  1.0004 -0.3025 -0.3048
  172SOL     MW  688   3.885   3.264   1.959  0.0610 -0.1540  0.1975
  173SOL     OW  689   3.714   0.769   0.129 -0.0977 -0.2291  0.0491
  173SOL    HW1  690   3.808   0.757   0.116 -0.1261 -0.5813  0.1657
  173SOL    HW2  691   3.702   0.864   0.133  0.2548 -0.1850  0.0494
  173SOL     MW  692   3.725   0.779   0.128 -0.0562 -0.2686  0.0641
  174SOL     OW  693   1.751   4.756   3.910 -0.1173 -0.2866 -0.1153
  174SOL    HW1  694   1.777   4.664   3.906  0.1101 -0.2382  0.2605
  174SOL    HW2  695   1.792   4.790   3.989 -0.5003  0.0483 -0.0539
  174SOL     MW  696   1.759   4.748   3.920 -0.1372 -0.2376 -0.0593
  175SOL     OW  697   5.397   4.695   0.196  0.2845 -0.1571  0.7059
  175SOL    HW1  698   5.324   4.635   0.188  0.7874 -0.6172 -0.6140
  175SOL    HW2  699   5.356   4.781   0.206 -0.4464 -0.3020 -0.8538
  175SOL     MW  700   5.383   4.698   0.196  0.2553 -0.2346  0.3373
  176SOL     OW  701   2.115   3.167   4.095 -0.1160  0.1056 -0.2312
  176SOL    HW1  702   2.167   3.154   4.174  0.5217  0.5938 -0.5577
  176SOL    HW2  703   2.070   3.250   4.110 -0.1282  0.1123 -0.3050
  176SOL     MW  704   2.116   3.176   4.107 -0.0360  0.1689 -0.2824
  177SOL     OW  705   2.730   4.685   0.304 -0.0955  0.3412  0.3024
  177SOL    HW1  706   2.652   4.630   0.294 -0.6963  1.3270 -0.7031
  177SOL    HW2  707   2.742   4.691   0.399 -0.8736 -0.3272  0.4649
  177SOL     MW  708   2.721   4.679   0.315 -0.2720  0.3818  0.1945
  178SOL     OW  709   0.982   4.716   0.021  0.1378 -0.0131  0.1750
  178SOL    HW1  710   0.966   4.750   0.109  0.9908 -0.1161  0.3859
  178SOL    HW2  711   1.025   4.632   0.035 -0.2665 -0.3088 -0.3432
  178SOL     MW  712   0.986   4.710   0.034  0.1952 -0.0641  0.1357
  179SOL     OW  713   1.785   1.415   4.169  0.0063  0.2042 -0.6546
  179SOL    HW1  714   1.869   1.444   4.134  0.3792  0.6320  0.5356
  179SOL    HW2  715   1.799   1.325   4.196  0.9061  1.0019  1.8841
  179SOL     MW  716   1.797   1.407   4.168  0.1692  0.3611 -0.1773
  180SOL     OW  717   4.471   1.995   2.045 -0.2551 -0.4953 -0.0245
  180SOL    HW1  718   4.488   2.018   1.954 -0.1111 -1.6965 -0.3181
  180SOL    HW2  719   4.537   1.928   2.066 -1.1648 -1.2519  0.5177
  180SOL     MW  720   4.482   1.989   2.036 -0.3531 -0.7460  0.0073
  181SOL     OW  721   4.758   2.532   1.459 -0.7103 -0.0508 -0.0405
  181SOL    HW1  722   4.708   2.524   1.541  0.2489 -0.3162  0.5421
  181SOL    HW2  723   4.813   2.453   1.458  0.4209  0.7269 -0.1570
  181SOL     MW  724   4.758   2.521   1.470 -0.4427  0.0148  0.0192
  182SOL     OW  725   1.163   3.406   0.897 -0.2047  0.0824  0.6783
  182SOL    HW1  726   1.186   3.386   0.988 -0.2331 -0.9630  0.4670
  182SOL    HW2  727   1.232   3.364   0.845 -1.5372 -1.5470  0.1169
  182SOL     MW  728   1.175   3.398   0.902 -0.3789 -0.2600  0.5794
  183SOL     OW  729   3.923   4.790   0.678  0.2738 -0.3516  0.1025
  183SOL    HW1  730   3.937   4.741   0.759  2.6290  0.4921  0.2650
  183SOL    HW2  731   3.853   4.742   0.633  0.5925 -2.2401  1.4903
  183SOL     MW  732   3.916   4.778   0.683  0.6161 -0.4853  0.3009
  184SOL     OW  733   4.249   2.910   3.396 -0.1545  0.0767 -0.1477
  184SOL    HW1  734   4.295   2.870   3.322  0.5585  0.4933  0.0571
  184SOL    HW2  735   4.319   2.929   3.459 -0.6379  0.5710  0.2422
  184SOL     MW  736   4.264   2.907   3.395 -0.1251  0.1933 -0.0715
  185SOL     OW  737   2.183   0.453   0.870 -0.2759 -0.0607  0.2351
  185SOL    HW1  738   2.192   0.546   0.849  1.1591 -0.1827  0.2285
  185SOL    HW2  739   2.111   0.423   0.814  0.1490  0.7494 -0.7817
  185SOL     MW  740   2.175   0.461   0.860 -0.0378  0.0274  0.1041
  186SOL     OW  741   0.708   0.414   2.772 -0.0186  0.0972  0.3420
  186SOL    HW1  742   0.698   0.456   2.858  0.3216  1.3178 -0.1935
  186SOL    HW2  743   0.619   0.414   2.735  0.0131  0.5591  0.2579
  186SOL     MW  744   0.695   0.419   2.778  0.0290  0.3126  0.2627
  187SOL     OW  745   5.423   0.727   4.403 -0.6004 -0.1600  0.7053
  187SOL    HW1  746   5.438   0.715   4.497 -0.4488 -0.1850  0.6778
  187SOL    HW2  747   5.388   0.642   4.374  0.8713 -0.7090  0.4274
  187SOL     MW  748   5.420   0.714   4.411 -0.3926 -0.2335  0.6662
  188SOL     OW  749   1.455   2.834   0.778  0.0975  0.4698 -0.1472
  188SOL    HW1  750   1.425   2.757   0.827  0.0043  1.7655  2.0054
  188SOL    HW2  751   1.374   2.874   0.746 -0.1368  1.1569  1.1977
  188SOL     MW  752   1.441   2.829   0.780  0.0555  0.7236  0.3006
  189SOL     OW  753   2.185   1.904   4.958 -0.1444 -0.2628 -0.6337
  189SOL    HW1  754   2.136   1.880   5.036  2.5839 -1.0781  0.9569
  189SOL    HW2  755   2.138   1.980   4.922 -0.8441  0.9073  2.4775
  189SOL     MW  756   2.173   1.911   4.963  0.1153 -0.2174 -0.0318
  190SOL     OW  757   4.207   4.459   1.810 -0.2215 -0.0846  0.3070
  190SOL    HW1  758   4.216   4.426   1.899 -0.7006 -1.8431 -0.2559
  190SOL    HW2  759   4.130   4.515   1.812 -1.7923 -2.1326  0.5073
  190SOL     MW  760   4.199   4.462   1.821 -0.4839 -0.5719  0.2606
  191SOL     OW  761   3.707   2.283   0.429 -0.3045  0.4940  0.0493
  191SOL    HW1  762   3.690   2.318   0.341  0.4243 -0.0050 -0.2980
  191SOL    HW2  763   3.802   2.269   0.431 -0.3999 -0.0853  0.6947
  191SOL     MW  764   3.717   2.286   0.418 -0.2234  0.3559  0.0875
  192SOL     OW  765   1.646   2.346   1.636 -1.0482 -0.1888  0.9666
  192SOL    HW1  766   1.555   2.362   1.613 -0.4189  0.1473 -1.5879
  192SOL    HW2  767   1.680   2.432   1.663 -0.6553  0.4921 -1.4746
  192SOL     MW  768   1.639   2.359   1.636 -0.9173 -0.0586  0.3271
  193SOL     OW  769   3.076   5.089   3.684  0.3183 -0.1793  0.0470
  193SOL    HW1  770   3.031   5.010   3.654 -0.2863 -0.0742  0.6347
  193SOL    HW2  771   3.006   5.153   3.695  0.7375  0.2807  0.0776
  193SOL     MW  772   3.061   5.087   3.681  0.2945 -0.1069  0.1262
  194SOL     OW  773   4.419   4.615   0.793 -0.1010  0.1653 -0.1651
  194SOL    HW1  774   4.447   4.706   0.795 -0.9581  0.4365  0.4897
  194SOL    HW2  775   4.385   4.602   0.705 -0.2811  0.5829 -0.1607
  194SOL     MW  776   4.418   4.625   0.782 -0.2338  0.2535 -0.0807
  195SOL     OW  777   0.330   4.964   2.429 -0.0633 -0.1428 -0.0170
  195SOL    HW1  778   0.273   5.035   2.457  1.4972  0.6449  1.3604
  195SOL    HW2  779   0.295   4.887   2.473  0.5809  0.5447  1.8035
  195SOL     MW  780   0.318   4.963   2.438  0.2189  0.0460  0.3924
  196SOL     OW  781   3.654   0.820   4.052 -0.1147  0.2313  0.3483
  196SOL    HW1  782   3.717   0.765   4.098  0.0238 -0.0893 -0.2166
  196SOL    HW2  783   3.703   0.899   4.029 -0.0582  0.1941  0.3422
  196SOL     MW  784   3.668   0.823   4.055 -0.0897  0.1855  0.2752
  197SOL     OW  785   0.537   1.614   3.187 -0.0408 -0.4811  0.0587
  197SOL    HW1  786   0.613   1.637   3.133  0.7864  1.6736  1.9924
  197SOL    HW2  787   0.481   1.692   3.185 -0.9342 -1.0866  0.7576
  197SOL     MW  788   0.540   1.627   3.179 -0.0493 -0.2828  0.3957
  198SOL     OW  789   2.312   2.774   2.474  0.0938 -0.1900 -0.2698
  198SOL    HW1  790   2.230   2.727   2.460 -0.1966 -0.1939  1.2152
  198SOL    HW2  791   2.287   2.848   2.530  0.9116  0.5105 -0.8029
  198SOL     MW  792   2.298   2.778   2.480  0.1613 -0.1009 -0.1480
  199SOL     OW  793   2.037   4.808   1.464  0.2366  0.1261 -0.4527
  199SOL    HW1  794   1.946   4.790   1.443  0.5132 -0.8586 -0.8696
  199SOL    HW2  795   2.063   4.738   1.524  0.2103  1.4388  1.1683
  199SOL     MW  796   2.029   4.797   1.469  0.2686  0.1680 -0.2986
  200SOL     OW  797   0.861   1.416   5.344  0.2673 -0.1925 -0.4749
  200SOL    HW1  798   0.928   1.349   5.357 -0.5643 -0.9362  0.0448
  200SOL    HW2  799   0.910   1.498   5.342  1.2226 -0.7454 -0.4049
  200SOL     MW  800   0.876   1.418   5.345  0.2832 -0.3585 -0.3994
  201SOL     OW  801   2.713   0.808   2.531 -0.0115  0.2402 -0.0637
  201SOL    HW1  802   2.740   0.744   2.598 -1.8747 -0.7489 -0.2031
  201SOL    HW2  803   2.749   0.773   2.449  2.0033  1.2884  0.3004
  201SOL     MW  804   2.721   0.795   2.529  0.0079  0.2477 -0.0349
  202SOL     OW  805   5.199   1.575   2.107  0.1813 -0.3719  0.2191
  202SOL    HW1  806   5.284   1.588   2.151 -0.4886 -1.0648  1.7845
  202SOL    HW2  807   5.168   1.664   2.089  1.4506 -0.1112 -0.8565
  202SOL     MW  808   5.206   1.588   2.110  0.2580 -0.4272  0.2818
  203SOL     OW  809   0.280   3.743   3.275 -0.2980 -0.4574  0.1128
  203SOL    HW1  810   0.192   3.708   3.264 -0.7702  1.0168 -0.9368
  203SOL    HW2  811   0.322   3.731   3.190 -0.6018  1.8155 -0.4037
  203SOL     MW  812   0.274   3.737   3.263 -0.3974  0.0223 -0.0877
  204SOL     OW  813   2.162   1.093   3.818  0.0883 -0.4717  0.6058
  204SOL    HW1  814   2.095   1.029   3.792  1.9775 -2.7803  1.1406
  204SOL    HW2  815   2.183   1.071   3.908  1.7939  0.0258  0.3578
  204SOL     MW  816   2.156   1.082   3.826  0.5485 -0.7036  0.6425
  205SOL     OW  817   4.018   0.660   1.231 -0.3213  0.2913  0.2177
  205SOL    HW1  818   4.105   0.660   1.191 -0.2039 -1.6814  0.3803
  205SOL    HW2  819   3.986   0.571   1.219 -1.3487  0.3329  2.2312
  205SOL     MW  820   4.025   0.649   1.224 -0.4378  0.0441  0.4962
  206SOL     OW  821   0.006   2.583   3.469  0.3755  0.1336  0.1346
  206SOL    HW1  822  -0.008   2.677   3.462 -0.8741 -0.0751 -0.3212
  206SOL    HW2  823   0.038   2.570   3.559 -0.6985  0.8462  0.6309
  206SOL     MW  824   0.009   2.593   3.480  0.0781  0.1981  0.1398
  207SOL     OW  825   0.531   1.609   3.525  0.3259  0.5030  0.1044
  207SOL    HW1  826   0.484   1.596   3.608 -0.1642 -1.4263 -0.4391
  207SOL    HW2  827   0.464   1.634   3.462  0.4241  0.2111 -0.1163
  207SOL     MW  828   0.516   1.611   3.528  0.2757  0.2187  0.0066
  208SOL     OW  829   3.366   1.778   0.207 -0.6874  0.3955 -0.2591
  208SOL    HW1  830   3.309   1.854   0.204 -0.6720  0.4214  0.0503
  208SOL    HW2  831   3.451   1.810   0.178 -0.8340  0.3488 -0.7583
  208SOL     MW  832   3.369   1.792   0.203 -0.7042  0.3929 -0.2834
  209SOL     OW  833   3.475   0.717   3.863  0.0603  0.0604  0.2370
  209SOL    HW1  834   3.420   0.645   3.893 -0.8210 -0.0920 -1.6456
  209SOL    HW2  835   3.545   0.722   3.929 -0.3831 -1.8713  0.9237
  209SOL     MW  836   3.477   0.708   3.875 -0.1093 -0.2064  0.0839
  210SOL     OW  837   4.703   1.841   0.518 -0.1553  0.2958  0.2678
  210SOL    HW1  838   4.791   1.842   0.556 -0.2275  0.9062  0.4341
  210SOL    HW2  839   4.719   1.839   0.423  0.0369  0.4089  0.2966
  210SOL     MW  840   4.716   1.841   0.511 -0.1400  0.3884  0.2928
  211SOL     OW  841   1.457   3.541   1.226 -0.1600  0.1354 -0.0654
  211SOL    HW1  842   1.459   3.633   1.203  1.1212  0.3951  0.9502
  211SOL    HW2  843   1.506   3.535   1.308  2.0171 -1.7500 -1.3559
  211SOL     MW  844   1.464   3.552   1.233  0.2827 -0.0727 -0.1006
  212SOL     OW  845   3.080   0.176   4.779  0.1531  0.2237  0.3005
  212SOL    HW1  846   3.102   0.245   4.842 -0.4772  0.2025  0.5540
  212SOL    HW2  847   2.985   0.182   4.770  0.2006 -0.0191 -0.3712
  212SOL     MW  848   3.071   0.186   4.786  0.0785  0.1899  0.2470
  213SOL     OW  849   1.457   5.295   1.850  0.0631 -0.7913 -0.4533
  213SOL    HW1  850   1.511   5.218   1.865  1.0202  0.0119  0.4167
  213SOL    HW2  851   1.495   5.363   1.906 -0.9321  0.2361 -0.9586
  213SOL     MW  852   1.468   5.294   1.859  0.0582 -0.5569 -0.4066
  214SOL     OW  853   1.860   2.179   4.432  0.2438 -0.4260  0.3008
  214SOL    HW1  854   1.839   2.268   4.460 -0.6879 -0.4317 -0.3171
  214SOL    HW2  855   1.783   2.128   4.457  0.2239 -0.8010 -0.4963
  214SOL     MW  856   1.848   2.184   4.439  0.1220 -0.4748  0.1196
  215SOL     OW  857   0.066   2.341   5.175 -0.0122 -0.0033  0.2683
  215SOL    HW1  858   0.054   2.342   5.080  0.3031 -1.3602  0.1925
  215SOL    HW2  859   0.060   2.249   5.199  1.1377  0.1891  1.4029
  215SOL     MW  860   0.064   2.329   5.166  0.1754 -0.1524  0.4038
  216SOL     OW  861   4.857   3.780   2.042  0.2185  0.2340  0.4963
  216SOL    HW1  862   4.892   3.768   2.130  1.4306 -3.6683 -0.3232
  216SOL    HW2  863   4.766   3.751   2.048  0.3703 -0.2614  0.4334
  216SOL     MW  864   4.850   3.775   2.054  0.3931 -0.3290  0.3834
  217SOL     OW  865   2.636   1.876   2.360 -0.1006 -0.0125  0.1556
  217SOL    HW1  866   2.546   1.884   2.331 -0.4832 -0.6806  1.0895
  217SOL    HW2  867   2.676   1.962   2.342 -1.4185  0.8950  1.3777
  217SOL     MW  868   2.630   1.888   2.354 -0.3183  0.0181  0.4316
  218SOL     OW  869   0.856   4.177   4.666 -0.3198 -0.4623 -0.8240
  218SOL    HW1  870   0.949   4.158   4.659 -0.2227 -0.3156 -0.0486
  218SOL    HW2  871   0.817   4.135   4.589  0.6824  1.5351 -2.5070
  218SOL     MW  872   0.863   4.169   4.656 -0.1791 -0.1879 -0.9402
  219SOL     OW  873   4.035   4.657   2.387 -0.0432  0.1280  0.1577
  219SOL    HW1  874   4.112   4.667   2.332 -0.6807  1.4415 -0.5395
  219SOL    HW2  875   3.980   4.595   2.340 -0.3480  0.8384 -0.4441
  219SOL     MW  876   4.037   4.650   2.374 -0.1638  0.3871 -0.0086
  220SOL     OW  877   3.896   2.858   4.500  0.0948  0.0028 -0.1044
  220SOL    HW1  878   3.883   2.877   4.407 -0.3230  0.9501  0.1354
  220SOL    HW2  879   3.941   2.773   4.501  1.3863  0.6206 -1.2174
  220SOL     MW  880   3.900   2.849   4.488  0.2066  0.2032 -0.2162
  221SOL     OW  881   4.313   0.608   2.956  0.1686  0.5012  0.3974
  221SOL    HW1  882   4.256   0.533   2.974 -0.2497  0.9496  0.9679
  221SOL    HW2  883   4.298   0.668   3.029  0.4857  1.1496 -0.0568
  221SOL     MW  884   4.303   0.606   2.968  0.1556  0.6416  0.4123
  222SOL     OW  885   2.524   2.729   5.378 -0.0398  0.1447  0.6091
  222SOL    HW1  886   2.549   2.822   5.374  1.6819 -0.3269 -1.3768
  222SOL    HW2  887   2.571   2.695   5.454  0.0136  0.7211  0.8388
  222SOL     MW  888   2.533   2.737   5.387  0.1875  0.1581  0.3843
  223SOL     OW  889   0.666   2.123   5.138  0.0903  0.3125 -0.2982
  223SOL    HW1  890   0.693   2.037   5.105  0.9412  0.1749  0.7162
  223SOL    HW2  891   0.718   2.185   5.087  0.8248  0.1374  0.2268
  223SOL     MW  892   0.676   2.120   5.127  0.2933  0.2725 -0.1012
  224SOL     OW  893   2.546   1.091   4.462 -0.1122  0.1273 -0.2279
  224SOL    HW1  894   2.564   1.045   4.380 -0.4947 -0.7996  0.1855
  224SOL    HW2  895   2.574   1.181   4.446  2.2100 -0.5653 -0.5680
  224SOL     MW  896   2.552   1.096   4.449  0.1361 -0.0800 -0.2185
  225SOL     OW  897   4.127   1.667   5.308 -0.4584 -0.2515  0.2079
  225SOL    HW1  898   4.114   1.640   5.399 -0.3463  0.7621  0.5346
  225SOL    HW2  899   4.043   1.648   5.265 -0.7283 -0.1206  0.6727
  225SOL     MW  900   4.114   1.661   5.314 -0.4786 -0.1050  0.3092
  226SOL     OW  901   5.376   1.448   2.795 -0.2150 -0.1710  0.5737
  226SOL    HW1  902   5.412   1.519   2.848  0.2455  1.1867 -1.4092
  226SOL    HW2  903   5.288   1.434   2.830  0.0693  0.6605  1.6701
  226SOL     MW  904   5.369   1.456   2.806 -0.1196  0.1092  0.4602
  227SOL     OW  905   2.220   2.363   5.382  0.2405  0.0853  0.7469
  227SOL    HW1  906   2.304   2.398   5.352  1.0232 -0.5777  2.0884
  227SOL    HW2  907   2.228   2.269   5.369 -0.2581  0.0074  1.0017
  227SOL     MW  908   2.232   2.356   5.376  0.2768 -0.0096  0.9512
  228SOL     OW  909   4.996   2.098   4.278 -0.1191 -0.3278 -0.3212
  228SOL    HW1  910   4.963   2.188   4.285 -1.4351 -0.9066  2.0892
  228SOL    HW2  911   5.087   2.103   4.305 -1.0672 -0.0935  3.3705
  228SOL     MW  912   5.003   2.110   4.282 -0.4089 -0.3719  0.4599
  229SOL     OW  913   2.720   0.027   4.489  0.5661  0.3341  0.2797
  229SOL    HW1  914   2.798  -0.027   4.507  0.6303 -0.0919 -1.0903
  229SOL    HW2  915   2.741   0.071   4.406  0.1411  1.7882  0.9220
  229SOL     MW  916   2.733   0.025   4.480  0.5199  0.4657  0.1865
  230SOL     OW  917   4.940   2.008   0.886  0.2087  0.2134 -0.5377
  230SOL    HW1  918   4.937   1.920   0.850  0.6565 -0.0210 -0.0207
  230SOL    HW2  919   4.999   2.001   0.961 -1.9877  0.2951  1.3162
  230SOL     MW  920   4.947   1.996   0.891 -0.0151  0.1938 -0.2342
  231SOL     OW  921   3.422   2.448   1.324  0.1360 -0.3864 -0.2819
  231SOL    HW1  922   3.466   2.533   1.320 -1.5536  0.6275  1.1409
  231SOL    HW2  923   3.474   2.397   1.386  0.9975 -0.3173 -0.9283
  231SOL     MW  924   3.435   2.452   1.332  0.0300 -0.2478 -0.1825
  232SOL     OW  925   2.745   1.386   0.636 -0.1807 -0.3992 -0.3009
  232SOL    HW1  926   2.715   1.357   0.722 -1.2669 -0.2692 -0.6239
  232SOL    HW2  927   2.823   1.333   0.619 -0.8041 -1.4901  0.1236
  232SOL     MW  928   2.752   1.376   0.645 -0.3996 -0.5222 -0.2879
  233SOL     OW  929   2.825   2.590   2.025  0.3773 -0.3707 -0.3278
  233SOL    HW1  930   2.782   2.505   2.017  1.2619 -0.9324  0.5845
  233SOL    HW2  931   2.758   2.648   2.061  0.0194 -0.9057 -0.1240
  233SOL     MW  932   2.811   2.587   2.029  0.4448 -0.5111 -0.1849
  234SOL     OW  933   3.625   0.139   1.153  0.3572 -0.6055  0.6276
  234SOL    HW1  934   3.620   0.056   1.106  0.4039 -0.1551 -0.2039
  234SOL    HW2  935   3.552   0.136   1.216 -2.1377  0.2379 -1.9811
  234SOL     MW  936   3.615   0.128   1.155  0.0438 -0.4399  0.1872
  235SOL     OW  937   1.088   1.261   5.375 -0.2152  0.2208  0.0718
  235SOL    HW1  938   1.056   1.178   5.340 -1.9782  1.5295 -1.6198
  235SOL    HW2  939   1.083   1.251   5.470  1.1700 -2.1388 -0.0371
  235SOL     MW  940   1.083   1.249   5.383 -0.2636  0.0862 -0.1587
  236SOL     OW  941   3.228   1.429   2.066 -0.2763 -0.4915  0.0951
  236SOL    HW1  942   3.150   1.450   2.015 -0.2930  1.1372  0.7573
  236SOL    HW2  943   3.242   1.504   2.123  2.0697 -0.4887 -0.3554
  236SOL     MW  944   3.220   1.441   2.066  0.0219 -0.2827  0.1222
  237SOL     OW  945   4.859   5.351   5.297 -0.0205 -0.0442 -0.1384
  237SOL    HW1  946   4.795   5.299   5.346  0.1097 -1.4105 -1.3493
  237SOL    HW2  947   4.941   5.339   5.345  0.4767 -2.7175 -1.4880
  237SOL     MW  948   4.861   5.343   5.310  0.0599 -0.5613 -0.4662
  238SOL     OW  949   1.948   1.441   1.311 -0.2497  0.0967  0.2363
  238SOL    HW1  950   1.891   1.389   1.254 -1.2159  1.7669 -0.3777
  238SOL    HW2  951   1.894   1.515   1.339  1.0798  0.8009  1.0728
  238SOL     MW  952   1.934   1.444   1.307 -0.2032  0.4007  0.2648
  239SOL     OW  953   1.866   0.023   2.323  0.0808 -0.0842 -0.2743
  239SOL    HW1  954   1.772   0.005   2.330 -0.1457  1.0908 -0.1180
  239SOL    HW2  955   1.891  -0.018   2.240 -0.7460  0.2575 -0.7116
  239SOL     MW  956   1.857   0.015   2.313 -0.0540  0.1100 -0.3102
  240SOL     OW  957   4.407   4.322   2.608 -0.0251  0.8305 -0.0498
  240SOL    HW1  958   4.375   4.326   2.517 -0.4323  2.6725  0.1508
  240SOL    HW2  959   4.471   4.392   2.614 -0.2399  0.9325  1.1786
  240SOL     MW  960   4.411   4.331   2.597 -0.1047  1.0794  0.1331
  241SOL     OW  961   3.461   2.011   1.078  0.0375 -0.2761  1.0161
  241SOL    HW1  962   3.503   1.953   1.015 -1.3503  1.0223 -1.2101
  241SOL    HW2  963   3.369   1.983   1.080 -0.0776  0.1090  2.0175
  241SOL     MW  964   3.455   2.000   1.070 -0.1549 -0.0606  0.8593
  242SOL     OW  965   4.545   0.892   3.978  0.0646 -0.0726 -0.1470
  242SOL    HW1  966   4.502   0.969   3.941  0.8088  0.2859 -0.2749
  242SOL    HW2  967   4.578   0.844   3.901  2.0377  0.9178  0.0318
  242SOL     MW  968   4.544   0.895   3.963  0.4124  0.1001 -0.1405
  243SOL     OW  969   1.592   5.252   1.170 -0.4805 -0.3239  0.2030
  243SOL    HW1  970   1.668   5.308   1.187  0.5557 -1.8090  0.6793
  243SOL    HW2  971   1.528   5.276   1.237 -0.0599  0.2896  0.3876
  243SOL     MW  972   1.593   5.262   1.180 -0.2940 -0.4355  0.2876
  244SOL     OW  973   1.029   2.792   2.847 -0.2367 -0.3031 -0.0841
  244SOL    HW1  974   0.950   2.792   2.901  0.0695 -0.3137  0.3692
  244SOL    HW2  975   1.091   2.737   2.895 -0.1786 -0.8520 -0.7741
  244SOL     MW  976   1.027   2.785   2.860 -0.1901 -0.3747 -0.1144
  245SOL     OW  977   3.910   0.989   1.711  0.0048 -0.2419  0.5563
  245SOL    HW1  978   3.953   0.985   1.797 -0.3041  1.8453  0.8426
  245SOL    HW2  979   3.939   1.071   1.672  0.1384 -1.1481 -1.3805
  245SOL     MW  980   3.919   0.999   1.717 -0.0176 -0.0907  0.3450
  246SOL     OW  981   4.233   0.767   3.160  0.1180 -0.6076 -0.3960
  246SOL    HW1  982   4.185   0.722   3.230  0.7814 -0.3122  0.2623
  246SOL    HW2  983   4.248   0.855   3.194  0.6445 -0.5310 -0.8238
  246SOL     MW  984   4.229   0.772   3.173  0.2704 -0.5600 -0.3665
  247SOL     OW  985   0.287   2.396   3.574  0.2953  0.0272 -0.0145
  247SOL    HW1  986   0.338   2.400   3.655  0.8917  0.4055 -0.3935
  247SOL    HW2  987   0.272   2.303   3.559 -2.4582  0.0052  2.1197
  247SOL     MW  988   0.292   2.385   3.582  0.0192  0.0728  0.2102
  248SOL     OW  989   4.915   0.991   2.336 -0.7557 -0.2154 -0.3121
  248SOL    HW1  990   4.852   0.934   2.380  0.7878 -2.4248 -0.8006
  248SOL    HW2  991   4.993   0.936   2.324  0.6547  1.8694 -1.2764
  248SOL     MW  992   4.917   0.977   2.340 -0.3775 -0.2313 -0.4981
  249SOL     OW  993   4.269   0.275   3.750  0.8819 -0.2067 -0.3800
  249SOL    HW1  994   4.211   0.211   3.709 -2.0222  2.4554 -0.7571
  249SOL    HW2  995   4.332   0.298   3.682  0.3048 -0.7266 -1.1033
  249SOL     MW  996   4.270   0.270   3.736  0.4362  0.0675 -0.5208
  250SOL     OW  997   3.078   4.701   3.823  0.7948 -0.2399  0.0814
  250SOL    HW1  998   3.074   4.763   3.751  0.5759 -1.3809 -0.9093
  250SOL    HW2  999   3.057   4.753   3.901 -1.6176  0.5078 -0.9903
  250SOL     MW 1000   3.075   4.716   3.824  0.4580 -0.2902 -0.1826
  251SOL     OW 1001   3.165   2.320   2.151  0.3740  0.4001 -0.2025
  251SOL    HW1 1002   3.211   2.321   2.234 -1.0787  0.7744  0.6449
  251SOL    HW2 1003   3.080   2.280   2.171 -1.1011  2.9576 -0.8390
  251SOL     MW 1004   3.160   2.315   2.164 -0.0008  0.7754 -0.1755
  252SOL     OW 1005   1.124   0.765   1.437 -0.5138 -0.7903 -0.2912
  252SOL    HW1 1006   1.106   0.859   1.431  0.2951 -0.6435 -0.4935
  252SOL    HW2 1007   1.127   0.747   1.531 -2.1337 -0.9216 -0.2247
  252SOL     MW 1008   1.122   0.775   1.448 -0.6176 -0.7883 -0.3086
  253SOL     OW 1009   5.117   1.786   3.675 -0.3510  0.0715 -0.1065
  253SOL    HW1 1010   5.044   1.829   3.630 -0.4904  0.3306  0.3529
  253SOL    HW2 1011   5.150   1.723   3.612 -0.4708  0.5017 -0.6098
  253SOL     MW 1012   5.112   1.784   3.661 -0.3842  0.1598 -0.1121
  254SOL     OW 1013   3.350   3.551   2.907 -0.4782 -0.2490 -0.1309
  254SOL    HW1 1014   3.325   3.498   2.983 -1.3633  0.7001  0.2689
  254SOL    HW2 1015   3.276   3.543   2.847 -0.6744  0.6003 -0.0180
  254SOL     MW 1016   3.337   3.543   2.909 -0.6166 -0.0187 -0.0653
  255SOL     OW 1017   5.302   4.816   1.097  0.4635 -0.0589 -0.4411
  255SOL    HW1 1018   5.350   4.837   1.016  0.6640  1.5694  0.0508
  255SOL    HW2 1019   5.222   4.868   1.090 -0.0190 -0.7413 -0.0587
  255SOL     MW 1020   5.298   4.826   1.085  0.4274  0.0622 -0.3292
  256SOL     OW 1021   4.715   2.424   3.606 -0.3258 -0.2350 -0.0287
  256SOL    HW1 1022   4.661   2.345   3.598 -0.7349  0.0971 -0.6211
  256SOL    HW2 1023   4.791   2.396   3.656 -1.1889 -0.6330  1.0991
  256SOL     MW 1024   4.718   2.410   3.611 -0.4886 -0.2435  0.0398
  257SOL     OW 1025   3.933   4.326   3.571 -0.1657 -0.4066 -0.1524
  257SOL    HW1 1026   3.843   4.316   3.603 -0.3341 -0.1572 -0.5359
  257SOL    HW2 1027   3.978   4.374   3.640 -0.6583  0.5790 -0.5001
  257SOL     MW 1028   3.927   4.331   3.584 -0.2503 -0.2485 -0.2460
  258SOL     OW 1029   1.664   2.953   4.628  0.2528  0.0868 -0.2182
  258SOL    HW1 1030   1.585   2.900   4.623 -0.5365  1.0351  1.5495
  258SOL    HW2 1031   1.732   2.893   4.660  0.4142 -0.8375 -2.1541
  258SOL     MW 1032   1.663   2.939   4.631  0.1724  0.0899 -0.2397
  259SOL     OW 1033   0.667   1.961   1.911  0.0732  0.0303 -0.0465
  259SOL    HW1 1034   0.739   2.007   1.869  0.4777  0.1010  0.7240
  259SOL    HW2 1035   0.623   1.915   1.839  1.1850 -0.4273 -0.4419
  259SOL     MW 1036   0.670   1.961   1.896  0.2673 -0.0192  0.0016
  260SOL     OW 1037   5.331   1.522   2.498 -0.4178  0.0715 -0.2343
  260SOL    HW1 1038   5.407   1.513   2.441  0.0891 -0.5828  0.5210
  260SOL    HW2 1039   5.364   1.504   2.586 -0.9572  2.0695  0.4397
  260SOL     MW 1040   5.345   1.518   2.502 -0.4219  0.2435 -0.0513
  261SOL     OW 1041   3.224   2.157   1.322  0.2227  0.1741  0.2086
  261SOL    HW1 1042   3.295   2.115   1.371 -0.9552 -1.5537  0.5235
  261SOL    HW2 1043   3.224   2.111   1.237 -0.8288 -0.2044  0.4060
  261SOL     MW 1044   3.233   2.145   1.317 -0.0627 -0.0955  0.2742
  262SOL     OW 1045   4.872   3.176   0.295 -0.1842  0.3374  0.0159
  262SOL    HW1 1046   4.803   3.125   0.337 -1.1418  1.7721  0.2533
  262SOL    HW2 1047   4.946   3.170   0.355 -1.1429  1.3501  1.3563
  262SOL     MW 1048   4.873   3.168   0.308 -0.4295  0.6507  0.2179
  263SOL     OW 1049   3.151   3.341   3.826 -0.1816 -0.0297  0.3099
  263SOL    HW1 1050   3.141   3.313   3.735 -1.7497 -0.1364  0.4992
  263SOL    HW2 1051   3.063   3.366   3.854  0.5184  1.4033  1.3567
  263SOL     MW 1052   3.139   3.341   3.818 -0.2927  0.1401  0.4681
  264SOL     OW 1053   2.103   3.529   0.718 -0.4155  0.2509  0.4484
  264SOL    HW1 1054   2.060   3.609   0.686 -0.4000  0.9751  2.1636
  264SOL    HW2 1055   2.177   3.561   0.769  0.2963 -0.9192  0.1803
  264SOL     MW 1056   2.107   3.544   0.720 -0.3224  0.1938  0.6336
  265SOL     OW 1057   3.617   3.316   3.406  0.3003 -0.0112  0.5801
  265SOL    HW1 1058   3.522   3.321   3.396  0.4625  1.3620 -0.7815
  265SOL    HW2 1059   3.633   3.340   3.497 -0.6304  0.4594  0.6364
  265SOL     MW 1060   3.607   3.320   3.416  0.2019  0.2248  0.4130
  266SOL     OW 1061   5.191   1.617   3.479 -0.1563 -0.1180 -0.7136
  266SOL    HW1 1062   5.175   1.533   3.524 -1.1145 -0.3306 -1.4200
  266SOL    HW2 1063   5.285   1.617   3.461 -0.2381 -1.3079 -1.2167
  266SOL     MW 1064   5.201   1.606   3.483 -0.2895 -0.2975 -0.8684
  267SOL     OW 1065   4.005   0.252   0.378  0.2289  0.0095 -0.4735
  267SOL    HW1 1066   4.096   0.236   0.403  0.1279 -0.1111 -0.1808
  267SOL    HW2 1067   3.954   0.191   0.431  0.0433 -0.6247 -1.3516
  267SOL     MW 1068   4.010   0.242   0.388  0.1922 -0.0872 -0.5484
  268SOL     OW 1069   0.072   0.770   2.750 -0.3126  0.5534 -0.0325
  268SOL    HW1 1070  -0.017   0.783   2.717  0.2288  1.4693 -1.2063
  268SOL    HW2 1071   0.127   0.818   2.688  0.9590  0.3643  0.9282
  268SOL     MW 1072   0.067   0.778   2.738 -0.0805  0.6465 -0.0597
  269SOL     OW 1073   5.304   3.773   0.300  0.4616 -0.1709 -0.2400
  269SOL    HW1 1074   5.269   3.786   0.211 -0.8977 -0.3359  0.2507
  269SOL    HW2 1075   5.399   3.777   0.289  0.3200 -0.3896 -1.7385
  269SOL     MW 1076   5.312   3.775   0.287  0.2695 -0.2200 -0.3690
  270SOL     OW 1077   5.451   3.254   5.438 -0.5026 -0.1158 -0.3290
  270SOL    HW1 1078   5.522   3.315   5.455  0.2620 -1.1585  0.3253
  270SOL    HW2 1079   5.375   3.294   5.480  0.1432  0.0725  0.7045
  270SOL     MW 1080   5.450   3.267   5.445 -0.3221 -0.2252 -0.1129
  271SOL     OW 1081   3.884   1.949   2.491  0.1853 -0.0028 -0.4494
  271SOL    HW1 1082   3.796   1.978   2.464  0.1453 -0.6529 -1.0395
  271SOL    HW2 1083   3.880   1.853   2.486  0.4094 -0.1301  1.1836
  271SOL     MW 1084   3.872   1.940   2.487  0.2089 -0.1023 -0.3159
  272SOL     OW 1085   3.013   1.772   0.231  0.0849 -0.2821  0.1450
  272SOL    HW1 1086   2.997   1.678   0.226  0.3884 -0.4452  1.6972
  272SOL    HW2 1087   3.030   1.788   0.324 -0.0865  1.3280 -0.0800
  272SOL     MW 1088   3.013   1.762   0.242  0.1018 -0.0969  0.3149
  273SOL     OW 1089   3.329   1.691   2.914 -0.0150 -0.0060  0.0815
  273SOL    HW1 1090   3.362   1.770   2.872  1.9028 -0.6136  0.3447
  273SOL    HW2 1091   3.373   1.689   2.999  0.8709 -1.9066 -0.3741
  273SOL     MW 1092   3.339   1.701   2.920  0.3439 -0.3271  0.0569
  274SOL     OW 1093   0.212   2.297   3.049  0.3831 -0.4739 -0.9583
  274SOL    HW1 1094   0.201   2.354   3.125  2.5224 -0.4742 -0.5886
  274SOL    HW2 1095   0.164   2.340   2.979 -1.9264 -0.6463  0.4209
  274SOL     MW 1096   0.204   2.309   3.049  0.3613 -0.4960 -0.7344
  275SOL     OW 1097   2.225   1.935   1.692  0.4933 -0.2154 -0.3240
  275SOL    HW1 1098   2.141   1.909   1.729  1.1263 -0.4658  1.0117
  275SOL    HW2 1099   2.203   1.998   1.623 -0.7259  0.8373  0.9640
  275SOL     MW 1100   2.212   1.940   1.688  0.4182 -0.1127  0.0119
  276SOL     OW 1101   3.355   0.591   4.281  0.5034 -0.2605  0.1817
  276SOL    HW1 1102   3.450   0.580   4.276  0.9044  2.3092  0.8652
  276SOL    HW2 1103   3.339   0.619   4.371 -0.8327 -0.1053 -0.0893
  276SOL     MW 1104   3.365   0.593   4.292  0.3837  0.0883  0.2345
  277SOL     OW 1105   2.866   2.982   5.394  0.7651  0.2765 -0.9959
  277SOL    HW1 1106   2.773   2.977   5.415  0.8681  0.5444 -0.4471
  277SOL    HW2 1107   2.890   3.073   5.413  1.1515  0.1907 -1.0687
  277SOL     MW 1108   2.857   2.993   5.399  0.8278  0.2998 -0.9349
  278SOL     OW 1109   1.870   2.870   4.254 -0.0641 -0.5595 -0.0008
  278SOL    HW1 1110   1.781   2.872   4.217 -0.4636  1.1801  0.9496
  278SOL    HW2 1111   1.927   2.863   4.178 -0.9741 -0.2984 -0.7367
  278SOL     MW 1112   1.866   2.869   4.240 -0.2317 -0.3034  0.0266
  279SOL     OW 1113   2.728   5.052   1.972  0.1911 -0.0714 -0.9849
  279SOL    HW1 1114   2.686   5.136   1.951 -0.0202 -0.3553 -1.6989
  279SOL    HW2 1115   2.714   5.042   2.066 -0.3843  0.3649 -1.0196
  279SOL     MW 1116   2.721   5.062   1.982  0.0904 -0.0519 -1.0808
  280SOL     OW 1117   2.309   1.722   1.528 -0.3596 -0.5973 -0.1542
  280SOL    HW1 1118   2.270   1.795   1.576 -1.0490 -0.7943 -0.3971
  280SOL    HW2 1119   2.286   1.738   1.436  3.4416  1.3908 -0.9521
  280SOL     MW 1120   2.301   1.733   1.522  0.0387 -0.3680 -0.2874
  281SOL     OW 1121   4.785   1.169   2.167 -0.1749 -0.0106 -0.2947
  281SOL    HW1 1122   4.836   1.097   2.205  2.2044  1.2087 -0.9842
  281SOL    HW2 1123   4.737   1.206   2.241  2.8412  1.0687  1.3164
  281SOL     MW 1124   4.785   1.165   2.181  0.5158  0.2836 -0.1768
  282SOL     OW 1125   3.315   2.132   0.007 -0.4171  0.2434 -0.1541
  282SOL    HW1 1126   3.268   2.096   0.082  1.2918  0.6117  1.1433
  282SOL    HW2 1127   3.296   2.072  -0.065 -0.5153 -1.2349  1.0589
  282SOL     MW 1128   3.306   2.120   0.007 -0.2109  0.1013  0.1673
  283SOL     OW 1129   3.082   2.312   3.529 -0.2061  0.3027 -0.1080
  283SOL    HW1 1130   3.043   2.399   3.536 -0.1734  0.3534 -0.5357
  283SOL    HW2 1131   3.153   2.323   3.466  0.4087  0.1805  0.5484
  283SOL     MW 1132   3.086   2.325   3.522 -0.1232  0.2935 -0.0787
  284SOL     OW 1133   1.923   3.825   2.079 -0.3617  0.5366  0.0753
  284SOL    HW1 1134   1.899   3.741   2.040 -0.0169  0.7873 -0.7070
  284SOL    HW2 1135   2.000   3.853   2.029  0.1257  0.8554  0.9759
  284SOL     MW 1136   1.930   3.817   2.067 -0.2551  0.6095  0.0905
  285SOL     OW 1137   3.124   3.589   0.375 -0.2314  0.7498  0.2448
  285SOL    HW1 1138   3.106   3.495   0.388 -0.1954  0.5903 -0.7828
  285SOL    HW2 1139   3.104   3.604   0.283  0.9429  1.4845  0.0937
  285SOL     MW 1140   3.119   3.579   0.365 -0.0765  0.8234  0.0939
  286SOL     OW 1141   4.983   4.139   1.812 -0.0838 -0.0165  0.1975
  286SOL    HW1 1142   4.931   4.204   1.765 -0.3387  0.2184  0.7898
  286SOL    HW2 1143   4.943   4.055   1.791 -0.4209  0.1223  0.2860
  286SOL     MW 1144   4.971   4.137   1.803 -0.1596  0.0313  0.2846
  287SOL     OW 1145   2.719   4.689   2.233 -0.1550 -0.3074  0.1708
  287SOL    HW1 1146   2.789   4.625   2.247 -0.9108 -1.1204  0.3062
  287SOL    HW2 1147   2.644   4.653   2.280 -1.4063 -0.7581 -2.0529
  287SOL     MW 1148   2.719   4.676   2.241 -0.4119 -0.4691 -0.0965
  288SOL     OW 1149   1.572   2.019   5.191  0.5422 -0.0680 -0.2344
  288SOL    HW1 1150   1.657   2.057   5.213  0.7298 -0.3170 -0.5279
  288SOL    HW2 1151   1.515   2.095   5.178  0.8975  0.1166 -0.7424
  288SOL     MW 1152   1.575   2.033   5.192  0.6117 -0.0763 -0.3370
  289SOL     OW 1153   2.422   0.898   2.591  0.4392 -0.1390  0.1051
  289SOL    HW1 1154   2.428   0.950   2.511 -1.4841  1.1179  0.7267
  289SOL    HW2 1155   2.389   0.813   2.562  1.9266 -0.4888 -0.6863
  289SOL     MW 1156   2.419   0.894   2.577  0.3834 -0.0229  0.0834
  290SOL     OW 1157   3.656   1.130   4.546  0.1091  0.6825  0.1347
  290SOL    HW1 1158   3.581   1.084   4.584  0.3597 -0.4844 -0.7162
  290SOL    HW2 1159   3.669   1.206   4.602 -1.6390  0.8486  0.3664
  290SOL     MW 1160   3.648   1.134   4.558 -0.0826  0.5544  0.0554
  291SOL     OW 1161   2.949   2.048   1.921  0.1859 -0.1705  0.1725
  291SOL    HW1 1162   3.031   1.999   1.922 -1.3063 -2.9023  0.9987
  291SOL    HW2 1163   2.971   2.133   1.884  3.0311 -1.4368 -1.3308
  291SOL     MW 1164   2.962   2.053   1.916  0.3591 -0.6823  0.0859
  292SOL     OW 1165   0.033   3.544   2.020  0.3211  0.0746  0.4060
  292SOL    HW1 1166   0.081   3.460   2.021  3.6814  1.5783 -3.4352
  292SOL    HW2 1167   0.079   3.598   2.084  1.1156  0.2301 -0.2688
  292SOL     MW 1168   0.045   3.540   2.028  0.8530  0.2870 -0.1721
  293SOL     OW 1169   5.333   2.196   3.527 -0.3316  0.2030 -0.5620
  293SOL    HW1 1170   5.401   2.131   3.542 -1.2072 -0.4659  0.6570
  293SOL    HW2 1171   5.344   2.222   3.435  1.1856 -0.3031 -0.5420
  293SOL     MW 1172   5.343   2.191   3.517 -0.2495  0.0526 -0.4034
  294SOL     OW 1173   1.930   1.375   1.590  0.7701  0.4628 -0.3486
  294SOL    HW1 1174   1.961   1.402   1.504 -0.4526 -0.8499 -1.2357
  294SOL    HW2 1175   2.008   1.377   1.645  1.6036  1.1514 -1.5146
  294SOL     MW 1176   1.944   1.379   1.586  0.7203  0.3829 -0.6115
  295SOL     OW 1177   3.868   1.694   1.761 -0.1445 -0.3277 -0.1290
  295SOL    HW1 1178   3.957   1.694   1.724 -0.5653  2.6335 -1.3926
  295SOL    HW2 1179   3.824   1.623   1.714  0.7878  0.0095 -1.5836
  295SOL     MW 1180   3.874   1.685   1.750 -0.0790  0.0946 -0.4770
  296SOL     OW 1181   5.342   0.911   0.622  0.7105 -0.6710  0.4638
  296SOL    HW1 1182   5.432   0.898   0.653  1.0070  0.2684  0.0078
  296SOL    HW2 1183   5.310   0.985   0.672  0.2114 -0.9462  0.5571
  296SOL     MW 1184   5.350   0.919   0.632  0.6845 -0.5860  0.4174
  297SOL     OW 1185   2.259   1.978   3.119  0.1104 -0.4322  0.2062
  297SOL    HW1 1186   2.300   2.062   3.101  0.0906 -0.6773 -1.1510
  297SOL    HW2 1187   2.235   1.982   3.211  1.3318  0.5100  0.5239
  297SOL     MW 1188   2.262   1.989   3.128  0.2642 -0.3430  0.0731
  298SOL     OW 1189   2.573   1.401   2.183  0.2161  0.2081  0.1353
  298SOL    HW1 1190   2.537   1.359   2.261  0.5457 -0.0100  0.1707
  298SOL    HW2 1191   2.535   1.352   2.110  0.2468  0.1353  0.1680
  298SOL     MW 1192   2.563   1.389   2.184  0.2623  0.1709  0.1440
  299SOL     OW 1193   5.094   2.988   4.783  0.6432  0.2384  0.7232
  299SOL    HW1 1194   5.157   2.947   4.843 -1.1950 -0.1081  2.5397
  299SOL    HW2 1195   5.148   3.032   4.718  2.7376 -1.3150  1.2958
  299SOL     MW 1196   5.109   2.988   4.782  0.6760 -0.0048  1.0290
  300SOL     OW 1197  -0.018   2.353   1.621  0.1777 -0.2281 -0.1851
  300SOL    HW1 1198  -0.004   2.417   1.551  0.5586 -0.8746 -0.7078
  300SOL    HW2 1199   0.065   2.306   1.628  0.9098  1.2228  2.1693
  300SOL     MW 1200  -0.005   2.355   1.613  0.3202 -0.1251  0.0494
  301SOL     OW 1201   2.595   2.991   5.435 -0.0527  0.1575 -0.0519
  301SOL    HW1 1202   2.573   2.951   5.519  0.3027 -2.0434 -0.9314
  301SOL    HW2 1203   2.530   3.060   5.424 -2.1538 -1.6042  0.5966
  301SOL     MW 1204   2.584   2.994   5.444 -0.2762 -0.3498 -0.0814
  302SOL     OW 1205   0.755   1.866   5.110 -0.1275  0.4145  0.1018
  302SOL    HW1 1206   0.832   1.810   5.099 -0.1494  0.2851  0.5791
  302SOL    HW2 1207   0.687   1.826   5.056 -0.1849 -0.1026  0.5523
  302SOL     MW 1208   0.756   1.854   5.102 -0.1376  0.3318  0.2206
  303SOL     OW 1209   5.332   4.836   1.368  0.4928  0.8572 -0.3739
  303SOL    HW1 1210   5.427   4.846   1.375  0.6437  0.7535 -1.9873
  303SOL    HW2 1211   5.316   4.822   1.275 -0.9929 -0.4136  0.0296
  303SOL     MW 1212   5.343   4.836   1.357  0.3219  0.6812 -0.5288
  304SOL     OW 1213   4.331   3.669   4.552 -0.6092  0.3845 -0.0702
  304SOL    HW1 1214   4.270   3.650   4.623 -0.9149 -1.2808 -0.7122
  304SOL    HW2 1215   4.393   3.732   4.588 -3.2481  2.9370  0.3047
  304SOL     MW 1216   4.331   3.675   4.566 -0.9862  0.4981 -0.1044
  305SOL     OW 1217   2.282   3.139   2.678  0.3918 -0.2497  0.4093
  305SOL    HW1 1218   2.341   3.160   2.606  3.2926 -2.4411  1.9441
  305SOL    HW2 1219   2.199   3.117   2.635  0.8768  1.9863 -1.9128
  305SOL     MW 1220   2.279   3.139   2.663  0.8252 -0.2440  0.3085
  306SOL     OW 1221   2.604   4.150   2.432 -0.3465 -0.6415  0.2424
  306SOL    HW1 1222   2.564   4.204   2.364 -0.3108 -0.3424  0.4558
  306SOL    HW2 1223   2.548   4.163   2.509 -0.3045 -0.8614  0.3108
  306SOL     MW 1224   2.592   4.159   2.433 -0.3365 -0.6314  0.2785
  307SOL     OW 1225   3.151   1.715   1.289  0.1869 -0.1230 -0.1564
  307SOL    HW1 1226   3.075   1.662   1.267 -1.3933  2.2422 -0.7422
  307SOL    HW2 1227   3.124   1.765   1.367  1.8444 -0.5907  0.7683
  307SOL     MW 1228   3.138   1.715   1.296  0.1968  0.1199 -0.1130
  308SOL     OW 1229  -0.015   4.256   3.757  0.2825  0.2627 -0.0945
  308SOL    HW1 1230  -0.047   4.183   3.705 -1.2086  0.3482  0.6646
  308SOL    HW2 1231   0.071   4.227   3.789 -0.6653 -1.5757  0.9686
  308SOL     MW 1232  -0.008   4.243   3.755 -0.0297  0.0383  0.1388
  309SOL     OW 1233   3.059   0.192   0.586 -0.0275  0.2130 -0.3173
  309SOL    HW1 1234   3.073   0.188   0.491  0.6372  0.9569 -0.2613
  309SOL    HW2 1235   3.108   0.119   0.621  1.3580  1.0822 -0.3864
  309SOL     MW 1236   3.067   0.182   0.578  0.2350  0.4195 -0.3190
  310SOL     OW 1237   0.984   5.367   4.956 -0.5006 -0.5148 -0.2313
  310SOL    HW1 1238   1.054   5.309   4.925 -1.0063 -1.7109  0.7749
  310SOL    HW2 1239   0.965   5.337   5.045  0.1579  2.1086  0.9024
  310SOL     MW 1240   0.991   5.356   4.963 -0.4811 -0.3321  0.0426
  311SOL     OW 1241   4.248   2.163   4.220 -0.2720 -0.1437  0.5494
  311SOL    HW1 1242   4.248   2.216   4.299  0.1366  1.7639 -0.6543
  311SOL    HW2 1243   4.214   2.221   4.152  2.0073 -0.7386 -1.2527
  311SOL     MW 1244   4.244   2.177   4.221  0.0721  0.0244  0.1646
  312SOL     OW 1245   3.454   3.459   1.043 -0.6567  0.0910 -0.2766
  312SOL    HW1 1246   3.394   3.401   0.996 -0.6044  0.4127 -0.7398
  312SOL    HW2 1247   3.541   3.435   1.010 -0.3257 -1.4765  1.5190
  312SOL     MW 1248   3.457   3.448   1.033 -0.6076 -0.0685 -0.1061
  313SOL     OW 1249   1.186   2.618   2.362 -0.1721  0.0347  0.5167
  313SOL    HW1 1250   1.148   2.530   2.365 -0.3999  0.1499  1.7349
  313SOL    HW2 1251   1.224   2.630   2.450 -1.9612  1.9344  1.0935
  313SOL     MW 1252   1.186   2.608   2.374 -0.4303  0.2926  0.7465
  314SOL     OW 1253   5.007   2.719   3.560 -0.3646 -0.5608 -0.8933
  314SOL    HW1 1254   5.024   2.800   3.511 -0.3096  0.3265  0.5247
  314SOL    HW2 1255   4.920   2.692   3.532 -1.6776  1.6605  0.7358
  314SOL     MW 1256   4.998   2.726   3.550 -0.5257 -0.1628 -0.5033
  315SOL     OW 1257   5.404   4.463   0.748 -0.2530  0.1644 -0.3887
  315SOL    HW1 1258   5.466   4.530   0.775 -1.0687  0.7285  0.1243
  315SOL    HW2 1259   5.341   4.509   0.693 -1.2757  0.0202  0.6084
  315SOL     MW 1260   5.404   4.477   0.745 -0.4884  0.2181 -0.1954
  316SOL     OW 1261   4.218   0.980   0.092 -0.3443  0.2998  0.4631
  316SOL    HW1 1262   4.300   0.936   0.070 -1.2895 -0.7635 -1.1128
  316SOL    HW2 1263   4.165   0.913   0.134 -0.8556  0.6192  0.3416
  316SOL     MW 1264   4.222   0.966   0.094 -0.5307  0.2046  0.2458
  317SOL     OW 1265   5.196   0.821   0.407 -0.1426 -0.3215 -0.7313
  317SOL    HW1 1266   5.249   0.838   0.485 -1.0947 -0.5394 -0.0274
  317SOL    HW2 1267   5.207   0.900   0.354 -1.0618  0.7057  0.5415
  317SOL     MW 1268   5.204   0.834   0.410 -0.3822 -0.2179 -0.4783
  318SOL     OW 1269   5.097   4.468   4.382  0.1989 -0.1911 -0.3021
  318SOL    HW1 1270   5.165   4.483   4.447 -0.3978 -0.3140  0.3625
  318SOL    HW2 1271   5.142   4.477   4.298  1.0511 -0.3544  0.1219
  318SOL     MW 1272   5.111   4.471   4.379  0.2316 -0.2277 -0.1628
  319SOL     OW 1273   3.301   3.143   5.208  0.6630  0.0120 -0.2147
  319SOL    HW1 1274   3.395   3.128   5.203  0.5577 -0.7115 -0.0598
  319SOL    HW2 1275   3.262   3.071   5.160  0.1790  0.2337 -0.1605
  319SOL     MW 1276   3.308   3.132   5.201  0.5876 -0.0522 -0.1879
  320SOL     OW 1277   5.426   2.857   3.394 -0.0159  0.5059 -0.5409
  320SOL    HW1 1278   5.367   2.859   3.319 -1.4881  1.2272  0.6023
  320SOL    HW2 1279   5.401   2.933   3.447  1.1005  0.1145  0.6035
  320SOL     MW 1280   5.415   2.867   3.391 -0.0614  0.5481 -0.2481
  321SOL     OW 1281   2.703   4.581   3.956 -0.1341  0.1669 -0.1819
  321SOL    HW1 1282   2.726   4.489   3.970  1.4290  0.4260 -0.8688
  321SOL    HW2 1283   2.608   4.581   3.944 -0.3066 -1.2030  0.9578
  321SOL     MW 1284   2.694   4.569   3.956  0.0439  0.0247 -0.1239
  322SOL     OW 1285   2.719   3.210   0.658 -0.0139  0.0861  0.0352
  322SOL    HW1 1286   2.767   3.199   0.577  0.0027  0.0444  0.0503
  322SOL    HW2 1287   2.696   3.303   0.661 -2.5506 -0.3917 -1.4702
  322SOL     MW 1288   2.722   3.220   0.648 -0.3365  0.0196 -0.1556
  323SOL     OW 1289   2.163   1.175   1.244 -0.0540 -0.1216  0.1189
  323SOL    HW1 1290   2.219   1.120   1.189 -0.0468  1.3212 -1.4035
  323SOL    HW2 1291   2.088   1.119   1.266  0.4860 -1.0868 -0.4287
  323SOL     MW 1292   2.161   1.161   1.239  0.0161 -0.0605 -0.1461
  324SOL     OW 1293   2.327   2.890   5.236 -0.0680 -0.2188 -0.0322
  324SOL    HW1 1294   2.270   2.831   5.186 -0.2361  0.2152 -0.3618
  324SOL    HW2 1295   2.375   2.833   5.295 -1.4112 -0.5349  0.8001
  324SOL     MW 1296   2.326   2.875   5.237 -0.2615 -0.2037  0.0322
  325SOL     OW 1297   0.121   1.196   0.174 -0.4714  0.8810  0.0450
  325SOL    HW1 1298   0.108   1.279   0.221 -0.1203  0.7314  0.4147
  325SOL    HW2 1299   0.050   1.140   0.205  0.1276  0.5725  0.8927
  325SOL     MW 1300   0.111   1.199   0.184 -0.3498  0.8224  0.2008
  326SOL     OW 1301   0.591   5.102   1.053 -0.1629 -0.0567  0.0559
  326SOL    HW1 1302   0.573   5.196   1.057  2.3234  0.4586  0.2490
  326SOL    HW2 1303   0.678   5.091   1.090  0.6006 -2.1509 -2.0330
  326SOL     MW 1304   0.600   5.112   1.058  0.2531 -0.2588 -0.1868
  327SOL     OW 1305   3.808   0.017   4.456 -0.0711  0.2884 -0.3988
  327SOL    HW1 1306   3.757   0.048   4.381 -0.0676  1.9770  0.2505
  327SOL    HW2 1307   3.842  -0.068   4.429 -0.0966  0.8430 -2.2933
  327SOL     MW 1308   3.806   0.010   4.443 -0.0739  0.5756 -0.5582
  328SOL     OW 1309   1.279   3.536   4.219  0.1342  0.0921 -0.1007
  328SOL    HW1 1310   1.216   3.504   4.284  0.4201 -0.3433 -0.0312
  328SOL    HW2 1311   1.283   3.630   4.234 -1.1125  0.2588 -0.6536
  328SOL     MW 1312   1.272   3.544   4.229  0.0112  0.0577 -0.1626
  329SOL     OW 1313   5.456   1.817   3.815 -0.3371  0.3201  0.1911
  329SOL    HW1 1314   5.375   1.816   3.865 -0.7344  1.1359 -0.4251
  329SOL    HW2 1315   5.470   1.725   3.791 -0.4361 -0.0059  1.2893
  329SOL     MW 1316   5.448   1.805   3.819 -0.4006  0.3828  0.2528
  330SOL     OW 1317   3.880   3.935   1.511  0.1313 -0.0613 -0.1265
  330SOL    HW1 1318   3.812   3.960   1.573  0.7581 -0.4902  0.7461
  330SOL    HW2 1319   3.858   3.984   1.431 -1.9628 -1.2192 -0.3208
  330SOL     MW 1320   3.869   3.945   1.509 -0.0565 -0.2645 -0.0396
  331SOL     OW 1321   4.780   1.166   1.315  0.0889 -0.7587  0.6688
  331SOL    HW1 1322   4.803   1.187   1.405  1.8453  1.5691 -0.2215
  331SOL    HW2 1323   4.859   1.127   1.278  0.1526  0.3012 -0.3947
  331SOL     MW 1324   4.793   1.164   1.322  0.3219 -0.3250  0.4187
  332SOL     OW 1325   2.675   0.690   0.497  0.0533 -0.3020  0.0488
  332SOL    HW1 1326   2.672   0.785   0.497 -0.7485 -0.2560  2.3331
  332SOL    HW2 1327   2.608   0.663   0.434 -0.8284  0.6736  0.5354
  332SOL     MW 1328   2.666   0.698   0.489 -0.1622 -0.1712  0.4035
  333SOL     OW 1329   2.732   1.096   2.538 -0.3233  0.3471  0.3976
  333SOL    HW1 1330   2.683   1.013   2.544  0.1906 -0.0366 -0.4513
  333SOL    HW2 1331   2.815   1.078   2.581 -0.8450  0.9443  1.6784
  333SOL     MW 1332   2.736   1.083   2.544 -0.3243  0.3744  0.4529
  334SOL     OW 1333   0.506   4.911   2.209 -0.1140  0.3674 -0.1632
  334SOL    HW1 1334   0.493   4.816   2.199 -0.1064  0.2015  1.2055
  334SOL    HW2 1335   0.421   4.944   2.238  0.4157  0.4436  1.3872
  334SOL     MW 1336   0.493   4.903   2.212 -0.0452  0.3559  0.2105
  335SOL     OW 1337   0.772   3.898   2.072 -0.4979 -0.1483 -0.0012
  335SOL    HW1 1338   0.767   3.942   1.987  3.3275 -0.2497 -0.4699
  335SOL    HW2 1339   0.834   3.951   2.123 -2.4274 -0.2755  2.6767
  335SOL     MW 1340   0.779   3.911   2.068 -0.2552 -0.1776  0.2816
  336SOL     OW 1341   1.529   2.684   4.662  0.0358 -0.5094 -0.1532
  336SOL    HW1 1342   1.529   2.677   4.758  1.4482 -0.4822 -0.1233
  336SOL    HW2 1343   1.508   2.595   4.632 -1.2283 -0.3319  0.1663
  336SOL     MW 1344   1.527   2.671   4.671  0.0548 -0.4832 -0.1084
  337SOL     OW 1345   1.633   5.005   2.850  0.0918 -0.3377  0.0731
  337SOL    HW1 1346   1.549   5.031   2.813 -0.2744  2.3034  2.3776
  337SOL    HW2 1347   1.688   5.083   2.842  1.7877 -1.4930  0.0560
  337SOL     MW 1348   1.629   5.018   2.844  0.2620 -0.1475  0.3659
  338SOL     OW 1349   1.366   5.371   1.303  0.2562  0.2746 -0.4345
  338SOL    HW1 1350   1.403   5.450   1.265 -0.5807  1.5278  1.2526
  338SOL    HW2 1351   1.310   5.402   1.374 -0.0070 -1.8406  0.3528
  338SOL     MW 1352   1.363   5.385   1.307  0.1154  0.1642 -0.1178
  339SOL     OW 1353   4.628   2.612   4.406 -0.7450  0.2212 -0.4885
  339SOL    HW1 1354   4.638   2.596   4.312 -0.9113  0.5748 -0.5643
  339SOL    HW2 1355   4.619   2.707   4.415 -1.3088  0.1436 -0.1674
  339SOL     MW 1356   4.628   2.622   4.395 -0.8384  0.2565 -0.4571
  340SOL     OW 1357   2.632   4.973   4.064  0.1267 -0.3967 -0.6315
  340SOL    HW1 1358   2.680   5.056   4.061  0.1143 -0.4118 -2.0969
  340SOL    HW2 1359   2.563   4.987   4.129  1.6574 -0.1378  1.0028
  340SOL     MW 1360   2.629   4.985   4.072  0.3210 -0.3655 -0.6099
  341SOL     OW 1361   4.682   2.893   2.031  0.1703 -0.2670  0.0638
  341SOL    HW1 1362   4.612   2.952   2.062 -0.6991 -1.2265 -0.0343
  341SOL    HW2 1363   4.644   2.806   2.039  1.6537 -0.8722  0.7613
  341SOL     MW 1364   4.668   2.890   2.036  0.2489 -0.4673  0.1405
  342SOL     OW 1365   4.726   1.993   3.167 -0.0672  0.4335  0.4744
  342SOL    HW1 1366   4.807   1.955   3.203  0.8870  0.1967 -1.7612
  342SOL    HW2 1367   4.658   1.930   3.190  0.9041 -0.8909 -0.1379
  342SOL     MW 1368   4.728   1.980   3.175  0.1793  0.2337  0.1098
  343SOL     OW 1369   2.503   2.080   4.075 -0.0880 -0.0773  0.4954
  343SOL    HW1 1370   2.570   2.138   4.038 -2.0523  1.8937 -0.1406
  343SOL    HW2 1371   2.521   2.079   4.169  0.5238  0.8248  0.3938
  343SOL     MW 1372   2.514   2.087   4.082 -0.2611  0.2905  0.4009
  344SOL     OW 1373   0.721   4.666   5.400  0.5212  0.4862 -0.1701
  344SOL    HW1 1374   0.810   4.682   5.432  0.8570 -0.9299 -0.3346
  344SOL    HW2 1375   0.734   4.619   5.317 -0.2797 -3.5432  1.7432
  344SOL     MW 1376   0.734   4.662   5.394  0.4617 -0.2109  0.0537
  345SOL     OW 1377   2.915   2.736   0.288 -0.7186 -0.3119  0.2447
  345SOL    HW1 1378   2.902   2.689   0.370 -2.7166 -1.8686 -0.8789
  345SOL    HW2 1379   2.942   2.668   0.226  1.9349  1.0156 -0.1985
  345SOL     MW 1380   2.917   2.721   0.291 -0.6347 -0.3412  0.0442
  346SOL     OW 1381   4.908   1.172   4.054  0.0963 -0.1494  0.3820
  346SOL    HW1 1382   4.949   1.254   4.081  3.2596 -0.8875 -1.6214
  346SOL    HW2 1383   4.928   1.111   4.125 -0.6218  0.3149  1.0024
  346SOL     MW 1384   4.916   1.175   4.066  0.4093 -0.1845  0.2050
  347SOL     OW 1385   4.749   3.802   5.165 -0.7429 -0.6541 -0.0818
  347SOL    HW1 1386   4.730   3.860   5.091 -1.3333  0.2409  0.7503
  347SOL    HW2 1387   4.710   3.719   5.141 -0.1617 -0.6409 -1.1630
  347SOL     MW 1388   4.742   3.799   5.152 -0.7441 -0.5379 -0.1137
  348SOL     OW 1389   5.021   1.708   4.733  0.1437 -0.1360 -0.3002
  348SOL    HW1 1390   4.987   1.633   4.781 -0.9370  0.9767  0.7529
  348SOL    HW2 1391   4.947   1.769   4.728  0.9937  0.8798 -1.0912
  348SOL     MW 1392   5.007   1.706   4.738  0.1142  0.1365 -0.2666
  349SOL     OW 1393   3.194   3.968   5.085  0.5731 -0.2469 -0.5144
  349SOL    HW1 1394   3.268   3.998   5.033  0.6733 -0.8722 -0.7471
  349SOL    HW2 1395   3.172   3.882   5.048 -0.1303 -0.1618 -0.3081
  349SOL     MW 1396   3.200   3.961   5.074  0.4959 -0.3160 -0.5178
  350SOL     OW 1397   4.590   3.590   5.074 -0.4105 -0.3563 -0.2370
  350SOL    HW1 1398   4.615   3.509   5.119  3.5476  0.6173 -0.2936
  350SOL    HW2 1399   4.602   3.570   4.981  1.1689  0.3953 -0.2175
  350SOL     MW 1400   4.595   3.577   5.068  0.2983 -0.1355 -0.2417
  351SOL     OW 1401   2.049   0.696   3.588  0.4603 -0.1736  0.3002
  351SOL    HW1 1402   2.018   0.731   3.504  1.9812  0.1527 -0.1632
  351SOL    HW2 1403   2.118   0.757   3.615 -0.2250 -0.0819  1.9777
  351SOL     MW 1404   2.054   0.708   3.581  0.5673 -0.1201  0.4557
  352SOL     OW 1405   4.712   3.204   1.380  0.0920 -0.1221 -0.4243
  352SOL    HW1 1406   4.733   3.223   1.472 -2.7593  1.2203  0.0713
  352SOL    HW2 1407   4.696   3.109   1.378  0.8462 -0.2750  0.3085
  352SOL     MW 1408   4.712   3.194   1.392 -0.1765  0.0301 -0.2671
  353SOL     OW 1409   3.757   5.006   5.450 -0.2260  0.3235  0.0015
  353SOL    HW1 1410   3.808   4.953   5.388  0.7176  2.0844 -0.8003
  353SOL    HW2 1411   3.673   4.960   5.458  0.5379 -1.2519 -0.6722
  353SOL     MW 1412   3.753   4.993   5.443 -0.0074  0.3472 -0.1874
  354SOL     OW 1413   0.827   3.897   3.337  0.1113  0.7367  0.5116
  354SOL    HW1 1414   0.761   3.875   3.271  0.1185  1.9565  0.0597
  354SOL    HW2 1415   0.828   3.993   3.338  1.0793  0.7328  1.3177
  354SOL     MW 1416   0.819   3.907   3.328  0.2361  0.8924  0.5569
  355SOL     OW 1417   0.205   1.835   3.107 -0.5744  0.4706 -0.1450
  355SOL    HW1 1418   0.293   1.864   3.084 -0.2360  0.3230  0.9240
  355SOL    HW2 1419   0.165   1.911   3.150 -0.5198  0.1422  0.5010
  355SOL     MW 1420   0.211   1.849   3.110 -0.5241  0.4096  0.0746
  356SOL     OW 1421   5.231   2.221   4.980  0.0378  0.3193 -0.3668
  356SOL    HW1 1422   5.301   2.287   4.973  2.1880 -1.7401  0.2157
  356SOL    HW2 1423   5.258   2.152   4.919 -0.4961 -1.3373  1.2049
  356SOL     MW 1424   5.244   2.220   4.971  0.2447 -0.1564 -0.0910
  357SOL     OW 1425   5.117   3.317   0.713  0.0837 -0.4907 -0.5276
  357SOL    HW1 1426   5.159   3.362   0.641 -0.4672  1.2439  0.1824
  357SOL    HW2 1427   5.082   3.387   0.768 -2.9492 -1.7739 -0.6134
  357SOL     MW 1428   5.118   3.332   0.711 -0.3750 -0.4329 -0.4477
  358SOL     OW 1429   2.073   2.244   4.632  0.4896  0.1744  0.1181
  358SOL    HW1 1430   2.160   2.249   4.592  0.5311 -0.9204  0.0560
  358SOL    HW2 1431   2.019   2.200   4.567  0.1229 -0.0208  0.5485
  358SOL     MW 1432   2.077   2.239   4.619  0.4480  0.0093  0.1652
  359SOL     OW 1433   4.100   3.416   2.707  0.4070  0.0526 -0.0717
  359SOL    HW1 1434   4.044   3.348   2.744 -2.7122  2.3726 -0.1111
  359SOL    HW2 1435   4.116   3.387   2.617 -1.0756 -0.5443 -0.1741
  359SOL     MW 1436   4.095   3.404   2.700 -0.1821  0.2732 -0.0898
  360SOL     OW 1437   1.974   1.685   2.643  1.0465  0.3468 -0.2470
  360SOL    HW1 1438   2.051   1.741   2.641  1.8079 -0.5687  1.5234
  360SOL    HW2 1439   2.007   1.597   2.622  0.5192 -0.0796  0.6454
  360SOL     MW 1440   1.988   1.681   2.640  1.0765  0.1750  0.0939
  361SOL     OW 1441   4.683   3.203   3.744 -0.8254 -0.0989  0.2173
  361SOL    HW1 1442   4.752   3.147   3.707 -0.6053 -0.1284  0.6626
  361SOL    HW2 1443   4.636   3.146   3.805 -1.7113 -0.2806 -0.6186
  361SOL     MW 1444   4.686   3.188   3.747 -0.9107 -0.1259  0.1673
  362SOL     OW 1445   1.259   4.348   3.770 -0.5528  0.2026 -0.4720
  362SOL    HW1 1446   1.189   4.413   3.761 -0.7604 -0.1617 -1.6441
  362SOL    HW2 1447   1.213   4.265   3.787 -0.4613 -0.1354 -1.7583
  362SOL     MW 1448   1.244   4.345   3.771 -0.5677  0.1127 -0.7867
  363SOL     OW 1449   1.422   2.247   3.640 -0.3388  0.3917 -0.6225
  363SOL    HW1 1450   1.369   2.199   3.577  1.0918 -0.2802 -1.3514
  363SOL    HW2 1451   1.427   2.190   3.717 -1.4322  0.8739 -0.1720
  363SOL     MW 1452   1.416   2.234   3.642 -0.2957  0.3674 -0.6582
  364SOL     OW 1453   4.306   1.866   4.668 -0.1754 -0.1279 -0.1175
  364SOL    HW1 1454   4.323   1.852   4.575  1.0474 -0.1635  0.0959
  364SOL    HW2 1455   4.233   1.928   4.670 -0.9162 -0.9425 -1.0870
  364SOL     MW 1456   4.299   1.872   4.657 -0.1137 -0.2367 -0.2143
  365SOL     OW 1457   0.739   3.260   0.804 -0.1705  0.3324  0.7132
  365SOL    HW1 1458   0.665   3.276   0.746  0.4507 -0.4995 -0.3577
  365SOL    HW2 1459   0.806   3.322   0.774  0.0659  0.0747  0.7093
  365SOL     MW 1460   0.738   3.270   0.792 -0.0607  0.1929  0.5756
  366SOL     OW 1461   0.175   0.645   3.233 -0.4354  0.1839 -0.5240
  366SOL    HW1 1462   0.186   0.698   3.154  1.3244  0.6554 -0.0020
  366SOL    HW2 1463   0.120   0.699   3.290  1.4321  1.5738  0.0510
  366SOL     MW 1464   0.169   0.659   3.230  0.0290  0.4222 -0.3835
  367SOL     OW 1465   2.498   3.764   3.803 -0.5346  0.3642  0.3269
  367SOL    HW1 1466   2.420   3.729   3.760 -1.5395 -0.1702  2.4597
  367SOL    HW2 1467   2.471   3.781   3.894  2.1583 -1.0725  1.5278
  367SOL     MW 1468   2.485   3.762   3.809 -0.3185  0.1119  0.7537
  368SOL     OW 1469   3.713   5.173   2.671 -0.4291 -0.4847  0.3743
  368SOL    HW1 1470   3.687   5.248   2.725  0.6669 -0.0141  0.2867
  368SOL    HW2 1471   3.765   5.119   2.731  2.3628  0.9428 -0.5869
  368SOL     MW 1472   3.716   5.176   2.686  0.0686 -0.2417  0.2400
  369SOL     OW 1473   2.186   2.178   2.811 -0.0346 -0.4791 -0.4274
  369SOL    HW1 1474   2.242   2.174   2.889  0.1887 -1.2903 -0.6167
  369SOL    HW2 1475   2.122   2.247   2.830 -0.0123 -0.7038  0.4937
  369SOL     MW 1476   2.185   2.186   2.824 -0.0032 -0.6117 -0.3337
  370SOL     OW 1477   0.240   5.405   1.510 -0.1734 -0.9320  0.3072
  370SOL    HW1 1478   0.213   5.375   1.597 -1.0094 -0.6210  0.1699
  370SOL    HW2 1479   0.247   5.500   1.519  0.1585 -0.9424  0.1448
  370SOL     MW 1480   0.237   5.413   1.523 -0.2380 -0.8935  0.2688
  371SOL     OW 1481   1.917   2.588   4.894  0.0754  0.3724 -0.7768
  371SOL    HW1 1482   1.885   2.662   4.842 -1.8255 -0.8411 -1.4488
  371SOL    HW2 1483   1.873   2.511   4.856  3.0077 -1.3439 -1.0053
  371SOL     MW 1484   1.907   2.587   4.883  0.2074 -0.0027 -0.8920
  372SOL     OW 1485   4.602   3.403   3.915 -0.4714 -0.3293 -1.0409
  372SOL    HW1 1486   4.632   3.371   4.000  0.2835  0.3877 -1.0272
  372SOL    HW2 1487   4.637   3.339   3.852  1.5533  0.7100 -1.0709
  372SOL     MW 1488   4.610   3.391   3.918 -0.1156 -0.1045 -1.0430
  373SOL     OW 1489   0.552   1.343   2.418 -0.0594  0.4996 -0.0734
  373SOL    HW1 1490   0.502   1.362   2.497 -0.3031 -1.7397  0.3554
  373SOL    HW2 1491   0.643   1.344   2.446 -0.2047 -1.8827  0.6763
  373SOL     MW 1492   0.557   1.346   2.431 -0.1092 -0.0920  0.0775
  374SOL     OW 1493   2.247   2.802   4.473  0.2241 -0.0707  0.1908
  374SOL    HW1 1494   2.182   2.754   4.421  1.2915 -0.2898 -0.9782
  374SOL    HW2 1495   2.265   2.745   4.548  0.5184 -0.9136 -0.5085
  374SOL     MW 1496   2.241   2.789   4.476  0.3984 -0.2066 -0.0484
  375SOL     OW 1497   5.329   4.152   0.382 -0.2434  0.0949 -0.0817
  375SOL    HW1 1498   5.308   4.102   0.461 -1.5459 -0.0478 -0.4761
  375SOL    HW2 1499   5.391   4.097   0.335  0.4863  0.1483  0.7967
  375SOL     MW 1500   5.334   4.138   0.386 -0.3167  0.0835 -0.0198
  376SOL     OW 1501   3.847   4.101   4.032 -0.0662  0.4630 -0.0019
  376SOL    HW1 1502   3.835   4.049   4.111 -0.5973  0.9538  0.2487
  376SOL    HW2 1503   3.855   4.036   3.962  0.3609  0.0283  0.4425
  376SOL     MW 1504   3.846   4.086   4.033 -0.0795  0.4702  0.0870
  377SOL     OW 1505   0.606   1.508   4.150  0.0421  0.1281  0.7580
  377SOL    HW1 1506   0.628   1.601   4.148  1.9827 -0.3067 -0.1875
  377SOL    HW2 1507   0.683   1.465   4.186  0.0245 -1.3014 -0.7762
  377SOL     MW 1508   0.618   1.514   4.154  0.2883 -0.1105  0.4406
  378SOL     OW 1509   2.484   2.780   3.387  0.4694 -0.0342  0.3819
  378SOL    HW1 1510   2.492   2.686   3.374  0.9959  0.0065  0.4078
  378SOL    HW2 1511   2.416   2.789   3.455  0.7989 -0.4163  0.7670
  378SOL     MW 1512   2.476   2.769   3.394  0.5790 -0.0779  0.4345
  379SOL     OW 1513   4.716   5.234   4.508  0.1840  0.1588  0.3238
  379SOL    HW1 1514   4.704   5.140   4.515 -0.2675  0.0938 -1.0796
  379SOL    HW2 1515   4.811   5.245   4.496  0.1245 -0.1924 -0.4909
  379SOL     MW 1516   4.727   5.223   4.507  0.1186  0.1055  0.0398
  380SOL     OW 1517   5.062   5.238   3.701 -0.6036 -0.2635 -0.0681
  380SOL    HW1 1518   5.056   5.230   3.796 -1.0651 -3.0612 -0.2573
  380SOL    HW2 1519   4.991   5.297   3.678 -1.0554 -0.2489  1.2543
  380SOL     MW 1520   5.052   5.244   3.710 -0.7205 -0.6198  0.0770
  381SOL     OW 1521   4.775   3.677   0.419 -0.1399 -0.1897 -0.1747
  381SOL    HW1 1522   4.860   3.722   0.416  0.0307 -0.5576 -1.3395
  381SOL    HW2 1523   4.796   3.588   0.445 -0.4311  0.2370  1.6817
  381SOL     MW 1524   4.789   3.672   0.422 -0.1554 -0.1822 -0.0861
  382SOL     OW 1525   0.065   2.388   0.497  0.2592  0.0605 -0.1170
  382SOL    HW1 1526   0.039   2.328   0.568  0.1915 -0.6312 -0.7089
  382SOL    HW2 1527  -0.016   2.401   0.447  0.4476  0.0271 -0.4340
  382SOL     MW 1528   0.051   2.382   0.500  0.2746 -0.0323 -0.2334
  383SOL     OW 1529   5.192   0.312   2.184 -0.0937  0.4257 -0.6050
  383SOL    HW1 1530   5.235   0.395   2.160  2.8206 -0.5457  0.7762
  383SOL    HW2 1531   5.188   0.263   2.102 -0.0806  1.2137 -1.0838
  383SOL     MW 1532   5.197   0.317   2.170  0.2810  0.4022 -0.4895
  384SOL     OW 1533   0.056   3.877   3.995  0.3215  0.4836 -0.3338
  384SOL    HW1 1534   0.013   3.798   4.027 -0.8015  0.3722 -2.0208
  384SOL    HW2 1535  -0.014   3.930   3.958  1.2330  1.7063 -0.3930
  384SOL     MW 1536   0.042   3.874   3.994  0.2944  0.6259 -0.5573
  385SOL     OW 1537   3.007   0.450   2.570 -0.0968  0.2557  0.2769
  385SOL    HW1 1538   2.914   0.438   2.587  0.3311 -1.5320  1.5459
  385SOL    HW2 1539   3.037   0.506   2.641 -0.0248  0.1165  0.3550
  385SOL     MW 1540   2.999   0.456   2.581 -0.0328  0.0091  0.4494
  386SOL     OW 1541   3.697   4.566   0.105  0.0370 -0.3461 -0.4330
  386SOL    HW1 1542   3.741   4.625   0.166 -1.8023  0.4230  0.2029
  386SOL    HW2 1543   3.618   4.613   0.078 -0.5274 -1.7658 -1.3766
  386SOL     MW 1544   3.693   4.580   0.109 -0.2707 -0.4293 -0.4724
  387SOL     OW 1545   1.453   4.391   2.485  0.0864 -0.0093  0.3296
  387SOL    HW1 1546   1.542   4.375   2.518  0.7944 -1.3999 -2.0010
  387SOL    HW2 1547   1.453   4.483   2.460 -0.5465  1.1785  4.0848
  387SOL     MW 1548   1.465   4.401   2.486  0.0960 -0.0352  0.5119
  388SOL     OW 1549   0.579   3.333   1.908 -0.3794 -0.1193  0.1214
  388SOL    HW1 1550   0.508   3.270   1.922 -0.8818  0.3625 -0.1730
  388SOL    HW2 1551   0.619   3.305   1.826 -0.7235  0.0468 -0.1076
  388SOL     MW 1552   0.575   3.321   1.899 -0.4878 -0.0363  0.0544
  389SOL     OW 1553   4.897   2.948   3.988  0.0726  0.3988 -0.1444
  389SOL    HW1 1554   4.965   3.013   4.009 -1.1933  1.9211 -0.5678
  389SOL    HW2 1555   4.902   2.938   3.893  0.1920 -0.0566 -0.0926
  389SOL     MW 1556   4.907   2.955   3.979 -0.0742  0.5354 -0.1919
  390SOL     OW 1557   1.800   0.151   1.903 -0.3580 -0.2286  0.0369
  390SOL    HW1 1558   1.827   0.196   1.823 -2.9270  0.7539 -0.3862
  390SOL    HW2 1559   1.795   0.219   1.969 -1.0997 -0.4700  0.2455
  390SOL     MW 1560   1.803   0.165   1.901 -0.7818 -0.1337  0.0095
  391SOL     OW 1561   1.694   3.237   2.618 -0.1230 -0.0860 -0.0313
  391SOL    HW1 1562   1.748   3.300   2.570  0.9285 -1.4953 -0.7377
  391SOL    HW2 1563   1.610   3.238   2.572 -1.0143  2.5679  1.4417
  391SOL     MW 1564   1.690   3.245   2.606 -0.1025  0.0734  0.0668
  392SOL     OW 1565   5.268   3.198   5.227 -0.0617 -0.1823  0.2075
  392SOL    HW1 1566   5.299   3.223   5.140  1.4173 -1.8535  0.1893
  392SOL    HW2 1567   5.343   3.214   5.284 -0.8553  0.4174  1.1078
  392SOL     MW 1568   5.282   3.203   5.223  0.0260 -0.3195  0.3204
  393SOL     OW 1569   0.748   4.257   3.624  0.1975 -0.2167 -0.0246
  393SOL    HW1 1570   0.669   4.239   3.574 -0.0644 -0.5954  0.5100
  393SOL    HW2 1571   0.716   4.270   3.714  0.7717 -0.6599  0.2449
  393SOL     MW 1572   0.734   4.256   3.629  0.2374 -0.3219  0.0783
  394SOL     OW 1573   2.995   5.098   4.026  0.1150  0.6047  0.2952
  394SOL    HW1 1574   2.993   5.098   3.930 -0.1921 -0.4158  0.2877
  394SOL    HW2 1575   3.041   5.017   4.048  0.2930  0.8960  1.0182
  394SOL     MW 1576   3.001   5.088   4.016  0.0985  0.5114  0.3868
  395SOL     OW 1577   3.161   2.392   1.150  0.1673 -0.1844  0.2280
  395SOL    HW1 1578   3.233   2.445   1.114  0.6022 -2.1313 -2.0196
  395SOL    HW2 1579   3.200   2.346   1.224  0.7217  0.1352  0.1401
  395SOL     MW 1580   3.175   2.393   1.155  0.2939 -0.3927 -0.0709
  396SOL     OW 1581   1.395   1.177   5.284  0.1427 -0.5724  0.1782
  396SOL    HW1 1582   1.341   1.115   5.334 -3.5166  1.0765 -1.3443
  396SOL    HW2 1583   1.373   1.262   5.321  0.2595  0.3229 -1.7091
  396SOL     MW 1584   1.385   1.180   5.295 -0.3108 -0.2467 -0.2583
  397SOL     OW 1585   0.780   1.714   0.315  0.0238  0.3814 -0.2782
  397SOL    HW1 1586   0.814   1.767   0.388 -0.0234 -1.4637  1.1640
  397SOL    HW2 1587   0.753   1.778   0.250 -1.1909  2.2126  1.8806
  397SOL     MW 1588   0.781   1.729   0.316 -0.1378  0.3796  0.1828
  398SOL     OW 1589   5.403   3.186   1.789  0.9685 -0.4564 -0.0746
  398SOL    HW1 1590   5.325   3.237   1.813  0.8159 -0.5318 -0.4054
  398SOL    HW2 1591   5.381   3.147   1.705  0.8183 -1.6324  0.4990
  398SOL     MW 1592   5.390   3.188   1.781  0.9297 -0.6166 -0.0435
  399SOL     OW 1593   3.509   4.516   2.841  0.6060  0.4230  0.1428
  399SOL    HW1 1594   3.510   4.611   2.848 -1.7365  0.4576  0.6110
  399SOL    HW2 1595   3.438   4.488   2.898 -0.9406 -1.3475 -2.4206
  399SOL     MW 1596   3.500   4.524   2.849  0.1081  0.2008 -0.1254
  400SOL     OW 1597   4.554   0.029   1.367  0.1579 -0.2099  0.2281
  400SOL    HW1 1598   4.638   0.062   1.399  1.3817 -2.5249 -0.3146
  400SOL    HW2 1599   4.528  -0.036   1.432 -0.5418 -0.4520 -0.2869
  400SOL     MW 1600   4.562   0.025   1.379  0.2250 -0.5373  0.0927
  401SOL     OW 1601   4.013   2.707   1.525 -0.5251  0.0472 -0.4070
  401SOL    HW1 1602   4.106   2.690   1.508  0.2764  2.4644  1.0135
  401SOL    HW2 1603   3.984   2.633   1.578  0.6343 -0.6434 -0.6927
  401SOL     MW 1604   4.021   2.695   1.530 -0.2741  0.2682 -0.2618
  402SOL     OW 1605   0.774   1.634   0.625  0.2262 -0.6101  0.3685
  402SOL    HW1 1606   0.857   1.643   0.579 -0.0838  0.1411 -0.0586
  402SOL    HW2 1607   0.776   1.545   0.660  1.2040 -0.6050  0.3583
  402SOL     MW 1608   0.785   1.624   0.624  0.3117 -0.5133  0.3125
  403SOL     OW 1609   2.919   2.321   2.300  0.0938  0.4730  1.0051
  403SOL    HW1 1610   2.967   2.401   2.319  0.1757  0.1044  2.4870
  403SOL    HW2 1611   2.829   2.349   2.283  0.7603  1.1716 -1.8300
  403SOL     MW 1612   2.914   2.335   2.301  0.1896  0.5152  0.8318
  404SOL     OW 1613   2.814   4.886   1.359 -0.4790 -0.8933 -0.2459
  404SOL    HW1 1614   2.771   4.804   1.332 -0.1237 -1.0275 -0.4064
  404SOL    HW2 1615   2.744   4.951   1.357 -0.4774 -0.8989 -1.4869
  404SOL     MW 1616   2.799   4.884   1.355 -0.4333 -0.9112 -0.4253
  405SOL     OW 1617   0.423   3.760   0.144 -0.3275  0.7509 -0.2379
  405SOL    HW1 1618   0.436   3.669   0.117  0.8101  0.9537 -0.4403
  405SOL    HW2 1619   0.365   3.797   0.078 -2.2467 -0.2627  0.7905
  405SOL     MW 1620   0.417   3.753   0.132 -0.4276  0.6471 -0.1321
  406SOL     OW 1621   3.326   1.833   1.644 -0.0672  0.4685  0.0274
  406SOL    HW1 1622   3.379   1.756   1.665 -0.1322  0.8397  1.7153
  406SOL    HW2 1623   3.367   1.905   1.691 -1.5967  0.9083  0.7713
  406SOL     MW 1624   3.338   1.832   1.653 -0.2713  0.5723  0.3387
  407SOL     OW 1625   1.106   0.515   1.756  0.5580  0.0361 -0.1303
  407SOL    HW1 1626   1.037   0.535   1.693  1.0836  0.5983 -0.5413
  407SOL    HW2 1627   1.096   0.422   1.775  0.6685 -0.2424 -1.3976
  407SOL     MW 1628   1.096   0.506   1.751  0.6395  0.0724 -0.3451
  408SOL     OW 1629   3.874   3.914   3.855  0.5056  0.0688 -1.0842
  408SOL    HW1 1630   3.949   3.869   3.894  1.0330 -0.1463 -2.3053
  408SOL    HW2 1631   3.820   3.844   3.818 -1.2601  0.0538  1.3013
  408SOL     MW 1632   3.876   3.899   3.855  0.3471  0.0394 -0.9351
  409SOL     OW 1633   1.640   2.355   0.377  0.1466 -0.0122  1.1164
  409SOL    HW1 1634   1.632   2.314   0.463 -0.4193  0.5638  1.3521
  409SOL    HW2 1635   1.666   2.285   0.319 -0.5575 -0.6557  1.5541
  409SOL     MW 1636   1.642   2.341   0.381 -0.0160 -0.0208  1.2026
  410SOL     OW 1637   0.107   4.037   2.022 -0.2179 -0.1681  0.3877
  410SOL    HW1 1638   0.171   4.041   1.951  1.8134  0.7349  2.1780
  410SOL    HW2 1639   0.108   4.124   2.060 -2.9086  0.0263  0.2308
  410SOL     MW 1640   0.115   4.049   2.017 -0.3023 -0.0276  0.5968
  411SOL     OW 1641   0.415   2.873   1.441  0.5628 -0.1711 -0.0972
  411SOL    HW1 1642   0.400   2.965   1.461  1.4963  0.1833 -0.9479
  411SOL    HW2 1643   0.364   2.825   1.506  1.8538  0.9310  1.8136
  411SOL     MW 1644   0.406   2.879   1.452  0.8476  0.0153  0.0385
  412SOL     OW 1645   3.591   1.924   0.218  0.1328  0.5598 -0.1057
  412SOL    HW1 1646   3.666   1.879   0.258  2.6118  2.5293 -2.1328
  412SOL    HW2 1647   3.552   1.974   0.290  0.6572 -0.6362  1.0510
  412SOL     MW 1648   3.596   1.925   0.233  0.5173  0.6588 -0.2171
  413SOL     OW 1649   0.097   2.933   3.754  0.3309  0.8079  0.3724
  413SOL    HW1 1650   0.157   2.876   3.707  2.3256  1.9380  1.4249
  413SOL    HW2 1651   0.012   2.890   3.745  0.4720  0.9381 -4.2315
  413SOL     MW 1652   0.094   2.920   3.747  0.6043  0.9692 -0.0822
  414SOL     OW 1653   2.595   0.938   2.793 -0.1625  0.1102  0.1234
  414SOL    HW1 1654   2.551   0.934   2.709  0.1440 -0.3920 -0.0216
  414SOL    HW2 1655   2.534   0.897   2.854 -0.1691  0.0043  0.0460
  414SOL     MW 1656   2.582   0.932   2.790 -0.1241  0.0323  0.0949
  415SOL     OW 1657   1.437   2.290   5.181  0.0945  0.3551  0.1358
  415SOL    HW1 1658   1.525   2.312   5.212 -0.4980  1.2263  1.2622
  415SOL    HW2 1659   1.436   2.321   5.090  1.4895 -1.2325 -0.4797
  415SOL     MW 1660   1.448   2.297   5.173  0.1973  0.2634  0.2012
  416SOL     OW 1661   2.344   2.310   2.604 -0.3564 -0.2939 -0.1363
  416SOL    HW1 1662   2.346   2.269   2.517 -0.9165 -1.2456  0.2842
  416SOL    HW2 1663   2.284   2.256   2.655  1.3400 -0.8685  1.3810
  416SOL     MW 1664   2.337   2.298   2.599 -0.2110 -0.4893  0.1118
  417SOL     OW 1665   2.953   0.539   1.950 -0.1418 -0.0348  0.7621
  417SOL    HW1 1666   2.906   0.622   1.948 -1.1307 -0.5842 -1.6464
  417SOL    HW2 1667   2.919   0.494   2.027  0.5445  1.7878  2.2326
  417SOL     MW 1668   2.943   0.544   1.960 -0.1806  0.1281  0.6420
  418SOL     OW 1669   0.701   1.296   3.783  0.3414 -0.4128 -0.5092
  418SOL    HW1 1670   0.766   1.275   3.716  0.0932 -0.4279 -0.7489
  418SOL    HW2 1671   0.628   1.237   3.763 -0.2140  0.4192 -0.9596
  418SOL     MW 1672   0.700   1.286   3.772  0.2385 -0.3082 -0.5975
  419SOL     OW 1673   2.366   0.381   3.252  0.4562 -0.1874 -0.4063
  419SOL    HW1 1674   2.419   0.308   3.283 -1.3981 -1.3430  0.2664
  419SOL    HW2 1675   2.342   0.356   3.163  1.0259  0.3230 -0.7043
  419SOL     MW 1676   2.369   0.368   3.245  0.2918 -0.2700 -0.3584
  420SOL     OW 1677   0.448   4.886   0.028 -0.1451  0.3606  0.3118
  420SOL    HW1 1678   0.482   4.831   0.099 -1.5495 -0.4275  0.4036
  420SOL    HW2 1679   0.519   4.888  -0.036  0.1473 -1.1430  0.5353
  420SOL     MW 1680   0.461   4.879   0.029 -0.2874  0.0672  0.3522
  421SOL     OW 1681   3.977   4.927   3.459 -0.3815 -0.4009  0.0073
  421SOL    HW1 1682   4.065   4.893   3.445 -0.1214  0.9742 -2.0062
  421SOL    HW2 1683   3.922   4.849   3.465  0.8345 -1.2568  0.4464
  421SOL     MW 1684   3.981   4.913   3.458 -0.1925 -0.3345 -0.1943
  422SOL     OW 1685   2.005   4.272   2.131 -0.2533  0.1732  0.1818
  422SOL    HW1 1686   2.014   4.269   2.226 -1.2578  1.9252  0.3932
  422SOL    HW2 1687   1.931   4.215   2.112  0.9740 -1.4936  0.2295
  422SOL     MW 1688   1.996   4.265   2.140 -0.2248  0.1841  0.2150
  423SOL     OW 1689   1.255   0.271   0.351 -0.8342 -0.3037 -1.1170
  423SOL    HW1 1690   1.334   0.226   0.384 -1.0886  0.7049  1.0627
  423SOL    HW2 1691   1.289   0.345   0.301 -0.4174 -0.8673 -1.6856
  423SOL     MW 1692   1.270   0.275   0.349 -0.8134 -0.2468 -0.9107
  424SOL     OW 1693   4.606   3.098   3.336  0.4600  0.2190 -0.4435
  424SOL    HW1 1694   4.700   3.114   3.342  0.5329 -0.4740  0.6366
  424SOL    HW2 1695   4.569   3.146   3.410 -0.1081  0.8944 -1.1448
  424SOL     MW 1696   4.613   3.106   3.346  0.3966  0.2168 -0.3950
  425SOL     OW 1697   1.988   1.587   1.996 -0.6254 -0.4081 -0.2103
  425SOL    HW1 1698   1.914   1.562   2.051 -0.6530  1.4081  0.6437
  425SOL    HW2 1699   2.062   1.539   2.032 -0.8533 -0.0471  0.7618
  425SOL     MW 1700   1.988   1.577   2.007 -0.6581 -0.1294  0.0234
  426SOL     OW 1701   5.267   3.191   3.852  0.3663  0.1720 -0.2365
  426SOL    HW1 1702   5.360   3.210   3.867  0.3495 -0.4719  0.7370
  426SOL    HW2 1703   5.256   3.101   3.881 -0.3967 -0.0323 -1.1364
  426SOL     MW 1704   5.278   3.182   3.858  0.2664  0.0634 -0.2271
  427SOL     OW 1705   4.148   3.396   4.607  0.0789 -0.8061  0.1329
  427SOL    HW1 1706   4.123   3.442   4.527 -0.5183  1.0984  1.3661
  427SOL    HW2 1707   4.147   3.303   4.582 -0.5248 -0.2966 -1.9305
  427SOL     MW 1708   4.145   3.390   4.594 -0.0748 -0.4970  0.0267
  428SOL     OW 1709   0.225   4.415   4.159  0.0095  0.2869 -0.1552
  428SOL    HW1 1710   0.284   4.379   4.093 -1.0510 -0.7723 -0.5729
  428SOL    HW2 1711   0.221   4.509   4.140  1.2764  0.3223 -0.3184
  428SOL     MW 1712   0.232   4.422   4.148  0.0359  0.1559 -0.2295
  429SOL     OW 1713   1.944   5.345   3.257  0.2774 -1.0009  0.2838
  429SOL    HW1 1714   1.850   5.326   3.258  0.3297 -1.3079 -0.2336
  429SOL    HW2 1715   1.953   5.423   3.311 -0.2893 -0.9006  0.2442
  429SOL     MW 1716   1.933   5.352   3.264  0.2115 -1.0273  0.2125
  430SOL     OW 1717   0.791   3.671   0.163  0.1195  0.5322  0.5297
  430SOL    HW1 1718   0.764   3.586   0.128  2.4309  0.1634 -0.5726
  430SOL    HW2 1719   0.747   3.735   0.107  0.3515  0.0015 -0.2748
  430SOL     MW 1720   0.782   3.668   0.151  0.4451  0.4171  0.2856
  431SOL     OW 1721   2.465   2.441   3.826  0.2119  0.4158  0.1583
  431SOL    HW1 1722   2.417   2.521   3.844  0.0512  0.0706  1.3152
  431SOL    HW2 1723   2.419   2.373   3.876  0.2674 -0.4315 -0.8908
  431SOL     MW 1724   2.453   2.442   3.834  0.1984  0.2631  0.1721
  432SOL     OW 1725   0.311   4.004   0.673  0.3845 -0.2141  0.1912
  432SOL    HW1 1726   0.217   4.018   0.687  0.1600 -0.0722 -1.3131
  432SOL    HW2 1727   0.331   3.924   0.723 -0.0191  0.9549  2.3572
  432SOL     MW 1728   0.302   3.996   0.681  0.3041 -0.0463  0.2759
  433SOL     OW 1729   4.378   2.665   0.696  0.1735  0.1475 -0.1805
  433SOL    HW1 1730   4.353   2.681   0.605  1.0290  1.5018 -0.2152
  433SOL    HW2 1731   4.297   2.680   0.746 -0.1518  0.0271 -0.6703
  433SOL     MW 1732   4.365   2.669   0.691  0.2414  0.3055 -0.2476
  434SOL     OW 1733   4.735   1.510   0.432  0.0150 -0.2673 -0.4322
  434SOL    HW1 1734   4.731   1.567   0.355 -0.6850 -1.3406 -1.2336
  434SOL    HW2 1735   4.694   1.561   0.502 -1.1536 -0.0024 -1.2770
  434SOL     MW 1736   4.729   1.524   0.431 -0.2242 -0.3708 -0.6430
  435SOL     OW 1737   2.816   4.625   0.039  0.3677 -0.0866  0.0561
  435SOL    HW1 1738   2.801   4.612   0.133  0.5054 -0.8121 -0.0237
  435SOL    HW2 1739   2.730   4.650   0.005  0.8497  3.1738  0.8476
  435SOL     MW 1740   2.803   4.627   0.047  0.4470  0.2379  0.1472
  436SOL     OW 1741   3.637   5.143   0.450 -0.1943 -0.6291  0.5692
  436SOL    HW1 1742   3.732   5.143   0.446 -0.2169  0.5390 -0.5061
  436SOL    HW2 1743   3.616   5.179   0.537  0.4019  3.3377 -0.7170
  436SOL     MW 1744   3.646   5.148   0.461 -0.1208  0.0282  0.2669
  437SOL     OW 1745   0.623   2.303   1.893  0.0168 -0.1198 -0.0557
  437SOL    HW1 1746   0.542   2.253   1.905 -0.1637  0.4081  1.0674
  437SOL    HW2 1747   0.602   2.391   1.924  0.8688  0.1747 -0.2772
  437SOL     MW 1748   0.610   2.308   1.898  0.1028 -0.0146  0.0597
  438SOL     OW 1749   3.690   3.357   0.973  0.0254  0.2821 -0.1903
  438SOL    HW1 1750   3.678   3.330   1.064  1.8582 -2.0563 -0.5478
  438SOL    HW2 1751   3.763   3.420   0.975  0.0527  0.2441 -0.0350
  438SOL     MW 1752   3.698   3.362   0.985  0.2635 -0.0221 -0.2161
  439SOL     OW 1753   2.399   4.240   2.608  0.2221  0.1294 -0.4363
  439SOL    HW1 1754   2.416   4.335   2.614 -1.9768  0.7041 -2.1773
  439SOL    HW2 1755   2.441   4.204   2.686 -0.4636  2.7669  1.2845
  439SOL     MW 1756   2.407   4.248   2.619 -0.1472  0.5406 -0.4389
  440SOL     OW 1757   3.120   1.078   1.457 -0.1321  0.3099 -0.2250
  440SOL    HW1 1758   3.118   1.057   1.363 -2.9305 -0.2325 -0.1184
  440SOL    HW2 1759   3.169   1.006   1.496  1.1610  0.5930 -1.2476
  440SOL     MW 1760   3.126   1.066   1.450 -0.3248  0.2767 -0.3422
  441SOL     OW 1761   1.646   0.810   4.637  0.1597 -0.0510  0.0801
  441SOL    HW1 1762   1.579   0.742   4.652  0.2071 -0.2048 -0.3861
  441SOL    HW2 1763   1.689   0.783   4.556 -1.3206  1.7411 -1.3734
  441SOL     MW 1764   1.643   0.798   4.629 -0.0237  0.1588 -0.1656
  442SOL     OW 1765   4.350   1.776   2.862 -0.2240  0.8016 -0.1576
  442SOL    HW1 1766   4.378   1.758   2.952 -0.4180  0.8079 -0.0944
  442SOL    HW2 1767   4.273   1.720   2.850 -0.3870  1.0341 -0.2109
  442SOL     MW 1768   4.344   1.766   2.872 -0.2697  0.8322 -0.1563
  443SOL     OW 1769   2.963   5.126   0.949  0.4775  0.4170 -0.0664
  443SOL    HW1 1770   2.933   5.076   0.873 -2.3458  0.7447  0.7052
  443SOL    HW2 1771   2.965   5.217   0.919 -1.2906  0.6316  0.3541
  443SOL     MW 1772   2.959   5.131   0.936 -0.1103  0.4864  0.0862
  444SOL     OW 1773   0.260   5.182   2.781 -0.0508 -0.6224 -0.4070
  444SOL    HW1 1774   0.323   5.227   2.725  0.2791 -0.3355  0.1912
  444SOL    HW2 1775   0.296   5.188   2.869 -1.7697  1.1058  0.2519
  444SOL     MW 1776   0.272   5.188   2.785 -0.2286 -0.3644 -0.2461
  445SOL     OW 1777   4.900   2.333   3.775  0.0218  0.4693 -0.0576
  445SOL    HW1 1778   4.984   2.315   3.732  0.0582  3.7488 -1.6323
  445SOL    HW2 1779   4.922   2.394   3.846 -0.8000 -0.4257  0.9974
  445SOL     MW 1780   4.914   2.338   3.779 -0.0787  0.7746 -0.1241
  446SOL     OW 1781   0.863   1.433   2.785 -0.0363 -0.4221  0.0568
  446SOL    HW1 1782   0.843   1.365   2.849 -2.7599  1.1187  1.0091
  446SOL    HW2 1783   0.841   1.394   2.700  0.0351 -1.2685  0.4230
  446SOL     MW 1784   0.858   1.419   2.782 -0.3758 -0.3332  0.2255
  447SOL     OW 1785   2.833   1.836   1.285  0.0025  0.4366  0.4620
  447SOL    HW1 1786   2.832   1.808   1.194  0.2664  1.2304  0.2002
  447SOL    HW2 1787   2.757   1.794   1.325 -0.6918  0.8849 -0.3734
  447SOL     MW 1788   2.823   1.827   1.279 -0.0526  0.5956  0.3215
  448SOL     OW 1789   1.742   2.982   0.460  0.2650 -0.1009  0.2938
  448SOL    HW1 1790   1.663   3.030   0.434  0.1289 -0.6455 -0.3330
  448SOL    HW2 1791   1.723   2.952   0.549  0.1549  0.5829  0.5047
  448SOL     MW 1792   1.729   2.985   0.468  0.2335 -0.0831  0.2406
  449SOL     OW 1793   1.213   0.398   2.294 -0.2839  0.4193 -0.2858
  449SOL    HW1 1794   1.202   0.313   2.251 -0.1505 -0.0939  0.6603
  449SOL    HW2 1795   1.307   0.417   2.286 -0.0842 -0.1257  0.5568
  449SOL     MW 1796   1.224   0.390   2.287 -0.2413  0.2838 -0.0568
  450SOL     OW 1797   1.880   1.850   4.807  0.1980 -0.6609  0.1441
  450SOL    HW1 1798   1.805   1.808   4.767  0.9900 -0.8014 -1.2463
  450SOL    HW2 1799   1.900   1.796   4.884 -0.5983 -1.0980  0.0497
  450SOL     MW 1800   1.873   1.838   4.812  0.1975 -0.7348 -0.0460
  451SOL     OW 1801   3.938   3.686   3.490  0.6047 -0.2011 -0.5122
  451SOL    HW1 1802   3.903   3.608   3.447 -0.1744  0.1710 -0.5715
  451SOL    HW2 1803   3.992   3.728   3.423 -0.7622  0.4833 -1.2328
  451SOL     MW 1804   3.940   3.682   3.476  0.3300 -0.0658 -0.6121
  452SOL     OW 1805   2.228   0.034   3.927 -0.2678  1.0435 -0.2791
  452SOL    HW1 1806   2.160   0.040   3.859 -0.2308 -0.9833 -0.5597
  452SOL    HW2 1807   2.310   0.051   3.881 -0.2162 -0.5911 -0.8475
  452SOL     MW 1808   2.230   0.037   3.913 -0.2565  0.5748 -0.3878
  453SOL     OW 1809   1.740   3.078   3.380  1.1981 -0.0580  0.2407
  453SOL    HW1 1810   1.686   3.111   3.452 -0.7367 -3.1087  0.3828
  453SOL    HW2 1811   1.819   3.046   3.423 -0.9909 -4.3206  1.7863
  453SOL     MW 1812   1.743   3.078   3.395  0.6702 -0.9942  0.4567
  454SOL     OW 1813   1.973   1.366   0.255  0.4350  0.2856 -0.0270
  454SOL    HW1 1814   1.994   1.278   0.222  0.3025  0.1895  0.1406
  454SOL    HW2 1815   2.036   1.380   0.326  0.9274  0.6209 -0.5242
  454SOL     MW 1816   1.984   1.356   0.260  0.4811  0.3163 -0.0692
  455SOL     OW 1817   5.248   2.633   4.351  0.6597  0.5947  0.0077
  455SOL    HW1 1818   5.314   2.590   4.297  2.0079  1.9556  0.5205
  455SOL    HW2 1819   5.294   2.657   4.431 -0.7669  0.5221  0.9018
  455SOL     MW 1820   5.262   2.630   4.355  0.6497  0.7596  0.1878
  456SOL     OW 1821   4.626   2.624   1.187  0.0398  0.0443 -0.2886
  456SOL    HW1 1822   4.581   2.624   1.103 -0.6383  1.8303  0.0346
  456SOL    HW2 1823   4.556   2.634   1.252  0.5062 -1.6906  0.5646
  456SOL     MW 1824   4.611   2.625   1.185  0.0127  0.0509 -0.1380
  457SOL     OW 1825   4.912   3.082   4.966 -0.6332 -0.2331  0.3835
  457SOL    HW1 1826   4.974   3.080   4.893 -0.3233 -0.0133  0.6432
  457SOL    HW2 1827   4.848   3.149   4.941 -1.7935 -1.6806 -0.7193
  457SOL     MW 1828   4.912   3.090   4.953 -0.7421 -0.3903  0.2756
  458SOL     OW 1829   0.816   2.336   0.511 -0.1643 -0.0047  0.5421
  458SOL    HW1 1830   0.774   2.391   0.577 -3.1689 -0.7536 -0.5766
  458SOL    HW2 1831   0.814   2.390   0.432  0.9289 -0.1148  0.4310
  458SOL     MW 1832   0.810   2.350   0.509 -0.4090 -0.1147  0.3847
  459SOL     OW 1833   0.932   0.957   1.184 -0.3268 -0.0082 -0.1815
  459SOL    HW1 1834   0.915   0.908   1.264 -2.1714  1.5372  0.4699
  459SOL    HW2 1835   0.968   1.040   1.215  4.6986 -1.4303 -1.3407
  459SOL     MW 1836   0.934   0.962   1.198  0.0804  0.0076 -0.2465
  460SOL     OW 1837   2.444   3.217  -0.016  0.4991 -0.2710 -0.1004
  460SOL    HW1 1838   2.351   3.195  -0.019  0.2617  0.7448 -0.8119
  460SOL    HW2 1839   2.456   3.261   0.068 -0.3343  2.2054 -1.1723
  460SOL     MW 1840   2.434   3.220  -0.006  0.3620  0.1761 -0.3287
  461SOL     OW 1841   2.333   0.773   5.433  0.1074  0.9026  0.3688
  461SOL    HW1 1842   2.350   0.679   5.442 -0.5660  0.8162  0.8523
  461SOL    HW2 1843   2.238   0.781   5.443  0.1430  1.6211  0.1955
  461SOL     MW 1844   2.323   0.762   5.436  0.0257  0.9835  0.4085
  462SOL     OW 1845   4.524   1.574   1.375  0.2202  0.1333  0.0708
  462SOL    HW1 1846   4.465   1.645   1.400  0.3801 -0.1675  1.3294
  462SOL    HW2 1847   4.467   1.505   1.341 -0.1010  0.0736  0.7311
  462SOL     MW 1848   4.509   1.574   1.374  0.1995  0.0871  0.3164
  463SOL     OW 1849   0.958   4.892   3.406  0.7177 -0.4650 -0.0409
  463SOL    HW1 1850   1.023   4.822   3.395  0.9782 -0.6179  1.9620
  463SOL    HW2 1851   1.009   4.973   3.406  0.8835 -0.5492  1.0069
  463SOL     MW 1852   0.973   4.893   3.405  0.7723 -0.4954  0.3496
  464SOL     OW 1853   4.067   1.992   0.038 -0.0528 -0.3941 -0.0990
  464SOL    HW1 1854   4.139   1.976  -0.022 -0.0918  0.5065 -0.3905
  464SOL    HW2 1855   3.995   1.937   0.006  0.4378 -1.1616  0.0946
  464SOL     MW 1856   4.067   1.983   0.026  0.0050 -0.3771 -0.1115
  465SOL     OW 1857   0.083   1.850   2.589  0.2040  0.0138  0.0357
  465SOL    HW1 1858   0.090   1.945   2.580  0.7351 -0.0488 -0.2429
  465SOL    HW2 1859   0.118   1.815   2.507  0.9944 -0.4472  0.5546
  465SOL     MW 1860   0.088   1.857   2.578  0.3732 -0.0532  0.0665
  466SOL     OW 1861   4.697   2.209   4.824  0.3028  0.3607 -0.2143
  466SOL    HW1 1862   4.662   2.286   4.868  1.4249 -0.1877  1.7625
  466SOL    HW2 1863   4.663   2.135   4.875  0.5893 -0.3827 -1.0714
  466SOL     MW 1864   4.688   2.209   4.836  0.4831  0.1954 -0.0710
  467SOL     OW 1865   4.305   0.667   4.718 -0.3415  0.0260  0.2541
  467SOL    HW1 1866   4.252   0.622   4.783  1.1956 -0.9553  0.8585
  467SOL    HW2 1867   4.370   0.716   4.768 -0.1413  0.5554 -0.4930
  467SOL     MW 1868   4.306   0.668   4.733 -0.1191 -0.0319  0.2358
  468SOL     OW 1869   1.562   5.161   2.226 -0.3840  1.0305  0.2267
  468SOL    HW1 1870   1.469   5.160   2.203 -0.5165  0.8410  0.7568
  468SOL    HW2 1871   1.571   5.091   2.290  0.4062  0.0806 -0.8844
  468SOL     MW 1872   1.551   5.152   2.231 -0.2998  0.8846  0.1523
  469SOL     OW 1873   4.778   1.005   1.603 -0.3993  0.8230  0.2490
  469SOL    HW1 1874   4.857   0.952   1.596  0.2927  1.8006  0.4288
  469SOL    HW2 1875   4.708   0.950   1.566  0.4210  0.0848 -0.2295
  469SOL     MW 1876   4.779   0.991   1.597 -0.2057  0.8537  0.2108
  470SOL     OW 1877   3.441   5.122   2.886 -0.0456 -0.0755 -0.0151
  470SOL    HW1 1878   3.513   5.136   2.948  1.4888 -0.4212 -1.6548
  470SOL    HW2 1879   3.379   5.067   2.934  0.6105  0.4565  1.5369
  470SOL     MW 1880   3.442   5.117   2.900  0.2348 -0.0517 -0.0264
  471SOL     OW 1881   1.426   1.036   2.642 -0.7455  0.1511  0.2564
  471SOL    HW1 1882   1.365   0.986   2.695  0.4551 -2.1384 -0.3950
  471SOL    HW2 1883   1.500   1.052   2.701 -0.6077  0.0970  0.0966
  471SOL     MW 1884   1.428   1.032   2.657 -0.5742 -0.1489  0.1526
  472SOL     OW 1885   4.603   5.102   2.184 -0.4702  0.0820  0.0207
  472SOL    HW1 1886   4.638   5.069   2.101 -0.6919  0.5729 -0.2718
  472SOL    HW2 1887   4.673   5.088   2.247  0.2141  0.9282 -0.5288
  472SOL     MW 1888   4.617   5.096   2.181 -0.4110  0.2532 -0.0871
  473SOL     OW 1889   4.679   3.682   1.731 -0.1404 -1.0051 -0.3407
  473SOL    HW1 1890   4.645   3.669   1.642 -1.3485  0.2789 -0.1180
  473SOL    HW2 1891   4.601   3.683   1.786  0.6371 -2.3357  0.8300
  473SOL     MW 1892   4.664   3.681   1.727 -0.1955 -1.0111 -0.1623
  474SOL     OW 1893   0.490   5.234   4.743 -0.0216 -0.2189  0.0610
  474SOL    HW1 1894   0.515   5.152   4.699 -0.1590  0.1872 -0.7966
  474SOL    HW2 1895   0.570   5.286   4.743 -0.3195  0.2561 -0.8055
  474SOL     MW 1896   0.503   5.230   4.737 -0.0773 -0.1061 -0.1597
  475SOL     OW 1897   5.126   0.908   4.885  0.1547  0.1263  0.1585
  475SOL    HW1 1898   5.117   0.972   4.814  0.5563 -0.5329 -0.5128
  475SOL    HW2 1899   5.219   0.911   4.907  0.4892 -1.2627 -0.9139
  475SOL     MW 1900   5.137   0.917   4.878  0.2490 -0.1359 -0.0647
  476SOL     OW 1901   3.256   3.166   2.270 -0.3940  0.2232 -0.3491
  476SOL    HW1 1902   3.318   3.155   2.198 -0.5639  0.2802 -0.5068
  476SOL    HW2 1903   3.290   3.111   2.341 -0.7062 -0.5438 -0.7835
  476SOL     MW 1904   3.268   3.157   2.270 -0.4557  0.1323 -0.4249
  477SOL     OW 1905   1.803   1.512   2.174 -0.0507  0.3629  0.2638
  477SOL    HW1 1906   1.802   1.603   2.203 -1.8699  0.2731  0.5817
  477SOL    HW2 1907   1.770   1.462   2.249 -0.0813 -0.4432 -0.2649
  477SOL     MW 1908   1.799   1.517   2.187 -0.2875  0.2482  0.2368
  478SOL     OW 1909   0.846   2.436   3.275 -0.5084 -0.0990 -0.1436
  478SOL    HW1 1910   0.939   2.457   3.267 -0.6531  0.4538 -0.3998
  478SOL    HW2 1911   0.817   2.485   3.352 -1.2646  2.2170 -1.7847
  478SOL     MW 1912   0.854   2.445   3.284 -0.6237  0.2683 -0.3865
  479SOL     OW 1913   3.477   1.541   5.336  0.2009 -0.2256  0.1902
  479SOL    HW1 1914   3.411   1.544   5.404 -0.2196 -0.6527 -0.1874
  479SOL    HW2 1915   3.506   1.449   5.334  1.3975  0.1090  0.8987
  479SOL     MW 1916   3.472   1.529   5.344  0.3003 -0.2375  0.2326
  480SOL     OW 1917   0.193   3.336   0.395  0.1873 -0.0221 -0.0890
  480SOL    HW1 1918   0.238   3.274   0.338 -0.4763 -1.5119  0.9657
  480SOL    HW2 1919   0.108   3.351   0.352 -0.9592 -2.3505  1.1894
  480SOL     MW 1920   0.188   3.330   0.382 -0.0444 -0.5108  0.2097
  481SOL     OW 1921   4.693   1.879   1.468 -0.4638  0.0939  0.0210
  481SOL    HW1 1922   4.633   1.842   1.404 -0.8334 -0.5111  0.6918
  481SOL    HW2 1923   4.665   1.840   1.551 -0.3604  1.2867  0.6319
  481SOL     MW 1924   4.682   1.869   1.471 -0.4979  0.1691  0.1851
  482SOL     OW 1925   2.049   4.675   0.147  0.2938  0.1802  0.1711
  482SOL    HW1 1926   2.105   4.695   0.072 -1.8225 -0.8718 -1.8115
  482SOL    HW2 1927   2.107   4.629   0.208  1.2457 -2.9307 -2.7622
  482SOL     MW 1928   2.064   4.671   0.145  0.1448 -0.3527 -0.4582
  483SOL     OW 1929   1.669   1.356   1.817 -0.4103 -0.4420  0.7764
  483SOL    HW1 1930   1.727   1.430   1.796 -0.8483 -0.2030  0.3870
  483SOL    HW2 1931   1.606   1.354   1.745  0.5380 -2.1865 -0.0655
  483SOL     MW 1932   1.668   1.365   1.805 -0.3449 -0.6347  0.6188
  484SOL     OW 1933   4.117   0.230   0.817  0.0026  0.0652 -0.4755
  484SOL    HW1 1934   4.094   0.168   0.886  1.4239 -0.5420 -0.5166
  484SOL    HW2 1935   4.115   0.315   0.860 -1.8989  0.0348 -0.4024
  484SOL     MW 1936   4.113   0.233   0.831 -0.0589 -0.0164 -0.4714
  485SOL     OW 1937   4.219   2.230   1.848 -0.4245  0.0948 -0.6108
  485SOL    HW1 1938   4.226   2.274   1.932 -1.4438 -0.9238  0.0370
  485SOL    HW2 1939   4.171   2.149   1.867 -0.8540 -0.0596 -2.1933
  485SOL     MW 1940   4.213   2.225   1.861 -0.6100 -0.0554 -0.7305
  486SOL     OW 1941   2.392   5.215   3.898  0.3152  0.2275  0.0196
  486SOL    HW1 1942   2.318   5.247   3.950 -1.6563 -0.4127 -2.2006
  486SOL    HW2 1943   2.468   5.257   3.936 -1.1102  0.6000  2.7078
  486SOL     MW 1944   2.392   5.224   3.909 -0.1197  0.1932  0.0795
  487SOL     OW 1945   0.862   1.610   2.320  0.3851 -0.2672  0.2893
  487SOL    HW1 1946   0.898   1.698   2.316  1.5070 -0.7486 -0.5378
  487SOL    HW2 1947   0.811   1.609   2.401  0.5547  1.0611  0.4289
  487SOL     MW 1948   0.860   1.621   2.330  0.5504 -0.1588  0.2013
  488SOL     OW 1949   4.840   3.596   3.109  0.3227  0.2126 -0.1524
  488SOL    HW1 1950   4.788   3.606   3.029  1.0899  0.2052 -0.6671
  488SOL    HW2 1951   4.776   3.571   3.176 -0.1868 -0.9080 -1.0137
  488SOL     MW 1952   4.825   3.594   3.107  0.3557  0.0682 -0.3286
  489SOL     OW 1953   2.170  -0.003   5.437  1.1117  0.0664  0.1076
  489SOL    HW1 1954   2.154  -0.033   5.347  1.1592 -0.5081  0.2881
  489SOL    HW2 1955   2.209   0.083   5.426 -1.3976  1.2536 -0.4017
  489SOL     MW 1956   2.173   0.004   5.424  0.7966  0.1448  0.0655
  490SOL     OW 1957   2.745   0.865   3.144 -0.5733  0.8796  0.5678
  490SOL    HW1 1958   2.828   0.840   3.184 -0.4363  1.3051  0.5575
  490SOL    HW2 1959   2.721   0.946   3.189 -1.5928  0.1297  1.4229
  490SOL     MW 1960   2.753   0.872   3.155 -0.6863  0.8381  0.6759
  491SOL     OW 1961   4.904   3.329   3.046 -0.1589  0.0537 -0.0081
  491SOL    HW1 1962   4.908   3.414   3.091  0.4228  0.7660 -1.3422
  491SOL    HW2 1963   4.840   3.341   2.977 -0.5607 -0.8216  0.2003
  491SOL     MW 1964   4.897   3.341   3.043 -0.1359  0.0329 -0.1522
  492SOL     OW 1965   1.185   2.653   5.435 -0.7806 -0.5505  0.0334
  492SOL    HW1 1966   1.262   2.698   5.402 -0.9402 -0.5052 -0.2798
  492SOL    HW2 1967   1.194   2.656   5.530 -1.1676  0.7934  0.0438
  492SOL     MW 1968   1.196   2.659   5.443 -0.8506 -0.3727 -0.0053
  493SOL     OW 1969   5.034   0.124   0.181  0.0809 -0.0022  0.3833
  493SOL    HW1 1970   5.037   0.055   0.116 -0.5341 -0.4727  0.8414
  493SOL    HW2 1971   4.991   0.084   0.257 -2.6107  1.5605 -0.2056
  493SOL     MW 1972   5.029   0.110   0.182 -0.3424  0.1376  0.3666
  494SOL     OW 1973   1.957   0.259   3.235 -0.3020  0.1415 -0.1140
  494SOL    HW1 1974   2.005   0.327   3.281  0.8865 -0.9994  0.3852
  494SOL    HW2 1975   1.934   0.195   3.302 -0.3474 -0.5472 -0.7627
  494SOL     MW 1976   1.960   0.259   3.249 -0.1556 -0.0927 -0.1331
  495SOL     OW 1977   5.129   5.111   4.563 -0.1372  0.0193 -0.5430
  495SOL    HW1 1978   5.107   5.089   4.654 -0.9586 -0.2608 -0.7960
  495SOL    HW2 1979   5.223   5.095   4.557 -0.0379  0.1956  0.3004
  495SOL     MW 1980   5.138   5.106   4.574 -0.2297  0.0060 -0.4674
  496SOL     OW 1981   4.068   2.855   4.053 -0.0450  0.3579 -0.0451
  496SOL    HW1 1982   4.046   2.939   4.014  1.2397  1.0475  0.6500
  496SOL    HW2 1983   4.023   2.791   3.999 -0.7148  1.4644 -0.8372
  496SOL     MW 1984   4.060   2.858   4.041  0.0337  0.5878 -0.0575
  497SOL     OW 1985   1.507   3.652   3.272 -0.4593 -0.5273  0.1601
  497SOL    HW1 1986   1.542   3.578   3.222 -0.0396 -0.6096  0.5730
  497SOL    HW2 1987   1.456   3.612   3.342  1.1095 -0.4812  1.3778
  497SOL     MW 1988   1.505   3.637   3.274 -0.2048 -0.5319  0.3688
  498SOL     OW 1989   0.401   1.927   5.323 -0.1760  0.0836 -0.2477
  498SOL    HW1 1990   0.452   1.954   5.399  1.7169 -1.7517 -0.7873
  498SOL    HW2 1991   0.402   2.004   5.266 -0.9425  1.2029  1.1814
  498SOL     MW 1992   0.407   1.941   5.325 -0.0318 -0.0080 -0.1338
  499SOL     OW 1993   1.082   2.704   4.714 -0.7469  0.3050  0.5124
  499SOL    HW1 1994   1.144   2.713   4.642 -0.5708  2.2338  0.8587
  499SOL    HW2 1995   1.000   2.678   4.672 -0.4128  0.4957 -0.2771
  499SOL     MW 1996   1.080   2.702   4.700 -0.6816  0.5763  0.4556
  500SOL     OW 1997   2.994   1.269   4.700 -0.4067  0.0103 -0.1999
  500SOL    HW1 1998   2.928   1.242   4.763 -1.6211  4.1406  0.5523
  500SOL    HW2 1999   3.052   1.328   4.749  1.3798 -0.2054 -1.9066
  500SOL     MW 2000   2.993   1.273   4.714 -0.3335  0.5114 -0.3221
  501SOL     OW 2001   4.635   0.675   2.895  0.0992  0.0491  0.1268
  501SOL    HW1 2002   4.626   0.633   2.809 -1.9282  0.2235  0.1978
  501SOL    HW2 2003   4.545   0.686   2.925  0.7531  0.4928  2.0477
  501SOL     MW 2004   4.622   0.671   2.888 -0.0766  0.1282  0.3818
  502SOL     OW 2005   0.189   1.008   4.071 -1.0141 -0.1435 -0.4473
  502SOL    HW1 2006   0.253   0.940   4.091 -1.0121  0.2522  0.9809
  502SOL    HW2 2007   0.214   1.082   4.126 -0.7353  1.2299 -2.3066
  502SOL     MW 2008   0.200   1.009   4.080 -0.9782  0.0830 -0.5025
  503SOL     OW 2009   3.532   1.820   1.260  0.4611  0.1496  0.4875
  503SOL    HW1 2010   3.503   1.731   1.240  0.8245  0.0112  0.5631
  503SOL    HW2 2011   3.517   1.869   1.179 -0.1485  0.1281  0.5818
  503SOL     MW 2012   3.526   1.815   1.247  0.4296  0.1291  0.5093
  504SOL     OW 2013   4.904   2.062   0.609 -0.3466 -0.8159  0.4899
  504SOL    HW1 2014   4.899   2.064   0.705 -0.2773  0.4422  0.4800
  504SOL    HW2 2015   4.997   2.071   0.590 -0.2387 -2.1103  0.3002
  504SOL     MW 2016   4.915   2.063   0.619 -0.3239 -0.8206  0.4643
  505SOL     OW 2017   5.266   3.260   4.240  0.4483  0.6792  0.0808
  505SOL    HW1 2018   5.195   3.230   4.184 -0.0579  0.5079  0.8031
  505SOL    HW2 2019   5.235   3.245   4.329  1.8102 -0.4383  0.4118
  505SOL     MW 2020   5.253   3.254   4.244  0.5579  0.5142  0.2156
  506SOL     OW 2021   3.693   3.276   1.247 -0.4242  0.1139  0.8598
  506SOL    HW1 2022   3.753   3.330   1.298 -0.0850 -1.2710  1.9962
  506SOL    HW2 2023   3.606   3.302   1.278 -0.3745  1.2688  0.0797
  506SOL     MW 2024   3.690   3.286   1.258 -0.3744  0.0845  0.9054
  507SOL     OW 2025   3.808   4.053   3.090 -0.4646 -0.1791 -0.0144
  507SOL    HW1 2026   3.782   3.962   3.074  0.9612 -0.9287  1.5675
  507SOL    HW2 2027   3.835   4.086   3.005 -1.9745 -0.8796 -0.8049
  507SOL     MW 2028   3.808   4.045   3.077 -0.4754 -0.3647  0.0869
  508SOL     OW 2029   5.125   2.759   5.493 -0.4170  0.0999  0.2540
  508SOL    HW1 2030   5.067   2.781   5.420 -0.6079 -1.7827 -0.2164
  508SOL    HW2 2031   5.213   2.768   5.457 -0.4942 -0.0699  0.0195
  508SOL     MW 2032   5.129   2.763   5.479 -0.4513 -0.1628  0.1638
  509SOL     OW 2033   2.416   3.136   0.907  0.3028 -0.4878  0.1218
  509SOL    HW1 2034   2.366   3.123   0.826  0.2606  1.1106 -0.1390
  509SOL    HW2 2035   2.442   3.048   0.934  0.3072 -1.0492 -1.6243
  509SOL     MW 2036   2.413   3.123   0.900  0.2979 -0.3550 -0.1351
  510SOL     OW 2037   1.187   0.003   1.477 -0.1223  0.1187 -0.3683
  510SOL    HW1 2038   1.111  -0.028   1.427 -1.9212  1.4745  1.3775
  510SOL    HW2 2039   1.198   0.094   1.451 -1.3650  0.9910  1.8481
  510SOL     MW 2040   1.178   0.010   1.467 -0.5117  0.4040  0.1389
  511SOL     OW 2041   1.624  -0.014   1.451 -0.6830  0.7224  0.0806
  511SOL    HW1 2042   1.575   0.043   1.392 -0.9910 -0.4824 -0.8507
  511SOL    HW2 2043   1.712  -0.019   1.413 -0.7394  0.3343  0.0063
  511SOL     MW 2044   1.629  -0.007   1.439 -0.7296  0.5185 -0.0481
  512SOL     OW 2045   4.629   4.493   1.889  0.7476  0.5479  0.1344
  512SOL    HW1 2046   4.664   4.487   1.800 -0.7455  1.1778 -0.5297
  512SOL    HW2 2047   4.604   4.403   1.911  1.5165  0.3210  0.0908
  512SOL     MW 2048   4.630   4.480   1.880  0.6549  0.5995  0.0438
  513SOL     OW 2049   1.235   3.281   1.614 -0.1625 -0.2388  0.1854
  513SOL    HW1 2050   1.185   3.295   1.694  1.1700  1.1884  0.8277
  513SOL    HW2 2051   1.170   3.279   1.544 -1.4112 -2.0234  1.3028
  513SOL     MW 2052   1.221   3.283   1.616 -0.1518 -0.2845  0.4107
  514SOL     OW 2053   4.689   2.463   2.137 -0.5759 -0.0213  0.0243
  514SOL    HW1 2054   4.643   2.381   2.122 -0.5891 -0.2363  1.1562
  514SOL    HW2 2055   4.771   2.454   2.090 -1.0904 -0.1874 -0.8634
  514SOL     MW 2056   4.694   2.452   2.129 -0.6434 -0.0701  0.0556
  515SOL     OW 2057   5.430   1.595   4.860 -0.2446 -0.2079 -0.0280
  515SOL    HW1 2058   5.423   1.550   4.776 -1.2535 -0.4769  0.1796
  515SOL    HW2 2059   5.351   1.650   4.865  1.2214  2.0558 -0.5058
  515SOL     MW 2060   5.419   1.596   4.850 -0.1861  0.0475 -0.0626
  516SOL     OW 2061   5.263   1.857   1.490  0.5350  0.1593 -0.4069
  516SOL    HW1 2062   5.178   1.899   1.508  1.4232  2.2041 -0.7211
  516SOL    HW2 2063   5.241   1.784   1.432 -1.0032  0.7413 -0.6140
  516SOL     MW 2064   5.249   1.853   1.485  0.4518  0.4955 -0.4736
  517SOL     OW 2065   4.213   4.188   1.502  0.0617 -0.5624  0.5611
  517SOL    HW1 2066   4.141   4.240   1.466  1.1099 -0.6511 -1.8213
  517SOL    HW2 2067   4.174   4.102   1.520 -0.6518 -0.3237  0.1842
  517SOL     MW 2068   4.199   4.183   1.500  0.1046 -0.5432  0.2079
  518SOL     OW 2069   5.144   0.674   4.756  0.3546 -0.3119 -0.7927
  518SOL    HW1 2070   5.128   0.759   4.799  0.6586  0.5765 -2.3750
  518SOL    HW2 2071   5.081   0.614   4.798  1.1761  0.2921  1.4358
  518SOL     MW 2072   5.134   0.677   4.767  0.4987 -0.1208 -0.7100
  519SOL     OW 2073   4.582   0.271   2.254  0.1365  0.1771 -0.4484
  519SOL    HW1 2074   4.667   0.228   2.241  0.1394 -0.1851  0.6615
  519SOL    HW2 2075   4.520   0.199   2.260  0.2177  0.2392  1.9902
  519SOL     MW 2076   4.585   0.256   2.253  0.1473  0.1387  0.0059
  520SOL     OW 2077   4.405   1.324   2.189 -0.4489  0.2506 -0.0279
  520SOL    HW1 2078   4.401   1.252   2.126  0.8030 -0.0887  0.2510
  520SOL    HW2 2079   4.334   1.306   2.251  0.2629 -1.1491  0.4349
  520SOL     MW 2080   4.396   1.312   2.189 -0.1975  0.0280  0.0671
  521SOL     OW 2081   5.036   4.635   3.385  0.1854  0.1206 -0.0266
  521SOL    HW1 2082   5.045   4.601   3.475  1.4038  1.6033  0.4514
  521SOL    HW2 2083   5.122   4.620   3.345  0.1758  0.9858 -0.3891
  521SOL     MW 2084   5.048   4.628   3.392  0.3401  0.4211 -0.0118
  522SOL     OW 2085   3.545   4.367   1.253  0.2277 -0.1391  0.1860
  522SOL    HW1 2086   3.481   4.311   1.210 -1.6078  2.2630 -0.4411
  522SOL    HW2 2087   3.508   4.384   1.340 -0.1367  1.3533 -0.2217
  522SOL     MW 2088   3.532   4.362   1.259 -0.0539  0.3595  0.0535
  523SOL     OW 2089   1.256   1.307   4.595 -0.3501 -0.7100  0.1486
  523SOL    HW1 2090   1.308   1.336   4.520 -1.4796  0.8963 -0.0657
  523SOL    HW2 2091   1.252   1.211   4.586 -1.4196 -0.5054 -2.5306
  523SOL     MW 2092   1.262   1.298   4.584 -0.6316 -0.4782 -0.2218
  524SOL     OW 2093   5.405   3.896   2.822 -0.1139  0.4126 -0.2105
  524SOL    HW1 2094   5.333   3.908   2.883  0.1343 -2.1890  0.7100
  524SOL    HW2 2095   5.478   3.868   2.877  0.2470 -1.5593 -1.6087
  524SOL     MW 2096   5.405   3.894   2.837 -0.0359 -0.1729 -0.2717
  525SOL     OW 2097   0.865   4.843   3.009  0.0688  0.1601 -0.5040
  525SOL    HW1 2098   0.873   4.753   3.041  0.6152  0.1924 -0.5416
  525SOL    HW2 2099   0.833   4.893   3.084  1.6336  0.2951  0.0971
  525SOL     MW 2100   0.862   4.838   3.023  0.3391  0.1815 -0.4319
  526SOL     OW 2101   1.301   3.883   2.208 -0.0991 -0.1716 -0.0754
  526SOL    HW1 2102   1.296   3.891   2.303  0.1828  1.6843 -0.1694
  526SOL    HW2 2103   1.394   3.894   2.188 -0.2466  0.1733 -0.6012
  526SOL     MW 2104   1.312   3.885   2.218 -0.0819  0.1102 -0.1547
  527SOL     OW 2105   2.589   3.007   3.060 -0.1350  0.4864 -0.0960
  527SOL    HW1 2106   2.629   2.998   2.973 -1.0390  0.8318 -0.5548
  527SOL    HW2 2107   2.569   3.101   3.067 -0.6748  0.3493  0.2097
  527SOL     MW 2108   2.592   3.018   3.050 -0.3198  0.5131 -0.1156
  528SOL     OW 2109   1.074   3.514   2.197 -0.2517 -0.1114 -0.2951
  528SOL    HW1 2110   1.020   3.545   2.269 -1.3773 -0.4661 -0.9734
  528SOL    HW2 2111   1.038   3.429   2.174  1.5248 -1.0401  0.1991
  528SOL     MW 2112   1.063   3.507   2.203 -0.1684 -0.2757 -0.3187
  529SOL     OW 2113   3.523   1.344   2.918  0.1403  0.3026  0.2575
  529SOL    HW1 2114   3.549   1.254   2.897 -0.6560  0.6059 -2.4492
  529SOL    HW2 2115   3.428   1.344   2.906  0.2845  1.7847 -1.2762
  529SOL     MW 2116   3.515   1.332   2.913  0.0568  0.5312 -0.2854
  530SOL     OW 2117   1.420   0.647   4.692  0.1944  0.1112  0.0484
  530SOL    HW1 2118   1.408   0.567   4.744  0.6120 -0.0581 -0.1095
  530SOL    HW2 2119   1.444   0.615   4.605  0.9915  0.4137  0.1484
  530SOL     MW 2120   1.421   0.632   4.687  0.3499  0.1283  0.0410
  531SOL     OW 2121   5.157   3.101   1.274 -0.3256  0.6637 -0.4577
  531SOL    HW1 2122   5.112   3.143   1.348 -0.4884  0.8617 -0.6674
  531SOL    HW2 2123   5.119   3.013   1.270 -0.7926  0.8720 -0.7127
  531SOL     MW 2124   5.146   3.095   1.283 -0.4062  0.7157 -0.5172
  532SOL     OW 2125   4.673   4.672   1.297 -0.4052 -0.2550 -0.1010
  532SOL    HW1 2126   4.665   4.752   1.349  0.2895  0.3715 -0.9211
  532SOL    HW2 2127   4.586   4.633   1.300 -0.1497 -0.8415  2.4244
  532SOL     MW 2128   4.661   4.678   1.304 -0.2836 -0.2499  0.1173
  533SOL     OW 2129   4.561   2.634   4.949  0.4819 -0.2895 -0.4256
  533SOL    HW1 2130   4.568   2.586   5.032  0.1289 -1.0783 -0.8506
  533SOL    HW2 2131   4.607   2.717   4.966  0.5635 -0.5122  0.5035
  533SOL     MW 2132   4.567   2.639   4.962  0.4472 -0.4190 -0.3611
  534SOL     OW 2133   4.444   4.057   3.224  0.0648 -0.0036 -0.2990
  534SOL    HW1 2134   4.380   4.128   3.227  0.2791  0.1855 -0.2280
  534SOL    HW2 2135   4.403   3.987   3.276  0.1800  0.3344  0.2595
  534SOL     MW 2136   4.430   4.057   3.231  0.1070  0.0639 -0.2184
  535SOL     OW 2137   4.016   1.806   0.826 -0.0248 -0.3222 -0.6290
  535SOL    HW1 2138   3.944   1.775   0.881  0.2652  0.5913  0.2956
  535SOL    HW2 2139   4.067   1.727   0.807 -1.9785 -1.2432 -2.4624
  535SOL     MW 2140   4.013   1.792   0.830 -0.2378 -0.3232 -0.7453
  536SOL     OW 2141   1.881   1.025   0.721 -0.8875  1.1326  0.1093
  536SOL    HW1 2142   1.860   1.094   0.784 -0.6054  0.3742  1.0600
  536SOL    HW2 2143   1.823   1.041   0.647  0.1243  3.2124 -0.3143
  536SOL     MW 2144   1.871   1.036   0.720 -0.7219  1.3017  0.1768
  537SOL     OW 2145   3.204   3.728   4.137 -0.1061  0.4399  0.2010
  537SOL    HW1 2146   3.215   3.638   4.167  2.0864  1.0582  1.5049
  537SOL    HW2 2147   3.226   3.726   4.044  2.3275 -0.0524  0.7236
  537SOL     MW 2148   3.208   3.717   4.129  0.4861  0.4560  0.4348
  538SOL     OW 2149   4.031   1.227   1.650 -0.2257 -0.2227 -0.1854
  538SOL    HW1 2150   4.091   1.278   1.704 -1.8703 -0.7417  2.3040
  538SOL    HW2 2151   3.962   1.289   1.625 -0.6018 -0.4898  0.1779
  538SOL     MW 2152   4.030   1.242   1.653 -0.4843 -0.3233  0.1798
  539SOL     OW 2153   4.850   2.622   4.595  0.1457  0.1012 -0.3639
  539SOL    HW1 2154   4.775   2.624   4.536 -1.3935 -0.1290  1.4824
  539SOL    HW2 2155   4.882   2.712   4.598 -0.8883  0.4798 -0.2047
  539SOL     MW 2156   4.845   2.633   4.588 -0.1837  0.1202 -0.1072
  540SOL     OW 2157   1.074   0.572   0.998 -0.0661 -0.5698 -0.5508
  540SOL    HW1 2158   1.021   0.582   1.077  0.2040  0.5226 -0.4942
  540SOL    HW2 2159   1.114   0.485   1.007  0.2953 -0.2896  0.7135
  540SOL     MW 2160   1.072   0.562   1.009  0.0147 -0.3941 -0.3817
  541SOL     OW 2161   4.486   5.281   1.524 -0.1646 -0.1209  0.2461
  541SOL    HW1 2162   4.503   5.211   1.461 -0.8068  0.5848 -0.7368
  541SOL    HW2 2163   4.541   5.259   1.599 -0.0247 -1.4417 -0.2127
  541SOL     MW 2164   4.495   5.269   1.525 -0.2289 -0.1997  0.0615
  542SOL     OW 2165   4.167   1.832   2.373  0.4695 -0.2264 -0.4856
  542SOL    HW1 2166   4.121   1.912   2.347 -0.0533 -0.4303 -0.1946
  542SOL    HW2 2167   4.185   1.787   2.290  0.4576  0.0244 -0.6253
  542SOL     MW 2168   4.164   1.836   2.359  0.4010 -0.2204 -0.4662
  543SOL     OW 2169   0.446   0.782   1.772 -0.3451 -0.7602 -0.0337
  543SOL    HW1 2170   0.471   0.826   1.854 -0.2966 -0.8635  0.0066
  543SOL    HW2 2171   0.396   0.848   1.724 -1.5142 -1.1286  0.6447
  543SOL     MW 2172   0.443   0.796   1.776 -0.4886 -0.8206  0.0583
  544SOL     OW 2173   1.344   3.268   0.663  0.1434  0.3380  0.2365
  544SOL    HW1 2174   1.328   3.282   0.570  2.1417 -2.5848 -0.6634
  544SOL    HW2 2175   1.408   3.336   0.687  0.4517  0.4195 -0.7893
  544SOL     MW 2176   1.350   3.279   0.654  0.4386 -0.0257 -0.0100
  545SOL     OW 2177   4.532   4.121   2.700  0.7991  0.3763  0.3121
  545SOL    HW1 2178   4.523   4.097   2.792  0.5923  1.4342  0.5724
  545SOL    HW2 2179   4.470   4.192   2.687  1.5390  0.9068 -0.3922
  545SOL     MW 2180   4.523   4.127   2.710  0.8674  0.5796  0.2553
  546SOL     OW 2181   4.655   0.115   4.700 -0.0611  0.2914 -0.2316
  546SOL    HW1 2182   4.636   0.022   4.712  2.3913  0.0297  3.1160
  546SOL    HW2 2183   4.589   0.161   4.753 -0.7608  0.4671 -1.2201
  546SOL     MW 2184   4.644   0.109   4.708  0.1633  0.2804  0.0704
  547SOL     OW 2185   4.967   5.310   2.898 -0.1933 -0.6323  0.3030
  547SOL    HW1 2186   4.872   5.301   2.894 -0.3377  0.7851 -0.3111
  547SOL    HW2 2187   4.995   5.312   2.806  0.0908  1.5560  0.3698
  547SOL     MW 2188   4.959   5.309   2.886 -0.1754 -0.1708  0.2329
  548SOL     OW 2189   1.039   3.260   1.849 -0.3768 -0.4264 -0.5216
  548SOL    HW1 2190   1.112   3.240   1.908 -1.8751 -1.6460  1.0342
  548SOL    HW2 2191   0.991   3.178   1.841 -1.2423  0.1770 -2.0237
  548SOL     MW 2192   1.042   3.247   1.855 -0.6794 -0.5053 -0.5147
  549SOL     OW 2193   4.839   1.887   4.688 -0.3679 -0.0820 -0.4743
  549SOL    HW1 2194   4.841   1.901   4.593  1.5319 -0.3239 -0.5096
  549SOL    HW2 2195   4.751   1.853   4.705 -0.6763 -0.2433 -2.1824
  549SOL     MW 2196   4.828   1.885   4.678 -0.1642 -0.1336 -0.6975
  550SOL     OW 2197   1.624   3.770   4.293  0.4008  0.0905  0.0167
  550SOL    HW1 2198   1.541   3.816   4.282  0.5935  1.0720  2.1868
  550SOL    HW2 2199   1.620   3.698   4.230 -3.1279 -1.2867  1.5461
  550SOL     MW 2200   1.613   3.766   4.284 -0.0262  0.0399  0.4903
  551SOL     OW 2201   3.175   5.311   4.106  0.1694 -0.1324 -0.3757
  551SOL    HW1 2202   3.235   5.293   4.179 -1.0564 -0.7208  0.5334
  551SOL    HW2 2203   3.127   5.229   4.095 -1.5445  0.7859 -0.0315
  551SOL     MW 2204   3.177   5.298   4.114 -0.2069 -0.0902 -0.2152
  552SOL     OW 2205   3.236   5.062   4.779  0.4944 -0.2418  0.0538
  552SOL    HW1 2206   3.292   4.994   4.817  1.9180  1.5809  1.3728
  552SOL    HW2 2207   3.292   5.106   4.715 -0.0990  0.3233 -0.0847
  552SOL     MW 2208   3.250   5.059   4.776  0.6007  0.0639  0.2049
  553SOL     OW 2209   2.870   1.598   0.510  0.4059 -0.4903 -0.5359
  553SOL    HW1 2210   2.814   1.531   0.549 -1.4497  0.7366 -0.9380
  553SOL    HW2 2211   2.848   1.597   0.417  0.3532  0.6256 -0.5506
  553SOL     MW 2212   2.860   1.589   0.503  0.1616 -0.1904 -0.5893
  554SOL     OW 2213   2.581   4.565   4.337  0.2350 -0.2495 -0.0867
  554SOL    HW1 2214   2.606   4.498   4.273  2.0411  0.2158  0.0718
  554SOL    HW2 2215   2.588   4.520   4.422  0.0721 -0.2397 -0.0679
  554SOL     MW 2216   2.585   4.550   4.340  0.4453 -0.1887 -0.0640
  555SOL     OW 2217   3.275   3.325   4.984 -0.1419 -0.5476  0.3774
  555SOL    HW1 2218   3.294   3.298   4.895  0.4198 -1.3080  0.7241
  555SOL    HW2 2219   3.307   3.254   5.039  2.4174  1.2606  1.3998
  555SOL     MW 2220   3.281   3.313   4.980  0.2577 -0.4135  0.5527
  556SOL     OW 2221   4.761   1.641   4.958 -0.3035  0.1003 -0.2276
  556SOL    HW1 2222   4.763   1.728   4.999 -1.4464 -0.0566  0.2137
  556SOL    HW2 2223   4.677   1.639   4.911 -0.0257 -0.5576 -0.7060
  556SOL     MW 2224   4.750   1.652   4.957 -0.4142 -0.0040 -0.2323
  557SOL     OW 2225   4.911   4.042   5.128  0.1834  0.1692  0.0136
  557SOL    HW1 2226   4.892   4.037   5.034 -0.7805  2.3261  0.0439
  557SOL    HW2 2227   4.864   3.967   5.166  1.6448 -1.5001 -1.3195
  557SOL     MW 2228   4.903   4.032   5.121  0.2471  0.2316 -0.1532
  558SOL     OW 2229   2.978   2.677   1.788  0.2041  0.0493  0.3349
  558SOL    HW1 2230   2.923   2.659   1.864 -1.0531  2.0415 -0.0340
  558SOL    HW2 2231   2.968   2.600   1.732  0.9481 -1.3309  2.0018
  558SOL     MW 2232   2.970   2.665   1.791  0.1384  0.1277  0.5011
  559SOL     OW 2233   1.851   3.625   0.054 -0.1386  0.2387 -0.8764
  559SOL    HW1 2234   1.768   3.579   0.060  0.2984 -0.4489  0.2591
  559SOL    HW2 2235   1.871   3.627  -0.040 -0.4083 -1.4508 -1.0005
  559SOL     MW 2236   1.843   3.619   0.043 -0.1172 -0.0656 -0.7469
  560SOL     OW 2237   3.783   3.347   4.703  0.2781  0.2385  0.3908
  560SOL    HW1 2238   3.718   3.331   4.770  0.2007  1.5342  0.6491
  560SOL    HW2 2239   3.808   3.260   4.672 -1.2642 -0.2961  0.5683
  560SOL     MW 2240   3.778   3.334   4.707  0.0708  0.3360  0.4466
  561SOL     OW 2241   2.443   5.432   4.235 -0.1545 -0.1219  0.4252
  561SOL    HW1 2242   2.354   5.466   4.244  0.2521  0.8473  0.9443
  561SOL    HW2 2243   2.499   5.510   4.237  0.6509 -0.6299 -0.8727
  561SOL     MW 2244   2.439   5.446   4.236  0.0007 -0.0628  0.3255
  562SOL     OW 2245   1.102   2.266   1.943  0.1163  0.1115 -0.6727
  562SOL    HW1 2246   1.072   2.356   1.955  0.2960  0.1504 -0.5240
  562SOL    HW2 2247   1.033   2.225   1.889 -1.1108 -0.2863  1.0939
  562SOL     MW 2248   1.089   2.272   1.938 -0.0178  0.0655 -0.4275
  563SOL     OW 2249   3.107   0.864   4.054  0.3040 -0.1514  0.3320
  563SOL    HW1 2250   3.104   0.769   4.070  1.0936 -0.2572 -0.1178
  563SOL    HW2 2251   3.018   0.886   4.025  0.2899 -0.8692 -0.1944
  563SOL     MW 2252   3.095   0.854   4.052  0.4033 -0.2568  0.2070
  564SOL     OW 2253   3.968   0.606   0.643  0.6760 -0.0132  0.2607
  564SOL    HW1 2254   3.936   0.583   0.556  0.5832 -0.5563  0.4340
  564SOL    HW2 2255   3.900   0.663   0.679  1.0099  0.7304 -0.2551
  564SOL     MW 2256   3.955   0.610   0.637  0.7069  0.0125  0.2168
  565SOL     OW 2257   3.356   2.078   4.853 -0.2268  0.3578  0.2706
  565SOL    HW1 2258   3.284   2.112   4.906 -1.1074 -0.5661 -0.3058
  565SOL    HW2 2259   3.349   1.983   4.860 -0.5922  0.1885 -1.7489
  565SOL     MW 2260   3.346   2.071   4.861 -0.3863  0.2178 -0.0617
  566SOL     OW 2261   1.047   3.436   2.639  0.5602 -0.4856 -0.1158
  566SOL    HW1 2262   1.050   3.447   2.734  0.9009  0.9386 -0.2634
  566SOL    HW2 2263   1.004   3.351   2.626 -0.4337 -0.2380  1.2922
  566SOL     MW 2264   1.042   3.427   2.650  0.4766 -0.2716  0.0456
  567SOL     OW 2265   5.278   3.880   1.722  0.7809 -0.1592  0.2834
  567SOL    HW1 2266   5.261   3.944   1.653 -0.9594  1.2164  1.8793
  567SOL    HW2 2267   5.372   3.864   1.718  1.5474  3.4810  0.5488
  567SOL     MW 2268   5.288   3.886   1.713  0.6562  0.4829  0.5217
  568SOL     OW 2269   3.699   2.711   3.187 -0.3250  0.0551  0.0269
  568SOL    HW1 2270   3.691   2.643   3.119  0.6404 -1.2307  1.1482
  568SOL    HW2 2271   3.646   2.783   3.154 -2.0042 -1.5014 -0.8885
  568SOL     MW 2272   3.691   2.711   3.174 -0.4164 -0.3088  0.0533
  569SOL     OW 2273   3.416   4.451   1.491 -0.4333  0.2133 -0.0907
  569SOL    HW1 2274   3.487   4.456   1.555 -0.8705  1.1084  0.3488
  569SOL    HW2 2275   3.337   4.442   1.544 -0.8563  1.5623 -0.4495
  569SOL     MW 2276   3.415   4.451   1.506 -0.5434  0.5006 -0.0803
  570SOL     OW 2277   0.609   5.241   3.034  0.3167 -0.5237  0.5012
  570SOL    HW1 2278   0.669   5.246   3.109  1.2483 -2.0006 -0.0883
  570SOL    HW2 2279   0.625   5.321   2.985  1.3483 -0.5845  0.7079
  570SOL     MW 2280   0.619   5.252   3.037  0.5680 -0.7206  0.4522
  571SOL     OW 2281   4.357   2.640   1.602  0.2105 -0.6754 -0.1708
  571SOL    HW1 2282   4.314   2.695   1.667 -0.8046 -0.2706 -1.1525
  571SOL    HW2 2283   4.330   2.551   1.623 -0.9384 -0.4473 -0.6346
  571SOL     MW 2284   4.348   2.636   1.613 -0.0665 -0.5944 -0.3558
  572SOL     OW 2285   0.571   2.939   0.992  0.6931 -0.3376  0.1526
  572SOL    HW1 2286   0.559   2.911   1.083  0.1898 -0.2396  0.1184
  572SOL    HW2 2287   0.572   2.858   0.942 -3.0043 -0.3200 -0.2186
  572SOL     MW 2288   0.570   2.925   0.997  0.1554 -0.3228  0.1007
  573SOL     OW 2289   1.057   4.485   2.828  0.0914  0.5257 -0.2224
  573SOL    HW1 2290   1.145   4.468   2.795  0.3106 -0.5067  0.8036
  573SOL    HW2 2291   1.045   4.580   2.819  1.3888  0.7047 -0.2078
  573SOL     MW 2292   1.067   4.495   2.823  0.2855  0.4164 -0.0892
  574SOL     OW 2293   3.494   0.519   3.211 -0.3377  0.2442  0.3770
  574SOL    HW1 2294   3.465   0.597   3.258 -1.6883  0.5647 -0.9290
  574SOL    HW2 2295   3.564   0.551   3.154 -1.0854  0.5846 -0.3684
  574SOL     MW 2296   3.500   0.533   3.210 -0.6063  0.3288  0.1144
  575SOL     OW 2297   0.271   1.515   5.447 -0.4926  0.2892 -0.1688
  575SOL    HW1 2298   0.290   1.609   5.444  0.3323  0.1408 -0.0719
  575SOL    HW2 2299   0.323   1.479   5.375  0.3583 -0.2688  0.7045
  575SOL     MW 2300   0.280   1.522   5.437 -0.2781  0.1988 -0.0446
  576SOL     OW 2301   4.559   4.247   4.579  0.0067  0.1455  0.2176
  576SOL    HW1 2302   4.606   4.330   4.587  0.1589  0.0409  0.3990
  576SOL    HW2 2303   4.494   4.264   4.510  1.2731 -0.1657 -1.0956
  576SOL     MW 2304   4.557   4.260   4.571  0.1883  0.0923  0.0727
  577SOL     OW 2305   5.342   4.097   5.473 -0.4210  0.0378 -0.3907
  577SOL    HW1 2306   5.412   4.121   5.412 -0.7926  0.1611 -0.7791
  577SOL    HW2 2307   5.262   4.130   5.431 -0.5328  1.5416  0.9230
  577SOL     MW 2308   5.340   4.104   5.460 -0.4829  0.2461 -0.2723
  578SOL     OW 2309   1.141   4.117   1.588  0.1940  0.1833 -0.0450
  578SOL    HW1 2310   1.155   4.176   1.514  0.7080  0.0914 -0.0244
  578SOL    HW2 2311   1.221   4.064   1.592 -0.1138 -0.2715  0.1576
  578SOL     MW 2312   1.153   4.118   1.579  0.2203  0.1133 -0.0164
  579SOL     OW 2313   5.047   2.240   4.567 -0.3188  0.0185 -0.1951
  579SOL    HW1 2314   5.036   2.324   4.521  0.1879 -0.1754 -0.6761
  579SOL    HW2 2315   4.958   2.208   4.580 -0.5677  0.9699  0.6393
  579SOL     MW 2316   5.034   2.247   4.563 -0.2858  0.1155 -0.1499
  580SOL     OW 2317   1.175   3.416   0.206  0.1807 -0.5954  0.4154
  580SOL    HW1 2318   1.143   3.483   0.145 -0.5639 -0.6344  0.7665
  580SOL    HW2 2319   1.164   3.455   0.293  0.6899 -0.7790  0.5698
  580SOL     MW 2320   1.170   3.430   0.209  0.1506 -0.6239  0.4801
  581SOL     OW 2321   2.369   4.839   5.057  0.1952 -0.2073 -0.2136
  581SOL    HW1 2322   2.366   4.851   4.962  0.6166  1.5940 -0.0297
  581SOL    HW2 2323   2.462   4.835   5.078  0.1506  0.8803  0.2598
  581SOL     MW 2324   2.380   4.840   5.047  0.2434  0.1625 -0.1295
  582SOL     OW 2325   1.515   1.030   1.018 -0.0679 -0.6221  0.1897
  582SOL    HW1 2326   1.511   1.122   0.989  0.9410 -0.9774 -1.1791
  582SOL    HW2 2327   1.602   1.022   1.057 -0.9576 -0.4755  2.3451
  582SOL     MW 2328   1.526   1.041   1.019 -0.0526 -0.6488  0.2904
  583SOL     OW 2329   3.293   0.946   2.595  0.5823  0.2474 -0.0973
  583SOL    HW1 2330   3.316   1.039   2.606  0.9793  0.1215  0.1439
  583SOL    HW2 2331   3.246   0.943   2.512  3.0523  0.2197 -1.5794
  583SOL     MW 2332   3.290   0.958   2.586  0.9493  0.2277 -0.2561
  584SOL     OW 2333   1.779   0.647   4.462 -0.3772 -0.2980  0.7319
  584SOL    HW1 2334   1.839   0.627   4.535 -1.6651  0.4717  2.0515
  584SOL    HW2 2335   1.702   0.592   4.479 -1.0785  0.5969  0.4895
  584SOL     MW 2336   1.777   0.637   4.474 -0.6318 -0.0849  0.8698
  585SOL     OW 2337   4.158   2.140   0.686 -0.3645  0.4333 -0.2390
  585SOL    HW1 2338   4.162   2.234   0.670 -0.0865  0.2557 -1.3102
  585SOL    HW2 2339   4.065   2.119   0.686 -0.4100  0.6347 -0.4839
  585SOL     MW 2340   4.147   2.149   0.684 -0.3348  0.4363 -0.4075
  586SOL     OW 2341   3.660   0.477   0.405  0.4674  0.3372 -0.6081
  586SOL    HW1 2342   3.623   0.424   0.476  0.9957  0.5343 -0.1732
  586SOL    HW2 2343   3.590   0.481   0.340 -0.8184  1.7985  0.7522
  586SOL     MW 2344   3.646   0.471   0.406  0.3704  0.5495 -0.3783
  587SOL     OW 2345   3.577   4.299   4.853  0.1044  0.2639 -0.2695
  587SOL    HW1 2346   3.613   4.298   4.765  0.0543  0.2095 -0.2899
  587SOL    HW2 2347   3.650   4.275   4.910 -0.1501 -0.9404 -0.4088
  587SOL     MW 2348   3.591   4.296   4.849  0.0654  0.1028 -0.2899
  588SOL     OW 2349   4.235   0.931   3.649 -0.3232  0.0660  0.4008
  588SOL    HW1 2350   4.164   0.983   3.611  1.7902  2.6482 -0.3179
  588SOL    HW2 2351   4.274   0.989   3.715  1.4074 -1.0579  0.4322
  588SOL     MW 2352   4.231   0.945   3.653  0.1689  0.2527  0.3128
  589SOL     OW 2353   4.209   4.852   3.351 -0.2135  0.0812 -0.0839
  589SOL    HW1 2354   4.194   4.769   3.398  0.5637 -0.0556 -0.0684
  589SOL    HW2 2355   4.198   4.830   3.259 -2.8940  0.5906  0.0366
  589SOL     MW 2356   4.206   4.838   3.345 -0.4571  0.1289 -0.0665
  590SOL     OW 2357   5.002   3.752   1.016  0.0888  0.1969  0.1263
  590SOL    HW1 2358   4.909   3.755   1.038 -0.6072 -1.2139 -2.2705
  590SOL    HW2 2359   5.011   3.817   0.946  0.2806 -1.5651 -1.5363
  590SOL     MW 2360   4.991   3.761   1.010  0.0242 -0.2093 -0.3933
  591SOL     OW 2361   4.943   3.990   0.857 -0.8591 -0.4020 -0.3816
  591SOL    HW1 2362   4.881   4.001   0.929 -0.1394 -0.5911  0.2751
  591SOL    HW2 2363   4.988   4.074   0.851 -0.1470 -0.7484  0.1154
  591SOL     MW 2364   4.941   4.002   0.865 -0.6758 -0.4706 -0.2339
  592SOL     OW 2365   0.829   1.350   2.529  0.3078  0.5888  0.3950
  592SOL    HW1 2366   0.790   1.263   2.527  1.1733  0.1738  0.7858
  592SOL    HW2 2367   0.890   1.351   2.455  1.3342  0.3452  1.2177
  592SOL     MW 2368   0.832   1.339   2.519  0.5500  0.5045  0.5504
  593SOL     OW 2369   4.372   2.690   0.434  0.2481 -0.1680  0.1427
  593SOL    HW1 2370   4.432   2.637   0.381 -0.8206 -1.5086  0.2141
  593SOL    HW2 2371   4.345   2.761   0.377 -0.7438 -1.4897 -1.0864
  593SOL     MW 2372   4.376   2.692   0.420 -0.0157 -0.5088 -0.0055
  594SOL     OW 2373   4.622   5.108   4.173 -0.5703  0.1570  0.0250
  594SOL    HW1 2374   4.706   5.084   4.212  0.3159 -0.0142 -1.8857
  594SOL    HW2 2375   4.561   5.106   4.246  1.1483  0.6950  1.5559
  594SOL     MW 2376   4.625   5.104   4.187 -0.2368  0.2039 -0.0236
  595SOL     OW 2377   2.306   3.410   0.564  0.3816  0.6139 -0.0207
  595SOL    HW1 2378   2.277   3.419   0.473  0.7523  0.0564 -0.1995
  595SOL    HW2 2379   2.231   3.438   0.615  0.1937  1.0049 -0.4996
  595SOL     MW 2380   2.293   3.415   0.559  0.4050  0.5926 -0.1049
  596SOL     OW 2381   3.517   2.386   3.022 -0.0186  0.6098  0.6048
  596SOL    HW1 2382   3.596   2.439   3.012 -0.8468  2.0095  1.2729
  596SOL    HW2 2383   3.548   2.305   3.062  1.2717  0.5646 -0.4177
  596SOL     MW 2384   3.531   2.382   3.026  0.0406  0.7832  0.5595
  597SOL     OW 2385   4.105   1.154   0.518 -0.0079 -0.0435  0.0461
  597SOL    HW1 2386   4.175   1.095   0.491 -1.5705 -1.4483 -1.1041
  597SOL    HW2 2387   4.091   1.211   0.443 -0.3418 -0.0084  0.1337
  597SOL     MW 2388   4.112   1.154   0.505 -0.2507 -0.2188 -0.0899
  598SOL     OW 2389   3.149   4.621   1.361 -0.3385  0.0649 -0.0925
  598SOL    HW1 2390   3.071   4.568   1.377 -0.4376 -0.8857 -3.0696
  598SOL    HW2 2391   3.119   4.690   1.302  1.2594 -1.2087 -2.5509
  598SOL     MW 2392   3.135   4.623   1.355 -0.1467 -0.2198 -0.7883
  599SOL     OW 2393   1.636   3.443   5.388  0.3587  0.6063 -0.1051
  599SOL    HW1 2394   1.650   3.372   5.325  0.6489 -0.2215  0.8697
  599SOL    HW2 2395   1.626   3.521   5.334  1.4055  0.0469 -1.1559
  599SOL     MW 2396   1.637   3.444   5.373  0.5299  0.4287 -0.1149
  600SOL     OW 2397   2.081   0.407   4.035 -0.6382 -0.1598  0.2855
  600SOL    HW1 2398   2.083   0.456   3.953  0.2962 -0.4702  0.1038
  600SOL    HW2 2399   2.052   0.470   4.100  1.1020  0.8459  0.1691
  600SOL     MW 2400   2.078   0.421   4.033 -0.2958 -0.0708  0.2473
  601SOL     OW 2401   1.509   2.554   1.314  0.5898 -0.0031 -0.0903
  601SOL    HW1 2402   1.434   2.598   1.274  1.2311  2.7794  1.5371
  601SOL    HW2 2403   1.482   2.539   1.405  1.5900 -0.0402  0.2036
  601SOL     MW 2404   1.496   2.557   1.320  0.7999  0.3483  0.1556
  602SOL     OW 2405   1.271   4.306   5.172 -0.5421  0.4015  0.1445
  602SOL    HW1 2406   1.287   4.217   5.140 -2.5805  0.2052 -0.4708
  602SOL    HW2 2407   1.347   4.356   5.140  0.6726 -1.0862  0.5486
  602SOL     MW 2408   1.283   4.301   5.164 -0.6476  0.1859  0.1175
  603SOL     OW 2409   0.019   3.341   3.500  0.7386 -0.0265 -0.7991
  603SOL    HW1 2410   0.093   3.307   3.450  0.4819 -0.6127 -0.7862
  603SOL    HW2 2411   0.056   3.364   3.585  0.6374 -1.7875 -0.2345
  603SOL     MW 2412   0.033   3.340   3.505  0.6927 -0.3269 -0.7252
  604SOL     OW 2413   0.240   3.887   4.840 -0.0620  0.3378  0.2161
  604SOL    HW1 2414   0.324   3.924   4.867  0.9060 -0.9142 -0.9638
  604SOL    HW2 2415   0.242   3.797   4.871 -1.1439  0.4054  0.5113
  604SOL     MW 2416   0.251   3.880   4.847 -0.0766  0.1862  0.1029
  605SOL     OW 2417   0.827   4.142   2.734 -0.2988 -0.4595  0.3742
  605SOL    HW1 2418   0.795   4.231   2.751  2.1664  0.5703 -0.0017
  605SOL    HW2 2419   0.804   4.126   2.642 -2.0791 -0.8622  0.8512
  605SOL     MW 2420   0.820   4.151   2.724 -0.2111 -0.3792  0.3871
  606SOL     OW 2421   3.346   0.071   2.110 -0.2431  0.3284  0.0235
  606SOL    HW1 2422   3.433   0.080   2.149 -0.1144 -0.2400 -0.1241
  606SOL    HW2 2423   3.297   0.016   2.171 -0.6731  1.0918  0.3757
  606SOL     MW 2424   3.351   0.065   2.122 -0.2817  0.3534  0.0497
  607SOL     OW 2425   5.290   2.408   5.340 -0.0869 -0.3793 -0.5136
  607SOL    HW1 2426   5.213   2.365   5.304  0.2210 -2.1920  0.8572
  607SOL    HW2 2427   5.364   2.360   5.304  0.3474  0.1768 -0.3839
  607SOL     MW 2428   5.289   2.397   5.331  0.0081 -0.5401 -0.3216
  608SOL     OW 2429   0.387   3.599   4.326  0.5171  0.0540 -0.1144
  608SOL    HW1 2430   0.394   3.650   4.245 -1.2768  1.7695  0.7216
  608SOL    HW2 2431   0.341   3.519   4.299 -0.3645  0.7512 -0.7699
  608SOL     MW 2432   0.382   3.595   4.312  0.1746  0.3629 -0.0913
  609SOL     OW 2433   0.564   3.088   3.240  0.1716 -0.5471 -0.5539
  609SOL    HW1 2434   0.557   3.151   3.168 -1.1583 -2.4623 -2.2155
  609SOL    HW2 2435   0.536   3.005   3.202  2.4700 -2.3239  1.3533
  609SOL     MW 2436   0.559   3.086   3.226  0.2956 -1.0197 -0.5225
  610SOL     OW 2437   1.737   0.950   1.166 -0.4394 -0.2022 -0.4193
  610SOL    HW1 2438   1.789   0.897   1.105  0.8528 -0.2398  0.6905
  610SOL    HW2 2439   1.691   0.885   1.220 -0.8289 -0.1619 -0.6900
  610SOL     MW 2440   1.737   0.935   1.165 -0.3238 -0.2019 -0.3119
  611SOL     OW 2441   4.212   2.422   1.677 -0.1431 -0.4915 -0.1278
  611SOL    HW1 2442   4.125   2.460   1.683 -0.2118 -0.6751  0.0711
  611SOL    HW2 2443   4.210   2.348   1.739  0.6318  0.4157  1.0127
  611SOL     MW 2444   4.201   2.417   1.686 -0.0527 -0.3989  0.0437
  612SOL     OW 2445   3.462   0.708   3.564 -0.3409 -0.2074  0.7411
  612SOL    HW1 2446   3.487   0.787   3.611 -1.2323  0.4060  0.2139
  612SOL    HW2 2447   3.545   0.666   3.540  0.1443  0.7569  0.7075
  612SOL     MW 2448   3.476   0.713   3.567 -0.3929 -0.0054  0.6693
  613SOL     OW 2449   0.970   0.380   1.397 -0.1432 -0.4530  0.2898
  613SOL    HW1 2450   0.920   0.301   1.377 -0.6938 -0.3043  1.0112
  613SOL    HW2 2451   1.056   0.348   1.424  0.0827 -0.7252 -0.7198
  613SOL     MW 2452   0.975   0.366   1.398 -0.1847 -0.4688  0.2529
  614SOL     OW 2453   0.679   1.610   3.863  0.1440  0.2579  0.4923
  614SOL    HW1 2454   0.656   1.550   3.934  0.0905 -0.8191 -0.4191
  614SOL    HW2 2455   0.615   1.591   3.794  0.6534  0.7803 -0.1263
  614SOL     MW 2456   0.668   1.600   3.864  0.2024  0.1869  0.2964
  615SOL     OW 2457   0.500   3.304   2.694 -0.3413 -0.4511  0.0960
  615SOL    HW1 2458   0.560   3.372   2.662 -0.7264 -0.7148 -1.2351
  615SOL    HW2 2459   0.432   3.352   2.742 -0.0827  0.0047  0.0115
  615SOL     MW 2460   0.499   3.318   2.696 -0.3575 -0.4265 -0.0852
  616SOL     OW 2461   0.533   3.917   4.879  0.0428 -0.1824 -0.3219
  616SOL    HW1 2462   0.570   3.850   4.820 -0.8515 -0.4336 -0.6149
  616SOL    HW2 2463   0.576   3.998   4.852 -1.4968  0.0180 -2.4436
  616SOL     MW 2464   0.543   3.919   4.868 -0.2688 -0.1889 -0.6310
  617SOL     OW 2465   0.482   2.206   3.010 -0.1681 -0.2317 -0.1496
  617SOL    HW1 2466   0.393   2.231   3.038 -0.0129 -0.6706  0.7702
  617SOL    HW2 2467   0.504   2.131   3.065  1.5667  1.1136  1.0545
  617SOL     MW 2468   0.473   2.199   3.020  0.0738 -0.1156  0.1223
  618SOL     OW 2469   1.878   2.740   0.433  0.3064 -0.1236 -0.1653
  618SOL    HW1 2470   1.828   2.819   0.451  1.0053  0.1370  0.6635
  618SOL    HW2 2471   1.821   2.689   0.375 -1.0051  0.0736  0.8949
  618SOL     MW 2472   1.864   2.743   0.428  0.2280 -0.0650  0.0765
  619SOL     OW 2473   1.637   1.843   3.686 -0.1455 -0.0228  0.7586
  619SOL    HW1 2474   1.631   1.806   3.598  0.0209  1.0581  0.2667
  619SOL    HW2 2475   1.727   1.876   3.692 -0.6223  1.3878  0.6846
  619SOL     MW 2476   1.648   1.843   3.675 -0.1853  0.2962  0.6861
  620SOL     OW 2477   4.784   2.896   2.867  0.4030 -0.4657  0.1905
  620SOL    HW1 2478   4.780   2.808   2.829 -3.4109 -0.7775  0.9142
  620SOL    HW2 2479   4.789   2.881   2.961  1.1063  0.1359  0.2526
  620SOL     MW 2480   4.784   2.883   2.874  0.0048 -0.4286  0.2911
  621SOL     OW 2481   2.666   0.869   0.185 -0.5094 -0.2875 -0.4229
  621SOL    HW1 2482   2.612   0.948   0.189 -0.3631 -0.1288 -1.3559
  621SOL    HW2 2483   2.756   0.902   0.181 -0.4183 -0.5209 -0.3384
  621SOL     MW 2484   2.671   0.883   0.185 -0.4790 -0.2971 -0.5315
  622SOL     OW 2485   2.064   4.099   1.009  0.6824 -0.1901  0.1188
  622SOL    HW1 2486   2.010   4.078   0.933  0.6697  1.7842 -0.4889
  622SOL    HW2 2487   2.002   4.113   1.080  0.4283  1.1038 -0.3338
  622SOL     MW 2488   2.049   4.098   1.009  0.6482  0.2283 -0.0170
  623SOL     OW 2489   5.247   2.666   2.216 -0.0969  0.3947 -0.1260
  623SOL    HW1 2490   5.264   2.649   2.124 -0.1978 -1.3411  0.1497
  623SOL    HW2 2491   5.244   2.762   2.223 -0.4097  0.5404 -1.9607
  623SOL     MW 2492   5.249   2.676   2.205 -0.1498  0.1912 -0.3256
  624SOL     OW 2493   4.300   4.292   3.621 -0.7230 -0.0727  0.6153
  624SOL    HW1 2494   4.252   4.345   3.685 -2.7537 -0.7086 -0.2997
  624SOL    HW2 2495   4.289   4.340   3.538 -0.1424 -0.4682  0.3055
  624SOL     MW 2496   4.292   4.305   3.619 -0.9086 -0.2047  0.4585
  625SOL     OW 2497   4.457   2.705   2.731 -0.1892  0.0145 -0.1200
  625SOL    HW1 2498   4.492   2.734   2.646  0.0556  3.1006  0.8855
  625SOL    HW2 2499   4.363   2.703   2.718 -0.2015  1.1574 -0.3316
  625SOL     MW 2500   4.450   2.709   2.718 -0.1595  0.5559 -0.0184
  626SOL     OW 2501   3.707   3.656   2.599  0.4301  0.3654  0.2787
  626SOL    HW1 2502   3.643   3.655   2.670  1.1431  0.8562  0.9518
  626SOL    HW2 2503   3.656   3.679   2.522 -0.6269 -1.5884  0.3252
  626SOL     MW 2504   3.692   3.659   2.599  0.3860  0.1781  0.3708
  627SOL     OW 2505   4.291   5.303   0.024  0.3506  0.1053 -0.1387
  627SOL    HW1 2506   4.286   5.335   0.114  0.4336 -0.9652  0.2646
  627SOL    HW2 2507   4.362   5.239   0.025 -0.7668 -1.1988 -0.5389
  627SOL     MW 2508   4.299   5.299   0.035  0.2182 -0.1987 -0.1383
  628SOL     OW 2509   0.942   3.700   4.598  0.0597 -0.1370 -0.1075
  628SOL    HW1 2510   0.952   3.618   4.549 -0.8637  0.1181 -0.7463
  628SOL    HW2 2511   0.852   3.696   4.632 -0.5120  1.2540 -1.3611
  628SOL     MW 2512   0.932   3.689   4.596 -0.1317  0.0737 -0.3497
  629SOL     OW 2513   3.856   0.658   3.238 -0.0763 -0.5947 -0.3177
  629SOL    HW1 2514   3.831   0.611   3.317 -0.8182 -0.8860 -0.7197
  629SOL    HW2 2515   3.933   0.611   3.205  0.4371 -0.2752  0.3957
  629SOL     MW 2516   3.863   0.646   3.244 -0.1055 -0.5911 -0.2778
  630SOL     OW 2517   3.203   0.327   0.189 -0.4757  0.1377 -0.2677
  630SOL    HW1 2518   3.161   0.410   0.167 -0.0623  1.2663  2.6824
  630SOL    HW2 2519   3.297   0.345   0.182 -0.3911 -0.1810  0.0208
  630SOL     MW 2520   3.210   0.340   0.185 -0.4119  0.2414  0.1469
  631SOL     OW 2521   1.257   0.073   0.053 -0.1191 -0.3433  0.0314
  631SOL    HW1 2522   1.198   0.144   0.076 -0.4112 -1.0426  1.6134
  631SOL    HW2 2523   1.293   0.044   0.137  2.2856 -0.1138 -0.8675
  631SOL     MW 2524   1.254   0.078   0.067  0.1513 -0.4035  0.1188
  632SOL     OW 2525   1.604   4.074   5.338  0.2145  0.0862 -0.2231
  632SOL    HW1 2526   1.605   4.159   5.294  0.8162  0.8327  1.1834
  632SOL    HW2 2527   1.665   4.083   5.411  1.3751 -2.0118 -0.8373
  632SOL     MW 2528   1.612   4.086   5.342  0.4401 -0.0868 -0.1217
  633SOL     OW 2529   3.852   5.294   1.761  0.1494  0.1038  0.0384
  633SOL    HW1 2530   3.772   5.333   1.797 -0.2474  2.0576 -2.5508
  633SOL    HW2 2531   3.822   5.248   1.682  1.3061 -1.2895  0.3755
  633SOL     MW 2532   3.838   5.293   1.755  0.2467  0.1756 -0.2499
  634SOL     OW 2533   1.015   2.181   4.045  0.2304 -0.1452 -0.3034
  634SOL    HW1 2534   1.092   2.127   4.058  0.2902 -0.0140 -0.1122
  634SOL    HW2 2535   0.941   2.121   4.057  0.2996 -0.5665 -1.7399
  634SOL     MW 2536   1.015   2.167   4.048  0.2469 -0.1824 -0.4628
  635SOL     OW 2537   5.200   3.847   0.050 -0.1105  0.0378  0.0236
  635SOL    HW1 2538   5.254   3.924   0.067  0.1730 -0.5087  1.7772
  635SOL    HW2 2539   5.111   3.881   0.043  0.3114  0.8629 -2.2390
  635SOL     MW 2540   5.196   3.861   0.051 -0.0202  0.0734 -0.0415
  636SOL     OW 2541   2.200   4.725   5.232 -0.0252 -0.0534 -0.1884
  636SOL    HW1 2542   2.248   4.770   5.163 -1.6888  0.6145 -0.9508
  636SOL    HW2 2543   2.233   4.635   5.230 -0.4648 -0.2051 -2.2783
  636SOL     MW 2544   2.210   4.719   5.223 -0.2945  0.0127 -0.5535
  637SOL     OW 2545   0.220   4.689   3.399 -0.4594  0.0697  0.9544
  637SOL    HW1 2546   0.169   4.755   3.352  1.5676  1.2226  0.2338
  637SOL    HW2 2547   0.310   4.720   3.393  0.7072 -3.1186 -0.0089
  637SOL     MW 2548   0.225   4.701   3.392 -0.0506 -0.1909  0.7388
  638SOL     OW 2549   3.807   1.219   0.811 -0.1847  0.4465  0.4757
  638SOL    HW1 2550   3.850   1.140   0.777  1.6725  1.0356  1.3551
  638SOL    HW2 2551   3.748   1.246   0.740 -1.5574 -2.1887  0.4739
  638SOL     MW 2552   3.805   1.212   0.797 -0.1227  0.1846  0.5880
  639SOL     OW 2553   1.267   2.231   0.113 -0.0103  0.1189 -0.2980
  639SOL    HW1 2554   1.210   2.292   0.159  0.0992  0.1149 -0.1566
  639SOL    HW2 2555   1.308   2.283   0.043  0.4551  0.3275  0.1256
  639SOL     MW 2556   1.265   2.246   0.110  0.0633  0.1451 -0.2257
  640SOL     OW 2557   1.864   1.976   2.162 -0.0999  0.3012 -0.7572
  640SOL    HW1 2558   1.812   1.974   2.081  1.0796  1.6163 -1.5970
  640SOL    HW2 2559   1.953   1.958   2.133  0.1841 -0.3038  0.4362
  640SOL     MW 2560   1.869   1.974   2.148  0.0874  0.3921 -0.7120
  641SOL     OW 2561   0.771   2.950   2.143  0.0430  0.0503 -0.9709
  641SOL    HW1 2562   0.836   2.983   2.080 -0.6123 -1.9732 -2.8040
  641SOL    HW2 2563   0.822   2.893   2.200  0.2985  0.3903 -0.8509
  641SOL     MW 2564   0.786   2.947   2.142 -0.0082 -0.1652 -1.1902
  642SOL     OW 2565   2.410   3.434   2.659  0.2289 -0.2290  0.5231
  642SOL    HW1 2566   2.481   3.377   2.687 -0.1375 -0.9393  0.0360
  642SOL    HW2 2567   2.428   3.518   2.701  1.3012 -0.4269  0.4810
  642SOL     MW 2568   2.421   3.438   2.668  0.3193 -0.3453  0.4554
  643SOL     OW 2569   2.756   5.436   5.092  0.6301 -0.3936  0.0202
  643SOL    HW1 2570   2.716   5.403   5.012  1.3997 -1.6563  0.1336
  643SOL    HW2 2571   2.849   5.445   5.071  0.7330 -0.0995  0.5720
  643SOL     MW 2572   2.762   5.433   5.079  0.7418 -0.5176  0.1054
  644SOL     OW 2573   4.553   4.553   2.650 -0.2209 -0.0281 -0.0579
  644SOL    HW1 2574   4.588   4.562   2.739  0.8618 -1.5161 -0.2958
  644SOL    HW2 2575   4.483   4.619   2.645  1.1195  1.5780  1.1544
  644SOL     MW 2576   4.548   4.563   2.661  0.0893 -0.0130  0.0668
  645SOL     OW 2577   4.506   0.122   3.806  0.3823 -0.1611  0.9015
  645SOL    HW1 2578   4.468   0.035   3.807  0.8206 -0.4237 -0.8054
  645SOL    HW2 2579   4.433   0.181   3.823 -0.9827 -0.6220 -2.5756
  645SOL     MW 2580   4.492   0.119   3.808  0.2637 -0.2537  0.2379
  646SOL     OW 2581   2.994   5.236   5.376  0.0085 -0.4635  0.1524
  646SOL    HW1 2582   2.985   5.177   5.302  0.4123 -0.5364  0.1589
  646SOL    HW2 2583   2.978   5.181   5.453 -1.1518 -0.2298  0.0947
  646SOL     MW 2584   2.991   5.222   5.377 -0.0883 -0.4429  0.1458
  647SOL     OW 2585   5.369   3.158   0.731 -0.0576 -0.2675  0.0409
  647SOL    HW1 2586   5.280   3.175   0.761  0.4490  1.4287  0.6607
  647SOL    HW2 2587   5.413   3.118   0.806 -0.2130 -0.8657 -0.1811
  647SOL     MW 2588   5.363   3.155   0.744 -0.0126 -0.1270  0.0919
  648SOL     OW 2589   4.730   1.675   3.819 -0.1258  0.3404 -0.0473
  648SOL    HW1 2590   4.800   1.611   3.824 -1.0141 -0.5883  1.0449
  648SOL    HW2 2591   4.654   1.625   3.786 -0.6374  0.9939  0.1170
  648SOL     MW 2592   4.729   1.660   3.815 -0.3050  0.3052  0.1136
  649SOL     OW 2593   4.537   2.762   2.995 -0.1438  0.1981 -0.0991
  649SOL    HW1 2594   4.520   2.765   2.900  1.5659 -0.6944 -0.4869
  649SOL    HW2 2595   4.596   2.836   3.010 -1.6819  1.3206  0.6023
  649SOL     MW 2596   4.543   2.772   2.985 -0.1218  0.2276 -0.0589
  650SOL     OW 2597   1.036   4.906   4.315  0.0910  0.3695  0.4665
  650SOL    HW1 2598   0.989   4.974   4.364 -1.6793  0.0066 -0.6080
  650SOL    HW2 2599   1.107   4.953   4.271 -0.4639  1.3413  0.5851
  650SOL     MW 2600   1.039   4.921   4.315 -0.2067  0.4475  0.3441
  651SOL     OW 2601   2.698   4.129   0.441 -0.2426 -0.5225  0.0836
  651SOL    HW1 2602   2.682   4.163   0.353  0.5112 -1.5555 -0.4723
  651SOL    HW2 2603   2.651   4.189   0.498 -1.3120 -0.2219 -1.0646
  651SOL     MW 2604   2.690   4.141   0.437 -0.2830 -0.6163 -0.1345
  652SOL     OW 2605   4.153   3.384   2.439 -0.1809 -0.3130 -0.4086
  652SOL    HW1 2606   4.208   3.455   2.404 -1.7782  0.0388 -2.3528
  652SOL    HW2 2607   4.071   3.391   2.390 -0.6974 -3.0064 -0.0392
  652SOL     MW 2608   4.149   3.394   2.429 -0.4515 -0.6127 -0.6102
  653SOL     OW 2609   2.697   5.424   4.841 -0.1689 -0.1434  0.3975
  653SOL    HW1 2610   2.679   5.334   4.813  1.2865 -0.5487  0.6844
  653SOL    HW2 2611   2.616   5.471   4.821 -0.0731 -0.9192 -2.3080
  653SOL     MW 2612   2.684   5.418   4.835  0.0297 -0.2946  0.0879
  654SOL     OW 2613   5.501   0.321   2.344 -0.1679 -0.2166  0.4015
  654SOL    HW1 2614   5.501   0.371   2.426 -1.0980 -0.3648  0.5107
  654SOL    HW2 2615   5.409   0.318   2.318  0.2609  1.0779 -1.4426
  654SOL     MW 2616   5.489   0.327   2.351 -0.2321 -0.0698  0.1794
  655SOL     OW 2617   5.036   3.720   2.949  0.4591 -0.1930 -0.1356
  655SOL    HW1 2618   4.979   3.698   3.024  0.0641  0.9182 -0.0851
  655SOL    HW2 2619   4.984   3.696   2.872  0.6265 -0.7887 -0.0660
  655SOL     MW 2620   5.022   3.714   2.949  0.4299 -0.1270 -0.1203
  656SOL     OW 2621   3.831   5.350   3.479  0.2246  0.5024 -0.1914
  656SOL    HW1 2622   3.767   5.420   3.467  1.8039  1.6818 -2.4041
  656SOL    HW2 2623   3.783   5.270   3.456 -0.3993  1.4016 -2.2563
  656SOL     MW 2624   3.816   5.349   3.475  0.3469  0.7685 -0.7390
  657SOL     OW 2625   0.748   5.075   0.234 -0.0265 -0.0713  0.4885
  657SOL    HW1 2626   0.723   5.062   0.143 -1.1117 -0.4996  0.8368
  657SOL    HW2 2627   0.667   5.061   0.284  0.9234 -1.6525  1.6687
  657SOL     MW 2628   0.734   5.071   0.229 -0.0438 -0.3285  0.6842
  658SOL     OW 2629   3.017   3.869   3.788  0.0985 -0.2900  0.4140
  658SOL    HW1 2630   3.074   3.832   3.721  0.5420  1.6976 -0.3981
  658SOL    HW2 2631   2.934   3.822   3.777  0.6808 -1.1784 -0.3705
  658SOL     MW 2632   3.013   3.858   3.778  0.2298 -0.1493  0.2096
  659SOL     OW 2633   2.688   0.182   3.028 -0.0381 -0.5313 -0.2680
  659SOL    HW1 2634   2.602   0.195   2.987  0.6327  0.4920 -1.4544
  659SOL    HW2 2635   2.679   0.222   3.115  0.1111  2.5600 -1.5561
  659SOL     MW 2636   2.676   0.189   3.034  0.0669 -0.0046 -0.5848
  660SOL     OW 2637   2.854   2.305   0.803  0.7573  0.3316 -0.5505
  660SOL    HW1 2638   2.896   2.254   0.872 -0.1750  0.5557  0.1988
  660SOL    HW2 2639   2.896   2.391   0.807  0.0433  0.6541  0.4019
  660SOL     MW 2640   2.865   2.309   0.812  0.5465  0.4016 -0.3327
  661SOL     OW 2641   1.955   1.865   1.317 -0.4835  0.5837 -0.4227
  661SOL    HW1 2642   2.047   1.855   1.293 -0.4693 -1.3741  0.2728
  661SOL    HW2 2643   1.930   1.950   1.280  1.4277  0.9099 -1.1088
  661SOL     MW 2644   1.964   1.875   1.309 -0.2370  0.3748 -0.4215
  662SOL     OW 2645   1.456   0.987   0.195 -0.3324 -0.0773 -0.9756
  662SOL    HW1 2646   1.426   1.069   0.236  1.7528  1.4158 -2.2226
  662SOL    HW2 2647   1.453   0.923   0.265  1.1061  1.8695  0.9980
  662SOL     MW 2648   1.452   0.990   0.209  0.1186  0.3631 -0.8826
  663SOL     OW 2649   0.960   4.478   2.217  0.1362  0.2008 -0.3789
  663SOL    HW1 2650   1.054   4.495   2.212  0.1466  0.0682 -0.6391
  663SOL    HW2 2651   0.947   4.438   2.303  0.0559  1.8707  0.4216
  663SOL     MW 2652   0.970   4.475   2.227  0.1272  0.3976 -0.3097
  664SOL     OW 2653   2.204   2.090   4.359  0.3958  0.5110 -0.0583
  664SOL    HW1 2654   2.233   2.064   4.446 -1.3222  1.5229  0.8689
  664SOL    HW2 2655   2.204   2.009   4.308 -0.5023 -0.4904  1.4668
  664SOL     MW 2656   2.208   2.076   4.364  0.0609  0.5123  0.2557
  665SOL     OW 2657   4.886   3.097   3.276  0.0941  0.1329  0.2305
  665SOL    HW1 2658   4.875   3.015   3.229  1.8631 -0.5108  0.8341
  665SOL    HW2 2659   4.893   3.163   3.207 -0.6762 -0.3134 -0.2838
  665SOL     MW 2660   4.886   3.095   3.261  0.2219 -0.0066  0.2419
  666SOL     OW 2661   1.237   4.291   1.385 -0.2146 -0.3150  0.6423
  666SOL    HW1 2662   1.282   4.355   1.441 -1.3003  1.8374 -0.8224
  666SOL    HW2 2663   1.260   4.317   1.296 -1.7305 -1.1732 -0.0232
  666SOL     MW 2664   1.246   4.303   1.381 -0.5477 -0.1493  0.3696
  667SOL     OW 2665   1.686   0.750   1.988  0.4295  0.0846  0.2316
  667SOL    HW1 2666   1.640   0.674   1.951 -0.8913  0.8617  0.1865
  667SOL    HW2 2667   1.617   0.816   1.999  1.3741  0.9559  1.1485
  667SOL     MW 2668   1.671   0.749   1.985  0.3813  0.2956  0.3432
  668SOL     OW 2669   1.130   0.917   2.107  0.5016 -0.6889  0.6551
  668SOL    HW1 2670   1.091   0.834   2.081 -0.1984 -0.1611 -0.0249
  668SOL    HW2 2671   1.150   0.906   2.200  1.1721 -1.8917  0.3898
  668SOL     MW 2672   1.128   0.905   2.116  0.4978 -0.7753  0.5341
  669SOL     OW 2673   3.341   3.262   3.339 -0.0260 -0.1798 -0.4577
  669SOL    HW1 2674   3.346   3.167   3.329  0.6924 -0.5196  2.2080
  669SOL    HW2 2675   3.264   3.276   3.394  0.5885  0.6274  0.2351
  669SOL     MW 2676   3.332   3.251   3.345  0.1446 -0.1199 -0.0278
  670SOL     OW 2677   2.322   4.617   2.071  0.3016  0.4110  0.3852
  670SOL    HW1 2678   2.416   4.605   2.082  0.2145  0.2302  0.9251
  670SOL    HW2 2679   2.283   4.584   2.151 -0.0919  2.3730  1.0617
  670SOL     MW 2680   2.329   4.611   2.082  0.2400  0.6390  0.5409
  671SOL     OW 2681   2.673   1.202   1.488  0.7136  0.2472 -0.6139
  671SOL    HW1 2682   2.617   1.233   1.560  1.4424 -0.5140  0.3249
  671SOL    HW2 2683   2.720   1.279   1.458  0.1804  0.6333 -0.4606
  671SOL     MW 2684   2.672   1.216   1.494  0.7386  0.1992 -0.4741
  672SOL     OW 2685   3.254   1.562   4.577  0.0537 -0.3409 -0.1089
  672SOL    HW1 2686   3.331   1.619   4.575 -0.1558 -0.0780 -0.9893
  672SOL    HW2 2687   3.283   1.481   4.533  0.1291 -0.6319  0.4711
  672SOL     MW 2688   3.268   1.559   4.571  0.0365 -0.3445 -0.1473
  673SOL     OW 2689   2.446   5.314   0.278  0.4479 -0.6070  0.1236
  673SOL    HW1 2690   2.522   5.327   0.335  0.1591  0.6575  0.2297
  673SOL    HW2 2691   2.380   5.374   0.311  1.1106  2.1817 -3.0867
  673SOL     MW 2692   2.447   5.323   0.290  0.4957 -0.0882 -0.2737
  674SOL     OW 2693   0.714   3.586   3.456 -0.6200 -0.6633 -0.2248
  674SOL    HW1 2694   0.746   3.669   3.489 -0.8854 -1.3375  1.8387
  674SOL    HW2 2695   0.775   3.562   3.386 -0.0111  0.7852 -0.2165
  674SOL     MW 2696   0.726   3.593   3.451 -0.5760 -0.5642  0.0404
  675SOL     OW 2697   3.321   1.235   1.579  0.4543  0.0489 -0.1552
  675SOL    HW1 2698   3.310   1.212   1.672 -0.2749  0.3800 -0.1531
  675SOL    HW2 2699   3.241   1.204   1.537 -0.2144  1.8171 -0.2859
  675SOL     MW 2700   3.310   1.228   1.586  0.2753  0.3177 -0.1717
  676SOL     OW 2701   1.785   3.487   2.266 -0.2444  0.3618  0.3142
  676SOL    HW1 2702   1.830   3.449   2.191  2.0593  0.8736  1.3445
  676SOL    HW2 2703   1.809   3.430   2.339  0.7764  2.0130  1.3298
  676SOL     MW 2704   1.794   3.475   2.266  0.1812  0.6387  0.5761
  677SOL     OW 2705   2.744   3.295   5.181  0.3596  0.1468  0.0935
  677SOL    HW1 2706   2.773   3.257   5.264  1.5016 -0.8227 -0.7050
  677SOL    HW2 2707   2.697   3.224   5.137 -1.0690  0.9387  0.2796
  677SOL     MW 2708   2.742   3.281   5.186  0.3229  0.1241  0.0151
  678SOL     OW 2709   5.012   2.627   4.925  0.5219 -0.1668 -0.3745
  678SOL    HW1 2710   4.922   2.653   4.942  0.9438  1.0111  0.1719
  678SOL    HW2 2711   5.005   2.548   4.873 -0.8259 -0.2220 -0.1353
  678SOL     MW 2712   5.000   2.620   4.921  0.4034 -0.0231 -0.2739
  679SOL     OW 2713   5.441   2.990   4.714 -0.6921  0.9343 -0.0788
  679SOL    HW1 2714   5.384   3.049   4.665  1.3094  3.5850  0.5844
  679SOL    HW2 2715   5.443   3.026   4.803  0.6426 -0.1037  0.3471
  679SOL     MW 2716   5.434   3.002   4.719 -0.2650  1.1408  0.0606
  680SOL     OW 2717   4.033   2.751   3.466 -0.0187  0.2095  0.0542
  680SOL    HW1 2718   4.113   2.794   3.437  0.1966 -0.0777  0.2139
  680SOL    HW2 2719   3.979   2.822   3.501  0.0464  0.4434 -0.3188
  680SOL     MW 2720   4.036   2.765   3.467  0.0172  0.2027  0.0269
  681SOL     OW 2721   1.047   4.861   1.056 -0.2965  0.5526 -0.0861
  681SOL    HW1 2722   0.993   4.941   1.060 -0.9566  0.0754  0.8813
  681SOL    HW2 2723   1.045   4.837   0.963 -1.3039  0.8608 -0.1672
  681SOL     MW 2724   1.040   4.868   1.044 -0.5100  0.5309  0.0273
  682SOL     OW 2725   0.488   5.390   1.375  0.3902  0.2643  0.4856
  682SOL    HW1 2726   0.525   5.468   1.416 -0.0980 -0.0403  1.5314
  682SOL    HW2 2727   0.400   5.382   1.411  0.2721 -0.5280  0.0665
  682SOL     MW 2728   0.482   5.399   1.385  0.3126  0.1239  0.5658
  683SOL     OW 2729   3.082   0.601   2.810  0.0974 -0.2036  0.0081
  683SOL    HW1 2730   3.118   0.687   2.833  0.0393 -0.7592  2.5198
  683SOL    HW2 2731   3.105   0.545   2.884  0.5369 -2.5112 -1.7651
  683SOL     MW 2732   3.089   0.605   2.822  0.1462 -0.5701  0.1027
  684SOL     OW 2733   4.218   3.585   3.872 -0.0495  0.2240 -0.4653
  684SOL    HW1 2734   4.264   3.506   3.902  1.7887  0.7780 -1.6443
  684SOL    HW2 2735   4.173   3.558   3.792 -0.6150  0.0248 -0.0815
  684SOL     MW 2736   4.218   3.571   3.865  0.1135  0.2694 -0.5671
  685SOL     OW 2737   4.754   4.201   2.590  0.1296 -0.0446 -0.4419
  685SOL    HW1 2738   4.665   4.176   2.615  0.0276  0.4503 -0.3063
  685SOL    HW2 2739   4.743   4.261   2.516  0.3657 -0.2292 -0.6314
  685SOL     MW 2740   4.741   4.205   2.584  0.1468 -0.0049 -0.4488
  686SOL     OW 2741   0.831   4.114   0.021  0.1004 -0.7641 -0.1950
  686SOL    HW1 2742   0.807   4.133  -0.069  3.8282  0.6173 -1.0702
  686SOL    HW2 2743   0.816   4.196   0.068  1.9967 -0.1380 -0.5807
  686SOL     MW 2744   0.826   4.127   0.016  0.8203 -0.5071 -0.3564
  687SOL     OW 2745   3.571   2.917   3.562  0.0288 -0.5594  0.4068
  687SOL    HW1 2746   3.585   2.970   3.484  0.6298 -1.1064  0.1358
  687SOL    HW2 2747   3.539   2.979   3.628 -0.8925 -0.1660 -0.3853
  687SOL     MW 2748   3.568   2.931   3.560 -0.0122 -0.5791  0.2707
  688SOL     OW 2749   4.607   3.760   5.415 -0.3665  0.2920  0.1711
  688SOL    HW1 2750   4.639   3.775   5.326 -0.1624 -0.0906  0.1742
  688SOL    HW2 2751   4.673   3.703   5.455 -1.0774 -0.5765  0.1544
  688SOL     MW 2752   4.619   3.754   5.409 -0.4314  0.1318  0.1694
  689SOL     OW 2753   3.958   2.962   1.233 -0.5441 -0.1491 -0.1471
  689SOL    HW1 2754   3.884   2.925   1.185  0.0124 -0.6283 -0.6600
  689SOL    HW2 2755   3.920   2.996   1.314 -1.2821 -0.6108 -0.2903
  689SOL     MW 2756   3.944   2.962   1.237 -0.5673 -0.2696 -0.2311
  690SOL     OW 2757   4.604   0.472   2.592  0.0546 -0.3634 -0.3352
  690SOL    HW1 2758   4.576   0.429   2.673  1.6516 -2.9983 -1.0472
  690SOL    HW2 2759   4.690   0.433   2.573  0.5404  1.5061 -2.3550
  690SOL     MW 2760   4.612   0.461   2.600  0.3213 -0.4614 -0.6849
  691SOL     OW 2761   2.136   5.169   3.281 -0.7067 -0.7054 -0.1863
  691SOL    HW1 2762   2.074   5.241   3.269  0.1563  0.2109  0.7081
  691SOL    HW2 2763   2.200   5.181   3.211  0.3026  0.3473  0.8846
  691SOL     MW 2764   2.136   5.180   3.270 -0.4670 -0.4533  0.0653
  692SOL     OW 2765   2.203   3.765   1.574 -0.3925 -0.1007  0.7093
  692SOL    HW1 2766   2.160   3.796   1.494 -1.6423  0.5291  1.5800
  692SOL    HW2 2767   2.131   3.748   1.635  0.4155 -2.2070  1.1736
  692SOL     MW 2768   2.188   3.767   1.572 -0.4491 -0.2897  0.8802
  693SOL     OW 2769   5.216   5.023   1.822  1.3199 -0.4888  0.3766
  693SOL    HW1 2770   5.192   4.937   1.855 -2.9911  0.8998  1.4589
  693SOL    HW2 2771   5.149   5.044   1.756  2.5166  1.8478 -0.2362
  693SOL     MW 2772   5.204   5.015   1.817  0.9213 -0.0119  0.4367
  694SOL     OW 2773   0.479   2.056   1.238 -0.0951 -0.3166 -0.2797
  694SOL    HW1 2774   0.429   2.055   1.319  0.6985 -0.2046  0.2203
  694SOL    HW2 2775   0.569   2.040   1.265  0.6245  2.2715 -0.8072
  694SOL     MW 2776   0.484   2.054   1.251  0.0986  0.0290 -0.2832
  695SOL     OW 2777   1.978   4.432   0.010  0.2628 -0.3318  0.1825
  695SOL    HW1 2778   2.063   4.396  -0.016 -0.1717 -1.8916  0.8277
  695SOL    HW2 2779   1.995   4.525   0.023  1.6363 -0.4290 -0.6831
  695SOL     MW 2780   1.991   4.439   0.009  0.3830 -0.5440  0.1543
  696SOL     OW 2781   1.739   4.800   0.626  0.3758  0.4126  0.2892
  696SOL    HW1 2782   1.686   4.789   0.548  2.7971 -1.6371 -1.2366
  696SOL    HW2 2783   1.731   4.892   0.649 -0.8248  0.9573 -2.0668
  696SOL     MW 2784   1.731   4.810   0.619  0.5321  0.2200 -0.2077
  697SOL     OW 2785   2.598   4.624   1.653 -0.0268  0.0228  0.1089
  697SOL    HW1 2786   2.590   4.551   1.714  0.4631  1.0672  1.4916
  697SOL    HW2 2787   2.593   4.702   1.708  0.9805  1.0110 -1.1169
  697SOL     MW 2788   2.597   4.625   1.668  0.1649  0.2830  0.1290
  698SOL     OW 2789   0.604   3.118   2.296  0.2567  0.3460  0.1513
  698SOL    HW1 2790   0.642   3.047   2.244  1.2878  0.2931  0.9357
  698SOL    HW2 2791   0.656   3.195   2.272 -1.0012  0.9091 -0.8612
  698SOL     MW 2792   0.616   3.119   2.286  0.2277  0.4113  0.1221
  699SOL     OW 2793   4.417   1.806   5.059  0.3286  0.2591  0.0968
  699SOL    HW1 2794   4.390   1.736   5.000 -0.8641 -0.9116  1.9211
  699SOL    HW2 2795   4.344   1.868   5.058  1.0687  1.1608 -0.9529
  699SOL     MW 2796   4.404   1.805   5.052  0.2706  0.2247  0.1959
  700SOL     OW 2797   0.898   4.138   5.054  0.0579  0.5268 -0.7185
  700SOL    HW1 2798   0.825   4.120   4.994 -2.1686 -1.5458  2.3161
  700SOL    HW2 2799   0.957   4.063   5.043  1.4579  1.7977 -2.5693
  700SOL     MW 2800   0.896   4.126   5.045 -0.0479  0.4242 -0.5670
  701SOL     OW 2801   1.801   2.059   3.954 -0.2286  0.5570  0.0188
  701SOL    HW1 2802   1.795   2.079   3.860  2.0900 -2.1791 -0.8637
  701SOL    HW2 2803   1.785   1.965   3.959  0.4751  0.5080  2.2600
  701SOL     MW 2804   1.798   2.050   3.942  0.1583  0.2004  0.1927
  702SOL     OW 2805   4.858   5.008   4.891  0.4074  0.0291  0.1341
  702SOL    HW1 2806   4.902   5.029   4.974 -0.0832 -1.7128  0.8790
  702SOL    HW2 2807   4.825   4.919   4.903  0.2532 -0.2376 -1.9302
  702SOL     MW 2808   4.859   4.999   4.903  0.3248 -0.2280 -0.0348
  703SOL     OW 2809   4.953   0.420   2.121 -0.3265 -0.0141  0.1502
  703SOL    HW1 2810   4.909   0.335   2.120  0.8014 -0.6032 -1.0224
  703SOL    HW2 2811   5.044   0.400   2.142 -0.2873  1.0557  1.1292
  703SOL     MW 2812   4.959   0.407   2.124 -0.1771  0.0474  0.1254
  704SOL     OW 2813   2.555   3.215   3.772 -0.3960 -0.4914  0.1258
  704SOL    HW1 2814   2.559   3.120   3.789 -0.9971 -0.1862  2.3098
  704SOL    HW2 2815   2.476   3.244   3.818  0.2517  1.2022  0.2355
  704SOL     MW 2816   2.545   3.206   3.780 -0.3900 -0.2355  0.4194
  705SOL     OW 2817   2.614   0.197   0.657  0.0732  0.0029  0.1790
  705SOL    HW1 2818   2.543   0.258   0.640 -0.7032 -0.4981  1.4391
  705SOL    HW2 2819   2.572   0.111   0.661  0.8795 -0.4064  0.1086
  705SOL     MW 2820   2.600   0.194   0.656  0.0770 -0.1136  0.3313
  706SOL     OW 2821   4.730   0.260   1.803  0.2397  0.5167  0.1562
  706SOL    HW1 2822   4.650   0.275   1.854 -0.4901  0.9297 -1.0767
  706SOL    HW2 2823   4.705   0.278   1.713  0.8156 -2.6418 -0.7611
  706SOL     MW 2824   4.717   0.264   1.798  0.2200  0.1653 -0.1190
  707SOL     OW 2825   3.406   3.099   2.897 -0.5316  0.3502  0.0881
  707SOL    HW1 2826   3.460   3.161   2.946 -0.0871  0.9350 -1.1185
  707SOL    HW2 2827   3.316   3.130   2.909 -0.2619  1.6305 -1.0386
  707SOL     MW 2828   3.401   3.111   2.905 -0.4402  0.5889 -0.2106
  708SOL     OW 2829   3.650  -0.001   4.198  0.1289  0.0836 -0.3740
  708SOL    HW1 2830   3.615  -0.047   4.122  0.2804 -0.7700  0.0647
  708SOL    HW2 2831   3.585   0.067   4.217 -0.5950 -0.5780 -0.4324
  708SOL     MW 2832   3.637   0.002   4.191  0.0556 -0.1104 -0.3253
  709SOL     OW 2833   2.006   0.720   3.954  0.0285 -0.3621  0.0657
  709SOL    HW1 2834   2.000   0.794   3.894 -1.3993 -0.8914 -0.4890
  709SOL    HW2 2835   2.052   0.652   3.904 -0.3055 -0.4754 -0.0891
  709SOL     MW 2836   2.011   0.721   3.940 -0.1970 -0.4444 -0.0251
  710SOL     OW 2837   0.392   5.335   2.268 -0.1213 -0.1099 -0.7761
  710SOL    HW1 2838   0.428   5.256   2.228  0.2198  0.8882 -2.5923
  710SOL    HW2 2839   0.333   5.370   2.201 -0.3899  1.0733  0.0568
  710SOL     MW 2840   0.389   5.329   2.254 -0.1120  0.1693 -0.9019
  711SOL     OW 2841   4.199   2.538   2.473 -0.3080 -0.3050  0.3802
  711SOL    HW1 2842   4.259   2.600   2.431 -0.1575 -0.2521  0.6721
  711SOL    HW2 2843   4.197   2.462   2.414 -0.0251 -0.2686  0.3245
  711SOL     MW 2844   4.206   2.536   2.460 -0.2525 -0.2935  0.4104
  712SOL     OW 2845   4.747   3.392   0.412  0.0520 -0.0619 -0.3449
  712SOL    HW1 2846   4.660   3.394   0.372  0.7249 -0.1469 -1.8903
  712SOL    HW2 2847   4.793   3.322   0.366  1.4785  1.1037 -0.7792
  712SOL     MW 2848   4.741   3.383   0.401  0.3208  0.0764 -0.5983
  713SOL     OW 2849   4.566   0.394   0.870  0.3863  0.0536  0.1013
  713SOL    HW1 2850   4.503   0.462   0.896  1.1466  0.4121  1.0394
  713SOL    HW2 2851   4.524   0.312   0.896  0.0573  0.2426  0.1833
  713SOL     MW 2852   4.552   0.392   0.876  0.4415  0.1236  0.2319
  714SOL     OW 2853   3.307   4.521   2.578 -0.3568  0.3582 -0.4625
  714SOL    HW1 2854   3.323   4.436   2.618 -0.2426  0.7031  0.2323
  714SOL    HW2 2855   3.387   4.571   2.595 -1.0511  1.1503  0.5804
  714SOL     MW 2856   3.319   4.516   2.585 -0.4311  0.5037 -0.2401
  715SOL     OW 2857   5.368   2.092   1.269  0.2838  0.1613 -0.1175
  715SOL    HW1 2858   5.285   2.129   1.298 -0.0615  0.0927 -0.9738
  715SOL    HW2 2859   5.394   2.032   1.339  0.7617  1.8498  1.2023
  715SOL     MW 2860   5.361   2.089   1.282  0.3008  0.3687 -0.0581
  716SOL     OW 2861   3.058   1.183   4.124 -0.1152 -0.2130 -0.0422
  716SOL    HW1 2862   2.984   1.131   4.094 -1.1516  1.0154  0.2778
  716SOL    HW2 2863   3.026   1.273   4.122  2.1116  0.6508 -2.1869
  716SOL     MW 2864   3.044   1.188   4.120  0.0372  0.0549 -0.2758
  717SOL     OW 2865   3.009   4.104   3.623 -0.1187 -0.2677  0.6279
  717SOL    HW1 2866   3.016   4.032   3.686 -0.9052 -1.9480 -1.1239
  717SOL    HW2 2867   2.959   4.171   3.670 -1.0750 -1.6523  1.6808
  717SOL     MW 2868   3.004   4.104   3.637 -0.3418 -0.6601  0.5384
  718SOL     OW 2869   4.313   1.179   0.948  0.1368  0.0250  0.4579
  718SOL    HW1 2870   4.373   1.137   1.009 -0.0956 -1.4798 -0.3000
  718SOL    HW2 2871   4.353   1.264   0.929  1.8479 -0.7900  0.2567
  718SOL     MW 2872   4.326   1.185   0.953  0.3261 -0.2720  0.3351
  719SOL     OW 2873   2.661   0.861   3.791  0.2949 -0.0162  0.4858
  719SOL    HW1 2874   2.577   0.817   3.807 -1.5085  1.9602 -2.4457
  719SOL    HW2 2875   2.704   0.806   3.725 -0.6838  1.0135 -1.0871
  719SOL     MW 2876   2.655   0.848   3.784 -0.0613  0.3686 -0.0908
  720SOL     OW 2877   5.406   0.631   1.568  0.4982  0.1316 -0.3538
  720SOL    HW1 2878   5.445   0.717   1.583 -1.1625  0.7338  0.7539
  720SOL    HW2 2879   5.359   0.612   1.648 -1.6996 -0.4198 -1.7034
  720SOL     MW 2880   5.405   0.640   1.580  0.0043  0.1381 -0.3847
  721SOL     OW 2881   1.866   4.414   1.098  0.5305  0.0083 -0.4297
  721SOL    HW1 2882   1.898   4.487   1.151 -1.2096  1.1666 -0.8937
  721SOL    HW2 2883   1.921   4.416   1.019 -1.1094  2.5849 -1.6649
  721SOL     MW 2884   1.877   4.423   1.094  0.0978  0.4864 -0.6472
  722SOL     OW 2885   1.727   3.934   5.118  0.3205 -0.2392  0.0023
  722SOL    HW1 2886   1.662   3.978   5.172  0.9268  2.1046 -1.0634
  722SOL    HW2 2887   1.809   3.941   5.168  1.1607  3.0374 -1.5372
  722SOL     MW 2888   1.729   3.941   5.131  0.5057  0.4803 -0.3312
  723SOL     OW 2889   5.016   4.488   0.606 -0.0250  0.7097  0.0373
  723SOL    HW1 2890   4.974   4.423   0.549  0.1708 -0.3002  0.9912
  723SOL    HW2 2891   4.969   4.570   0.588 -0.2512  0.3276 -1.2345
  723SOL     MW 2892   5.004   4.490   0.597 -0.0289  0.5315 -0.0034
  724SOL     OW 2893   5.210   0.656   1.382 -0.4707  0.1104  0.1902
  724SOL    HW1 2894   5.139   0.718   1.400 -0.3357 -0.1435  1.7854
  724SOL    HW2 2895   5.276   0.675   1.449  0.5809 -0.2620 -0.7040
  724SOL     MW 2896   5.210   0.666   1.393 -0.3188  0.0302  0.2799
  725SOL     OW 2897   0.124   4.329   0.361 -0.1100 -0.2700  0.0370
  725SOL    HW1 2898   0.098   4.300   0.448  0.6678 -0.9440  0.0598
  725SOL    HW2 2899   0.145   4.248   0.314 -1.0839  0.0379 -0.9738
  725SOL     MW 2900   0.124   4.315   0.366 -0.1351 -0.3169 -0.0895
  726SOL     OW 2901   3.824   1.664   0.977  0.0009 -0.0230  0.3791
  726SOL    HW1 2902   3.846   1.597   1.042 -2.2087  0.5831  1.8717
  726SOL    HW2 2903   3.812   1.615   0.896  1.2642 -1.0188  0.7472
  726SOL     MW 2904   3.825   1.649   0.975 -0.1202 -0.0729  0.6173
  727SOL     OW 2905   3.478   1.798   1.955 -0.0074 -0.5410  0.8005
  727SOL    HW1 2906   3.472   1.868   1.891 -2.0770  0.3417  1.8613
  727SOL    HW2 2907   3.503   1.721   1.904  0.4717  0.5629 -0.6960
  727SOL     MW 2908   3.480   1.797   1.940 -0.2110 -0.2867  0.7447
  728SOL     OW 2909   2.511   3.182   2.490  0.0421  0.1318  0.5149
  728SOL    HW1 2910   2.535   3.089   2.484 -0.0470  0.1318  0.1134
  728SOL    HW2 2911   2.569   3.217   2.557  0.7621 -0.0080 -0.0136
  728SOL     MW 2912   2.522   3.175   2.498  0.1229  0.1139  0.3958
  729SOL     OW 2913   2.465   0.085   4.803 -0.4311 -0.0454  0.4503
  729SOL    HW1 2914   2.469   0.112   4.712  3.8408 -0.1723  0.4158
  729SOL    HW2 2915   2.485   0.164   4.853 -1.9525 -0.1517  1.3079
  729SOL     MW 2916   2.468   0.098   4.798 -0.0790 -0.0753  0.5557
  730SOL     OW 2917   4.136   3.157   3.388  0.0852 -0.5114 -0.4272
  730SOL    HW1 2918   4.186   3.217   3.332  0.5007 -1.1342 -0.7240
  730SOL    HW2 2919   4.182   3.074   3.381 -1.3516 -1.2762 -1.2130
  730SOL     MW 2920   4.148   3.154   3.380 -0.0455 -0.6890 -0.5658
  731SOL     OW 2921   1.661   2.336   2.074  0.0252  0.3207 -0.1150
  731SOL    HW1 2922   1.745   2.301   2.104 -0.2300  0.0088  0.2362
  731SOL    HW2 2923   1.667   2.430   2.092  0.7580  0.5066 -1.1672
  731SOL     MW 2924   1.673   2.344   2.080  0.0863  0.3046 -0.2047
  732SOL     OW 2925   5.207   3.660   1.473  0.4880 -0.0007  0.0810
  732SOL    HW1 2926   5.184   3.721   1.403  0.9864 -0.5498 -0.5776
  732SOL    HW2 2927   5.151   3.685   1.547 -1.1052 -0.3123 -0.9722
  732SOL     MW 2928   5.197   3.671   1.474  0.3478 -0.1109 -0.1381
  733SOL     OW 2929   1.235   3.975   3.427 -0.1180  0.6483  0.0835
  733SOL    HW1 2930   1.270   3.939   3.345  1.0725  2.0250 -0.0591
  733SOL    HW2 2931   1.209   4.064   3.406 -1.3682  0.4808  0.8310
  733SOL     MW 2932   1.236   3.981   3.414 -0.1256  0.8031  0.1609
  734SOL     OW 2933   3.072   3.294   4.545 -0.0811  0.2388  0.0329
  734SOL    HW1 2934   3.094   3.277   4.454 -2.2422 -0.3580 -0.4332
  734SOL    HW2 2935   3.030   3.380   4.544  0.9340  0.7711  0.6848
  734SOL     MW 2936   3.069   3.303   4.533 -0.2278  0.2305  0.0567
  735SOL     OW 2937   2.889   4.392   2.745  0.2872  0.0189 -0.1457
  735SOL    HW1 2938   2.876   4.438   2.662 -1.4832 -1.2504 -0.6235
  735SOL    HW2 2939   2.938   4.313   2.721  0.4840  0.0442  0.1608
  735SOL     MW 2940   2.894   4.388   2.731  0.0857 -0.1403 -0.1676
  736SOL     OW 2941   3.720   3.020   0.068  0.1074  0.4452  0.5621
  736SOL    HW1 2942   3.650   3.082   0.046 -1.0542 -1.4642 -1.6738
  736SOL    HW2 2943   3.764   3.003  -0.016  2.9546  1.1106  1.7957
  736SOL     MW 2944   3.717   3.025   0.054  0.3232  0.2859  0.4338
  737SOL     OW 2945   2.417   4.500   2.650 -0.1416 -0.4924 -0.0460
  737SOL    HW1 2946   2.327   4.523   2.675  0.3726  1.5013  0.0974
  737SOL    HW2 2947   2.461   4.482   2.733  0.0880  0.5202  0.0675
  737SOL     MW 2948   2.411   4.501   2.664 -0.0464 -0.1076 -0.0131
  738SOL     OW 2949   0.065   3.000   4.196 -0.1040  0.6572  0.1484
  738SOL    HW1 2950   0.105   2.965   4.276 -0.1349  0.5482  0.1160
  738SOL    HW2 2951  -0.029   2.997   4.213 -0.0958  1.1498  0.3256
  738SOL     MW 2952   0.058   2.995   4.209 -0.1069  0.7063  0.1670
  739SOL     OW 2953   0.065   4.258   0.607  0.3288 -0.2656 -0.2481
  739SOL    HW1 2954   0.009   4.324   0.648 -0.1833  0.2260 -1.6828
  739SOL    HW2 2955   0.022   4.175   0.627 -1.5397  0.1681 -2.1562
  739SOL     MW 2956   0.052   4.256   0.615  0.0241 -0.1471 -0.6760
  740SOL     OW 2957   2.269   4.061   5.240  0.9330  0.4866 -0.1826
  740SOL    HW1 2958   2.273   3.992   5.307  0.2368  0.5618 -0.0627
  740SOL    HW2 2959   2.304   4.019   5.161 -0.4060 -0.3315 -0.3734
  740SOL     MW 2960   2.274   4.046   5.239  0.6724  0.3915 -0.1917
  741SOL     OW 2961   2.012   4.653   1.708 -0.6119  0.2215  0.1729
  741SOL    HW1 2962   2.098   4.636   1.746 -0.6695 -0.6724 -0.0655
  741SOL    HW2 2963   1.957   4.581   1.740 -0.3079 -1.4366 -2.6873
  741SOL     MW 2964   2.016   4.642   1.717 -0.5804 -0.1052 -0.2237
  742SOL     OW 2965   2.137   4.969   3.644 -0.4031  0.1556  0.7825
  742SOL    HW1 2966   2.066   4.934   3.591  0.6812 -0.3426 -0.3686
  742SOL    HW2 2967   2.123   5.064   3.644  0.5829  0.3941 -1.9865
  742SOL     MW 2968   2.126   4.977   3.638 -0.1381  0.1223  0.2807
  743SOL     OW 2969   3.246   2.690   1.200 -0.0671  0.1581  0.1074
  743SOL    HW1 2970   3.194   2.723   1.273 -0.3244 -0.7992  0.3775
  743SOL    HW2 2971   3.183   2.677   1.130  0.0756  0.4735 -0.0816
  743SOL     MW 2972   3.231   2.692   1.201 -0.0817  0.0759  0.1178
  744SOL     OW 2973   1.609   0.877   3.918 -0.2050  0.1568  0.1740
  744SOL    HW1 2974   1.600   0.785   3.943 -0.5892  0.3291  0.6707
  744SOL    HW2 2975   1.643   0.873   3.828 -0.5088 -0.4691  0.0784
  744SOL     MW 2976   1.613   0.865   3.910 -0.2931  0.0987  0.2253
  745SOL     OW 2977   0.284   5.008   0.375  0.0264  0.0798  0.1862
  745SOL    HW1 2978   0.258   4.993   0.284  1.0165  0.0007 -0.0903
  745SOL    HW2 2979   0.305   4.921   0.409  3.0651  0.4066 -0.5876
  745SOL     MW 2980   0.283   4.995   0.367  0.5421  0.1115  0.0518
  746SOL     OW 2981   4.638   3.757   2.524 -0.5772 -0.8012 -0.2995
  746SOL    HW1 2982   4.706   3.729   2.463  0.3981 -0.7798  0.7483
  746SOL    HW2 2983   4.591   3.677   2.546 -0.4983 -0.9198 -0.5573
  746SOL     MW 2984   4.641   3.743   2.519 -0.4422 -0.8136 -0.1984
  747SOL     OW 2985   3.442   0.151   1.338 -0.3170  0.0196  0.0681
  747SOL    HW1 2986   3.414   0.076   1.389  0.0296 -1.0250 -1.2159
  747SOL    HW2 2987   3.362   0.183   1.295 -0.3498 -0.0404  0.0859
  747SOL     MW 2988   3.428   0.146   1.339 -0.2768 -0.1218 -0.0940
  748SOL     OW 2989   4.450   0.137   4.396 -0.0444 -0.1789 -0.4384
  748SOL    HW1 2990   4.529   0.085   4.379 -0.6689 -1.3111  0.0014
  748SOL    HW2 2991   4.382   0.095   4.343 -0.2744  1.0477 -1.1456
  748SOL     MW 2992   4.451   0.125   4.387 -0.1538 -0.1668 -0.4726
  749SOL     OW 2993   3.250   2.860   2.857  0.0210  0.0118  0.2434
  749SOL    HW1 2994   3.156   2.858   2.843  0.0085 -0.1455  0.3541
  749SOL    HW2 2995   3.265   2.940   2.908  0.0046  0.2999 -0.1910
  749SOL     MW 2996   3.240   2.870   2.862  0.0173  0.0285  0.2020
  750SOL     OW 2997   1.147   4.058   1.205 -0.0438 -0.1840 -0.1854
  750SOL    HW1 2998   1.179   4.113   1.277 -1.4557 -0.0912  0.3880
  750SOL    HW2 2999   1.121   3.976   1.246 -0.4691 -0.2873 -0.6469
  750SOL     MW 3000   1.148   4.055   1.219 -0.2790 -0.1853 -0.1711
  751SOL     OW 3001   1.146   0.433   5.305 -0.5154  0.1480  0.1856
  751SOL    HW1 3002   1.206   0.507   5.310 -0.1713 -0.2023  3.0616
  751SOL    HW2 3003   1.059   0.472   5.315 -0.3605  0.2601  1.2810
  751SOL     MW 3004   1.142   0.447   5.307 -0.4515  0.1175  0.6940
  752SOL     OW 3005   5.295   0.495   4.314  0.3100  0.1788  0.5691
  752SOL    HW1 3006   5.200   0.500   4.319  0.3286  1.3771 -0.1303
  752SOL    HW2 3007   5.320   0.447   4.393 -0.8432  0.1328  0.9239
  752SOL     MW 3008   5.286   0.489   4.325  0.1647  0.3263  0.5250
  753SOL     OW 3009   0.334   4.010   2.678  0.3312  0.1520  0.0647
  753SOL    HW1 3010   0.327   4.044   2.589 -1.0455  0.8096  0.4056
  753SOL    HW2 3011   0.375   3.924   2.667  2.9981  1.4379 -0.9001
  753SOL     MW 3012   0.339   4.003   2.665  0.4963  0.4008 -0.0152
  754SOL     OW 3013   0.611   3.915   0.308  0.3699 -0.0295 -0.0582
  754SOL    HW1 3014   0.544   3.974   0.341 -0.4526 -1.2311  0.4928
  754SOL    HW2 3015   0.574   3.879   0.228  1.7873  1.8221 -1.6604
  754SOL     MW 3016   0.598   3.918   0.302  0.4461  0.0537 -0.1927
  755SOL     OW 3017   2.051   4.335   3.967  0.3275 -0.0347 -1.1344
  755SOL    HW1 3018   2.030   4.428   3.957  1.4295  0.4105  0.2705
  755SOL    HW2 3019   2.134   4.325   3.921  0.3991 -0.2333 -0.9609
  755SOL     MW 3020   2.059   4.346   3.960  0.4778 -0.0031 -0.9323
  756SOL     OW 3021   0.455   4.838   5.097 -0.7229  0.2160 -0.1262
  756SOL    HW1 3022   0.377   4.808   5.145 -0.0604  2.0594  2.2676
  756SOL    HW2 3023   0.442   4.932   5.087  1.1493  0.5497  0.2704
  756SOL     MW 3024   0.443   4.846   5.102 -0.3984  0.4947  0.2310
  757SOL     OW 3025   2.248   0.408   2.287 -0.5862  0.4407  0.5719
  757SOL    HW1 3026   2.273   0.339   2.226 -0.3146 -0.2770  1.4875
  757SOL    HW2 3027   2.236   0.485   2.231  0.0326 -0.1037 -0.3388
  757SOL     MW 3028   2.249   0.409   2.272 -0.4722  0.2791  0.5726
  758SOL     OW 3029   0.558   1.771   0.526 -0.3979  0.3548  0.4688
  758SOL    HW1 3030   0.577   1.737   0.438  1.2169  1.9469  0.1372
  758SOL    HW2 3031   0.637   1.753   0.576 -1.1698 -0.2029  1.5355
  758SOL     MW 3032   0.570   1.764   0.521 -0.2900  0.4872  0.5629
  759SOL     OW 3033   3.088   1.716   5.249 -0.6872 -0.0976  0.0743
  759SOL    HW1 3034   3.022   1.730   5.317  0.9345  1.0225  1.4923
  759SOL    HW2 3035   3.118   1.626   5.262 -0.4875  0.0654  0.7717
  759SOL     MW 3036   3.083   1.706   5.260 -0.4540  0.0666  0.3451
  760SOL     OW 3037   0.525   3.214   0.965 -0.4901 -0.1005  0.2705
  760SOL    HW1 3038   0.519   3.119   0.955  0.2049 -0.1616  0.3465
  760SOL    HW2 3039   0.605   3.238   0.918  0.0425  0.2653  1.3145
  760SOL     MW 3040   0.535   3.205   0.958 -0.3330 -0.0615  0.4138
  761SOL     OW 3041   0.087   3.976   0.822  0.3484 -0.3043  0.4202
  761SOL    HW1 3042   0.035   3.900   0.850  0.6243 -0.6794 -0.0555
  761SOL    HW2 3043   0.092   4.032   0.900  2.6386 -2.1589  1.7417
  761SOL     MW 3044   0.081   3.973   0.836  0.6769 -0.5898  0.5285
  762SOL     OW 3045   5.167   1.916   3.222 -0.2068  0.2513  0.9168
  762SOL    HW1 3046   5.168   1.835   3.171  0.0854  0.3637  0.7427
  762SOL    HW2 3047   5.093   1.905   3.283 -2.4546  1.2991 -1.4486
  762SOL     MW 3048   5.157   1.904   3.224 -0.4571  0.3998  0.5917
  763SOL     OW 3049   2.785   0.049   0.253 -0.0877  0.3153 -0.2200
  763SOL    HW1 3050   2.762   0.136   0.220 -1.4463  0.0427 -0.0410
  763SOL    HW2 3051   2.776  -0.009   0.177 -0.4057  0.1360 -0.0457
  763SOL     MW 3052   2.781   0.053   0.239 -0.3023  0.2575 -0.1748
  764SOL     OW 3053   4.424   5.140   4.362 -0.1163 -0.0268 -0.4088
  764SOL    HW1 3054   4.435   5.162   4.455  0.0544 -1.6177 -0.0355
  764SOL    HW2 3055   4.334   5.106   4.357 -1.3760  3.0978 -1.4855
  764SOL     MW 3056   4.414   5.139   4.374 -0.2557  0.1695 -0.4989
  765SOL     OW 3057   1.469   5.009   4.167  0.2683  0.1199 -0.2474
  765SOL    HW1 3058   1.522   5.012   4.088 -1.1361  0.8893 -1.1891
  765SOL    HW2 3059   1.501   4.931   4.214  2.5069  0.8137 -0.5314
  765SOL     MW 3060   1.480   4.999   4.163  0.3751  0.3072 -0.4043
  766SOL     OW 3061   1.287   3.867   3.695  0.6325  0.0272  0.4088
  766SOL    HW1 3062   1.246   3.925   3.759  0.8555 -0.5349  1.0772
  766SOL    HW2 3063   1.264   3.904   3.610 -1.4146 -0.3570  0.7363
  766SOL     MW 3064   1.279   3.879   3.692  0.3990 -0.0940  0.5363
  767SOL     OW 3065   4.377   2.510   4.685 -0.4539  0.5151  0.0488
  767SOL    HW1 3066   4.333   2.470   4.759  0.8194 -1.2736 -0.0741
  767SOL    HW2 3067   4.470   2.491   4.699  0.2082  3.0252 -0.3332
  767SOL     MW 3068   4.384   2.503   4.696 -0.2061  0.6074 -0.0158
  768SOL     OW 3069   3.861   0.327   2.147  0.5482 -0.4335  0.1797
  768SOL    HW1 3070   3.792   0.338   2.213 -0.8628  0.6608 -1.4016
  768SOL    HW2 3071   3.865   0.411   2.102  1.3373 -1.2163 -1.2633
  768SOL     MW 3072   3.853   0.339   2.150  0.4686 -0.3936 -0.2074
  769SOL     OW 3073   4.925   0.139   0.906  0.0321 -0.0624 -0.0907
  769SOL    HW1 3074   4.932   0.132   0.810 -1.1974 -0.3710 -0.1777
  769SOL    HW2 3075   5.015   0.133   0.937  0.3101 -2.2051 -1.1034
  769SOL     MW 3076   4.937   0.137   0.897 -0.0897 -0.3762 -0.2315
  770SOL     OW 3077   3.849   4.509   2.251  0.3343 -0.9393  0.1666
  770SOL    HW1 3078   3.871   4.447   2.181 -1.4695  0.6081 -1.9270
  770SOL    HW2 3079   3.779   4.466   2.300 -1.4340 -0.3970 -1.7301
  770SOL     MW 3080   3.843   4.496   2.248 -0.1230 -0.6718 -0.3442
  771SOL     OW 3081   4.086   0.206   2.233  0.4041  0.2533 -0.3073
  771SOL    HW1 3082   4.023   0.278   2.222  0.3110  0.1771 -0.2738
  771SOL    HW2 3083   4.046   0.132   2.188  1.3468  0.7085 -1.9729
  771SOL     MW 3084   4.073   0.206   2.226  0.5129  0.3018 -0.5162
  772SOL     OW 3085   2.642   2.127   3.021  0.0348  0.6065 -0.6206
  772SOL    HW1 3086   2.690   2.116   3.103 -0.4748  0.6591 -0.3137
  772SOL    HW2 3087   2.695   2.189   2.971  1.1442 -0.5596 -0.9610
  772SOL     MW 3088   2.655   2.134   3.025  0.1116  0.4640 -0.6249
  773SOL     OW 3089   0.825   3.560   0.424  0.2793 -0.2138 -0.2048
  773SOL    HW1 3090   0.846   3.635   0.480 -1.5390 -0.8700  1.4653
  773SOL    HW2 3091   0.826   3.596   0.336  2.2293  1.0973  0.2714
  773SOL     MW 3092   0.828   3.574   0.420  0.2962 -0.1300  0.0700
  774SOL     OW 3093   5.416   3.153   0.463 -0.0509  0.0406  0.3833
  774SOL    HW1 3094   5.397   3.150   0.557 -0.6607  2.8962  0.4314
  774SOL    HW2 3095   5.505   3.188   0.458 -0.3282  0.6954 -0.0973
  774SOL     MW 3096   5.425   3.157   0.474 -0.1644  0.4900  0.3279
  775SOL     OW 3097   4.377   2.034   3.224 -0.6402 -0.0683 -0.1578
  775SOL    HW1 3098   4.447   1.971   3.240 -0.3124  0.3374  0.0265
  775SOL    HW2 3099   4.382   2.052   3.130  0.6256  1.2414  0.1181
  775SOL     MW 3100   4.387   2.028   3.214 -0.4362  0.1513 -0.0989
  776SOL     OW 3101   1.148   1.187   2.931 -0.4299  0.4363 -0.3822
  776SOL    HW1 3102   1.136   1.282   2.936  0.1575  0.4560  1.1542
  776SOL    HW2 3103   1.064   1.151   2.960  0.1991  0.5439  1.7888
  776SOL     MW 3104   1.136   1.195   2.935 -0.2742  0.4526  0.0924
  777SOL     OW 3105   0.671   0.158   4.421  0.1677  0.3049 -0.2653
  777SOL    HW1 3106   0.759   0.171   4.385  0.0090  1.4407 -0.2596
  777SOL    HW2 3107   0.678   0.076   4.471  2.1680  2.0243  2.5788
  777SOL     MW 3108   0.683   0.149   4.423  0.4035  0.6704  0.0995
  778SOL     OW 3109   0.484   0.624   3.230 -0.2071  0.2959 -0.1254
  778SOL    HW1 3110   0.498   0.532   3.255  0.8964  0.4535 -0.1334
  778SOL    HW2 3111   0.389   0.630   3.217 -0.5881 -0.3355  1.9010
  778SOL     MW 3112   0.474   0.613   3.232 -0.1146  0.2353  0.1330
  779SOL     OW 3113   3.124   3.080   0.340  0.0089  0.3691 -0.0929
  779SOL    HW1 3114   3.081   3.067   0.256  0.0576  0.1315 -0.0807
  779SOL    HW2 3115   3.186   3.008   0.347  1.5050  1.5280 -0.8037
  779SOL     MW 3116   3.127   3.069   0.330  0.2067  0.4870 -0.1823
  780SOL     OW 3117   3.257   1.381   0.302 -0.3444 -0.4186  0.1027
  780SOL    HW1 3118   3.196   1.348   0.368  1.1976 -1.1881  1.2124
  780SOL    HW2 3119   3.281   1.304   0.251 -1.9005  0.2582 -1.7288
  780SOL     MW 3120   3.253   1.367   0.304 -0.3462 -0.4304  0.0103
  781SOL     OW 3121   1.945   3.476   1.442 -0.0566 -0.1133 -0.1129
  781SOL    HW1 3122   1.948   3.509   1.352  1.3629 -2.0964 -0.8693
  781SOL    HW2 3123   1.877   3.409   1.440 -0.9158  0.7108  0.6608
  781SOL     MW 3124   1.936   3.472   1.430  0.0151 -0.2617 -0.1107
  782SOL     OW 3125   4.788   1.391   0.027  0.0058 -0.1343  0.2599
  782SOL    HW1 3126   4.783   1.395  -0.068  0.9382 -3.3163 -0.0409
  782SOL    HW2 3127   4.857   1.453   0.050 -1.2516  1.8051 -0.9101
  782SOL     MW 3128   4.797   1.399   0.018 -0.0358 -0.2934  0.0716
  783SOL     OW 3129   1.419   5.418   3.857 -0.3927  0.1625  0.2609
  783SOL    HW1 3130   1.457   5.433   3.944 -2.3339  0.9860  1.0106
  783SOL    HW2 3131   1.349   5.482   3.849 -0.7078 -0.3338 -1.6663
  783SOL     MW 3132   1.415   5.428   3.867 -0.6815  0.2044  0.1101
  784SOL     OW 3133   5.319   2.936   1.112 -0.0184  0.5144 -0.5223
  784SOL    HW1 3134   5.230   2.966   1.130 -0.3130  0.7913 -2.2061
  784SOL    HW2 3135   5.313   2.841   1.113 -0.1733  0.5261  0.0215
  784SOL     MW 3136   5.307   2.928   1.114 -0.0760  0.5513 -0.6682
  785SOL     OW 3137   4.110   0.141   2.552  0.0549  0.2367 -0.3909
  785SOL    HW1 3138   4.196   0.183   2.551  0.2257 -0.0552  0.7864
  785SOL    HW2 3139   4.128   0.049   2.569 -0.4929  0.1851 -0.0622
  785SOL     MW 3140   4.123   0.135   2.554  0.0066  0.1927 -0.1981
  786SOL     OW 3141   2.011   4.818   3.087 -0.3534  0.0424 -0.0062
  786SOL    HW1 3142   2.090   4.811   3.141 -0.6056  0.4745  0.4271
  786SOL    HW2 3143   1.942   4.845   3.148 -0.4858  1.2507 -0.6611
  786SOL     MW 3144   2.012   4.821   3.102 -0.4026  0.2524 -0.0346
  787SOL     OW 3145   2.761   0.338   0.205 -0.0871  0.0603  0.2433
  787SOL    HW1 3146   2.762   0.381   0.290 -0.7282 -2.7925  1.8194
  787SOL    HW2 3147   2.677   0.363   0.167 -0.4842  0.1423  1.1505
  787SOL     MW 3148   2.750   0.346   0.211 -0.2200 -0.2944  0.5612
  788SOL     OW 3149   1.382   4.340   1.159  0.0687  0.2910 -0.3214
  788SOL    HW1 3150   1.445   4.404   1.191 -0.3090  0.7814 -0.5534
  788SOL    HW2 3151   1.337   4.383   1.087 -0.8253  0.1078  0.1108
  788SOL     MW 3152   1.384   4.353   1.154 -0.0941  0.3303 -0.2958
  789SOL     OW 3153   2.129   2.403   0.698 -0.3615  0.3230 -0.3158
  789SOL    HW1 3154   2.053   2.413   0.642 -0.6239 -1.7142 -0.3883
  789SOL    HW2 3155   2.099   2.430   0.785 -0.9686  0.1478 -0.4682
  789SOL     MW 3156   2.116   2.408   0.702 -0.4728  0.0398 -0.3446
  790SOL     OW 3157   0.807   2.179   5.417  0.3141  0.3719 -0.1386
  790SOL    HW1 3158   0.886   2.128   5.434 -0.1993  0.3169  2.3445
  790SOL    HW2 3159   0.763   2.131   5.346  1.4290 -0.8123 -0.0643
  790SOL     MW 3160   0.811   2.166   5.410  0.3911  0.2132  0.1888
  791SOL     OW 3161   3.502   3.040   4.853 -0.1438 -0.1657 -0.0744
  791SOL    HW1 3162   3.559   2.963   4.858 -1.3423 -1.0176  0.9849
  791SOL    HW2 3163   3.555   3.111   4.890  0.7517 -0.5934 -0.4912
  791SOL     MW 3164   3.516   3.039   4.858 -0.1826 -0.3295  0.0078
  792SOL     OW 3165   3.905   0.524   0.399 -0.1097  0.1067  0.5793
  792SOL    HW1 3166   3.812   0.508   0.382  0.5593 -1.4028 -2.0696
  792SOL    HW2 3167   3.939   0.439   0.426  0.7080  0.4391  0.6137
  792SOL     MW 3168   3.897   0.511   0.401  0.0806 -0.0440  0.2446
  793SOL     OW 3169   4.373   4.260   5.139 -0.0508 -0.5540  0.1488
  793SOL    HW1 3170   4.389   4.250   5.045 -0.5338  2.1206 -0.2919
  793SOL    HW2 3171   4.288   4.218   5.154  0.1398 -1.2064 -0.5449
  793SOL     MW 3172   4.364   4.253   5.129 -0.0883 -0.2951  0.0036
  794SOL     OW 3173   0.821   2.415   4.114  0.3434 -0.6502 -0.1397
  794SOL    HW1 3174   0.854   2.418   4.024 -0.7636  0.8160 -0.5353
  794SOL    HW2 3175   0.895   2.384   4.166  1.3130 -0.5497 -1.4220
  794SOL     MW 3176   0.835   2.412   4.109  0.3258 -0.4497 -0.3545
  795SOL     OW 3177   2.871   3.385   3.921  0.2007  0.3753  0.1472
  795SOL    HW1 3178   2.791   3.422   3.957  0.5785  0.7276  0.6348
  795SOL    HW2 3179   2.847   3.295   3.897 -0.4657  0.6328 -0.1765
  795SOL     MW 3180   2.858   3.378   3.922  0.1638  0.4534  0.1682
  796SOL     OW 3181   3.197   1.937   3.092 -0.1240  0.1678 -0.0426
  796SOL    HW1 3182   3.171   1.890   3.171 -0.5675  2.5354  1.3150
  796SOL    HW2 3183   3.115   1.963   3.051  0.0649  1.3981  0.3091
  796SOL     MW 3184   3.184   1.935   3.097 -0.1566  0.6284  0.1762
  797SOL     OW 3185   5.252   0.436   0.667 -0.5657  0.2319  0.0397
  797SOL    HW1 3186   5.265   0.463   0.577  1.4958 -0.4521  0.0729
  797SOL    HW2 3187   5.234   0.343   0.662  0.4900 -0.0095  0.3416
  797SOL     MW 3188   5.252   0.428   0.655 -0.1667  0.1134  0.0826
  798SOL     OW 3189   3.561   3.647   1.330 -0.3708  0.3305  0.6499
  798SOL    HW1 3190   3.485   3.608   1.374 -0.8864  1.0565  0.4214
  798SOL    HW2 3191   3.525   3.686   1.251  0.4100 -0.1835  0.0273
  798SOL     MW 3192   3.547   3.647   1.326 -0.3369  0.3577  0.5409
  799SOL     OW 3193   4.273   0.524   4.132 -0.1611 -0.0684 -0.0158
  799SOL    HW1 3194   4.302   0.472   4.207  0.7771  0.5971  0.0897
  799SOL    HW2 3195   4.338   0.593   4.123 -1.0172  0.6950 -0.5870
  799SOL     MW 3196   4.285   0.526   4.141 -0.1506  0.1145 -0.0754
  800SOL     OW 3197   0.614   1.977   3.326  0.5395  0.7064 -0.3955
  800SOL    HW1 3198   0.667   2.055   3.345  0.3097  0.9127 -0.5948
  800SOL    HW2 3199   0.653   1.908   3.380  0.5613  1.0287  0.0046
  800SOL     MW 3200   0.626   1.978   3.335  0.5128  0.7740 -0.3698
  801SOL     OW 3201   0.422   2.638   4.578  0.1129 -0.1479  0.0886
  801SOL    HW1 3202   0.428   2.578   4.653  0.0052 -0.9141 -0.5008
  801SOL    HW2 3203   0.432   2.581   4.502 -1.1480  0.4171 -0.5248
  801SOL     MW 3204   0.424   2.623   4.578 -0.0623 -0.1736 -0.0654
  802SOL     OW 3205   2.215   5.330   1.651  0.2167 -0.2176 -0.0284
  802SOL    HW1 3206   2.237   5.347   1.559  0.8813  0.6648  0.2804
  802SOL    HW2 3207   2.227   5.236   1.661 -1.6345 -0.6442 -1.3004
  802SOL     MW 3208   2.220   5.320   1.640  0.0648 -0.1593 -0.1517
  803SOL     OW 3209   4.680   2.251   2.443 -0.1344  0.1415 -0.1696
  803SOL    HW1 3210   4.720   2.167   2.467 -1.5902 -0.5700 -0.1589
  803SOL    HW2 3211   4.598   2.227   2.399  0.1104  1.5268 -1.4651
  803SOL     MW 3212   4.675   2.237   2.440 -0.2894  0.2277 -0.3341
  804SOL     OW 3213   2.674   1.938   2.618 -0.5044  0.4165 -0.2131
  804SOL    HW1 3214   2.743   2.003   2.607  0.3085 -0.4923 -0.5565
  804SOL    HW2 3215   2.641   1.922   2.530  0.7435 -1.1617 -0.4441
  804SOL     MW 3216   2.678   1.944   2.605 -0.2406  0.0981 -0.2866
  805SOL     OW 3217   3.222   4.228   4.395 -0.2843 -0.5245  0.1868
  805SOL    HW1 3218   3.164   4.226   4.318  0.6671  1.4463 -0.6391
  805SOL    HW2 3219   3.186   4.161   4.453 -3.1340  0.2712 -0.4895
  805SOL     MW 3220   3.210   4.219   4.393 -0.5274 -0.1703 -0.0055
  806SOL     OW 3221   5.140   1.810   1.947 -0.0545 -0.1065  0.2769
  806SOL    HW1 3222   5.205   1.776   1.886  1.6901  0.5265  1.7023
  806SOL    HW2 3223   5.186   1.878   1.996 -1.5063 -0.2885  2.0039
  806SOL     MW 3224   5.154   1.815   1.945 -0.0170 -0.0488  0.6805
  807SOL     OW 3225   2.993   2.327   4.354 -0.4088  0.4496 -0.3552
  807SOL    HW1 3226   2.938   2.405   4.363  0.4757  1.1247 -0.6067
  807SOL    HW2 3227   2.981   2.279   4.435 -0.3475  1.2678  0.1500
  807SOL     MW 3228   2.984   2.331   4.365 -0.2877  0.6407 -0.3227
  808SOL     OW 3229   4.683   1.335   3.858 -0.2950 -0.0037  0.2708
  808SOL    HW1 3230   4.607   1.388   3.834 -2.4155 -1.6498  2.7963
  808SOL    HW2 3231   4.700   1.358   3.949  0.6459 -1.4788  0.4922
  808SOL     MW 3232   4.675   1.345   3.867 -0.4460 -0.4032  0.6224
  809SOL     OW 3233   4.721   0.352   0.492 -0.0872 -0.2069 -0.3522
  809SOL    HW1 3234   4.665   0.425   0.520  0.0702 -0.3579  0.3643
  809SOL    HW2 3235   4.742   0.372   0.401 -1.4791 -0.2496 -0.7045
  809SOL     MW 3236   4.716   0.364   0.484 -0.2453 -0.2317 -0.3056
  810SOL     OW 3237   1.384   5.327   4.556 -0.3819  0.0885 -0.2133
  810SOL    HW1 3238   1.416   5.286   4.476 -1.1007  1.8342 -1.4526
  810SOL    HW2 3239   1.459   5.379   4.587 -0.4211  0.2276 -0.3461
  810SOL     MW 3240   1.398   5.328   4.550 -0.4789  0.3298 -0.3889
  811SOL     OW 3241   2.608   0.730   0.977 -0.2635  0.2349  0.3955
  811SOL    HW1 3242   2.591   0.741   0.884 -0.5817  2.2444  0.6460
  811SOL    HW2 3243   2.522   0.734   1.018  0.0395  1.9068  0.9532
  811SOL     MW 3244   2.595   0.732   0.970 -0.2654  0.7062  0.4989
  812SOL     OW 3245   1.665   5.389   3.579 -0.1839  0.2298  0.0466
  812SOL    HW1 3246   1.698   5.300   3.585 -0.7869  0.0606  1.2826
  812SOL    HW2 3247   1.605   5.388   3.504  0.7007 -0.0830 -0.6717
  812SOL     MW 3248   1.661   5.377   3.570 -0.1478  0.1681  0.1129
  813SOL     OW 3249   0.970   2.030   2.586 -0.1869 -0.1144 -0.7900
  813SOL    HW1 3250   1.013   2.115   2.593 -0.1223 -0.1923 -0.1796
  813SOL    HW2 3251   0.905   2.042   2.517  0.1575  0.2827 -1.0501
  813SOL     MW 3252   0.967   2.043   2.578 -0.1345 -0.0735 -0.7452
  814SOL     OW 3253   4.631   1.743   4.259 -0.5615  0.1265 -0.0509
  814SOL    HW1 3254   4.558   1.794   4.224 -1.6938 -1.9805 -0.9422
  814SOL    HW2 3255   4.691   1.733   4.185 -1.7152 -2.1217 -0.7973
  814SOL     MW 3256   4.629   1.748   4.245 -0.8541 -0.4310 -0.2606
  815SOL     OW 3257   3.003   1.972   2.883  0.1149  0.0020  0.5938
  815SOL    HW1 3258   3.026   1.921   2.806 -2.0299  1.0263 -0.8226
  815SOL    HW2 3259   2.915   1.942   2.908  0.1801  0.6848  1.7589
  815SOL     MW 3260   2.995   1.962   2.876 -0.1513  0.2205  0.5616
  816SOL     OW 3261   3.251   2.561   1.523 -0.5722  0.1909 -0.2736
  816SOL    HW1 3262   3.301   2.527   1.449 -0.6076  0.5260 -0.4516
  816SOL    HW2 3263   3.311   2.558   1.597 -0.5116 -0.0689 -0.3320
  816SOL     MW 3264   3.265   2.556   1.523 -0.5690  0.2005 -0.3039
  817SOL     OW 3265   0.484   5.363   1.106 -0.4872  0.1496  0.4893
  817SOL    HW1 3266   0.473   5.375   1.200 -2.4322  0.3345  0.2976
  817SOL    HW2 3267   0.495   5.452   1.071  1.6899 -0.0162  0.6458
  817SOL     MW 3268   0.484   5.376   1.113 -0.4575  0.1521  0.4848
  818SOL     OW 3269   4.844   3.450   1.819  0.0903  0.1707 -0.4881
  818SOL    HW1 3270   4.788   3.510   1.770  2.3547  0.8300 -2.4434
  818SOL    HW2 3271   4.897   3.508   1.874  1.9849  0.0252 -2.0631
  818SOL     MW 3272   4.844   3.465   1.820  0.6227  0.2365 -0.9401
  819SOL     OW 3273   1.571   4.304   3.235  0.1809  0.2279 -0.1332
  819SOL    HW1 3274   1.580   4.210   3.251  0.6092  0.1100 -0.9892
  819SOL    HW2 3275   1.486   4.327   3.272 -0.5979 -0.8026 -1.1822
  819SOL     MW 3276   1.561   4.295   3.241  0.1361  0.0809 -0.3770
  820SOL     OW 3277   2.863   0.260   0.752 -0.1757 -0.2533 -0.2196
  820SOL    HW1 3278   2.928   0.209   0.704  0.2781  0.4916 -0.4141
  820SOL    HW2 3279   2.779   0.227   0.722  0.1024 -1.4471  0.2630
  820SOL     MW 3280   2.861   0.249   0.742 -0.0820 -0.3108 -0.1827
  821SOL     OW 3281   0.086   4.644   2.686  0.3795  0.5164  0.0180
  821SOL    HW1 3282   0.075   4.660   2.780 -1.0566 -0.8687  0.1156
  821SOL    HW2 3283   0.021   4.702   2.645 -0.8952 -0.8213  0.0666
  821SOL     MW 3284   0.076   4.654   2.693  0.0325  0.1679  0.0367
  822SOL     OW 3285   4.562   5.190   0.360 -0.3787  0.2955 -0.5936
  822SOL    HW1 3286   4.629   5.242   0.404 -0.8018  0.8732 -0.6222
  822SOL    HW2 3287   4.485   5.197   0.416 -0.7912  0.6850 -1.1890
  822SOL     MW 3288   4.561   5.198   0.373 -0.4857  0.4193 -0.6735
  823SOL     OW 3289   1.625   1.086   4.643 -0.1625  0.4277 -0.7020
  823SOL    HW1 3290   1.604   1.117   4.731  3.6542  0.2099  0.4497
  823SOL    HW2 3291   1.641   0.992   4.653  2.1782  0.7333 -1.1749
  823SOL     MW 3292   1.624   1.078   4.655  0.6257  0.4390 -0.6151
  824SOL     OW 3293   1.507   4.497   0.872 -0.2633 -0.0788 -0.3294
  824SOL    HW1 3294   1.578   4.538   0.922 -0.4066 -0.7050  0.3998
  824SOL    HW2 3295   1.545   4.417   0.837 -0.2375  0.2330 -1.0371
  824SOL     MW 3296   1.521   4.492   0.874 -0.2784 -0.1190 -0.3266
  825SOL     OW 3297   0.313   0.543   3.486 -0.1138  0.1118 -0.4909
  825SOL    HW1 3298   0.359   0.623   3.513 -0.0878 -0.2664  0.6307
  825SOL    HW2 3299   0.245   0.574   3.426 -2.2441  1.4596  2.3582
  825SOL     MW 3300   0.310   0.558   3.482 -0.3832  0.2359  0.0174
  826SOL     OW 3301   3.860   2.934   4.881  0.0233  0.0801  0.0435
  826SOL    HW1 3302   3.773   2.896   4.892  0.4794 -0.9821  0.1081
  826SOL    HW2 3303   3.920   2.866   4.911  0.8432  1.2335  1.1317
  826SOL     MW 3304   3.857   2.921   4.887  0.1866  0.0918  0.1911
  827SOL     OW 3305   1.401   4.719   5.270  0.2583  0.4564  0.2485
  827SOL    HW1 3306   1.461   4.793   5.272  1.2325 -0.3079  0.2908
  827SOL    HW2 3307   1.392   4.692   5.362  0.1557  0.3263  0.2024
  827SOL     MW 3308   1.407   4.725   5.282  0.3699  0.3419  0.2481
  828SOL     OW 3309   0.214   2.600   0.627  0.3252 -0.6786 -0.0252
  828SOL    HW1 3310   0.140   2.540   0.619 -1.2711  1.2311 -0.7728
  828SOL    HW2 3311   0.275   2.573   0.558 -0.4449 -1.3292 -0.4730
  828SOL     MW 3312   0.212   2.589   0.617  0.0223 -0.5175 -0.1782
  829SOL     OW 3313   1.370   5.409   5.184  0.4625  0.0670 -0.6007
  829SOL    HW1 3314   1.390   5.484   5.240  0.0832 -0.3858  0.1554
  829SOL    HW2 3315   1.302   5.441   5.125 -0.1226  0.1658  0.1056
  829SOL     MW 3316   1.364   5.423   5.184  0.3390  0.0217 -0.4135
  830SOL     OW 3317   3.054   2.153   3.991  0.4755  0.0575  0.2550
  830SOL    HW1 3318   3.101   2.071   4.003 -0.1853 -0.3128  0.3964
  830SOL    HW2 3319   2.987   2.153   4.060  0.2537  0.5538  0.0477
  830SOL     MW 3320   3.051   2.143   4.001  0.3625  0.0736  0.2465
  831SOL     OW 3321   5.341   0.861   1.902  0.1297  0.4401 -0.1937
  831SOL    HW1 3322   5.256   0.905   1.905  1.0351  2.4621 -1.2945
  831SOL    HW2 3323   5.360   0.837   1.992 -1.4961  0.1702  0.0966
  831SOL     MW 3324   5.333   0.864   1.914  0.0375  0.6644 -0.2975
  832SOL     OW 3325   4.401   5.486   0.576 -0.0895 -0.2412 -0.3445
  832SOL    HW1 3326   4.474   5.509   0.518  0.8260 -0.7654  0.5495
  832SOL    HW2 3327   4.373   5.399   0.547  0.0306 -0.2839 -0.3353
  832SOL     MW 3328   4.407   5.478   0.565  0.0431 -0.3138 -0.2289
  833SOL     OW 3329   2.842   0.388   1.761  0.2809  0.0942  0.2993
  833SOL    HW1 3330   2.760   0.436   1.753  0.1969 -0.2169 -0.9969
  833SOL    HW2 3331   2.886   0.427   1.836 -0.8619  0.5451  0.7519
  833SOL     MW 3332   2.837   0.399   1.769  0.1239  0.1121  0.1913
  834SOL     OW 3333   0.013   2.406   1.881  0.2782  0.9484 -0.4427
  834SOL    HW1 3334   0.101   2.430   1.911  0.5062  0.7675 -0.9476
  834SOL    HW2 3335   0.025   2.385   1.788 -0.0521 -0.3424 -0.2208
  834SOL     MW 3336   0.026   2.406   1.873  0.2651  0.7600 -0.4789
  835SOL     OW 3337   1.599   3.548   1.807  0.2938 -0.3118  0.7348
  835SOL    HW1 3338   1.640   3.462   1.810 -0.6575 -0.9060 -1.2033
  835SOL    HW2 3339   1.505   3.530   1.808  0.0795  0.7936  1.6438
  835SOL     MW 3340   1.592   3.535   1.807  0.1446 -0.2464  0.6031
  836SOL     OW 3341   4.521   3.121   4.540 -0.4504  0.7726  0.1683
  836SOL    HW1 3342   4.469   3.068   4.601 -1.3319  1.3270 -0.0769
  836SOL    HW2 3343   4.494   3.211   4.558 -0.0006  1.0230 -0.3800
  836SOL     MW 3344   4.511   3.126   4.550 -0.5057  0.8756  0.0667
  837SOL     OW 3345   1.832   0.081   4.515  0.1217  0.4788 -0.6073
  837SOL    HW1 3346   1.793   0.129   4.441 -0.7134 -0.1795 -0.6187
  837SOL    HW2 3347   1.900   0.028   4.475  0.7900  1.3499 -0.6507
  837SOL     MW 3348   1.835   0.080   4.500  0.1004  0.5061 -0.6143
  838SOL     OW 3349   4.362   2.431   1.180  0.1218  0.2165 -0.4942
  838SOL    HW1 3350   4.380   2.337   1.191  1.3027  0.5664  0.8933
  838SOL    HW2 3351   4.365   2.466   1.269 -0.8439  1.5024 -0.9347
  838SOL     MW 3352   4.365   2.423   1.193  0.1494  0.4259 -0.3730
  839SOL     OW 3353   2.127   2.628   0.343  0.0470  0.3151 -0.3486
  839SOL    HW1 3354   2.048   2.678   0.366 -1.3233 -1.0515 -1.8339
  839SOL    HW2 3355   2.095   2.557   0.287  2.1061 -1.3947  0.4993
  839SOL     MW 3356   2.113   2.625   0.339  0.1352 -0.0787 -0.4302
  840SOL     OW 3357   4.460   1.107   5.291 -0.1405  0.0092  0.1379
  840SOL    HW1 3358   4.489   1.177   5.233 -0.7644  0.9256  0.9042
  840SOL    HW2 3359   4.529   1.041   5.285  0.7013  0.8969 -0.2327
  840SOL     MW 3360   4.473   1.108   5.283 -0.1126  0.2402  0.1885
  841SOL     OW 3361   1.391   2.231   3.054 -0.0942 -0.2265 -0.5067
  841SOL    HW1 3362   1.296   2.236   3.045 -0.2074 -2.4512 -1.1249
  841SOL    HW2 3363   1.425   2.256   2.968 -0.1272  0.1405 -0.4153
  841SOL     MW 3364   1.384   2.235   3.042 -0.1129 -0.4643 -0.5741
  842SOL     OW 3365   5.263   5.444   4.553  0.0856 -0.0352 -0.0791
  842SOL    HW1 3366   5.225   5.525   4.518 -2.5312 -0.5492  1.2889
  842SOL    HW2 3367   5.306   5.403   4.478  1.7948  2.7091 -0.7525
  842SOL     MW 3368   5.263   5.449   4.539 -0.0306  0.2503  0.0098
  843SOL     OW 3369   0.723   2.869   2.957  0.0651  0.2969  0.0600
  843SOL    HW1 3370   0.724   2.774   2.944 -1.0113  0.2611  0.1438
  843SOL    HW2 3371   0.648   2.885   3.014 -0.4664  1.3062 -0.8732
  843SOL     MW 3372   0.714   2.859   2.962 -0.1408  0.4215 -0.0488
  844SOL     OW 3373   0.312   0.262   3.176  0.2260  0.5761 -0.2509
  844SOL    HW1 3374   0.239   0.311   3.139  0.6920  0.1155 -1.8709
  844SOL    HW2 3375   0.327   0.191   3.115  2.1400  0.7659 -0.0774
  844SOL     MW 3376   0.305   0.260   3.163  0.5307  0.5415 -0.4361
  845SOL     OW 3377   2.141   5.345   5.168  0.1618 -0.4039  0.2266
  845SOL    HW1 3378   2.165   5.253   5.167 -0.9727 -0.7586  1.5884
  845SOL    HW2 3379   2.057   5.349   5.122  0.8703  0.1832 -1.0472
  845SOL     MW 3380   2.133   5.334   5.162  0.1073 -0.3742  0.2379
  846SOL     OW 3381   3.790   2.262   5.260  0.0115 -0.0146 -0.1389
  846SOL    HW1 3382   3.719   2.234   5.317 -0.1202 -1.5117 -0.9698
  846SOL    HW2 3383   3.870   2.236   5.306  0.0088  0.7217  0.3105
  846SOL     MW 3384   3.791   2.255   5.273 -0.0057 -0.1120 -0.1877
  847SOL     OW 3385   0.046   0.926   2.345 -0.1835 -0.0827  0.0920
  847SOL    HW1 3386  -0.007   0.859   2.389 -1.3676  1.3767  0.9930
  847SOL    HW2 3387   0.116   0.945   2.408  1.2087 -1.6615 -0.8953
  847SOL     MW 3388   0.048   0.920   2.359 -0.1568 -0.0980  0.0810
  848SOL     OW 3389   5.466   1.608   3.457 -0.3044  0.7133 -0.2082
  848SOL    HW1 3390   5.472   1.676   3.389 -0.9792 -0.5508 -1.6075
  848SOL    HW2 3391   5.493   1.528   3.413 -0.1951 -0.0591  1.2115
  848SOL     MW 3392   5.470   1.606   3.442 -0.3768  0.4526 -0.2056
  849SOL     OW 3393   4.139   0.361   3.006  1.0135 -0.2292 -0.4307
  849SOL    HW1 3394   4.127   0.345   3.100  0.1370 -0.8592 -0.6295
  849SOL    HW2 3395   4.175   0.279   2.972  0.4583 -0.3368 -0.7823
  849SOL     MW 3396   4.142   0.348   3.014  0.8302 -0.3237 -0.5012
  850SOL     OW 3397   0.004   5.007   4.803  0.7133 -0.0080  0.0269
  850SOL    HW1 3398  -0.041   4.925   4.786  0.9505 -0.2351  0.4620
  850SOL    HW2 3399   0.042   4.996   4.891  1.8385  0.0672 -0.4280
  850SOL     MW 3400   0.003   4.995   4.812  0.8877 -0.0274  0.0244
  851SOL     OW 3401   2.162   3.959   1.944 -0.0609 -0.1628 -0.1135
  851SOL    HW1 3402   2.243   3.946   1.895  1.1955  0.2474  1.7700
  851SOL    HW2 3403   2.107   4.012   1.885  1.3554  0.2703 -1.0942
  851SOL     MW 3404   2.165   3.964   1.930  0.2812 -0.0548  0.0020
  852SOL     OW 3405   2.725   5.001   4.996 -0.3682  0.0752 -0.2919
  852SOL    HW1 3406   2.817   4.994   4.970 -0.0515 -0.9390  1.0340
  852SOL    HW2 3407   2.682   5.041   4.920  0.5214 -2.5820 -2.3660
  852SOL     MW 3408   2.731   5.005   4.983 -0.2138 -0.3948 -0.3877
  853SOL     OW 3409   1.383   4.391   3.447  0.5511 -0.1163 -0.2274
  853SOL    HW1 3410   1.298   4.347   3.448 -0.1115  1.1285  0.3004
  853SOL    HW2 3411   1.440   4.336   3.501  0.9214 -2.4639 -2.7624
  853SOL     MW 3412   1.380   4.378   3.454  0.5137 -0.2575 -0.4843
  854SOL     OW 3413   2.264   0.976   4.208 -0.3923 -0.2211 -0.2862
  854SOL    HW1 3414   2.298   1.063   4.185  1.2564 -0.7533  0.0627
  854SOL    HW2 3415   2.267   0.974   4.304 -1.7752 -0.1717 -0.2116
  854SOL     MW 3416   2.268   0.987   4.217 -0.3583 -0.2829 -0.2320
  855SOL     OW 3417   3.522   3.997   5.179  0.1486  0.4821  0.3406
  855SOL    HW1 3418   3.453   3.947   5.222  0.3823  0.1158  0.3032
  855SOL    HW2 3419   3.513   3.975   5.086  0.3751  0.3509  0.3473
  855SOL     MW 3420   3.512   3.988   5.172  0.2075  0.4184  0.3367
  856SOL     OW 3421   1.842   4.332   4.337 -0.4100  0.1157  0.4427
  856SOL    HW1 3422   1.921   4.301   4.293  0.2671  1.8722  0.3380
  856SOL    HW2 3423   1.823   4.417   4.296 -1.2545  0.5999  1.7468
  856SOL     MW 3424   1.850   4.339   4.326 -0.4314  0.4025  0.5963
  857SOL     OW 3425   4.576   2.816   3.321 -0.0285  0.5932  0.0644
  857SOL    HW1 3426   4.529   2.821   3.238  0.2580 -1.1962 -0.2602
  857SOL    HW2 3427   4.583   2.906   3.350 -1.0102  1.1751 -1.3629
  857SOL     MW 3428   4.571   2.828   3.314 -0.1175  0.4386 -0.1599
  858SOL     OW 3429   5.427   3.336   4.636  0.0743 -0.4706  0.2463
  858SOL    HW1 3430   5.414   3.415   4.689 -0.0425 -0.6896  0.5506
  858SOL    HW2 3431   5.371   3.270   4.678 -1.3337 -0.2138 -1.1269
  858SOL     MW 3432   5.418   3.337   4.648 -0.1209 -0.4657  0.1095
  859SOL     OW 3433   1.037   4.760   2.068  0.3143 -0.6837  0.2356
  859SOL    HW1 3434   0.982   4.694   2.025  0.2827 -0.5688  0.1002
  859SOL    HW2 3435   1.057   4.823   1.999 -1.8929  0.9269  0.9452
  859SOL     MW 3436   1.033   4.760   2.054  0.0277 -0.4628  0.3091
  860SOL     OW 3437   4.239   1.687   1.133 -0.2826  0.0691  0.0439
  860SOL    HW1 3438   4.303   1.666   1.064 -0.7860  0.9381 -0.7196
  860SOL    HW2 3439   4.198   1.769   1.103 -0.6288  0.3834  1.3071
  860SOL     MW 3440   4.242   1.695   1.120 -0.3914  0.2206  0.1079
  861SOL     OW 3441   1.533   3.914   4.848  0.0773 -0.3493 -0.1955
  861SOL    HW1 3442   1.483   3.837   4.820 -2.0532  0.3230  1.4435
  861SOL    HW2 3443   1.599   3.878   4.909 -0.3960 -0.9725 -0.0376
  861SOL     MW 3444   1.535   3.899   4.852 -0.2560 -0.3430  0.0346
  862SOL     OW 3445   3.174   4.113   0.973 -0.1152 -0.3077 -0.0547
  862SOL    HW1 3446   3.102   4.175   0.962  0.1254 -0.2314 -1.4504
  862SOL    HW2 3447   3.132   4.027   0.980 -0.4381 -0.0459  1.6788
  862SOL     MW 3448   3.160   4.110   0.972 -0.1257 -0.2644 -0.0115
  863SOL     OW 3449   0.179   4.581   4.477  0.3505  0.4719  0.4868
  863SOL    HW1 3450   0.125   4.644   4.429  0.4748 -0.3745 -0.8237
  863SOL    HW2 3451   0.269   4.600   4.450  0.4473  0.1286  0.5631
  863SOL     MW 3452   0.183   4.592   4.467  0.3788  0.3196  0.3288
  864SOL     OW 3453   0.255   3.009   0.668 -0.1878  0.6637 -0.2684
  864SOL    HW1 3454   0.205   2.960   0.602  2.0857  0.4975 -2.0109
  864SOL    HW2 3455   0.242   3.101   0.644 -1.6790  0.7725  0.8744
  864SOL     MW 3456   0.247   3.014   0.656 -0.0876  0.6563 -0.3451
  865SOL     OW 3457   2.481   3.403   0.173 -0.0075 -0.5576 -0.2138
  865SOL    HW1 3458   2.562   3.390   0.222 -1.5340 -1.1729  2.3100
  865SOL    HW2 3459   2.467   3.497   0.173  0.4578 -0.4843 -0.3033
  865SOL     MW 3460   2.489   3.413   0.179 -0.1434 -0.6270  0.0978
  866SOL     OW 3461   4.188   3.645   4.793  0.3143  0.4268 -0.3374
  866SOL    HW1 3462   4.178   3.711   4.861 -1.6091  0.2654 -0.4189
  866SOL    HW2 3463   4.102   3.605   4.784  1.2708 -1.7639 -0.6530
  866SOL     MW 3464   4.176   3.648   4.800  0.1906  0.1257 -0.3882
  867SOL     OW 3465   3.304   2.419   4.970 -0.7731 -0.3176 -0.2293
  867SOL    HW1 3466   3.366   2.388   5.036 -1.2664 -1.4183 -0.2440
  867SOL    HW2 3467   3.346   2.399   4.886 -0.8121 -0.3477 -0.2419
  867SOL     MW 3468   3.317   2.412   4.968 -0.8412 -0.4624 -0.2328
  868SOL     OW 3469   2.477   0.067   1.277 -0.1522  0.1775 -0.1726
  868SOL    HW1 3470   2.390   0.071   1.319  0.7929  0.3265  1.9130
  868SOL    HW2 3471   2.525   0.002   1.328  0.8471 -0.1992 -1.5587
  868SOL     MW 3472   2.472   0.060   1.289  0.0967  0.1483 -0.0831
  869SOL     OW 3473   4.258   5.269   1.655  0.3901 -0.3742  0.4577
  869SOL    HW1 3474   4.330   5.266   1.592 -0.2556 -1.1911 -0.2724
  869SOL    HW2 3475   4.292   5.223   1.732  1.4635  1.3212  1.0518
  869SOL     MW 3476   4.271   5.262   1.657  0.4449 -0.2617  0.4403
  870SOL     OW 3477   0.363   4.018   4.543 -0.2864 -0.5132  0.2909
  870SOL    HW1 3478   0.411   3.937   4.561 -2.5246 -2.2670 -1.0889
  870SOL    HW2 3479   0.411   4.060   4.472 -0.3365 -1.8606 -0.5758
  870SOL     MW 3480   0.375   4.013   4.536 -0.5793 -0.9102  0.0034
  871SOL     OW 3481   4.462   1.661   0.938 -0.2896 -0.2963  0.6670
  871SOL    HW1 3482   4.538   1.648   0.995  0.1450 -0.3669  0.0712
  871SOL    HW2 3483   4.455   1.756   0.928 -0.3426 -0.2857  0.8016
  871SOL     MW 3484   4.471   1.672   0.944 -0.2407 -0.3040  0.6080
  872SOL     OW 3485   3.870   0.792   2.117  0.6342  0.2870 -0.1264
  872SOL    HW1 3486   3.962   0.783   2.142  0.4778  1.1873  0.8408
  872SOL    HW2 3487   3.865   0.879   2.077  0.3245 -0.0237 -0.7729
  872SOL     MW 3488   3.881   0.802   2.115  0.5745  0.3625 -0.0853
  873SOL     OW 3489   4.618   1.290   2.360 -0.0231 -0.5192  0.6155
  873SOL    HW1 3490   4.539   1.298   2.307 -0.9914  1.8782  2.2644
  873SOL    HW2 3491   4.598   1.218   2.421 -0.0988 -1.2491 -0.2405
  873SOL     MW 3492   4.605   1.282   2.361 -0.1568 -0.3057  0.7170
  874SOL     OW 3493   0.550   2.818   1.222 -0.1539 -0.2966  0.0756
  874SOL    HW1 3494   0.494   2.748   1.188 -0.9338 -0.0343  0.7828
  874SOL    HW2 3495   0.507   2.846   1.302 -0.5171  1.7878 -0.7850
  874SOL     MW 3496   0.537   2.813   1.228 -0.3002  0.0038  0.0560
  875SOL     OW 3497   2.853   4.573   4.715  0.2521 -0.1919 -0.1625
  875SOL    HW1 3498   2.879   4.551   4.805 -0.3439  1.6030  0.4868
  875SOL    HW2 3499   2.761   4.548   4.711 -0.2896  1.5505  0.4205
  875SOL     MW 3500   2.845   4.567   4.726  0.1065  0.2609 -0.0047
  876SOL     OW 3501   2.876   2.699   1.466  0.5121  0.1675 -0.1737
  876SOL    HW1 3502   2.891   2.616   1.422  1.7486  1.0925 -1.5882
  876SOL    HW2 3503   2.803   2.682   1.525  0.6927 -1.8891 -0.4718
  876SOL     MW 3504   2.869   2.686   1.468  0.6935  0.0226 -0.3929
  877SOL     OW 3505   0.922   3.522   5.057  0.1991 -0.1562  0.2197
  877SOL    HW1 3506   0.899   3.577   5.132 -1.3522 -1.1806  0.5338
  877SOL    HW2 3507   0.956   3.584   4.992 -0.9047  1.0959  0.7909
  877SOL     MW 3508   0.924   3.537   5.059 -0.1408 -0.1271  0.3331
  878SOL     OW 3509   4.012   3.604   0.690 -0.2191 -0.3281 -0.0401
  878SOL    HW1 3510   3.967   3.602   0.774  0.4554 -1.3047  0.3131
  878SOL    HW2 3511   4.003   3.694   0.660  2.5656  1.0558  2.7411
  878SOL     MW 3512   4.005   3.615   0.697  0.2237 -0.2759  0.3611
  879SOL     OW 3513   4.359   0.219   1.439 -0.2485 -0.3567  0.2320
  879SOL    HW1 3514   4.405   0.143   1.404  0.6959  0.2671  0.0787
  879SOL    HW2 3515   4.334   0.193   1.528  0.9120 -0.5170  0.5267
  879SOL     MW 3516   4.361   0.206   1.446  0.0209 -0.2973  0.2501
  880SOL     OW 3517   4.466   1.756   4.019  0.0172 -0.1282  0.2621
  880SOL    HW1 3518   4.490   1.802   3.939 -1.9828 -0.7191 -0.7525
  880SOL    HW2 3519   4.449   1.666   3.991 -0.5733 -0.3767  1.3582
  880SOL     MW 3520   4.467   1.750   4.005 -0.3144 -0.2356  0.2725
  881SOL     OW 3521   1.635   1.695   1.555  0.3850  0.2460 -0.3344
  881SOL    HW1 3522   1.569   1.755   1.518  0.2628  0.5604  0.3827
  881SOL    HW2 3523   1.711   1.750   1.572  0.5399  0.0471 -0.3831
  881SOL     MW 3524   1.636   1.710   1.552  0.3892  0.2608 -0.2488
  882SOL     OW 3525   1.330   2.456   2.639  0.3591 -0.1854  0.5997
  882SOL    HW1 3526   1.390   2.425   2.706  1.4462 -1.4139 -0.8736
  882SOL    HW2 3527   1.254   2.399   2.647  0.3808 -0.1661  0.9482
  882SOL     MW 3528   1.328   2.445   2.649  0.5010 -0.3402  0.4557
  883SOL     OW 3529   2.302   3.164   2.036  0.0806 -0.0391  0.1593
  883SOL    HW1 3530   2.302   3.193   1.945 -2.0595  0.3465  0.2247
  883SOL    HW2 3531   2.287   3.069   2.031  0.1817 -0.0522  0.1060
  883SOL     MW 3532   2.300   3.156   2.023 -0.1805  0.0086  0.1608
  884SOL     OW 3533   5.224   1.774   4.932 -0.0159 -0.2476  0.1402
  884SOL    HW1 3534   5.259   1.858   4.900 -0.0631  0.3505  1.5715
  884SOL    HW2 3535   5.143   1.762   4.884 -0.4016  0.9393  0.4567
  884SOL     MW 3536   5.218   1.784   4.922 -0.0713 -0.0191  0.3639
  885SOL     OW 3537   5.404   0.123   0.725  0.1891  0.0353  0.4357
  885SOL    HW1 3538   5.490   0.141   0.687 -0.8249  0.6248 -1.7320
  885SOL    HW2 3539   5.387   0.031   0.703 -0.2142  0.2504 -0.1663
  885SOL     MW 3540   5.413   0.113   0.717  0.0077  0.1383  0.0812
  886SOL     OW 3541   5.189   3.493   3.602  0.3129 -0.2739 -0.7986
  886SOL    HW1 3542   5.122   3.554   3.570  1.4637  0.3461 -2.1659
  886SOL    HW2 3543   5.214   3.528   3.688 -1.4389 -0.8159 -0.0264
  886SOL     MW 3544   5.184   3.505   3.609  0.2359 -0.2640 -0.8748
  887SOL     OW 3545   3.189   1.673   2.223  0.0510 -0.5266  0.0017
  887SOL    HW1 3546   3.206   1.763   2.194 -0.1881 -0.7742 -0.9281
  887SOL    HW2 3547   3.094   1.666   2.225  0.0590 -1.0797 -0.9856
  887SOL     MW 3548   3.179   1.684   2.220  0.0214 -0.6291 -0.2437
  888SOL     OW 3549   2.164   3.292   2.291 -0.0652  0.3429  0.0866
  888SOL    HW1 3550   2.228   3.241   2.240 -0.0971  0.3183  0.0713
  888SOL    HW2 3551   2.214   3.367   2.324  0.0477  0.1501  0.3470
  888SOL     MW 3552   2.179   3.295   2.289 -0.0549  0.3150  0.1179
  889SOL     OW 3553   0.168   4.712   0.104 -0.0526  0.8425 -0.0617
  889SOL    HW1 3554   0.076   4.714   0.129 -0.5349 -1.4210 -1.2840
  889SOL    HW2 3555   0.205   4.637   0.152  0.5830  0.4273 -1.1364
  889SOL     MW 3556   0.161   4.702   0.113 -0.0330  0.4996 -0.3557
  890SOL     OW 3557   4.262   0.004   4.937  0.1080  0.1550 -0.2259
  890SOL    HW1 3558   4.202  -0.056   4.892 -0.7454  0.6123  0.2855
  890SOL    HW2 3559   4.290   0.065   4.868 -0.4475  0.2728 -0.3509
  890SOL     MW 3560   4.258   0.004   4.922 -0.0723  0.2286 -0.1764
  891SOL     OW 3561   3.483   2.068   2.206 -0.1385 -0.2334  0.0001
  891SOL    HW1 3562   3.416   2.124   2.244  0.0022 -0.6930  0.9699
  891SOL    HW2 3563   3.529   2.030   2.282  1.4556  0.3560 -0.6152
  891SOL     MW 3564   3.481   2.070   2.221  0.0836 -0.2168  0.0454
  892SOL     OW 3565   5.284   2.237   1.954 -0.2462  0.3109 -0.1407
  892SOL    HW1 3566   5.367   2.256   1.911 -1.5437  2.1207 -2.0079
  892SOL    HW2 3567   5.286   2.143   1.971  1.5765  0.0817 -1.4518
  892SOL     MW 3568   5.295   2.228   1.951 -0.1790  0.5133 -0.5476
  893SOL     OW 3569   2.164   5.105   0.657 -0.4337  0.0280 -0.2276
  893SOL    HW1 3570   2.076   5.095   0.622 -0.2655  1.5344 -1.1505
  893SOL    HW2 3571   2.221   5.063   0.592 -0.2511  1.5275 -1.0727
  893SOL     MW 3572   2.160   5.098   0.644 -0.3888  0.4128 -0.4539
  894SOL     OW 3573   1.986   3.266   2.840  0.3885 -0.2077 -0.1978
  894SOL    HW1 3574   2.058   3.250   2.901 -0.1825 -1.3720  0.2004
  894SOL    HW2 3575   1.933   3.334   2.883 -0.0689 -1.0905  0.6790
  894SOL     MW 3576   1.988   3.273   2.853  0.2569 -0.4697 -0.0346
  895SOL     OW 3577   2.855   5.433   1.574 -0.6221 -0.3715 -0.0842
  895SOL    HW1 3578   2.940   5.457   1.537  0.0905  0.8533  2.2037
  895SOL    HW2 3579   2.864   5.340   1.594 -0.3281 -0.5703 -1.0437
  895SOL     MW 3580   2.867   5.424   1.572 -0.4933 -0.2401  0.0859
  896SOL     OW 3581   0.300   0.330   4.401 -0.0741  0.7689 -0.1185
  896SOL    HW1 3582   0.243   0.399   4.435  0.1669 -0.1246  2.2525
  896SOL    HW2 3583   0.368   0.320   4.467  0.1789 -1.4006 -0.6376
  896SOL     MW 3584   0.302   0.337   4.414 -0.0109  0.3768  0.1186
  897SOL     OW 3585   3.305   3.309   4.695  0.1406  0.2490 -0.0678
  897SOL    HW1 3586   3.237   3.315   4.629  0.7319 -0.2042 -0.7360
  897SOL    HW2 3587   3.365   3.381   4.676 -0.2515  0.7801  0.6521
  897SOL     MW 3588   3.304   3.319   4.684  0.1661  0.2590 -0.0611
  898SOL     OW 3589   2.158   1.405   0.517  0.5263  0.5158  0.1594
  898SOL    HW1 3590   2.158   1.498   0.493 -0.1216  0.7587  1.0218
  898SOL    HW2 3591   2.250   1.383   0.530  0.7899  0.6870 -1.2957
  898SOL     MW 3592   2.169   1.414   0.516  0.4771  0.5688  0.0835
  899SOL     OW 3593   3.648   1.924   3.900 -0.2343  0.3832 -0.1257
  899SOL    HW1 3594   3.692   1.859   3.845 -0.4665  1.6894 -1.9309
  899SOL    HW2 3595   3.558   1.927   3.866 -1.3345 -0.9824  2.3679
  899SOL     MW 3596   3.642   1.916   3.888 -0.4049  0.3756 -0.0376
  900SOL     OW 3597   1.786   4.057   3.100  0.0819  0.2700 -0.1512
  900SOL    HW1 3598   1.881   4.053   3.094  0.0553  0.2945 -0.5818
  900SOL    HW2 3599   1.755   4.023   3.016 -0.2886  0.2259  0.0031
  900SOL     MW 3600   1.794   4.052   3.089  0.0311  0.2675 -0.1866
  901SOL     OW 3601   4.359   0.318   2.479  0.4718 -0.4989  0.0698
  901SOL    HW1 3602   4.328   0.366   2.403 -0.0146  1.2192  1.2788
  901SOL    HW2 3603   4.455   0.324   2.474  0.4265  0.1841 -0.0719
  901SOL     MW 3604   4.368   0.325   2.469  0.4037 -0.1915  0.2064
  902SOL     OW 3605   4.868   1.696   2.013 -0.4558 -0.1133 -0.1867
  902SOL    HW1 3606   4.826   1.618   1.977  1.0885 -1.3725  0.6357
  902SOL    HW2 3607   4.955   1.697   1.974 -0.7445  1.7517 -0.8907
  902SOL     MW 3608   4.874   1.686   2.004 -0.2951 -0.0358 -0.1715
  903SOL     OW 3609   1.138   1.784   3.810  0.1435  0.0033 -0.1637
  903SOL    HW1 3610   1.063   1.724   3.814 -0.0741  0.2293 -0.6636
  903SOL    HW2 3611   1.214   1.728   3.823 -0.1305 -0.1640  0.8350
  903SOL     MW 3612   1.138   1.769   3.812  0.0806  0.0108 -0.0998
  904SOL     OW 3613   2.713   0.683   5.160 -0.4000  0.2729 -0.4033
  904SOL    HW1 3614   2.727   0.589   5.162  1.4365  0.5130  0.0538
  904SOL    HW2 3615   2.645   0.699   5.225  0.7331 -0.5618  1.0503
  904SOL     MW 3616   2.706   0.673   5.168 -0.0199  0.1968 -0.1587
  905SOL     OW 3617   3.466   4.600   1.103  0.5266 -0.2490 -0.4669
  905SOL    HW1 3618   3.475   4.538   1.175 -0.0394 -0.3600 -0.4825
  905SOL    HW2 3619   3.453   4.546   1.025  0.3863 -0.1197 -0.5356
  905SOL     MW 3620   3.465   4.586   1.102  0.4362 -0.2467 -0.4777
  906SOL     OW 3621   5.357   0.426   4.590  0.3067 -0.0146 -0.3969
  906SOL    HW1 3622   5.340   0.382   4.673  2.7186  0.7522  0.5686
  906SOL    HW2 3623   5.390   0.512   4.614  1.0368  0.2413 -2.1452
  906SOL     MW 3624   5.359   0.431   4.604  0.7089  0.1164 -0.4971
  907SOL     OW 3625   1.372   5.145   5.313 -0.2758  0.1759  0.0806
  907SOL    HW1 3626   1.311   5.107   5.250 -2.5548  1.4268  1.4239
  907SOL    HW2 3627   1.367   5.239   5.297  1.5308  0.3143  0.0961
  907SOL     MW 3628   1.364   5.152   5.303 -0.3363  0.3538  0.2546
  908SOL     OW 3629   0.287   0.718   2.392 -0.2727 -0.0692 -0.7971
  908SOL    HW1 3630   0.238   0.698   2.313 -0.6983  0.7406 -0.7512
  908SOL    HW2 3631   0.378   0.726   2.363 -0.3555 -0.2644 -1.1124
  908SOL     MW 3632   0.293   0.717   2.378 -0.3378  0.0095 -0.8316
  909SOL     OW 3633   1.776   1.923   0.347 -0.5939  0.4622 -0.2870
  909SOL    HW1 3634   1.756   1.993   0.284 -0.4867  1.2582  0.5314
  909SOL    HW2 3635   1.860   1.888   0.318 -1.2774 -0.2675 -1.4919
  909SOL     MW 3636   1.784   1.928   0.335 -0.6677  0.4707 -0.3365
  910SOL     OW 3637   3.960   3.862   1.928  0.2974  0.7250  0.5101
  910SOL    HW1 3638   3.982   3.773   1.901  1.2682  1.3518 -0.8537
  910SOL    HW2 3639   3.997   3.869   2.016  0.6371 -0.0489  0.4414
  910SOL     MW 3640   3.967   3.851   1.936  0.4651  0.7062  0.3267
  911SOL     OW 3641   5.264   0.889   0.910  0.1526 -0.0869  0.0258
  911SOL    HW1 3642   5.180   0.867   0.871 -0.8290  1.2643  1.2543
  911SOL    HW2 3643   5.279   0.822   0.977 -0.7364  0.5285  0.8649
  911SOL     MW 3644   5.255   0.878   0.914 -0.0868  0.1648  0.2905
  912SOL     OW 3645   2.993   5.215   1.206  0.4894  0.1944  0.3178
  912SOL    HW1 3646   2.963   5.180   1.122  2.3503 -1.0701  0.1149
  912SOL    HW2 3647   2.920   5.268   1.237 -0.4341  0.3172 -1.8649
  912SOL     MW 3648   2.980   5.217   1.199  0.6094  0.0482  0.0124
  913SOL     OW 3649   3.983   4.670   1.791  0.1813 -0.3465  0.2186
  913SOL    HW1 3650   3.961   4.663   1.698  1.5664  0.5258 -0.1936
  913SOL    HW2 3651   3.898   4.672   1.835 -0.5047 -1.9350 -0.9037
  913SOL     MW 3652   3.969   4.669   1.784  0.2708 -0.4382  0.0222
  914SOL     OW 3653   3.418   4.001   4.908 -0.2722  0.7084  0.1459
  914SOL    HW1 3654   3.390   4.092   4.922 -2.0290  0.0836  1.0131
  914SOL    HW2 3655   3.362   3.970   4.837  1.6360  0.8240 -1.4922
  914SOL     MW 3656   3.407   4.009   4.901 -0.2528  0.6432  0.0472
  915SOL     OW 3657   0.302   2.495   0.365 -0.1745 -0.2837 -0.0557
  915SOL    HW1 3658   0.216   2.461   0.390  0.1766 -1.1292  0.0209
  915SOL    HW2 3659   0.364   2.441   0.413  0.4583 -0.8115 -1.4101
  915SOL     MW 3660   0.299   2.484   0.374 -0.0486 -0.4595 -0.2193
  916SOL     OW 3661   4.300   0.444   1.922  0.5534  0.0682 -0.0558
  916SOL    HW1 3662   4.323   0.428   1.831  0.5895  2.4560 -0.5040
  916SOL    HW2 3663   4.228   0.507   1.919 -1.8112 -2.2891  1.5039
  916SOL     MW 3664   4.293   0.450   1.910  0.2553  0.0721  0.0864
  917SOL     OW 3665   3.520   2.298   2.596  0.8591  0.4377 -0.1263
  917SOL    HW1 3666   3.469   2.363   2.548  1.3429  1.6510  0.9847
  917SOL    HW2 3667   3.460   2.263   2.662  0.4212 -0.7100 -1.0782
  917SOL     MW 3668   3.506   2.302   2.598  0.8650  0.4461 -0.1059
  918SOL     OW 3669   4.158   3.172   3.760 -0.0255  0.1573 -0.2616
  918SOL    HW1 3670   4.212   3.243   3.795 -0.4013  0.6934 -0.7585
  918SOL    HW2 3671   4.095   3.216   3.703 -0.1866 -0.5908 -0.6663
  918SOL     MW 3672   4.157   3.187   3.757 -0.0942  0.1302 -0.3770
  919SOL     OW 3673   0.898   4.821   2.495  0.2579 -0.3806 -0.0751
  919SOL    HW1 3674   0.976   4.766   2.494  0.9808  0.6296 -0.1889
  919SOL    HW2 3675   0.893   4.857   2.406 -0.7865 -1.0263 -0.3049
  919SOL     MW 3676   0.907   4.818   2.483  0.2168 -0.3339 -0.1191
  920SOL     OW 3677   3.576   4.634   2.544  0.3819 -0.4223  0.8496
  920SOL    HW1 3678   3.666   4.612   2.519  0.0240  0.5112 -1.6236
  920SOL    HW2 3679   3.571   4.729   2.533 -0.5933 -0.2881  2.1974
  920SOL     MW 3680   3.587   4.643   2.539  0.2112 -0.2856  0.7055
  921SOL     OW 3681   1.656   2.357   3.611 -0.1757  0.2606 -0.1165
  921SOL    HW1 3682   1.666   2.419   3.684  1.0105 -0.4122  0.3153
  921SOL    HW2 3683   1.566   2.324   3.620  0.6282 -1.5875  2.5263
  921SOL     MW 3684   1.645   2.361   3.622  0.0791 -0.0621  0.2771
  922SOL     OW 3685   4.492   1.659   0.041 -0.1810 -0.1003  0.7202
  922SOL    HW1 3686   4.431   1.714   0.091 -0.4372  0.3795 -0.0990
  922SOL    HW2 3687   4.455   1.571   0.048 -0.3394 -0.0045  1.1801
  922SOL     MW 3688   4.479   1.655   0.048 -0.2340 -0.0266  0.6742
  923SOL     OW 3689   4.692   3.519   4.829 -0.0816  0.1487 -0.2358
  923SOL    HW1 3690   4.752   3.593   4.818  0.3525 -0.0150  0.8330
  923SOL    HW2 3691   4.674   3.488   4.740  2.1362 -0.3521 -0.5572
  923SOL     MW 3692   4.697   3.524   4.817  0.2579  0.0636 -0.1401
  924SOL     OW 3693   2.169   2.393   2.273 -0.3595 -0.1442  0.0284
  924SOL    HW1 3694   2.084   2.370   2.309  0.1627 -0.3547  1.1575
  924SOL    HW2 3695   2.228   2.325   2.304  0.3062  0.2238 -0.3993
  924SOL     MW 3696   2.166   2.381   2.281 -0.2075 -0.1240  0.1182
  925SOL     OW 3697   2.858   0.005   1.270  0.1324  0.3029  0.1402
  925SOL    HW1 3698   2.832   0.047   1.189 -0.0341 -0.4623 -0.2151
  925SOL    HW2 3699   2.778  -0.035   1.304  0.4940 -0.6534 -0.0998
  925SOL     MW 3700   2.845   0.005   1.264  0.1574  0.0826  0.0640
  926SOL     OW 3701   3.367   2.253   2.824  0.6562 -0.5368  0.2605
  926SOL    HW1 3702   3.387   2.323   2.887  0.8086  0.8826 -1.3092
  926SOL    HW2 3703   3.272   2.246   2.826  0.6177 -0.0544  0.1906
  926SOL     MW 3704   3.358   2.261   2.833  0.6708 -0.2934  0.0506
  927SOL     OW 3705   5.021   0.481   1.471 -0.4711 -0.2170 -0.3458
  927SOL    HW1 3706   4.978   0.429   1.402 -1.4593 -0.4272  0.4101
  927SOL    HW2 3707   5.083   0.536   1.424 -0.6847 -0.8024 -1.3486
  927SOL     MW 3708   5.023   0.481   1.456 -0.6249 -0.3188 -0.3774
  928SOL     OW 3709   1.702   2.968   2.951 -0.2273  0.1909  0.7982
  928SOL    HW1 3710   1.625   3.025   2.956 -0.2412  0.6057 -2.3103
  928SOL    HW2 3711   1.753   3.002   2.878  0.6564 -2.7106 -0.0950
  928SOL     MW 3712   1.699   2.979   2.942 -0.1160 -0.1274  0.2859
  929SOL     OW 3713   0.489   4.931   3.749  0.0387 -0.0462  0.3596
  929SOL    HW1 3714   0.425   4.921   3.679 -2.4631 -0.2490  2.4939
  929SOL    HW2 3715   0.514   4.842   3.773 -0.3968 -0.0533  0.7998
  929SOL     MW 3716   0.484   4.919   3.743 -0.3373 -0.0731  0.6891
  930SOL     OW 3717   5.351   0.580   3.238  0.0953 -0.4073 -0.1219
  930SOL    HW1 3718   5.357   0.501   3.292 -0.0862  0.0143  0.5174
  930SOL    HW2 3719   5.368   0.652   3.298 -1.2685  0.1526 -0.3696
  930SOL     MW 3720   5.354   0.579   3.252 -0.1026 -0.2817 -0.0718
  931SOL     OW 3721   4.387   5.277   3.000  0.3320  0.0770  0.5885
  931SOL    HW1 3722   4.361   5.316   3.083 -0.0187  1.6464 -0.2309
  931SOL    HW2 3723   4.305   5.267   2.951  0.6150 -0.2019  0.1646
  931SOL     MW 3724   4.373   5.280   3.005  0.3234  0.2422  0.4293
  932SOL     OW 3725   2.525   4.081   3.440  1.0781 -0.6456  0.2898
  932SOL    HW1 3726   2.564   4.165   3.414 -1.5882  0.4507 -0.4692
  932SOL    HW2 3727   2.515   4.033   3.357 -0.4571 -0.2913  0.2428
  932SOL     MW 3728   2.529   4.086   3.426  0.5403 -0.4599  0.1867
  933SOL     OW 3729   4.764   0.901   0.562  0.0228 -0.0447  0.0475
  933SOL    HW1 3730   4.839   0.868   0.513  0.7259  1.4218  0.0836
  933SOL    HW2 3731   4.688   0.866   0.516  0.7048 -0.2124 -0.9879
  933SOL     MW 3732   4.764   0.892   0.550  0.2001  0.1216 -0.0804
  934SOL     OW 3733   3.708   0.078   5.055 -0.3870  0.5121  0.5777
  934SOL    HW1 3734   3.777   0.070   5.120 -1.3840 -0.5936  1.5426
  934SOL    HW2 3735   3.688   0.171   5.053  1.6105  0.9735 -0.2731
  934SOL     MW 3736   3.714   0.089   5.063 -0.2589  0.4296  0.5923
  935SOL     OW 3737   3.563   1.191   3.526  0.6372  0.4241  0.0493
  935SOL    HW1 3738   3.616   1.263   3.561 -0.8889  2.7284 -2.0274
  935SOL    HW2 3739   3.618   1.153   3.458  0.7053  1.0201 -0.2413
  935SOL     MW 3740   3.577   1.196   3.522  0.4506  0.7953 -0.2538
  936SOL     OW 3741   4.724   0.649   4.239  0.2666  0.6270  0.3587
  936SOL    HW1 3742   4.765   0.735   4.232  0.5865  0.4088 -0.6693
  936SOL    HW2 3743   4.630   0.666   4.240  0.2879  0.9247 -1.1964
  936SOL     MW 3744   4.717   0.662   4.238  0.3103  0.6372  0.0280
  937SOL     OW 3745   3.336   1.264   1.266 -0.4382 -0.4207  0.4142
  937SOL    HW1 3746   3.397   1.236   1.198 -1.4582 -0.6563 -0.4403
  937SOL    HW2 3747   3.354   1.357   1.277 -1.1899 -0.0256 -1.2476
  937SOL     MW 3748   3.346   1.273   1.258 -0.6650 -0.4003  0.0921
  938SOL     OW 3749   4.548   4.562   0.413  0.1914 -0.1145 -0.8499
  938SOL    HW1 3750   4.535   4.573   0.319 -0.3253 -0.1658 -0.7850
  938SOL    HW2 3751   4.559   4.467   0.425 -2.8102 -0.5118 -0.5011
  938SOL     MW 3752   4.548   4.551   0.403 -0.2590 -0.1719 -0.7969
  939SOL     OW 3753   1.748   0.473   2.887  0.6330  0.2539 -0.2800
  939SOL    HW1 3754   1.700   0.404   2.933 -2.4304  3.0401  1.1206
  939SOL    HW2 3755   1.722   0.463   2.795 -3.0771  1.7378  0.4408
  939SOL     MW 3756   1.738   0.463   2.881 -0.2341  0.8005 -0.0085
  940SOL     OW 3757   2.972   2.963   1.042 -0.1845  0.3588 -0.6703
  940SOL    HW1 3758   2.906   2.894   1.046  0.3028 -0.0763  0.4322
  940SOL    HW2 3759   2.966   3.006   1.128  0.3580  0.8945 -0.8958
  940SOL     MW 3760   2.963   2.960   1.054 -0.0527  0.3717 -0.5580
  941SOL     OW 3761   1.611   5.404   2.333  0.4156  0.4456 -0.2138
  941SOL    HW1 3762   1.526   5.447   2.342  1.2475  2.1066  0.0342
  941SOL    HW2 3763   1.592   5.323   2.286 -1.3234  0.7052 -0.0212
  941SOL     MW 3764   1.598   5.399   2.328  0.2995  0.6914 -0.1574
  942SOL     OW 3765   2.369   4.291   4.543 -0.1689  0.0790 -0.5725
  942SOL    HW1 3766   2.312   4.248   4.606 -0.2383  1.8455  0.6610
  942SOL    HW2 3767   2.339   4.260   4.458 -1.0523 -1.2309  0.1808
  942SOL     MW 3768   2.358   4.282   4.540 -0.2909  0.1374 -0.3182
  943SOL     OW 3769   1.722   4.448   3.632 -0.3005 -0.0687 -0.3197
  943SOL    HW1 3770   1.778   4.436   3.709  0.7763  0.7136 -0.9472
  943SOL    HW2 3771   1.645   4.395   3.650  0.6969 -1.3086  0.5254
  943SOL     MW 3772   1.720   4.439   3.644 -0.0350 -0.1273 -0.2918
  944SOL     OW 3773   5.502   5.146   3.482  0.6847 -0.3944  0.5116
  944SOL    HW1 3774   5.480   5.236   3.506  0.4391 -0.5407  0.8415
  944SOL    HW2 3775   5.426   5.095   3.509 -1.1137 -0.1845 -3.4508
  944SOL     MW 3776   5.489   5.151   3.488  0.4231 -0.3863  0.0466
  945SOL     OW 3777   3.976   0.625   0.026  0.3406  0.2884 -0.3377
  945SOL    HW1 3778   4.013   0.537   0.022  0.5111  0.3735 -0.6805
  945SOL    HW2 3779   4.008   0.662   0.109 -1.5900 -0.7884  0.9717
  945SOL     MW 3780   3.984   0.619   0.036  0.1153  0.1614 -0.2140
  946SOL     OW 3781   0.058   4.199   5.310 -0.4040 -0.0576  0.4476
  946SOL    HW1 3782   0.068   4.136   5.239 -0.9289 -0.0118  0.3263
  946SOL    HW2 3783   0.144   4.202   5.352  0.1919  0.5989 -0.7584
  946SOL     MW 3784   0.070   4.191   5.306 -0.3949  0.0323  0.2777
  947SOL     OW 3785   2.189   1.443   4.630  0.3837  0.0082 -0.1014
  947SOL    HW1 3786   2.163   1.351   4.626  0.3049  0.0468 -0.4712
  947SOL    HW2 3787   2.269   1.443   4.683  0.1148 -0.2123  0.3046
  947SOL     MW 3788   2.196   1.431   4.636  0.3392 -0.0151 -0.0968
  948SOL     OW 3789   1.913   5.036   1.007  0.1946  0.2908  0.2594
  948SOL    HW1 3790   1.841   5.043   1.070  1.4979  1.2373  1.7217
  948SOL    HW2 3791   1.932   4.942   1.002  0.1782  0.2138  1.4264
  948SOL     MW 3792   1.907   5.025   1.014  0.3594  0.4021  0.5960
  949SOL     OW 3793   2.493   3.305   3.041  0.4637  0.4539 -0.3040
  949SOL    HW1 3794   2.409   3.272   3.009  1.6965 -1.5229 -1.7309
  949SOL    HW2 3795   2.472   3.392   3.077 -2.4065 -0.5107  0.6950
  949SOL     MW 3796   2.479   3.312   3.042  0.2541  0.0774 -0.3588
  950SOL     OW 3797   0.474   1.809   1.427 -0.0433  0.0506 -0.0725
  950SOL    HW1 3798   0.451   1.720   1.399  1.0992 -0.6409  1.0721
  950SOL    HW2 3799   0.395   1.860   1.412 -0.2432 -0.7891 -2.2414
  950SOL     MW 3800   0.461   1.804   1.421  0.0773 -0.1454 -0.2037
  951SOL     OW 3801   2.222   1.725   3.472 -0.1026  0.2073 -0.1352
  951SOL    HW1 3802   2.307   1.752   3.507 -0.0737  2.5744 -1.7897
  951SOL    HW2 3803   2.242   1.688   3.386 -0.7416  1.5016 -0.8803
  951SOL     MW 3804   2.236   1.724   3.466 -0.1807  0.6760 -0.4424
  952SOL     OW 3805   5.321   4.968   0.205 -0.0312  0.0605  0.2100
  952SOL    HW1 3806   5.343   4.996   0.294 -0.6317 -0.2228  0.4527
  952SOL    HW2 3807   5.373   5.026   0.149 -1.2921  1.7423  0.6838
  952SOL     MW 3808   5.331   4.979   0.210 -0.2695  0.2395  0.3017
  953SOL     OW 3809   4.356   3.395   2.800 -0.0365  0.1377  0.1449
  953SOL    HW1 3810   4.377   3.302   2.806 -0.5517 -0.0802 -0.9885
  953SOL    HW2 3811   4.261   3.397   2.785 -0.0860  0.8621  0.4972
  953SOL     MW 3812   4.346   3.383   2.799 -0.1088  0.2026  0.0449
  954SOL     OW 3813   1.811   3.651   4.610  0.1547  0.3435  0.0059
  954SOL    HW1 3814   1.795   3.582   4.545 -0.6624  2.8499 -2.6612
  954SOL    HW2 3815   1.752   3.630   4.682 -0.6550 -1.2965 -1.0623
  954SOL     MW 3816   1.802   3.639   4.611 -0.0536  0.4544 -0.4723
  955SOL     OW 3817   4.395   3.305   5.460  0.2167 -0.4891 -0.2827
  955SOL    HW1 3818   4.305   3.275   5.471  0.2559 -0.1945  1.0151
  955SOL    HW2 3819   4.389   3.378   5.399 -0.6134  0.3215  0.7309
  955SOL     MW 3820   4.383   3.311   5.454  0.1155 -0.3476  0.0132
  956SOL     OW 3821   0.303   4.978   1.413  0.7757  0.0501 -0.6107
  956SOL    HW1 3822   0.235   5.044   1.422 -0.2163 -0.7889 -1.6633
  956SOL    HW2 3823   0.312   4.965   1.319 -1.2451 -3.4224 -0.5014
  956SOL     MW 3824   0.296   4.985   1.402  0.3900 -0.5018 -0.7314
  957SOL     OW 3825   2.494   3.534   1.918  0.3542  0.2205  0.1219
  957SOL    HW1 3826   2.444   3.482   1.855 -0.4186  0.2986  0.6700
  957SOL    HW2 3827   2.482   3.488   2.001  2.3326 -0.5651  0.0338
  957SOL     MW 3828   2.486   3.521   1.920  0.5085  0.1299  0.1808
  958SOL     OW 3829   4.979   5.433   3.309 -0.3092  0.0601  0.1747
  958SOL    HW1 3830   4.908   5.448   3.247 -0.1219 -1.5020 -0.4631
  958SOL    HW2 3831   5.055   5.414   3.254  0.1660 -0.1205  0.8798
  958SOL     MW 3832   4.980   5.433   3.294 -0.2244 -0.1630  0.1833
  959SOL     OW 3833   3.893   2.898   4.236  0.0839 -0.8369  0.6958
  959SOL    HW1 3834   3.898   2.993   4.230 -0.7114 -0.8548 -1.1814
  959SOL    HW2 3835   3.962   2.866   4.178 -0.2331 -1.3732  0.5979
  959SOL     MW 3836   3.902   2.906   4.227 -0.0584 -0.9078  0.4430
  960SOL     OW 3837   0.670   0.548   1.971  0.1381  0.2245  0.7363
  960SOL    HW1 3838   0.613   0.503   2.033 -0.5081 -0.3050 -0.2063
  960SOL    HW2 3839   0.616   0.621   1.938 -0.9025 -1.5332 -1.7779
  960SOL     MW 3840   0.655   0.552   1.975 -0.0778 -0.0683  0.2938
  961SOL     OW 3841   3.059   4.084   4.578 -0.3501 -0.1317 -0.4258
  961SOL    HW1 3842   3.021   4.134   4.650 -1.1351 -0.7036 -0.4259
  961SOL    HW2 3843   3.006   4.004   4.574  0.3585 -0.5878 -0.9509
  961SOL     MW 3844   3.048   4.080   4.587 -0.3599 -0.2633 -0.4931
  962SOL     OW 3845   0.418   0.160   0.232  0.6105  0.2634 -0.0527
  962SOL    HW1 3846   0.382   0.079   0.197 -2.5183  1.6727 -0.3968
  962SOL    HW2 3847   0.459   0.203   0.157  1.0328 -0.3123 -0.1615
  962SOL     MW 3848   0.419   0.155   0.218  0.2640  0.3701 -0.1107
  963SOL     OW 3849   4.507   2.096   4.658  0.0709 -0.3476  0.3464
  963SOL    HW1 3850   4.451   2.137   4.724  1.2716  0.5859  0.8158
  963SOL    HW2 3851   4.596   2.115   4.686  0.6233  0.6419 -1.8642
  963SOL     MW 3852   4.511   2.104   4.670  0.2954 -0.1014  0.1235
  964SOL     OW 3853   3.053   2.999   3.178 -0.5003 -0.3049 -0.1383
  964SOL    HW1 3854   3.039   2.926   3.238  1.5757 -0.7902 -0.1454
  964SOL    HW2 3855   2.974   3.052   3.185 -1.9362 -2.3799  0.0916
  964SOL     MW 3856   3.041   2.996   3.187 -0.4184 -0.6327 -0.1098
  965SOL     OW 3857   3.928   5.259   4.350 -0.1016 -0.0201  0.1294
  965SOL    HW1 3858   3.951   5.191   4.414  1.8993 -0.7820 -1.2736
  965SOL    HW2 3859   3.871   5.214   4.288 -1.2483  0.4546  0.8117
  965SOL     MW 3860   3.924   5.244   4.350  0.0078 -0.0569  0.0372
  966SOL     OW 3861   3.064   4.246   4.132 -0.7127 -0.4820 -0.0424
  966SOL    HW1 3862   3.153   4.279   4.121  0.2688 -1.9111  2.6824
  966SOL    HW2 3863   3.061   4.168   4.076  0.3935 -1.3783  1.0604
  966SOL     MW 3864   3.075   4.240   4.124 -0.4455 -0.7797  0.4476
  967SOL     OW 3865   3.713   3.404   0.160  0.5182  0.5602 -0.1458
  967SOL    HW1 3866   3.681   3.470   0.099  2.3324  1.3414 -0.2980
  967SOL    HW2 3867   3.676   3.322   0.127 -1.8263  1.4504  0.0899
  967SOL     MW 3868   3.704   3.402   0.148  0.4503  0.7742 -0.1351
  968SOL     OW 3869   3.060   5.475   2.553 -0.1381 -0.2220 -0.7824
  968SOL    HW1 3870   2.980   5.528   2.563 -0.4550 -0.5411 -1.5008
  968SOL    HW2 3871   3.046   5.427   2.471  0.5121 -0.7824 -0.5709
  968SOL     MW 3872   3.048   5.476   2.543 -0.0954 -0.3346 -0.8473
  969SOL     OW 3873   1.066   1.193   1.210 -0.1787  0.2332  0.4488
  969SOL    HW1 3874   1.066   1.273   1.262 -1.2206  1.7131 -1.6914
  969SOL    HW2 3875   1.157   1.162   1.214 -0.0240  0.8189  2.2783
  969SOL     MW 3876   1.078   1.199   1.217 -0.2922  0.4976  0.4090
  970SOL     OW 3877   1.495   3.504   0.733  0.2220  0.0961 -0.6672
  970SOL    HW1 3878   1.445   3.569   0.782 -0.1573 -0.1981 -0.6665
  970SOL    HW2 3879   1.587   3.530   0.746  0.2178 -0.6682  1.2013
  970SOL     MW 3880   1.501   3.516   0.741  0.1729 -0.0394 -0.4279
  971SOL     OW 3881   1.375   2.374   1.536 -0.5501  0.2728 -0.4907
  971SOL    HW1 3882   1.306   2.310   1.517 -0.8826  0.8075 -1.1275
  971SOL    HW2 3883   1.349   2.413   1.619 -0.0277 -0.8283  0.2178
  971SOL     MW 3884   1.363   2.370   1.544 -0.5258  0.2003 -0.4815
  972SOL     OW 3885   1.376   0.918   1.578  0.1493 -0.8175 -0.3282
  972SOL    HW1 3886   1.446   0.854   1.592  1.2922  0.3941 -0.2839
  972SOL    HW2 3887   1.370   0.927   1.483  0.1374 -0.8352 -0.3291
  972SOL     MW 3888   1.384   0.911   1.567  0.2941 -0.6647 -0.3227
  973SOL     OW 3889   4.530   5.454   5.013  0.6054  0.4809  0.6227
  973SOL    HW1 3890   4.440   5.455   4.980  0.5885  0.2009  0.6604
  973SOL    HW2 3891   4.573   5.386   4.962  0.6268  0.1716  1.0558
  973SOL     MW 3892   4.524   5.446   5.002  0.6059  0.4055  0.6829
  974SOL     OW 3893   1.832   4.219   2.672 -0.1897 -0.2782  0.6299
  974SOL    HW1 3894   1.795   4.158   2.735  0.9801  0.5705  2.2158
  974SOL    HW2 3895   1.900   4.168   2.627  1.5589  0.0585  2.7231
  974SOL     MW 3896   1.836   4.204   2.674  0.1839 -0.1264  1.1009
  975SOL     OW 3897   3.991   5.443   1.592 -0.9423 -0.0317 -0.2935
  975SOL    HW1 3898   3.941   5.395   1.657  0.1861 -1.2830 -0.3171
  975SOL    HW2 3899   3.962   5.534   1.601 -2.6293 -0.5970  0.2058
  975SOL     MW 3900   3.981   5.449   1.601 -1.0138 -0.2642 -0.2326
  976SOL     OW 3901   3.592   0.863   4.321 -0.4925  0.1896  0.0798
  976SOL    HW1 3902   3.637   0.796   4.373  1.2481 -0.2896 -1.8808
  976SOL    HW2 3903   3.603   0.834   4.230  0.2009  2.9960 -0.8506
  976SOL     MW 3904   3.599   0.851   4.316 -0.1809  0.4875 -0.2902
  977SOL     OW 3905   1.948   3.703   2.315 -0.2853  0.0859  0.1131
  977SOL    HW1 3906   1.906   3.618   2.300  0.4369  0.0389 -1.9287
  977SOL    HW2 3907   1.943   3.748   2.231 -1.0000  2.2704  1.2458
  977SOL     MW 3908   1.942   3.698   2.303 -0.2844  0.3595 -0.0033
  978SOL     OW 3909   4.521   1.945   0.683 -0.1080  0.0314  0.0262
  978SOL    HW1 3910   4.523   2.040   0.696 -0.2708  0.1261 -0.5727
  978SOL    HW2 3911   4.601   1.926   0.633  0.0950 -0.1950  0.4369
  978SOL     MW 3912   4.532   1.955   0.678 -0.1029  0.0145  0.0021
  979SOL     OW 3913   3.277   2.393   5.400  0.6598 -0.1434  0.0599
  979SOL    HW1 3914   3.356   2.401   5.347  0.4294 -1.0910 -0.4540
  979SOL    HW2 3915   3.263   2.298   5.407 -0.5460  0.0216 -0.0274
  979SOL     MW 3916   3.286   2.382   5.394  0.4760 -0.2436 -0.0170
  980SOL     OW 3917   3.924   4.354   1.984  0.4298  0.0585  0.5182
  980SOL    HW1 3918   3.842   4.309   2.006  0.9106 -0.0137  2.3162
  980SOL    HW2 3919   3.930   4.347   1.888 -2.3767  1.3304  0.1324
  980SOL     MW 3920   3.914   4.347   1.974  0.1320  0.2121  0.6990
  981SOL     OW 3921   1.787   4.446   0.201 -0.2542 -0.3870 -0.1021
  981SOL    HW1 3922   1.835   4.429   0.120  0.0362  1.4249 -0.3581
  981SOL    HW2 3923   1.779   4.541   0.204 -1.9173 -0.5228  1.0626
  981SOL     MW 3924   1.792   4.456   0.191 -0.4299 -0.1724  0.0142
  982SOL     OW 3925   2.630   1.380   4.995  0.3782 -0.7339 -0.2406
  982SOL    HW1 3926   2.662   1.306   4.943 -0.2630 -0.7040 -0.6925
  982SOL    HW2 3927   2.599   1.341   5.076  1.1332 -0.8160  0.0167
  982SOL     MW 3928   2.630   1.366   4.999  0.3928 -0.7406 -0.2655
  983SOL     OW 3929   0.812   0.228   2.422 -0.2259 -0.3403 -0.0379
  983SOL    HW1 3930   0.728   0.272   2.437  0.7922  1.6746  0.1824
  983SOL    HW2 3931   0.824   0.232   2.327 -0.3479 -0.5446 -0.0611
  983SOL     MW 3932   0.803   0.234   2.411 -0.1112 -0.1085 -0.0127
  984SOL     OW 3933   2.784   0.820   1.192 -0.3805  0.1969 -0.1129
  984SOL    HW1 3934   2.715   0.767   1.153 -0.9965  0.5829  0.4353
  984SOL    HW2 3935   2.740   0.901   1.219 -0.0077 -0.0705  1.4284
  984SOL     MW 3936   2.769   0.824   1.191 -0.4116  0.2121  0.1546
  985SOL     OW 3937   2.648   1.105   0.946 -0.0885  0.6617 -0.0360
  985SOL    HW1 3938   2.636   1.159   1.024  0.3918  0.0365  0.4773
  985SOL    HW2 3939   2.645   1.015   0.978  1.0417  0.4085 -0.5877
  985SOL     MW 3940   2.646   1.100   0.960  0.1177  0.5492 -0.0409
  986SOL     OW 3941   2.375   2.885   1.308  0.3050 -0.4256 -0.1636
  986SOL    HW1 3942   2.407   2.913   1.394  1.2869 -1.7879 -0.0562
  986SOL    HW2 3943   2.449   2.899   1.249 -0.1082 -0.2217 -0.6361
  986SOL     MW 3944   2.389   2.890   1.312  0.3778 -0.5739 -0.2103
  987SOL     OW 3945   2.189   0.977   2.702 -0.0669 -0.3565  0.2398
  987SOL    HW1 3946   2.273   0.950   2.666  0.0074  0.0156  0.1304
  987SOL    HW2 3947   2.210   1.008   2.791  0.1991  1.4205 -0.4111
  987SOL     MW 3948   2.202   0.977   2.709 -0.0233 -0.0814  0.1424
  988SOL     OW 3949   4.294   1.187   2.616 -0.2395 -0.0977 -0.0904
  988SOL    HW1 3950   4.209   1.148   2.595 -0.3383 -0.2888  0.6452
  988SOL    HW2 3951   4.290   1.206   2.710  0.6473 -0.4083  0.0227
  988SOL     MW 3952   4.283   1.185   2.626 -0.1386 -0.1619  0.0183
  989SOL     OW 3953   2.779   3.848   0.711 -0.2608 -0.3656 -0.6892
  989SOL    HW1 3954   2.853   3.815   0.660 -0.2700 -0.7865 -0.4330
  989SOL    HW2 3955   2.786   3.804   0.796  0.2867  1.0015  0.0140
  989SOL     MW 3956   2.789   3.838   0.716 -0.1919 -0.2445 -0.5663
  990SOL     OW 3957   4.400   0.965   3.436  0.0838  0.2186 -0.5691
  990SOL    HW1 3958   4.352   0.938   3.514  0.4965 -0.5138 -0.5547
  990SOL    HW2 3959   4.337   1.015   3.384  0.0650  1.5179  0.6505
  990SOL     MW 3960   4.386   0.968   3.439  0.1342  0.2911 -0.4111
  991SOL     OW 3961   4.606   4.217   1.935 -0.0818 -0.0684  0.6789
  991SOL    HW1 3962   4.689   4.170   1.924 -0.7483 -1.0210 -0.5223
  991SOL    HW2 3963   4.568   4.218   1.847 -1.9670 -0.8255  1.4440
  991SOL     MW 3964   4.612   4.211   1.922 -0.4084 -0.2873  0.6230
  992SOL     OW 3965   3.070   3.478   1.535  0.3126 -0.0553 -0.4241
  992SOL    HW1 3966   3.032   3.515   1.455 -0.1691 -2.2194 -1.2742
  992SOL    HW2 3967   3.007   3.501   1.603 -0.1041  0.4594 -0.9647
  992SOL     MW 3968   3.057   3.486   1.533  0.1976 -0.2665 -0.6021
  993SOL     OW 3969   2.492   0.241   5.237  0.1054  0.1887 -0.1075
  993SOL    HW1 3970   2.547   0.168   5.265 -1.5682 -1.0363  0.1531
  993SOL    HW2 3971   2.424   0.200   5.184 -1.3821  1.4410  0.7562
  993SOL     MW 3972   2.490   0.226   5.233 -0.2993  0.1922  0.0365
  994SOL     OW 3973   3.205   5.004   0.782 -0.0855  0.4366  0.6577
  994SOL    HW1 3974   3.194   5.076   0.719 -1.4698  1.0993  1.6034
  994SOL    HW2 3975   3.239   5.046   0.861  0.2977 -0.1620  0.8159
  994SOL     MW 3976   3.208   5.019   0.784 -0.2137  0.4448  0.7990
  995SOL     OW 3977   4.481   0.401   2.844 -0.0264 -0.4788  0.0833
  995SOL    HW1 3978   4.397   0.438   2.819 -0.3503 -1.2873 -0.0355
  995SOL    HW2 3979   4.478   0.310   2.814  1.5010 -0.1010 -1.3402
  995SOL     MW 3980   4.470   0.394   2.837  0.1277 -0.5340 -0.1141
  996SOL     OW 3981   1.881   0.716   5.375 -0.0892 -0.4876 -0.0767
  996SOL    HW1 3982   1.827   0.781   5.420 -0.9349 -0.9902 -0.3617
  996SOL    HW2 3983   1.911   0.761   5.296  1.3621  0.3843  0.8991
  996SOL     MW 3984   1.878   0.730   5.371 -0.0117 -0.4403  0.0117
  997SOL     OW 3985   2.190   0.318   4.691  0.1905 -0.0105  0.3448
  997SOL    HW1 3986   2.150   0.339   4.606  1.2555  1.1698  0.1036
  997SOL    HW2 3987   2.268   0.267   4.669 -0.1662 -0.7127  0.6938
  997SOL     MW 3988   2.195   0.314   4.677  0.2812  0.0507  0.3586
  998SOL     OW 3989   0.717   1.879   2.166 -0.4036 -0.0555 -0.3882
  998SOL    HW1 3990   0.811   1.859   2.171 -0.2965  0.7094  1.6763
  998SOL    HW2 3991   0.701   1.896   2.073  2.5318  4.3982 -0.3613
  998SOL     MW 3992   0.727   1.878   2.155 -0.0141  0.6125 -0.1205
  999SOL     OW 3993   3.271   2.009   5.252 -0.0694 -0.1449  0.4559
  999SOL    HW1 3994   3.291   1.916   5.237 -2.7181 -0.5121 -1.4476
  999SOL    HW2 3995   3.342   2.056   5.209 -1.5680 -1.3574 -3.8359
  999SOL     MW 3996   3.283   2.003   5.245 -0.6003 -0.3471 -0.3372
 1000SOL     OW 3997   4.447   1.585   2.270 -0.2200  0.0652 -0.1160
 1000SOL    HW1 3998   4.371   1.628   2.230 -0.9383  0.1592  1.2904
 1000SOL    HW2 3999   4.433   1.492   2.252 -0.7339  0.0709  0.2313
 1000SOL     MW 4000   4.436   1.579   2.262 -0.3777  0.0780  0.1085
 1001SOL     OW 4001   1.140   3.553   0.442  0.2091 -0.3144  0.0902
 1001SOL    HW1 4002   1.068   3.490   0.446 -0.9366  0.8125 -1.5932
 1001SOL    HW2 4003   1.097   3.639   0.446  1.6358  0.4023  1.0485
 1001SOL     MW 4004   1.125   3.556   0.443  0.2451 -0.0784 -0.0026
 1002SOL     OW 4005   3.980   2.475   1.974  0.3074 -0.3516  0.3303
 1002SOL    HW1 4006   3.971   2.565   2.005 -0.6000 -0.7652  1.3648
 1002SOL    HW2 4007   4.070   2.451   1.995  0.4990  0.2598  0.2135
 1002SOL     MW 4008   3.990   2.484   1.981  0.2158 -0.3262  0.4478
 1003SOL     OW 4009   4.129   2.811   0.057  0.1692  0.2753  0.7178
 1003SOL    HW1 4010   4.097   2.877  -0.004 -0.0233  0.3386  0.8845
 1003SOL    HW2 4011   4.063   2.741   0.054  1.0456 -0.5477 -0.4852
 1003SOL     MW 4012   4.116   2.810   0.049  0.2567  0.1780  0.5852
 1004SOL     OW 4013   2.908   1.202   1.130  0.3675  0.1142  0.4869
 1004SOL    HW1 4014   2.959   1.120   1.133 -1.3095 -0.9765  0.5450
 1004SOL    HW2 4015   2.915   1.231   1.040 -0.9276 -1.4008 -0.1444
 1004SOL     MW 4016   2.916   1.195   1.119 -0.0129 -0.2194  0.4135
 1005SOL     OW 4017   5.407   3.102   2.156  0.2242  0.0358  0.5175
 1005SOL    HW1 4018   5.332   3.053   2.124 -0.3043  1.3164 -0.3184
 1005SOL    HW2 4019   5.372   3.189   2.175  1.1867  0.1925  1.6483
 1005SOL     MW 4020   5.393   3.107   2.154  0.2798  0.2198  0.5552
 1006SOL     OW 4021   0.001   0.716   5.194 -0.7685  0.7310 -0.5122
 1006SOL    HW1 4022   0.041   0.745   5.112  0.2250 -0.1687 -0.3478
 1006SOL    HW2 4023   0.070   0.723   5.260 -0.6614 -1.3745 -0.3339
 1006SOL     MW 4024   0.015   0.721   5.192 -0.6276  0.3463 -0.4684
 1007SOL     OW 4025   4.692   3.192   5.423  0.4872 -0.8365 -0.0530
 1007SOL    HW1 4026   4.772   3.181   5.473  0.3191  0.1246  0.4519
 1007SOL    HW2 4027   4.635   3.120   5.451  0.6268 -0.6666  0.6958
 1007SOL     MW 4028   4.695   3.181   5.433  0.4835 -0.6917  0.1075
 1008SOL     OW 4029   0.386   4.298   4.629 -0.4203  0.7159 -0.5523
 1008SOL    HW1 4030   0.395   4.208   4.597  0.5559  0.8098 -0.5650
 1008SOL    HW2 4031   0.430   4.298   4.714 -1.1952  0.9765 -0.1377
 1008SOL     MW 4032   0.392   4.286   4.636 -0.3945  0.7613 -0.5008
 1009SOL     OW 4033   2.686   3.897   2.559 -0.5668  0.9287  0.1688
 1009SOL    HW1 4034   2.664   3.955   2.486  0.3814  0.3307 -0.6238
 1009SOL    HW2 4035   2.664   3.809   2.528 -0.9232  0.7428  0.9255
 1009SOL     MW 4036   2.681   3.893   2.546 -0.4910  0.8283  0.1642
 1010SOL     OW 4037   0.203   2.731   1.205 -0.2364 -0.3568 -0.4436
 1010SOL    HW1 4038   0.280   2.675   1.213 -0.2406 -0.1641  1.1627
 1010SOL    HW2 4039   0.239   2.820   1.199 -0.2685 -0.4228 -2.0249
 1010SOL     MW 4040   0.218   2.735   1.205 -0.2410 -0.3406 -0.4404
 1011SOL     OW 4041   0.102   0.604   4.057 -0.2100 -0.2881 -0.5546
 1011SOL    HW1 4042   0.173   0.604   3.993  0.5815 -1.7221  0.2798
 1011SOL    HW2 4043   0.097   0.514   4.089 -1.1522  0.1901  0.7809
 1011SOL     MW 4044   0.111   0.592   4.053 -0.2293 -0.4105 -0.2769
 1012SOL     OW 4045   1.409   1.657   4.213 -0.2175 -0.7263 -0.0206
 1012SOL    HW1 4046   1.397   1.571   4.253 -2.1708 -1.4618 -1.9382
 1012SOL    HW2 4047   1.461   1.640   4.134 -1.4230 -0.3803 -0.9323
 1012SOL     MW 4048   1.414   1.644   4.208 -0.6218 -0.7762 -0.3828
 1013SOL     OW 4049   2.520   4.056   4.504  0.2527  0.1154 -0.4482
 1013SOL    HW1 4050   2.469   4.136   4.522  1.1207  1.2141 -2.4721
 1013SOL    HW2 4051   2.478   4.019   4.427  0.7595 -0.5810 -0.3915
 1013SOL     MW 4052   2.508   4.062   4.496  0.4287  0.1669 -0.7000
 1014SOL     OW 4053   0.940   0.842   0.615  0.0014  0.3259 -0.0570
 1014SOL    HW1 4054   0.965   0.761   0.659 -3.1709 -1.4425 -1.2160
 1014SOL    HW2 4055   1.020   0.870   0.570  1.6563 -1.1328  1.7765
 1014SOL     MW 4056   0.953   0.835   0.615 -0.1928 -0.0872  0.0293
 1015SOL     OW 4057   0.420   3.856   0.936  0.0492  0.0194 -0.4389
 1015SOL    HW1 4058   0.503   3.899   0.915  0.0711 -0.3578 -1.1682
 1015SOL    HW2 4059   0.438   3.808   1.017  0.9217 -1.0412 -1.2222
 1015SOL     MW 4060   0.433   3.856   0.944  0.1637 -0.1646 -0.6326
 1016SOL     OW 4061   2.349   3.071   4.991  0.0319  0.2880  0.3938
 1016SOL    HW1 4062   2.441   3.083   5.013 -0.2604  1.6930  0.9749
 1016SOL    HW2 4063   2.312   3.022   5.064  0.3181 -0.3271  0.1315
 1016SOL     MW 4064   2.356   3.066   5.003  0.0311  0.3891  0.4346
 1017SOL     OW 4065   1.730   0.491   1.663  0.0863  0.5949 -0.2574
 1017SOL    HW1 4066   1.801   0.435   1.694 -0.5192  0.2505  0.5123
 1017SOL    HW2 4067   1.711   0.459   1.575 -1.6108 -1.7957  0.8560
 1017SOL     MW 4068   1.737   0.480   1.656 -0.2085  0.2448 -0.0163
 1018SOL     OW 4069   4.386   1.064   2.985  0.0724 -0.0903 -0.6751
 1018SOL    HW1 4070   4.373   0.985   2.933  0.1637  1.0914 -2.5887
 1018SOL    HW2 4071   4.363   1.136   2.925  0.1936  1.3436  0.9314
 1018SOL     MW 4072   4.381   1.063   2.971  0.0996  0.2445 -0.7144
 1019SOL     OW 4073   5.347   3.308   4.940  0.3489 -0.3015 -0.1059
 1019SOL    HW1 4074   5.362   3.394   4.981  0.1911  0.3712 -1.3907
 1019SOL    HW2 4075   5.254   3.292   4.952  0.0877  0.3931 -1.0863
 1019SOL     MW 4076   5.337   3.317   4.947  0.2953 -0.1265 -0.3958
 1020SOL     OW 4077   3.408   0.695   2.869  0.2468  0.0406  0.0474
 1020SOL    HW1 4078   3.375   0.635   2.802 -2.6948  0.7142  0.7640
 1020SOL    HW2 4079   3.437   0.638   2.940 -1.4385 -0.6243  0.2461
 1020SOL     MW 4080   3.407   0.680   2.870 -0.3455  0.0417  0.1646
 1021SOL     OW 4081   2.906   1.204   0.295 -0.0435 -0.5416  0.3315
 1021SOL    HW1 4082   2.962   1.247   0.360 -0.8420 -0.4321  0.9564
 1021SOL    HW2 4083   2.940   1.235   0.211  1.7192 -1.5408  0.6132
 1021SOL     MW 4084   2.918   1.214   0.293  0.0799 -0.6555  0.4475
 1022SOL     OW 4085   3.300   2.785   0.067 -0.2803  0.0562 -0.4713
 1022SOL    HW1 4086   3.209   2.808   0.087 -0.6299 -1.0089 -0.7714
 1022SOL    HW2 4087   3.300   2.767  -0.027  0.8085  2.5293 -1.0397
 1022SOL     MW 4088   3.288   2.786   0.058 -0.1857  0.2364 -0.5825
 1023SOL     OW 4089   4.922   2.866   4.601 -0.0526 -0.4192  0.1698
 1023SOL    HW1 4090   4.835   2.896   4.630  0.0695 -0.7878  0.9355
 1023SOL    HW2 4091   4.978   2.876   4.677  1.2445  2.2552 -1.0025
 1023SOL     MW 4092   4.918   2.871   4.614  0.1291 -0.1241  0.1177
 1024SOL     OW 4093   0.071   0.439   0.713  0.4360 -0.0918 -0.1806
 1024SOL    HW1 4094   0.064   0.532   0.731  1.1452  0.2397 -1.5228
 1024SOL    HW2 4095  -0.011   0.416   0.668  0.4773 -0.0075 -0.2982
 1024SOL     MW 4096   0.060   0.448   0.710  0.5321 -0.0386 -0.3675
 1025SOL     OW 4097   2.629   3.903   2.838 -0.1975 -0.4572  0.3250
 1025SOL    HW1 4098   2.655   3.893   2.746  0.8409 -0.0846  0.5571
 1025SOL    HW2 4099   2.694   3.964   2.874  0.4025 -1.8321  1.6963
 1025SOL     MW 4100   2.641   3.910   2.831  0.0122 -0.5855  0.5302
 1026SOL     OW 4101   4.416   3.917   2.568 -0.0856  0.1513 -0.4185
 1026SOL    HW1 4102   4.494   3.873   2.534  0.0796 -0.1532  0.3235
 1026SOL    HW2 4103   4.451   3.994   2.615 -0.2390  0.0933 -0.2084
 1026SOL     MW 4104   4.431   3.921   2.570 -0.0841  0.1049 -0.2966
 1027SOL     OW 4105   3.340   2.891   0.428  0.2450  0.1435 -0.1599
 1027SOL    HW1 4106   3.413   2.854   0.378  1.3178  2.8827 -0.7908
 1027SOL    HW2 4107   3.379   2.963   0.477 -1.0330 -1.4807  3.6975
 1027SOL     MW 4108   3.355   2.895   0.428  0.2187  0.2862  0.2531
 1028SOL     OW 4109   0.681   3.388   4.561 -0.4871 -0.2601 -0.3271
 1028SOL    HW1 4110   0.602   3.342   4.586 -0.1412 -0.7741 -0.1734
 1028SOL    HW2 4111   0.753   3.330   4.587  0.0518  1.2061  1.6908
 1028SOL     MW 4112   0.680   3.375   4.567 -0.3738 -0.1382 -0.0491
 1029SOL     OW 4113   2.321   1.258   2.826 -0.1398  0.1618  0.2017
 1029SOL    HW1 4114   2.393   1.238   2.766  0.2788 -0.9862  1.0478
 1029SOL    HW2 4115   2.339   1.348   2.856  2.1601 -0.7855  1.9800
 1029SOL     MW 4116   2.333   1.267   2.822  0.2082 -0.1064  0.5377
 1030SOL     OW 4117   2.131   0.725   1.668 -0.1844 -0.4857 -0.5391
 1030SOL    HW1 4118   2.154   0.790   1.601 -0.5088  0.4464  0.2282
 1030SOL    HW2 4119   2.066   0.770   1.723  1.6195 -0.4368  1.6808
 1030SOL     MW 4120   2.125   0.739   1.666  0.0050 -0.3602 -0.1567
 1031SOL     OW 4121   1.030   0.136   1.064 -0.1056  0.0919 -0.3303
 1031SOL    HW1 4122   0.976   0.095   0.996 -0.2491  1.3141 -0.9738
 1031SOL    HW2 4123   0.977   0.129   1.143 -0.0095 -1.1947 -0.3514
 1031SOL     MW 4124   1.016   0.130   1.065 -0.1117  0.0837 -0.4154
 1032SOL     OW 4125   2.097   1.105   4.923  0.6375 -0.1048  0.1605
 1032SOL    HW1 4126   2.173   1.149   4.961  0.8978  1.5755 -2.1254
 1032SOL    HW2 4127   2.022   1.154   4.958  0.8824  1.5225 -1.4050
 1032SOL     MW 4128   2.097   1.117   4.933  0.7022  0.3186 -0.3325
 1033SOL     OW 4129   3.777   5.138   4.169  0.1027  0.1248  0.0316
 1033SOL    HW1 4130   3.728   5.164   4.091 -1.9689  1.1880  1.5821
 1033SOL    HW2 4131   3.799   5.046   4.154 -2.5133 -0.4674 -0.7600
 1033SOL     MW 4132   3.774   5.130   4.157 -0.4974  0.1851  0.1287
 1034SOL     OW 4133   1.471   1.363   3.422  0.3857  0.1216  0.1501
 1034SOL    HW1 4134   1.411   1.437   3.418  0.6337  0.4751  2.0066
 1034SOL    HW2 4135   1.536   1.389   3.488  2.7568 -0.1249 -1.9732
 1034SOL     MW 4136   1.472   1.375   3.430  0.7210  0.1353  0.1160
 1035SOL     OW 4137   4.283   4.395   0.207 -0.1066  0.5220  0.1307
 1035SOL    HW1 4138   4.318   4.319   0.161 -0.6907 -0.3461  1.0733
 1035SOL    HW2 4139   4.192   4.400   0.180 -0.0959  0.8341  0.1468
 1035SOL     MW 4140   4.276   4.386   0.198 -0.1800  0.4508  0.2535
 1036SOL     OW 4141   0.252   0.569   2.635 -0.0450  0.1605 -0.4696
 1036SOL    HW1 4142   0.197   0.619   2.696  0.9960 -0.3818  0.9596
 1036SOL    HW2 4143   0.246   0.617   2.552 -0.6695  1.5083  0.3220
 1036SOL     MW 4144   0.244   0.582   2.632  0.0083  0.2636 -0.1853
 1037SOL     OW 4145   3.728   5.199   1.562 -0.2475 -0.2965 -0.3230
 1037SOL    HW1 4146   3.775   5.128   1.518  0.3523 -0.9663  1.3040
 1037SOL    HW2 4147   3.743   5.275   1.506 -1.3053 -1.4963 -2.3756
 1037SOL     MW 4148   3.736   5.199   1.549 -0.3062 -0.5358 -0.3775
 1038SOL     OW 4149   2.863   2.536   0.465 -1.0853 -0.5730  0.2650
 1038SOL    HW1 4150   2.890   2.445   0.456  0.7091 -0.1312  0.7544
 1038SOL    HW2 4151   2.772   2.538   0.433 -1.5879 -2.7448  1.3663
 1038SOL     MW 4152   2.855   2.525   0.460 -0.9200 -0.7945  0.4687
 1039SOL     OW 4153   0.753   0.482   0.073 -0.3588  0.0936 -0.2668
 1039SOL    HW1 4154   0.733   0.389   0.068 -0.2514  0.0464  0.0879
 1039SOL    HW2 4155   0.761   0.499   0.167 -3.1958  1.0762 -0.1296
 1039SOL     MW 4156   0.752   0.472   0.085 -0.7083  0.2133 -0.2039
 1040SOL     OW 4157   5.350   1.055   2.850 -0.0293 -0.2366 -0.2784
 1040SOL    HW1 4158   5.277   1.055   2.912 -0.2581  0.9698 -0.5172
 1040SOL    HW2 4159   5.310   1.032   2.767  0.0723 -0.7082 -0.1990
 1040SOL     MW 4160   5.335   1.052   2.848 -0.0456 -0.1425 -0.2988
 1041SOL     OW 4161   2.305   2.575   4.643 -0.0240 -0.7204  0.0949
 1041SOL    HW1 4162   2.391   2.534   4.634 -0.7186 -2.0808 -0.6284
 1041SOL    HW2 4163   2.262   2.526   4.713 -0.2423 -0.0918  0.4085
 1041SOL     MW 4164   2.311   2.563   4.651 -0.1409 -0.8141  0.0424
 1042SOL     OW 4165   4.226   2.671   5.149 -0.4477 -0.3553 -0.6548
 1042SOL    HW1 4166   4.212   2.606   5.217 -0.1339  0.4373  0.1799
 1042SOL    HW2 4167   4.312   2.708   5.168 -0.4354  0.0043 -1.3775
 1042SOL     MW 4168   4.235   2.667   5.160 -0.4060 -0.2078 -0.6405
 1043SOL     OW 4169   4.706   0.311   3.572  0.4216  0.0347  0.2457
 1043SOL    HW1 4170   4.685   0.220   3.553  0.0130  0.0992  0.3875
 1043SOL    HW2 4171   4.755   0.307   3.655  0.5794 -0.0714  0.1481
 1043SOL     MW 4172   4.710   0.299   3.580  0.3895  0.0294  0.2513
 1044SOL     OW 4173   1.432   3.809   1.145  0.2239  0.1085  0.2697
 1044SOL    HW1 4174   1.509   3.837   1.097  0.1919 -1.7352 -0.9619
 1044SOL    HW2 4175   1.358   3.845   1.096  0.2091 -1.3939 -0.9016
 1044SOL     MW 4176   1.432   3.817   1.133  0.2179 -0.3198 -0.0379
 1045SOL     OW 4177   2.534   0.752   0.717 -0.6288  0.0648 -0.1372
 1045SOL    HW1 4178   2.589   0.703   0.656 -0.1522  0.6387 -0.1843
 1045SOL    HW2 4179   2.459   0.779   0.665  0.3137  1.5262 -0.8235
 1045SOL     MW 4180   2.532   0.749   0.703 -0.4471  0.3254 -0.2311
 1046SOL     OW 4181   5.317   4.325   3.981 -0.1226 -0.5677 -0.3118
 1046SOL    HW1 4182   5.378   4.322   3.907  0.9747  0.4049  0.5065
 1046SOL    HW2 4183   5.368   4.290   4.054 -1.2331 -1.6428 -0.0296
 1046SOL     MW 4184   5.332   4.320   3.981 -0.1243 -0.5808 -0.1709
 1047SOL     OW 4185   0.439   0.716   4.316  0.4150 -0.2787  0.0248
 1047SOL    HW1 4186   0.466   0.773   4.388  0.1290 -1.3807  1.0323
 1047SOL    HW2 4187   0.348   0.692   4.336  0.7533 -1.6631  0.0267
 1047SOL     MW 4188   0.431   0.720   4.328  0.4217 -0.5970  0.1540
 1048SOL     OW 4189   2.182   0.541   5.146  0.5894 -0.5507 -0.2819
 1048SOL    HW1 4190   2.088   0.549   5.131  0.5036 -0.9595  0.0074
 1048SOL    HW2 4191   2.208   0.462   5.098  0.7884 -0.4205 -0.3891
 1048SOL     MW 4192   2.174   0.532   5.138  0.6039 -0.5864 -0.2586
 1049SOL     OW 4193   1.316   3.400   2.619 -0.0896 -0.1274 -0.1682
 1049SOL    HW1 4194   1.319   3.334   2.688 -0.4287  0.1628  0.1308
 1049SOL    HW2 4195   1.224   3.424   2.613  0.0514  0.4234 -0.1745
 1049SOL     MW 4196   1.305   3.395   2.627 -0.1150 -0.0198 -0.1307
 1050SOL     OW 4197   5.243   4.314   1.119  0.3764 -0.1212  0.1680
 1050SOL    HW1 4198   5.281   4.402   1.129 -0.8455  0.5063 -0.4154
 1050SOL    HW2 4199   5.255   4.294   1.026  2.0405 -1.2771  0.5820
 1050SOL     MW 4200   5.249   4.323   1.108  0.4330 -0.1888  0.1463
 1051SOL     OW 4201   1.346   0.887   1.180 -0.5801 -0.0142 -0.1424
 1051SOL    HW1 4202   1.419   0.910   1.122  0.6759 -1.4589  0.7950
 1051SOL    HW2 4203   1.279   0.852   1.121  0.3446 -0.6624 -0.8361
 1051SOL     MW 4204   1.347   0.885   1.165 -0.3010 -0.2821 -0.1112
 1052SOL     OW 4205   1.257   2.352   4.729  0.2246 -0.0507 -0.4188
 1052SOL    HW1 4206   1.332   2.340   4.787 -0.8152 -1.1148  0.7687
 1052SOL    HW2 4207   1.222   2.438   4.753  0.4715  0.0123 -0.2782
 1052SOL     MW 4208   1.262   2.361   4.739  0.1231 -0.1789 -0.2488
 1053SOL     OW 4209   4.289   0.406   2.220 -0.2384  0.5886 -0.5298
 1053SOL    HW1 4210   4.303   0.459   2.142 -2.9952 -0.1262 -1.6086
 1053SOL    HW2 4211   4.245   0.327   2.189 -1.4361  0.2751  1.7059
 1053SOL     MW 4212   4.285   0.402   2.206 -0.7446  0.4570 -0.3817
 1054SOL     OW 4213   2.861   5.160   1.580 -0.1745 -0.2655  1.0608
 1054SOL    HW1 4214   2.942   5.129   1.539 -0.9036 -3.3193  1.7439
 1054SOL    HW2 4215   2.875   5.149   1.674 -0.6246  1.3157  1.3545
 1054SOL     MW 4216   2.873   5.155   1.587 -0.3255 -0.4540  1.1858
 1055SOL     OW 4217   5.202   2.286   1.578 -0.1175  0.0866 -0.3272
 1055SOL    HW1 4218   5.150   2.299   1.658 -0.7514  1.7640 -0.9882
 1055SOL    HW2 4219   5.292   2.296   1.607 -0.2325 -0.8726  0.4487
 1055SOL     MW 4220   5.207   2.289   1.592 -0.2134  0.1785 -0.3125
 1056SOL     OW 4221   4.850   0.312   2.532  0.8614 -0.2903 -0.4661
 1056SOL    HW1 4222   4.906   0.277   2.463  1.2462 -0.1076 -0.2463
 1056SOL    HW2 4223   4.858   0.250   2.604 -0.3599 -1.0463 -0.9546
 1056SOL     MW 4224   4.858   0.300   2.532  0.7543 -0.3637 -0.5005
 1057SOL     OW 4225   1.515   2.342   4.905  0.5751 -0.4485 -0.1658
 1057SOL    HW1 4226   1.581   2.276   4.926  0.5697  0.0350  1.4972
 1057SOL    HW2 4227   1.565   2.422   4.888  0.5296 -0.6298 -1.1702
 1057SOL     MW 4228   1.530   2.344   4.906  0.5686 -0.4098 -0.0815
 1058SOL     OW 4229   3.499   4.757   1.372 -0.2866 -0.4044  0.2231
 1058SOL    HW1 4230   3.463   4.843   1.351  1.2264  0.2669  0.2140
 1058SOL    HW2 4231   3.427   4.710   1.415 -0.6650  1.4611  1.7708
 1058SOL     MW 4232   3.485   4.762   1.375 -0.1413 -0.0797  0.4201
 1059SOL     OW 4233   5.362   0.518   2.973 -0.1114 -0.5881  0.0447
 1059SOL    HW1 4234   5.332   0.605   2.948  0.2208 -0.4883 -0.0068
 1059SOL    HW2 4235   5.361   0.518   3.069 -1.1104 -0.8763  0.0498
 1059SOL     MW 4236   5.358   0.529   2.982 -0.1967 -0.6122  0.0388
 1060SOL     OW 4237   4.988   0.863   2.705 -0.1663  0.1546  0.1509
 1060SOL    HW1 4238   4.929   0.911   2.648  0.7227  1.2443  0.1200
 1060SOL    HW2 4239   4.976   0.902   2.792 -1.3106 -1.3101  0.7029
 1060SOL     MW 4240   4.979   0.874   2.709 -0.1990  0.1066  0.2176
 1061SOL     OW 4241   4.683   5.196   1.108 -0.1340  0.0320 -0.1963
 1061SOL    HW1 4242   4.638   5.123   1.065 -1.2980  0.1663  0.7260
 1061SOL    HW2 4243   4.650   5.274   1.063 -0.4449  0.1005  0.1447
 1061SOL     MW 4244   4.673   5.197   1.097 -0.3228  0.0579 -0.0346
 1062SOL     OW 4245   3.927   1.602   3.638 -0.5232 -0.1496 -0.8029
 1062SOL    HW1 4246   3.919   1.662   3.564  0.7398  1.0741  0.0026
 1062SOL    HW2 4247   3.885   1.648   3.710  2.3134  0.8612  0.3742
 1062SOL     MW 4248   3.921   1.615   3.638  0.0016  0.1365 -0.5491
 1063SOL     OW 4249   2.620   2.824   5.063  0.5314 -0.4615  0.1188
 1063SOL    HW1 4250   2.553   2.785   5.119  0.5165  1.6098  1.6961
 1063SOL    HW2 4251   2.702   2.786   5.094  0.2539 -1.7517 -0.6874
 1063SOL     MW 4252   2.622   2.814   5.074  0.4939 -0.3615  0.2175
 1064SOL     OW 4253   3.667   3.863   3.480 -0.1432  0.8649  0.4299
 1064SOL    HW1 4254   3.660   3.792   3.415 -0.2329  1.3719 -0.1193
 1064SOL    HW2 4255   3.750   3.846   3.523  0.4876  1.1770 -0.6173
 1064SOL     MW 4256   3.677   3.851   3.477 -0.0739  0.9698  0.2255
 1065SOL     OW 4257   3.110   4.141   2.293 -0.4058  0.2742  0.1882
 1065SOL    HW1 4258   3.026   4.156   2.338 -0.3156 -0.2507  0.5465
 1065SOL    HW2 4259   3.176   4.153   2.362 -0.3086 -1.3507  0.4263
 1065SOL     MW 4260   3.108   4.144   2.308 -0.3818 -0.0010  0.2645
 1066SOL     OW 4261   0.664   4.957   1.946  0.1314  0.1551  0.4137
 1066SOL    HW1 4262   0.631   4.900   2.016 -0.4872  1.4445  1.2114
 1066SOL    HW2 4263   0.588   4.974   1.891  0.5225 -0.5073 -0.3396
 1066SOL     MW 4264   0.650   4.951   1.948  0.1023  0.2353  0.4194
 1067SOL     OW 4265   0.921   0.487   3.613  0.1491  0.3885  0.3805
 1067SOL    HW1 4266   0.845   0.434   3.637  1.2437 -1.1947  0.5172
 1067SOL    HW2 4267   0.978   0.484   3.690  1.7434 -1.1095 -0.7853
 1067SOL     MW 4268   0.919   0.480   3.626  0.4933 -0.0059  0.2488
 1068SOL     OW 4269   4.476   0.475   4.669  0.2283  0.1635 -0.4676
 1068SOL    HW1 4270   4.535   0.484   4.744  0.5015 -0.7498 -0.5632
 1068SOL    HW2 4271   4.416   0.550   4.676 -0.4127 -0.4626  1.2544
 1068SOL     MW 4272   4.476   0.486   4.680  0.1812 -0.0336 -0.2594
 1069SOL     OW 4273   4.368   3.612   4.298  0.1455  0.0509 -0.3844
 1069SOL    HW1 4274   4.359   3.621   4.393  1.4223 -0.8576 -0.1494
 1069SOL    HW2 4275   4.356   3.700   4.264 -0.9415  0.2826  0.5642
 1069SOL     MW 4276   4.366   3.624   4.306  0.1698 -0.0358 -0.2329
 1070SOL     OW 4277   3.928   3.313   2.241  0.5411 -0.4364  0.2487
 1070SOL    HW1 4278   3.873   3.272   2.307  0.2352 -0.9157 -0.2987
 1070SOL    HW2 4279   3.885   3.397   2.223  0.8960 -0.0856  1.0062
 1070SOL     MW 4280   3.915   3.319   2.247  0.5474 -0.4529  0.2756
 1071SOL     OW 4281   3.174   3.822   3.557 -0.2389 -0.2451  0.0254
 1071SOL    HW1 4282   3.259   3.837   3.597 -1.0070  1.2680  1.1952
 1071SOL    HW2 4283   3.173   3.878   3.480  0.2433 -1.1557 -0.6595
 1071SOL     MW 4284   3.184   3.831   3.552 -0.2755 -0.1680  0.0875
 1072SOL     OW 4285   1.744   3.894   1.354  0.0234 -0.1284 -0.3175
 1072SOL    HW1 4286   1.742   3.922   1.263  0.3532  1.2490  0.0792
 1072SOL    HW2 4287   1.837   3.884   1.374 -0.0025  0.5566  0.1537
 1072SOL     MW 4288   1.756   3.896   1.345  0.0623  0.1356 -0.2064
 1073SOL     OW 4289   2.045   0.942   0.357  0.0898 -0.0995 -0.0431
 1073SOL    HW1 4290   2.073   0.978   0.441 -0.2125 -0.8441  0.3838
 1073SOL    HW2 4291   2.111   0.877   0.335  1.1527  1.3450 -1.2810
 1073SOL     MW 4292   2.057   0.939   0.365  0.1872 -0.0099 -0.1469
 1074SOL     OW 4293   1.726   2.883   1.983  0.0935 -0.0899 -0.0156
 1074SOL    HW1 4294   1.653   2.925   1.937  1.5682  3.4873  0.6202
 1074SOL    HW2 4295   1.788   2.859   1.914 -0.5227 -0.8042 -0.3400
 1074SOL     MW 4296   1.724   2.885   1.968  0.2034  0.2766  0.0243
 1075SOL     OW 4297   0.461   1.181   2.875 -0.3678  0.0039  0.3160
 1075SOL    HW1 4298   0.402   1.249   2.843  0.8901  1.7741  1.5980
 1075SOL    HW2 4299   0.415   1.142   2.949 -0.7644 -0.0120  0.0650
 1075SOL     MW 4300   0.448   1.185   2.880 -0.2576  0.2285  0.4480
 1076SOL     OW 4301   0.690   3.728   0.766  0.2321 -0.7480  0.0245
 1076SOL    HW1 4302   0.679   3.792   0.836  0.9804 -0.3760 -0.1848
 1076SOL    HW2 4303   0.665   3.644   0.805 -0.2189 -0.4122  0.4660
 1076SOL     MW 4304   0.685   3.725   0.780  0.2702 -0.6574  0.0542
 1077SOL     OW 4305   3.169   4.442   0.725 -0.9840  0.0147  0.2619
 1077SOL    HW1 4306   3.161   4.359   0.677 -0.5904  0.7848 -1.2133
 1077SOL    HW2 4307   3.226   4.422   0.799  0.7694 -0.6234 -1.1789
 1077SOL     MW 4308   3.175   4.429   0.728 -0.7092  0.0316 -0.1114
 1078SOL     OW 4309   1.479   2.394   0.879  0.0347 -0.1817  0.0303
 1078SOL    HW1 4310   1.477   2.368   0.971  0.3196 -1.1041 -0.2105
 1078SOL    HW2 4311   1.427   2.327   0.834 -1.7073  1.2907 -0.2599
 1078SOL     MW 4312   1.472   2.382   0.885 -0.1518 -0.1113 -0.0377
 1079SOL     OW 4313   5.267   2.118   0.804  0.0071 -0.3156 -0.0646
 1079SOL    HW1 4314   5.195   2.169   0.842  0.0128  0.3079 -0.8564
 1079SOL    HW2 4315   5.254   2.127   0.709  0.3619 -1.2994 -0.2128
 1079SOL     MW 4316   5.256   2.126   0.797  0.0533 -0.3617 -0.1849
 1080SOL     OW 4317   2.370   4.860   4.797  0.4210  0.3384 -0.0901
 1080SOL    HW1 4318   2.407   4.910   4.723  0.9426 -1.5199 -1.1534
 1080SOL    HW2 4319   2.427   4.784   4.805 -1.0428 -0.7266  0.6737
 1080SOL     MW 4320   2.382   4.857   4.788  0.3004 -0.0358 -0.1284
 1081SOL     OW 4321   0.444   3.248   5.270 -0.1882  0.0568 -0.1429
 1081SOL    HW1 4322   0.388   3.193   5.324  1.5072 -0.5940  1.0179
 1081SOL    HW2 4323   0.428   3.218   5.180 -0.1213 -1.5657  0.3685
 1081SOL     MW 4324   0.435   3.237   5.265  0.0374 -0.2342  0.0712
 1082SOL     OW 4325   0.548   2.669   4.098  0.0960  0.2637 -0.1148
 1082SOL    HW1 4326   0.527   2.585   4.139  0.0727  0.1517 -0.3505
 1082SOL    HW2 4327   0.519   2.734   4.161 -0.7800  0.1062 -0.3371
 1082SOL     MW 4328   0.541   2.666   4.111 -0.0191  0.2292 -0.1735
 1083SOL     OW 4329   1.155   4.131   2.521  0.7118  0.1403 -0.3823
 1083SOL    HW1 4330   1.100   4.057   2.496  1.6902 -0.6110 -0.3451
 1083SOL    HW2 4331   1.210   4.148   2.444  1.3834 -0.0045  0.0596
 1083SOL     MW 4332   1.155   4.124   2.508  0.9230  0.0256 -0.3210
 1084SOL     OW 4333   2.719   2.079   5.195 -0.6156 -0.1667 -0.3303
 1084SOL    HW1 4334   2.814   2.074   5.204 -0.6185  0.0141 -0.1986
 1084SOL    HW2 4335   2.686   2.078   5.285 -0.7553 -0.5493 -0.3817
 1084SOL     MW 4336   2.727   2.078   5.207 -0.6339 -0.1925 -0.3200
 1085SOL     OW 4337   3.191   1.598   4.171  0.4635  0.5938 -0.1624
 1085SOL    HW1 4338   3.116   1.622   4.117  0.9607  2.6928  0.0181
 1085SOL    HW2 4339   3.158   1.527   4.227 -0.9385  0.4925 -1.0687
 1085SOL     MW 4340   3.177   1.592   4.172  0.3477  0.8495 -0.2553
 1086SOL     OW 4341   3.707   0.407   1.417  0.2382  0.1906  0.1838
 1086SOL    HW1 4342   3.627   0.457   1.407  0.3494  0.2031 -0.7088
 1086SOL    HW2 4343   3.770   0.470   1.453  0.2216  0.5493 -0.4006
 1086SOL     MW 4344   3.705   0.422   1.421  0.2503  0.2381 -0.0052
 1087SOL     OW 4345   2.849   3.448   3.202  0.4903 -0.2068 -0.0813
 1087SOL    HW1 4346   2.929   3.430   3.153  0.8239  0.1636  0.3166
 1087SOL    HW2 4347   2.806   3.518   3.153 -0.6329 -1.7771 -1.4363
 1087SOL     MW 4348   2.854   3.455   3.189  0.3892 -0.3604 -0.2038
 1088SOL     OW 4349   2.581   2.702   4.836  0.1665 -0.0142  0.0312
 1088SOL    HW1 4350   2.549   2.618   4.869  0.0093  0.1328  0.2560
 1088SOL    HW2 4351   2.604   2.751   4.915 -0.5633  0.4778 -0.0596
 1088SOL     MW 4352   2.580   2.697   4.850  0.0529  0.0676  0.0483
 1089SOL     OW 4353   0.126   0.818   4.964  0.1626  0.2924  0.0318
 1089SOL    HW1 4354   0.189   0.820   4.892 -0.6250  3.6777 -0.7436
 1089SOL    HW2 4355   0.134   0.904   5.005 -0.5795 -0.9603  3.0090
 1089SOL     MW 4356   0.135   0.829   4.960 -0.0332  0.5654  0.3136
 1090SOL     OW 4357   4.863   3.898   1.725  0.2358  0.1769  0.3153
 1090SOL    HW1 4358   4.798   3.836   1.757 -0.8885  1.5751  0.8643
 1090SOL    HW2 4359   4.823   3.935   1.646  0.2591  1.1813  0.7619
 1090SOL     MW 4360   4.849   3.895   1.719  0.0949  0.4845  0.4427
 1091SOL     OW 4361   2.387   5.060   0.432  0.4157 -0.2594  0.1762
 1091SOL    HW1 4362   2.459   5.003   0.405 -0.2396 -0.8592 -0.3158
 1091SOL    HW2 4363   2.415   5.148   0.405  0.3148 -0.6826 -1.3870
 1091SOL     MW 4364   2.400   5.064   0.425  0.3189 -0.3904 -0.0869
 1092SOL     OW 4365   4.865   0.911   4.254  0.1648 -0.0535 -0.4498
 1092SOL    HW1 4366   4.826   0.951   4.331  0.5436 -1.4307  0.4983
 1092SOL    HW2 4367   4.959   0.929   4.262  0.0838  0.7586 -1.1943
 1092SOL     MW 4368   4.872   0.918   4.265  0.2029 -0.1258 -0.4237
 1093SOL     OW 4369   2.702   5.413   2.731  0.2836 -0.4560 -0.3613
 1093SOL    HW1 4370   2.663   5.326   2.740 -1.0954  0.2209  0.3627
 1093SOL    HW2 4371   2.628   5.473   2.731  1.1655  0.6943 -1.5818
 1093SOL     MW 4372   2.688   5.410   2.732  0.2200 -0.2221 -0.4249
 1094SOL     OW 4373   4.854   1.802   5.392 -0.0536  0.1872 -0.1271
 1094SOL    HW1 4374   4.878   1.886   5.351 -2.9456  1.7095  1.0622
 1094SOL    HW2 4375   4.778   1.772   5.342 -0.4865 -0.5343  0.9432
 1094SOL     MW 4376   4.847   1.809   5.380 -0.4792  0.2897  0.1622
 1095SOL     OW 4377   1.055   4.181   1.887  0.0078 -0.1941 -0.2129
 1095SOL    HW1 4378   1.073   4.101   1.936 -1.7074 -0.4718  0.0343
 1095SOL    HW2 4379   1.098   4.167   1.802  0.3715 -1.0526  0.1051
 1095SOL     MW 4380   1.063   4.169   1.882 -0.1652 -0.3396 -0.1406
 1096SOL     OW 4381   4.615   1.750   5.276 -0.3330  0.4601  0.5411
 1096SOL    HW1 4382   4.572   1.729   5.359  0.4733  1.8270  1.3261
 1096SOL    HW2 4383   4.543   1.779   5.219 -0.8725 -0.3680  0.7748
 1096SOL     MW 4384   4.600   1.751   5.280 -0.2988  0.5291  0.6715
 1097SOL     OW 4385   4.724   1.970   1.036 -0.3921 -0.2997 -0.5638
 1097SOL    HW1 4386   4.782   1.987   0.962 -0.4562  0.4259 -0.4542
 1097SOL    HW2 4387   4.739   2.042   1.096 -2.1784  0.5133 -1.0117
 1097SOL     MW 4388   4.733   1.981   1.034 -0.6290 -0.1028 -0.6071
 1098SOL     OW 4389   5.077   4.133   5.318 -0.0827  0.6313  0.4994
 1098SOL    HW1 4390   5.021   4.082   5.259 -0.8735  2.8711 -0.7830
 1098SOL    HW2 4391   5.018   4.163   5.387  0.7117 -1.4378  2.2023
 1098SOL     MW 4392   5.062   4.130   5.320 -0.0822  0.6531  0.5532
 1099SOL     OW 4393   0.532   2.315   1.099 -0.1667 -0.6330 -0.4399
 1099SOL    HW1 4394   0.585   2.292   1.023 -1.1063  0.0406 -1.3270
 1099SOL    HW2 4395   0.522   2.233   1.147  1.2249 -0.8755 -0.5119
 1099SOL     MW 4396   0.538   2.302   1.095 -0.1088 -0.5778 -0.5626
 1100SOL     OW 4397   2.653   2.623   1.614 -0.0338 -0.2006  0.1003
 1100SOL    HW1 4398   2.631   2.661   1.699 -0.6170  0.0202 -0.1456
 1100SOL    HW2 4399   2.645   2.529   1.627  1.6645 -0.2894  0.7828
 1100SOL     MW 4400   2.649   2.616   1.626  0.1089 -0.1837  0.1562
 1101SOL     OW 4401   2.316   5.155   3.090  0.0282  0.2265 -0.2536
 1101SOL    HW1 4402   2.316   5.194   3.003 -0.0732  1.3637  0.2438
 1101SOL    HW2 4403   2.399   5.107   3.094 -0.7184 -1.2743 -1.5799
 1101SOL     MW 4404   2.327   5.154   3.079 -0.0804  0.1800 -0.3597
 1102SOL     OW 4405   1.868   1.836   1.679  0.3829 -0.3435  0.0008
 1102SOL    HW1 4406   1.870   1.765   1.743  2.4005  0.0519  0.4411
 1102SOL    HW2 4407   1.936   1.812   1.615  0.7466  0.9329 -0.1151
 1102SOL     MW 4408   1.877   1.824   1.679  0.6877 -0.1295  0.0423
 1103SOL     OW 4409   2.688   3.892   4.625 -0.1556  0.0894  0.4121
 1103SOL    HW1 4410   2.687   3.920   4.716 -1.4064 -0.2411  0.5194
 1103SOL    HW2 4411   2.642   3.962   4.578  1.3392  0.7426 -0.1349
 1103SOL     MW 4412   2.682   3.905   4.631 -0.1243  0.1307  0.3558
 1104SOL     OW 4413   2.093   0.131   1.038 -0.1174 -0.0999 -0.1211
 1104SOL    HW1 4414   2.087   0.223   1.066  1.7341  0.1232 -0.3629
 1104SOL    HW2 4415   2.033   0.125   0.963 -0.0122  0.9940 -0.3105
 1104SOL     MW 4416   2.084   0.142   1.032  0.1331  0.0687 -0.1763
 1105SOL     OW 4417   4.172   4.376   2.079  0.0076 -0.1065  0.2125
 1105SOL    HW1 4418   4.090   4.358   2.033  0.3807  0.3617 -0.6729
 1105SOL    HW2 4419   4.163   4.467   2.109 -0.7089 -0.7579  2.1462
 1105SOL     MW 4420   4.160   4.386   2.077 -0.0363 -0.1300  0.3467
 1106SOL     OW 4421   0.097   0.347   0.190  0.5386 -0.3951  0.0131
 1106SOL    HW1 4422   0.189   0.373   0.185  1.2505 -2.1142  2.3591
 1106SOL    HW2 4423   0.049   0.429   0.196  1.8731  0.5423 -1.3632
 1106SOL     MW 4424   0.102   0.361   0.190  0.8006 -0.4952  0.1372
 1107SOL     OW 4425   3.864   4.269   2.894  0.4997 -0.0999 -0.3554
 1107SOL    HW1 4426   3.945   4.243   2.850  1.2691  2.2406 -0.4620
 1107SOL    HW2 4427   3.887   4.350   2.940 -1.0638 -0.8644  1.9725
 1107SOL     MW 4428   3.877   4.276   2.895  0.3981  0.1018 -0.0711
 1108SOL     OW 4429   4.377   0.060   1.166 -0.1425  0.2545 -0.0019
 1108SOL    HW1 4430   4.437   0.037   1.237 -1.3365 -0.9901  0.6702
 1108SOL    HW2 4431   4.298   0.009   1.185 -1.5904  2.1499 -0.5830
 1108SOL     MW 4432   4.374   0.051   1.178 -0.4807  0.3378  0.0098
 1109SOL     OW 4433   1.789   5.139   3.570  0.0459 -0.2759  0.0323
 1109SOL    HW1 4434   1.765   5.048   3.590  0.8927 -0.4314  0.3901
 1109SOL    HW2 4435   1.757   5.153   3.481 -1.0318 -0.5804  0.3533
 1109SOL     MW 4436   1.782   5.129   3.561  0.0164 -0.3348  0.1192
 1110SOL     OW 4437   1.605   1.600   3.782 -0.1028 -0.2700  0.1748
 1110SOL    HW1 4438   1.637   1.555   3.704 -1.0147  0.3521 -0.5838
 1110SOL    HW2 4439   1.619   1.693   3.765 -1.4128 -0.0407  0.2063
 1110SOL     MW 4440   1.611   1.606   3.770 -0.3873 -0.1610  0.0817
 1111SOL     OW 4441   2.658   4.090   5.478 -0.1934  0.2608 -0.1463
 1111SOL    HW1 4442   2.659   3.997   5.501  0.0817  0.3613  0.2530
 1111SOL    HW2 4443   2.745   4.107   5.442 -0.2291  0.3768 -0.1792
 1111SOL     MW 4444   2.669   4.080   5.476 -0.1627  0.2885 -0.0994
 1112SOL     OW 4445   2.926   4.332   0.400  0.0642 -0.1683  0.1691
 1112SOL    HW1 4446   2.960   4.410   0.355 -0.2991 -0.1885 -0.1466
 1112SOL    HW2 4447   2.846   4.310   0.352 -1.2685  0.8018  1.8283
 1112SOL     MW 4448   2.920   4.339   0.388 -0.1530 -0.0467  0.3411
 1113SOL     OW 4449   4.680   4.476   4.630 -0.2097  0.2203  0.4685
 1113SOL    HW1 4450   4.730   4.515   4.558 -0.5380  0.6565  0.4733
 1113SOL    HW2 4451   4.729   4.500   4.709  2.1074 -3.0977  0.2665
 1113SOL     MW 4452   4.693   4.484   4.631  0.0449 -0.1486  0.4433
 1114SOL     OW 4453   1.468   1.853   1.444 -0.4383  0.1822 -0.0173
 1114SOL    HW1 4454   1.510   1.930   1.406  0.2794 -0.7937 -1.2792
 1114SOL    HW2 4455   1.434   1.805   1.368 -0.7785 -0.8026  0.7492
 1114SOL     MW 4456   1.469   1.857   1.429 -0.3900 -0.0688 -0.0807
 1115SOL     OW 4457   1.402   4.937   1.988  0.0857 -0.3797 -0.9452
 1115SOL    HW1 4458   1.491   4.913   1.962  0.2422 -0.9709  0.0792
 1115SOL    HW2 4459   1.390   4.895   2.073 -1.3461 -0.7067 -1.2823
 1115SOL     MW 4460   1.412   4.929   1.995 -0.0775 -0.4972 -0.8572
 1116SOL     OW 4461   0.978   5.226   2.097  0.1973  0.1245  0.5121
 1116SOL    HW1 4462   1.049   5.259   2.042  0.8221 -4.1006 -1.6072
 1116SOL    HW2 4463   0.899   5.266   2.059  0.6628 -2.1349 -3.4025
 1116SOL     MW 4464   0.977   5.235   2.085  0.3368 -0.7056 -0.2603
 1117SOL     OW 4465   4.581   4.186   1.430 -0.1207  0.4643 -0.3950
 1117SOL    HW1 4466   4.527   4.168   1.354 -1.3698  2.2724  0.0153
 1117SOL    HW2 4467   4.653   4.239   1.396  0.5600 -0.5807 -0.6534
 1117SOL     MW 4468   4.584   4.190   1.416 -0.1935  0.5620 -0.3755
 1118SOL     OW 4469   3.794   2.267   2.739 -0.0747 -0.0487 -0.2627
 1118SOL    HW1 4470   3.705   2.299   2.756  0.2075  0.7489 -0.2404
 1118SOL    HW2 4471   3.809   2.203   2.808 -0.0901  0.9042  0.6622
 1118SOL     MW 4472   3.784   2.263   2.750 -0.0405  0.1754 -0.1414
 1119SOL     OW 4473   2.453   5.268   2.419  0.0481 -0.1506 -0.4037
 1119SOL    HW1 4474   2.497   5.184   2.430 -0.9485 -0.6166  0.2207
 1119SOL    HW2 4475   2.365   5.253   2.454 -0.1937  1.1136 -0.4330
 1119SOL     MW 4476   2.447   5.255   2.425 -0.1104 -0.0484 -0.3275
 1120SOL     OW 4477   5.234   5.368   1.450 -0.0239  0.0736 -1.4626
 1120SOL    HW1 4478   5.260   5.285   1.411  0.1315  0.2660 -1.7677
 1120SOL    HW2 4479   5.169   5.403   1.390  2.3799  1.8297 -3.2465
 1120SOL     MW 4480   5.229   5.362   1.438  0.3037  0.3230 -1.7300
 1121SOL     OW 4481   4.523   1.086   2.522  0.6425 -0.0636  0.3678
 1121SOL    HW1 4482   4.460   1.139   2.570 -0.4146  0.2460 -1.3053
 1121SOL    HW2 4483   4.591   1.065   2.587 -1.2869 -0.6639  2.3024
 1121SOL     MW 4484   4.524   1.090   2.536  0.2602 -0.1008  0.4013
 1122SOL     OW 4485   4.017   1.323   4.082  0.5076  0.7228  0.4854
 1122SOL    HW1 4486   4.053   1.272   4.154 -0.2927 -1.2059 -0.3936
 1122SOL    HW2 4487   3.967   1.393   4.124 -0.8835 -0.9949  1.9007
 1122SOL     MW 4488   4.015   1.325   4.096  0.2270  0.2560  0.5541
 1123SOL     OW 4489   4.420   0.053   2.297  0.1140  0.5421  0.3180
 1123SOL    HW1 4490   4.358   0.104   2.349  0.1876  1.0638 -0.0946
 1123SOL    HW2 4491   4.365  -0.000   2.240  0.0322 -0.1255  1.0113
 1123SOL     MW 4492   4.405   0.053   2.296  0.1129  0.5235  0.3539
 1124SOL     OW 4493   3.567   2.176   1.979  0.3005  0.1133 -0.2645
 1124SOL    HW1 4494   3.657   2.207   1.992 -0.3684  1.6090  1.2606
 1124SOL    HW2 4495   3.541   2.141   2.065 -0.8595  0.5533 -0.4211
 1124SOL     MW 4496   3.575   2.176   1.992  0.0663  0.3611 -0.0893
 1125SOL     OW 4497   1.466   0.308   3.254 -0.2918  0.5968  0.4738
 1125SOL    HW1 4498   1.530   0.308   3.183  0.6433  1.5260  1.2771
 1125SOL    HW2 4499   1.381   0.314   3.209  0.1048 -1.3157 -0.6330
 1125SOL     MW 4500   1.464   0.309   3.239 -0.1214  0.4709  0.4350
 1126SOL     OW 4501   4.937   5.445   4.833 -0.0168  0.1713 -0.0191
 1126SOL    HW1 4502   4.940   5.506   4.760 -1.3123  1.9934  1.3706
 1126SOL    HW2 4503   4.904   5.496   4.906 -0.6757 -2.0885  1.3647
 1126SOL     MW 4504   4.933   5.459   4.833 -0.2670  0.1152  0.3359
 1127SOL     OW 4505   5.324   1.808   5.476 -0.2355 -0.1748 -0.4529
 1127SOL    HW1 4506   5.405   1.818   5.427  1.7166 -0.3317  2.5518
 1127SOL    HW2 4507   5.295   1.719   5.457  0.8392 -0.4736 -0.7578
 1127SOL     MW 4508   5.330   1.798   5.467  0.1520 -0.2332 -0.1073
 1128SOL     OW 4509   5.151   4.328   1.601 -0.5831  0.4205 -0.7317
 1128SOL    HW1 4510   5.193   4.271   1.665 -2.9557 -0.6191  0.0359
 1128SOL    HW2 4511   5.121   4.404   1.651  1.0144  1.5574 -1.4225
 1128SOL     MW 4512   5.153   4.330   1.616 -0.6823  0.4329 -0.7219
 1129SOL     OW 4513   3.556   2.493   4.497  0.1879 -0.1678 -0.2930
 1129SOL    HW1 4514   3.490   2.527   4.437 -2.0117 -0.6913  1.6659
 1129SOL    HW2 4515   3.605   2.570   4.526 -1.2777  0.6340  0.1338
 1129SOL     MW 4516   3.554   2.507   4.493 -0.2813 -0.1322  0.0124
 1130SOL     OW 4517   4.765   1.493   2.471  0.2839 -0.0579 -0.0872
 1130SOL    HW1 4518   4.857   1.467   2.465  0.3260 -1.2682  3.5070
 1130SOL    HW2 4519   4.720   1.433   2.410  1.7018 -0.3055 -0.9425
 1130SOL     MW 4520   4.771   1.482   2.462  0.4708 -0.2446  0.2634
 1131SOL     OW 4521   2.564   5.165   4.798  0.0783  0.1511  0.1563
 1131SOL    HW1 4522   2.490   5.217   4.830 -0.3121 -0.4317  0.2142
 1131SOL    HW2 4523   2.534   5.128   4.715  0.1908 -0.3346  0.3282
 1131SOL     MW 4524   2.551   5.167   4.791  0.0428  0.0143  0.1857
 1132SOL     OW 4525   3.734   3.792   3.027 -0.9579  0.2374  0.5719
 1132SOL    HW1 4526   3.669   3.761   2.963 -0.1766  2.0687 -1.2151
 1132SOL    HW2 4527   3.815   3.747   3.002 -1.0746 -0.6032  1.6190
 1132SOL     MW 4528   3.736   3.782   3.015 -0.8728  0.3643  0.4772
 1133SOL     OW 4529   1.461   0.876   2.127 -0.8259  0.3349 -0.0684
 1133SOL    HW1 4530   1.458   0.900   2.219 -0.1033 -1.2622  0.4155
 1133SOL    HW2 4531   1.468   0.959   2.080 -2.2147  1.2305  1.2335
 1133SOL     MW 4532   1.461   0.890   2.132 -0.9112  0.2451  0.1602
 1134SOL     OW 4533   0.715   1.779   5.355  0.0950  0.5424 -0.1934
 1134SOL    HW1 4534   0.639   1.721   5.344  0.6912 -0.3480  0.2569
 1134SOL    HW2 4535   0.716   1.832   5.276 -0.1633 -0.4364 -0.8757
 1134SOL     MW 4536   0.705   1.778   5.343  0.1382  0.3031 -0.2231
 1135SOL     OW 4537   1.019   3.507   4.081 -0.1703 -0.3249  0.3359
 1135SOL    HW1 4538   1.089   3.451   4.048 -1.3234 -2.0558  0.6766
 1135SOL    HW2 4539   0.977   3.454   4.150 -0.8249  1.2849  1.2223
 1135SOL     MW 4540   1.022   3.493   4.086 -0.4018 -0.3404  0.4930
 1136SOL     OW 4541   2.970   1.474   2.763 -0.0219 -0.0247  0.0373
 1136SOL    HW1 4542   2.994   1.382   2.762  1.0094  0.1915 -2.5944
 1136SOL    HW2 4543   2.976   1.502   2.672  0.6625  2.9069  0.8613
 1136SOL     MW 4544   2.974   1.466   2.752  0.1977  0.3783 -0.1941
 1137SOL     OW 4545   0.025   2.175   4.422 -0.5382  0.2186  0.2973
 1137SOL    HW1 4546   0.074   2.128   4.354 -1.0838  1.2878 -0.8867
 1137SOL    HW2 4547   0.051   2.267   4.411 -2.7619  0.8311 -0.3860
 1137SOL     MW 4548   0.034   2.181   4.412 -0.8927  0.4339  0.0582
 1138SOL     OW 4549   2.468   5.065   4.576 -0.1890 -0.1333 -0.3081
 1138SOL    HW1 4550   2.513   5.132   4.524 -0.8117  0.0022 -0.6854
 1138SOL    HW2 4551   2.508   4.983   4.548  0.0151  0.0095 -0.4395
 1138SOL     MW 4552   2.479   5.063   4.566 -0.2426 -0.0976 -0.3733
 1139SOL     OW 4553   5.339   4.921   3.844  0.1112 -0.5284  0.2342
 1139SOL    HW1 4554   5.393   4.842   3.832  0.3511 -0.0903 -1.9892
 1139SOL    HW2 4555   5.399   4.985   3.883 -0.0384 -1.3546  1.8985
 1139SOL     MW 4556   5.354   4.919   3.847  0.1227 -0.5781  0.1627
 1140SOL     OW 4557   5.218   1.821   4.145 -0.1270 -0.1929 -0.1685
 1140SOL    HW1 4558   5.261   1.736   4.142  2.5862  1.0383  0.5586
 1140SOL    HW2 4559   5.213   1.849   4.054  0.1987 -0.5716 -0.3054
 1140SOL     MW 4560   5.223   1.814   4.133  0.2620 -0.0838 -0.0929
 1141SOL     OW 4561   1.693   0.285   3.107  0.3460  0.0637  0.6836
 1141SOL    HW1 4562   1.770   0.288   3.163 -0.1899 -1.8723  1.6231
 1141SOL    HW2 4563   1.720   0.231   3.032 -0.1924 -1.0175  1.2436
 1141SOL     MW 4564   1.706   0.278   3.104  0.2085 -0.3225  0.8755
 1142SOL     OW 4565   5.494   4.929   1.725  0.3144 -0.1712  0.9475
 1142SOL    HW1 4566   5.515   4.895   1.638  0.3854  0.8234  0.5596
 1142SOL    HW2 4567   5.399   4.941   1.725  0.2937 -0.3348  1.0659
 1142SOL     MW 4568   5.484   4.926   1.714  0.3208 -0.0649  0.9130
 1143SOL     OW 4569   1.173   5.074   0.113  0.0514  1.2406 -0.2295
 1143SOL    HW1 4570   1.159   5.168   0.108  0.9870  1.3436 -1.3314
 1143SOL    HW2 4571   1.137   5.040   0.031  1.5590  0.9193 -0.7963
 1143SOL     MW 4572   1.167   5.081   0.102  0.3642  1.2126 -0.4431
 1144SOL     OW 4573   2.177   2.662   3.118  0.3470 -0.8635  0.1018
 1144SOL    HW1 4574   2.106   2.646   3.056  0.6120 -0.7737 -0.2241
 1144SOL    HW2 4575   2.208   2.750   3.098 -1.1709  0.1755  1.9608
 1144SOL     MW 4576   2.172   2.671   3.108  0.1866 -0.7190  0.2981
 1145SOL     OW 4577   5.404   1.634   0.858  0.1965 -0.1014 -0.5033
 1145SOL    HW1 4578   5.467   1.697   0.895  0.2483 -0.4879  0.0745
 1145SOL    HW2 4579   5.337   1.624   0.926  0.3931 -0.9711 -0.4272
 1145SOL     MW 4580   5.404   1.641   0.872  0.2283 -0.2622 -0.4196
 1146SOL     OW 4581   2.013   1.599   3.807  0.0358 -0.1491 -0.2219
 1146SOL    HW1 4582   1.922   1.624   3.824 -0.5155 -0.9048 -1.8686
 1146SOL    HW2 4583   2.042   1.558   3.889 -1.1773 -0.1467  0.2341
 1146SOL     MW 4584   2.005   1.597   3.820 -0.1901 -0.2455 -0.3743
 1147SOL     OW 4585   0.489   5.117   3.970 -0.0628  0.2806 -0.4248
 1147SOL    HW1 4586   0.545   5.194   3.979 -1.7715  1.8409 -2.1013
 1147SOL    HW2 4587   0.534   5.061   3.907  2.0417 -1.0639  2.0596
 1147SOL     MW 4588   0.502   5.120   3.963 -0.0122  0.3082 -0.3214
 1148SOL     OW 4589   4.387   5.224   4.662  0.1841 -0.2951  0.2405
 1148SOL    HW1 4590   4.397   5.129   4.673  0.5339 -0.1228  1.5493
 1148SOL    HW2 4591   4.299   5.243   4.693  0.7064  0.0125  1.6350
 1148SOL     MW 4592   4.377   5.214   4.667  0.2958 -0.2337  0.5865
 1149SOL     OW 4593   4.536   5.065   0.883  0.2830 -0.4157  0.1225
 1149SOL    HW1 4594   4.486   5.001   0.832  0.2627  0.0757 -0.4851
 1149SOL    HW2 4595   4.537   5.144   0.829 -1.6979  0.8979  1.8207
 1149SOL     MW 4596   4.530   5.067   0.870  0.0268 -0.1847  0.2621
 1150SOL     OW 4597   2.142   4.456   0.431  0.7242 -0.1148 -0.3148
 1150SOL    HW1 4598   2.099   4.539   0.450  1.4362  0.3326 -0.6164
 1150SOL    HW2 4599   2.071   4.396   0.409  0.1563  0.2335  0.5658
 1150SOL     MW 4600   2.128   4.459   0.430  0.7426 -0.0129 -0.2407
 1151SOL     OW 4601   5.116   5.317   1.049  0.2200 -0.0133 -0.0198
 1151SOL    HW1 4602   5.048   5.250   1.057 -0.9863  1.1951  0.1594
 1151SOL    HW2 4603   5.198   5.269   1.061 -0.6150 -1.4186  0.3185
 1151SOL     MW 4604   5.118   5.302   1.052 -0.0413 -0.0385  0.0464
 1152SOL     OW 4605   2.913   1.216   2.953  0.6456 -0.0045  0.2804
 1152SOL    HW1 4606   2.916   1.127   2.986  0.2449 -0.5177 -0.9830
 1152SOL    HW2 4607   2.951   1.270   3.023 -0.9816 -0.8857  1.9168
 1152SOL     MW 4608   2.918   1.212   2.966  0.3860 -0.1830  0.3282
 1153SOL     OW 4609   2.797   5.342   0.041  0.8367 -0.3863 -0.3749
 1153SOL    HW1 4610   2.718   5.288   0.038 -0.2593  1.1718 -1.4017
 1153SOL    HW2 4611   2.852   5.307  -0.029  0.0108 -0.0518 -1.2304
 1153SOL     MW 4612   2.794   5.331   0.031  0.5907 -0.1440 -0.6159
 1154SOL     OW 4613   2.603   2.099   4.314 -0.0965 -0.3212 -0.9252
 1154SOL    HW1 4614   2.650   2.052   4.383  1.7335 -0.0309 -1.9339
 1154SOL    HW2 4615   2.593   2.188   4.348  0.0534 -0.3964 -0.6841
 1154SOL     MW 4616   2.607   2.105   4.327  0.1569 -0.2937 -1.0235
 1155SOL     OW 4617   3.910   0.718   3.673  0.5874  0.0926  0.4939
 1155SOL    HW1 4618   3.996   0.681   3.655 -0.0901 -1.8882  1.0865
 1155SOL    HW2 4619   3.883   0.677   3.755 -1.8340 -1.0339 -0.7731
 1155SOL     MW 4620   3.918   0.708   3.681  0.1907 -0.3051  0.4076
 1156SOL     OW 4621   2.125   1.267   0.988  1.1299  0.4387 -0.1582
 1156SOL    HW1 4622   2.136   1.251   1.082  0.6446 -2.0316 -0.4680
 1156SOL    HW2 4623   2.183   1.341   0.970  1.6091  0.6541  1.9798
 1156SOL     MW 4624   2.134   1.275   0.998  1.1291  0.1500  0.0758
 1157SOL     OW 4625   1.975   1.614   4.991  0.2431  0.0242 -0.6624
 1157SOL    HW1 4626   1.897   1.562   4.972  0.1851 -0.7987  1.4827
 1157SOL    HW2 4627   2.048   1.558   4.964  0.1529 -0.9491  0.9168
 1157SOL     MW 4628   1.974   1.600   4.985  0.2241 -0.2058 -0.1856
 1158SOL     OW 4629   0.528   1.258   4.727 -0.7004  0.1648 -0.1437
 1158SOL    HW1 4630   0.609   1.281   4.773  0.2139 -0.7085 -1.2599
 1158SOL    HW2 4631   0.527   1.316   4.651 -0.0352 -1.2020 -1.2363
 1158SOL     MW 4632   0.538   1.268   4.723 -0.4982 -0.1220 -0.4264
 1159SOL     OW 4633   4.487   3.715   3.136  0.6674  0.2045  0.3185
 1159SOL    HW1 4634   4.420   3.658   3.097  1.4761 -1.0943  0.7738
 1159SOL    HW2 4635   4.440   3.767   3.201 -0.1174  0.1823 -0.2179
 1159SOL     MW 4636   4.472   3.714   3.139  0.6704  0.0354  0.3081
 1160SOL     OW 4637   4.858   5.182   3.364  0.3764 -0.3639 -0.3955
 1160SOL    HW1 4638   4.891   5.271   3.353 -0.1729 -0.0888  0.1586
 1160SOL    HW2 4639   4.924   5.139   3.419  0.1759 -0.0224  0.1184
 1160SOL     MW 4640   4.871   5.188   3.369  0.2804 -0.2850 -0.2588
 1161SOL     OW 4641   4.167   1.331   5.451 -0.2870  0.4375 -0.2001
 1161SOL    HW1 4642   4.176   1.281   5.370  0.6119  1.1526 -0.5633
 1161SOL    HW2 4643   4.090   1.386   5.437  0.2051  0.9856 -0.8225
 1161SOL     MW 4644   4.158   1.332   5.439 -0.1090  0.5992 -0.3263
 1162SOL     OW 4645   1.673   3.162   5.294 -0.0709  0.1820  0.2463
 1162SOL    HW1 4646   1.586   3.142   5.329  0.7449 -1.1078  1.6907
 1162SOL    HW2 4647   1.733   3.121   5.356  1.5519 -0.0032 -1.3619
 1162SOL     MW 4648   1.669   3.154   5.307  0.2413 -0.0068  0.2253
 1163SOL     OW 4649   3.067   2.714   4.296  0.4963  0.0156 -0.4379
 1163SOL    HW1 4650   3.133   2.692   4.230 -0.1311 -0.6453 -0.8547
 1163SOL    HW2 4651   3.085   2.806   4.317  0.6152  0.2868 -1.6492
 1163SOL     MW 4652   3.078   2.723   4.290  0.4312 -0.0343 -0.6463
 1164SOL     OW 4653   2.062   4.258   4.220  0.5122 -0.1509 -0.3295
 1164SOL    HW1 4654   2.059   4.282   4.127  1.0163 -1.0843 -0.5980
 1164SOL    HW2 4655   2.155   4.259   4.242  0.3770  0.3529  0.2554
 1164SOL     MW 4656   2.074   4.262   4.211  0.5594 -0.2059 -0.2890
 1165SOL     OW 4657   1.818   3.744   3.011  0.7605 -0.7030  0.5032
 1165SOL    HW1 4658   1.848   3.739   3.101  1.7504  2.2640  0.4563
 1165SOL    HW2 4659   1.892   3.779   2.962 -0.5997  0.3674 -0.9189
 1165SOL     MW 4660   1.831   3.748   3.016  0.7131 -0.1862  0.3152
 1166SOL     OW 4661   5.063   4.358   1.344 -0.0573 -0.1688  0.1871
 1166SOL    HW1 4662   5.091   4.333   1.432  0.8729 -3.3226 -0.8618
 1166SOL    HW2 4663   5.145   4.365   1.295 -0.6320 -0.0570 -0.7798
 1166SOL     MW 4664   5.077   4.356   1.349 -0.0118 -0.5582 -0.0710
 1167SOL     OW 4665   3.551   3.726   2.836 -0.1733  0.0100 -0.2045
 1167SOL    HW1 4666   3.488   3.781   2.788 -1.7467  0.6975  2.4476
 1167SOL    HW2 4667   3.502   3.646   2.855  0.4083 -0.2406  0.2579
 1167SOL     MW 4668   3.536   3.723   2.832 -0.3002  0.0659  0.1942
 1168SOL     OW 4669   4.925   4.242   0.036  0.0582  0.5873  0.1041
 1168SOL    HW1 4670   4.852   4.302   0.051  0.0483  0.7017 -0.3849
 1168SOL    HW2 4671   4.976   4.246   0.117  0.0212  1.2063  0.1053
 1168SOL     MW 4672   4.922   4.250   0.048  0.0522  0.6812  0.0417
 1169SOL     OW 4673   4.958   5.320   4.459  0.0721 -0.2079  0.7213
 1169SOL    HW1 4674   5.035   5.281   4.501  0.0901 -0.9012  0.0745
 1169SOL    HW2 4675   4.949   5.406   4.500  1.2823 -0.0555  0.7169
 1169SOL     MW 4676   4.967   5.326   4.470  0.2293 -0.2771  0.6380
 1170SOL     OW 4677   0.015   0.133   5.445 -0.2032  0.3132 -0.3286
 1170SOL    HW1 4678   0.033   0.184   5.523 -0.6883  0.2526 -0.1712
 1170SOL    HW2 4679   0.001   0.198   5.376  1.7564  0.3529 -0.7365
 1170SOL     MW 4680   0.015   0.148   5.446 -0.0144  0.3105 -0.3607
 1171SOL     OW 4681   1.426   0.980   4.120  0.2954 -0.0772  0.1886
 1171SOL    HW1 4682   1.485   0.949   4.052 -1.4448 -0.0777 -1.4134
 1171SOL    HW2 4683   1.401   0.901   4.168  0.0387 -0.3710 -0.4217
 1171SOL     MW 4684   1.430   0.966   4.118  0.0398 -0.1148 -0.0946
 1172SOL     OW 4685   2.332   0.051   0.408 -0.1096  0.0352 -0.1833
 1172SOL    HW1 4686   2.242   0.036   0.438 -1.0609  3.0249 -1.2538
 1172SOL    HW2 4687   2.386   0.001   0.470 -2.4552 -2.4712  0.0566
 1172SOL     MW 4688   2.328   0.042   0.420 -0.5317  0.0970 -0.2896
 1173SOL     OW 4689   3.928   4.538   2.946  0.4698  0.0218 -0.4211
 1173SOL    HW1 4690   3.839   4.557   2.976  1.2772  0.8536  1.6279
 1173SOL    HW2 4691   3.950   4.610   2.887  0.2155  0.4573  0.0113
 1173SOL     MW 4692   3.919   4.549   2.942  0.5406  0.1840 -0.1034
 1174SOL     OW 4693   4.227   1.715   2.132  0.1154 -0.4842 -0.0305
 1174SOL    HW1 4694   4.203   1.630   2.095  0.2131 -0.8629  0.7644
 1174SOL    HW2 4695   4.251   1.768   2.056 -0.4108 -1.0127 -0.5789
 1174SOL     MW 4696   4.227   1.711   2.118  0.0606 -0.6004  0.0011
 1175SOL     OW 4697   4.571   5.076   1.368 -0.5112  0.3657  0.6958
 1175SOL    HW1 4698   4.588   5.114   1.283 -0.0179  1.0030  1.0693
 1175SOL    HW2 4699   4.496   5.019   1.355 -1.5405  1.7879  0.2076
 1175SOL     MW 4700   4.564   5.074   1.356 -0.5798  0.6293  0.6811
 1176SOL     OW 4701   0.511   4.726   1.154  0.6067 -0.3251  0.1157
 1176SOL    HW1 4702   0.585   4.698   1.100  2.2868  0.0859  2.0887
 1176SOL    HW2 4703   0.520   4.677   1.235 -0.0487  1.2502  1.2040
 1176SOL     MW 4704   0.521   4.716   1.157  0.7379 -0.0708  0.5076
 1177SOL     OW 4705   1.551   3.840   1.826  0.4967 -0.3616  0.1567
 1177SOL    HW1 4706   1.578   3.749   1.814 -0.8302 -0.7285 -0.2340
 1177SOL    HW2 4707   1.470   3.848   1.776 -0.1757  0.6449  1.3242
 1177SOL     MW 4708   1.544   3.829   1.818  0.2408 -0.2797  0.2561
 1178SOL     OW 4709   0.743   3.845   1.265 -0.2065  0.5014  0.0236
 1178SOL    HW1 4710   0.753   3.927   1.217  1.2409 -0.0854 -0.7670
 1178SOL    HW2 4711   0.832   3.826   1.297 -0.3292 -1.1579 -0.5259
 1178SOL     MW 4712   0.756   3.853   1.263 -0.0369  0.2139 -0.1479
 1179SOL     OW 4713   3.216   4.411   2.268 -0.5493  0.8986 -0.2787
 1179SOL    HW1 4714   3.165   4.331   2.259 -1.0496  1.3360 -1.5722
 1179SOL    HW2 4715   3.166   4.464   2.331 -1.5759  1.2102 -1.3289
 1179SOL     MW 4716   3.203   4.408   2.275 -0.7448  0.9945 -0.5787
 1180SOL     OW 4717   3.059   0.122   0.331 -0.2708 -0.0561  0.1135
 1180SOL    HW1 4718   3.092   0.195   0.280 -0.2306 -0.1390  0.0198
 1180SOL    HW2 4719   2.967   0.113   0.304 -1.4471  2.3141  2.7749
 1180SOL     MW 4720   3.051   0.130   0.321 -0.4162  0.2367  0.4422
 1181SOL     OW 4721   4.322   0.898   1.614 -1.0020  0.2576  0.6169
 1181SOL    HW1 4722   4.402   0.854   1.586 -1.0086 -0.5197  1.7420
 1181SOL    HW2 4723   4.253   0.859   1.560 -0.6134  1.1238 -0.5462
 1181SOL     MW 4724   4.323   0.887   1.604 -0.9531  0.2690  0.6120
 1182SOL     OW 4725   4.218   2.197   0.945 -0.5084  0.4454  0.1545
 1182SOL    HW1 4726   4.195   2.208   0.852 -1.3324  1.4862  0.4619
 1182SOL    HW2 4727   4.147   2.239   0.992 -0.1928 -0.2633  1.2776
 1182SOL     MW 4728   4.206   2.204   0.939 -0.5735  0.4879  0.3376
 1183SOL     OW 4729   1.267   1.664   4.966 -0.5385  0.1875 -0.3949
 1183SOL    HW1 4730   1.324   1.741   4.970 -0.6072  0.2730 -1.0534
 1183SOL    HW2 4731   1.244   1.656   4.874 -1.2384 -0.1110 -0.1957
 1183SOL     MW 4732   1.271   1.673   4.955 -0.6369  0.1603 -0.4537
 1184SOL     OW 4733   0.727   1.831   0.828 -0.4706 -0.2146  0.0574
 1184SOL    HW1 4734   0.634   1.851   0.817  0.1161  2.3327 -0.9439
 1184SOL    HW2 4735   0.742   1.756   0.769 -1.5865  0.3393 -0.9823
 1184SOL     MW 4736   0.717   1.824   0.819 -0.5384  0.1824 -0.2039
 1185SOL     OW 4737   1.959   2.262   5.108  0.4296  0.6107  0.0253
 1185SOL    HW1 4738   1.983   2.353   5.123  1.7601  0.2199  0.4561
 1185SOL    HW2 4739   1.998   2.240   5.024 -0.5328  0.6338 -0.4424
 1185SOL     MW 4740   1.967   2.270   5.099  0.4767  0.5637  0.0206
 1186SOL     OW 4741   3.048   5.134   5.139 -0.3304  0.4729 -0.8229
 1186SOL    HW1 4742   3.045   5.044   5.106 -0.1493 -0.1568  0.7591
 1186SOL    HW2 4743   3.016   5.188   5.067  2.4211 -0.4845 -2.9361
 1186SOL     MW 4744   3.044   5.129   5.126  0.0450  0.2697 -0.8909
 1187SOL     OW 4745   4.084   4.161   4.399  0.1384  0.0542 -0.1982
 1187SOL    HW1 4746   4.080   4.072   4.434  1.8863 -0.0529 -0.2029
 1187SOL    HW2 4747   4.047   4.216   4.469 -2.3210 -0.7542 -0.7524
 1187SOL     MW 4748   4.078   4.157   4.412  0.0473 -0.0630 -0.2698
 1188SOL     OW 4749   3.431   2.434   1.032 -0.3667 -0.0038  0.0446
 1188SOL    HW1 4750   3.433   2.529   1.024  0.8905 -0.0985 -1.1105
 1188SOL    HW2 4751   3.454   2.417   1.123  1.1710  0.7667 -0.1702
 1188SOL     MW 4752   3.434   2.444   1.043 -0.0089  0.0827 -0.1308
 1189SOL     OW 4753   4.701   4.770   0.540 -0.1496 -0.4092 -0.1546
 1189SOL    HW1 4754   4.686   4.842   0.479  0.6339 -1.9433 -2.2897
 1189SOL    HW2 4755   4.644   4.700   0.509  0.4655 -1.3235  0.7153
 1189SOL     MW 4756   4.692   4.770   0.528  0.0294 -0.7226 -0.3166
 1190SOL     OW 4757   1.161   0.776   5.137  0.7187 -0.0931 -0.2989
 1190SOL    HW1 4758   1.158   0.871   5.134 -2.0282  0.0091  1.4098
 1190SOL    HW2 4759   1.177   0.756   5.230  1.5839 -1.3009 -0.6912
 1190SOL     MW 4760   1.162   0.785   5.149  0.4778 -0.2346 -0.1303
 1191SOL     OW 4761   0.899   3.328   4.277 -0.3009  0.2549  0.3772
 1191SOL    HW1 4762   0.963   3.257   4.269  0.6111  1.1426 -0.4162
 1191SOL    HW2 4763   0.914   3.364   4.364 -2.0006 -1.6247  1.5616
 1191SOL     MW 4764   0.909   3.323   4.287 -0.4017  0.1279  0.4273
 1192SOL     OW 4765   2.521   3.406   2.159  0.1020 -0.2984 -0.2402
 1192SOL    HW1 4766   2.532   3.314   2.133  0.6317 -0.5116  0.7176
 1192SOL    HW2 4767   2.610   3.440   2.166  0.1623 -0.8306  3.3010
 1192SOL     MW 4768   2.533   3.399   2.156  0.1775 -0.3938  0.3357
 1193SOL     OW 4769   2.726   4.756   0.787  0.1069  0.1084  0.1958
 1193SOL    HW1 4770   2.790   4.689   0.811 -1.6181 -2.4362 -1.7797
 1193SOL    HW2 4771   2.775   4.816   0.731  0.8819 -1.7583 -1.2450
 1193SOL     MW 4772   2.740   4.755   0.783 -0.0147 -0.4563 -0.2415
 1194SOL     OW 4773   3.734   1.166   4.195 -0.5926 -0.4310  0.0137
 1194SOL    HW1 4774   3.649   1.165   4.239 -1.3468 -2.6555 -1.3439
 1194SOL    HW2 4775   3.797   1.146   4.265 -1.0496  1.7196  1.1337
 1194SOL     MW 4776   3.731   1.164   4.210 -0.7476 -0.4405 -0.0167
 1195SOL     OW 4777   1.768   5.276   4.318  0.0600 -0.0760 -0.5535
 1195SOL    HW1 4778   1.674   5.259   4.328  0.3718 -1.0938  0.9076
 1195SOL    HW2 4779   1.784   5.266   4.224 -1.2693  0.0619 -0.8205
 1195SOL     MW 4780   1.758   5.273   4.307 -0.0703 -0.1886 -0.4007
 1196SOL     OW 4781   1.448   3.216   2.197 -0.0749  0.3210 -0.0344
 1196SOL    HW1 4782   1.451   3.310   2.178 -1.4092  0.7735  1.7631
 1196SOL    HW2 4783   1.363   3.189   2.163 -0.0856 -0.0381  0.2823
 1196SOL     MW 4784   1.437   3.225   2.190 -0.2471  0.3330  0.2362
 1197SOL     OW 4785   5.049   3.592   1.925 -0.7529 -0.1556  0.2540
 1197SOL    HW1 4786   5.046   3.632   1.839 -0.4257  0.0553  0.3403
 1197SOL    HW2 4787   5.012   3.658   1.984 -0.9209 -0.2769  0.2877
 1197SOL     MW 4788   5.044   3.605   1.922 -0.7325 -0.1441  0.2694
 1198SOL     OW 4789   2.619   0.955   4.234  0.0295 -0.1785  0.0475
 1198SOL    HW1 4790   2.678   1.022   4.199 -0.8029  0.0016 -1.0848
 1198SOL    HW2 4791   2.541   0.961   4.179 -0.5240 -1.2962  0.6738
 1198SOL     MW 4792   2.617   0.964   4.222 -0.1479 -0.2985 -0.0173
 1199SOL     OW 4793   0.927   2.840   0.249  0.0897 -0.0936 -0.4885
 1199SOL    HW1 4794   0.848   2.829   0.300 -1.0051  0.1797 -2.0394
 1199SOL    HW2 4795   0.999   2.832   0.312 -1.1273 -1.1926  0.8127
 1199SOL     MW 4796   0.926   2.838   0.263 -0.2063 -0.1993 -0.5205
 1200SOL     OW 4797   0.425   2.283   1.570  0.1804 -0.1417 -0.1842
 1200SOL    HW1 4798   0.516   2.275   1.597 -0.1691 -0.0519  1.1124
 1200SOL    HW2 4799   0.416   2.375   1.543  0.0218  0.4028  1.5965
 1200SOL     MW 4800   0.435   2.294   1.570  0.1153 -0.0605  0.2097
 1201SOL     OW 4801   2.585   4.913   0.328 -0.3340  0.5843  0.0328
 1201SOL    HW1 4802   2.649   4.972   0.290  0.1492 -0.6137 -1.0882
 1201SOL    HW2 4803   2.634   4.832   0.345 -0.8249  0.6586  2.0924
 1201SOL     MW 4804   2.599   4.910   0.326 -0.3350  0.4405  0.1530
 1202SOL     OW 4805   0.918   4.528   1.928 -0.3040  0.7181 -0.7508
 1202SOL    HW1 4806   0.919   4.497   2.018  0.5369  1.4605 -0.4942
 1202SOL    HW2 4807   1.010   4.527   1.902 -0.4498  1.3563 -1.3074
 1202SOL     MW 4808   0.930   4.524   1.936 -0.2150  0.8948 -0.7892
 1203SOL     OW 4809   0.183   2.692   2.477  0.2116 -0.0397 -0.5737
 1203SOL    HW1 4810   0.263   2.727   2.437 -0.7034  1.4015 -1.2370
 1203SOL    HW2 4811   0.127   2.671   2.402  0.6864 -3.0242 -0.2075
 1203SOL     MW 4812   0.186   2.694   2.462  0.1552 -0.2373 -0.6118
 1204SOL     OW 4813   4.085   0.320   4.710 -0.5415 -0.0276 -0.2647
 1204SOL    HW1 4814   4.177   0.349   4.715 -0.9460  1.5571 -1.1843
 1204SOL    HW2 4815   4.059   0.304   4.800  1.2820 -2.7797 -0.1018
 1204SOL     MW 4816   4.094   0.322   4.722 -0.3599 -0.1770 -0.3616
 1205SOL     OW 4817   4.323   3.441   4.903  0.3792  0.6098  0.3379
 1205SOL    HW1 4818   4.291   3.529   4.884 -1.2206  0.7007  2.9060
 1205SOL    HW2 4819   4.363   3.411   4.822  1.7615  4.0066 -0.3926
 1205SOL     MW 4820   4.324   3.448   4.890  0.3514  1.0563  0.5732
 1206SOL     OW 4821   2.446   3.711   5.233  0.0983 -0.0316  0.4920
 1206SOL    HW1 4822   2.405   3.636   5.190 -1.3599 -0.9031  3.1220
 1206SOL    HW2 4823   2.490   3.674   5.309 -0.9955  1.7557  2.1074
 1206SOL     MW 4824   2.446   3.697   5.238 -0.2283  0.0856  1.0355
 1207SOL     OW 4825   5.291   4.072   0.640  0.2786 -0.1775 -0.6691
 1207SOL    HW1 4826   5.272   4.124   0.718 -0.6599 -0.4232 -0.7141
 1207SOL    HW2 4827   5.284   3.981   0.670  1.3309 -0.2828 -0.7226
 1207SOL     MW 4828   5.287   4.067   0.654  0.2932 -0.2225 -0.6817
 1208SOL     OW 4829   4.281   5.383   2.111 -0.2227  0.2911  0.0328
 1208SOL    HW1 4830   4.323   5.427   2.037  1.7964 -1.8961 -0.2524
 1208SOL    HW2 4831   4.189   5.409   2.106  0.4854  2.9201 -1.1526
 1208SOL     MW 4832   4.275   5.392   2.101  0.1264  0.3477 -0.1555
 1209SOL     OW 4833   5.382   2.507   3.046 -0.0602  0.0920 -0.7184
 1209SOL    HW1 4834   5.360   2.594   3.012  0.0165  0.3403 -0.1545
 1209SOL    HW2 4835   5.297   2.466   3.062 -0.1960  1.0088  1.3496
 1209SOL     MW 4836   5.368   2.513   3.044 -0.0678  0.2412 -0.3815
 1210SOL     OW 4837   4.158   1.926   1.050 -0.2026 -0.3214  0.4665
 1210SOL    HW1 4838   4.180   2.013   1.018 -1.1762 -0.1644  0.2031
 1210SOL    HW2 4839   4.120   1.881   0.974  0.1378 -0.9246  0.6432
 1210SOL     MW 4840   4.156   1.931   1.036 -0.2837 -0.3785  0.4554
 1211SOL     OW 4841   4.995   0.591   4.282  0.0229  0.3693 -0.1343
 1211SOL    HW1 4842   5.016   0.598   4.189  0.3752  0.0994 -0.0735
 1211SOL    HW2 4843   4.902   0.567   4.283 -0.0380  0.5809 -0.4113
 1211SOL     MW 4844   4.986   0.589   4.270  0.0602  0.3619 -0.1620
 1212SOL     OW 4845   3.980   2.592   4.244  0.3292  0.1563 -0.2044
 1212SOL    HW1 4846   3.906   2.542   4.278  0.5531  0.5310  0.8731
 1212SOL    HW2 4847   3.945   2.640   4.170 -0.4112  0.0398  0.0670
 1212SOL     MW 4848   3.966   2.592   4.239  0.2631  0.1893 -0.0317
 1213SOL     OW 4849   4.639   2.486   4.732  0.4902  0.5517  0.2668
 1213SOL    HW1 4850   4.611   2.544   4.803  0.2657  0.7918 -0.0129
 1213SOL    HW2 4851   4.728   2.514   4.712  0.7492  0.1235  0.8182
 1213SOL     MW 4852   4.647   2.497   4.739  0.4946  0.5276  0.3016
 1214SOL     OW 4853   1.975   5.095   3.891  0.2437 -0.1409  0.0361
 1214SOL    HW1 4854   2.013   5.007   3.898 -0.3311 -0.3246  1.0299
 1214SOL    HW2 4855   1.974   5.114   3.797 -2.7701 -2.6057 -0.5878
 1214SOL     MW 4856   1.980   5.086   3.880 -0.2157 -0.4799  0.0834
 1215SOL     OW 4857   3.783   2.195   0.951  0.6632 -0.1720  0.0249
 1215SOL    HW1 4858   3.728   2.197   1.029  0.0420 -2.5536 -0.2728
 1215SOL    HW2 4859   3.721   2.199   0.878  1.1275  0.3941 -0.3509
 1215SOL     MW 4860   3.768   2.196   0.951  0.6431 -0.4044 -0.0613
 1216SOL     OW 4861   3.952   1.320   4.734  0.5072 -0.2402 -0.0736
 1216SOL    HW1 4862   3.979   1.270   4.657  1.7612  0.6486 -0.2445
 1216SOL    HW2 4863   4.002   1.281   4.807 -1.2250 -1.5634  0.4642
 1216SOL     MW 4864   3.962   1.308   4.734  0.4460 -0.2958 -0.0266
 1217SOL     OW 4865   2.632   2.344   2.292 -0.0334 -0.1111  0.2536
 1217SOL    HW1 4866   2.617   2.323   2.200  0.4323 -1.8813  0.5514
 1217SOL    HW2 4867   2.632   2.440   2.295  0.1064 -0.0239 -1.6048
 1217SOL     MW 4868   2.630   2.353   2.281  0.0441 -0.3266  0.0538
 1218SOL     OW 4869   1.020   3.296   5.384 -0.2504  0.3195  0.4227
 1218SOL    HW1 4870   1.017   3.211   5.340 -0.6028  0.8200 -0.5439
 1218SOL    HW2 4871   1.111   3.304   5.413 -0.3323 -0.6049  0.9840
 1218SOL     MW 4872   1.031   3.286   5.382 -0.3060  0.2652  0.3708
 1219SOL     OW 4873   3.703   2.364   0.686 -0.7130 -0.3174  0.0642
 1219SOL    HW1 4874   3.695   2.338   0.594  0.7820 -1.1588  0.1339
 1219SOL    HW2 4875   3.645   2.439   0.695 -1.4043 -0.6360 -1.3980
 1219SOL     MW 4876   3.694   2.370   0.675 -0.6101 -0.4659 -0.1140
 1220SOL     OW 4877   3.757   4.657   1.309 -0.5384  0.1888  0.0336
 1220SOL    HW1 4878   3.666   4.686   1.317 -0.4468  0.1926  1.3379
 1220SOL    HW2 4879   3.751   4.571   1.267 -1.2824 -0.3875  1.2335
 1220SOL     MW 4880   3.745   4.650   1.305 -0.6219  0.1155  0.3542
 1221SOL     OW 4881   4.711   2.236   0.578 -0.1050  0.0927 -0.1856
 1221SOL    HW1 4882   4.760   2.316   0.595  1.1092 -0.1502 -2.1877
 1221SOL    HW2 4883   4.776   2.166   0.584 -0.9972 -0.6920  0.7978
 1221SOL     MW 4884   4.725   2.237   0.581 -0.0638 -0.0389 -0.3160
 1222SOL     OW 4885   0.096   5.161   1.448 -0.3545  0.3362  0.5483
 1222SOL    HW1 4886   0.062   5.172   1.538  1.2872 -0.0446  1.2483
 1222SOL    HW2 4887   0.144   5.242   1.431  0.7343 -0.2603  0.6797
 1222SOL     MW 4888   0.098   5.173   1.458 -0.0050  0.2111  0.6547
 1223SOL     OW 4889   0.429   5.223   5.415  0.3904 -0.0256  0.0734
 1223SOL    HW1 4890   0.432   5.270   5.331 -0.9583 -1.3867 -0.8000
 1223SOL    HW2 4891   0.513   5.178   5.420  0.8730  0.8357 -0.0623
 1223SOL     MW 4892   0.440   5.223   5.405  0.2795 -0.0896 -0.0558
 1224SOL     OW 4893   3.433   2.567   3.389 -0.3063 -0.6246  0.0728
 1224SOL    HW1 4894   3.429   2.580   3.294  2.1687 -0.8136 -0.1125
 1224SOL    HW2 4895   3.526   2.560   3.408 -0.8184 -1.8646  2.3759
 1224SOL     MW 4896   3.445   2.568   3.379 -0.0550 -0.8075  0.3439
 1225SOL     OW 4897   0.185   0.730   5.390 -0.2584 -0.1765 -0.0398
 1225SOL    HW1 4898   0.150   0.779   5.464 -0.4999 -0.1783 -0.1519
 1225SOL    HW2 4899   0.249   0.670   5.428 -0.9746 -0.7553  0.2765
 1225SOL     MW 4900   0.189   0.728   5.404 -0.3810 -0.2508 -0.0137
 1226SOL     OW 4901   4.426   3.897   0.746  0.5415  0.4110 -0.0702
 1226SOL    HW1 4902   4.352   3.837   0.739 -0.3513  1.4222  0.2853
 1226SOL    HW2 4903   4.503   3.844   0.726 -0.3461 -0.4895 -1.2281
 1226SOL     MW 4904   4.426   3.883   0.743  0.3136  0.4252 -0.1729
 1227SOL     OW 4905   1.295   0.499   0.154 -0.1399 -0.2481  0.1576
 1227SOL    HW1 4906   1.239   0.424   0.133  1.0403 -0.8066 -1.1263
 1227SOL    HW2 4907   1.251   0.541   0.228 -1.9276 -1.0045 -0.4087
 1227SOL     MW 4908   1.282   0.495   0.161 -0.2177 -0.4164 -0.0792
 1228SOL     OW 4909   1.705   0.046   1.076  0.2490 -0.3233  0.3256
 1228SOL    HW1 4910   1.787   0.015   1.115  0.7900 -2.3051 -2.1169
 1228SOL    HW2 4911   1.723   0.049   0.982 -1.5165  2.4393 -0.0347
 1228SOL     MW 4912   1.718   0.043   1.069  0.0923 -0.2233 -0.0332
 1229SOL     OW 4913   5.272   1.927   0.273 -0.0364  0.1634 -0.0586
 1229SOL    HW1 4914   5.224   2.009   0.284  2.2098  1.4641  0.8429
 1229SOL    HW2 4915   5.276   1.913   0.179  0.3116  1.5829 -0.2632
 1229SOL     MW 4916   5.266   1.935   0.262  0.2957  0.5116  0.0306
 1230SOL     OW 4917   1.932   0.292   5.404 -0.1155 -0.2754 -0.3491
 1230SOL    HW1 4918   1.982   0.304   5.484 -0.5291 -2.0886  0.2294
 1230SOL    HW2 4919   1.855   0.348   5.416 -0.7002 -1.3027  1.0370
 1230SOL     MW 4920   1.928   0.301   5.416 -0.2433 -0.6390 -0.0976
 1231SOL     OW 4921   5.183   4.744   1.925  0.3544 -0.5379  0.4174
 1231SOL    HW1 4922   5.255   4.715   1.981 -0.6029 -3.6204  0.2771
 1231SOL    HW2 4923   5.108   4.751   1.984 -0.6001 -3.5642 -0.2529
 1231SOL     MW 4924   5.183   4.741   1.940  0.1097 -1.3199  0.3137
 1232SOL     OW 4925   3.940   2.002   0.652 -0.1550  0.1178  0.0056
 1232SOL    HW1 4926   3.980   1.967   0.572  0.8980  2.6440 -0.6568
 1232SOL    HW2 4927   3.975   1.947   0.722 -1.1797 -2.2196 -1.2129
 1232SOL     MW 4928   3.950   1.990   0.650 -0.1513  0.1419 -0.2352
 1233SOL     OW 4929   4.133   4.045   4.760 -0.3158 -0.6989 -0.3120
 1233SOL    HW1 4930   4.147   3.973   4.822 -0.2967 -0.3833  0.0526
 1233SOL    HW2 4931   4.112   4.001   4.678  0.1888 -1.1326 -0.2151
 1233SOL     MW 4932   4.132   4.030   4.758 -0.2488 -0.7140 -0.2529
 1234SOL     OW 4933   0.103   4.095   3.343  0.5466  0.1854  0.6825
 1234SOL    HW1 4934   0.172   4.046   3.299  1.0543 -0.1779  1.8531
 1234SOL    HW2 4935   0.022   4.056   3.310  0.9266 -0.4502  0.4835
 1234SOL     MW 4936   0.101   4.084   3.333  0.6602  0.0576  0.8069
 1235SOL     OW 4937   2.679   2.739   0.123 -0.1068  0.4659 -0.3589
 1235SOL    HW1 4938   2.754   2.742   0.183 -0.0957  1.8644 -0.4070
 1235SOL    HW2 4939   2.613   2.794   0.166 -0.1364  1.4134 -1.5698
 1235SOL     MW 4940   2.680   2.747   0.136 -0.1092  0.7662 -0.5201
 1236SOL     OW 4941   4.772   4.016   1.095  0.3625 -0.6328 -0.2186
 1236SOL    HW1 4942   4.745   4.107   1.091 -0.4284 -0.8964 -1.4866
 1236SOL    HW2 4943   4.691   3.967   1.077  0.9995 -1.5426 -0.6711
 1236SOL     MW 4944   4.758   4.021   1.092  0.3428 -0.7830 -0.4388
 1237SOL     OW 4945   1.041   4.030   2.845 -0.0457  0.0904 -0.2467
 1237SOL    HW1 4946   0.978   4.072   2.787 -2.1153  0.3178  1.9835
 1237SOL    HW2 4947   1.124   4.073   2.826  0.0501 -1.5351 -4.6577
 1237SOL     MW 4948   1.044   4.041   2.835 -0.2984 -0.0886 -0.5258
 1238SOL     OW 4949   2.703   0.432   3.786 -0.1839 -0.1604  0.1219
 1238SOL    HW1 4950   2.701   0.498   3.855  1.0430 -0.4296  0.4319
 1238SOL    HW2 4951   2.783   0.382   3.802  0.9724  0.7223 -2.3530
 1238SOL     MW 4952   2.713   0.434   3.797  0.1212 -0.0818 -0.1552
 1239SOL     OW 4953   1.544   4.196   0.242 -0.1358 -0.1008 -0.0752
 1239SOL    HW1 4954   1.524   4.279   0.199  1.1108  0.9575  1.2973
 1239SOL    HW2 4955   1.628   4.169   0.204 -0.1871 -0.3724  0.0033
 1239SOL     MW 4956   1.552   4.203   0.231  0.0172 -0.0000  0.1106
 1240SOL     OW 4957   2.280   1.885   0.832  0.0071 -0.2133  0.4552
 1240SOL    HW1 4958   2.190   1.861   0.808  0.4350  0.3755 -1.9735
 1240SOL    HW2 4959   2.277   1.979   0.847  0.0520 -0.3465  1.3711
 1240SOL     MW 4960   2.268   1.894   0.831  0.0676 -0.1550  0.2615
 1241SOL     OW 4961   1.249   1.400   3.973  0.2963 -0.0252  0.0326
 1241SOL    HW1 4962   1.156   1.388   3.996 -0.2534 -3.0092 -2.9032
 1241SOL    HW2 4963   1.296   1.349   4.039 -0.0976  1.1754  1.3054
 1241SOL     MW 4964   1.243   1.392   3.985  0.1755 -0.2535 -0.1803
 1242SOL     OW 4965   3.270   2.783   5.276  0.0758  0.4370  0.0597
 1242SOL    HW1 4966   3.324   2.763   5.199  1.0444 -0.6063  0.9825
 1242SOL    HW2 4967   3.187   2.815   5.240 -0.0095 -1.3349 -1.4485
 1242SOL     MW 4968   3.266   2.785   5.262  0.1889  0.0766 -0.0152
 1243SOL     OW 4969   0.337   1.198   3.124 -0.1190 -0.0483  0.0627
 1243SOL    HW1 4970   0.302   1.279   3.160  1.0497  0.5670 -0.1431
 1243SOL    HW2 4971   0.265   1.135   3.130 -2.3683  1.9088 -3.1506
 1243SOL     MW 4972   0.324   1.200   3.129 -0.2573  0.2810 -0.3750
 1244SOL     OW 4973   2.736   1.403   5.349  0.1520 -0.7741  0.1551
 1244SOL    HW1 4974   2.685   1.326   5.324 -1.3569  0.6149 -1.2525
 1244SOL    HW2 4975   2.766   1.440   5.266  1.5423 -0.2783  0.8515
 1244SOL     MW 4976   2.733   1.398   5.335  0.1368 -0.5328  0.0641
 1245SOL     OW 4977   1.111   2.202   3.782  0.6016  0.6432 -0.2052
 1245SOL    HW1 4978   1.081   2.234   3.867  3.7235 -1.5168  1.9516
 1245SOL    HW2 4979   1.169   2.271   3.749  0.0021  1.1510 -0.1959
 1245SOL     MW 4980   1.115   2.215   3.788  0.9245  0.4317  0.0721
 1246SOL     OW 4981   3.709   2.586   3.431 -0.4574 -0.3072 -0.0667
 1246SOL    HW1 4982   3.773   2.525   3.394  0.1859  0.1577  0.2693
 1246SOL    HW2 4983   3.699   2.654   3.364 -1.0032 -0.6461 -0.3422
 1246SOL     MW 4984   3.716   2.587   3.417 -0.4449 -0.2911 -0.0589
 1247SOL     OW 4985   1.843   3.147   1.602  0.3916 -0.1103  0.0004
 1247SOL    HW1 4986   1.926   3.125   1.561 -0.5661 -0.8954 -1.6144
 1247SOL    HW2 4987   1.808   3.063   1.633 -1.3272 -0.3878 -2.4012
 1247SOL     MW 4988   1.849   3.133   1.601  0.0490 -0.2463 -0.5138
 1248SOL     OW 4989   1.913   2.664   4.460 -0.4373 -0.1272 -0.1917
 1248SOL    HW1 4990   1.871   2.731   4.407 -2.7133 -0.2833  1.2851
 1248SOL    HW2 4991   1.992   2.642   4.412  0.5264  3.6803 -0.6682
 1248SOL     MW 4992   1.918   2.669   4.447 -0.6053  0.3402 -0.0636
 1249SOL     OW 4993   5.366   0.996   3.275  0.2200  0.2174  0.2548
 1249SOL    HW1 4994   5.354   1.082   3.314  0.3662  1.3063 -1.9982
 1249SOL    HW2 4995   5.436   1.007   3.211 -0.9356 -1.1031 -1.3433
 1249SOL     MW 4996   5.373   1.008   3.272  0.0908  0.1877 -0.2382
 1250SOL     OW 4997   4.781   3.203   4.607 -0.2866 -0.3744  0.2703
 1250SOL    HW1 4998   4.711   3.140   4.621 -0.7700 -0.3028 -1.5961
 1250SOL    HW2 4999   4.820   3.178   4.524  0.0287  1.2992 -0.1230
 1250SOL     MW 5000   4.777   3.192   4.598 -0.3081 -0.1510 -0.0190
 1251SOL     OW 5001   2.612   4.306   4.280 -0.1589  0.3553  0.0087
 1251SOL    HW1 5002   2.690   4.317   4.335  0.0411 -0.3490 -0.1187
 1251SOL    HW2 5003   2.633   4.230   4.225 -0.8555  0.2879 -0.1675
 1251SOL     MW 5004   2.625   4.297   4.280 -0.2225  0.2565 -0.0302
 1252SOL     OW 5005   3.151   0.981   3.370  0.4761  0.0519  0.0127
 1252SOL    HW1 5006   3.195   1.033   3.437 -1.7582  1.0291  0.8379
 1252SOL    HW2 5007   3.148   1.038   3.293  0.7554 -0.0474 -0.0693
 1252SOL     MW 5008   3.156   0.995   3.368  0.2258  0.1643  0.1079
 1253SOL     OW 5009   5.148   4.102   3.942 -0.0459 -0.5051 -0.0634
 1253SOL    HW1 5010   5.201   4.181   3.943 -2.8522  1.6299 -1.9291
 1253SOL    HW2 5011   5.105   4.101   4.027  0.7948 -0.6488  0.3672
 1253SOL     MW 5012   5.149   4.112   3.953 -0.2975 -0.2502 -0.2471
 1254SOL     OW 5013   3.193   4.944   0.055 -0.7178  0.7765  0.2205
 1254SOL    HW1 5014   3.128   4.883   0.021  1.7680 -1.6975 -0.3679
 1254SOL    HW2 5015   3.237   4.978  -0.023 -0.4139  1.4217  0.6668
 1254SOL     MW 5016   3.190   4.941   0.041 -0.3607  0.5424  0.2023
 1255SOL     OW 5017   5.034   0.188   4.113 -0.3172  0.2260  0.1527
 1255SOL    HW1 5018   4.952   0.223   4.147 -0.6828  0.3052 -0.7805
 1255SOL    HW2 5019   5.032   0.208   4.020  0.0726 -1.1087 -0.1676
 1255SOL     MW 5020   5.024   0.195   4.106 -0.3141  0.0653 -0.0078
 1256SOL     OW 5021   0.231   2.615   0.906 -0.4868  0.4461  0.1491
 1256SOL    HW1 5022   0.141   2.650   0.911 -0.2388  0.9721  1.2252
 1256SOL    HW2 5023   0.241   2.589   0.814 -1.7426  0.3715  0.0112
 1256SOL     MW 5024   0.220   2.616   0.895 -0.6158  0.5039  0.2692
 1257SOL     OW 5025   3.568   5.046   5.214  0.2852  0.6049  0.0949
 1257SOL    HW1 5026   3.597   5.127   5.171 -2.5102  1.5909 -0.1206
 1257SOL    HW2 5027   3.538   5.074   5.300 -2.0435  0.1087 -0.4910
 1257SOL     MW 5028   3.568   5.060   5.219 -0.3708  0.6676 -0.0077
 1258SOL     OW 5029   5.140   2.407   2.976  0.0139 -0.3887 -0.0587
 1258SOL    HW1 5030   5.076   2.478   2.967  1.1458  0.5006 -1.5999
 1258SOL    HW2 5031   5.096   2.342   3.030 -1.5496  0.9247  0.3336
 1258SOL     MW 5032   5.126   2.408   2.982 -0.0414 -0.1067 -0.2058
 1259SOL     OW 5033   3.339   1.239   1.872  0.3443 -0.0965 -0.3544
 1259SOL    HW1 5034   3.366   1.168   1.931 -1.5894 -1.1702 -0.6765
 1259SOL    HW2 5035   3.264   1.279   1.914 -1.5880 -1.3919 -2.3329
 1259SOL     MW 5036   3.333   1.235   1.885 -0.1506 -0.3998 -0.6489
 1260SOL     OW 5037   1.424   1.988   3.218 -0.4769  0.2575 -0.4263
 1260SOL    HW1 5038   1.408   2.054   3.151  0.4902 -0.3196 -1.2575
 1260SOL    HW2 5039   1.374   2.018   3.294 -1.4414  1.0223 -1.3367
 1260SOL     MW 5040   1.416   2.000   3.219 -0.4766  0.2815 -0.6492
 1261SOL     OW 5041   5.190   4.204   3.472  0.2400 -0.0600 -0.3080
 1261SOL    HW1 5042   5.226   4.152   3.401 -1.0803  0.4744 -1.4108
 1261SOL    HW2 5043   5.111   4.244   3.435 -0.0117  0.9134  1.1963
 1261SOL     MW 5044   5.184   4.202   3.459  0.0388  0.1330 -0.2566
 1262SOL     OW 5045   1.794   1.761   3.918  0.8423 -0.4388 -0.4617
 1262SOL    HW1 5046   1.863   1.763   3.985  0.4475  1.7365 -0.0363
 1262SOL    HW2 5047   1.729   1.701   3.953  2.8375 -3.2433 -1.2814
 1262SOL     MW 5048   1.795   1.754   3.931  1.0471 -0.5194 -0.5121
 1263SOL     OW 5049   1.457   5.141   3.492  0.1981  0.2738  0.4234
 1263SOL    HW1 5050   1.389   5.084   3.457  1.0145 -0.3296 -0.2372
 1263SOL    HW2 5051   1.539   5.093   3.477  0.7485  0.8206  1.5061
 1263SOL     MW 5052   1.459   5.128   3.486  0.3731  0.2666  0.4774
 1264SOL     OW 5053   1.396   0.156   2.216 -0.1342  0.5588  0.1537
 1264SOL    HW1 5054   1.303   0.136   2.208 -0.3057  1.6555 -0.8715
 1264SOL    HW2 5055   1.433   0.134   2.130  0.6282 -0.1406  0.6364
 1264SOL     MW 5056   1.389   0.151   2.204 -0.0586  0.6096  0.0842
 1265SOL     OW 5057   1.323   0.288   2.792 -0.1612  0.0225 -0.1799
 1265SOL    HW1 5058   1.248   0.241   2.828  1.2416 -0.9113  1.7451
 1265SOL    HW2 5059   1.287   0.343   2.723 -2.3385 -1.6212 -0.4494
 1265SOL     MW 5060   1.309   0.289   2.788 -0.2604 -0.3074  0.0320
 1266SOL     OW 5061   5.114   4.187   4.391 -0.4396  0.3420  0.2529
 1266SOL    HW1 5062   5.093   4.280   4.393 -1.8861  0.1045 -1.1985
 1266SOL    HW2 5063   5.210   4.184   4.386 -0.4184  1.8101 -1.0571
 1266SOL     MW 5064   5.124   4.198   4.390 -0.6221  0.4995 -0.1006
 1267SOL     OW 5065   4.515   1.429   2.997 -0.2511  0.4968  0.2314
 1267SOL    HW1 5066   4.468   1.508   3.024 -0.4856  0.7649 -0.8998
 1267SOL    HW2 5067   4.588   1.462   2.944 -0.3533 -0.0478 -0.2543
 1267SOL     MW 5068   4.519   1.443   2.993 -0.2942  0.4614  0.0244
 1268SOL     OW 5069   1.068   1.576   4.296  0.1351 -0.2252 -0.0047
 1268SOL    HW1 5070   1.073   1.553   4.203  0.6146  1.2694 -0.3627
 1268SOL    HW2 5071   1.009   1.509   4.333  0.0321 -0.9191 -1.3410
 1268SOL     MW 5072   1.061   1.564   4.289  0.1833 -0.1227 -0.2216
 1269SOL     OW 5073   3.531   0.286   5.297  0.3792  0.1291 -0.3928
 1269SOL    HW1 5074   3.586   0.363   5.309  0.5221  0.0291 -0.4117
 1269SOL    HW2 5075   3.563   0.223   5.360 -1.2564  0.8962  1.2869
 1269SOL     MW 5076   3.542   0.288   5.306  0.1881  0.2145 -0.1802
 1270SOL     OW 5077   1.680   4.790   1.078 -0.2370  0.2952 -0.4214
 1270SOL    HW1 5078   1.742   4.749   1.018  0.3126 -1.0863  1.0125
 1270SOL    HW2 5079   1.654   4.871   1.034 -0.6387 -1.1035 -2.9573
 1270SOL     MW 5080   1.684   4.795   1.065 -0.2181 -0.0607 -0.5625
 1271SOL     OW 5081   5.191   0.851   4.038 -0.5104  0.0559  0.0087
 1271SOL    HW1 5082   5.280   0.831   4.011 -0.8032  0.2410 -1.1704
 1271SOL    HW2 5083   5.150   0.888   3.959 -1.4194  0.6286  0.7267
 1271SOL     MW 5084   5.197   0.853   4.024 -0.6642  0.1529 -0.0503
 1272SOL     OW 5085   2.790   2.891   2.864  0.0536  0.0764 -0.2196
 1272SOL    HW1 5086   2.828   2.821   2.811  0.6775 -0.2270  0.6155
 1272SOL    HW2 5087   2.812   2.868   2.954 -1.4293  0.3173  0.2378
 1272SOL     MW 5088   2.798   2.879   2.868 -0.0564  0.0684 -0.0541
 1273SOL     OW 5089   4.447   0.794   4.466 -0.3198 -0.2032 -0.0667
 1273SOL    HW1 5090   4.535   0.800   4.503 -0.9660  0.6724  1.4114
 1273SOL    HW2 5091   4.394   0.755   4.536 -1.4787  1.0209 -0.2205
 1273SOL     MW 5092   4.451   0.790   4.479 -0.5508  0.0656  0.1028
 1274SOL     OW 5093   1.064   5.247   2.979 -0.3926 -0.3634  0.0965
 1274SOL    HW1 5094   1.020   5.288   3.054 -0.6071  0.9969 -0.7336
 1274SOL    HW2 5095   1.148   5.292   2.973 -0.8065  0.2889 -1.0872
 1274SOL     MW 5096   1.069   5.258   2.988 -0.4731 -0.1058 -0.1613
 1275SOL     OW 5097   1.329   0.743   4.202  0.4098  0.2586  0.2121
 1275SOL    HW1 5098   1.322   0.741   4.298 -0.4736  0.5585  0.1624
 1275SOL    HW2 5099   1.252   0.694   4.172  0.6870  0.1654 -0.3418
 1275SOL     MW 5100   1.318   0.736   4.211  0.3322  0.2851  0.1349
 1276SOL     OW 5101   1.800   1.636   4.429 -0.6436  0.0654 -0.4537
 1276SOL    HW1 5102   1.838   1.600   4.508  0.0924 -0.6562 -1.1219
 1276SOL    HW2 5103   1.870   1.634   4.364 -1.4979 -0.3228 -1.4166
 1276SOL     MW 5104   1.814   1.631   4.430 -0.6588 -0.0767 -0.6625
 1277SOL     OW 5105   5.026   3.310   4.693  0.2222  0.4200  0.4087
 1277SOL    HW1 5106   4.943   3.292   4.649  0.6323  1.3947 -0.8026
 1277SOL    HW2 5107   5.008   3.291   4.786 -0.3225 -2.8325 -0.2327
 1277SOL     MW 5108   5.013   3.305   4.700  0.2049  0.1284  0.1716
 1278SOL     OW 5109   5.102   3.802   4.261  0.5508 -0.3198 -0.1529
 1278SOL    HW1 5110   5.105   3.735   4.193  0.4944  0.9856 -1.4877
 1278SOL    HW2 5111   5.184   3.789   4.309  0.0594 -2.0014  0.3130
 1278SOL     MW 5112   5.113   3.791   4.258  0.4807 -0.3680 -0.2641
 1279SOL     OW 5113   4.354   3.530   2.375 -0.2414  0.2766  0.2531
 1279SOL    HW1 5114   4.397   3.608   2.338  0.1127  0.3050  0.7092
 1279SOL    HW2 5115   4.408   3.508   2.451  0.2213 -0.9936 -0.4202
 1279SOL     MW 5116   4.367   3.537   2.380 -0.1369  0.1176  0.2253
 1280SOL     OW 5117   4.775   2.580   0.500 -0.2630  0.6568 -0.0101
 1280SOL    HW1 5118   4.709   2.543   0.441 -0.3521 -0.4801  0.7647
 1280SOL    HW2 5119   4.809   2.656   0.454 -2.0818  1.2396 -0.4640
 1280SOL     MW 5120   4.771   2.585   0.487 -0.5072  0.5859  0.0309
 1281SOL     OW 5121   0.929   4.911   2.241 -1.3018 -0.6949 -0.0694
 1281SOL    HW1 5122   0.977   4.847   2.189 -2.9248 -1.1713 -1.0639
 1281SOL    HW2 5123   0.934   4.992   2.190 -0.0204 -0.2354  0.7431
 1281SOL     MW 5124   0.935   4.914   2.228 -1.3455 -0.6970 -0.0927
 1282SOL     OW 5125   4.173   4.482   0.914  0.3395  0.5513 -0.2297
 1282SOL    HW1 5126   4.252   4.520   0.874  0.2088 -0.7177 -1.7913
 1282SOL    HW2 5127   4.171   4.392   0.882 -1.1844  0.2369  0.6495
 1282SOL     MW 5128   4.183   4.476   0.905  0.1277  0.3486 -0.3170
 1283SOL     OW 5129   0.238   5.072   3.819 -0.1005 -0.1924  0.2307
 1283SOL    HW1 5130   0.210   5.039   3.733 -0.5098  0.5390  0.0822
 1283SOL    HW2 5131   0.328   5.040   3.828  0.3272  0.5956 -0.9366
 1283SOL     MW 5132   0.246   5.063   3.809 -0.0982  0.0021  0.0622
 1284SOL     OW 5133   1.374   4.669   1.759  0.2747 -0.5715  0.2938
 1284SOL    HW1 5134   1.318   4.726   1.706 -1.3495 -1.8190  0.6127
 1284SOL    HW2 5135   1.442   4.728   1.794 -0.3373  0.8149 -0.7690
 1284SOL     MW 5136   1.376   4.684   1.757 -0.0115 -0.5537  0.1986
 1285SOL     OW 5137   5.161   4.287   1.956  0.2583 -0.1586 -0.4995
 1285SOL    HW1 5138   5.247   4.263   1.922  1.4140  1.9884  0.6755
 1285SOL    HW2 5139   5.100   4.230   1.910  2.4165 -2.9956 -0.1183
 1285SOL     MW 5140   5.164   4.276   1.946  0.6825 -0.2469 -0.3003
 1286SOL     OW 5141   0.277   0.983   1.373  0.1442 -0.3731  0.2409
 1286SOL    HW1 5142   0.291   1.058   1.315 -0.3474 -0.3975  0.0911
 1286SOL    HW2 5143   0.202   0.937   1.336  0.4470 -0.9475  0.3290
 1286SOL     MW 5144   0.269   0.987   1.361  0.1200 -0.4498  0.2330
 1287SOL     OW 5145   5.294   5.331   0.710  0.3244  0.3350 -0.4186
 1287SOL    HW1 5146   5.347   5.276   0.653 -1.3044 -0.6609 -1.0345
 1287SOL    HW2 5147   5.334   5.322   0.797  0.7964 -0.8887 -0.7436
 1287SOL     MW 5148   5.306   5.323   0.714  0.1763  0.0509 -0.5391
 1288SOL     OW 5149   2.905   4.338   3.681  0.6329 -0.2619 -0.1773
 1288SOL    HW1 5150   2.974   4.387   3.635  1.0373 -1.4579 -0.8762
 1288SOL    HW2 5151   2.823   4.367   3.639  0.6995  1.0441  0.5504
 1288SOL     MW 5152   2.903   4.348   3.669  0.6932 -0.2478 -0.1736
 1289SOL     OW 5153   2.727   3.029   1.579 -0.1762 -0.4391  0.1786
 1289SOL    HW1 5154   2.661   3.055   1.644  0.4182 -0.7621  0.9269
 1289SOL    HW2 5155   2.796   2.988   1.631  0.1599 -1.0023 -0.7045
 1289SOL     MW 5156   2.727   3.027   1.594 -0.0571 -0.5525  0.1613
 1290SOL     OW 5157   3.406   3.917   1.993  0.1658 -0.0138 -0.0995
 1290SOL    HW1 5158   3.400   4.013   1.991  1.2076  0.1722  2.1229
 1290SOL    HW2 5159   3.491   3.897   1.955  1.6539  0.3325  2.7131
 1290SOL     MW 5160   3.416   3.927   1.988  0.4897  0.0544  0.5451
 1291SOL     OW 5161   3.764   5.276   5.325  0.1487 -0.2501 -0.2709
 1291SOL    HW1 5162   3.766   5.202   5.386 -0.9944  0.2013  0.3446
 1291SOL    HW2 5163   3.838   5.261   5.266  1.4446 -0.5600  1.3782
 1291SOL     MW 5164   3.773   5.264   5.325  0.1683 -0.2320  0.0190
 1292SOL     OW 5165   1.105   2.281   3.074  0.5074 -0.3496 -0.4345
 1292SOL    HW1 5166   1.048   2.254   3.002  0.0763  0.0733 -0.2604
 1292SOL    HW2 5167   1.109   2.205   3.131  1.8478 -1.1301 -1.4985
 1292SOL     MW 5168   1.098   2.268   3.072  0.6238 -0.3954 -0.5484
 1293SOL     OW 5169   2.566   2.972   0.629  0.1671  0.2553  0.0713
 1293SOL    HW1 5170   2.598   2.937   0.546  0.2971 -2.4611  1.1756
 1293SOL    HW2 5171   2.618   3.052   0.643  2.7941 -1.2096 -0.7037
 1293SOL     MW 5172   2.576   2.978   0.620  0.5201 -0.2799  0.1134
 1294SOL     OW 5173   3.556   3.096   2.617  0.0925 -0.1993  0.3521
 1294SOL    HW1 5174   3.517   3.096   2.704  1.5605  0.4505  1.0520
 1294SOL    HW2 5175   3.506   3.030   2.569  0.1685 -1.6500  2.1286
 1294SOL     MW 5176   3.545   3.087   2.622  0.2902 -0.3018  0.6691
 1295SOL     OW 5177   0.600   5.186   4.399 -0.1959  0.0802  0.5113
 1295SOL    HW1 5178   0.600   5.093   4.378  0.3518  0.2623 -0.3675
 1295SOL    HW2 5179   0.508   5.209   4.406 -0.4158 -0.1096 -1.3126
 1295SOL     MW 5180   0.588   5.177   4.397 -0.1540  0.0792  0.1653
 1296SOL     OW 5181   1.308   4.421   1.700  0.4271 -0.5680 -0.3020
 1296SOL    HW1 5182   1.348   4.508   1.703  1.5002 -0.9665 -1.9302
 1296SOL    HW2 5183   1.222   4.436   1.661  0.1822 -0.1193  0.3800
 1296SOL     MW 5184   1.302   4.434   1.695  0.5331 -0.5615 -0.4231
 1297SOL     OW 5185   2.776   2.142   1.570 -0.3743  0.6079  0.2924
 1297SOL    HW1 5186   2.829   2.137   1.649 -1.0944  1.1134  0.8202
 1297SOL    HW2 5187   2.840   2.138   1.498  0.2541 -0.2533  0.8772
 1297SOL     MW 5188   2.791   2.141   1.571 -0.3861  0.5624  0.4348
 1298SOL     OW 5189   3.941   2.618   3.960 -0.0498  0.0905 -0.3387
 1298SOL    HW1 5190   3.851   2.645   3.940 -0.4305 -0.8166  0.1156
 1298SOL    HW2 5191   3.992   2.646   3.883 -0.9713 -0.6765 -1.2564
 1298SOL     MW 5192   3.936   2.625   3.947 -0.2165 -0.1238 -0.3980
 1299SOL     OW 5193   4.842   1.385   1.988  0.1069  0.1903  0.4369
 1299SOL    HW1 5194   4.799   1.318   2.042  1.3599  0.4131  1.7786
 1299SOL    HW2 5195   4.778   1.406   1.920 -1.1935 -0.7394  1.3306
 1299SOL     MW 5196   4.828   1.379   1.986  0.1008  0.0998  0.7231
 1300SOL     OW 5197   5.143   3.292   0.356  0.0381  0.3927 -0.3416
 1300SOL    HW1 5198   5.219   3.246   0.391 -1.7771 -0.8288  2.3242
 1300SOL    HW2 5199   5.154   3.382   0.386  2.2197  1.2446 -3.2487
 1300SOL     MW 5200   5.154   3.298   0.365  0.0850  0.3454 -0.3724
 1301SOL     OW 5201   2.201   0.906   2.135  0.0134 -0.3430  0.5511
 1301SOL    HW1 5202   2.225   0.963   2.208 -0.1463  0.4338  0.0103
 1301SOL    HW2 5203   2.109   0.926   2.119  0.4872  0.7880 -0.9807
 1301SOL     MW 5204   2.192   0.916   2.142  0.0536 -0.0988  0.2858
 1302SOL     OW 5205   4.757   2.524   2.411  0.0768  0.3698  0.4836
 1302SOL    HW1 5206   4.751   2.437   2.451  2.1762  0.5363  1.3098
 1302SOL    HW2 5207   4.733   2.510   2.320 -0.2555 -0.9494  0.7491
 1302SOL     MW 5208   4.753   2.511   2.405  0.3031  0.2222  0.6234
 1303SOL     OW 5209   0.167   1.902   4.767  0.2032  0.4616  0.0149
 1303SOL    HW1 5210   0.121   1.905   4.851  0.2220  0.1834  0.0351
 1303SOL    HW2 5211   0.130   1.826   4.722  0.3180  0.5063 -0.1557
 1303SOL     MW 5212   0.156   1.893   4.772  0.2203  0.4317 -0.0044
 1304SOL     OW 5213   0.356   0.770   0.935  0.6425 -0.4981 -0.2100
 1304SOL    HW1 5214   0.372   0.702   0.870  0.4604 -0.4149 -0.3407
 1304SOL    HW2 5215   0.281   0.740   0.985  0.2894 -0.1862 -0.5508
 1304SOL     MW 5216   0.349   0.758   0.933  0.5740 -0.4475 -0.2703
 1305SOL     OW 5217   3.361   4.212   1.888  0.3645 -0.0209 -0.3999
 1305SOL    HW1 5218   3.334   4.303   1.875  2.2530  0.6381  0.0795
 1305SOL    HW2 5219   3.343   4.170   1.804  0.2700  1.0023 -0.9064
 1305SOL     MW 5220   3.355   4.219   1.876  0.5942  0.1944 -0.4034
 1306SOL     OW 5221   3.791   3.672   1.496 -0.3431  0.6652  0.2011
 1306SOL    HW1 5222   3.808   3.765   1.513  0.6934  0.8334 -1.4940
 1306SOL    HW2 5223   3.717   3.672   1.436 -0.1594  0.4110 -0.0260
 1306SOL     MW 5224   3.783   3.684   1.490 -0.1869  0.6542 -0.0450
 1307SOL     OW 5225   2.743   2.464   3.237 -0.3627  0.0002 -0.1143
 1307SOL    HW1 5226   2.700   2.481   3.153 -0.3236 -0.6151 -0.2673
 1307SOL    HW2 5227   2.835   2.482   3.220 -0.4179  0.3183 -0.0764
 1307SOL     MW 5228   2.749   2.468   3.224 -0.3647 -0.0379 -0.1291
 1308SOL     OW 5229   0.113   4.986   5.059 -0.2118 -0.2340 -0.3314
 1308SOL    HW1 5230   0.104   4.903   5.105  0.5085 -0.5540 -0.7512
 1308SOL    HW2 5231   0.180   5.034   5.108 -0.6630  0.1234 -0.0589
 1308SOL     MW 5232   0.121   4.982   5.071 -0.1773 -0.2292 -0.3502
 1309SOL     OW 5233   1.466   3.852   1.419  0.2272  0.4997  0.0055
 1309SOL    HW1 5234   1.559   3.862   1.397  0.1281  0.0688 -0.6309
 1309SOL    HW2 5235   1.423   3.838   1.335 -0.0310 -2.1976  0.5180
 1309SOL     MW 5236   1.472   3.852   1.405  0.1815  0.0993 -0.0103
 1310SOL     OW 5237   3.303   1.144   4.674  0.2757 -0.4871  0.0073
 1310SOL    HW1 5238   3.344   1.086   4.610  0.1866 -2.6576  1.7807
 1310SOL    HW2 5239   3.226   1.096   4.703 -0.2814  0.9217  0.9521
 1310SOL     MW 5240   3.299   1.130   4.669  0.1930 -0.5846  0.3552
 1311SOL     OW 5241   2.283   1.217   0.121  0.2097 -0.1458 -0.3041
 1311SOL    HW1 5242   2.213   1.158   0.150  0.8172 -0.7132  0.0373
 1311SOL    HW2 5243   2.266   1.299   0.168  0.4438 -0.6559  0.7047
 1311SOL     MW 5244   2.272   1.220   0.131  0.3175 -0.2837 -0.1313
 1312SOL     OW 5245   0.242   5.064   3.270  0.4959  0.0979 -0.5044
 1312SOL    HW1 5246   0.197   4.979   3.265  0.1933  0.2612 -0.5931
 1312SOL    HW2 5247   0.173   5.128   3.254  1.0108  0.3098 -2.0498
 1312SOL     MW 5248   0.227   5.061   3.267  0.5231  0.1459 -0.7136
 1313SOL     OW 5249   0.226   0.791   3.018  0.6889  0.1039  0.7974
 1313SOL    HW1 5250   0.174   0.780   2.939 -0.3809  1.9775  1.1986
 1313SOL    HW2 5251   0.316   0.799   2.986  0.2151  1.3691 -0.2879
 1313SOL     MW 5252   0.231   0.790   3.004  0.4913  0.5057  0.7099
 1314SOL     OW 5253   0.037   0.694   0.815  0.3013 -0.5072 -0.2029
 1314SOL    HW1 5254   0.081   0.750   0.751 -0.2014 -1.5134 -1.4822
 1314SOL    HW2 5255  -0.051   0.729   0.821  0.2542 -0.6012 -0.3256
 1314SOL     MW 5256   0.031   0.705   0.807  0.2309 -0.6480 -0.3824
 1315SOL     OW 5257   2.140   3.769   0.177  0.0684  0.1845 -0.1747
 1315SOL    HW1 5258   2.115   3.861   0.182 -1.4596 -0.2404  0.5126
 1315SOL    HW2 5259   2.235   3.771   0.165  0.0836  1.8328 -0.0685
 1315SOL     MW 5260   2.149   3.781   0.176 -0.1252  0.3411 -0.0731
 1316SOL     OW 5261   4.092   0.806   1.494  0.0929 -0.3283  0.6876
 1316SOL    HW1 5262   4.121   0.797   1.403  1.4181  0.5417  1.0131
 1316SOL    HW2 5263   4.034   0.731   1.507 -0.0884 -0.4929 -0.8594
 1316SOL     MW 5264   4.088   0.795   1.484  0.2393 -0.2380  0.5313
 1317SOL     OW 5265   1.133   1.486   2.938 -0.0020  0.0362  0.1545
 1317SOL    HW1 5266   1.087   1.538   2.872 -1.2942 -0.4815  0.6187
 1317SOL    HW2 5267   1.225   1.509   2.927 -0.3346  0.8866 -0.9967
 1317SOL     MW 5268   1.139   1.495   2.928 -0.2100  0.0788  0.0666
 1318SOL     OW 5269   4.866   4.534   2.029  0.2714 -0.2181  0.3870
 1318SOL    HW1 5270   4.869   4.455   2.083 -1.7210 -0.9158 -0.4565
 1318SOL    HW2 5271   4.794   4.519   1.968 -0.3849  2.3957  0.4053
 1318SOL     MW 5272   4.857   4.522   2.028 -0.0677  0.0272  0.2814
 1319SOL     OW 5273   2.685   5.305   0.367  0.2232 -0.0525 -0.1584
 1319SOL    HW1 5274   2.737   5.250   0.307  0.2774 -0.2450  0.0653
 1319SOL    HW2 5275   2.722   5.392   0.356 -0.3048  0.0763 -1.0197
 1319SOL     MW 5276   2.697   5.309   0.358  0.1626 -0.0606 -0.2400
 1320SOL     OW 5277   3.107   4.793   5.154 -0.4411 -1.0054  0.4280
 1320SOL    HW1 5278   3.196   4.822   5.174 -0.3679 -0.7592 -0.2300
 1320SOL    HW2 5279   3.056   4.816   5.232 -0.0297 -0.6856  0.6039
 1320SOL     MW 5280   3.112   4.800   5.166 -0.3790 -0.9329  0.3663
 1321SOL     OW 5281   5.374   0.980   4.906 -0.4066  0.3054 -0.3104
 1321SOL    HW1 5282   5.389   1.004   4.815  0.0768 -1.0739 -0.6249
 1321SOL    HW2 5283   5.444   0.917   4.925 -0.9117  0.0702  0.8015
 1321SOL     MW 5284   5.385   0.975   4.897 -0.4093  0.0988 -0.2083
 1322SOL     OW 5285   1.634   4.765   2.336  0.2430 -1.0742 -0.2302
 1322SOL    HW1 5286   1.684   4.713   2.400  0.9051  0.2565  0.3635
 1322SOL    HW2 5287   1.686   4.761   2.256  0.5006 -0.9915 -0.0675
 1322SOL     MW 5288   1.647   4.757   2.334  0.3608 -0.8933 -0.1334
 1323SOL     OW 5289   4.216   5.167   0.974  0.0598 -0.1427  0.3909
 1323SOL    HW1 5290   4.301   5.144   0.936 -0.2548 -0.6500 -0.0088
 1323SOL    HW2 5291   4.225   5.145   1.067 -0.0486 -1.3886  0.1242
 1323SOL     MW 5292   4.228   5.161   0.981  0.0057 -0.3671  0.3056
 1324SOL     OW 5293   5.031   1.262   2.776 -0.2030  0.5919  0.3717
 1324SOL    HW1 5294   5.012   1.201   2.847 -0.8965  0.1260 -0.1932
 1324SOL    HW2 5295   5.048   1.207   2.700  0.7879  1.0800  0.2307
 1324SOL     MW 5296   5.030   1.247   2.776 -0.1649  0.5948  0.2813
 1325SOL     OW 5297   0.079   2.506   3.727 -0.1113  0.3435  0.2094
 1325SOL    HW1 5298   0.154   2.461   3.687  0.5064  0.6517  1.0025
 1325SOL    HW2 5299   0.113   2.543   3.808 -0.9613  1.0717  0.2495
 1325SOL     MW 5300   0.093   2.505   3.732 -0.1410  0.4762  0.3161
 1326SOL     OW 5301   2.367   0.370   4.327 -0.3811 -0.4976 -0.7045
 1326SOL    HW1 5302   2.418   0.450   4.336 -0.5808 -0.3408 -0.9480
 1326SOL    HW2 5303   2.292   0.383   4.385 -0.2787 -0.6229 -0.5405
 1326SOL     MW 5304   2.364   0.382   4.336 -0.3935 -0.4935 -0.7147
 1327SOL     OW 5305   2.093   1.586   4.325 -0.3471 -0.1203 -0.3979
 1327SOL    HW1 5306   2.097   1.675   4.360  0.6224  0.0316 -0.8641
 1327SOL    HW2 5307   2.055   1.534   4.395  0.1401  0.4564  0.2985
 1327SOL     MW 5308   2.089   1.591   4.338 -0.1607 -0.0270 -0.3685
 1328SOL     OW 5309   2.996   2.331   1.852  0.3008  0.3092 -0.3351
 1328SOL    HW1 5310   3.005   2.375   1.768  0.2178  0.4151 -0.2883
 1328SOL    HW2 5311   3.020   2.397   1.916  0.0722  0.3171 -0.2586
 1328SOL     MW 5312   3.000   2.345   1.849  0.2609  0.3237 -0.3193
 1329SOL     OW 5313   0.726   1.118   0.545  0.0715  0.3993  0.1312
 1329SOL    HW1 5314   0.811   1.119   0.500 -0.0382  1.6015 -0.0799
 1329SOL    HW2 5315   0.718   1.206   0.582 -0.2361 -0.2933  1.7750
 1329SOL     MW 5316   0.736   1.129   0.544  0.0181  0.4645  0.3146
 1330SOL     OW 5317   4.977   4.767   0.539 -0.1850 -0.6864 -0.0467
 1330SOL    HW1 5318   5.015   4.853   0.521  1.7103 -1.0129  1.8853
 1330SOL    HW2 5319   4.883   4.780   0.536  0.0463  0.8423 -2.3010
 1330SOL     MW 5320   4.970   4.779   0.536  0.0872 -0.5325 -0.0880
 1331SOL     OW 5321   0.095   1.645   0.385  0.0547  0.3991  0.1424
 1331SOL    HW1 5322   0.168   1.648   0.446 -2.0119  1.7496  2.7971
 1331SOL    HW2 5323   0.042   1.722   0.407 -3.0585 -1.4140 -0.3349
 1331SOL     MW 5324   0.097   1.655   0.396 -0.6084  0.3399  0.4211
 1332SOL     OW 5325   0.815   3.015   0.921 -0.4534 -0.1820  0.1456
 1332SOL    HW1 5326   0.730   2.990   0.956 -1.2132  2.3085  0.2562
 1332SOL    HW2 5327   0.801   3.101   0.881  1.9298  0.1444 -0.1646
 1332SOL     MW 5328   0.802   3.023   0.920 -0.2456  0.1786  0.1201
 1333SOL     OW 5329   1.516   2.958   1.393  0.1425 -0.4927  0.3783
 1333SOL    HW1 5330   1.445   2.898   1.368  0.4832 -0.4835 -0.6508
 1333SOL    HW2 5331   1.586   2.940   1.330  0.5391  0.4570  0.5328
 1333SOL     MW 5332   1.516   2.948   1.382  0.2369 -0.3700  0.2663
 1334SOL     OW 5333   5.294   5.262   3.087 -0.0135 -0.3736 -0.2625
 1334SOL    HW1 5334   5.302   5.210   3.007  1.5246 -0.1173 -0.3061
 1334SOL    HW2 5335   5.372   5.241   3.138 -0.7105 -0.1483  0.9606
 1334SOL     MW 5336   5.305   5.253   3.084  0.0942 -0.3119 -0.1115
 1335SOL     OW 5337   4.406   0.968   1.226 -0.8090 -0.5654 -0.2395
 1335SOL    HW1 5338   4.336   1.031   1.243 -2.1511 -2.1176  0.2043
 1335SOL    HW2 5339   4.368   0.883   1.247  1.3735 -1.4294  0.4939
 1335SOL     MW 5340   4.392   0.965   1.231 -0.7014 -0.8747 -0.0888
 1336SOL     OW 5341   1.405   4.478   4.419  0.1972 -0.0217 -0.0796
 1336SOL    HW1 5342   1.479   4.428   4.454 -0.4621 -0.5921  0.5270
 1336SOL    HW2 5343   1.377   4.534   4.491  2.1756  2.8275 -1.3036
 1336SOL     MW 5344   1.411   4.479   4.433  0.3660  0.2700 -0.1587
 1337SOL     OW 5345   4.806   4.062   1.515 -0.1492  0.7005 -0.2589
 1337SOL    HW1 5346   4.861   4.052   1.437 -0.0929  0.1147 -0.1463
 1337SOL    HW2 5347   4.724   4.100   1.482 -0.8019 -1.1600 -0.8909
 1337SOL     MW 5348   4.803   4.066   1.501 -0.2255  0.3874 -0.3254
 1338SOL     OW 5349   3.216   2.774   4.850 -0.5371  0.0442 -0.2036
 1338SOL    HW1 5350   3.235   2.789   4.757 -0.3875  0.4356 -0.1115
 1338SOL    HW2 5351   3.134   2.725   4.850 -0.9803  0.7662 -0.5185
 1338SOL     MW 5352   3.208   2.770   4.838 -0.5746  0.1867 -0.2321
 1339SOL     OW 5353   0.027   1.377   3.294  0.0769  0.0201  0.1811
 1339SOL    HW1 5354   0.120   1.370   3.317 -0.0287  0.0336  0.6304
 1339SOL    HW2 5355   0.027   1.409   3.204  0.5420 -1.7542 -0.4932
 1339SOL     MW 5356   0.039   1.380   3.285  0.1230 -0.2053  0.1523
 1340SOL     OW 5357   4.297   3.191   1.333  0.2339  0.0355 -0.2620
 1340SOL    HW1 5358   4.375   3.219   1.285  1.2601 -1.0045  0.7189
 1340SOL    HW2 5359   4.331   3.163   1.419 -0.8843 -2.4724 -0.5452
 1340SOL     MW 5360   4.311   3.191   1.338  0.2221 -0.4187 -0.1727
 1341SOL     OW 5361   1.643   4.148   4.275  0.1595 -0.6820  0.0175
 1341SOL    HW1 5362   1.715   4.208   4.289 -0.0163 -0.4122 -0.2203
 1341SOL    HW2 5363   1.590   4.190   4.207  0.3292 -1.3682 -0.5452
 1341SOL     MW 5364   1.645   4.161   4.268  0.1587 -0.7353 -0.0850
 1342SOL     OW 5365   0.049   2.923   2.546 -0.5287  0.2605 -0.0602
 1342SOL    HW1 5366  -0.025   2.934   2.487 -1.9612 -0.9715  1.4219
 1342SOL    HW2 5367   0.089   2.840   2.519 -0.7299  0.0687  0.2334
 1342SOL     MW 5368   0.045   2.914   2.535 -0.7378  0.0782  0.1671
 1343SOL     OW 5369   5.013   1.671   4.330 -0.3062  0.1179  0.3226
 1343SOL    HW1 5370   5.099   1.710   4.317 -0.3206 -0.1065 -0.5096
 1343SOL    HW2 5371   4.956   1.745   4.352  0.2627  0.1528  1.8198
 1343SOL     MW 5372   5.016   1.686   4.331 -0.2352  0.0937  0.4077
 1344SOL     OW 5373   3.443   3.990   0.136 -0.3699 -0.1412  0.2315
 1344SOL    HW1 5374   3.375   4.005   0.202  1.6256  1.6692  2.0528
 1344SOL    HW2 5375   3.454   3.895   0.133 -0.5466 -0.2984  2.5720
 1344SOL     MW 5376   3.436   3.980   0.144 -0.1371  0.0704  0.7643
 1345SOL     OW 5377   2.741   0.099   3.783 -0.3016 -0.4656 -0.0736
 1345SOL    HW1 5378   2.794   0.137   3.853 -1.5922  1.0352  0.1497
 1345SOL    HW2 5379   2.684   0.036   3.827 -0.4043 -0.2621  0.0908
 1345SOL     MW 5380   2.740   0.096   3.798 -0.4800 -0.2474 -0.0240
 1346SOL     OW 5381   5.004   0.039   1.596  0.2850  0.2575  0.4258
 1346SOL    HW1 5382   4.987   0.069   1.685 -1.1271  0.4242  0.1126
 1346SOL    HW2 5383   5.084  -0.014   1.603 -0.2746 -0.4078  1.9225
 1346SOL     MW 5384   5.012   0.036   1.608  0.0326  0.1937  0.5773
 1347SOL     OW 5385   1.706   2.623   2.067  0.4716  0.4018  0.1078
 1347SOL    HW1 5386   1.770   2.592   2.004  2.4047  0.3838  1.9758
 1347SOL    HW2 5387   1.686   2.713   2.039  1.7013  0.5840 -0.2448
 1347SOL     MW 5388   1.711   2.631   2.055  0.8765  0.4228  0.3018
 1348SOL     OW 5389   0.246   3.595   4.670 -0.3251  0.6799  0.0370
 1348SOL    HW1 5390   0.185   3.647   4.617 -0.6552  1.0411  0.7655
 1348SOL    HW2 5391   0.243   3.508   4.630  1.1909  1.4686 -1.9974
 1348SOL     MW 5392   0.238   3.590   4.658 -0.1733  0.8271 -0.1302
 1349SOL     OW 5393   1.202   1.818   4.154 -0.4688 -0.2294  0.1604
 1349SOL    HW1 5394   1.271   1.756   4.179 -0.6088  0.2085  1.7698
 1349SOL    HW2 5395   1.204   1.819   4.059 -0.1716 -2.3754  0.1011
 1349SOL     MW 5396   1.211   1.810   4.145 -0.4486 -0.4480  0.3588
 1350SOL     OW 5397   5.272   1.726   3.000  0.3086  0.3454  0.7285
 1350SOL    HW1 5398   5.255   1.777   2.920 -1.6876  1.6224  1.8642
 1350SOL    HW2 5399   5.230   1.641   2.983  0.2619  0.4577  0.2596
 1350SOL     MW 5400   5.264   1.722   2.988  0.0471  0.5232  0.8138
 1351SOL     OW 5401   3.429   3.883   3.665  0.2629  0.6328  0.1787
 1351SOL    HW1 5402   3.514   3.872   3.622  0.6410  2.4073  0.3828
 1351SOL    HW2 5403   3.444   3.952   3.729 -1.5167  1.5712 -0.3525
 1351SOL     MW 5404   3.442   3.890   3.667  0.0835  0.9801  0.1368
 1352SOL     OW 5405   5.044   3.514   5.455  0.3169  0.1207 -0.5162
 1352SOL    HW1 5406   5.036   3.570   5.377 -0.1148  0.0958 -0.4891
 1352SOL    HW2 5407   5.020   3.571   5.528 -0.3375 -0.1570 -0.5105
 1352SOL     MW 5408   5.040   3.529   5.454  0.1778  0.0819 -0.5120
 1353SOL     OW 5409   5.064   1.079   5.082 -0.0941  0.2308  0.3641
 1353SOL    HW1 5410   5.075   1.020   5.007  1.1844 -0.4558  1.0573
 1353SOL    HW2 5411   5.118   1.155   5.060  0.6074 -0.1476  0.7540
 1353SOL     MW 5412   5.072   1.081   5.069  0.1593  0.0944  0.5028
 1354SOL     OW 5413   0.969   3.665   0.722  0.3289 -0.1357  0.6273
 1354SOL    HW1 5414   0.991   3.678   0.629  0.1098  0.1549  0.6135
 1354SOL    HW2 5415   0.876   3.684   0.727  0.1827 -0.8721  0.7779
 1354SOL     MW 5416   0.960   3.669   0.711  0.2821 -0.1927  0.6448
 1355SOL     OW 5417   3.926   2.227   4.021 -0.1151  0.1958  0.4924
 1355SOL    HW1 5418   3.909   2.245   4.113 -0.0757 -2.3758  1.0907
 1355SOL    HW2 5419   3.840   2.204   3.985  0.1781 -0.8141  0.4193
 1355SOL     MW 5420   3.913   2.226   4.028 -0.0725 -0.2627  0.5596
 1356SOL     OW 5421   3.125   2.783   1.427 -0.0518  0.0028 -0.0586
 1356SOL    HW1 5422   3.170   2.708   1.466  0.0556  0.6458  1.0903
 1356SOL    HW2 5423   3.032   2.764   1.438 -0.0404 -0.2685 -0.3916
 1356SOL     MW 5424   3.119   2.771   1.433 -0.0366  0.0504  0.0458
 1357SOL     OW 5425   2.160   2.811   1.603  0.8499  0.1331  0.4535
 1357SOL    HW1 5426   2.166   2.897   1.561  0.1093  0.3892  0.8601
 1357SOL    HW2 5427   2.180   2.749   1.532  0.7305  0.6028 -0.0019
 1357SOL     MW 5428   2.164   2.814   1.588  0.7398  0.2260  0.4472
 1358SOL     OW 5429   5.106   4.052   2.720 -0.7112  0.1496 -0.4531
 1358SOL    HW1 5430   5.034   4.100   2.762 -0.0533 -0.5290  1.5707
 1358SOL    HW2 5431   5.156   4.119   2.674 -1.9449  0.8054 -0.8853
 1358SOL     MW 5432   5.103   4.067   2.719 -0.7849  0.1467 -0.2494
 1359SOL     OW 5433   2.053   0.626   1.284  0.1055  0.4043 -0.2049
 1359SOL    HW1 5434   2.037   0.600   1.374 -1.0783  1.6878  0.0013
 1359SOL    HW2 5435   2.073   0.545   1.238  2.1538 -0.1088  1.4583
 1359SOL     MW 5436   2.053   0.612   1.289  0.2162  0.5029  0.0344
 1360SOL     OW 5437   0.280   1.823   3.806 -0.4780 -0.5268  0.3784
 1360SOL    HW1 5438   0.189   1.845   3.824 -1.2766 -4.4384  2.2565
 1360SOL    HW2 5439   0.285   1.822   3.710 -0.9997  4.0601  0.0952
 1360SOL     MW 5440   0.269   1.826   3.796 -0.6470 -0.4403  0.5826
 1361SOL     OW 5441   1.279   2.428   1.775  0.6913  0.2118 -0.1102
 1361SOL    HW1 5442   1.295   2.478   1.855  2.6646  0.3524 -0.5272
 1361SOL    HW2 5443   1.276   2.337   1.804 -2.1560  0.4226  0.5483
 1361SOL     MW 5444   1.281   2.423   1.789  0.5794  0.2568 -0.0793
 1362SOL     OW 5445   2.226   5.073   5.131 -0.2210 -0.1245  0.3521
 1362SOL    HW1 5446   2.277   4.997   5.101  0.9337  0.1153  1.5919
 1362SOL    HW2 5447   2.148   5.035   5.172  0.1448 -0.6334  0.5921
 1362SOL     MW 5448   2.223   5.058   5.132 -0.0263 -0.1589  0.5415
 1363SOL     OW 5449   4.717   4.433   0.068  0.4472 -0.0899 -1.1252
 1363SOL    HW1 5450   4.770   4.508   0.095  0.8739 -1.1225  1.1997
 1363SOL    HW2 5451   4.626   4.462   0.079  0.5331 -0.7904  3.0976
 1363SOL     MW 5452   4.712   4.446   0.073  0.5128 -0.3118 -0.2870
 1364SOL     OW 5453   0.449   5.333   2.617  0.0083 -0.0144 -0.0691
 1364SOL    HW1 5454   0.493   5.277   2.553  0.7030  1.0789 -0.5748
 1364SOL    HW2 5455   0.520   5.374   2.666 -0.5041 -0.0398  0.7206
 1364SOL     MW 5456   0.464   5.331   2.615  0.0316  0.1223 -0.0327
 1365SOL     OW 5457   0.624   1.343   3.486 -0.1353 -0.3589 -0.3614
 1365SOL    HW1 5458   0.562   1.272   3.473 -0.9152  0.3783 -0.7200
 1365SOL    HW2 5459   0.570   1.420   3.503  0.6429  0.4036 -1.2170
 1365SOL     MW 5460   0.609   1.344   3.486 -0.1355 -0.1669 -0.5169
 1366SOL     OW 5461   2.792   4.695   3.687 -0.3601  0.0251 -0.3836
 1366SOL    HW1 5462   2.740   4.776   3.683  0.8057  0.7513 -1.5089
 1366SOL    HW2 5463   2.808   4.681   3.780 -0.2896  1.3040 -0.1895
 1366SOL     MW 5464   2.787   4.704   3.698 -0.2019  0.2818 -0.5028
 1367SOL     OW 5465   4.578   1.781   4.705  0.4740 -0.1221 -0.8413
 1367SOL    HW1 5466   4.579   1.725   4.628  0.7418  1.9354 -2.4114
 1367SOL    HW2 5467   4.492   1.822   4.704  0.0919 -0.8064  0.5726
 1367SOL     MW 5468   4.567   1.779   4.695  0.4594  0.0537 -0.8613
 1368SOL     OW 5469   1.490   2.746   0.519  0.0687 -0.3743  0.1703
 1368SOL    HW1 5470   1.456   2.822   0.472 -2.1348 -1.3924 -0.0056
 1368SOL    HW2 5471   1.480   2.769   0.612 -3.6213 -1.5527  0.1987
 1368SOL     MW 5472   1.485   2.759   0.525 -0.6858 -0.6555  0.1514
 1369SOL     OW 5473   1.089   4.652   3.394 -0.2026 -0.1916  0.2613
 1369SOL    HW1 5474   1.127   4.630   3.309  0.2353 -0.6547  0.5687
 1369SOL    HW2 5475   1.163   4.655   3.454 -0.6331 -1.1122  0.8747
 1369SOL     MW 5476   1.103   4.649   3.391 -0.2017 -0.3688  0.3792
 1370SOL     OW 5477   4.890   0.533   2.377 -0.2392 -0.3669  0.4227
 1370SOL    HW1 5478   4.884   0.465   2.445  0.4677 -1.3801 -0.4827
 1370SOL    HW2 5479   4.886   0.484   2.295 -0.6673  0.7992 -0.2735
 1370SOL     MW 5480   4.889   0.518   2.375 -0.2035 -0.3474  0.2177
 1371SOL     OW 5481   4.971   1.569   5.121 -0.2605 -0.6000  0.3575
 1371SOL    HW1 5482   4.921   1.583   5.040 -0.8239 -1.9929  0.4408
 1371SOL    HW2 5483   5.004   1.656   5.143 -0.6359 -0.0717 -1.0130
 1371SOL     MW 5484   4.969   1.582   5.113 -0.3807 -0.7107  0.1927
 1372SOL     OW 5485   2.992   0.402   5.330  0.4935 -0.2895 -0.1646
 1372SOL    HW1 5486   2.984   0.431   5.421  0.6187 -0.5481 -0.0687
 1372SOL    HW2 5487   3.001   0.307   5.337  1.2889 -0.2327 -0.4082
 1372SOL     MW 5488   2.992   0.393   5.343  0.6113 -0.3154 -0.1835
 1373SOL     OW 5489   0.731   4.767   0.789  0.4332  0.1195  0.1153
 1373SOL    HW1 5490   0.741   4.857   0.820 -3.1943  0.6316  0.2289
 1373SOL    HW2 5491   0.733   4.714   0.868  2.4259  0.0219  0.0611
 1373SOL     MW 5492   0.733   4.772   0.803  0.2239  0.1725  0.1229
 1374SOL     OW 5493   2.868   1.266   2.350  0.0483  0.3309 -0.3218
 1374SOL    HW1 5494   2.933   1.219   2.297 -0.1090  0.8991 -1.0250
 1374SOL    HW2 5495   2.829   1.198   2.405 -2.0872 -0.9830 -3.1811
 1374SOL     MW 5496   2.871   1.251   2.350 -0.2452  0.2354 -0.7779
 1375SOL     OW 5497   2.601   2.339   2.556  0.1171 -0.1132  0.6138
 1375SOL    HW1 5498   2.607   2.351   2.461  0.3532 -0.0888  0.6318
 1375SOL    HW2 5499   2.507   2.326   2.572 -0.3692  2.7911  0.7367
 1375SOL     MW 5500   2.589   2.339   2.546  0.0851  0.2617  0.6319
 1376SOL     OW 5501   4.509   2.070   3.943  0.2781 -0.2732  0.9234
 1376SOL    HW1 5502   4.509   2.102   4.033 -0.4026  0.9059  0.5305
 1376SOL    HW2 5503   4.452   2.131   3.896 -0.5286 -1.6858 -0.0168
 1376SOL     MW 5504   4.501   2.082   3.949  0.0877 -0.3031  0.7527
 1377SOL     OW 5505   3.851   1.348   3.353  0.2647 -0.3143  0.1654
 1377SOL    HW1 5506   3.771   1.359   3.301  0.4592  1.7870  0.2088
 1377SOL    HW2 5507   3.822   1.349   3.444  0.3987  1.6489  0.2217
 1377SOL     MW 5508   3.837   1.350   3.358  0.3067  0.2060  0.1782
 1378SOL     OW 5509   4.391   1.457   0.619  0.1682 -0.0630 -0.0589
 1378SOL    HW1 5510   4.401   1.374   0.667 -0.8934 -0.9652 -1.3434
 1378SOL    HW2 5511   4.367   1.431   0.530 -1.3057  1.6444 -0.2176
 1378SOL     MW 5512   4.389   1.443   0.614 -0.1564  0.0400 -0.2436
 1379SOL     OW 5513   2.749   2.932   0.414  0.1420 -0.0408 -0.3407
 1379SOL    HW1 5514   2.823   2.880   0.386  0.0315 -1.3188  1.5676
 1379SOL    HW2 5515   2.785   3.019   0.433  0.9552 -0.3598 -0.4338
 1379SOL     MW 5516   2.763   2.936   0.413  0.2320 -0.2453 -0.1083
 1380SOL     OW 5517   1.059   1.479   1.635  0.0221 -0.2157  0.2348
 1380SOL    HW1 5518   1.037   1.564   1.672 -0.4328 -0.1575 -0.1607
 1380SOL    HW2 5519   1.147   1.460   1.668 -0.4353 -0.2503  1.4766
 1380SOL     MW 5520   1.067   1.487   1.644 -0.0947 -0.2126  0.3432
 1381SOL     OW 5521   3.053   3.368   3.042 -0.0282  0.2775 -0.1523
 1381SOL    HW1 5522   3.068   3.297   2.980 -0.5520 -0.5254  0.6097
 1381SOL    HW2 5523   3.134   3.373   3.093  0.6813  1.4285 -1.3527
 1381SOL     MW 5524   3.065   3.359   3.041 -0.0044  0.3221 -0.2085
 1382SOL     OW 5525   3.670   1.760   3.337  0.0386  0.5631 -0.3653
 1382SOL    HW1 5526   3.646   1.772   3.429 -2.0500 -2.2863 -0.4096
 1382SOL    HW2 5527   3.760   1.730   3.339 -0.3023 -0.4387  0.8551
 1382SOL     MW 5528   3.678   1.758   3.349 -0.2724  0.0701 -0.2148
 1383SOL     OW 5529   3.327   4.498   0.523 -0.4340  0.2430 -0.5400
 1383SOL    HW1 5530   3.406   4.500   0.576 -0.5953 -0.2649 -0.2738
 1383SOL    HW2 5531   3.255   4.503   0.586 -0.6218  0.6910 -0.7776
 1383SOL     MW 5532   3.328   4.499   0.538 -0.4787  0.2353 -0.5363
 1384SOL     OW 5533   0.287   1.511   3.061  0.0126  0.3959  0.2572
 1384SOL    HW1 5534   0.378   1.521   3.089 -0.3428 -1.2493  2.2252
 1384SOL    HW2 5535   0.292   1.472   2.974  1.1469  2.1691 -0.5288
 1384SOL     MW 5536   0.299   1.508   3.053  0.1123  0.4123  0.4085
 1385SOL     OW 5537   0.842   2.182   4.780  0.5180  0.1740 -0.6385
 1385SOL    HW1 5538   0.912   2.125   4.813  0.1908 -0.5403 -1.1602
 1385SOL    HW2 5539   0.838   2.254   4.844  2.2622  0.6676 -1.0325
 1385SOL     MW 5540   0.850   2.184   4.793  0.6994  0.1458 -0.7557
 1386SOL     OW 5541   2.938   4.899   1.906 -0.3879 -0.1604  0.4377
 1386SOL    HW1 5542   2.853   4.918   1.946 -0.4230 -2.5571  1.7311
 1386SOL    HW2 5543   2.917   4.854   1.824 -0.5122 -2.2864  1.5415
 1386SOL     MW 5544   2.924   4.895   1.901 -0.4083 -0.7393  0.7446
 1387SOL     OW 5545   4.505   0.099   5.252 -0.7111 -0.1585 -0.0573
 1387SOL    HW1 5546   4.539   0.182   5.218  1.7039 -0.7649  0.6768
 1387SOL    HW2 5547   4.525   0.036   5.183  0.1172 -0.5926  0.5514
 1387SOL     MW 5548   4.512   0.101   5.239 -0.2959 -0.2917  0.1146
 1388SOL     OW 5549   2.397   1.217   4.130 -0.0327  0.2555  0.0428
 1388SOL    HW1 5550   2.386   1.302   4.172 -3.1352  0.0498 -0.1593
 1388SOL    HW2 5551   2.438   1.237   4.045  2.5306  1.0663  1.3585
 1388SOL     MW 5552   2.401   1.230   4.124 -0.1017  0.3330  0.1854
 1389SOL     OW 5553   3.850   2.539   1.149 -0.0283 -0.1043  0.1017
 1389SOL    HW1 5554   3.826   2.627   1.119 -0.3048 -0.5590 -1.0524
 1389SOL    HW2 5555   3.825   2.538   1.242 -1.4377  0.5449 -0.2453
 1389SOL     MW 5556   3.843   2.550   1.157 -0.2441 -0.0794 -0.0905
 1390SOL     OW 5557   1.546   0.063   1.961 -0.2333  0.0850  0.2916
 1390SOL    HW1 5558   1.635   0.095   1.942 -0.3875  0.8747  0.8858
 1390SOL    HW2 5559   1.490   0.112   1.900 -0.4687  0.9723  1.2035
 1390SOL     MW 5560   1.550   0.073   1.950 -0.2832  0.2996  0.4844
 1391SOL     OW 5561   1.789   2.136   3.682 -0.4266 -0.3233 -0.0847
 1391SOL    HW1 5562   1.821   2.124   3.593  0.3584 -0.5342  0.2143
 1391SOL    HW2 5563   1.731   2.212   3.677  0.1089  0.0559 -0.6471
 1391SOL     MW 5564   1.785   2.144   3.670 -0.2576 -0.3018 -0.1184
 1392SOL     OW 5565   3.163   0.245   5.100  0.1818  0.0369  0.2662
 1392SOL    HW1 5566   3.170   0.328   5.053 -0.6552 -0.1230 -0.1639
 1392SOL    HW2 5567   3.205   0.262   5.185  1.7456  0.3083 -0.5304
 1392SOL     MW 5568   3.169   0.258   5.105  0.2749  0.0512  0.1092
 1393SOL     OW 5569   4.159   1.602   2.769 -0.0671  0.1903 -0.2481
 1393SOL    HW1 5570   4.186   1.534   2.707  1.1072 -0.8593  1.3206
 1393SOL    HW2 5571   4.170   1.684   2.721 -0.4826 -0.6445 -1.8378
 1393SOL     MW 5572   4.164   1.604   2.755  0.0300 -0.0509 -0.2508
 1394SOL     OW 5573   0.257   5.296   0.976 -0.2008  0.0924 -0.1473
 1394SOL    HW1 5574   0.333   5.313   1.033  1.3512 -1.5715 -1.5720
 1394SOL    HW2 5575   0.183   5.333   1.023  1.1809 -0.1086  2.3675
 1394SOL     MW 5576   0.258   5.303   0.990  0.1748 -0.1463 -0.0077
 1395SOL     OW 5577   4.380   3.762   3.620  0.1399 -0.0659  0.4140
 1395SOL    HW1 5578   4.457   3.794   3.668  1.3803 -1.0999 -0.7937
 1395SOL    HW2 5579   4.399   3.669   3.605 -1.7648 -0.5525  0.8316
 1395SOL     MW 5580   4.392   3.754   3.624  0.0548 -0.2605  0.3129
 1396SOL     OW 5581   3.578   4.763   3.624  0.1819 -0.3651 -0.3772
 1396SOL    HW1 5582   3.494   4.739   3.586  0.9449 -2.6996 -0.7594
 1396SOL    HW2 5583   3.630   4.795   3.550 -0.3631  1.1825 -0.1222
 1396SOL     MW 5584   3.574   4.764   3.610  0.2098 -0.4658 -0.3935
 1397SOL     OW 5585   1.641   4.790   0.368  0.7299 -0.0890  0.2495
 1397SOL    HW1 5586   1.675   4.768   0.281  1.3560  0.6916  0.2897
 1397SOL    HW2 5587   1.552   4.754   0.368  0.6918 -0.0393 -0.7355
 1397SOL     MW 5588   1.634   4.782   0.357  0.8051  0.0173  0.1285
 1398SOL     OW 5589   1.252   3.162   0.047  0.6092  0.3267  0.8672
 1398SOL    HW1 5590   1.202   3.161   0.129 -0.8664 -0.3002  0.0026
 1398SOL    HW2 5591   1.287   3.251   0.041  0.0554  0.6180  1.7758
 1398SOL     MW 5592   1.250   3.173   0.057  0.3494  0.2838  0.8728
 1399SOL     OW 5593   2.940   0.545   4.970  0.4253 -0.5810  0.1621
 1399SOL    HW1 5594   2.862   0.494   4.948 -0.6110  0.2978  1.6459
 1399SOL    HW2 5595   2.915   0.636   4.956  1.4375 -0.3240 -0.0656
 1399SOL     MW 5596   2.927   0.550   4.966  0.4222 -0.4356  0.3229
 1400SOL     OW 5597   1.054   4.221   4.100  0.3983 -0.4139 -0.3897
 1400SOL    HW1 5598   1.077   4.176   4.182  1.7702  0.4622 -0.2627
 1400SOL    HW2 5599   1.097   4.306   4.107 -1.8166  0.7985 -0.7974
 1400SOL     MW 5600   1.063   4.226   4.111  0.2904 -0.1466 -0.4256
 1401SOL     OW 5601   4.556   1.294   1.895 -0.4439 -0.1731  0.3933
 1401SOL    HW1 5602   4.552   1.226   1.962 -0.5274  0.5016  1.0900
 1401SOL    HW2 5603   4.540   1.248   1.813 -1.1758 -0.8957  0.9224
 1401SOL     MW 5604   4.553   1.280   1.893 -0.5483 -0.1792  0.5502
 1402SOL     OW 5605   1.930   3.706   0.626  0.0506  0.5966  1.0044
 1402SOL    HW1 5606   1.870   3.638   0.656  1.4172 -0.8393  0.5920
 1402SOL    HW2 5607   1.924   3.704   0.531  0.9836  0.2151  0.9480
 1402SOL     MW 5608   1.922   3.697   0.618  0.3449  0.3639  0.9444
 1403SOL     OW 5609   3.565   5.487   5.378  0.4023 -0.4333  0.4287
 1403SOL    HW1 5610   3.658   5.474   5.362  0.5218  1.2279 -0.4593
 1403SOL    HW2 5611   3.524   5.406   5.348  1.3469 -0.2766 -1.4307
 1403SOL     MW 5612   3.572   5.475   5.372  0.5385 -0.2006  0.0770
 1404SOL     OW 5613   3.039   4.799   3.319  0.2557  0.0055  0.1777
 1404SOL    HW1 5614   3.008   4.876   3.271  0.7305  0.5022  0.6684
 1404SOL    HW2 5615   3.121   4.826   3.359 -0.5230 -0.1357  1.9465
 1404SOL     MW 5616   3.045   4.812   3.318  0.2168  0.0510  0.4669
 1405SOL     OW 5617   2.713   0.031   2.031  0.4504  0.0570 -0.3088
 1405SOL    HW1 5618   2.738   0.084   1.955  0.5173 -0.1353 -0.4224
 1405SOL    HW2 5619   2.796  -0.005   2.063  0.2858 -0.9243 -0.9394
 1405SOL     MW 5620   2.727   0.033   2.025  0.4379 -0.0933 -0.4041
 1406SOL     OW 5621   4.557   4.019   2.969 -0.0271  0.5364  0.2544
 1406SOL    HW1 5622   4.516   4.033   3.054 -1.5738  2.1293 -0.6859
 1406SOL    HW2 5623   4.502   3.953   2.926 -0.2632  0.9937 -0.1523
 1406SOL     MW 5624   4.545   4.012   2.974 -0.2553  0.7988  0.0819
 1407SOL     OW 5625   3.051   0.133   1.983 -0.2350  0.3120 -0.2566
 1407SOL    HW1 5626   2.982   0.185   1.943 -1.0529 -0.9053 -0.4894
 1407SOL    HW2 5627   3.099   0.194   2.040 -1.9547  1.0226  0.4802
 1407SOL     MW 5628   3.049   0.147   1.985 -0.5599  0.2471 -0.1921
 1408SOL     OW 5629   3.736   2.045   3.625 -0.3027 -0.0594 -0.4981
 1408SOL    HW1 5630   3.714   1.953   3.638  0.5377 -0.0313  1.3664
 1408SOL    HW2 5631   3.803   2.043   3.556  0.5269 -0.9873  0.2853
 1408SOL     MW 5632   3.742   2.033   3.618 -0.0889 -0.1746 -0.1592
 1409SOL     OW 5633   5.275   1.044   2.359  0.0014  0.2402  0.5376
 1409SOL    HW1 5634   5.257   1.096   2.280  0.2996  0.9023  0.8966
 1409SOL    HW2 5635   5.370   1.032   2.357 -0.0406 -0.1152  0.5749
 1409SOL     MW 5636   5.285   1.049   2.348  0.0342  0.2795  0.5883
 1410SOL     OW 5637   4.955   0.735   4.511  0.4618 -0.0028  0.4267
 1410SOL    HW1 5638   4.987   0.688   4.434  0.1698 -0.1475  0.3932
 1410SOL    HW2 5639   5.011   0.704   4.582  0.2314 -0.4498  0.4179
 1410SOL     MW 5640   4.967   0.725   4.510  0.3949 -0.0785  0.4213
 1411SOL     OW 5641   4.227   4.510   5.128  0.6967 -0.3179  0.4779
 1411SOL    HW1 5642   4.282   4.432   5.123 -1.7075 -2.0807 -0.1062
 1411SOL    HW2 5643   4.194   4.522   5.038 -1.2284 -0.4231  1.1219
 1411SOL     MW 5644   4.230   4.502   5.116  0.1425 -0.5570  0.4856
 1412SOL     OW 5645   0.752   2.075   4.064  0.2949  0.4282 -0.1298
 1412SOL    HW1 5646   0.764   2.113   3.977 -0.6402  2.4000  0.5591
 1412SOL    HW2 5647   0.669   2.028   4.058 -1.1541  2.8015  0.3806
 1412SOL     MW 5648   0.743   2.074   4.052 -0.0103  0.9845  0.0237
 1413SOL     OW 5649   4.867   3.985   3.877 -0.3286 -1.0567 -0.1905
 1413SOL    HW1 5650   4.938   4.038   3.842 -1.9579 -0.4661 -2.9316
 1413SOL    HW2 5651   4.830   4.038   3.948  0.8383 -0.5804  0.0705
 1413SOL     MW 5652   4.871   3.999   3.882 -0.3878 -0.9201 -0.5080
 1414SOL     OW 5653   5.071   4.632   4.785  0.4145  0.0889 -0.7396
 1414SOL    HW1 5654   5.014   4.556   4.787 -1.5120  1.4754 -0.4782
 1414SOL    HW2 5655   5.139   4.609   4.722  2.1293 -3.2912  1.9893
 1414SOL     MW 5656   5.073   4.619   4.777  0.3874 -0.1663 -0.3568
 1415SOL     OW 5657   4.690   4.955   4.491 -0.3832  0.1977 -0.2822
 1415SOL    HW1 5658   4.755   4.912   4.546 -0.3305  1.3377  0.5882
 1415SOL    HW2 5659   4.607   4.940   4.536 -0.5740 -0.2347 -0.7621
 1415SOL     MW 5660   4.687   4.947   4.503 -0.4009  0.2883 -0.2322
 1416SOL     OW 5661   0.825   4.421   2.713  0.0596  0.2140  0.2078
 1416SOL    HW1 5662   0.906   4.436   2.762 -1.0805 -1.3827  2.8018
 1416SOL    HW2 5663   0.787   4.508   2.703  1.5980  0.8832 -0.2650
 1416SOL     MW 5664   0.831   4.434   2.718  0.1106  0.0953  0.4794
 1417SOL     OW 5665   5.350   0.161   1.716 -0.0046 -0.2564  0.2241
 1417SOL    HW1 5666   5.397   0.091   1.670 -2.2840 -1.6869 -0.1137
 1417SOL    HW2 5667   5.285   0.191   1.652 -0.9114  0.1898  1.3238
 1417SOL     MW 5668   5.348   0.156   1.702 -0.4125 -0.3824  0.3217
 1418SOL     OW 5669   4.645   4.247   1.077 -0.3168 -0.0375 -0.1227
 1418SOL    HW1 5670   4.569   4.209   1.121 -1.1475 -0.7853 -2.0899
 1418SOL    HW2 5671   4.684   4.306   1.142 -2.4052  0.1524  1.0234
 1418SOL     MW 5672   4.641   4.250   1.091 -0.6905 -0.1089 -0.2278
 1419SOL     OW 5673   3.028   1.938   0.959 -0.0156 -0.1903  0.0395
 1419SOL    HW1 5674   3.100   1.930   0.896 -0.2368  0.2455 -0.2707
 1419SOL    HW2 5675   3.003   2.030   0.957 -0.1302 -0.2003  0.6549
 1419SOL     MW 5676   3.034   1.948   0.951 -0.0586 -0.1358  0.0786
 1420SOL     OW 5677   4.994   3.679   5.242 -0.2947 -0.4227 -0.2252
 1420SOL    HW1 5678   4.934   3.750   5.218 -0.0182 -0.2795 -0.5177
 1420SOL    HW2 5679   5.080   3.712   5.214 -0.0431 -0.5048  0.4421
 1420SOL     MW 5680   4.998   3.693   5.235 -0.2271 -0.4149 -0.1773
 1421SOL     OW 5681   5.077   2.306   5.207  0.0579 -0.0912 -0.5060
 1421SOL    HW1 5682   5.120   2.250   5.142 -1.0263  0.1156 -1.4201
 1421SOL    HW2 5683   5.044   2.245   5.273 -1.2968 -0.5825 -1.6008
 1421SOL     MW 5684   5.078   2.291   5.207 -0.2543 -0.1276 -0.7632
 1422SOL     OW 5685   3.989   4.544   1.504  0.1370  0.0399  0.1296
 1422SOL    HW1 5686   4.045   4.593   1.444  0.9150 -0.4020  0.4798
 1422SOL    HW2 5687   3.900   4.565   1.475  0.4140  1.9831  0.5201
 1422SOL     MW 5688   3.985   4.553   1.492  0.2720  0.2321  0.2244
 1423SOL     OW 5689   4.958   0.340   4.475  0.0429  0.0166 -0.0961
 1423SOL    HW1 5690   5.047   0.316   4.448 -0.0879 -1.7033  0.9001
 1423SOL    HW2 5691   4.901   0.304   4.407  0.0355  0.0670 -0.1163
 1423SOL     MW 5692   4.962   0.333   4.463  0.0252 -0.1972  0.0289
 1424SOL     OW 5693   2.370   1.575   3.285 -0.5680 -0.1042 -0.0859
 1424SOL    HW1 5694   2.432   1.507   3.258  0.3019 -0.3993  2.4155
 1424SOL    HW2 5695   2.422   1.655   3.288 -1.0375  0.2349 -0.7805
 1424SOL     MW 5696   2.385   1.576   3.282 -0.5167 -0.0986  0.1454
 1425SOL     OW 5697   3.179   4.035  -0.016  0.0420 -0.0989  0.1242
 1425SOL    HW1 5698   3.197   4.023   0.077 -0.9164 -0.4545  0.2737
 1425SOL    HW2 5699   3.101   4.090  -0.018 -0.5405 -0.9275 -0.4485
 1425SOL     MW 5700   3.171   4.040  -0.004 -0.1553 -0.2505  0.0701
 1426SOL     OW 5701   4.840   0.980   4.769  0.2996  0.1784 -0.1508
 1426SOL    HW1 5702   4.843   0.899   4.820  1.0605  1.5117  2.0567
 1426SOL    HW2 5703   4.750   0.985   4.737 -0.0146 -1.0680  0.4772
 1426SOL     MW 5704   4.829   0.970   4.772  0.3568  0.1895  0.2122
 1427SOL     OW 5705   2.585   4.549   2.035 -0.0676 -0.0863 -0.2981
 1427SOL    HW1 5706   2.654   4.604   2.074 -1.2118 -0.1273  1.9444
 1427SOL    HW2 5707   2.633   4.481   1.988  1.3899  1.0798 -0.5920
 1427SOL     MW 5708   2.600   4.548   2.034 -0.0275  0.0577 -0.0487
 1428SOL     OW 5709   3.707   1.231   4.879  0.0161 -0.1881  0.8118
 1428SOL    HW1 5710   3.760   1.267   4.807  0.0481 -0.7135  0.5717
 1428SOL    HW2 5711   3.764   1.169   4.922 -0.4224 -0.8086  0.5129
 1428SOL     MW 5712   3.721   1.228   4.875 -0.0359 -0.3348  0.7428
 1429SOL     OW 5713   4.857   0.410   0.879  0.5516 -0.2411  0.1724
 1429SOL    HW1 5714   4.878   0.317   0.884 -0.9402 -0.5813  0.5963
 1429SOL    HW2 5715   4.763   0.413   0.863  0.4208  1.2000  0.9784
 1429SOL     MW 5716   4.848   0.399   0.877  0.3439 -0.1002  0.3299
 1430SOL     OW 5717   5.295   3.914   3.831 -0.1763 -0.0525  0.1813
 1430SOL    HW1 5718   5.246   3.983   3.876 -1.5905 -1.0906  0.2924
 1430SOL    HW2 5719   5.304   3.946   3.741 -0.5857  0.3929  0.2933
 1430SOL     MW 5720   5.290   3.927   3.826 -0.4098 -0.1284  0.2098
 1431SOL     OW 5721   4.851   0.686   0.197 -0.2663 -0.4371  0.3691
 1431SOL    HW1 5722   4.924   0.719   0.144  0.3377 -3.6623 -1.0297
 1431SOL    HW2 5723   4.878   0.701   0.288  0.8869  0.8542 -0.1564
 1431SOL     MW 5724   4.864   0.692   0.202 -0.0414 -0.6847  0.1228
 1432SOL     OW 5725   0.805   0.165   1.260 -0.1228  0.2489 -0.3954
 1432SOL    HW1 5726   0.799   0.078   1.219  1.4697  0.2472 -0.7018
 1432SOL    HW2 5727   0.754   0.222   1.203 -1.2611 -0.4932 -0.1395
 1432SOL     MW 5728   0.798   0.161   1.247 -0.0646  0.1537 -0.4019
 1433SOL     OW 5729   4.259   2.433   4.923  0.4780  0.0908 -0.8284
 1433SOL    HW1 5730   4.175   2.473   4.899  0.2118  0.5428  0.7827
 1433SOL    HW2 5731   4.307   2.503   4.967  1.0728 -0.6101 -0.3449
 1433SOL     MW 5732   4.254   2.448   4.925  0.5201  0.0589 -0.5602
 1434SOL     OW 5733   3.331   4.253   4.943  0.3084 -0.0442  0.0394
 1434SOL    HW1 5734   3.279   4.314   4.892  0.3431  0.2529  0.3552
 1434SOL    HW2 5735   3.417   4.254   4.901  0.4134  0.3976  0.2584
 1434SOL     MW 5736   3.335   4.261   4.931  0.3263  0.0504  0.1079
 1435SOL     OW 5737   0.039   2.230   0.718  0.4446 -0.3120  0.2717
 1435SOL    HW1 5738  -0.036   2.184   0.757 -0.6686  0.8152 -0.4410
 1435SOL    HW2 5739   0.081   2.274   0.792 -0.2412 -0.1065  0.5516
 1435SOL     MW 5740   0.035   2.230   0.732  0.2143 -0.1414  0.2163
 1436SOL     OW 5741   4.394   3.353   5.137 -0.8286 -0.3769  0.1799
 1436SOL    HW1 5742   4.407   3.360   5.042  3.4078 -1.0018  0.5249
 1436SOL    HW2 5743   4.359   3.265   5.149 -0.3503 -0.7113 -0.7601
 1436SOL     MW 5744   4.391   3.343   5.126 -0.2251 -0.4997  0.1037
 1437SOL     OW 5745   4.024   1.408   4.381  0.4169 -0.3205  0.7012
 1437SOL    HW1 5746   4.029   1.338   4.446 -4.1894 -1.9726 -0.3497
 1437SOL    HW2 5747   3.988   1.483   4.429 -0.7619 -0.7862  0.5616
 1437SOL     MW 5748   4.020   1.409   4.396 -0.3237 -0.5916  0.5488
 1438SOL     OW 5749   4.424   2.140   2.309 -0.0741 -0.0803  0.3531
 1438SOL    HW1 5750   4.425   2.063   2.366  1.5374  0.3850  1.0065
 1438SOL    HW2 5751   4.454   2.108   2.224 -1.5341 -0.5766 -0.0133
 1438SOL     MW 5752   4.428   2.126   2.305 -0.0547 -0.0843  0.3898
 1439SOL     OW 5753   4.386   1.421   0.065 -0.0669  0.0815  0.2001
 1439SOL    HW1 5754   4.452   1.352   0.075 -0.0263 -0.1096 -1.1810
 1439SOL    HW2 5755   4.313   1.378   0.021  1.1073  1.4868 -3.4888
 1439SOL     MW 5756   4.385   1.407   0.061  0.0886  0.2369 -0.4489
 1440SOL     OW 5757   4.069   1.254   1.055  0.1040  0.2244 -0.4631
 1440SOL    HW1 5758   4.141   1.220   1.001 -0.4524 -0.5420 -0.7373
 1440SOL    HW2 5759   3.989   1.223   1.011 -0.3952  0.9820 -0.1097
 1440SOL     MW 5760   4.068   1.246   1.042 -0.0311  0.2232 -0.4530
 1441SOL     OW 5761   1.087   1.146   4.289 -0.2905 -0.4456  0.5117
 1441SOL    HW1 5762   1.038   1.217   4.331 -0.7586 -1.7624  2.2970
 1441SOL    HW2 5763   1.066   1.068   4.341  2.6851 -1.3261  0.5894
 1441SOL     MW 5764   1.078   1.145   4.301  0.0305 -0.7269  0.7502
 1442SOL     OW 5765   0.647   0.107   1.473 -0.1118  0.0217 -0.3548
 1442SOL    HW1 5766   0.709   0.126   1.403  0.0492 -0.1442 -0.2612
 1442SOL    HW2 5767   0.684   0.150   1.550  0.1030 -0.4137 -0.2082
 1442SOL     MW 5768   0.660   0.115   1.474 -0.0637 -0.0552 -0.3241
 1443SOL     OW 5769   5.494   1.545   3.739  0.3627  0.2768 -0.3353
 1443SOL    HW1 5770   5.480   1.551   3.644 -2.2556  0.9699  0.0170
 1443SOL    HW2 5771   5.407   1.530   3.775  0.7859  2.9087  2.1779
 1443SOL     MW 5772   5.481   1.544   3.731  0.0817  0.7025  0.0315
 1444SOL     OW 5773   0.092   4.432   3.316 -0.0171 -0.1213 -0.5484
 1444SOL    HW1 5774   0.065   4.399   3.402  1.6520 -0.2528 -0.0459
 1444SOL    HW2 5775   0.112   4.524   3.331  0.4820 -0.1935 -0.7348
 1444SOL     MW 5776   0.091   4.440   3.329  0.2605 -0.1474 -0.5079
 1445SOL     OW 5777   0.606   2.508   5.003  0.0484 -0.2464  0.0247
 1445SOL    HW1 5778   0.559   2.476   4.926  0.5743  0.7749 -0.7348
 1445SOL    HW2 5779   0.598   2.603   4.999  0.0578 -0.1719  1.2601
 1445SOL     MW 5780   0.599   2.516   4.993  0.1169 -0.1061  0.0856
 1446SOL     OW 5781   4.855   3.253   4.337  0.0750  0.5361  0.1982
 1446SOL    HW1 5782   4.768   3.226   4.310 -0.5096  1.2051  1.3552
 1446SOL    HW2 5783   4.860   3.345   4.311  1.5635 -0.2217 -2.5409
 1446SOL     MW 5784   4.845   3.262   4.330  0.1907  0.5248 -0.0043
 1447SOL     OW 5785   5.275   2.926   5.178 -0.1405 -0.3209 -0.1450
 1447SOL    HW1 5786   5.344   2.884   5.230  0.5259 -0.0342 -0.7820
 1447SOL    HW2 5787   5.290   3.020   5.190 -0.3536 -0.2583 -0.3782
 1447SOL     MW 5788   5.286   2.933   5.186 -0.0825 -0.2762 -0.2564
 1448SOL     OW 5789   2.156   1.544   1.182 -0.3284 -0.2273  0.1953
 1448SOL    HW1 5790   2.082   1.507   1.232 -1.0112  1.0374  0.1699
 1448SOL    HW2 5791   2.120   1.562   1.096  0.2717 -0.4444 -0.1032
 1448SOL     MW 5792   2.142   1.542   1.178 -0.3390 -0.0932  0.1538
 1449SOL     OW 5793   1.055   1.241   3.435 -0.3890  0.2236 -0.8351
 1449SOL    HW1 5794   1.142   1.204   3.422 -1.3823 -2.5668 -0.2740
 1449SOL    HW2 5795   1.017   1.245   3.348  0.1742  1.1350 -1.0425
 1449SOL     MW 5796   1.061   1.237   3.423 -0.4441 -0.0169 -0.7898
 1450SOL     OW 5797   0.464   4.433   2.776  0.1735 -0.2827 -0.2818
 1450SOL    HW1 5798   0.425   4.406   2.860 -0.1365  0.2203 -0.2601
 1450SOL    HW2 5799   0.407   4.394   2.710 -0.3487  0.4181 -0.2498
 1450SOL     MW 5800   0.452   4.425   2.779  0.0670 -0.1286 -0.2749
 1451SOL     OW 5801   1.122   1.697   0.112  0.0690 -0.1692  0.6262
 1451SOL    HW1 5802   1.215   1.717   0.108  0.0770 -0.2535  0.3955
 1451SOL    HW2 5803   1.095   1.688   0.020 -0.2920  0.4428  0.6720
 1451SOL     MW 5804   1.130   1.698   0.100  0.0238 -0.1016  0.6026
 1452SOL     OW 5805   4.801   4.743   4.985  0.1570 -0.3048 -0.1026
 1452SOL    HW1 5806   4.819   4.763   5.077  1.3542  0.6838 -0.5256
 1452SOL    HW2 5807   4.705   4.748   4.978  0.0172 -0.8667  1.1793
 1452SOL     MW 5808   4.791   4.747   4.996  0.2924 -0.2502  0.0074
 1453SOL     OW 5809   2.106   3.431   5.254 -0.0111 -0.6366 -0.3641
 1453SOL    HW1 5810   2.117   3.378   5.333  3.7477  2.7794  1.7836
 1453SOL    HW2 5811   2.181   3.408   5.199  1.1355  1.5437  0.1736
 1453SOL     MW 5812   2.117   3.421   5.257  0.6169  0.0798 -0.0203
 1454SOL     OW 5813   4.020   3.349   5.339 -0.2468 -0.4953 -0.3946
 1454SOL    HW1 5814   4.050   3.440   5.342  0.5323 -0.6988 -1.2948
 1454SOL    HW2 5815   4.045   3.318   5.251  0.7158 -1.9608  0.3414
 1454SOL     MW 5816   4.027   3.356   5.328 -0.0238 -0.7089 -0.4157
 1455SOL     OW 5817   1.935   3.631   3.243 -0.1640 -0.0691 -0.0159
 1455SOL    HW1 5818   1.850   3.613   3.282  0.5610 -0.8897  1.2600
 1455SOL    HW2 5819   1.966   3.710   3.288  0.0313 -0.1615  0.0165
 1455SOL     MW 5820   1.928   3.639   3.254 -0.0462 -0.1860  0.1516
 1456SOL     OW 5821   5.026   5.242   0.601  0.0257  0.1554 -0.0277
 1456SOL    HW1 5822   5.097   5.306   0.603  0.1473  0.0133  1.2401
 1456SOL    HW2 5823   5.021   5.209   0.691 -0.2628 -1.3670 -0.5682
 1456SOL     MW 5824   5.034   5.246   0.613  0.0044 -0.0577  0.0654
 1457SOL     OW 5825   1.986   4.288   3.507 -0.1545  0.2963 -0.4231
 1457SOL    HW1 5826   2.079   4.269   3.500 -0.2225 -0.2509  0.0134
 1457SOL    HW2 5827   1.952   4.273   3.419  0.1765  0.5365 -0.5920
 1457SOL     MW 5828   1.993   4.283   3.495 -0.1209  0.2570 -0.3888
 1458SOL     OW 5829   4.311   3.975   4.469  0.1171  0.3203  0.9722
 1458SOL    HW1 5830   4.299   4.062   4.432  1.5049  1.0257  2.0420
 1458SOL    HW2 5831   4.230   3.956   4.516 -0.1602  1.0949  0.8078
 1458SOL     MW 5832   4.299   3.983   4.471  0.2592  0.5097  1.0881
 1459SOL     OW 5833   4.174   3.963   3.702  0.0010 -0.3773 -0.4004
 1459SOL    HW1 5834   4.237   3.897   3.674  0.8865 -0.2622  1.2004
 1459SOL    HW2 5835   4.096   3.912   3.728  0.8947 -0.9002  1.4162
 1459SOL     MW 5836   4.172   3.948   3.702  0.2287 -0.4295  0.0371
 1460SOL     OW 5837   3.683   4.294   3.189  0.1257  0.0251 -0.1337
 1460SOL    HW1 5838   3.709   4.377   3.150  1.2991  1.3156  3.0417
 1460SOL    HW2 5839   3.753   4.233   3.165 -0.4943  0.0300 -2.0740
 1460SOL     MW 5840   3.696   4.296   3.181  0.1965  0.1910  0.0244
 1461SOL     OW 5841   4.154   3.110   1.102  0.6490 -0.0632 -0.1306
 1461SOL    HW1 5842   4.082   3.075   1.154  1.0168  0.4623  0.7616
 1461SOL    HW2 5843   4.220   3.137   1.167  1.4292 -0.0567 -0.9017
 1461SOL     MW 5844   4.154   3.109   1.117  0.7959  0.0049 -0.1151
 1462SOL     OW 5845   3.967   3.097   3.955 -0.5579 -0.3409  0.0782
 1462SOL    HW1 5846   3.893   3.060   3.907  0.0861 -0.7520 -0.6300
 1462SOL    HW2 5847   4.039   3.097   3.891  0.4886 -1.4544  1.2074
 1462SOL     MW 5848   3.967   3.092   3.940 -0.3415 -0.5360  0.1321
 1463SOL     OW 5849   3.182   5.443   4.673 -0.0354  0.1281 -0.3098
 1463SOL    HW1 5850   3.266   5.475   4.639 -0.3649 -0.3015 -1.5756
 1463SOL    HW2 5851   3.139   5.521   4.708 -0.2254  0.8596 -2.0806
 1463SOL     MW 5852   3.187   5.457   4.673 -0.1019  0.1667 -0.6985
 1464SOL     OW 5853   4.759   4.842   0.827 -0.3671  0.0518  0.0982
 1464SOL    HW1 5854   4.744   4.792   0.746 -0.8284  2.2320 -1.2262
 1464SOL    HW2 5855   4.682   4.898   0.835 -1.0154 -1.0884  2.8723
 1464SOL     MW 5856   4.747   4.843   0.818 -0.5091  0.1849  0.2838
 1465SOL     OW 5857   3.589   0.514   1.990 -0.1834 -0.1280  0.2083
 1465SOL    HW1 5858   3.530   0.472   1.928  0.3641 -0.4919 -0.0764
 1465SOL    HW2 5859   3.539   0.588   2.025 -1.5993 -1.6156  1.5343
 1465SOL     MW 5860   3.575   0.518   1.987 -0.2945 -0.3650  0.3416
 1466SOL     OW 5861   4.247   2.978   4.926  0.4641  0.4812  0.1498
 1466SOL    HW1 5862   4.176   2.927   4.965  1.3678 -1.1817 -0.2775
 1466SOL    HW2 5863   4.204   3.049   4.879 -0.9506 -0.7255 -0.4383
 1466SOL     MW 5864   4.233   2.980   4.925  0.3987  0.1139  0.0198
 1467SOL     OW 5865   2.335   0.199   2.124 -0.4425 -0.3535 -0.2928
 1467SOL    HW1 5866   2.416   0.176   2.170  0.7003 -2.1490 -2.8753
 1467SOL    HW2 5867   2.294   0.115   2.105 -0.6393  0.2066 -2.7220
 1467SOL     MW 5868   2.340   0.185   2.127 -0.3214 -0.5117 -0.9344
 1468SOL     OW 5869   0.754   3.924   4.091  0.1947 -0.2044  0.1094
 1468SOL    HW1 5870   0.752   3.897   4.183 -0.3938  1.6117  0.6720
 1468SOL    HW2 5871   0.836   3.887   4.057 -0.3092 -2.1966  0.9143
 1468SOL     MW 5872   0.764   3.916   4.099  0.0549 -0.2269  0.2845
 1469SOL     OW 5873   3.630   2.064   2.438 -0.2767  0.0036  0.0063
 1469SOL    HW1 5874   3.556   2.053   2.498  0.2619 -0.4537  0.5998
 1469SOL    HW2 5875   3.674   2.143   2.469 -0.1612 -0.0760  0.0497
 1469SOL     MW 5876   3.626   2.073   2.450 -0.1930 -0.0651  0.0878
 1470SOL     OW 5877   4.224   1.928   3.430  0.3425  0.4479 -0.0003
 1470SOL    HW1 5878   4.147   1.890   3.389 -0.7549  1.5392  0.9593
 1470SOL    HW2 5879   4.269   1.974   3.358 -0.9601  1.4240 -0.2328
 1470SOL     MW 5880   4.220   1.929   3.415  0.0353  0.7125  0.0928
 1471SOL     OW 5881   3.850   1.632   4.520  0.0642 -0.4109 -0.3647
 1471SOL    HW1 5882   3.879   1.715   4.483 -0.8958 -0.0807 -0.4025
 1471SOL    HW2 5883   3.790   1.596   4.455 -2.3699  0.6041  1.1655
 1471SOL     MW 5884   3.846   1.638   4.507 -0.3703 -0.2387 -0.1737
 1472SOL     OW 5885   3.690   4.329   3.670  0.3123 -0.2254 -0.3378
 1472SOL    HW1 5886   3.639   4.297   3.596  0.4482  1.4650 -1.2084
 1472SOL    HW2 5887   3.653   4.283   3.746  0.4264 -2.2832 -1.4569
 1472SOL     MW 5888   3.678   4.319   3.670  0.3443 -0.2724 -0.5925
 1473SOL     OW 5889   4.096   0.072   3.640 -0.4139 -0.0064 -0.0664
 1473SOL    HW1 5890   4.113  -0.003   3.697 -2.0571 -1.0526 -0.8917
 1473SOL    HW2 5891   4.010   0.104   3.666 -0.3468  0.7122 -0.6837
 1473SOL     MW 5892   4.087   0.066   3.651 -0.6156 -0.0483 -0.2511
 1474SOL     OW 5893   4.700   4.070   5.394  0.7367 -0.6265  0.0337
 1474SOL    HW1 5894   4.659   4.142   5.348  1.0252 -0.7242 -0.3778
 1474SOL    HW2 5895   4.784   4.105   5.423  1.1160 -0.9620 -0.6440
 1474SOL     MW 5896   4.705   4.084   5.392  0.8222 -0.6819 -0.1058
 1475SOL     OW 5897   5.069   5.368   5.467 -0.4015 -0.0839 -0.5809
 1475SOL    HW1 5898   5.104   5.306   5.531 -1.8884  0.1708  0.5139
 1475SOL    HW2 5899   5.146   5.397   5.418  0.7686 -0.3744  1.0075
 1475SOL     MW 5900   5.084   5.364   5.469 -0.4421 -0.0885 -0.2374
 1476SOL     OW 5901   2.918   1.948   2.227 -0.1046 -0.2445 -0.1017
 1476SOL    HW1 5902   2.922   1.961   2.132 -0.3871 -0.6790 -0.1734
 1476SOL    HW2 5903   2.979   2.013   2.262  1.5472 -1.4064 -0.6986
 1476SOL     MW 5904   2.926   1.958   2.220  0.0707 -0.4489 -0.1873
 1477SOL     OW 5905   3.134   1.793   3.865  0.4292  0.3956  0.1245
 1477SOL    HW1 5906   3.119   1.792   3.960  0.5817 -0.1519  0.1515
 1477SOL    HW2 5907   3.201   1.860   3.852  0.0454  0.8215  0.3446
 1477SOL     MW 5908   3.141   1.801   3.876  0.3996  0.3801  0.1562
 1478SOL     OW 5909   2.006   1.851   0.804  0.6714 -0.2122 -0.1288
 1478SOL    HW1 5910   1.956   1.897   0.871  2.3159 -1.4743  2.1022
 1478SOL    HW2 5911   1.940   1.822   0.741 -1.4425 -1.4860  2.4532
 1478SOL     MW 5912   1.991   1.853   0.805  0.6113 -0.5368  0.4873
 1479SOL     OW 5913   2.809   1.461   4.652 -0.4257  0.0581 -0.0168
 1479SOL    HW1 5914   2.812   1.513   4.732 -0.8391  0.3141 -0.1656
 1479SOL    HW2 5915   2.872   1.390   4.667 -0.7623 -0.1017  0.6694
 1479SOL     MW 5916   2.818   1.458   4.664 -0.5217  0.0704  0.0520
 1480SOL     OW 5917   1.558   4.157   2.151 -0.0794 -0.1117  0.0093
 1480SOL    HW1 5918   1.551   4.088   2.084  0.3966 -0.6941  0.5482
 1480SOL    HW2 5919   1.649   4.153   2.180 -0.1760  0.4257  0.3896
 1480SOL     MW 5920   1.569   4.148   2.146 -0.0308 -0.1175  0.1269
 1481SOL     OW 5921   3.472   3.162   4.535  0.3630 -0.5221  0.0855
 1481SOL    HW1 5922   3.511   3.095   4.591  0.6035  0.1784  0.7778
 1481SOL    HW2 5923   3.415   3.211   4.594 -0.2680 -0.4942 -0.5504
 1481SOL     MW 5924   3.470   3.159   4.550  0.3130 -0.4289  0.0927
 1482SOL     OW 5925   5.027   2.963   3.452 -0.4061 -0.1397  0.9546
 1482SOL    HW1 5926   4.996   3.032   3.393  1.5469 -0.2615 -0.3135
 1482SOL    HW2 5927   5.102   3.003   3.497 -0.3098 -0.8859  1.4635
 1482SOL     MW 5928   5.033   2.977   3.450 -0.1438 -0.2508  0.8574
 1483SOL     OW 5929   5.454   2.336   4.906 -0.7116  0.1177  0.1712
 1483SOL    HW1 5930   5.440   2.423   4.869  0.8054  0.3681  0.1253
 1483SOL    HW2 5931   5.493   2.285   4.836 -2.1704 -0.8274 -0.0037
 1483SOL     MW 5932   5.457   2.340   4.893 -0.7042  0.0287  0.1430
 1484SOL     OW 5933   3.725   5.086   4.589 -0.3605  0.0545 -0.0294
 1484SOL    HW1 5934   3.683   5.155   4.537 -0.3425  0.3358  0.3242
 1484SOL    HW2 5935   3.674   5.082   4.670 -0.2639 -0.2388  0.0172
 1484SOL     MW 5936   3.713   5.094   4.593 -0.3458  0.0530  0.0219
 1485SOL     OW 5937   0.783   0.769   2.911 -0.0352  0.5654  0.4627
 1485SOL    HW1 5938   0.758   0.755   2.820  2.1448  0.7428 -0.2069
 1485SOL    HW2 5939   0.780   0.681   2.950  1.8660 -0.0030 -0.5750
 1485SOL     MW 5940   0.779   0.756   2.905  0.4872  0.5154  0.2441
 1486SOL     OW 5941   2.587   0.170   2.215  0.0621  0.1263 -0.5738
 1486SOL    HW1 5942   2.605   0.101   2.151 -2.1449 -0.1818 -0.9344
 1486SOL    HW2 5943   2.540   0.125   2.286  0.7939  0.8171  0.3778
 1486SOL     MW 5944   2.583   0.155   2.216 -0.1267  0.1753 -0.4981
 1487SOL     OW 5945   1.479   2.999  -0.023  0.9603  0.1439  0.0795
 1487SOL    HW1 5946   1.410   3.057   0.008  1.7393  0.3263  1.6173
 1487SOL    HW2 5947   1.511   2.956   0.057  1.8547 -0.7734 -0.7415
 1487SOL     MW 5948   1.474   3.001  -0.008  1.1745  0.0498  0.1713
 1488SOL     OW 5949   3.579   1.109   1.484 -0.0286  0.3939 -0.1370
 1488SOL    HW1 5950   3.513   1.171   1.516  0.4961  0.4428  0.8960
 1488SOL    HW2 5951   3.614   1.069   1.563  0.7582 -0.0674 -0.7079
 1488SOL     MW 5952   3.575   1.112   1.498  0.1393  0.3411 -0.0778
 1489SOL     OW 5953   0.950   3.905   0.932  0.1633 -0.1804  0.0786
 1489SOL    HW1 5954   0.986   3.890   0.844 -0.4069 -0.0345 -0.1854
 1489SOL    HW2 5955   1.004   3.852   0.990  1.1459  0.4339 -0.2393
 1489SOL     MW 5956   0.961   3.896   0.928  0.2161 -0.0831  0.0041
 1490SOL     OW 5957   4.279   2.164   4.832  0.3430  0.1962  1.0886
 1490SOL    HW1 5958   4.238   2.238   4.877 -1.2617 -0.5831  0.9812
 1490SOL    HW2 5959   4.271   2.092   4.894 -0.4462 -0.5054  0.1903
 1490SOL     MW 5960   4.273   2.164   4.846  0.0366  0.0066  0.9599
 1491SOL     OW 5961   4.880   4.710   2.849  0.6448  0.0370  0.3738
 1491SOL    HW1 5962   4.875   4.803   2.828  2.3255  0.6864  2.5211
 1491SOL    HW2 5963   4.908   4.707   2.941 -2.1243 -2.5705  1.3073
 1491SOL     MW 5964   4.883   4.721   2.858  0.5055 -0.2137  0.7682
 1492SOL     OW 5965   4.171   5.271   4.161  0.2220 -0.2769 -0.6496
 1492SOL    HW1 5966   4.169   5.206   4.231  0.1829 -0.4430 -0.8067
 1492SOL    HW2 5967   4.177   5.355   4.207 -0.0981 -0.3690 -0.4405
 1492SOL     MW 5968   4.172   5.274   4.176  0.1760 -0.3099 -0.6429
 1493SOL     OW 5969   3.589   4.175   3.441 -0.6719  0.6681 -0.5014
 1493SOL    HW1 5970   3.621   4.210   3.358 -1.8133 -0.0613 -1.2755
 1493SOL    HW2 5971   3.603   4.081   3.435  0.6343  0.7413  0.7834
 1493SOL     MW 5972   3.595   4.167   3.430 -0.6508  0.5841 -0.4360
 1494SOL     OW 5973   3.023   3.595   4.820 -0.1178  0.2304 -0.4705
 1494SOL    HW1 5974   3.005   3.586   4.726 -0.7300 -0.7258 -0.2770
 1494SOL    HW2 5975   2.979   3.520   4.860  1.7498 -0.4548  0.3842
 1494SOL     MW 5976   3.015   3.584   4.813  0.0429  0.0203 -0.3363
 1495SOL     OW 5977   2.582   5.139   0.100 -0.2094  0.0676  0.0550
 1495SOL    HW1 5978   2.547   5.186   0.175 -0.2744 -1.1560  0.8156
 1495SOL    HW2 5979   2.531   5.171   0.025 -0.4574  0.9606  0.5981
 1495SOL     MW 5980   2.571   5.149   0.100 -0.2495  0.0253  0.2219
 1496SOL     OW 5981   1.687   2.832   5.280  0.4731 -0.1031 -0.2995
 1496SOL    HW1 5982   1.724   2.899   5.338  0.2077 -1.0457  0.9811
 1496SOL    HW2 5983   1.592   2.844   5.286  0.4349 -0.3932 -0.3211
 1496SOL     MW 5984   1.680   2.842   5.288  0.4342 -0.2609 -0.1383
 1497SOL     OW 5985   0.031   2.131   0.257 -0.0453 -0.6565  0.6348
 1497SOL    HW1 5986   0.107   2.087   0.295  0.0378 -0.4287  0.7316
 1497SOL    HW2 5987  -0.040   2.066   0.265  0.2361 -1.0361  0.1372
 1497SOL     MW 5988   0.031   2.117   0.263  0.0013 -0.6759  0.5835
 1498SOL     OW 5989   4.362   0.503   1.462  0.2647 -0.1397 -0.2857
 1498SOL    HW1 5990   4.333   0.416   1.436 -0.0216 -0.2980  0.5201
 1498SOL    HW2 5991   4.456   0.503   1.446 -0.0151  0.0556 -2.0426
 1498SOL     MW 5992   4.370   0.492   1.457  0.1922 -0.1350 -0.4074
 1499SOL     OW 5993   0.928   3.243   3.821  0.6385  0.8484 -0.4058
 1499SOL    HW1 5994   0.891   3.319   3.777 -0.1322  0.7567  0.0530
 1499SOL    HW2 5995   0.851   3.191   3.847  1.1712 -0.4092 -1.2751
 1499SOL     MW 5996   0.913   3.246   3.819  0.6080  0.6756 -0.4583
 1500SOL     OW 5997   5.403   1.561   5.250  0.3912  0.5808  0.4711
 1500SOL    HW1 5998   5.417   1.499   5.321  0.8877  0.3765  0.1991
 1500SOL    HW2 5999   5.308   1.557   5.233  0.3732  0.1346  0.6660
 1500SOL     MW 6000   5.392   1.553   5.257  0.4524  0.4976  0.4613
 1501SOL     OW 6001   2.587   2.612   2.363 -0.1128 -0.3327  0.7146
 1501SOL    HW1 6002   2.522   2.609   2.433  1.0903  2.0094  2.0514
 1501SOL    HW2 6003   2.670   2.628   2.408  0.7126  1.1764 -1.1885
 1501SOL     MW 6004   2.589   2.614   2.377  0.1469  0.1603  0.6421
 1502SOL     OW 6005   5.295   4.556   4.175 -0.2799 -0.0942 -0.1767
 1502SOL    HW1 6006   5.260   4.593   4.095 -2.0721 -0.1301  0.5402
 1502SOL    HW2 6007   5.332   4.472   4.149 -1.7612 -0.5726 -0.8403
 1502SOL     MW 6008   5.295   4.550   4.162 -0.6990 -0.1600 -0.1699
 1503SOL     OW 6009   1.360   1.060   4.563  0.0706 -0.5548 -0.1551
 1503SOL    HW1 6010   1.383   1.024   4.649 -0.8149  0.2676  0.4449
 1503SOL    HW2 6011   1.444   1.078   4.522  0.5416  0.7022  1.2680
 1503SOL     MW 6012   1.374   1.058   4.569  0.0175 -0.2886  0.1039
 1504SOL     OW 6013   0.070   4.558   5.378  0.4092  0.7461  0.6141
 1504SOL    HW1 6014   0.116   4.604   5.449  0.0347  0.3367  1.1306
 1504SOL    HW2 6015  -0.005   4.517   5.421  0.4014  0.1555  0.0467
 1504SOL     MW 6016   0.066   4.559   5.393  0.3603  0.6181  0.6075
 1505SOL     OW 6017   0.445   5.056   1.761 -0.2232  0.5590 -0.1094
 1505SOL    HW1 6018   0.404   5.143   1.763  0.8906  1.1224 -0.4428
 1505SOL    HW2 6019   0.479   5.049   1.671 -2.8648 -1.4932 -1.0603
 1505SOL     MW 6020   0.444   5.066   1.750 -0.4188  0.3684 -0.2738
 1506SOL     OW 6021   4.386   4.787   2.938  0.0299 -0.4557  0.1068
 1506SOL    HW1 6022   4.451   4.719   2.960  0.9605  0.0296 -1.0185
 1506SOL    HW2 6023   4.438   4.867   2.927 -0.7363 -0.0725 -0.8856
 1506SOL     MW 6024   4.401   4.788   2.939  0.0509 -0.3445 -0.1643
 1507SOL     OW 6025   3.091   0.284   4.049  0.4607 -0.6225  0.2534
 1507SOL    HW1 6026   3.130   0.326   4.126 -1.4731  0.2318  0.8262
 1507SOL    HW2 6027   3.096   0.350   3.980 -1.0962 -0.0170  0.6939
 1507SOL     MW 6028   3.097   0.298   4.050  0.0138 -0.4357  0.3831
 1508SOL     OW 6029   5.381   1.575   4.202 -0.1620  0.6130 -0.6628
 1508SOL    HW1 6030   5.455   1.557   4.145 -0.6947 -0.2787 -1.1025
 1508SOL    HW2 6031   5.333   1.493   4.206 -0.3723  0.7765  0.7510
 1508SOL     MW 6032   5.384   1.563   4.195 -0.2571  0.5198 -0.5381
 1509SOL     OW 6033   0.907   2.752   1.388  0.0501  0.5594 -0.1808
 1509SOL    HW1 6034   0.973   2.686   1.410  1.7196  1.7075 -1.4597
 1509SOL    HW2 6035   0.957   2.822   1.345 -1.9864  1.6124 -0.9541
 1509SOL     MW 6036   0.922   2.752   1.385  0.0031  0.8412 -0.4435
 1510SOL     OW 6037   4.854   4.061   2.027 -0.1158 -0.2706 -0.3748
 1510SOL    HW1 6038   4.870   3.967   2.017  2.2983 -0.1374  1.2151
 1510SOL    HW2 6039   4.921   4.102   1.972  1.3373  0.4339  1.7938
 1510SOL     MW 6040   4.865   4.054   2.019  0.3792 -0.1634  0.1063
 1511SOL     OW 6041   4.251   4.372   1.158  0.1743 -0.8729 -0.1586
 1511SOL    HW1 6042   4.237   4.404   1.069  0.2821 -0.8892 -0.1813
 1511SOL    HW2 6043   4.167   4.384   1.201  0.1178 -0.8792 -0.2669
 1511SOL     MW 6044   4.239   4.378   1.152  0.1809 -0.8758 -0.1754
 1512SOL     OW 6045   3.603   1.851   0.922  0.3905 -0.0228  0.2093
 1512SOL    HW1 6046   3.672   1.801   0.965 -0.6103 -2.1258 -0.5203
 1512SOL    HW2 6047   3.632   1.859   0.831 -0.9953 -2.3506 -0.5037
 1512SOL     MW 6048   3.615   1.846   0.916  0.0850 -0.5900  0.0246
 1513SOL     OW 6049   2.264   1.535   2.077  0.0079  0.3196  0.0513
 1513SOL    HW1 6050   2.344   1.542   2.024  0.2781 -1.6986  0.1004
 1513SOL    HW2 6051   2.261   1.617   2.127  1.6422  0.7597 -0.4984
 1513SOL     MW 6052   2.274   1.546   2.077  0.2517  0.1176 -0.0128
 1514SOL     OW 6053   2.007   5.431   0.792  0.0162 -0.4287  0.4160
 1514SOL    HW1 6054   2.043   5.359   0.843 -1.5411 -0.6491  1.2568
 1514SOL    HW2 6055   1.913   5.429   0.810 -0.1800  1.2642 -0.2283
 1514SOL     MW 6056   2.000   5.422   0.801 -0.2083 -0.2402  0.4412
 1515SOL     OW 6057   2.187   3.683   1.999 -0.2950 -0.4210  0.1033
 1515SOL    HW1 6058   2.175   3.767   1.954  0.0207 -0.2439  0.3479
 1515SOL    HW2 6059   2.255   3.700   2.064 -1.0723 -0.5625  0.9600
 1515SOL     MW 6060   2.194   3.696   2.002 -0.3541 -0.4165  0.2443
 1516SOL     OW 6061   3.429   1.976   2.574  0.0788 -1.0215 -0.1882
 1516SOL    HW1 6062   3.373   1.995   2.649  0.1861 -0.5908 -0.2162
 1516SOL    HW2 6063   3.482   1.902   2.603  0.2277 -0.7609  0.2219
 1516SOL     MW 6064   3.429   1.969   2.588  0.1116 -0.9330 -0.1392
 1517SOL     OW 6065   3.118   4.764   2.868 -0.4770 -0.2073  0.0679
 1517SOL    HW1 6066   3.029   4.798   2.863 -0.3797  0.0739  0.2198
 1517SOL    HW2 6067   3.167   4.815   2.803 -0.1599  0.4754  0.8341
 1517SOL     MW 6068   3.113   4.775   2.859 -0.4240 -0.0839  0.1854
 1518SOL     OW 6069   5.122   2.555   3.315  0.4440  0.3351 -0.7075
 1518SOL    HW1 6070   5.118   2.614   3.390  1.0825  0.5648 -0.8487
 1518SOL    HW2 6071   5.204   2.508   3.326  1.0715  1.1391 -1.8250
 1518SOL     MW 6072   5.132   2.557   3.326  0.6061  0.4674 -0.8687
 1519SOL     OW 6073   2.777   3.828   1.474 -0.0864  0.4559  0.0549
 1519SOL    HW1 6074   2.705   3.845   1.413  0.7734  1.9738 -0.6137
 1519SOL    HW2 6075   2.736   3.784   1.549 -1.1206 -1.7421 -1.7011
 1519SOL     MW 6076   2.763   3.825   1.476 -0.1087  0.3688 -0.2555
 1520SOL     OW 6077   3.875   2.013   2.085 -0.2130  0.2403 -0.1631
 1520SOL    HW1 6078   3.832   2.098   2.079 -0.0009  0.3362 -0.3158
 1520SOL    HW2 6079   3.802   1.950   2.086 -0.4662  0.4912  1.7438
 1520SOL     MW 6080   3.860   2.016   2.085 -0.2182  0.2847  0.0615
 1521SOL     OW 6081   3.621   0.418   4.514 -0.0382 -0.4742 -0.0590
 1521SOL    HW1 6082   3.552   0.474   4.548 -0.3362 -1.1582  0.4972
 1521SOL    HW2 6083   3.702   0.462   4.539 -0.2626 -0.4367  0.6395
 1521SOL     MW 6084   3.623   0.431   4.522 -0.1051 -0.5570  0.1016
 1522SOL     OW 6085   2.344   4.987   2.806  0.3354 -0.0101 -0.1285
 1522SOL    HW1 6086   2.341   4.895   2.831 -1.2504  0.0945  0.1695
 1522SOL    HW2 6087   2.255   5.019   2.821  0.6650  1.3825 -0.9409
 1522SOL     MW 6088   2.332   4.980   2.811  0.1746  0.1816 -0.1943
 1523SOL     OW 6089   5.114   1.662   0.950 -0.5100 -0.1637 -0.0577
 1523SOL    HW1 6090   5.063   1.719   1.007  2.2179  0.7070  1.6737
 1523SOL    HW2 6091   5.079   1.680   0.862 -1.2018  2.5650  0.6677
 1523SOL     MW 6092   5.103   1.672   0.946 -0.2493  0.2971  0.2568
 1524SOL     OW 6093   0.381   2.701   3.847  0.2550  0.0503  0.2567
 1524SOL    HW1 6094   0.394   2.608   3.863 -1.5958  0.1252  3.0992
 1524SOL    HW2 6095   0.423   2.744   3.922  0.5621  1.4561 -0.6910
 1524SOL     MW 6096   0.388   2.695   3.859  0.0574  0.2398  0.4993
 1525SOL     OW 6097   1.042   2.514   2.008 -0.5243 -0.5367  0.0514
 1525SOL    HW1 6098   1.014   2.496   2.097 -1.4315 -0.2820 -0.1798
 1525SOL    HW2 6099   0.966   2.553   1.965  0.0771 -0.1263 -0.6754
 1525SOL     MW 6100   1.029   2.516   2.014 -0.5634 -0.4515 -0.0712
 1526SOL     OW 6101   0.282   2.714   3.155  0.1261  0.2330 -0.2005
 1526SOL    HW1 6102   0.224   2.638   3.163  0.2426  0.0683 -0.8896
 1526SOL    HW2 6103   0.232   2.786   3.195  0.3873 -0.3793  1.2958
 1526SOL     MW 6104   0.268   2.714   3.161  0.1744  0.1336 -0.0972
 1527SOL     OW 6105   4.398   2.793   5.364 -0.1656  0.1628 -0.1068
 1527SOL    HW1 6106   4.453   2.864   5.398 -0.7197 -0.3581  2.0504
 1527SOL    HW2 6107   4.318   2.798   5.416 -0.7937 -1.1470 -0.9110
 1527SOL     MW 6108   4.395   2.803   5.375 -0.3169 -0.0716  0.0664
 1528SOL     OW 6109   4.165   5.048   4.336  0.2544 -0.1917 -0.2746
 1528SOL    HW1 6110   4.184   4.960   4.304  1.2373  0.0278 -0.3340
 1528SOL    HW2 6111   4.120   5.034   4.420 -0.1297 -0.7459 -0.5685
 1528SOL     MW 6112   4.162   5.035   4.343  0.3310 -0.2345 -0.3198
 1529SOL     OW 6113   1.681   1.727   4.702 -0.4090 -0.2161  0.9256
 1529SOL    HW1 6114   1.633   1.809   4.713 -1.8864 -0.6264 -1.6943
 1529SOL    HW2 6115   1.612   1.661   4.693  0.6120 -1.0664 -1.3319
 1529SOL     MW 6116   1.666   1.729   4.702 -0.4675 -0.3775  0.3012
 1530SOL     OW 6117   4.575   1.012   4.661  0.2797 -0.5196 -0.1760
 1530SOL    HW1 6118   4.620   1.022   4.577  0.9755  0.0646  0.2499
 1530SOL    HW2 6119   4.532   1.096   4.674  1.0095 -0.2356  0.5141
 1530SOL     MW 6120   4.575   1.024   4.652  0.4622 -0.4085 -0.0331
 1531SOL     OW 6121   5.257   4.549   0.521 -0.3641 -0.4721  0.4310
 1531SOL    HW1 6122   5.169   4.518   0.544 -0.9412  1.1906  0.6100
 1531SOL    HW2 6123   5.283   4.494   0.447 -1.7880 -0.6461  0.0268
 1531SOL     MW 6124   5.249   4.538   0.514 -0.6202 -0.2815  0.4022
 1532SOL     OW 6125   0.719   0.777   1.730  0.5685 -0.1549  0.3440
 1532SOL    HW1 6126   0.737   0.688   1.702  1.2209  0.1647 -0.2748
 1532SOL    HW2 6127   0.626   0.790   1.712  1.1517  0.3984 -2.7938
 1532SOL     MW 6128   0.710   0.767   1.724  0.7267 -0.0432 -0.1369
 1533SOL     OW 6129   2.733   4.750   2.656 -0.3270  0.3110 -0.2451
 1533SOL    HW1 6130   2.760   4.687   2.589 -0.1621  0.3615 -0.2256
 1533SOL    HW2 6131   2.645   4.775   2.630 -0.5047 -0.1421 -0.0978
 1533SOL     MW 6132   2.725   4.745   2.644 -0.3287  0.2595 -0.2238
 1534SOL     OW 6133   2.097   4.739   4.252  0.2580  0.1074  0.3982
 1534SOL    HW1 6134   2.167   4.723   4.189  0.1350  0.3364  0.1997
 1534SOL    HW2 6135   2.033   4.791   4.203 -1.6220 -2.8257 -0.4676
 1534SOL     MW 6136   2.098   4.744   4.237  0.0016 -0.2388  0.2620
 1535SOL     OW 6137   0.136   1.744   1.201 -0.0389  0.2914  0.0299
 1535SOL    HW1 6138   0.058   1.690   1.187 -0.3575  0.9829 -0.9544
 1535SOL    HW2 6139   0.208   1.692   1.165 -0.3097  0.3987 -0.6847
 1535SOL     MW 6140   0.135   1.730   1.195 -0.1143  0.3936 -0.1876
 1536SOL     OW 6141   2.997   1.014   1.960  0.5014 -0.0862 -0.3777
 1536SOL    HW1 6142   2.985   1.077   1.889  0.5998  1.5636  1.0027
 1536SOL    HW2 6143   3.079   0.970   1.940  0.1115 -0.2427 -1.7015
 1536SOL     MW 6144   3.006   1.017   1.948  0.4641  0.1050 -0.3705
 1537SOL     OW 6145   4.068   3.878   2.183  0.1962  0.3859  0.0239
 1537SOL    HW1 6146   4.030   3.953   2.229 -1.9932  0.1679 -1.3140
 1537SOL    HW2 6147   4.059   3.806   2.245  1.7415  1.0171  1.0715
 1537SOL     MW 6148   4.062   3.879   2.197  0.1137  0.4388 -0.0133
 1538SOL     OW 6149   0.014   1.552   3.078 -0.2747 -0.7012  0.1427
 1538SOL    HW1 6150   0.109   1.560   3.077 -0.3260  0.1475 -1.4359
 1538SOL    HW2 6151  -0.017   1.640   3.060 -1.3028 -1.3526 -1.4440
 1538SOL     MW 6152   0.022   1.564   3.076 -0.4129 -0.6760 -0.2625
 1539SOL     OW 6153   0.896   3.212   4.594 -0.2239 -0.1815  0.0340
 1539SOL    HW1 6154   0.918   3.199   4.686  1.4042 -1.8667 -0.5454
 1539SOL    HW2 6155   0.901   3.125   4.555  0.0941  0.6288 -1.8564
 1539SOL     MW 6156   0.899   3.199   4.600  0.0252 -0.2935 -0.2822
 1540SOL     OW 6157   4.905   1.380   4.343  0.1172 -0.6282 -0.2093
 1540SOL    HW1 6158   4.920   1.475   4.349 -2.1669 -0.1453 -1.1773
 1540SOL    HW2 6159   4.828   1.371   4.288 -0.4166 -3.0215  0.7826
 1540SOL     MW 6160   4.897   1.391   4.337 -0.2435 -0.8727 -0.2062
 1541SOL     OW 6161   2.405   0.364   0.638 -0.2347  0.0210  0.4917
 1541SOL    HW1 6162   2.335   0.299   0.641  1.1415 -1.5821 -0.2045
 1541SOL    HW2 6163   2.423   0.385   0.729 -0.7397 -0.5638  0.7325
 1541SOL     MW 6164   2.399   0.358   0.650 -0.1232 -0.2591  0.4334
 1542SOL     OW 6165   2.924   4.127   0.781  0.2029  0.2560  0.2451
 1542SOL    HW1 6166   2.841   4.176   0.784 -0.5747 -0.6005 -2.7871
 1542SOL    HW2 6167   2.898   4.039   0.755  1.9628 -0.4392  0.7334
 1542SOL     MW 6168   2.910   4.122   0.778  0.3287  0.0574 -0.0805
 1543SOL     OW 6169   4.307   3.064   4.366 -0.1438 -0.0315  0.2140
 1543SOL    HW1 6170   4.396   3.070   4.402 -0.0092  1.3242 -0.2770
 1543SOL    HW2 6171   4.250   3.068   4.443  0.2034 -0.1825  0.4818
 1543SOL     MW 6172   4.311   3.065   4.380 -0.0821  0.1227  0.1854
 1544SOL     OW 6173   2.999   4.382   3.230 -0.1040 -0.0385 -0.3015
 1544SOL    HW1 6174   3.041   4.434   3.160 -0.3683  2.1456  1.0602
 1544SOL    HW2 6175   2.949   4.446   3.280  0.5801 -1.3927  2.2899
 1544SOL     MW 6176   2.998   4.397   3.227 -0.0503  0.0678  0.2046
 1545SOL     OW 6177   4.668   2.341   4.356  0.3772 -0.5042 -0.5046
 1545SOL    HW1 6178   4.634   2.417   4.404  2.4108  0.4591 -0.4913
 1545SOL    HW2 6179   4.591   2.303   4.313 -1.1842 -0.2244  1.8831
 1545SOL     MW 6180   4.653   2.346   4.357  0.4376 -0.3451 -0.1973
 1546SOL     OW 6181   2.490   0.020   0.093  0.2582 -0.0604 -0.3243
 1546SOL    HW1 6182   2.449   0.104   0.113 -1.2154 -0.5708 -1.1106
 1546SOL    HW2 6183   2.474  -0.034   0.171  0.4222  0.0930 -0.1830
 1546SOL     MW 6184   2.483   0.024   0.106  0.0905 -0.1061 -0.4068
 1547SOL     OW 6185   2.093   3.026   5.263  0.3396  0.4117  0.3446
 1547SOL    HW1 6186   2.175   2.978   5.271 -0.2015 -0.6216 -0.2500
 1547SOL    HW2 6187   2.070   3.020   5.171  1.1350  3.3100 -0.1518
 1547SOL     MW 6188   2.101   3.019   5.253  0.3721  0.6504  0.2049
 1548SOL     OW 6189   2.227   5.407   2.080  0.4384 -0.0193 -0.0093
 1548SOL    HW1 6190   2.259   5.394   1.991  0.8613 -0.2280  0.1717
 1548SOL    HW2 6191   2.264   5.335   2.130 -2.1031 -1.5790 -0.2315
 1548SOL     MW 6192   2.236   5.396   2.075  0.1672 -0.2457 -0.0146
 1549SOL     OW 6193   2.216   4.243   4.978 -0.3301 -0.0945  0.0548
 1549SOL    HW1 6194   2.128   4.257   5.012 -0.3429  0.6930 -0.2708
 1549SOL    HW2 6195   2.272   4.238   5.056 -0.5755  0.0577  0.2413
 1549SOL     MW 6196   2.212   4.244   4.992 -0.3632  0.0258  0.0370
 1550SOL     OW 6197   1.797   2.452   0.048 -0.4532  0.5999 -0.2413
 1550SOL    HW1 6198   1.728   2.437  -0.017  0.3997  0.4839 -1.1393
 1550SOL    HW2 6199   1.844   2.528   0.016  1.3622 -0.7658 -0.9934
 1550SOL     MW 6200   1.794   2.459   0.036 -0.1116  0.4102 -0.4525
 1551SOL     OW 6201   2.111   0.387   1.136  0.2187 -0.2417 -0.1167
 1551SOL    HW1 6202   2.128   0.444   1.061  1.7644 -1.6256 -0.8810
 1551SOL    HW2 6203   2.194   0.385   1.184  0.6806 -2.9045 -0.8919
 1551SOL     MW 6204   2.124   0.394   1.133  0.4757 -0.7597 -0.3138
 1552SOL     OW 6205   5.263   3.390   0.129  0.1936  0.8839 -0.1826
 1552SOL    HW1 6206   5.190   3.434   0.084 -1.0949  0.4769  1.4003
 1552SOL    HW2 6207   5.221   3.342   0.200  1.9647  0.0488  0.3413
 1552SOL     MW 6208   5.248   3.390   0.133  0.2554  0.7249  0.0871
 1553SOL     OW 6209   5.372   3.612   0.859 -0.1007  0.4204  0.0252
 1553SOL    HW1 6210   5.384   3.679   0.926  2.4280 -0.8078  0.9377
 1553SOL    HW2 6211   5.301   3.557   0.892 -0.9956  1.5713  0.1110
 1553SOL     MW 6212   5.364   3.614   0.871  0.1085  0.4105  0.1530
 1554SOL     OW 6213   0.275   0.051   3.370 -0.2184 -0.2994  0.2022
 1554SOL    HW1 6214   0.269   0.121   3.305 -0.0972 -0.7252 -0.2759
 1554SOL    HW2 6215   0.234   0.087   3.448 -0.8056  0.0536 -0.2571
 1554SOL     MW 6216   0.269   0.065   3.371 -0.2780 -0.3087  0.0822
 1555SOL     OW 6217   0.716   4.101   4.866  0.6872 -0.1442  0.2024
 1555SOL    HW1 6218   0.760   4.111   4.781 -1.2914  0.9255 -0.7746
 1555SOL    HW2 6219   0.641   4.160   4.861 -0.2711 -1.1062  2.1823
 1555SOL     MW 6220   0.712   4.110   4.854  0.3112 -0.1304  0.3308
 1556SOL     OW 6221   3.212   0.892   1.643 -0.3602  0.1819 -0.6064
 1556SOL    HW1 6222   3.122   0.860   1.635  0.4383 -2.6032  0.3845
 1556SOL    HW2 6223   3.225   0.906   1.737  0.5345 -0.5639 -0.5954
 1556SOL     MW 6224   3.202   0.890   1.654 -0.1435 -0.2701 -0.4781
 1557SOL     OW 6225   3.650   0.898   1.690 -0.4690 -0.0276  0.2842
 1557SOL    HW1 6226   3.741   0.925   1.706 -0.7683 -0.3793  3.2209
 1557SOL    HW2 6227   3.652   0.803   1.698 -0.9962 -0.0942 -0.3133
 1557SOL     MW 6228   3.662   0.889   1.693 -0.5748 -0.0811  0.5837
 1558SOL     OW 6229   2.660   0.974   0.484  0.1482 -0.0462 -0.1240
 1558SOL    HW1 6230   2.627   1.042   0.542  0.8259  0.5695 -0.4316
 1558SOL    HW2 6231   2.598   0.971   0.411 -0.0428  0.0395  0.0370
 1558SOL     MW 6232   2.648   0.983   0.482  0.2105  0.0436 -0.1428
 1559SOL     OW 6233   0.995   5.455   4.535 -0.3533  0.0711  0.4266
 1559SOL    HW1 6234   1.018   5.392   4.466  1.3505  0.0557  0.9673
 1559SOL    HW2 6235   0.901   5.444   4.547 -0.5195 -0.6214 -1.2045
 1559SOL     MW 6236   0.986   5.446   4.528 -0.1564 -0.0195  0.2870
 1560SOL     OW 6237   2.757   2.100   0.661  0.5021 -0.1632  0.1244
 1560SOL    HW1 6238   2.713   2.053   0.732 -1.2365  1.6141  0.2796
 1560SOL    HW2 6239   2.793   2.178   0.703 -0.7338  1.0171 -0.9480
 1560SOL     MW 6240   2.756   2.104   0.676  0.1213  0.2154  0.0070
 1561SOL     OW 6241   3.730   2.788   0.608  0.1027  0.1881 -0.0526
 1561SOL    HW1 6242   3.820   2.757   0.611 -0.0674 -0.5184 -1.2872
 1561SOL    HW2 6243   3.683   2.729   0.667  0.5134  0.8683  0.9764
 1561SOL     MW 6244   3.735   2.776   0.616  0.1335  0.1848 -0.0789
 1562SOL     OW 6245   3.191   1.994   0.213  0.2935  0.2686 -0.0449
 1562SOL    HW1 6246   3.134   1.919   0.192  1.0031 -0.5710  0.9313
 1562SOL    HW2 6247   3.161   2.023   0.299  1.7482 -0.6297  0.8070
 1562SOL     MW 6248   3.180   1.988   0.221  0.5705  0.0461  0.1891
 1563SOL     OW 6249   0.354   4.403   3.302  0.6614 -0.1620 -0.3165
 1563SOL    HW1 6250   0.380   4.412   3.394 -1.7298  1.0324  0.3412
 1563SOL    HW2 6251   0.258   4.411   3.304  0.3543 -2.0764 -2.7185
 1563SOL     MW 6252   0.345   4.405   3.314  0.3160 -0.2541 -0.5398
 1564SOL     OW 6253   1.088   2.080   0.423  0.4259  0.4786  0.0272
 1564SOL    HW1 6254   1.036   2.110   0.498  0.3717 -1.8678  1.0037
 1564SOL    HW2 6255   1.178   2.103   0.446  0.2944  0.7556  0.2830
 1564SOL     MW 6256   1.093   2.087   0.436  0.4021  0.2137  0.1850
 1565SOL     OW 6257   3.884   0.523   3.854 -0.1892  0.4719  0.1859
 1565SOL    HW1 6258   3.825   0.450   3.871  1.1141 -0.4619  0.8055
 1565SOL    HW2 6259   3.971   0.489   3.873  0.9213  0.8792 -3.4535
 1565SOL     MW 6260   3.887   0.509   3.858  0.1198  0.4045 -0.2006
 1566SOL     OW 6261   4.928   4.273   0.476 -0.3879  0.0665 -0.2730
 1566SOL    HW1 6262   4.929   4.190   0.524  0.8373  0.1411 -0.1222
 1566SOL    HW2 6263   4.838   4.282   0.445 -0.7284 -0.9375  0.3629
 1566SOL     MW 6264   4.917   4.264   0.478 -0.2747 -0.0525 -0.1723
 1567SOL     OW 6265   4.489   2.610   0.071  0.0250 -0.2502 -0.4545
 1567SOL    HW1 6266   4.554   2.543   0.047 -0.4439 -0.8401 -0.1209
 1567SOL    HW2 6267   4.474   2.659  -0.010 -2.9368 -3.3851 -2.0578
 1567SOL     MW 6268   4.496   2.607   0.057 -0.4142 -0.7270 -0.6170
 1568SOL     OW 6269   1.213   4.537   2.173  0.2340  0.1382  0.3286
 1568SOL    HW1 6270   1.194   4.626   2.143  1.5217 -0.0196 -1.0661
 1568SOL    HW2 6271   1.225   4.486   2.093  2.2909 -0.6496  1.0747
 1568SOL     MW 6272   1.212   4.542   2.159  0.6621  0.0171  0.2455
 1569SOL     OW 6273   3.485   5.206   3.617  0.1789 -0.2752  0.1188
 1569SOL    HW1 6274   3.398   5.193   3.580  1.0723 -2.1593 -1.5399
 1569SOL    HW2 6275   3.505   5.123   3.661  1.8298 -0.6413 -1.1885
 1569SOL     MW 6276   3.477   5.193   3.618  0.5046 -0.5633 -0.2609
 1570SOL     OW 6277   4.071   0.805   0.247 -0.2925 -0.1783 -0.3313
 1570SOL    HW1 6278   3.992   0.853   0.271 -0.4603 -0.1162 -0.9843
 1570SOL    HW2 6279   4.104   0.769   0.330 -1.4672 -0.9186 -0.1580
 1570SOL     MW 6280   4.065   0.806   0.261 -0.4644 -0.2651 -0.3927
 1571SOL     OW 6281   2.233   1.132   1.852 -0.0450  0.0256 -0.0379
 1571SOL    HW1 6282   2.154   1.085   1.878  0.5551 -0.8490  0.2664
 1571SOL    HW2 6283   2.279   1.152   1.934  0.5638 -0.4244 -0.2556
 1571SOL     MW 6284   2.229   1.128   1.866  0.1098 -0.1440 -0.0268
 1572SOL     OW 6285   0.727   5.414   2.200  0.0560  0.3950 -0.6122
 1572SOL    HW1 6286   0.687   5.327   2.202  0.0525  0.4065  1.0831
 1572SOL    HW2 6287   0.662   5.471   2.243  0.3531  1.1077 -1.0935
 1572SOL     MW 6288   0.713   5.410   2.206  0.0936  0.4877 -0.4568
 1573SOL     OW 6289   1.161   1.833   1.988 -0.0629 -0.0524  0.3796
 1573SOL    HW1 6290   1.215   1.757   2.010 -0.2737 -0.5966 -0.9211
 1573SOL    HW2 6291   1.098   1.800   1.924 -1.3499  0.7939  1.1457
 1573SOL     MW 6292   1.160   1.819   1.983 -0.2547 -0.0137  0.3112
 1574SOL     OW 6293   5.027   1.337   1.755  0.1962 -0.2193 -0.3079
 1574SOL    HW1 6294   4.974   1.359   1.832  1.8247 -0.4096  0.9277
 1574SOL    HW2 6295   4.964   1.307   1.690 -1.3496  1.0583  0.5364
 1574SOL     MW 6296   5.012   1.335   1.756  0.2068 -0.0801 -0.0417
 1575SOL     OW 6297   4.042   1.071   3.518 -0.2167 -0.0439  0.1403
 1575SOL    HW1 6298   3.989   1.020   3.457 -1.5174  0.4284  0.8407
 1575SOL    HW2 6299   4.049   1.157   3.477  1.0012 -0.4102 -0.4857
 1575SOL     MW 6300   4.036   1.075   3.505 -0.2273 -0.0303  0.1498
 1576SOL     OW 6301   2.179   3.356   1.533  0.3111  0.6923  0.4852
 1576SOL    HW1 6302   2.244   3.396   1.474  0.5864  0.8084  0.8654
 1576SOL    HW2 6303   2.099   3.406   1.517  0.6435  1.3775  0.9265
 1576SOL     MW 6304   2.177   3.368   1.523  0.3889  0.7949  0.5904
 1577SOL     OW 6305   4.890   3.389   1.263 -0.0076 -0.7809 -0.2422
 1577SOL    HW1 6306   4.980   3.397   1.294 -0.1077  0.1241 -0.1556
 1577SOL    HW2 6307   4.854   3.314   1.312  0.6390 -1.0484 -0.1621
 1577SOL     MW 6308   4.897   3.380   1.273  0.0624 -0.6993 -0.2209
 1578SOL     OW 6309   2.263   5.292   3.489 -0.4055  0.2915 -0.5998
 1578SOL    HW1 6310   2.194   5.328   3.546 -0.4672 -0.3807 -0.2365
 1578SOL    HW2 6311   2.215   5.243   3.422 -0.5578  3.6700 -3.2563
 1578SOL     MW 6312   2.248   5.290   3.488 -0.4329  0.6379 -0.8934
 1579SOL     OW 6313   4.981   1.859   3.414 -0.2903 -0.3138  0.1288
 1579SOL    HW1 6314   4.966   1.766   3.401 -1.4841  0.0786 -1.7541
 1579SOL    HW2 6315   4.898   1.892   3.450  0.0933  0.0528  0.7009
 1579SOL     MW 6316   4.969   1.852   3.417 -0.3940 -0.2166 -0.0390
 1580SOL     OW 6317   1.270   1.981   4.788 -0.2051  0.1651  0.4974
 1580SOL    HW1 6318   1.211   2.029   4.845 -1.2473  0.2790 -0.6407
 1580SOL    HW2 6319   1.227   1.981   4.703  0.3769 -1.6610  0.1557
 1580SOL     MW 6320   1.257   1.987   4.785 -0.2640 -0.0541  0.3080
 1581SOL     OW 6321   3.117   3.242   3.516 -0.0588 -0.1307  0.3243
 1581SOL    HW1 6322   3.046   3.185   3.546 -0.3078  1.0019  2.0055
 1581SOL    HW2 6323   3.073   3.323   3.489  0.2843 -0.6846 -2.1289
 1581SOL     MW 6324   3.102   3.245   3.516 -0.0468 -0.0566  0.2255
 1582SOL     OW 6325   0.517   2.737   0.805 -0.0872  0.0862  0.3904
 1582SOL    HW1 6326   0.458   2.731   0.880  0.1848 -0.7415  0.5550
 1582SOL    HW2 6327   0.495   2.820   0.763 -1.9111 -0.5323  0.0126
 1582SOL     MW 6328   0.506   2.747   0.809 -0.2859 -0.0989  0.3631
 1583SOL     OW 6329   2.541   2.530   0.632  0.1977  0.4415  0.2113
 1583SOL    HW1 6330   2.560   2.473   0.558  3.0360  1.5278 -0.0473
 1583SOL    HW2 6331   2.451   2.558   0.619  0.0135 -0.8726 -1.7859
 1583SOL     MW 6332   2.532   2.526   0.621  0.5374  0.4123 -0.0775
 1584SOL     OW 6333   1.995   2.352   3.706 -0.2060 -0.2786 -0.9334
 1584SOL    HW1 6334   2.073   2.316   3.748 -0.9843 -0.0192  0.8130
 1584SOL    HW2 6335   1.940   2.277   3.689 -0.3788 -0.2718 -0.4161
 1584SOL     MW 6336   1.998   2.338   3.709 -0.3278 -0.2445 -0.6437
 1585SOL     OW 6337   1.850   2.758   3.079  0.0328  0.2851 -0.1388
 1585SOL    HW1 6338   1.819   2.839   3.037 -0.0818  0.6934  0.7176
 1585SOL    HW2 6339   1.907   2.718   3.013  1.0310  1.6610 -0.1701
 1585SOL     MW 6340   1.853   2.763   3.065  0.1459  0.5135 -0.0332
 1586SOL     OW 6341   2.717   0.466   2.891 -0.0235 -0.4117  0.0048
 1586SOL    HW1 6342   2.780   0.424   2.950  0.2320 -2.0957 -1.3931
 1586SOL    HW2 6343   2.768   0.533   2.845  0.5386 -1.1496 -0.4632
 1586SOL     MW 6344   2.732   0.469   2.893  0.0811 -0.7218 -0.2340
 1587SOL     OW 6345   4.866   3.650   2.728 -0.0716 -0.4015 -0.0778
 1587SOL    HW1 6346   4.921   3.705   2.672 -2.0288 -0.2479 -1.9994
 1587SOL    HW2 6347   4.781   3.695   2.730 -0.9729 -2.0370  0.4146
 1587SOL     MW 6348   4.862   3.663   2.721 -0.4375 -0.5912 -0.2607
 1588SOL     OW 6349   3.306   1.545   0.065 -0.1802  0.2431  0.1667
 1588SOL    HW1 6350   3.318   1.625   0.116  3.1625 -0.4250  0.6654
 1588SOL    HW2 6351   3.294   1.476   0.131 -0.3622 -0.0296 -0.1486
 1588SOL     MW 6352   3.306   1.546   0.080  0.2244  0.1226  0.1902
 1589SOL     OW 6353   1.650   1.961   1.942 -0.1322 -0.5314 -0.2585
 1589SOL    HW1 6354   1.628   2.047   1.907 -0.5691 -0.7703 -0.5862
 1589SOL    HW2 6355   1.717   1.927   1.882  1.5029  0.3619  0.9666
 1589SOL     MW 6356   1.656   1.968   1.930  0.0212 -0.4476 -0.1436
 1590SOL     OW 6357   0.122   2.164   4.704  0.7561  0.0713  0.4418
 1590SOL    HW1 6358   0.082   2.177   4.618 -0.6255  0.7092  1.1400
 1590SOL    HW2 6359   0.133   2.069   4.711  1.6125  0.0613 -0.7316
 1590SOL     MW 6360   0.118   2.154   4.694  0.6889  0.1517  0.3810
 1591SOL     OW 6361   3.528   2.177   3.491 -0.5763 -0.0080 -0.2375
 1591SOL    HW1 6362   3.559   2.260   3.528 -0.2626  0.1431 -0.8309
 1591SOL    HW2 6363   3.577   2.110   3.540 -1.4734  0.1012  0.8581
 1591SOL     MW 6364   3.538   2.179   3.502 -0.6510  0.0254 -0.1732
 1592SOL     OW 6365   4.603   4.302   0.454 -0.6332 -0.1551  0.4204
 1592SOL    HW1 6366   4.567   4.259   0.376  0.4505  0.8623 -0.6953
 1592SOL    HW2 6367   4.595   4.236   0.523 -2.1114 -0.9030 -0.4000
 1592SOL     MW 6368   4.597   4.288   0.453 -0.6837 -0.1206  0.1725
 1593SOL     OW 6369   0.531   5.350   0.618  0.0959  0.0275  0.1935
 1593SOL    HW1 6370   0.514   5.341   0.525 -0.4383  1.0965  0.1754
 1593SOL    HW2 6371   0.463   5.298   0.661  0.7898 -1.0883 -0.0046
 1593SOL     MW 6372   0.520   5.342   0.612  0.1163  0.0215  0.1658
 1594SOL     OW 6373   2.914   5.304   3.841 -0.1251  0.0579  0.1849
 1594SOL    HW1 6374   2.878   5.315   3.929  0.8460 -0.5767  0.6870
 1594SOL    HW2 6375   2.974   5.378   3.830  0.0496 -0.0783  0.2151
 1594SOL     MW 6376   2.917   5.315   3.851  0.0215 -0.0408  0.2530
 1595SOL     OW 6377   3.357   2.416   3.823  0.0488  0.0822  0.3440
 1595SOL    HW1 6378   3.376   2.403   3.915  0.2767 -1.2937  0.1148
 1595SOL    HW2 6379   3.442   2.412   3.779 -0.2335 -1.1179 -0.1229
 1595SOL     MW 6380   3.370   2.414   3.829  0.0418 -0.2476  0.2549
 1596SOL     OW 6381   4.394   3.832   2.821  0.4595  0.0700  0.0410
 1596SOL    HW1 6382   4.379   3.856   2.730  1.6690  1.6756  0.2349
 1596SOL    HW2 6383   4.306   3.818   2.857 -0.2940  2.9596 -0.4638
 1596SOL     MW 6384   4.381   3.833   2.814  0.5179  0.6454  0.0012
 1597SOL     OW 6385   0.730   2.651   3.815  0.3617 -0.2439  0.2576
 1597SOL    HW1 6386   0.709   2.665   3.723  0.1654  1.2052  0.4877
 1597SOL    HW2 6387   0.692   2.727   3.860 -3.4656 -2.9396  2.1946
 1597SOL     MW 6388   0.723   2.663   3.809 -0.1534 -0.4035  0.5350
 1598SOL     OW 6389   3.220   3.374   2.460 -0.2401 -0.1805 -0.2153
 1598SOL    HW1 6390   3.241   3.318   2.385  0.0852  1.0468 -1.0870
 1598SOL    HW2 6391   3.277   3.451   2.448 -0.9764  0.5269  0.6929
 1598SOL     MW 6392   3.230   3.377   2.449 -0.2927  0.0671 -0.2106
 1599SOL     OW 6393   3.688   1.556   2.975 -0.0589  0.1010  0.3185
 1599SOL    HW1 6394   3.734   1.582   2.895  0.3044 -1.0096  0.1479
 1599SOL    HW2 6395   3.621   1.495   2.945 -1.2537  1.2083  0.6418
 1599SOL     MW 6396   3.685   1.551   2.961 -0.1654  0.1006  0.3380
 1600SOL     OW 6397   0.172   3.690   3.846  0.1995  0.4190 -0.0581
 1600SOL    HW1 6398   0.123   3.749   3.904 -0.1930  1.4940 -1.4553
 1600SOL    HW2 6399   0.205   3.745   3.776 -0.4201 -1.0487 -1.5778
 1600SOL     MW 6400   0.170   3.704   3.845  0.0699  0.3687 -0.4315
 1601SOL     OW 6401   3.756   5.033   0.807 -0.6152 -0.1605 -0.3309
 1601SOL    HW1 6402   3.753   5.039   0.903 -1.8520 -0.9328 -0.3036
 1601SOL    HW2 6403   3.772   4.940   0.789  1.4812  0.2536 -0.8821
 1601SOL     MW 6404   3.758   5.022   0.817 -0.5051 -0.2063 -0.3979
 1602SOL     OW 6405   4.582   2.529   0.308  0.0176 -0.5634 -0.4006
 1602SOL    HW1 6406   4.540   2.562   0.229  0.3120 -1.8080 -1.1036
 1602SOL    HW2 6407   4.574   2.434   0.302  1.9383 -0.7982 -0.0298
 1602SOL     MW 6408   4.576   2.521   0.297  0.3012 -0.7528 -0.4432
 1603SOL     OW 6409   4.227   2.887   0.302 -0.2992  0.4759  0.6722
 1603SOL    HW1 6410   4.159   2.863   0.366  0.2078 -0.9716  0.7250
 1603SOL    HW2 6411   4.195   2.853   0.219 -0.0108  0.4918  0.5521
 1603SOL     MW 6412   4.214   2.879   0.300 -0.1974  0.2927  0.6636
 1604SOL     OW 6413   3.883   3.239   1.632 -0.4609  0.1382 -0.1456
 1604SOL    HW1 6414   3.882   3.293   1.553 -1.8367  0.2579 -0.0671
 1604SOL    HW2 6415   3.817   3.278   1.689 -0.5417 -0.8440  0.4594
 1604SOL     MW 6416   3.875   3.251   1.629 -0.6474  0.0278 -0.0581
 1605SOL     OW 6417   3.636   4.242   4.331  0.3128  0.8706  0.4305
 1605SOL    HW1 6418   3.688   4.211   4.405  1.9308  3.7140  0.6206
 1605SOL    HW2 6419   3.699   4.286   4.274 -1.3410  1.1924 -1.2523
 1605SOL     MW 6420   3.651   4.243   4.334  0.3082  1.2758  0.2394
 1606SOL     OW 6421   2.539   2.104   4.804 -0.4118  0.5027  0.2771
 1606SOL    HW1 6422   2.554   2.014   4.778 -0.2285  0.1474  1.5270
 1606SOL    HW2 6423   2.627   2.142   4.813 -0.4969  1.0073 -0.8583
 1606SOL     MW 6424   2.552   2.097   4.802 -0.3992  0.5218  0.2918
 1607SOL     OW 6425   1.755   4.302   3.872  0.1459 -0.0214 -0.2571
 1607SOL    HW1 6426   1.847   4.313   3.897  0.1652 -0.2598 -0.2224
 1607SOL    HW2 6427   1.757   4.234   3.804 -0.1702 -1.2462  0.9170
 1607SOL     MW 6428   1.767   4.294   3.867  0.1079 -0.2087 -0.1024
 1608SOL     OW 6429   1.124   0.499   3.807 -0.3873  0.6094  0.1158
 1608SOL    HW1 6430   1.208   0.513   3.765 -0.2590  0.1503  0.2111
 1608SOL    HW2 6431   1.137   0.527   3.898  0.2561 -1.2916  0.6516
 1608SOL     MW 6432   1.136   0.504   3.814 -0.2885  0.3072  0.1966
 1609SOL     OW 6433   5.248   0.956   2.629  0.6300 -0.2150  0.2238
 1609SOL    HW1 6434   5.231   1.009   2.551  0.9729 -0.0498  0.2624
 1609SOL    HW2 6435   5.162   0.921   2.653  0.6466 -0.9925 -0.7587
 1609SOL     MW 6436   5.235   0.958   2.622  0.6760 -0.2934  0.1030
 1610SOL     OW 6437   1.294   1.432   1.758 -0.2853  0.0465 -0.5624
 1610SOL    HW1 6438   1.285   1.338   1.745 -0.4112 -0.0614  0.2532
 1610SOL    HW2 6439   1.370   1.457   1.704 -2.3074  0.1207 -3.5965
 1610SOL     MW 6440   1.303   1.424   1.749 -0.5603  0.0422 -0.8464
 1611SOL     OW 6441   1.727   1.149   0.153 -0.6779 -0.0801  0.1624
 1611SOL    HW1 6442   1.705   1.238   0.181 -0.6741  0.0356 -0.1989
 1611SOL    HW2 6443   1.822   1.147   0.152 -0.6786 -0.0442  0.0306
 1611SOL     MW 6444   1.736   1.160   0.157 -0.6775 -0.0607  0.0993
 1612SOL     OW 6445   4.854   2.737   1.691 -0.0309 -0.2422  0.4648
 1612SOL    HW1 6446   4.870   2.772   1.603 -0.1972 -0.4936  0.3329
 1612SOL    HW2 6447   4.767   2.697   1.685 -0.0652 -0.2100  0.7599
 1612SOL     MW 6448   4.845   2.736   1.679 -0.0566 -0.2703  0.4857
 1613SOL     OW 6449   1.399   0.395   3.966  0.4365  0.3919 -0.4977
 1613SOL    HW1 6450   1.419   0.443   4.047 -0.1411  0.4143 -0.3662
 1613SOL    HW2 6451   1.404   0.461   3.897  0.1098  0.5444 -0.3765
 1613SOL     MW 6452   1.402   0.409   3.968  0.3208  0.4143 -0.4653
 1614SOL     OW 6453   2.566   4.035   3.734  0.3635  0.5668  0.4312
 1614SOL    HW1 6454   2.538   3.944   3.744  1.6797  0.1708  0.7786
 1614SOL    HW2 6455   2.570   4.049   3.640  2.6137 -0.5950  0.2838
 1614SOL     MW 6456   2.563   4.025   3.723  0.8200  0.3674  0.4568
 1615SOL     OW 6457   4.163   2.722   2.688  0.6390 -0.0089 -0.0692
 1615SOL    HW1 6458   4.136   2.684   2.772  1.0666 -1.0595 -0.3821
 1615SOL    HW2 6459   4.169   2.646   2.630 -1.0494  0.8538 -1.4555
 1615SOL     MW 6460   4.160   2.707   2.692  0.4776 -0.0330 -0.2867
 1616SOL     OW 6461   2.949   0.107   2.920 -0.0385 -0.4046  0.5595
 1616SOL    HW1 6462   2.941   0.019   2.882 -1.2332  0.8007 -2.2876
 1616SOL    HW2 6463   2.860   0.128   2.949  0.1629  0.0036  0.8742
 1616SOL     MW 6464   2.936   0.098   2.919 -0.1656 -0.1981  0.2353
 1617SOL     OW 6465   0.587   4.978   4.188  0.1997  0.9334 -0.2102
 1617SOL    HW1 6466   0.562   5.028   4.110 -1.0092  0.7034  0.0141
 1617SOL    HW2 6467   0.682   4.973   4.184  0.3336  2.9110 -0.4592
 1617SOL     MW 6468   0.596   4.984   4.178  0.0620  1.1571 -0.2134
 1618SOL     OW 6469   4.006   3.687   2.366  0.2103 -0.3259 -0.1779
 1618SOL    HW1 6470   3.984   3.700   2.458 -1.8808 -0.1200 -0.6620
 1618SOL    HW2 6471   3.922   3.668   2.324  1.1333 -0.4717 -2.0378
 1618SOL     MW 6472   3.993   3.686   2.373  0.0607 -0.3182 -0.4779
 1619SOL     OW 6473   5.504   0.318   5.196 -0.2802 -0.0790 -0.3246
 1619SOL    HW1 6474   5.464   0.377   5.260 -1.7783 -1.4878  0.1017
 1619SOL    HW2 6475   5.445   0.320   5.121  0.0734 -0.4567 -0.6176
 1619SOL     MW 6476   5.491   0.326   5.194 -0.4267 -0.3077 -0.3075
 1620SOL     OW 6477   1.990   3.404   0.124  0.0885 -0.4056 -1.0310
 1620SOL    HW1 6478   1.955   3.485   0.087  0.6628  0.4305  0.1548
 1620SOL    HW2 6479   1.913   3.354   0.149 -0.2825  0.2760 -0.7674
 1620SOL     MW 6480   1.976   3.408   0.123  0.1145 -0.2113 -0.8455
 1621SOL     OW 6481   2.183   5.094   4.054  1.2551  0.1412 -0.0331
 1621SOL    HW1 6482   2.114   5.109   3.988  1.1765 -2.5638 -0.7121
 1621SOL    HW2 6483   2.140   5.109   4.138 -0.2958 -1.5822 -0.4412
 1621SOL     MW 6484   2.169   5.098   4.056  1.0465 -0.4257 -0.1723
 1622SOL     OW 6485   4.729   4.720   2.169  0.2652 -0.5321 -0.1332
 1622SOL    HW1 6486   4.781   4.654   2.124  1.0028 -0.7469  1.0033
 1622SOL    HW2 6487   4.786   4.797   2.172 -0.5919  0.1864 -1.4605
 1622SOL     MW 6488   4.743   4.722   2.164  0.2499 -0.4676 -0.1576
 1623SOL     OW 6489   0.218   1.368   5.068  0.0190  0.1594  0.4131
 1623SOL    HW1 6490   0.259   1.430   5.007 -0.7533  0.9653  0.6756
 1623SOL    HW2 6491   0.124   1.383   5.056 -0.1738  1.6444  3.0428
 1623SOL     MW 6492   0.211   1.378   5.059 -0.1046  0.4527  0.7833
 1624SOL     OW 6493   4.206   1.151   5.270  0.0189  0.4032  0.0540
 1624SOL    HW1 6494   4.162   1.083   5.321 -0.0414  0.8254  0.5847
 1624SOL    HW2 6495   4.299   1.134   5.283  0.0049  0.2703 -0.0203
 1624SOL     MW 6496   4.212   1.140   5.278  0.0094  0.4403  0.1124
 1625SOL     OW 6497   2.490   3.570   3.114  0.6526  0.0184  0.0858
 1625SOL    HW1 6498   2.415   3.629   3.105  0.9981  0.4977  0.2616
 1625SOL    HW2 6499   2.508   3.569   3.208  0.3583 -0.7449  0.1371
 1625SOL     MW 6500   2.483   3.577   3.125  0.6592 -0.0180  0.1149
 1626SOL     OW 6501   0.594   3.919   5.159 -0.3708  0.6374  0.0565
 1626SOL    HW1 6502   0.511   3.901   5.203 -0.3346  0.6299  0.1221
 1626SOL    HW2 6503   0.571   3.924   5.066 -0.3697  0.1924  0.0304
 1626SOL     MW 6504   0.581   3.917   5.152 -0.3661  0.5794  0.0615
 1627SOL     OW 6505   2.400   0.632   4.346 -0.7219  0.2527  0.0073
 1627SOL    HW1 6506   2.492   0.645   4.370 -0.8421  0.3907  0.4114
 1627SOL    HW2 6507   2.395   0.662   4.256 -0.1412 -0.7845 -0.3942
 1627SOL     MW 6508   2.411   0.638   4.338 -0.6629  0.1376  0.0077
 1628SOL     OW 6509   0.624   5.243   1.552 -0.6565 -0.5433 -0.3519
 1628SOL    HW1 6510   0.632   5.149   1.534 -0.5810 -0.5807 -0.1204
 1628SOL    HW2 6511   0.602   5.282   1.467  0.1427 -0.6684 -0.6218
 1628SOL     MW 6512   0.622   5.236   1.539 -0.5445 -0.5641 -0.3568
 1629SOL     OW 6513   3.869   0.558   5.151  0.0660  0.3415 -0.4272
 1629SOL    HW1 6514   3.943   0.611   5.180  0.8817 -0.9967  0.0618
 1629SOL    HW2 6515   3.873   0.480   5.208  0.4693 -1.4402 -2.7488
 1629SOL     MW 6516   3.879   0.555   5.162  0.2220 -0.0579 -0.6618
 1630SOL     OW 6517   4.682   4.356   2.362  0.1241 -0.7413  0.1372
 1630SOL    HW1 6518   4.710   4.443   2.392  0.7496 -0.9216  0.0864
 1630SOL    HW2 6519   4.751   4.328   2.302  0.3160 -1.6083  0.7429
 1630SOL     MW 6520   4.694   4.364   2.358  0.2288 -0.8754  0.2083
 1631SOL     OW 6521   5.037   3.032   2.886  0.2508  0.6965  0.0018
 1631SOL    HW1 6522   5.054   3.039   2.792 -0.0173 -0.0621 -0.1079
 1631SOL    HW2 6523   4.956   2.980   2.892  0.8792 -0.2221  0.6853
 1631SOL     MW 6524   5.028   3.026   2.875  0.2970  0.4818  0.0753
 1632SOL     OW 6525   3.685   3.451   0.460  0.1057  0.0369 -0.1041
 1632SOL    HW1 6526   3.673   3.378   0.520  1.5563 -0.6518 -0.5976
 1632SOL    HW2 6527   3.688   3.410   0.373 -3.1416  1.1098 -0.8608
 1632SOL     MW 6528   3.684   3.436   0.456 -0.1243  0.0861 -0.2641
 1633SOL     OW 6529   2.673   1.059   1.248  0.3277 -0.0427 -0.0358
 1633SOL    HW1 6530   2.737   1.124   1.219  0.1928  0.3853  0.6034
 1633SOL    HW2 6531   2.653   1.085   1.338 -1.0567  0.0820 -0.3634
 1633SOL     MW 6532   2.679   1.071   1.256  0.1332  0.0281  0.0041
 1634SOL     OW 6533   4.603   3.482   4.272 -0.2132  0.3869  0.5036
 1634SOL    HW1 6534   4.525   3.534   4.255  0.8268  1.7938 -0.1784
 1634SOL    HW2 6535   4.623   3.499   4.364 -2.5482 -2.6511  1.7290
 1634SOL     MW 6536   4.595   3.491   4.282 -0.3790  0.1781  0.5732
 1635SOL     OW 6537   2.936   5.364   2.056  0.1226  0.0215  0.1082
 1635SOL    HW1 6538   2.970   5.310   1.984 -0.4492 -0.4554  0.1836
 1635SOL    HW2 6539   2.995   5.439   2.061  0.8568 -0.5400 -0.0869
 1635SOL     MW 6540   2.948   5.367   2.048  0.1434 -0.1114  0.0929
 1636SOL     OW 6541   5.424   0.155   0.340 -0.1863 -0.1164 -0.3396
 1636SOL    HW1 6542   5.511   0.116   0.343 -0.3697 -0.5236  2.0053
 1636SOL    HW2 6543   5.440   0.249   0.328  0.7380  0.0293  1.5836
 1636SOL     MW 6544   5.437   0.162   0.339 -0.0915 -0.1499  0.2068
 1637SOL     OW 6545   0.987   3.343   0.440  0.2469 -0.4202 -0.0116
 1637SOL    HW1 6546   0.970   3.323   0.532 -0.7438 -0.0021 -0.0947
 1637SOL    HW2 6547   0.910   3.393   0.411  0.7955 -0.0737 -0.9178
 1637SOL     MW 6548   0.975   3.347   0.448  0.1903 -0.3224 -0.1382
 1638SOL     OW 6549   3.278   5.021   5.236 -0.4247  0.4959 -0.3660
 1638SOL    HW1 6550   3.363   5.041   5.196 -0.2739  2.5667  0.8384
 1638SOL    HW2 6551   3.218   5.084   5.196 -1.2018 -0.2963 -0.4718
 1638SOL     MW 6552   3.282   5.032   5.226 -0.5049  0.6596 -0.2254
 1639SOL     OW 6553   0.398   0.825   4.072  0.1331 -0.1697  0.0642
 1639SOL    HW1 6554   0.485   0.816   4.032  0.2000 -0.1182  0.1977
 1639SOL    HW2 6555   0.405   0.778   4.155  0.0929  0.0045  0.1665
 1639SOL     MW 6556   0.410   0.818   4.078  0.1365 -0.1408  0.0944
 1640SOL     OW 6557   3.240   4.943   2.677  0.1701 -0.0549  0.0260
 1640SOL    HW1 6558   3.184   4.922   2.602 -1.2016  0.4533  0.8598
 1640SOL    HW2 6559   3.250   5.038   2.672  3.1769 -0.3514 -1.5783
 1640SOL     MW 6560   3.234   4.953   2.667  0.3794 -0.0278 -0.0726
 1641SOL     OW 6561   1.545   4.888   4.958 -0.4354 -0.3930  0.0774
 1641SOL    HW1 6562   1.633   4.913   4.929  0.4015 -3.9040 -0.8592
 1641SOL    HW2 6563   1.487   4.923   4.891  0.3102  0.9095  0.0588
 1641SOL     MW 6564   1.549   4.896   4.946 -0.2329 -0.6757 -0.0448
 1642SOL     OW 6565   0.980   2.190   1.344  0.2557  0.5547 -0.0015
 1642SOL    HW1 6566   0.913   2.256   1.361  0.0997  0.3000  0.3942
 1642SOL    HW2 6567   1.040   2.197   1.418  0.3279  0.3668 -0.0419
 1642SOL     MW 6568   0.979   2.199   1.356  0.2450  0.4980  0.0440
 1643SOL     OW 6569   2.530   0.312   4.938  0.1205  0.2077 -0.0689
 1643SOL    HW1 6570   2.545   0.284   5.028  1.3029  1.9843  0.3207
 1643SOL    HW2 6571   2.439   0.340   4.936 -0.1469 -0.5839  0.3314
 1643SOL     MW 6572   2.521   0.312   4.949  0.2376  0.3338  0.0322
 1644SOL     OW 6573   0.987   4.582   1.044 -0.0776  0.2541  0.4214
 1644SOL    HW1 6574   1.007   4.675   1.050 -0.7067  0.3419  1.5222
 1644SOL    HW2 6575   1.048   4.540   1.105  0.2342 -0.0664 -0.1034
 1644SOL     MW 6576   0.997   4.589   1.053 -0.1182  0.2243  0.4951
 1645SOL     OW 6577   4.643   0.538   1.437 -0.0106  0.1049  0.2118
 1645SOL    HW1 6578   4.705   0.542   1.364 -0.9198  1.0244 -0.5452
 1645SOL    HW2 6579   4.696   0.552   1.515  0.6671  1.4076 -0.4571
 1645SOL     MW 6580   4.658   0.540   1.438 -0.0403  0.3893  0.0293
 1646SOL     OW 6581   1.042   1.639   3.434 -0.7260  0.0989  0.5213
 1646SOL    HW1 6582   0.975   1.586   3.478  0.2831  0.4364  2.5879
 1646SOL    HW2 6583   1.038   1.612   3.342 -3.6829  0.1383  0.5537
 1646SOL     MW 6584   1.033   1.629   3.428 -0.9754  0.1471  0.7900
 1647SOL     OW 6585   1.992   2.862   1.811 -0.1556 -0.1373 -0.3396
 1647SOL    HW1 6586   2.045   2.883   1.888  0.6143 -0.0689 -0.8816
 1647SOL    HW2 6587   2.054   2.826   1.748 -0.6421  0.5141 -1.2140
 1647SOL     MW 6588   2.006   2.860   1.813 -0.1193 -0.0452 -0.5209
 1648SOL     OW 6589   2.189   2.147   3.730 -0.3054 -0.1571  0.2809
 1648SOL    HW1 6590   2.150   2.062   3.751 -1.2268  0.1731 -0.0102
 1648SOL    HW2 6591   2.246   2.167   3.803 -0.8085 -0.6015  0.8011
 1648SOL     MW 6592   2.191   2.139   3.742 -0.4877 -0.1718  0.3102
 1649SOL     OW 6593   3.310   4.370   4.129 -0.0343 -0.2267  0.6450
 1649SOL    HW1 6594   3.401   4.376   4.157  0.2277  0.1141 -0.2246
 1649SOL    HW2 6595   3.267   4.445   4.171  0.3609  0.3077  0.1252
 1649SOL     MW 6596   3.316   4.380   4.138  0.0498 -0.1147  0.4672
 1650SOL     OW 6597   4.353   4.407   2.982  0.0832 -0.6663 -0.4464
 1650SOL    HW1 6598   4.303   4.438   3.058  0.4219  0.0599 -0.5079
 1650SOL    HW2 6599   4.326   4.466   2.912  0.4126 -0.8010 -0.6840
 1650SOL     MW 6600   4.343   4.419   2.983  0.1688 -0.5906 -0.4847
 1651SOL     OW 6601   2.746   4.988   5.385  0.4918  0.1339 -0.2094
 1651SOL    HW1 6602   2.672   4.942   5.347 -0.4182  1.2485  0.1579
 1651SOL    HW2 6603   2.716   5.013   5.473  1.2481  0.7053 -0.1019
 1651SOL     MW 6604   2.733   4.986   5.392  0.4721  0.3497 -0.1486
 1652SOL     OW 6605   3.234   3.562   3.703 -0.3779  0.6235  0.5581
 1652SOL    HW1 6606   3.222   3.480   3.751  0.6549  0.8945  1.3178
 1652SOL    HW2 6607   3.165   3.561   3.636 -0.4564 -0.8010  0.6253
 1652SOL     MW 6608   3.224   3.552   3.701 -0.2557  0.4759  0.6639
 1653SOL     OW 6609   3.194   1.608   0.688 -0.3403  0.0225  0.1274
 1653SOL    HW1 6610   3.107   1.637   0.714  0.1680  2.1941 -0.4119
 1653SOL    HW2 6611   3.209   1.649   0.602  1.5015  0.3343  0.5500
 1653SOL     MW 6612   3.185   1.617   0.680 -0.0395  0.3404  0.1124
 1654SOL     OW 6613   5.390   3.844   5.335 -0.4871 -0.1058  0.2139
 1654SOL    HW1 6614   5.322   3.841   5.402 -0.5123  1.2097  0.2770
 1654SOL    HW2 6615   5.393   3.936   5.309  2.1984  0.1813  1.2054
 1654SOL     MW 6616   5.382   3.856   5.341 -0.1465  0.0994  0.3489
 1655SOL     OW 6617   1.838   0.416   3.612 -0.8887  0.2769  0.8407
 1655SOL    HW1 6618   1.755   0.370   3.605 -0.4734 -0.7131  2.0475
 1655SOL    HW2 6619   1.860   0.413   3.705  0.4664  0.5760  0.5572
 1655SOL     MW 6620   1.830   0.410   3.623 -0.6621  0.1885  0.9589
 1656SOL     OW 6621   5.375   0.396   4.885  0.5889 -0.0429 -0.5051
 1656SOL    HW1 6622   5.327   0.314   4.875  1.2008 -0.3105 -1.4300
 1656SOL    HW2 6623   5.466   0.372   4.866  0.9851  0.5909  0.5264
 1656SOL     MW 6624   5.381   0.382   4.881  0.7179  0.0040 -0.4915
 1657SOL     OW 6625   5.255   4.234   0.859 -0.1753 -0.5771 -0.2729
 1657SOL    HW1 6626   5.161   4.254   0.854 -0.3021 -1.1294 -0.2055
 1657SOL    HW2 6627   5.297   4.305   0.811 -0.6444 -0.4296 -0.4733
 1657SOL     MW 6628   5.248   4.246   0.852 -0.2516 -0.6289 -0.2899
 1658SOL     OW 6629   3.879   1.408   1.187  0.3221  0.1131 -0.6614
 1658SOL    HW1 6630   3.961   1.370   1.154 -0.2598 -0.1370 -1.8486
 1658SOL    HW2 6631   3.855   1.352   1.261  3.1941  2.4006  2.3177
 1658SOL     MW 6632   3.887   1.396   1.192  0.6153  0.3739 -0.4320
 1659SOL     OW 6633   0.311   0.554   1.737  0.2997 -0.3640  0.4812
 1659SOL    HW1 6634   0.300   0.521   1.826 -1.6062  0.0924  0.4633
 1659SOL    HW2 6635   0.346   0.642   1.747  0.7148 -0.5536  0.7333
 1659SOL     MW 6636   0.314   0.561   1.749  0.1088 -0.3299  0.5111
 1660SOL     OW 6637   3.865   4.112   4.791 -0.1078  0.0576  0.4771
 1660SOL    HW1 6638   3.848   4.179   4.857 -0.2271  2.1771 -1.5807
 1660SOL    HW2 6639   3.960   4.113   4.780 -0.2455  1.6204 -1.1309
 1660SOL     MW 6640   3.875   4.121   4.798 -0.1407  0.5290  0.0078
 1661SOL     OW 6641   2.484   2.205   0.199  0.0638 -0.0700 -0.5619
 1661SOL    HW1 6642   2.393   2.190   0.175 -0.1117  0.4506 -0.2474
 1661SOL    HW2 6643   2.535   2.165   0.129 -0.3838 -1.3998 -0.1505
 1661SOL     MW 6644   2.479   2.198   0.187 -0.0160 -0.1736 -0.4689
 1662SOL     OW 6645   2.091   0.523   3.786  0.7368 -0.3308  0.5457
 1662SOL    HW1 6646   2.177   0.488   3.762  1.1110 -0.0384  1.4179
 1662SOL    HW2 6647   2.062   0.571   3.708  1.7020  0.1991  0.4969
 1662SOL     MW 6648   2.099   0.524   3.773  0.9083 -0.2255  0.6511
 1663SOL     OW 6649   5.253   2.633   1.474 -0.1197  0.0792 -0.0366
 1663SOL    HW1 6650   5.222   2.690   1.544 -1.8135 -0.0923 -0.5978
 1663SOL    HW2 6651   5.262   2.547   1.516  1.3190  0.4879  0.5364
 1663SOL     MW 6652   5.250   2.629   1.489 -0.1524  0.1095 -0.0351
 1664SOL     OW 6653   2.918   2.547   4.452  0.8173 -0.7298 -0.2457
 1664SOL    HW1 6654   2.956   2.620   4.404  0.6069 -1.2247 -1.2100
 1664SOL    HW2 6655   2.929   2.569   4.544  0.1111  0.8416 -0.5072
 1664SOL     MW 6656   2.924   2.559   4.457  0.6999 -0.5920 -0.4026
 1665SOL     OW 6657   1.567   0.540   1.886  0.0493 -0.0761  0.5954
 1665SOL    HW1 6658   1.474   0.556   1.868 -0.1125  0.0894  1.5374
 1665SOL    HW2 6659   1.601   0.503   1.804 -0.3150  2.0204 -0.6065
 1665SOL     MW 6660   1.560   0.538   1.873 -0.0181  0.2135  0.5622
 1666SOL     OW 6661   2.596   5.299   1.943  0.2658  0.4548 -0.1849
 1666SOL    HW1 6662   2.640   5.378   1.972  1.8522 -0.0746 -1.0296
 1666SOL    HW2 6663   2.514   5.330   1.905  0.8988  1.6999 -0.5823
 1666SOL     MW 6664   2.591   5.313   1.942  0.5499  0.5464 -0.3439
 1667SOL     OW 6665   2.764   3.584   1.111 -0.3998  0.7977  0.1257
 1667SOL    HW1 6666   2.834   3.605   1.173 -0.5109 -0.3369  0.6596
 1667SOL    HW2 6667   2.707   3.524   1.159  0.1496 -1.0854 -1.4567
 1667SOL     MW 6668   2.766   3.579   1.125 -0.3437  0.4114 -0.0085
 1668SOL     OW 6669   3.830   1.955   5.372 -0.1697  0.2654 -0.3223
 1668SOL    HW1 6670   3.765   2.015   5.408 -0.3701  0.2913 -0.7234
 1668SOL    HW2 6671   3.791   1.868   5.381 -0.0803  0.2394 -0.1788
 1668SOL     MW 6672   3.817   1.951   5.378 -0.1839  0.2654 -0.3553
 1669SOL     OW 6673   5.283   4.999   3.565  0.4078  0.5154  0.1728
 1669SOL    HW1 6674   5.190   5.004   3.546  0.8605  0.9301 -2.1860
 1669SOL    HW2 6675   5.288   4.963   3.654 -1.9824  1.1521  0.6151
 1669SOL     MW 6676   5.272   4.995   3.574  0.1598  0.6500 -0.0725
 1670SOL     OW 6677   4.424   3.562   0.499  0.0042 -0.2559 -0.7958
 1670SOL    HW1 6678   4.404   3.632   0.437  1.0426 -0.1569 -1.0332
 1670SOL    HW2 6679   4.490   3.599   0.558 -0.6456 -0.4942  0.1149
 1670SOL     MW 6680   4.430   3.575   0.499  0.0539 -0.2737 -0.7096
 1671SOL     OW 6681   0.277   2.633   5.130  0.3646  0.2105 -0.1388
 1671SOL    HW1 6682   0.295   2.539   5.125  0.5623  0.2108  0.4696
 1671SOL    HW2 6683   0.364   2.673   5.133  0.2810  0.4184 -0.4633
 1671SOL     MW 6684   0.291   2.626   5.130  0.3792  0.2372 -0.1025
 1672SOL     OW 6685   1.191   2.799   2.025  0.5494  0.1909 -0.0531
 1672SOL    HW1 6686   1.167   2.709   2.049 -1.0404  0.3389 -0.9031
 1672SOL    HW2 6687   1.196   2.846   2.108 -1.3276 -0.1038  0.2774
 1672SOL     MW 6688   1.188   2.793   2.039  0.1056  0.1721 -0.1196
 1673SOL     OW 6689   5.132   0.265   1.577 -0.3709  0.2793 -0.2722
 1673SOL    HW1 6690   5.094   0.330   1.518  1.5118  0.6248 -1.1873
 1673SOL    HW2 6691   5.077   0.187   1.565 -2.5758  1.5678  0.7361
 1673SOL     MW 6692   5.120   0.263   1.568 -0.4121  0.4885 -0.2603
 1674SOL     OW 6693   3.252   4.639   0.321 -0.3319 -0.3287 -0.3370
 1674SOL    HW1 6694   3.180   4.591   0.281  0.3796 -0.9324 -0.9396
 1674SOL    HW2 6695   3.279   4.585   0.396  1.4226 -1.6956 -1.8673
 1674SOL     MW 6696   3.246   4.626   0.326 -0.0162 -0.5809 -0.6101
 1675SOL     OW 6697   4.831   2.448   1.102 -0.0277 -0.2050 -0.2183
 1675SOL    HW1 6698   4.782   2.411   1.029 -1.7478 -1.3161  1.3827
 1675SOL    HW2 6699   4.778   2.523   1.131  0.1057 -0.3585  0.4497
 1675SOL     MW 6700   4.818   2.453   1.097 -0.2308 -0.3669  0.0722
 1676SOL     OW 6701   4.531   0.429   5.509 -0.1640 -0.3543 -0.5701
 1676SOL    HW1 6702   4.605   0.461   5.458 -0.3853 -1.1476 -1.4328
 1676SOL    HW2 6703   4.473   0.388   5.443 -1.6808  0.8192 -0.0218
 1676SOL     MW 6704   4.533   0.428   5.494 -0.3865 -0.3057 -0.6103
 1677SOL     OW 6705   0.475   4.760   4.281 -0.3473 -0.4941 -0.3899
 1677SOL    HW1 6706   0.503   4.696   4.215 -2.6010 -0.1024 -1.8220
 1677SOL    HW2 6707   0.505   4.844   4.247  0.5174 -0.4989  0.3042
 1677SOL     MW 6708   0.483   4.762   4.268 -0.5251 -0.4445 -0.4844
 1678SOL     OW 6709   3.770   4.295   1.563  0.2844  0.0051  0.3796
 1678SOL    HW1 6710   3.710   4.362   1.597  1.0320  1.2802 -0.7337
 1678SOL    HW2 6711   3.843   4.295   1.624  0.9497  1.2526 -0.3963
 1678SOL     MW 6712   3.772   4.303   1.576  0.4653  0.3280  0.1378
 1679SOL     OW 6713   0.709   0.707   3.901  0.0459  0.5341 -0.1448
 1679SOL    HW1 6714   0.727   0.772   3.833  0.6743 -0.3666 -0.8637
 1679SOL    HW2 6715   0.686   0.628   3.853  0.5159 -0.1232  0.6916
 1679SOL     MW 6716   0.708   0.705   3.886  0.1865  0.3346 -0.1298
 1680SOL     OW 6717   2.419   4.248   0.083  0.2249 -0.6729 -0.7788
 1680SOL    HW1 6718   2.485   4.194   0.040  0.1029 -2.4956  1.1874
 1680SOL    HW2 6719   2.464   4.330   0.102  1.1992 -1.0037 -1.5663
 1680SOL     MW 6720   2.433   4.252   0.080  0.3340 -0.9486 -0.6279
 1681SOL     OW 6721   3.427   2.378   4.071  0.3344  0.1791  0.2541
 1681SOL    HW1 6722   3.360   2.387   4.138 -0.5446  0.3463 -0.6362
 1681SOL    HW2 6723   3.484   2.454   4.085 -0.6111  0.9609 -0.0281
 1681SOL     MW 6724   3.426   2.389   4.082  0.1008  0.3005  0.1040
 1682SOL     OW 6725   5.245   2.794   1.695  0.2132 -0.7119  0.0769
 1682SOL    HW1 6726   5.289   2.801   1.780  0.0168  0.4963  0.0940
 1682SOL    HW2 6727   5.278   2.869   1.645  0.4866 -1.5256 -0.9941
 1682SOL     MW 6728   5.255   2.804   1.699  0.2231 -0.6614 -0.0580
 1683SOL     OW 6729   1.672   4.335   1.551  0.2649  0.0893  0.4361
 1683SOL    HW1 6730   1.727   4.270   1.508 -0.9452  0.2390 -1.5091
 1683SOL    HW2 6731   1.598   4.285   1.585 -1.2236  0.4296 -2.0100
 1683SOL     MW 6732   1.669   4.320   1.550 -0.0805  0.1520 -0.1260
 1684SOL     OW 6733   2.892   1.109   0.593  0.4590 -0.5965 -1.2640
 1684SOL    HW1 6734   2.927   1.035   0.642  0.9127 -1.2139 -2.4720
 1684SOL    HW2 6735   2.827   1.071   0.534 -0.9155  0.2867 -0.3781
 1684SOL     MW 6736   2.888   1.095   0.591  0.3411 -0.5625 -1.3052
 1685SOL     OW 6737   3.515   4.649   3.256 -0.2642  0.2648  0.8124
 1685SOL    HW1 6738   3.447   4.584   3.274 -1.8238  1.7217  0.4017
 1685SOL    HW2 6739   3.467   4.726   3.225  1.6460  1.0622 -0.3238
 1685SOL     MW 6740   3.500   4.650   3.254 -0.2193  0.5534  0.6144
 1686SOL     OW 6741   4.312   2.102   1.423 -0.6360 -0.5231  0.4078
 1686SOL    HW1 6742   4.367   2.129   1.496  1.5955  1.4041 -1.7891
 1686SOL    HW2 6743   4.252   2.175   1.410 -1.8996 -1.4133  1.0482
 1686SOL     MW 6744   4.311   2.115   1.431 -0.5121 -0.3903  0.2086
 1687SOL     OW 6745   5.409   4.094   1.199 -0.5016 -0.4991 -0.2227
 1687SOL    HW1 6746   5.483   4.110   1.140  0.1537 -2.6943 -0.0666
 1687SOL    HW2 6747   5.350   4.168   1.183  0.4501 -0.1212 -2.3564
 1687SOL     MW 6748   5.411   4.106   1.189 -0.2959 -0.7317 -0.4759
 1688SOL     OW 6749   4.588   2.024   4.983  0.1324 -0.1254 -0.4158
 1688SOL    HW1 6750   4.548   1.939   4.966  2.3376 -1.7734  1.9231
 1688SOL    HW2 6751   4.555   2.050   5.069  0.8603  0.4887 -0.3039
 1688SOL     MW 6752   4.579   2.016   4.992  0.5079 -0.2577 -0.1021
 1689SOL     OW 6753   0.987   1.518   0.267  1.0716 -0.0512 -0.0878
 1689SOL    HW1 6754   0.903   1.557   0.291  1.0998 -0.3754  0.5558
 1689SOL    HW2 6755   1.029   1.584   0.212  0.3516  0.0702 -0.5023
 1689SOL     MW 6756   0.981   1.531   0.263  0.9830 -0.0772 -0.0585
 1690SOL     OW 6757   5.291   1.225   0.471  0.2113  0.4102  0.2232
 1690SOL    HW1 6758   5.210   1.254   0.430 -0.6062 -0.1411  1.3977
 1690SOL    HW2 6759   5.357   1.290   0.443 -0.2019 -0.1142 -2.1748
 1690SOL     MW 6760   5.289   1.237   0.463  0.0538  0.2725  0.0666
 1691SOL     OW 6761   2.092   5.194   0.900  0.3369  0.1672  0.2549
 1691SOL    HW1 6762   2.112   5.153   0.816  0.1197 -0.2115  0.3844
 1691SOL    HW2 6763   2.026   5.136   0.940 -1.2836  1.5457 -0.3138
 1691SOL     MW 6764   2.086   5.181   0.894  0.1017  0.2952  0.1987
 1692SOL     OW 6765   2.953   4.054   4.992 -0.0159  0.1177  0.2462
 1692SOL    HW1 6766   2.901   4.066   5.071 -0.3775 -0.1649  0.0538
 1692SOL    HW2 6767   3.044   4.053   5.023 -0.1903 -0.7702  0.7559
 1692SOL     MW 6768   2.958   4.056   5.006 -0.0845 -0.0321  0.2868
 1693SOL     OW 6769   5.104   1.558   4.547  0.3721 -0.3204  0.0363
 1693SOL    HW1 6770   5.053   1.611   4.609  0.8079 -0.6589  0.6927
 1693SOL    HW2 6771   5.063   1.575   4.462  1.0810  1.8545  0.0573
 1693SOL     MW 6772   5.093   1.567   4.544  0.5187 -0.0853  0.1230
 1694SOL     OW 6773   2.428   4.813   2.568  0.0950 -0.3188  0.7847
 1694SOL    HW1 6774   2.367   4.788   2.637  0.1928 -0.6151  0.7668
 1694SOL    HW2 6775   2.435   4.735   2.513 -2.9845  1.0402 -1.8204
 1694SOL     MW 6776   2.421   4.800   2.570 -0.2867 -0.1827  0.4489
 1695SOL     OW 6777   3.028   2.993   2.705 -0.6399 -0.0100  0.2152
 1695SOL    HW1 6778   2.960   2.999   2.773 -1.9174  1.1376 -1.0927
 1695SOL    HW2 6779   2.992   3.041   2.631  1.2323 -0.1899 -0.8740
 1695SOL     MW 6780   3.014   3.000   2.705 -0.5638  0.1138 -0.0917
 1696SOL     OW 6781   3.621   5.311   4.494  0.4998 -0.2377 -0.4556
 1696SOL    HW1 6782   3.577   5.338   4.413  2.4994  1.1226 -1.1924
 1696SOL    HW2 6783   3.684   5.381   4.510  1.3204 -1.3358  1.3648
 1696SOL     MW 6784   3.623   5.324   4.486  0.8608 -0.2041 -0.3169
 1697SOL     OW 6785   3.136   5.285   4.884 -0.1135 -0.0896 -0.8132
 1697SOL    HW1 6786   3.171   5.207   4.841  1.6651  0.4181 -0.3924
 1697SOL    HW2 6787   3.157   5.357   4.825  0.8825  0.4059  0.0963
 1697SOL     MW 6788   3.143   5.284   4.871  0.2417  0.0388 -0.6429
 1698SOL     OW 6789   1.565   4.377   0.032  0.3501  0.0599 -0.0562
 1698SOL    HW1 6790   1.627   4.418   0.092 -1.1243 -0.6247  2.0285
 1698SOL    HW2 6791   1.494   4.441   0.024  0.3220 -0.0463 -0.7620
 1698SOL     MW 6792   1.564   4.391   0.039  0.1578 -0.0413  0.1203
 1699SOL     OW 6793   5.288   4.883   3.297  0.0499  0.1319  0.0264
 1699SOL    HW1 6794   5.259   4.925   3.378 -1.3703  0.3521 -0.5546
 1699SOL    HW2 6795   5.233   4.923   3.229  0.6736 -0.6072 -0.9409
 1699SOL     MW 6796   5.277   4.894   3.299 -0.0521  0.0655 -0.1718
 1700SOL     OW 6797   4.181   3.498   4.146 -0.7986  0.0967 -0.3464
 1700SOL    HW1 6798   4.262   3.545   4.168 -0.0832 -0.9158 -0.7494
 1700SOL    HW2 6799   4.135   3.557   4.086  0.2352  0.1536 -1.1107
 1700SOL     MW 6800   4.186   3.512   4.141 -0.5747 -0.0257 -0.4958
 1701SOL     OW 6801   2.848   0.832   4.460 -0.6501  0.1426  0.6096
 1701SOL    HW1 6802   2.938   0.806   4.478 -0.5133  0.0812 -0.1179
 1701SOL    HW2 6803   2.836   0.914   4.507 -0.2162  0.1373  0.7262
 1701SOL     MW 6804   2.858   0.839   4.468 -0.5770  0.1341  0.5314
 1702SOL     OW 6805   4.490   0.780   4.852  0.2881  0.0754  0.0059
 1702SOL    HW1 6806   4.507   0.848   4.786  2.0211  0.4863  0.8201
 1702SOL    HW2 6807   4.450   0.827   4.925  1.2879  0.2333  0.4811
 1702SOL     MW 6808   4.487   0.795   4.853  0.6379  0.1482  0.1710
 1703SOL     OW 6809   2.021   0.219   3.608 -0.3824  0.4060 -0.3169
 1703SOL    HW1 6810   2.109   0.225   3.570 -0.4566 -0.2666 -0.6049
 1703SOL    HW2 6811   1.977   0.300   3.581  0.0949  0.6788 -0.2969
 1703SOL     MW 6812   2.027   0.230   3.600 -0.3308  0.3548 -0.3512
 1704SOL     OW 6813   5.006   2.355   4.843 -0.7410  0.3475 -0.3011
 1704SOL    HW1 6814   5.076   2.310   4.890 -1.5275 -1.3316 -0.6947
 1704SOL    HW2 6815   5.017   2.327   4.752 -2.7540 -1.0781 -0.1521
 1704SOL     MW 6816   5.017   2.346   4.837 -1.0993 -0.0500 -0.3324
 1705SOL     OW 6817   1.789   0.374   4.837 -0.0668 -0.0069 -0.4134
 1705SOL    HW1 6818   1.841   0.297   4.812 -0.7148 -0.2139 -1.1442
 1705SOL    HW2 6819   1.827   0.446   4.786  2.1786  0.7473  2.0679
 1705SOL     MW 6820   1.801   0.373   4.828  0.1377  0.0632 -0.1893
 1706SOL     OW 6821   3.890   1.571   4.157 -0.4541  0.0933  0.7511
 1706SOL    HW1 6822   3.871   1.664   4.169 -0.0294  0.6592 -2.0855
 1706SOL    HW2 6823   3.817   1.538   4.105  0.3744 -0.6401  0.0047
 1706SOL     MW 6824   3.878   1.578   4.152 -0.2936  0.0718  0.2925
 1707SOL     OW 6825   4.875   0.866   1.036  0.2309 -0.0781  0.5831
 1707SOL    HW1 6826   4.790   0.874   0.993  0.7395  1.2674 -0.2229
 1707SOL    HW2 6827   4.899   0.956   1.058  0.5189 -0.6191  2.6687
 1707SOL     MW 6828   4.867   0.878   1.033  0.3329  0.0249  0.7469
 1708SOL     OW 6829   3.275   0.577   2.176  0.3410 -0.6619 -0.1616
 1708SOL    HW1 6830   3.257   0.492   2.137  1.4299 -0.8362 -0.3025
 1708SOL    HW2 6831   3.201   0.592   2.235 -0.0434 -1.5391 -0.4054
 1708SOL     MW 6832   3.263   0.568   2.179  0.4312 -0.7965 -0.2108
 1709SOL     OW 6833   0.040   5.439   1.093 -0.1324  0.4850  0.0754
 1709SOL    HW1 6834   0.094   5.502   1.046  0.4185  0.0865  0.1780
 1709SOL    HW2 6835   0.042   5.470   1.184  2.1494 -1.0286  0.6096
 1709SOL     MW 6836   0.047   5.451   1.099  0.2302  0.2402  0.1569
 1710SOL     OW 6837   2.734   0.380   4.177 -0.1234  0.0362  0.1956
 1710SOL    HW1 6838   2.690   0.438   4.115 -2.1052 -0.5718  0.9368
 1710SOL    HW2 6839   2.797   0.436   4.222 -0.5034  1.0920 -0.5533
 1710SOL     MW 6840   2.737   0.394   4.175 -0.4257  0.0935  0.1946
 1711SOL     OW 6841   3.066   5.198   1.893 -0.1162 -0.6137  0.7065
 1711SOL    HW1 6842   3.036   5.109   1.877  0.1612 -0.3469 -1.6965
 1711SOL    HW2 6843   3.132   5.213   1.825 -0.3245  1.4975  0.9111
 1711SOL     MW 6844   3.071   5.188   1.883 -0.1074 -0.3093  0.4251
 1712SOL     OW 6845   3.639   4.398   2.395  0.3002  0.4977  0.1386
 1712SOL    HW1 6846   3.653   4.394   2.489  1.0501  0.5068  0.0304
 1712SOL    HW2 6847   3.549   4.430   2.385  0.1259  0.2376  0.8488
 1712SOL     MW 6848   3.629   4.402   2.406  0.3739  0.4656  0.2157
 1713SOL     OW 6849   1.722   3.669   3.418 -0.5473 -0.3574  0.5759
 1713SOL    HW1 6850   1.723   3.759   3.449  0.5772 -0.5652  1.1841
 1713SOL    HW2 6851   1.646   3.665   3.359  0.7291  1.6090 -1.3545
 1713SOL     MW 6852   1.712   3.680   3.414 -0.2399 -0.1323  0.4067
 1714SOL     OW 6853   4.831   1.923   5.039 -0.1615 -0.0160  0.0350
 1714SOL    HW1 6854   4.864   1.993   4.982  0.7546 -0.8085 -0.4245
 1714SOL    HW2 6855   4.742   1.951   5.061  0.5720  1.8523  0.7946
 1714SOL     MW 6856   4.824   1.936   5.034  0.0497  0.1217  0.0734
 1715SOL     OW 6857   0.266   0.458   1.998 -0.7443 -0.1927  0.4544
 1715SOL    HW1 6858   0.237   0.537   2.044 -1.1644 -0.5858  0.8668
 1715SOL    HW2 6859   0.197   0.395   2.012  0.0050 -0.9356  0.9067
 1715SOL     MW 6860   0.254   0.460   2.006 -0.7022 -0.3381  0.5651
 1716SOL     OW 6861   4.227   2.245   3.539 -0.0046 -0.1356 -0.1432
 1716SOL    HW1 6862   4.224   2.196   3.456 -0.2896  0.2511 -0.3705
 1716SOL    HW2 6863   4.230   2.178   3.607  1.1695 -0.4569 -0.4915
 1716SOL     MW 6864   4.227   2.230   3.537  0.1092 -0.1272 -0.2169
 1717SOL     OW 6865   3.071   0.605   3.256  0.0880  0.2886  0.1803
 1717SOL    HW1 6866   3.160   0.623   3.225 -0.2178  1.6998  0.0369
 1717SOL    HW2 6867   3.033   0.550   3.188  0.8977 -0.4664  0.3243
 1717SOL     MW 6868   3.078   0.600   3.243  0.1525  0.3726  0.1804
 1718SOL     OW 6869   5.483   0.280   1.946  0.8776  0.2370  0.0333
 1718SOL    HW1 6870   5.490   0.203   2.004  1.8382  1.3498  1.4607
 1718SOL    HW2 6871   5.446   0.245   1.865  0.7731 -1.6387  0.8301
 1718SOL     MW 6872   5.479   0.265   1.943  0.9872  0.1394  0.3181
 1719SOL     OW 6873   1.980   3.451   4.816  0.4254 -0.2438  0.0330
 1719SOL    HW1 6874   2.053   3.421   4.870  1.1236  0.0544 -0.7273
 1719SOL    HW2 6875   2.002   3.422   4.728  0.4719  1.3495 -0.5001
 1719SOL     MW 6876   1.992   3.444   4.812  0.5207 -0.0016 -0.1326
 1720SOL     OW 6877   4.683   5.327   2.937 -0.0695 -0.0464  0.6685
 1720SOL    HW1 6878   4.721   5.378   3.008 -0.4110 -1.9262  2.3165
 1720SOL    HW2 6879   4.596   5.303   2.969 -1.0505  0.7110 -1.2675
 1720SOL     MW 6880   4.676   5.330   2.950 -0.2388 -0.1901  0.6317
 1721SOL     OW 6881   0.428   4.204   0.798 -0.0281 -0.6929  0.0102
 1721SOL    HW1 6882   0.391   4.222   0.885 -1.5102 -0.9830 -0.5276
 1721SOL    HW2 6883   0.387   4.123   0.771  2.1417 -1.8438 -0.0510
 1721SOL     MW 6884   0.418   4.196   0.806  0.0599 -0.8774 -0.0665
 1722SOL     OW 6885   0.526   2.925   4.556  0.2449  0.4240 -0.1275
 1722SOL    HW1 6886   0.616   2.910   4.586  0.4369  0.4449 -0.6858
 1722SOL    HW2 6887   0.485   2.838   4.558  0.9886 -0.0336 -2.1575
 1722SOL     MW 6888   0.532   2.912   4.560  0.3646  0.3681 -0.4588
 1723SOL     OW 6889   2.685   5.314   1.063  0.6011 -0.1338 -0.2723
 1723SOL    HW1 6890   2.731   5.346   0.986  1.0782  1.8524  0.7720
 1723SOL    HW2 6891   2.623   5.383   1.085  0.6657 -0.5320  1.2857
 1723SOL     MW 6892   2.683   5.327   1.056  0.6704  0.0695  0.0608
 1724SOL     OW 6893   4.249   2.101   2.695  0.3389 -0.6235  0.3867
 1724SOL    HW1 6894   4.203   2.180   2.666  2.0735  0.7793  1.2465
 1724SOL    HW2 6895   4.296   2.070   2.618 -1.1519 -1.4630 -0.2238
 1724SOL     MW 6896   4.249   2.107   2.682  0.3701 -0.5514  0.4186
 1725SOL     OW 6897   4.841   4.442   3.123 -0.0443  0.1475  0.1139
 1725SOL    HW1 6898   4.771   4.377   3.133 -1.1762  1.1863 -0.7395
 1725SOL    HW2 6899   4.890   4.412   3.047 -0.1991 -0.0343  0.0835
 1725SOL     MW 6900   4.838   4.430   3.115 -0.2090  0.2572  0.0008
 1726SOL     OW 6901   4.602   0.551   2.162  0.2633 -0.0555  0.5029
 1726SOL    HW1 6902   4.526   0.593   2.203  0.2745  0.0366  0.4300
 1726SOL    HW2 6903   4.614   0.470   2.210  1.8301  1.2004  2.4252
 1726SOL     MW 6904   4.594   0.546   2.174  0.4653  0.1171  0.7396
 1727SOL     OW 6905   2.345   1.531   2.904  0.1134 -0.3101 -0.2015
 1727SOL    HW1 6906   2.426   1.513   2.952 -0.0605  0.5009  0.4062
 1727SOL    HW2 6907   2.276   1.511   2.966 -0.1042  1.7240  0.2682
 1727SOL     MW 6908   2.347   1.526   2.918  0.0633  0.0541 -0.0636
 1728SOL     OW 6909   4.103   0.186   1.370  0.2876 -0.3091 -0.3118
 1728SOL    HW1 6910   4.196   0.196   1.390  0.1481 -0.6855  0.5752
 1728SOL    HW2 6911   4.059   0.193   1.455 -0.4040 -1.2683 -0.5748
 1728SOL     MW 6912   4.109   0.188   1.383  0.1812 -0.4801 -0.2319
 1729SOL     OW 6913   0.476   4.020   1.569 -0.7733  0.3076  0.5988
 1729SOL    HW1 6914   0.531   4.096   1.586 -0.2897 -0.1923  1.3060
 1729SOL    HW2 6915   0.538   3.949   1.554 -1.2188  0.0826 -0.2280
 1729SOL     MW 6916   0.491   4.021   1.569 -0.7684  0.2148  0.5835
 1730SOL     OW 6917   1.055   0.524   2.916  0.2306  0.2906  0.1027
 1730SOL    HW1 6918   1.133   0.529   2.971  0.4634 -1.0640 -0.0721
 1730SOL    HW2 6919   1.072   0.586   2.845  0.6081  0.8917  0.7025
 1730SOL     MW 6920   1.067   0.533   2.914  0.3087  0.1942  0.1571
 1731SOL     OW 6921   2.643   3.016   3.370  0.3111 -0.0578 -0.1613
 1731SOL    HW1 6922   2.573   3.078   3.393  0.1630 -0.4802  0.5390
 1731SOL    HW2 6923   2.605   2.930   3.386  1.0768 -0.2836  0.4849
 1731SOL     MW 6924   2.629   3.013   3.375  0.3902 -0.1408  0.0111
 1732SOL     OW 6925   0.281   4.757   5.299  0.0363 -0.4455  0.3007
 1732SOL    HW1 6926   0.189   4.753   5.324  0.3173  0.4999  1.5578
 1732SOL    HW2 6927   0.325   4.800   5.373  1.5510 -1.2282 -0.0974
 1732SOL     MW 6928   0.275   4.762   5.312  0.2662 -0.4247  0.4107
 1733SOL     OW 6929   3.079   0.910   2.424  0.6329 -0.1385  0.0868
 1733SOL    HW1 6930   3.027   0.943   2.497 -1.3603  0.1524 -1.3942
 1733SOL    HW2 6931   3.078   0.815   2.435  2.3209 -0.0425  1.6616
 1733SOL     MW 6932   3.072   0.902   2.435  0.5938 -0.0889  0.0988
 1734SOL     OW 6933   5.446   1.495   1.604  0.0546 -0.5854  0.6290
 1734SOL    HW1 6934   5.485   1.583   1.597 -1.0873  0.2463  3.2793
 1734SOL    HW2 6935   5.457   1.457   1.518  0.2666  2.3160 -0.7517
 1734SOL     MW 6936   5.453   1.502   1.592 -0.0644 -0.1075  0.7915
 1735SOL     OW 6937   4.617   5.189   5.293  0.0709 -0.6564 -0.4996
 1735SOL    HW1 6938   4.637   5.096   5.300 -0.0885 -0.7182 -0.8225
 1735SOL    HW2 6939   4.563   5.196   5.214  1.0708 -0.1309 -1.1626
 1735SOL     MW 6940   4.612   5.178   5.284  0.1785 -0.5970 -0.6258
 1736SOL     OW 6941   3.860   4.999   3.863 -0.0446  0.3850  0.1810
 1736SOL    HW1 6942   3.933   5.059   3.880 -0.9959  1.3145  1.1485
 1736SOL    HW2 6943   3.792   5.054   3.825 -0.4780 -0.3435 -0.1180
 1736SOL     MW 6944   3.861   5.014   3.860 -0.2219  0.4107  0.2666
 1737SOL     OW 6945   1.216   2.229   0.837  0.1756  0.1016  0.4453
 1737SOL    HW1 6946   1.167   2.298   0.881 -1.0163 -0.2810 -0.2203
 1737SOL    HW2 6947   1.160   2.204   0.763  0.7156 -1.3769  0.5109
 1737SOL     MW 6948   1.203   2.235   0.833  0.0921 -0.1366  0.3685
 1738SOL     OW 6949   4.351   3.716   5.199  0.4474 -0.1084  0.5740
 1738SOL    HW1 6950   4.417   3.766   5.247  0.0676  1.5354 -0.5208
 1738SOL    HW2 6951   4.401   3.666   5.135  0.6506  2.4285 -1.4172
 1738SOL     MW 6952   4.365   3.716   5.197  0.4247  0.4268  0.1790
 1739SOL     OW 6953   1.360   3.931   1.645  0.3538 -0.6912  0.3062
 1739SOL    HW1 6954   1.410   3.916   1.565  0.3232 -1.9369  0.4899
 1739SOL    HW2 6955   1.302   3.855   1.650 -0.4353 -0.0605  0.9288
 1739SOL     MW 6956   1.359   3.919   1.635  0.2489 -0.7699  0.4094
 1740SOL     OW 6957   2.883   0.412   1.361 -0.8996 -0.2793 -0.2528
 1740SOL    HW1 6958   2.900   0.502   1.388  1.7575 -0.9690  0.6582
 1740SOL    HW2 6959   2.912   0.358   1.435  1.7874 -2.0091 -2.3440
 1740SOL     MW 6960   2.889   0.416   1.374 -0.2155 -0.5890 -0.4039
 1741SOL     OW 6961   3.068   2.645   0.985 -0.4287  0.2669 -0.4156
 1741SOL    HW1 6962   3.094   2.728   0.945  0.2962 -0.7918 -2.2839
 1741SOL    HW2 6963   3.042   2.590   0.911 -0.4533 -1.3278  0.7298
 1741SOL     MW 6964   3.068   2.649   0.970 -0.3391 -0.0727 -0.5081
 1742SOL     OW 6965   4.379   2.284   3.829 -0.2794 -0.4905  0.2240
 1742SOL    HW1 6966   4.306   2.297   3.890 -1.3819  0.4467 -1.2138
 1742SOL    HW2 6967   4.419   2.371   3.821  0.4327 -0.8051  0.3026
 1742SOL     MW 6968   4.375   2.297   3.835 -0.3294 -0.4108  0.0500
 1743SOL     OW 6969   5.310   4.749   2.988  0.5205  0.2384 -0.1897
 1743SOL    HW1 6970   5.404   4.768   2.990  0.5968 -0.1090 -0.3436
 1743SOL    HW2 6971   5.306   4.653   2.992  0.2581  0.1063 -2.3809
 1743SOL     MW 6972   5.322   4.739   2.989  0.4967  0.1770 -0.4899
 1744SOL     OW 6973   1.626   3.686   0.530  0.9495  0.4274 -0.4475
 1744SOL    HW1 6974   1.622   3.767   0.479 -0.3698 -0.2128 -1.4465
 1744SOL    HW2 6975   1.535   3.670   0.558  1.0612 -0.9887 -0.7896
 1744SOL     MW 6976   1.614   3.694   0.527  0.7949  0.1642 -0.6192
 1745SOL     OW 6977   0.412   2.816   2.360  0.1652 -0.0399 -0.4522
 1745SOL    HW1 6978   0.432   2.908   2.342 -0.1102 -0.2185 -1.7182
 1745SOL    HW2 6979   0.487   2.786   2.412  0.2502  0.8897 -0.0053
 1745SOL     MW 6980   0.424   2.824   2.364  0.1408  0.0562 -0.5571
 1746SOL     OW 6981   3.182   3.545   1.843 -0.3648 -0.0054  0.5279
 1746SOL    HW1 6982   3.233   3.531   1.763  2.1931 -0.9784  2.1782
 1746SOL    HW2 6983   3.161   3.638   1.842  0.4513  0.1943 -0.8198
 1746SOL     MW 6984   3.186   3.555   1.832  0.0671 -0.1044  0.5666
 1747SOL     OW 6985   2.109   3.419   3.129 -0.0445  0.1370  0.5459
 1747SOL    HW1 6986   2.016   3.416   3.107 -0.0846 -0.9923  0.7765
 1747SOL    HW2 6987   2.148   3.350   3.075  0.6464  0.5496  0.5115
 1747SOL     MW 6988   2.102   3.409   3.120  0.0388  0.0453  0.5710
 1748SOL     OW 6989   1.045   0.951   4.485  0.1449 -0.3847 -0.4804
 1748SOL    HW1 6990   1.087   0.867   4.472 -1.2104 -0.8878 -2.0484
 1748SOL    HW2 6991   1.009   0.947   4.574  0.5730 -1.2334 -0.3380
 1748SOL     MW 6992   1.046   0.940   4.494  0.0262 -0.5578 -0.6629
 1749SOL     OW 6993   4.415   5.354   3.861 -0.0008  0.1192  0.0226
 1749SOL    HW1 6994   4.467   5.289   3.815 -0.2349  0.2074 -0.3700
 1749SOL    HW2 6995   4.425   5.332   3.954 -1.3612 -1.4709 -0.1717
 1749SOL     MW 6996   4.423   5.343   3.867 -0.2049 -0.0730 -0.0525
 1750SOL     OW 6997   3.605   3.696   4.113  0.1935 -0.1245 -0.0602
 1750SOL    HW1 6998   3.688   3.666   4.076  0.5201 -0.1316  0.6504
 1750SOL    HW2 6999   3.544   3.695   4.040  0.3666 -1.8273 -0.2134
 1750SOL     MW 7000   3.608   3.692   4.099  0.2574 -0.3434  0.0112
 1751SOL     OW 7001   2.852   0.955   2.911 -0.2508  0.4017  0.5467
 1751SOL    HW1 7002   2.763   0.967   2.878  0.5440  1.2637 -1.4426
 1751SOL    HW2 7003   2.840   0.928   3.002 -2.5766 -1.0566 -0.0997
 1751SOL     MW 7004   2.839   0.953   2.919 -0.4468  0.3253  0.2093
 1752SOL     OW 7005   3.850   4.564   4.939 -0.0198  0.8905 -0.1057
 1752SOL    HW1 7006   3.831   4.573   4.846 -1.2352 -0.7846 -0.0797
 1752SOL    HW2 7007   3.770   4.595   4.982  0.5362  1.6595  0.3846
 1752SOL     MW 7008   3.837   4.569   4.933 -0.1042  0.7745 -0.0396
 1753SOL     OW 7009   3.356   1.559   1.274  0.6500  0.1870 -0.0434
 1753SOL    HW1 7010   3.270   1.600   1.270 -0.4840 -2.1130 -1.5050
 1753SOL    HW2 7011   3.400   1.586   1.193  0.7926  0.2939  0.0677
 1753SOL     MW 7012   3.351   1.568   1.263  0.5230 -0.0938 -0.2163
 1754SOL     OW 7013   1.361   4.422   2.769 -0.4328 -0.0607 -0.0093
 1754SOL    HW1 7014   1.395   4.508   2.796 -1.5124  0.4637 -0.2564
 1754SOL    HW2 7015   1.381   4.418   2.676 -0.0603 -0.2358  0.0776
 1754SOL     MW 7016   1.368   4.433   2.761 -0.5233 -0.0160 -0.0298
 1755SOL     OW 7017   3.974   2.357   0.396  0.0841  0.4060 -0.2956
 1755SOL    HW1 7018   3.955   2.415   0.470  0.4170  2.6214 -1.8365
 1755SOL    HW2 7019   4.069   2.358   0.388  0.1166 -0.6107 -0.1865
 1755SOL     MW 7020   3.983   2.365   0.405  0.1309  0.5594 -0.4789
 1756SOL     OW 7021   1.161   1.343   0.469  0.3207  0.1669 -0.3462
 1756SOL    HW1 7022   1.115   1.418   0.506 -1.2327 -1.4358  1.1674
 1756SOL    HW2 7023   1.094   1.275   0.462  1.7319 -1.1850 -1.3950
 1756SOL     MW 7024   1.147   1.344   0.473  0.3025 -0.2113 -0.2867
 1757SOL     OW 7025   3.237   0.036   0.721 -0.3338  0.2514  0.7012
 1757SOL    HW1 7026   3.315   0.083   0.692 -0.6872  0.9944  0.9391
 1757SOL    HW2 7027   3.248   0.028   0.816 -0.0274 -0.6102  0.5996
 1757SOL     MW 7028   3.248   0.041   0.730 -0.3398  0.2362  0.7186
 1758SOL     OW 7029   4.051   4.164   2.742  0.5457 -0.1988  0.4482
 1758SOL    HW1 7030   4.075   4.194   2.654 -1.0654 -0.4507 -0.0990
 1758SOL    HW2 7031   4.025   4.073   2.730  0.2730 -0.2215  1.1904
 1758SOL     MW 7032   4.051   4.156   2.729  0.3046 -0.2339  0.4732
 1759SOL     OW 7033   1.287   2.268   2.139 -0.2123 -0.5058 -0.4220
 1759SOL    HW1 7034   1.353   2.204   2.112  0.7998  1.0483 -1.8417
 1759SOL    HW2 7035   1.219   2.263   2.072 -0.4898 -0.6053 -0.1342
 1759SOL     MW 7036   1.287   2.260   2.127 -0.1183 -0.3196 -0.5669
 1760SOL     OW 7037   3.344   5.293   5.059 -0.4418 -0.1105 -0.3124
 1760SOL    HW1 7038   3.294   5.302   5.140 -2.4426  0.0464 -1.4916
 1760SOL    HW2 7039   3.277   5.294   4.990  1.1854 -0.3694 -1.9553
 1760SOL     MW 7040   3.329   5.295   5.061 -0.4896 -0.1236 -0.6737
 1761SOL     OW 7041   2.438   0.864   1.613 -0.5694 -0.0001 -0.2943
 1761SOL    HW1 7042   2.491   0.810   1.553 -2.0773 -2.3451  0.3597
 1761SOL    HW2 7043   2.372   0.904   1.557 -1.0245 -0.9345 -0.4346
 1761SOL     MW 7044   2.436   0.862   1.598 -0.8207 -0.4199 -0.2286
 1762SOL     OW 7045   4.882   4.457   1.036 -0.1781 -0.0702 -0.1815
 1762SOL    HW1 7046   4.926   4.541   1.020  0.5194 -0.6313 -1.3580
 1762SOL    HW2 7047   4.799   4.464   0.989 -1.0317  0.6962  1.3908
 1762SOL     MW 7048   4.877   4.469   1.028 -0.1981 -0.0439 -0.1308
 1763SOL     OW 7049   2.476   0.664   0.255 -0.3700 -0.2207  0.1523
 1763SOL    HW1 7050   2.390   0.697   0.284  0.1070 -0.1921  1.6112
 1763SOL    HW2 7051   2.525   0.743   0.232 -0.5356 -0.1938 -0.1098
 1763SOL     MW 7052   2.471   0.678   0.256 -0.3301 -0.2136  0.3055
 1764SOL     OW 7053   1.302   4.005   4.508 -0.8653  0.2122  0.3145
 1764SOL    HW1 7054   1.349   3.950   4.445 -1.9783 -0.9330  0.4447
 1764SOL    HW2 7055   1.368   4.067   4.539 -0.0411  0.1801 -1.2393
 1764SOL     MW 7056   1.317   4.006   4.504 -0.9023  0.0615  0.1322
 1765SOL     OW 7057   1.102   4.551   1.306 -0.2738 -0.3357  0.5243
 1765SOL    HW1 7058   1.019   4.588   1.335  0.2938  0.8739  0.6474
 1765SOL    HW2 7059   1.167   4.619   1.324  0.7195 -1.1772  0.2378
 1765SOL     MW 7060   1.100   4.564   1.312 -0.0740 -0.2886  0.5034
 1766SOL     OW 7061   4.544   2.209   3.580 -0.4570 -0.1807  0.2095
 1766SOL    HW1 7062   4.516   2.243   3.495 -0.4153 -0.1674  0.2008
 1766SOL    HW2 7063   4.482   2.247   3.643  0.0044  0.4850  0.2837
 1766SOL     MW 7064   4.533   2.219   3.578 -0.3926 -0.0938  0.2179
 1767SOL     OW 7065   0.168   4.262   1.676 -0.0595  0.5730  0.2144
 1767SOL    HW1 7066   0.179   4.348   1.635 -0.1892 -0.5628 -2.4334
 1767SOL    HW2 7067   0.174   4.200   1.603  1.3638 -1.7914  2.1799
 1767SOL     MW 7068   0.170   4.265   1.662  0.1061  0.1249  0.1270
 1768SOL     OW 7069   4.984   0.428   4.899  0.2691  0.0909  0.2696
 1768SOL    HW1 7070   4.917   0.439   4.966  1.6921  1.9997  1.4715
 1768SOL    HW2 7071   4.940   0.449   4.816 -0.9730 -0.2236  0.8320
 1768SOL     MW 7072   4.970   0.432   4.897  0.2923  0.2950  0.4955
 1769SOL     OW 7073   3.585   1.487   2.635 -0.0627 -0.0795  0.2828
 1769SOL    HW1 7074   3.623   1.428   2.700 -0.6316 -2.0846 -1.1161
 1769SOL    HW2 7075   3.524   1.433   2.586  1.3659  0.9249 -2.8820
 1769SOL     MW 7076   3.582   1.473   2.637  0.0473 -0.2076 -0.3014
 1770SOL     OW 7077   5.270   0.060   3.123 -0.5715  0.1073  0.0874
 1770SOL    HW1 7078   5.280   0.084   3.215 -0.4139  0.4531 -0.0168
 1770SOL    HW2 7079   5.273  -0.036   3.122  1.5775  0.1353  0.1995
 1770SOL     MW 7080   5.271   0.051   3.135 -0.2763  0.1552  0.0884
 1771SOL     OW 7081   0.343   4.633   1.736 -0.8242  0.3141  0.1368
 1771SOL    HW1 7082   0.316   4.713   1.782  0.8501  1.4199 -0.7252
 1771SOL    HW2 7083   0.261   4.596   1.703 -1.7537  1.0188  1.5605
 1771SOL     MW 7084   0.329   4.638   1.737 -0.7289  0.5458  0.2087
 1772SOL     OW 7085   0.631   0.561   3.690 -0.2515  0.3381  0.1018
 1772SOL    HW1 7086   0.556   0.529   3.741  0.5088  0.5139  1.4013
 1772SOL    HW2 7087   0.592   0.609   3.618 -1.4006  0.7120  0.9341
 1772SOL     MW 7088   0.616   0.563   3.688 -0.3012  0.4085  0.3747
 1773SOL     OW 7089   2.989   0.512   0.137 -0.0632 -0.4061  0.2518
 1773SOL    HW1 7090   2.930   0.450   0.180 -0.5709 -0.8683 -1.0642
 1773SOL    HW2 7091   2.957   0.598   0.164 -0.6686 -0.6749  0.4089
 1773SOL     MW 7092   2.977   0.515   0.146 -0.2057 -0.4997  0.1035
 1774SOL     OW 7093   3.606   5.466   3.396 -0.2479  0.0382  0.1497
 1774SOL    HW1 7094   3.553   5.399   3.352  1.6639 -1.9605  0.7169
 1774SOL    HW2 7095   3.549   5.499   3.466 -0.8566 -1.9109  0.6323
 1774SOL     MW 7096   3.592   5.462   3.399 -0.0811 -0.4672  0.2841
 1775SOL     OW 7097   2.603   3.778   0.290  0.0880  0.1577 -0.7243
 1775SOL    HW1 7098   2.562   3.839   0.351  0.1009  0.6976 -1.2398
 1775SOL    HW2 7099   2.652   3.718   0.345 -0.7809 -0.0304 -0.1461
 1775SOL     MW 7100   2.604   3.778   0.305 -0.0216  0.2027 -0.7163
 1776SOL     OW 7101   1.310   5.355   2.980  0.3211  0.0365  0.0887
 1776SOL    HW1 7102   1.293   5.378   2.889 -1.2514 -1.4605 -0.0463
 1776SOL    HW2 7103   1.406   5.359   2.988  0.3678  2.4469 -0.9469
 1776SOL     MW 7104   1.320   5.358   2.969  0.1257  0.1534 -0.0612
 1777SOL     OW 7105   0.464   0.398   2.684  0.0477 -0.3346 -0.3456
 1777SOL    HW1 7106   0.391   0.458   2.667  0.7969  0.1798 -2.0788
 1777SOL    HW2 7107   0.425   0.322   2.726 -1.4957 -0.0737 -1.2460
 1777SOL     MW 7108   0.450   0.396   2.687 -0.0539 -0.2354 -0.6827
 1778SOL     OW 7109   1.199   1.924   5.280  0.3000  0.6972  0.3979
 1778SOL    HW1 7110   1.277   1.874   5.304  0.4741  0.6366 -0.2627
 1778SOL    HW2 7111   1.162   1.953   5.363  0.4092 -0.2074  0.7655
 1778SOL     MW 7112   1.204   1.922   5.294  0.3363  0.5736  0.3604
 1779SOL     OW 7113   2.888   5.437   4.157  0.0745 -0.0548  0.0460
 1779SOL    HW1 7114   2.976   5.403   4.144 -0.4511 -1.5860  0.2604
 1779SOL    HW2 7115   2.886   5.519   4.107  1.0708 -0.9035 -1.4716
 1779SOL     MW 7116   2.899   5.443   4.149  0.1348 -0.3594 -0.1208
 1780SOL     OW 7117   1.357   3.469   2.146 -0.4939 -0.8394 -0.0236
 1780SOL    HW1 7118   1.419   3.529   2.186  0.8786 -1.7797 -0.6545
 1780SOL    HW2 7119   1.286   3.461   2.210  1.3748 -1.9240  2.0635
 1780SOL     MW 7120   1.356   3.475   2.159 -0.0790 -1.0986  0.1628
 1781SOL     OW 7121   5.401   0.230   0.993 -0.1034 -0.2609 -0.1491
 1781SOL    HW1 7122   5.378   0.322   0.989 -0.4662 -0.4020 -1.9245
 1781SOL    HW2 7123   5.396   0.199   0.903  1.3608 -1.6991  0.2024
 1781SOL     MW 7124   5.397   0.238   0.981  0.0376 -0.4631 -0.3314
 1782SOL     OW 7125   3.331   3.287   4.042  0.2656  0.0411  0.2777
 1782SOL    HW1 7126   3.284   3.305   4.123 -0.8404 -0.6951 -0.1825
 1782SOL    HW2 7127   3.273   3.319   3.972  1.5254  1.3565 -0.2219
 1782SOL     MW 7128   3.318   3.294   4.043  0.2853  0.1152  0.1549
 1783SOL     OW 7129   4.169   5.345   3.771 -0.3170 -0.6674 -0.3307
 1783SOL    HW1 7130   4.186   5.290   3.695 -0.0967 -2.1558  0.7428
 1783SOL    HW2 7131   4.253   5.349   3.817 -0.5924 -0.2825  0.1522
 1783SOL     MW 7132   4.182   5.339   3.767 -0.3241 -0.8086 -0.1314
 1784SOL     OW 7133   0.581   2.106   4.370 -0.3517 -0.1325 -0.2459
 1784SOL    HW1 7134   0.547   2.041   4.308  0.8644  0.3760 -1.4978
 1784SOL    HW2 7135   0.534   2.186   4.349 -0.5584 -0.1585  0.0979
 1784SOL     MW 7136   0.571   2.108   4.360 -0.2225 -0.0708 -0.3621
 1785SOL     OW 7137   3.902   3.098   5.104 -0.1332  0.2390 -0.0081
 1785SOL    HW1 7138   3.879   3.048   5.026 -0.8722  0.3983  0.0929
 1785SOL    HW2 7139   3.972   3.156   5.076  2.3829 -2.3951  0.4395
 1785SOL     MW 7140   3.908   3.099   5.091  0.0943 -0.0778  0.0621
 1786SOL     OW 7141   4.489   1.107   1.696 -0.1131  0.0162 -0.0451
 1786SOL    HW1 7142   4.515   1.106   1.604 -0.4168 -1.1418 -0.1347
 1786SOL    HW2 7143   4.410   1.053   1.699 -2.7786  3.5318  0.1744
 1786SOL     MW 7144   4.482   1.100   1.684 -0.4932  0.3180 -0.0284
 1787SOL     OW 7145   3.915   1.869   4.403  0.2091  0.8304 -0.5012
 1787SOL    HW1 7146   3.959   1.948   4.434  2.3132  0.0797 -1.3752
 1787SOL    HW2 7147   3.979   1.826   4.346 -1.1783 -1.0807 -0.7476
 1787SOL     MW 7148   3.929   1.873   4.400  0.3008  0.4896 -0.6446
 1788SOL     OW 7149   4.779   0.416   0.202  0.3750 -0.2143 -0.2637
 1788SOL    HW1 7150   4.793   0.379   0.115  2.0064  0.6478 -0.4241
 1788SOL    HW2 7151   4.788   0.511   0.190 -0.1509 -0.0198  0.7201
 1788SOL     MW 7152   4.782   0.423   0.190  0.5165 -0.0791 -0.1583
 1789SOL     OW 7153   4.396   4.636   1.841  0.2929 -0.2755 -0.0423
 1789SOL    HW1 7154   4.338   4.561   1.832 -0.8208  0.5754 -0.1482
 1789SOL    HW2 7155   4.482   4.598   1.860 -0.3644 -1.5412  0.4754
 1789SOL     MW 7156   4.400   4.621   1.842  0.0662 -0.3286  0.0104
 1790SOL     OW 7157   2.731   3.787   5.141  0.0579 -0.9033  0.3469
 1790SOL    HW1 7158   2.638   3.766   5.147  0.5059 -2.6336  1.8260
 1790SOL    HW2 7159   2.751   3.780   5.047 -2.0351  3.2772 -0.6588
 1790SOL     MW 7160   2.722   3.784   5.130 -0.1527 -0.5896  0.4075
 1791SOL     OW 7161   2.192   3.687   2.421 -0.3525  0.4321  0.5552
 1791SOL    HW1 7162   2.236   3.602   2.416  0.6335  1.0014 -1.6315
 1791SOL    HW2 7163   2.127   3.685   2.351 -0.8541  1.1990  0.9790
 1791SOL     MW 7164   2.189   3.676   2.412 -0.2905  0.6032  0.3295
 1792SOL     OW 7165   5.051   3.289   3.722 -0.0307 -0.6441  0.2630
 1792SOL    HW1 7166   5.099   3.358   3.676 -0.2198 -2.2960 -2.6092
 1792SOL    HW2 7167   5.120   3.237   3.764  0.3452 -0.3753 -0.0051
 1792SOL     MW 7168   5.066   3.291   3.722 -0.0068 -0.8212 -0.1390
 1793SOL     OW 7169   0.219   0.001   4.599 -0.3273  0.3542 -0.2712
 1793SOL    HW1 7170   0.211  -0.056   4.676  0.4127 -0.0659 -0.4932
 1793SOL    HW2 7171   0.149   0.065   4.609  0.1030  0.6538  1.0563
 1793SOL     MW 7172   0.209   0.002   4.610 -0.1775  0.3387 -0.1297
 1794SOL     OW 7173   3.618   0.511   4.266 -0.2699  0.3309 -0.4480
 1794SOL    HW1 7174   3.646   0.489   4.355 -0.5064 -0.6591 -0.6000
 1794SOL    HW2 7175   3.699   0.525   4.218 -0.1462  1.1736 -0.0145
 1794SOL     MW 7176   3.632   0.510   4.272 -0.2844  0.3120 -0.4120
 1795SOL     OW 7177   5.017   4.209   4.677 -0.7149  0.3393 -0.5133
 1795SOL    HW1 7178   5.044   4.215   4.585 -0.7723 -0.8498 -0.6190
 1795SOL    HW2 7179   5.096   4.233   4.726 -0.0296 -1.1297 -0.8503
 1795SOL     MW 7180   5.031   4.213   4.671 -0.6345 -0.0009 -0.5700
 1796SOL     OW 7181   2.210   2.250   1.827 -0.3495  0.0188  0.4629
 1796SOL    HW1 7182   2.210   2.324   1.888  2.1943  0.3965  0.1030
 1796SOL    HW2 7183   2.156   2.280   1.754 -2.1959  0.1314  1.8026
 1796SOL     MW 7184   2.203   2.264   1.826 -0.2602  0.0816  0.5883
 1797SOL     OW 7185   2.770   3.750   3.739  0.2298 -0.3215  0.2006
 1797SOL    HW1 7186   2.686   3.740   3.785 -1.1174  0.5841 -1.8968
 1797SOL    HW2 7187   2.745   3.777   3.651  2.7042 -1.4618 -0.9344
 1797SOL     MW 7188   2.756   3.752   3.734  0.3741 -0.3515 -0.2132
 1798SOL     OW 7189   5.220   5.019   5.065  0.3578  0.2929  0.5523
 1798SOL    HW1 7190   5.135   5.047   5.097  0.8446 -1.5960  3.9161
 1798SOL    HW2 7191   5.282   5.082   5.104  0.7557 -0.5063  1.2501
 1798SOL     MW 7192   5.217   5.031   5.074  0.4710 -0.0512  1.0723
 1799SOL     OW 7193   0.770   0.252   0.534  0.6764 -0.1622  0.0618
 1799SOL    HW1 7194   0.857   0.221   0.507  0.6410 -0.4269  0.2418
 1799SOL    HW2 7195   0.766   0.231   0.628  0.9447  1.0697  0.3648
 1799SOL     MW 7196   0.781   0.245   0.543  0.7062 -0.0384  0.1236
 1800SOL     OW 7197   0.444   5.365   5.178 -0.0462 -0.8486  0.4121
 1800SOL    HW1 7198   0.388   5.354   5.100  0.6199 -1.8130  0.0440
 1800SOL    HW2 7199   0.406   5.440   5.224 -1.2259 -1.0461 -0.1807
 1800SOL     MW 7200   0.432   5.373   5.174 -0.1119 -0.9973  0.2891
 1801SOL     OW 7201   2.942   2.140   3.376  0.2966 -0.1740  0.2262
 1801SOL    HW1 7202   3.011   2.167   3.315  0.1563 -0.3341 -0.0039
 1801SOL    HW2 7203   2.983   2.146   3.462  0.2017  1.0221  0.2118
 1801SOL     MW 7204   2.956   2.145   3.379  0.2665 -0.0414  0.1949
 1802SOL     OW 7205   4.286   3.233   4.136 -0.0711  0.3517 -0.1812
 1802SOL    HW1 7206   4.312   3.193   4.219  0.2707 -0.1216 -0.5092
 1802SOL    HW2 7207   4.232   3.308   4.161  0.0877  0.2539  0.4671
 1802SOL     MW 7208   4.282   3.237   4.150 -0.0070  0.2786 -0.1402
 1803SOL     OW 7209   1.552   5.208   5.057 -0.5709 -0.2995 -0.4167
 1803SOL    HW1 7210   1.465   5.170   5.045 -0.9910  0.4510  0.1445
 1803SOL    HW2 7211   1.538   5.278   5.120  0.4560 -0.1940 -0.3000
 1803SOL     MW 7212   1.539   5.212   5.064 -0.4933 -0.1900 -0.3300
 1804SOL     OW 7213   3.411   5.387   1.877 -0.1574 -0.3449 -0.2066
 1804SOL    HW1 7214   3.421   5.302   1.921 -1.8011 -1.0193 -1.0180
 1804SOL    HW2 7215   3.407   5.451   1.949  0.0235 -1.0815  0.4740
 1804SOL     MW 7216   3.412   5.384   1.892 -0.3447 -0.5255 -0.2233
 1805SOL     OW 7217   3.588   0.311   5.038 -0.2077 -0.2939 -0.0117
 1805SOL    HW1 7218   3.534   0.251   4.988 -0.8327  0.4757 -0.2842
 1805SOL    HW2 7219   3.557   0.303   5.128 -0.5123 -0.1415 -0.1030
 1805SOL     MW 7220   3.577   0.302   5.043 -0.3267 -0.1759 -0.0583
 1806SOL     OW 7221   0.035   1.993   1.519 -0.3090 -0.0547  0.2816
 1806SOL    HW1 7222   0.046   1.994   1.614  0.2660 -1.5147  0.2594
 1806SOL    HW2 7223  -0.048   1.947   1.505  0.2075 -0.9281  0.0505
 1806SOL     MW 7224   0.026   1.987   1.530 -0.1693 -0.3534  0.2492
 1807SOL     OW 7225   1.933   5.176   0.022  0.0319  0.2194  0.3184
 1807SOL    HW1 7226   2.017   5.222   0.024  0.7549 -0.9617 -0.5845
 1807SOL    HW2 7227   1.869   5.243   0.002  0.7375  1.1734  1.1344
 1807SOL     MW 7228   1.936   5.190   0.019  0.2148  0.1904  0.3072
 1808SOL     OW 7229   0.275   4.536   0.270 -0.9186  0.5534 -0.2109
 1808SOL    HW1 7230   0.267   4.596   0.344 -0.3290 -1.1007  1.2671
 1808SOL    HW2 7231   0.223   4.460   0.295 -1.0147  0.1082 -1.6825
 1808SOL     MW 7232   0.267   4.534   0.282 -0.8555  0.2847 -0.2101
 1809SOL     OW 7233   4.148   4.924   0.763 -0.1908  0.0044 -0.1436
 1809SOL    HW1 7234   4.113   5.000   0.810 -0.6240 -0.0188 -0.4340
 1809SOL    HW2 7235   4.073   4.885   0.719  0.2479  0.1539 -1.0537
 1809SOL     MW 7236   4.134   4.928   0.764 -0.1901  0.0206 -0.2973
 1810SOL     OW 7237   0.753   3.167   1.181  0.2321  0.4778  0.1256
 1810SOL    HW1 7238   0.681   3.143   1.123 -0.4266 -0.2499  1.2041
 1810SOL    HW2 7239   0.761   3.093   1.241  2.2433  0.3079 -0.2858
 1810SOL     MW 7240   0.745   3.155   1.181  0.4052  0.3629  0.2110
 1811SOL     OW 7241   1.929   0.897   5.170  0.4465  0.4121 -0.5232
 1811SOL    HW1 7242   1.981   0.904   5.090  1.0023 -0.3622 -0.2393
 1811SOL    HW2 7243   1.838   0.906   5.140  0.7331  3.5600 -0.8255
 1811SOL     MW 7244   1.924   0.899   5.156  0.5543  0.7159 -0.5255
 1812SOL     OW 7245   5.191   4.388   2.393 -0.0495 -0.4609 -0.0695
 1812SOL    HW1 7246   5.229   4.347   2.470  0.8675  0.5794  0.0497
 1812SOL    HW2 7247   5.135   4.458   2.428  0.5703  0.1825 -0.3322
 1812SOL     MW 7248   5.188   4.392   2.407  0.1472 -0.2453 -0.0879
 1813SOL     OW 7249   2.055   1.430   2.610 -0.4861 -0.3965 -0.1938
 1813SOL    HW1 7250   2.089   1.342   2.624  1.8675  0.5483  0.4378
 1813SOL    HW2 7251   2.062   1.444   2.516 -1.9763 -1.2439 -0.4722
 1813SOL     MW 7252   2.060   1.421   2.600 -0.3756 -0.3841 -0.1486
 1814SOL     OW 7253   2.078   2.642   3.654  0.0024 -0.6064  0.9911
 1814SOL    HW1 7254   2.054   2.553   3.680 -3.5578  0.2847  1.2883
 1814SOL    HW2 7255   2.104   2.634   3.562 -0.6500 -1.9196  0.8943
 1814SOL     MW 7256   2.078   2.630   3.646 -0.5369 -0.6605  1.0168
 1815SOL     OW 7257   3.924   1.474  -0.005  0.2647  0.4946  0.4788
 1815SOL    HW1 7258   3.848   1.529  -0.026  1.7726  2.0362 -1.2084
 1815SOL    HW2 7259   3.963   1.516   0.071 -0.8192 -0.6320  1.7165
 1815SOL     MW 7260   3.919   1.486   0.002  0.3190  0.5477  0.4213
 1816SOL     OW 7261   4.587   4.076   0.616  0.5644 -0.0541  0.3362
 1816SOL    HW1 7262   4.675   4.051   0.644  0.8185 -0.9370 -1.1236
 1816SOL    HW2 7263   4.532   4.003   0.645  0.2635  0.6224  1.4803
 1816SOL     MW 7264   4.591   4.063   0.623  0.5584 -0.0805  0.2958
 1817SOL     OW 7265   0.210   3.589   1.792 -0.1063 -0.1922  0.1810
 1817SOL    HW1 7266   0.156   3.537   1.853 -1.8856  1.5122  0.1666
 1817SOL    HW2 7267   0.283   3.620   1.845 -0.3284 -0.7170  0.8107
 1817SOL     MW 7268   0.212   3.586   1.806 -0.3625 -0.0412  0.2598
 1818SOL     OW 7269   3.384   3.717   3.871  0.6203  0.4687 -0.5222
 1818SOL    HW1 7270   3.420   3.786   3.814 -0.9367  2.6024  0.9157
 1818SOL    HW2 7271   3.326   3.667   3.815 -0.6866  2.3648 -0.9683
 1818SOL     MW 7272   3.381   3.719   3.857  0.2537  0.9846 -0.3952
 1819SOL     OW 7273   4.556   3.647   1.473 -0.2041  0.5107  0.3052
 1819SOL    HW1 7274   4.649   3.647   1.451 -0.3966 -0.8770 -0.6779
 1819SOL    HW2 7275   4.541   3.564   1.518 -0.9054  0.8717  0.7672
 1819SOL     MW 7276   4.566   3.636   1.476 -0.3185  0.3792  0.2385
 1820SOL     OW 7277   2.280   4.393   1.660 -0.2810  0.5683 -0.1379
 1820SOL    HW1 7278   2.219   4.361   1.727  0.3066 -0.2987 -0.0003
 1820SOL    HW2 7279   2.367   4.371   1.695  0.0276  0.0885 -1.1838
 1820SOL     MW 7280   2.283   4.386   1.673 -0.1663  0.3959 -0.2542
 1821SOL     OW 7281   1.685   2.366   5.270 -0.1896 -0.1437  0.0018
 1821SOL    HW1 7282   1.742   2.426   5.222  1.0619 -1.6076 -0.3887
 1821SOL    HW2 7283   1.739   2.290   5.289 -2.0525 -1.6960 -0.5602
 1821SOL     MW 7284   1.699   2.364   5.266 -0.2679 -0.5298 -0.1201
 1822SOL     OW 7285   0.311   1.678   3.352  0.3860  0.0031  0.3500
 1822SOL    HW1 7286   0.256   1.679   3.274 -0.1093 -0.4232  0.6825
 1822SOL    HW2 7287   0.273   1.745   3.409  1.0957  0.7187  0.0014
 1822SOL     MW 7288   0.299   1.687   3.350  0.4134  0.0401  0.3479
 1823SOL     OW 7289   3.307   4.310   5.392  0.6417 -0.2470 -0.3801
 1823SOL    HW1 7290   3.252   4.231   5.393  0.2687  0.0002 -0.9951
 1823SOL    HW2 7291   3.396   4.277   5.411  0.6576 -0.9563 -1.5705
 1823SOL     MW 7292   3.312   4.295   5.394  0.5960 -0.3062 -0.6112
 1824SOL     OW 7293   4.753   2.969   1.766 -0.1058 -0.0783 -0.3816
 1824SOL    HW1 7294   4.773   2.880   1.736 -0.1833 -0.0438 -0.5360
 1824SOL    HW2 7295   4.743   2.960   1.860  1.8423  0.1226 -0.1273
 1824SOL     MW 7296   4.754   2.956   1.774  0.1337 -0.0482 -0.3688
 1825SOL     OW 7297   0.724   0.278   1.665  0.1942  0.8694 -0.0993
 1825SOL    HW1 7298   0.744   0.294   1.758  0.2212  0.4891 -0.0368
 1825SOL    HW2 7299   0.635   0.310   1.654 -1.6304 -3.0690  1.1841
 1825SOL     MW 7300   0.715   0.284   1.676 -0.0359  0.3165  0.0730
 1826SOL     OW 7301   1.469   0.754   0.357 -0.3799  0.0701 -0.2802
 1826SOL    HW1 7302   1.529   0.719   0.291  0.3184 -1.6303  1.1771
 1826SOL    HW2 7303   1.389   0.701   0.348  0.2576 -1.2228  1.1539
 1826SOL     MW 7304   1.467   0.743   0.347 -0.2089 -0.3131  0.0899
 1827SOL     OW 7305   3.747   4.983   1.077 -0.3664  0.0993  0.0756
 1827SOL    HW1 7306   3.662   4.937   1.081  0.3131 -1.2015  0.2427
 1827SOL    HW2 7307   3.735   5.060   1.132 -1.4718 -0.0149  0.0274
 1827SOL     MW 7308   3.734   4.987   1.085 -0.4209 -0.0818  0.0908
 1828SOL     OW 7309   4.326   3.337   3.887 -0.4915  0.0181  0.7907
 1828SOL    HW1 7310   4.415   3.370   3.890 -0.2437 -0.6271  0.7400
 1828SOL    HW2 7311   4.314   3.292   3.971 -0.8630  0.3353  0.9110
 1828SOL     MW 7312   4.336   3.335   3.898 -0.5073 -0.0239  0.7996
 1829SOL     OW 7313   2.135   2.330   3.298 -0.1215 -0.3908  0.1349
 1829SOL    HW1 7314   2.122   2.420   3.327 -1.3592 -0.6484  0.4541
 1829SOL    HW2 7315   2.178   2.337   3.213  0.0603  0.4874  0.2948
 1829SOL     MW 7316   2.139   2.342   3.291 -0.2567 -0.3114  0.1963
 1830SOL     OW 7317   3.340   0.434   0.467 -0.1859  0.6060 -0.0233
 1830SOL    HW1 7318   3.260   0.486   0.472 -0.1997  0.5506  0.3947
 1830SOL    HW2 7319   3.379   0.442   0.554  1.8475  3.1295 -1.0531
 1830SOL     MW 7320   3.335   0.442   0.479  0.0727  0.9219 -0.1016
 1831SOL     OW 7321   0.718   3.335   2.153 -0.1218 -0.2530  0.1816
 1831SOL    HW1 7322   0.669   3.315   2.073  0.4768 -2.2914  0.2753
 1831SOL    HW2 7323   0.706   3.429   2.165 -1.6363 -0.1941 -1.3573
 1831SOL     MW 7324   0.710   3.344   2.144 -0.2390 -0.5064 -0.0034
 1832SOL     OW 7325   5.090   1.793   5.165 -0.1106 -0.3396 -0.0194
 1832SOL    HW1 7326   5.152   1.815   5.095 -0.2041 -0.0678 -0.0182
 1832SOL    HW2 7327   5.017   1.852   5.151  0.7318  1.1477  1.5084
 1832SOL     MW 7328   5.089   1.803   5.154 -0.0147 -0.1144  0.1763
 1833SOL     OW 7329   0.902   1.877   0.538 -0.0723  0.0484 -0.2311
 1833SOL    HW1 7330   0.866   1.957   0.501  1.8266  0.9596 -0.2101
 1833SOL    HW2 7331   0.871   1.877   0.629 -0.5820  0.4259 -0.3976
 1833SOL     MW 7332   0.893   1.887   0.545  0.1056  0.2133 -0.2497
 1834SOL     OW 7333   4.315   4.456   3.394  0.5347  0.2716 -0.2526
 1834SOL    HW1 7334   4.302   4.387   3.329 -0.0563 -0.3806  0.5388
 1834SOL    HW2 7335   4.397   4.497   3.369  0.2540  0.1258 -1.4922
 1834SOL     MW 7336   4.324   4.453   3.382  0.4232  0.1694 -0.3099
 1835SOL     OW 7337   5.239   4.483   3.050 -0.2406 -0.6455 -0.5736
 1835SOL    HW1 7338   5.240   4.535   3.130 -2.3860 -0.8540 -0.3402
 1835SOL    HW2 7339   5.307   4.416   3.063  0.4128  0.1938  0.4338
 1835SOL     MW 7340   5.248   4.481   3.062 -0.4316 -0.5648 -0.4148
 1836SOL     OW 7341   4.464   4.124   2.204 -0.5705  0.3470  0.1950
 1836SOL    HW1 7342   4.476   4.151   2.113  0.3777  1.6260  0.6748
 1836SOL    HW2 7343   4.546   4.149   2.247 -0.9634 -0.3397  1.3816
 1836SOL     MW 7344   4.476   4.130   2.198 -0.4994  0.4228  0.4083
 1837SOL     OW 7345   4.183   5.375   1.310  0.4066  0.3507 -0.0011
 1837SOL    HW1 7346   4.162   5.444   1.373  0.6225  0.6321 -0.2354
 1837SOL    HW2 7347   4.148   5.407   1.227 -0.4217 -0.2969  0.0915
 1837SOL     MW 7348   4.176   5.388   1.308  0.3282  0.3038 -0.0192
 1838SOL     OW 7349   1.769   4.797   2.719  0.1827 -0.6973 -0.5294
 1838SOL    HW1 7350   1.845   4.849   2.695  0.2187 -0.5640 -0.1462
 1838SOL    HW2 7351   1.707   4.861   2.756 -0.7951 -0.5332 -2.3214
 1838SOL     MW 7352   1.771   4.812   2.721  0.0621 -0.6592 -0.7098
 1839SOL     OW 7353   4.207   3.860   4.972 -0.1044 -0.0738  0.3325
 1839SOL    HW1 7354   4.298   3.859   4.942 -0.4398  0.5130 -0.8015
 1839SOL    HW2 7355   4.212   3.842   5.065  1.1025 -0.9509  0.1302
 1839SOL     MW 7356   4.219   3.858   4.980  0.0072 -0.1110  0.1615
 1840SOL     OW 7357   3.205   0.322   2.391  0.5808  0.0028  0.2363
 1840SOL    HW1 7358   3.172   0.301   2.478  0.7038  0.1942  0.3281
 1840SOL    HW2 7359   3.284   0.373   2.406  0.3400  0.4468  0.0126
 1840SOL     MW 7360   3.211   0.326   2.404  0.5657  0.0841  0.2194
 1841SOL     OW 7361   0.508   5.401   3.364 -0.2126  0.0538  0.5387
 1841SOL    HW1 7362   0.573   5.458   3.323  0.0315  1.3956  2.6379
 1841SOL    HW2 7363   0.425   5.445   3.349 -0.8651 -1.9652 -2.6740
 1841SOL     MW 7364   0.506   5.414   3.357 -0.2649 -0.0329  0.3961
 1842SOL     OW 7365   3.295   2.172   4.615 -0.0259  0.5877 -0.5237
 1842SOL    HW1 7366   3.291   2.098   4.676  0.6910  0.6109 -0.4431
 1842SOL    HW2 7367   3.207   2.178   4.579 -0.2270  0.0231 -0.1369
 1842SOL     MW 7368   3.283   2.164   4.618  0.0401  0.5184 -0.4639
 1843SOL     OW 7369   3.690   2.196   3.912  0.1157 -0.4808 -0.0096
 1843SOL    HW1 7370   3.703   2.110   3.870 -0.2651 -0.6747  0.2693
 1843SOL    HW2 7371   3.604   2.189   3.954 -0.1596  0.2241 -0.4426
 1843SOL     MW 7372   3.681   2.184   3.912  0.0317 -0.4154 -0.0294
 1844SOL     OW 7373   0.759   3.746   3.709 -0.3301  0.4712 -0.0018
 1844SOL    HW1 7374   0.739   3.695   3.788 -0.2688 -0.3620 -0.5135
 1844SOL    HW2 7375   0.829   3.806   3.736  1.9155 -1.9027 -0.1680
 1844SOL     MW 7376   0.765   3.747   3.723 -0.0348  0.0606 -0.0886
 1845SOL     OW 7377   4.058   0.498   0.900 -0.1741  0.2774  0.8258
 1845SOL    HW1 7378   4.044   0.551   0.822 -1.5658  1.0143  1.5368
 1845SOL    HW2 7379   3.970   0.469   0.926  0.0169  1.3948  3.0062
 1845SOL     MW 7380   4.045   0.501   0.894 -0.3278  0.5148  1.1959
 1846SOL     OW 7381   0.828   5.331   5.174 -0.3857  0.8112  1.2075
 1846SOL    HW1 7382   0.789   5.265   5.116  0.7759  0.4398  0.8319
 1846SOL    HW2 7383   0.880   5.281   5.236  2.4525  1.4070 -0.5055
 1846SOL     MW 7384   0.829   5.316   5.175  0.1264  0.8399  0.9401
 1847SOL     OW 7385   3.463   3.820   0.909  0.1377 -0.4453 -0.4283
 1847SOL    HW1 7386   3.405   3.877   0.859  0.0461 -1.5317 -1.6006
 1847SOL    HW2 7387   3.444   3.732   0.877  2.1271 -0.8779 -0.5465
 1847SOL     MW 7388   3.454   3.816   0.899  0.3807 -0.6397 -0.5935
 1848SOL     OW 7389   0.404   3.149   3.908 -0.0940 -0.5952  0.2078
 1848SOL    HW1 7390   0.344   3.083   3.945  0.2921 -0.6569  0.7435
 1848SOL    HW2 7391   0.377   3.158   3.817 -1.2752 -0.2240  0.5762
 1848SOL     MW 7392   0.393   3.142   3.901 -0.1958 -0.5556  0.3236
 1849SOL     OW 7393   1.880   4.896   4.131 -0.0250  0.1395  0.0399
 1849SOL    HW1 7394   1.877   4.977   4.080 -0.8968 -0.5189 -1.0017
 1849SOL    HW2 7395   1.810   4.906   4.196  0.1701  0.4021  0.2120
 1849SOL     MW 7396   1.871   4.908   4.133 -0.1116  0.0888 -0.0714
 1850SOL     OW 7397   4.301   5.106   3.634  0.0098 -0.0300 -0.2233
 1850SOL    HW1 7398   4.272   5.040   3.698  0.0009 -0.5542 -0.7578
 1850SOL    HW2 7399   4.393   5.121   3.656  0.7662 -2.0869 -1.6072
 1850SOL     MW 7400   4.309   5.099   3.645  0.1055 -0.3604 -0.4689
 1851SOL     OW 7401   1.315   3.608   3.799  0.2953  0.3310  0.1177
 1851SOL    HW1 7402   1.263   3.551   3.743 -0.1828  1.3048 -0.4433
 1851SOL    HW2 7403   1.326   3.688   3.749  0.7073  0.8524  1.0198
 1851SOL     MW 7404   1.310   3.611   3.786  0.2868  0.5224  0.1614
 1852SOL     OW 7405   0.351   4.512   0.615 -0.3870 -0.1548  0.3364
 1852SOL    HW1 7406   0.319   4.495   0.704  2.6819  1.2648  1.9062
 1852SOL    HW2 7407   0.391   4.429   0.588  0.4868 -0.0587  1.2314
 1852SOL     MW 7408   0.352   4.499   0.623  0.1177  0.0392  0.6519
 1853SOL     OW 7409   4.372   2.946   4.686  0.8183 -0.9252 -0.1932
 1853SOL    HW1 7410   4.333   2.932   4.773  1.3023  0.1753  0.2223
 1853SOL    HW2 7411   4.328   2.883   4.630 -0.9828 -0.3036  0.4271
 1853SOL     MW 7412   4.361   2.936   4.690  0.6497 -0.7048 -0.0606
 1854SOL     OW 7413   3.938   5.414   2.902  0.7077 -0.1113 -0.0987
 1854SOL    HW1 7414   3.941   5.466   2.982 -1.1673  0.1008 -0.1209
 1854SOL    HW2 7415   3.945   5.478   2.831 -1.1015  0.1082 -0.1187
 1854SOL     MW 7416   3.940   5.429   2.903  0.2361 -0.0560 -0.1041
 1855SOL     OW 7417   2.339   2.722   2.844 -0.4524  0.4269  0.1353
 1855SOL    HW1 7418   2.269   2.666   2.810  0.5611 -0.3893 -0.6773
 1855SOL    HW2 7419   2.341   2.704   2.938  0.7151 -1.9604 -0.2667
 1855SOL     MW 7420   2.330   2.713   2.852 -0.1732  0.0168 -0.0201
 1856SOL     OW 7421   3.057   2.901   0.127  0.3653 -0.2705  0.2141
 1856SOL    HW1 7422   3.003   2.914   0.050  1.1743 -1.2935 -0.5761
 1856SOL    HW2 7423   2.999   2.859   0.191 -0.7721  2.1219  0.8386
 1856SOL     MW 7424   3.043   2.897   0.125  0.3232 -0.0952  0.1929
 1857SOL     OW 7425   3.378   4.858   0.244 -0.2759 -0.2846  0.5159
 1857SOL    HW1 7426   3.334   4.776   0.269 -1.6167  0.8038  1.8524
 1857SOL    HW2 7427   3.308   4.916   0.216  0.2259  1.5016  2.6843
 1857SOL     MW 7428   3.364   4.855   0.244 -0.3833  0.0834  0.9646
 1858SOL     OW 7429   3.108   0.669   3.675 -0.5790 -0.5344  0.1792
 1858SOL    HW1 7430   3.155   0.646   3.595 -2.7408 -0.2436 -1.2585
 1858SOL    HW2 7431   3.151   0.749   3.706 -0.3448 -0.0449 -1.3088
 1858SOL     MW 7432   3.120   0.676   3.669 -0.8257 -0.4345 -0.1953
 1859SOL     OW 7433   1.296   3.161   1.917 -0.4600  0.3104  0.3240
 1859SOL    HW1 7434   1.340   3.245   1.905 -1.0894  0.7551  1.0471
 1859SOL    HW2 7435   1.363   3.095   1.899  0.7499  0.9560  2.2522
 1859SOL     MW 7436   1.310   3.163   1.913 -0.3857  0.4499  0.6634
 1860SOL     OW 7437   1.724   2.599   5.124  0.6721  0.3915 -0.6470
 1860SOL    HW1 7438   1.777   2.645   5.058  0.0141  1.3649 -0.5155
 1860SOL    HW2 7439   1.705   2.666   5.190  0.6568 -0.3731  0.1403
 1860SOL     MW 7440   1.728   2.613   5.124  0.5859  0.4182 -0.5294
 1861SOL     OW 7441   0.146   1.041   0.947 -0.3053  0.5504 -0.1362
 1861SOL    HW1 7442   0.191   0.985   0.884 -0.2139  1.4240 -0.8717
 1861SOL    HW2 7443   0.106   1.109   0.894 -3.1158 -0.5410  0.4044
 1861SOL     MW 7444   0.147   1.042   0.932 -0.6533  0.5225 -0.1611
 1862SOL     OW 7445   0.320   1.398   2.540  0.2083  0.0398 -0.3046
 1862SOL    HW1 7446   0.330   1.417   2.447 -3.3528  0.2359 -0.7801
 1862SOL    HW2 7447   0.284   1.310   2.543  1.1921 -0.3558  0.9973
 1862SOL     MW 7448   0.317   1.389   2.529 -0.1216  0.0143 -0.1988
 1863SOL     OW 7449   5.290   4.867   4.421 -0.1577  0.1708 -0.2567
 1863SOL    HW1 7450   5.247   4.887   4.338 -1.8855  1.6779  0.9146
 1863SOL    HW2 7451   5.327   4.951   4.449  0.5982 -0.3665  0.3926
 1863SOL     MW 7452   5.289   4.880   4.414 -0.2821  0.2949 -0.0237
 1864SOL     OW 7453   0.019   0.778   3.378  0.1340  0.0177 -0.0894
 1864SOL    HW1 7454  -0.029   0.856   3.350  0.9407  0.3350 -0.6301
 1864SOL    HW2 7455   0.064   0.805   3.458  1.0796  0.3823 -0.7274
 1864SOL     MW 7456   0.018   0.792   3.384  0.3583  0.1050 -0.2403
 1865SOL     OW 7457   2.503   1.282   1.125 -0.2875  0.4010  0.0991
 1865SOL    HW1 7458   2.441   1.331   1.072 -0.7489 -0.8885 -0.5925
 1865SOL    HW2 7459   2.474   1.296   1.215  0.5784  2.7143  0.0965
 1865SOL     MW 7460   2.491   1.290   1.130 -0.2357  0.5321  0.0103
 1866SOL     OW 7461   0.628   2.789   5.203 -0.9595 -0.1415  0.5391
 1866SOL    HW1 7462   0.721   2.775   5.187 -0.9548 -2.5783  2.1609
 1866SOL    HW2 7463   0.623   2.874   5.246  0.5209 -0.0188  0.5057
 1866SOL     MW 7464   0.639   2.798   5.207 -0.7694 -0.4377  0.7425
 1867SOL     OW 7465   1.744   0.807   2.765 -0.0529 -0.0802  0.3425
 1867SOL    HW1 7466   1.838   0.798   2.780  0.2747  0.6259 -1.1361
 1867SOL    HW2 7467   1.724   0.749   2.692 -0.6273  0.3451  0.1487
 1867SOL     MW 7468   1.753   0.798   2.758 -0.0845  0.0646  0.1284
 1868SOL     OW 7469   0.553   2.385   4.164 -0.6823 -0.0901  0.2081
 1868SOL    HW1 7470   0.541   2.319   4.095  0.8100  1.7769 -2.0042
 1868SOL    HW2 7471   0.648   2.389   4.177 -0.6235  2.2792 -0.4843
 1868SOL     MW 7472   0.564   2.377   4.157 -0.4837  0.4522 -0.1637
 1869SOL     OW 7473   4.987   3.734   3.813  0.5962 -0.3584  0.2062
 1869SOL    HW1 7474   4.956   3.824   3.825  0.4228 -0.4209  0.2346
 1869SOL    HW2 7475   4.908   3.684   3.792  0.2190 -0.9804  2.7034
 1869SOL     MW 7476   4.973   3.739   3.812  0.5257 -0.4461  0.5295
 1870SOL     OW 7477   2.229   1.784   1.269 -0.4993 -0.0199  0.2806
 1870SOL    HW1 7478   2.199   1.697   1.243 -1.3257  0.6568 -1.1970
 1870SOL    HW2 7479   2.297   1.805   1.205 -1.2449  0.9379 -0.2347
 1870SOL     MW 7480   2.234   1.775   1.257 -0.7005  0.1893  0.0255
 1871SOL     OW 7481   0.845   2.178   3.380 -0.0236 -0.1661 -0.3458
 1871SOL    HW1 7482   0.845   2.266   3.343 -0.5099 -0.5176 -1.1979
 1871SOL    HW2 7483   0.807   2.189   3.468 -0.7812  0.3591 -0.7287
 1871SOL     MW 7484   0.840   2.191   3.387 -0.1828 -0.1439 -0.5039
 1872SOL     OW 7485   0.782   4.597   3.906  0.3956  0.0040  0.7054
 1872SOL    HW1 7486   0.768   4.691   3.909  1.1337  0.0981  2.4897
 1872SOL    HW2 7487   0.875   4.587   3.885  0.5413 -0.2926  1.4745
 1872SOL     MW 7488   0.792   4.608   3.904  0.5087 -0.0219  1.0323
 1873SOL     OW 7489   3.313   1.252   2.285  0.8746  0.0944  0.0776
 1873SOL    HW1 7490   3.243   1.187   2.295  0.8671  0.0817 -0.0634
 1873SOL    HW2 7491   3.293   1.298   2.205  1.2244 -0.1550 -0.1596
 1873SOL     MW 7492   3.302   1.249   2.276  0.9184  0.0608  0.0292
 1874SOL     OW 7493   3.038   4.874   1.212 -0.5902  0.1296 -0.4114
 1874SOL    HW1 7494   2.951   4.886   1.249 -0.0064  1.6655  0.5469
 1874SOL    HW2 7495   3.022   4.858   1.119 -1.8599  1.7292 -0.5123
 1874SOL     MW 7496   3.025   4.873   1.205 -0.6780  0.5310 -0.3016
 1875SOL     OW 7497   2.775   1.057   4.597 -0.0263 -0.0307 -0.4349
 1875SOL    HW1 7498   2.692   1.057   4.549  1.2232  1.7431 -2.8407
 1875SOL    HW2 7499   2.838   1.098   4.536  2.2546  0.2008  1.8945
 1875SOL     MW 7500   2.773   1.062   4.583  0.4256  0.2260 -0.4446
 1876SOL     OW 7501   4.939   4.736   3.116  0.2467  0.6128  0.0743
 1876SOL    HW1 7502   4.995   4.788   3.174  1.2787 -0.4804  0.0929
 1876SOL    HW2 7503   4.941   4.648   3.153 -0.7330  0.3403 -0.4749
 1876SOL     MW 7504   4.946   4.731   3.128  0.2534  0.4380  0.0064
 1877SOL     OW 7505   4.668   3.861   0.181  0.2804  0.2379  0.5490
 1877SOL    HW1 7506   4.636   3.802   0.249  2.0528 -2.5196 -0.7665
 1877SOL    HW2 7507   4.619   3.836   0.103  2.9310 -1.6887 -0.6832
 1877SOL     MW 7508   4.658   3.850   0.180  0.8466 -0.3617  0.2228
 1878SOL     OW 7509   1.243   1.040   5.078 -0.0021  0.3175 -0.2324
 1878SOL    HW1 7510   1.193   1.113   5.043 -0.6570  0.1359  0.2994
 1878SOL    HW2 7511   1.298   1.079   5.146 -0.2062  0.3453 -0.0837
 1878SOL     MW 7512   1.244   1.054   5.082 -0.1121  0.2978 -0.1453
 1879SOL     OW 7513   4.668   0.729   3.809 -0.2229  0.2453  0.2206
 1879SOL    HW1 7514   4.622   0.681   3.740 -0.5214  0.2238  0.4326
 1879SOL    HW2 7515   4.752   0.684   3.817 -0.1155  0.3594 -0.2534
 1879SOL     MW 7516   4.672   0.717   3.801 -0.2474  0.2571  0.1871
 1880SOL     OW 7517   3.171   1.373   3.350  0.1211 -0.1352 -0.0420
 1880SOL    HW1 7518   3.233   1.446   3.354  0.4312 -0.3891 -0.2228
 1880SOL    HW2 7519   3.104   1.396   3.415  0.7244 -0.1594  0.6023
 1880SOL     MW 7520   3.170   1.385   3.359  0.2380 -0.1708  0.0173
 1881SOL     OW 7521   2.949   0.454   3.033 -0.1544 -0.0138  0.7116
 1881SOL    HW1 7522   2.914   0.410   3.110  0.4443  0.5803  1.3332
 1881SOL    HW2 7523   3.009   0.390   2.993 -0.0594 -0.1302  1.0412
 1881SOL     MW 7524   2.952   0.440   3.038 -0.0656  0.0474  0.8334
 1882SOL     OW 7525   0.274   5.280   1.801  0.2732 -0.2347 -0.1746
 1882SOL    HW1 7526   0.295   5.373   1.814  1.2288 -0.6416  1.3827
 1882SOL    HW2 7527   0.208   5.261   1.867 -0.4007 -0.5314 -0.9164
 1882SOL     MW 7528   0.269   5.290   1.811  0.3093 -0.3247 -0.0702
 1883SOL     OW 7529   4.962   2.616   2.904  0.1584 -0.6839 -0.3503
 1883SOL    HW1 7530   4.879   2.625   2.856  0.5031 -2.3757 -1.3480
 1883SOL    HW2 7531   5.029   2.632   2.837  0.6681  0.8282  0.4832
 1883SOL     MW 7532   4.960   2.619   2.889  0.2678 -0.7069 -0.3713
 1884SOL     OW 7533   4.115   3.252   0.316  0.1116 -0.2186  0.2706
 1884SOL    HW1 7534   4.062   3.330   0.335 -0.4983 -0.6271  0.2407
 1884SOL    HW2 7535   4.198   3.269   0.361 -0.5385 -0.1943  1.5002
 1884SOL     MW 7536   4.119   3.264   0.324 -0.0497 -0.2678  0.4241
 1885SOL     OW 7537   2.478   2.929   1.571 -0.0268  0.0578  0.1152
 1885SOL    HW1 7538   2.448   2.986   1.641 -0.7988 -1.6640  1.2357
 1885SOL    HW2 7539   2.572   2.949   1.562  0.1642  0.0439  1.8785
 1885SOL     MW 7540   2.486   2.939   1.579 -0.1012 -0.1644  0.4844
 1886SOL     OW 7541   2.278   3.899   3.214  0.1551  0.5474 -0.2508
 1886SOL    HW1 7542   2.279   3.844   3.293  0.2041  0.3530 -0.3860
 1886SOL    HW2 7543   2.255   3.839   3.144  0.9217  0.5460 -0.5159
 1886SOL     MW 7544   2.275   3.884   3.215  0.2595  0.5223 -0.3021
 1887SOL     OW 7545   2.568   0.099   1.024  0.2045  0.0229  0.2932
 1887SOL    HW1 7546   2.539   0.097   1.115 -0.8240  0.6861  0.0016
 1887SOL    HW2 7547   2.652   0.144   1.026 -0.4206  1.1961  0.7663
 1887SOL     MW 7548   2.575   0.104   1.036 -0.0072  0.2580  0.3164
 1888SOL     OW 7549   4.992   2.788   5.254 -0.0884 -0.2194  0.3939
 1888SOL    HW1 7550   4.999   2.882   5.237  0.0066 -0.4496 -0.9966
 1888SOL    HW2 7551   5.078   2.753   5.231 -0.8158 -0.9398 -1.4264
 1888SOL     MW 7552   5.004   2.796   5.249 -0.1693 -0.3411 -0.0171
 1889SOL     OW 7553   0.192   1.810   4.140 -0.5302 -0.1484 -0.1059
 1889SOL    HW1 7554   0.182   1.731   4.088  0.2342 -1.1846  1.2747
 1889SOL    HW2 7555   0.109   1.857   4.128 -0.1756  0.0029 -2.7198
 1889SOL     MW 7556   0.180   1.806   4.131 -0.3869 -0.2617 -0.2638
 1890SOL     OW 7557   3.331   4.613   3.853 -0.5342  0.1026  0.3257
 1890SOL    HW1 7558   3.247   4.658   3.866 -1.5167 -1.5560  0.0393
 1890SOL    HW2 7559   3.312   4.521   3.875  0.6197 -0.7293 -1.8825
 1890SOL     MW 7560   3.318   4.607   3.858 -0.5123 -0.2162  0.0063
 1891SOL     OW 7561   3.473   4.901   0.481  0.0570  0.1085 -0.2889
 1891SOL    HW1 7562   3.443   4.877   0.393 -1.4285  0.5276  0.0654
 1891SOL    HW2 7563   3.552   4.952   0.466 -0.1449  0.1338 -1.3847
 1891SOL     MW 7564   3.479   4.905   0.468 -0.1590  0.1654 -0.3839
 1892SOL     OW 7565   5.157   5.205   0.190 -0.2564  1.0812 -0.0388
 1892SOL    HW1 7566   5.224   5.269   0.216  1.6621 -0.9630  0.3244
 1892SOL    HW2 7567   5.168   5.133   0.251 -1.7594  0.0098 -0.9762
 1892SOL     MW 7568   5.167   5.204   0.201 -0.2032  0.6823 -0.1123
 1893SOL     OW 7569   4.655   5.489   2.715  0.3805  0.5732  0.3068
 1893SOL    HW1 7570   4.636   5.429   2.642 -0.0086  1.6252 -0.4854
 1893SOL    HW2 7571   4.660   5.432   2.792 -3.0361 -0.2131  0.1133
 1893SOL     MW 7572   4.653   5.474   2.715 -0.1067  0.6072  0.1806
 1894SOL     OW 7573   0.568   1.238   5.087  0.4826 -0.2589  0.1937
 1894SOL    HW1 7574   0.527   1.314   5.128  1.0307 -0.5659  1.3542
 1894SOL    HW2 7575   0.659   1.242   5.116  1.3607  0.4559 -2.3879
 1894SOL     MW 7576   0.574   1.248   5.096  0.6652 -0.2067  0.0118
 1895SOL     OW 7577   2.114   2.495   2.617 -0.2059 -0.1811 -0.1594
 1895SOL    HW1 7578   2.204   2.463   2.616 -0.2644 -0.3653  0.2056
 1895SOL    HW2 7579   2.069   2.440   2.553 -0.4269 -1.2149  0.8419
 1895SOL     MW 7580   2.120   2.484   2.609 -0.2416 -0.3370  0.0155
 1896SOL     OW 7581   2.564   5.021   2.489 -0.0952 -0.4546  0.3121
 1896SOL    HW1 7582   2.598   5.065   2.566 -2.6530  3.5273 -0.5453
 1896SOL    HW2 7583   2.515   4.946   2.524 -0.2128  0.5618  2.4829
 1896SOL     MW 7584   2.562   5.017   2.503 -0.4377  0.1853  0.4802
 1897SOL     OW 7585   4.596   1.119   3.698  0.0980  0.1995 -0.3040
 1897SOL    HW1 7586   4.619   1.199   3.746  0.1437  0.5401 -0.8764
 1897SOL    HW2 7587   4.633   1.133   3.611 -0.2735 -0.2636 -0.5375
 1897SOL     MW 7588   4.604   1.131   3.693  0.0563  0.1838 -0.4072
 1898SOL     OW 7589   4.181   5.022   0.495 -0.1414  0.4502 -0.0518
 1898SOL    HW1 7590   4.154   4.933   0.472  1.0459  0.0159  0.1439
 1898SOL    HW2 7591   4.173   5.025   0.590  0.8473  0.1838  0.0474
 1898SOL     MW 7592   4.177   5.011   0.504  0.1372  0.3605 -0.0140
 1899SOL     OW 7593   3.375   1.795   4.935  0.8434  0.4157  0.2584
 1899SOL    HW1 7594   3.412   1.776   4.849  0.3681 -0.2468  0.1968
 1899SOL    HW2 7595   3.354   1.710   4.972 -0.4996  0.7521  0.3404
 1899SOL     MW 7596   3.377   1.782   4.929  0.6107  0.3739  0.2610
 1900SOL     OW 7597   2.775   0.129   1.786 -0.0673  0.2148  0.2566
 1900SOL    HW1 7598   2.833   0.105   1.714 -0.6758 -0.4721 -0.0191
 1900SOL    HW2 7599   2.768   0.225   1.780  0.4152  0.2294 -0.1764
 1900SOL     MW 7600   2.782   0.139   1.776 -0.0835  0.1287  0.1659
 1901SOL     OW 7601   2.427   3.707   2.724 -0.1207 -0.1586  0.3026
 1901SOL    HW1 7602   2.444   3.715   2.817 -1.8494 -1.2059  0.7527
 1901SOL    HW2 7603   2.333   3.687   2.718 -0.2565  0.8068 -1.7056
 1901SOL     MW 7604   2.417   3.706   2.735 -0.3594 -0.1691  0.1032
 1902SOL     OW 7605   1.429   2.538   0.377 -0.1188  0.4362  0.8870
 1902SOL    HW1 7606   1.458   2.616   0.424  1.8494  1.0031 -1.0698
 1902SOL    HW2 7607   1.508   2.484   0.371 -0.5658 -0.0722 -0.8153
 1902SOL     MW 7608   1.443   2.541   0.382  0.0759  0.4437  0.4186
 1903SOL     OW 7609   3.295   1.540   4.998 -0.1282  1.0902  0.1200
 1903SOL    HW1 7610   3.349   1.461   5.001 -0.0689  1.1007 -0.5501
 1903SOL    HW2 7611   3.244   1.531   4.917  0.5467  2.1655 -0.4499
 1903SOL     MW 7612   3.295   1.529   4.988 -0.0342  1.2292 -0.0387
 1904SOL     OW 7613   2.928   2.288   0.411  0.1948 -0.0262  0.1145
 1904SOL    HW1 7614   2.955   2.283   0.319  0.0861 -0.7167  0.1097
 1904SOL    HW2 7615   2.981   2.221   0.455 -0.4791 -0.4137  0.3600
 1904SOL     MW 7616   2.938   2.279   0.405  0.0947 -0.1642  0.1453
 1905SOL     OW 7617   5.486   0.588   0.243 -0.1011 -0.3304  0.4074
 1905SOL    HW1 7618   5.439   0.626   0.170  1.4619  3.1586  1.0332
 1905SOL    HW2 7619   5.420   0.577   0.311 -0.8186  0.2509 -0.1784
 1905SOL     MW 7620   5.472   0.591   0.242  0.0071  0.1906  0.4125
 1906SOL     OW 7621   1.272   2.979   1.153  0.0107 -0.0642  0.3724
 1906SOL    HW1 7622   1.366   2.968   1.139 -0.2808 -1.9123 -0.4331
 1906SOL    HW2 7623   1.237   2.998   1.066 -0.5275 -0.8464  0.4121
 1906SOL     MW 7624   1.280   2.980   1.140 -0.0955 -0.4009  0.2743
 1907SOL     OW 7625   5.466   0.029   3.921 -0.7737  0.2464 -0.0490
 1907SOL    HW1 7626   5.414  -0.039   3.877 -0.2806  0.5850 -1.1966
 1907SOL    HW2 7627   5.451   0.014   4.014 -1.7070 -0.6193 -0.3170
 1907SOL     MW 7628   5.457   0.018   3.927 -0.8301  0.1789 -0.2302
 1908SOL     OW 7629   0.470   3.196   4.617 -0.6641  0.2993  0.2340
 1908SOL    HW1 7630   0.484   3.102   4.602  1.0999  0.8754 -2.6078
 1908SOL    HW2 7631   0.376   3.209   4.603 -0.8028 -0.9364 -0.1317
 1908SOL     MW 7632   0.460   3.186   4.613 -0.4560  0.2149 -0.1766
 1909SOL     OW 7633   1.828   1.115   1.877 -0.4133  0.3043 -0.1502
 1909SOL    HW1 7634   1.816   1.108   1.782 -1.2868  2.0416 -0.2067
 1909SOL    HW2 7635   1.795   1.202   1.899  1.8138  0.8429  1.4380
 1909SOL     MW 7636   1.822   1.126   1.868 -0.2400  0.5957  0.0459
 1910SOL     OW 7637   0.505   1.973   3.957 -0.1856  0.1523  0.2961
 1910SOL    HW1 7638   0.546   1.995   3.873  0.9048 -1.5299  0.3430
 1910SOL    HW2 7639   0.444   1.902   3.935 -1.2157  0.9029  0.6564
 1910SOL     MW 7640   0.502   1.967   3.943 -0.1779  0.0330  0.3482
 1911SOL     OW 7641   5.236   1.284   4.103 -0.6979 -0.0341 -0.4280
 1911SOL    HW1 7642   5.155   1.334   4.094 -0.3170  0.5590 -0.6491
 1911SOL    HW2 7643   5.216   1.218   4.169 -0.8329  1.2245  0.8262
 1911SOL     MW 7644   5.223   1.282   4.110 -0.6664  0.2030 -0.2957
 1912SOL     OW 7645   0.232   3.316   0.656  0.0418 -0.2605 -0.1139
 1912SOL    HW1 7646   0.243   3.313   0.561  0.1770 -1.1842 -0.0796
 1912SOL    HW2 7647   0.316   3.346   0.690  1.2113 -3.2471 -0.1037
 1912SOL     MW 7648   0.244   3.319   0.648  0.2088 -0.7610 -0.1082
 1913SOL     OW 7649   1.869   3.729   4.992  0.3887  0.6972 -0.5004
 1913SOL    HW1 7650   1.815   3.806   5.015  1.2418  1.5500 -1.2813
 1913SOL    HW2 7651   1.816   3.681   4.929 -0.9367 -0.3724  1.3134
 1913SOL     MW 7652   1.855   3.733   4.987  0.3282  0.6694 -0.3681
 1914SOL     OW 7653   1.793   2.517   4.066 -0.1934 -0.0633 -0.5662
 1914SOL    HW1 7654   1.775   2.503   3.973 -1.4876 -0.7008 -0.2295
 1914SOL    HW2 7655   1.818   2.431   4.099  0.8122  0.2653 -0.4161
 1914SOL     MW 7656   1.794   2.505   4.058 -0.2303 -0.1029 -0.5039
 1915SOL     OW 7657   5.056   1.294   0.295 -0.2884  0.0647 -0.1255
 1915SOL    HW1 7658   5.023   1.347   0.367  0.5156 -0.7225  0.8423
 1915SOL    HW2 7659   5.038   1.203   0.322  1.3279 -0.3089 -0.2401
 1915SOL     MW 7660   5.049   1.289   0.307  0.0214 -0.0839 -0.0163
 1916SOL     OW 7661   4.243   4.664   2.167 -0.0739 -0.1431  0.1682
 1916SOL    HW1 7662   4.229   4.733   2.102 -1.3744 -2.2809 -2.0135
 1916SOL    HW2 7663   4.323   4.620   2.138 -0.5470 -0.9773  0.0840
 1916SOL     MW 7664   4.251   4.667   2.155 -0.3010 -0.5236 -0.1218
 1917SOL     OW 7665   0.452   0.459   3.892 -0.1473  0.0876  0.4660
 1917SOL    HW1 7666   0.475   0.462   3.984 -1.4714 -1.7848  0.9072
 1917SOL    HW2 7667   0.415   0.372   3.878  0.0622  0.2833 -1.8552
 1917SOL     MW 7668   0.450   0.448   3.902 -0.2900 -0.1270  0.2253
 1918SOL     OW 7669   1.274   0.167   3.827 -0.0340 -0.2624 -0.1334
 1918SOL    HW1 7670   1.316   0.240   3.873 -1.3007  0.1175  0.4779
 1918SOL    HW2 7671   1.285   0.188   3.734  2.4395 -0.9710 -0.0699
 1918SOL     MW 7672   1.281   0.179   3.821  0.1205 -0.3045 -0.0470
 1919SOL     OW 7673   2.933   0.813   3.364 -0.5449 -0.1829  0.5261
 1919SOL    HW1 7674   2.994   0.880   3.397 -0.4272 -0.2531  0.4523
 1919SOL    HW2 7675   2.989   0.739   3.342 -0.4732  0.2627 -0.9082
 1919SOL     MW 7676   2.948   0.812   3.365 -0.5207 -0.1348  0.3331
 1920SOL     OW 7677   3.139   2.819   2.286 -0.1618  0.5954 -0.1596
 1920SOL    HW1 7678   3.110   2.734   2.254 -1.0899  1.0333 -0.5282
 1920SOL    HW2 7679   3.175   2.801   2.373 -1.5383  0.0140  0.3101
 1920SOL     MW 7680   3.140   2.806   2.293 -0.4568  0.5770 -0.1467
 1921SOL     OW 7681   0.317   3.616   0.418  0.2278 -0.0062  0.2384
 1921SOL    HW1 7682   0.265   3.544   0.381  1.5016 -0.8890  0.1033
 1921SOL    HW2 7683   0.319   3.682   0.348 -3.1670  1.4035  1.2996
 1921SOL     MW 7684   0.311   3.615   0.404 -0.0437  0.0612  0.3570
 1922SOL     OW 7685   3.081   1.002   4.733 -0.1575 -0.2364  0.2378
 1922SOL    HW1 7686   3.032   1.017   4.813  2.0300  3.2092  1.1328
 1922SOL    HW2 7687   3.044   1.064   4.670  0.5122 -0.3133 -0.2484
 1922SOL     MW 7688   3.070   1.012   4.735  0.2083  0.1948  0.2902
 1923SOL     OW 7689   4.792   3.239   1.654 -0.2779  0.1361  0.1912
 1923SOL    HW1 7690   4.769   3.158   1.699 -2.2997  1.4191  1.6310
 1923SOL    HW2 7691   4.803   3.303   1.723  4.5138  0.5415 -0.6459
 1923SOL     MW 7692   4.790   3.237   1.668  0.0767  0.3523  0.2684
 1924SOL     OW 7693   1.430   5.088   2.685 -0.0932 -0.3010 -0.1134
 1924SOL    HW1 7694   1.364   5.019   2.677  0.1304 -0.2644 -3.4104
 1924SOL    HW2 7695   1.380   5.170   2.686 -0.2088 -0.2927 -2.2464
 1924SOL     MW 7696   1.415   5.090   2.684 -0.0794 -0.2953 -0.8085
 1925SOL     OW 7697   1.947   2.196   0.036 -0.0211  0.6140 -0.2306
 1925SOL    HW1 7698   1.870   2.172   0.088  0.8776  2.2582  2.0006
 1925SOL    HW2 7699   1.936   2.289   0.019  1.2607  0.7626 -0.2843
 1925SOL     MW 7700   1.936   2.205   0.040  0.2580  0.8435  0.0482
 1926SOL     OW 7701   2.338   3.466   2.364 -0.0981 -0.1430 -0.2559
 1926SOL    HW1 7702   2.370   3.440   2.451 -0.5470  0.7750  0.1955
 1926SOL    HW2 7703   2.404   3.433   2.303  1.5568  1.3984  0.6076
 1926SOL     MW 7704   2.350   3.458   2.368  0.0563  0.1718 -0.0875
 1927SOL     OW 7705   4.162   4.791   5.321  0.0527 -0.5334 -0.5386
 1927SOL    HW1 7706   4.165   4.696   5.311 -0.1793 -0.6992  0.7538
 1927SOL    HW2 7707   4.072   4.815   5.298 -0.6385 -0.9703  1.5004
 1927SOL     MW 7708   4.151   4.782   5.317 -0.0655 -0.6106 -0.1121
 1928SOL     OW 7709   2.949   1.463   3.496 -0.0388  0.1434 -0.2196
 1928SOL    HW1 7710   2.883   1.505   3.440  1.1487  0.1328 -1.6936
 1928SOL    HW2 7711   2.946   1.513   3.577 -0.1723  1.7045 -1.1465
 1928SOL     MW 7712   2.940   1.475   3.499  0.0961  0.3419 -0.5270
 1929SOL     OW 7713   4.232   4.240   0.829  0.6107  0.3216 -0.4193
 1929SOL    HW1 7714   4.326   4.247   0.845  0.5655  2.2576 -0.8317
 1929SOL    HW2 7715   4.225   4.171   0.762  1.5004 -1.4323  1.1862
 1929SOL     MW 7716   4.243   4.232   0.822  0.7188  0.3449 -0.2666
 1930SOL     OW 7717   1.137   2.537   3.490 -0.0852 -0.4578  0.0653
 1930SOL    HW1 7718   1.130   2.632   3.494  1.7272 -0.2922  0.0202
 1930SOL    HW2 7719   1.127   2.515   3.397  2.2065 -0.0068 -0.3465
 1930SOL     MW 7720   1.135   2.546   3.479  0.4402 -0.3789  0.0068
 1931SOL     OW 7721   3.898   2.565   5.213 -0.1393  0.3904 -0.1593
 1931SOL    HW1 7722   3.944   2.632   5.162  1.8104 -1.1184 -0.5182
 1931SOL    HW2 7723   3.958   2.490   5.213 -1.2384 -0.5774  2.1550
 1931SOL     MW 7724   3.912   2.564   5.206 -0.0304  0.0734  0.0910
 1932SOL     OW 7725   4.033   0.821   4.964  0.2501  0.1339  0.1989
 1932SOL    HW1 7726   4.049   0.857   4.877 -0.2075 -2.0340 -0.8500
 1932SOL    HW2 7727   4.111   0.845   5.014  0.9829  0.5508 -1.0945
 1932SOL     MW 7728   4.045   0.829   4.960  0.2854 -0.0903 -0.1010
 1933SOL     OW 7729   0.101   2.842   0.509 -0.1805  0.3371 -0.4677
 1933SOL    HW1 7730   0.137   2.762   0.547  0.1614  0.9982  0.6478
 1933SOL    HW2 7731   0.007   2.826   0.504 -0.0472 -0.3726 -0.8775
 1933SOL     MW 7732   0.094   2.830   0.513 -0.1196  0.3309 -0.3773
 1934SOL     OW 7733   1.328   2.611   0.890  0.4869 -0.1556 -0.2840
 1934SOL    HW1 7734   1.392   2.541   0.878 -0.4460 -1.2935  1.1158
 1934SOL    HW2 7735   1.285   2.618   0.804  1.9592  0.1480 -1.0351
 1934SOL     MW 7736   1.330   2.603   0.877  0.5559 -0.2624 -0.2010
 1935SOL     OW 7737   1.898   2.266   4.145 -0.0941  0.3181 -0.5781
 1935SOL    HW1 7738   1.876   2.238   4.234 -0.8401  0.1789 -0.8003
 1935SOL    HW2 7739   1.852   2.205   4.088 -0.3150  0.9241 -1.0609
 1935SOL     MW 7740   1.889   2.255   4.149 -0.2179  0.3779 -0.6684
 1936SOL     OW 7741   0.540   0.881   1.373  0.1037  0.0621  0.2259
 1936SOL    HW1 7742   0.576   0.970   1.365 -0.6179  0.1950 -2.9076
 1936SOL    HW2 7743   0.447   0.894   1.393  0.3077 -0.0645  1.3016
 1936SOL     MW 7744   0.533   0.894   1.374  0.0374  0.0629 -0.0375
 1937SOL     OW 7745   3.046   4.806   4.075 -0.3822  0.5384 -0.0358
 1937SOL    HW1 7746   2.971   4.781   4.129  0.4031 -1.1047  0.3520
 1937SOL    HW2 7747   3.119   4.755   4.110  0.9527  2.1490 -0.3594
 1937SOL     MW 7748   3.046   4.796   4.086 -0.1108  0.5342 -0.0276
 1938SOL     OW 7749   1.178   3.731   1.634  0.5966 -0.0324 -0.5853
 1938SOL    HW1 7750   1.143   3.677   1.705  0.5199  0.3901 -0.2995
 1938SOL    HW2 7751   1.164   3.679   1.555 -1.5231  0.5048 -0.6091
 1938SOL     MW 7752   1.172   3.717   1.633  0.3154  0.0904 -0.5517
 1939SOL     OW 7753   1.109   1.536   5.124 -0.1906 -0.3191 -0.3366
 1939SOL    HW1 7754   1.183   1.567   5.071  0.6314 -0.7056  0.5500
 1939SOL    HW2 7755   1.148   1.512   5.208 -1.2560 -0.9965 -0.0121
 1939SOL     MW 7756   1.123   1.537   5.128 -0.2217 -0.4553 -0.1816
 1940SOL     OW 7757   0.536   0.841   4.537 -0.1605  0.1573 -0.1752
 1940SOL    HW1 7758   0.621   0.884   4.537  0.4388 -0.9603 -1.1621
 1940SOL    HW2 7759   0.545   0.769   4.599 -0.5998  0.3915  0.1726
 1940SOL     MW 7760   0.548   0.837   4.545 -0.1400  0.0442 -0.2570
 1941SOL     OW 7761   3.090   2.233   2.888 -0.2470 -0.1121  0.9465
 1941SOL    HW1 7762   3.134   2.227   2.973 -0.0069 -1.4548  0.7568
 1941SOL    HW2 7763   3.044   2.149   2.880 -0.9772  0.3599  0.1297
 1941SOL     MW 7764   3.090   2.222   2.898 -0.3098 -0.2235  0.8177
 1942SOL     OW 7765   1.811   0.534   0.960  0.1744 -0.4418 -0.5872
 1942SOL    HW1 7766   1.790   0.503   1.048  0.9279 -0.6875 -0.4797
 1942SOL    HW2 7767   1.727   0.549   0.918 -0.1910 -0.3641  0.1627
 1942SOL     MW 7768   1.798   0.532   0.966  0.2241 -0.4633 -0.4774
 1943SOL     OW 7769   5.044   2.694   0.271  0.4339 -0.2156  0.6248
 1943SOL    HW1 7770   4.967   2.736   0.308 -0.9359 -0.7728 -1.4370
 1943SOL    HW2 7771   5.049   2.726   0.181  1.6748 -1.4020  0.2213
 1943SOL     MW 7772   5.035   2.703   0.264  0.4174 -0.4388  0.3092
 1944SOL     OW 7773   4.448   2.251   0.118  0.0677 -0.0733 -0.3852
 1944SOL    HW1 7774   4.440   2.275   0.025 -0.0863 -1.4500 -0.7489
 1944SOL    HW2 7775   4.357   2.241   0.147  0.0864  1.0772  0.1389
 1944SOL     MW 7776   4.435   2.253   0.110  0.0504 -0.1023 -0.3646
 1945SOL     OW 7777   1.101   3.048   0.917  0.3693 -0.2682  0.1666
 1945SOL    HW1 7778   1.100   3.143   0.907 -1.1452 -0.1636  0.9975
 1945SOL    HW2 7779   1.009   3.022   0.910  0.6411 -1.5531  0.9836
 1945SOL     MW 7780   1.089   3.057   0.915  0.2102 -0.4193  0.3776
 1946SOL     OW 7781   1.531   4.238   4.026 -0.0105  0.2747  0.2977
 1946SOL    HW1 7782   1.486   4.169   3.976 -0.4645  0.5495  0.3242
 1946SOL    HW2 7783   1.591   4.278   3.963  0.1698 -0.0628  0.2493
 1946SOL     MW 7784   1.533   4.234   4.011 -0.0455  0.2667  0.2949
 1947SOL     OW 7785   2.448   2.849   0.982 -0.2985  0.1706  0.5299
 1947SOL    HW1 7786   2.508   2.819   0.914  0.9127  0.2287  1.5317
 1947SOL    HW2 7787   2.377   2.785   0.982 -0.8740  0.7297 -1.4543
 1947SOL     MW 7788   2.447   2.837   0.973 -0.2171  0.2496  0.4041
 1948SOL     OW 7789   4.083   3.984   3.082  0.3919 -0.2600  0.0345
 1948SOL    HW1 7790   4.154   4.033   3.040  1.5219 -2.2333 -0.4656
 1948SOL    HW2 7791   4.007   4.042   3.075  1.8176  1.7381  0.1914
 1948SOL     MW 7792   4.082   3.998   3.076  0.7191 -0.2568 -0.0094
 1949SOL     OW 7793   1.000   2.977   1.261 -0.1753  0.4355  0.0095
 1949SOL    HW1 7794   0.963   3.006   1.177 -0.4300  0.8624  0.2664
 1949SOL    HW2 7795   1.095   2.978   1.246 -0.2417 -0.3165 -0.5387
 1949SOL     MW 7796   1.008   2.981   1.248 -0.2164  0.3939 -0.0278
 1950SOL     OW 7797   5.195   0.182   0.533 -0.1018 -1.0022 -0.2511
 1950SOL    HW1 7798   5.253   0.144   0.598  0.3301 -0.7986 -0.5156
 1950SOL    HW2 7799   5.244   0.176   0.451  0.9442  2.1304  0.0103
 1950SOL     MW 7800   5.209   0.176   0.531  0.0874 -0.5751 -0.2515
 1951SOL     OW 7801   0.723   5.395   4.539 -0.0191 -0.0205 -0.4101
 1951SOL    HW1 7802   0.711   5.377   4.632  0.9590 -0.1827 -0.3047
 1951SOL    HW2 7803   0.679   5.323   4.495 -1.2774  0.5343 -0.1057
 1951SOL     MW 7804   0.716   5.384   4.545 -0.0550  0.0298 -0.3576
 1952SOL     OW 7805   1.725   0.030   0.791 -0.7775 -0.0791  0.0422
 1952SOL    HW1 7806   1.741   0.068   0.705 -1.8057  0.6792  0.1706
 1952SOL    HW2 7807   1.673  -0.049   0.773  0.6914 -1.0431 -0.1618
 1952SOL     MW 7808   1.721   0.024   0.778 -0.7211 -0.1054  0.0325
 1953SOL     OW 7809   0.208   1.178   4.828 -0.2371 -0.5596 -0.3195
 1953SOL    HW1 7810   0.256   1.229   4.893 -1.6275 -2.3717  2.3066
 1953SOL    HW2 7811   0.273   1.116   4.794  0.4443  0.2383 -0.5125
 1953SOL     MW 7812   0.223   1.176   4.832 -0.3279 -0.6894 -0.0080
 1954SOL     OW 7813   1.217   3.456   1.168 -0.1196  0.2956 -0.0982
 1954SOL    HW1 7814   1.306   3.468   1.201  0.2913 -1.6574 -0.4206
 1954SOL    HW2 7815   1.190   3.545   1.143  2.1269  0.8062 -1.0183
 1954SOL     MW 7816   1.225   3.469   1.169  0.2206  0.1110 -0.2572
 1955SOL     OW 7817   3.371   5.381   2.505  0.7076  0.2841 -0.4493
 1955SOL    HW1 7818   3.428   5.458   2.499  2.8351 -1.0774  0.8152
 1955SOL    HW2 7819   3.423   5.309   2.469 -0.7495 -0.8104 -0.4804
 1955SOL     MW 7820   3.385   5.382   2.500  0.7934 -0.0303 -0.2914
 1956SOL     OW 7821   5.011   0.850   1.588  0.4223 -0.7395  0.3173
 1956SOL    HW1 7822   5.025   0.771   1.642  0.8400 -1.0689 -0.2628
 1956SOL    HW2 7823   5.093   0.899   1.597  0.4471 -0.7377  0.0795
 1956SOL     MW 7824   5.024   0.846   1.596  0.4790 -0.7814  0.2126
 1957SOL     OW 7825   0.048   3.746   0.610 -0.0847 -0.0585  0.2007
 1957SOL    HW1 7826   0.013   3.657   0.612  0.3881 -0.2361  0.8027
 1957SOL    HW2 7827   0.134   3.739   0.651 -0.5083  0.8754  1.2704
 1957SOL     MW 7828   0.055   3.734   0.615 -0.0784  0.0383  0.4147
 1958SOL     OW 7829   1.898   1.921   4.298 -0.5411  0.3110 -0.0382
 1958SOL    HW1 7830   1.904   2.008   4.337 -0.4765 -0.2833  1.3340
 1958SOL    HW2 7831   1.806   1.913   4.273 -0.5354  0.7880 -0.2358
 1958SOL     MW 7832   1.887   1.931   4.300 -0.5321  0.2960  0.1121
 1959SOL     OW 7833   1.994   5.027   5.279  0.4228  0.9564  0.2204
 1959SOL    HW1 7834   1.914   5.037   5.227 -0.2169 -0.1745  0.9267
 1959SOL    HW2 7835   1.975   5.070   5.362  0.7511  1.1513  0.1962
 1959SOL     MW 7836   1.982   5.034   5.283  0.3829  0.8365  0.3078
 1960SOL     OW 7837   5.368   1.973   1.021  0.7761  0.7700 -0.1412
 1960SOL    HW1 7838   5.331   2.039   0.962 -1.4740 -0.4377 -0.1903
 1960SOL    HW2 7839   5.364   2.013   1.108  0.6658  1.1756 -0.3307
 1960SOL     MW 7840   5.363   1.986   1.025  0.4739  0.6674 -0.1717
 1961SOL     OW 7841   3.705   1.721   2.374 -0.0521  0.0269 -0.1169
 1961SOL    HW1 7842   3.697   1.784   2.303 -1.5334  0.9309  0.7952
 1961SOL    HW2 7843   3.660   1.643   2.341 -0.4455  0.3276 -0.2985
 1961SOL     MW 7844   3.698   1.719   2.360 -0.2921  0.1811 -0.0234
 1962SOL     OW 7845   4.139   4.681   1.326  0.1763  0.1576 -0.0916
 1962SOL    HW1 7846   4.201   4.636   1.267  0.0243  0.1954 -0.2809
 1962SOL    HW2 7847   4.104   4.753   1.273  1.7309  1.6049  0.7498
 1962SOL     MW 7848   4.143   4.684   1.311  0.3558  0.3477 -0.0081
 1963SOL     OW 7849   1.079   3.547   1.815  0.2064 -0.5753 -0.2786
 1963SOL    HW1 7850   0.998   3.509   1.782 -0.9017  1.8429 -0.5829
 1963SOL    HW2 7851   1.051   3.608   1.883  2.0545 -1.7723  1.7020
 1963SOL     MW 7852   1.065   3.550   1.820  0.3011 -0.4190 -0.0640
 1964SOL     OW 7853   3.434   3.096   0.569 -0.4076 -0.2981 -0.2016
 1964SOL    HW1 7854   3.506   3.101   0.505 -0.4726  0.3157 -0.2332
 1964SOL    HW2 7855   3.474   3.060   0.648  0.0318  0.4318 -0.0871
 1964SOL     MW 7856   3.448   3.092   0.571 -0.3597 -0.1261 -0.1910
 1965SOL     OW 7857   0.542   4.151   3.491 -0.1024 -0.6454 -0.0024
 1965SOL    HW1 7858   0.447   4.148   3.491 -0.1374 -0.2964 -1.3363
 1965SOL    HW2 7859   0.566   4.145   3.398  1.1511 -0.2476  0.2733
 1965SOL     MW 7860   0.533   4.150   3.479  0.0536 -0.5498 -0.1379
 1966SOL     OW 7861   0.257   2.105   4.237  0.1861  0.0870  0.0356
 1966SOL    HW1 7862   0.292   2.137   4.153  0.0292  0.9278  0.2824
 1966SOL    HW2 7863   0.204   2.029   4.214 -2.2659  1.9902 -1.0139
 1966SOL     MW 7864   0.255   2.099   4.223 -0.1479  0.4383 -0.0672
 1967SOL     OW 7865   0.537   1.701   2.253  0.3073 -0.5801  0.1022
 1967SOL    HW1 7866   0.609   1.761   2.232 -2.0001  3.5243  2.6852
 1967SOL    HW2 7867   0.535   1.699   2.348 -3.6066  0.4788  0.1939
 1967SOL     MW 7868   0.546   1.708   2.262 -0.4891  0.0808  0.4446
 1968SOL     OW 7869   1.031   3.117   2.328  0.3714 -0.4524 -0.0636
 1968SOL    HW1 7870   1.093   3.047   2.309  0.8205 -0.3437  0.9449
 1968SOL    HW2 7871   1.036   3.175   2.252  0.5989 -1.0873 -0.5347
 1968SOL     MW 7872   1.039   3.116   2.316  0.4580 -0.5198  0.0052
 1969SOL     OW 7873   0.490   0.247   5.470 -0.4545 -0.5097 -0.1021
 1969SOL    HW1 7874   0.582   0.226   5.451 -0.4695 -1.4805  0.7762
 1969SOL    HW2 7875   0.440   0.197   5.405 -0.3850 -0.8599  0.1075
 1969SOL     MW 7876   0.495   0.238   5.459 -0.4476 -0.6788  0.0371
 1970SOL     OW 7877   4.851   2.428   0.714  0.3791  0.3188 -0.1646
 1970SOL    HW1 7878   4.829   2.504   0.660  0.1438 -0.2913 -0.9485
 1970SOL    HW2 7879   4.780   2.422   0.777  1.2826  1.7691  1.0376
 1970SOL     MW 7880   4.839   2.437   0.715  0.4646  0.4263 -0.1111
 1971SOL     OW 7881   3.087   4.460   2.025 -0.1430 -0.0453 -0.0135
 1971SOL    HW1 7882   3.147   4.452   2.100 -1.0108  0.3092  0.7346
 1971SOL    HW2 7883   3.055   4.550   2.030 -1.5574 -0.5350  0.2518
 1971SOL     MW 7884   3.091   4.470   2.035 -0.4352 -0.0626  0.1162
 1972SOL     OW 7885   3.420   5.097   4.115  0.4161 -0.2520  0.4900
 1972SOL    HW1 7886   3.359   5.059   4.052 -0.0169 -0.6855  1.1577
 1972SOL    HW2 7887   3.483   5.028   4.132 -0.3526 -0.7001  1.6790
 1972SOL     MW 7888   3.420   5.084   4.109  0.2623 -0.3649  0.7277
 1973SOL     OW 7889   2.842   4.582   3.330 -0.4805  0.3024 -0.3805
 1973SOL    HW1 7890   2.903   4.654   3.312 -1.2338  0.4922 -2.3638
 1973SOL    HW2 7891   2.820   4.592   3.423  1.2583  1.1821 -0.0315
 1973SOL     MW 7892   2.847   4.593   3.340 -0.3543  0.4393 -0.5897
 1974SOL     OW 7893   1.558   4.082   4.623  0.0950  0.0801  0.5135
 1974SOL    HW1 7894   1.530   4.035   4.702  0.6562  0.7783  1.1372
 1974SOL    HW2 7895   1.616   4.020   4.579 -0.5941 -0.4998  0.3849
 1974SOL     MW 7896   1.562   4.068   4.628  0.0786  0.0952  0.5769
 1975SOL     OW 7897   3.661   0.719   4.547 -0.3789  0.3577 -0.2449
 1975SOL    HW1 7898   3.711   0.670   4.612 -1.2511  1.1468  1.0736
 1975SOL    HW2 7899   3.572   0.724   4.584 -1.3739 -0.6591 -2.3146
 1975SOL     MW 7900   3.656   0.713   4.560 -0.6179  0.3285 -0.3411
 1976SOL     OW 7901   2.977   3.426   0.946  0.0301  0.2755 -0.3319
 1976SOL    HW1 7902   2.910   3.482   0.986  0.6284  0.7446  0.0274
 1976SOL    HW2 7903   2.936   3.339   0.942 -0.3122  0.3812  0.6081
 1976SOL     MW 7904   2.963   3.422   0.951  0.0629  0.3491 -0.1656
 1977SOL     OW 7905   3.343   1.595   0.443  0.3728  0.0319  0.0826
 1977SOL    HW1 7906   3.339   1.660   0.373 -0.5167  0.5725  0.6123
 1977SOL    HW2 7907   3.348   1.511   0.397  4.1365  0.5092 -0.6390
 1977SOL     MW 7908   3.343   1.593   0.428  0.7408  0.1622  0.0580
 1978SOL     OW 7909   2.438   4.249   5.201 -0.0201 -0.5866  0.2284
 1978SOL    HW1 7910   2.398   4.333   5.222  0.1856 -0.6674  0.9728
 1978SOL    HW2 7911   2.385   4.185   5.248  0.9097 -0.7078  1.1463
 1978SOL     MW 7912   2.426   4.251   5.210  0.1252 -0.6125  0.4412
 1979SOL     OW 7913   0.918   0.360   4.626 -0.5575 -0.1687 -0.3733
 1979SOL    HW1 7914   0.924   0.365   4.722  2.8460  1.8799 -0.5503
 1979SOL    HW2 7915   0.864   0.436   4.602 -0.7302 -0.2145 -0.1363
 1979SOL     MW 7916   0.912   0.370   4.635 -0.1440  0.0877 -0.3656
 1980SOL     OW 7917   4.295   2.512   3.281  0.0121  0.4752  0.1261
 1980SOL    HW1 7918   4.297   2.531   3.374 -0.5333  0.9274  0.0497
 1980SOL    HW2 7919   4.354   2.437   3.271 -0.0096  0.3524  0.8454
 1980SOL     MW 7920   4.303   2.505   3.291 -0.0605  0.5173  0.2084
 1981SOL     OW 7921   1.651   4.990   1.626  0.2418 -0.0970  0.3395
 1981SOL    HW1 7922   1.624   5.082   1.624 -2.2983 -0.7096  1.4499
 1981SOL    HW2 7923   1.745   4.992   1.610  0.4587  2.7718  1.2948
 1981SOL     MW 7924   1.659   5.002   1.624 -0.0556  0.1918  0.6039
 1982SOL     OW 7925   5.176   4.865   0.709  0.0516  0.0572 -0.0965
 1982SOL    HW1 7926   5.221   4.916   0.642 -0.0739 -0.2688 -0.4344
 1982SOL    HW2 7927   5.152   4.783   0.665 -1.2324  0.3906 -0.0510
 1982SOL     MW 7928   5.178   4.861   0.695 -0.1288  0.0582 -0.1339
 1983SOL     OW 7929   4.072   4.037   1.115 -0.3378  0.2194 -0.0138
 1983SOL    HW1 7930   4.098   4.123   1.080 -0.1470  0.8355  1.5618
 1983SOL    HW2 7931   4.006   4.057   1.181 -0.2468 -0.8505  0.4177
 1983SOL     MW 7932   4.067   4.051   1.119 -0.3017  0.1613  0.2431
 1984SOL     OW 7933   5.082   4.879   2.539 -0.1235 -0.8302  0.7643
 1984SOL    HW1 7934   5.078   4.973   2.524 -0.2901 -0.5713  2.2730
 1984SOL    HW2 7935   5.105   4.870   2.631 -0.4381 -2.2698  0.7331
 1984SOL     MW 7936   5.084   4.890   2.549 -0.1851 -0.9813  0.9534
 1985SOL     OW 7937   2.853   2.860   3.433  0.5624  0.3070  0.2540
 1985SOL    HW1 7938   2.837   2.781   3.485  1.4325  0.3009  0.5274
 1985SOL    HW2 7939   2.783   2.920   3.458 -0.5149 -0.6173 -0.4677
 1985SOL     MW 7940   2.842   2.858   3.442  0.5359  0.1879  0.1966
 1986SOL     OW 7941   4.851   4.294   2.170 -0.1242 -0.0810 -0.1107
 1986SOL    HW1 7942   4.820   4.218   2.121 -0.6666  0.1231 -0.0882
 1986SOL    HW2 7943   4.935   4.266   2.207  0.8799  0.0989 -2.0674
 1986SOL     MW 7944   4.858   4.281   2.168 -0.0651 -0.0318 -0.3583
 1987SOL     OW 7945   5.065   3.500   0.912 -0.1783  0.0501  0.3726
 1987SOL    HW1 7946   5.089   3.442   0.984  0.8427  1.0937  0.8990
 1987SOL    HW2 7947   5.054   3.586   0.953 -1.4336  0.2904 -0.4275
 1987SOL     MW 7948   5.067   3.504   0.926 -0.2083  0.2145  0.3376
 1988SOL     OW 7949   4.512   5.228   2.610  0.2513 -0.2999 -0.1888
 1988SOL    HW1 7950   4.541   5.267   2.528  0.0864 -0.0591 -0.1364
 1988SOL    HW2 7951   4.433   5.180   2.588 -0.0234  0.1017 -0.1016
 1988SOL     MW 7952   4.506   5.227   2.597  0.1950 -0.2176 -0.1709
 1989SOL     OW 7953   0.020   2.073   5.253  0.0015 -0.1984  1.1751
 1989SOL    HW1 7954   0.072   2.027   5.320 -0.8737 -1.6911  0.8672
 1989SOL    HW2 7955  -0.070   2.068   5.285 -0.4711 -1.1648 -0.2229
 1989SOL     MW 7956   0.015   2.066   5.266 -0.1710 -0.5132  0.9568
 1990SOL     OW 7957   2.908   1.777   3.191  0.3395  0.1813  0.8381
 1990SOL    HW1 7958   2.986   1.791   3.245  0.7240 -1.6214  0.8206
 1990SOL    HW2 7959   2.939   1.721   3.119 -1.2444 -1.9063  1.6784
 1990SOL     MW 7960   2.922   1.772   3.189  0.1860 -0.3167  0.9434
 1991SOL     OW 7961   0.026   4.995   2.054  1.3722 -0.2156  0.4093
 1991SOL    HW1 7962  -0.005   5.068   2.001  0.4717  1.1598  2.6647
 1991SOL    HW2 7963   0.093   4.953   2.000 -0.5426  0.0863 -2.3959
 1991SOL     MW 7964   0.031   4.999   2.040  1.0118 -0.0009  0.3389
 1992SOL     OW 7965   0.712   2.311   0.898 -0.6543  0.1769  0.2162
 1992SOL    HW1 7966   0.704   2.287   0.806 -0.6137 -1.3393  0.5779
 1992SOL    HW2 7967   0.771   2.245   0.935  0.2654  1.4390  1.0891
 1992SOL     MW 7968   0.719   2.299   0.891 -0.5314  0.1444  0.3743
 1993SOL     OW 7969   4.857   3.781   4.744  0.0809  0.3489 -0.1249
 1993SOL    HW1 7970   4.820   3.868   4.756 -0.3583  0.3498 -1.3481
 1993SOL    HW2 7971   4.936   3.796   4.692  1.3247  0.2451  1.6433
 1993SOL     MW 7972   4.863   3.794   4.738  0.1839  0.3357 -0.0552
 1994SOL     OW 7973   2.618   2.379   2.014  0.1504  0.2423 -0.3264
 1994SOL    HW1 7974   2.576   2.298   1.986  0.1301 -0.2599  1.0990
 1994SOL    HW2 7975   2.559   2.448   1.982 -0.8286 -0.3805  0.1043
 1994SOL     MW 7976   2.605   2.378   2.006  0.0225  0.0983 -0.0888
 1995SOL     OW 7977   4.047   2.625   2.937  0.1517  0.1935 -0.3129
 1995SOL    HW1 7978   4.069   2.552   2.995  0.0664  0.4066 -0.0099
 1995SOL    HW2 7979   4.023   2.696   2.997  1.2803  0.8162 -0.5651
 1995SOL     MW 7980   4.047   2.625   2.952  0.2853  0.3005 -0.3064
 1996SOL     OW 7981   0.589   0.450   4.713  0.2860  0.3567  0.0001
 1996SOL    HW1 7982   0.611   0.411   4.798 -0.4260  0.0142  0.0316
 1996SOL    HW2 7983   0.557   0.377   4.661 -0.4050  0.7823 -0.1740
 1996SOL     MW 7984   0.588   0.436   4.717  0.1064  0.3673 -0.0181
 1997SOL     OW 7985   4.111   5.298   3.154  0.1675  0.4614 -0.5469
 1997SOL    HW1 7986   4.047   5.237   3.191  0.1234  0.5268 -0.5162
 1997SOL    HW2 7987   4.107   5.282   3.060  0.5606  0.0193 -0.4936
 1997SOL     MW 7988   4.102   5.288   3.147  0.2122  0.4132 -0.5361
 1998SOL     OW 7989   0.610   2.321   2.608  0.0419 -0.3329  0.0331
 1998SOL    HW1 7990   0.565   2.402   2.633  0.9087  0.6763 -1.4924
 1998SOL    HW2 7991   0.573   2.254   2.665 -1.1529  1.0210  0.9152
 1998SOL     MW 7992   0.600   2.323   2.618 -0.0001 -0.0304 -0.0493
 1999SOL     OW 7993   0.309   4.086   2.966  0.0249 -0.5498  0.1142
 1999SOL    HW1 7994   0.331   4.100   2.874 -0.4262  0.5387  0.1480
 1999SOL    HW2 7995   0.231   4.031   2.964 -0.4103  0.0703 -0.1837
 1999SOL     MW 7996   0.302   4.081   2.954 -0.0885 -0.3311  0.0804
 2000SOL     OW 7997   2.195   3.807   3.471 -0.0766  0.3882  0.2452
 2000SOL    HW1 7998   2.112   3.835   3.433  0.4812 -0.4849 -1.7519
 2000SOL    HW2 7999   2.177   3.720   3.508 -0.0825  0.2714 -0.0357
 2000SOL     MW 8000   2.182   3.799   3.471 -0.0060  0.2615 -0.0464
 2001SOL     OW 8001   5.051   0.729   5.490  0.3292 -0.8287  0.2966
 2001SOL    HW1 8002   5.054   0.772   5.404 -0.4961  0.7457  1.0175
 2001SOL    HW2 8003   5.059   0.636   5.470  0.9531 -0.4538 -1.4233
 2001SOL     MW 8004   5.053   0.723   5.476  0.3034 -0.5792  0.1687
 2002SOL     OW 8005   4.406   4.577   1.285  0.3259  0.1326  0.2887
 2002SOL    HW1 8006   4.371   4.520   1.217 -1.1061  1.4865 -0.1666
 2002SOL    HW2 8007   4.393   4.528   1.367 -0.9737 -0.1464 -0.0731
 2002SOL     MW 8008   4.400   4.563   1.287 -0.0237  0.2702  0.1841
 2003SOL     OW 8009   4.239   2.514   0.145  0.0445 -0.4688  0.2130
 2003SOL    HW1 8010   4.206   2.602   0.161 -0.1168 -0.7160  1.3238
 2003SOL    HW2 8011   4.330   2.526   0.120 -0.0996  0.0432 -0.0620
 2003SOL     MW 8012   4.246   2.527   0.144  0.0054 -0.4349  0.3200
 2004SOL     OW 8013   4.726   1.355   1.092 -0.5261  0.0533 -0.7284
 2004SOL    HW1 8014   4.716   1.323   1.181 -2.2634  3.1655  0.3066
 2004SOL    HW2 8015   4.821   1.362   1.080 -0.2629 -0.5616  0.7892
 2004SOL     MW 8016   4.737   1.351   1.102 -0.7148  0.3730 -0.4016
 2005SOL     OW 8017   2.895   2.947   4.045  0.5761  0.2265 -0.2204
 2005SOL    HW1 8018   2.990   2.954   4.052  0.4673  0.4466  1.4845
 2005SOL    HW2 8019   2.862   2.991   4.123 -0.8995 -0.4636 -0.4238
 2005SOL     MW 8020   2.903   2.953   4.056  0.3733  0.1664 -0.0282
 2006SOL     OW 8021   3.853   3.977   0.441  0.0047 -0.2119  0.3428
 2006SOL    HW1 8022   3.932   4.003   0.394 -0.3272 -2.2453 -1.5124
 2006SOL    HW2 8023   3.884   3.913   0.506 -0.0567 -0.9438 -0.3267
 2006SOL     MW 8024   3.867   3.972   0.443 -0.0456 -0.5659  0.0196
 2007SOL     OW 8025   0.136   5.131   2.533  0.5597  0.0569  0.1961
 2007SOL    HW1 8026   0.172   5.219   2.521  0.5569  0.2342  1.3859
 2007SOL    HW2 8027   0.139   5.117   2.628  1.0668 -1.4464 -0.0290
 2007SOL     MW 8028   0.141   5.141   2.544  0.6242 -0.1128  0.3196
 2008SOL     OW 8029   3.617   2.373   3.723  0.5382  0.2774  0.6742
 2008SOL    HW1 8030   3.638   2.299   3.780  0.5998  0.3093  0.6937
 2008SOL    HW2 8031   3.700   2.422   3.716  0.6028  0.1266  0.3418
 2008SOL     MW 8032   3.631   2.370   3.729  0.5544  0.2622  0.6341
 2009SOL     OW 8033   3.425   4.077   4.322  0.3230  0.3850 -0.1797
 2009SOL    HW1 8034   3.349   4.135   4.335  0.8950  1.0136  0.4661
 2009SOL    HW2 8035   3.500   4.136   4.317  0.6763 -0.1618 -1.8740
 2009SOL     MW 8036   3.425   4.092   4.323  0.4414  0.3955 -0.3139
 2010SOL     OW 8037   4.634   3.752   0.653  0.5542  0.1747  0.1361
 2010SOL    HW1 8038   4.684   3.754   0.571  0.8178 -0.6028  0.2673
 2010SOL    HW2 8039   4.695   3.716   0.718 -0.0095 -0.2979  0.4122
 2010SOL     MW 8040   4.648   3.747   0.651  0.5158  0.0147  0.1882
 2011SOL     OW 8041   0.342   3.060   1.682  0.3414 -0.3005  0.2435
 2011SOL    HW1 8042   0.304   3.136   1.637 -0.4529  1.1679  3.1325
 2011SOL    HW2 8043   0.269   3.000   1.695  0.5711 -0.7268 -0.3738
 2011SOL     MW 8044   0.328   3.062   1.678  0.2691 -0.1671  0.5343
 2012SOL     OW 8045   2.498   4.608   4.803  0.1490  0.1902  0.1871
 2012SOL    HW1 8046   2.425   4.554   4.833 -0.2695  0.9418  0.5452
 2012SOL    HW2 8047   2.530   4.564   4.724  0.5579 -1.2028  1.0989
 2012SOL     MW 8048   2.493   4.595   4.797  0.1478  0.1081  0.3497
 2013SOL     OW 8049   0.722   2.611   2.887  0.6022  0.3054 -0.2583
 2013SOL    HW1 8050   0.728   2.528   2.934 -0.4507 -0.1383 -0.8724
 2013SOL    HW2 8051   0.780   2.600   2.812 -1.6159 -1.0067 -1.9080
 2013SOL     MW 8052   0.730   2.599   2.884  0.1835  0.0806 -0.5481
 2014SOL     OW 8053   3.374   2.629   4.329  0.0792 -0.5300 -0.1840
 2014SOL    HW1 8054   3.406   2.670   4.248 -0.7651  1.3930  0.3905
 2014SOL    HW2 8055   3.292   2.587   4.305 -0.9622  1.3489 -0.0663
 2014SOL     MW 8056   3.368   2.629   4.316 -0.1622 -0.0433 -0.0954
 2015SOL     OW 8057   0.625   4.003   2.848  0.0679  0.6756  0.4320
 2015SOL    HW1 8058   0.671   4.064   2.791 -0.1605 -0.3865 -0.9405
 2015SOL    HW2 8059   0.550   3.973   2.796  1.1568 -2.1270  0.3269
 2015SOL     MW 8060   0.621   4.007   2.834  0.1780  0.1809  0.2429
 2016SOL     OW 8061   1.957   5.124   2.460  0.4459  0.4610 -0.0936
 2016SOL    HW1 8062   1.956   5.103   2.367 -0.9315  0.4513 -0.0962
 2016SOL    HW2 8063   1.881   5.180   2.473 -1.2927 -2.0720  1.5595
 2016SOL     MW 8064   1.947   5.128   2.450  0.0470  0.1355  0.1177
 2017SOL     OW 8065   5.289   5.108   4.136 -0.1140 -0.1247 -0.2049
 2017SOL    HW1 8066   5.251   5.021   4.128  1.0635 -0.6421 -0.3253
 2017SOL    HW2 8067   5.373   5.102   4.092  0.3940  0.8227  0.5954
 2017SOL     MW 8068   5.295   5.096   4.129  0.1018 -0.0697 -0.1179
 2018SOL     OW 8069   0.098   3.935   4.464 -0.0337  0.0073 -0.4962
 2018SOL    HW1 8070   0.097   3.850   4.422 -1.4306 -0.0645 -0.3422
 2018SOL    HW2 8071   0.190   3.948   4.488 -0.0703 -2.4155  1.3963
 2018SOL     MW 8072   0.110   3.926   4.462 -0.2172 -0.3120 -0.2342
 2019SOL     OW 8073   1.816   2.715   2.272  0.1095  0.6354  0.2077
 2019SOL    HW1 8074   1.872   2.773   2.221  0.2501  1.4122  1.2152
 2019SOL    HW2 8075   1.758   2.675   2.207 -0.1141  2.0426 -0.5113
 2019SOL     MW 8076   1.816   2.717   2.257  0.0989  0.9150  0.2446
 2020SOL     OW 8077   1.259   2.419   0.545 -0.5868 -0.3191  0.1875
 2020SOL    HW1 8078   1.329   2.464   0.498  0.4722 -0.3670  1.6425
 2020SOL    HW2 8079   1.206   2.489   0.582  0.5207 -0.2286  1.6720
 2020SOL     MW 8080   1.261   2.434   0.544 -0.3095 -0.3137  0.5638
 2021SOL     OW 8081   1.553   1.573   5.243  0.3321  0.1694 -0.5396
 2021SOL    HW1 8082   1.515   1.506   5.299  1.6847 -1.1921 -1.1805
 2021SOL    HW2 8083   1.541   1.540   5.154  0.3432  1.1404 -0.9140
 2021SOL     MW 8084   1.547   1.560   5.239  0.5067  0.1194 -0.6696
 2022SOL     OW 8085   0.653   0.038   5.028 -0.4644 -0.1543 -0.0582
 2022SOL    HW1 8086   0.720   0.022   5.095 -0.3852 -0.3663 -0.1851
 2022SOL    HW2 8087   0.573   0.002   5.065 -0.8008  1.2954  0.6561
 2022SOL     MW 8088   0.652   0.031   5.042 -0.4973  0.0042  0.0170
 2023SOL     OW 8089   4.976   2.034   1.269  0.1342  0.4264 -0.2556
 2023SOL    HW1 8090   5.016   2.119   1.287 -1.0150  0.8427  0.4563
 2023SOL    HW2 8091   4.894   2.054   1.223  0.6095 -0.3900 -1.4985
 2023SOL     MW 8092   4.970   2.047   1.266  0.0479  0.3752 -0.3236
 2024SOL     OW 8093   4.386   0.176   0.896 -0.4633 -0.4874  0.1076
 2024SOL    HW1 8094   4.355   0.157   0.984  0.0138 -1.0908  0.1493
 2024SOL    HW2 8095   4.307   0.205   0.849 -1.5696 -3.8542 -0.3247
 2024SOL     MW 8096   4.372   0.178   0.901 -0.5438 -0.9956  0.0576
 2025SOL     OW 8097   3.211   2.428   4.214 -0.4861 -0.1072 -0.4106
 2025SOL    HW1 8098   3.142   2.399   4.274 -1.2474 -0.4406 -1.4124
 2025SOL    HW2 8099   3.170   2.425   4.128  0.4018  0.9417 -0.8918
 2025SOL     MW 8100   3.197   2.424   4.211 -0.4699 -0.0156 -0.6005
 2026SOL     OW 8101   0.028   2.616   2.265  0.3719 -0.1392  0.1682
 2026SOL    HW1 8102  -0.065   2.631   2.247 -0.2686 -0.8730  2.4800
 2026SOL    HW2 8103   0.074   2.663   2.196 -1.6830  1.8099  0.0156
 2026SOL     MW 8104   0.022   2.624   2.254  0.0269  0.0164  0.4446
 2027SOL     OW 8105   2.334   4.237   4.258  0.3149 -0.3595 -0.0721
 2027SOL    HW1 8106   2.349   4.170   4.191  0.3861 -0.7097  0.2891
 2027SOL    HW2 8107   2.419   4.277   4.272  0.2697 -0.1781 -0.2976
 2027SOL     MW 8108   2.347   4.234   4.251  0.3182 -0.3811 -0.0548
 2028SOL     OW 8109   1.499   2.325   2.815  0.5866 -0.3225  0.3242
 2028SOL    HW1 8110   1.588   2.359   2.820  0.3020  1.1420 -2.2292
 2028SOL    HW2 8111   1.508   2.237   2.778  1.0001  1.1965 -3.7865
 2028SOL     MW 8112   1.511   2.318   2.811  0.6031  0.0594 -0.5289
 2029SOL     OW 8113   3.283   5.080   0.441  0.7366  0.3626  0.1962
 2029SOL    HW1 8114   3.302   5.145   0.509 -1.6986 -0.3955  1.7205
 2029SOL    HW2 8115   3.343   5.007   0.461  1.6243  1.0555  0.1049
 2029SOL     MW 8116   3.293   5.079   0.452  0.5385  0.3543  0.3796
 2030SOL     OW 8117   3.181   4.697   4.462  0.4446 -0.3564 -0.0692
 2030SOL    HW1 8118   3.227   4.613   4.470 -0.5392 -0.8549  0.4732
 2030SOL    HW2 8119   3.089   4.674   4.467  0.1384  0.6888 -0.7178
 2030SOL     MW 8120   3.175   4.683   4.464  0.2795 -0.2864 -0.0828
 2031SOL     OW 8121   1.591   1.718   2.288 -0.1261 -0.1276 -0.5528
 2031SOL    HW1 8122   1.605   1.710   2.382 -3.5370 -0.8705  0.0365
 2031SOL    HW2 8123   1.579   1.812   2.273  1.0081  0.0543 -0.3857
 2031SOL     MW 8124   1.591   1.729   2.298 -0.4176 -0.1994 -0.4560
 2032SOL     OW 8125   2.318   1.923   2.086  0.1605  0.0248 -0.1168
 2032SOL    HW1 8126   2.352   1.882   2.006  1.4655  0.0199  0.4103
 2032SOL    HW2 8127   2.273   1.852   2.132  2.8862 -1.0999  1.0622
 2032SOL     MW 8128   2.317   1.908   2.082  0.6765 -0.1198  0.1016
 2033SOL     OW 8129   1.627   4.643   4.894  0.1092 -0.2093 -0.0070
 2033SOL    HW1 8130   1.697   4.660   4.956 -1.1553  2.0959  0.9039
 2033SOL    HW2 8131   1.591   4.729   4.874 -1.4924 -1.1740 -1.6179
 2033SOL     MW 8132   1.631   4.656   4.899 -0.2577 -0.0377 -0.0966
 2034SOL     OW 8133   0.311   1.638   0.534  0.4027 -0.1088 -0.2307
 2034SOL    HW1 8134   0.366   1.710   0.565  1.1258 -0.8435  0.2104
 2034SOL    HW2 8135   0.264   1.608   0.611 -1.3500  1.1052 -0.7686
 2034SOL     MW 8136   0.312   1.644   0.548  0.2709 -0.0475 -0.2431
 2035SOL     OW 8137   3.456   0.440   2.663 -0.0918  0.3636 -0.2611
 2035SOL    HW1 8138   3.455   0.470   2.572  1.1064 -0.0188 -0.4172
 2035SOL    HW2 8139   3.384   0.378   2.669 -0.4305  0.6937 -0.8383
 2035SOL     MW 8140   3.447   0.436   2.652  0.0182  0.3569 -0.3550
 2036SOL     OW 8141   0.361   3.111   3.635  0.4012 -0.2704 -0.2538
 2036SOL    HW1 8142   0.450   3.145   3.627 -0.3252  1.7186 -0.3733
 2036SOL    HW2 8143   0.372   3.016   3.634  2.4869 -0.0789 -0.5588
 2036SOL     MW 8144   0.374   3.103   3.634  0.5752  0.0087 -0.3081
 2037SOL     OW 8145   0.088   2.439   4.381 -0.6042  0.2504  0.0205
 2037SOL    HW1 8146   0.052   2.463   4.296  0.9604  0.9421 -0.4807
 2037SOL    HW2 8147   0.183   2.445   4.370 -0.3577  0.3029  1.8062
 2037SOL     MW 8148   0.096   2.443   4.369 -0.3723  0.3457  0.1849
 2038SOL     OW 8149   4.458   1.937   0.969 -0.3628 -0.4294  0.0426
 2038SOL    HW1 8150   4.549   1.948   0.996 -0.7413  0.8023  0.8939
 2038SOL    HW2 8151   4.456   1.967   0.878 -0.4386  2.4162  0.8798
 2038SOL     MW 8152   4.469   1.942   0.961 -0.4209  0.0926  0.2587
 2039SOL     OW 8153   3.160   3.532   5.375  0.4587 -0.4066  0.6094
 2039SOL    HW1 8154   3.144   3.440   5.397 -0.7494 -0.3494  0.0588
 2039SOL    HW2 8155   3.091   3.553   5.312  2.4466  0.0282 -1.5486
 2039SOL     MW 8156   3.149   3.523   5.369  0.5585 -0.3436  0.2626
 2040SOL     OW 8157   2.516   2.944   4.571  0.3529 -0.5465  0.0286
 2040SOL    HW1 8158   2.571   2.887   4.517  0.9427 -0.4906  0.5529
 2040SOL    HW2 8159   2.429   2.905   4.567  0.4150 -0.6179 -0.8496
 2040SOL     MW 8160   2.512   2.932   4.564  0.4364 -0.5484 -0.0167
 2041SOL     OW 8161   1.415   4.541   5.069 -0.2844 -0.2924  0.2391
 2041SOL    HW1 8162   1.427   4.580   5.156 -1.1629  0.4948  0.0263
 2041SOL    HW2 8163   1.468   4.597   5.011  0.2940 -0.8117  0.2560
 2041SOL     MW 8164   1.423   4.553   5.072 -0.3228 -0.2581  0.2140
 2042SOL     OW 8165   1.756   5.060   0.687 -0.2989  0.3657 -0.3997
 2042SOL    HW1 8166   1.805   5.068   0.605  1.0829 -1.0340  0.2408
 2042SOL    HW2 8167   1.706   5.141   0.693 -0.6173  0.3997 -2.7358
 2042SOL     MW 8168   1.756   5.071   0.677 -0.1628  0.1908 -0.6168
 2043SOL     OW 8169   3.721   1.979   5.132 -0.0186  0.0893 -0.7919
 2043SOL    HW1 8170   3.694   1.888   5.121  0.8087 -0.2678 -0.0316
 2043SOL    HW2 8171   3.777   1.978   5.210 -2.6870  1.7891  1.3455
 2043SOL     MW 8172   3.725   1.968   5.141 -0.2543  0.2612 -0.4209
 2044SOL     OW 8173   0.744   2.627   1.216 -0.6690 -0.6680 -0.1016
 2044SOL    HW1 8174   0.824   2.670   1.247  0.4446 -1.5699 -1.6113
 2044SOL    HW2 8175   0.679   2.698   1.213  0.2551  0.2388  0.4585
 2044SOL     MW 8176   0.746   2.642   1.219 -0.4082 -0.6673 -0.2232
 2045SOL     OW 8177   1.552   3.133   3.578  0.4911 -0.8392 -0.0216
 2045SOL    HW1 8178   1.601   3.118   3.659  0.9529  3.1078  0.6383
 2045SOL    HW2 8179   1.474   3.182   3.606  0.2031 -0.1576 -1.8704
 2045SOL     MW 8180   1.548   3.137   3.592  0.5133 -0.2467 -0.1738
 2046SOL     OW 8181   1.502   2.387   4.224 -0.4521  0.3071 -0.3563
 2046SOL    HW1 8182   1.484   2.300   4.260  0.6798  0.4249  0.5364
 2046SOL    HW2 8183   1.524   2.372   4.133  1.5806 -0.5867  0.2389
 2046SOL     MW 8184   1.502   2.374   4.217 -0.0470  0.2078 -0.1658
 2047SOL     OW 8185   4.603   3.053   3.976 -0.0717  0.8089 -0.3354
 2047SOL    HW1 8186   4.548   2.975   3.969 -0.9407  1.4983 -1.8056
 2047SOL    HW2 8187   4.692   3.019   3.989 -0.5519 -0.3842 -0.0313
 2047SOL     MW 8188   4.607   3.039   3.977 -0.2444  0.7444 -0.4847
 2048SOL     OW 8189   4.600   3.953   4.300  0.3583  0.0910  0.1551
 2048SOL    HW1 8190   4.623   3.911   4.383 -2.7752 -0.7423  0.7402
 2048SOL    HW2 8191   4.647   3.901   4.234  2.6744  0.5887  1.2902
 2048SOL     MW 8192   4.609   3.941   4.302  0.2537  0.0480  0.3753
 2049SOL     OW 8193   1.218   1.977   1.409 -0.0615  0.4274 -0.2525
 2049SOL    HW1 8194   1.198   1.929   1.329  1.6698  1.0711 -1.1277
 2049SOL    HW2 8195   1.306   1.948   1.433 -0.7904 -0.2812  1.8627
 2049SOL     MW 8196   1.227   1.967   1.402  0.0668  0.4191 -0.0938
 2050SOL     OW 8197   2.917   2.701   2.733  0.1432 -0.2139 -0.1363
 2050SOL    HW1 8198   2.921   2.611   2.765 -1.5271  0.3085  1.8018
 2050SOL    HW2 8199   2.866   2.696   2.653  2.3219 -1.2566 -1.5745
 2050SOL     MW 8200   2.911   2.689   2.727  0.2083 -0.2805 -0.0723
 2051SOL     OW 8201   2.214   0.979   3.406 -0.3578 -0.0474  0.3264
 2051SOL    HW1 8202   2.293   0.954   3.453  0.4880  0.6052 -0.6853
 2051SOL    HW2 8203   2.184   1.058   3.450  0.8299  0.9684 -0.6036
 2051SOL     MW 8204   2.220   0.986   3.418 -0.0975  0.1661  0.0779
 2052SOL     OW 8205   3.934   0.373   1.228  0.1945  0.2913  0.4721
 2052SOL    HW1 8206   4.002   0.339   1.286 -1.2575 -2.4261  0.7395
 2052SOL    HW2 8207   3.858   0.385   1.285 -0.6270 -0.3343 -0.4670
 2052SOL     MW 8208   3.933   0.370   1.242 -0.0965 -0.1366  0.3861
 2053SOL     OW 8209   4.767   5.412   1.533  0.0891  0.1470 -0.5986
 2053SOL    HW1 8210   4.798   5.346   1.471  2.6295 -0.9041  1.5856
 2053SOL    HW2 8211   4.833   5.481   1.530 -0.2029  0.4864  0.2950
 2053SOL     MW 8212   4.780   5.412   1.525  0.3769  0.0559 -0.2046
 2054SOL     OW 8213   2.055   4.046   0.598  0.2077 -0.0687 -0.0877
 2054SOL    HW1 8214   2.059   3.951   0.612  1.0867  0.2678  2.4633
 2054SOL    HW2 8215   2.022   4.081   0.681 -0.1997  1.8740 -1.0207
 2054SOL     MW 8216   2.051   4.038   0.610  0.2680  0.2231  0.1194
 2055SOL     OW 8217   4.712   1.072   4.432 -0.0030 -0.1865  0.2666
 2055SOL    HW1 8218   4.795   1.114   4.454 -0.1937 -1.1929  3.5221
 2055SOL    HW2 8219   4.655   1.144   4.407  1.0666  0.8891  0.8154
 2055SOL     MW 8220   4.715   1.087   4.432  0.1095 -0.1776  0.7536
 2056SOL     OW 8221   3.483   1.347   5.019  0.0746 -0.4915  0.1424
 2056SOL    HW1 8222   3.533   1.320   4.942  3.9416  2.9337  1.0995
 2056SOL    HW2 8223   3.536   1.318   5.094 -1.4109 -0.1240  1.3905
 2056SOL     MW 8224   3.496   1.340   5.019  0.3795 -0.0060  0.4247
 2057SOL     OW 8225   3.694   1.559   0.229  0.0008  0.6306  0.2066
 2057SOL    HW1 8226   3.652   1.629   0.277  0.3796  0.8126  0.2797
 2057SOL    HW2 8227   3.776   1.542   0.276 -0.2757 -0.1402  0.4286
 2057SOL     MW 8228   3.699   1.566   0.241  0.0139  0.5553  0.2444
 2058SOL     OW 8229   1.625   1.473   2.638 -0.1317  0.5572 -0.0455
 2058SOL    HW1 8230   1.635   1.565   2.614  1.2148  0.9571  1.7734
 2058SOL    HW2 8231   1.530   1.460   2.643 -0.3632  2.2658  1.0059
 2058SOL     MW 8232   1.614   1.483   2.636  0.0110  0.8271  0.3220
 2059SOL     OW 8233   5.088   3.650   0.643 -0.8127  0.0169 -0.0791
 2059SOL    HW1 8234   5.138   3.713   0.695  0.6610 -0.8780 -0.3539
 2059SOL    HW2 8235   5.154   3.605   0.589 -1.7761 -1.8813  0.2396
 2059SOL     MW 8236   5.103   3.653   0.642 -0.7474 -0.3407 -0.0735
 2060SOL     OW 8237   3.428   3.533   3.522  0.5469 -0.3121  0.2621
 2060SOL    HW1 8238   3.343   3.531   3.564  0.2449 -2.6691 -0.3071
 2060SOL    HW2 8239   3.412   3.574   3.437  0.1921  0.1164  0.5337
 2060SOL     MW 8240   3.415   3.538   3.516  0.4628 -0.5590  0.2240
 2061SOL     OW 8241   2.571   0.192   4.314  0.2353 -0.0805 -0.1876
 2061SOL    HW1 8242   2.504   0.258   4.331  0.6620  0.4110 -0.3601
 2061SOL    HW2 8243   2.639   0.240   4.267  1.8024  0.0194  2.0325
 2061SOL     MW 8244   2.571   0.206   4.310  0.4906 -0.0048  0.0745
 2062SOL     OW 8245   0.189   5.387   2.458  0.2548  0.1301  0.3769
 2062SOL    HW1 8246   0.210   5.465   2.511  2.0277  0.0271 -0.1161
 2062SOL    HW2 8247   0.269   5.369   2.410 -0.7209 -0.9453 -0.8992
 2062SOL     MW 8248   0.202   5.395   2.459  0.3568 -0.0208  0.1504
 2063SOL     OW 8249   2.839   0.178   4.020  0.3588 -0.0577  0.0591
 2063SOL    HW1 8250   2.784   0.237   4.072  0.5824 -0.7864  1.1670
 2063SOL    HW2 8251   2.925   0.221   4.018  0.0578  0.5190 -0.6800
 2063SOL     MW 8252   2.843   0.191   4.027  0.3489 -0.0772  0.1063
 2064SOL     OW 8253   4.813   4.393   4.093  0.2477  0.0541  0.0992
 2064SOL    HW1 8254   4.778   4.329   4.031 -0.4634  0.7314 -0.2113
 2064SOL    HW2 8255   4.908   4.391   4.079  0.0981  0.1897 -1.0105
 2064SOL     MW 8256   4.821   4.385   4.084  0.1375  0.1582 -0.0826
 2065SOL     OW 8257   1.439   5.447   4.123 -0.6470  0.2174 -0.2012
 2065SOL    HW1 8258   1.353   5.406   4.109  0.1828 -0.7995 -2.8575
 2065SOL    HW2 8259   1.418   5.538   4.144 -2.3854 -0.0947 -0.3589
 2065SOL     MW 8260   1.425   5.454   4.124 -0.7633  0.0473 -0.5614
 2066SOL     OW 8261   0.077   4.022   5.111 -0.1376 -0.0669  0.1757
 2066SOL    HW1 8262   0.164   4.050   5.082 -0.4371  1.5332  0.7557
 2066SOL    HW2 8263   0.027   4.011   5.031 -0.3076  2.1375 -0.0802
 2066SOL     MW 8264   0.082   4.024   5.097 -0.1977  0.4201  0.2172
 2067SOL     OW 8265   1.122   2.096   2.327 -0.1024  0.0200 -0.0973
 2067SOL    HW1 8266   1.171   2.121   2.249 -0.3220 -1.5987 -0.8052
 2067SOL    HW2 8267   1.188   2.059   2.386 -0.0924  0.2835  0.0590
 2067SOL     MW 8268   1.137   2.094   2.325 -0.1292 -0.1535 -0.1679
 2068SOL     OW 8269   3.873   3.423   3.361  0.4781  0.2391  0.1979
 2068SOL    HW1 8270   3.916   3.384   3.437  0.8427 -0.0512 -0.1553
 2068SOL    HW2 8271   3.789   3.378   3.355  1.1111 -0.8921 -0.5248
 2068SOL     MW 8272   3.868   3.412   3.370  0.6058  0.0572  0.0601
 2069SOL     OW 8273   1.970   4.061   1.740 -0.0539 -0.0271 -0.1340
 2069SOL    HW1 8274   2.002   4.150   1.753 -0.9833  0.2363  0.4197
 2069SOL    HW2 8275   1.887   4.057   1.787 -0.4638 -0.9232 -0.8770
 2069SOL     MW 8276   1.963   4.072   1.748 -0.2254 -0.1081 -0.1582
 2070SOL     OW 8277   1.862   1.229   0.903  0.0026 -0.2306  0.0454
 2070SOL    HW1 8278   1.954   1.235   0.931  0.7337 -1.9209 -1.7153
 2070SOL    HW2 8279   1.850   1.304   0.846  0.5814 -0.4618 -0.3919
 2070SOL     MW 8280   1.873   1.239   0.899  0.1703 -0.4766 -0.2360
 2071SOL     OW 8281   1.297   1.622   1.983  0.0264 -0.2501  0.1312
 2071SOL    HW1 8282   1.392   1.633   1.988  0.4216 -2.8396 -0.1921
 2071SOL    HW2 8283   1.282   1.585   1.896 -1.3081  0.3175  0.1058
 2071SOL     MW 8284   1.308   1.619   1.972 -0.0938 -0.5089  0.0865
 2072SOL     OW 8285   2.451   3.541   1.028  0.3634 -0.0050 -0.2626
 2072SOL    HW1 8286   2.377   3.484   1.047  1.0090 -0.0713  2.4849
 2072SOL    HW2 8287   2.526   3.482   1.022  0.9332  0.3591  2.0044
 2072SOL     MW 8288   2.451   3.526   1.030  0.5190  0.0331  0.3793
 2073SOL     OW 8289   4.929   3.495   5.032 -0.1195  0.7189  0.1808
 2073SOL    HW1 8290   4.869   3.433   5.074 -1.0914  1.7488  0.3805
 2073SOL    HW2 8291   4.954   3.555   5.101 -0.2032  1.2966 -0.2826
 2073SOL     MW 8292   4.924   3.495   5.046 -0.2546  0.9247  0.1470
 2074SOL     OW 8293   3.941   4.862   2.547 -0.4074 -0.8079 -0.1003
 2074SOL    HW1 8294   3.992   4.937   2.517 -1.1470 -0.9124 -1.7237
 2074SOL    HW2 8295   3.962   4.793   2.484 -0.0895 -1.8451  1.1048
 2074SOL     MW 8296   3.951   4.863   2.535 -0.4614 -0.9540 -0.1539
 2075SOL     OW 8297   3.560   4.178  -0.002  0.4228 -0.2154  0.0998
 2075SOL    HW1 8298   3.654   4.167   0.010  0.7178 -0.2742 -1.8249
 2075SOL    HW2 8299   3.522   4.098   0.033  1.4095 -1.6444 -1.8919
 2075SOL     MW 8300   3.567   4.166   0.004  0.5869 -0.4058 -0.4015
 2076SOL     OW 8301   0.277   1.405   3.370 -0.1043 -0.4989 -0.0893
 2076SOL    HW1 8302   0.294   1.384   3.462 -1.4273  0.5402  0.4368
 2076SOL    HW2 8303   0.297   1.499   3.363 -1.4068 -0.2191 -0.4549
 2076SOL     MW 8304   0.281   1.415   3.381 -0.4404 -0.3301 -0.0688
 2077SOL     OW 8305   4.352   3.816   3.352  0.1951 -0.2677 -0.1170
 2077SOL    HW1 8306   4.382   3.801   3.442  0.5491 -1.0868 -0.3601
 2077SOL    HW2 8307   4.257   3.808   3.357  0.2064 -0.2263  0.2000
 2077SOL     MW 8308   4.344   3.813   3.364  0.2418 -0.3673 -0.1075
 2078SOL     OW 8309   2.625   0.642   4.458 -0.3782 -0.4747  0.8392
 2078SOL    HW1 8310   2.702   0.694   4.436 -0.1986  0.0571  2.5433
 2078SOL    HW2 8311   2.616   0.653   4.553 -2.7214 -0.2889  0.6469
 2078SOL     MW 8312   2.634   0.650   4.468 -0.6552 -0.3829  1.0327
 2079SOL     OW 8313   1.861   2.113   2.497 -0.1422 -0.8073  0.0749
 2079SOL    HW1 8314   1.869   2.101   2.591  0.3895 -1.1367 -0.0071
 2079SOL    HW2 8315   1.769   2.137   2.483 -0.1983 -0.6681  0.6813
 2079SOL     MW 8316   1.850   2.114   2.507 -0.0813 -0.8316  0.1420
 2080SOL     OW 8317   0.455   4.859   3.440  0.4183 -0.1846 -0.1904
 2080SOL    HW1 8318   0.453   4.954   3.435 -0.3779 -0.2183 -0.7888
 2080SOL    HW2 8319   0.543   4.838   3.474  0.2924  0.7777  0.7732
 2080SOL     MW 8320   0.466   4.868   3.444  0.3003 -0.0657 -0.1437
 2081SOL     OW 8321   3.719   1.446   2.383 -0.2869 -0.5339 -0.2186
 2081SOL    HW1 8322   3.689   1.492   2.462 -1.3626 -2.1508  0.3570
 2081SOL    HW2 8323   3.811   1.428   2.400 -0.2094  0.1759  0.1538
 2081SOL     MW 8324   3.727   1.450   2.395 -0.4147 -0.6500 -0.0972
 2082SOL     OW 8325   2.933   5.338   4.530 -0.0852 -0.0159 -0.2033
 2082SOL    HW1 8326   3.001   5.385   4.579 -1.1492  0.0897  1.2244
 2082SOL    HW2 8327   2.946   5.246   4.555 -0.1639 -0.0528 -0.3023
 2082SOL     MW 8328   2.943   5.332   4.540 -0.2315 -0.0071 -0.0332
 2083SOL     OW 8329   1.788   2.389   4.786 -0.0675  0.2269  0.0471
 2083SOL    HW1 8330   1.797   2.407   4.693  1.0260  0.3639  0.1619
 2083SOL    HW2 8331   1.770   2.295   4.791 -1.7904  0.5010 -0.3645
 2083SOL     MW 8332   1.787   2.379   4.775 -0.1481  0.2795  0.0091
 2084SOL     OW 8333   3.498   2.412   5.230 -0.5383 -0.0392 -0.0802
 2084SOL    HW1 8334   3.492   2.324   5.194 -1.1380 -0.3268  0.6938
 2084SOL    HW2 8335   3.569   2.453   5.181 -2.0346 -0.0174 -2.3728
 2084SOL     MW 8336   3.507   2.406   5.219 -0.8066 -0.0732 -0.2746
 2085SOL     OW 8337   0.797   0.862   0.944 -1.0593  0.0476  0.4802
 2085SOL    HW1 8338   0.840   0.874   1.028 -2.0730  0.4781  0.9474
 2085SOL    HW2 8339   0.827   0.936   0.890 -1.4870  0.5534  0.9250
 2085SOL     MW 8340   0.806   0.873   0.948 -1.2438  0.1675  0.5969
 2086SOL     OW 8341   2.845   0.372   2.129  0.1154 -0.8160  0.7300
 2086SOL    HW1 8342   2.763   0.390   2.175 -0.4757 -1.5042 -0.0105
 2086SOL    HW2 8343   2.873   0.287   2.164 -0.9658 -1.9414 -0.9454
 2086SOL     MW 8344   2.838   0.363   2.139 -0.0987 -1.0482  0.4207
 2087SOL     OW 8345   0.080   3.836   1.711  0.0238  0.1501 -0.1412
 2087SOL    HW1 8346   0.128   3.756   1.731  1.3052  0.7527 -0.6934
 2087SOL    HW2 8347   0.142   3.907   1.729 -0.7120  0.9608 -0.7072
 2087SOL     MW 8348   0.094   3.835   1.716  0.0936  0.3310 -0.2843
 2088SOL     OW 8349   0.213   4.696   4.142  0.1258  0.3928  0.1993
 2088SOL    HW1 8350   0.141   4.723   4.200  1.9202 -1.1300  3.4226
 2088SOL    HW2 8351   0.289   4.743   4.176  1.4148 -1.1475 -0.4690
 2088SOL     MW 8352   0.214   4.706   4.154  0.5205  0.0006  0.5264
 2089SOL     OW 8353   1.799   5.491   3.986  0.1408 -0.1891 -0.6813
 2089SOL    HW1 8354   1.731   5.503   3.920  0.4160 -0.3878 -1.0007
 2089SOL    HW2 8355   1.782   5.404   4.022  0.1000 -0.1518 -0.6081
 2089SOL     MW 8356   1.788   5.481   3.982  0.1708 -0.2097 -0.7128
 2090SOL     OW 8357   0.330   2.182   3.970  0.1412  0.0440 -0.3233
 2090SOL    HW1 8358   0.261   2.170   3.906  1.5207 -0.4217 -1.7745
 2090SOL    HW2 8359   0.391   2.110   3.954  0.5288 -0.0888  1.5292
 2090SOL     MW 8360   0.329   2.171   3.960  0.3674 -0.0327 -0.2719
 2091SOL     OW 8361   3.285   1.846   0.834  0.0430  0.2832  0.3473
 2091SOL    HW1 8362   3.355   1.892   0.788 -0.2048  0.3517  0.0340
 2091SOL    HW2 8363   3.279   1.761   0.790  1.1483 -0.4512  1.5377
 2091SOL     MW 8364   3.293   1.841   0.822  0.1528  0.1980  0.4596
 2092SOL     OW 8365   0.975   3.284   2.106  0.2284 -0.3649  0.5196
 2092SOL    HW1 8366   0.993   3.294   2.013  0.9705 -0.5595  0.6383
 2092SOL    HW2 8367   0.880   3.293   2.113  0.2672  0.6421 -0.1241
 2092SOL     MW 8368   0.965   3.286   2.095  0.3284 -0.2609  0.4524
 2093SOL     OW 8369   3.253   5.261   1.126  0.1521 -0.2793  0.4232
 2093SOL    HW1 8370   3.278   5.174   1.094 -0.2617 -0.6707  1.1458
 2093SOL    HW2 8371   3.162   5.251   1.155  0.2638  0.2656  0.9896
 2093SOL     MW 8372   3.245   5.249   1.125  0.1134 -0.2597  0.5882
 2094SOL     OW 8373   3.755   0.131   0.112 -0.2443  0.5066  0.0670
 2094SOL    HW1 8374   3.781   0.220   0.134 -0.2433  0.2177  1.3285
 2094SOL    HW2 8375   3.668   0.121   0.152 -0.3225  0.0014 -0.2180
 2094SOL     MW 8376   3.747   0.141   0.120 -0.2542  0.4050  0.1920
 2095SOL     OW 8377   4.060   0.133   4.500  0.4978 -0.5425 -0.1951
 2095SOL    HW1 8378   4.062   0.194   4.573  0.5412  0.6372 -1.1503
 2095SOL    HW2 8379   3.967   0.119   4.484  0.4867 -1.3229  0.4865
 2095SOL     MW 8380   4.048   0.139   4.507  0.5020 -0.4914 -0.2301
 2096SOL     OW 8381   3.739   3.886   4.746  0.0707  0.7020 -0.1854
 2096SOL    HW1 8382   3.697   3.858   4.827 -0.1245 -1.8017 -1.0561
 2096SOL    HW2 8383   3.780   3.970   4.767 -0.7333  0.5482  2.2240
 2096SOL     MW 8384   3.739   3.893   4.759 -0.0572  0.3618  0.0115
 2097SOL     OW 8385   0.134   1.342   1.824 -0.1346  0.0418 -0.4817
 2097SOL    HW1 8386   0.085   1.273   1.868  1.0355  0.0026  0.8732
 2097SOL    HW2 8387   0.078   1.371   1.753 -0.4875 -2.5791 -1.3738
 2097SOL     MW 8388   0.121   1.337   1.821 -0.0300 -0.2987 -0.4224
 2098SOL     OW 8389   5.268   4.721   1.613  0.4325 -0.0885  0.1292
 2098SOL    HW1 8390   5.291   4.746   1.523 -0.5132 -2.2034 -0.7591
 2098SOL    HW2 8391   5.200   4.784   1.638  0.7801  0.5939 -0.5815
 2098SOL     MW 8392   5.262   4.732   1.605  0.3559 -0.2719 -0.0755
 2099SOL     OW 8393   5.043   2.159   2.163  0.2087  0.7429  0.3233
 2099SOL    HW1 8394   5.077   2.248   2.167 -2.1205  1.6803  0.9388
 2099SOL    HW2 8395   5.029   2.134   2.254  0.5314 -0.1535  0.1450
 2099SOL     MW 8396   5.046   2.167   2.175 -0.0482  0.7481  0.3793
 2100SOL     OW 8397   1.136   0.872   1.005  0.4373 -0.3393  0.1017
 2100SOL    HW1 8398   1.072   0.908   1.067  0.2439 -0.0775 -0.2490
 2100SOL    HW2 8399   1.117   0.778   1.004  0.6117 -0.3890  0.6320
 2100SOL     MW 8400   1.125   0.864   1.013  0.4348 -0.3122  0.1247
 2101SOL     OW 8401   3.735   0.796   2.808  0.1327  0.3820 -0.0508
 2101SOL    HW1 8402   3.823   0.761   2.796  0.6573  1.5601  0.1887
 2101SOL    HW2 8403   3.703   0.811   2.720 -0.2749 -1.0734 -0.1715
 2101SOL     MW 8404   3.742   0.794   2.795  0.1477  0.3465 -0.0356
 2102SOL     OW 8405   4.461   3.044   0.020  0.4494 -1.0902  0.2528
 2102SOL    HW1 8406   4.436   3.134   0.000  0.2830 -1.1226  0.3190
 2102SOL    HW2 8407   4.453   3.037   0.115 -0.4237 -1.4441  0.1589
 2102SOL     MW 8408   4.457   3.054   0.030  0.3164 -1.1396  0.2493
 2103SOL     OW 8409   3.188   3.018   4.094 -0.0232 -0.3600 -0.3088
 2103SOL    HW1 8410   3.164   3.022   4.187 -2.5108 -0.0961 -0.8955
 2103SOL    HW2 8411   3.233   3.101   4.078 -0.6995  0.1608  0.3877
 2103SOL     MW 8412   3.190   3.029   4.104 -0.4282 -0.2596 -0.2947
 2104SOL     OW 8413   4.333   2.257   4.485 -0.2165  0.5106  0.0731
 2104SOL    HW1 8414   4.355   2.340   4.528 -0.9879  0.7811 -0.0337
 2104SOL    HW2 8415   4.380   2.191   4.535 -1.9364  0.6974  2.0523
 2104SOL     MW 8416   4.342   2.259   4.497 -0.5354  0.5692  0.3128
 2105SOL     OW 8417   2.211   5.230   2.513  0.4731  0.2350  0.7384
 2105SOL    HW1 8418   2.181   5.304   2.566 -0.2474  0.8724 -0.4995
 2105SOL    HW2 8419   2.130   5.184   2.489  0.5972  0.8706 -1.0752
 2105SOL     MW 8420   2.197   5.234   2.517  0.3968  0.3979  0.3478
 2106SOL     OW 8421   1.587   2.676   4.106 -1.0049 -0.4639 -0.0779
 2106SOL    HW1 8422   1.667   2.624   4.095 -0.2796  0.2961  1.3179
 2106SOL    HW2 8423   1.580   2.727   4.026  0.0488 -0.3908 -0.1351
 2106SOL     MW 8424   1.596   2.676   4.095 -0.7772 -0.3572  0.0935
 2107SOL     OW 8425   4.194   5.124   1.247 -0.6110  0.3641  0.2300
 2107SOL    HW1 8426   4.200   5.214   1.276 -0.4410  0.7553 -0.9562
 2107SOL    HW2 8427   4.250   5.075   1.307  1.4664  1.4606 -0.7195
 2107SOL     MW 8428   4.202   5.129   1.258 -0.3233  0.5546 -0.0434
 2108SOL     OW 8429   3.830   4.680   2.714  0.5710 -0.7051  0.1409
 2108SOL    HW1 8430   3.742   4.696   2.747  0.2004 -1.9769 -0.1569
 2108SOL    HW2 8431   3.858   4.763   2.677  0.3681  0.3273  2.1676
 2108SOL     MW 8432   3.823   4.692   2.713  0.4976 -0.7358  0.3622
 2109SOL     OW 8433   2.830   0.768   1.923 -0.2542  0.5150  0.1638
 2109SOL    HW1 8434   2.872   0.851   1.945 -1.6753  1.0887  0.8344
 2109SOL    HW2 8435   2.749   0.768   1.974  1.0228 -2.6161  2.5778
 2109SOL     MW 8436   2.825   0.779   1.933 -0.2727  0.1876  0.5586
 2110SOL     OW 8437   0.866   4.229   0.484 -0.2855  0.1286 -0.1639
 2110SOL    HW1 8438   0.944   4.273   0.517  0.4240 -0.7327 -0.6622
 2110SOL    HW2 8439   0.898   4.149   0.442 -1.4773 -0.5902  0.2030
 2110SOL     MW 8440   0.880   4.224   0.483 -0.3472 -0.0737 -0.1807
 2111SOL     OW 8441   1.525   1.913   0.633  0.1344 -0.2617 -0.1674
 2111SOL    HW1 8442   1.503   1.870   0.551  1.9616 -1.0367 -0.3070
 2111SOL    HW2 8443   1.617   1.890   0.648  1.0515  3.0795  0.1003
 2111SOL     MW 8444   1.534   1.904   0.625  0.4857  0.0668 -0.1510
 2112SOL     OW 8445   2.788   3.453   2.529 -0.1267  0.1930 -0.0874
 2112SOL    HW1 8446   2.863   3.513   2.525 -0.9982  1.4450  1.3219
 2112SOL    HW2 8447   2.775   3.438   2.622 -2.0914  0.6356 -0.2485
 2112SOL     MW 8448   2.796   3.459   2.540 -0.4898  0.4100  0.0724
 2113SOL     OW 8449   0.877   3.694   2.336 -0.0146  0.1075 -0.2326
 2113SOL    HW1 8450   0.798   3.674   2.286  0.4744  0.2877 -1.0924
 2113SOL    HW2 8451   0.854   3.672   2.426 -1.5682  1.5735 -0.2195
 2113SOL     MW 8452   0.864   3.689   2.341 -0.1509  0.3183 -0.3410
 2114SOL     OW 8453   4.777   2.640   3.434  0.0850 -0.2301  0.3774
 2114SOL    HW1 8454   4.759   2.559   3.482  0.8507  0.2526  1.5339
 2114SOL    HW2 8455   4.691   2.669   3.404 -0.1148 -1.8722 -0.7558
 2114SOL     MW 8456   4.763   2.633   3.437  0.1574 -0.3785  0.3804
 2115SOL     OW 8457   3.214   1.085   0.969  1.0897  0.2051  0.2765
 2115SOL    HW1 8458   3.171   1.170   0.964  0.2309 -0.1642  1.1711
 2115SOL    HW2 8459   3.171   1.031   0.902  2.3307  0.7408 -1.0144
 2115SOL     MW 8460   3.203   1.089   0.960  1.1386  0.2264  0.2257
 2116SOL     OW 8461   0.080   3.330   0.906  0.4401  0.0008  0.0619
 2116SOL    HW1 8462   0.112   3.302   0.820  0.3492 -0.9111  0.3045
 2116SOL    HW2 8463   0.031   3.254   0.939 -1.2155  1.0262  0.0841
 2116SOL     MW 8464   0.078   3.316   0.900  0.2165  0.0153  0.0958
 2117SOL     OW 8465   0.815   2.681   4.222  0.0640  0.3606 -0.0355
 2117SOL    HW1 8466   0.844   2.591   4.205 -0.6913 -0.3952  2.2555
 2117SOL    HW2 8467   0.723   2.681   4.199 -0.7608 -0.4478  2.7741
 2117SOL     MW 8468   0.807   2.669   4.217 -0.1383  0.1604  0.6174
 2118SOL     OW 8469   2.446   2.894   0.196 -0.2334  0.5940  0.0159
 2118SOL    HW1 8470   2.418   2.897   0.288  0.3872  0.7733  0.2033
 2118SOL    HW2 8471   2.364   2.886   0.147 -0.6815  1.9830  0.4974
 2118SOL     MW 8472   2.432   2.893   0.202 -0.2113  0.7947  0.1015
 2119SOL     OW 8473   3.163   0.594   4.104  0.3525  0.1885  0.0677
 2119SOL    HW1 8474   3.197   0.565   4.020 -1.4829 -1.5829 -0.1302
 2119SOL    HW2 8475   3.241   0.614   4.156  1.5484  0.0662 -1.6052
 2119SOL     MW 8476   3.178   0.593   4.100  0.2707 -0.0539 -0.1718
 2120SOL     OW 8477   5.333   3.641   3.809  0.7034 -0.5211  0.1511
 2120SOL    HW1 8478   5.383   3.640   3.727  0.4667 -2.2516 -0.0135
 2120SOL    HW2 8479   5.313   3.734   3.824  2.5119  0.0440 -0.6477
 2120SOL     MW 8480   5.336   3.653   3.800  0.9046 -0.6703  0.0278
 2121SOL     OW 8481   3.740   2.945   2.806  0.2143  0.6078 -0.0792
 2121SOL    HW1 8482   3.829   2.953   2.840  0.3778 -0.5527 -0.1872
 2121SOL    HW2 8483   3.749   2.956   2.711  0.1274  1.2299 -0.0206
 2121SOL     MW 8484   3.753   2.948   2.798  0.2241  0.5389 -0.0855
 2122SOL     OW 8485   4.399   4.725   3.635 -0.6159  0.6336 -0.4802
 2122SOL    HW1 8486   4.446   4.675   3.568 -1.8672 -0.2666 -0.6996
 2122SOL    HW2 8487   4.436   4.813   3.628 -0.0246  0.3137 -1.6746
 2122SOL     MW 8488   4.410   4.730   3.625 -0.7004  0.4774 -0.6612
 2123SOL     OW 8489   1.784   0.774   0.739  0.5035  0.0295 -0.2730
 2123SOL    HW1 8490   1.692   0.796   0.727  0.4172 -0.8092 -1.3077
 2123SOL    HW2 8491   1.831   0.857   0.728  0.1295 -0.0406 -3.2362
 2123SOL     MW 8492   1.778   0.787   0.736  0.4446 -0.0868 -0.7848
 2124SOL     OW 8493   2.719   1.490   2.672 -0.1450  0.4416 -0.5986
 2124SOL    HW1 8494   2.737   1.553   2.603 -0.9525  2.9482  1.3329
 2124SOL    HW2 8495   2.800   1.487   2.723 -0.6252  1.2036  0.2361
 2124SOL     MW 8496   2.732   1.498   2.670 -0.3099  0.8600 -0.2445
 2125SOL     OW 8497   3.220   4.630   4.197  0.3820  0.7863 -0.4197
 2125SOL    HW1 8498   3.314   4.641   4.180  0.4041  0.9578 -0.1947
 2125SOL    HW2 8499   3.209   4.655   4.289  0.1498  0.5571 -0.3824
 2125SOL     MW 8500   3.231   4.634   4.207  0.3551  0.7789 -0.3861
 2126SOL     OW 8501   0.962   5.187   5.360 -0.1612  0.1580  0.2958
 2126SOL    HW1 8502   0.969   5.092   5.372 -0.9951  0.1263  0.5915
 2126SOL    HW2 8503   1.039   5.223   5.403  1.0721 -0.4891 -1.2981
 2126SOL     MW 8504   0.972   5.179   5.367 -0.1100  0.0711  0.1296
 2127SOL     OW 8505   1.311   5.360   2.709 -0.0283  0.0767  0.4178
 2127SOL    HW1 8506   1.392   5.400   2.677  0.1619  0.8954  1.8722
 2127SOL    HW2 8507   1.255   5.356   2.631  1.7970 -1.6465 -0.9214
 2127SOL     MW 8508   1.314   5.364   2.695  0.2297 -0.0391  0.4325
 2128SOL     OW 8509   0.032   4.768   5.194  0.1210 -0.2550  0.3888
 2128SOL    HW1 8510   0.053   4.689   5.243 -1.0079  0.1758  1.6201
 2128SOL    HW2 8511  -0.060   4.784   5.211  0.0954  0.8241 -0.5894
 2128SOL     MW 8512   0.023   4.760   5.202 -0.0268 -0.0617  0.4212
 2129SOL     OW 8513   4.517   1.996   1.768 -0.8923  0.3086  0.1243
 2129SOL    HW1 8514   4.486   2.055   1.699 -0.7377 -1.2379 -1.3489
 2129SOL    HW2 8515   4.603   2.031   1.793 -0.8439  0.7657 -0.6511
 2129SOL     MW 8516   4.524   2.008   1.762 -0.8663  0.1692 -0.1635
 2130SOL     OW 8517   2.357   0.245   0.207  0.3476  0.0363  0.2797
 2130SOL    HW1 8518   2.355   0.211   0.296  0.4226  1.4575  0.8534
 2130SOL    HW2 8519   2.425   0.313   0.209  0.1921  0.2382 -0.7976
 2130SOL     MW 8520   2.366   0.249   0.219  0.3373  0.2441  0.2153
 2131SOL     OW 8521   0.113   3.850   3.022 -0.0769 -0.6979 -0.2156
 2131SOL    HW1 8522   0.079   3.780   3.077  0.6832 -1.7015 -0.9951
 2131SOL    HW2 8523   0.189   3.812   2.979  2.3731  1.5614  1.7819
 2131SOL     MW 8524   0.118   3.836   3.023  0.3340 -0.5371 -0.0597
 2132SOL     OW 8525   1.995   0.544   1.909 -0.0127  0.0235 -0.7787
 2132SOL    HW1 8526   2.045   0.529   1.989 -1.9686  1.5844  0.8376
 2132SOL    HW2 8527   1.997   0.639   1.896  0.2033 -0.1833 -2.5866
 2132SOL     MW 8528   2.002   0.554   1.918 -0.2354  0.1969 -0.8032
 2133SOL     OW 8529   3.325   4.827   2.202  0.5891  0.0952  0.3149
 2133SOL    HW1 8530   3.409   4.872   2.209  1.0846 -0.5976 -0.8792
 2133SOL    HW2 8531   3.345   4.743   2.162 -0.8969  0.8535 -2.3357
 2133SOL     MW 8532   3.338   4.822   2.198  0.4623  0.1036 -0.1773
 2134SOL     OW 8533   4.524   2.290   1.917  0.0020  0.1404 -0.5373
 2134SOL    HW1 8534   4.448   2.268   1.972 -0.3970  0.2126 -1.0458
 2134SOL    HW2 8535   4.595   2.236   1.951  0.0282  0.9101  0.6802
 2134SOL     MW 8536   4.523   2.280   1.929 -0.0457  0.2482 -0.4465
 2135SOL     OW 8537   0.708   3.417   0.174  0.3438  0.3175 -0.1167
 2135SOL    HW1 8538   0.716   3.382   0.085  0.0786  0.1771 -0.0868
 2135SOL    HW2 8539   0.717   3.341   0.231  2.7017  0.6835  0.0867
 2135SOL     MW 8540   0.710   3.403   0.170  0.6117  0.3464 -0.0868
 2136SOL     OW 8541   2.906   3.048   1.979 -0.1324  0.1206 -0.0661
 2136SOL    HW1 8542   2.917   3.138   1.949 -1.7392  0.2526 -0.3352
 2136SOL    HW2 8543   2.994   3.022   2.009 -0.0278  2.4615  2.0253
 2136SOL     MW 8544   2.919   3.056   1.979 -0.3247  0.4372  0.1672
 2137SOL     OW 8545   1.527   2.488   4.473  0.5334 -0.9152 -0.4071
 2137SOL    HW1 8546   1.502   2.444   4.392  0.2606 -1.8242  0.1579
 2137SOL    HW2 8547   1.560   2.573   4.444  0.4637 -1.2288 -1.4738
 2137SOL     MW 8548   1.528   2.493   4.459  0.4896 -1.0717 -0.4713
 2138SOL     OW 8549   2.680   4.656   1.270 -0.1855  0.0297  0.1515
 2138SOL    HW1 8550   2.589   4.671   1.295 -0.0479  2.0575 -0.3887
 2138SOL    HW2 8551   2.680   4.663   1.174  0.3591 -1.1037  0.0585
 2138SOL     MW 8552   2.668   4.659   1.261 -0.0982  0.1442  0.0704
 2139SOL     OW 8553   1.304   4.240   2.330  0.1864  0.4891  0.3400
 2139SOL    HW1 8554   1.366   4.206   2.265 -0.5778  1.6092 -1.0468
 2139SOL    HW2 8555   1.352   4.308   2.376  0.2893  0.6927 -0.0637
 2139SOL     MW 8556   1.318   4.244   2.327  0.1018  0.6585  0.1108
 2140SOL     OW 8557   5.452   1.956   4.145 -0.2338 -0.4731  0.1822
 2140SOL    HW1 8558   5.361   1.927   4.156 -0.1170 -0.9529 -0.0634
 2140SOL    HW2 8559   5.447   2.029   4.084 -0.7065  1.0924  2.0028
 2140SOL     MW 8560   5.440   1.962   4.139 -0.2794 -0.3341  0.3838
 2141SOL     OW 8561   4.799   2.343   5.097 -0.4881 -1.0805 -0.5157
 2141SOL    HW1 8562   4.888   2.364   5.127 -0.5399 -0.4184 -0.8126
 2141SOL    HW2 8563   4.808   2.333   5.002 -0.9287  0.1212 -0.7025
 2141SOL     MW 8564   4.812   2.344   5.089 -0.5511 -0.8419 -0.5777
 2142SOL     OW 8565   4.782   0.039   3.098  0.0262 -0.4262 -0.0206
 2142SOL    HW1 8566   4.834   0.118   3.082 -0.9527 -0.0917 -1.7998
 2142SOL    HW2 8567   4.692   0.070   3.105 -0.7158 -1.5264 -3.1406
 2142SOL     MW 8568   4.777   0.053   3.097 -0.1941 -0.5242 -0.6477
 2143SOL     OW 8569   5.371   5.017   0.471  0.0272  0.0365  0.3588
 2143SOL    HW1 8570   5.436   5.070   0.516  0.7816 -0.9354  0.4447
 2143SOL    HW2 8571   5.404   4.928   0.478 -0.6114 -0.3124 -0.8090
 2143SOL     MW 8572   5.383   5.013   0.477  0.0420 -0.1326  0.2203
 2144SOL     OW 8573   4.530   3.556   1.209 -0.1893  0.6364 -0.2724
 2144SOL    HW1 8574   4.450   3.593   1.172 -0.9819 -1.1213 -0.4158
 2144SOL    HW2 8575   4.528   3.582   1.301 -1.1057  0.3511 -0.2007
 2144SOL     MW 8576   4.520   3.564   1.216 -0.4080  0.3749 -0.2816
 2145SOL     OW 8577   0.625   1.388   1.216  0.1185  0.0167  0.1576
 2145SOL    HW1 8578   0.592   1.442   1.288 -0.8924  0.9658 -0.9680
 2145SOL    HW2 8579   0.636   1.301   1.254 -1.0823  0.3290  1.2834
 2145SOL     MW 8580   0.622   1.384   1.230 -0.1646  0.1782  0.1576
 2146SOL     OW 8581   3.051   2.925   5.169  0.9097  0.3564 -0.0144
 2146SOL    HW1 8582   3.032   2.979   5.092  0.5339 -1.8941 -1.5976
 2146SOL    HW2 8583   3.002   2.967   5.240  0.6570  2.0836 -1.1467
 2146SOL     MW 8584   3.042   2.937   5.168  0.8293  0.2894 -0.3620
 2147SOL     OW 8585   1.311   1.050   3.130  0.2598  0.6849  0.1950
 2147SOL    HW1 8586   1.284   0.965   3.096  1.4254 -0.2565  1.5180
 2147SOL    HW2 8587   1.266   1.113   3.074 -1.8973 -0.7695  0.1380
 2147SOL     MW 8588   1.302   1.047   3.119  0.1329  0.3782  0.3571
 2148SOL     OW 8589   0.853   3.821   2.879  0.6529  0.7558 -0.2540
 2148SOL    HW1 8590   0.769   3.861   2.858 -0.0010 -0.3952  0.0991
 2148SOL    HW2 8591   0.908   3.894   2.908 -0.6367  1.3574  0.7835
 2148SOL     MW 8592   0.849   3.835   2.880  0.4041  0.6855 -0.0760
 2149SOL     OW 8593   3.383   4.445   0.897 -0.2943  0.3260  0.0352
 2149SOL    HW1 8594   3.391   4.352   0.874 -1.6365 -0.3281  1.8927
 2149SOL    HW2 8595   3.416   4.492   0.821  0.5576 -1.6744 -0.9015
 2149SOL     MW 8596   3.388   4.439   0.885 -0.3571 -0.0138  0.1531
 2150SOL     OW 8597   1.157   0.983   0.765 -0.0672 -0.2992  0.0336
 2150SOL    HW1 8598   1.077   0.956   0.719  0.0357  0.0959 -0.3853
 2150SOL    HW2 8599   1.145   0.951   0.854 -1.3903  1.0832  0.3837
 2150SOL     MW 8600   1.145   0.975   0.770 -0.2234 -0.0717  0.0248
 2151SOL     OW 8601   1.801   1.881   5.437  0.2906 -0.4286  0.1087
 2151SOL    HW1 8602   1.814   1.789   5.415 -1.3902 -0.8640  0.7427
 2151SOL    HW2 8603   1.848   1.930   5.370  0.9210 -1.7520 -0.4293
 2151SOL     MW 8604   1.808   1.876   5.425  0.1562 -0.6538  0.1210
 2152SOL     OW 8605   2.295   2.378   1.520 -0.4984 -0.0088 -0.3306
 2152SOL    HW1 8606   2.384   2.379   1.556 -0.9340 -1.1805  0.8489
 2152SOL    HW2 8607   2.276   2.470   1.500  0.1231  0.5969  1.6285
 2152SOL     MW 8608   2.304   2.390   1.522 -0.4746 -0.0813  0.0712
 2153SOL     OW 8609   5.404   1.132   5.406  0.5189  0.0466  0.0470
 2153SOL    HW1 8610   5.388   1.077   5.329  1.1212 -1.0490  0.6903
 2153SOL    HW2 8611   5.318   1.171   5.424 -0.2311 -1.5841  0.2472
 2153SOL     MW 8612   5.391   1.130   5.398  0.5000 -0.3024  0.1550
 2154SOL     OW 8613   3.569   3.775   4.953  0.2385 -0.1765  0.4852
 2154SOL    HW1 8614   3.530   3.688   4.945  1.2314 -0.8799  2.3903
 2154SOL    HW2 8615   3.501   3.836   4.926 -1.1046 -1.4821  0.8375
 2154SOL     MW 8616   3.555   3.772   4.949  0.1937 -0.4337  0.7742
 2155SOL     OW 8617   4.431   1.711   0.483  0.1412 -0.3072 -0.4274
 2155SOL    HW1 8618   4.506   1.763   0.512  1.2897 -0.8696 -2.2044
 2155SOL    HW2 8619   4.433   1.632   0.537  1.2166 -0.5824 -0.8514
 2155SOL     MW 8620   4.441   1.707   0.493  0.4259 -0.4145 -0.7092
 2156SOL     OW 8621   2.347   2.207   4.601 -0.3408 -0.1389 -0.4989
 2156SOL    HW1 8622   2.398   2.243   4.528 -0.5759 -0.2806 -0.7386
 2156SOL    HW2 8623   2.410   2.196   4.672 -0.4170  1.5089 -0.1367
 2156SOL     MW 8624   2.362   2.210   4.600 -0.3807  0.0539 -0.4832
 2157SOL     OW 8625   4.077   0.606   1.812  0.0401 -0.3709  0.1023
 2157SOL    HW1 8626   4.099   0.698   1.827  0.8653 -0.7236  1.2473
 2157SOL    HW2 8627   4.003   0.589   1.871  0.6910 -0.7432  0.8284
 2157SOL     MW 8628   4.070   0.615   1.822  0.2291 -0.4637  0.3418
 2158SOL     OW 8629   3.398   5.006   1.402  0.5205 -0.4020 -0.3086
 2158SOL    HW1 8630   3.416   5.007   1.495  0.3528 -0.6969 -0.2699
 2158SOL    HW2 8631   3.436   5.087   1.368  0.6587 -0.3396 -0.0002
 2158SOL     MW 8632   3.405   5.017   1.409  0.5167 -0.4317 -0.2641
 2159SOL     OW 8633   4.095   4.726   0.454  0.5148 -0.1153  0.4389
 2159SOL    HW1 8634   4.059   4.676   0.380  2.7218 -0.8477 -0.2181
 2159SOL    HW2 8635   4.032   4.712   0.524 -1.1302 -0.2476 -0.9841
 2159SOL     MW 8636   4.082   4.718   0.453  0.5867 -0.2260  0.1727
 2160SOL     OW 8637   5.115   5.317   5.021 -0.2454  0.1357  0.1506
 2160SOL    HW1 8638   5.187   5.286   4.966 -0.3417 -1.6450  0.9858
 2160SOL    HW2 8639   5.040   5.321   4.962  0.2467  0.8913 -0.4540
 2160SOL     MW 8640   5.115   5.314   5.006 -0.1947  0.0044  0.1801
 2161SOL     OW 8641   2.095   4.642   2.561 -0.3340 -0.3906 -0.5231
 2161SOL    HW1 8642   2.045   4.717   2.592 -1.3857 -0.6411 -1.5240
 2161SOL    HW2 8643   2.109   4.588   2.639 -2.9874 -1.0743 -0.4099
 2161SOL     MW 8644   2.091   4.645   2.575 -0.8083 -0.5102 -0.6367
 2162SOL     OW 8645   4.596   1.259   5.046  0.0854  0.0834  0.6450
 2162SOL    HW1 8646   4.677   1.215   5.019  0.4898  1.0737  0.2007
 2162SOL    HW2 8647   4.625   1.334   5.096 -0.5866  0.1108  1.0003
 2162SOL     MW 8648   4.611   1.263   5.049  0.0511  0.2137  0.6336
 2163SOL     OW 8649   0.636   0.320   1.136  0.1256 -0.1998 -0.0570
 2163SOL    HW1 8650   0.663   0.399   1.089  0.8412 -0.7321 -0.5669
 2163SOL    HW2 8651   0.592   0.353   1.215 -1.5655  0.7206 -1.3120
 2163SOL     MW 8652   0.634   0.334   1.140  0.0007 -0.1501 -0.2829
 2164SOL     OW 8653   2.627   1.338   4.412 -0.4337 -0.3409 -0.1530
 2164SOL    HW1 8654   2.686   1.383   4.472 -1.6472 -0.0685  0.8592
 2164SOL    HW2 8655   2.576   1.408   4.371 -0.8794 -0.6565 -0.1413
 2164SOL     MW 8656   2.628   1.353   4.414 -0.6461 -0.3464 -0.0219
 2165SOL     OW 8657   0.771   0.753   0.367 -0.0698 -0.2246 -0.3437
 2165SOL    HW1 8658   0.801   0.785   0.452 -0.7943 -2.5496  0.8655
 2165SOL    HW2 8659   0.687   0.797   0.354 -0.3214 -0.4312  0.5255
 2165SOL     MW 8660   0.764   0.763   0.376 -0.1948 -0.5487 -0.0776
 2166SOL     OW 8661   3.420   2.404   4.721 -0.0152 -0.6417  0.0437
 2166SOL    HW1 8662   3.382   2.322   4.689 -0.8664  0.1115 -0.9448
 2166SOL    HW2 8663   3.482   2.430   4.653  0.9956 -0.9410  0.8146
 2166SOL     MW 8664   3.423   2.397   4.708  0.0053 -0.5836  0.0159
 2167SOL     OW 8665   0.567   0.032   3.641  0.7759 -0.3873 -0.0150
 2167SOL    HW1 8666   0.517  -0.008   3.712  1.0421  0.5491  0.7290
 2167SOL    HW2 8667   0.568  -0.034   3.572 -0.0180 -1.0836  0.6118
 2167SOL     MW 8668   0.560   0.019   3.641  0.7083 -0.3565  0.1605
 2168SOL     OW 8669   2.468   2.203   1.811  0.2392 -0.0212  0.1535
 2168SOL    HW1 8670   2.376   2.224   1.824  0.4149  2.2176 -1.5712
 2168SOL    HW2 8671   2.475   2.110   1.831 -2.8056 -0.7291 -1.5208
 2168SOL     MW 8672   2.457   2.194   1.815 -0.1281  0.1748 -0.2816
 2169SOL     OW 8673   2.159   2.780   5.024  0.2674 -0.0744  0.9471
 2169SOL    HW1 8674   2.067   2.798   5.006  0.8435  2.6688  0.2363
 2169SOL    HW2 8675   2.197   2.760   4.939  0.4908 -0.3576  1.1114
 2169SOL     MW 8676   2.152   2.780   5.011  0.3698  0.2405  0.8771
 2170SOL     OW 8677   3.721   0.251   4.770  0.0746 -0.5866 -0.3191
 2170SOL    HW1 8678   3.672   0.170   4.756  1.0427 -0.8720 -2.3318
 2170SOL    HW2 8679   3.779   0.258   4.694  0.9418  1.3337  0.4549
 2170SOL     MW 8680   3.722   0.242   4.759  0.3096 -0.3773 -0.4777
 2171SOL     OW 8681   2.039   1.609   0.938  0.8759 -0.2140  0.5696
 2171SOL    HW1 8682   1.946   1.587   0.951  0.9686 -2.5575 -1.9688
 2171SOL    HW2 8683   2.038   1.701   0.911 -0.9774 -0.6773 -1.2101
 2171SOL     MW 8684   2.027   1.618   0.936  0.6505 -0.5733  0.0168
 2172SOL     OW 8685   4.477   2.079   5.252  0.3355 -0.2579 -0.2485
 2172SOL    HW1 8686   4.415   2.151   5.256 -1.2842 -1.5838 -0.6304
 2172SOL    HW2 8687   4.562   2.119   5.271 -0.3951  1.8685 -1.1904
 2172SOL     MW 8688   4.480   2.093   5.255  0.0347 -0.1554 -0.4180
 2173SOL     OW 8689   4.640   2.352   0.917  0.4072 -0.0238  0.0948
 2173SOL    HW1 8690   4.583   2.428   0.913  1.7811  1.0075 -0.7944
 2173SOL    HW2 8691   4.588   2.281   0.880 -0.2892  0.9170 -0.7964
 2173SOL     MW 8692   4.626   2.353   0.911  0.4939  0.2286 -0.1331
 2174SOL     OW 8693   2.003   4.785   1.000  0.4466 -0.4730 -0.4293
 2174SOL    HW1 8694   2.001   4.742   0.914 -1.0773 -0.3833 -0.4622
 2174SOL    HW2 8695   2.007   4.713   1.062 -1.1953 -0.6549 -0.5123
 2174SOL     MW 8696   2.003   4.770   0.997  0.0413 -0.4848 -0.4442
 2175SOL     OW 8697   0.827   0.331   1.908  0.0593  0.2083  0.0703
 2175SOL    HW1 8698   0.825   0.272   1.983 -1.4184 -0.3639 -0.3712
 2175SOL    HW2 8699   0.770   0.403   1.932 -0.1120  0.2158 -0.3370
 2175SOL     MW 8700   0.819   0.333   1.920 -0.1518  0.1360 -0.0383
 2176SOL     OW 8701   3.569   2.947   3.980 -0.3171 -0.0574 -0.2133
 2176SOL    HW1 8702   3.555   3.041   3.995  0.7608  0.2244 -0.7876
 2176SOL    HW2 8703   3.567   2.908   4.067 -0.9005  0.4829  0.0211
 2176SOL     MW 8704   3.567   2.954   3.993 -0.2538  0.0478 -0.2568
 2177SOL     OW 8705   0.342   0.466   0.061 -0.3331 -0.2082 -0.0644
 2177SOL    HW1 8706   0.359   0.516   0.140  0.0252 -1.6339  0.7863
 2177SOL    HW2 8707   0.386   0.382   0.075  0.3783 -0.2251 -2.0803
 2177SOL     MW 8708   0.350   0.462   0.073 -0.1962 -0.3929 -0.2136
 2178SOL     OW 8709   2.936   3.084   4.690 -0.0985  0.0096 -0.0301
 2178SOL    HW1 8710   2.967   3.171   4.664 -1.8564  0.6256 -0.1999
 2178SOL    HW2 8711   2.941   3.084   4.786  0.6763 -0.0182 -0.0660
 2178SOL     MW 8712   2.940   3.095   4.699 -0.2244  0.0849 -0.0565
 2179SOL     OW 8713   0.923   4.229   3.012 -0.6088  0.2114  0.7499
 2179SOL    HW1 8714   0.942   4.163   2.945  0.6493  0.6313  0.6603
 2179SOL    HW2 8715   0.860   4.288   2.971  2.0182  1.9442 -1.1077
 2179SOL     MW 8716   0.918   4.228   2.999 -0.1114  0.4870  0.5006
 2180SOL     OW 8717   3.180   2.137   0.742 -0.8409 -0.2258  0.1194
 2180SOL    HW1 8718   3.263   2.099   0.714 -1.4253 -1.7268  0.3557
 2180SOL    HW2 8719   3.201   2.180   0.825 -0.4104 -1.1119  0.4866
 2180SOL     MW 8720   3.194   2.138   0.749 -0.8606 -0.5314  0.1967
 2181SOL     OW 8721   2.360   4.879   1.867  0.1455 -0.1802  0.0167
 2181SOL    HW1 8722   2.323   4.902   1.953  1.4890  0.8638  0.3602
 2181SOL    HW2 8723   2.322   4.794   1.847 -2.3606  0.7715  0.3427
 2181SOL     MW 8724   2.351   4.871   1.876 -0.0033  0.0753  0.1024
 2182SOL     OW 8725   2.002   0.540   4.255  0.0535  0.2271 -0.1002
 2182SOL    HW1 8726   1.930   0.536   4.317  0.2136 -1.8426  0.0290
 2182SOL    HW2 8727   2.020   0.634   4.245 -0.5049  0.6694  2.3423
 2182SOL     MW 8728   1.995   0.552   4.262  0.0025  0.0188  0.2290
 2183SOL     OW 8729   2.598   1.933   1.547 -0.2992 -0.2133  0.2465
 2183SOL    HW1 8730   2.682   1.978   1.539 -0.4813  0.5025  1.9842
 2183SOL    HW2 8731   2.603   1.862   1.483  1.4517  0.0741  0.0130
 2183SOL     MW 8732   2.610   1.930   1.537 -0.0984 -0.0849  0.4390
 2184SOL     OW 8733   2.532   4.044   4.850 -0.7490  0.6063  0.0343
 2184SOL    HW1 8734   2.470   4.004   4.911 -0.1407 -0.9336 -0.3104
 2184SOL    HW2 8735   2.477   4.080   4.780 -1.2698 -0.4739 -0.1220
 2184SOL     MW 8736   2.517   4.044   4.849 -0.7378  0.2709 -0.0298
 2185SOL     OW 8737   1.298   5.108   2.233 -0.0890  0.3615 -0.1248
 2185SOL    HW1 8738   1.238   5.091   2.160 -1.0948 -2.0735  1.1491
 2185SOL    HW2 8739   1.242   5.107   2.311  1.2153  1.0662  0.8717
 2185SOL     MW 8740   1.283   5.106   2.234 -0.0508  0.1400  0.1658
 2186SOL     OW 8741   4.109   1.108   2.222  0.5159 -0.3604  0.2474
 2186SOL    HW1 8742   4.055   1.186   2.211  1.2043  0.1377  0.3367
 2186SOL    HW2 8743   4.072   1.064   2.299  0.6888  0.3603  0.7541
 2186SOL     MW 8744   4.098   1.112   2.230  0.6261 -0.2044  0.3237
 2187SOL     OW 8745   5.095   3.010   4.445 -0.3877 -0.4022 -0.3139
 2187SOL    HW1 8746   5.032   2.952   4.487  0.8861 -2.1399 -0.6801
 2187SOL    HW2 8747   5.123   2.963   4.367  1.1648  0.4296 -0.3027
 2187SOL     MW 8748   5.091   2.997   4.440 -0.0259 -0.5182 -0.3593
 2188SOL     OW 8749   2.786   2.831   3.162  0.3997  0.5825 -0.4545
 2188SOL    HW1 8750   2.816   2.841   3.253 -1.1411  2.2037 -0.0523
 2188SOL    HW2 8751   2.710   2.890   3.156 -0.2461 -0.3723 -2.4794
 2188SOL     MW 8752   2.780   2.840   3.173  0.1198  0.6678 -0.6622
 2189SOL     OW 8753   2.054   0.666   0.683  0.6480  0.3006  0.2508
 2189SOL    HW1 8754   1.972   0.716   0.686  0.5696  0.1710  0.3029
 2189SOL    HW2 8755   2.113   0.711   0.743  1.0403  1.1396 -0.7347
 2189SOL     MW 8756   2.051   0.678   0.691  0.6882  0.3914  0.1313
 2190SOL     OW 8757   3.160   2.979   2.050  0.0325 -0.2064 -0.1082
 2190SOL    HW1 8758   3.146   2.961   2.143 -2.0592 -1.1827 -0.5640
 2190SOL    HW2 8759   3.171   2.893   2.010 -1.8084 -0.0046 -1.1293
 2190SOL     MW 8760   3.160   2.966   2.057 -0.4710 -0.3055 -0.2972
 2191SOL     OW 8761   1.094   0.786   2.348  0.4078  0.3506 -0.0373
 2191SOL    HW1 8762   1.041   0.864   2.363  1.0767  0.5285  1.5822
 2191SOL    HW2 8763   1.083   0.734   2.428  1.1151 -0.5355 -0.4981
 2191SOL     MW 8764   1.086   0.789   2.360  0.5839  0.2599  0.1110
 2192SOL     OW 8765   2.563   3.469   0.637  0.2358  0.2549 -0.1013
 2192SOL    HW1 8766   2.485   3.431   0.597  0.3673 -1.1467  0.8693
 2192SOL    HW2 8767   2.547   3.462   0.732  1.5630 -0.1782  0.1155
 2192SOL     MW 8768   2.551   3.463   0.644  0.4225  0.0200  0.0507
 2193SOL     OW 8769   4.899   0.324   5.153  0.4300 -0.1245 -0.0911
 2193SOL    HW1 8770   4.837   0.262   5.113  0.6968  0.0130 -0.7264
 2193SOL    HW2 8771   4.985   0.289   5.131  0.5916  0.8412 -1.0624
 2193SOL     MW 8772   4.902   0.311   5.145  0.4848  0.0167 -0.2968
 2194SOL     OW 8773   2.234   4.515   2.321 -0.0808  0.1638  0.4286
 2194SOL    HW1 8774   2.192   4.540   2.403 -4.2450 -0.2783 -1.3451
 2194SOL    HW2 8775   2.238   4.419   2.323  0.8095  0.1880  0.4916
 2194SOL     MW 8776   2.229   4.506   2.332 -0.4999  0.1103  0.2096
 2195SOL     OW 8777   1.825   4.622   4.340  0.0994 -0.3168 -0.9451
 2195SOL    HW1 8778   1.908   4.663   4.320  0.4848 -0.8116 -0.4071
 2195SOL    HW2 8779   1.811   4.640   4.433  0.2987 -1.4255 -0.6896
 2195SOL     MW 8780   1.834   4.629   4.349  0.1742 -0.5221 -0.8435
 2196SOL     OW 8781   1.366   4.586   0.024  0.5346 -0.5108 -0.4714
 2196SOL    HW1 8782   1.375   4.562   0.116  0.3561 -0.0028 -0.3189
 2196SOL    HW2 8783   1.283   4.548  -0.003  0.7569 -0.9623 -0.5189
 2196SOL     MW 8784   1.357   4.578   0.032  0.5402 -0.5036 -0.4580
 2197SOL     OW 8785   0.480   4.743   0.709  0.1697 -0.2912  0.2275
 2197SOL    HW1 8786   0.445   4.666   0.664 -2.1063  1.0534 -0.4560
 2197SOL    HW2 8787   0.571   4.719   0.730 -0.5164 -3.2292  0.2954
 2197SOL     MW 8788   0.487   4.730   0.706 -0.2095 -0.4952  0.1487
 2198SOL     OW 8789   2.302   2.221   3.967 -0.3757 -0.3371  0.1157
 2198SOL    HW1 8790   2.267   2.250   4.051  1.3445  0.6299  0.5474
 2198SOL    HW2 8791   2.368   2.156   3.990 -0.2448 -0.4386 -0.5191
 2198SOL     MW 8792   2.306   2.216   3.980 -0.1388 -0.2263  0.0897
 2199SOL     OW 8793   2.766   1.410   3.762 -0.0722  0.2033 -0.4539
 2199SOL    HW1 8794   2.716   1.458   3.696  0.0478  1.0746  0.0733
 2199SOL    HW2 8795   2.795   1.330   3.717 -1.3534 -0.0011 -0.9643
 2199SOL     MW 8796   2.763   1.406   3.748 -0.2208  0.2887 -0.4518
 2200SOL     OW 8797   1.323   0.580   0.742  0.1064 -0.0401  0.3874
 2200SOL    HW1 8798   1.317   0.641   0.668  0.2680  1.4950  1.5949
 2200SOL    HW2 8799   1.247   0.599   0.796 -0.9411 -2.2953 -0.1415
 2200SOL     MW 8800   1.312   0.590   0.739 -0.0070 -0.1323  0.4742
 2201SOL     OW 8801   2.298   1.496   5.261 -0.3589  0.1204  0.8844
 2201SOL    HW1 8802   2.261   1.486   5.174 -1.5237 -2.6865  1.5919
 2201SOL    HW2 8803   2.265   1.581   5.292  0.6790  1.5285 -1.5879
 2201SOL     MW 8804   2.289   1.506   5.254 -0.3752 -0.0587  0.6585
 2202SOL     OW 8805   1.879   3.382   2.044 -0.1132  0.3813 -0.0715
 2202SOL    HW1 8806   1.834   3.434   1.977  1.4437  0.6559 -0.9620
 2202SOL    HW2 8807   1.968   3.372   2.010 -0.0227 -1.8224  0.6618
 2202SOL     MW 8808   1.885   3.387   2.031  0.0977  0.1344 -0.0917
 2203SOL     OW 8809   1.316   4.880   1.148  0.3226  0.0573 -0.4202
 2203SOL    HW1 8810   1.221   4.886   1.140  0.3525 -0.1123 -0.9327
 2203SOL    HW2 8811   1.348   4.876   1.058  0.9108  1.4347 -0.3089
 2203SOL     MW 8812   1.308   4.880   1.135  0.4017  0.2120 -0.4715
 2204SOL     OW 8813   5.020   4.448   2.899  0.6415  0.1651 -0.3728
 2204SOL    HW1 8814   4.969   4.528   2.883  0.0840 -0.4686 -2.0147
 2204SOL    HW2 8815   5.094   4.476   2.952 -0.0447  1.5863 -0.1222
 2204SOL     MW 8816   5.023   4.462   2.904  0.4823  0.2659 -0.5509
 2205SOL     OW 8817   4.053   0.896   4.696  0.0194  0.3167  0.4305
 2205SOL    HW1 8818   4.000   0.821   4.671 -0.0996 -0.4454  2.7203
 2205SOL    HW2 8819   4.103   0.918   4.617 -0.7259 -1.4854 -0.6021
 2205SOL     MW 8820   4.053   0.889   4.683 -0.0912 -0.0116  0.5914
 2206SOL     OW 8821   0.216   4.150   3.847  0.0196  0.0655 -0.8310
 2206SOL    HW1 8822   0.235   4.166   3.755  1.0391 -0.0176 -0.6460
 2206SOL    HW2 8823   0.256   4.224   3.893 -2.3492  1.2920 -0.5968
 2206SOL     MW 8824   0.224   4.162   3.841 -0.1531  0.2118 -0.7773
 2207SOL     OW 8825   4.351   1.776   4.395  0.0097  0.3656 -0.4770
 2207SOL    HW1 8826   4.403   1.704   4.360  1.4688  2.0889 -2.1314
 2207SOL    HW2 8827   4.267   1.771   4.350 -0.1117 -0.5762 -0.1648
 2207SOL     MW 8828   4.347   1.766   4.385  0.1809  0.4656 -0.6488
 2208SOL     OW 8829   4.244   4.913   5.014  0.1421 -0.0550  0.9909
 2208SOL    HW1 8830   4.217   4.842   5.072 -1.7411  1.0063  1.4824
 2208SOL    HW2 8831   4.235   4.877   4.926  2.2619 -1.4139  1.2321
 2208SOL     MW 8832   4.240   4.899   5.011  0.1724 -0.0931  1.0847
 2209SOL     OW 8833   1.836   4.416   1.801  0.1253  0.7593 -0.1528
 2209SOL    HW1 8834   1.776   4.410   1.876  1.6587 -1.3061  0.9967
 2209SOL    HW2 8835   1.783   4.390   1.726 -0.8906  0.7813  0.5347
 2209SOL     MW 8836   1.821   4.412   1.801  0.1915  0.4978  0.0823
 2210SOL     OW 8837   1.004   3.272   1.080 -0.1880 -0.1201  0.0340
 2210SOL    HW1 8838   0.920   3.235   1.108 -0.0471 -0.4118  0.0706
 2210SOL    HW2 8839   1.050   3.294   1.161 -0.2248  0.0343  0.0140
 2210SOL     MW 8840   0.999   3.270   1.094 -0.1747 -0.1377  0.0361
 2211SOL     OW 8841   3.495   2.125   0.418  0.0583  0.1044 -0.0865
 2211SOL    HW1 8842   3.575   2.178   0.428  0.5847  0.2262 -3.5184
 2211SOL    HW2 8843   3.427   2.189   0.398  0.3210 -0.2671 -2.4738
 2211SOL     MW 8844   3.497   2.140   0.416  0.1593  0.0724 -0.8315
 2212SOL     OW 8845   3.911   3.816   1.006 -0.5860  0.3220 -0.2762
 2212SOL    HW1 8846   3.970   3.883   1.039  0.0824  0.1352 -1.0766
 2212SOL    HW2 8847   3.862   3.860   0.937 -0.6464  0.1776 -0.3245
 2212SOL     MW 8848   3.912   3.830   1.002 -0.5081  0.2796 -0.3849
 2213SOL     OW 8849   0.963   0.969   1.772 -0.3348  0.0552  0.7938
 2213SOL    HW1 8850   0.875   0.932   1.759  0.2018 -0.4851 -1.6623
 2213SOL    HW2 8851   0.959   1.056   1.733  0.5055 -0.4104 -0.3763
 2213SOL     MW 8852   0.951   0.975   1.766 -0.1585 -0.0736  0.3296
 2214SOL     OW 8853   3.151   0.943   4.327  0.2126  0.1128 -0.1977
 2214SOL    HW1 8854   3.175   0.918   4.237  0.7640  0.2213 -0.0896
 2214SOL    HW2 8855   3.135   0.860   4.372  0.5121  0.0266 -0.2458
 2214SOL     MW 8856   3.152   0.929   4.321  0.3215  0.1157 -0.1900
 2215SOL     OW 8857   0.644   5.226   3.664  0.4612  0.0790  0.5069
 2215SOL    HW1 8858   0.577   5.188   3.607  1.6206  0.2804 -1.0524
 2215SOL    HW2 8859   0.702   5.273   3.604  1.6720  0.4018  1.8875
 2215SOL     MW 8860   0.643   5.227   3.649  0.7646  0.1461  0.4840
 2216SOL     OW 8861   3.930   5.489   4.136 -0.2516  0.4617 -0.0604
 2216SOL    HW1 8862   3.837   5.473   4.152 -0.7038  0.4683 -2.3688
 2216SOL    HW2 8863   3.974   5.411   4.168 -1.2802 -0.4450 -0.7733
 2216SOL     MW 8864   3.924   5.477   4.142 -0.4412  0.3464 -0.4472
 2217SOL     OW 8865   2.711   2.425   0.089  0.1209  0.2494  0.0663
 2217SOL    HW1 8866   2.623   2.429   0.050  0.0667  3.7824  0.2057
 2217SOL    HW2 8867   2.698   2.383   0.174 -1.2486 -0.2428 -0.3627
 2217SOL     MW 8868   2.698   2.420   0.095 -0.0613  0.6387  0.0293
 2218SOL     OW 8869   4.197   0.211   0.560 -0.0812 -0.1663  0.4097
 2218SOL    HW1 8870   4.275   0.155   0.563  0.6524  0.8576  2.2685
 2218SOL    HW2 8871   4.166   0.213   0.651 -0.6133  1.6638  0.2205
 2218SOL     MW 8872   4.203   0.204   0.572 -0.0554  0.1991  0.6234
 2219SOL     OW 8873   2.361   3.342   1.297 -1.0830  0.1240 -0.4020
 2219SOL    HW1 8874   2.453   3.356   1.276 -1.1585 -2.3651 -3.0466
 2219SOL    HW2 8875   2.314   3.392   1.229 -1.5064 -1.8963 -1.6941
 2219SOL     MW 8876   2.366   3.350   1.285 -1.1469 -0.4533 -0.9059
 2220SOL     OW 8877   2.731   4.334   0.818  0.0308 -0.0616 -0.1658
 2220SOL    HW1 8878   2.662   4.370   0.874 -0.4867 -0.4382 -0.5511
 2220SOL    HW2 8879   2.812   4.360   0.861 -0.3556 -0.2879  0.7247
 2220SOL     MW 8880   2.732   4.342   0.830 -0.0849 -0.1387 -0.1011
 2221SOL     OW 8881   1.977   5.410   4.922 -0.3183 -0.6186 -0.1764
 2221SOL    HW1 8882   1.922   5.440   4.994  0.7501 -1.5469  1.0802
 2221SOL    HW2 8883   1.976   5.482   4.859 -2.9749 -0.6277 -0.2446
 2221SOL     MW 8884   1.970   5.423   4.924 -0.5216 -0.7386 -0.0243
 2222SOL     OW 8885   3.452   0.164   3.601 -0.1460 -0.3835  0.2197
 2222SOL    HW1 8886   3.408   0.229   3.656  0.3193  0.3764 -0.2811
 2222SOL    HW2 8887   3.465   0.209   3.517 -1.0043 -1.5711 -0.5924
 2222SOL     MW 8888   3.448   0.178   3.597 -0.1963 -0.4382  0.0516
 2223SOL     OW 8889   1.760   3.952   4.125  0.2025 -0.4643 -0.4032
 2223SOL    HW1 8890   1.746   3.873   4.177  1.2475 -0.8212 -0.6260
 2223SOL    HW2 8891   1.702   4.018   4.164  1.7829 -0.3637  2.0276
 2223SOL     MW 8892   1.751   3.951   4.137  0.5386 -0.4971 -0.1206
 2224SOL     OW 8893   0.282   4.972   4.709  0.2805 -0.0614  0.3372
 2224SOL    HW1 8894   0.305   4.881   4.730 -1.7463 -0.6993  0.0284
 2224SOL    HW2 8895   0.187   4.977   4.724  0.2859  1.9176  0.0022
 2224SOL     MW 8896   0.273   4.961   4.713  0.0218  0.1103  0.2548
 2225SOL     OW 8897   0.129   2.297   1.243 -0.2389 -0.5290 -0.2009
 2225SOL    HW1 8898   0.204   2.238   1.257 -0.4852 -0.5307  1.3488
 2225SOL    HW2 8899   0.053   2.238   1.240 -0.2191 -0.5016 -1.4553
 2225SOL     MW 8900   0.129   2.282   1.245 -0.2679 -0.5257 -0.1631
 2226SOL     OW 8901   3.886   3.944   0.093 -0.0769  0.0503 -0.0053
 2226SOL    HW1 8902   3.822   3.894   0.143  0.5944 -1.2274 -0.3767
 2226SOL    HW2 8903   3.920   3.882   0.028  2.1786  0.4140  0.7526
 2226SOL     MW 8904   3.882   3.930   0.091  0.2978 -0.0667  0.0442
 2227SOL     OW 8905   4.830   4.014   3.008 -0.2048 -0.1206  0.3348
 2227SOL    HW1 8906   4.738   4.004   2.983  0.0941 -3.1094  0.0043
 2227SOL    HW2 8907   4.860   4.092   2.962 -1.9852 -0.4061 -1.4272
 2227SOL     MW 8908   4.822   4.023   2.999 -0.3944 -0.5397  0.0669
 2228SOL     OW 8909   4.315   4.035   0.321  0.3964  0.3572  0.0595
 2228SOL    HW1 8910   4.400   4.073   0.299  0.7376  0.3433  1.2931
 2228SOL    HW2 8911   4.270   4.026   0.236  1.6913  0.1606 -0.6335
 2228SOL     MW 8912   4.320   4.039   0.307  0.6058  0.3303  0.1287
 2229SOL     OW 8913   3.913   2.208   4.315 -0.2311 -0.6006  0.3600
 2229SOL    HW1 8914   3.863   2.289   4.308 -1.0565 -1.0976  0.3752
 2229SOL    HW2 8915   3.937   2.202   4.407  0.6601  0.1103  0.1748
 2229SOL     MW 8916   3.909   2.217   4.326 -0.2227 -0.5732  0.3382
 2230SOL     OW 8917   5.087   2.139   0.317  0.0829  0.1296 -0.3153
 2230SOL    HW1 8918   5.107   2.201   0.247 -0.5315  1.0760  0.3247
 2230SOL    HW2 8919   5.003   2.101   0.292 -0.6142  1.1748  0.3541
 2230SOL     MW 8920   5.079   2.142   0.305 -0.0850  0.3845 -0.1477
 2231SOL     OW 8921   3.231   4.189   2.908 -0.0671 -0.2219 -0.0682
 2231SOL    HW1 8922   3.284   4.139   2.970 -0.4978  0.0117  0.4934
 2231SOL    HW2 8923   3.235   4.279   2.940 -1.2820 -0.2891  0.3316
 2231SOL     MW 8924   3.238   4.194   2.920 -0.2778 -0.2006  0.0548
 2232SOL     OW 8925   3.371   1.972   3.842 -0.1710  0.2214  0.4120
 2232SOL    HW1 8926   3.343   1.980   3.933 -0.2418  0.9040  0.3351
 2232SOL    HW2 8927   3.345   2.055   3.801  0.7092  0.3089  0.0035
 2232SOL     MW 8928   3.364   1.984   3.848 -0.0674  0.3200  0.3499
 2233SOL     OW 8929   3.992   1.971   3.920  0.2580  0.1638 -0.0332
 2233SOL    HW1 8930   4.051   1.945   3.992 -1.9079 -0.4524  1.6379
 2233SOL    HW2 8931   3.959   2.056   3.946 -0.1144  0.1951 -0.6064
 2233SOL     MW 8932   3.996   1.978   3.933 -0.0669  0.0890  0.1074
 2234SOL     OW 8933   3.508   2.131   4.149  0.0486 -0.0616 -0.3545
 2234SOL    HW1 8934   3.454   2.197   4.106  0.6209 -0.9683 -2.5521
 2234SOL    HW2 8935   3.445   2.076   4.196 -0.5767  1.0110  0.0944
 2234SOL     MW 8936   3.493   2.132   4.150  0.0418 -0.0404 -0.5784
 2235SOL     OW 8937   0.425   4.422   4.388  0.5732  0.0994  0.4876
 2235SOL    HW1 8938   0.379   4.373   4.456  0.7985 -0.6668  0.0957
 2235SOL    HW2 8939   0.367   4.418   4.312  1.0796 -0.5106  0.1197
 2235SOL     MW 8940   0.412   4.415   4.387  0.6668 -0.0768  0.3903
 2236SOL     OW 8941   4.852   1.704   4.086 -0.5257 -0.0734  0.3953
 2236SOL    HW1 8942   4.916   1.775   4.087 -0.0314 -0.4522 -1.1869
 2236SOL    HW2 8943   4.812   1.709   3.999 -0.3155 -1.8359  0.1539
 2236SOL     MW 8944   4.855   1.714   4.075 -0.4355 -0.3475  0.1618
 2237SOL     OW 8945   5.006   1.082   1.164 -0.0544  0.3988 -0.4172
 2237SOL    HW1 8946   5.022   1.011   1.226 -0.3678 -0.7246 -1.5620
 2237SOL    HW2 8947   5.086   1.085   1.111  0.5586  1.9139  0.5287
 2237SOL     MW 8948   5.018   1.073   1.165 -0.0160  0.4490 -0.4427
 2238SOL     OW 8949   1.594   4.015   3.284 -0.9458  0.3767  0.6664
 2238SOL    HW1 8950   1.664   4.015   3.219  0.1778 -0.2348  1.8249
 2238SOL    HW2 8951   1.524   3.963   3.246 -0.5839  0.5906 -0.3119
 2238SOL     MW 8952   1.594   4.009   3.271 -0.7557  0.3258  0.6895
 2239SOL     OW 8953   4.150   0.192   1.913  0.5176 -0.4978  0.2285
 2239SOL    HW1 8954   4.143   0.273   1.963  0.6383 -0.1957 -0.2370
 2239SOL    HW2 8955   4.059   0.165   1.896  0.4762 -0.6835  0.7347
 2239SOL     MW 8956   4.137   0.199   1.917  0.5277 -0.4829  0.2337
 2240SOL     OW 8957   3.719   1.123   2.567 -0.1826  0.1753  0.0206
 2240SOL    HW1 8958   3.689   1.034   2.550  0.3710 -0.4019  1.7487
 2240SOL    HW2 8959   3.652   1.180   2.530 -2.4386 -1.0158  2.0320
 2240SOL     MW 8960   3.707   1.119   2.560 -0.4006 -0.0511  0.4993
 2241SOL     OW 8961   2.868   4.410   2.213 -0.6908 -0.1897 -0.0665
 2241SOL    HW1 8962   2.926   4.403   2.137 -0.0530 -0.3071  0.4213
 2241SOL    HW2 8963   2.828   4.323   2.220 -1.6107  0.1443 -0.9252
 2241SOL     MW 8964   2.870   4.398   2.204 -0.7269 -0.1619 -0.1139
 2242SOL     OW 8965   1.322   2.730   1.524  0.0516  0.1323 -0.3451
 2242SOL    HW1 8966   1.256   2.786   1.564 -0.3291 -0.3786 -0.2638
 2242SOL    HW2 8967   1.387   2.717   1.592 -0.3844 -0.3883 -0.0282
 2242SOL     MW 8968   1.322   2.736   1.538 -0.0529  0.0003 -0.2942
 2243SOL     OW 8969   3.480   1.741   4.695 -0.0000  0.2681  0.5107
 2243SOL    HW1 8970   3.504   1.828   4.662  0.8013 -0.3687 -0.6865
 2243SOL    HW2 8971   3.564   1.699   4.716 -0.2003 -0.9230 -0.8637
 2243SOL     MW 8972   3.494   1.747   4.693  0.0769  0.0341  0.1815
 2244SOL     OW 8973   3.192   3.313   4.280  0.0930  0.1365 -0.2807
 2244SOL    HW1 8974   3.113   3.343   4.236  0.6057  0.5375 -0.9522
 2244SOL    HW2 8975   3.223   3.390   4.328  1.1672  0.5913 -1.6468
 2244SOL     MW 8976   3.186   3.326   4.281  0.2961  0.2461 -0.5415
 2245SOL     OW 8977   1.294   1.927   2.471  0.3609  0.1364  0.4512
 2245SOL    HW1 8978   1.255   1.962   2.551 -0.1596 -1.3974  0.8956
 2245SOL    HW2 8979   1.279   1.833   2.475  0.4760 -0.0060 -1.3796
 2245SOL     MW 8980   1.287   1.920   2.482  0.3090 -0.0782  0.2737
 2246SOL     OW 8981   4.032   4.359   1.335 -0.3590  0.4756 -0.6876
 2246SOL    HW1 8982   3.954   4.326   1.291  0.1203  0.0333 -1.2267
 2246SOL    HW2 8983   3.998   4.412   1.407 -1.1998 -2.0834  0.9373
 2246SOL     MW 8984   4.018   4.361   1.338 -0.4053  0.0914 -0.5486
 2247SOL     OW 8985   1.411   2.812   5.272 -0.6694 -0.2684  0.0049
 2247SOL    HW1 8986   1.349   2.807   5.199 -0.6268 -1.0508  0.0083
 2247SOL    HW2 8987   1.394   2.897   5.313  1.4727  1.6594 -2.7907
 2247SOL     MW 8988   1.401   2.822   5.268 -0.3897 -0.1218 -0.3526
 2248SOL     OW 8989   2.499   2.600   2.613  0.1941 -0.0313 -0.2093
 2248SOL    HW1 8990   2.524   2.508   2.621 -0.2353 -0.1190  0.1115
 2248SOL    HW2 8991   2.464   2.623   2.699 -1.0724  0.0233 -0.7241
 2248SOL     MW 8992   2.498   2.591   2.625 -0.0230 -0.0356 -0.2342
 2249SOL     OW 8993   4.896   0.099   4.591 -0.3514  0.3785 -0.2778
 2249SOL    HW1 8994   4.807   0.099   4.625  0.5742  0.6911  2.4551
 2249SOL    HW2 8995   4.909   0.187   4.555 -0.9475  0.5365 -0.1027
 2249SOL     MW 8996   4.886   0.110   4.591 -0.3092  0.4387  0.0945
 2250SOL     OW 8997   0.023   2.501   1.406 -0.4198  0.5864 -0.0323
 2250SOL    HW1 8998   0.043   2.436   1.339 -1.7639 -0.4483  0.5271
 2250SOL    HW2 8999  -0.022   2.572   1.359 -0.8577  0.1267 -0.3118
 2250SOL     MW 9000   0.020   2.502   1.391 -0.6479  0.3951  0.0035
 2251SOL     OW 9001   4.492   3.807   4.859  0.2144 -0.2586  0.4135
 2251SOL    HW1 9002   4.536   3.859   4.927 -1.4543  0.1923  1.2042
 2251SOL    HW2 9003   4.536   3.832   4.778 -0.9690  3.0381  0.6430
 2251SOL     MW 9004   4.503   3.817   4.858 -0.1507  0.2211  0.5441
 2252SOL     OW 9005   3.700   0.306   2.632  0.2192 -0.2697 -0.8336
 2252SOL    HW1 9006   3.678   0.369   2.700 -2.8429  0.3023 -2.1838
 2252SOL    HW2 9007   3.616   0.270   2.604  1.4108 -1.2864 -3.5109
 2252SOL     MW 9008   3.686   0.310   2.637 -0.0202 -0.3267 -1.3492
 2253SOL     OW 9009   3.369   3.043   0.126 -0.2330  0.1237  0.0641
 2253SOL    HW1 9010   3.438   3.034   0.192 -0.4814  0.2107  0.3395
 2253SOL    HW2 9011   3.343   2.952   0.107 -0.1205  0.0959  0.0412
 2253SOL     MW 9012   3.375   3.030   0.132 -0.2504  0.1313  0.0965
 2254SOL     OW 9013   2.173   3.147   1.019 -0.7434  0.4126 -0.2856
 2254SOL    HW1 9014   2.255   3.135   0.971 -0.0722  0.5872  0.8019
 2254SOL    HW2 9015   2.192   3.119   1.108 -1.9042  0.3557 -0.0349
 2254SOL     MW 9016   2.186   3.142   1.024 -0.8061  0.4276 -0.1143
 2255SOL     OW 9017   1.711   3.108   3.808  0.0322 -0.0750  0.3322
 2255SOL    HW1 9018   1.726   3.190   3.856  0.4750 -0.1945  0.4044
 2255SOL    HW2 9019   1.655   3.056   3.866 -1.1105  0.5724 -0.1486
 2255SOL     MW 9020   1.706   3.112   3.821 -0.0574 -0.0074  0.2799
 2256SOL     OW 9021   1.094   3.511   4.442  0.1913 -0.1285  0.5075
 2256SOL    HW1 9022   1.127   3.436   4.491 -1.3772 -2.2742 -1.4549
 2256SOL    HW2 9023   1.155   3.582   4.463  3.0016 -2.4426  0.9657
 2256SOL     MW 9024   1.106   3.511   4.451  0.3503 -0.6994  0.3150
 2257SOL     OW 9025   3.320   1.601   3.377 -0.4524  0.5077 -0.3409
 2257SOL    HW1 9026   3.407   1.617   3.341 -0.1452  1.5083  0.7595
 2257SOL    HW2 9027   3.335   1.585   3.470 -1.3733 -0.2419 -0.3039
 2257SOL     MW 9028   3.333   1.601   3.385 -0.5310  0.5398 -0.1953
 2258SOL     OW 9029   2.920   4.219   1.044  0.3585 -0.2071  0.1792
 2258SOL    HW1 9030   2.831   4.184   1.042 -0.5079  1.7852  1.1606
 2258SOL    HW2 9031   2.946   4.214   1.136  0.5374  0.8363  0.2039
 2258SOL     MW 9032   2.912   4.214   1.056  0.2705  0.1815  0.3080
 2259SOL     OW 9033   3.124   4.406   4.848  0.5937 -0.3671  0.1627
 2259SOL    HW1 9034   3.095   4.459   4.922  1.4963 -0.2129  0.4239
 2259SOL    HW2 9035   3.182   4.464   4.798  0.0679 -0.5012 -0.6154
 2259SOL     MW 9036   3.128   4.420   4.851  0.6419 -0.3645  0.0965
 2260SOL     OW 9037   3.311   3.447   3.149  0.3040 -1.1086  0.4228
 2260SOL    HW1 9038   3.324   3.529   3.197 -1.7706  0.2652 -1.1787
 2260SOL    HW2 9039   3.329   3.378   3.214 -1.9520  0.5948  3.1316
 2260SOL     MW 9040   3.315   3.449   3.164 -0.2504 -0.7147  0.5645
 2261SOL     OW 9041   5.096   0.090   5.115 -0.1151 -0.1476  0.4807
 2261SOL    HW1 9042   5.158   0.088   5.188 -1.8589 -0.6908  2.0347
 2261SOL    HW2 9043   5.098   0.002   5.079  0.0743 -0.1361  0.4618
 2261SOL     MW 9044   5.104   0.079   5.120 -0.3141 -0.2157  0.6773
 2262SOL     OW 9045   1.925   3.702   0.346  0.2307 -0.5380  0.1373
 2262SOL    HW1 9046   2.001   3.704   0.288 -0.2699  0.7759 -0.5155
 2262SOL    HW2 9047   1.861   3.650   0.300  0.2157 -0.4012  0.0029
 2262SOL     MW 9048   1.927   3.696   0.333  0.1647 -0.3523  0.0365
 2263SOL     OW 9049   2.369   2.483   3.035 -0.0390  0.2107  0.3987
 2263SOL    HW1 9050   2.433   2.540   2.991 -0.5313 -0.3418 -1.0945
 2263SOL    HW2 9051   2.304   2.544   3.072  0.4742  0.6949  0.5231
 2263SOL     MW 9052   2.369   2.498   3.034 -0.0363  0.2019  0.2235
 2264SOL     OW 9053   3.650   1.490   4.361  0.3179  0.0636  0.0122
 2264SOL    HW1 9054   3.702   1.425   4.313 -2.5977 -1.9221 -0.7673
 2264SOL    HW2 9055   3.650   1.459   4.451  0.8677  0.3735  0.1254
 2264SOL     MW 9056   3.657   1.477   4.366  0.0151 -0.1509 -0.0731
 2265SOL     OW 9057   3.895   0.883   3.370  0.2538  0.2352  0.2102
 2265SOL    HW1 9058   3.898   0.811   3.307  2.4157 -0.7813  1.3859
 2265SOL    HW2 9059   3.806   0.918   3.361  0.4869  0.2738 -3.4836
 2265SOL     MW 9060   3.884   0.878   3.361  0.5604  0.1100 -0.1121
 2266SOL     OW 9061   0.586   2.942   2.731 -0.2540 -0.1215 -0.3174
 2266SOL    HW1 9062   0.633   3.018   2.696 -1.0799  0.4647 -0.2070
 2266SOL    HW2 9063   0.629   2.923   2.814 -0.5904  0.8103  0.0935
 2266SOL     MW 9064   0.597   2.949   2.737 -0.4028  0.0728 -0.2506
 2267SOL     OW 9065   0.257   0.614   3.818  0.4210 -0.0245 -0.0861
 2267SOL    HW1 9066   0.338   0.566   3.833 -0.3916 -1.3705  0.1251
 2267SOL    HW2 9067   0.282   0.706   3.825  1.3905 -0.4210  2.9124
 2267SOL     MW 9068   0.270   0.620   3.820  0.4411 -0.2475  0.3248
 2268SOL     OW 9069   2.381   3.475   5.109  0.0306  0.2759  0.9145
 2268SOL    HW1 9070   2.450   3.431   5.158 -1.0745  0.6430  2.8878
 2268SOL    HW2 9071   2.339   3.405   5.059  0.3398 -0.3517  1.5165
 2268SOL     MW 9072   2.384   3.460   5.109 -0.0713  0.2426  1.2442
 2269SOL     OW 9073   1.873   3.410   4.459  0.0444  0.7067 -0.2938
 2269SOL    HW1 9074   1.813   3.342   4.489 -0.6503  0.7772 -1.4515
 2269SOL    HW2 9075   1.953   3.395   4.509 -0.5652 -0.0816  0.4829
 2269SOL     MW 9076   1.876   3.399   4.469 -0.1226  0.6148 -0.3426
 2270SOL     OW 9077   3.595   1.702   0.527 -0.2113  0.3153 -0.3435
 2270SOL    HW1 9078   3.605   1.779   0.583 -0.8255 -1.5646  2.5313
 2270SOL    HW2 9079   3.501   1.697   0.509  0.0654  1.4495 -2.5522
 2270SOL     MW 9080   3.584   1.711   0.532 -0.2545  0.2198 -0.2582
 2271SOL     OW 9081   1.175   4.184   0.784 -0.0483 -0.0344  0.1730
 2271SOL    HW1 9082   1.215   4.106   0.824 -0.6458 -0.3818  0.1084
 2271SOL    HW2 9083   1.097   4.200   0.836 -1.2572 -0.9520 -1.2836
 2271SOL     MW 9084   1.170   4.176   0.796 -0.2795 -0.1964 -0.0217
 2272SOL     OW 9085   2.463   2.131   2.142 -0.1390 -0.8004  0.3584
 2272SOL    HW1 9086   2.553   2.100   2.128  0.0447  0.3522 -1.2743
 2272SOL    HW2 9087   2.408   2.061   2.107  0.1678 -0.7518 -0.2216
 2272SOL     MW 9088   2.468   2.118   2.136 -0.0762 -0.6466  0.0752
 2273SOL     OW 9089   0.669   2.027   3.721 -0.3099 -0.3029 -0.0914
 2273SOL    HW1 9090   0.757   1.990   3.712  0.2697  1.4444 -4.0561
 2273SOL    HW2 9091   0.683   2.122   3.717 -2.3117  0.0292 -0.3908
 2273SOL     MW 9092   0.682   2.035   3.719 -0.4919 -0.0367 -0.6373
 2274SOL     OW 9093   3.639   1.028   0.123 -0.2975 -0.2065 -0.0683
 2274SOL    HW1 9094   3.692   1.075   0.058 -0.7950  1.8202  0.8960
 2274SOL    HW2 9095   3.551   1.064   0.111 -0.3901  0.2215  1.7219
 2274SOL     MW 9096   3.634   1.039   0.113 -0.3731  0.1078  0.2843
 2275SOL     OW 9097   0.957   1.011   4.079 -0.2783 -0.2059 -0.0973
 2275SOL    HW1 9098   0.989   1.078   4.140 -1.5434 -0.8376  1.3426
 2275SOL    HW2 9099   1.035   0.962   4.055  0.7607  1.9558 -1.5123
 2275SOL     MW 9100   0.971   1.014   4.084 -0.3072 -0.0101 -0.0941
 2276SOL     OW 9101   1.542   2.090   1.303 -0.5250 -0.4901  0.2542
 2276SOL    HW1 9102   1.602   2.051   1.239  0.6666  0.5733  0.6911
 2276SOL    HW2 9103   1.492   2.153   1.252 -1.5422 -1.6035 -0.1788
 2276SOL     MW 9104   1.543   2.093   1.288 -0.5027 -0.4965  0.2547
 2277SOL     OW 9105   4.645   4.485   0.881 -0.1909 -0.2989 -0.4248
 2277SOL    HW1 9106   4.581   4.545   0.843  0.3453  0.1032 -0.7017
 2277SOL    HW2 9107   4.622   4.399   0.845 -0.5497 -0.1490 -0.5538
 2277SOL     MW 9108   4.634   4.481   0.871 -0.1682 -0.2283 -0.4768
 2278SOL     OW 9109   3.605   3.900   0.580  0.3959  0.1273  0.2722
 2278SOL    HW1 9110   3.657   3.924   0.504 -0.1731  0.6043  0.0289
 2278SOL    HW2 9111   3.573   3.812   0.560 -0.5013  0.5973 -0.4646
 2278SOL     MW 9112   3.608   3.892   0.568  0.2082  0.2485  0.1467
 2279SOL     OW 9113   5.128   5.170   2.429 -0.0639  0.3627 -0.4651
 2279SOL    HW1 9114   5.211   5.123   2.436  0.4167  0.8311 -2.4788
 2279SOL    HW2 9115   5.139   5.247   2.485  0.9792  0.5649 -0.9360
 2279SOL     MW 9116   5.140   5.174   2.437  0.1311  0.4485 -0.7832
 2280SOL     OW 9117   2.761   0.428   5.199  0.8520  0.2352 -0.7033
 2280SOL    HW1 9118   2.827   0.430   5.268 -1.2902  1.1405  1.4470
 2280SOL    HW2 9119   2.691   0.372   5.234 -0.8904  1.7890 -1.5004
 2280SOL     MW 9120   2.760   0.421   5.213  0.3547  0.5500 -0.5301
 2281SOL     OW 9121   1.245   2.099   3.451 -0.0517  0.2116  0.2957
 2281SOL    HW1 9122   1.209   2.029   3.505  1.6159 -1.5150 -0.7299
 2281SOL    HW2 9123   1.205   2.086   3.365  2.2048 -1.2115 -0.6247
 2281SOL     MW 9124   1.235   2.088   3.447  0.4506 -0.1916  0.0466
 2282SOL     OW 9125   1.917   0.450   5.072  0.1964 -0.5689  0.2678
 2282SOL    HW1 9126   1.965   0.368   5.083  0.8115 -0.0681  1.5468
 2282SOL    HW2 9127   1.868   0.439   4.991  2.4255 -1.1249 -1.0879
 2282SOL     MW 9128   1.917   0.438   5.063  0.5605 -0.5760  0.2580
 2283SOL     OW 9129   2.246   3.076   0.702 -0.2208  0.6894  0.6889
 2283SOL    HW1 9130   2.251   2.988   0.666 -0.5627 -0.0330  2.3093
 2283SOL    HW2 9131   2.192   3.125   0.640  1.0374  0.1301 -0.8939
 2283SOL     MW 9132   2.239   3.071   0.690 -0.1035  0.5254  0.6937
 2284SOL     OW 9133   3.805   1.161   3.006 -0.1058 -0.2676  0.2996
 2284SOL    HW1 9134   3.818   1.230   2.941  0.1707 -0.9360 -0.3655
 2284SOL    HW2 9135   3.748   1.098   2.962  0.5381 -0.9937  0.4996
 2284SOL     MW 9136   3.799   1.162   2.992  0.0120 -0.4461  0.2400
 2285SOL     OW 9137   2.636   1.932   0.835 -0.3300  0.3485  0.1119
 2285SOL    HW1 9138   2.637   1.968   0.924 -2.5250  2.1752 -0.5039
 2285SOL    HW2 9139   2.605   1.842   0.847  1.0274 -0.0077  1.3021
 2285SOL     MW 9140   2.632   1.925   0.848 -0.4372  0.5368  0.1854
 2286SOL     OW 9141   0.853   2.202   0.208  0.2537  0.0850 -0.1232
 2286SOL    HW1 9142   0.826   2.207   0.117  0.3089  1.1461 -0.0924
 2286SOL    HW2 9143   0.855   2.108   0.228  0.1211 -0.1450 -1.1686
 2286SOL     MW 9144   0.850   2.190   0.199  0.2438  0.1914 -0.2530
 2287SOL     OW 9145   0.643   3.034   5.351 -0.5063  0.7457  0.3636
 2287SOL    HW1 9146   0.585   3.085   5.294 -0.1540  0.3150 -0.3853
 2287SOL    HW2 9147   0.709   3.097   5.381 -0.9194  1.0617  0.6164
 2287SOL     MW 9148   0.644   3.049   5.348 -0.5141  0.7310  0.3001
 2288SOL     OW 9149   2.208   3.420   1.074 -0.1643  0.0457  0.2578
 2288SOL    HW1 9150   2.122   3.434   1.112 -0.4431  0.2083 -0.4062
 2288SOL    HW2 9151   2.205   3.331   1.039  0.2259 -0.2496  0.9532
 2288SOL     MW 9152   2.197   3.410   1.074 -0.1500  0.0287  0.2618
 2289SOL     OW 9153   0.438   1.124   3.410 -0.7068  0.0757 -0.2623
 2289SOL    HW1 9154   0.353   1.112   3.451 -0.5800 -1.2719 -0.3416
 2289SOL    HW2 9155   0.419   1.156   3.322 -1.1714 -0.7844 -0.4827
 2289SOL     MW 9156   0.425   1.126   3.404 -0.7501 -0.2069 -0.3007
 2290SOL     OW 9157   3.459   1.142   3.859  0.3791 -0.1735  0.0137
 2290SOL    HW1 9158   3.503   1.062   3.833 -0.6095 -0.6858 -0.1618
 2290SOL    HW2 9159   3.379   1.143   3.807 -0.8575 -0.3780  1.7883
 2290SOL     MW 9160   3.454   1.132   3.849  0.0943 -0.2653  0.2184
 2291SOL     OW 9161   0.799   4.543   5.163  0.3559  0.1161  0.2885
 2291SOL    HW1 9162   0.865   4.479   5.138  1.3121  1.3645 -0.5231
 2291SOL    HW2 9163   0.723   4.521   5.109  0.7069 -0.2966 -0.0432
 2291SOL     MW 9164   0.798   4.532   5.153  0.5232  0.2231  0.1421
 2292SOL     OW 9165   3.271   5.212   4.330  0.3722 -0.1878  0.4630
 2292SOL    HW1 9166   3.339   5.165   4.282  0.8774  0.3458  0.6461
 2292SOL    HW2 9167   3.201   5.148   4.341  0.4610 -0.4724 -0.5326
 2292SOL     MW 9168   3.271   5.198   4.325  0.4483 -0.1559  0.3590
 2293SOL     OW 9169   3.982   5.161   0.676  0.1142  0.1212  0.2445
 2293SOL    HW1 9170   3.980   5.257   0.685 -1.1282  0.1052  0.3128
 2293SOL    HW2 9171   3.906   5.131   0.726  0.8717 -0.9628  0.7824
 2293SOL     MW 9172   3.972   5.170   0.684  0.0521 -0.0196  0.3221
 2294SOL     OW 9173   0.732   2.267   1.651  0.8190 -0.0670 -0.2400
 2294SOL    HW1 9174   0.738   2.355   1.614 -0.4699  1.0107  1.9318
 2294SOL    HW2 9175   0.685   2.278   1.733 -0.8454 -3.0272 -0.6291
 2294SOL     MW 9176   0.727   2.279   1.657  0.4409 -0.3080 -0.0118
 2295SOL     OW 9177   3.167   1.242   2.684  0.0808  0.5411  0.4302
 2295SOL    HW1 9178   3.185   1.319   2.630 -1.1568  0.9935  0.6336
 2295SOL    HW2 9179   3.210   1.261   2.767  1.2708  0.2139 -0.0816
 2295SOL     MW 9180   3.175   1.254   2.688  0.0747  0.5571  0.3907
 2296SOL     OW 9181   4.525   4.160   0.221  0.6293  0.0870  0.7113
 2296SOL    HW1 9182   4.494   4.190   0.136  0.8409  2.3203  1.3599
 2296SOL    HW2 9183   4.574   4.080   0.202 -0.8790 -0.4979 -1.0021
 2296SOL     MW 9184   4.527   4.153   0.208  0.4633  0.2980  0.5750
 2297SOL     OW 9185   4.456   2.180   1.207 -0.1231  0.2458 -0.2327
 2297SOL    HW1 9186   4.403   2.156   1.131 -0.2405 -3.1002  0.7849
 2297SOL    HW2 9187   4.415   2.136   1.281  1.9614  0.5902  1.2353
 2297SOL     MW 9188   4.444   2.172   1.207  0.1287 -0.1384  0.0855
 2298SOL     OW 9189   3.080   3.845   0.988 -0.0365  0.0562  0.0817
 2298SOL    HW1 9190   3.114   3.839   1.077 -0.1975 -0.2397  0.1238
 2298SOL    HW2 9191   3.109   3.764   0.945  1.7445  1.0639 -0.7368
 2298SOL     MW 9192   3.088   3.834   0.994  0.1709  0.1473 -0.0177
 2299SOL     OW 9193   0.395   1.212   0.713  0.2024 -0.0929  0.0163
 2299SOL    HW1 9194   0.408   1.117   0.711  1.3808  0.0731 -1.7626
 2299SOL    HW2 9195   0.380   1.237   0.622  1.1094  1.5839  0.2829
 2299SOL     MW 9196   0.395   1.203   0.701  0.4694  0.1430 -0.1773
 2300SOL     OW 9197   0.588   3.593   1.640 -0.3653  0.1292  0.0339
 2300SOL    HW1 9198   0.495   3.597   1.621 -0.4300  0.7698  0.4723
 2300SOL    HW2 9199   0.623   3.675   1.606  0.0266 -0.0636 -0.0379
 2300SOL     MW 9200   0.581   3.604   1.633 -0.3235  0.1865  0.0809
 2301SOL     OW 9201   2.358   0.087   2.422 -0.5180  0.3596  0.2807
 2301SOL    HW1 9202   2.376  -0.003   2.394 -0.1749  0.6687 -0.4988
 2301SOL    HW2 9203   2.262   0.093   2.418 -0.4611  0.6550 -1.7143
 2301SOL     MW 9204   2.348   0.076   2.418 -0.4668  0.4370 -0.0745
 2302SOL     OW 9205   0.725   3.337   5.151 -0.6526  0.3625 -0.3365
 2302SOL    HW1 9206   0.684   3.308   5.069  0.1413  1.0027 -0.9793
 2302SOL    HW2 9207   0.783   3.408   5.124 -0.6489  0.8149  0.8433
 2302SOL     MW 9208   0.727   3.342   5.137 -0.5505  0.5024 -0.2678
 2303SOL     OW 9209   1.894   5.083   1.508  0.2662  0.6650  0.1239
 2303SOL    HW1 9210   1.943   5.034   1.575 -0.4276 -0.2410 -0.0038
 2303SOL    HW2 9211   1.892   5.173   1.541  2.4385  0.8371 -0.1321
 2303SOL     MW 9212   1.900   5.088   1.521  0.4555  0.5710  0.0748
 2304SOL     OW 9213   1.525   1.451   1.602 -0.1534 -0.3957 -0.2057
 2304SOL    HW1 9214   1.468   1.442   1.525 -1.4434 -0.6470  0.7452
 2304SOL    HW2 9215   1.572   1.533   1.588 -0.1557 -0.5801 -1.3962
 2304SOL     MW 9216   1.524   1.460   1.590 -0.3189 -0.4514 -0.2364
 2305SOL     OW 9217   0.928   1.295   2.039 -0.0219  0.1406  0.2461
 2305SOL    HW1 9218   1.019   1.308   2.012 -0.3343  0.7391 -0.5425
 2305SOL    HW2 9219   0.887   1.381   2.028 -0.6899 -0.1250  0.5911
 2305SOL     MW 9220   0.934   1.308   2.034 -0.1474  0.1832  0.1893
 2306SOL     OW 9221   5.208   0.222   2.707 -0.0758 -0.1564 -0.2774
 2306SOL    HW1 9222   5.286   0.243   2.759 -0.3277 -0.3001  0.1614
 2306SOL    HW2 9223   5.152   0.172   2.766  0.4724 -2.0669 -1.2853
 2306SOL     MW 9224   5.211   0.219   2.721 -0.0379 -0.4194 -0.3503
 2307SOL     OW 9225   2.301   0.424   1.332 -0.3649 -0.4195 -0.3884
 2307SOL    HW1 9226   2.358   0.374   1.390  0.9662  2.4528  0.9297
 2307SOL    HW2 9227   2.330   0.514   1.341 -1.9875  0.5319 -3.4274
 2307SOL     MW 9228   2.312   0.429   1.341 -0.4023  0.0700 -0.6087
 2308SOL     OW 9229   0.160   1.060   5.083  0.0208  0.1912 -0.1007
 2308SOL    HW1 9230   0.187   1.128   5.145  1.4887 -0.0958 -0.3677
 2308SOL    HW2 9231   0.140   1.108   5.002  0.7038  0.3517 -0.1815
 2308SOL     MW 9232   0.161   1.075   5.081  0.2962  0.1750 -0.1452
 2309SOL     OW 9233   2.614   3.091   1.211  0.2394 -0.3006 -0.4590
 2309SOL    HW1 9234   2.541   3.085   1.273  2.2819  0.4534  2.1931
 2309SOL    HW2 9235   2.668   3.014   1.229  0.6233 -0.3723 -1.7565
 2309SOL     MW 9236   2.612   3.080   1.221  0.5500 -0.2133 -0.2856
 2310SOL     OW 9237   2.199   3.101   1.281  0.0305  0.1722 -0.2455
 2310SOL    HW1 9238   2.259   3.175   1.281 -1.4317  1.4046 -1.0858
 2310SOL    HW2 9239   2.256   3.024   1.294  1.6175  1.3763  0.2190
 2310SOL     MW 9240   2.214   3.100   1.283  0.0465  0.4841 -0.2936
 2311SOL     OW 9241   3.739   1.959   1.362  0.3681 -0.3128 -0.2767
 2311SOL    HW1 9242   3.822   1.971   1.316 -0.4872 -0.0369 -1.8138
 2311SOL    HW2 9243   3.693   1.893   1.312 -0.0791 -0.9742  0.9710
 2311SOL     MW 9244   3.744   1.952   1.350  0.2014 -0.3621 -0.3138
 2312SOL     OW 9245   3.717   2.539   2.958  0.2512 -0.7351 -0.1102
 2312SOL    HW1 9246   3.656   2.591   2.905 -0.1316 -0.3107  0.7344
 2312SOL    HW2 9247   3.790   2.521   2.899  0.4394  0.8375 -0.3929
 2312SOL     MW 9248   3.718   2.543   2.944  0.2263 -0.4794 -0.0383
 2313SOL     OW 9249   3.434   2.210   0.904 -0.5673 -0.1576 -0.6747
 2313SOL    HW1 9250   3.438   2.295   0.946  0.0314 -0.3739 -0.2720
 2313SOL    HW2 9251   3.439   2.147   0.976  0.1012 -0.5293 -1.0326
 2313SOL     MW 9252   3.435   2.213   0.918 -0.4051 -0.2329 -0.6690
 2314SOL     OW 9253   4.424   3.952   1.840 -0.2093  0.1207  0.0934
 2314SOL    HW1 9254   4.430   4.032   1.787 -0.7707 -0.6899 -1.2324
 2314SOL    HW2 9255   4.367   3.977   1.914  1.0580  1.4273  0.6811
 2314SOL     MW 9256   4.417   3.966   1.843 -0.1190  0.1842 -0.0011
 2315SOL     OW 9257   4.346   2.389   0.655  0.2050 -0.1139 -0.1511
 2315SOL    HW1 9258   4.346   2.368   0.562  1.3084  1.2404 -0.4849
 2315SOL    HW2 9259   4.353   2.484   0.659  1.8762 -0.2473  1.2968
 2315SOL     MW 9260   4.347   2.398   0.644  0.5602  0.0424 -0.0085
 2316SOL     OW 9261   1.939   2.972   3.751 -0.2843 -0.5624 -0.1688
 2316SOL    HW1 9262   1.869   3.032   3.777  0.8947  0.8359 -0.1155
 2316SOL    HW2 9263   1.966   3.002   3.665  0.4372 -0.9238 -0.0738
 2316SOL     MW 9264   1.933   2.983   3.744 -0.0411 -0.4296 -0.1498
 2317SOL     OW 9265   1.520   0.859   5.325 -0.4295  0.5501  0.0846
 2317SOL    HW1 9266   1.435   0.898   5.347 -0.5956  0.6503 -0.7076
 2317SOL    HW2 9267   1.581   0.901   5.385 -0.9147  0.5909  0.5622
 2317SOL     MW 9268   1.517   0.870   5.335 -0.5129  0.5681  0.0443
 2318SOL     OW 9269   0.261   2.992   1.174 -0.0057 -0.1954  0.5051
 2318SOL    HW1 9270   0.171   3.016   1.196  0.0484  0.1182  0.3850
 2318SOL    HW2 9271   0.258   2.968   1.082 -0.3925 -2.2856  1.0090
 2318SOL     MW 9272   0.249   2.992   1.165 -0.0483 -0.4228  0.5542
 2319SOL     OW 9273   4.524   0.647   3.191  0.5280  0.0419 -0.0600
 2319SOL    HW1 9274   4.510   0.553   3.195  1.1041 -0.1135 -1.2686
 2319SOL    HW2 9275   4.437   0.686   3.202  0.1768 -0.6530 -0.3701
 2319SOL     MW 9276   4.511   0.640   3.193  0.5568 -0.0670 -0.2544
 2320SOL     OW 9277   1.904   4.336   0.435 -0.4078  0.4126  0.4131
 2320SOL    HW1 9278   1.873   4.386   0.360  1.6188  0.7351 -0.2695
 2320SOL    HW2 9279   1.889   4.245   0.412  0.9902  0.4511 -0.8264
 2320SOL     MW 9280   1.898   4.331   0.423  0.0306  0.4588  0.1671
 2321SOL     OW 9281   5.085   4.457   5.403 -0.7605 -0.0229 -0.1787
 2321SOL    HW1 9282   5.162   4.409   5.436  0.7782  1.3443 -1.6120
 2321SOL    HW2 9283   5.048   4.499   5.480  0.1005 -0.4587  0.4905
 2321SOL     MW 9284   5.090   4.456   5.417 -0.4533  0.0963 -0.2765
 2322SOL     OW 9285   2.978   1.156   4.415 -0.1483 -0.1172 -0.6389
 2322SOL    HW1 9286   2.936   1.160   4.329 -0.7400  2.4259 -0.2997
 2322SOL    HW2 9287   3.046   1.090   4.405 -0.0975  0.2095 -3.1157
 2322SOL     MW 9288   2.982   1.148   4.402 -0.2176  0.2501 -0.9125
 2323SOL     OW 9289   0.673   3.567   4.317 -0.2301 -0.3491  0.0541
 2323SOL    HW1 9290   0.578   3.573   4.321 -0.2395 -0.5604  0.1545
 2323SOL    HW2 9291   0.695   3.492   4.373  0.0792  0.4008  0.9567
 2323SOL     MW 9292   0.664   3.558   4.324 -0.1917 -0.2801  0.1825
 2324SOL     OW 9293   5.033   5.442   1.279  0.1076 -0.0475 -0.0189
 2324SOL    HW1 9294   5.073   5.419   1.195  0.2260 -2.4920  0.6288
 2324SOL    HW2 9295   5.028   5.537   1.278  3.6190  0.2512 -1.1953
 2324SOL     MW 9296   5.037   5.451   1.268  0.5723 -0.3221 -0.0866
 2325SOL     OW 9297   3.223   4.083   1.670 -0.1646  0.6036  0.1431
 2325SOL    HW1 9298   3.132   4.103   1.690  0.1780  1.0546  1.3516
 2325SOL    HW2 9299   3.233   4.107   1.578 -0.5293  3.4186  0.7370
 2325SOL     MW 9300   3.213   4.088   1.661 -0.1674  1.0217  0.3738
 2326SOL     OW 9301   3.663   3.861   5.367 -0.2296  0.1301  0.9079
 2326SOL    HW1 9302   3.734   3.910   5.409 -1.0292  1.2249  1.0385
 2326SOL    HW2 9303   3.637   3.916   5.293  1.6869 -2.1115 -1.6494
 2326SOL     MW 9304   3.669   3.874   5.363 -0.0866 -0.0167  0.5973
 2327SOL     OW 9305   0.143   1.554   0.718  0.3929  0.4753 -0.0383
 2327SOL    HW1 9306   0.049   1.552   0.736  0.3037 -1.0159 -0.5182
 2327SOL    HW2 9307   0.182   1.512   0.794  0.6385  0.8257  0.0259
 2327SOL     MW 9308   0.136   1.548   0.730  0.4130  0.3293 -0.0915
 2328SOL     OW 9309   3.873   0.084   5.254 -0.0908 -0.0982 -0.0674
 2328SOL    HW1 9310   3.886   0.015   5.319  0.5901  2.4139  2.6758
 2328SOL    HW2 9311   3.961   0.105   5.222 -0.3431 -0.7526 -1.2799
 2328SOL     MW 9312   3.886   0.078   5.258 -0.0359  0.1396  0.1286
 2329SOL     OW 9313   2.825   2.429   4.068 -0.3725  0.8082  0.5298
 2329SOL    HW1 9314   2.776   2.463   4.143 -0.1300 -0.4856  1.3065
 2329SOL    HW2 9315   2.819   2.334   4.076  0.5050  0.6356 -0.5427
 2329SOL     MW 9316   2.818   2.422   4.078 -0.2292  0.6204  0.4919
 2330SOL     OW 9317   3.477   2.131   5.127 -0.7323 -0.0841 -0.5361
 2330SOL    HW1 9318   3.562   2.088   5.140  0.2176  2.2718  2.0488
 2330SOL    HW2 9319   3.459   2.122   5.034  2.2649 -0.8366 -1.1442
 2330SOL     MW 9320   3.486   2.124   5.117 -0.2270  0.1212 -0.2830
 2331SOL     OW 9321   0.904   3.008   0.024 -0.2655 -0.0143 -0.1824
 2331SOL    HW1 9322   0.911   2.932   0.082 -0.6298 -1.5091 -2.0324
 2331SOL    HW2 9323   0.926   3.083   0.081  0.2387 -1.4756  1.6509
 2331SOL     MW 9324   0.908   3.008   0.039 -0.2476 -0.3927 -0.1845
 2332SOL     OW 9325   0.697   1.762   4.155  0.3188 -0.3767  0.0557
 2332SOL    HW1 9326   0.629   1.825   4.178 -1.0418 -1.4028 -0.9731
 2332SOL    HW2 9327   0.716   1.779   4.063  0.4450 -1.0151 -0.0423
 2332SOL     MW 9328   0.691   1.772   4.147  0.1608 -0.5898 -0.0886
 2333SOL     OW 9329   0.726   4.848   3.548 -0.0438 -0.0665 -0.1544
 2333SOL    HW1 9330   0.752   4.891   3.630 -0.8698 -0.0950  0.1240
 2333SOL    HW2 9331   0.807   4.845   3.497  0.5866 -0.4498  0.8376
 2333SOL     MW 9332   0.740   4.853   3.552 -0.0689 -0.1192  0.0082
 2334SOL     OW 9333   3.649   0.225   0.579  0.4045  0.6445 -0.0690
 2334SOL    HW1 9334   3.706   0.165   0.531  0.3687  0.9091 -0.4533
 2334SOL    HW2 9335   3.707   0.269   0.641  0.5056  0.4867 -0.0522
 2334SOL     MW 9336   3.664   0.223   0.581  0.4129  0.6581 -0.1160
 2335SOL     OW 9337   1.110   4.471   5.447 -0.2468  0.1600 -0.2911
 2335SOL    HW1 9338   1.077   4.460   5.358 -0.2702  0.7682 -0.3599
 2335SOL    HW2 9339   1.130   4.382   5.476 -1.5715 -0.2034 -0.3990
 2335SOL     MW 9340   1.108   4.458   5.440 -0.4193  0.1913 -0.3137
 2336SOL     OW 9341   3.227   0.881   2.873 -0.2352 -0.2520  0.0867
 2336SOL    HW1 9342   3.239   0.917   2.786 -1.2505  0.5817  0.2708
 2336SOL    HW2 9343   3.293   0.811   2.880  0.9416  0.7457 -0.7297
 2336SOL     MW 9344   3.237   0.876   2.863 -0.2145 -0.0175  0.0057
 2337SOL     OW 9345   1.883   4.153   1.211  0.3318  0.2281 -0.3576
 2337SOL    HW1 9346   1.855   4.240   1.180 -1.5735 -0.0578  0.4401
 2337SOL    HW2 9347   1.898   4.164   1.304 -0.0234 -0.3198 -0.2322
 2337SOL     MW 9348   1.881   4.166   1.219  0.0424  0.1214 -0.2394
 2338SOL     OW 9349   0.367   2.457   4.351  0.0605  0.0506  0.0076
 2338SOL    HW1 9350   0.430   2.416   4.410  0.7953 -0.0291 -0.8077
 2338SOL    HW2 9351   0.411   2.458   4.266 -1.0770 -0.1054 -0.6119
 2338SOL     MW 9352   0.380   2.452   4.348  0.0089  0.0204 -0.1761
 2339SOL     OW 9353   5.068   1.704   0.572  0.3207  0.5719 -0.5532
 2339SOL    HW1 9354   5.154   1.732   0.602  1.2195 -1.2953 -1.2352
 2339SOL    HW2 9355   5.059   1.740   0.484  0.6158  0.3832 -0.6615
 2339SOL     MW 9356   5.078   1.712   0.565  0.4735  0.3087 -0.6544
 2340SOL     OW 9357   4.112   4.485   3.147 -0.3064  0.0748 -0.0810
 2340SOL    HW1 9358   4.069   4.484   3.232 -1.2565  0.1317 -0.5525
 2340SOL    HW2 9359   4.047   4.523   3.087  0.7050  0.9894 -0.6415
 2340SOL     MW 9360   4.098   4.490   3.150 -0.2986  0.1992 -0.2131
 2341SOL     OW 9361   4.002   4.405   0.183 -0.1912 -0.1341 -0.4740
 2341SOL    HW1 9362   3.956   4.488   0.195 -0.0935  0.2059 -2.1259
 2341SOL    HW2 9363   4.029   4.406   0.091  3.9017  0.0704  0.5385
 2341SOL     MW 9364   3.999   4.415   0.173  0.3453 -0.0644 -0.5559
 2342SOL     OW 9365   0.654   3.164   4.255 -0.6849  0.7257  0.0048
 2342SOL    HW1 9366   0.717   3.231   4.283 -0.8854  0.4054  1.2345
 2342SOL    HW2 9367   0.580   3.214   4.221 -0.8399  1.1356  0.9245
 2342SOL     MW 9368   0.653   3.179   4.254 -0.7304  0.7372  0.2799
 2343SOL     OW 9369   0.624   3.355   1.420  0.1777 -0.1322  0.8266
 2343SOL    HW1 9370   0.559   3.424   1.433  0.3120  0.2716 -0.5161
 2343SOL    HW2 9371   0.574   3.280   1.389  0.4692  0.6274 -1.6486
 2343SOL     MW 9372   0.609   3.354   1.418  0.2322  0.0167  0.3379
 2344SOL     OW 9373   1.086   0.908   4.793 -0.3597 -0.1057  0.1007
 2344SOL    HW1 9374   1.178   0.925   4.814  0.1182 -0.2661 -1.6998
 2344SOL    HW2 9375   1.075   0.814   4.808  0.5114 -0.6093 -2.1204
 2344SOL     MW 9376   1.096   0.898   4.798 -0.1870 -0.1907 -0.4141
 2345SOL     OW 9377   1.754   1.312   1.163 -0.1993  0.3672  0.3952
 2345SOL    HW1 9378   1.791   1.242   1.109  0.5177 -1.2986  2.8690
 2345SOL    HW2 9379   1.663   1.285   1.178  0.1866 -0.3086  1.6736
 2345SOL     MW 9380   1.747   1.300   1.158 -0.0581  0.0674  0.8755
 2346SOL     OW 9381   0.001   5.481   4.173 -0.2154  0.0929  0.2433
 2346SOL    HW1 9382   0.088   5.442   4.175  0.0040  0.5976  1.1543
 2346SOL    HW2 9383  -0.052   5.424   4.229 -0.5449 -0.3561 -0.5086
 2346SOL     MW 9384   0.005   5.468   4.180 -0.2295  0.1000  0.2637
 2347SOL     OW 9385   0.443   3.734   4.545  0.0839 -0.5889 -0.1112
 2347SOL    HW1 9386   0.392   3.683   4.608 -0.1087 -1.2312 -0.7710
 2347SOL    HW2 9387   0.418   3.698   4.460 -1.6849  2.0340 -0.8184
 2347SOL     MW 9388   0.433   3.723   4.543 -0.1672 -0.3354 -0.2862
 2348SOL     OW 9389   3.886   2.457   3.680 -0.6254 -0.0334 -0.3020
 2348SOL    HW1 9390   3.921   2.460   3.770  2.3287 -0.4378 -1.3230
 2348SOL    HW2 9391   3.900   2.545   3.646 -0.0770 -0.3453 -0.9080
 2348SOL     MW 9392   3.892   2.469   3.688 -0.1770 -0.1251 -0.5103
 2349SOL     OW 9393   2.664   0.599   3.998 -0.1033  0.2686 -0.0289
 2349SOL    HW1 9394   2.711   0.654   4.061 -1.0963 -0.0209  0.9977
 2349SOL    HW2 9395   2.572   0.618   4.013 -0.6778 -3.2041  1.9120
 2349SOL     MW 9396   2.658   0.609   4.008 -0.3040 -0.2130  0.3510
 2350SOL     OW 9397   1.260   0.331   0.749 -0.3325  0.3458  0.2148
 2350SOL    HW1 9398   1.326   0.272   0.712 -1.4320 -0.5347 -0.4148
 2350SOL    HW2 9399   1.284   0.417   0.715 -0.2250 -0.1618 -1.0591
 2350SOL     MW 9400   1.271   0.335   0.740 -0.4595  0.1681 -0.0288
 2351SOL     OW 9401   3.600   4.786   2.864  0.0408  0.0229 -0.1446
 2351SOL    HW1 9402   3.626   4.833   2.944  0.0282 -0.8809  0.4142
 2351SOL    HW2 9403   3.583   4.855   2.800 -1.1381  0.8420  0.9850
 2351SOL     MW 9404   3.601   4.801   2.866 -0.1118  0.0121  0.0715
 2352SOL     OW 9405   3.991   5.439   2.105 -0.5057  0.6855 -0.0298
 2352SOL    HW1 9406   3.973   5.348   2.082 -1.0483 -0.0463  2.9390
 2352SOL    HW2 9407   3.963   5.489   2.028 -1.5720 -1.5210 -1.1672
 2352SOL     MW 9408   3.985   5.434   2.092 -0.7116  0.3094  0.2046
 2353SOL     OW 9409   0.529   3.687   1.132  0.2479  0.0585 -0.0445
 2353SOL    HW1 9410   0.449   3.656   1.175 -0.5962  0.6827 -1.0965
 2353SOL    HW2 9411   0.594   3.689   1.202 -1.0878  1.1410  1.2551
 2353SOL     MW 9412   0.527   3.683   1.147 -0.0312  0.2770 -0.0128
 2354SOL     OW 9413   0.665   1.535   4.777  0.2254 -0.4305 -0.1904
 2354SOL    HW1 9414   0.669   1.582   4.860  1.3896 -1.1436  0.1783
 2354SOL    HW2 9415   0.727   1.582   4.720 -1.5542  0.8958 -1.1448
 2354SOL     MW 9416   0.673   1.547   4.780  0.1466 -0.3520 -0.2654
 2355SOL     OW 9417   4.302   1.310   2.866  0.4550 -0.3884 -0.1382
 2355SOL    HW1 9418   4.377   1.354   2.906  0.5666 -0.8216  0.1370
 2355SOL    HW2 9419   4.227   1.337   2.918  0.3094  0.5782 -0.8192
 2355SOL     MW 9420   4.302   1.319   2.878  0.4506 -0.3201 -0.1902
 2356SOL     OW 9421   1.032   3.823   1.295 -0.2516  0.0455  0.3307
 2356SOL    HW1 9422   1.060   3.780   1.215 -1.2106 -0.0914  0.0682
 2356SOL    HW2 9423   1.087   3.784   1.364 -0.2862 -0.7223 -0.0720
 2356SOL     MW 9424   1.043   3.813   1.294 -0.3788 -0.0703  0.2455
 2357SOL     OW 9425   2.641   4.853   4.461  0.2136 -0.5139  0.5611
 2357SOL    HW1 9426   2.696   4.901   4.399  2.0995 -2.2330  0.7860
 2357SOL    HW2 9427   2.616   4.773   4.414 -0.5398 -0.6258  1.1341
 2357SOL     MW 9428   2.645   4.849   4.447  0.3586 -0.7483  0.6632
 2358SOL     OW 9429   2.391   4.997   4.197 -0.4336 -0.0942  0.0482
 2358SOL    HW1 9430   2.335   5.015   4.122  0.7180 -2.2658 -1.4106
 2358SOL    HW2 9431   2.335   5.012   4.273 -1.8428  1.4300 -1.2192
 2358SOL     MW 9432   2.377   5.001   4.197 -0.4665 -0.1771 -0.3008
 2359SOL     OW 9433   2.718   2.557   4.277  0.1601  0.0367  0.2536
 2359SOL    HW1 9434   2.792   2.552   4.338  0.0719 -0.7742  0.3128
 2359SOL    HW2 9435   2.667   2.632   4.306 -0.7034 -1.2052  2.1275
 2359SOL     MW 9436   2.721   2.566   4.288  0.0383 -0.2261  0.5011
 2360SOL     OW 9437   0.083   2.641   3.972 -0.2894 -0.3850 -0.2732
 2360SOL    HW1 9438   0.174   2.671   3.967 -0.5072  0.7111  1.3851
 2360SOL    HW2 9439   0.034   2.705   3.921 -0.0409 -1.6292 -2.1544
 2360SOL     MW 9440   0.089   2.653   3.965 -0.2855 -0.4039 -0.3017
 2361SOL     OW 9441   3.870   2.455   4.638 -0.3846  0.2931  0.5874
 2361SOL    HW1 9442   3.912   2.511   4.572 -0.4739 -0.1256  0.1738
 2361SOL    HW2 9443   3.881   2.366   4.605 -0.8079  0.1098  0.9273
 2361SOL     MW 9444   3.877   2.451   4.625 -0.4502  0.2160  0.5780
 2362SOL     OW 9445   1.680   3.855   0.140 -0.3955 -0.0826 -0.1637
 2362SOL    HW1 9446   1.751   3.799   0.110  0.0213  0.0132  0.6286
 2362SOL    HW2 9447   1.610   3.841   0.076 -0.6265 -2.1707  0.4873
 2362SOL     MW 9448   1.680   3.846   0.128 -0.3717 -0.3376  0.0211
 2363SOL     OW 9449   1.490   5.220   4.316  0.0739  0.0656  0.4680
 2363SOL    HW1 9450   1.482   5.135   4.271 -0.0360  0.6222 -0.6001
 2363SOL    HW2 9451   1.471   5.285   4.248  2.2609  1.0385  0.7135
 2363SOL     MW 9452   1.486   5.217   4.301  0.3398  0.2614  0.3627
 2364SOL     OW 9453   5.311   2.939   2.356 -0.1038 -0.2008  0.2477
 2364SOL    HW1 9454   5.348   3.002   2.294  0.7713  0.9870  1.9084
 2364SOL    HW2 9455   5.225   2.976   2.378 -0.2687 -0.4464  0.0314
 2364SOL     MW 9456   5.305   2.952   2.351 -0.0129 -0.0802  0.4326
 2365SOL     OW 9457   1.635   1.809   4.306  0.4417 -0.0753 -0.0579
 2365SOL    HW1 9458   1.569   1.757   4.260 -0.1554 -0.8772  1.6387
 2365SOL    HW2 9459   1.688   1.745   4.354  1.1067  0.7236  0.3007
 2365SOL     MW 9460   1.633   1.794   4.306  0.4504 -0.0757  0.2052
 2366SOL     OW 9461   3.265   1.255   2.945 -0.3869  0.0040 -0.0885
 2366SOL    HW1 9462   3.190   1.311   2.965 -0.2155  0.3115 -0.3052
 2366SOL    HW2 9463   3.246   1.172   2.990 -1.4645 -0.3662 -1.1991
 2366SOL     MW 9464   3.253   1.251   2.954 -0.5029 -0.0040 -0.2584
 2367SOL     OW 9465   1.475   3.400   3.424 -0.0555 -0.4438  0.1480
 2367SOL    HW1 9466   1.531   3.397   3.502  1.5443  0.0648 -0.9492
 2367SOL    HW2 9467   1.528   3.364   3.354 -0.2713  2.0183 -1.4056
 2367SOL     MW 9468   1.489   3.395   3.425  0.1217 -0.0635 -0.1913
 2368SOL     OW 9469   1.732   0.157   2.840  0.2433  0.0731 -0.2643
 2368SOL    HW1 9470   1.826   0.159   2.822  0.2042 -0.2507 -0.5130
 2368SOL    HW2 9471   1.691   0.160   2.754  0.0289  0.0275 -0.1629
 2368SOL     MW 9472   1.739   0.158   2.827  0.2109  0.0258 -0.2831
 2369SOL     OW 9473   4.224   4.236   3.255  0.5205  0.0337 -0.1846
 2369SOL    HW1 9474   4.208   4.195   3.340  0.3519 -2.9967 -1.5475
 2369SOL    HW2 9475   4.137   4.243   3.215  0.8654 -2.0357 -1.4758
 2369SOL     MW 9476   4.211   4.231   3.261  0.5431 -0.6191 -0.5243
 2370SOL     OW 9477   3.305   5.247   0.660  0.2267 -0.4240 -0.3507
 2370SOL    HW1 9478   3.274   5.336   0.678  1.0370 -0.4412  1.2374
 2370SOL    HW2 9479   3.396   5.247   0.687 -0.0459 -2.0186  0.7084
 2370SOL     MW 9480   3.312   5.259   0.666  0.2955 -0.6304 -0.0118
 2371SOL     OW 9481   2.523   3.702   4.522 -0.6673  0.2830 -0.0311
 2371SOL    HW1 9482   2.456   3.659   4.576  1.2061 -1.8413  0.7752
 2371SOL    HW2 9483   2.564   3.765   4.580 -0.7913  0.3028  0.0347
 2371SOL     MW 9484   2.519   3.704   4.536 -0.4433  0.0136  0.0806
 2372SOL     OW 9485   1.302   2.818   4.563 -0.0452  0.2469  0.1657
 2372SOL    HW1 9486   1.385   2.770   4.572 -0.4010 -0.1792  1.2895
 2372SOL    HW2 9487   1.306   2.885   4.631  0.6852  2.2559 -1.7242
 2372SOL     MW 9488   1.313   2.821   4.573  0.0028  0.4495  0.0677
 2373SOL     OW 9489   0.277   0.752   4.756  0.0408  0.1771 -0.9768
 2373SOL    HW1 9490   0.342   0.726   4.821 -1.0947  0.2859  0.2597
 2373SOL    HW2 9491   0.299   0.843   4.735 -0.3232  0.5847  0.2747
 2373SOL     MW 9492   0.288   0.760   4.762 -0.1511  0.2432 -0.6583
 2374SOL     OW 9493   4.896   0.333   3.799 -0.4142  0.2409  0.1509
 2374SOL    HW1 9494   4.836   0.296   3.864 -0.9220  0.3568 -0.2485
 2374SOL    HW2 9495   4.962   0.264   3.786  0.1207  0.4987  1.3234
 2374SOL     MW 9496   4.897   0.319   3.806 -0.4107  0.2887  0.2499
 2375SOL     OW 9497   1.790   0.610   2.238  0.0947  0.8091 -0.1041
 2375SOL    HW1 9498   1.810   0.535   2.183  1.9211  1.6182 -0.6130
 2375SOL    HW2 9499   1.744   0.671   2.180  1.0488  1.2091 -0.4472
 2375SOL     MW 9500   1.786   0.608   2.223  0.4507  0.9639 -0.2132
 2376SOL     OW 9501   2.725   2.923   3.684 -0.4588 -0.0829 -0.2899
 2376SOL    HW1 9502   2.776   2.998   3.715 -0.7240  0.2281 -0.5906
 2376SOL    HW2 9503   2.761   2.848   3.730  3.0015 -0.5783 -3.3138
 2376SOL     MW 9504   2.736   2.923   3.694 -0.0498 -0.1065 -0.7155
 2377SOL     OW 9505   0.556   0.359   2.397 -0.0737  0.3425  0.1450
 2377SOL    HW1 9506   0.526   0.271   2.373  0.4123 -0.0767  1.0345
 2377SOL    HW2 9507   0.521   0.373   2.485 -0.5875  1.2656 -0.1828
 2377SOL     MW 9508   0.547   0.350   2.405 -0.0773  0.4070  0.2169
 2378SOL     OW 9509   2.440   4.068   0.924 -0.1994 -0.0823  0.5058
 2378SOL    HW1 9510   2.465   4.009   0.853  2.1650  1.6123 -0.2079
 2378SOL    HW2 9511   2.385   4.015   0.981  0.5927 -2.5100 -0.8323
 2378SOL     MW 9512   2.436   4.054   0.922  0.2046 -0.1761  0.2431
 2379SOL     OW 9513   0.061   1.623   1.907  0.3979 -0.2153 -0.1381
 2379SOL    HW1 9514   0.018   1.545   1.942  1.2384  0.1625  1.8431
 2379SOL    HW2 9515  -0.010   1.675   1.870 -0.4552 -0.9139  0.4874
 2379SOL     MW 9516   0.046   1.620   1.907  0.3963 -0.2563  0.1956
 2380SOL     OW 9517   2.399   0.743   4.090  0.0316 -0.3130  0.2185
 2380SOL    HW1 9518   2.357   0.730   4.005 -1.4222  0.3706  0.7962
 2380SOL    HW2 9519   2.374   0.832   4.115 -0.0510 -0.7029  1.6092
 2380SOL     MW 9520   2.390   0.753   4.082 -0.1651 -0.2754  0.4705
 2381SOL     OW 9521   3.422   4.181   0.828  0.3294 -0.6779  0.6463
 2381SOL    HW1 9522   3.356   4.141   0.884 -1.3054  0.7325 -0.1999
 2381SOL    HW2 9523   3.427   4.124   0.751  1.6599 -1.9168  1.5898
 2381SOL     MW 9524   3.414   4.169   0.826  0.2905 -0.6559  0.6587
 2382SOL     OW 9525   2.284   0.135   5.094 -0.6046 -0.1651  0.3079
 2382SOL    HW1 9526   2.266   0.042   5.081 -1.5948  0.1383 -0.6441
 2382SOL    HW2 9527   2.204   0.168   5.135 -0.5771  0.4234 -0.1096
 2382SOL     MW 9528   2.271   0.127   5.098 -0.7278 -0.0509  0.1326
 2383SOL     OW 9529   4.547   1.072   1.418  0.5766  0.0257 -0.0802
 2383SOL    HW1 9530   4.499   1.029   1.347 -1.3916  2.7465 -0.6002
 2383SOL    HW2 9531   4.621   1.113   1.375  1.1008 -0.8231 -0.0012
 2383SOL     MW 9532   4.550   1.072   1.403  0.3918  0.2653 -0.1367
 2384SOL     OW 9533   0.818   1.970   4.589  0.2843  0.2450 -0.0577
 2384SOL    HW1 9534   0.824   2.038   4.521 -1.4058  0.1695 -0.3132
 2384SOL    HW2 9535   0.752   2.003   4.650  0.0867 -0.7781  0.2930
 2384SOL     MW 9536   0.810   1.983   4.588  0.0426  0.1043 -0.0455
 2385SOL     OW 9537   0.137   2.175   2.233 -0.2456  0.6583  0.1605
 2385SOL    HW1 9538   0.231   2.194   2.237 -0.2295  1.2248 -2.0738
 2385SOL    HW2 9539   0.096   2.258   2.212 -0.9923 -0.0786 -1.4391
 2385SOL     MW 9540   0.144   2.188   2.231 -0.3391  0.6365 -0.3303
 2386SOL     OW 9541   3.774   2.320   1.607 -0.3578  0.2200 -0.2130
 2386SOL    HW1 9542   3.690   2.285   1.580 -1.4626  0.7144  2.2262
 2386SOL    HW2 9543   3.823   2.245   1.641 -1.4359  0.4210  1.9815
 2386SOL     MW 9544   3.770   2.306   1.608 -0.6372  0.3090  0.3802
 2387SOL     OW 9545   2.023   3.080   3.500 -0.5116  0.1008 -0.7567
 2387SOL    HW1 9546   2.109   3.123   3.504 -1.1236  1.2941  0.2282
 2387SOL    HW2 9547   2.032   3.014   3.430  1.7978 -1.1599  0.6148
 2387SOL     MW 9548   2.035   3.077   3.491 -0.2943  0.0922 -0.4550
 2388SOL     OW 9549   0.721   2.347   2.992 -0.1122 -0.7141 -0.4312
 2388SOL    HW1 9550   0.638   2.300   2.997 -1.4736  1.5288 -0.1605
 2388SOL    HW2 9551   0.747   2.361   3.083 -1.6515  2.0500 -0.3073
 2388SOL     MW 9552   0.714   2.343   3.004 -0.4835 -0.0732 -0.3807
 2389SOL     OW 9553   0.475   1.435   4.525 -0.5248  0.5760  0.4137
 2389SOL    HW1 9554   0.383   1.412   4.514 -0.4961  1.1454 -1.3528
 2389SOL    HW2 9555   0.480   1.527   4.500  0.7104  0.2160 -0.7904
 2389SOL     MW 9556   0.464   1.444   4.520 -0.3630  0.6028  0.0334
 2390SOL     OW 9557   3.274   1.751   2.518  0.5188  0.1713 -0.2083
 2390SOL    HW1 9558   3.317   1.837   2.508 -0.1731  0.5882  0.2735
 2390SOL    HW2 9559   3.287   1.708   2.434  1.2628  0.5743 -0.3113
 2390SOL     MW 9560   3.281   1.757   2.506  0.5255  0.2762 -0.1598
 2391SOL     OW 9561   0.494   2.533   2.746  0.1620  0.7015 -0.1043
 2391SOL    HW1 9562   0.406   2.567   2.764  0.2204 -0.2865  2.5341
 2391SOL    HW2 9563   0.550   2.578   2.810  1.3566  0.4068 -0.9283
 2391SOL     MW 9564   0.490   2.543   2.757  0.3224  0.5373  0.1280
 2392SOL     OW 9565   4.162   0.678   0.459  0.0013  0.1737  0.3940
 2392SOL    HW1 9566   4.201   0.592   0.448  0.4099  0.6056 -2.2214
 2392SOL    HW2 9567   4.103   0.668   0.534  1.3320 -1.8581  1.2602
 2392SOL     MW 9568   4.159   0.666   0.467  0.2239 -0.0311  0.1701
 2393SOL     OW 9569   2.393   3.288   4.387 -0.1377 -0.5215  0.3324
 2393SOL    HW1 9570   2.345   3.224   4.334 -2.7458  0.3191  1.4883
 2393SOL    HW2 9571   2.341   3.368   4.380  0.2763  0.0585  2.8070
 2393SOL     MW 9572   2.380   3.290   4.380 -0.4186 -0.3396  0.7972
 2394SOL     OW 9573   0.780   3.216   3.430  0.0694  0.2276  0.0865
 2394SOL    HW1 9574   0.860   3.218   3.377 -0.7686  1.8569 -1.2269
 2394SOL    HW2 9575   0.710   3.194   3.368 -0.7484  0.6785  0.8170
 2394SOL     MW 9576   0.781   3.213   3.415 -0.1426  0.4939  0.0119
 2395SOL     OW 9577   1.760   1.466   4.902 -0.2039 -0.7394 -0.1009
 2395SOL    HW1 9578   1.779   1.515   4.822  0.1735 -0.4909  0.1364
 2395SOL    HW2 9579   1.670   1.488   4.923  0.4486  1.2189  0.9307
 2395SOL     MW 9580   1.751   1.475   4.894 -0.0720 -0.4569  0.0616
 2396SOL     OW 9581   4.665   2.322   1.676 -0.0163 -0.4690 -0.0498
 2396SOL    HW1 9582   4.710   2.286   1.752  0.5647 -0.2761 -0.2953
 2396SOL    HW2 9583   4.721   2.299   1.602  0.0135  0.3329 -0.2889
 2396SOL     MW 9584   4.678   2.315   1.676  0.0619 -0.3417 -0.1118
 2397SOL     OW 9585   0.614   4.493   0.109  0.4359 -0.0391  0.4260
 2397SOL    HW1 9586   0.586   4.568   0.161 -3.1126 -0.3058 -0.7895
 2397SOL    HW2 9587   0.673   4.530   0.044 -0.2553  1.5134  0.6325
 2397SOL     MW 9588   0.618   4.507   0.107 -0.1068  0.1255  0.2968
 2398SOL     OW 9589   1.038   0.632   4.939 -0.2079  0.4588 -0.4641
 2398SOL    HW1 9590   1.083   0.661   5.018 -1.0501  0.5448 -0.0091
 2398SOL    HW2 9591   1.037   0.537   4.945 -1.1699  0.4935  0.1525
 2398SOL     MW 9592   1.044   0.624   4.950 -0.4388  0.4743 -0.3269
 2399SOL     OW 9593   4.861   1.896   4.401 -0.0550  0.4605 -0.1514
 2399SOL    HW1 9594   4.881   1.988   4.385 -1.4355  1.0799  1.4052
 2399SOL    HW2 9595   4.771   1.886   4.368  0.3664 -0.5604 -1.0564
 2399SOL     MW 9596   4.852   1.907   4.394 -0.1778  0.4091 -0.0680
 2400SOL     OW 9597   3.884   1.052   5.019 -0.6920 -0.0532 -0.0859
 2400SOL    HW1 9598   3.872   1.048   5.114  0.6812 -1.5263  0.0631
 2400SOL    HW2 9599   3.911   0.963   4.994  2.2393  1.0504 -1.3591
 2400SOL     MW 9600   3.886   1.040   5.028 -0.1410 -0.1005 -0.2298
 2401SOL     OW 9601   1.945   2.372   2.440  0.4281  0.1743  0.3387
 2401SOL    HW1 9602   1.876   2.435   2.459  0.0034 -0.4311  0.8060
 2401SOL    HW2 9603   1.902   2.287   2.444  1.1603 -0.1959  0.4560
 2401SOL     MW 9604   1.931   2.369   2.443  0.4675  0.0494  0.4135
 2402SOL     OW 9605   5.407   4.291   3.094 -0.7713  0.1595 -0.2692
 2402SOL    HW1 9606   5.457   4.291   3.012  0.1998  0.5647  0.2999
 2402SOL    HW2 9607   5.470   4.321   3.160 -1.5059 -0.2621  0.6432
 2402SOL     MW 9608   5.422   4.295   3.092 -0.7410  0.1574 -0.0796
 2403SOL     OW 9609   4.053   1.336   0.739  0.0538  0.2656  0.0948
 2403SOL    HW1 9610   3.962   1.316   0.759  0.6117 -1.3711  1.1626
 2403SOL    HW2 9611   4.077   1.272   0.672 -0.1143  2.0038 -1.7429
 2403SOL     MW 9612   4.045   1.326   0.733  0.1037  0.2786 -0.0038
 2404SOL     OW 9613   0.156   0.314   4.832  0.0353 -0.1898  0.1702
 2404SOL    HW1 9614   0.124   0.258   4.762 -0.0370 -0.9209  0.7802
 2404SOL    HW2 9615   0.208   0.381   4.787  2.1782 -2.1309 -0.4267
 2404SOL     MW 9616   0.159   0.316   4.818  0.3004 -0.5319  0.1719
 2405SOL     OW 9617   2.650   2.822   4.352  0.4484 -0.2537 -0.2285
 2405SOL    HW1 9618   2.640   2.888   4.284 -0.5866 -0.3684 -0.2113
 2405SOL    HW2 9619   2.733   2.843   4.395  0.3135  0.8043 -0.4612
 2405SOL     MW 9620   2.659   2.833   4.349  0.2986 -0.1329 -0.2561
 2406SOL     OW 9621   4.095   4.681   3.988  0.6224  0.0867 -0.1843
 2406SOL    HW1 9622   4.050   4.717   3.911 -0.5775 -0.8009  0.0676
 2406SOL    HW2 9623   4.187   4.672   3.960  0.3359  0.4069 -1.2847
 2406SOL     MW 9624   4.101   4.684   3.974  0.4321  0.0141 -0.2929
 2407SOL     OW 9625   4.190   2.792   1.284 -0.3331  0.0955  0.4075
 2407SOL    HW1 9626   4.179   2.726   1.215 -0.3341 -0.2476  0.7359
 2407SOL    HW2 9627   4.102   2.828   1.298 -0.0293  1.6096 -1.1865
 2407SOL     MW 9628   4.177   2.789   1.277 -0.2943  0.2454  0.2455
 2408SOL     OW 9629   5.340   3.029   1.549  0.2292 -0.0443 -0.0941
 2408SOL    HW1 9630   5.264   3.085   1.533  0.6376  0.2442 -1.1297
 2408SOL    HW2 9631   5.390   3.033   1.467  1.1686 -0.5240  0.4410
 2408SOL     MW 9632   5.337   3.037   1.537  0.4017 -0.0688 -0.1581
 2409SOL     OW 9633   0.109   4.266   2.150 -0.0694 -0.6772 -0.3851
 2409SOL    HW1 9634   0.034   4.319   2.126  0.3432 -0.3998 -1.0999
 2409SOL    HW2 9635   0.125   4.285   2.242  0.8219  1.3964 -0.9181
 2409SOL     MW 9636   0.102   4.275   2.159  0.0975 -0.3763 -0.5448
 2410SOL     OW 9637   3.435   3.053   1.681 -0.3853 -0.7823  1.3471
 2410SOL    HW1 9638   3.425   3.130   1.737 -0.6493  1.1795 -1.2008
 2410SOL    HW2 9639   3.349   3.040   1.643  0.0295 -1.3902  0.6043
 2410SOL     MW 9640   3.423   3.061   1.683 -0.3660 -0.6090  0.9259
 2411SOL     OW 9641   2.370   2.847   3.100 -0.3402  0.6419 -0.6522
 2411SOL    HW1 9642   2.446   2.886   3.057 -0.0479  0.5133 -0.2556
 2411SOL    HW2 9643   2.405   2.809   3.181 -0.8091  0.4973 -0.5156
 2411SOL     MW 9644   2.384   2.847   3.105 -0.3628  0.6069 -0.5840
 2412SOL     OW 9645   3.262   4.743   0.761  0.3664  0.1265  1.0147
 2412SOL    HW1 9646   3.227   4.731   0.672  0.0155 -1.7366  1.3615
 2412SOL    HW2 9647   3.238   4.833   0.784 -0.7172  0.2017 -0.2707
 2412SOL     MW 9648   3.254   4.753   0.752  0.1828 -0.1024  0.8945
 2413SOL     OW 9649   0.942   3.179   2.573 -0.0836 -0.0522 -0.3362
 2413SOL    HW1 9650   0.958   3.161   2.480 -0.6180  0.6339 -0.5690
 2413SOL    HW2 9651   0.847   3.176   2.581 -0.1055  1.1155 -0.0676
 2413SOL     MW 9652   0.932   3.176   2.562 -0.1548  0.1851 -0.3317
 2414SOL     OW 9653   3.819   4.289   4.981 -0.1982 -0.4647 -0.0817
 2414SOL    HW1 9654   3.837   4.382   4.964  0.0491 -0.6995 -1.1936
 2414SOL    HW2 9655   3.783   4.287   5.070  0.9635  0.5562  0.4438
 2414SOL     MW 9656   3.817   4.301   4.990 -0.0179 -0.3641 -0.1567
 2415SOL     OW 9657   0.256   1.853   3.559  0.1810  0.1035  1.0494
 2415SOL    HW1 9658   0.324   1.920   3.557 -0.1672  0.4415 -0.4222
 2415SOL    HW2 9659   0.174   1.903   3.563 -0.0786 -0.2143 -0.0383
 2415SOL     MW 9660   0.254   1.868   3.559  0.1032  0.1061  0.7218
 2416SOL     OW 9661   2.551   5.160   3.391 -0.3450 -0.4288 -0.1042
 2416SOL    HW1 9662   2.485   5.161   3.460 -0.1222 -2.7564  0.1985
 2416SOL    HW2 9663   2.625   5.113   3.428  1.2831  1.5452 -0.6763
 2416SOL     MW 9664   2.552   5.154   3.405 -0.1080 -0.4741 -0.1387
 2417SOL     OW 9665   1.100   5.328   0.058  0.6570  0.1523  0.0006
 2417SOL    HW1 9666   1.158   5.400   0.032  0.3923 -0.0806 -1.2738
 2417SOL    HW2 9667   1.021   5.371   0.090 -0.6957  0.4918 -3.4652
 2417SOL     MW 9668   1.097   5.343   0.059  0.4499  0.1659 -0.6062
 2418SOL     OW 9669   4.745   4.587   2.446 -0.5733  0.0703  0.2836
 2418SOL    HW1 9670   4.737   4.664   2.390  0.5251  0.4049  0.5643
 2418SOL    HW2 9671   4.660   4.580   2.490 -1.3819 -0.0723 -1.2412
 2418SOL     MW 9672   4.733   4.596   2.444 -0.5362  0.0949  0.1244
 2419SOL     OW 9673   1.091   2.084  -0.002  0.8587  0.2278 -0.3835
 2419SOL    HW1 9674   1.155   2.133   0.049  0.0383  0.4833  0.4198
 2419SOL    HW2 9675   1.039   2.038   0.063 -0.5091  0.9199 -0.9478
 2419SOL     MW 9676   1.093   2.084   0.013  0.5786  0.3491 -0.3529
 2420SOL     OW 9677   4.843   0.314   3.119 -0.1140 -0.6014 -0.0341
 2420SOL    HW1 9678   4.887   0.342   3.199  1.0136 -0.2256 -0.7477
 2420SOL    HW2 9679   4.870   0.379   3.053 -1.2007 -0.7693 -0.6638
 2420SOL     MW 9680   4.852   0.326   3.121 -0.1088 -0.5748 -0.2061
 2421SOL     OW 9681   4.911   4.206   2.814  0.0881  0.2384  0.1273
 2421SOL    HW1 9682   4.844   4.226   2.748  0.1108 -1.3246 -0.4032
 2421SOL    HW2 9683   4.943   4.292   2.841 -1.5554  1.0073 -0.1922
 2421SOL     MW 9684   4.906   4.219   2.809 -0.1194  0.1367  0.0185
 2422SOL     OW 9685   4.736   1.640   3.186  0.3817 -0.7871 -0.2408
 2422SOL    HW1 9686   4.779   1.672   3.107  0.0547 -0.3796 -0.2504
 2422SOL    HW2 9687   4.809   1.613   3.243  0.6815  0.3987 -0.0464
 2422SOL     MW 9688   4.751   1.640   3.183  0.3782 -0.5831 -0.2172
 2423SOL     OW 9689   4.803   4.895   1.767 -0.0035  0.2672  0.3603
 2423SOL    HW1 9690   4.767   4.867   1.682 -1.1370  0.6037  0.7168
 2423SOL    HW2 9691   4.893   4.921   1.747  0.4322 -1.6221 -0.3684
 2423SOL     MW 9692   4.810   4.895   1.753 -0.0928  0.0684  0.3126
 2424SOL     OW 9693   3.060   1.335   1.413 -0.0017 -0.3064  0.1390
 2424SOL    HW1 9694   3.152   1.340   1.385 -0.4079  0.7836 -1.0682
 2424SOL    HW2 9695   3.044   1.241   1.425  1.2546 -0.5172  0.3788
 2424SOL     MW 9696   3.070   1.323   1.411  0.1071 -0.1939  0.0152
 2425SOL     OW 9697   1.039   3.813   4.032 -0.3724  0.0992 -0.1850
 2425SOL    HW1 9698   1.088   3.843   3.955  0.1919  0.6694  0.3762
 2425SOL    HW2 9699   1.026   3.720   4.018  0.9903 -0.0881 -0.3066
 2425SOL     MW 9700   1.044   3.805   4.020 -0.1257  0.1482 -0.1287
 2426SOL     OW 9701   3.020   2.454   1.624 -0.2306  0.4126  0.1671
 2426SOL    HW1 9702   2.980   2.410   1.548 -1.3847  1.6784 -0.0057
 2426SOL    HW2 9703   3.100   2.494   1.589  0.0899 -0.3508  0.0047
 2426SOL     MW 9704   3.025   2.453   1.609 -0.3373  0.4769  0.1242
 2427SOL     OW 9705   1.991   1.581   0.104  0.1317 -0.4295 -0.1335
 2427SOL    HW1 9706   2.005   1.494   0.140  2.3080 -0.5734 -1.1539
 2427SOL    HW2 9707   1.929   1.567   0.032 -0.2187 -0.9761  0.2677
 2427SOL     MW 9708   1.985   1.568   0.099  0.3654 -0.5179 -0.2128
 2428SOL     OW 9709   4.335   0.776   0.627 -0.5824 -0.1606 -0.5917
 2428SOL    HW1 9710   4.344   0.865   0.595 -0.1864  0.1460  0.3310
 2428SOL    HW2 9711   4.277   0.733   0.564 -1.9848  1.1576 -0.2558
 2428SOL     MW 9712   4.329   0.782   0.615 -0.7112  0.0474 -0.4306
 2429SOL     OW 9713   1.852   0.440   0.369 -0.0205  0.4231  0.0300
 2429SOL    HW1 9714   1.923   0.379   0.393 -0.1691  0.8386  1.6336
 2429SOL    HW2 9715   1.837   0.491   0.448 -2.0698  0.4063 -0.3060
 2429SOL     MW 9716   1.859   0.439   0.382 -0.3019  0.4741  0.1923
 2430SOL     OW 9717   0.936   4.697   4.712  0.0714 -0.5208  0.0412
 2430SOL    HW1 9718   0.882   4.620   4.698  0.8683 -1.4238  1.5818
 2430SOL    HW2 9719   0.965   4.724   4.625 -0.1835 -1.9992 -0.5139
 2430SOL     MW 9720   0.933   4.691   4.699  0.1407 -0.8257  0.1674
 2431SOL     OW 9721   0.815   2.550   0.942 -0.2384  0.0904 -0.2499
 2431SOL    HW1 9722   0.779   2.578   1.026  0.5518 -1.3351  0.6198
 2431SOL    HW2 9723   0.763   2.473   0.919 -0.1486  0.2036 -0.8294
 2431SOL     MW 9724   0.804   2.543   0.950 -0.1258 -0.0776 -0.2128
 2432SOL     OW 9725   0.875   0.536   1.617  0.1380 -0.1333  0.4987
 2432SOL    HW1 9726   0.918   0.479   1.554 -0.2744  0.3548 -0.2356
 2432SOL    HW2 9727   0.821   0.477   1.670  0.2016 -0.4979  0.1605
 2432SOL     MW 9728   0.874   0.521   1.616  0.0933 -0.1175  0.3614
 2433SOL     OW 9729   3.481   4.149   3.047  0.3393  0.3736 -0.1806
 2433SOL    HW1 9730   3.523   4.108   2.971  1.4643 -0.2392  0.7374
 2433SOL    HW2 9731   3.548   4.206   3.084 -0.5623  1.5234 -0.2672
 2433SOL     MW 9732   3.495   4.151   3.042  0.3679  0.4423 -0.0741
 2434SOL     OW 9733   4.546   1.672   2.712  0.6708 -0.5986 -0.3804
 2434SOL    HW1 9734   4.609   1.744   2.710 -1.2246  1.1782  0.1681
 2434SOL    HW2 9735   4.469   1.708   2.757 -0.8279 -2.5799 -1.1727
 2434SOL     MW 9736   4.544   1.685   2.717  0.2363 -0.6248 -0.4116
 2435SOL     OW 9737   5.442   3.476   0.623 -0.4169 -0.2744  0.2648
 2435SOL    HW1 9738   5.431   3.508   0.713 -2.9949  0.4367 -0.2355
 2435SOL    HW2 9739   5.515   3.414   0.629  0.7662  1.1958  2.4343
 2435SOL     MW 9740   5.450   3.472   0.635 -0.5955  0.0048  0.4785
 2436SOL     OW 9741  -0.007   0.519   3.801 -0.1851 -0.4777 -0.0329
 2436SOL    HW1 9742   0.075   0.568   3.812 -0.3675 -0.3636  0.9335
 2436SOL    HW2 9743  -0.024   0.481   3.887 -1.0357 -0.6826 -0.2817
 2436SOL     MW 9744   0.002   0.521   3.814 -0.3173 -0.4893  0.0590
 2437SOL     OW 9745   3.668   2.169   1.212 -0.1556  0.3593  0.1000
 2437SOL    HW1 9746   3.715   2.113   1.273 -0.0350 -0.1979 -0.4857
 2437SOL    HW2 9747   3.581   2.129   1.204 -0.1056  0.3127 -0.2365
 2437SOL     MW 9748   3.663   2.157   1.218 -0.1338  0.2820 -0.0180
 2438SOL     OW 9749   3.130   2.206   3.161  0.2006 -0.0447  0.0476
 2438SOL    HW1 9750   3.183   2.269   3.209  0.1027 -2.0973  3.1030
 2438SOL    HW2 9751   3.182   2.125   3.162 -1.3948 -1.1210 -0.1068
 2438SOL     MW 9752   3.144   2.204   3.167 -0.0161 -0.4453  0.4189
 2439SOL     OW 9753   0.264   5.375   4.171  0.3148  0.5194  0.4485
 2439SOL    HW1 9754   0.309   5.390   4.254  1.8494 -1.0147 -0.0349
 2439SOL    HW2 9755   0.247   5.281   4.170 -2.9111  1.0187  0.5344
 2439SOL     MW 9756   0.268   5.365   4.181  0.0983  0.3870  0.3976
 2440SOL     OW 9757   0.782   3.806   4.351  0.0620 -0.5336 -0.0510
 2440SOL    HW1 9758   0.876   3.790   4.361  0.0676 -0.7868 -0.4870
 2440SOL    HW2 9759   0.742   3.719   4.358 -0.2304 -0.3226  1.0789
 2440SOL     MW 9760   0.789   3.793   4.353  0.0253 -0.5390  0.0379
 2441SOL     OW 9761   2.591   3.950   1.309 -0.1956 -0.4763  0.1162
 2441SOL    HW1 9762   2.636   3.984   1.231  1.2863 -1.0159  0.7033
 2441SOL    HW2 9763   2.519   4.011   1.324 -1.0009 -0.7844 -2.1169
 2441SOL     MW 9764   2.587   3.962   1.301 -0.1090 -0.5848 -0.0945
 2442SOL     OW 9765   2.795   3.815   1.001 -0.3468  0.2471 -0.2327
 2442SOL    HW1 9766   2.890   3.820   1.013 -0.4626  0.1578  0.8118
 2442SOL    HW2 9767   2.772   3.728   1.033 -0.5962 -0.3231 -1.9095
 2442SOL     MW 9768   2.805   3.805   1.007 -0.3936  0.1627 -0.3136
 2443SOL     OW 9769   1.242   4.907   2.683  0.3713  0.5413  0.1777
 2443SOL    HW1 9770   1.170   4.877   2.627  0.4937  1.5752 -0.5758
 2443SOL    HW2 9771   1.203   4.918   2.769 -0.2228  0.5076 -0.0811
 2443SOL     MW 9772   1.228   4.905   2.687  0.3110  0.6693  0.0481
 2444SOL     OW 9773   3.729   0.109   3.181 -0.2842 -0.9475 -0.5710
 2444SOL    HW1 9774   3.692   0.060   3.254 -0.9497 -1.8549 -1.4862
 2444SOL    HW2 9775   3.823   0.089   3.185 -0.3524 -1.1895 -0.1045
 2444SOL     MW 9776   3.737   0.100   3.191 -0.3781 -1.0946 -0.6284
 2445SOL     OW 9777   2.778   0.668   2.271  0.2822  0.0386 -0.3751
 2445SOL    HW1 9778   2.718   0.594   2.267  0.9150 -0.4995 -0.0869
 2445SOL    HW2 9779   2.736   0.736   2.218 -0.1351 -0.6426 -0.9354
 2445SOL     MW 9780   2.765   0.667   2.264  0.3098 -0.1175 -0.4100
 2446SOL     OW 9781   1.019   3.738   1.997  0.2308 -0.1137 -0.5192
 2446SOL    HW1 9782   0.925   3.757   2.001  0.0465 -0.7519 -1.4424
 2446SOL    HW2 9783   1.034   3.673   2.065 -0.2173 -0.8412 -1.1091
 2446SOL     MW 9784   1.009   3.732   2.006  0.1498 -0.2885 -0.7129
 2447SOL     OW 9785   0.333   2.936   4.955 -0.2984 -0.4381  0.4898
 2447SOL    HW1 9786   0.349   3.029   4.968 -1.4578 -0.3344  1.2580
 2447SOL    HW2 9787   0.308   2.929   4.863  3.3621 -0.5424 -0.6799
 2447SOL     MW 9788   0.332   2.947   4.945  0.0218 -0.4382  0.4384
 2448SOL     OW 9789   5.129   4.849   0.047 -0.2876 -0.0889 -0.2177
 2448SOL    HW1 9790   5.193   4.909   0.085  1.2473 -0.8342 -1.4951
 2448SOL    HW2 9791   5.153   4.843  -0.045 -2.2503 -0.3787 -0.7681
 2448SOL     MW 9792   5.140   4.856   0.040 -0.3424 -0.2214 -0.4517
 2449SOL     OW 9793   0.727   4.849   3.926  0.2494 -0.6022  0.1004
 2449SOL    HW1 9794   0.753   4.909   3.855  0.6097 -1.6005 -0.6252
 2449SOL    HW2 9795   0.786   4.870   3.998  1.1138 -0.8305 -0.5299
 2449SOL     MW 9796   0.738   4.860   3.926  0.4062 -0.7593 -0.0732
 2450SOL     OW 9797   2.081   1.021   5.380 -0.2141 -0.2264 -0.3336
 2450SOL    HW1 9798   2.032   0.964   5.320 -0.2896 -0.0214 -0.4684
 2450SOL    HW2 9799   2.167   1.031   5.339  0.2985 -1.4194  0.4130
 2450SOL     MW 9800   2.086   1.015   5.367 -0.1581 -0.3529 -0.2553
 2451SOL     OW 9801   4.738   1.026   2.646  0.1457 -0.4713 -0.6007
 2451SOL    HW1 9802   4.710   1.013   2.737  2.9699 -1.4756  0.2282
 2451SOL    HW2 9803   4.759   1.119   2.640  1.3995 -0.6699  0.2847
 2451SOL     MW 9804   4.737   1.036   2.657  0.6677 -0.6253 -0.3812
 2452SOL     OW 9805   0.274   0.194   1.598  0.6547  0.4294  0.1222
 2452SOL    HW1 9806   0.214   0.267   1.586  1.0713  1.2935  2.6135
 2452SOL    HW2 9807   0.361   0.235   1.605  0.9439 -0.2990  1.1753
 2452SOL     MW 9808   0.278   0.208   1.597  0.7450  0.4468  0.5759
 2453SOL     OW 9809   2.183   1.066   2.954 -0.6724  0.2521 -0.1050
 2453SOL    HW1 9810   2.240   1.121   2.899 -0.7183 -0.8950 -1.3401
 2453SOL    HW2 9811   2.095   1.097   2.935 -0.6799 -0.0670 -0.6193
 2453SOL     MW 9812   2.179   1.077   2.944 -0.6792  0.0644 -0.3289
 2454SOL     OW 9813   0.361   3.876   5.309 -0.5451 -0.2915 -0.5374
 2454SOL    HW1 9814   0.312   3.794   5.301  1.7551 -1.9142  0.7575
 2454SOL    HW2 9815   0.297   3.939   5.343 -1.7514 -2.3420  1.3062
 2454SOL     MW 9816   0.346   3.874   5.313 -0.4051 -0.7617 -0.1357
 2455SOL     OW 9817   0.100   4.347   2.846  0.0679 -0.3591  0.0424
 2455SOL    HW1 9818   0.080   4.407   2.774  0.0375 -0.0562  0.2977
 2455SOL    HW2 9819   0.100   4.260   2.806  0.9357 -0.1180 -0.4984
 2455SOL     MW 9820   0.097   4.344   2.832  0.1751 -0.2895  0.0058
 2456SOL     OW 9821   3.986   4.275   1.725  0.0191 -0.1152 -0.4036
 2456SOL    HW1 9822   4.038   4.351   1.698 -0.3361  0.0336 -0.6710
 2456SOL    HW2 9823   4.051   4.205   1.737  0.3879  0.3042  0.1474
 2456SOL     MW 9824   4.001   4.276   1.723  0.0208 -0.0425 -0.3673
 2457SOL     OW 9825   1.386   4.924   4.718  0.0700 -0.1723 -0.0634
 2457SOL    HW1 9826   1.368   4.836   4.685 -0.1745  0.0068 -0.3991
 2457SOL    HW2 9827   1.469   4.949   4.677 -1.2773  0.9127 -2.2555
 2457SOL     MW 9828   1.395   4.916   4.709 -0.1338 -0.0105 -0.3870
 2458SOL     OW 9829   3.874   1.072   1.999  0.7585  0.4427 -0.3182
 2458SOL    HW1 9830   3.855   1.148   2.055  2.4829  0.8592 -0.2206
 2458SOL    HW2 9831   3.959   1.094   1.959  0.2590 -0.4997 -1.9595
 2458SOL     MW 9832   3.883   1.085   2.001  0.9153  0.3754 -0.5158
 2459SOL     OW 9833   1.132   2.550   1.435 -0.5627  0.0727 -0.2011
 2459SOL    HW1 9834   1.200   2.600   1.478 -1.3102  0.6259  0.3584
 2459SOL    HW2 9835   1.179   2.482   1.386  0.2924 -0.7814  1.7227
 2459SOL     MW 9836   1.146   2.547   1.434 -0.5489  0.0342  0.1168
 2460SOL     OW 9837   2.971   1.445   4.413  0.2357  0.4481 -0.0280
 2460SOL    HW1 9838   2.988   1.352   4.404  0.3629  0.2452  1.8573
 2460SOL    HW2 9839   2.945   1.456   4.505 -1.5953  1.9944 -0.6563
 2460SOL     MW 9840   2.970   1.435   4.424  0.0176  0.6200  0.1329
 2461SOL     OW 9841   0.268   0.369   5.076  0.0661  0.3767  0.0776
 2461SOL    HW1 9842   0.186   0.371   5.126  0.6238  0.0524  1.0440
 2461SOL    HW2 9843   0.241   0.362   4.985 -0.9829  0.5243  0.3641
 2461SOL     MW 9844   0.254   0.368   5.071  0.0032  0.3541  0.2380
 2462SOL     OW 9845   2.820   1.738   1.019  0.4699 -0.3129  0.0903
 2462SOL    HW1 9846   2.844   1.654   0.979 -0.3731 -0.1749 -0.7376
 2462SOL    HW2 9847   2.897   1.794   1.004 -0.3143  0.2002 -2.7563
 2462SOL     MW 9848   2.833   1.734   1.012  0.2616 -0.2295 -0.3801
 2463SOL     OW 9849   0.943   3.395   0.723  0.6863 -0.2120  0.5175
 2463SOL    HW1 9850   0.951   3.490   0.719 -0.7393  0.1132  3.1306
 2463SOL    HW2 9851   1.016   3.367   0.778  1.0144 -0.6219 -0.1202
 2463SOL     MW 9852   0.953   3.404   0.730  0.5458 -0.2228  0.7704
 2464SOL     OW 9853   0.149   3.710   5.338 -0.0021  0.8281  0.1353
 2464SOL    HW1 9854   0.165   3.672   5.252 -0.5626  2.0904 -0.5467
 2464SOL    HW2 9855   0.066   3.758   5.329  0.7345  2.3286  0.8934
 2464SOL     MW 9856   0.140   3.712   5.326  0.0205  1.1818  0.1450
 2465SOL     OW 9857   4.950   2.482   1.962 -0.1777  0.4683 -0.1756
 2465SOL    HW1 9858   4.975   2.413   1.899  1.1845  0.6747  0.1065
 2465SOL    HW2 9859   4.941   2.560   1.908 -0.5560  0.3235 -0.3280
 2465SOL     MW 9860   4.952   2.483   1.947 -0.0517  0.4762 -0.1590
 2466SOL     OW 9861   0.098   4.724   3.838 -0.3447  0.4797 -0.5868
 2466SOL    HW1 9862   0.164   4.698   3.773 -0.1290  1.4829 -0.7928
 2466SOL    HW2 9863   0.141   4.711   3.922 -0.2666  0.1154 -0.6832
 2466SOL     MW 9864   0.112   4.719   3.840 -0.3071  0.5615 -0.6255
 2467SOL     OW 9865   1.922   5.397   1.210  0.5287  0.4362 -0.4519
 2467SOL    HW1 9866   2.007   5.434   1.184  0.7648 -0.3382 -0.8107
 2467SOL    HW2 9867   1.940   5.304   1.221 -0.3111  0.2473 -0.6613
 2467SOL     MW 9868   1.935   5.390   1.208  0.4515  0.3129 -0.5246
 2468SOL     OW 9869   1.095   4.637   2.545 -0.3212 -0.2046 -0.0625
 2468SOL    HW1 9870   1.183   4.632   2.508 -0.0079  0.3076  0.5812
 2468SOL    HW2 9871   1.049   4.560   2.510  0.7850 -1.2157  0.6297
 2468SOL     MW 9872   1.100   4.626   2.536 -0.1395 -0.2685  0.1085
 2469SOL     OW 9873   2.633   4.535   5.019  0.0560 -0.2158  0.5705
 2469SOL    HW1 9874   2.573   4.547   4.945 -2.2767  1.0348  2.5055
 2469SOL    HW2 9875   2.644   4.441   5.025  0.1999 -0.3594 -1.2477
 2469SOL     MW 9876   2.626   4.525   5.010 -0.2242 -0.0741  0.5855
 2470SOL     OW 9877   2.016   3.881   1.356 -0.1434 -0.1725 -0.8840
 2470SOL    HW1 9878   2.044   3.972   1.363 -0.4365 -0.1605  0.3590
 2470SOL    HW2 9879   1.994   3.869   1.263  0.8356  0.7303 -1.2403
 2470SOL     MW 9880   2.017   3.891   1.345 -0.0556 -0.0554 -0.7705
 2471SOL     OW 9881   5.286   0.484   0.952 -0.2559 -0.2736  0.4061
 2471SOL    HW1 9882   5.267   0.508   0.861  0.9234 -1.5638 -0.2421
 2471SOL    HW2 9883   5.202   0.484   0.996 -0.7433  1.2159 -0.4693
 2471SOL     MW 9884   5.273   0.487   0.946 -0.1673 -0.2481  0.2111
 2472SOL     OW 9885   0.708   1.972   2.866  0.2369  0.2483 -0.3369
 2472SOL    HW1 9886   0.755   1.933   2.792 -0.8596 -0.2714 -0.7897
 2472SOL    HW2 9887   0.626   2.005   2.827 -1.2079 -1.6515  0.8958
 2472SOL     MW 9888   0.703   1.971   2.851 -0.0884 -0.0615 -0.2371
 2473SOL     OW 9889   3.782   0.342   3.311 -0.7462 -0.2208 -0.1357
 2473SOL    HW1 9890   3.760   0.269   3.253 -1.5781  0.2618 -0.4348
 2473SOL    HW2 9891   3.730   0.326   3.390 -0.3508 -0.3532  0.1035
 2473SOL     MW 9892   3.772   0.331   3.314 -0.8021 -0.1760 -0.1434
 2474SOL     OW 9893   0.095   4.351   4.566 -0.0708  0.3048 -0.5879
 2474SOL    HW1 9894   0.144   4.429   4.539  2.5995 -0.7047  0.9600
 2474SOL    HW2 9895   0.151   4.309   4.631 -2.1851 -2.0396 -0.1384
 2474SOL     MW 9896   0.109   4.355   4.571  0.0004 -0.1245 -0.3322
 2475SOL     OW 9897   4.189   1.173   4.854  0.3984  1.2211  0.1945
 2475SOL    HW1 9898   4.250   1.211   4.791  0.8296  0.3189  0.0386
 2475SOL    HW2 9899   4.154   1.096   4.809 -0.2228  1.2565  0.6051
 2475SOL     MW 9900   4.192   1.168   4.840  0.3741  1.1101  0.2271
 2476SOL     OW 9901   3.649   0.914   1.189  0.0346  0.2471  0.3476
 2476SOL    HW1 9902   3.617   1.000   1.163  0.5349  0.3730  0.1459
 2476SOL    HW2 9903   3.570   0.859   1.191 -0.2230  0.6017  0.0546
 2476SOL     MW 9904   3.634   0.918   1.186  0.0656  0.3086  0.2843
 2477SOL     OW 9905   4.526   3.528   2.607  0.2391  0.1310 -0.4927
 2477SOL    HW1 9906   4.558   3.438   2.610  0.7535  0.3222  0.9373
 2477SOL    HW2 9907   4.472   3.536   2.686 -2.0958  0.2922 -2.0244
 2477SOL     MW 9908   4.524   3.517   2.618  0.0061  0.1761 -0.5057
 2478SOL     OW 9909   5.439   2.339   2.481 -0.1550  0.2075 -0.0213
 2478SOL    HW1 9910   5.377   2.404   2.517 -0.5874 -0.2226  0.0217
 2478SOL    HW2 9911   5.438   2.355   2.387  2.3448  2.5530  0.2283
 2478SOL     MW 9912   5.431   2.350   2.474  0.1097  0.4527  0.0161
 2479SOL     OW 9913   3.283   1.324   4.440  0.0690  0.2007 -0.3150
 2479SOL    HW1 9914   3.270   1.242   4.487 -1.4701  0.3946 -0.3543
 2479SOL    HW2 9915   3.348   1.303   4.373  1.8434 -0.2244  1.4755
 2479SOL     MW 9916   3.289   1.310   4.437  0.0992  0.1711 -0.0908
 2480SOL     OW 9917   2.520   1.112   0.707 -0.1549  0.1963 -0.1166
 2480SOL    HW1 9918   2.580   1.115   0.781  0.7757  1.3863 -0.8707
 2480SOL    HW2 9919   2.433   1.125   0.745  0.2782  0.4584  0.7905
 2480SOL     MW 9920   2.516   1.114   0.721  0.0197  0.3822 -0.0970
 2481SOL     OW 9921   1.681   1.873   3.213  0.4322 -0.0769 -0.0649
 2481SOL    HW1 9922   1.733   1.941   3.169  1.2209  2.7454  4.5451
 2481SOL    HW2 9923   1.592   1.909   3.213  0.6900  0.6718  1.6067
 2481SOL     MW 9924   1.676   1.886   3.207  0.5662  0.3802  0.7392
 2482SOL     OW 9925   0.912   1.061   3.063  0.1432  0.2649  0.2326
 2482SOL    HW1 9926   0.844   1.099   3.007  1.5620  0.1733 -1.6724
 2482SOL    HW2 9927   0.923   1.125   3.134 -1.7523  0.3639  0.5103
 2482SOL     MW 9928   0.904   1.074   3.065  0.0822  0.2659  0.0243
 2483SOL     OW 9929   3.621   2.832   4.213  0.1256  0.3222 -0.1788
 2483SOL    HW1 9930   3.711   2.864   4.213  0.7212 -1.1900  1.6275
 2483SOL    HW2 9931   3.582   2.869   4.292 -1.2627  1.8695 -1.4926
 2483SOL     MW 9932   3.627   2.841   4.223  0.0241  0.3267 -0.1158
 2484SOL     OW 9933   4.557   3.891   4.608  0.2532  0.4459  0.1549
 2484SOL    HW1 9934   4.630   3.952   4.598 -0.7259  1.6459  0.0424
 2484SOL    HW2 9935   4.484   3.934   4.563 -0.5049 -0.7664  0.1840
 2484SOL     MW 9936   4.557   3.904   4.601  0.0308  0.4443  0.1442
 2485SOL     OW 9937   4.734   4.977   0.380 -0.4978 -0.5983  0.2082
 2485SOL    HW1 9938   4.722   4.943   0.292 -0.6530 -0.0096  0.0003
 2485SOL    HW2 9939   4.676   5.052   0.385  0.8341  0.4745  0.1995
 2485SOL     MW 9940   4.725   4.982   0.370 -0.3471 -0.3856  0.1805
 2486SOL     OW 9941   1.639   3.585   4.091 -0.5654  0.1382  0.2896
 2486SOL    HW1 9942   1.618   3.514   4.152 -1.5859  0.2485  0.0840
 2486SOL    HW2 9943   1.590   3.563   4.011  0.2268  0.3465 -0.2676
 2486SOL     MW 9944   1.630   3.573   4.088 -0.5946  0.1790  0.1919
 2487SOL     OW 9945   5.245   3.826   0.754  0.2056 -0.2035 -0.2493
 2487SOL    HW1 9946   5.317   3.764   0.742 -0.4520 -0.9888 -0.1686
 2487SOL    HW2 9947   5.257   3.861   0.842  0.3055 -0.5608 -0.1225
 2487SOL     MW 9948   5.256   3.823   0.764  0.1342 -0.3498 -0.2227
 2488SOL     OW 9949   0.632   4.345   2.422  0.1267  0.1126  1.3677
 2488SOL    HW1 9950   0.691   4.272   2.440  0.1352 -0.8745 -2.0246
 2488SOL    HW2 9951   0.691   4.420   2.410  0.6788 -0.5649 -0.5765
 2488SOL     MW 9952   0.647   4.345   2.423  0.1984 -0.1005  0.6845
 2489SOL     OW 9953   3.733   4.814   1.973  0.5361 -0.3907 -0.4198
 2489SOL    HW1 9954   3.806   4.860   1.930 -0.5837 -0.6788 -2.7901
 2489SOL    HW2 9955   3.757   4.812   2.065  2.6137  1.2243 -0.8478
 2489SOL     MW 9956   3.745   4.820   1.979  0.6587 -0.2209 -0.7780
 2490SOL     OW 9957   2.896   1.657   4.849 -0.0715  0.3117  0.0721
 2490SOL    HW1 9958   2.873   1.608   4.928 -0.6234 -0.0515 -0.3059
 2490SOL    HW2 9959   2.962   1.720   4.878 -0.4588  0.3614  0.8785
 2490SOL     MW 9960   2.901   1.659   4.863 -0.1917  0.2716  0.1269
 2491SOL     OW 9961   2.894   4.555   4.981 -0.2839 -0.5453  0.0833
 2491SOL    HW1 9962   2.802   4.550   5.009 -0.7285  2.1970 -0.6145
 2491SOL    HW2 9963   2.944   4.541   5.061 -1.2817 -1.5935  0.5666
 2491SOL     MW 9964   2.888   4.552   4.995 -0.4685 -0.3284  0.0559
 2492SOL     OW 9965   5.239   1.153   2.113  0.1355 -0.1363 -0.1651
 2492SOL    HW1 9966   5.201   1.078   2.066 -0.9038 -1.9020  3.1385
 2492SOL    HW2 9967   5.169   1.218   2.114  0.0610 -0.1993 -0.7341
 2492SOL     MW 9968   5.225   1.152   2.107 -0.0070 -0.3704  0.1850
 2493SOL     OW 9969   3.659   2.568   5.079 -0.3223 -0.0875 -0.2276
 2493SOL    HW1 9970   3.746   2.562   5.119 -1.0317  1.0870  1.6358
 2493SOL    HW2 9971   3.667   2.521   4.996  1.8640 -0.6846  0.2631
 2493SOL     MW 9972   3.671   2.561   5.073 -0.1332 -0.0136  0.0737
 2494SOL     OW 9973   3.228   0.902   1.905  0.3680  0.6036 -0.7695
 2494SOL    HW1 9974   3.244   0.813   1.937 -1.6637 -0.0235 -1.3624
 2494SOL    HW2 9975   3.311   0.948   1.921  1.3276 -1.2529 -0.0424
 2494SOL     MW 9976   3.241   0.897   1.911  0.2308  0.2857 -0.7523
 2495SOL     OW 9977   2.480   1.484   1.885  0.3098 -0.2550  0.0634
 2495SOL    HW1 9978   2.531   1.564   1.894  0.1164 -0.0755 -0.4199
 2495SOL    HW2 9979   2.461   1.478   1.792  0.5042 -0.9773  0.0605
 2495SOL     MW 9980   2.484   1.493   1.874  0.3099 -0.3245  0.0012
 2496SOL     OW 9981   2.357   0.481   5.376  0.4366 -0.3529 -0.3647
 2496SOL    HW1 9982   2.309   0.403   5.401 -0.4750  0.3020 -0.0203
 2496SOL    HW2 9983   2.329   0.499   5.286  1.7997 -1.2679 -1.0052
 2496SOL     MW 9984   2.347   0.473   5.368  0.4944 -0.3862 -0.4026
 2497SOL     OW 9985   0.041   5.153   3.960  0.3318 -0.2269 -0.4280
 2497SOL    HW1 9986  -0.009   5.212   3.904  0.4803  0.1195 -0.1951
 2497SOL    HW2 9987   0.109   5.117   3.903  0.4076  0.0314 -0.4994
 2497SOL     MW 9988   0.044   5.156   3.946  0.3605 -0.1495 -0.4074
 2498SOL     OW 9989   2.088   5.284   0.270  0.0606  0.4368 -0.1732
 2498SOL    HW1 9990   2.054   5.363   0.229 -1.7756 -0.7352 -1.0308
 2498SOL    HW2 9991   2.099   5.308   0.362  2.6396  2.6001 -0.9161
 2498SOL     MW 9992   2.085   5.297   0.277  0.1557  0.5637 -0.3781
 2499SOL     OW 9993   2.022   1.104   0.154 -0.7271 -0.3031  0.1970
 2499SOL    HW1 9994   2.037   1.051   0.076 -1.1936 -0.0894 -0.0427
 2499SOL    HW2 9995   2.012   1.041   0.225  0.9519 -0.4823  0.3301
 2499SOL     MW 9996   2.023   1.089   0.153 -0.5719 -0.2987  0.1833
 2500SOL     OW 9997   0.218   3.272   1.550 -0.4415 -0.0604  0.3763
 2500SOL    HW1 9998   0.261   3.355   1.570 -0.0495 -0.7004  2.4072
 2500SOL    HW2 9999   0.129   3.296   1.526  0.6877  1.2365 -3.2130
 2500SOL     MW10000   0.212   3.286   1.550 -0.2467  0.0237  0.1768
 2501SOL     OW10001   4.453   2.989   2.316 -0.1461  0.0522 -0.7118
 2501SOL    HW110002   4.536   3.035   2.312 -0.8206  1.3005 -0.9034
 2501SOL    HW210003   4.404   3.034   2.385 -0.4928 -0.9797 -0.2507
 2501SOL     MW10004   4.457   3.000   2.325 -0.2768  0.0799 -0.6773
 2502SOL     OW10005   4.187   2.021   3.731 -0.1697 -0.2795 -0.0675
 2502SOL    HW110006   4.141   1.992   3.652  1.4795  0.6644 -1.4427
 2502SOL    HW210007   4.120   2.019   3.800 -1.6035 -1.3371 -1.4276
 2502SOL     MW10008   4.172   2.017   3.730 -0.1421 -0.2940 -0.4176
 2503SOL     OW10009   3.437   0.292   3.375  0.6455 -0.1043 -0.2222
 2503SOL    HW110010   3.383   0.240   3.315  1.1544 -0.1202 -0.6788
 2503SOL    HW210011   3.466   0.367   3.323 -0.2829  0.7927  0.5031
 2503SOL     MW10012   3.434   0.295   3.361  0.5918  0.0085 -0.1878
 2504SOL     OW10013   3.099   4.194   0.596 -0.1535  0.6821 -0.3787
 2504SOL    HW110014   3.051   4.182   0.678 -0.3060  1.4464 -0.3454
 2504SOL    HW210015   3.033   4.224   0.533  0.2806  1.8344 -0.3083
 2504SOL     MW10016   3.085   4.197   0.598 -0.1174  0.9275 -0.3654
 2505SOL     OW10017   0.816   4.442   3.367 -0.3188 -0.1082 -0.4270
 2505SOL    HW110018   0.900   4.462   3.410 -1.4528 -0.5298  2.1912
 2505SOL    HW210019   0.826   4.351   3.339  0.0922 -0.1720 -0.0927
 2505SOL     MW10020   0.828   4.433   3.369 -0.4113 -0.1704 -0.0490
 2506SOL     OW10021   5.200   0.140   1.951 -0.1154 -0.9829 -0.7238
 2506SOL    HW110022   5.108   0.136   1.925 -0.9143  0.7067  1.5174
 2506SOL    HW210023   5.247   0.158   1.870 -1.7564 -1.6393 -1.8852
 2506SOL     MW10024   5.194   0.142   1.937 -0.4278 -0.8506 -0.5856
 2507SOL     OW10025   4.376   0.258   4.793 -0.5882 -0.4241 -0.3908
 2507SOL    HW110026   4.354   0.211   4.712  1.5964 -1.0435 -0.6789
 2507SOL    HW210027   4.409   0.343   4.764 -1.5040  0.0753 -0.0242
 2507SOL     MW10028   4.377   0.263   4.779 -0.4258 -0.4395 -0.3808
 2508SOL     OW10029   5.481   4.718   4.302  0.3008 -0.0911  0.1087
 2508SOL    HW110030   5.417   4.782   4.333  1.2912  1.4921 -1.0062
 2508SOL    HW210031   5.428   4.655   4.253 -0.5396  0.6189  0.0624
 2508SOL     MW10032   5.466   4.718   4.300  0.3200  0.2024 -0.0399
 2509SOL     OW10033   4.697   2.853   4.993 -0.1655 -0.0615 -0.0852
 2509SOL    HW110034   4.789   2.877   4.998 -0.2539  0.1055  1.5168
 2509SOL    HW210035   4.662   2.879   5.079 -0.9378 -3.1229  0.6423
 2509SOL     MW10036   4.704   2.860   5.005 -0.2757 -0.4320  0.2130
 2510SOL     OW10037   2.351   2.074   5.348  0.0088 -0.2340  0.2995
 2510SOL    HW110038   2.347   2.063   5.253 -0.1590 -0.4111  0.3268
 2510SOL    HW210039   2.284   2.014   5.382 -0.0862 -0.0069  0.5153
 2510SOL     MW10040   2.342   2.065   5.341 -0.0248 -0.2276  0.3306
 2511SOL     OW10041   0.676   1.261   4.414  0.1096  0.0501  0.5117
 2511SOL    HW110042   0.612   1.213   4.361  0.8173  0.4942 -0.7722
 2511SOL    HW210043   0.626   1.332   4.453 -0.3044  0.0590 -0.0179
 2511SOL     MW10044   0.662   1.264   4.412  0.1472  0.1081  0.2796
 2512SOL     OW10045   1.405   1.730   1.219 -0.8627 -0.6726 -0.1765
 2512SOL    HW110046   1.474   1.772   1.168 -0.8784  1.2016  1.2215
 2512SOL    HW210047   1.328   1.785   1.203 -0.4257  1.1574  3.2120
 2512SOL     MW10048   1.404   1.743   1.210 -0.8087 -0.1984  0.4362
 2513SOL     OW10049   2.192   1.989   3.378 -0.1783 -0.6162 -0.2702
 2513SOL    HW110050   2.257   2.030   3.436 -0.5776 -0.6492  0.2070
 2513SOL    HW210051   2.187   1.898   3.409  0.2388 -0.8714 -0.9177
 2513SOL     MW10052   2.200   1.982   3.390 -0.1760 -0.6531 -0.2920
 2514SOL     OW10053   3.663   0.733   2.280  0.3908  0.4185  0.0309
 2514SOL    HW110054   3.675   0.645   2.313  0.9004  0.5449  0.1904
 2514SOL    HW210055   3.740   0.750   2.226 -0.0761  0.4812 -0.6346
 2514SOL     MW10056   3.674   0.724   2.277  0.3962  0.4427 -0.0339
 2515SOL     OW10057   3.346   4.525   4.765 -0.7656 -0.7961 -0.2223
 2515SOL    HW110058   3.368   4.536   4.858 -1.5911 -1.1212  0.0222
 2515SOL    HW210059   3.387   4.600   4.722  1.9487 -2.0406 -0.0329
 2515SOL     MW10060   3.354   4.536   4.771 -0.5238 -0.9970 -0.1667
 2516SOL     OW10061   1.622   1.593   4.052 -0.3190  0.0554 -0.1796
 2516SOL    HW110062   1.605   1.560   3.964  1.3782  1.5943 -1.1672
 2516SOL    HW210063   1.667   1.521   4.096  0.5685 -0.0884 -1.2598
 2516SOL     MW10064   1.626   1.580   4.046  0.0118  0.2340 -0.4443
 2517SOL     OW10065   0.564   5.121   2.466 -0.1945  0.0557  0.3287
 2517SOL    HW110066   0.643   5.085   2.508  0.8481 -1.5801 -2.6953
 2517SOL    HW210067   0.517   5.044   2.435 -0.7579  1.1356 -1.6245
 2517SOL     MW10068   0.568   5.107   2.468 -0.1332 -0.0155 -0.3084
 2518SOL     OW10069   3.658   3.656   3.280  0.2829 -0.0455  0.3141
 2518SOL    HW110070   3.683   3.711   3.206 -0.3366  2.5334  1.8992
 2518SOL    HW210071   3.737   3.608   3.302  1.1356  0.9169 -0.5643
 2518SOL     MW10072   3.671   3.657   3.274  0.3128  0.4078  0.4046
 2519SOL     OW10073   1.137   3.589   1.405  0.0852  0.5172  0.1243
 2519SOL    HW110074   1.044   3.570   1.393  0.4334 -0.7930 -0.7411
 2519SOL    HW210075   1.182   3.517   1.362  1.5172  1.3196  0.2031
 2519SOL     MW10076   1.131   3.577   1.398  0.3131  0.4522  0.0236
 2520SOL     OW10077   2.705   1.997   2.042 -0.2336  0.4013  0.0084
 2520SOL    HW110078   2.662   1.962   1.963  1.7862 -1.2675 -0.4560
 2520SOL    HW210079   2.793   2.018   2.013  1.1119 -1.8160  2.1041
 2520SOL     MW10080   2.710   1.995   2.028  0.1972 -0.0962  0.2172
 2521SOL     OW10081   0.477   0.377   4.164  0.0056  0.0522 -0.5169
 2521SOL    HW110082   0.417   0.399   4.236 -0.6045 -2.5001 -0.1575
 2521SOL    HW210083   0.563   0.404   4.196 -0.6496  1.9509 -0.2238
 2521SOL     MW10084   0.480   0.384   4.178 -0.1564 -0.0315 -0.4334
 2522SOL     OW10085   4.445   4.192   1.666 -0.1866  0.2113  0.1982
 2522SOL    HW110086   4.496   4.177   1.587 -1.0239 -0.7220 -0.1825
 2522SOL    HW210087   4.356   4.207   1.634 -0.1895  1.8328  0.8479
 2522SOL     MW10088   4.440   4.192   1.652 -0.2942  0.2994  0.2326
 2523SOL     OW10089   3.691   1.652  -0.014 -0.2693 -0.2513 -0.6138
 2523SOL    HW110090   3.694   1.622   0.078 -0.5564  0.9947 -0.1852
 2523SOL    HW210091   3.610   1.615  -0.048 -2.1045  2.2628  0.7455
 2523SOL     MW10092   3.681   1.643  -0.006 -0.5409  0.2301 -0.3849
 2524SOL     OW10093   4.998   0.597   1.719  0.0720  0.3601 -0.1652
 2524SOL    HW110094   4.915   0.593   1.768  0.7092 -0.0996  0.8955
 2524SOL    HW210095   4.979   0.553   1.636 -0.0120 -2.3060  1.1798
 2524SOL     MW10096   4.985   0.591   1.714  0.1428 -0.0401  0.1428
 2525SOL     OW10097   0.623   3.480   4.062 -0.4869 -0.4763 -0.3175
 2525SOL    HW110098   0.652   3.506   4.150  1.9502  0.6496 -1.3398
 2525SOL    HW210099   0.556   3.544   4.039  0.0911  0.3075  0.0928
 2525SOL     MW10100   0.618   3.492   4.071 -0.1010 -0.2319 -0.3958
 2526SOL     OW10101   3.570   0.123   2.962  0.1435  0.6840 -0.3531
 2526SOL    HW110102   3.632   0.115   3.035 -1.7100 -0.3533  1.2246
 2526SOL    HW210103   3.582   0.213   2.930  0.2487  1.6159  2.0429
 2526SOL     MW10104   3.580   0.134   2.967 -0.0803  0.6705  0.1556
 2527SOL     OW10105   0.396   3.690   4.051 -0.3883  0.0249  0.2511
 2527SOL    HW110106   0.430   3.761   3.997 -0.8494 -0.0755 -0.1736
 2527SOL    HW210107   0.319   3.659   4.005  0.4136 -1.4914 -0.1440
 2527SOL     MW10108   0.391   3.695   4.038 -0.3447 -0.1821  0.1462
 2528SOL     OW10109   3.768   3.152   2.419 -0.0898 -0.4563  0.0391
 2528SOL    HW110110   3.690   3.164   2.474  0.0189 -0.4875  0.2011
 2528SOL    HW210111   3.804   3.067   2.447 -0.7234 -1.0612 -0.9305
 2528SOL     MW10112   3.763   3.142   2.429 -0.1570 -0.5378 -0.0643
 2529SOL     OW10113   0.787   5.379   3.491  0.2644 -0.1215 -0.6924
 2529SOL    HW110114   0.826   5.429   3.563 -1.8158 -1.9038  1.9040
 2529SOL    HW210115   0.777   5.442   3.420  2.2833  1.7983  0.6143
 2529SOL     MW10116   0.790   5.393   3.491  0.2565 -0.1039 -0.1928
 2530SOL     OW10117   1.647   3.207   1.136 -0.1163 -0.0415 -0.0197
 2530SOL    HW110118   1.651   3.216   1.232 -2.3407  3.0154 -0.0919
 2530SOL    HW210119   1.584   3.136   1.122 -0.2493 -0.0983  0.7935
 2530SOL     MW10120   1.639   3.199   1.147 -0.4181  0.3425  0.0752
 2531SOL     OW10121   1.549   0.409   0.438 -0.3364  0.6806  0.8505
 2531SOL    HW110122   1.612   0.437   0.504 -0.5400 -0.7916  1.7301
 2531SOL    HW210123   1.584   0.441   0.355  0.5397  1.5534  1.5372
 2531SOL     MW10124   1.561   0.417   0.436 -0.2503  0.6039  1.0510
 2532SOL     OW10125   1.953   1.630   2.917 -0.4375  0.1750 -0.4680
 2532SOL    HW110126   1.866   1.604   2.946 -0.6415 -1.2956 -2.1881
 2532SOL    HW210127   1.941   1.651   2.824  1.0960 -0.4901 -0.8502
 2532SOL     MW10128   1.940   1.629   2.909 -0.2673 -0.0984 -0.7371
 2533SOL     OW10129   1.140   1.871   3.537  0.0779  0.5265  0.2246
 2533SOL    HW110130   1.121   1.795   3.482  1.6411  0.6012 -0.4532
 2533SOL    HW210131   1.141   1.836   3.626  0.4525 -0.1946 -0.0531
 2533SOL     MW10132   1.138   1.857   3.541  0.3260  0.4438  0.1023
 2534SOL     OW10133   0.851   2.490   3.537  0.7378 -0.1604  0.9120
 2534SOL    HW110134   0.938   2.529   3.542  0.0401  1.2867  4.1281
 2534SOL    HW210135   0.791   2.565   3.545 -0.7305 -1.4285  2.2894
 2534SOL     MW10136   0.855   2.505   3.539  0.4606 -0.1375  1.5000
 2535SOL     OW10137   2.543   2.572   1.377 -0.2968  0.0321 -0.4098
 2535SOL    HW110138   2.557   2.663   1.349  1.4826  0.1497  0.7575
 2535SOL    HW210139   2.569   2.571   1.469 -4.0411 -0.8006  0.8409
 2535SOL     MW10140   2.548   2.584   1.385 -0.5483 -0.0594 -0.1003
 2536SOL     OW10141   1.187   2.233   4.489 -0.0198 -0.1612 -0.5154
 2536SOL    HW110142   1.115   2.286   4.454 -1.3064 -2.0005 -0.7939
 2536SOL    HW210143   1.209   2.276   4.572 -2.9547 -0.6908  0.6764
 2536SOL     MW10144   1.181   2.245   4.495 -0.5602 -0.4644 -0.3985
 2537SOL     OW10145   1.432   0.611   3.798 -0.4976 -0.6943 -0.0116
 2537SOL    HW110146   1.492   0.627   3.725 -0.4804 -0.1867  0.1084
 2537SOL    HW210147   1.370   0.684   3.795  0.5852  0.3601  1.5781
 2537SOL     MW10148   1.432   0.623   3.789 -0.3568 -0.4943  0.2072
 2538SOL     OW10149   2.183   5.443   2.672  0.1131  0.2113 -0.3314
 2538SOL    HW110150   2.145   5.501   2.606 -0.2699  0.9479  0.5128
 2538SOL    HW210151   2.129   5.457   2.750 -1.1458 -2.6147 -0.5648
 2538SOL     MW10152   2.171   5.452   2.673 -0.0971 -0.0562 -0.2532
 2539SOL     OW10153   3.980   2.002   1.243 -0.3710  0.5209 -0.4830
 2539SOL    HW110154   4.034   1.996   1.322 -0.1593  0.4728 -0.6326
 2539SOL    HW210155   4.037   1.973   1.172 -0.0173  2.0908 -0.8987
 2539SOL     MW10156   3.994   1.998   1.244 -0.2986  0.7157 -0.5554
 2540SOL     OW10157   3.240   1.978   4.083  0.1018  0.3247 -0.0777
 2540SOL    HW110158   3.227   2.047   4.148  0.7603  0.9573 -0.6122
 2540SOL    HW210159   3.257   1.899   4.135 -1.1233  0.4394  0.5484
 2540SOL     MW10160   3.240   1.976   4.098  0.0292  0.4204 -0.0659
 2541SOL     OW10161   2.615   2.638   3.001 -0.0566 -0.2778 -0.1629
 2541SOL    HW110162   2.672   2.695   3.054  0.3836 -0.7807 -0.0887
 2541SOL    HW210163   2.676   2.582   2.953 -0.4599 -0.0121 -1.0043
 2541SOL     MW10164   2.630   2.638   3.002 -0.0519 -0.3082 -0.2611
 2542SOL     OW10165   5.175   1.098   4.682 -0.0513 -0.3529  0.1100
 2542SOL    HW110166   5.239   1.168   4.692 -0.4350 -0.3657  3.8811
 2542SOL    HW210167   5.206   1.048   4.606  1.6205  2.3877 -1.1691
 2542SOL     MW10168   5.187   1.100   4.673  0.1136 -0.0037  0.4290
 2543SOL     OW10169   3.321   4.117   2.483 -0.3345 -0.3358  0.3529
 2543SOL    HW110170   3.345   4.183   2.547 -0.6896  1.1684 -1.0114
 2543SOL    HW210171   3.404   4.075   2.459  0.0898  0.5957  0.1751
 2543SOL     MW10172   3.335   4.120   2.488 -0.3256 -0.0240  0.1555
 2544SOL     OW10173   0.715   2.385   1.329 -0.6479  0.9304  0.3977
 2544SOL    HW110174   0.710   2.463   1.274 -2.2070  1.4620  1.2360
 2544SOL    HW210175   0.660   2.321   1.283 -1.3560  1.1393  0.9366
 2544SOL     MW10176   0.707   2.387   1.316 -0.9381  1.0252  0.5740
 2545SOL     OW10177   3.774   5.474   0.421  0.4624  0.1352  0.2773
 2545SOL    HW110178   3.843   5.413   0.395  1.4716 -0.5946  4.0629
 2545SOL    HW210179   3.695   5.438   0.382  1.5507 -1.5074 -0.5672
 2545SOL     MW10180   3.773   5.462   0.413  0.7309 -0.1685  0.6538
 2546SOL     OW10181   1.125   5.328   0.373 -0.0374 -0.1471 -0.3755
 2546SOL    HW110182   1.127   5.252   0.431 -0.4468 -0.1208 -0.3210
 2546SOL    HW210183   1.032   5.345   0.360  0.0469  0.6310 -0.0167
 2546SOL     MW10184   1.113   5.321   0.379 -0.0790 -0.0442 -0.3226
 2547SOL     OW10185   2.450   0.857   3.010  0.1347  0.0356 -0.0051
 2547SOL    HW110186   2.432   0.945   3.044  2.1826  0.3760  0.3279
 2547SOL    HW210187   2.517   0.822   3.068 -0.2164 -1.5355 -0.5000
 2547SOL     MW10188   2.456   0.864   3.022  0.3519 -0.1219 -0.0258
 2548SOL     OW10189   0.867   0.167   2.137  0.3605  0.0974 -0.4061
 2548SOL    HW110190   0.959   0.142   2.124  0.5870 -0.3191  1.7182
 2548SOL    HW210191   0.820   0.084   2.133  0.2292  0.1633 -0.1926
 2548SOL     MW10192   0.873   0.153   2.135  0.3727  0.0525 -0.1068
 2549SOL     OW10193   0.311   1.467   4.274 -0.0246  0.1095  0.0542
 2549SOL    HW110194   0.399   1.500   4.289  0.3503 -0.2492 -1.1912
 2549SOL    HW210195   0.254   1.524   4.326  0.7422  1.7397 -0.8297
 2549SOL     MW10196   0.315   1.479   4.282  0.1216  0.2723 -0.2184
 2550SOL     OW10197   2.945   0.150   2.269  0.1773  0.4611 -0.2556
 2550SOL    HW110198   3.035   0.164   2.299  0.5272  0.5107 -1.2772
 2550SOL    HW210199   2.892   0.155   2.348  1.1026  0.1733  0.3976
 2550SOL     MW10200   2.950   0.153   2.283  0.3406  0.4306 -0.3028
 2551SOL     OW10201   4.130   3.568  -0.013 -0.1613  0.4811  0.8475
 2551SOL    HW110202   4.087   3.576   0.072 -1.8176  0.5209  0.0512
 2551SOL    HW210203   4.224   3.568   0.007 -0.5148 -0.1924  2.7231
 2551SOL     MW10204   4.137   3.569   0.001 -0.4186  0.4000  0.9856
 2552SOL     OW10205   5.061   5.217   3.985  0.2142 -0.3659  0.7009
 2552SOL    HW110206   5.141   5.187   4.028 -0.7960 -1.2542  2.0728
 2552SOL    HW210207   5.010   5.256   4.055 -1.1959 -1.2232  0.1979
 2552SOL     MW10208   5.065   5.218   4.000 -0.0956 -0.5893  0.8121
 2553SOL     OW10209   5.268   4.031   1.465  0.0469  0.2906  0.5206
 2553SOL    HW110210   5.299   4.100   1.406  1.0529 -1.0457 -0.5682
 2553SOL    HW210211   5.212   3.976   1.410 -0.7587  0.2339  1.3821
 2553SOL     MW10212   5.265   4.033   1.450  0.0725  0.1123  0.4915
 2554SOL     OW10213   4.774   0.755   4.927  0.3365  0.2901 -0.5650
 2554SOL    HW110214   4.825   0.740   5.007  0.9400  1.0166 -0.8085
 2554SOL    HW210215   4.699   0.807   4.956  0.9437  1.1912 -0.5901
 2554SOL     MW10216   4.771   0.760   4.941  0.4915  0.4984 -0.5994
 2555SOL     OW10217   1.797   5.148   5.139 -0.1030  0.2077 -0.2755
 2555SOL    HW110218   1.706   5.121   5.124 -0.8056  1.5790  1.1946
 2555SOL    HW210219   1.795   5.191   5.225  2.3531 -1.5353  0.7657
 2555SOL     MW10220   1.785   5.150   5.148  0.1214  0.1601  0.0460
 2556SOL     OW10221   2.803   4.084   1.547  0.2651  0.1733  0.0265
 2556SOL    HW110222   2.710   4.105   1.550  0.2062 -0.0737 -0.0232
 2556SOL    HW210223   2.807   3.996   1.509  0.5761  0.5301 -0.7783
 2556SOL     MW10224   2.792   4.075   1.543  0.2974  0.1873 -0.0829
 2557SOL     OW10225   1.966   0.692   2.402  1.0230 -0.0637 -0.1785
 2557SOL    HW110226   1.912   0.663   2.329  0.7183  0.2575 -0.0856
 2557SOL    HW210227   1.966   0.788   2.394 -0.9621  0.1570  1.5879
 2557SOL     MW10228   1.959   0.701   2.392  0.7299  0.0057  0.0595
 2558SOL     OW10229   4.739   2.645   2.763  0.5890  0.0115 -0.2039
 2558SOL    HW110230   4.754   2.655   2.669  1.0293  1.1926 -0.0310
 2558SOL    HW210231   4.647   2.619   2.771  0.8626 -1.2983 -1.0032
 2558SOL     MW10232   4.729   2.643   2.752  0.6804 -0.0050 -0.2841
 2559SOL     OW10233   0.077   2.377   2.752  0.1613  0.0855 -0.6109
 2559SOL    HW110234   0.112   2.365   2.664  1.2090 -1.4932 -0.0170
 2559SOL    HW210235  -0.018   2.372   2.741  0.2054  1.2478 -1.8006
 2559SOL     MW10236   0.069   2.375   2.739  0.3010  0.0322 -0.6872
 2560SOL     OW10237   1.372   4.831   2.263 -0.0477  0.2255 -0.2740
 2560SOL    HW110238   1.354   4.921   2.293  1.9603  0.3034  0.9103
 2560SOL    HW210239   1.464   4.817   2.286  0.4074 -1.2815 -2.6956
 2560SOL     MW10240   1.381   4.841   2.270  0.2676  0.0425 -0.4324
 2561SOL     OW10241   1.608   4.330   4.539 -0.4749  0.2024 -0.1535
 2561SOL    HW110242   1.677   4.328   4.473 -0.1728  0.5650  0.1465
 2561SOL    HW210243   1.578   4.239   4.545 -2.5443  0.5498 -2.8847
 2561SOL     MW10244   1.613   4.318   4.531 -0.7011  0.2933 -0.4647
 2562SOL     OW10245   1.311   1.749   3.150  0.0092  0.4417  0.2230
 2562SOL    HW110246   1.338   1.838   3.174  1.0183  0.1835  0.1078
 2562SOL    HW210247   1.238   1.761   3.090 -0.1609  1.1808  0.5639
 2562SOL     MW10248   1.305   1.762   3.145  0.1166  0.5032  0.2519
 2563SOL     OW10249   4.786   0.942   2.931 -0.1190 -0.2355  0.0707
 2563SOL    HW110250   4.720   0.972   2.993 -1.4785  0.8910 -1.8224
 2563SOL    HW210251   4.765   0.849   2.916 -0.0402 -0.3999  0.9312
 2563SOL     MW10252   4.775   0.934   2.937 -0.2829 -0.1124 -0.0615
 2564SOL     OW10253   4.709   1.487   1.547 -0.4537 -0.0333  0.1779
 2564SOL    HW110254   4.778   1.553   1.552 -0.1592 -0.4106  1.5331
 2564SOL    HW210255   4.652   1.516   1.476 -0.0689  1.4103  0.4376
 2564SOL     MW10256   4.711   1.499   1.538 -0.3668  0.1032  0.3846
 2565SOL     OW10257   1.708   1.732   2.550  0.3889  0.1766 -0.1735
 2565SOL    HW110258   1.679   1.789   2.621  0.8845 -0.9838  0.9978
 2565SOL    HW210259   1.803   1.724   2.563  0.4223 -0.3594 -0.7224
 2565SOL     MW10260   1.716   1.738   2.561  0.4567 -0.0406 -0.0938
 2566SOL     OW10261   2.887   3.841   3.154  0.4791  0.2826  0.0794
 2566SOL    HW110262   2.833   3.794   3.090 -0.1715 -0.2258  0.9682
 2566SOL    HW210263   2.966   3.865   3.106 -0.6694  1.3367 -1.3438
 2566SOL     MW10264   2.890   3.838   3.140  0.2488  0.3525  0.0110
 2567SOL     OW10265   0.617   2.407   2.345  0.1444  0.4802  0.0395
 2567SOL    HW110266   0.593   2.361   2.426  0.3285 -1.5206 -0.9865
 2567SOL    HW210267   0.535   2.448   2.316 -0.2566  0.0004  0.4775
 2567SOL     MW10268   0.603   2.407   2.352  0.1166  0.1627 -0.0358
 2568SOL     OW10269   2.368   3.972   1.678 -0.3696  0.5997  0.2822
 2568SOL    HW110270   2.303   3.918   1.634 -0.2413  0.8466 -0.2088
 2568SOL    HW210271   2.431   3.909   1.715 -0.7082  0.3775  0.4860
 2568SOL     MW10272   2.368   3.957   1.677 -0.3965  0.6028  0.2454
 2569SOL     OW10273   3.103   2.588   5.339 -0.3701 -0.4033  0.3192
 2569SOL    HW110274   3.170   2.653   5.320 -0.6364 -0.2165  0.0130
 2569SOL    HW210275   3.152   2.507   5.353 -0.1462 -0.5110 -1.0069
 2569SOL     MW10276   3.118   2.586   5.339 -0.3755 -0.3931  0.1102
 2570SOL     OW10277   4.015   0.556   2.354 -0.4059  0.6324  0.0239
 2570SOL    HW110278   4.049   0.611   2.284  0.7366 -0.7086 -0.4989
 2570SOL    HW210279   4.080   0.487   2.366 -1.0814  0.2191  1.6860
 2570SOL     MW10280   4.028   0.554   2.347 -0.3461  0.4078  0.1697
 2571SOL     OW10281   2.044   0.791   4.199 -0.2038  0.0628 -0.0387
 2571SOL    HW110282   2.027   0.790   4.105  0.5105  1.6705 -0.2188
 2571SOL    HW210283   2.113   0.856   4.210 -0.5675  0.1981  1.6540
 2571SOL     MW10284   2.051   0.799   4.189 -0.1589  0.2859  0.1549
 2572SOL     OW10285   0.425   0.142   2.071 -0.2416 -0.2044  0.1186
 2572SOL    HW110286   0.425   0.117   1.978 -1.3281  1.7034 -0.4541
 2572SOL    HW210287   0.433   0.237   2.070  0.1614 -0.1898  2.0250
 2572SOL     MW10288   0.426   0.151   2.059 -0.3291  0.0417  0.2893
 2573SOL     OW10289   3.955   0.240   1.623 -0.3599  0.2803  0.6048
 2573SOL    HW110290   3.878   0.259   1.676  0.2051  1.5129  1.0206
 2573SOL    HW210291   4.029   0.271   1.675  0.3789 -0.2706 -0.0751
 2573SOL     MW10292   3.954   0.246   1.636 -0.1930  0.3676  0.5710
 2574SOL     OW10293   2.228   5.040   4.441  0.5475 -0.1059  0.1686
 2574SOL    HW110294   2.313   5.058   4.482  0.9341  1.4925 -1.1851
 2574SOL    HW210295   2.216   4.946   4.450  1.9211 -0.2051  1.4009
 2574SOL     MW10296   2.237   5.030   4.448  0.7728  0.0860  0.1531
 2575SOL     OW10297   1.351   3.423   5.415  0.0729  0.1421  0.3134
 2575SOL    HW110298   1.314   3.427   5.326  2.1471  2.5936 -0.5628
 2575SOL    HW210299   1.442   3.397   5.402  0.7753  1.7875  1.5158
 2575SOL     MW10300   1.358   3.420   5.402  0.4284  0.6665  0.3552
 2576SOL     OW10301   2.789   0.792   4.913 -0.0911  0.6755 -0.6067
 2576SOL    HW110302   2.764   0.739   4.989 -0.2414 -0.2095 -1.2557
 2576SOL    HW210303   2.734   0.759   4.842  0.4357  1.1211 -1.2264
 2576SOL     MW10304   2.779   0.781   4.914 -0.0429  0.6193 -0.7691
 2577SOL     OW10305   2.827   4.520   2.505  1.0308  0.7523 -0.3577
 2577SOL    HW110306   2.919   4.542   2.487  1.2028  0.4497  0.1367
 2577SOL    HW210307   2.793   4.493   2.420  2.3235 -2.4012 -0.0204
 2577SOL     MW10308   2.835   4.519   2.492  1.2183  0.3099 -0.2512
 2578SOL     OW10309   0.648   3.494   2.941 -0.0134 -0.0794  0.7390
 2578SOL    HW110310   0.587   3.425   2.967 -1.9497  1.1020 -0.4361
 2578SOL    HW210311   0.664   3.543   3.021 -2.6462  1.0585  0.6732
 2578SOL     MW10312   0.642   3.492   2.954 -0.5983  0.2175  0.5801
 2579SOL     OW10313   4.545   0.943   2.275  0.3858  0.5626 -0.4405
 2579SOL    HW110314   4.526   0.982   2.361 -0.5156  0.5398 -0.6173
 2579SOL    HW210315   4.623   0.890   2.289 -0.4090 -0.3619  0.6507
 2579SOL     MW10316   4.552   0.941   2.288  0.1687  0.4414 -0.3234
 2580SOL     OW10317   5.092   4.943   4.777  0.1508 -0.1492  0.4745
 2580SOL    HW110318   5.014   4.963   4.829  0.7584  0.0828  1.3148
 2580SOL    HW210319   5.165   4.963   4.835  0.8571  0.3464 -0.5574
 2580SOL     MW10320   5.091   4.948   4.791  0.3190 -0.0561  0.4500
 2581SOL     OW10321   0.704   2.788   1.565  0.5628 -0.1529  0.6219
 2581SOL    HW110322   0.787   2.792   1.518  0.2855  1.2549  0.2042
 2581SOL    HW210323   0.640   2.820   1.502 -0.0380  0.3774  1.4884
 2581SOL     MW10324   0.707   2.793   1.551  0.4504  0.0952  0.6793
 2582SOL     OW10325   3.113   2.987   4.360 -0.4057 -0.2648 -0.1396
 2582SOL    HW110326   3.169   2.988   4.437 -0.5207  0.5740 -0.0669
 2582SOL    HW210327   3.024   2.979   4.395 -0.3395 -1.9903 -0.2650
 2582SOL     MW10328   3.109   2.986   4.374 -0.4120 -0.3783 -0.1464
 2583SOL     OW10329   3.173   0.462   3.476  0.0816  0.1375 -0.1424
 2583SOL    HW110330   3.134   0.505   3.400 -0.1120  0.3094  0.0546
 2583SOL    HW210331   3.114   0.389   3.495 -0.7488  1.0307  0.8203
 2583SOL     MW10332   3.160   0.458   3.469 -0.0495  0.2738  0.0060
 2584SOL     OW10333   2.064   5.168   4.276  0.3113 -0.0017 -0.1367
 2584SOL    HW110334   1.980   5.122   4.283  0.8534 -0.8577  1.1318
 2584SOL    HW210335   2.123   5.119   4.334  1.2096  1.6603  0.3993
 2584SOL     MW10336   2.061   5.156   4.284  0.4957  0.1015  0.0943
 2585SOL     OW10337   1.984   4.237   5.102 -0.1090 -0.0945  0.1869
 2585SOL    HW110338   1.934   4.297   5.158  0.5551  3.0658 -2.2904
 2585SOL    HW210339   1.929   4.226   5.024  1.2211  0.0524 -0.8084
 2585SOL     MW10340   1.971   4.243   5.099  0.1463  0.3289 -0.2576
 2586SOL     OW10341   4.714   1.511   2.835 -0.4298  0.3797 -0.3173
 2586SOL    HW110342   4.647   1.566   2.796 -0.5666  0.1046 -0.4756
 2586SOL    HW210343   4.727   1.440   2.772  0.1517  0.5388 -0.3777
 2586SOL     MW10344   4.707   1.509   2.822 -0.3729  0.3648 -0.3453
 2587SOL     OW10345   3.678   1.520   3.996  0.1386  0.4110 -0.2914
 2587SOL    HW110346   3.671   1.426   3.980 -0.1879  0.5874 -1.2536
 2587SOL    HW210347   3.612   1.538   4.063 -0.1568  0.0361 -0.4784
 2587SOL     MW10348   3.669   1.510   4.003  0.0590  0.3856 -0.4385
 2588SOL     OW10349   3.411   0.790   1.184 -0.3631 -0.2725  0.3325
 2588SOL    HW110350   3.370   0.859   1.237 -0.1512  1.5668 -1.7768
 2588SOL    HW210351   3.342   0.764   1.122  0.1020 -0.7925  0.0262
 2588SOL     MW10352   3.397   0.795   1.183 -0.2764 -0.1036  0.0233
 2589SOL     OW10353   0.691   0.668   5.215 -0.4335  0.3382  0.0688
 2589SOL    HW110354   0.621   0.606   5.192  0.4838 -0.8532  0.3595
 2589SOL    HW210355   0.703   0.721   5.136 -1.8458  0.7663  0.1144
 2589SOL     MW10356   0.683   0.667   5.202 -0.4968  0.2405  0.1119
 2590SOL     OW10357   3.770   3.702   5.144 -0.2917 -0.9868 -0.0589
 2590SOL    HW110358   3.741   3.741   5.226  1.3770 -1.2009  0.6731
 2590SOL    HW210359   3.697   3.715   5.084 -0.9087  0.6303  0.9910
 2590SOL     MW10360   3.757   3.708   5.147 -0.1571 -0.8072  0.1692
 2591SOL     OW10361   3.503   0.143   2.517  0.3930  0.4913 -0.3877
 2591SOL    HW110362   3.425   0.194   2.535 -0.3863 -0.3915 -1.1775
 2591SOL    HW210363   3.520   0.155   2.424  0.0797 -0.8174 -0.6364
 2591SOL     MW10364   3.495   0.151   2.507  0.2532  0.2107 -0.5207
 2592SOL     OW10365   1.281   1.616   4.702 -0.7624 -0.3339  0.2645
 2592SOL    HW110366   1.296   1.689   4.642 -2.8236 -2.0177 -2.5317
 2592SOL    HW210367   1.362   1.564   4.698 -1.0297 -0.6497 -1.4658
 2592SOL     MW10368   1.293   1.619   4.694 -1.0605 -0.5899 -0.3149
 2593SOL     OW10369   5.043   1.792   0.320  0.9364  0.2554 -0.3550
 2593SOL    HW110370   5.043   1.724   0.252  3.5301 -0.7660  0.5628
 2593SOL    HW210371   5.123   1.841   0.304  0.1242  1.8605  0.2689
 2593SOL     MW10372   5.053   1.789   0.309  1.1644  0.3301 -0.1576
 2594SOL     OW10373   3.263   5.318   5.337  0.0906  0.6411 -0.0922
 2594SOL    HW110374   3.232   5.388   5.395 -1.5245  0.2467 -0.4559
 2594SOL    HW210375   3.191   5.256   5.333  0.7009 -0.0093 -1.4784
 2594SOL     MW10376   3.250   5.319   5.344 -0.0380  0.5074 -0.3162
 2595SOL     OW10377   0.929   0.577   1.221 -0.0585  0.3437 -0.0355
 2595SOL    HW110378   0.889   0.646   1.273  1.3290  0.7431  0.5418
 2595SOL    HW210379   0.968   0.518   1.285  0.7216  0.2417 -0.5846
 2595SOL     MW10380   0.929   0.578   1.236  0.2190  0.3818 -0.0319
 2596SOL     OW10381   0.450   3.527   5.322  0.7475 -0.0796 -0.3647
 2596SOL    HW110382   0.471   3.439   5.291  2.3193 -0.6334  1.9448
 2596SOL    HW210383   0.513   3.583   5.277 -0.2899 -0.0738 -1.8832
 2596SOL     MW10384   0.461   3.523   5.312  0.8159 -0.1497 -0.2634
 2597SOL     OW10385   2.582   5.289   4.426 -0.7989  0.9735  0.0402
 2597SOL    HW110386   2.629   5.362   4.466 -0.0318  0.3204  0.3603
 2597SOL    HW210387   2.520   5.331   4.366  1.0133  1.8783 -1.3545
 2597SOL     MW10388   2.580   5.304   4.423 -0.4687  1.0058 -0.0973
 2598SOL     OW10389   2.048   4.718   0.494 -0.4809 -0.4218 -0.2446
 2598SOL    HW110390   2.081   4.801   0.460 -1.0086 -0.3018 -0.4804
 2598SOL    HW210391   1.955   4.733   0.509 -0.4054 -0.7118  0.5404
 2598SOL     MW10392   2.040   4.730   0.492 -0.5388 -0.4436 -0.1743
 2599SOL     OW10393   1.276   0.034   3.244 -0.0332  0.7183  0.0999
 2599SOL    HW110394   1.220   0.013   3.319  1.0922  0.2673  0.8400
 2599SOL    HW210395   1.272  -0.043   3.188  0.3649  0.4063  0.4894
 2599SOL     MW10396   1.269   0.022   3.247  0.1619  0.6206  0.2445
 2600SOL     OW10397   1.546   2.015   0.885 -0.1625  0.0992  0.5187
 2600SOL    HW110398   1.520   1.983   0.799 -1.2466 -0.5242  1.0596
 2600SOL    HW210399   1.623   2.069   0.868 -1.5364  1.6710 -1.1093
 2600SOL     MW10400   1.553   2.018   0.872 -0.4772  0.2206  0.3795
 2601SOL     OW10401   2.822   3.115   4.262 -0.5251 -0.2533 -0.0275
 2601SOL    HW110402   2.730   3.133   4.245 -0.9826 -1.8203  0.6367
 2601SOL    HW210403   2.869   3.190   4.225 -1.9386 -0.2424 -1.9199
 2601SOL     MW10404   2.817   3.127   4.255 -0.7646 -0.4525 -0.1847
 2602SOL     OW10405   1.652   4.700   3.250  0.2508  0.5269 -0.1789
 2602SOL    HW110406   1.606   4.762   3.195  1.7742  1.1338 -0.8420
 2602SOL    HW210407   1.693   4.639   3.188 -0.0016 -0.2391  0.3942
 2602SOL     MW10408   1.652   4.700   3.235  0.4135  0.5065 -0.1904
 2603SOL     OW10409   2.959   2.558   0.101 -0.2562 -0.0397  0.2987
 2603SOL    HW110410   2.879   2.510   0.080  1.3884 -2.3914 -1.0979
 2603SOL    HW210411   2.991   2.591   0.017 -0.2162  1.7324  0.9620
 2603SOL     MW10412   2.953   2.556   0.088 -0.0405 -0.1139  0.2048
 2604SOL     OW10413   4.849   5.192   0.180 -0.0917 -0.1870 -0.4881
 2604SOL    HW110414   4.863   5.132   0.253 -1.1912  0.6783  0.4905
 2604SOL    HW210415   4.925   5.250   0.181  0.9201 -1.4679 -1.3706
 2604SOL     MW10416   4.860   5.192   0.190 -0.1029 -0.2402 -0.4758
 2605SOL     OW10417   4.160   1.122   4.245  0.1165  0.2896  0.7663
 2605SOL    HW110418   4.132   1.050   4.189 -1.0697  1.5522 -0.3381
 2605SOL    HW210419   4.246   1.148   4.210  0.1707 -0.0532  0.6437
 2605SOL     MW10420   4.167   1.116   4.233 -0.0284  0.4074  0.6092
 2606SOL     OW10421   1.249   2.017   2.749 -0.4565  0.4686 -0.3078
 2606SOL    HW110422   1.340   2.021   2.777 -1.0889 -0.0192  2.0593
 2606SOL    HW210423   1.220   2.109   2.748 -0.1874  0.5564 -0.1727
 2606SOL     MW10424   1.257   2.029   2.752 -0.5030  0.4174  0.0125
 2607SOL     OW10425   1.567   2.876   2.318 -0.2230  0.2662  0.1388
 2607SOL    HW110426   1.587   2.943   2.253 -1.0847  0.9297  0.5454
 2607SOL    HW210427   1.645   2.820   2.320  0.8714  1.7580  0.4349
 2607SOL     MW10428   1.580   2.877   2.310 -0.1932  0.5421  0.2288
 2608SOL     OW10429   1.634   1.818   1.055  0.1829 -0.6811 -0.6335
 2608SOL    HW110430   1.594   1.870   0.986  0.5245 -0.8344 -0.9564
 2608SOL    HW210431   1.714   1.865   1.077 -1.3142  0.9458  1.7288
 2608SOL     MW10432   1.639   1.830   1.049  0.0350 -0.4924 -0.3725
 2609SOL     OW10433   5.267   1.160   0.735 -0.4320  0.3652  0.4422
 2609SOL    HW110434   5.297   1.178   0.646  2.8045 -1.5686  0.9753
 2609SOL    HW210435   5.173   1.150   0.727 -0.1754 -0.6893 -2.9692
 2609SOL     MW10436   5.259   1.161   0.723  0.0151 -0.0173  0.0738
 2610SOL     OW10437   2.731   1.510   1.431  0.1779  0.3961  0.3066
 2610SOL    HW110438   2.664   1.575   1.413  1.8475  1.8761 -0.9333
 2610SOL    HW210439   2.796   1.523   1.362  1.1812 -1.7769  0.7553
 2610SOL     MW10440   2.731   1.520   1.420  0.5201  0.3074  0.2053
 2611SOL     OW10441   3.815   4.214   0.073 -0.2755 -0.1409 -0.3785
 2611SOL    HW110442   3.834   4.137   0.126  0.0712  0.6490  0.6855
 2611SOL    HW210443   3.874   4.281   0.107 -1.0584  0.7878 -0.8020
 2611SOL     MW10444   3.825   4.213   0.084 -0.3313  0.0791 -0.2965
 2612SOL     OW10445   2.216   0.543   0.484  0.1412  0.2405  0.2996
 2612SOL    HW110446   2.160   0.581   0.552  0.3361  0.8194  0.1476
 2612SOL    HW210447   2.302   0.535   0.526  0.9019  2.8624 -0.5476
 2612SOL     MW10448   2.220   0.547   0.498  0.2635  0.6503  0.1717
 2613SOL     OW10449   1.031   1.724   1.765  0.1957 -0.3255  0.3101
 2613SOL    HW110450   0.940   1.706   1.788  0.1911  1.3815  1.9170
 2613SOL    HW210451   1.026   1.790   1.696  0.2024  0.0543  0.6692
 2613SOL     MW10452   1.019   1.730   1.760  0.1959 -0.0584  0.5618
 2614SOL     OW10453   4.921   3.241   2.150 -0.2021  0.6233 -0.2984
 2614SOL    HW110454   4.937   3.307   2.217 -0.9220  1.8955 -1.3494
 2614SOL    HW210455   4.996   3.247   2.091  0.0056  0.0939 -0.1016
 2614SOL     MW10456   4.933   3.250   2.151 -0.2677  0.7184 -0.4078
 2615SOL     OW10457   0.208   2.185   1.703 -0.5685  0.0763 -0.1101
 2615SOL    HW110458   0.201   2.156   1.794 -0.4580 -0.6597 -0.3324
 2615SOL    HW210459   0.295   2.225   1.698 -0.7704  0.5729  0.2293
 2615SOL     MW10460   0.219   2.187   1.714 -0.5802  0.0457 -0.0951
 2616SOL     OW10461   1.643   3.846   3.900  0.0937  0.1665 -0.6512
 2616SOL    HW110462   1.701   3.892   3.961 -0.3521 -0.4736  0.2797
 2616SOL    HW210463   1.610   3.914   3.842 -0.6585  1.0735  0.7751
 2616SOL     MW10464   1.647   3.861   3.900 -0.0597  0.2007 -0.3494
 2617SOL     OW10465   1.869   0.902   4.388  0.1217  0.0621  0.0959
 2617SOL    HW110466   1.927   0.875   4.317 -1.2963  1.8404 -1.9099
 2617SOL    HW210467   1.827   0.822   4.417  0.7481 -0.7316 -1.0955
 2617SOL     MW10468   1.871   0.889   4.383  0.0204  0.1882 -0.3134
 2618SOL     OW10469   1.317   1.431   5.336 -0.2573  0.2517  0.9897
 2618SOL    HW110470   1.341   1.451   5.426 -1.8379  0.0851  1.4887
 2618SOL    HW210471   1.243   1.371   5.344  0.3723 -0.7870 -0.4397
 2618SOL     MW10472   1.310   1.426   5.349 -0.3791  0.0974  0.8706
 2619SOL     OW10473   0.365   2.439   5.437 -0.2495  0.3818  0.0785
 2619SOL    HW110474   0.437   2.483   5.393 -1.4231  1.0552 -1.2763
 2619SOL    HW210475   0.297   2.507   5.444 -1.7998 -0.9641 -1.2978
 2619SOL     MW10476   0.365   2.454   5.433 -0.5982  0.2957 -0.2711
 2620SOL     OW10477   3.397   2.612   3.117  0.1351  0.6366  0.7279
 2620SOL    HW110478   3.425   2.700   3.090 -0.3060  0.9459  1.2711
 2620SOL    HW210479   3.456   2.553   3.069 -0.7485  1.1573 -1.0836
 2620SOL     MW10480   3.408   2.616   3.107 -0.0345  0.7429  0.5655
 2621SOL     OW10481   4.900   1.656   2.972 -0.2046 -0.2482  0.1612
 2621SOL    HW110482   4.827   1.629   2.917  0.5041 -0.8377 -0.5328
 2621SOL    HW210483   4.949   1.575   2.987  0.1443  0.0804  0.8689
 2621SOL     MW10484   4.897   1.642   2.967 -0.0692 -0.2816  0.1630
 2622SOL     OW10485   4.535   3.332   2.309  0.1057  0.3388  0.4505
 2622SOL    HW110486   4.528   3.283   2.391  0.3974  0.2469  0.4194
 2622SOL    HW210487   4.452   3.381   2.303  0.0320  0.2476  0.7350
 2622SOL     MW10488   4.523   3.332   2.319  0.1336  0.3153  0.4830
 2623SOL     OW10489   0.222   2.886   4.697 -0.3375 -0.3395  0.1733
 2623SOL    HW110490   0.147   2.944   4.690 -0.6263 -0.7578 -0.2460
 2623SOL    HW210491   0.193   2.816   4.756  0.0021 -0.0725  0.6639
 2623SOL     MW10492   0.209   2.884   4.704 -0.3310 -0.3588  0.1824
 2624SOL     OW10493   1.251   2.718   2.615  0.2135  0.7115 -0.5214
 2624SOL    HW110494   1.301   2.646   2.653  2.4443  0.9891 -2.6888
 2624SOL    HW210495   1.174   2.726   2.672  0.5123 -2.4868  0.5555
 2624SOL     MW10496   1.247   2.710   2.628  0.5373  0.3376 -0.6610
 2625SOL     OW10497   5.401   4.249   2.546  0.6986 -1.0250  0.1285
 2625SOL    HW110498   5.462   4.219   2.614  1.0070 -0.0345  0.2950
 2625SOL    HW210499   5.455   4.300   2.485  0.2391 -1.0777 -0.3351
 2625SOL     MW10500   5.416   4.251   2.547  0.6792 -0.9050  0.0904
 2626SOL     OW10501   1.062   3.068   2.785  0.3830 -0.1856 -0.6279
 2626SOL    HW110502   1.094   2.977   2.777  0.6647 -0.1822  0.3688
 2626SOL    HW210503   1.014   3.083   2.704  1.9441 -0.5897 -1.6917
 2626SOL     MW10504   1.060   3.058   2.773  0.6189 -0.2369 -0.6364
 2627SOL     OW10505   1.493   5.151   3.765 -0.2790 -0.3279 -0.7379
 2627SOL    HW110506   1.480   5.237   3.806  1.4788  0.2127 -1.2337
 2627SOL    HW210507   1.473   5.166   3.672 -1.0821 -0.7521 -0.6405
 2627SOL     MW10508   1.489   5.164   3.758 -0.1568 -0.3130 -0.7889
 2628SOL     OW10509   4.090   2.905   2.383  0.2538 -0.6635 -0.1467
 2628SOL    HW110510   4.145   2.979   2.406 -0.4220  0.6401 -2.4461
 2628SOL    HW210511   4.152   2.836   2.359  0.8833 -0.2170  0.1620
 2628SOL     MW10512   4.105   2.905   2.383  0.2479 -0.4395 -0.4015
 2629SOL     OW10513   2.069   1.519   2.341 -0.7075  0.1713  0.5861
 2629SOL    HW110514   2.001   1.579   2.310 -0.3682 -0.2793 -1.0995
 2629SOL    HW210515   2.060   1.441   2.286  0.2041 -0.4968  1.3523
 2629SOL     MW10516   2.059   1.517   2.330 -0.5474  0.0281  0.4684
 2630SOL     OW10517   3.978   3.880   0.643 -0.3346  0.2930  0.0862
 2630SOL    HW110518   3.907   3.927   0.687 -0.9516 -0.9347  0.4648
 2630SOL    HW210519   4.044   3.947   0.626 -0.7944  1.1217  1.3926
 2630SOL     MW10520   3.977   3.895   0.647 -0.4725  0.2419  0.3019
 2631SOL     OW10521   2.422   0.738   3.813 -0.3935 -0.4441 -0.1484
 2631SOL    HW110522   2.444   0.645   3.801 -0.0639 -0.3901  0.0372
 2631SOL    HW210523   2.399   0.768   3.725  1.4874 -0.1845 -0.5940
 2631SOL     MW10524   2.422   0.730   3.800 -0.1105 -0.4040 -0.1817
 2632SOL     OW10525   5.406   5.200   1.901 -0.0999 -0.6229  0.3530
 2632SOL    HW110526   5.377   5.246   1.980 -1.5516 -0.5689 -0.1830
 2632SOL    HW210527   5.328   5.154   1.870 -0.2382  1.1547 -2.2900
 2632SOL     MW10528   5.392   5.200   1.907 -0.3035 -0.3885 -0.0540
 2633SOL     OW10529   4.298   5.083   2.092  0.4559 -0.0843 -0.1513
 2633SOL    HW110530   4.262   5.171   2.082  1.0099  0.0697 -0.9586
 2633SOL    HW210531   4.380   5.095   2.141 -0.3661 -0.3861  1.3506
 2633SOL     MW10532   4.304   5.095   2.097  0.4216 -0.1032 -0.0624
 2634SOL     OW10533   3.740   1.937   1.666 -0.5094 -0.3807  0.0197
 2634SOL    HW110534   3.778   1.853   1.689  1.5451  0.4019 -0.2994
 2634SOL    HW210535   3.737   1.937   1.570  1.7273  0.7339 -0.1293
 2634SOL     MW10536   3.744   1.926   1.656  0.0399 -0.1378 -0.0402
 2635SOL     OW10537   2.493   3.635   3.391 -0.1372 -0.2171 -0.2041
 2635SOL    HW110538   2.561   3.570   3.410  1.4123  0.7657 -2.0681
 2635SOL    HW210539   2.433   3.628   3.465  2.6581 -0.2287  2.2865
 2635SOL     MW10540   2.494   3.626   3.403  0.4190 -0.0928 -0.1239
 2636SOL     OW10541   3.376   3.693   1.138 -0.1103  0.5917 -0.1856
 2636SOL    HW110542   3.412   3.609   1.108  1.4287  0.6829  1.2686
 2636SOL    HW210543   3.394   3.753   1.066 -0.6297 -0.1674 -0.9729
 2636SOL     MW10544   3.383   3.690   1.125  0.0202  0.5062 -0.1003
 2637SOL     OW10545   2.949   3.846   5.414 -0.1197  0.5031  0.1146
 2637SOL    HW110546   2.972   3.797   5.335  2.2271 -1.5033  1.8780
 2637SOL    HW210547   3.015   3.916   5.418 -1.2874  1.6782 -0.5393
 2637SOL     MW10548   2.960   3.849   5.405  0.0312  0.3967  0.2567
 2638SOL     OW10549   3.911   3.665   4.725  0.3646  0.1630  0.0439
 2638SOL    HW110550   3.873   3.605   4.660  0.9783 -0.5950  0.3681
 2638SOL    HW210551   3.854   3.741   4.723 -2.2268 -1.5813  1.7443
 2638SOL     MW10552   3.899   3.667   4.716  0.1114 -0.1573  0.3031
 2639SOL     OW10553   1.861   3.260   5.122  0.2428  0.2508  0.4463
 2639SOL    HW110554   1.927   3.309   5.171  0.8106 -1.4712  1.4767
 2639SOL    HW210555   1.793   3.240   5.186 -0.1182 -0.0546 -0.0218
 2639SOL     MW10556   1.861   3.264   5.137  0.2693 -0.0087  0.5183
 2640SOL     OW10557   1.710   2.893   1.219 -0.0512 -0.8359 -0.2729
 2640SOL    HW110558   1.724   2.831   1.290 -0.9705 -0.9216 -0.1503
 2640SOL    HW210559   1.797   2.913   1.186  0.4141 -0.5968  1.0509
 2640SOL     MW10560   1.723   2.888   1.224 -0.1093 -0.8163 -0.0877
 2641SOL     OW10561   3.260   4.031   1.381  0.0857  0.1937  0.0967
 2641SOL    HW110562   3.342   3.994   1.414 -0.0588 -0.3753 -0.1711
 2641SOL    HW210563   3.286   4.078   1.301  0.3378  1.0578  0.6704
 2641SOL     MW10564   3.274   4.032   1.375  0.0995  0.2315  0.1358
 2642SOL     OW10565   3.548   1.683   4.196  0.3571 -0.0559  0.0705
 2642SOL    HW110566   3.624   1.741   4.188  1.3474 -1.1191  1.2338
 2642SOL    HW210567   3.570   1.626   4.270 -1.2282 -0.9412 -0.1046
 2642SOL     MW10568   3.561   1.683   4.205  0.2809 -0.3053  0.1970
 2643SOL     OW10569   3.747   0.793   0.669 -0.0641 -0.8669 -0.8705
 2643SOL    HW110570   3.691   0.827   0.739 -0.5814 -0.6540 -1.3799
 2643SOL    HW210571   3.817   0.857   0.661 -0.6679 -0.2620 -1.3679
 2643SOL     MW10572   3.749   0.805   0.677 -0.2076 -0.7622 -0.9994
 2644SOL     OW10573   4.193   5.308   5.223 -0.0856 -0.4897 -0.4724
 2644SOL    HW110574   4.213   5.295   5.316 -2.3739 -2.2861 -0.1415
 2644SOL    HW210575   4.252   5.248   5.177  0.3231 -0.3641 -0.1182
 2644SOL     MW10576   4.203   5.299   5.229 -0.3262 -0.7036 -0.3847
 2645SOL     OW10577   2.432   4.697   3.333 -0.0938  0.2280 -0.1383
 2645SOL    HW110578   2.510   4.655   3.297 -0.6400 -0.2570 -0.7752
 2645SOL    HW210579   2.396   4.632   3.394  1.1155  1.2366  1.7746
 2645SOL     MW10580   2.438   4.684   3.337 -0.0089  0.2950  0.0250
 2646SOL     OW10581   2.661   2.445   4.670 -0.0353  0.2366  0.2501
 2646SOL    HW110582   2.694   2.535   4.667 -0.8277  0.5543  0.9798
 2646SOL    HW210583   2.626   2.435   4.758  3.5170 -2.0409  1.6545
 2646SOL     MW10584   2.661   2.455   4.681  0.3180 -0.0143  0.5233
 2647SOL     OW10585   4.909   1.179   3.540 -0.4083 -0.4480 -0.3954
 2647SOL    HW110586   4.917   1.108   3.603  0.8250  0.2209  0.2397
 2647SOL    HW210587   4.926   1.137   3.455 -0.6758 -1.0945 -0.1357
 2647SOL     MW10588   4.912   1.165   3.537 -0.2847 -0.4451 -0.2808
 2648SOL     OW10589   5.388   4.287   1.800 -0.2173 -0.0127  0.0011
 2648SOL    HW110590   5.391   4.382   1.787 -1.5297 -0.2413 -2.6388
 2648SOL    HW210591   5.459   4.253   1.745 -0.5709 -0.6217 -0.0913
 2648SOL     MW10592   5.397   4.295   1.791 -0.4305 -0.1199 -0.3487
 2649SOL     OW10593   2.041   0.111   2.851  0.1311  0.5299 -0.5079
 2649SOL    HW110594   2.041   0.199   2.891  0.7034  0.4534 -0.3307
 2649SOL    HW210595   2.015   0.053   2.922  0.0756  0.5190 -0.5376
 2649SOL     MW10596   2.038   0.115   2.865  0.1973  0.5187 -0.4890
 2650SOL     OW10597   4.436   0.711   0.875  0.0950  0.1767 -0.6036
 2650SOL    HW110598   4.515   0.765   0.877  0.3123 -0.1523 -0.0664
 2650SOL    HW210599   4.393   0.735   0.793  0.5585  0.6345 -0.7208
 2650SOL     MW10600   4.441   0.721   0.865  0.1821  0.1932 -0.5499
 2651SOL     OW10601   4.225   1.974   5.022  0.1328 -0.4198 -0.0093
 2651SOL    HW110602   4.158   1.908   5.002 -0.5410  0.4426 -0.6675
 2651SOL    HW210603   4.218   1.986   5.117 -2.0956  1.1114 -0.2978
 2651SOL     MW10604   4.215   1.967   5.032 -0.2387 -0.1134 -0.1305
 2652SOL     OW10605   2.775   5.102   3.535  0.0210  0.2522  0.1301
 2652SOL    HW110606   2.764   5.079   3.627 -0.5780  1.5216  0.4039
 2652SOL    HW210607   2.761   5.197   3.532  0.8928  0.3726 -1.1426
 2652SOL     MW10608   2.772   5.111   3.547  0.0559  0.4301  0.0022
 2653SOL     OW10609   2.927   4.487   1.082 -0.5580 -0.4792  0.1289
 2653SOL    HW110610   2.920   4.392   1.089  0.3753 -0.5463  0.2436
 2653SOL    HW210611   3.019   4.506   1.101 -0.4091  0.3182 -1.2587
 2653SOL     MW10612   2.938   4.478   1.086 -0.4195 -0.3857 -0.0341
 2654SOL     OW10613   4.579   0.072   3.556  0.3737 -0.0934 -0.2093
 2654SOL    HW110614   4.549   0.110   3.638  0.1649 -2.2577  0.7781
 2654SOL    HW210615   4.499   0.038   3.515  0.5783  0.3056 -0.9575
 2654SOL     MW10616   4.565   0.073   3.561  0.3732 -0.3194 -0.1787
 2655SOL     OW10617   0.709   4.599   1.019 -0.5001 -0.0874 -0.1044
 2655SOL    HW110618   0.685   4.509   0.997  0.4672 -0.0886 -1.2766
 2655SOL    HW210619   0.803   4.594   1.040 -0.2007  0.7670 -1.1047
 2655SOL     MW10620   0.718   4.587   1.019 -0.3380  0.0218 -0.3825
 2656SOL     OW10621   2.981   2.061   5.194 -0.5367  0.1233  0.3475
 2656SOL    HW110622   3.050   1.995   5.203 -0.4993  0.3871  2.7969
 2656SOL    HW210623   2.968   2.094   5.283 -2.8851  1.0652 -0.2688
 2656SOL     MW10624   2.988   2.057   5.206 -0.8325  0.2776  0.5821
 2657SOL     OW10625   5.211   2.608   0.470  0.1365 -0.3717  0.6286
 2657SOL    HW110626   5.244   2.525   0.435 -1.8017 -0.6884 -0.5759
 2657SOL    HW210627   5.150   2.640   0.403 -0.5061  1.1441  1.8763
 2657SOL     MW10628   5.208   2.602   0.457 -0.1939 -0.2182  0.6341
 2658SOL     OW10629   1.820   1.092   3.157 -0.0939 -0.0099 -0.6710
 2658SOL    HW110630   1.861   1.173   3.186 -0.0829  0.5300 -2.1194
 2658SOL    HW210631   1.731   1.117   3.132  0.2858 -0.1793 -2.2828
 2658SOL     MW10632   1.813   1.106   3.157 -0.0439  0.0376 -1.0627
 2659SOL     OW10633   2.935   3.822   4.550  0.1006 -0.2396 -0.2251
 2659SOL    HW110634   2.845   3.835   4.582  0.3334 -0.3454  0.4818
 2659SOL    HW210635   2.927   3.831   4.455 -0.9567 -1.8648 -0.3413
 2659SOL     MW10636   2.922   3.825   4.542 -0.0050 -0.4612 -0.1495
 2660SOL     OW10637   3.544   4.854   0.026 -0.4503 -0.4764  0.6220
 2660SOL    HW110638   3.509   4.780  -0.024  1.1660 -1.5257  0.9392
 2660SOL    HW210639   3.479   4.871   0.094 -1.4581 -0.7319 -0.2520
 2660SOL     MW10640   3.532   4.847   0.028 -0.3724 -0.6434  0.5507
 2661SOL     OW10641   2.709   3.005   2.167 -0.6050  0.1282 -0.0894
 2661SOL    HW110642   2.775   3.014   2.098  0.7655 -1.3834  0.9413
 2661SOL    HW210643   2.760   2.992   2.247 -2.1459  1.8273  1.2551
 2661SOL     MW10644   2.724   3.005   2.169 -0.6268  0.1522  0.2147
 2662SOL     OW10645   2.223   3.071   3.205  0.2210 -0.2740 -0.3645
 2662SOL    HW110646   2.303   3.019   3.195 -0.6898 -1.6913 -0.6232
 2662SOL    HW210647   2.153   3.006   3.211 -0.8458  0.9059  0.6402
 2662SOL     MW10648   2.225   3.056   3.205 -0.0322 -0.3044 -0.2690
 2663SOL     OW10649   1.376   0.656   5.000  0.0566  0.5572  0.2416
 2663SOL    HW110650   1.325   0.712   5.060  0.9971  0.5170  1.1178
 2663SOL    HW210651   1.447   0.622   5.055 -1.0666 -2.4092  0.0528
 2663SOL     MW10652   1.379   0.659   5.015  0.0332  0.1723  0.3296
 2664SOL     OW10653   5.102   0.986   1.918 -0.0960  0.0497  0.2243
 2664SOL    HW110654   5.066   1.041   1.848  2.2652  2.4071  0.6816
 2664SOL    HW210655   5.027   0.938   1.953 -2.3116  2.7992 -0.4386
 2664SOL     MW10656   5.088   0.987   1.913 -0.0774  0.7035  0.1980
 2665SOL     OW10657   0.077   1.224   2.746 -0.3145  0.4078  0.5507
 2665SOL    HW110658   0.017   1.161   2.787 -0.6083  0.8400  0.7918
 2665SOL    HW210659   0.029   1.307   2.747  0.6130  0.9567  1.5326
 2665SOL     MW10660   0.063   1.226   2.751 -0.2333  0.5334  0.7072
 2666SOL     OW10661   0.305   4.797   0.923  0.3432 -0.1238  0.6218
 2666SOL    HW110662   0.372   4.809   0.856 -1.0575 -0.3298 -0.8910
 2666SOL    HW210663   0.291   4.884   0.959 -0.3720  0.4254 -0.8894
 2666SOL     MW10664   0.311   4.809   0.919  0.0723 -0.0798  0.2347
 2667SOL     OW10665   3.243   4.966   3.003 -0.1769 -0.2163  0.0217
 2667SOL    HW110666   3.197   4.898   2.953  1.3681 -0.1958 -1.5262
 2667SOL    HW210667   3.181   5.039   3.007 -1.4141 -1.2652  0.6841
 2667SOL     MW10668   3.229   4.967   2.997 -0.1375 -0.3479 -0.0916
 2668SOL     OW10669   2.944   4.176   5.396 -0.1633  0.2511  0.3757
 2668SOL    HW110670   2.947   4.271   5.397  1.3345  0.2382 -0.6820
 2668SOL    HW210671   2.911   4.154   5.309 -3.6121 -0.2272  1.6183
 2668SOL     MW10672   2.940   4.185   5.385 -0.4130  0.1882  0.3994
 2669SOL     OW10673   1.422   3.762   4.012 -0.0955  0.1916 -0.1859
 2669SOL    HW110674   1.501   3.786   3.964 -0.7226  1.4322 -0.6280
 2669SOL    HW210675   1.384   3.691   3.961  1.0656 -0.9113  0.4049
 2669SOL     MW10676   1.427   3.756   3.999 -0.0271  0.2092 -0.1669
 2670SOL     OW10677   4.283   1.360   1.821  0.1511 -0.2977  0.9704
 2670SOL    HW110678   4.295   1.433   1.760  0.8814 -1.7949 -0.7789
 2670SOL    HW210679   4.371   1.341   1.853  0.5131 -2.2466 -0.9217
 2670SOL     MW10680   4.295   1.367   1.817  0.2909 -0.7389  0.5042
 2671SOL     OW10681   5.400   4.558   1.799  0.4633  0.1679  0.5584
 2671SOL    HW110682   5.347   4.622   1.751  1.8313  0.5661 -0.4812
 2671SOL    HW210683   5.401   4.590   1.889  0.8737  1.4707  0.1138
 2671SOL     MW10684   5.393   4.570   1.804  0.6909  0.3856  0.3684
 2672SOL     OW10685   5.375   4.592   3.726 -0.0061 -0.1180  0.3576
 2672SOL    HW110686   5.455   4.627   3.766 -0.3307  0.1445  0.7841
 2672SOL    HW210687   5.406   4.523   3.666  0.5052 -0.3583  0.8916
 2672SOL     MW10688   5.389   4.587   3.723  0.0178 -0.1152  0.4806
 2673SOL     OW10689   3.672   4.311   5.212 -0.1534 -0.1278  0.5220
 2673SOL    HW110690   3.604   4.244   5.199 -0.9198  0.6616  0.4000
 2673SOL    HW210691   3.705   4.295   5.300 -0.3140 -0.6874  0.4851
 2673SOL     MW10692   3.667   4.300   5.221 -0.2721 -0.0984  0.5017
 2674SOL     OW10693   4.432   0.595   0.207  0.2862 -0.2863  0.0231
 2674SOL    HW110694   4.483   0.646   0.270  0.7983  0.4273 -0.9439
 2674SOL    HW210695   4.497   0.539   0.164  0.1593  0.2029 -0.8053
 2674SOL     MW10696   4.447   0.594   0.210  0.3355 -0.1323 -0.2068
 2675SOL     OW10697   1.602   1.723   3.435  0.2924  0.2134  0.1470
 2675SOL    HW110698   1.624   1.781   3.361 -1.1328  0.4640 -0.1035
 2675SOL    HW210699   1.510   1.700   3.421  0.5106 -1.2131  0.8710
 2675SOL     MW10700   1.593   1.728   3.424  0.1379  0.0629  0.2076
 2676SOL     OW10701   1.356   0.593   1.672  0.0913 -0.0336  0.1117
 2676SOL    HW110702   1.264   0.609   1.690  0.5196  0.6068  1.9952
 2676SOL    HW210703   1.362   0.499   1.655 -1.0057  0.0637 -0.9389
 2676SOL     MW10704   1.345   0.583   1.672  0.0057  0.0609  0.2183
 2677SOL     OW10705   1.640   3.614   4.866  0.1462 -0.4649 -0.0699
 2677SOL    HW110706   1.650   3.524   4.898  2.0792 -0.2595  0.0252
 2677SOL    HW210707   1.551   3.617   4.832 -0.0004 -2.3886  0.0045
 2677SOL     MW10708   1.630   3.603   4.866  0.3749 -0.6849 -0.0482
 2678SOL     OW10709   1.850   3.051   2.720  0.1489  0.1273  0.0546
 2678SOL    HW110710   1.909   3.097   2.779  0.1313 -2.5098  2.3504
 2678SOL    HW210711   1.792   3.119   2.685  2.6773  2.3694 -0.0904
 2678SOL     MW10712   1.850   3.065   2.723  0.4703  0.0767  0.3299
 2679SOL     OW10713   1.157   3.309   3.935  0.2672  0.6425  0.3413
 2679SOL    HW110714   1.076   3.285   3.890 -0.1426  0.9027  0.9293
 2679SOL    HW210715   1.179   3.232   3.988 -0.5572  1.1874  1.5283
 2679SOL     MW10716   1.150   3.296   3.936  0.1092  0.7456  0.5686
 2680SOL     OW10717   0.227   2.919   4.405 -0.1612 -1.2074  0.0663
 2680SOL    HW110718   0.277   2.950   4.480 -1.6462 -1.7931  1.3525
 2680SOL    HW210719   0.181   2.841   4.437 -1.6073 -0.9075 -1.1492
 2680SOL     MW10720   0.227   2.913   4.419 -0.5364 -1.2440  0.0754
 2681SOL     OW10721   2.845   3.173   0.412  0.4523  0.0069  0.2318
 2681SOL    HW110722   2.800   3.212   0.337 -3.7228 -0.0836  2.3767
 2681SOL    HW210723   2.905   3.241   0.442 -0.7893  1.6452 -0.8262
 2681SOL     MW10724   2.847   3.187   0.407 -0.2411  0.2050  0.3709
 2682SOL     OW10725   0.167   1.146   3.503  0.2595  0.6619 -0.8376
 2682SOL    HW110726   0.185   1.185   3.589 -1.7174 -1.9980  0.9278
 2682SOL    HW210727   0.073   1.126   3.505  0.6593 -1.7547 -2.5795
 2682SOL     MW10728   0.157   1.148   3.514  0.0576  0.0121 -0.8346
 2683SOL     OW10729   3.631   1.036   3.298  0.8414 -0.2101 -0.3140
 2683SOL    HW110730   3.635   1.122   3.255  1.6238 -0.1762 -0.1940
 2683SOL    HW210731   3.586   0.980   3.235  0.8614  0.1451 -0.6519
 2683SOL     MW10732   3.626   1.040   3.284  0.9441 -0.1603 -0.3419
 2684SOL     OW10733   2.955   3.547   4.539 -0.0175  0.1780 -0.1944
 2684SOL    HW110734   2.937   3.641   4.529 -0.3294 -0.0648 -2.5600
 2684SOL    HW210735   2.870   3.505   4.525 -0.2907 -0.4533  2.7328
 2684SOL     MW10736   2.942   3.554   4.536 -0.0924  0.0661 -0.1225
 2685SOL     OW10737   3.921   3.476   4.974  0.7376  0.0558  0.1845
 2685SOL    HW110738   3.856   3.534   5.012  1.4130  0.4072  0.8328
 2685SOL    HW210739   3.875   3.431   4.903 -0.0863  0.5960  0.3650
 2685SOL     MW10740   3.907   3.478   4.970  0.7186  0.1700  0.2906
 2686SOL     OW10741   0.100   3.438   2.965 -0.5842 -0.4776 -0.1094
 2686SOL    HW110742   0.035   3.484   2.911 -0.9035 -2.4390 -1.4859
 2686SOL    HW210743   0.071   3.347   2.965  0.2447 -0.8112  2.2052
 2686SOL     MW10744   0.088   3.432   2.958 -0.5190 -0.7714  0.0107
 2687SOL     OW10745   2.617   1.651   4.607 -0.0569  0.0530  0.4622
 2687SOL    HW110746   2.674   1.576   4.620  1.1504  0.5744 -1.3238
 2687SOL    HW210747   2.540   1.615   4.563  0.9016 -0.0898 -1.2079
 2687SOL     MW10748   2.614   1.637   4.603  0.2204  0.1015  0.0198
 2688SOL     OW10749   4.117   1.530   1.302 -0.5985  0.1590  0.3773
 2688SOL    HW110750   4.157   1.591   1.239  0.0692  0.7396  1.3479
 2688SOL    HW210751   4.026   1.522   1.272 -0.6209  1.4086  0.0598
 2688SOL     MW10752   4.111   1.537   1.290 -0.5159  0.3933  0.4609
 2689SOL     OW10753   3.862   0.512   4.588  0.1667  0.6337 -0.7151
 2689SOL    HW110754   3.930   0.483   4.649 -0.0169 -0.1995 -0.8930
 2689SOL    HW210755   3.899   0.588   4.544  0.0055  1.7483  0.9895
 2689SOL     MW10756   3.875   0.518   4.590  0.1226  0.6697 -0.5196
 2690SOL     OW10757   1.555   4.750   1.512  0.0903  0.1526 -0.4841
 2690SOL    HW110758   1.521   4.706   1.590  0.2305  0.4762 -0.2409
 2690SOL    HW210759   1.570   4.841   1.540  0.1654  0.2635 -0.8785
 2690SOL     MW10760   1.552   4.756   1.526  0.1178  0.2082 -0.5034
 2691SOL     OW10761   1.713   1.341   2.415  0.1540 -0.5747 -0.0501
 2691SOL    HW110762   1.691   1.386   2.497  0.7425  1.2578 -0.8524
 2691SOL    HW210763   1.628   1.325   2.374 -0.0652  0.0107  0.1578
 2691SOL     MW10764   1.699   1.345   2.420  0.2012 -0.2652 -0.1262
 2692SOL     OW10765   2.508   0.201   1.714 -0.0811  0.6636 -0.4814
 2692SOL    HW110766   2.595   0.164   1.731 -0.8611 -1.1584 -0.3418
 2692SOL    HW210767   2.514   0.233   1.624  0.3014 -0.8116 -1.0091
 2692SOL     MW10768   2.520   0.201   1.705 -0.1320  0.2415 -0.5311
 2693SOL     OW10769   0.185   0.085   3.616  0.4245  0.5296  0.0792
 2693SOL    HW110770   0.265   0.044   3.649  1.1030  0.4120 -1.5686
 2693SOL    HW210771   0.195   0.178   3.636  1.8034  0.7818 -1.5544
 2693SOL     MW10772   0.196   0.092   3.622  0.6879  0.5468 -0.3409
 2694SOL     OW10773   1.296   0.649   2.129 -0.3897 -0.1024  0.7114
 2694SOL    HW110774   1.348   0.729   2.117 -0.4838 -0.0937  0.3188
 2694SOL    HW210775   1.235   0.670   2.199 -1.4070  0.6996 -0.3581
 2694SOL     MW10776   1.295   0.662   2.136 -0.5320  0.0014  0.5242
 2695SOL     OW10777   0.907   2.162   2.897 -0.7916 -0.1511  0.5237
 2695SOL    HW110778   0.855   2.236   2.928 -1.6166 -0.9100  0.9873
 2695SOL    HW210779   0.842   2.097   2.869 -0.0787 -0.4158 -0.5931
 2695SOL     MW10780   0.892   2.163   2.897 -0.8059 -0.2821  0.4401
 2696SOL     OW10781   5.175   4.652   3.914 -0.4381  0.0662 -0.3668
 2696SOL    HW110782   5.243   4.634   3.849  1.1002  2.3306  0.4975
 2696SOL    HW210783   5.123   4.723   3.875 -0.8010  0.0136  0.0142
 2696SOL     MW10784   5.177   4.659   3.900 -0.2876  0.3493 -0.2074
 2697SOL     OW10785   4.134   3.281   1.777 -1.0045  0.6352  0.2950
 2697SOL    HW110786   4.193   3.226   1.726 -0.0863  0.8816  1.0834
 2697SOL    HW210787   4.049   3.270   1.734 -0.9574 -1.7418  0.6913
 2697SOL     MW10788   4.130   3.272   1.765 -0.8809  0.3624  0.4466
 2698SOL     OW10789   0.879   4.668   1.446  0.2111  0.1372  0.1157
 2698SOL    HW110790   0.907   4.754   1.480  0.7396 -0.2439  0.6552
 2698SOL    HW210791   0.878   4.611   1.523 -1.8045  0.0593  0.0830
 2698SOL     MW10792   0.883   4.672   1.461  0.0207  0.0785  0.1806
 2699SOL     OW10793   5.029   3.044   1.773 -0.3256 -0.3639  0.2980
 2699SOL    HW110794   5.074   2.966   1.740  0.1589 -0.1544  0.4616
 2699SOL    HW210795   4.941   3.013   1.793 -0.2994 -0.7443 -0.1531
 2699SOL     MW10796   5.023   3.030   1.772 -0.2602 -0.3858  0.2612
 2700SOL     OW10797   4.830   0.319   5.420  0.4038  0.4596 -0.5710
 2700SOL    HW110798   4.808   0.230   5.447  1.9188  0.2793  0.1864
 2700SOL    HW210799   4.848   0.311   5.326  0.4387 -0.0325 -0.5293
 2700SOL     MW10800   4.830   0.306   5.411  0.6022  0.3735 -0.4687
 2701SOL     OW10801   0.372   2.186   4.834  0.1852 -0.3809 -0.7022
 2701SOL    HW110802   0.362   2.132   4.912  0.0655  1.8094  0.8849
 2701SOL    HW210803   0.298   2.161   4.778  0.8139 -2.6701 -0.6339
 2701SOL     MW10804   0.361   2.176   4.837  0.2504 -0.3935 -0.4903
 2702SOL     OW10805   2.533   0.191   3.394 -0.3801  0.1205 -0.1469
 2702SOL    HW110806   2.544   0.103   3.358 -1.4571 -0.2038  0.2778
 2702SOL    HW210807   2.617   0.212   3.435 -0.2801 -0.9065  0.1817
 2702SOL     MW10808   2.545   0.183   3.394 -0.5052 -0.0525 -0.0505
 2703SOL     OW10809   4.264   5.372   2.644  0.2578  0.8169  0.2623
 2703SOL    HW110810   4.221   5.315   2.708 -1.2963  1.8747  0.2080
 2703SOL    HW210811   4.349   5.330   2.628 -0.1350 -0.5359  1.5043
 2703SOL     MW10812   4.270   5.359   2.650  0.0086  0.7791  0.4143
 2704SOL     OW10813   0.974   5.387   3.932 -0.6111  0.4431 -0.2643
 2704SOL    HW110814   0.988   5.476   3.898 -0.8079  1.0683  1.1964
 2704SOL    HW210815   0.880   5.381   3.946 -0.4748  0.4167  0.6916
 2704SOL     MW10816   0.964   5.398   3.930 -0.6189  0.5198  0.0451
 2705SOL     OW10817   1.752   4.130   0.069  0.2265 -0.5250  0.3054
 2705SOL    HW110818   1.752   4.042   0.106  0.7016  0.2668  2.3019
 2705SOL    HW210819   1.836   4.137   0.023  1.1503 -0.4280  1.9477
 2705SOL     MW10820   1.763   4.120   0.068  0.4056 -0.4112  0.7712
 2706SOL     OW10821   2.251   5.048   1.700  0.2043  0.1458 -0.3111
 2706SOL    HW110822   2.162   5.012   1.691 -0.2721  1.0182  0.7320
 2706SOL    HW210823   2.291   4.995   1.769  0.9096 -0.9886 -1.5554
 2706SOL     MW10824   2.245   5.036   1.708  0.2336  0.1123 -0.3368
 2707SOL     OW10825   1.562   3.852   2.130  0.1771 -0.5062  0.6206
 2707SOL    HW110826   1.563   3.814   2.042  0.9074  0.4625  0.1921
 2707SOL    HW210827   1.569   3.777   2.189 -0.9396 -1.2123 -0.1243
 2707SOL     MW10828   1.563   3.837   2.126  0.1276 -0.4726  0.4704
 2708SOL     OW10829   1.133   0.700   3.220  0.5676 -0.0262  0.4496
 2708SOL    HW110830   1.100   0.750   3.146  1.4380  0.4743  0.3926
 2708SOL    HW210831   1.055   0.657   3.257  0.2841 -1.3753 -1.5580
 2708SOL     MW10832   1.119   0.701   3.215  0.6428 -0.1348  0.1853
 2709SOL     OW10833   1.306   0.532   3.057 -0.0235  0.1391  0.0862
 2709SOL    HW110834   1.301   0.436   3.055 -0.6741  0.1240  1.3282
 2709SOL    HW210835   1.251   0.557   3.132  0.0314  1.4909 -0.3043
 2709SOL     MW10836   1.298   0.523   3.067 -0.0997  0.3103  0.1952
 2710SOL     OW10837   4.587   0.099   0.416 -0.2724 -0.0034 -0.7880
 2710SOL    HW110838   4.574   0.113   0.322 -0.5792  0.5318 -0.6677
 2710SOL    HW210839   4.596   0.187   0.452  1.7555 -0.2449 -0.5714
 2710SOL     MW10840   4.587   0.112   0.408 -0.0521  0.0342 -0.7449
 2711SOL     OW10841   3.890   2.180   4.579 -0.1269  0.3683 -0.3465
 2711SOL    HW110842   3.936   2.123   4.640  0.7810  1.3660 -0.0572
 2711SOL    HW210843   3.800   2.182   4.611  0.2382  0.5249  0.7127
 2711SOL     MW10844   3.884   2.173   4.591  0.0360  0.5161 -0.1739
 2712SOL     OW10845   1.725   2.874   0.757  0.2291  0.6287 -0.1989
 2712SOL    HW110846   1.731   2.963   0.791 -0.3005  0.9776 -0.9902
 2712SOL    HW210847   1.634   2.849   0.771  0.3365  0.2736 -0.1332
 2712SOL     MW10848   1.714   2.882   0.763  0.1750  0.6279 -0.2918
 2713SOL     OW10849   1.583   5.476   4.628 -0.4473  0.2114  0.0090
 2713SOL    HW110850   1.620   5.420   4.696 -1.4708  0.9484  1.2062
 2713SOL    HW210851   1.660   5.507   4.579  0.1705 -1.7346 -0.3324
 2713SOL     MW10852   1.598   5.473   4.630 -0.4993  0.0566  0.1185
 2714SOL     OW10853   1.010   3.843   3.511 -0.1787 -0.1887  0.1519
 2714SOL    HW110854   1.083   3.891   3.472  1.4561 -3.0994 -0.6821
 2714SOL    HW210855   0.938   3.853   3.448  0.2216  0.8068 -0.1718
 2714SOL     MW10856   1.010   3.851   3.498  0.0818 -0.4338  0.0037
 2715SOL     OW10857   2.274   3.255   3.889 -0.2538  0.0492 -0.5343
 2715SOL    HW110858   2.229   3.222   3.967  0.2292  0.3991 -0.1034
 2715SOL    HW210859   2.203   3.278   3.829 -0.6466  0.3016  0.0182
 2715SOL     MW10860   2.259   3.254   3.891 -0.2423  0.1263 -0.4084
 2716SOL     OW10861   0.644   4.812   2.844  0.3533  0.5721 -0.3244
 2716SOL    HW110862   0.723   4.840   2.890  0.1349  1.3558 -0.4204
 2716SOL    HW210863   0.581   4.792   2.913  0.4251  0.5537 -0.2636
 2716SOL     MW10864   0.646   4.813   2.858  0.3345  0.6701 -0.3289
 2717SOL     OW10865   2.075   4.089   3.232 -0.5104 -0.5683  0.3669
 2717SOL    HW110866   2.097   4.180   3.216 -0.5013 -0.8925 -1.7209
 2717SOL    HW210867   2.158   4.041   3.222 -0.3288 -0.7485  2.3490
 2717SOL     MW10868   2.088   4.094   3.229 -0.4860 -0.6329  0.3534
 2718SOL     OW10869   2.970   0.707   5.242  0.0413  0.1323 -0.2723
 2718SOL    HW110870   2.876   0.696   5.231 -0.4533 -0.3536  3.4149
 2718SOL    HW210871   3.005   0.618   5.243  0.2723  0.2247  0.1797
 2718SOL     MW10872   2.962   0.694   5.241  0.0076  0.0819  0.2576
 2719SOL     OW10873   4.759   0.791   2.441  0.4381  0.1713  0.2802
 2719SOL    HW110874   4.807   0.718   2.402  2.1590  0.6815  1.3315
 2719SOL    HW210875   4.731   0.759   2.526  0.3647  0.4350  0.3557
 2719SOL     MW10876   4.761   0.778   2.447  0.6490  0.2704  0.4244
 2720SOL     OW10877   2.838   5.077   0.329 -0.0952  0.1292  0.1915
 2720SOL    HW110878   2.898   5.082   0.254  0.1260  0.6965  0.4028
 2720SOL    HW210879   2.893   5.054   0.403 -0.1762  0.4324  0.3449
 2720SOL     MW10880   2.853   5.075   0.329 -0.0772  0.2407  0.2382
 2721SOL     OW10881   0.130   2.366   0.942 -0.1018  0.1851 -0.1536
 2721SOL    HW110882   0.174   2.450   0.931 -1.1078  0.8535  0.7550
 2721SOL    HW210883   0.129   2.351   1.036 -1.9808  0.2860 -0.1390
 2721SOL     MW10884   0.136   2.375   0.953 -0.4711  0.2836 -0.0354
 2722SOL     OW10885   2.854   5.021   0.715 -0.0535 -0.0783  0.6689
 2722SOL    HW110886   2.799   5.096   0.694 -0.6118 -1.0277 -1.4927
 2722SOL    HW210887   2.925   5.024   0.651 -0.2327 -1.5197  0.3638
 2722SOL     MW10888   2.856   5.031   0.704 -0.1479 -0.3843  0.3531
 2723SOL     OW10889   1.021   1.385   2.313 -0.2036  0.0987 -0.1452
 2723SOL    HW110890   0.995   1.343   2.231 -0.8789 -0.9388  0.5812
 2723SOL    HW210891   0.984   1.473   2.307 -1.6532 -0.4913 -0.2839
 2723SOL     MW10892   1.013   1.391   2.302 -0.4756 -0.1096 -0.0700
 2724SOL     OW10893   3.810   1.260   1.397  0.7678 -0.4095 -0.5230
 2724SOL    HW110894   3.877   1.191   1.396  0.5361 -0.6358 -1.6755
 2724SOL    HW210895   3.732   1.216   1.430  1.1012 -0.1986  0.6118
 2724SOL     MW10896   3.809   1.245   1.401  0.7808 -0.4115 -0.5252
 2725SOL     OW10897   4.435   1.167   0.694  0.3575 -0.1945 -0.2334
 2725SOL    HW110898   4.367   1.180   0.761  0.8014 -0.5658  0.2978
 2725SOL    HW210899   4.512   1.142   0.744  0.4213 -1.5183 -0.9631
 2725SOL     MW10900   4.436   1.165   0.709  0.4225 -0.4115 -0.2588
 2726SOL     OW10901   4.884   4.600   4.474 -0.1620 -0.1332  0.0021
 2726SOL    HW110902   4.956   4.544   4.444  0.5183  0.8742 -0.2708
 2726SOL    HW210903   4.884   4.674   4.414 -1.6781 -0.2891 -0.2295
 2726SOL     MW10904   4.893   4.602   4.462 -0.2690 -0.0242 -0.0625
 2727SOL     OW10905   3.867   1.348   2.805 -0.0514 -0.8480 -0.1918
 2727SOL    HW110906   3.935   1.395   2.853  0.0281 -1.6478  0.4815
 2727SOL    HW210907   3.913   1.312   2.729 -0.4475  1.5868 -1.6991
 2727SOL     MW10908   3.882   1.350   2.801 -0.0919 -0.6387 -0.2985
 2728SOL     OW10909   0.539   1.728   4.483 -0.9406 -0.0149  0.5431
 2728SOL    HW110910   0.513   1.752   4.572  1.3948 -0.2039  1.3275
 2728SOL    HW210911   0.632   1.706   4.490 -0.6285  0.2295 -2.0064
 2728SOL     MW10912   0.547   1.728   4.495 -0.6017 -0.0078  0.3171
 2729SOL     OW10913   4.657   5.051   3.257 -0.4791  0.0552 -0.1394
 2729SOL    HW110914   4.612   5.096   3.329  0.6083  1.6732 -0.4027
 2729SOL    HW210915   4.747   5.086   3.260 -0.3325 -0.0410 -2.0882
 2729SOL     MW10916   4.663   5.061   3.267 -0.3212  0.2500 -0.4226
 2730SOL     OW10917   2.440   0.152   3.771  0.3062 -0.1104  0.3357
 2730SOL    HW110918   2.515   0.191   3.816 -0.9942  2.6675  0.2994
 2730SOL    HW210919   2.375   0.222   3.768 -1.3935 -1.6427 -1.8014
 2730SOL     MW10920   2.442   0.166   3.776 -0.0778  0.0491  0.0575
 2731SOL     OW10921   5.176   3.014   0.142 -0.1524  0.4738 -0.2353
 2731SOL    HW110922   5.159   2.923   0.116  0.6255  0.4507 -0.7111
 2731SOL    HW210923   5.109   3.065   0.096  0.2454  0.2691 -1.0679
 2731SOL     MW10924   5.165   3.009   0.133 -0.0019  0.4447 -0.4028
 2732SOL     OW10925   0.768   4.076   4.421 -0.0280 -0.2498  0.7296
 2732SOL    HW110926   0.767   3.980   4.422 -1.1158 -0.3290 -1.4474
 2732SOL    HW210927   0.681   4.100   4.388  0.1832  1.5059  1.3685
 2732SOL     MW10928   0.757   4.067   4.417 -0.1402 -0.0352  0.5327
 2733SOL     OW10929   4.226   1.354   5.091 -1.0673  0.1254  0.3959
 2733SOL    HW110930   4.218   1.266   5.127 -0.6901 -0.5258 -1.0296
 2733SOL    HW210931   4.264   1.406   5.162 -0.5056 -1.0552  0.9907
 2733SOL     MW10932   4.230   1.349   5.105 -0.9471 -0.1091  0.2896
 2734SOL     OW10933   3.481   1.007   1.964  0.0378 -0.0572  0.0670
 2734SOL    HW110934   3.484   0.925   2.012 -1.3864 -0.3666 -0.3127
 2734SOL    HW210935   3.539   0.994   1.889  1.6173  0.1349  1.2220
 2734SOL     MW10936   3.489   0.995   1.961  0.0576 -0.0722  0.1662
 2735SOL     OW10937   4.160   4.752   3.085 -0.5520 -0.0737  0.6046
 2735SOL    HW110938   4.235   4.756   3.026 -1.2843 -0.3386 -0.3649
 2735SOL    HW210939   4.163   4.663   3.121 -1.1810 -0.5633 -0.5052
 2735SOL     MW10940   4.170   4.741   3.082 -0.7262 -0.1703  0.3384
 2736SOL     OW10941   2.428   0.170   2.933 -0.0598 -0.4599 -0.5848
 2736SOL    HW110942   2.445   0.137   2.845  1.5049  0.4074 -0.6475
 2736SOL    HW210943   2.374   0.247   2.920  0.4144 -0.1621 -0.8278
 2736SOL     MW10944   2.423   0.176   2.920  0.2012 -0.3107 -0.6239
 2737SOL     OW10945   3.144   3.793   1.276 -0.0116  0.7088 -0.1215
 2737SOL    HW110946   3.213   3.735   1.242  0.0318  0.6518  0.0657
 2737SOL    HW210947   3.192   3.869   1.309 -0.0021  0.4686  0.4271
 2737SOL     MW10948   3.159   3.795   1.276 -0.0048  0.6708 -0.0273
 2738SOL     OW10949   2.583   3.951   2.095 -0.5988 -0.6503  0.2509
 2738SOL    HW110950   2.490   3.956   2.117 -0.3451 -1.6600  1.6939
 2738SOL    HW210951   2.618   3.883   2.152  1.2614  0.4457  0.5173
 2738SOL     MW10952   2.576   3.943   2.105 -0.3282 -0.6392  0.4697
 2739SOL     OW10953   3.931   3.245   0.699  0.2089  0.2179  0.1791
 2739SOL    HW110954   3.837   3.261   0.704  0.4099  1.1096  1.6970
 2739SOL    HW210955   3.970   3.329   0.722  1.3733 -0.5142  0.9410
 2739SOL     MW10956   3.924   3.258   0.703  0.3837  0.2383  0.4710
 2740SOL     OW10957   1.145   4.496   4.103 -0.2972 -0.2024 -0.0688
 2740SOL    HW110958   1.236   4.525   4.110 -0.1215  0.1121 -2.6790
 2740SOL    HW210959   1.105   4.523   4.185  2.1599 -1.1894  1.5816
 2740SOL     MW10960   1.152   4.503   4.114  0.0399 -0.2885 -0.1917
 2741SOL     OW10961   1.161   4.086   3.853 -0.3257  0.2853  0.1456
 2741SOL    HW110962   1.082   4.078   3.800 -0.2082 -1.4571  0.1611
 2741SOL    HW210963   1.131   4.124   3.936 -1.5624 -2.0188  0.8617
 2741SOL     MW10964   1.147   4.090   3.857 -0.4690 -0.2327  0.2393
 2742SOL     OW10965   2.704   4.309   1.958 -0.0841 -0.0851  0.2655
 2742SOL    HW110966   2.790   4.318   1.916 -0.4150 -0.9879 -0.6369
 2742SOL    HW210967   2.716   4.240   2.024 -0.5531 -1.6198 -1.1775
 2742SOL     MW10968   2.716   4.301   1.961 -0.1865 -0.3971 -0.0347
 2743SOL     OW10969   4.649   5.302   1.755  0.0930  0.0177 -0.3580
 2743SOL    HW110970   4.690   5.357   1.688 -0.0778 -0.5997 -0.9952
 2743SOL    HW210971   4.587   5.359   1.800  1.2210  0.8165  0.2325
 2743SOL     MW10972   4.646   5.316   1.752  0.2156  0.0409 -0.3640
 2744SOL     OW10973   3.879   2.346   3.307 -0.5909 -0.3258  0.2448
 2744SOL    HW110974   3.896   2.333   3.400 -0.6405  0.4534  0.3701
 2744SOL    HW210975   3.806   2.287   3.287 -0.9702 -0.0709  0.8454
 2744SOL     MW10976   3.872   2.337   3.316 -0.6458 -0.1935  0.3377
 2745SOL     OW10977   0.422   4.388   1.387 -0.5101  0.1073 -0.0285
 2745SOL    HW110978   0.474   4.466   1.405 -1.1485  0.0437  2.5629
 2745SOL    HW210979   0.455   4.322   1.449 -1.7039 -0.8349 -0.3506
 2745SOL     MW10980   0.433   4.389   1.398 -0.7447 -0.0214  0.2620
 2746SOL     OW10981  -0.023   4.266   4.221  0.4058 -0.1357  1.0649
 2746SOL    HW110982  -0.017   4.213   4.300 -1.1284  0.7124  1.7946
 2746SOL    HW210983   0.067   4.291   4.201  1.1346 -2.6093  0.9329
 2746SOL     MW10984  -0.011   4.263   4.228  0.3027 -0.3438  1.1414
 2747SOL     OW10985   4.862   2.775   1.411  0.3085  0.0309 -0.1610
 2747SOL    HW110986   4.851   2.680   1.400  0.3848  0.2495 -2.4676
 2747SOL    HW210987   4.784   2.813   1.370  0.5536  0.9940  0.2497
 2747SOL     MW10988   4.850   2.768   1.405  0.3496  0.1822 -0.4037
 2748SOL     OW10989   3.028   4.828   3.595  0.8044  0.0444 -0.1628
 2748SOL    HW110990   3.014   4.816   3.501 -1.7339 -0.0499  0.1572
 2748SOL    HW210991   2.943   4.806   3.634  1.4559  1.2411  2.0459
 2748SOL     MW10992   3.015   4.824   3.588  0.5628  0.1855  0.1609
 2749SOL     OW10993   4.432   3.504   3.504 -0.0684  0.4922 -0.1122
 2749SOL    HW110994   4.440   3.417   3.542 -0.6166 -0.0345 -1.1733
 2749SOL    HW210995   4.483   3.501   3.423 -0.0207  1.1817 -0.1207
 2749SOL     MW10996   4.439   3.493   3.498 -0.1325  0.5130 -0.2492
 2750SOL     OW10997   1.492   3.055   4.019  0.4570  0.5566  0.2288
 2750SOL    HW110998   1.571   3.083   4.064 -0.3577  0.6831  1.6088
 2750SOL    HW210999   1.505   2.961   4.004  1.4207  0.8207 -0.7694
 2750SOL     MW11000   1.504   3.047   4.023  0.4760  0.6066  0.2777
 2751SOL     OW11001   0.494   1.446   0.501 -0.1285 -0.4330  0.0228
 2751SOL    HW111002   0.434   1.518   0.524 -1.9334 -1.5653 -0.9179
 2751SOL    HW211003   0.525   1.468   0.413 -0.4127 -0.6348 -0.1280
 2751SOL     MW11004   0.490   1.458   0.493 -0.3960 -0.6038 -0.1169
 2752SOL     OW11005   2.529   1.231   1.714  0.1408 -0.1614  0.2433
 2752SOL    HW111006   2.553   1.143   1.745  0.2346  0.0706  0.8373
 2752SOL    HW211007   2.518   1.282   1.794  1.2564  0.6864 -0.1193
 2752SOL     MW11008   2.531   1.226   1.728  0.2956 -0.0232  0.2729
 2753SOL     OW11009   4.342   4.942   1.391  0.2307  0.1236  0.7377
 2753SOL    HW111010   4.320   4.865   1.340  1.3502  0.8240 -0.8911
 2753SOL    HW211011   4.339   4.913   1.482 -1.5451 -1.2367  0.2913
 2753SOL     MW11012   4.339   4.929   1.396  0.1467  0.0391  0.4720
 2754SOL     OW11013   1.468   3.665   0.043  0.4430 -0.2180 -0.2447
 2754SOL    HW111014   1.484   3.697  -0.046 -0.0380 -0.6230 -0.4831
 2754SOL    HW211015   1.455   3.570   0.033  0.2734 -0.2520  0.2404
 2754SOL     MW11016   1.468   3.657   0.030  0.3597 -0.2742 -0.2131
 2755SOL     OW11017   5.061   4.897   3.808  0.1382  0.0659  0.2467
 2755SOL    HW111018   5.024   4.983   3.793 -0.3889  0.0134  1.1580
 2755SOL    HW211019   5.151   4.914   3.836  0.2967  0.2723 -0.3710
 2755SOL     MW11020   5.068   4.910   3.810  0.0910  0.0856  0.2843
 2756SOL     OW11021   2.820   3.164   3.165 -0.6306 -0.5299  0.2413
 2756SOL    HW111022   2.813   3.260   3.161 -0.3596 -0.5143  0.1583
 2756SOL    HW211023   2.769   3.140   3.242  0.2005 -0.2322  0.8874
 2756SOL     MW11024   2.812   3.173   3.174 -0.4896 -0.4898  0.3134
 2757SOL     OW11025   1.237   1.133   1.733  0.5186  0.6805  0.4983
 2757SOL    HW111026   1.277   1.046   1.727  1.3292  1.0795 -0.2762
 2757SOL    HW211027   1.217   1.145   1.825  0.8169 -0.1438  0.6762
 2757SOL     MW11028   1.240   1.123   1.744  0.6606  0.6261  0.4220
 2758SOL     OW11029   0.481   1.673   2.730  0.1700 -0.7822  0.1173
 2758SOL    HW111030   0.410   1.670   2.795  1.3074  2.4170  1.7318
 2758SOL    HW211031   0.456   1.745   2.671  0.5759 -1.7471 -1.2726
 2758SOL     MW11032   0.469   1.682   2.731  0.3675 -0.4962  0.1460
 2759SOL     OW11033   4.726   0.055   5.458  1.0864 -0.0880 -0.0224
 2759SOL    HW111034   4.792   0.008   5.407 -0.4249 -2.2275 -0.1471
 2759SOL    HW211035   4.666   0.091   5.392  1.6740  1.2501  0.1243
 2759SOL     MW11036   4.727   0.054   5.443  0.9682 -0.1906 -0.0196
 2760SOL     OW11037   3.611   0.589   5.231  0.1261  0.1729  0.1477
 2760SOL    HW111038   3.700   0.576   5.197  0.7647 -0.8639  2.0333
 2760SOL    HW211039   3.556   0.594   5.153  1.7206 -0.0414 -1.0545
 2760SOL     MW11040   3.615   0.588   5.217  0.4120  0.0127  0.2352
 2761SOL     OW11041   0.885   3.679   2.621 -0.6813  0.2302  0.1731
 2761SOL    HW111042   0.875   3.717   2.709  0.1758 -1.3017  0.9649
 2761SOL    HW211043   0.942   3.604   2.634  0.2473  0.5286 -1.8737
 2761SOL     MW11044   0.891   3.674   2.634 -0.4527  0.0723  0.0125
 2762SOL     OW11045   3.939   5.210   5.125  0.1824  0.2170 -0.2138
 2762SOL    HW111046   3.977   5.149   5.062 -1.6394  0.3200 -1.4930
 2762SOL    HW211047   4.014   5.251   5.168  1.4828 -0.1852 -2.0124
 2762SOL     MW11048   3.953   5.207   5.122  0.1156  0.1787 -0.6078
 2763SOL     OW11049   5.121   1.403   5.265 -0.0371 -0.1956  0.1433
 2763SOL    HW111050   5.053   1.458   5.226 -0.7697 -0.2249  1.3185
 2763SOL    HW211051   5.074   1.325   5.296  0.4294  0.0370  1.4819
 2763SOL     MW11052   5.106   1.400   5.264 -0.0711 -0.1696  0.4651
 2764SOL     OW11053   4.672   3.484   4.538  0.3754  0.3042 -0.1062
 2764SOL    HW111054   4.731   3.557   4.520  0.0464  0.5050 -0.3788
 2764SOL    HW211055   4.730   3.408   4.542  0.5347  0.2946 -1.7161
 2764SOL     MW11056   4.687   3.483   4.536  0.3537  0.3287 -0.3472
 2765SOL     OW11057   1.353   4.171   0.449  0.3642 -0.0561  0.3423
 2765SOL    HW111058   1.415   4.193   0.380 -1.3132  1.4620 -0.7821
 2765SOL    HW211059   1.324   4.256   0.483 -0.7792 -0.7253  1.1165
 2765SOL     MW11060   1.357   4.185   0.445  0.0031  0.0526  0.2974
 2766SOL     OW11061   1.646   5.055   3.280 -0.2020  0.5513  0.2069
 2766SOL    HW111062   1.740   5.039   3.284 -0.4049 -0.5394  0.9588
 2766SOL    HW211063   1.616   5.003   3.206 -0.3822 -0.0664  0.7037
 2766SOL     MW11064   1.654   5.046   3.271 -0.2511  0.3326  0.3667
 2767SOL     OW11065   1.266   0.969  -0.024  0.4145  0.3991 -0.1652
 2767SOL    HW111066   1.302   0.964   0.065  0.9147 -1.9089 -0.4388
 2767SOL    HW211067   1.176   0.938  -0.015  0.5873 -0.2175 -0.5042
 2767SOL     MW11068   1.259   0.965  -0.011  0.5006  0.0247 -0.2436
 2768SOL     OW11069   4.912   1.667   1.530 -0.1645 -0.8314 -0.2630
 2768SOL    HW111070   4.893   1.628   1.444 -0.7917 -0.8266 -0.1290
 2768SOL    HW211071   4.997   1.631   1.554  0.9045  0.5723 -1.7144
 2768SOL     MW11072   4.920   1.657   1.522 -0.1080 -0.6511 -0.4317
 2769SOL     OW11073   2.324   0.367   1.878 -0.1561  0.2552  0.1670
 2769SOL    HW111074   2.381   0.313   1.823 -1.1444 -0.5404 -0.1213
 2769SOL    HW211075   2.344   0.340   1.967  0.0999  0.1721  0.0869
 2769SOL     MW11076   2.334   0.357   1.882 -0.2499  0.1427  0.1198
 2770SOL     OW11077   0.457   2.354   0.563 -0.3053 -0.3824 -0.2426
 2770SOL    HW111078   0.538   2.394   0.595 -1.9587  2.6250  0.5014
 2770SOL    HW211079   0.479   2.261   0.555  2.4904 -0.1105  2.2655
 2770SOL     MW11080   0.471   2.347   0.566 -0.1591  0.0374  0.1737
 2771SOL     OW11081   0.567   2.740   2.570  0.0876  0.5430  0.2692
 2771SOL    HW111082   0.570   2.825   2.612 -0.5837  0.2874  0.8520
 2771SOL    HW211083   0.542   2.679   2.639 -0.1796 -0.0141 -0.3014
 2771SOL     MW11084   0.564   2.743   2.584 -0.0325  0.4390  0.2708
 2772SOL     OW11085   1.582   2.141   2.498 -0.4748 -0.5486 -0.0167
 2772SOL    HW111086   1.573   2.232   2.470  0.1168 -0.4010  0.2397
 2772SOL    HW211087   1.562   2.089   2.420  2.2231 -0.1338 -1.1028
 2772SOL     MW11088   1.579   2.146   2.485 -0.0537 -0.4766 -0.1229
 2773SOL     OW11089   5.006   2.261   2.661 -0.3060 -0.0913 -0.1113
 2773SOL    HW111090   5.017   2.291   2.571 -0.3244  1.4196  0.3549
 2773SOL    HW211091   5.084   2.293   2.706  0.6365 -2.4242  0.0630
 2773SOL     MW11092   5.017   2.269   2.656 -0.1877 -0.1965 -0.0293
 2774SOL     OW11093   1.787   4.558   3.069  0.1627  0.2146  0.3015
 2774SOL    HW111094   1.873   4.567   3.029  0.4554 -0.2948  0.8115
 2774SOL    HW211095   1.767   4.465   3.063  0.0826  0.1803  1.0800
 2774SOL     MW11096   1.795   4.547   3.063  0.1899  0.1450  0.4664
 2775SOL     OW11097   3.039   1.338   0.479 -0.0703 -0.1728  0.5731
 2775SOL    HW111098   2.991   1.420   0.494 -0.8197 -0.9205  2.4561
 2775SOL    HW211099   3.089   1.325   0.559  0.3746 -1.3659  0.1151
 2775SOL     MW11100   3.039   1.347   0.491 -0.1093 -0.4212  0.7555
 2776SOL     OW11101   4.310   2.751   2.336  0.0950  0.8476  0.2140
 2776SOL    HW111102   4.399   2.782   2.353 -0.0076  1.3766 -0.1920
 2776SOL    HW211103   4.312   2.722   2.245 -0.0393  0.4699  0.3321
 2776SOL     MW11104   4.321   2.751   2.326  0.0647  0.8670  0.1772
 2777SOL     OW11105   3.885   0.140   1.922 -0.0492 -0.4531  0.4443
 2777SOL    HW111106   3.813   0.084   1.892 -0.1637 -1.2989  2.1396
 2777SOL    HW211107   3.844   0.197   1.987  0.3126  0.8549 -0.4401
 2777SOL     MW11108   3.870   0.140   1.927 -0.0176 -0.3939  0.5481
 2778SOL     OW11109   3.635   4.950   3.117  0.1218  0.2314 -0.2594
 2778SOL    HW111110   3.655   5.042   3.102 -1.1094  1.3222  3.6267
 2778SOL    HW211111   3.717   4.911   3.147  0.4162  0.2958 -0.9750
 2778SOL     MW11112   3.648   4.956   3.119  0.0019  0.3793  0.1465
 2779SOL     OW11113   3.047   1.407   3.098 -0.5188  0.2052  0.2266
 2779SOL    HW111114   3.046   1.495   3.060  0.0989 -0.3609 -1.1627
 2779SOL    HW211115   3.093   1.418   3.182 -0.2325  1.1646 -0.0358
 2779SOL     MW11116   3.053   1.420   3.104 -0.4030  0.2556  0.0151
 2780SOL     OW11117   2.294   1.486   0.208 -0.3633  0.0151 -0.2855
 2780SOL    HW111118   2.229   1.519   0.145 -0.2488 -0.2827 -0.5611
 2780SOL    HW211119   2.277   1.536   0.287 -0.2348  0.6967 -0.6774
 2780SOL     MW11120   2.283   1.497   0.210 -0.3322  0.0642 -0.3710
 2781SOL     OW11121   3.400   4.620   5.427  0.6882  0.0078 -0.4401
 2781SOL    HW111122   3.344   4.586   5.496  3.0280 -1.7987  0.7272
 2781SOL    HW211123   3.380   4.566   5.351  0.7219 -0.5249 -0.0726
 2781SOL     MW11124   3.391   4.609   5.426  0.9920 -0.2916 -0.2436
 2782SOL     OW11125   0.227   2.315   2.480  0.2887  0.0343 -0.0618
 2782SOL    HW111126   0.135   2.344   2.485  0.3279 -0.0022  1.4350
 2782SOL    HW211127   0.222   2.221   2.468  0.1381  0.0975 -0.5139
 2782SOL     MW11128   0.214   2.307   2.479  0.2744  0.0377  0.0719
 2783SOL     OW11129   1.024   3.706   4.879  0.1850  0.1159 -0.0193
 2783SOL    HW111130   1.059   3.793   4.897  0.6716  0.3876 -1.9820
 2783SOL    HW211131   0.987   3.713   4.791 -0.2407 -1.5343 -0.0175
 2783SOL     MW11132   1.024   3.718   4.870  0.1928 -0.0606 -0.2703
 2784SOL     OW11133   3.562   3.519   3.756 -0.3592  0.0507 -0.0461
 2784SOL    HW111134   3.515   3.524   3.673 -1.0102 -1.8377  0.1630
 2784SOL    HW211135   3.515   3.578   3.814 -0.0552  1.1908 -0.9117
 2784SOL     MW11136   3.550   3.527   3.753 -0.4036 -0.0451 -0.1301
 2785SOL     OW11137   1.824   4.119   1.468 -0.1952  0.8826 -0.4781
 2785SOL    HW111138   1.765   4.044   1.466  0.6647  0.1649  0.2461
 2785SOL    HW211139   1.885   4.100   1.539  0.9230  1.5840 -1.2109
 2785SOL     MW11140   1.824   4.107   1.477  0.0580  0.8805 -0.4792
 2786SOL     OW11141   1.948   5.340   1.612  0.2626  0.1831  0.0247
 2786SOL    HW111142   1.933   5.425   1.571  1.2792 -0.0515 -0.9061
 2786SOL    HW211143   2.039   5.343   1.642  0.2201 -0.4684  0.2384
 2786SOL     MW11144   1.958   5.351   1.610  0.3873  0.0697 -0.0671
 2787SOL     OW11145   1.005   0.241   2.622 -0.2776  0.3055  0.4543
 2787SOL    HW111146   1.057   0.317   2.594 -0.6493  1.1255  1.8984
 2787SOL    HW211147   0.936   0.233   2.556 -0.2841  1.2728  0.3386
 2787SOL     MW11148   1.003   0.250   2.610 -0.3260  0.5343  0.6244
 2788SOL     OW11149   2.848   1.720   2.522 -0.2974 -0.4456  0.4294
 2788SOL    HW111150   2.788   1.786   2.556 -1.6719 -1.4316  0.0334
 2788SOL    HW211151   2.841   1.728   2.427  1.9322  0.8970  0.3068
 2788SOL     MW11152   2.839   1.729   2.514 -0.1880 -0.4000  0.3630
 2789SOL     OW11153   0.563   3.247   0.580  0.6229  0.3002 -0.0500
 2789SOL    HW111154   0.629   3.208   0.523  0.4803  0.1023 -0.0798
 2789SOL    HW211155   0.557   3.338   0.552  0.2426  0.0980 -0.6369
 2789SOL     MW11156   0.571   3.253   0.569  0.5560  0.2490 -0.1289
 2790SOL     OW11157   3.162   3.943   0.518  0.0084  0.0931 -0.8079
 2790SOL    HW111158   3.143   4.031   0.550 -1.7223 -0.0127 -1.4673
 2790SOL    HW211159   3.091   3.888   0.551 -1.0119 -0.3153 -3.3875
 2790SOL     MW11160   3.151   3.947   0.526 -0.3437  0.0272 -1.2225
 2791SOL     OW11161   3.122   1.498   4.797  0.4328  0.1581  0.0445
 2791SOL    HW111162   3.037   1.541   4.792  0.0224 -0.4384  1.5363
 2791SOL    HW211163   3.162   1.516   4.712 -0.4182  2.0073 -0.0198
 2791SOL     MW11164   3.116   1.506   4.785  0.2713  0.3185  0.2273
 2792SOL     OW11165   0.188   4.069   0.247 -0.6322  0.1353 -0.2098
 2792SOL    HW111166   0.157   3.981   0.268 -0.4587  0.2760  0.6892
 2792SOL    HW211167   0.221   4.062   0.158 -0.6876 -0.6951 -0.1754
 2792SOL     MW11168   0.188   4.056   0.239 -0.6171  0.0470 -0.0903
 2793SOL     OW11169   1.168   2.352   1.229 -0.1150 -0.2974  0.5756
 2793SOL    HW111170   1.141   2.391   1.146  1.8194 -0.1926 -0.0723
 2793SOL    HW211171   1.107   2.280   1.244  0.8227 -1.7675 -2.1330
 2793SOL     MW11172   1.157   2.348   1.221  0.2527 -0.4722  0.1459
 2794SOL     OW11173   4.227   4.928   3.835  0.3891 -0.2859  0.9481
 2794SOL    HW111174   4.205   5.000   3.894  1.1272  0.8377 -0.1081
 2794SOL    HW211175   4.143   4.895   3.805  0.0405  0.1188  1.4542
 2794SOL     MW11176   4.214   4.933   3.839  0.4389 -0.0903  0.8777
 2795SOL     OW11177   2.309   2.589   1.079 -0.3583  0.1518 -0.1598
 2795SOL    HW111178   2.346   2.502   1.062  0.8735  0.9194 -1.5993
 2795SOL    HW211179   2.307   2.595   1.175  0.1465 -1.2058 -0.0410
 2795SOL     MW11180   2.313   2.579   1.089 -0.1360  0.0763 -0.3289
 2796SOL     OW11181   2.408   4.692   4.159 -0.3986 -0.0052 -0.4812
 2796SOL    HW111182   2.416   4.785   4.183  0.0123  0.4503 -2.2224
 2796SOL    HW211183   2.456   4.646   4.227 -0.3048  1.0923  0.2302
 2796SOL     MW11184   2.415   4.698   4.171 -0.3340  0.1936 -0.6130
 2797SOL     OW11185   2.055   1.826   1.887 -0.1563  0.4267 -0.6509
 2797SOL    HW111186   2.057   1.753   1.949 -1.0882  0.1681 -0.9181
 2797SOL    HW211187   2.073   1.903   1.941  1.5975 -0.0547 -0.4850
 2797SOL     MW11188   2.058   1.826   1.902 -0.0511  0.3320 -0.6639
 2798SOL     OW11189   0.014   2.673   5.091  0.3792  0.2597 -0.4757
 2798SOL    HW111190  -0.076   2.664   5.124  0.1957  1.2502 -0.6695
 2798SOL    HW211191   0.069   2.646   5.164 -0.0703 -1.8811 -0.8441
 2798SOL     MW11192   0.009   2.668   5.104  0.2982  0.1125 -0.5477
 2799SOL     OW11193   3.779   1.796   0.364 -0.0898 -0.5064  0.1283
 2799SOL    HW111194   3.865   1.831   0.388 -0.8335  1.0116  0.6445
 2799SOL    HW211195   3.729   1.797   0.445 -0.6852 -1.1463 -0.2194
 2799SOL     MW11196   3.784   1.800   0.377 -0.2612 -0.3940  0.1499
 2800SOL     OW11197   0.833   3.575   3.910  0.0138  0.0284  0.1265
 2800SOL    HW111198   0.914   3.553   3.958  1.5783  0.2840 -2.2165
 2800SOL    HW211199   0.763   3.539   3.964  1.7618 -1.1952  1.7322
 2800SOL     MW11200   0.835   3.567   3.923  0.4378 -0.0955  0.0321
 2801SOL     OW11201   2.213   2.890   2.016 -0.0934 -0.7955 -0.0181
 2801SOL    HW111202   2.126   2.895   2.055 -0.1441 -2.4081  0.1467
 2801SOL    HW211203   2.266   2.842   2.079  1.1088  0.6791  0.1543
 2801SOL     MW11204   2.209   2.885   2.029  0.0540 -0.8132  0.0250
 2802SOL     OW11205   3.323   4.210   3.402  0.1099  0.3689  0.3267
 2802SOL    HW111206   3.406   4.163   3.415 -0.1502 -0.6193 -1.2824
 2802SOL    HW211207   3.257   4.141   3.396 -0.0633  0.6371 -3.9340
 2802SOL     MW11208   3.325   4.195   3.403  0.0545  0.2768 -0.4247
 2803SOL     OW11209   2.297   3.940   1.089 -0.3408  0.3267 -0.2142
 2803SOL    HW111210   2.205   3.952   1.065 -0.3923 -0.0397 -0.2171
 2803SOL    HW211211   2.303   3.848   1.115  0.2540  0.0367 -1.2991
 2803SOL     MW11212   2.286   3.930   1.089 -0.2712  0.2427 -0.3535
 2804SOL     OW11213   1.845   4.401   5.245  0.3101 -0.4856  0.0429
 2804SOL    HW111214   1.889   4.432   5.324 -0.2120 -0.4512  0.3218
 2804SOL    HW211215   1.833   4.481   5.192  0.2913 -0.4449  0.1080
 2804SOL     MW11216   1.849   4.415   5.248  0.2408 -0.4760  0.0870
 2805SOL     OW11217   1.221   0.185   5.198  0.0710  0.4674  0.4807
 2805SOL    HW111218   1.266   0.179   5.114 -0.7635 -1.9678  0.1143
 2805SOL    HW211219   1.229   0.277   5.224  3.5418  0.5596 -0.4322
 2805SOL     MW11220   1.228   0.196   5.191  0.4085  0.1675  0.3170
 2806SOL     OW11221   5.365   2.781   3.848 -0.0247 -0.0020  0.2247
 2806SOL    HW111222   5.296   2.729   3.805 -0.0577 -1.0821  1.5019
 2806SOL    HW211223   5.317   2.837   3.909  0.1191  0.4911 -0.1112
 2806SOL     MW11224   5.350   2.781   3.850 -0.0105 -0.0771  0.3452
 2807SOL     OW11225   1.974   3.788   1.726 -0.2432 -0.4508  0.1961
 2807SOL    HW111226   1.912   3.764   1.657 -0.1514 -0.5270  0.1399
 2807SOL    HW211227   1.965   3.882   1.735  0.6154 -0.2562 -0.7613
 2807SOL     MW11228   1.965   3.797   1.718 -0.1215 -0.4356  0.0663
 2808SOL     OW11229   1.636   3.439   2.785 -0.2283 -0.3524 -0.3129
 2808SOL    HW111230   1.656   3.518   2.734 -0.6298 -0.1628 -0.1789
 2808SOL    HW211231   1.658   3.367   2.726  2.1354 -0.1883  0.3030
 2808SOL     MW11232   1.641   3.440   2.771  0.0229 -0.3071 -0.2169
 2809SOL     OW11233   5.298   2.655   1.201 -0.1038  0.9082  0.5251
 2809SOL    HW111234   5.258   2.574   1.169  0.3427  1.1788 -0.7839
 2809SOL    HW211235   5.292   2.649   1.296 -0.2470 -0.5805  0.4443
 2809SOL     MW11236   5.292   2.644   1.209 -0.0650  0.7523  0.3472
 2810SOL     OW11237   0.965   1.890   3.070 -0.1842 -0.4446 -0.0949
 2810SOL    HW111238   0.949   1.965   3.013  0.6909 -0.6580 -0.6362
 2810SOL    HW211239   1.006   1.824   3.014  0.1032 -0.9036  0.6249
 2810SOL     MW11240   0.969   1.891   3.056 -0.0354 -0.5307 -0.0720
 2811SOL     OW11241   2.616   2.788   1.832  0.6440 -0.4119 -0.2299
 2811SOL    HW111242   2.597   2.780   1.925  0.1395  2.5081  0.0024
 2811SOL    HW211243   2.533   2.819   1.793  1.4610  0.6088 -1.2360
 2811SOL     MW11244   2.603   2.791   1.839  0.6840  0.0926 -0.3289
 2812SOL     OW11245   4.943   3.977   2.520  0.4730 -0.2540  0.8334
 2812SOL    HW111246   5.005   3.985   2.592 -1.1848  1.0275  2.1946
 2812SOL    HW211247   4.878   4.045   2.536  0.7634  1.0618 -2.6643
 2812SOL     MW11248   4.942   3.987   2.531  0.2980  0.0785  0.5599
 2813SOL     OW11249   0.132   0.367   4.182 -0.1745 -0.0395  0.1265
 2813SOL    HW111250   0.166   0.329   4.101 -0.8982 -1.0248  0.2698
 2813SOL    HW211251   0.184   0.326   4.251 -2.1723 -2.2768  0.4186
 2813SOL     MW11252   0.143   0.357   4.181 -0.5229 -0.4520  0.1823
 2814SOL     OW11253   3.287   5.236   2.706  0.1687  0.4121  0.7393
 2814SOL    HW111254   3.306   5.297   2.634  1.5187  0.2524  0.9476
 2814SOL    HW211255   3.372   5.215   2.743 -0.2347 -1.7769  0.5441
 2814SOL     MW11256   3.300   5.241   2.701  0.2899  0.1115  0.7410
 2815SOL     OW11257   1.198   0.299   3.168  0.1856  0.2667  0.6145
 2815SOL    HW111258   1.212   0.205   3.176 -1.7038 -0.1972 -0.7754
 2815SOL    HW211259   1.170   0.327   3.254 -0.4225 -0.6894  0.7412
 2815SOL     MW11260   1.196   0.291   3.180 -0.1341  0.0849  0.4528
 2816SOL     OW11261   0.670   2.145   0.680 -0.1373 -0.2179 -0.3740
 2816SOL    HW111262   0.691   2.115   0.591 -0.9110  1.0251 -1.0052
 2816SOL    HW211263   0.607   2.080   0.712 -1.5252  0.4617 -1.5871
 2816SOL     MW11264   0.665   2.133   0.673 -0.4140  0.0282 -0.6101
 2817SOL     OW11265   4.830   5.082   2.359 -0.3020 -0.3385  0.5457
 2817SOL    HW111266   4.869   5.046   2.279 -1.5981 -1.7515  0.5154
 2817SOL    HW211267   4.888   5.155   2.383  1.0829 -0.9774 -0.7098
 2817SOL     MW11268   4.843   5.087   2.352 -0.2906 -0.6012  0.3811
 2818SOL     OW11269   4.066   4.989   2.219  0.2549  0.0764  0.5139
 2818SOL    HW111270   4.146   5.012   2.172 -0.1954  0.4145 -0.1047
 2818SOL    HW211271   4.079   5.022   2.308  0.7888  0.1488  0.4110
 2818SOL     MW11272   4.078   4.996   2.224  0.2656  0.1289  0.4215
 2819SOL     OW11273   2.219   0.747   0.316  0.2084 -0.2437 -0.0509
 2819SOL    HW111274   2.195   0.675   0.375  0.3489  0.4924  0.9391
 2819SOL    HW211275   2.181   0.723   0.232 -0.8873 -0.8397  0.5935
 2819SOL     MW11276   2.211   0.734   0.313  0.0861 -0.2258  0.1583
 2820SOL     OW11277   2.123   0.490   4.486  0.0000  0.1649  0.4089
 2820SOL    HW111278   2.091   0.516   4.399 -0.7117  0.1530  0.6640
 2820SOL    HW211279   2.165   0.569   4.520  0.4689  0.1121 -0.0224
 2820SOL     MW11280   2.125   0.503   4.479 -0.0311  0.1566  0.3864
 2821SOL     OW11281   4.370   0.738   2.555 -0.3992 -0.2222 -0.3248
 2821SOL    HW111282   4.371   0.791   2.634 -2.1770 -1.4529  0.6197
 2821SOL    HW211283   4.348   0.650   2.586  0.1138 -1.0037 -2.0600
 2821SOL     MW11284   4.367   0.733   2.569 -0.5611 -0.4798 -0.4260
 2822SOL     OW11285   2.197   0.598   2.120  0.4734 -0.3383 -0.2237
 2822SOL    HW111286   2.193   0.693   2.133 -0.0992 -0.0094 -2.4730
 2822SOL    HW211287   2.286   0.582   2.089  0.3800 -0.4470 -0.4381
 2822SOL     MW11288   2.208   0.608   2.118  0.3882 -0.3101 -0.5391
 2823SOL     OW11289   5.168   2.156   0.569 -0.1022 -0.0678  0.3545
 2823SOL    HW111290   5.143   2.246   0.592 -1.5898 -0.5636  0.8010
 2823SOL    HW211291   5.135   2.145   0.480  0.9816  0.1441 -0.0827
 2823SOL     MW11292   5.160   2.166   0.561 -0.1539 -0.1041  0.3557
 2824SOL     OW11293   2.797   4.125   2.132  0.1550  0.6689 -0.3101
 2824SOL    HW111294   2.859   4.071   2.082 -0.9755 -0.0906 -0.9205
 2824SOL    HW211295   2.718   4.072   2.137  0.5939  0.1324  3.4777
 2824SOL     MW11296   2.795   4.111   2.126  0.0665  0.5030  0.0967
 2825SOL     OW11297   4.860   4.825   4.650 -0.0925 -0.2700  0.0548
 2825SOL    HW111298   4.879   4.736   4.622  0.0695 -0.6944  1.4518
 2825SOL    HW211299   4.941   4.856   4.691 -1.0128 -0.5892  2.2634
 2825SOL     MW11300   4.873   4.818   4.651 -0.1896 -0.3652  0.5163
 2826SOL     OW11301   4.751   4.167   4.309 -0.1277  0.3083 -0.0198
 2826SOL    HW111302   4.694   4.096   4.280  0.0984 -0.5997  1.6399
 2826SOL    HW211303   4.823   4.168   4.245  0.0897 -1.2545  0.1668
 2826SOL     MW11304   4.753   4.158   4.297 -0.0709 -0.0080  0.2165
 2827SOL     OW11305   1.888   1.337   3.237  0.2526  0.4777 -0.3298
 2827SOL    HW111306   1.911   1.382   3.319 -2.3759  1.5799 -0.0856
 2827SOL    HW211307   1.800   1.369   3.217  0.3776 -0.6512 -3.0120
 2827SOL     MW11308   1.880   1.347   3.245 -0.0679  0.4743 -0.6419
 2828SOL     OW11309   0.406   1.905   2.527 -0.6149 -0.6059 -0.7181
 2828SOL    HW111310   0.354   1.977   2.563 -1.8930 -2.2473  0.8796
 2828SOL    HW211311   0.469   1.948   2.470 -0.1163  1.9745  1.5594
 2828SOL     MW11312   0.407   1.920   2.525 -0.7147 -0.4857 -0.2220
 2829SOL     OW11313   0.537   0.986   0.981  0.3861  0.7378 -0.1209
 2829SOL    HW111314   0.460   0.929   0.971 -0.1592  1.4442 -0.0683
 2829SOL    HW211315   0.611   0.932   0.953 -0.4100  0.8267 -2.6312
 2829SOL     MW11316   0.536   0.971   0.976  0.2144  0.8396 -0.4355
 2830SOL     OW11317   5.359   2.125   3.927  0.3364 -0.6911  0.1661
 2830SOL    HW111318   5.291   2.063   3.900  0.6544 -1.8671  1.8764
 2830SOL    HW211319   5.420   2.128   3.852 -0.5629 -1.1356 -0.6020
 2830SOL     MW11320   5.358   2.117   3.914  0.2620 -0.8985  0.2867
 2831SOL     OW11321   0.490   4.672   4.849 -0.3068 -0.1918 -0.0693
 2831SOL    HW111322   0.400   4.659   4.820 -0.3781 -1.7705  0.7338
 2831SOL    HW211323   0.484   4.744   4.912 -0.5967  1.3046 -1.7502
 2831SOL     MW11324   0.478   4.679   4.854 -0.3531 -0.2023 -0.1816
 2832SOL     OW11325   4.778   2.872   3.138  0.2050  0.2025  0.4311
 2832SOL    HW111326   4.863   2.828   3.149 -1.1541 -3.2139 -1.0679
 2832SOL    HW211327   4.729   2.849   3.217 -0.2602 -0.3253 -0.0069
 2832SOL     MW11328   4.783   2.863   3.149 -0.0286 -0.3024  0.1831
 2833SOL     OW11329   1.196   5.307   4.102 -0.3848  0.5205 -0.0882
 2833SOL    HW111330   1.136   5.329   4.030 -1.7869 -0.6260  0.6701
 2833SOL    HW211331   1.183   5.213   4.115  2.2444  0.0452 -0.4380
 2833SOL     MW11332   1.186   5.297   4.095 -0.2278  0.3129 -0.0359
 2834SOL     OW11333   0.816   4.160   3.257  0.1882 -0.7502  0.3919
 2834SOL    HW111334   0.723   4.168   3.234  0.7699 -1.5083 -2.7960
 2834SOL    HW211335   0.862   4.188   3.178  2.6637 -1.5804  1.4410
 2834SOL     MW11336   0.810   4.165   3.244  0.5796 -0.9535  0.1181
 2835SOL     OW11337   2.608   1.574   3.587 -0.0890  0.0322  0.2014
 2835SOL    HW111338   2.632   1.601   3.499  0.4429  0.5065  0.4857
 2835SOL    HW211339   2.529   1.623   3.607  0.1330  0.3923  0.2141
 2835SOL     MW11340   2.601   1.584   3.579  0.0075  0.1390  0.2394
 2836SOL     OW11341   0.179   4.091   1.461  0.3376 -0.0669 -0.1955
 2836SOL    HW111342   0.264   4.058   1.432  0.5620  2.1844 -2.3960
 2836SOL    HW211343   0.116   4.025   1.430  1.0625 -0.2760 -1.2850
 2836SOL     MW11344   0.182   4.078   1.453  0.4591  0.1945 -0.6167
 2837SOL     OW11345   4.608   4.610   3.961  0.0849  0.2584  0.2382
 2837SOL    HW111346   4.572   4.697   3.976  0.5855  0.3751  0.7725
 2837SOL    HW211347   4.701   4.625   3.943  0.0118 -0.0969 -0.4940
 2837SOL     MW11348   4.616   4.623   3.960  0.1396  0.2278  0.2129
 2838SOL     OW11349   1.831   4.587   2.424 -0.6640  1.0194  0.2627
 2838SOL    HW111350   1.913   4.599   2.472 -0.7782 -1.5015  1.1781
 2838SOL    HW211351   1.859   4.569   2.334 -0.3278  2.2463  0.1030
 2838SOL     MW11352   1.845   4.586   2.418 -0.6355  0.8538  0.3595
 2839SOL     OW11353   3.350   0.749   0.333 -0.0624  0.2572 -0.4694
 2839SOL    HW111354   3.441   0.759   0.361  0.1309  1.4052 -1.4060
 2839SOL    HW211355   3.356   0.737   0.238 -0.9605  2.3371 -0.8496
 2839SOL     MW11356   3.362   0.749   0.324 -0.1526  0.6704 -0.6380
 2840SOL     OW11357   4.023   1.810   4.951  0.3472  0.2979 -0.6392
 2840SOL    HW111358   3.986   1.724   4.930 -0.1119  0.7986 -1.9949
 2840SOL    HW211359   3.953   1.872   4.930  0.9751  1.0596 -0.5206
 2840SOL     MW11360   4.010   1.807   4.946  0.3688  0.4595 -0.7975
 2841SOL     OW11361   2.327   1.430   0.973  0.3985  0.0411  0.0413
 2841SOL    HW111362   2.367   1.461   0.892 -0.0416 -1.1442 -0.6570
 2841SOL    HW211363   2.300   1.509   1.019 -0.0768  0.7145 -1.3471
 2841SOL     MW11364   2.329   1.444   0.968  0.2814 -0.0245 -0.2258
 2842SOL     OW11365   0.460   1.875   4.261  0.1666  0.5508  0.2426
 2842SOL    HW111366   0.465   1.813   4.334 -1.7873 -0.2431 -0.2554
 2842SOL    HW211367   0.373   1.862   4.223  0.9965  1.1506 -2.0519
 2842SOL     MW11368   0.450   1.866   4.265  0.0227  0.5260 -0.1148
 2843SOL     OW11369   0.824   5.010   0.838 -0.3222 -0.0337 -0.1032
 2843SOL    HW111370   0.845   5.053   0.921  0.5877 -0.1649 -0.2537
 2843SOL    HW211371   0.784   5.079   0.785 -1.9678 -0.2374  0.8322
 2843SOL     MW11372   0.822   5.024   0.842 -0.4164 -0.0766 -0.0027
 2844SOL     OW11373   4.612   3.195   4.216  1.1271  0.2959  0.3778
 2844SOL    HW111374   4.610   3.137   4.140  0.0645  0.6154  0.1429
 2844SOL    HW211375   4.537   3.253   4.204  2.0479  1.6092  0.6954
 2844SOL     MW11376   4.602   3.195   4.205  1.1089  0.5049  0.3884
 2845SOL     OW11377   4.315   4.086   3.969 -0.1425 -0.5684 -0.2216
 2845SOL    HW111378   4.341   4.059   3.881 -2.5859 -0.0571 -1.1886
 2845SOL    HW211379   4.328   4.007   4.022  0.0575 -1.3227 -1.3416
 2845SOL     MW11380   4.320   4.072   3.964 -0.4297 -0.5995 -0.4888
 2846SOL     OW11381   0.876   2.751   5.085  0.4327 -0.3353  0.5762
 2846SOL    HW111382   0.903   2.703   5.164 -0.5924 -0.9910  0.5503
 2846SOL    HW211383   0.942   2.728   5.020  0.8222 -0.4580  1.0067
 2846SOL     MW11384   0.888   2.742   5.087  0.3513 -0.4350  0.6280
 2847SOL     OW11385   5.067   5.375   2.642  0.0108  0.0728  0.0099
 2847SOL    HW111386   5.026   5.458   2.666 -0.6497 -0.3887  0.5148
 2847SOL    HW211387   5.160   5.388   2.659  0.1243  1.1854 -1.2659
 2847SOL     MW11388   5.073   5.387   2.647 -0.0592  0.1561 -0.0888
 2848SOL     OW11389   1.793   3.089   4.444 -0.3916 -0.2421 -0.3182
 2848SOL    HW111390   1.832   3.012   4.401 -0.3635 -0.7430  0.5776
 2848SOL    HW211391   1.724   3.053   4.500 -0.4209  0.3950  0.0644
 2848SOL     MW11392   1.789   3.074   4.446 -0.3917 -0.2246 -0.1546
 2849SOL     OW11393   4.519   1.581   3.551  0.1049  0.8745 -0.7275
 2849SOL    HW111394   4.433   1.603   3.515 -0.5508 -0.5696 -0.0771
 2849SOL    HW211395   4.558   1.523   3.485 -0.2658 -0.1144 -0.0953
 2849SOL     MW11396   4.513   1.577   3.538 -0.0265  0.5630 -0.5633
 2850SOL     OW11397   1.342   4.476   0.279  0.3999 -0.0202 -0.0384
 2850SOL    HW111398   1.318   4.541   0.345 -0.8759  0.7494 -1.1866
 2850SOL    HW211399   1.265   4.420   0.271  0.3145  0.2311 -1.2181
 2850SOL     MW11400   1.329   4.477   0.286  0.2257  0.1105 -0.3364
 2851SOL     OW11401   0.382   3.212   5.015  0.2567  0.1809  0.5035
 2851SOL    HW111402   0.295   3.236   4.984 -0.3827 -0.3053  1.8447
 2851SOL    HW211403   0.442   3.262   4.960 -0.7415 -1.3818 -2.1846
 2851SOL     MW11404   0.379   3.221   5.004  0.0471 -0.0814  0.3310
 2852SOL     OW11405   3.500   2.879   3.093 -0.9377  0.0353  0.1784
 2852SOL    HW111406   3.479   2.942   3.024  1.7607 -0.4615 -1.2086
 2852SOL    HW211407   3.462   2.917   3.172 -1.4611  2.1968 -1.0349
 2852SOL     MW11408   3.493   2.892   3.095 -0.6592  0.2484 -0.1545
 2853SOL     OW11409   5.066   0.381   0.258  0.5949 -0.0977  0.1155
 2853SOL    HW111410   4.972   0.395   0.268  0.5754  0.3597 -0.6245
 2853SOL    HW211411   5.073   0.291   0.224  0.2933  0.4569 -1.5223
 2853SOL     MW11412   5.055   0.371   0.255  0.5538  0.0319 -0.1889
 2854SOL     OW11413   0.307   0.026   2.990  0.4890  0.1852  0.3296
 2854SOL    HW111414   0.212   0.039   2.995  0.4239 -0.6414  1.7780
 2854SOL    HW211415   0.320  -0.065   3.019  1.6884  0.1480 -0.2799
 2854SOL     MW11416   0.296   0.016   2.994  0.6342  0.0746  0.4370
 2855SOL     OW11417   1.634   1.445   3.196 -0.2927  0.3976 -0.4875
 2855SOL    HW111418   1.614   1.364   3.147  0.7771 -0.1164 -0.0916
 2855SOL    HW211419   1.582   1.438   3.276  0.0456 -0.0489 -0.3074
 2855SOL     MW11420   1.625   1.434   3.200 -0.1124  0.2746 -0.4138
 2856SOL     OW11421   2.617   0.992   3.542  0.0602  0.6992 -0.3125
 2856SOL    HW111422   2.639   0.999   3.635  1.7942 -0.7877 -0.5671
 2856SOL    HW211423   2.638   1.078   3.506 -0.2601  1.1622  0.5747
 2856SOL     MW11424   2.622   1.004   3.549  0.2412  0.5681 -0.2315
 2857SOL     OW11425   0.038   0.111   2.190 -0.1383 -0.2515 -0.3579
 2857SOL    HW111426   0.046   0.185   2.250 -0.9264  0.5437 -1.1806
 2857SOL    HW211427   0.009   0.038   2.244 -1.8641  0.7164  0.0800
 2857SOL     MW11428   0.035   0.111   2.204 -0.4601 -0.0258 -0.4071
 2858SOL     OW11429   3.339   1.195   0.125 -0.4075  0.3747 -0.3185
 2858SOL    HW111430   3.310   1.107   0.147 -0.7639  0.2577 -1.2275
 2858SOL    HW211431   3.359   1.192   0.031  0.9797  0.8833 -0.0625
 2858SOL     MW11432   3.338   1.184   0.116 -0.2756  0.4248 -0.4021
 2859SOL     OW11433   3.418   2.457   1.699 -0.4423  0.1722 -0.3072
 2859SOL    HW111434   3.393   2.432   1.788  1.8619 -0.2375  0.2892
 2859SOL    HW211435   3.487   2.522   1.711  0.7337 -0.7390 -1.7480
 2859SOL     MW11436   3.424   2.462   1.712  0.0032  0.0031 -0.4153
 2860SOL     OW11437   0.722   0.984   5.425 -0.3768  0.0457  0.3348
 2860SOL    HW111438   0.684   0.897   5.435  0.6833 -0.3067  1.6450
 2860SOL    HW211439   0.646   1.042   5.414 -1.0721 -1.0790 -1.1366
 2860SOL     MW11440   0.707   0.980   5.425 -0.3301 -0.1434  0.3142
 2861SOL     OW11441   4.431   4.924   0.462  0.7109  0.4151 -0.8324
 2861SOL    HW111442   4.469   4.964   0.384 -0.4716  0.7225 -1.2724
 2861SOL    HW211443   4.350   4.973   0.477  1.1103  0.6473  0.8397
 2861SOL     MW11444   4.426   4.936   0.454  0.6107  0.4842 -0.6746
 2862SOL     OW11445   3.505   1.203   4.314 -0.1671 -0.0422 -0.1974
 2862SOL    HW111446   3.505   1.157   4.398 -0.0341  0.9356  0.3675
 2862SOL    HW211447   3.449   1.151   4.257 -0.2497 -0.7311  0.4958
 2862SOL     MW11448   3.498   1.191   4.318 -0.1606 -0.0052 -0.0363
 2863SOL     OW11449   1.223   3.452   5.183 -0.1010  0.3101 -0.3109
 2863SOL    HW111450   1.130   3.468   5.198  0.0489  2.3901 -1.2617
 2863SOL    HW211451   1.226   3.402   5.101 -0.3800  0.1628 -0.2324
 2863SOL     MW11452   1.211   3.448   5.174 -0.1175  0.5575 -0.4226
 2864SOL     OW11453   0.906   1.038   4.930  0.1699 -0.4774 -0.0398
 2864SOL    HW111454   0.980   0.997   4.884  0.6814  0.6353 -0.2537
 2864SOL    HW211455   0.875   1.105   4.870  1.1520  1.3401  1.3563
 2864SOL     MW11456   0.912   1.042   4.917  0.3611 -0.1023  0.1116
 2865SOL     OW11457   2.595   2.051   0.415 -0.1151  0.3952 -0.1384
 2865SOL    HW111458   2.638   2.109   0.478  0.3814  0.5479 -0.6064
 2865SOL    HW211459   2.537   2.109   0.366  2.4726  1.1793 -2.5691
 2865SOL     MW11460   2.593   2.066   0.417  0.2797  0.5151 -0.5095
 2866SOL     OW11461   0.666   4.009   0.898  0.0877 -0.5011 -0.2982
 2866SOL    HW111462   0.758   3.989   0.915  0.1810  0.2854  0.2054
 2866SOL    HW211463   0.669   4.089   0.844 -0.2952  1.6408  2.6279
 2866SOL     MW11464   0.678   4.017   0.893  0.0506 -0.1262  0.1408
 2867SOL     OW11465   5.040   3.184   4.112  0.3630 -0.2034 -0.3177
 2867SOL    HW111466   5.023   3.264   4.063  0.6698 -1.0413 -1.8920
 2867SOL    HW211467   4.985   3.191   4.190  0.6512  1.6642 -0.2390
 2867SOL     MW11468   5.031   3.195   4.116  0.4391 -0.0716 -0.5092
 2868SOL     OW11469   0.508   4.030   1.937  0.2520  0.1037 -0.4383
 2868SOL    HW111470   0.584   4.084   1.917 -0.1348  0.3676 -1.2528
 2868SOL    HW211471   0.434   4.090   1.934  0.1327  0.1244  1.7063
 2868SOL     MW11472   0.508   4.044   1.934  0.1872  0.1401 -0.2681
 2869SOL     OW11473   0.210   0.392   1.180  0.1695  0.4842 -0.1829
 2869SOL    HW111474   0.129   0.370   1.226 -0.2129 -0.3229 -1.1857
 2869SOL    HW211475   0.193   0.478   1.141  0.2585  0.8758  0.6349
 2869SOL     MW11476   0.197   0.400   1.181  0.1319  0.4310 -0.2066
 2870SOL     OW11477   4.472   4.676   5.167  0.2495 -0.0453 -0.6281
 2870SOL    HW111478   4.473   4.705   5.259  1.8093 -3.5941  0.6290
 2870SOL    HW211479   4.388   4.631   5.157 -0.0814  0.6523 -1.1261
 2870SOL     MW11480   4.461   4.674   5.177  0.4069 -0.4103 -0.5309
 2871SOL     OW11481   1.105   4.337   0.274 -0.5521  0.2602 -0.8957
 2871SOL    HW111482   1.117   4.366   0.364 -0.9732  2.8262 -1.5790
 2871SOL    HW211483   1.011   4.346   0.258 -0.5496 -0.6318 -1.4566
 2871SOL     MW11484   1.095   4.342   0.283 -0.6057  0.4745 -1.0550
 2872SOL     OW11485   0.975   5.389   3.197  0.5743  0.1867 -0.1906
 2872SOL    HW111486   1.016   5.381   3.284 -0.8759 -1.3275  0.4221
 2872SOL    HW211487   0.959   5.483   3.187  3.8098  0.8369 -0.3485
 2872SOL     MW11488   0.978   5.400   3.207  0.8028  0.0761 -0.1324
 2873SOL     OW11489   3.682   5.113   3.388  0.3673  0.0103  0.1855
 2873SOL    HW111490   3.602   5.156   3.419 -0.9815  0.4353 -3.4079
 2873SOL    HW211491   3.654   5.024   3.364  1.1760 -0.1192 -0.3244
 2873SOL     MW11492   3.668   5.107   3.389  0.2982  0.0481 -0.3398
 2874SOL     OW11493   2.310   2.351   5.043  0.4608  0.7098  0.1463
 2874SOL    HW111494   2.251   2.346   4.968  0.6616  1.1297 -0.0440
 2874SOL    HW211495   2.325   2.260   5.068  0.7303  0.5460 -0.5907
 2874SOL     MW11496   2.304   2.338   5.036  0.5210  0.7426  0.0276
 2875SOL     OW11497   1.742   2.595   0.254  0.5963  0.2305  0.2743
 2875SOL    HW111498   1.695   2.535   0.312 -0.3681  0.9856  0.3028
 2875SOL    HW211499   1.756   2.545   0.174 -1.0326  0.2413 -0.0500
 2875SOL     MW11500   1.738   2.581   0.251  0.2643  0.3285  0.2364
 2876SOL     OW11501   4.162   2.325   1.404 -0.0082 -0.5879  0.3024
 2876SOL    HW111502   4.069   2.328   1.380  0.0072 -2.3279 -0.0790
 2876SOL    HW211503   4.164   2.352   1.495 -0.7553  0.4973  0.0215
 2876SOL     MW11504   4.150   2.329   1.412 -0.1018 -0.6717  0.2176
 2877SOL     OW11505   2.270   0.707   4.566  0.5955 -0.1248 -0.2520
 2877SOL    HW111506   2.319   0.701   4.648  0.4170 -0.4733 -0.1671
 2877SOL    HW211507   2.337   0.701   4.498  0.7946  0.6221 -0.1379
 2877SOL     MW11508   2.285   0.706   4.568  0.5982 -0.0738 -0.2266
 2878SOL     OW11509   1.353   3.030   4.766  0.6099 -0.2409 -0.5293
 2878SOL    HW111510   1.289   3.069   4.825 -0.1574  0.7074 -1.9392
 2878SOL    HW211511   1.429   3.088   4.772  1.1691 -1.0398  0.6926
 2878SOL     MW11512   1.355   3.043   4.775  0.5832 -0.2218 -0.5533
 2879SOL     OW11513   0.187   2.921   3.291  0.0410 -0.4216  0.7897
 2879SOL    HW111514   0.103   2.903   3.333 -0.0278 -0.7048  0.5389
 2879SOL    HW211515   0.217   3.003   3.329 -0.9762  0.3652 -0.0609
 2879SOL     MW11516   0.180   2.929   3.301 -0.0980 -0.3571  0.6487
 2880SOL     OW11517   1.258   4.728   3.762  0.4874  0.1117  0.2999
 2880SOL    HW111518   1.322   4.719   3.832 -0.3214  0.1072  1.0546
 2880SOL    HW211519   1.308   4.712   3.681  1.4429  0.2057  0.8607
 2880SOL     MW11520   1.272   4.725   3.760  0.5062  0.1231  0.4683
 2881SOL     OW11521   2.094   4.850   3.871 -0.3748 -0.1280 -0.0070
 2881SOL    HW111522   2.165   4.874   3.930 -1.1243  1.1927  0.3948
 2881SOL    HW211523   2.116   4.890   3.787 -0.6550  0.3283  0.1323
 2881SOL     MW11524   2.106   4.858   3.868 -0.5066  0.0995  0.0623
 2882SOL     OW11525   3.330   4.231   1.140  0.2684 -0.0755 -0.8115
 2882SOL    HW111526   3.290   4.317   1.158  0.2282 -0.2879  0.1449
 2882SOL    HW211527   3.262   4.183   1.092 -0.4501 -0.2375  0.3209
 2882SOL     MW11528   3.316   4.236   1.136  0.1713 -0.1234 -0.5441
 2883SOL     OW11529   3.070   0.435   4.526  0.0166 -0.0498 -0.4559
 2883SOL    HW111530   3.142   0.405   4.582 -0.0589 -0.3416 -0.5117
 2883SOL    HW211531   2.991   0.401   4.569  0.0475 -1.6863 -1.5928
 2883SOL     MW11532   3.069   0.427   4.539  0.0109 -0.2966 -0.6086
 2884SOL     OW11533   5.236   3.770   5.117 -0.1785 -0.1809 -0.3126
 2884SOL    HW111534   5.286   3.702   5.071  1.0400  1.4968 -1.5695
 2884SOL    HW211535   5.285   3.785   5.198 -0.4605 -0.7639 -0.0211
 2884SOL     MW11536   5.248   3.763   5.121 -0.0586 -0.0408 -0.4362
 2885SOL     OW11537   3.211   1.938   1.133 -0.0079  0.3947 -0.3394
 2885SOL    HW111538   3.137   1.936   1.072  0.3264  2.2261 -0.8661
 2885SOL    HW211539   3.199   1.861   1.188 -1.3391 -0.2982 -1.5404
 2885SOL     MW11540   3.200   1.928   1.132 -0.1355  0.5404 -0.5606
 2886SOL     OW11541   5.349   5.307   3.786  0.1915  0.3736  0.8378
 2886SOL    HW111542   5.387   5.343   3.706 -0.0272 -2.4147 -0.6459
 2886SOL    HW211543   5.255   5.302   3.768  0.2178 -0.9287  0.9318
 2886SOL     MW11544   5.342   5.311   3.774  0.1669 -0.1500  0.6599
 2887SOL     OW11545   1.909   2.214   3.258  0.0813 -0.2082  0.0526
 2887SOL    HW111546   1.915   2.161   3.338 -0.4939  2.2212  1.8049
 2887SOL    HW211547   1.992   2.261   3.254 -1.0092  1.8975  0.9317
 2887SOL     MW11548   1.921   2.213   3.268 -0.1319  0.3724  0.3894
 2888SOL     OW11549   4.861   0.769   5.192 -0.1980 -0.0015 -0.0561
 2888SOL    HW111550   4.803   0.707   5.235 -1.9316  0.6103 -1.3742
 2888SOL    HW211551   4.949   0.736   5.209 -0.9480 -1.3071  1.5076
 2888SOL     MW11552   4.865   0.757   5.200 -0.5160 -0.0903 -0.0247
 2889SOL     OW11553   3.098   1.789   4.977  0.0146 -0.2304  0.2976
 2889SOL    HW111554   3.193   1.801   4.977  0.2732 -1.7690 -1.8182
 2889SOL    HW211555   3.078   1.751   5.063  1.1810  0.7337  1.0268
 2889SOL     MW11556   3.107   1.786   4.988  0.1970 -0.3040  0.1201
 2890SOL     OW11557   3.910   0.162   2.720 -0.6178 -0.3786 -0.1241
 2890SOL    HW111558   3.972   0.152   2.648 -0.0823 -2.6702  0.5772
 2890SOL    HW211559   3.834   0.205   2.681 -0.1657 -1.1401 -1.9439
 2890SOL     MW11560   3.908   0.166   2.706 -0.4914 -0.7694 -0.2673
 2891SOL     OW11561   4.435   4.974   3.450  0.5131  0.2476 -0.2824
 2891SOL    HW111562   4.375   4.913   3.407 -0.3527 -0.7318  2.1179
 2891SOL    HW211563   4.377   5.034   3.498  1.4108  1.1778 -0.3470
 2891SOL     MW11564   4.420   4.974   3.451  0.5172  0.2413  0.0166
 2892SOL     OW11565   0.243   3.176   3.410 -0.1292  0.2313 -0.0574
 2892SOL    HW111566   0.295   3.227   3.347 -0.5607  0.4707 -0.2191
 2892SOL    HW211567   0.301   3.167   3.486  0.4070 -0.0747 -0.4867
 2892SOL     MW11568   0.257   3.181   3.412 -0.1158  0.2228 -0.1331
 2893SOL     OW11569   4.452   2.723   1.353 -0.1071  0.3017  0.6860
 2893SOL    HW111570   4.367   2.747   1.317 -0.6944 -1.9436  0.3889
 2893SOL    HW211571   4.432   2.691   1.441  0.0492 -2.1088 -0.0712
 2893SOL     MW11572   4.438   2.722   1.360 -0.1623 -0.2943  0.5510
 2894SOL     OW11573   2.312   3.682   0.829 -0.3067  0.2866 -0.1981
 2894SOL    HW111574   2.373   3.742   0.786 -0.7263  1.0654  0.2717
 2894SOL    HW211575   2.367   3.626   0.883  0.0561  0.4776 -0.3689
 2894SOL     MW11576   2.327   3.682   0.830 -0.3140  0.4108 -0.1598
 2895SOL     OW11577   1.192   1.820   0.798 -0.3152 -0.6243 -0.0736
 2895SOL    HW111578   1.246   1.889   0.836 -1.5600  0.3408  0.0319
 2895SOL    HW211579   1.173   1.761   0.871 -3.3416  1.6305  1.1764
 2895SOL     MW11580   1.196   1.822   0.812 -0.8619 -0.2121  0.1000
 2896SOL     OW11581   2.025   3.392   4.221 -0.0492  0.5897 -0.4403
 2896SOL    HW111582   1.969   3.381   4.298  0.9946  0.1796  0.2848
 2896SOL    HW211583   1.988   3.466   4.174 -0.2716  1.3309  0.8573
 2896SOL     MW11584   2.013   3.400   4.225  0.0560  0.6321 -0.1814
 2897SOL     OW11585   0.139   3.437   2.274  0.1864 -0.5172 -0.2172
 2897SOL    HW111586   0.095   3.394   2.347  0.1905 -2.2917 -1.1922
 2897SOL    HW211587   0.232   3.416   2.286  0.5849  1.6042  0.7883
 2897SOL     MW11588   0.145   3.429   2.285  0.2380 -0.4728 -0.2133
 2898SOL     OW11589   2.509   5.128   1.191  0.8661  0.2081 -0.3046
 2898SOL    HW111590   2.566   5.120   1.268  0.6940 -0.6975 -0.2527
 2898SOL    HW211591   2.561   5.179   1.129  1.2048  0.5298  0.2249
 2898SOL     MW11592   2.523   5.133   1.193  0.8874  0.1334 -0.2302
 2899SOL     OW11593   1.049   3.406   2.909 -0.0896  0.3463  0.7059
 2899SOL    HW111594   1.122   3.399   2.970  0.1006 -1.3888  0.3298
 2899SOL    HW211595   0.971   3.407   2.965  0.1329 -0.1257  1.0310
 2899SOL     MW11596   1.048   3.405   2.924 -0.0368  0.0638  0.6994
 2900SOL     OW11597   3.259   1.912   2.141  0.0376  0.0032 -0.2134
 2900SOL    HW111598   3.243   1.911   2.047  0.6904  0.7574 -0.3429
 2900SOL    HW211599   3.354   1.924   2.149  0.1086 -0.9234  0.5399
 2900SOL     MW11600   3.269   1.913   2.130  0.1302 -0.0189 -0.1335
 2901SOL     OW11601   3.424   2.009   1.446  0.7954  0.1201  0.1119
 2901SOL    HW111602   3.394   1.944   1.510  0.0989  0.2036 -0.1262
 2901SOL    HW211603   3.481   1.960   1.386  2.7355  0.3321  1.6628
 2901SOL     MW11604   3.428   1.995   1.447  0.9546  0.1579  0.2799
 2902SOL     OW11605   4.367   5.063   1.833  0.0661  0.9766  0.1657
 2902SOL    HW111606   4.460   5.079   1.848 -0.3237  1.3986  2.4692
 2902SOL    HW211607   4.329   5.055   1.920 -1.7013 -1.5047 -0.7121
 2902SOL     MW11608   4.374   5.064   1.846 -0.2101  0.7130  0.3482
 2903SOL     OW11609   3.627   0.525   4.853 -0.5652  0.1420 -0.0610
 2903SOL    HW111610   3.672   0.456   4.804  0.9126 -0.4346  1.9740
 2903SOL    HW211611   3.579   0.479   4.922 -0.4079  1.0746  0.6943
 2903SOL     MW11612   3.626   0.510   4.856 -0.3559  0.1876  0.2962
 2904SOL     OW11613   1.000   2.848   1.819  0.0313  0.2326 -0.2693
 2904SOL    HW111614   1.065   2.852   1.889  0.3003 -1.4948 -0.3926
 2904SOL    HW211615   1.049   2.871   1.740  0.7247 -1.7967 -0.4791
 2904SOL     MW11616   1.014   2.852   1.818  0.1545 -0.2483 -0.3119
 2905SOL     OW11617   4.532   0.271   2.007 -0.4159 -0.1382 -0.2092
 2905SOL    HW111618   4.567   0.273   2.096 -1.0879  0.4830  0.0593
 2905SOL    HW211619   4.472   0.346   2.004  1.5670  1.5094 -2.0019
 2905SOL     MW11620   4.529   0.281   2.018 -0.2481  0.1523 -0.4044
 2906SOL     OW11621   3.877   0.993   3.971 -0.4355  0.0187 -0.4617
 2906SOL    HW111622   3.884   1.084   3.999  1.8770  0.1751 -1.3256
 2906SOL    HW211623   3.853   0.999   3.878 -1.9327 -0.3388 -0.1270
 2906SOL     MW11624   3.875   1.005   3.963 -0.3312 -0.0070 -0.5294
 2907SOL     OW11625   4.402   1.530   4.255 -0.3503 -0.1163  0.2505
 2907SOL    HW111626   4.343   1.554   4.184 -0.8097  4.0364  1.7250
 2907SOL    HW211627   4.346   1.483   4.318 -0.7478 -0.8199 -0.6045
 2907SOL     MW11628   4.387   1.527   4.254 -0.4600  0.3252  0.3298
 2908SOL     OW11629   1.834   2.552   1.717  0.3497  0.1968  0.0964
 2908SOL    HW111630   1.906   2.518   1.663  0.5482 -1.1071  1.1527
 2908SOL    HW211631   1.862   2.538   1.807 -1.5068 -0.9769  0.5453
 2908SOL     MW11632   1.847   2.546   1.721  0.1375 -0.1204  0.2891
 2909SOL     OW11633   1.314   2.114   1.772  0.4363  0.5708  0.6550
 2909SOL    HW111634   1.399   2.154   1.791  1.0291 -0.4354  0.2067
 2909SOL    HW211635   1.303   2.046   1.839 -0.5430  1.3996  1.3846
 2909SOL     MW11636   1.323   2.111   1.783  0.3868  0.5481  0.6910
 2910SOL     OW11637   4.369   1.081   3.839  0.0122 -0.2751 -0.3363
 2910SOL    HW111638   4.311   1.153   3.817  0.3723  0.4698  1.0444
 2910SOL    HW211639   4.451   1.101   3.793  0.0687  0.1399 -0.0582
 2910SOL     MW11640   4.372   1.092   3.830  0.0655 -0.1266 -0.1240
 2911SOL     OW11641   2.335   2.824   3.653  0.5716 -0.0732 -0.3437
 2911SOL    HW111642   2.288   2.747   3.686  0.1091  0.9999  1.6181
 2911SOL    HW211643   2.266   2.885   3.628  0.9374 -0.2868 -2.0502
 2911SOL     MW11644   2.320   2.822   3.654  0.5592  0.0368 -0.3110
 2912SOL     OW11645   1.479   3.620   2.567  0.0137  0.6164  0.0331
 2912SOL    HW111646   1.420   3.544   2.571  1.4628 -0.4977  1.0203
 2912SOL    HW211647   1.420   3.695   2.560 -1.5702 -0.4164  1.4591
 2912SOL     MW11648   1.464   3.620   2.566 -0.0035  0.3416  0.3420
 2913SOL     OW11649   1.992   4.311   4.569  0.1428 -0.1546  0.3551
 2913SOL    HW111650   1.926   4.347   4.510  0.0766  0.1355  0.6062
 2913SOL    HW211651   1.943   4.259   4.632  0.2548 -0.8592 -0.1242
 2913SOL     MW11652   1.978   4.309   4.570  0.1487 -0.2076  0.3259
 2914SOL     OW11653   4.313   4.570   0.544 -0.1288  0.3039 -0.2291
 2914SOL    HW111654   4.273   4.649   0.507  0.7132  1.5311  1.3562
 2914SOL    HW211655   4.391   4.555   0.491 -0.3005  0.5404 -0.5492
 2914SOL     MW11656   4.318   4.578   0.533 -0.0430  0.4913 -0.0672
 2915SOL     OW11657   3.179   5.153   2.142 -0.4183 -0.1860 -0.3103
 2915SOL    HW111658   3.137   5.171   2.058 -0.8381 -0.8294 -0.2446
 2915SOL    HW211659   3.122   5.088   2.184  0.5833 -0.9779 -0.1553
 2915SOL     MW11660   3.166   5.147   2.137 -0.3438 -0.3697 -0.2820
 2916SOL     OW11661   3.624   2.637   1.657 -0.3021  0.2679 -0.1045
 2916SOL    HW111662   3.684   2.579   1.611 -0.0395  0.3897  0.0870
 2916SOL    HW211663   3.616   2.713   1.601  0.0838  0.4524  0.0915
 2916SOL     MW11664   3.630   2.639   1.644 -0.2191  0.3071 -0.0549
 2917SOL     OW11665   2.847   2.737   5.141 -0.4427  0.0297  0.3053
 2917SOL    HW111666   2.902   2.815   5.130 -1.6012  0.7760 -0.3175
 2917SOL    HW211667   2.870   2.704   5.228 -0.9528  1.9033  1.2035
 2917SOL     MW11668   2.857   2.743   5.151 -0.6563  0.3651  0.3406
 2918SOL     OW11669   1.632   5.018   3.950  0.4528  0.0780  0.2452
 2918SOL    HW111670   1.654   4.932   3.912 -1.3716 -0.7026  0.8431
 2918SOL    HW211671   1.591   5.066   3.878  0.8148  0.1861  0.1084
 2918SOL     MW11672   1.630   5.013   3.936  0.2656 -0.0081  0.3042
 2919SOL     OW11673   1.563   4.948   5.230 -0.2134  0.0221  0.0932
 2919SOL    HW111674   1.515   5.027   5.253 -2.0577 -1.1350  0.4171
 2919SOL    HW211675   1.542   4.933   5.138  0.8125  0.3428 -0.2055
 2919SOL     MW11676   1.554   4.956   5.222 -0.3182 -0.0850  0.0964
 2920SOL     OW11677   0.978   3.207   4.883 -0.5459 -0.4894  0.3166
 2920SOL    HW111678   0.982   3.112   4.872  1.0298 -0.3953 -0.0532
 2920SOL    HW211679   0.908   3.220   4.948 -0.6098 -1.9049  0.5632
 2920SOL     MW11680   0.969   3.197   4.890 -0.3524 -0.6585  0.3008
 2921SOL     OW11681   3.652   0.670   3.030 -0.0930 -0.4135  0.0933
 2921SOL    HW111682   3.723   0.688   3.091  0.5569  0.3747 -0.8594
 2921SOL    HW211683   3.682   0.707   2.947 -2.1099  1.1027 -0.0489
 2921SOL     MW11684   3.665   0.677   3.027 -0.2680 -0.1185 -0.0469
 2922SOL     OW11685   1.300   3.197   2.819 -0.4427  0.1309  0.6514
 2922SOL    HW111686   1.331   3.127   2.760  0.2407  1.7989 -1.0717
 2922SOL    HW211687   1.205   3.189   2.816 -0.3898 -0.4646  0.1292
 2922SOL     MW11688   1.292   3.187   2.811 -0.3484  0.2682  0.3640
 2923SOL     OW11689   3.084   4.517   5.178  0.3028 -0.1928 -0.0720
 2923SOL    HW111690   3.175   4.490   5.164  0.4249 -0.8608  1.7607
 2923SOL    HW211691   3.087   4.612   5.180  1.0159 -0.2192  0.3220
 2923SOL     MW11692   3.096   4.525   5.176  0.4097 -0.2817  0.2131
 2924SOL     OW11693   0.292   5.095   5.215  0.1842  1.3430  0.2132
 2924SOL    HW111694   0.358   5.131   5.155  0.2654  0.8697  0.0170
 2924SOL    HW211695   0.321   5.125   5.301  1.1235  0.4540  0.2256
 2924SOL     MW11696   0.305   5.104   5.218  0.3148  1.1686  0.1897
 2925SOL     OW11697   2.824   0.163   2.506 -0.3734 -0.0100  0.5252
 2925SOL    HW111698   2.781   0.228   2.562  0.4944  1.1172 -0.0827
 2925SOL    HW211699   2.756   0.098   2.488 -1.2756  0.7514  1.1036
 2925SOL     MW11700   2.810   0.163   2.511 -0.3778  0.2318  0.5215
 2926SOL     OW11701   3.911   0.739   4.440 -0.2941 -0.0278 -0.0021
 2926SOL    HW111702   3.977   0.733   4.371 -0.4528 -0.5764 -0.1064
 2926SOL    HW211703   3.888   0.832   4.442  0.6258  0.2054  0.1748
 2926SOL     MW11704   3.916   0.750   4.431 -0.1967 -0.0682  0.0072
 2927SOL     OW11705   0.140   1.923   5.440 -0.1791  0.3460  0.0151
 2927SOL    HW111706   0.229   1.923   5.407 -0.1171 -0.0991  0.1814
 2927SOL    HW211707   0.148   1.905   5.534 -0.4324  0.4699  0.0645
 2927SOL     MW11708   0.152   1.921   5.448 -0.2036  0.3049  0.0427
 2928SOL     OW11709   1.347   3.439   1.847 -0.1915  0.0680  0.4980
 2928SOL    HW111710   1.328   3.466   1.937  0.2379 -1.7081  1.1599
 2928SOL    HW211711   1.273   3.472   1.796 -0.0206  1.8727  1.3157
 2928SOL     MW11712   1.335   3.447   1.852 -0.1147  0.0717  0.6874
 2929SOL     OW11713   3.073   0.987   1.209  0.0974  0.1110  0.5374
 2929SOL    HW111714   3.049   0.895   1.201  2.0720 -0.4969  0.9980
 2929SOL    HW211715   3.137   1.001   1.139 -1.0992  1.5259 -0.3559
 2929SOL     MW11716   3.078   0.977   1.199  0.1970  0.2143  0.4820
 2930SOL     OW11717   0.007   1.412   5.463  0.0288 -0.2506 -0.3413
 2930SOL    HW111718   0.024   1.324   5.431 -0.6879 -0.5121 -0.0172
 2930SOL    HW211719   0.094   1.448   5.481  0.3318 -0.8490 -0.5775
 2930SOL     MW11720   0.021   1.406   5.461 -0.0241 -0.3607 -0.3300
 2931SOL     OW11721   1.537   0.041   3.355  0.2033  0.3807  0.1060
 2931SOL    HW111722   1.443   0.038   3.337 -0.0006  1.0505  1.0040
 2931SOL    HW211723   1.563   0.132   3.336  0.3182  0.6516  1.4606
 2931SOL     MW11724   1.528   0.052   3.350  0.1919  0.5012  0.3944
 2932SOL     OW11725   3.604   4.513   1.686  0.0382 -0.3954 -0.0787
 2932SOL    HW111726   3.591   4.605   1.666  1.0334 -0.5503 -1.6402
 2932SOL    HW211727   3.623   4.510   1.780  2.6960  1.3494 -0.4380
 2932SOL     MW11728   3.605   4.524   1.696  0.5058 -0.1919 -0.3246
 2933SOL     OW11729   1.366   3.126   5.096  0.1418 -0.1694 -0.0019
 2933SOL    HW111730   1.443   3.092   5.052 -1.2600 -0.7868 -2.1786
 2933SOL    HW211731   1.339   3.201   5.042  0.1307  1.0780  1.6628
 2933SOL     MW11732   1.372   3.131   5.083 -0.0391 -0.0887 -0.0674
 2934SOL     OW11733   0.476   0.372   3.344  0.0476  0.2871 -0.1709
 2934SOL    HW111734   0.416   0.319   3.292 -0.3204 -0.6977  1.2084
 2934SOL    HW211735   0.419   0.419   3.405  0.5960  0.0666  0.5215
 2934SOL     MW11736   0.461   0.371   3.345  0.0707  0.1328  0.0943
 2935SOL     OW11737   3.823   4.601   5.318  0.0335 -0.1337 -0.0738
 2935SOL    HW111738   3.804   4.601   5.412 -0.7758  0.4524 -0.2238
 2935SOL    HW211739   3.741   4.573   5.278  0.4301 -0.5489 -0.6006
 2935SOL     MW11740   3.810   4.597   5.325 -0.0194 -0.1118 -0.1604
 2936SOL     OW11741   0.831   5.068   1.131 -0.5350 -0.3934  0.7795
 2936SOL    HW111742   0.800   4.990   1.177 -2.7082  0.6771  1.2635
 2936SOL    HW211743   0.904   5.100   1.185  0.2916 -1.9465  0.6492
 2936SOL     MW11744   0.837   5.062   1.144 -0.7074 -0.4552  0.8248
 2937SOL     OW11745   3.805   1.548   1.989  0.1191  0.3860  0.1235
 2937SOL    HW111746   3.838   1.601   1.916  1.8450  0.8917  1.2124
 2937SOL    HW211747   3.773   1.468   1.947 -0.2941  1.2677 -1.3215
 2937SOL     MW11748   3.805   1.545   1.974  0.2871  0.5636  0.0780
 2938SOL     OW11749   2.606   4.930   1.767  0.1912 -0.1671  0.1303
 2938SOL    HW111750   2.656   4.982   1.829  0.0725 -1.2513  1.1665
 2938SOL    HW211751   2.522   4.914   1.810  0.4092 -1.6280  0.0738
 2938SOL     MW11752   2.601   4.935   1.780  0.2039 -0.4929  0.2557
 2939SOL     OW11753   1.390   2.983   2.656  0.0082  0.2979 -0.3677
 2939SOL    HW111754   1.407   3.027   2.573  0.7162 -0.4498 -0.6346
 2939SOL    HW211755   1.347   2.901   2.630  2.9737 -1.4034 -0.2760
 2939SOL     MW11756   1.387   2.978   2.642  0.4785 -0.0156 -0.3901
 2940SOL     OW11757   4.311   0.722   1.288  0.1911 -0.1617 -0.5382
 2940SOL    HW111758   4.317   0.668   1.209  2.0254 -1.2620  0.2800
 2940SOL    HW211759   4.319   0.660   1.360 -0.2341  0.9578  0.5028
 2940SOL     MW11760   4.313   0.707   1.287  0.3715 -0.1593 -0.3002
 2941SOL     OW11761   0.304   3.724   0.720  0.1338  0.2647  0.0399
 2941SOL    HW111762   0.377   3.726   0.659  0.4468 -1.5431  0.3185
 2941SOL    HW211763   0.343   3.740   0.806  0.3928 -1.6743  0.3184
 2941SOL     MW11764   0.318   3.727   0.723  0.2070 -0.2149  0.1112
 2942SOL     OW11765   0.505   0.089   2.339  0.2022  0.1645  0.2243
 2942SOL    HW111766   0.470   0.001   2.351 -2.9013  1.3530  0.7960
 2942SOL    HW211767   0.488   0.109   2.247  0.1497  0.4691  0.2996
 2942SOL     MW11768   0.499   0.080   2.328 -0.2018  0.3557  0.3072
 2943SOL     OW11769   2.351   5.311   2.853 -0.0675  1.0334  0.2143
 2943SOL    HW111770   2.275   5.297   2.796 -0.7018  1.9972  0.7881
 2943SOL    HW211771   2.419   5.255   2.816 -1.0692  0.1021 -0.2801
 2943SOL     MW11772   2.350   5.302   2.841 -0.2769  1.0375  0.2244
 2944SOL     OW11773   5.370   4.552   1.173  0.2375  0.1384 -0.0017
 2944SOL    HW111774   5.315   4.629   1.161 -2.5422 -1.6200  0.6754
 2944SOL    HW211775   5.369   4.535   1.267  0.0633 -1.1949 -0.2194
 2944SOL     MW11776   5.363   4.559   1.183 -0.1406 -0.2574  0.0571
 2945SOL     OW11777   5.253   1.997   2.087  0.0662 -0.1317  0.5250
 2945SOL    HW111778   5.191   2.061   2.123  0.2808  0.7513 -0.6196
 2945SOL    HW211779   5.313   1.978   2.158 -2.5472 -2.4911  2.3695
 2945SOL     MW11780   5.253   2.002   2.100 -0.2409 -0.3207  0.6146
 2946SOL     OW11781   0.129   0.293   3.903  0.1975 -0.1201 -0.0679
 2946SOL    HW111782   0.082   0.321   3.825 -0.9917 -0.8681  0.3560
 2946SOL    HW211783   0.099   0.203   3.919 -0.7151  0.5042  2.0766
 2946SOL     MW11784   0.119   0.285   3.895 -0.0715 -0.1359  0.2609
 2947SOL     OW11785   1.912   4.075   4.686 -0.5748 -0.3971  0.0189
 2947SOL    HW111786   1.852   4.089   4.759  0.7476  0.5834  0.9691
 2947SOL    HW211787   1.862   4.022   4.624 -1.1951 -2.8149  2.3702
 2947SOL     MW11788   1.898   4.070   4.688 -0.4849 -0.5811  0.4415
 2948SOL     OW11789   0.983   0.157   3.839 -0.0012  0.8093 -0.4969
 2948SOL    HW111790   1.067   0.201   3.851 -1.2068  2.6697  1.9729
 2948SOL    HW211791   0.917   0.221   3.867 -2.1776 -1.0570 -0.9937
 2948SOL     MW11792   0.985   0.170   3.844 -0.4341  0.8085 -0.2443
 2949SOL     OW11793   2.569   4.283   0.616 -0.0034 -0.0927  0.6964
 2949SOL    HW111794   2.635   4.311   0.681 -0.7091 -0.3681  1.5527
 2949SOL    HW211795   2.509   4.228   0.666 -1.2080  0.6063  0.0652
 2949SOL     MW11796   2.570   4.280   0.631 -0.2479 -0.0385  0.7252
 2950SOL     OW11797   3.058   3.330   0.425  0.4807 -0.0979  0.2077
 2950SOL    HW111798   3.097   3.317   0.511  0.7605  1.1700  0.2953
 2950SOL    HW211799   3.084   3.253   0.374 -1.1946 -1.8010  1.7496
 2950SOL     MW11800   3.066   3.319   0.430  0.3021 -0.1536  0.4163
 2951SOL     OW11801   0.855   1.470   0.861 -0.5465 -0.1151 -0.3424
 2951SOL    HW111802   0.912   1.398   0.888 -1.3499 -1.0633 -1.0947
 2951SOL    HW211803   0.776   1.427   0.827 -1.2338  1.1346 -0.3925
 2951SOL     MW11804   0.852   1.455   0.860 -0.7373 -0.0765 -0.4451
 2952SOL     OW11805   3.833   3.084   4.644  0.3054 -0.0078 -0.0412
 2952SOL    HW111806   3.853   3.039   4.726 -0.6833  0.4046  0.4333
 2952SOL    HW211807   3.833   3.014   4.578  1.1594 -0.3299  0.2878
 2952SOL     MW11808   3.836   3.069   4.646  0.2881  0.0037  0.0617
 2953SOL     OW11809   1.939   0.877   3.082  0.1952  0.6183 -0.2981
 2953SOL    HW111810   1.887   0.955   3.102  0.1689  0.5091  0.0725
 2953SOL    HW211811   1.971   0.847   3.168 -1.9230 -1.2801 -0.0944
 2953SOL     MW11812   1.937   0.883   3.096 -0.0793  0.3613 -0.2246
 2954SOL     OW11813   1.127   3.925   0.695 -0.6664  0.0115 -0.0291
 2954SOL    HW111814   1.196   3.894   0.754 -1.2241 -1.2930 -0.0330
 2954SOL    HW211815   1.126   4.020   0.707  0.5606 -0.0419  0.5893
 2954SOL     MW11816   1.136   3.933   0.704 -0.5807 -0.1623  0.0495
 2955SOL     OW11817   2.201   4.119   4.727  0.3198 -0.5141  0.0320
 2955SOL    HW111818   2.209   4.127   4.822 -0.6514  0.6673  0.0336
 2955SOL    HW211819   2.116   4.079   4.713  1.3708 -2.8108 -0.3130
 2955SOL     MW11820   2.191   4.115   4.737  0.3300 -0.6569 -0.0119
 2956SOL     OW11821   4.667   1.614   1.114  0.2504 -0.2564  0.2237
 2956SOL    HW111822   4.675   1.521   1.093 -1.4108 -0.2976 -0.4233
 2956SOL    HW211823   4.614   1.617   1.193 -0.5509  0.1471 -0.3116
 2956SOL     MW11824   4.661   1.603   1.121 -0.0648 -0.2100  0.0724
 2957SOL     OW11825   3.532   4.811   0.762  0.1959  0.4026 -0.0179
 2957SOL    HW111826   3.440   4.792   0.782  0.2745 -0.1498 -0.1600
 2957SOL    HW211827   3.529   4.864   0.682  0.0152  0.0578 -0.2410
 2957SOL     MW11828   3.520   4.815   0.754  0.1829  0.2877 -0.0646
 2958SOL     OW11829   4.303   2.652   2.068 -0.2957 -0.1814  0.3096
 2958SOL    HW111830   4.394   2.641   2.040 -0.3925  0.5185 -0.3022
 2958SOL    HW211831   4.262   2.700   1.997 -1.5860 -1.9838 -0.2113
 2958SOL     MW11832   4.310   2.657   2.055 -0.4733 -0.3225  0.1646
 2959SOL     OW11833   0.091   2.942   5.107  0.4966  0.7815 -0.3041
 2959SOL    HW111834   0.037   2.863   5.102 -0.0359  0.6936  3.4584
 2959SOL    HW211835   0.179   2.912   5.084  0.1905 -0.8071  0.4018
 2959SOL     MW11836   0.096   2.928   5.103  0.3893  0.5669  0.2679
 2960SOL     OW11837   2.313   1.139   1.589  0.0543  0.1166  0.1190
 2960SOL    HW111838   2.371   1.215   1.592  0.0996  0.0497  1.0303
 2960SOL    HW211839   2.291   1.121   1.680  0.0368 -0.9585 -0.0834
 2960SOL     MW11840   2.318   1.146   1.601  0.0578 -0.0296  0.2098
 2961SOL     OW11841   0.177   4.008   4.198  0.5996 -0.0756  0.3865
 2961SOL    HW111842   0.125   3.983   4.274  0.7616  1.3099  0.9757
 2961SOL    HW211843   0.143   3.952   4.127 -0.6245 -0.2870  1.1011
 2961SOL     MW11844   0.166   3.997   4.199  0.4637  0.0747  0.5534
 2962SOL     OW11845   1.488   2.991   1.830  0.0091  0.3391  0.2396
 2962SOL    HW111846   1.464   2.918   1.772  0.3489 -0.5787  1.2164
 2962SOL    HW211847   1.500   3.065   1.772  1.6724 -0.8610 -1.0429
 2962SOL     MW11848   1.486   2.991   1.815  0.2655  0.0680  0.2005
 2963SOL     OW11849   4.558   5.405   1.017  0.1212  0.6128 -0.0217
 2963SOL    HW111850   4.543   5.398   0.922  0.7817 -0.5736 -0.0487
 2963SOL    HW211851   4.484   5.458   1.048 -0.2928  0.7358 -1.1478
 2963SOL     MW11852   4.546   5.411   1.009  0.1528  0.4767 -0.1693
 2964SOL     OW11853   5.070   3.093   2.340 -0.5185  0.1089 -0.0016
 2964SOL    HW111854   5.052   3.162   2.276 -1.8393 -0.5906 -0.4129
 2964SOL    HW211855   5.006   3.025   2.320  1.3329 -1.6510 -0.1978
 2964SOL     MW11856   5.060   3.093   2.329 -0.4506 -0.2059 -0.0793
 2965SOL     OW11857   5.231   1.602   3.864  0.0377  0.2992  0.1715
 2965SOL    HW111858   5.190   1.517   3.878  0.9019 -0.0023  0.9453
 2965SOL    HW211859   5.167   1.651   3.812 -2.6654  0.8808  3.6274
 2965SOL     MW11860   5.217   1.597   3.859 -0.1977  0.3350  0.7130
 2966SOL     OW11861   5.453   0.148   4.634 -0.9416  0.1636  0.3992
 2966SOL    HW111862   5.439   0.178   4.544  0.4167 -2.4150 -0.7848
 2966SOL    HW211863   5.397   0.072   4.643 -1.1436  0.4532  1.8035
 2966SOL     MW11864   5.444   0.142   4.624 -0.7936 -0.1294  0.4274
 2967SOL     OW11865   3.069   1.810   1.533 -0.5536  0.6736  0.3464
 2967SOL    HW111866   3.159   1.796   1.561 -0.5792 -0.1758  0.0383
 2967SOL    HW211867   3.066   1.903   1.507 -0.7540  1.7710  3.8375
 2967SOL     MW11868   3.080   1.820   1.533 -0.5825  0.7054  0.7539
 2968SOL     OW11869   5.417   0.693   4.700  0.4071  0.2611 -0.0703
 2968SOL    HW111870   5.331   0.678   4.739 -0.4774  1.9387 -1.2545
 2968SOL    HW211871   5.474   0.713   4.775 -0.6702  0.9720  0.5980
 2968SOL     MW11872   5.413   0.694   4.715  0.1560  0.5668 -0.1363
 2969SOL     OW11873   0.921   5.360   1.410 -0.0227 -0.2982 -0.0615
 2969SOL    HW111874   0.857   5.372   1.340 -0.0296 -1.4114 -0.2633
 2969SOL    HW211875   0.876   5.388   1.489 -0.1056  0.7172 -0.4515
 2969SOL     MW11876   0.907   5.365   1.411 -0.0342 -0.3107 -0.1373
 2970SOL     OW11877   5.120   3.565   4.752 -0.3394 -0.1353 -0.2935
 2970SOL    HW111878   5.036   3.602   4.779 -0.7898 -0.9843 -0.5241
 2970SOL    HW211879   5.102   3.473   4.733  0.4764 -0.1501 -1.0958
 2970SOL     MW11880   5.107   3.558   4.753 -0.2926 -0.2458 -0.4258
 2971SOL     OW11881   4.538   1.996   4.412 -0.4866  0.0436 -0.1295
 2971SOL    HW111882   4.491   1.913   4.423 -1.8743  0.9322  1.0498
 2971SOL    HW211883   4.552   2.028   4.501 -0.5774  1.4057 -0.5787
 2971SOL     MW11884   4.534   1.990   4.425 -0.6758  0.3317 -0.0360
 2972SOL     OW11885   4.672   1.612   0.703 -0.0038 -0.2583 -0.0060
 2972SOL    HW111886   4.717   1.539   0.745 -0.8137 -1.4369 -1.0893
 2972SOL    HW211887   4.607   1.640   0.768 -0.0413 -0.8558  0.2203
 2972SOL     MW11888   4.669   1.606   0.717 -0.1122 -0.4857 -0.1157
 2973SOL     OW11889   5.405   5.101   4.493  0.1573  0.1001 -0.2491
 2973SOL    HW111890   5.380   5.185   4.455  0.5492  0.3508  0.0449
 2973SOL    HW211891   5.500   5.097   4.483  0.4849  0.8439  2.0111
 2973SOL     MW11892   5.414   5.111   4.487  0.2494  0.2274  0.0779
 2974SOL     OW11893   4.919   1.705   1.210 -0.4773 -0.4072 -0.6206
 2974SOL    HW111894   4.911   1.798   1.188 -0.6076 -0.0047  0.9955
 2974SOL    HW211895   4.838   1.666   1.177 -1.8361  0.6316  1.2929
 2974SOL     MW11896   4.908   1.712   1.203 -0.6679 -0.2227 -0.1688
 2975SOL     OW11897   1.530   4.904   3.092  0.7790 -0.4476  0.0847
 2975SOL    HW111898   1.435   4.894   3.080  0.8378 -0.0574 -0.7664
 2975SOL    HW211899   1.560   4.943   3.010  1.7132 -0.7840  0.2629
 2975SOL     MW11900   1.521   4.908   3.080  0.9061 -0.4407 -0.0014
 2976SOL     OW11901   2.476   3.880   0.743 -0.3392  0.4729 -0.4295
 2976SOL    HW111902   2.571   3.866   0.740 -0.3471  0.6536 -1.8415
 2976SOL    HW211903   2.454   3.921   0.660 -1.6396  0.6331 -0.0383
 2976SOL     MW11904   2.485   3.884   0.732 -0.5066  0.5166 -0.5602
 2977SOL     OW11905   3.890   2.948   5.314  0.4922  0.9323 -0.3618
 2977SOL    HW111906   3.842   2.870   5.288  1.1242  0.1531  0.7489
 2977SOL    HW211907   3.891   3.003   5.236  1.0658 -0.6789 -1.5306
 2977SOL     MW11908   3.884   2.945   5.301  0.6466  0.6263 -0.3693
 2978SOL     OW11909   4.522   4.790   2.456  0.0679 -0.2151 -0.4498
 2978SOL    HW111910   4.587   4.840   2.504  0.0908 -0.3408 -0.3480
 2978SOL    HW211911   4.537   4.813   2.364 -1.3476  1.6597 -0.2706
 2978SOL     MW11912   4.532   4.799   2.450 -0.1104  0.0088 -0.4138
 2979SOL     OW11913   0.823   2.909   3.500  0.7068 -0.3298  0.3520
 2979SOL    HW111914   0.813   3.002   3.521  0.2885 -0.5546  1.1973
 2979SOL    HW211915   0.917   2.898   3.484  0.6225  0.4177 -0.6931
 2979SOL     MW11916   0.834   2.919   3.501  0.6424 -0.2628  0.3264
 2980SOL     OW11917   3.477   0.639   0.093  0.6139 -0.0032 -0.1390
 2980SOL    HW111918   3.500   0.547   0.099 -0.2313 -0.2213 -0.1938
 2980SOL    HW211919   3.558   0.685   0.116  0.7279 -0.7566  1.0735
 2980SOL     MW11920   3.491   0.633   0.097  0.5203 -0.1276  0.0092
 2981SOL     OW11921   1.001   0.140   0.436  0.7028 -0.5285 -0.3351
 2981SOL    HW111922   1.072   0.192   0.398 -0.2390  0.0760 -1.3301
 2981SOL    HW211923   1.040   0.098   0.512  1.2661  2.4890  1.1847
 2981SOL     MW11924   1.015   0.141   0.441  0.6543 -0.0648 -0.2679
 2982SOL     OW11925   0.536   4.656   2.656  1.1027  0.2801 -0.0593
 2982SOL    HW111926   0.508   4.577   2.701  0.8284  0.3817 -0.0505
 2982SOL    HW211927   0.550   4.720   2.726 -0.6246  0.8526 -0.1813
 2982SOL     MW11928   0.534   4.654   2.671  0.8464  0.3664 -0.0738
 2983SOL     OW11929   1.365   0.583   1.395  0.3776  0.9276 -0.0744
 2983SOL    HW111930   1.363   0.581   1.491  0.8657 -1.4481 -0.0304
 2983SOL    HW211931   1.283   0.625   1.370 -2.3927 -2.8987  1.4701
 2983SOL     MW11932   1.354   0.588   1.404  0.0855  0.1336  0.1289
 2984SOL     OW11933   2.855   4.809   2.891  0.2796  0.4870  0.7016
 2984SOL    HW111934   2.833   4.897   2.921  1.1120  0.7303  0.6252
 2984SOL    HW211935   2.805   4.797   2.811 -0.7475  0.4371  1.3318
 2984SOL     MW11936   2.846   4.819   2.885  0.2547  0.5118  0.7725
 2985SOL     OW11937   3.155   0.756   4.793  0.3559  0.3367 -0.1175
 2985SOL    HW111938   3.247   0.762   4.819  0.2888  0.9467 -0.0149
 2985SOL    HW211939   3.126   0.847   4.784  0.0820  0.1496 -1.2852
 2985SOL     MW11940   3.163   0.768   4.795  0.3123  0.3908 -0.2538
 2986SOL     OW11941   4.016   5.057   4.927  0.1890  0.5731  0.9095
 2986SOL    HW111942   4.042   5.063   4.835 -1.0042 -1.9674  0.3261
 2986SOL    HW211943   4.095   5.028   4.973  0.2333 -0.2800  0.3047
 2986SOL     MW11944   4.030   5.054   4.921  0.0419  0.1387  0.7574
 2987SOL     OW11945   0.448   3.287   4.130  0.1242  0.6663 -0.1669
 2987SOL    HW111946   0.507   3.355   4.097  0.1724  0.4449 -0.5474
 2987SOL    HW211947   0.414   3.245   4.051 -0.5674  0.8123  0.0451
 2987SOL     MW11948   0.451   3.291   4.116  0.0418  0.6567 -0.1884
 2988SOL     OW11949   4.746   5.289   0.541  0.4123 -0.2055 -0.1346
 2988SOL    HW111950   4.826   5.253   0.578  1.8479 -0.8634 -3.5435
 2988SOL    HW211951   4.772   5.373   0.503 -0.9520  0.3926  0.1578
 2988SOL     MW11952   4.759   5.295   0.541  0.4214 -0.2132 -0.5335
 2989SOL     OW11953   4.360   3.287   0.464 -0.4555 -0.3188 -0.5898
 2989SOL    HW111954   4.385   3.265   0.554  0.4494 -1.0029 -0.9938
 2989SOL    HW211955   4.393   3.376   0.451 -1.6085  0.2458  0.1131
 2989SOL     MW11956   4.367   3.296   0.474 -0.4872 -0.3341 -0.5515
 2990SOL     OW11957   5.099   2.397   0.634 -0.2030  0.3573 -0.4123
 2990SOL    HW111958   5.007   2.412   0.656 -0.2450  0.3562 -0.5859
 2990SOL    HW211959   5.135   2.485   0.620  0.7918  0.7620  3.3710
 2990SOL     MW11960   5.092   2.410   0.635 -0.0811  0.4090  0.0498
 2991SOL     OW11961   3.227   3.040   1.032  0.5131 -0.2182 -0.2181
 2991SOL    HW111962   3.139   3.001   1.029  1.2764 -2.0498 -0.0445
 2991SOL    HW211963   3.248   3.045   1.125  1.0885 -1.0009 -0.2972
 2991SOL     MW11964   3.218   3.035   1.044  0.6845 -0.5529 -0.2060
 2992SOL     OW11965   2.693   4.477   3.554  0.0490  0.0644 -0.1571
 2992SOL    HW111966   2.624   4.452   3.616  1.6694  0.0483  1.7256
 2992SOL    HW211967   2.738   4.550   3.596  2.7039 -1.4672 -0.1357
 2992SOL     MW11968   2.690   4.483   3.567  0.5963 -0.1337  0.0866
 2993SOL     OW11969   3.299   1.160   3.491  0.0894 -0.1810 -0.4496
 2993SOL    HW111970   3.276   1.222   3.422 -0.2423  0.3371  0.1180
 2993SOL    HW211971   3.393   1.175   3.506 -0.0277  0.3242 -0.1878
 2993SOL     MW11972   3.308   1.170   3.484  0.0319 -0.0500 -0.3434
 2994SOL     OW11973   3.803   1.422   1.619  0.1672 -0.0162 -0.1681
 2994SOL    HW111974   3.779   1.380   1.537 -2.3203  1.7076 -0.4290
 2994SOL    HW211975   3.737   1.394   1.682  1.5098 -0.5809  1.0629
 2994SOL     MW11976   3.792   1.413   1.617  0.0206  0.1322 -0.0439
 2995SOL     OW11977   0.359   4.673   2.980  0.4164 -0.1680  0.2399
 2995SOL    HW111978   0.361   4.578   2.969  0.3074 -0.2426  0.8761
 2995SOL    HW211979   0.402   4.689   3.064 -1.0686  0.2227  0.9456
 2995SOL     MW11980   0.365   4.663   2.989  0.2123 -0.1275  0.4117
 2996SOL     OW11981   0.115   1.671   4.356 -0.1527 -0.4256  0.3036
 2996SOL    HW111982   0.148   1.721   4.281 -0.9741  0.9464  0.8129
 2996SOL    HW211983   0.029   1.639   4.327  0.4071 -1.6636 -0.0522
 2996SOL     MW11984   0.108   1.673   4.343 -0.1862 -0.4084  0.3232
 2997SOL     OW11985   3.126   0.790   5.478 -0.1011  0.0831  0.9137
 2997SOL    HW111986   3.057   0.775   5.413  1.1582 -0.9746 -0.2478
 2997SOL    HW211987   3.206   0.760   5.435  1.5777  3.6341  1.1353
 2997SOL     MW11988   3.127   0.784   5.464  0.2750  0.4023  0.7934
 2998SOL     OW11989   0.556   4.560   3.465  0.1048 -0.1720 -0.4846
 2998SOL    HW111990   0.537   4.601   3.381  0.3547  2.4989  0.6606
 2998SOL    HW211991   0.649   4.537   3.461 -0.0837 -0.8534 -1.2095
 2998SOL     MW11992   0.565   4.562   3.454  0.1126  0.0827 -0.4308
 2999SOL     OW11993   2.874   2.476   4.869 -0.0518  0.1533  0.1000
 2999SOL    HW111994   2.931   2.457   4.943 -0.4718 -0.2663  0.3253
 2999SOL    HW211995   2.816   2.399   4.863 -0.6533  0.6101 -0.0619
 2999SOL     MW11996   2.874   2.463   4.878 -0.1826  0.1581  0.1081
 3000SOL     OW11997   4.621   2.983   5.226 -0.0112 -0.0424 -0.1444
 3000SOL    HW111998   4.669   3.051   5.272  0.9181 -0.1302 -0.9478
 3000SOL    HW211999   4.535   3.021   5.208  0.1337  0.5183  0.3489
 3000SOL     MW12000   4.616   2.996   5.229  0.1263  0.0181 -0.1841
 3001SOL     OW12001   0.666   2.296   3.886  0.2133  0.1962 -0.1134
 3001SOL    HW112002   0.699   2.348   3.959 -0.4299  1.5629 -0.7485
 3001SOL    HW212003   0.726   2.314   3.814 -0.0780  0.1592 -0.3712
 3001SOL     MW12004   0.678   2.305   3.886  0.0937  0.3664 -0.2277
 3002SOL     OW12005   2.357   1.046   1.080 -0.1612  0.3003  0.1308
 3002SOL    HW112006   2.403   1.126   1.104  0.5643 -0.2639  0.7074
 3002SOL    HW212007   2.353   1.048   0.984  2.6998 -0.4491 -0.1089
 3002SOL     MW12008   2.363   1.056   1.071  0.2979  0.1321  0.1740
 3003SOL     OW12009   3.959   2.234   3.553 -0.1531 -0.9459  0.1573
 3003SOL    HW112010   3.926   2.299   3.615  1.3341 -0.8824  0.9432
 3003SOL    HW212011   4.054   2.237   3.564  0.0356 -2.2078 -0.8647
 3003SOL     MW12012   3.967   2.242   3.562  0.0614 -1.0993  0.1270
 3004SOL     OW12013   1.217   2.685   3.024 -0.4167  0.0639 -0.1951
 3004SOL    HW112014   1.296   2.664   2.975 -0.8184  0.1126 -0.8739
 3004SOL    HW212015   1.243   2.755   3.084 -0.0298  0.3158 -0.6568
 3004SOL     MW12016   1.230   2.691   3.026 -0.4186  0.1024 -0.3411
 3005SOL     OW12017   1.746   3.307   0.253  0.2390 -0.5284  0.6620
 3005SOL    HW112018   1.702   3.391   0.265  0.1423 -0.4975  0.1051
 3005SOL    HW212019   1.793   3.293   0.336 -1.3232 -0.8701  1.5327
 3005SOL     MW12020   1.746   3.316   0.265  0.0266 -0.5682  0.7021
 3006SOL     OW12021   3.583   4.580   1.964  0.3993  0.3212  0.4429
 3006SOL    HW112022   3.629   4.664   1.967 -1.6382  1.5494 -0.2338
 3006SOL    HW212023   3.529   4.579   2.042 -0.1228 -0.0286  0.0839
 3006SOL     MW12024   3.582   4.591   1.974  0.0716  0.4337  0.3103
 3007SOL     OW12025   2.450   4.637   3.896 -0.2438 -0.4971 -0.1672
 3007SOL    HW112026   2.407   4.627   3.981 -0.0151 -1.4281 -0.1440
 3007SOL    HW212027   2.440   4.729   3.874  0.1085 -0.1441  1.0968
 3007SOL     MW12028   2.443   4.647   3.904 -0.1694 -0.5711 -0.0024
 3008SOL     OW12029   0.234   5.082   4.160  0.1960 -0.3225  0.2400
 3008SOL    HW112030   0.154   5.092   4.108  0.5208  2.5819  0.1187
 3008SOL    HW212031   0.305   5.080   4.095  0.4960  1.8657  0.4202
 3008SOL     MW12032   0.233   5.083   4.145  0.2760  0.3294  0.2475
 3009SOL     OW12033   5.370   1.505   4.613  0.5146 -0.0163  0.2072
 3009SOL    HW112034   5.419   1.584   4.591  0.4802 -0.3717 -1.2995
 3009SOL    HW212035   5.280   1.525   4.589 -0.1145  0.5668  2.7914
 3009SOL     MW12036   5.365   1.518   4.607  0.4297  0.0128  0.3452
 3010SOL     OW12037   2.621   0.644   4.716  0.1898  0.3654 -0.8166
 3010SOL    HW112038   2.533   0.647   4.752  0.1109  0.5639 -1.0221
 3010SOL    HW212039   2.661   0.567   4.756  0.7884  1.6868  1.3179
 3010SOL     MW12040   2.615   0.635   4.726  0.2563  0.5600 -0.5696
 3011SOL     OW12041   5.276   3.841   3.479 -0.0110  0.5178 -0.1868
 3011SOL    HW112042   5.241   3.846   3.390 -1.5557 -0.1755  0.3376
 3011SOL    HW212043   5.340   3.771   3.477 -0.7105 -0.1272 -0.5691
 3011SOL     MW12044   5.279   3.833   3.467 -0.2983  0.3465 -0.1686
 3012SOL     OW12045   5.433   0.279   2.837  0.3056  0.5215 -0.1103
 3012SOL    HW112046   5.480   0.285   2.754  0.1875  1.4853 -0.1215
 3012SOL    HW212047   5.392   0.365   2.848 -0.0206  0.2717  0.7460
 3012SOL     MW12048   5.433   0.291   2.828  0.2488  0.6129 -0.0021
 3013SOL     OW12049   1.360   3.888   3.203 -0.0819 -0.1229  0.0848
 3013SOL    HW112050   1.300   3.873   3.129  1.2634 -1.7032 -0.7407
 3013SOL    HW212051   1.385   3.800   3.232 -0.1316  0.4726  2.0909
 3013SOL     MW12052   1.355   3.875   3.197  0.0840 -0.2489  0.2359
 3014SOL     OW12053   5.148   4.850   4.164  0.1428  0.3425 -0.1335
 3014SOL    HW112054   5.068   4.815   4.204  1.8521 -1.1627  2.3130
 3014SOL    HW212055   5.149   4.812   4.076 -1.4048 -0.2885  0.0764
 3014SOL     MW12056   5.138   4.841   4.158  0.1635  0.0690  0.2066
 3015SOL     OW12057   1.512   0.261   2.427  0.0444 -0.4439 -0.3078
 3015SOL    HW112058   1.469   0.249   2.342  0.6142 -0.4665 -0.5994
 3015SOL    HW212059   1.606   0.258   2.407  0.1844 -0.2222  0.2911
 3015SOL     MW12060   1.519   0.259   2.414  0.1353 -0.4184 -0.2685
 3016SOL     OW12061   3.043   1.093   2.216 -0.2439 -0.2562 -0.0407
 3016SOL    HW112062   3.048   1.016   2.273 -0.1349  0.2257  0.6010
 3016SOL    HW212063   3.026   1.056   2.129  2.0998 -1.1838 -0.1739
 3016SOL     MW12064   3.042   1.078   2.212  0.0701 -0.3133  0.0244
 3017SOL     OW12065   2.303   1.827   4.511 -0.7354 -0.1755 -0.1925
 3017SOL    HW112066   2.210   1.807   4.506 -0.5146 -1.3350  0.0531
 3017SOL    HW212067   2.341   1.784   4.434 -0.8196  3.0953 -2.2542
 3017SOL     MW12068   2.296   1.819   4.501 -0.7179  0.0947 -0.4250
 3018SOL     OW12069   0.990   0.802   0.194  0.3027  0.1512 -0.5159
 3018SOL    HW112070   0.984   0.818   0.100  0.4663 -1.8760 -0.9170
 3018SOL    HW212071   0.900   0.804   0.225  0.2705  1.0951 -0.6469
 3018SOL     MW12072   0.978   0.804   0.186  0.3196  0.0125 -0.5840
 3019SOL     OW12073   3.334   1.965   2.850  0.3674 -0.5018 -0.3620
 3019SOL    HW112074   3.278   1.933   2.922 -2.3905  0.5585 -1.8717
 3019SOL    HW212075   3.372   2.046   2.884 -0.3101 -0.3900  0.1703
 3019SOL     MW12076   3.331   1.971   2.864 -0.0723 -0.3517 -0.4872
 3020SOL     OW12077   2.964   3.384   4.190  0.5704 -0.2338  0.0381
 3020SOL    HW112078   2.942   3.386   4.097 -0.9581 -1.8921  0.3254
 3020SOL    HW212079   2.908   3.451   4.230  1.4882  0.7359 -0.2438
 3020SOL     MW12080   2.954   3.393   4.183  0.4922 -0.3220  0.0388
 3021SOL     OW12081   0.766   1.672   1.745 -0.1714  0.1664  0.1572
 3021SOL    HW112082   0.754   1.596   1.688 -1.7385 -1.2418  2.1957
 3021SOL    HW212083   0.679   1.711   1.750  0.5864  2.0782 -0.7416
 3021SOL     MW12084   0.753   1.667   1.738 -0.2750  0.2309  0.3031
 3022SOL     OW12085   0.676   1.350   0.074 -0.3247 -0.4198  0.0489
 3022SOL    HW112086   0.619   1.279   0.044  0.1018 -0.0726 -1.7390
 3022SOL    HW212087   0.725   1.376  -0.004  1.9945 -0.4021  1.4250
 3022SOL     MW12088   0.675   1.344   0.060  0.0268 -0.3731 -0.0038
 3023SOL     OW12089   3.398   5.163   4.587  0.2535 -0.2020  0.0894
 3023SOL    HW112090   3.458   5.238   4.591 -0.2171  0.2538 -0.9455
 3023SOL    HW212091   3.338   5.185   4.515 -0.3952 -1.2052  0.3153
 3023SOL     MW12092   3.398   5.176   4.578  0.1102 -0.2720 -0.0142
 3024SOL     OW12093   0.535   2.798   0.185 -0.1143 -0.2172  0.0324
 3024SOL    HW112094   0.445   2.770   0.169 -0.7528  1.6122  0.2524
 3024SOL    HW212095   0.586   2.753   0.117 -1.2696 -0.8034 -0.4779
 3024SOL     MW12096   0.530   2.789   0.174 -0.3439 -0.0580 -0.0047
 3025SOL     OW12097   3.951   5.105   3.257 -0.1573 -0.0351  0.8024
 3025SOL    HW112098   3.871   5.153   3.277 -2.0073 -2.5036 -0.2009
 3025SOL    HW212099   3.967   5.050   3.334 -0.5733 -0.9487  0.2554
 3025SOL     MW12100   3.943   5.104   3.269 -0.4474 -0.4681  0.6040
 3026SOL     OW12101   3.664   2.690   3.880 -0.1937  0.4435 -0.1741
 3026SOL    HW112102   3.622   2.771   3.908 -0.9297  0.2911 -0.8191
 3026SOL    HW212103   3.715   2.715   3.803  1.9136  0.8855  1.2805
 3026SOL     MW12104   3.665   2.704   3.874 -0.0181  0.4805 -0.0704
 3027SOL     OW12105   3.084   3.345   2.682  0.2729 -0.2050 -0.0086
 3027SOL    HW112106   3.055   3.427   2.724 -0.5396  0.1498 -1.2165
 3027SOL    HW212107   3.145   3.372   2.615 -1.0159 -0.4367 -1.3231
 3027SOL     MW12108   3.088   3.359   2.679  0.0039 -0.1892 -0.3315
 3028SOL     OW12109   1.893   2.804   4.718 -0.0085 -0.0703 -1.0428
 3028SOL    HW112110   1.898   2.758   4.634  0.8237  0.3802 -1.2575
 3028SOL    HW212111   1.971   2.861   4.718  0.2440 -0.3917  0.2243
 3028SOL     MW12112   1.904   2.806   4.707  0.1303 -0.0538 -0.9081
 3029SOL     OW12113   3.520   5.415   0.350  0.0338  0.6401  0.0005
 3029SOL    HW112114   3.455   5.457   0.406 -0.4520 -1.6065  1.2257
 3029SOL    HW212115   3.475   5.338   0.314  1.7428 -0.5565  0.2721
 3029SOL     MW12116   3.506   5.410   0.352  0.1904  0.1993  0.1921
 3030SOL     OW12117   2.561   2.905   2.555 -0.2765  0.2855  0.1112
 3030SOL    HW112118   2.550   2.909   2.650  0.2847 -0.5446  0.2305
 3030SOL    HW212119   2.498   2.838   2.526 -0.8857  0.9765 -0.1908
 3030SOL     MW12120   2.552   2.897   2.564 -0.2827  0.2677  0.0878
 3031SOL     OW12121   2.548   3.287   4.659  0.3811  0.0095  0.1233
 3031SOL    HW112122   2.514   3.255   4.575 -0.5423  0.2335  0.3992
 3031SOL    HW212123   2.563   3.208   4.710  0.0683 -0.0873  0.0696
 3031SOL     MW12124   2.545   3.273   4.655  0.2229  0.0258  0.1518
 3032SOL     OW12125   3.565   4.896   4.458 -0.2556 -0.3086 -0.1342
 3032SOL    HW112126   3.613   4.813   4.466 -0.8788 -0.6374  0.2964
 3032SOL    HW212127   3.627   4.963   4.485  0.1167 -0.6802 -0.0615
 3032SOL     MW12128   3.579   4.894   4.462 -0.2877 -0.3982 -0.0698
 3033SOL     OW12129   0.832   1.358   5.077  0.3842 -0.0566  0.3761
 3033SOL    HW112130   0.836   1.444   5.037 -1.1347  0.7904  1.9176
 3033SOL    HW212131   0.846   1.374   5.170 -0.3476 -1.3908  0.7471
 3033SOL     MW12132   0.834   1.371   5.084  0.0961 -0.1190  0.6209
 3034SOL     OW12133   3.236   0.330   4.291 -1.1477 -0.3366 -0.3432
 3034SOL    HW112134   3.287   0.410   4.285 -0.6835 -0.6879 -1.3125
 3034SOL    HW212135   3.188   0.337   4.374  1.0335 -0.3316  0.9791
 3034SOL     MW12136   3.236   0.341   4.301 -0.8091 -0.3809 -0.2980
 3035SOL     OW12137   3.171   1.849   1.893 -0.0567  0.8453 -0.2601
 3035SOL    HW112138   3.214   1.842   1.808 -1.4703 -0.1650 -0.9290
 3035SOL    HW212139   3.125   1.766   1.904  1.0538  0.4596  2.0652
 3035SOL     MW12140   3.170   1.838   1.884 -0.0955  0.6666 -0.0481
 3036SOL     OW12141   2.970   5.335   2.787 -0.5895 -0.1126  0.4822
 3036SOL    HW112142   3.028   5.334   2.711 -0.6737  0.1705  0.4138
 3036SOL    HW212143   2.881   5.334   2.750 -0.6528  1.5518  0.5320
 3036SOL     MW12144   2.966   5.334   2.773 -0.6084  0.1367  0.4798
 3037SOL     OW12145   3.681   1.333   0.599 -1.0507 -0.1509  0.0118
 3037SOL    HW112146   3.586   1.347   0.593 -1.0278 -0.4637 -1.3293
 3037SOL    HW212147   3.710   1.325   0.508  0.3771  0.6126  0.3741
 3037SOL     MW12148   3.673   1.333   0.586 -0.8650 -0.0932 -0.1135
 3038SOL     OW12149   3.505   0.886   3.096  0.0946 -0.0068  0.3328
 3038SOL    HW112150   3.468   0.848   3.175 -0.6935  0.6018  0.2661
 3038SOL    HW212151   3.544   0.812   3.050  0.9325 -0.3120  1.4763
 3038SOL     MW12152   3.505   0.872   3.100  0.1010  0.0320  0.4706
 3039SOL     OW12153   1.363   1.245   0.292 -0.0607 -0.3621  0.1261
 3039SOL    HW112154   1.271   1.251   0.314  0.4775 -0.7705  2.8345
 3039SOL    HW212155   1.376   1.313   0.225 -2.2239 -0.1156 -0.1174
 3039SOL     MW12156   1.353   1.254   0.286 -0.2687 -0.3828  0.4417
 3040SOL     OW12157   0.654   0.950   3.418  0.0129  0.1615 -0.4232
 3040SOL    HW112158   0.570   0.995   3.413 -0.0819  0.0466  0.0742
 3040SOL    HW212159   0.678   0.933   3.327  0.7960  2.5626 -0.7308
 3040SOL     MW12160   0.647   0.954   3.405  0.1010  0.4541 -0.3989
 3041SOL     OW12161   1.791   2.499   3.808  0.2995 -0.5016  0.0660
 3041SOL    HW112162   1.861   2.443   3.775  0.3357  0.3806 -1.4433
 3041SOL    HW212163   1.814   2.587   3.779 -1.0625 -0.0869  0.1596
 3041SOL     MW12164   1.803   2.503   3.800  0.1298 -0.3355 -0.1152
 3042SOL     OW12165   2.161   3.746   4.047 -0.7803 -0.1781 -0.1362
 3042SOL    HW112166   2.087   3.688   4.058  0.2057 -1.3012  0.8784
 3042SOL    HW212167   2.140   3.823   4.100 -1.3900 -0.2937 -0.2053
 3042SOL     MW12168   2.149   3.748   4.055 -0.7321 -0.3367 -0.0152
 3043SOL     OW12169   2.322   5.260   1.023  0.4423 -0.0607 -0.3049
 3043SOL    HW112170   2.353   5.181   1.065  4.0370 -0.0394 -2.5089
 3043SOL    HW212171   2.237   5.236   0.985  0.8446 -2.4429  0.1966
 3043SOL     MW12172   2.315   5.247   1.023  0.9539 -0.3629 -0.5229
 3044SOL     OW12173   4.793   2.221   1.466 -0.2525 -0.4495 -0.3205
 3044SOL    HW112174   4.781   2.127   1.481 -1.0714 -0.3434 -0.2601
 3044SOL    HW212175   4.775   2.233   1.373  3.4632 -0.8922 -1.2245
 3044SOL     MW12176   4.789   2.211   1.456  0.1183 -0.4926 -0.4285
 3045SOL     OW12177   5.327   2.808   0.625 -0.1337  0.6373 -0.2733
 3045SOL    HW112178   5.271   2.754   0.569 -0.4657  0.6237  0.0593
 3045SOL    HW212179   5.272   2.883   0.649  0.0213  0.6715 -0.0168
 3045SOL     MW12180   5.312   2.811   0.621 -0.1564  0.6400 -0.1979
 3046SOL     OW12181   0.937   0.163   3.565 -0.4138  0.1496 -0.0748
 3046SOL    HW112182   0.963   0.178   3.656  0.2466  0.9183 -0.3810
 3046SOL    HW212183   0.858   0.215   3.553 -0.2422  0.4180 -0.0622
 3046SOL     MW12184   0.930   0.171   3.575 -0.3073  0.2824 -0.1124
 3047SOL     OW12185   2.579   5.010   0.744 -0.0696 -0.6215  0.2350
 3047SOL    HW112186   2.662   4.973   0.776 -0.0401 -1.4361 -0.7051
 3047SOL    HW212187   2.515   4.940   0.759 -0.6857  0.1704  1.3546
 3047SOL     MW12188   2.582   4.996   0.750 -0.1447 -0.6244  0.2580
 3048SOL     OW12189   3.736   0.602   3.488 -0.3383 -0.1271 -0.1930
 3048SOL    HW112190   3.718   0.524   3.541 -0.7195  0.4297  0.5289
 3048SOL    HW212191   3.788   0.659   3.546 -0.6390  0.4311 -0.4618
 3048SOL     MW12192   3.740   0.600   3.502 -0.4256  0.0156 -0.1350
 3049SOL     OW12193   0.154   2.679   4.472  0.5289 -0.3346 -0.3763
 3049SOL    HW112194   0.129   2.588   4.454 -1.1229  0.3067 -1.6586
 3049SOL    HW212195   0.241   2.673   4.511  0.2190 -2.4910  0.0998
 3049SOL     MW12196   0.162   2.667   4.475  0.2778 -0.5286 -0.4795
 3050SOL     OW12197   4.918   0.617   3.822 -0.4797 -0.5552  0.2103
 3050SOL    HW112198   4.916   0.521   3.821  2.3114 -0.6985  1.5867
 3050SOL    HW212199   4.968   0.641   3.744 -0.2299 -0.2768  0.4539
 3050SOL     MW12200   4.924   0.608   3.812 -0.0904 -0.5379  0.4176
 3051SOL     OW12201   3.501   2.941   1.284  0.5275  0.2863 -0.4772
 3051SOL    HW112202   3.419   2.988   1.301  0.7943  0.3460  0.7455
 3051SOL    HW212203   3.556   2.962   1.360  1.6537  0.1911 -1.2476
 3051SOL     MW12204   3.497   2.950   1.296  0.7058  0.2818 -0.4193
 3052SOL     OW12205   2.566   1.721   1.371  0.0561  0.0003 -0.7111
 3052SOL    HW112206   2.494   1.705   1.432  0.4866 -0.6876 -0.3660
 3052SOL    HW212207   2.523   1.738   1.287 -0.5727  1.9413 -0.0327
 3052SOL     MW12208   2.551   1.721   1.368  0.0307  0.1607 -0.5801
 3053SOL     OW12209   2.112   5.182   4.856  0.4682  0.0238  0.2710
 3053SOL    HW112210   2.062   5.255   4.893 -0.1564 -0.9231  1.3838
 3053SOL    HW212211   2.201   5.194   4.891  0.5078  0.5381  0.0076
 3053SOL     MW12212   2.117   5.193   4.865  0.3933 -0.0316  0.3797
 3054SOL     OW12213   3.428   3.748   1.612  0.0237 -0.1445 -0.0854
 3054SOL    HW112214   3.454   3.816   1.549 -4.0948 -0.4743 -2.4401
 3054SOL    HW212215   3.360   3.790   1.665 -1.4064 -1.9002 -0.4729
 3054SOL     MW12216   3.423   3.762   1.611 -0.6866 -0.4115 -0.4364
 3055SOL     OW12217   2.326   2.184   2.363  0.1723  0.1705  0.1370
 3055SOL    HW112218   2.369   2.171   2.278  1.3283 -0.6266  0.8131
 3055SOL    HW212219   2.270   2.107   2.373 -1.1956  1.0372 -0.5851
 3055SOL     MW12220   2.324   2.172   2.353  0.1452  0.1794  0.1312
 3056SOL     OW12221   3.502   0.196   4.369  0.2484  0.3712 -0.5868
 3056SOL    HW112222   3.411   0.223   4.355 -0.2599 -0.4430  0.9066
 3056SOL    HW212223   3.544   0.275   4.403 -0.5366  0.1460  1.0432
 3056SOL     MW12224   3.495   0.210   4.372  0.0828  0.2381 -0.1869
 3057SOL     OW12225   0.267   3.909   3.687 -0.4878  0.0662  0.3050
 3057SOL    HW112226   0.363   3.911   3.681 -0.5126  0.1617 -0.0686
 3057SOL    HW212227   0.247   3.972   3.756 -0.1976 -1.1245  1.5102
 3057SOL     MW12228   0.277   3.918   3.695 -0.4538 -0.0740  0.4115
 3058SOL     OW12229   3.961   3.646   2.630 -0.7486  0.4687 -0.2978
 3058SOL    HW112230   3.983   3.556   2.655 -1.1030  0.6345  0.6565
 3058SOL    HW212231   3.865   3.647   2.625 -0.7236  0.6689 -0.8076
 3058SOL     MW12232   3.951   3.635   2.633 -0.7908  0.5155 -0.2409
 3059SOL     OW12233   0.119   4.447   1.059  0.4052 -0.3221 -0.2195
 3059SOL    HW112234   0.151   4.398   1.135 -0.1538  1.6729  1.3895
 3059SOL    HW212235   0.035   4.483   1.087  0.9784  1.8829 -1.1221
 3059SOL     MW12236   0.113   4.445   1.072  0.4070  0.2156 -0.1291
 3060SOL     OW12237   1.574   2.814   0.157 -0.4998 -0.3488  0.0411
 3060SOL    HW112238   1.640   2.778   0.217 -0.6094 -0.7198 -0.0596
 3060SOL    HW212239   1.543   2.739   0.107  0.3272  0.1217 -1.2052
 3060SOL     MW12240   1.578   2.800   0.158 -0.4079 -0.3360 -0.1314
 3061SOL     OW12241   1.214   1.771   0.524  0.2386 -0.1793  0.2003
 3061SOL    HW112242   1.214   1.789   0.619  0.5368  0.3052  0.1119
 3061SOL    HW212243   1.165   1.844   0.486  2.2802  1.0509 -0.2594
 3061SOL     MW12244   1.208   1.783   0.532  0.5381  0.0402  0.1301
 3062SOL     OW12245   1.848   3.683   3.784  0.9236  0.2013 -0.4536
 3062SOL    HW112246   1.773   3.735   3.814 -0.0994 -0.4812 -1.7257
 3062SOL    HW212247   1.811   3.621   3.721  2.4356 -0.7260 -0.4909
 3062SOL     MW12248   1.834   3.681   3.780  0.9862 -0.0048 -0.6212
 3063SOL     OW12249   4.033   1.168   4.523  0.3149  0.1249  0.2958
 3063SOL    HW112250   3.989   1.134   4.446  2.6935  0.5893 -1.3787
 3063SOL    HW212251   4.115   1.119   4.527  1.5636  2.1226  0.7773
 3063SOL     MW12252   4.038   1.157   4.514  0.7792  0.4401  0.1431
 3064SOL     OW12253   4.973   1.564   3.308  0.6152 -0.0516  0.4313
 3064SOL    HW112254   5.055   1.582   3.355  0.2347  1.1751  0.6624
 3064SOL    HW212255   4.929   1.497   3.361  2.2222 -2.0775 -0.6217
 3064SOL     MW12256   4.978   1.557   3.321  0.7722 -0.1539  0.3261
 3065SOL     OW12257   2.982   4.829   5.387  0.3388  0.1943  0.1253
 3065SOL    HW112258   2.917   4.899   5.385 -0.1106  0.0349 -4.7940
 3065SOL    HW212259   2.935   4.752   5.419 -0.8073  0.9197  0.2142
 3065SOL     MW12260   2.968   4.828   5.391  0.1346  0.2667 -0.4931
 3066SOL     OW12261   2.572   1.786   4.247  0.1377 -0.1189  0.0280
 3066SOL    HW112262   2.662   1.766   4.272 -0.0052 -2.6050 -1.1492
 3066SOL    HW212263   2.572   1.880   4.229  1.9700  0.3329  2.0139
 3066SOL     MW12264   2.583   1.795   4.248  0.3539 -0.3793  0.1315
 3067SOL     OW12265   0.315   1.215   1.647 -0.4402  0.7636  0.2010
 3067SOL    HW112266   0.265   1.251   1.721 -3.1756  0.8033 -1.5436
 3067SOL    HW212267   0.284   1.125   1.639  2.0987 -0.2532  0.9127
 3067SOL     MW12268   0.305   1.208   1.656 -0.4654  0.6385  0.0688
 3068SOL     OW12269   1.729   0.842   3.675  0.2591 -0.4476 -0.2521
 3068SOL    HW112270   1.699   0.906   3.611  0.2453 -0.7251 -0.5257
 3068SOL    HW212271   1.703   0.757   3.638  1.3786 -0.6951 -0.5027
 3068SOL     MW12272   1.722   0.839   3.662  0.4007 -0.5148 -0.3192
 3069SOL     OW12273   1.660   4.868   4.306 -0.2282 -0.5713 -0.4804
 3069SOL    HW112274   1.676   4.893   4.397  0.5173  1.4461 -1.1013
 3069SOL    HW212275   1.674   4.774   4.304  0.0931 -0.6035  1.4187
 3069SOL     MW12276   1.664   4.859   4.317 -0.0916 -0.3171 -0.3168
 3070SOL     OW12277   2.159   4.489   2.764 -0.0635 -0.7881  0.6068
 3070SOL    HW112278   2.098   4.541   2.817 -1.1522 -2.4002  0.9851
 3070SOL    HW212279   2.157   4.402   2.803  0.0685 -1.7003 -1.3296
 3070SOL     MW12280   2.151   4.485   2.776 -0.1860 -1.1113  0.4073
 3071SOL     OW12281   3.390   3.287   1.809 -0.5606 -0.3525  0.2195
 3071SOL    HW112282   3.475   3.309   1.770 -0.2820  1.0611  1.5028
 3071SOL    HW212283   3.409   3.277   1.902 -1.9133  0.7108  0.6311
 3071SOL     MW12284   3.404   3.289   1.816 -0.6981 -0.0354  0.4364
 3072SOL     OW12285   2.448   1.498   0.753 -0.2492  0.3476  0.2763
 3072SOL    HW112286   2.492   1.581   0.731  0.2685 -0.1190 -0.4758
 3072SOL    HW212287   2.437   1.454   0.670  0.0842 -0.6461  0.7430
 3072SOL     MW12288   2.452   1.503   0.740 -0.1403  0.1607  0.2397
 3073SOL     OW12289   2.930   5.365   3.296  0.0216  0.0087 -0.3918
 3073SOL    HW112290   2.884   5.379   3.379 -0.4089 -1.0102 -0.4402
 3073SOL    HW212291   2.870   5.397   3.230 -0.6965 -1.4116 -0.4616
 3073SOL     MW12292   2.917   5.371   3.299 -0.1255 -0.3035 -0.4069
 3074SOL     OW12293   2.028   2.582   3.326 -0.0621 -0.0285 -0.7554
 3074SOL    HW112294   2.081   2.617   3.255 -0.5431  0.1940 -1.0029
 3074SOL    HW212295   1.950   2.547   3.284 -0.5524  0.4983 -0.3038
 3074SOL     MW12296   2.025   2.582   3.312 -0.1864  0.0674 -0.7293
 3075SOL     OW12297   3.270   0.898   3.816  0.7738 -0.0845 -0.2045
 3075SOL    HW112298   3.221   0.871   3.894  0.5722 -1.5511 -0.8052
 3075SOL    HW212299   3.353   0.850   3.823  0.0008 -1.7687 -1.8228
 3075SOL     MW12300   3.274   0.888   3.827  0.6491 -0.4878 -0.4886
 3076SOL     OW12301   2.405   0.447   3.797 -0.2973  0.3888  0.5331
 3076SOL    HW112302   2.493   0.434   3.764 -0.1829  0.9682  0.6143
 3076SOL    HW212303   2.410   0.424   3.890 -0.6958 -1.5847  0.1228
 3076SOL     MW12304   2.417   0.442   3.805 -0.3337  0.2103  0.4910
 3077SOL     OW12305   4.324   4.607   3.882 -0.0018  0.0981 -0.1724
 3077SOL    HW112306   4.347   4.670   3.814 -1.5786  1.6040  0.6278
 3077SOL    HW212307   4.407   4.561   3.900  1.0679  1.5214 -1.1921
 3077SOL     MW12308   4.338   4.609   3.875 -0.0667  0.4731 -0.2005
 3078SOL     OW12309   3.156   1.143   3.712  0.0516  0.0071 -0.3019
 3078SOL    HW112310   3.197   1.160   3.628 -0.5687  0.2831 -0.5561
 3078SOL    HW212311   3.192   1.059   3.740  0.4162  0.0135 -0.7447
 3078SOL     MW12312   3.166   1.134   3.705  0.0189  0.0432 -0.3911
 3079SOL     OW12313   2.147   1.360   1.741  0.0113  0.1487 -0.0593
 3079SOL    HW112314   2.193   1.287   1.780 -0.8930 -0.9836 -1.0325
 3079SOL    HW212315   2.212   1.403   1.685  0.4710 -0.0877  0.2972
 3079SOL     MW12316   2.161   1.356   1.739 -0.0456 -0.0265 -0.1383
 3080SOL     OW12317   5.129   0.822   2.282  0.3606  0.5506  0.3266
 3080SOL    HW112318   5.192   0.890   2.307  2.5560 -0.5383 -1.8079
 3080SOL    HW212319   5.124   0.764   2.357  1.2119  1.1716  0.8799
 3080SOL     MW12320   5.137   0.823   2.295  0.7506  0.4907  0.1242
 3081SOL     OW12321   3.390   4.417   5.142 -0.0547 -0.6887 -0.0691
 3081SOL    HW112322   3.372   4.378   5.228 -1.3064 -0.8547 -0.3790
 3081SOL    HW212323   3.366   4.349   5.080  0.8735 -0.5791 -0.5635
 3081SOL     MW12324   3.384   4.403   5.145 -0.0961 -0.6959 -0.1721
 3082SOL     OW12325   3.676   4.170   2.232 -0.3563  0.2710 -0.6276
 3082SOL    HW112326   3.642   4.198   2.147 -2.7022  1.6109  0.6499
 3082SOL    HW212327   3.655   4.242   2.291  0.7840 -0.8184  1.1956
 3082SOL     MW12328   3.669   4.182   2.229 -0.5106  0.3031 -0.2307
 3083SOL     OW12329   2.417   1.522   4.439  0.0728 -0.0772  0.4636
 3083SOL    HW112330   2.389   1.518   4.347  0.3363  0.9556  0.3207
 3083SOL    HW212331   2.341   1.495   4.489 -0.3928  0.3010 -0.0295
 3083SOL     MW12332   2.404   1.518   4.434  0.0469  0.1034  0.3822
 3084SOL     OW12333   1.579   3.532   1.493  0.2485 -0.1579  0.4579
 3084SOL    HW112334   1.644   3.577   1.548 -1.9867  4.0271  0.1408
 3084SOL    HW212335   1.506   3.516   1.552 -0.1808 -0.5497 -0.1753
 3084SOL     MW12336   1.578   3.536   1.508 -0.0926  0.3277  0.3363
 3085SOL     OW12337   4.852   2.836   0.402  0.1810 -0.2060 -0.0552
 3085SOL    HW112338   4.775   2.894   0.403  0.1884 -0.1761 -0.8367
 3085SOL    HW212339   4.908   2.870   0.472 -1.1398 -1.0957  1.5110
 3085SOL     MW12340   4.849   2.848   0.411  0.0129 -0.3160  0.0452
 3086SOL     OW12341   3.056   1.652   2.973 -0.0344 -0.3144  0.3722
 3086SOL    HW112342   3.141   1.690   2.949 -0.6992  0.2497 -1.1673
 3086SOL    HW212343   3.022   1.615   2.892 -1.0998 -0.8900  1.0566
 3086SOL     MW12344   3.063   1.652   2.960 -0.2559 -0.3158  0.2627
 3087SOL     OW12345   1.109   5.050   2.413 -0.4218 -0.1354 -0.1230
 3087SOL    HW112346   1.052   5.110   2.460 -1.6116 -1.2555 -0.0604
 3087SOL    HW212347   1.049   4.984   2.377  0.5249  0.1341 -2.3948
 3087SOL     MW12348   1.094   5.049   2.414 -0.4529 -0.2443 -0.4058
 3088SOL     OW12349   1.045   0.817   3.000  0.4093 -0.2822  0.1038
 3088SOL    HW112350   0.965   0.790   2.954 -0.2079 -1.8346  1.9348
 3088SOL    HW212351   1.023   0.903   3.037  0.4322  0.3425 -1.2659
 3088SOL     MW12352   1.032   0.825   2.999  0.3332 -0.4010  0.1628
 3089SOL     OW12353   0.433   4.242   5.259 -0.5413  0.0368 -0.2634
 3089SOL    HW112354   0.434   4.327   5.304  1.2802 -0.1888  0.1975
 3089SOL    HW212355   0.525   4.215   5.256 -1.0720 -1.9151 -0.4472
 3089SOL     MW12356   0.445   4.250   5.264 -0.3761 -0.2419 -0.2279
 3090SOL     OW12357   3.681   2.725   0.082  0.4487  0.3370 -0.0715
 3090SOL    HW112358   3.772   2.696   0.068  0.4271 -0.0837  0.6172
 3090SOL    HW212359   3.688   2.819   0.094  1.0061  0.1160  1.5824
 3090SOL     MW12360   3.694   2.733   0.082  0.5173  0.2549  0.2284
 3091SOL     OW12361   3.611   2.331   2.226  0.0288 -0.5344  0.2170
 3091SOL    HW112362   3.667   2.357   2.299  1.3887 -0.4841 -0.8239
 3091SOL    HW212363   3.583   2.242   2.248 -0.7351 -0.0225  1.4537
 3091SOL     MW12364   3.614   2.323   2.238  0.1051 -0.4624  0.2421
 3092SOL     OW12365   0.906   4.001   3.708  0.2877 -0.3547 -0.3913
 3092SOL    HW112366   0.866   4.073   3.660 -0.2095 -0.4116 -0.0755
 3092SOL    HW212367   0.948   3.948   3.641  0.0173 -0.1729 -0.7101
 3092SOL     MW12368   0.906   4.004   3.694  0.1894 -0.3387 -0.3917
 3093SOL     OW12369   5.047   4.409   3.961 -0.0754  0.1654 -0.0367
 3093SOL    HW112370   5.045   4.495   3.919 -0.8552 -0.5901 -1.5985
 3093SOL    HW212371   5.140   4.395   3.981 -0.0233  1.7117  1.0480
 3093SOL     MW12372   5.059   4.418   3.958 -0.1685  0.2666 -0.0978
 3094SOL     OW12373   4.373   3.161   1.603  0.3371  0.3071  0.2063
 3094SOL    HW112374   4.401   3.248   1.631  1.9106 -0.1606  0.1771
 3094SOL    HW212375   4.445   3.103   1.629 -0.5675 -0.9550 -0.0021
 3094SOL     MW12376   4.386   3.165   1.610  0.4227  0.0857  0.1759
 3095SOL     OW12377   1.818   2.749   3.670  0.0046 -0.1799 -0.2279
 3095SOL    HW112378   1.892   2.696   3.641 -0.5201 -1.1327  0.1457
 3095SOL    HW212379   1.858   2.831   3.701  0.8110 -0.3041 -0.9033
 3095SOL     MW12380   1.833   2.753   3.670  0.0406 -0.3178 -0.2665
 3096SOL     OW12381   2.727   1.869   4.755  0.5682 -0.4839  0.2347
 3096SOL    HW112382   2.746   1.801   4.820  0.4063 -0.6904  0.0685
 3096SOL    HW212383   2.673   1.825   4.690  0.5247 -0.2127  0.0866
 3096SOL     MW12384   2.723   1.855   4.755  0.5419 -0.4756  0.1945
 3097SOL     OW12385   1.205   0.133   4.446  0.1157  0.2724  0.1799
 3097SOL    HW112386   1.226   0.062   4.386 -0.8401  0.8339 -0.8480
 3097SOL    HW212387   1.157   0.090   4.518  1.1230 -0.3732  0.4918
 3097SOL     MW12388   1.202   0.118   4.448  0.1223  0.2616  0.0883
 3098SOL     OW12389   2.085   2.991   4.768 -0.1803  0.0211  0.3298
 3098SOL    HW112390   2.165   2.941   4.789  0.7515  1.4377  0.2644
 3098SOL    HW212391   2.048   3.012   4.853 -0.8387 -1.1245  0.3573
 3098SOL     MW12392   2.091   2.987   4.782 -0.1453  0.0558  0.3250
 3099SOL     OW12393   2.096   0.451   3.333 -0.0741 -0.2414  0.1141
 3099SOL    HW112394   2.089   0.546   3.325 -0.4323 -0.2172  0.6558
 3099SOL    HW212395   2.190   0.434   3.338 -0.0333  0.1466  0.7001
 3099SOL     MW12396   2.107   0.461   3.333 -0.1147 -0.1887  0.2584
 3100SOL     OW12397   0.095   1.661   5.091 -0.0757  0.1238  0.5386
 3100SOL    HW112398   0.050   1.647   5.008  0.0291  0.4836  0.4191
 3100SOL    HW212399   0.035   1.626   5.157 -1.2117  1.9250  0.5277
 3100SOL     MW12400   0.082   1.654   5.089 -0.2077  0.4004  0.5219
 3101SOL     OW12401   2.556   1.248   2.671  0.3012 -0.9282  0.0717
 3101SOL    HW112402   2.591   1.337   2.667  1.1596 -1.1791  1.3326
 3101SOL    HW212403   2.612   1.198   2.611 -1.3964 -0.3013 -2.1780
 3101SOL     MW12404   2.568   1.253   2.663  0.1938 -0.8801 -0.0549
 3102SOL     OW12405   5.155   0.572   2.452  0.2302  0.3512  0.2080
 3102SOL    HW112406   5.132   0.562   2.544 -1.0100 -0.8581 -0.1984
 3102SOL    HW212407   5.080   0.538   2.404  1.2588 -0.0147 -1.2424
 3102SOL     MW12408   5.143   0.566   2.458  0.2031  0.1495 -0.0297
 3103SOL     OW12409   3.157   3.904   2.149 -0.7321 -0.0794 -0.1059
 3103SOL    HW112410   3.133   3.992   2.178 -1.0885  0.2819 -1.4146
 3103SOL    HW212411   3.241   3.915   2.106  0.0085 -0.6849  1.1354
 3103SOL     MW12412   3.164   3.917   2.147 -0.6829 -0.1106 -0.1145
 3104SOL     OW12413   3.395   4.859   3.170 -0.0178  0.5293 -0.0825
 3104SOL    HW112414   3.469   4.903   3.129  0.3963  0.0310  0.1236
 3104SOL    HW212415   3.321   4.880   3.113  0.3192  0.8520 -0.4110
 3104SOL     MW12416   3.395   4.867   3.157  0.0784  0.5068 -0.0982
 3105SOL     OW12417   0.463   1.729   0.089  0.1876  0.2799 -0.1681
 3105SOL    HW112418   0.491   1.640   0.109 -0.7182 -0.2314 -1.0364
 3105SOL    HW212419   0.517   1.785   0.145  1.4443 -0.7539 -0.3007
 3105SOL     MW12420   0.474   1.725   0.099  0.2325  0.0821 -0.2962
 3106SOL     OW12421   0.249   4.176   3.563 -0.2600  0.1632 -0.3509
 3106SOL    HW112422   0.237   4.085   3.592 -2.2511 -0.0133 -1.5528
 3106SOL    HW212423   0.222   4.175   3.471  0.8455  1.7560 -0.7347
 3106SOL     MW12424   0.244   4.164   3.555 -0.3734  0.3445 -0.5539
 3107SOL     OW12425   2.092   3.428   2.656  0.5018  0.1661  0.6373
 3107SOL    HW112426   2.166   3.382   2.615 -0.0872  0.6219 -1.0380
 3107SOL    HW212427   2.067   3.373   2.730  1.7537 -0.6110  0.5085
 3107SOL     MW12428   2.098   3.415   2.660  0.5866  0.1249  0.4064
 3108SOL     OW12429   1.265   2.514   4.166  0.8450  0.3816  0.2745
 3108SOL    HW112430   1.254   2.608   4.183 -0.6343  0.4489 -0.8132
 3108SOL    HW212431   1.349   2.492   4.206 -0.0418  1.5564  3.0030
 3108SOL     MW12432   1.274   2.524   4.173  0.5421  0.5406  0.4846
 3109SOL     OW12433   0.083   4.991   2.872 -0.1367  0.1034  0.1909
 3109SOL    HW112434   0.137   5.054   2.825  0.9197 -1.8066 -1.2606
 3109SOL    HW212435  -0.003   5.032   2.875  0.0712  0.8826 -2.2627
 3109SOL     MW12436   0.079   5.004   2.867  0.0251 -0.0413 -0.3090
 3110SOL     OW12437   4.333   0.240   5.391  0.4719  0.8509 -0.1045
 3110SOL    HW112438   4.383   0.180   5.336 -0.0192  2.6276 -2.6973
 3110SOL    HW212439   4.270   0.185   5.438  1.7340 -0.8807 -0.3637
 3110SOL     MW12440   4.331   0.226   5.390  0.5706  0.8567 -0.4696
 3111SOL     OW12441   3.702   4.203   0.885 -0.1010  0.5761  0.2445
 3111SOL    HW112442   3.742   4.287   0.861  0.0708  0.0978 -1.2178
 3111SOL    HW212443   3.611   4.211   0.858 -0.3696  0.6821  1.1347
 3111SOL     MW12444   3.696   4.215   0.879 -0.1134  0.5284  0.1713
 3112SOL     OW12445   4.183   4.837   4.759  0.2395 -0.6805  0.1792
 3112SOL    HW112446   4.150   4.753   4.791  0.1945 -0.6230  0.2823
 3112SOL    HW212447   4.193   4.824   4.665 -0.4186 -0.5799  0.0950
 3112SOL     MW12448   4.180   4.824   4.751  0.1495 -0.6602  0.1816
 3113SOL     OW12449   5.108   1.925   1.067 -0.1449  0.0718 -0.8677
 3113SOL    HW112450   5.104   1.941   1.161  0.2758  0.0075 -0.8396
 3113SOL    HW212451   5.201   1.911   1.048 -0.2923 -0.4839 -1.2015
 3113SOL     MW12452   5.119   1.925   1.076 -0.1099 -0.0076 -0.9068
 3114SOL     OW12453   1.023   5.110   1.337  0.5388 -0.0026 -0.3206
 3114SOL    HW112454   1.106   5.084   1.377 -0.0491 -0.5047  0.6302
 3114SOL    HW212455   1.003   5.195   1.376  0.8821  0.3884 -0.9869
 3114SOL     MW12456   1.031   5.118   1.347  0.5075 -0.0168 -0.2842
 3115SOL     OW12457   0.550   2.374   0.164  0.3188 -0.0891 -0.3320
 3115SOL    HW112458   0.462   2.396   0.133 -0.3348 -1.6102  0.3274
 3115SOL    HW212459   0.608   2.396   0.091 -0.8446 -0.9365 -1.5461
 3115SOL     MW12460   0.546   2.380   0.151  0.0862 -0.3923 -0.4030
 3116SOL     OW12461   3.640   5.222   3.082 -0.1575  0.6949  0.5600
 3116SOL    HW112462   3.577   5.266   3.140 -0.7398  1.0010 -0.2851
 3116SOL    HW212463   3.652   5.283   3.009 -0.5647 -0.3154 -0.3787
 3116SOL     MW12464   3.634   5.236   3.080 -0.2841  0.6048  0.3316
 3117SOL     OW12465   0.431   2.449   4.798 -0.3008  0.3410 -0.4767
 3117SOL    HW112466   0.390   2.365   4.817  1.1301 -0.3691 -0.3409
 3117SOL    HW212467   0.371   2.514   4.834 -0.9864 -0.6698  0.2609
 3117SOL     MW12468   0.418   2.446   4.805 -0.2054  0.1207 -0.3649
 3118SOL     OW12469   2.346   3.484   4.007  0.0436 -0.5384  0.2156
 3118SOL    HW112470   2.285   3.489   4.081 -0.0467 -3.1097  0.4164
 3118SOL    HW212471   2.314   3.409   3.956  1.2433 -0.0043 -1.3855
 3118SOL     MW12472   2.334   3.475   4.010  0.1857 -0.7992  0.0363
 3119SOL     OW12473   3.003   3.294   1.861 -0.1400 -0.2180 -0.1442
 3119SOL    HW112474   3.018   3.302   1.956 -0.0637  0.0283 -0.1781
 3119SOL    HW212475   3.090   3.303   1.822 -0.3629  1.2794 -0.3459
 3119SOL     MW12476   3.016   3.296   1.868 -0.1588  0.0052 -0.1744
 3120SOL     OW12477   0.510   3.675   2.411  0.5007 -0.5457 -0.1401
 3120SOL    HW112478   0.517   3.641   2.501 -0.7484 -1.6118 -0.4191
 3120SOL    HW212479   0.416   3.675   2.393  0.7168  0.0149 -1.3259
 3120SOL     MW12480   0.499   3.671   2.420  0.3685 -0.6104 -0.3276
 3121SOL     OW12481   0.141   0.656   2.151  0.2296  0.2158 -0.2578
 3121SOL    HW112482   0.055   0.678   2.187 -0.2945  0.8539 -1.7976
 3121SOL    HW212483   0.158   0.726   2.088  0.4437 -1.5584 -2.2637
 3121SOL     MW12484   0.132   0.668   2.147  0.1899  0.0704 -0.7117
 3122SOL     OW12485   2.093   3.323   4.580  0.1327 -0.5262  0.8415
 3122SOL    HW112486   2.111   3.231   4.560 -0.7666 -0.2841 -1.2686
 3122SOL    HW212487   2.162   3.348   4.642  1.8338 -1.9558 -0.3896
 3122SOL     MW12488   2.104   3.314   4.585  0.2354 -0.6782  0.4138
 3123SOL     OW12489   2.152   1.146   4.641 -0.3951  0.2248  0.0772
 3123SOL    HW112490   2.190   1.069   4.598 -0.1298  0.5686 -0.3084
 3123SOL    HW212491   2.160   1.127   4.735  0.9676  0.3846  0.0220
 3123SOL     MW12492   2.158   1.133   4.648 -0.1867  0.2892  0.0208
 3124SOL     OW12493   1.912   1.485   3.463 -0.1565 -0.1719 -0.1332
 3124SOL    HW112494   1.903   1.573   3.427  0.5958  0.1993  0.5459
 3124SOL    HW212495   1.992   1.489   3.515 -1.2940 -0.6296  1.7369
 3124SOL     MW12496   1.921   1.497   3.465 -0.2058 -0.1830  0.1932
 3125SOL     OW12497   4.514   0.108   3.108 -0.6203  0.1764 -0.0357
 3125SOL    HW112498   4.537   0.201   3.113 -0.6460  0.2652 -1.2215
 3125SOL    HW212499   4.469   0.099   3.024  2.8061 -1.5779 -1.9148
 3125SOL     MW12500   4.511   0.119   3.098 -0.1849 -0.0368 -0.4280
 3126SOL     OW12501   0.745   2.820   4.692  1.0595  0.2542  0.5114
 3126SOL    HW112502   0.692   2.788   4.765  0.7104  0.8275  0.5111
 3126SOL    HW212503   0.788   2.741   4.658  2.2235  0.1311  2.1228
 3126SOL     MW12504   0.744   2.805   4.697  1.1638  0.3118  0.7177
 3127SOL     OW12505   1.228   4.215   5.425  0.8287 -0.1810 -0.0413
 3127SOL    HW112506   1.300   4.161   5.458  1.2811  0.8140  0.6395
 3127SOL    HW212507   1.247   4.225   5.331  2.0125  0.6729  0.2570
 3127SOL     MW12508   1.240   4.209   5.417  1.0381  0.0557  0.0841
 3128SOL     OW12509   4.622   0.518   4.907  0.2498  0.5649  0.1168
 3128SOL    HW112510   4.703   0.564   4.883  0.0395 -0.1861 -2.2771
 3128SOL    HW212511   4.561   0.588   4.930  0.5067  1.4205 -1.6080
 3128SOL     MW12512   4.625   0.533   4.907  0.2558  0.5783 -0.4105
 3129SOL     OW12513   5.178   4.915   2.822 -0.1815 -0.1227  0.2267
 3129SOL    HW112514   5.221   4.858   2.885 -1.7426 -1.2638  0.3261
 3129SOL    HW212515   5.099   4.945   2.867  0.4463  1.9439  0.0702
 3129SOL     MW12516   5.173   4.911   2.836 -0.3010 -0.0042  0.2194
 3130SOL     OW12517   4.391   2.334   5.332  0.0319  0.0508  0.2993
 3130SOL    HW112518   4.462   2.388   5.300  0.1011  0.8355  1.6874
 3130SOL    HW212519   4.316   2.394   5.339 -0.7507 -0.7151 -0.9621
 3130SOL     MW12520   4.390   2.349   5.329 -0.0594  0.0532  0.3155
 3131SOL     OW12521   4.141   1.633   0.110  0.2222 -0.4719  0.4871
 3131SOL    HW112522   4.209   1.567   0.095  1.3823  0.3845  1.6340
 3131SOL    HW212523   4.190   1.712   0.131 -1.1100 -0.1491  2.7198
 3131SOL     MW12524   4.156   1.635   0.111  0.2002 -0.3209  0.9197
 3132SOL     OW12525   0.656   3.667   5.187  0.0280 -0.1469 -0.3163
 3132SOL    HW112526   0.739   3.676   5.234  0.2071 -0.8441 -0.4967
 3132SOL    HW212527   0.633   3.757   5.163  0.4378  0.1136  0.2269
 3132SOL     MW12528   0.663   3.680   5.190  0.1034 -0.2028 -0.2699
 3133SOL     OW12529   1.109   4.357   0.552 -0.0870  0.6709 -0.2995
 3133SOL    HW112530   1.072   4.430   0.602  1.1478  0.9567  0.2357
 3133SOL    HW212531   1.135   4.294   0.619  1.1876  0.8641 -0.5964
 3133SOL     MW12532   1.107   4.359   0.567  0.2343  0.7322 -0.2690
 3134SOL     OW12533   2.616   3.354   0.887 -0.2263  0.0175  0.0176
 3134SOL    HW112534   2.688   3.293   0.901  0.1518  0.4235 -0.1378
 3134SOL    HW212535   2.542   3.299   0.860  0.2952 -0.3068 -0.7824
 3134SOL     MW12536   2.616   3.339   0.885 -0.1111  0.0279 -0.1047
 3135SOL     OW12537   3.348   1.901   3.526  0.2978 -0.2002  0.2421
 3135SOL    HW112538   3.314   1.917   3.438  0.0800  0.0259  0.3660
 3135SOL    HW212539   3.342   1.986   3.570 -0.8195 -0.5998  0.8946
 3135SOL     MW12540   3.343   1.914   3.521  0.1269 -0.2224  0.3415
 3136SOL     OW12541   4.436   3.357   4.662  0.0377 -0.0387 -0.2735
 3136SOL    HW112542   4.344   3.384   4.659 -0.1023 -0.4735 -0.0165
 3136SOL    HW212543   4.482   3.424   4.612 -0.5840 -0.5009 -1.5362
 3136SOL     MW12544   4.430   3.369   4.655 -0.0598 -0.1535 -0.4023
 3137SOL     OW12545   5.254   3.358   2.584  0.0674  0.7006 -0.7213
 3137SOL    HW112546   5.190   3.427   2.567 -0.1917  1.1216  1.6488
 3137SOL    HW212547   5.305   3.390   2.659  1.1505 -0.8969 -0.7193
 3137SOL     MW12548   5.252   3.371   2.591  0.1729  0.5500 -0.4176
 3138SOL     OW12549   4.059   3.883   4.545  0.4903  0.0802 -0.7607
 3138SOL    HW112550   4.007   3.832   4.608  1.0089  0.2754 -0.1651
 3138SOL    HW212551   4.043   3.840   4.461  0.3862 -0.6664 -0.3741
 3138SOL     MW12552   4.051   3.871   4.542  0.5434  0.0096 -0.6350
 3139SOL     OW12553   3.948   2.127   1.655 -0.7452 -0.1127  0.0220
 3139SOL    HW112554   3.875   2.070   1.679 -0.0702 -0.8541  0.3228
 3139SOL    HW212555   3.979   2.092   1.572 -1.3959  0.8537 -0.6500
 3139SOL     MW12556   3.943   2.115   1.647 -0.7421 -0.0839 -0.0255
 3140SOL     OW12557   2.755   2.575   3.600 -0.0949  0.3849  0.2147
 3140SOL    HW112558   2.747   2.528   3.683 -1.4876  0.7893  0.3364
 3140SOL    HW212559   2.669   2.565   3.558  0.9918 -0.9568 -1.8184
 3140SOL     MW12560   2.743   2.568   3.605 -0.1341  0.2649 -0.0300
 3141SOL     OW12561   0.300   2.935   2.056  0.1758  0.2070  0.1008
 3141SOL    HW112562   0.319   3.024   2.026 -0.4370 -0.1719 -1.4886
 3141SOL    HW212563   0.384   2.889   2.049  0.3723  0.5037  0.4232
 3141SOL     MW12564   0.313   2.940   2.051  0.1225  0.1964 -0.0614
 3142SOL     OW12565   4.955   0.127   1.838 -0.1673 -0.0715 -0.3983
 3142SOL    HW112566   4.870   0.170   1.829 -0.7079 -0.9209  0.3904
 3142SOL    HW212567   4.939   0.057   1.902  0.8112 -1.0664 -1.2122
 3142SOL     MW12568   4.942   0.124   1.845 -0.1112 -0.3076 -0.4016
 3143SOL     OW12569   4.825   3.626   0.804  0.4018  0.3768  0.3713
 3143SOL    HW112570   4.913   3.588   0.802  0.3661  0.3141 -0.1949
 3143SOL    HW212571   4.805   3.635   0.897  0.6296 -0.4918  0.5171
 3143SOL     MW12572   4.834   3.622   0.815  0.4264  0.2576  0.3175
 3144SOL     OW12573   4.572   3.017   1.060  0.2200  0.0811 -0.0144
 3144SOL    HW112574   4.645   3.049   1.007  0.1870  0.3907  0.1273
 3144SOL    HW212575   4.548   3.091   1.115  1.6704 -0.8657  2.0236
 3144SOL     MW12576   4.579   3.031   1.060  0.4015 -0.0005  0.2646
 3145SOL     OW12577   4.026   2.726   4.991 -0.7694  0.1415 -0.4249
 3145SOL    HW112578   4.016   2.655   4.928  1.5155 -0.3652 -0.3005
 3145SOL    HW212579   4.099   2.699   5.047 -0.5305  2.1058  0.3058
 3145SOL     MW12580   4.034   2.713   4.990 -0.4464  0.3281 -0.3155
 3146SOL     OW12581   4.240   2.110   0.270  0.5370  0.1010  0.1761
 3146SOL    HW112582   4.244   2.050   0.344  1.2606  0.9889  0.8874
 3146SOL    HW212583   4.175   2.072   0.211 -3.5200  1.5756  3.2114
 3146SOL     MW12584   4.232   2.098   0.272  0.1103  0.4034  0.6557
 3147SOL     OW12585   2.665   2.238   3.887  0.1894 -0.3974  0.1923
 3147SOL    HW112586   2.678   2.182   3.810 -0.0145  1.1626 -1.0325
 3147SOL    HW212587   2.622   2.316   3.852  1.4526  1.0059  1.6486
 3147SOL     MW12588   2.661   2.241   3.872  0.3250 -0.0181  0.2219
 3148SOL     OW12589   3.767   1.826   4.159  0.3171  0.0674 -0.4554
 3148SOL    HW112590   3.824   1.873   4.220 -0.1738  0.5689 -0.3759
 3148SOL    HW212591   3.745   1.890   4.092  0.2161 -0.2541 -0.7321
 3148SOL     MW12592   3.771   1.840   4.158  0.2413  0.0904 -0.4806
 3149SOL     OW12593   2.413   5.204   2.147  0.2426  0.0834 -0.2113
 3149SOL    HW112594   2.490   5.242   2.104  1.0968 -0.4106  0.8324
 3149SOL    HW212595   2.436   5.201   2.240 -1.1062  0.0580  0.1426
 3149SOL     MW12596   2.426   5.208   2.153  0.1793  0.0169 -0.0324
 3150SOL     OW12597   2.184   2.461   2.026  0.3625 -0.0416  0.1907
 3150SOL    HW112598   2.263   2.506   1.996 -0.6308  1.6287 -0.0611
 3150SOL    HW212599   2.194   2.457   2.121  0.9922 -0.3580  0.1202
 3150SOL     MW12600   2.196   2.466   2.034  0.3160  0.1317  0.1494
 3151SOL     OW12601   0.807   0.293   4.035 -0.3636  0.7118 -0.0305
 3151SOL    HW112602   0.847   0.317   4.118 -0.9276  1.3187  0.0703
 3151SOL    HW212603   0.724   0.251   4.059 -0.2478  0.3344 -0.2712
 3151SOL     MW12604   0.802   0.291   4.049 -0.4210  0.7412 -0.0484
 3152SOL     OW12605   3.593   5.472   4.774 -0.4385 -0.2869  0.3309
 3152SOL    HW112606   3.662   5.412   4.802  0.3165  0.1150 -0.6334
 3152SOL    HW212607   3.539   5.484   4.852  0.5196 -0.6892  1.0710
 3152SOL     MW12608   3.595   5.466   4.788 -0.2192 -0.2870  0.3022
 3153SOL     OW12609   3.874   0.943   0.369  0.0667  0.1622  0.0719
 3153SOL    HW112610   3.913   0.945   0.456  1.3877 -0.1404 -0.4916
 3153SOL    HW212611   3.854   1.034   0.349 -2.7417  0.0284  1.7280
 3153SOL     MW12612   3.876   0.955   0.377 -0.1237  0.1064  0.2118
 3154SOL     OW12613   2.053   0.370   2.471  0.0310 -0.2507 -0.1286
 3154SOL    HW112614   2.064   0.441   2.535  0.4680 -1.0904  0.7536
 3154SOL    HW212615   2.114   0.391   2.401  1.3090 -0.5484  0.8611
 3154SOL     MW12616   2.062   0.382   2.471  0.2505 -0.3963  0.1110
 3155SOL     OW12617   0.542   0.120   1.007  0.0134  0.2925 -0.0047
 3155SOL    HW112618   0.588   0.198   1.039  1.0806 -0.3556  0.0468
 3155SOL    HW212619   0.572   0.108   0.917 -0.2138 -0.0206 -0.0427
 3155SOL     MW12620   0.552   0.129   1.000  0.1209  0.1695 -0.0030
 3156SOL     OW12621   4.162   0.717   2.117  0.5012  0.1556  0.2446
 3156SOL    HW112622   4.250   0.728   2.153  0.5074  1.9121 -0.1917
 3156SOL    HW212623   4.167   0.757   2.030 -1.1321  1.8687  0.8748
 3156SOL     MW12624   4.174   0.724   2.110  0.2929  0.5998  0.2694
 3157SOL     OW12625   3.844   4.890   4.129 -0.3152  0.2870 -0.0359
 3157SOL    HW112626   3.833   4.912   4.036 -0.0724 -0.0144 -0.1386
 3157SOL    HW212627   3.756   4.869   4.160 -0.1909 -1.2581 -0.6256
 3157SOL     MW12628   3.832   4.890   4.121 -0.2682  0.0506 -0.1245
 3158SOL     OW12629   0.087   1.506   2.325 -0.9666  0.5842  0.0179
 3158SOL    HW112630   0.113   1.423   2.283 -0.0986  2.1466 -2.7686
 3158SOL    HW212631   0.162   1.529   2.380  0.5555  1.3674 -2.2375
 3158SOL     MW12632   0.100   1.498   2.327 -0.6607  0.8845 -0.6275
 3159SOL     OW12633   3.260   4.475   1.796 -0.3827 -0.9494 -0.0214
 3159SOL    HW112634   3.194   4.472   1.865  0.8530 -1.6003  1.1733
 3159SOL    HW212635   3.296   4.563   1.801  0.6978 -1.4386  1.1541
 3159SOL     MW12636   3.256   4.486   1.805 -0.0862 -1.0954  0.2820
 3160SOL     OW12637   2.320   2.308   0.528 -0.2098  0.1445  0.4997
 3160SOL    HW112638   2.280   2.369   0.591 -1.3097  0.4906 -0.5062
 3160SOL    HW212639   2.335   2.360   0.449  1.5184 -0.1874  0.5525
 3160SOL     MW12640   2.317   2.322   0.526 -0.1294  0.1463  0.3777
 3161SOL     OW12641   5.069   3.287   4.961  0.2474  0.3734 -0.3698
 3161SOL    HW112642   5.002   3.218   4.956  1.2356 -0.6820  0.5075
 3161SOL    HW212643   5.019   3.366   4.979 -0.7287 -0.5406  1.1712
 3161SOL     MW12644   5.054   3.288   4.963  0.2489  0.1213 -0.0602
 3162SOL     OW12645   1.336   1.621   3.833  0.0908  0.3365  0.1691
 3162SOL    HW112646   1.417   1.611   3.784  0.3670  0.0892  0.6646
 3162SOL    HW212647   1.332   1.542   3.888 -1.5200 -0.7107 -1.3318
 3162SOL     MW12648   1.346   1.609   3.834 -0.0801  0.1708  0.0404
 3163SOL     OW12649   1.315   4.709   1.355 -0.3019 -0.0800 -0.1372
 3163SOL    HW112650   1.407   4.693   1.375 -0.6704  0.4484  2.3504
 3163SOL    HW212651   1.316   4.743   1.266  2.1084  1.3903  0.3404
 3163SOL     MW12652   1.327   4.711   1.346 -0.0405  0.1759  0.2423
 3164SOL     OW12653   3.366   1.437   4.037 -0.0226 -0.2840 -0.3520
 3164SOL    HW112654   3.412   1.371   4.089  1.3978 -0.6086 -1.9094
 3164SOL    HW212655   3.333   1.500   4.100  1.3959 -0.7867  0.9440
 3164SOL     MW12656   3.367   1.436   4.051  0.3408 -0.3899 -0.3855
 3165SOL     OW12657   5.201   2.403   0.891 -0.2044 -0.3347 -0.1369
 3165SOL    HW112658   5.280   2.381   0.841 -0.6530 -1.6584 -0.3188
 3165SOL    HW212659   5.132   2.410   0.824 -0.1626  1.4341 -0.0521
 3165SOL     MW12660   5.202   2.401   0.876 -0.2565 -0.2777 -0.1493
 3166SOL     OW12661   2.060   1.796   3.127  0.8595 -0.1382 -0.3580
 3166SOL    HW112662   2.133   1.855   3.108 -1.2552  2.3857 -1.2849
 3166SOL    HW212663   2.039   1.756   3.042 -0.0176  0.6414 -0.5202
 3166SOL     MW12664   2.067   1.799   3.114  0.4765  0.2847 -0.4974
 3167SOL     OW12665   3.778   5.400   0.692  0.1202  0.2871 -0.4241
 3167SOL    HW112666   3.800   5.416   0.600  0.8254  1.3246 -0.0844
 3167SOL    HW212667   3.761   5.486   0.729  2.0200  0.1423  0.9611
 3167SOL     MW12668   3.779   5.413   0.685  0.4536  0.4014 -0.2033
 3168SOL     OW12669   1.755   0.405   2.032 -0.1105 -0.4724  0.2450
 3168SOL    HW112670   1.827   0.442   1.981  0.9946 -0.4994  1.7054
 3168SOL    HW212671   1.676   0.428   1.984  0.8741 -0.4796 -1.4371
 3168SOL     MW12672   1.754   0.412   2.020  0.1570 -0.4768  0.2166
 3169SOL     OW12673   4.911   0.111   2.706  0.1002  0.1622  0.0856
 3169SOL    HW112674   4.823   0.074   2.698  0.0362  0.4021 -0.3743
 3169SOL    HW212675   4.924   0.125   2.799 -0.0699 -0.5517  0.2228
 3169SOL     MW12676   4.902   0.108   2.717  0.0702  0.1015  0.0443
 3170SOL     OW12677   3.303   0.599   5.309  0.0152 -0.5364 -0.0949
 3170SOL    HW112678   3.366   0.635   5.372 -1.6968  0.1425  1.3065
 3170SOL    HW212679   3.276   0.516   5.348 -0.0555 -0.7629 -0.6261
 3170SOL     MW12680   3.308   0.593   5.322 -0.2130 -0.4785  0.0165
 3171SOL     OW12681   3.827   4.378   4.180  0.0905  0.2797  0.3361
 3171SOL    HW112682   3.905   4.328   4.155  1.2468  1.8973  0.4933
 3171SOL    HW212683   3.780   4.392   4.098 -0.1277 -0.8398  0.2615
 3171SOL     MW12684   3.831   4.374   4.166  0.2106  0.3434  0.3467
 3172SOL     OW12685   0.388   2.087   5.107 -0.3825 -0.0265 -0.1943
 3172SOL    HW112686   0.481   2.065   5.114 -0.3715 -0.9177 -2.3661
 3172SOL    HW212687   0.384   2.180   5.130  1.3506  0.5083 -1.7755
 3172SOL     MW12688   0.400   2.096   5.111 -0.1593 -0.0721 -0.6747
 3173SOL     OW12689   2.593   4.350   1.279  0.3100  0.4451 -0.1012
 3173SOL    HW112690   2.601   4.316   1.190 -1.2202  0.1213 -0.1305
 3173SOL    HW212691   2.582   4.444   1.268 -2.6419  0.1338 -0.4694
 3173SOL     MW12692   2.593   4.358   1.266 -0.2637  0.3638 -0.1521
 3174SOL     OW12693   0.316   2.843   3.632  0.7504  0.3841  0.1219
 3174SOL    HW112694   0.316   2.774   3.566 -0.1170 -1.3797  1.8503
 3174SOL    HW212695   0.347   2.799   3.712 -0.8051  1.7073  1.5262
 3174SOL     MW12696   0.320   2.828   3.634  0.4402  0.3277  0.5230
 3175SOL     OW12697   3.822   1.003   3.694  0.3326 -0.0767 -0.8681
 3175SOL    HW112698   3.832   0.909   3.678 -0.2731 -0.2614 -0.1958
 3175SOL    HW212699   3.899   1.043   3.651  0.9396 -0.9299 -0.6016
 3175SOL     MW12700   3.833   0.996   3.686  0.3328 -0.2095 -0.7479
 3176SOL     OW12701   1.349   4.913   0.877 -0.9515  0.1677  0.1757
 3176SOL    HW112702   1.387   4.857   0.809  0.3687  1.1643  0.0412
 3176SOL    HW212703   1.420   4.973   0.901 -2.3236  1.8609  0.2389
 3176SOL     MW12704   1.363   4.914   0.871 -0.9581  0.5121  0.1666
 3177SOL     OW12705   0.037   4.756   0.479 -0.1288 -0.3935 -0.2041
 3177SOL    HW112706  -0.025   4.687   0.454  0.1733 -0.6665 -0.2133
 3177SOL    HW212707   0.047   4.746   0.574 -0.2131 -0.2515 -0.1797
 3177SOL     MW12708   0.030   4.746   0.488 -0.1010 -0.4103 -0.2022
 3178SOL     OW12709   4.320   1.610   1.698 -0.0575  0.3965  0.0351
 3178SOL    HW112710   4.296   1.671   1.767 -1.9938  0.3309 -0.5342
 3178SOL    HW212711   4.398   1.649   1.657  0.3178  1.0911  1.3787
 3178SOL     MW12712   4.327   1.623   1.701 -0.2573  0.4770  0.1342
 3179SOL     OW12713   1.117   3.965   2.040  0.0301 -0.3998 -0.9170
 3179SOL    HW112714   1.198   3.945   2.086  0.3834  0.0779 -1.3209
 3179SOL    HW212715   1.070   3.882   2.037  0.0532 -0.4738  0.1834
 3179SOL     MW12716   1.121   3.952   2.046  0.0782 -0.3481 -0.8278
 3180SOL     OW12717   3.249   3.488   2.116 -0.0681 -0.3238  0.1697
 3180SOL    HW112718   3.229   3.501   2.024 -1.2145  0.5647  0.5259
 3180SOL    HW212719   3.332   3.440   2.116  0.4437  0.5100 -1.3085
 3180SOL     MW12720   3.257   3.484   2.105 -0.1494 -0.1034  0.0260
 3181SOL     OW12721   1.171   2.165   5.169  0.2538  0.6512 -0.5269
 3181SOL    HW112722   1.251   2.214   5.148  1.0108 -0.6788 -0.8580
 3181SOL    HW212723   1.202   2.089   5.219 -0.8768  0.4271 -0.1355
 3181SOL     MW12724   1.186   2.162   5.173  0.2060  0.4522 -0.5192
 3182SOL     OW12725   3.230   0.314   2.106  0.4027  0.9635  0.0394
 3182SOL    HW112726   3.192   0.297   2.192  1.3977 -0.9441  0.1446
 3182SOL    HW212727   3.273   0.232   2.082  2.3384  2.2632 -1.1548
 3182SOL     MW12728   3.231   0.301   2.114  0.7779  0.8857 -0.1000
 3183SOL     OW12729   0.947   2.661   0.705  0.3212 -0.4122  0.2124
 3183SOL    HW112730   0.905   2.744   0.681 -2.1730 -2.1226 -1.8470
 3183SOL    HW212731   0.917   2.645   0.794  1.1409  0.9986  0.7875
 3183SOL     MW12732   0.938   2.670   0.713  0.1069 -0.4506  0.0224
 3184SOL     OW12733   5.303   0.238   3.835 -0.1641 -0.6882 -0.2013
 3184SOL    HW112734   5.363   0.168   3.862 -2.3925 -1.6545  2.7340
 3184SOL    HW212735   5.283   0.285   3.915 -0.4775  2.0169 -1.7499
 3184SOL     MW12736   5.308   0.235   3.848 -0.4895 -0.4656 -0.0238
 3185SOL     OW12737   2.255   5.301   1.363 -0.3986  0.0097  0.1316
 3185SOL    HW112738   2.331   5.278   1.310 -0.3059  1.7237 -0.5439
 3185SOL    HW212739   2.181   5.262   1.317 -0.0678 -0.5963  0.1036
 3185SOL     MW12740   2.255   5.293   1.351 -0.3443  0.1515  0.0416
 3186SOL     OW12741   3.661   5.308   2.176  0.1489 -0.5912  0.6725
 3186SOL    HW112742   3.751   5.297   2.146  0.0271 -0.6448  0.3173
 3186SOL    HW212743   3.611   5.245   2.124 -0.1079 -0.4865  0.7920
 3186SOL     MW12744   3.666   5.298   2.165  0.1004 -0.5847  0.6423
 3187SOL     OW12745   3.277   2.883   3.490  0.0716 -0.0669  0.2781
 3187SOL    HW112746   3.254   2.816   3.425 -1.8680  0.8561 -0.0804
 3187SOL    HW212747   3.325   2.836   3.557 -2.9394 -2.3514  1.0716
 3187SOL     MW12748   3.280   2.868   3.490 -0.5621 -0.2412  0.3338
 3188SOL     OW12749   3.388   2.965   2.441 -0.1853 -0.1103 -0.1565
 3188SOL    HW112750   3.437   2.908   2.382 -0.7124  0.0104 -0.7178
 3188SOL    HW212751   3.334   2.906   2.493 -1.0122 -0.1064 -0.9983
 3188SOL     MW12752   3.387   2.950   2.440 -0.3586 -0.0944 -0.3361
 3189SOL     OW12753   5.284   0.119   3.393  0.4438  0.6368 -0.2020
 3189SOL    HW112754   5.333   0.201   3.393 -0.1961  1.0627  1.2280
 3189SOL    HW212755   5.201   0.141   3.437  0.6732 -0.9805  1.1723
 3189SOL     MW12756   5.279   0.132   3.399  0.3912  0.4843  0.1569
 3190SOL     OW12757   2.756   5.069   2.952 -0.0340  0.2525  0.2444
 3190SOL    HW112758   2.779   5.156   2.986 -0.9916 -0.0709  1.8064
 3190SOL    HW212759   2.687   5.038   3.010 -0.2159 -1.2682 -0.7347
 3190SOL     MW12760   2.750   5.076   2.964 -0.1798  0.0164  0.3190
 3191SOL     OW12761   4.707   4.117   3.325  0.3685  0.1982 -0.4704
 3191SOL    HW112762   4.691   4.085   3.414 -1.4953  1.1647 -0.4186
 3191SOL    HW212763   4.620   4.124   3.286  1.0352  1.3292 -1.8397
 3191SOL     MW12764   4.694   4.114   3.331  0.2153  0.4667 -0.6391
 3192SOL     OW12765   1.454   0.960   3.350  0.2138  0.1153 -0.0068
 3192SOL    HW112766   1.394   0.896   3.388  0.5869  0.8775  2.0030
 3192SOL    HW212767   1.406   0.996   3.275 -1.2177 -0.3876  0.6229
 3192SOL     MW12768   1.440   0.956   3.345  0.0783  0.1485  0.3311
 3193SOL     OW12769   4.311   4.301   2.332  0.2074 -0.0274 -0.8804
 3193SOL    HW112770   4.279   4.319   2.243  1.3255 -1.2282 -1.5455
 3193SOL    HW212771   4.346   4.212   2.328 -0.0036 -0.2207  0.8571
 3193SOL     MW12772   4.311   4.292   2.320  0.3235 -0.2059 -0.7431
 3194SOL     OW12773   3.240   3.320   0.924 -0.5272 -0.0590 -0.6640
 3194SOL    HW112774   3.241   3.226   0.939  0.9998 -0.7576 -4.1432
 3194SOL    HW212775   3.153   3.348   0.952 -1.5470 -2.7628 -0.8738
 3194SOL     MW12776   3.229   3.312   0.929 -0.4622 -0.4945 -1.1362
 3195SOL     OW12777   1.202   2.913   2.296 -0.3149  0.3862 -0.1654
 3195SOL    HW112778   1.273   2.941   2.354 -0.8529 -0.0499  0.7232
 3195SOL    HW212779   1.211   2.817   2.292  1.5085  0.5325 -3.1577
 3195SOL     MW12780   1.212   2.904   2.303 -0.1504  0.3491 -0.4347
 3196SOL     OW12781   3.349   4.728   1.758  0.2312  0.0633  0.3985
 3196SOL    HW112782   3.282   4.726   1.690 -0.5071  2.5342  0.9742
 3196SOL    HW212783   3.430   4.748   1.712 -0.2388  1.5610  0.1745
 3196SOL     MW12784   3.351   4.730   1.744  0.0765  0.5713  0.4435
 3197SOL     OW12785   2.057   3.014   2.563  0.3634 -0.2724  0.6028
 3197SOL    HW112786   2.035   3.026   2.470  1.2567  0.6547  0.5023
 3197SOL    HW212787   1.973   3.019   2.608 -0.0257 -0.2593 -0.1122
 3197SOL     MW12788   2.043   3.016   2.557  0.4280 -0.1520  0.4984
 3198SOL     OW12789   4.698   4.876   0.137  0.5728  0.6581  0.8478
 3198SOL    HW112790   4.750   4.796   0.139  0.4328  0.5777  1.2894
 3198SOL    HW212791   4.715   4.913   0.050 -0.3230 -0.4799  0.1521
 3198SOL     MW12792   4.707   4.871   0.126  0.4402  0.5021  0.8153
 3199SOL     OW12793   4.240   0.626   1.040  0.0406 -0.0200 -0.4270
 3199SOL    HW112794   4.192   0.558   0.992  0.0332 -0.2612 -0.0864
 3199SOL    HW212795   4.311   0.652   0.982 -1.4123  1.4846 -1.6189
 3199SOL     MW12796   4.243   0.620   1.027 -0.1463  0.1417 -0.5359
 3200SOL     OW12797   0.669   3.104   3.946  0.7033  0.1641  0.3343
 3200SOL    HW112798   0.574   3.097   3.940  0.6217  1.3007  0.1252
 3200SOL    HW212799   0.684   3.150   4.028  0.9616  1.6483 -0.4980
 3200SOL     MW12800   0.659   3.109   3.955  0.7259  0.4996  0.2010
 3201SOL     OW12801   0.545   1.294   2.055  0.1000  0.2371  0.7561
 3201SOL    HW112802   0.599   1.373   2.065  1.9740 -0.6504 -1.4980
 3201SOL    HW212803   0.536   1.283   1.961 -0.2129 -2.1615  1.0085
 3201SOL     MW12804   0.551   1.303   2.045  0.2998 -0.1836  0.4998
 3202SOL     OW12805   4.946   2.083   5.370  0.3472  0.1612 -0.0118
 3202SOL    HW112806   4.871   2.142   5.364  0.9719  0.9834  0.0922
 3202SOL    HW212807   4.953   2.061   5.463  1.0698  1.2064  0.1933
 3202SOL     MW12808   4.938   2.088   5.381  0.5197  0.4002  0.0278
 3203SOL     OW12809   1.986   0.362   2.953  0.7051 -0.0925 -0.2146
 3203SOL    HW112810   1.981   0.349   3.048  0.1241 -0.0349 -0.2334
 3203SOL    HW212811   1.907   0.412   2.932  0.5121 -0.6542 -0.8243
 3203SOL     MW12812   1.975   0.367   2.963  0.6060 -0.1570 -0.2951
 3204SOL     OW12813   1.664   0.901   5.108 -0.0320 -0.1733 -0.1706
 3204SOL    HW112814   1.608   0.884   5.184  0.2773 -1.1258 -0.1349
 3204SOL    HW212815   1.635   0.986   5.075 -1.4691 -0.6153 -0.1263
 3204SOL     MW12816   1.653   0.910   5.114 -0.1764 -0.3518 -0.1604
 3205SOL     OW12817   0.600   2.939   1.769  0.3006 -0.2545 -0.0900
 3205SOL    HW112818   0.639   2.869   1.716  0.5269  1.0286 -1.7169
 3205SOL    HW212819   0.530   2.974   1.713 -0.4952  0.1407  1.1257
 3205SOL     MW12820   0.596   2.934   1.755  0.2277 -0.0397 -0.1426
 3206SOL     OW12821   3.315   4.665   3.584 -0.0749  0.6540 -0.1806
 3206SOL    HW112822   3.349   4.660   3.674  0.7418 -0.3263 -0.5261
 3206SOL    HW212823   3.256   4.590   3.577 -0.5429  1.0271 -0.3155
 3206SOL     MW12824   3.312   4.655   3.595 -0.0303  0.5763 -0.2421
 3207SOL     OW12825   0.587   2.020   2.357  0.1697 -0.2645 -0.5614
 3207SOL    HW112826   0.626   1.962   2.292  0.5861  1.0051 -1.4883
 3207SOL    HW212827   0.659   2.072   2.390  0.2234 -1.7802  1.9928
 3207SOL     MW12828   0.601   2.019   2.353  0.2299 -0.2960 -0.3531
 3208SOL     OW12829   4.471   2.828   4.020  0.7366 -0.5149 -0.7076
 3208SOL    HW112830   4.529   2.757   4.047 -0.4026 -1.1189  0.2856
 3208SOL    HW212831   4.416   2.844   4.097  0.5934  1.0744 -1.1048
 3208SOL     MW12832   4.471   2.821   4.033  0.5725 -0.3888 -0.6313
 3209SOL     OW12833   2.000   2.934   3.223 -0.4805 -0.0767 -0.4960
 3209SOL    HW112834   1.965   2.864   3.168 -0.1353  0.5756 -1.5675
 3209SOL    HW212835   1.947   3.010   3.202 -0.4803  0.1341  0.2382
 3209SOL     MW12836   1.989   2.935   3.214 -0.4363  0.0338 -0.5391
 3210SOL     OW12837   2.158   3.684   2.699 -0.0140 -0.2583  0.1003
 3210SOL    HW112838   2.134   3.593   2.687 -1.6241  0.0434  0.8302
 3210SOL    HW212839   2.167   3.718   2.610  0.8565 -1.1661 -0.1795
 3210SOL     MW12840   2.156   3.677   2.686 -0.1087 -0.3359  0.1579
 3211SOL     OW12841   2.952   4.337   1.844  0.0515  0.2969 -0.1047
 3211SOL    HW112842   2.994   4.385   1.914 -0.2014 -0.5514  0.6452
 3211SOL    HW212843   2.933   4.403   1.777 -1.5805  1.5135  1.4753
 3211SOL     MW12844   2.955   4.352   1.844 -0.1898  0.3440  0.1935
 3212SOL     OW12845   1.772   3.159   2.159 -0.0141 -0.2495  0.2955
 3212SOL    HW112846   1.680   3.184   2.167 -0.0669 -0.5149  0.5321
 3212SOL    HW212847   1.813   3.231   2.111 -0.2585  0.0753  0.5747
 3212SOL     MW12848   1.766   3.171   2.154 -0.0521 -0.2419  0.3615
 3213SOL     OW12849   3.813   3.405   3.033 -0.1953  0.1907  0.2658
 3213SOL    HW112850   3.826   3.414   3.127  0.0120  3.2761  0.0554
 3213SOL    HW212851   3.734   3.352   3.024 -0.1140 -0.3095  2.1429
 3213SOL     MW12852   3.805   3.399   3.044 -0.1584  0.5217  0.4791
 3214SOL     OW12853   2.766   2.727   3.892 -0.1883 -0.2844  0.0002
 3214SOL    HW112854   2.809   2.783   3.956  0.1300  0.6258 -0.9763
 3214SOL    HW212855   2.709   2.670   3.944  2.0359 -1.4199  1.3185
 3214SOL     MW12856   2.764   2.727   3.907  0.1372 -0.3133  0.0440
 3215SOL     OW12857   5.444   4.311   4.799  0.3958 -0.2222 -0.5900
 3215SOL    HW112858   5.457   4.359   4.717 -0.6181 -0.3088 -0.8125
 3215SOL    HW212859   5.350   4.313   4.813  0.5872  0.1779  0.8152
 3215SOL     MW12860   5.434   4.318   4.791  0.2905 -0.1821 -0.4386
 3216SOL     OW12861   0.142   4.343   1.342 -0.0883  0.0369  0.0061
 3216SOL    HW112862   0.229   4.367   1.376  1.5746 -1.5030 -2.7954
 3216SOL    HW212863   0.129   4.254   1.373 -1.2771  0.6313  1.3461
 3216SOL     MW12864   0.152   4.335   1.350 -0.0276 -0.0842 -0.1810
 3217SOL     OW12865   1.119   2.425   0.973  0.1742 -0.2185 -0.2090
 3217SOL    HW112866   1.031   2.459   0.956  0.6724  0.1073 -2.5026
 3217SOL    HW212867   1.176   2.502   0.967  0.7670 -0.6337 -0.0763
 3217SOL     MW12868   1.115   2.439   0.970  0.3138 -0.2299 -0.4856
 3218SOL     OW12869   3.769   3.519   4.498 -0.1950 -0.3376  0.1523
 3218SOL    HW112870   3.850   3.495   4.453 -0.5328  0.3421 -0.8765
 3218SOL    HW212871   3.765   3.461   4.574  1.6782  0.1725  0.7115
 3218SOL     MW12872   3.779   3.509   4.502  0.0016 -0.1853  0.0922
 3219SOL     OW12873   0.580   2.583   1.926 -0.3402 -0.2848  0.2269
 3219SOL    HW112874   0.567   2.663   1.977 -0.6851  0.2482 -0.6634
 3219SOL    HW212875   0.670   2.590   1.894  0.7108 -1.7435  2.6124
 3219SOL     MW12876   0.590   2.594   1.928 -0.2498 -0.4033  0.4183
 3220SOL     OW12877   2.849   4.244   1.325  0.2501  0.0916 -0.0221
 3220SOL    HW112878   2.847   4.179   1.394  0.8796  0.1447  0.0491
 3220SOL    HW212879   2.756   4.264   1.308  0.0503 -0.8185 -0.0566
 3220SOL     MW12880   2.837   4.239   1.331  0.3051 -0.0181 -0.0174
 3221SOL     OW12881   4.474   2.578   0.944  0.2938 -0.3672 -0.0150
 3221SOL    HW112882   4.401   2.566   1.005 -0.2981 -1.4720 -0.8894
 3221SOL    HW212883   4.431   2.592   0.859  1.0990 -0.5153 -0.4557
 3221SOL     MW12884   4.459   2.578   0.941  0.3211 -0.5276 -0.1833
 3222SOL     OW12885   5.273   1.044   0.254  0.0710 -0.2340  0.3058
 3222SOL    HW112886   5.286   1.109   0.324  0.9588  1.0238 -0.9811
 3222SOL    HW212887   5.276   1.095   0.173 -0.8008 -1.6782 -0.6814
 3222SOL     MW12888   5.275   1.059   0.253  0.0731 -0.2579  0.0147
 3223SOL     OW12889   1.078   0.486   0.503  0.1086 -0.4918 -0.3487
 3223SOL    HW112890   1.149   0.428   0.530  0.1308 -0.2476  0.1453
 3223SOL    HW212891   1.042   0.519   0.586  0.7999  1.0385 -0.6146
 3223SOL     MW12892   1.082   0.483   0.517  0.2000 -0.2646 -0.3195
 3224SOL     OW12893   2.355   5.341   4.898  0.5745  0.7101  0.8142
 3224SOL    HW112894   2.381   5.430   4.874  1.1281  0.6375  1.1069
 3224SOL    HW212895   2.366   5.339   4.993  2.6481 -0.3014  0.6033
 3224SOL     MW12896   2.360   5.352   4.907  0.9108  0.5713  0.8246
 3225SOL     OW12897   1.970   3.883   3.370  0.2161  0.4013  0.6055
 3225SOL    HW112898   1.973   3.949   3.302  0.1686 -0.9560 -0.7743
 3225SOL    HW212899   1.892   3.904   3.421 -0.6860  0.5130 -0.7780
 3225SOL     MW12900   1.960   3.894   3.368  0.0946  0.2418  0.2517
 3226SOL     OW12901   1.565   3.727   5.259 -1.4042  0.4946 -0.0532
 3226SOL    HW112902   1.638   3.750   5.203 -0.9273  1.0632  0.7882
 3226SOL    HW212903   1.495   3.787   5.234 -1.4602  0.2131 -0.5825
 3226SOL     MW12904   1.565   3.737   5.249 -1.3504  0.5313 -0.0132
 3227SOL     OW12905   3.518   5.056   1.663 -0.6254 -0.2026  0.2426
 3227SOL    HW112906   3.510   5.080   1.755  0.0927 -1.6050  0.6933
 3227SOL    HW212907   3.596   5.102   1.633 -0.0600 -0.8343  0.7214
 3227SOL     MW12908   3.527   5.065   1.671 -0.4611 -0.4630  0.3616
 3228SOL     OW12909   5.421   4.052   3.583 -0.1689  0.5040 -0.2664
 3228SOL    HW112910   5.367   3.980   3.550  0.1698 -0.5190  1.2615
 3228SOL    HW212911   5.475   4.078   3.508 -0.7463 -0.4209 -1.0298
 3228SOL     MW12912   5.421   4.046   3.569 -0.1994  0.2546 -0.1686
 3229SOL     OW12913   2.948   4.590   0.816 -0.2739 -0.1465  0.0869
 3229SOL    HW112914   2.968   4.564   0.906  1.3942  0.0640 -0.1861
 3229SOL    HW212915   3.024   4.562   0.766 -0.6465  0.8159 -1.0573
 3229SOL     MW12916   2.960   4.584   0.821 -0.1081  0.0036 -0.0945
 3230SOL     OW12917   4.315   1.302   3.314 -0.4627  0.2673 -0.2011
 3230SOL    HW112918   4.277   1.324   3.399  0.9174 -0.2470  0.5783
 3230SOL    HW212919   4.258   1.233   3.280  0.2219 -1.1147  1.3298
 3230SOL     MW12920   4.303   1.296   3.321 -0.1984  0.0245  0.0946
 3231SOL     OW12921   0.909   4.965   4.807 -0.0128  0.1924 -0.5954
 3231SOL    HW112922   0.930   4.876   4.781 -0.6203 -0.3131  0.5559
 3231SOL    HW212923   0.828   4.986   4.759 -1.1129 -0.7203  0.7910
 3231SOL     MW12924   0.901   4.957   4.797 -0.2314  0.0108 -0.2706
 3232SOL     OW12925   4.724   3.537   2.351 -0.4094  0.9834  0.6648
 3232SOL    HW112926   4.656   3.473   2.375 -0.2212  0.6825  0.4091
 3232SOL    HW212927   4.695   3.571   2.267 -0.1086  0.6586  0.4278
 3232SOL     MW12928   4.711   3.533   2.344 -0.3468  0.9033  0.6017
 3233SOL     OW12929   4.656   2.399   0.031 -0.2441  0.2566  0.1061
 3233SOL    HW112930   4.729   2.441   0.077  1.3231 -0.5489 -1.4881
 3233SOL    HW212931   4.613   2.346   0.098  0.7859  0.5742  1.0629
 3233SOL     MW12932   4.660   2.398   0.045  0.0884  0.1941  0.0245
 3234SOL     OW12933   0.854   3.343   3.100 -0.0597  0.7362  0.4516
 3234SOL    HW112934   0.796   3.320   3.027  1.3537  2.0255 -1.1353
 3234SOL    HW212935   0.908   3.265   3.113 -1.6723 -0.2608  1.5587
 3234SOL     MW12936   0.853   3.330   3.092 -0.0852  0.7736  0.3902
 3235SOL     OW12937   3.705   3.004   0.745 -0.4510  0.3553 -0.7041
 3235SOL    HW112938   3.717   2.942   0.674 -0.4684  0.1263 -0.5107
 3235SOL    HW212939   3.792   3.011   0.786 -0.0432  1.7337 -1.7452
 3235SOL     MW12940   3.718   2.997   0.741 -0.4010  0.5024 -0.8126
 3236SOL     OW12941   3.468   0.727   4.769  0.2439 -0.4649 -0.3694
 3236SOL    HW112942   3.518   0.807   4.785 -0.8371 -0.2130  2.1837
 3236SOL    HW212943   3.521   0.657   4.808  0.3662 -0.7765 -1.0659
 3236SOL     MW12944   3.482   0.728   4.776  0.1212 -0.4725 -0.1317
 3237SOL     OW12945   2.851   4.821   1.630 -0.0808  0.0531  0.0122
 3237SOL    HW112946   2.766   4.845   1.667 -0.7508 -0.8474 -0.8873
 3237SOL    HW212947   2.842   4.839   1.536  0.3528 -1.0228 -0.2520
 3237SOL     MW12948   2.839   4.827   1.623 -0.1111 -0.1999 -0.1368
 3238SOL     OW12949   0.417   4.057   0.400  0.2322 -0.0901 -0.3910
 3238SOL    HW112950   0.335   4.078   0.355  0.5255  0.5832 -0.6211
 3238SOL    HW212951   0.390   4.003   0.474 -0.6008  1.3635  0.4026
 3238SOL     MW12952   0.403   4.053   0.404  0.1631  0.1822 -0.3189
 3239SOL     OW12953   1.635   1.167   4.929 -0.2231  0.0823 -0.1420
 3239SOL    HW112954   1.576   1.178   5.004 -0.6772 -0.4853 -0.4139
 3239SOL    HW212955   1.723   1.174   4.968 -0.4355 -0.9349  0.5858
 3239SOL     MW12956   1.639   1.169   4.944 -0.3084 -0.1206 -0.0836
 3240SOL     OW12957   0.716   0.630   0.774  0.0156 -0.0008 -0.1572
 3240SOL    HW112958   0.726   0.569   0.848  1.4471 -0.1598 -0.4548
 3240SOL    HW212959   0.725   0.717   0.814 -3.7469  0.2623  0.5764
 3240SOL     MW12960   0.718   0.633   0.789 -0.2828  0.0125 -0.1014
 3241SOL     OW12961   2.260   0.369   4.949 -0.2312  0.3522  0.1051
 3241SOL    HW112962   2.247   0.292   5.004  1.6360 -0.3662 -0.3889
 3241SOL    HW212963   2.217   0.346   4.866  2.5914 -1.4112 -1.0278
 3241SOL     MW12964   2.253   0.356   4.945  0.3692  0.0345 -0.1032
 3242SOL     OW12965   0.638   5.435   2.837 -0.0133  0.2255 -0.2842
 3242SOL    HW112966   0.699   5.506   2.858  1.4575 -0.6889 -1.3408
 3242SOL    HW212967   0.693   5.365   2.803 -1.3251 -1.7435  1.3911
 3242SOL     MW12968   0.653   5.435   2.836  0.0071 -0.1436 -0.2050
 3243SOL     OW12969   5.091   0.598   4.019 -0.2924 -0.2747 -0.4171
 3243SOL    HW112970   5.008   0.613   3.974 -1.5432  2.1320  2.3495
 3243SOL    HW212971   5.134   0.683   4.019  2.2008 -1.4433 -1.6315
 3243SOL     MW12972   5.086   0.611   4.014 -0.1333 -0.1162 -0.2184
 3244SOL     OW12973   0.862   4.023   1.597  0.4836 -0.3634 -0.1237
 3244SOL    HW112974   0.953   4.004   1.618  0.8905  0.0391 -1.3947
 3244SOL    HW212975   0.858   4.118   1.593 -0.5875 -0.2530  2.2797
 3244SOL     MW12976   0.873   4.033   1.599  0.3986 -0.2977  0.0212
 3245SOL     OW12977   0.987   1.833   2.226  0.2001  0.5083  0.5471
 3245SOL    HW112978   1.008   1.916   2.268  0.6243  0.1766  0.9949
 3245SOL    HW212979   1.062   1.817   2.168  0.1429  0.4128  0.5001
 3245SOL     MW12980   0.999   1.842   2.224  0.2471  0.4536  0.5984
 3246SOL     OW12981   0.410   2.636   3.424 -0.6946 -0.3821 -0.3913
 3246SOL    HW112982   0.387   2.648   3.332  0.3900  1.2829 -0.4763
 3246SOL    HW212983   0.364   2.556   3.450 -2.6274  0.2002 -1.8247
 3246SOL     MW12984   0.401   2.627   3.416 -0.8032 -0.0944 -0.5857
 3247SOL     OW12985   4.916   0.370   3.400  0.1524 -0.0674 -0.3532
 3247SOL    HW112986   4.837   0.353   3.450  0.8759 -2.3953  0.1088
 3247SOL    HW212987   4.940   0.460   3.423 -0.8634 -0.2499  1.6012
 3247SOL     MW12988   4.909   0.379   3.409  0.1150 -0.3888 -0.0439
 3248SOL     OW12989   3.027   5.006   0.511  0.5097  0.0308 -0.3989
 3248SOL    HW112990   3.107   5.045   0.477  0.3826  0.9251  0.2948
 3248SOL    HW212991   3.053   4.919   0.540  0.8323 -0.3840 -1.8369
 3248SOL     MW12992   3.040   5.000   0.511  0.5347  0.0922 -0.4942
 3249SOL     OW12993   2.220   0.720   3.053 -0.0383 -0.2294  0.2305
 3249SOL    HW112994   2.295   0.778   3.043  0.2732 -0.7931 -0.9308
 3249SOL    HW212995   2.163   0.742   2.979 -0.2184 -0.9509  0.1469
 3249SOL     MW12996   2.222   0.730   3.042 -0.0214 -0.3939  0.0711
 3250SOL     OW12997   4.495   3.230   3.557  0.2251  0.0618  0.3366
 3250SOL    HW112998   4.441   3.165   3.601 -0.0835 -1.2244 -1.7596
 3250SOL    HW212999   4.571   3.241   3.614 -0.3022 -1.2449  1.3378
 3250SOL     MW13000   4.498   3.223   3.570  0.1181 -0.2702  0.1964
 3251SOL     OW13001   4.119   0.896   4.040 -0.0478 -0.2203  0.5774
 3251SOL    HW113002   4.038   0.918   3.994  0.0126 -1.1777 -0.0283
 3251SOL    HW213003   4.188   0.913   3.976  0.1081 -0.7639  0.5952
 3251SOL     MW13004   4.118   0.901   4.026 -0.0201 -0.4124  0.5021
 3252SOL     OW13005   4.705   3.117   2.273 -0.1025  0.2543  0.1249
 3252SOL    HW113006   4.642   3.188   2.260 -0.3537 -0.2600 -1.7364
 3252SOL    HW213007   4.790   3.157   2.256 -0.2577  0.1097 -1.1080
 3252SOL     MW13008   4.708   3.131   2.269 -0.1546  0.1699 -0.2712
 3253SOL     OW13009   1.744   3.120   4.159 -0.2709 -0.0168 -0.4438
 3253SOL    HW113010   1.791   3.039   4.140 -1.1803 -0.7061  0.1895
 3253SOL    HW213011   1.774   3.145   4.246  1.8682  1.6987 -1.5744
 3253SOL     MW13012   1.754   3.113   4.168 -0.1135  0.1146 -0.5075
 3254SOL     OW13013   5.438   0.201   4.345  0.0070  0.6466  0.3051
 3254SOL    HW113014   5.461   0.137   4.278 -0.7703  0.5200  0.1500
 3254SOL    HW213015   5.466   0.285   4.309 -0.1525  0.5453 -0.0606
 3254SOL     MW13016   5.445   0.204   4.332 -0.1129  0.6174  0.2384
 3255SOL     OW13017   5.140   2.233   1.321  0.3429  0.0444 -0.1118
 3255SOL    HW113018   5.138   2.321   1.282  0.1511  0.2182  0.2772
 3255SOL    HW213019   5.145   2.250   1.415 -1.4482 -0.3440  0.0827
 3255SOL     MW13020   5.140   2.247   1.328  0.0891  0.0170 -0.0371
 3256SOL     OW13021   0.728   5.230   3.263  0.1329 -0.8731  0.3286
 3256SOL    HW113022   0.796   5.295   3.246 -0.5974 -0.3783 -0.7962
 3256SOL    HW213023   0.701   5.247   3.354  0.8696 -0.4859  0.4843
 3256SOL     MW13024   0.733   5.240   3.273  0.1337 -0.7602  0.2045
 3257SOL     OW13025   3.387   2.387   1.978  0.0730 -0.2394 -0.4556
 3257SOL    HW113026   3.466   2.333   1.987 -0.1238 -0.2425  1.5744
 3257SOL    HW213027   3.319   2.339   2.025 -0.8445  0.3915 -1.0903
 3257SOL     MW13028   3.388   2.374   1.985 -0.0697 -0.1591 -0.2770
 3258SOL     OW13029   2.794   2.447   2.914  0.3146 -0.1621 -0.3676
 3258SOL    HW113030   2.833   2.401   2.839 -0.9413 -1.3264 -0.3387
 3258SOL    HW213031   2.854   2.429   2.987  0.0730 -1.4293 -0.4556
 3258SOL     MW13032   2.807   2.439   2.914  0.1229 -0.4734 -0.3751
 3259SOL     OW13033   0.418   2.588   1.115 -0.1227  0.0824 -0.2300
 3259SOL    HW113034   0.458   2.503   1.095 -0.5777 -0.4672  1.0587
 3259SOL    HW213035   0.347   2.597   1.052  0.6840  0.0822 -1.1584
 3259SOL     MW13036   0.414   2.578   1.104 -0.0777  0.0120 -0.1839
 3260SOL     OW13037   1.762   4.720   1.338 -0.0504 -0.4146  0.1193
 3260SOL    HW113038   1.729   4.763   1.259  0.2648  0.7657  0.6153
 3260SOL    HW213039   1.686   4.714   1.396  0.4394  1.8545  1.0656
 3260SOL     MW13040   1.748   4.724   1.335  0.0527  0.0270  0.3039
 3261SOL     OW13041   1.263   0.806   4.495 -0.1923  0.2133 -0.2765
 3261SOL    HW113042   1.283   0.898   4.514 -0.5753  0.5673 -1.4697
 3261SOL    HW213043   1.296   0.758   4.571  0.2172  1.3111  0.2668
 3261SOL     MW13044   1.270   0.812   4.507 -0.1889  0.3991 -0.3597
 3262SOL     OW13045   1.487   4.704   3.976 -0.1666 -0.4566 -0.2691
 3262SOL    HW113046   1.581   4.710   3.958  0.4330 -0.6167  2.4358
 3262SOL    HW213047   1.479   4.635   4.042 -1.7179  1.7103  2.0082
 3262SOL     MW13048   1.498   4.696   3.982 -0.2884 -0.1997  0.3687
 3263SOL     OW13049   2.903   4.501   1.369 -0.0237 -0.3546  0.1506
 3263SOL    HW113050   2.884   4.407   1.361 -1.6318  0.0988 -2.5735
 3263SOL    HW213051   2.822   4.544   1.343  1.4397  1.7746 -1.1808
 3263SOL     MW13052   2.890   4.494   1.365 -0.0422 -0.0240 -0.3685
 3264SOL     OW13053   2.657   1.661   2.117 -0.0209  0.0014 -0.2172
 3264SOL    HW113054   2.632   1.732   2.176  0.2057 -0.3226  0.2741
 3264SOL    HW213055   2.631   1.581   2.163 -1.9391 -0.1983 -1.5462
 3264SOL     MW13056   2.650   1.660   2.130 -0.2374 -0.0656 -0.3244
 3265SOL     OW13057   1.791   2.435   4.518  0.7914 -0.4141 -0.4476
 3265SOL    HW113058   1.837   2.514   4.491 -0.6206  1.1187  1.3116
 3265SOL    HW213059   1.706   2.441   4.475  1.1278 -1.6830 -1.3331
 3265SOL     MW13060   1.786   2.446   4.509  0.6537 -0.3803 -0.3358
 3266SOL     OW13061   3.666   0.027   1.819 -0.2906 -0.1129  0.2306
 3266SOL    HW113062   3.576  -0.007   1.825  0.4963 -2.4030 -0.1578
 3266SOL    HW213063   3.657   0.104   1.763 -2.0590 -0.1070  0.4423
 3266SOL     MW13064   3.653   0.033   1.813 -0.4162 -0.4053  0.2080
 3267SOL     OW13065   5.383   1.578   1.172  0.2968  0.0580 -0.0396
 3267SOL    HW113066   5.295   1.611   1.191  0.7827  0.8521  0.8963
 3267SOL    HW213067   5.398   1.510   1.237  0.4480  0.0534 -0.0788
 3267SOL     MW13068   5.374   1.573   1.183  0.3783  0.1590  0.0752
 3268SOL     OW13069   5.470   3.511   0.258  0.0774 -0.6060 -0.1986
 3268SOL    HW113070   5.386   3.483   0.224 -0.0943 -0.7815  0.3567
 3268SOL    HW213071   5.534   3.481   0.193 -0.2920 -0.3868 -0.6668
 3268SOL     MW13072   5.468   3.503   0.245  0.0081 -0.6004 -0.1875
 3269SOL     OW13073   2.919   1.686   2.198 -0.5144  0.4993 -0.2242
 3269SOL    HW113074   2.835   1.658   2.162 -0.4080  0.1471 -0.2081
 3269SOL    HW213075   2.915   1.781   2.199 -0.6686  0.5015 -0.8058
 3269SOL     MW13076   2.908   1.694   2.193 -0.5205  0.4545 -0.2966
 3270SOL     OW13077   4.904   4.029   0.592  0.3720  0.9742  0.2178
 3270SOL    HW113078   4.940   3.968   0.528 -1.5398  1.1923 -1.1674
 3270SOL    HW213079   4.905   3.982   0.675 -0.7649 -0.8594 -0.7538
 3270SOL     MW13080   4.909   4.015   0.594 -0.0182  0.7674 -0.0839
 3271SOL     OW13081   2.951   0.127   5.387  0.0931  0.0035  0.1283
 3271SOL    HW113082   2.856   0.134   5.394 -0.3307 -3.5142  0.0390
 3271SOL    HW213083   2.965   0.057   5.323  2.7123 -0.0794  0.6698
 3271SOL     MW13084   2.940   0.119   5.380  0.3741 -0.4574  0.1862
 3272SOL     OW13085   2.055   3.844   2.901 -0.5246 -0.3052  0.3574
 3272SOL    HW113086   2.102   3.924   2.876  1.2002 -0.8939  1.4481
 3272SOL    HW213087   2.060   3.788   2.824 -0.6833  0.1984 -0.0200
 3272SOL     MW13088   2.062   3.847   2.888 -0.3241 -0.3161  0.4487
 3273SOL     OW13089   1.260   3.667   0.827  0.2605  0.3496  0.0224
 3273SOL    HW113090   1.269   3.681   0.732 -0.8372 -0.1630 -0.1780
 3273SOL    HW213091   1.205   3.588   0.834 -0.9573  1.2576  1.0666
 3273SOL     MW13092   1.254   3.658   0.815 -0.0359  0.4002  0.1304
 3274SOL     OW13093   2.154   5.440   4.190 -0.0767 -0.3493  0.5156
 3274SOL    HW113094   2.181   5.470   4.104  0.0574 -1.5442  0.1171
 3274SOL    HW213095   2.150   5.344   4.182 -1.7585 -0.3893  1.3221
 3274SOL     MW13096   2.157   5.431   4.178 -0.2748 -0.5074  0.5678
 3275SOL     OW13097   1.658   1.191   3.702  0.5382 -0.2222  0.4026
 3275SOL    HW113098   1.702   1.148   3.628 -0.7422  0.1842 -0.6316
 3275SOL    HW213099   1.575   1.144   3.712  0.8405 -0.5009  1.8421
 3275SOL     MW13100   1.653   1.179   3.694  0.4130 -0.2059  0.4544
 3276SOL     OW13101   2.165   2.877   0.126  0.5778  0.0307 -0.0792
 3276SOL    HW113102   2.159   2.803   0.186 -0.5652 -0.7869 -1.1518
 3276SOL    HW213103   2.077   2.913   0.122  1.3578  2.3865  1.4892
 3276SOL     MW13104   2.153   2.873   0.133  0.5313  0.2276 -0.0157
 3277SOL     OW13105   2.563   2.521   3.409 -0.1504  0.0025 -0.0471
 3277SOL    HW113106   2.629   2.487   3.349 -1.2894  0.5105 -1.6411
 3277SOL    HW213107   2.546   2.449   3.469  0.0739 -0.9850 -1.1428
 3277SOL     MW13108   2.570   2.508   3.409 -0.2675 -0.0589 -0.3914
 3278SOL     OW13109   4.778   1.953   2.474  0.2540  0.2166  0.0258
 3278SOL    HW113110   4.737   1.878   2.431 -0.2141  0.4210  0.1102
 3278SOL    HW213111   4.868   1.954   2.440  0.3497 -0.5437  0.2316
 3278SOL     MW13112   4.784   1.944   2.464  0.2063  0.1455  0.0629
 3279SOL     OW13113   1.876   0.085   3.421 -0.2572  0.1516  0.2434
 3279SOL    HW113114   1.787   0.071   3.452  0.1313  0.2971  1.4485
 3279SOL    HW213115   1.920   0.131   3.492  0.8594 -0.1567 -0.2249
 3279SOL     MW13116   1.871   0.089   3.434 -0.0645  0.1308  0.3377
 3280SOL     OW13117   2.349   5.448   3.144  0.1231 -0.2519  0.1508
 3280SOL    HW113118   2.377   5.493   3.065  1.7058  0.4865  1.0858
 3280SOL    HW213119   2.340   5.356   3.118  0.9842 -0.0758 -0.7983
 3280SOL     MW13120   2.351   5.442   3.131  0.4359 -0.1348  0.1490
 3281SOL     OW13121   2.030   2.399   2.858 -0.2989  0.1849 -0.0223
 3281SOL    HW113122   2.069   2.435   2.779 -2.2767  0.5723 -0.8660
 3281SOL    HW213123   1.936   2.412   2.847 -0.8856 -2.5382  0.9867
 3281SOL     MW13124   2.023   2.405   2.847 -0.6272 -0.1141 -0.0011
 3282SOL     OW13125   3.589   4.329   0.227 -0.3625 -0.2202 -0.0680
 3282SOL    HW113126   3.566   4.274   0.152 -2.5594  1.3811 -0.6594
 3282SOL    HW213127   3.640   4.400   0.189  0.8827 -0.8319  0.4144
 3282SOL     MW13128   3.593   4.331   0.212 -0.4843 -0.0935 -0.0820
 3283SOL     OW13129   3.578   5.192   2.393  0.1848 -0.0464  0.1340
 3283SOL    HW113130   3.623   5.194   2.478 -0.5655  0.0865  0.5360
 3283SOL    HW213131   3.629   5.250   2.337  1.2766 -0.9202  0.1820
 3283SOL     MW13132   3.590   5.199   2.397  0.2285 -0.1412  0.1916
 3284SOL     OW13133   1.677   3.478   3.615 -0.2144  0.2593  0.5574
 3284SOL    HW113134   1.732   3.402   3.596 -1.5583 -0.6300  0.0902
 3284SOL    HW213135   1.681   3.531   3.536 -0.8055 -0.3005  0.1449
 3284SOL     MW13136   1.685   3.475   3.603 -0.4621  0.0738  0.4448
 3285SOL     OW13137   4.251   5.444   0.263 -0.3407 -0.2824  0.7069
 3285SOL    HW113138   4.248   5.536   0.236 -1.4417 -0.8483 -1.3575
 3285SOL    HW213139   4.159   5.418   0.270 -0.0591 -1.4857  0.2254
 3285SOL     MW13140   4.239   5.452   0.260 -0.4456 -0.5089  0.3810
 3286SOL     OW13141   0.716   0.555   1.053 -0.8637  0.1751  0.2102
 3286SOL    HW113142   0.660   0.610   1.107 -0.7419  0.4256  0.0864
 3286SOL    HW213143   0.803   0.562   1.093 -0.0999  2.6184 -1.5497
 3286SOL     MW13144   0.720   0.563   1.065 -0.7503  0.5199 -0.0309
 3287SOL     OW13145   5.222   4.822   5.264 -0.0900 -0.2220  0.4334
 3287SOL    HW113146   5.189   4.743   5.221 -0.2994  0.6905 -1.1384
 3287SOL    HW213147   5.205   4.892   5.202  1.4706  0.8391  1.1513
 3287SOL     MW13148   5.216   4.821   5.250  0.0829  0.0306  0.3241
 3288SOL     OW13149   0.162   3.023   3.040 -0.7963 -0.5795  0.1726
 3288SOL    HW113150   0.141   2.952   2.979  0.4521 -0.2134 -0.7279
 3288SOL    HW213151   0.173   2.980   3.124 -2.6240 -1.0869  0.1931
 3288SOL     MW13152   0.160   3.009   3.043 -0.8705 -0.5976  0.0599
 3289SOL     OW13153   1.731   2.286   1.377  0.1738 -0.4085 -0.5278
 3289SOL    HW113154   1.699   2.322   1.460 -2.0851  0.3202 -1.6194
 3289SOL    HW213155   1.654   2.246   1.337  1.3356 -1.2435 -2.0433
 3289SOL     MW13156   1.717   2.286   1.383  0.0334 -0.4221 -0.8616
 3290SOL     OW13157   0.306   5.322   0.343 -0.2359  0.1707  0.1418
 3290SOL    HW113158   0.247   5.357   0.409 -0.3641  0.3367 -0.0631
 3290SOL    HW213159   0.313   5.229   0.365  0.6952  0.4503  1.1470
 3290SOL     MW13160   0.300   5.314   0.354 -0.1331  0.2277  0.2442
 3291SOL     OW13161   3.365   0.463   1.173  0.0740  0.4159  0.6635
 3291SOL    HW113162   3.315   0.383   1.191  0.4885 -0.0238 -0.1042
 3291SOL    HW213163   3.298   0.528   1.154 -0.2250 -0.4497 -1.5065
 3291SOL     MW13164   3.350   0.461   1.173  0.0888  0.2488  0.2875
 3292SOL     OW13165   2.114   1.887   3.833  0.0370 -0.3885 -0.4027
 3292SOL    HW113166   2.045   1.831   3.798 -0.7836  1.2525 -1.5131
 3292SOL    HW213167   2.180   1.826   3.866 -1.4102 -1.9910 -0.3627
 3292SOL     MW13168   2.113   1.872   3.833 -0.2533 -0.3835 -0.5397
 3293SOL     OW13169   1.997   5.089   2.183 -0.0325  0.2856 -0.4632
 3293SOL    HW113170   1.987   5.177   2.148 -2.5195  0.7267  1.1352
 3293SOL    HW213171   2.088   5.066   2.164  0.7210  3.2114 -0.8762
 3293SOL     MW13172   2.007   5.098   2.176 -0.2544  0.7166 -0.3115
 3294SOL     OW13173   0.599   0.296   4.967  0.0731 -0.2618 -0.5603
 3294SOL    HW113174   0.627   0.213   5.006 -0.2977 -0.5009 -0.7984
 3294SOL    HW213175   0.560   0.344   5.041  0.4279 -0.2318 -0.3891
 3294SOL     MW13176   0.598   0.291   4.982  0.0710 -0.2885 -0.5689
 3295SOL     OW13177   3.263   2.186   3.708 -0.6479  0.1972  0.1278
 3295SOL    HW113178   3.295   2.267   3.747  0.5573 -0.3896  0.3990
 3295SOL    HW213179   3.191   2.214   3.651 -0.9191  1.3274  0.9875
 3295SOL     MW13180   3.258   2.200   3.706 -0.5283  0.2667  0.2726
 3296SOL     OW13181   1.590   0.032   5.000  0.3125 -0.3988 -0.0573
 3296SOL    HW113182   1.573   0.070   4.914 -0.3739  0.9749  0.6501
 3296SOL    HW213183   1.507  -0.007   5.026  0.8617 -1.9633 -0.5331
 3296SOL     MW13184   1.577   0.032   4.993  0.2949 -0.4232 -0.0276
 3297SOL     OW13185   4.204   3.548   1.536  0.1451 -0.4106 -0.5552
 3297SOL    HW113186   4.223   3.642   1.536 -0.5338 -0.2738 -0.3810
 3297SOL    HW213187   4.162   3.532   1.452  1.6815 -0.8606 -1.2801
 3297SOL     MW13188   4.201   3.558   1.525  0.2549 -0.4507 -0.6257
 3298SOL     OW13189   2.663   3.339   1.770 -0.0171  0.0426  0.8281
 3298SOL    HW113190   2.620   3.418   1.800 -0.3754  0.0343  0.3480
 3298SOL    HW213191   2.684   3.291   1.850  0.4160  0.7277  1.1291
 3298SOL     MW13192   2.660   3.343   1.784 -0.0075  0.1293  0.8052
 3299SOL     OW13193   2.962   0.485   0.876 -0.3587  0.0695  0.4336
 3299SOL    HW113194   2.930   0.412   0.823 -2.5750  0.2128  1.4612
 3299SOL    HW213195   2.975   0.448   0.963  0.0034  0.5569  0.5930
 3299SOL     MW13196   2.959   0.471   0.881 -0.5961  0.1503  0.5855
 3300SOL     OW13197   1.630   0.223   1.601 -0.0171  0.2584  0.1802
 3300SOL    HW113198   1.630   0.132   1.572 -0.3087 -0.0126  1.0020
 3300SOL    HW213199   1.698   0.264   1.549 -0.1804 -0.3259 -0.5140
 3300SOL     MW13200   1.639   0.216   1.591 -0.0754  0.1489  0.1965
 3301SOL     OW13201   2.926   4.604   4.409 -0.2820  0.1450  0.2950
 3301SOL    HW113202   2.887   4.661   4.475  0.6719  0.4727  0.5817
 3301SOL    HW213203   2.888   4.634   4.326 -0.7521  0.3552  0.5845
 3301SOL     MW13204   2.916   4.615   4.407 -0.2201  0.2138  0.3687
 3302SOL     OW13205   1.061   2.071   3.246  0.0150 -0.3703  0.3485
 3302SOL    HW113206   1.025   1.985   3.224  0.0037 -0.3600  0.3275
 3302SOL    HW213207   0.988   2.118   3.287 -0.2100 -0.0827 -0.3717
 3302SOL     MW13208   1.047   2.066   3.249 -0.0152 -0.3322  0.2536
 3303SOL     OW13209   2.454   4.123   2.875 -0.2634 -0.5138  0.0451
 3303SOL    HW113210   2.480   4.176   2.950 -1.5641 -0.8933  0.7804
 3303SOL    HW213211   2.525   4.059   2.865 -0.4480 -0.9785  1.4670
 3303SOL     MW13212   2.466   4.121   2.883 -0.4536 -0.6219  0.3212
 3304SOL     OW13213   2.049   5.225   3.658 -0.1461  0.0538 -0.7741
 3304SOL    HW113214   2.036   5.308   3.705  0.0122  0.7769 -1.9548
 3304SOL    HW213215   1.963   5.205   3.622  0.3003  0.9460 -2.4181
 3304SOL     MW13216   2.036   5.233   3.660 -0.0686  0.2606 -1.1357
 3305SOL     OW13217   2.990   2.055   0.543 -0.3910 -0.3512  0.0606
 3305SOL    HW113218   2.899   2.052   0.571 -0.4526 -2.1712 -0.1944
 3305SOL    HW213219   3.040   2.069   0.623 -0.7580 -2.2780  0.6780
 3305SOL     MW13220   2.985   2.056   0.556 -0.4459 -0.8309  0.1070
 3306SOL     OW13221   0.271   2.884   0.922  0.1985  0.2412 -0.7199
 3306SOL    HW113222   0.274   2.921   0.833 -0.2430  0.9225 -0.4649
 3306SOL    HW213223   0.247   2.793   0.909  0.6168  0.2066 -1.3319
 3306SOL     MW13224   0.268   2.877   0.909  0.1955  0.3240 -0.7656
 3307SOL     OW13225   3.484   5.190   5.426 -0.5447 -0.4939 -0.2178
 3307SOL    HW113226   3.479   5.192   5.522  1.0500 -0.3564 -0.1124
 3307SOL    HW213227   3.402   5.231   5.397 -1.6818 -1.7794  1.0404
 3307SOL     MW13228   3.473   5.196   5.435 -0.4861 -0.6408 -0.0432
 3308SOL     OW13229   1.422   0.233   4.194  0.3566  0.2959  0.0674
 3308SOL    HW113230   1.436   0.265   4.105  1.1263  3.3331  1.1528
 3308SOL    HW213231   1.335   0.265   4.218  0.9630  1.2523  1.0565
 3308SOL     MW13232   1.413   0.241   4.185  0.5328  0.8071  0.3330
 3309SOL     OW13233   4.088   1.500   3.268 -0.3782 -0.7332  0.4152
 3309SOL    HW113234   4.016   1.452   3.310 -1.2621  0.5564  0.4106
 3309SOL    HW213235   4.164   1.442   3.279 -1.2512 -1.8040  1.0507
 3309SOL     MW13236   4.088   1.486   3.275 -0.6031 -0.7052  0.4960
 3310SOL     OW13237   3.587   5.283   4.007 -0.0003 -0.0432  0.7235
 3310SOL    HW113238   3.528   5.213   4.034 -0.3357 -0.6885 -1.4584
 3310SOL    HW213239   3.544   5.322   3.930  1.3184  0.9886  0.4699
 3310SOL     MW13240   3.574   5.279   4.001  0.1256  0.0062  0.4118
 3311SOL     OW13241   3.286   0.043   0.992  0.2956  0.4702  0.3639
 3311SOL    HW113242   3.369   0.085   1.014  0.6082 -0.7251  1.5969
 3311SOL    HW213243   3.299  -0.049   1.016 -0.1624 -0.5102 -2.8057
 3311SOL     MW13244   3.298   0.037   0.998  0.2770  0.1917  0.1160
 3312SOL     OW13245   4.484   4.515   2.179 -0.1316 -0.2173  0.1282
 3312SOL    HW113246   4.519   4.439   2.225 -1.5321  0.4371  2.4302
 3312SOL    HW213247   4.561   4.568   2.159  0.6940 -1.4095  0.0053
 3312SOL     MW13248   4.498   4.512   2.182 -0.2052 -0.2861  0.4072
 3313SOL     OW13249   0.717   1.246   2.970 -0.2014 -0.5847  0.3230
 3313SOL    HW113250   0.703   1.311   3.038  1.3371  0.0404  0.0728
 3313SOL    HW213251   0.629   1.229   2.934 -0.7833  0.3757  1.2590
 3313SOL     MW13252   0.704   1.252   2.974 -0.0790 -0.3817  0.4108
 3314SOL     OW13253   2.363   4.859   0.832 -0.7676 -0.1327  0.0162
 3314SOL    HW113254   2.338   4.951   0.821  0.6271  0.2244 -0.3428
 3314SOL    HW213255   2.359   4.844   0.926 -0.9640  0.3112  0.0789
 3314SOL     MW13256   2.359   4.869   0.842 -0.6142 -0.0302 -0.0217
 3315SOL     OW13257   2.730   1.907   2.884 -0.1411  0.2098 -0.6013
 3315SOL    HW113258   2.685   1.905   2.800  0.0349  0.8807 -0.7135
 3315SOL    HW213259   2.675   1.963   2.939 -0.1622 -0.0823 -0.3248
 3315SOL     MW13260   2.717   1.914   2.880 -0.1213  0.2583 -0.5803
 3316SOL     OW13261   5.394   2.657   0.842 -0.6144  0.0499 -0.0122
 3316SOL    HW113262   5.316   2.677   0.893 -1.9083 -1.9012 -1.1008
 3316SOL    HW213263   5.376   2.695   0.755 -1.0600 -1.6733 -0.7089
 3316SOL     MW13264   5.382   2.665   0.837 -0.8371 -0.4204 -0.2407
 3317SOL     OW13265   3.276   0.362   4.688  0.5349 -0.6291 -0.3561
 3317SOL    HW113266   3.256   0.343   4.780  1.3279 -0.9137 -0.2322
 3317SOL    HW213267   3.323   0.284   4.658  0.4873 -0.4363 -0.9393
 3317SOL     MW13268   3.279   0.349   4.696  0.6303 -0.6409 -0.4149
 3318SOL     OW13269   0.087   4.850   3.232 -0.6597  0.7810 -0.3481
 3318SOL    HW113270   0.002   4.893   3.247 -0.8020  0.5996 -0.6184
 3318SOL    HW213271   0.079   4.813   3.144 -2.1069 -3.3431  1.2381
 3318SOL     MW13272   0.075   4.851   3.222 -0.8631  0.2299 -0.1797
 3319SOL     OW13273   3.053   3.551   2.843  0.0805  0.1215 -0.0418
 3319SOL    HW113274   2.966   3.587   2.857  0.5496  0.4061  2.6750
 3319SOL    HW213275   3.061   3.481   2.908  2.2249  0.8050  0.5016
 3319SOL     MW13276   3.043   3.546   2.853  0.4150  0.2455  0.3755
 3320SOL     OW13277   3.382   3.673   3.297  0.2509 -0.2489  0.3735
 3320SOL    HW113278   3.476   3.657   3.300  0.1460 -0.7195  2.0952
 3320SOL    HW213279   3.373   3.755   3.248  1.3961 -1.1387 -1.4377
 3320SOL     MW13280   3.393   3.681   3.291  0.3841 -0.4230  0.3620
 3321SOL     OW13281   3.064   2.427   5.092  0.1524 -0.1359 -0.1293
 3321SOL    HW113282   3.151   2.452   5.062  0.8250 -1.3418  0.7026
 3321SOL    HW213283   3.043   2.489   5.162  0.0011  0.6152 -0.8222
 3321SOL     MW13284   3.072   2.438   5.097  0.2192 -0.1941 -0.1115
 3322SOL     OW13285   3.941   1.379   5.067 -0.3025 -0.2592 -0.0505
 3322SOL    HW113286   4.032   1.354   5.083 -0.1731  0.4088  0.2829
 3322SOL    HW213287   3.898   1.298   5.039  0.1398 -0.8121  0.8416
 3322SOL     MW13288   3.947   1.366   5.065 -0.2293 -0.2445  0.1064
 3323SOL     OW13289   0.908   0.582   5.360  0.0138  0.2288 -0.9608
 3323SOL    HW113290   0.838   0.587   5.295  0.0996 -2.1436 -1.3178
 3323SOL    HW213291   0.863   0.566   5.443  0.0336  1.1428 -0.7577
 3323SOL     MW13292   0.893   0.581   5.362  0.0273  0.0421 -0.9805
 3324SOL     OW13293   3.001   4.433   5.418  0.1103 -0.6405  0.0247
 3324SOL    HW113294   3.034   4.470   5.336 -0.7100  0.6067  0.2264
 3324SOL    HW213295   2.932   4.495   5.446 -0.4595 -1.6913  1.0177
 3324SOL     MW13296   2.996   4.446   5.411 -0.0676 -0.6154  0.1777
 3325SOL     OW13297   5.050   4.356   3.688 -0.5562 -0.7272 -0.1440
 3325SOL    HW113298   5.143   4.360   3.667 -0.5341 -1.2370 -0.1478
 3325SOL    HW213299   5.047   4.324   3.778 -0.7436 -1.2040 -0.3158
 3325SOL     MW13300   5.061   4.352   3.697 -0.5774 -0.8535 -0.1665
 3326SOL     OW13301   4.671   2.261   0.314 -0.0296 -0.2108 -0.6068
 3326SOL    HW113302   4.684   2.253   0.409  1.8305  2.4573 -0.5173
 3326SOL    HW213303   4.669   2.171   0.283  1.1406 -1.1549  1.7726
 3326SOL     MW13304   4.672   2.248   0.322  0.3583  0.0099 -0.2908
 3327SOL     OW13305   2.345   3.765   2.208  0.0103  0.0307  0.0798
 3327SOL    HW113306   2.294   3.726   2.279 -0.5789 -1.1010 -0.9104
 3327SOL    HW213307   2.430   3.723   2.213 -0.0561 -0.1059  0.0806
 3327SOL     MW13308   2.349   3.755   2.218 -0.0736 -0.1317 -0.0469
 3328SOL     OW13309   1.161   3.318   4.624  0.2951  0.0483  0.2783
 3328SOL    HW113310   1.217   3.253   4.581  1.7784 -0.0966  2.2855
 3328SOL    HW213311   1.073   3.282   4.618  0.4248  0.0241 -2.5067
 3328SOL     MW13312   1.157   3.305   4.618  0.5016  0.0266  0.1788
 3329SOL     OW13313   4.323   0.033   4.632  0.0541  0.1997  0.1861
 3329SOL    HW113314   4.373  -0.048   4.632  0.0078  0.1647 -0.8013
 3329SOL    HW213315   4.350   0.078   4.551  0.4693  1.4069  0.9545
 3329SOL     MW13316   4.333   0.029   4.622  0.1013  0.3497  0.1580
 3330SOL     OW13317   0.526   3.283   3.046  0.1054  0.0506  0.1671
 3330SOL    HW113318   0.484   3.218   2.990  0.2829 -0.9014  1.1167
 3330SOL    HW213319   0.461   3.302   3.114  0.0822  0.8369 -0.0554
 3330SOL     MW13320   0.512   3.277   3.048  0.1251  0.0294  0.2602
 3331SOL     OW13321   1.895   3.884   2.517 -0.3871 -0.8115  0.2810
 3331SOL    HW113322   1.809   3.914   2.486 -1.2101 -0.6338  2.5448
 3331SOL    HW213323   1.918   3.811   2.460 -1.8623 -0.6077 -0.6091
 3331SOL     MW13324   1.887   3.879   2.506 -0.6813 -0.7626  0.4569
 3332SOL     OW13325   3.933   2.609   0.018 -0.6369  0.2900 -0.4399
 3332SOL    HW113326   3.910   2.531   0.068 -1.3213  0.7973  0.0575
 3332SOL    HW213327   3.918   2.586  -0.073 -0.0956 -0.4042 -0.3624
 3332SOL     MW13328   3.928   2.596   0.013 -0.6552  0.2661 -0.3663
 3333SOL     OW13329   2.255   4.981   2.129  0.1633  0.0404  0.4519
 3333SOL    HW113330   2.320   5.051   2.129  1.3813 -1.0479  0.0865
 3333SOL    HW213331   2.244   4.959   2.221 -1.5082  1.7904  0.7496
 3333SOL     MW13332   2.262   4.987   2.141  0.1052  0.1251  0.4432
 3334SOL     OW13333   2.285   3.565   3.589 -0.0182  0.5007 -0.1812
 3334SOL    HW113334   2.218   3.516   3.541  1.6227 -1.5406 -0.5089
 3334SOL    HW213335   2.240   3.596   3.667 -1.6873  0.3962 -1.0499
 3334SOL     MW13336   2.270   3.563   3.592 -0.0218  0.2260 -0.3343
 3335SOL     OW13337   5.129   3.069   0.885  0.3367 -0.0022 -0.0634
 3335SOL    HW113338   5.136   2.975   0.871 -1.6521 -0.3755  1.2519
 3335SOL    HW213339   5.048   3.094   0.841 -0.2019  0.7275  1.3015
 3335SOL     MW13340   5.120   3.061   0.877  0.0132  0.0434  0.2797
 3336SOL     OW13341   4.255   4.800   4.192 -0.1089  0.1755  0.0295
 3336SOL    HW113342   4.193   4.788   4.120  2.1619  0.2004 -2.0444
 3336SOL    HW213343   4.258   4.715   4.236  0.0457 -0.5084 -1.2565
 3336SOL     MW13344   4.247   4.788   4.188  0.2016  0.0912 -0.4006
 3337SOL     OW13345   0.136   3.248   4.863  0.0210 -0.2005  0.0332
 3337SOL    HW113346   0.042   3.249   4.883 -0.1960  1.1631 -0.8819
 3337SOL    HW213347   0.140   3.266   4.769  1.1428 -2.3084 -0.3705
 3337SOL     MW13348   0.124   3.251   4.854  0.1368 -0.2958 -0.1356
 3338SOL     OW13349   2.908   3.813   4.283  0.2519 -0.2984  0.0242
 3338SOL    HW113350   2.971   3.787   4.215 -0.2472  2.0880 -1.4577
 3338SOL    HW213351   2.868   3.893   4.249 -0.5132  0.6365  2.8779
 3338SOL     MW13352   2.911   3.820   4.270  0.0901  0.1267  0.1998
 3339SOL     OW13353   5.190   3.948   4.854 -0.5522 -0.0391 -0.5897
 3339SOL    HW113354   5.178   3.892   4.931 -0.8039 -1.5695 -1.6966
 3339SOL    HW213355   5.283   3.970   4.855 -0.8430  1.3622  1.0380
 3339SOL     MW13356   5.200   3.944   4.864 -0.6216 -0.0556 -0.5230
 3340SOL     OW13357   2.119   5.475   4.486  0.3312  0.1963  0.2137
 3340SOL    HW113358   2.112   5.453   4.393 -0.8152 -0.1865  0.3628
 3340SOL    HW213359   2.100   5.392   4.531  0.3224  0.5065  0.7830
 3340SOL     MW13360   2.115   5.461   4.480  0.1833  0.1870  0.3057
 3341SOL     OW13361   3.994   2.679   0.655 -0.1577 -0.3806  0.9080
 3341SOL    HW113362   3.977   2.588   0.681  0.5840 -0.3674  1.4683
 3341SOL    HW213363   4.051   2.713   0.724 -1.7771  1.0327  1.6123
 3341SOL     MW13364   3.999   2.671   0.667 -0.2700 -0.1980  1.0699
 3342SOL     OW13365   1.607   4.816   1.825 -0.8318  0.0859  0.3226
 3342SOL    HW113366   1.626   4.901   1.784  1.0160 -0.9672 -1.1344
 3342SOL    HW213367   1.691   4.786   1.858 -1.5797 -0.9285  1.3677
 3342SOL     MW13368   1.620   4.823   1.824 -0.6910 -0.1787  0.2699
 3343SOL     OW13369   0.300   4.708   2.499  0.1761  0.8816 -0.3369
 3343SOL    HW113370   0.380   4.691   2.548 -0.3175 -3.5750 -0.6422
 3343SOL    HW213371   0.229   4.693   2.562 -0.4172  0.2025 -1.1438
 3343SOL     MW13372   0.301   4.704   2.513  0.0370  0.2241 -0.4793
 3344SOL     OW13373   0.349   1.648   1.699  0.1980  0.6126  0.0102
 3344SOL    HW113374   0.316   1.592   1.769  0.6318 -2.5493 -2.0561
 3344SOL    HW213375   0.272   1.668   1.646  0.3880 -0.5079 -0.7528
 3344SOL     MW13376   0.335   1.643   1.701  0.2779  0.0644 -0.3520
 3345SOL     OW13377   0.855   5.385   1.666  0.6606 -0.2216  0.0206
 3345SOL    HW113378   0.786   5.436   1.708  0.4000 -0.4763 -0.1010
 3345SOL    HW213379   0.815   5.300   1.648  0.8962 -0.2485 -0.3742
 3345SOL     MW13380   0.841   5.381   1.669  0.6574 -0.2576 -0.0455
 3346SOL     OW13381   2.207   4.321   5.410 -0.0917 -0.6869 -0.2060
 3346SOL    HW113382   2.277   4.274   5.456  0.4856 -0.0248 -0.3991
 3346SOL    HW213383   2.156   4.252   5.367  0.2927 -1.1909  0.1422
 3346SOL     MW13384   2.209   4.306   5.410  0.0314 -0.6667 -0.1861
 3347SOL     OW13385   3.038   1.476   5.455 -0.1401  0.3584 -0.0799
 3347SOL    HW113386   3.127   1.495   5.483  0.5440 -0.2607 -1.7119
 3347SOL    HW213387   3.048   1.427   5.373 -1.9637 -0.4174  0.1030
 3347SOL     MW13388   3.050   1.472   5.448 -0.2859  0.1799 -0.2654
 3348SOL     OW13389   1.345   1.303   4.842 -0.1097  0.1643  0.2678
 3348SOL    HW113390   1.256   1.295   4.878 -0.2643 -1.1632 -0.3592
 3348SOL    HW213391   1.334   1.296   4.748  0.6372  0.3238  0.1604
 3348SOL     MW13392   1.332   1.301   4.835 -0.0339  0.0148  0.1738
 3349SOL     OW13393   4.098   0.764   2.509  0.0543 -0.2354 -0.4615
 3349SOL    HW113394   4.077   0.691   2.451 -0.6124  1.3429 -2.2892
 3349SOL    HW213395   4.194   0.766   2.509  0.0734 -0.6659 -0.9897
 3349SOL     MW13396   4.108   0.755   2.501 -0.0286 -0.0885 -0.7631
 3350SOL     OW13397   0.046   4.623   4.952 -0.6773 -0.0718  0.6562
 3350SOL    HW113398   0.062   4.689   5.019 -2.0213 -0.0616  0.9908
 3350SOL    HW213399   0.068   4.540   4.994 -0.7766  0.0024  0.8548
 3350SOL     MW13400   0.051   4.621   4.966 -0.8621 -0.0610  0.7245
 3351SOL     OW13401   3.695   3.881   1.887 -0.1428 -0.1116  0.2602
 3351SOL    HW113402   3.789   3.884   1.902 -0.1519  1.6180  0.1372
 3351SOL    HW213403   3.684   3.823   1.812  0.8743  0.1041 -0.0643
 3351SOL     MW13404   3.706   3.874   1.879 -0.0138  0.1375  0.2029
 3352SOL     OW13405   0.587   4.602   1.386  0.4948 -0.1918  0.5972
 3352SOL    HW113406   0.670   4.559   1.367 -0.2257 -1.5089  0.2414
 3352SOL    HW213407   0.598   4.643   1.471  1.7204  0.2560  0.2360
 3352SOL     MW13408   0.599   4.602   1.394  0.5594 -0.3031  0.5054
 3353SOL     OW13409   0.129   3.683   4.376  0.7204  0.2215 -0.0308
 3353SOL    HW113410   0.214   3.653   4.345  0.6786  0.8862 -0.8058
 3353SOL    HW213411   0.066   3.618   4.342  0.7887  0.3811 -0.4665
 3353SOL     MW13412   0.131   3.671   4.368  0.7238  0.3270 -0.1858
 3354SOL     OW13413   3.572   3.723   2.382  0.5244 -0.1949  0.5655
 3354SOL    HW113414   3.568   3.818   2.380  3.8123  0.0887 -2.1499
 3354SOL    HW213415   3.481   3.694   2.374 -0.4335  2.7018 -0.1016
 3354SOL     MW13416   3.560   3.731   2.381  0.8227  0.2122  0.1325
 3355SOL     OW13417   3.958   3.914   2.650 -0.6100 -0.1165  0.2910
 3355SOL    HW113418   3.959   3.819   2.657  0.4187 -0.0274  2.1205
 3355SOL    HW213419   4.020   3.934   2.580  0.2882 -0.7590  0.8850
 3355SOL     MW13420   3.966   3.905   2.642 -0.3633 -0.1873  0.6012
 3356SOL     OW13421   1.653   4.421   2.032  0.4218  0.6340 -0.1799
 3356SOL    HW113422   1.589   4.367   2.079 -0.1204  0.0052 -1.5927
 3356SOL    HW213423   1.636   4.510   2.062 -0.4442  0.3439  0.2242
 3356SOL     MW13424   1.643   4.425   2.042  0.2415  0.5164 -0.3091
 3357SOL     OW13425   1.290   1.251   2.677  0.3168  0.5420  0.0580
 3357SOL    HW113426   1.234   1.216   2.746  0.9753  0.0088  0.3409
 3357SOL    HW213427   1.352   1.180   2.658  0.1410  0.6763 -1.0913
 3357SOL     MW13428   1.291   1.238   2.683  0.3786  0.4909 -0.0529
 3358SOL     OW13429   2.114   0.600   2.603  0.1077 -0.3057  0.1701
 3358SOL    HW113430   2.067   0.648   2.536  0.1306  1.0007  1.0582
 3358SOL    HW213431   2.090   0.643   2.685  0.0904 -1.8520  1.0067
 3358SOL     MW13432   2.105   0.611   2.605  0.1084 -0.3364  0.3909
 3359SOL     OW13433   1.721   3.899   4.526  0.0868  0.0344  0.1769
 3359SOL    HW113434   1.763   3.823   4.567  0.4385 -0.0019 -0.2403
 3359SOL    HW213435   1.685   3.865   4.445 -0.7615  0.0678  0.5306
 3359SOL     MW13436   1.722   3.885   4.521  0.0232  0.0340  0.1688
 3360SOL     OW13437   0.272   4.616   3.664  0.4755 -0.7643  0.1420
 3360SOL    HW113438   0.263   4.642   3.572 -0.7526  0.9418  0.6768
 3360SOL    HW213439   0.366   4.614   3.679  0.6829 -0.0077 -0.8960
 3360SOL     MW13440   0.283   4.619   3.654  0.3448 -0.4490  0.0775
 3361SOL     OW13441   3.795   4.587   3.732  0.0855  0.4337  0.6668
 3361SOL    HW113442   3.769   4.497   3.712  1.7595  0.0078  0.2695
 3361SOL    HW213443   3.716   4.639   3.714 -0.9629 -0.9477  1.0693
 3361SOL     MW13444   3.781   4.582   3.727  0.1656  0.2024  0.6675
 3362SOL     OW13445   5.411   5.396   2.352 -0.6914  0.4201  0.4558
 3362SOL    HW113446   5.361   5.470   2.386 -0.5691  0.2523  1.0072
 3362SOL    HW213447   5.493   5.398   2.401 -1.1128 -0.7200  1.2692
 3362SOL     MW13448   5.415   5.406   2.363 -0.7297  0.2527  0.6305
 3363SOL     OW13449   1.959   3.818   1.092  0.4693 -0.0441 -0.5886
 3363SOL    HW113450   2.003   3.832   1.008 -1.6446  1.9915 -1.4752
 3363SOL    HW213451   1.866   3.836   1.074 -0.1408 -0.1357  2.0452
 3363SOL     MW13452   1.953   3.822   1.079  0.1206  0.2048 -0.3650
 3364SOL     OW13453   2.734   5.236   4.195 -0.5510 -0.2781  0.1807
 3364SOL    HW113454   2.798   5.307   4.198  0.1100 -0.8487 -0.1504
 3364SOL    HW213455   2.687   5.243   4.278 -1.6316  1.5743 -0.5368
 3364SOL     MW13456   2.736   5.246   4.206 -0.6047 -0.1140  0.0464
 3365SOL     OW13457   4.998   4.087   1.293 -0.6158  0.6040 -0.1078
 3365SOL    HW113458   4.957   4.086   1.206 -0.7431  0.6029 -0.0483
 3365SOL    HW213459   5.037   4.174   1.300  2.6051 -0.5497 -1.6508
 3365SOL     MW13460   4.998   4.098   1.283 -0.2198  0.4561 -0.2977
 3366SOL     OW13461   1.249   2.448   3.715 -0.1409 -0.1891 -0.3904
 3366SOL    HW113462   1.203   2.481   3.638  0.8040  0.4860 -0.6959
 3366SOL    HW213463   1.325   2.401   3.680 -0.9105 -1.8667  0.0781
 3366SOL     MW13464   1.253   2.446   3.701 -0.1185 -0.3174 -0.3695
 3367SOL     OW13465   3.730   4.050   2.630  0.1618 -0.2211  0.1779
 3367SOL    HW113466   3.759   4.140   2.644 -0.3792  0.1529 -0.9636
 3367SOL    HW213467   3.810   3.998   2.628  0.5823  0.4389 -0.5320
 3367SOL     MW13468   3.744   4.055   2.632  0.1464 -0.0887 -0.0591
 3368SOL     OW13469   3.637   1.282   3.196  0.1297  0.2178  0.5074
 3368SOL    HW113470   3.577   1.327   3.137 -1.1115 -0.4226  1.2404
 3368SOL    HW213471   3.702   1.242   3.138 -0.5108  0.3887 -0.3507
 3368SOL     MW13472   3.638   1.282   3.181 -0.1112  0.1577  0.4914
 3369SOL     OW13473   3.959   0.999   0.680 -0.4028 -0.1451 -0.1314
 3369SOL    HW113474   4.004   0.990   0.764 -0.9778 -0.9602  0.0984
 3369SOL    HW213475   4.007   1.068   0.634 -0.7250  1.0709  1.2835
 3369SOL     MW13476   3.971   1.006   0.685 -0.5176 -0.0938  0.0791
 3370SOL     OW13477   0.038   0.085   3.012 -0.0389 -0.5720 -0.3005
 3370SOL    HW113478   0.011   0.163   2.963  0.6320  1.1282  1.8745
 3370SOL    HW213479  -0.040   0.058   3.060  0.5022  0.8149  1.4698
 3370SOL     MW13480   0.025   0.092   3.012  0.1163 -0.1768  0.2045
 3371SOL     OW13481   2.252   0.416   2.972 -0.0230 -0.2720 -0.5192
 3371SOL    HW113482   2.268   0.509   2.986  0.4663 -0.6115  1.5450
 3371SOL    HW213483   2.158   0.410   2.950  0.1088  0.7391 -1.4209
 3371SOL     MW13484   2.242   0.427   2.971  0.0565 -0.1860 -0.3704
 3372SOL     OW13485   2.776   5.372   3.543  0.5533  0.7380 -0.0390
 3372SOL    HW113486   2.685   5.402   3.541  0.1254 -0.3518  1.2768
 3372SOL    HW213487   2.797   5.366   3.636  1.4342 -0.5513 -0.2928
 3372SOL     MW13488   2.767   5.375   3.554  0.6113  0.4334  0.0970
 3373SOL     OW13489   4.856   4.654   0.093  0.1950  0.1123  0.1111
 3373SOL    HW113490   4.883   4.708   0.019  2.3454 -2.1219 -0.8741
 3373SOL    HW213491   4.929   4.661   0.155 -0.1478 -0.5164  0.5947
 3373SOL     MW13492   4.869   4.662   0.092  0.4264 -0.2542  0.0469
 3374SOL     OW13493   4.484   0.018   1.886  0.0478 -0.2456 -0.0726
 3374SOL    HW113494   4.434   0.033   1.805 -0.9602 -0.6412  0.4539
 3374SOL    HW213495   4.499   0.105   1.922 -0.8649 -0.1476  0.0997
 3374SOL     MW13496   4.479   0.031   1.880 -0.1981 -0.2837  0.0169
 3375SOL     OW13497   3.147   4.866   2.419  0.1688 -0.2139  0.0534
 3375SOL    HW113498   3.206   4.860   2.344  2.3103 -0.5342  1.6655
 3375SOL    HW213499   3.078   4.927   2.390  0.8956 -0.3294 -2.1343
 3375SOL     MW13500   3.146   4.873   2.405  0.5360 -0.2697 -0.0203
 3376SOL     OW13501   4.308   3.445   0.907  0.1903  0.1547 -0.1339
 3376SOL    HW113502   4.357   3.378   0.859  1.0492  0.6170  0.0771
 3376SOL    HW213503   4.316   3.524   0.853  0.9324  0.6074  0.6136
 3376SOL     MW13504   4.315   3.446   0.894  0.3952  0.2718 -0.0112
 3377SOL     OW13505   1.132   3.150   0.298 -0.8589 -0.7143 -0.3030
 3377SOL    HW113506   1.137   3.080   0.363  1.9390 -0.5140 -0.1775
 3377SOL    HW213507   1.083   3.220   0.341 -1.3004 -1.5602  0.5982
 3377SOL     MW13508   1.126   3.150   0.312 -0.5573 -0.7969 -0.1715
 3378SOL     OW13509   3.809   0.330   5.341 -0.5361 -0.1781 -0.8208
 3378SOL    HW113510   3.830   0.244   5.306 -0.2193 -0.3694 -0.1703
 3378SOL    HW213511   3.809   0.319   5.436  1.7738  0.9953 -0.5955
 3378SOL     MW13512   3.812   0.318   5.349 -0.1998 -0.0523 -0.7087
 3379SOL     OW13513   2.783   4.107   2.939 -0.0798 -0.1103  0.1374
 3379SOL    HW113514   2.807   4.108   3.032 -0.1063 -1.2202  0.1663
 3379SOL    HW213515   2.771   4.199   2.917 -1.4246  0.1193  1.5905
 3379SOL     MW13516   2.784   4.119   2.948 -0.2554 -0.2230  0.3271
 3380SOL     OW13517   2.088   0.763   3.293 -0.5040  0.5516  0.3969
 3380SOL    HW113518   2.134   0.754   3.209  0.3624 -0.5429  0.9625
 3380SOL    HW213519   2.134   0.833   3.338  0.8329 -0.7150  1.0675
 3380SOL     MW13520   2.100   0.771   3.288 -0.2220  0.2494  0.5552
 3381SOL     OW13521   0.306   4.167   5.025 -0.1121 -0.3447  0.0357
 3381SOL    HW113522   0.359   4.178   5.104  0.4125  3.8948 -0.6959
 3381SOL    HW213523   0.246   4.241   5.026 -1.3503 -1.2016 -2.6332
 3381SOL     MW13524   0.305   4.178   5.035 -0.2034  0.0883 -0.3996
 3382SOL     OW13525   4.624   3.829   3.773 -0.5134 -0.0747 -0.7443
 3382SOL    HW113526   4.659   3.740   3.783  0.3557  0.1503 -1.6083
 3382SOL    HW213527   4.664   3.878   3.845 -0.2122 -0.1720 -0.8401
 3382SOL     MW13528   4.634   3.824   3.783 -0.3635 -0.0584 -0.8672
 3383SOL     OW13529   4.833   4.832   3.544  0.0785 -0.0899 -0.2113
 3383SOL    HW113530   4.882   4.756   3.576 -0.0405 -0.1807 -0.2437
 3383SOL    HW213531   4.785   4.799   3.469  0.1575  0.0609 -0.3290
 3383SOL     MW13532   4.833   4.818   3.538  0.0734 -0.0822 -0.2305
 3384SOL     OW13533   2.416   1.849   4.770  0.1816 -0.5632 -0.5722
 3384SOL    HW113534   2.331   1.846   4.813  0.4856  2.5391  0.4310
 3384SOL    HW213535   2.395   1.852   4.676 -0.9941  2.1348 -0.2994
 3384SOL     MW13536   2.402   1.849   4.763  0.0700  0.1793 -0.4088
 3385SOL     OW13537   0.860   0.737   4.140  0.3207 -0.1322  0.3962
 3385SOL    HW113538   0.900   0.824   4.148 -0.2625  0.4224 -1.7951
 3385SOL    HW213539   0.812   0.741   4.057  0.0161 -2.4520  0.3900
 3385SOL     MW13540   0.859   0.749   4.130  0.2070 -0.3581  0.1149
 3386SOL     OW13541   0.630   1.658   2.498  0.0943 -0.0222 -0.1274
 3386SOL    HW113542   0.698   1.716   2.532  0.2550 -0.1310 -0.2614
 3386SOL    HW213543   0.573   1.641   2.573  0.4501 -0.2636  0.0897
 3386SOL     MW13544   0.631   1.663   2.512  0.1605 -0.0670 -0.1168
 3387SOL     OW13545   2.800   0.378   3.261  0.4732  0.2339 -0.3610
 3387SOL    HW113546   2.754   0.454   3.296  0.1585  0.3762 -1.0585
 3387SOL    HW213547   2.842   0.338   3.337  1.0667  1.3855 -0.0537
 3387SOL     MW13548   2.799   0.382   3.275  0.5089  0.3995 -0.4109
 3388SOL     OW13549   3.616   0.938   4.782 -0.0864 -0.2038  1.0138
 3388SOL    HW113550   3.622   0.998   4.856  0.1898  0.1403  0.7145
 3388SOL    HW213551   3.686   0.874   4.797  0.6300  0.4493  0.5355
 3388SOL     MW13552   3.626   0.937   4.793  0.0407 -0.0761  0.9143
 3389SOL     OW13553   3.897   2.730   2.059  0.2990  0.2714 -0.5644
 3389SOL    HW113554   3.937   2.817   2.068  1.2742 -0.1311 -0.7978
 3389SOL    HW213555   3.881   2.702   2.149  0.3907  0.5150 -0.4695
 3389SOL     MW13556   3.900   2.737   2.071  0.4355  0.2511 -0.5821
 3390SOL     OW13557   2.960   1.363   1.675 -0.1821 -0.3553  0.7465
 3390SOL    HW113558   2.923   1.451   1.667 -2.0351 -1.1872 -0.5408
 3390SOL    HW213559   3.014   1.352   1.596  0.0673 -0.3789  0.9178
 3390SOL     MW13560   2.962   1.373   1.664 -0.3874 -0.4648  0.6036
 3391SOL     OW13561   0.091   5.402   2.802  0.0302  0.1323  0.0738
 3391SOL    HW113562   0.057   5.436   2.885 -1.0535 -0.5025 -0.0875
 3391SOL    HW213563   0.135   5.321   2.827 -2.4413 -1.4066 -0.2053
 3391SOL     MW13564   0.092   5.396   2.816 -0.4249 -0.1460  0.0174
 3392SOL     OW13565   4.517   3.446   0.194  0.2476 -0.3396  0.3793
 3392SOL    HW113566   4.480   3.367   0.154  0.9658 -1.2073  1.3646
 3392SOL    HW213567   4.601   3.458   0.149  1.7616 -2.1695  2.4599
 3392SOL     MW13568   4.523   3.437   0.183  0.5334 -0.6849  0.7717
 3393SOL     OW13569   3.582   5.240   0.718  0.3847  0.0506  0.2442
 3393SOL    HW113570   3.619   5.165   0.764 -0.6355 -0.0439  0.9332
 3393SOL    HW213571   3.652   5.305   0.720  0.6746 -0.2686  1.1657
 3393SOL     MW13572   3.596   5.239   0.724  0.2912 -0.0023  0.4504
 3394SOL     OW13573   4.809   4.048   4.555  0.5902  0.0549  0.3437
 3394SOL    HW113574   4.779   4.091   4.475 -0.0308 -0.4625  0.2941
 3394SOL    HW213575   4.839   4.120   4.611  1.2843  0.4030 -0.4453
 3394SOL     MW13576   4.809   4.063   4.552  0.5996  0.0332  0.2363
 3395SOL     OW13577   5.061   5.209   2.164  0.1396  0.2537  0.1785
 3395SOL    HW113578   5.081   5.197   2.257  0.1200 -0.6824  0.0791
 3395SOL    HW213579   5.132   5.264   2.130  1.8674 -1.8724  0.1225
 3395SOL     MW13580   5.072   5.214   2.171  0.3583 -0.1383  0.1586
 3396SOL     OW13581   0.740   0.559   2.350  0.2179 -0.3323  0.5608
 3396SOL    HW113582   0.823   0.522   2.319 -0.5595 -1.6353 -0.0347
 3396SOL    HW213583   0.683   0.483   2.362 -0.8050  0.5219  1.2511
 3396SOL     MW13584   0.743   0.544   2.347 -0.0126 -0.3898  0.5730
 3397SOL     OW13585   1.196   2.685   0.647 -0.2228  0.0786  0.5252
 3397SOL    HW113586   1.193   2.733   0.564 -1.1108  0.0501  0.5304
 3397SOL    HW213587   1.104   2.663   0.665 -0.0205 -0.0596  1.4288
 3397SOL     MW13588   1.184   2.688   0.638 -0.3106  0.0573  0.6415
 3398SOL     OW13589   4.409   5.442   3.366 -0.0312  0.1762  0.3214
 3398SOL    HW113590   4.452   5.485   3.292 -0.8724  0.8282  0.1900
 3398SOL    HW213591   4.406   5.350   3.342  0.9960  0.1597  0.2020
 3398SOL     MW13592   4.414   5.436   3.354 -0.0074  0.2576  0.2893
 3399SOL     OW13593   2.606   4.547   3.218 -0.2411  0.8311 -0.3131
 3399SOL    HW113594   2.689   4.583   3.251 -0.8932  1.6075  0.5450
 3399SOL    HW213595   2.602   4.459   3.255 -0.6553  1.4605  1.2020
 3399SOL     MW13596   2.616   4.540   3.227 -0.3776  1.0110 -0.0093
 3400SOL     OW13597   4.116   4.581   4.397  0.0376 -0.6111 -0.4602
 3400SOL    HW113598   4.047   4.617   4.341  0.1369  0.4831  0.0985
 3400SOL    HW213599   4.161   4.518   4.342 -1.1762 -1.0798 -0.9580
 3400SOL     MW13600   4.113   4.578   4.383 -0.1051 -0.5311 -0.4524
 3401SOL     OW13601   2.306   2.645   3.947 -0.2408 -0.2263  0.2910
 3401SOL    HW113602   2.215   2.624   3.968 -0.0074 -1.7166 -0.0512
 3401SOL    HW213603   2.330   2.713   4.009 -1.7913  0.7002 -0.0693
 3401SOL     MW13604   2.297   2.651   3.957 -0.4094 -0.2985  0.2011
 3402SOL     OW13605   0.533   1.134   4.036 -0.1485 -0.2395  0.2454
 3402SOL    HW113606   0.510   1.072   4.105  1.9031 -1.1304  0.1964
 3402SOL    HW213607   0.613   1.177   4.067 -0.4507  0.9816 -0.5848
 3402SOL     MW13608   0.541   1.131   4.048  0.0754 -0.1973  0.1329
 3403SOL     OW13609   0.619   1.022   2.303 -0.4679  0.5455  0.3011
 3403SOL    HW113610   0.545   1.076   2.275  1.5778  3.1222 -0.5409
 3403SOL    HW213611   0.685   1.035   2.235  1.3980 -0.2274  1.8626
 3403SOL     MW13612   0.618   1.031   2.291  0.0329  0.7764  0.3932
 3404SOL     OW13613   1.160   4.238   3.440 -0.3648 -0.2561  0.2943
 3404SOL    HW113614   1.104   4.278   3.506 -0.1269  0.1697  0.2451
 3404SOL    HW213615   1.140   4.285   3.359  0.0562 -0.0965  0.2766
 3404SOL     MW13616   1.150   4.249   3.438 -0.2805 -0.1812  0.2857
 3405SOL     OW13617   5.198   1.215   0.061 -0.5837  0.2180  0.2981
 3405SOL    HW113618   5.136   1.253   0.123 -1.4545 -0.9985  0.2238
 3405SOL    HW213619   5.143   1.173  -0.005  0.2297 -2.5968  1.2551
 3405SOL     MW13620   5.183   1.214   0.060 -0.5910 -0.2980  0.4111
 3406SOL     OW13621   3.450   2.886   1.901 -0.4102 -0.4358 -0.0159
 3406SOL    HW113622   3.452   2.947   1.827  0.5737 -1.1082 -0.5657
 3406SOL    HW213623   3.530   2.835   1.892 -1.1066 -1.6628  0.5527
 3406SOL     MW13624   3.460   2.887   1.890 -0.3734 -0.6789 -0.0135
 3407SOL     OW13625   0.841   5.453   0.901 -0.0039  0.2759 -0.5481
 3407SOL    HW113626   0.760   5.490   0.866 -0.5996 -1.8165 -1.5977
 3407SOL    HW213627   0.892   5.430   0.823  0.3454 -0.9613  0.0143
 3407SOL     MW13628   0.837   5.455   0.886 -0.0355 -0.1503 -0.6105
 3408SOL     OW13629   0.830   1.047   2.149  0.0560  0.3442 -0.6748
 3408SOL    HW113630   0.844   0.964   2.103 -2.4618 -0.3970 -0.2485
 3408SOL    HW213631   0.872   1.112   2.093 -1.1042 -0.7861 -3.0309
 3408SOL     MW13632   0.837   1.045   2.136 -0.4148  0.1046 -0.9219
 3409SOL     OW13633   2.071   3.822   0.837  0.1756  0.1191  0.2332
 3409SOL    HW113634   2.011   3.770   0.783  0.5878  1.2955 -1.4290
 3409SOL    HW213635   2.149   3.767   0.847  0.4447  0.2090 -1.1605
 3409SOL     MW13636   2.073   3.809   0.831  0.2628  0.2812 -0.1580
 3410SOL     OW13637   1.627   2.036   4.467  0.1521 -0.2817  0.4364
 3410SOL    HW113638   1.556   2.089   4.430  0.1871 -1.2671 -1.1091
 3410SOL    HW213639   1.622   1.953   4.419  1.8616 -0.6477  0.8571
 3410SOL     MW13640   1.617   2.032   4.456  0.3754 -0.4547  0.2924
 3411SOL     OW13641   0.069   4.725   0.781  0.4016  0.1616 -0.2806
 3411SOL    HW113642   0.020   4.791   0.830 -1.1423 -0.5568 -0.8147
 3411SOL    HW213643   0.156   4.725   0.822 -0.2720  0.9045  1.2333
 3411SOL     MW13644   0.074   4.733   0.793  0.1177  0.1647 -0.1552
 3412SOL     OW13645   1.917   1.548   4.668  0.1454  0.1814 -0.5890
 3412SOL    HW113646   2.008   1.576   4.663  0.3942  0.3823  2.7700
 3412SOL    HW213647   1.918   1.456   4.645  1.2198  0.1568 -0.4855
 3412SOL     MW13648   1.929   1.540   4.664  0.3148  0.2040 -0.1458
 3413SOL     OW13649   1.665   1.235   5.392 -0.0234  0.2400  0.1004
 3413SOL    HW113650   1.584   1.189   5.368 -0.1108 -0.1964  1.1729
 3413SOL    HW213651   1.682   1.208   5.482  2.0393 -0.7027 -0.5016
 3413SOL     MW13652   1.657   1.225   5.400  0.2295  0.0635  0.1606
 3414SOL     OW13653   0.100   5.269   4.739 -0.2394 -0.1128  0.0449
 3414SOL    HW113654   0.078   5.176   4.734  0.3667 -0.3125  1.0004
 3414SOL    HW213655   0.140   5.280   4.825  0.3306  0.8996 -0.3334
 3414SOL     MW13656   0.102   5.259   4.749 -0.0888 -0.0088  0.1188
 3415SOL     OW13657   2.372   3.848   4.353 -0.0571  0.0473  0.2880
 3415SOL    HW113658   2.414   3.778   4.402  0.4482  0.0811 -0.0857
 3415SOL    HW213659   2.288   3.862   4.397 -0.6223 -1.4908 -0.2282
 3415SOL     MW13660   2.366   3.841   4.365 -0.0648 -0.1452  0.1741
 3416SOL     OW13661   4.121   1.759   4.247  0.5555  0.0786  0.0872
 3416SOL    HW113662   4.079   1.689   4.197 -1.3698 -0.0186  1.7083
 3416SOL    HW213663   4.176   1.805   4.184  1.5263 -2.5821 -1.1274
 3416SOL     MW13664   4.123   1.756   4.233  0.4333 -0.2744  0.1393
 3417SOL     OW13665   0.976   4.410   4.620 -0.3794  0.0867 -0.1043
 3417SOL    HW113666   0.924   4.433   4.543 -0.9240 -0.6335  0.0333
 3417SOL    HW213667   0.922   4.346   4.666  0.1605  0.1456  0.6188
 3417SOL     MW13668   0.962   4.405   4.616 -0.3800  0.0020  0.0059
 3418SOL     OW13669   1.045   1.571   0.528  0.3413  0.0653  0.1263
 3418SOL    HW113670   1.034   1.550   0.435  2.2521 -1.5144  0.1872
 3418SOL    HW213671   1.091   1.655   0.527 -0.3646  0.4590 -0.3216
 3418SOL     MW13672   1.050   1.579   0.516  0.4956 -0.0865  0.0768
 3419SOL     OW13673   4.268   4.003   2.047  0.6076 -0.2086 -0.1392
 3419SOL    HW113674   4.196   3.955   2.088  0.3020  0.1305 -0.2694
 3419SOL    HW213675   4.326   4.025   2.119 -0.4168  1.2403  0.3059
 3419SOL     MW13676   4.266   4.000   2.061  0.4373  0.0203 -0.0989
 3420SOL     OW13677   4.263   1.375   2.425  0.7005 -0.1209  0.3561
 3420SOL    HW113678   4.281   1.466   2.450  1.3554 -0.1294 -0.0670
 3420SOL    HW213679   4.299   1.323   2.497  1.1013 -0.0774  0.1900
 3420SOL     MW13680   4.270   1.380   2.438  0.8357 -0.1164  0.2806
 3421SOL     OW13681   2.076   5.019   2.881  0.3174  0.1734  0.1250
 3421SOL    HW113682   2.046   5.105   2.910 -2.4409  0.0232 -1.9265
 3421SOL    HW213683   2.043   4.959   2.948 -0.3777  0.4216  0.0068
 3421SOL     MW13684   2.068   5.022   2.894 -0.1247  0.1860 -0.1527
 3422SOL     OW13685   0.597   4.714   1.644 -0.5235  0.2542  0.3108
 3422SOL    HW113686   0.580   4.806   1.622 -1.4848  0.0897  0.3433
 3422SOL    HW213687   0.511   4.678   1.664 -0.8160 -1.6854 -3.5278
 3422SOL     MW13688   0.584   4.721   1.644 -0.6840 -0.0152 -0.1764
 3423SOL     OW13689   2.610   0.803   2.063  0.3104  0.4462  0.4557
 3423SOL    HW113690   2.548   0.870   2.035  0.4281 -0.0107 -0.9811
 3423SOL    HW213691   2.560   0.722   2.063  0.0775  0.5459  2.5283
 3423SOL     MW13692   2.596   0.802   2.059  0.2957  0.4004  0.5371
 3424SOL     OW13693   0.937   1.984   3.754 -0.4407 -0.3584  0.5815
 3424SOL    HW113694   0.999   2.056   3.768 -0.9033 -0.3771  3.3372
 3424SOL    HW213695   0.991   1.905   3.750  0.2202  0.0606 -3.9098
 3424SOL     MW13696   0.952   1.983   3.755 -0.4153 -0.3072  0.3593
 3425SOL     OW13697   4.648   5.442   4.298 -0.2248  0.0827 -0.1783
 3425SOL    HW113698   4.668   5.359   4.342 -0.4190  0.9321  1.5646
 3425SOL    HW213699   4.605   5.415   4.216 -1.9381 -1.5437  1.1614
 3425SOL     MW13700   4.645   5.428   4.293 -0.4690 -0.0168  0.2163
 3426SOL     OW13701   3.442   0.438   0.716  0.8463  0.2458 -0.2133
 3426SOL    HW113702   3.352   0.464   0.734  0.8608  1.0761 -1.2964
 3426SOL    HW213703   3.446   0.346   0.745 -0.2266  0.3167  0.2085
 3426SOL     MW13704   3.431   0.429   0.722  0.7108  0.3611 -0.2980
 3427SOL     OW13705   3.657   2.077   4.374 -0.1368  0.0856  0.1370
 3427SOL    HW113706   3.748   2.106   4.373 -0.4690  1.2098  0.8063
 3427SOL    HW213707   3.616   2.124   4.301 -0.3826  0.2677  0.3928
 3427SOL     MW13708   3.663   2.087   4.364 -0.2108  0.2528  0.2554
 3428SOL     OW13709   0.525   4.152   4.369  0.0378  0.4713  0.1999
 3428SOL    HW113710   0.521   4.248   4.371 -0.8258  0.4810 -1.1381
 3428SOL    HW213711   0.503   4.129   4.279 -0.8862 -1.0447  0.7820
 3428SOL     MW13712   0.522   4.162   4.358 -0.1910  0.2785  0.1031
 3429SOL     OW13713   1.900   2.683   5.409 -0.1152 -0.0055 -0.2686
 3429SOL    HW113714   1.964   2.651   5.345 -0.5374 -0.6255 -0.3919
 3429SOL    HW213715   1.822   2.704   5.358 -0.2109  0.1784 -0.0484
 3429SOL     MW13716   1.898   2.681   5.394 -0.1815 -0.0614 -0.2562
 3430SOL     OW13717   4.292   0.539   5.278  0.1166  0.4101 -0.2766
 3430SOL    HW113718   4.269   0.511   5.367  3.7843 -1.0301  0.4071
 3430SOL    HW213719   4.291   0.458   5.227 -0.2654  0.9455 -1.1270
 3430SOL     MW13720   4.289   0.525   5.283  0.5372  0.2943 -0.2979
 3431SOL     OW13721   1.297   5.311   0.789 -0.2716 -0.0048  0.0397
 3431SOL    HW113722   1.233   5.240   0.779  0.2321 -0.5775  0.8173
 3431SOL    HW213723   1.290   5.337   0.881  1.3627 -0.8198  0.4274
 3431SOL     MW13724   1.288   5.305   0.799  0.0020 -0.1824  0.1889
 3432SOL     OW13725   4.892   2.004   0.166  0.0828  0.2412 -0.1403
 3432SOL    HW113726   4.939   1.937   0.216 -0.1654  1.8693  2.4984
 3432SOL    HW213727   4.802   1.997   0.196 -0.1529  1.0693 -0.6196
 3432SOL     MW13728   4.887   1.994   0.176  0.0208  0.5556  0.1361
 3433SOL     OW13729   2.266   1.078   0.822  0.3886 -0.5156  0.4707
 3433SOL    HW113730   2.211   1.000   0.832  0.1731 -0.5179 -0.5583
 3433SOL    HW213731   2.213   1.150   0.855 -0.4309 -0.4581 -0.8857
 3433SOL     MW13732   2.252   1.077   0.827  0.2561 -0.5086  0.1654
 3434SOL     OW13733   2.621   4.264   4.997  0.3374 -0.7571  0.0757
 3434SOL    HW113734   2.555   4.246   5.064  0.3127 -2.8973 -0.4674
 3434SOL    HW213735   2.598   4.206   4.924  3.0440 -1.9330  0.0497
 3434SOL     MW13736   2.610   4.254   4.996  0.6807 -1.1816  0.0028
 3435SOL     OW13737   3.545   3.985   2.424  0.3026  0.2634 -0.3046
 3435SOL    HW113738   3.576   4.030   2.345  1.4846  0.5839  0.3255
 3435SOL    HW213739   3.603   4.016   2.494  0.1784 -1.0927  0.4267
 3435SOL     MW13740   3.557   3.995   2.423  0.4380  0.1309 -0.1303
 3436SOL     OW13741   2.633   2.753   0.775 -0.0651 -0.1545 -0.2093
 3436SOL    HW113742   2.591   2.693   0.714  0.8534 -1.1497  0.1183
 3436SOL    HW213743   2.621   2.840   0.735 -0.7465 -0.6224 -1.0573
 3436SOL     MW13744   2.626   2.757   0.762 -0.0347 -0.3418 -0.2759
 3437SOL     OW13745   4.424   4.880   0.741 -0.0509 -0.2304 -0.5735
 3437SOL    HW113746   4.442   4.883   0.647 -0.4886  1.2490 -0.6285
 3437SOL    HW213747   4.334   4.911   0.750  0.1809  0.2128  0.3741
 3437SOL     MW13748   4.415   4.884   0.730 -0.0772  0.0157 -0.4593
 3438SOL     OW13749   5.412   4.139   4.473  0.1287  0.3291  0.2379
 3438SOL    HW113750   5.468   4.061   4.475  1.2683  1.1342  0.0844
 3438SOL    HW213751   5.471   4.212   4.491 -0.5835  1.3639 -1.4051
 3438SOL     MW13752   5.427   4.138   4.476  0.1834  0.5647  0.0079
 3439SOL     OW13753   3.668   1.931   0.662  0.2057 -0.1778 -0.0424
 3439SOL    HW113754   3.754   1.972   0.662  0.7385 -1.1141  2.3297
 3439SOL    HW213755   3.607   2.003   0.644  1.2751  1.1950  1.5391
 3439SOL     MW13756   3.671   1.945   0.660  0.4108 -0.1220  0.4637
 3440SOL     OW13757   2.203   1.903   0.074  0.3589  0.1849  0.7654
 3440SOL    HW113758   2.175   1.846   0.002 -1.5361  1.5197  0.3696
 3440SOL    HW213759   2.285   1.865   0.104 -0.2057 -2.0136 -0.2833
 3440SOL     MW13760   2.210   1.891   0.069  0.0440  0.0744  0.5805
 3441SOL     OW13761   2.757   0.378   4.481  1.0158  0.0615  0.0207
 3441SOL    HW113762   2.671   0.352   4.447 -0.5359  0.5407  3.2437
 3441SOL    HW213763   2.747   0.472   4.499  2.3379  0.1910  0.1231
 3441SOL     MW13764   2.744   0.387   4.479  0.9864  0.1394  0.4464
 3442SOL     OW13765   4.344   4.280   4.393 -0.3422 -0.2103 -0.0360
 3442SOL    HW113766   4.256   4.260   4.363 -0.2354 -1.5614  0.4728
 3442SOL    HW213767   4.391   4.307   4.314 -1.2093  0.5912 -0.2989
 3442SOL     MW13768   4.339   4.281   4.379 -0.4395 -0.2807 -0.0045
 3443SOL     OW13769   1.839   3.438   2.535  0.5987  0.5879  0.3818
 3443SOL    HW113770   1.923   3.419   2.577  0.7152  1.0406  0.3547
 3443SOL    HW213771   1.816   3.526   2.566 -1.6151 -0.8409  3.2862
 3443SOL     MW13772   1.847   3.447   2.545  0.3302  0.4629  0.7501
 3444SOL     OW13773   0.884   1.611   4.990  0.0336  0.3962 -0.0734
 3444SOL    HW113774   0.917   1.645   4.907 -0.4448 -0.1231 -0.4830
 3444SOL    HW213775   0.963   1.598   5.043  0.4500 -0.3328 -0.8511
 3444SOL     MW13776   0.899   1.614   4.986  0.0257  0.2364 -0.2254
 3445SOL     OW13777   0.197   0.858   0.334 -0.6429  0.6333  0.1713
 3445SOL    HW113778   0.164   0.872   0.245  1.9691  0.2098 -0.9585
 3445SOL    HW213779   0.237   0.771   0.331  1.0679  1.3466  1.2231
 3445SOL     MW13780   0.198   0.849   0.323 -0.0895  0.6704  0.1613
 3446SOL     OW13781   0.331   1.507   1.948  0.1863 -0.1416  0.1646
 3446SOL    HW113782   0.259   1.449   1.924 -1.0511  0.7077  1.6163
 3446SOL    HW213783   0.369   1.466   2.026  0.5575  0.0080  0.0655
 3446SOL     MW13784   0.327   1.494   1.955  0.0754 -0.0137  0.3377
 3447SOL     OW13785   1.477   1.500   4.980 -0.7760 -0.1455  0.0836
 3447SOL    HW113786   1.436   1.422   4.942 -1.8262 -0.1095  1.0789
 3447SOL    HW213787   1.408   1.566   4.980 -0.0919  0.5830 -0.1260
 3447SOL     MW13788   1.463   1.499   4.975 -0.8229 -0.0476  0.1842
 3448SOL     OW13789   0.180   0.875   3.565 -0.1228  0.3713 -0.1842
 3448SOL    HW113790   0.207   0.874   3.657  0.0582  1.6631 -0.1938
 3448SOL    HW213791   0.202   0.964   3.535  3.2553 -1.0675 -2.5428
 3448SOL     MW13792   0.186   0.886   3.573  0.3328  0.3525 -0.4874
 3449SOL     OW13793   2.476   4.420   3.733  0.7737 -0.3669 -0.1242
 3449SOL    HW113794   2.468   4.493   3.794  1.2321 -0.8788  0.5565
 3449SOL    HW213795   2.415   4.354   3.766 -0.4065  0.0893 -1.3204
 3449SOL     MW13796   2.467   4.421   3.745  0.6813 -0.3741 -0.1902
 3450SOL     OW13797   4.086   4.283   2.507 -0.2682  0.0612 -0.1970
 3450SOL    HW113798   4.116   4.319   2.424 -0.2915  0.6579  0.0475
 3450SOL    HW213799   4.062   4.360   2.559 -2.9428 -0.3486 -0.6345
 3450SOL     MW13800   4.087   4.298   2.503 -0.6135  0.0851 -0.2217
 3451SOL     OW13801   2.956   2.075   3.719 -0.1595 -0.0803 -0.3488
 3451SOL    HW113802   2.866   2.107   3.715 -0.9365 -2.1661 -0.5430
 3451SOL    HW213803   2.990   2.109   3.802 -1.0118  0.9414 -0.3980
 3451SOL     MW13804   2.949   2.083   3.729 -0.3681 -0.2165 -0.3800
 3452SOL     OW13805   2.326   3.657   4.734 -0.5432  0.0492 -0.1629
 3452SOL    HW113806   2.237   3.662   4.698 -1.1561 -1.2703  1.0679
 3452SOL    HW213807   2.326   3.721   4.805 -0.7704 -0.5071  0.3425
 3452SOL     MW13808   2.314   3.666   4.738 -0.6507 -0.1909  0.0594
 3453SOL     OW13809   3.830   4.042   1.273 -0.5712 -0.1344 -0.3432
 3453SOL    HW113810   3.812   4.133   1.252 -0.2925  0.1709  0.6854
 3453SOL    HW213811   3.776   3.992   1.212 -1.5095  0.7251 -0.2355
 3453SOL     MW13812   3.821   4.047   1.262 -0.6557  0.0147 -0.1977
 3454SOL     OW13813   3.592   1.768   2.644 -0.2624  0.0578 -0.0968
 3454SOL    HW113814   3.601   1.675   2.665 -0.1629  0.2657  0.8302
 3454SOL    HW213815   3.653   1.782   2.571 -0.1351 -0.5547 -0.1158
 3454SOL     MW13816   3.601   1.758   2.637 -0.2334  0.0060  0.0195
 3455SOL     OW13817   2.524   4.393   1.024  0.0560 -0.0846  0.0386
 3455SOL    HW113818   2.430   4.395   1.012 -0.0433  1.4728  0.8081
 3455SOL    HW213819   2.551   4.485   1.022  1.0580 -0.1848  3.1487
 3455SOL     MW13820   2.516   4.405   1.022  0.1715  0.1019  0.5352
 3456SOL     OW13821   5.356   5.185   1.041  0.0032  0.0371 -0.0218
 3456SOL    HW113822   5.391   5.270   1.067 -0.0454  0.1441 -0.3065
 3456SOL    HW213823   5.350   5.136   1.123 -0.3855  0.4621  0.2123
 3456SOL     MW13824   5.359   5.190   1.055 -0.0528  0.1052 -0.0283
 3457SOL     OW13825   3.450   5.394   3.804 -0.0234  0.4315 -0.1703
 3457SOL    HW113826   3.471   5.485   3.778  1.3892 -0.1427 -1.2098
 3457SOL    HW213827   3.442   5.348   3.720 -2.0327 -0.1795  0.3078
 3457SOL     MW13828   3.452   5.400   3.790 -0.0998  0.2798 -0.2422
 3458SOL     OW13829   2.362   2.823   4.158  0.2028 -0.6649  0.2303
 3458SOL    HW113830   2.439   2.879   4.151 -1.9525  2.6372  1.1753
 3458SOL    HW213831   2.368   2.784   4.245  0.4393  0.1951  0.6091
 3458SOL     MW13832   2.372   2.825   4.168 -0.0429 -0.1321  0.3998
 3459SOL     OW13833   2.842   4.839   4.651 -0.3157 -0.1789  0.6405
 3459SOL    HW113834   2.765   4.834   4.594 -0.6997  0.4147  1.0991
 3459SOL    HW213835   2.846   4.753   4.693  0.8037 -1.1593 -1.3212
 3459SOL     MW13836   2.833   4.827   4.649 -0.2216 -0.2284  0.4481
 3460SOL     OW13837   0.477   0.242   4.586  0.2342  0.4130 -0.1224
 3460SOL    HW113838   0.552   0.201   4.544  0.2092  0.2167  0.0254
 3460SOL    HW213839   0.428   0.170   4.626  0.0484  0.5552 -0.0882
 3460SOL     MW13840   0.480   0.228   4.586  0.2072  0.4060 -0.0991
 3461SOL     OW13841   5.081   0.439   5.447 -0.5484  0.1359 -0.1898
 3461SOL    HW113842   5.009   0.379   5.427 -0.4594 -0.0857  0.1352
 3461SOL    HW213843   5.077   0.449   5.543 -0.9323  1.1177 -0.3058
 3461SOL     MW13844   5.072   0.432   5.457 -0.5862  0.2332 -0.1630
 3462SOL     OW13845   4.515   5.041   2.990  0.3819  0.4335  0.1680
 3462SOL    HW113846   4.545   5.045   3.081  0.8692  2.0646 -0.0295
 3462SOL    HW213847   4.464   5.121   2.978  0.9858  0.6404 -1.1981
 3462SOL     MW13848   4.513   5.052   3.000  0.5216  0.6688 -0.0321
 3463SOL     OW13849   3.331   1.120   4.976 -0.1209 -0.1876 -0.5367
 3463SOL    HW113850   3.324   1.108   4.881 -1.8991  1.7823 -0.7530
 3463SOL    HW213851   3.373   1.206   4.985 -1.1154  0.2092  0.4126
 3463SOL     MW13852   3.336   1.130   4.965 -0.4758  0.1154 -0.4429
 3464SOL     OW13853   4.968   0.731   3.077  0.4922 -0.3311 -0.5293
 3464SOL    HW113854   5.021   0.695   3.149  0.4784 -1.4001 -1.0432
 3464SOL    HW213855   4.886   0.758   3.119  1.2061  0.8654  0.1835
 3464SOL     MW13856   4.964   0.730   3.092  0.5818 -0.3148 -0.5038
 3465SOL     OW13857   0.560   0.930   0.430  0.3778 -0.1581 -0.3151
 3465SOL    HW113858   0.622   0.997   0.458 -0.7027  1.0738 -0.7654
 3465SOL    HW213859   0.493   0.978   0.381 -2.0062 -1.0899  1.7881
 3465SOL     MW13860   0.559   0.945   0.427 -0.0657 -0.1197 -0.1035
 3466SOL     OW13861   0.769   0.589   4.539  0.3696 -0.5937  0.0385
 3466SOL    HW113862   0.704   0.551   4.598 -0.6819  0.8906 -0.0898
 3466SOL    HW213863   0.725   0.590   4.453  0.8725 -0.3182 -0.2178
 3466SOL     MW13864   0.755   0.584   4.535  0.2994 -0.3684 -0.0107
 3467SOL     OW13865   1.901   1.251   4.584  0.5865  0.0896 -0.5176
 3467SOL    HW113866   1.966   1.192   4.622  0.7860  0.3930 -0.3825
 3467SOL    HW213867   1.817   1.211   4.606  0.5966  1.2774  2.0353
 3467SOL     MW13868   1.899   1.238   4.592  0.6134  0.2805 -0.1735
 3468SOL     OW13869   5.192   1.566   0.009  0.1970 -0.7402  0.2345
 3468SOL    HW113870   5.159   1.487  -0.034 -1.8944  0.8606 -1.2564
 3468SOL    HW213871   5.231   1.534   0.091 -0.7130 -3.2945 -0.2502
 3468SOL     MW13872   5.193   1.552   0.014 -0.1872 -0.8623 -0.0184
 3469SOL     OW13873   3.259   0.241   1.646  0.0396 -0.3257 -0.0933
 3469SOL    HW113874   3.232   0.158   1.687  0.3864 -0.8862 -0.9744
 3469SOL    HW213875   3.331   0.216   1.588  0.9012  0.7794  0.4655
 3469SOL     MW13876   3.265   0.227   1.644  0.1943 -0.2559 -0.1346
 3470SOL     OW13877   0.849   1.710   4.490 -0.0224 -0.1908 -0.2349
 3470SOL    HW113878   0.838   1.800   4.520 -2.5226 -0.5643  0.1092
 3470SOL    HW213879   0.920   1.715   4.426 -0.1436  2.0191 -0.2597
 3470SOL     MW13880   0.857   1.722   4.486 -0.3580  0.0443 -0.1941
 3471SOL     OW13881   4.736   1.430   4.137  0.2342 -0.5669  0.0786
 3471SOL    HW113882   4.655   1.419   4.187  0.7407 -2.3821  0.5974
 3471SOL    HW213883   4.749   1.524   4.131 -1.2914 -0.2735  1.0069
 3471SOL     MW13884   4.728   1.440   4.143  0.1037 -0.7617  0.2638
 3472SOL     OW13885   0.288   2.512   1.457 -0.2983 -0.0233 -0.3487
 3472SOL    HW113886   0.194   2.509   1.438 -0.5179  0.8640  0.5196
 3472SOL    HW213887   0.330   2.501   1.372 -1.1699 -1.1075 -0.6674
 3472SOL     MW13888   0.281   2.510   1.444 -0.4380 -0.0485 -0.2783
 3473SOL     OW13889   2.952   0.811   1.641 -0.0678  0.3731  0.0956
 3473SOL    HW113890   2.905   0.894   1.650 -2.5707 -0.7965 -1.0911
 3473SOL    HW213891   2.915   0.755   1.709 -2.1467 -1.2266 -2.1529
 3473SOL     MW13892   2.941   0.815   1.651 -0.6543  0.0186 -0.3442
 3474SOL     OW13893   1.043   2.442   1.668 -0.0032 -0.1996  0.1998
 3474SOL    HW113894   1.066   2.464   1.578  0.0255 -0.0430  0.2465
 3474SOL    HW213895   1.126   2.439   1.714  0.0337 -0.7988  0.1055
 3474SOL     MW13896   1.056   2.444   1.662  0.0052 -0.2562  0.1937
 3475SOL     OW13897   1.028   3.271   1.443 -0.5513  0.4143  0.2275
 3475SOL    HW113898   0.966   3.203   1.471 -0.5517 -0.0544 -0.8739
 3475SOL    HW213899   0.973   3.348   1.429 -0.6077  0.5422  1.0847
 3475SOL     MW13900   1.013   3.272   1.445 -0.5586  0.3707  0.1962
 3476SOL     OW13901   4.909   2.758   2.506  0.0847  0.1421  0.0716
 3476SOL    HW113902   4.857   2.827   2.547  0.8936  0.1409  1.1591
 3476SOL    HW213903   4.977   2.738   2.570  1.0462 -0.2997 -1.0398
 3476SOL     MW13904   4.911   2.764   2.519  0.3113  0.0854  0.0686
 3477SOL     OW13905   2.723   1.835   5.049  0.3433  0.5732  0.0263
 3477SOL    HW113906   2.745   1.910   5.104  1.4084 -1.2305  2.2207
 3477SOL    HW213907   2.628   1.829   5.054  0.2328  1.7971 -0.2680
 3477SOL     MW13908   2.714   1.844   5.056  0.4655  0.4989  0.2696
 3478SOL     OW13909   4.063   4.983   2.885  0.0017 -0.0336 -0.0293
 3478SOL    HW113910   4.111   4.939   2.815 -0.1300  0.2212 -0.2841
 3478SOL    HW213911   4.070   4.924   2.960 -1.3578 -1.1764 -0.7505
 3478SOL     MW13912   4.070   4.970   2.886 -0.1892 -0.1472 -0.1542
 3479SOL     OW13913   0.761   2.507   0.306  0.0593 -0.0435 -0.0770
 3479SOL    HW113914   0.692   2.448   0.278  0.0045  0.3564 -0.8144
 3479SOL    HW213915   0.784   2.556   0.227  2.0551 -1.0346 -0.1749
 3479SOL     MW13916   0.756   2.506   0.292  0.3078 -0.1192 -0.1839
 3480SOL     OW13917   2.381   2.062   5.024  0.2602 -0.1044  0.4704
 3480SOL    HW113918   2.436   2.087   4.950 -0.6673  1.5313  0.2800
 3480SOL    HW213919   2.322   1.996   4.988  0.4374 -0.0118  0.0003
 3480SOL     MW13920   2.380   2.057   5.010  0.1642  0.1168  0.3859
 3481SOL     OW13921   2.581   5.404   3.288  0.0532 -0.0536  0.4076
 3481SOL    HW113922   2.496   5.421   3.245 -0.2845  0.2852  1.1870
 3481SOL    HW213923   2.570   5.319   3.329  1.2241 -1.5768 -2.2040
 3481SOL     MW13924   2.568   5.395   3.288  0.1599 -0.2052  0.1730
 3482SOL     OW13925   5.047   3.914   4.606 -0.3843 -0.4402  0.4964
 3482SOL    HW113926   4.985   3.981   4.576 -0.7155 -1.3327 -0.9018
 3482SOL    HW213927   5.080   3.947   4.689 -2.3665  0.2902  1.0312
 3482SOL     MW13928   5.044   3.927   4.612 -0.6805 -0.4609  0.3859
 3483SOL     OW13929   5.065   2.854   1.232 -0.4789 -0.2868 -0.2289
 3483SOL    HW113930   5.131   2.796   1.270 -0.5157  1.3378  2.5313
 3483SOL    HW213931   4.985   2.835   1.281 -1.2050  0.1935 -1.1791
 3483SOL     MW13932   5.063   2.844   1.243 -0.5766 -0.0174  0.0028
 3484SOL     OW13933   1.777   1.655   1.335 -0.0800 -0.0193 -0.4673
 3484SOL    HW113934   1.842   1.724   1.323 -0.8644  0.8236 -0.0056
 3484SOL    HW213935   1.735   1.676   1.418  0.6435 -1.8898  0.4231
 3484SOL     MW13936   1.780   1.666   1.344 -0.0878 -0.1508 -0.2942
 3485SOL     OW13937   5.039   0.152   3.504 -0.3222 -0.0927  0.4021
 3485SOL    HW113938   5.020   0.075   3.450  0.4425 -0.6487  0.9029
 3485SOL    HW213939   5.006   0.226   3.453 -1.3359 -0.7740  0.0491
 3485SOL     MW13940   5.033   0.151   3.490 -0.3541 -0.2511  0.4210
 3486SOL     OW13941   1.520   5.162   0.109 -0.1981  0.2159 -0.7588
 3486SOL    HW113942   1.462   5.225   0.152 -0.1138 -0.5135  0.4438
 3486SOL    HW213943   1.470   5.133   0.032 -1.3907 -0.3036  0.1890
 3486SOL     MW13944   1.506   5.166   0.104 -0.3400  0.0560 -0.4836
 3487SOL     OW13945   5.220   0.897   3.584  0.0810 -0.2357  0.3991
 3487SOL    HW113946   5.158   0.941   3.643  1.6953  0.7224  1.4593
 3487SOL    HW213947   5.186   0.808   3.576 -0.6117 -0.1705  2.1942
 3487SOL     MW13948   5.207   0.891   3.591  0.1990 -0.1047  0.7646
 3488SOL     OW13949   4.514   1.060   0.302  0.1515 -0.3351  0.3530
 3488SOL    HW113950   4.550   1.140   0.339  1.7041 -0.5081 -0.6911
 3488SOL    HW213951   4.496   1.081   0.211 -1.7127 -0.5025  0.6490
 3488SOL     MW13952   4.517   1.073   0.295  0.1116 -0.3787  0.2572
 3489SOL     OW13953   2.854   1.615   1.665 -0.2663 -0.3713 -0.1254
 3489SOL    HW113954   2.904   1.694   1.645  0.3372 -0.6385  0.2988
 3489SOL    HW213955   2.810   1.592   1.582  0.8166 -0.4910 -0.6820
 3489SOL     MW13956   2.854   1.622   1.652 -0.0504 -0.4208 -0.1423
 3490SOL     OW13957   4.580   3.646   2.897  0.3208 -0.7188  0.3533
 3490SOL    HW113958   4.608   3.671   2.985  0.7749 -0.3858  0.1194
 3490SOL    HW213959   4.517   3.714   2.872 -1.6682 -2.0941  1.3374
 3490SOL     MW13960   4.575   3.658   2.905  0.1243 -0.8522  0.4493
 3491SOL     OW13961   4.053   0.407   2.754 -0.9620 -0.0551 -0.2337
 3491SOL    HW113962   4.006   0.328   2.730  0.4513 -1.4141  1.2405
 3491SOL    HW213963   4.036   0.418   2.847  0.2819  0.3407 -0.0310
 3491SOL     MW13964   4.045   0.399   2.762 -0.6218 -0.1784 -0.0191
 3492SOL     OW13965   2.541   3.941   3.215 -0.0003  0.0748 -0.6647
 3492SOL    HW113966   2.462   3.888   3.222  0.3706 -0.4968 -0.7278
 3492SOL    HW213967   2.603   3.886   3.167  1.8304 -1.1667  2.7409
 3492SOL     MW13968   2.539   3.927   3.210  0.2815 -0.1573 -0.2368
 3493SOL     OW13969   3.559   5.003   3.794 -0.1509  0.0156 -0.5203
 3493SOL    HW113970   3.543   4.922   3.745 -1.5239 -0.2255  0.2444
 3493SOL    HW213971   3.491   5.002   3.862 -0.1128  1.7580 -0.4238
 3493SOL     MW13972   3.548   4.992   3.797 -0.3218  0.2078 -0.4101
 3494SOL     OW13973   1.087   2.907   3.194 -0.1839  0.4891  0.4572
 3494SOL    HW113974   1.172   2.940   3.165 -0.3144 -1.0186 -1.9160
 3494SOL    HW213975   1.023   2.954   3.140 -0.5728 -1.0431 -0.4746
 3494SOL     MW13976   1.089   2.917   3.183 -0.2504  0.0999  0.0341
 3495SOL     OW13977   3.879   4.416   0.537  0.1779  0.3031  0.1627
 3495SOL    HW113978   3.961   4.380   0.503  0.1482  0.2403  0.1583
 3495SOL    HW213979   3.812   4.357   0.504  0.2621 -0.5818  1.4875
 3495SOL     MW13980   3.881   4.404   0.528  0.1848  0.1818  0.3317
 3496SOL     OW13981   3.261   0.291   5.342  0.0990 -0.3149  0.0638
 3496SOL    HW113982   3.247   0.207   5.386  0.3688 -0.1801  0.4026
 3496SOL    HW213983   3.355   0.293   5.323  0.1640  0.0992  0.4338
 3496SOL     MW13984   3.271   0.280   5.345  0.1418 -0.2447  0.1546
 3497SOL     OW13985   3.899   3.011   3.490  0.5217  0.1986 -0.3087
 3497SOL    HW113986   3.973   3.072   3.483  1.1746 -0.3889  0.9847
 3497SOL    HW213987   3.882   3.005   3.584 -1.2561  0.3886 -0.5929
 3497SOL     MW13988   3.907   3.018   3.501  0.3777  0.1477 -0.1795
 3498SOL     OW13989   4.658   0.916   0.848  0.6758  0.6493 -0.7447
 3498SOL    HW113990   4.730   0.949   0.794  2.3897  0.7044  1.4613
 3498SOL    HW213991   4.635   0.990   0.905  1.4937 -0.4744  1.1414
 3498SOL     MW13992   4.664   0.930   0.848  0.9999  0.5125 -0.2208
 3499SOL     OW13993   0.681   3.852   0.010  0.0946 -0.2615  0.5984
 3499SOL    HW113994   0.595   3.890  -0.013 -0.6984 -0.3978  3.0515
 3499SOL    HW213995   0.741   3.927   0.007  0.2738 -0.4190 -2.5633
 3499SOL     MW13996   0.677   3.867   0.007  0.0160 -0.2991  0.5077
 3500SOL     OW13997   4.075   0.958   2.831 -0.1564  0.3903  0.0984
 3500SOL    HW113998   4.017   0.883   2.823  0.5577 -0.1206 -0.4741
 3500SOL    HW213999   4.062   0.990   2.920 -0.1982 -0.6494  0.4783
 3500SOL     MW14000   4.066   0.953   2.841 -0.0703  0.1918  0.0738
 3501SOL     OW14001   3.832   0.445   0.998  0.1993  0.5810  0.6634
 3501SOL    HW114002   3.854   0.393   1.075 -1.3751 -0.1121  0.6786
 3501SOL    HW214003   3.742   0.474   1.013 -0.8521 -1.1174 -1.7088
 3501SOL     MW14004   3.824   0.442   1.010 -0.1368  0.2749  0.3617
 3502SOL     OW14005   2.848   3.489   0.032 -0.2194 -0.1540  0.1299
 3502SOL    HW114006   2.914   3.554   0.055 -0.6267  0.2426  0.1834
 3502SOL    HW214007   2.796   3.531  -0.036 -0.3712 -0.4941  0.0362
 3502SOL     MW14008   2.850   3.503   0.026 -0.2910 -0.1467  0.1247
 3503SOL     OW14009   0.500   0.415   2.119  0.0998 -0.2794  0.2903
 3503SOL    HW114010   0.506   0.411   2.214  0.6592 -0.2126  0.2586
 3503SOL    HW214011   0.412   0.448   2.102 -0.7005 -2.0350  0.7561
 3503SOL     MW14012   0.489   0.419   2.129  0.0690 -0.4956  0.3459
 3504SOL     OW14013   2.165   3.211   5.466 -0.0324 -0.0394  0.2504
 3504SOL    HW114014   2.154   3.143   5.400 -0.4521  2.0201 -1.9642
 3504SOL    HW214015   2.078   3.226   5.501  0.0306 -0.5013  0.6102
 3504SOL     MW14016   2.153   3.204   5.462 -0.0781  0.1652  0.0129
 3505SOL     OW14017   4.485   5.312   4.111 -0.3167 -0.0264 -0.0312
 3505SOL    HW114018   4.394   5.295   4.134 -0.0867 -0.7506  0.3631
 3505SOL    HW214019   4.528   5.227   4.119 -0.0628 -0.1877 -2.4207
 3505SOL     MW14020   4.479   5.299   4.115 -0.2548 -0.1398 -0.2866
 3506SOL     OW14021   0.848   2.133   4.343  0.2047 -0.0599 -0.1481
 3506SOL    HW114022   0.753   2.122   4.330  0.4178  0.2416 -2.3862
 3506SOL    HW214023   0.887   2.057   4.301  0.9694 -0.0395  0.5213
 3506SOL     MW14024   0.841   2.122   4.336  0.3299 -0.0187 -0.3489
 3507SOL     OW14025   3.426   2.065   0.673  0.1405 -0.1651  0.1342
 3507SOL    HW114026   3.421   2.137   0.735  0.1410  0.3628 -0.4761
 3507SOL    HW214027   3.420   2.106   0.587 -0.7383 -0.9588 -0.2070
 3507SOL     MW14028   3.425   2.079   0.670  0.0280 -0.1991  0.0124
 3508SOL     OW14029   1.478   0.823   0.868 -0.4221  0.6310 -0.3277
 3508SOL    HW114030   1.497   0.911   0.898  2.1100  0.2123 -0.4453
 3508SOL    HW214031   1.415   0.834   0.797 -0.6155  2.2624  0.0730
 3508SOL     MW14032   1.472   0.835   0.863 -0.1227  0.7862 -0.2915
 3509SOL     OW14033   1.654   3.560   0.279 -0.6128 -0.3627 -0.2206
 3509SOL    HW114034   1.650   3.588   0.370 -1.4192 -0.6336 -0.1663
 3509SOL    HW214035   1.608   3.629   0.231 -1.0534 -0.7084 -0.2998
 3509SOL     MW14036   1.648   3.572   0.284 -0.7724 -0.4416 -0.2238
 3510SOL     OW14037   2.003   0.052   0.168 -0.2682  0.2656 -0.4932
 3510SOL    HW114038   2.061   0.050   0.091  1.4069 -0.4635  0.7203
 3510SOL    HW214039   2.046   0.112   0.228  0.0275 -1.3626  1.0016
 3510SOL     MW14040   2.016   0.059   0.166 -0.0159 -0.0362 -0.1465
 3511SOL     OW14041   1.014   4.398   5.061 -0.1865 -0.2817 -0.2088
 3511SOL    HW114042   0.981   4.310   5.042 -0.3769  0.0571 -1.5453
 3511SOL    HW214043   1.104   4.384   5.089 -0.4989 -0.9658  0.5036
 3511SOL     MW14044   1.021   4.385   5.062 -0.2509 -0.3259 -0.2887
 3512SOL     OW14045   1.946   0.319   0.771  0.0280  0.1622  0.2067
 3512SOL    HW114046   1.891   0.307   0.693 -1.4143 -2.1947  1.4863
 3512SOL    HW214047   1.891   0.368   0.832  0.6643  0.8296  0.2608
 3512SOL     MW14048   1.932   0.324   0.768 -0.0752 -0.0541  0.3774
 3513SOL     OW14049   4.939   3.934   0.120  0.1036 -0.5406 -0.7265
 3513SOL    HW114050   4.845   3.927   0.136  0.0154 -1.8118 -1.6538
 3513SOL    HW214051   4.968   4.005   0.178 -1.3475 -0.3851 -0.1483
 3513SOL     MW14052   4.931   3.942   0.130 -0.0935 -0.6835 -0.7712
 3514SOL     OW14053   4.162   0.067   0.006  0.4106  0.2461 -0.0548
 3514SOL    HW114054   4.224  -0.005   0.008  1.2027  0.8139 -1.7653
 3514SOL    HW214055   4.076   0.026   0.020  0.9867 -0.7809  0.5865
 3514SOL     MW14056   4.159   0.053   0.008  0.5857  0.1873 -0.1917
 3515SOL     OW14057   1.733   0.465   5.445 -0.6317 -0.1206  0.2168
 3515SOL    HW114058   1.777   0.537   5.399 -0.2866 -0.4044  0.0984
 3515SOL    HW214059   1.655   0.447   5.392 -0.3710 -0.2712 -0.1207
 3515SOL     MW14060   1.729   0.472   5.432 -0.5541 -0.1762  0.1584
 3516SOL     OW14061   2.401   3.728   0.112  0.4144  0.3096  0.2658
 3516SOL    HW114062   2.447   3.760   0.034 -0.5950  3.0639  0.6638
 3516SOL    HW214063   2.468   3.725   0.180  1.1336 -1.3251 -0.4765
 3516SOL     MW14064   2.416   3.732   0.111  0.3772  0.4529  0.2217
 3517SOL     OW14065   4.944   1.176   4.527  0.2328 -0.4776  0.0381
 3517SOL    HW114066   5.030   1.150   4.560  0.6844 -0.7267 -1.3003
 3517SOL    HW214067   4.962   1.248   4.467 -0.8095  1.6441  2.1096
 3517SOL     MW14068   4.957   1.182   4.524  0.1572 -0.2379  0.1320
 3518SOL     OW14069   2.282   2.632   1.373  0.0467  0.1576  0.0091
 3518SOL    HW114070   2.286   2.721   1.338  0.2224  0.4071  0.6524
 3518SOL    HW214071   2.374   2.606   1.383 -0.0017  0.1607  0.4611
 3518SOL     MW14072   2.294   2.640   1.370  0.0630  0.1899  0.1493
 3519SOL     OW14073   2.783   2.726   2.507 -0.4215  0.1152  0.0098
 3519SOL    HW114074   2.700   2.774   2.513 -0.1969  0.4345  0.6573
 3519SOL    HW214075   2.843   2.788   2.466 -0.2960  0.1737  0.2765
 3519SOL     MW14076   2.780   2.740   2.503 -0.3767  0.1636  0.1268
 3520SOL     OW14077   4.703   1.874   2.722 -0.2052  0.1297  0.0030
 3520SOL    HW114078   4.714   1.924   2.642 -1.1788  0.3428 -0.0075
 3520SOL    HW214079   4.670   1.936   2.786 -0.1611 -0.2078  0.3622
 3520SOL     MW14080   4.700   1.888   2.720 -0.3242  0.1138  0.0476
 3521SOL     OW14081   5.011   1.936   1.512  0.4107  0.0660 -0.4499
 3521SOL    HW114082   5.017   1.967   1.422  1.0165  0.0002 -0.4351
 3521SOL    HW214083   4.944   1.868   1.510  0.2829  0.2046 -0.8123
 3521SOL     MW14084   5.003   1.931   1.501  0.4719  0.0753 -0.4944
 3522SOL     OW14085   1.441   1.808   5.343  0.0288  0.1177  0.0861
 3522SOL    HW114086   1.482   1.876   5.289 -0.5264  1.6372  1.5033
 3522SOL    HW214087   1.474   1.726   5.306  2.1301  1.1786 -0.5894
 3522SOL     MW14088   1.451   1.806   5.331  0.2267  0.4480  0.1810
 3523SOL     OW14089   4.813   1.111   4.988  0.4025  0.1043  0.0638
 3523SOL    HW114090   4.843   1.076   4.904 -0.2977  1.4858 -0.8062
 3523SOL    HW214091   4.887   1.098   5.048  1.3515  0.1375 -1.0700
 3523SOL     MW14092   4.826   1.105   4.985  0.4343  0.2854 -0.1927
 3524SOL     OW14093   4.718   4.968   2.815 -0.1649 -0.0204  0.4324
 3524SOL    HW114094   4.638   5.012   2.842  0.0899  0.1323  0.9541
 3524SOL    HW214095   4.707   4.951   2.721 -0.4672  0.7122  0.3336
 3524SOL     MW14096   4.707   4.971   2.806 -0.1710  0.0929  0.4866
 3525SOL     OW14097   2.239   3.702   3.045 -0.2665 -0.5567 -0.1121
 3525SOL    HW114098   2.186   3.763   2.993  0.7176 -1.0310 -1.7596
 3525SOL    HW214099   2.179   3.631   3.067 -0.1079 -1.7935 -3.1631
 3525SOL     MW14100   2.225   3.701   3.041 -0.1202 -0.7758 -0.7136
 3526SOL     OW14101   0.165   0.948   2.108 -0.0067  0.3158  0.0062
 3526SOL    HW114102   0.254   0.977   2.127 -0.0316  0.0482  0.5291
 3526SOL    HW214103   0.119   0.955   2.191 -0.8717  1.8388 -0.5622
 3526SOL     MW14104   0.171   0.952   2.121 -0.1206  0.4765  0.0004
 3527SOL     OW14105   1.657   0.642   0.177 -0.4060 -0.3648 -0.0805
 3527SOL    HW114106   1.721   0.629   0.247 -1.5521 -2.3652  0.6986
 3527SOL    HW214107   1.674   0.571   0.115  0.2729  1.0906 -1.6353
 3527SOL     MW14108   1.667   0.631   0.178 -0.4658 -0.4345 -0.1798
 3528SOL     OW14109   2.903   2.978   2.370  0.1351 -0.1614  0.2479
 3528SOL    HW114110   2.934   3.055   2.418 -1.0518 -0.6652  1.9198
 3528SOL    HW214111   2.982   2.930   2.348  0.8661  1.2976 -0.4498
 3528SOL     MW14112   2.917   2.982   2.374  0.0768 -0.0391  0.3726
 3529SOL     OW14113   4.056   0.697   5.251 -0.0110  0.6025 -0.1651
 3529SOL    HW114114   4.123   0.641   5.211  0.1157  1.2427 -0.8997
 3529SOL    HW214115   4.038   0.657   5.335  1.0724  0.2303 -0.0856
 3529SOL     MW14116   4.063   0.685   5.256  0.1439  0.6368 -0.2490
 3530SOL     OW14117   3.463   1.065   5.337  0.1670  0.0279 -0.1943
 3530SOL    HW114118   3.514   0.985   5.326  0.9862  0.3655  0.9427
 3530SOL    HW214119   3.376   1.043   5.305  0.5082 -1.1762 -0.3363
 3530SOL     MW14120   3.459   1.052   5.332  0.3156 -0.0830 -0.0669
 3531SOL     OW14121   2.911   0.963   0.153 -0.1615 -0.0992 -0.0395
 3531SOL    HW114122   2.911   1.042   0.207 -0.5792 -0.2872  0.2447
 3531SOL    HW214123   2.993   0.967   0.104  1.2352 -0.9395  2.1190
 3531SOL     MW14124   2.921   0.974   0.154 -0.0362 -0.2308  0.2732
 3532SOL     OW14125   0.976   1.667   5.321 -0.6346 -0.3077 -0.3573
 3532SOL    HW114126   0.888   1.705   5.314 -1.0417 -1.1918 -0.2546
 3532SOL    HW214127   1.005   1.658   5.230 -0.9336 -0.6299 -0.4246
 3532SOL     MW14128   0.968   1.671   5.308 -0.7250 -0.4621 -0.3528
 3533SOL     OW14129   5.351   4.401   0.308 -0.1707  0.2270 -0.0676
 3533SOL    HW114130   5.446   4.410   0.314 -0.0707 -0.7765  0.1559
 3533SOL    HW214131   5.334   4.313   0.341 -1.1527  0.2835 -0.3940
 3533SOL     MW14132   5.361   4.391   0.313 -0.2836  0.1057 -0.0808
 3534SOL     OW14133   0.154   0.657   1.074 -0.3214 -0.6134  0.2831
 3534SOL    HW114134   0.083   0.658   1.010 -0.3445 -0.1488  0.3148
 3534SOL    HW214135   0.141   0.735   1.127  1.2915  0.5452 -0.9150
 3534SOL     MW14136   0.143   0.667   1.072 -0.1179 -0.4056  0.1338
 3535SOL     OW14137   1.938   0.326   1.749 -0.0025 -0.5056 -0.0365
 3535SOL    HW114138   2.011   0.290   1.699 -0.4997  0.0095 -1.1494
 3535SOL    HW214139   1.977   0.398   1.799  0.3343 -0.5149 -0.2854
 3535SOL     MW14140   1.952   0.331   1.749 -0.0230 -0.4408 -0.2109
 3536SOL     OW14141   2.378   2.206   3.030  0.1108  0.4505 -0.1580
 3536SOL    HW114142   2.373   2.299   3.053 -3.0863  0.8849 -1.9957
 3536SOL    HW214143   2.472   2.187   3.028  0.8888  3.5744  0.4375
 3536SOL     MW14144   2.389   2.215   3.033 -0.1989  0.9060 -0.3170
 3537SOL     OW14145   1.320   1.148   3.490 -0.2593  0.1706  0.5410
 3537SOL    HW114146   1.371   1.229   3.486  2.4459 -1.3647  1.3134
 3537SOL    HW214147   1.354   1.096   3.418 -1.2161 -0.6703  0.6929
 3537SOL     MW14148   1.331   1.152   3.481 -0.0355 -0.1336  0.6593
 3538SOL     OW14149   4.199   0.401   1.658 -0.3858 -0.2846 -0.0524
 3538SOL    HW114150   4.133   0.455   1.701 -0.5744  0.4178 -1.1845
 3538SOL    HW214151   4.230   0.454   1.585 -0.7025 -1.7579 -1.3331
 3538SOL     MW14152   4.195   0.414   1.654 -0.4505 -0.3833 -0.3613
 3539SOL     OW14153   1.011   0.834   5.396 -0.0759 -0.3034 -0.1437
 3539SOL    HW114154   0.977   0.750   5.365 -0.0064 -1.0134  1.5855
 3539SOL    HW214155   0.965   0.900   5.344 -0.8296 -1.3783 -0.8732
 3539SOL     MW14156   1.001   0.832   5.385 -0.1635 -0.5319 -0.0158
 3540SOL     OW14157   3.215   0.611   1.869 -0.0925 -0.0384  0.1714
 3540SOL    HW114158   3.144   0.566   1.915  0.8260 -1.8468 -0.0811
 3540SOL    HW214159   3.184   0.618   1.779 -0.5454  0.5434  0.3647
 3540SOL     MW14160   3.202   0.606   1.863 -0.0329 -0.1954  0.1638
 3541SOL     OW14161   2.592   4.448   4.589  0.7685 -0.7844 -0.6187
 3541SOL    HW114162   2.664   4.387   4.579 -0.2605 -2.6319  2.2601
 3541SOL    HW214163   2.513   4.394   4.581 -0.1746 -0.0180  2.3916
 3541SOL     MW14164   2.591   4.434   4.586  0.5160 -0.9228  0.1352
 3542SOL     OW14165   4.704   4.015   3.579 -0.1039 -0.3816 -0.5427
 3542SOL    HW114166   4.799   4.026   3.578 -0.1294 -0.1686 -0.4912
 3542SOL    HW214167   4.688   3.954   3.651  0.2933 -3.0931 -2.5547
 3542SOL     MW14168   4.714   4.008   3.588 -0.0564 -0.7015 -0.7937
 3543SOL     OW14169   2.564   1.664   1.035  0.1187  0.0930 -0.2843
 3543SOL    HW114170   2.658   1.682   1.033  0.1601 -0.0280  0.2302
 3543SOL    HW214171   2.556   1.573   1.005  0.2908 -0.2932  0.7748
 3543SOL     MW14172   2.575   1.654   1.031  0.1461  0.0281 -0.0829
 3544SOL     OW14173   1.090   1.616   0.960  0.3972 -0.6164  0.2615
 3544SOL    HW114174   1.134   1.535   0.986 -0.2241 -1.0922 -0.1155
 3544SOL    HW214175   1.014   1.586   0.909  0.6438  0.2291 -0.6227
 3544SOL     MW14176   1.086   1.602   0.957  0.3492 -0.5691  0.1001
 3545SOL     OW14177   5.426   4.387   3.542  0.2954  0.3007 -0.5788
 3545SOL    HW114178   5.345   4.339   3.523 -0.2741  0.6112  0.9668
 3545SOL    HW214179   5.464   4.342   3.617  1.6315  0.1016 -1.3435
 3545SOL     MW14180   5.420   4.375   3.549  0.3935  0.3150 -0.4788
 3546SOL     OW14181   2.559   2.336   4.431 -0.0746  0.1431  0.0855
 3546SOL    HW114182   2.593   2.370   4.513 -3.5406  1.6841  1.0567
 3546SOL    HW214183   2.550   2.413   4.375 -4.0610  0.3849  0.8049
 3546SOL     MW14184   2.562   2.350   4.434 -1.0286  0.3713  0.3019
 3547SOL     OW14185   1.433   2.944   4.375  0.0698  0.6535 -0.1466
 3547SOL    HW114186   1.372   2.908   4.439  1.6368 -1.4969  0.2235
 3547SOL    HW214187   1.395   2.922   4.290 -1.3016  2.2827 -0.0001
 3547SOL     MW14188   1.420   2.937   4.372  0.0948  0.5868 -0.0804
 3548SOL     OW14189   2.939   2.946   1.729 -0.2697 -0.6101  0.5019
 3548SOL    HW114190   2.948   2.852   1.748  0.5774 -0.3234  1.6210
 3548SOL    HW214191   2.909   2.984   1.812 -1.2199  0.0358 -0.1210
 3548SOL     MW14192   2.937   2.939   1.742 -0.2829 -0.4907  0.5655
 3549SOL     OW14193   2.985   2.056   1.399  0.2535  0.1135  0.0392
 3549SOL    HW114194   3.058   2.088   1.346  0.6953 -2.8110 -1.3161
 3549SOL    HW214195   2.947   1.985   1.348 -2.2795  0.1764  1.6387
 3549SOL     MW14196   2.989   2.051   1.386 -0.0142 -0.2528  0.0705
 3550SOL     OW14197   0.801   0.528   3.039  0.0002  0.1359  0.0239
 3550SOL    HW114198   0.882   0.506   2.992  0.9755  1.8076  0.8086
 3550SOL    HW214199   0.829   0.540   3.130 -1.1047  0.8510  0.2915
 3550SOL     MW14200   0.815   0.527   3.045 -0.0164  0.4414  0.1586
 3551SOL     OW14201   2.494   2.445   5.384 -0.1496  0.2724  0.3350
 3551SOL    HW114202   2.489   2.533   5.348  0.6789 -0.1751 -0.9422
 3551SOL    HW214203   2.552   2.398   5.324  2.0938 -0.2704  2.7814
 3551SOL     MW14204   2.501   2.450   5.372  0.2436  0.1456  0.4847
 3552SOL     OW14205   0.362   1.049   0.278  0.1827  0.1437 -0.1349
 3552SOL    HW114206   0.305   1.107   0.227  0.3716 -0.0060 -0.5251
 3552SOL    HW214207   0.311   0.969   0.290  0.0506  0.2642  0.1110
 3552SOL     MW14208   0.349   1.046   0.273  0.1900  0.1400 -0.1534
 3553SOL     OW14209   3.738   1.401   3.629 -0.3442 -0.5275 -0.3876
 3553SOL    HW114210   3.816   1.457   3.629 -0.0294 -0.9348 -1.4194
 3553SOL    HW214211   3.671   1.452   3.675  0.0684  0.5175 -0.9135
 3553SOL     MW14212   3.739   1.415   3.635 -0.2511 -0.4459 -0.5870
 3554SOL     OW14213   4.441   0.819   0.050  0.2205 -0.0675  0.3498
 3554SOL    HW114214   4.532   0.841   0.069  0.0053  0.5795  0.6833
 3554SOL    HW214215   4.431   0.729   0.081  0.2947  0.4461  1.9813
 3554SOL     MW14216   4.451   0.810   0.057  0.2024  0.0811  0.6013
 3555SOL     OW14217   0.800   1.710   3.203  0.3030  0.6459  0.1062
 3555SOL    HW114218   0.800   1.725   3.297  2.0828 -0.0262  0.2480
 3555SOL    HW214219   0.859   1.777   3.169  0.3578  0.3189 -0.4421
 3555SOL     MW14220   0.807   1.721   3.211  0.5378  0.5180  0.0542
 3556SOL     OW14221   0.204   3.479   5.176 -0.5024 -0.2321 -0.2028
 3556SOL    HW114222   0.292   3.470   5.212 -0.6223  0.2922  0.2334
 3556SOL    HW214223   0.159   3.399   5.204  0.3090 -1.3267 -1.8683
 3556SOL     MW14224   0.210   3.467   5.184 -0.4138 -0.3051 -0.3602
 3557SOL     OW14225   1.593   1.466   0.508 -0.3307 -0.1515  0.4695
 3557SOL    HW114226   1.561   1.388   0.555 -0.1959 -0.6923 -0.3153
 3557SOL    HW214227   1.514   1.505   0.470 -0.1435 -1.3591 -1.2772
 3557SOL     MW14228   1.578   1.461   0.509 -0.2895 -0.3753  0.1454
 3558SOL     OW14229   5.488   0.896   1.682 -0.1901 -0.3479 -0.0634
 3558SOL    HW114230   5.451   0.874   1.767  0.1514 -0.1321  0.1411
 3558SOL    HW214231   5.418   0.946   1.638 -0.4443 -0.6377  0.0052
 3558SOL     MW14232   5.474   0.900   1.687 -0.1789 -0.3574 -0.0284
 3559SOL     OW14233   1.572   1.471   4.661  0.0054 -0.7415 -0.1171
 3559SOL    HW114234   1.574   1.403   4.729 -0.8986 -0.4795  0.1914
 3559SOL    HW214235   1.620   1.433   4.588 -0.0412 -1.5118  0.2364
 3559SOL     MW14236   1.578   1.457   4.660 -0.1163 -0.8066 -0.0324
 3560SOL     OW14237   4.732   1.736   0.251  0.4561 -0.3509 -0.1908
 3560SOL    HW114238   4.651   1.722   0.202 -0.5458 -2.4709  1.8723
 3560SOL    HW214239   4.797   1.680   0.209 -0.0900 -1.2699  0.1608
 3560SOL     MW14240   4.730   1.727   0.240  0.2579 -0.7399  0.1183
 3561SOL     OW14241   2.699   2.829   1.275 -0.0702  0.0814  0.6812
 3561SOL    HW114242   2.747   2.810   1.195 -2.5685  1.2930 -1.2252
 3561SOL    HW214243   2.767   2.855   1.338  2.0911 -2.2680 -0.5229
 3561SOL     MW14244   2.714   2.830   1.273 -0.1133 -0.0643  0.2831
 3562SOL     OW14245   5.109   1.398   3.616 -0.2957  0.3168 -0.8051
 3562SOL    HW114246   5.186   1.357   3.656  0.5401  1.3111 -1.3371
 3562SOL    HW214247   5.064   1.326   3.571  0.6713 -0.1779 -1.0099
 3562SOL     MW14248   5.113   1.384   3.615 -0.0649  0.3807 -0.8994
 3563SOL     OW14249   4.591   0.337   5.148  0.2794  0.5597  0.1363
 3563SOL    HW114250   4.597   0.373   5.060 -0.0643  1.6920  0.5603
 3563SOL    HW214251   4.505   0.366   5.180  0.0787 -0.4747  0.5720
 3563SOL     MW14252   4.581   0.345   5.141  0.2097  0.5722  0.2464
 3564SOL     OW14253   3.306   3.636   2.367 -0.4385 -0.2257 -0.1784
 3564SOL    HW114254   3.276   3.609   2.281  0.4905  0.8948 -0.8820
 3564SOL    HW214255   3.255   3.714   2.387  1.0935  1.0162 -0.8787
 3564SOL     MW14256   3.296   3.642   2.359 -0.1235  0.0767 -0.3581
 3565SOL     OW14257   4.945   3.957   3.246  0.0292  0.3273  0.0712
 3565SOL    HW114258   4.925   3.957   3.153  0.9630  1.1953 -0.1514
 3565SOL    HW214259   4.936   4.049   3.272  1.9927  0.4928  0.3084
 3565SOL     MW14260   4.941   3.969   3.238  0.4001  0.4596  0.0731
 3566SOL     OW14261   2.525   4.522   0.181 -0.3016  0.0045 -0.8653
 3566SOL    HW114262   2.510   4.613   0.156  0.0263  0.6061  0.9699
 3566SOL    HW214263   2.490   4.516   0.269  0.3969 -1.4455 -0.6662
 3566SOL     MW14264   2.519   4.533   0.189 -0.1702 -0.1041 -0.6049
 3567SOL     OW14265   1.674   2.100   0.133  0.2118  0.0022  0.5318
 3567SOL    HW114266   1.680   2.020   0.080 -1.7252  1.5791 -2.3666
 3567SOL    HW214267   1.581   2.108   0.154  0.2982  1.6449  0.4094
 3567SOL     MW14268   1.663   2.091   0.129 -0.0251  0.4143  0.1451
 3568SOL     OW14269   5.427   5.416   3.554 -0.1606 -0.2685  0.7663
 3568SOL    HW114270   5.514   5.455   3.565 -0.2804  0.2359 -0.0393
 3568SOL    HW214271   5.384   5.470   3.488 -0.4356 -1.6094 -0.1913
 3568SOL     MW14272   5.432   5.428   3.547 -0.2111 -0.3756  0.5406
 3569SOL     OW14273   2.907   5.310   2.334  0.1748  0.3664  0.4641
 3569SOL    HW114274   2.829   5.364   2.346 -0.3169 -0.0903 -0.5653
 3569SOL    HW214275   2.936   5.329   2.245 -0.2930 -1.4145 -0.1050
 3569SOL     MW14276   2.901   5.320   2.324  0.0520  0.0800  0.2594
 3570SOL     OW14277   1.933   2.040   3.453 -0.1505  0.0155 -0.0598
 3570SOL    HW114278   1.908   1.958   3.411  0.4275 -0.8597  1.2357
 3570SOL    HW214279   2.027   2.049   3.437 -0.5628  1.5614 -2.0151
 3570SOL     MW14280   1.941   2.031   3.446 -0.1293  0.1013 -0.1443
 3571SOL     OW14281   3.297   2.555   0.788  0.4012  0.3361 -0.4659
 3571SOL    HW114282   3.323   2.526   0.876 -0.7625  1.5089  0.2902
 3571SOL    HW214283   3.253   2.639   0.802  0.5169  0.7196 -2.2180
 3571SOL     MW14284   3.295   2.562   0.801  0.2670  0.5353 -0.5934
 3572SOL     OW14285   4.697   0.745   4.604  0.1786 -0.9565 -0.5819
 3572SOL    HW114286   4.777   0.756   4.553 -0.2867 -0.2898 -1.1765
 3572SOL    HW214287   4.717   0.788   4.688  0.4866 -0.9240 -0.6687
 3572SOL     MW14288   4.710   0.752   4.608  0.1585 -0.8670 -0.6691
 3573SOL     OW14289   0.702   2.514   0.659  0.2806  0.4130  0.2467
 3573SOL    HW114290   0.636   2.581   0.677  0.6219  0.1249  2.9646
 3573SOL    HW214291   0.785   2.561   0.659  0.4736  0.1090  1.6382
 3573SOL     MW14292   0.704   2.528   0.661  0.3490  0.3372  0.7728
 3574SOL     OW14293   1.912   5.002   3.283 -0.5043  0.4429  0.8133
 3574SOL    HW114294   1.987   5.060   3.289 -0.6579  0.5053  2.4431
 3574SOL    HW214295   1.923   4.940   3.355 -1.1215 -0.6408  0.0223
 3574SOL     MW14296   1.923   5.001   3.293 -0.6030  0.3122  0.9207
 3575SOL     OW14297   4.763   3.559   0.027 -0.3117 -0.1007 -0.1754
 3575SOL    HW114298   4.831   3.589   0.087  0.2019 -1.1992 -0.1845
 3575SOL    HW214299   4.806   3.494  -0.028 -1.4118 -0.9760 -0.0485
 3575SOL     MW14300   4.777   3.555   0.027 -0.3868 -0.3534 -0.1604
 3576SOL     OW14301   1.515   2.968   1.017 -0.2777  0.6149 -0.4015
 3576SOL    HW114302   1.474   2.923   0.943 -0.4771  0.3532 -0.1325
 3576SOL    HW214303   1.579   2.905   1.051 -2.1003 -0.3730  1.3692
 3576SOL     MW14304   1.518   2.954   1.012 -0.5366  0.4550 -0.1404
 3577SOL     OW14305   0.826   1.139   0.162 -0.4714 -0.0416  0.1243
 3577SOL    HW114306   0.777   1.069   0.119 -0.0631  0.0516 -0.5076
 3577SOL    HW214307   0.783   1.219   0.133 -0.4246  0.0069  0.1878
 3577SOL     MW14308   0.814   1.140   0.153 -0.4132 -0.0235  0.0515
 3578SOL     OW14309   4.436   3.069   2.059  0.0242  0.4353 -0.4616
 3578SOL    HW114310   4.402   3.021   2.134  1.3651  0.9389  0.5113
 3578SOL    HW214311   4.411   3.160   2.075 -1.9597  0.2196 -1.9793
 3578SOL     MW14312   4.429   3.074   2.070 -0.0581  0.4722 -0.5313
 3579SOL     OW14313   3.388   0.638   5.061  0.3566 -0.5089  0.2086
 3579SOL    HW114314   3.353   0.624   5.149 -0.8205 -0.0782 -0.1703
 3579SOL    HW214315   3.356   0.725   5.037  1.9215  0.0181 -0.0718
 3579SOL     MW14316   3.379   0.647   5.070  0.4063 -0.3863  0.1242
 3580SOL     OW14317   5.021   4.064   4.173 -0.1432 -0.7752  0.1548
 3580SOL    HW114318   5.038   4.110   4.255 -0.3444 -0.3234 -0.0563
 3580SOL    HW214319   5.007   3.973   4.199  1.3240 -0.9348  0.4707
 3580SOL     MW14320   5.021   4.058   4.187  0.0189 -0.7378  0.1682
 3581SOL     OW14321   0.205   5.439   0.567  0.1605  0.4619  0.3251
 3581SOL    HW114322   0.242   5.365   0.615 -0.2170 -1.2738 -1.9027
 3581SOL    HW214323   0.256   5.515   0.596  2.0685 -1.0209  1.0515
 3581SOL     MW14324   0.216   5.440   0.577  0.3564  0.0499  0.1329
 3582SOL     OW14325   5.333   4.394   2.148 -0.2766  0.7103  0.4279
 3582SOL    HW114326   5.271   4.345   2.096  1.3488 -0.9335 -0.0496
 3582SOL    HW214327   5.293   4.399   2.235 -0.7569 -0.9559  0.3280
 3582SOL     MW14328   5.320   4.389   2.153 -0.1300  0.2866  0.3540
 3583SOL     OW14329   0.064   0.919   0.076 -0.0412 -0.5974 -0.1403
 3583SOL    HW114330   0.033   1.004   0.047 -1.1131 -0.8239  0.2861
 3583SOL    HW214331  -0.009   0.860   0.060  0.5539 -1.3709 -0.0876
 3583SOL     MW14332   0.051   0.922   0.070 -0.1022 -0.7254 -0.0790
 3584SOL     OW14333   3.594   3.120   5.156  0.5816 -1.0408 -0.3533
 3584SOL    HW114334   3.598   3.026   5.172  0.8152 -0.6762  1.9905
 3584SOL    HW214335   3.685   3.149   5.160  0.4551 -0.6249 -0.4575
 3584SOL     MW14336   3.606   3.112   5.158  0.5953 -0.9409 -0.0666
 3585SOL     OW14337   4.578   0.379   3.116  0.5061  0.6510 -0.0041
 3585SOL    HW114338   4.668   0.347   3.119  0.1458 -0.8994 -2.4980
 3585SOL    HW214339   4.569   0.419   3.029 -1.1459  0.9815  0.2770
 3585SOL     MW14340   4.588   0.380   3.105  0.2485  0.4948 -0.2874
 3586SOL     OW14341   3.645   0.282   1.644  0.5512 -0.1387  0.2931
 3586SOL    HW114342   3.584   0.348   1.676 -2.8569 -1.9126 -1.9029
 3586SOL    HW214343   3.662   0.308   1.553 -0.7787 -2.0400 -0.5820
 3586SOL     MW14344   3.639   0.294   1.636 -0.0553 -0.6092 -0.1000
 3587SOL     OW14345   0.515   4.616   2.243  0.4006  0.2568  0.1131
 3587SOL    HW114346   0.560   4.614   2.158 -0.0510 -1.2092 -0.1357
 3587SOL    HW214347   0.584   4.636   2.306  0.7420  1.3775 -0.5964
 3587SOL     MW14348   0.529   4.618   2.240  0.3865  0.2126 -0.0096
 3588SOL     OW14349   2.391   1.864   1.066 -0.2094 -0.3999 -0.5894
 3588SOL    HW114350   2.356   1.880   0.978  1.4028  1.5148 -0.9340
 3588SOL    HW214351   2.461   1.800   1.053 -0.7735 -1.0636 -0.4771
 3588SOL     MW14352   2.395   1.858   1.053 -0.0752 -0.2398 -0.6192
 3589SOL     OW14353   0.994   4.681   4.981  0.3203 -0.2364 -0.0407
 3589SOL    HW114354   0.935   4.619   5.023 -0.0643 -0.3302 -0.7173
 3589SOL    HW214355   0.966   4.684   4.890  1.4817 -0.4309 -0.4201
 3589SOL     MW14356   0.983   4.674   4.975  0.4198 -0.2733 -0.1759
 3590SOL     OW14357   0.993   2.347   5.288  0.2454  0.5742 -0.1026
 3590SOL    HW114358   0.916   2.314   5.334  0.7924  0.0682  0.4705
 3590SOL    HW214359   1.047   2.270   5.274  2.6727  1.4322  3.3834
 3590SOL     MW14360   0.990   2.333   5.292  0.6261  0.6192  0.4170
 3591SOL     OW14361   0.023   1.367   1.367  0.0906  0.7218  0.0446
 3591SOL    HW114362   0.004   1.277   1.343 -0.7653  0.1742  2.4721
 3591SOL    HW214363   0.117   1.378   1.348  0.7668 -1.4253  1.7190
 3591SOL     MW14364   0.033   1.357   1.362  0.0676  0.3768  0.5697
 3592SOL     OW14365   4.308   3.319   2.060 -0.0615  0.2245  0.7209
 3592SOL    HW114366   4.285   3.412   2.059 -1.1300 -0.0335  0.3743
 3592SOL    HW214367   4.236   3.277   2.105  0.0608 -0.5238  0.2332
 3592SOL     MW14368   4.296   3.326   2.065 -0.1826  0.0957  0.6141
 3593SOL     OW14369   1.085   3.827   4.312  0.5562 -0.1099 -0.7764
 3593SOL    HW114370   1.076   3.920   4.333 -0.8058 -0.6706  1.4444
 3593SOL    HW214371   1.073   3.823   4.217 -1.1891  1.8073 -0.7125
 3593SOL     MW14372   1.082   3.839   4.302  0.1584  0.0638 -0.4839
 3594SOL     OW14373   3.998   2.346   0.988 -0.1828  0.4324  0.6132
 3594SOL    HW114374   3.953   2.409   1.044 -2.0537  2.1254 -2.5399
 3594SOL    HW214375   3.936   2.273   0.981 -0.7582  1.0070 -0.5622
 3594SOL     MW14376   3.984   2.345   0.994 -0.4959  0.7227  0.0591
 3595SOL     OW14377   4.162   2.482   5.360 -0.0311 -0.8186 -0.1560
 3595SOL    HW114378   4.124   2.396   5.380 -0.6969 -0.3055  0.8841
 3595SOL    HW214379   4.148   2.533   5.440 -0.3416  0.5119 -1.0362
 3595SOL     MW14380   4.156   2.477   5.373 -0.1561 -0.5826 -0.1356
 3596SOL     OW14381   2.201   4.867   2.381 -0.2659 -0.3037 -0.2367
 3596SOL    HW114382   2.147   4.814   2.440  1.1838 -0.1904  1.2476
 3596SOL    HW214383   2.271   4.901   2.436 -0.1118  1.6730 -1.5597
 3596SOL     MW14384   2.203   4.865   2.396 -0.0606 -0.0362 -0.2160
 3597SOL     OW14385   5.051   4.913   1.173  0.1368 -0.3669  0.1635
 3597SOL    HW114386   5.009   4.989   1.133  0.6474 -0.5895 -0.8291
 3597SOL    HW214387   4.991   4.841   1.155 -0.5190 -0.1594  1.4103
 3597SOL     MW14388   5.038   4.914   1.165  0.1182 -0.3688  0.1960
 3598SOL     OW14389   3.457   0.447   1.728 -0.1548  0.2793  0.2378
 3598SOL    HW114390   3.420   0.507   1.664 -0.8790 -3.0478 -2.7977
 3598SOL    HW214391   3.383   0.395   1.760  0.9004 -2.6068 -1.5464
 3598SOL     MW14392   3.443   0.448   1.724 -0.1124 -0.5160 -0.3792
 3599SOL     OW14393   2.204   4.510   4.573 -0.2561 -0.3176 -0.5356
 3599SOL    HW114394   2.272   4.451   4.540  0.8879  0.7130 -0.1043
 3599SOL    HW214395   2.122   4.462   4.559  0.4559 -1.2034 -1.9616
 3599SOL     MW14396   2.202   4.496   4.567 -0.0185 -0.2991 -0.6630
 3600SOL     OW14397   1.172   1.784   2.913 -0.2416  0.4591  0.0447
 3600SOL    HW114398   1.212   1.864   2.878  0.1924 -0.0055 -0.5318
 3600SOL    HW214399   1.129   1.743   2.839  0.3466 -0.3278  0.1261
 3600SOL     MW14400   1.172   1.789   2.899 -0.1107  0.2989 -0.0187
 3601SOL     OW14401   2.585   3.182   2.018  0.6026 -0.1621 -0.0835
 3601SOL    HW114402   2.491   3.165   2.032  0.7741 -1.7903 -0.7375
 3601SOL    HW214403   2.628   3.103   2.051  1.5757 -0.4524 -1.9564
 3601SOL     MW14404   2.578   3.170   2.024  0.7491 -0.4077 -0.4069
 3602SOL     OW14405   2.511   5.404   3.633 -0.4831  0.4445 -0.4033
 3602SOL    HW114406   2.491   5.487   3.677 -0.4433 -0.6452  1.8295
 3602SOL    HW214407   2.433   5.385   3.581 -1.7152  0.5344  1.3086
 3602SOL     MW14408   2.498   5.413   3.632 -0.6357  0.3165  0.1017
 3603SOL     OW14409   0.532   3.815   0.566 -0.0969  0.1421 -0.6332
 3603SOL    HW114410   0.582   3.839   0.488  0.4077  0.2956 -0.2707
 3603SOL    HW214411   0.599   3.792   0.631 -0.3968  1.8272  0.3624
 3603SOL     MW14412   0.547   3.815   0.564 -0.0707  0.3775 -0.4594
 3604SOL     OW14413   0.711   4.628   2.459  0.5832 -0.1055  0.5088
 3604SOL    HW114414   0.639   4.656   2.516  0.5800 -2.3722  1.7649
 3604SOL    HW214415   0.782   4.689   2.477 -0.2773  0.7720  1.0012
 3604SOL     MW14416   0.711   4.639   2.468  0.4726 -0.2834  0.7326
 3605SOL     OW14417   4.623   0.413   4.171 -0.0529  0.9176 -0.0833
 3605SOL    HW114418   4.544   0.416   4.225 -0.4501  0.3071 -0.6058
 3605SOL    HW214419   4.669   0.495   4.190  0.2811  0.3210  1.8373
 3605SOL     MW14420   4.619   0.424   4.180 -0.0610  0.7630  0.0957
 3606SOL     OW14421   1.307   4.696   2.852  0.1111  0.1300  0.5576
 3606SOL    HW114422   1.401   4.686   2.868  0.1381 -2.7262 -0.7155
 3606SOL    HW214423   1.301   4.763   2.785  1.1888  0.7210  1.0315
 3606SOL     MW14424   1.318   4.703   2.845  0.2525 -0.1600  0.4553
 3607SOL     OW14425   5.425   2.370   2.185  0.6501  0.0350 -0.1227
 3607SOL    HW114426   5.412   2.380   2.091  1.6243 -0.4582 -0.3199
 3607SOL    HW214427   5.484   2.441   2.209  1.6289 -0.7410 -0.1758
 3607SOL     MW14428   5.431   2.380   2.176  0.9001 -0.1275 -0.1547
 3608SOL     OW14429   0.284   4.079   2.407 -0.2936 -0.3683 -0.5099
 3608SOL    HW114430   0.321   4.039   2.328 -1.3662  0.8973 -1.7056
 3608SOL    HW214431   0.193   4.048   2.408 -0.8578  1.2096 -0.9176
 3608SOL     MW14432   0.277   4.070   2.397 -0.5031 -0.0043 -0.7151
 3609SOL     OW14433   4.926   5.121   1.062  0.1286  0.1297  0.6220
 3609SOL    HW114434   4.934   5.089   0.972  0.7659 -0.6622  0.9508
 3609SOL    HW214435   4.839   5.160   1.066  0.0944  0.1741 -0.3392
 3609SOL     MW14436   4.916   5.122   1.051  0.2058  0.0340  0.5411
 3610SOL     OW14437   5.228   2.038   5.327 -0.1070  0.1310 -0.4445
 3610SOL    HW114438   5.162   2.003   5.266  0.5957 -0.1057 -1.0925
 3610SOL    HW214439   5.266   1.960   5.368 -0.0552  0.2526 -0.2625
 3610SOL     MW14440   5.224   2.024   5.324 -0.0105  0.1163 -0.5042
 3611SOL     OW14441   2.683   1.724   1.837  0.3839 -0.0913  0.1486
 3611SOL    HW114442   2.714   1.704   1.925 -0.7350  0.9226  0.8171
 3611SOL    HW214443   2.742   1.676   1.778  1.9192  0.1784  1.3955
 3611SOL     MW14444   2.695   1.716   1.841  0.4372  0.0730  0.3938
 3612SOL     OW14445   4.089   1.970   1.483 -0.3138  0.0456 -0.1370
 3612SOL    HW114446   4.173   2.010   1.461 -0.9270  0.2256 -2.4164
 3612SOL    HW214447   4.109   1.880   1.505  0.5854  0.3989  0.5459
 3612SOL     MW14448   4.102   1.964   1.483 -0.2772  0.1139 -0.3414
 3613SOL     OW14449   4.129   4.616   4.885 -0.5555  0.4594 -0.2663
 3613SOL    HW114450   4.036   4.602   4.900 -0.6526  0.1921 -1.0487
 3613SOL    HW214451   4.152   4.554   4.816 -0.3892  2.2429 -1.9178
 3613SOL     MW14452   4.120   4.607   4.878 -0.5467  0.6535 -0.5779
 3614SOL     OW14453   3.426   3.575   5.309  0.5090  0.2023 -0.4379
 3614SOL    HW114454   3.415   3.670   5.313 -1.0360  0.0356 -0.0288
 3614SOL    HW214455   3.337   3.541   5.304  1.0862 -1.1970 -1.7149
 3614SOL     MW14456   3.414   3.583   5.309  0.3851  0.0018 -0.5490
 3615SOL     OW14457   3.206   4.458   1.146  0.4884  0.1289  0.0954
 3615SOL    HW114458   3.225   4.502   1.229  0.6535 -4.2552  2.6468
 3615SOL    HW214459   3.269   4.497   1.084  3.0725  0.9452  2.9914
 3615SOL     MW14460   3.217   4.469   1.148  0.8403 -0.3278  0.7927
 3616SOL     OW14461   5.028   0.094   2.946  0.3994 -0.5114 -0.1186
 3616SOL    HW114462   5.021  -0.001   2.951 -0.5096 -0.3884  2.8491
 3616SOL    HW214463   5.103   0.116   3.001  0.2650  0.5380 -0.3252
 3616SOL     MW14464   5.037   0.084   2.954  0.2658 -0.3613  0.2348
 3617SOL     OW14465   5.084   5.395   4.233  0.4175  0.4396 -0.3871
 3617SOL    HW114466   5.029   5.465   4.197  1.4237 -0.0278 -3.0393
 3617SOL    HW214467   5.035   5.363   4.309 -2.3069  0.9344 -1.8140
 3617SOL     MW14468   5.071   5.400   4.238  0.1976  0.4431 -0.9092
 3618SOL     OW14469   2.743   2.128   1.143 -0.0052  0.1492 -0.1984
 3618SOL    HW114470   2.770   2.074   1.217  2.3856 -0.0310 -1.1102
 3618SOL    HW214471   2.687   2.195   1.181 -0.6220 -1.2154  1.4018
 3618SOL     MW14472   2.739   2.130   1.157  0.2219 -0.0486 -0.1103
 3619SOL     OW14473   4.748   2.995   2.535  0.2581 -0.1026 -0.1545
 3619SOL    HW114474   4.728   3.037   2.452 -0.9200  0.4359  0.3694
 3619SOL    HW214475   4.759   3.068   2.597 -1.6248 -0.4980  0.7221
 3619SOL     MW14476   4.747   3.010   2.532 -0.1338 -0.0843  0.0248
 3620SOL     OW14477   5.305   3.056   3.549 -0.5023 -0.0986  0.2246
 3620SOL    HW114478   5.239   3.120   3.522 -1.2270 -0.4811  1.0492
 3620SOL    HW214479   5.354   3.100   3.619 -2.9887 -1.4456  3.0169
 3620SOL     MW14480   5.303   3.070   3.555 -0.9133 -0.3200  0.6876
 3621SOL     OW14481   1.649   4.003   2.518 -0.4821 -0.2335  0.4276
 3621SOL    HW114482   1.670   4.093   2.545 -1.2417  0.3867 -0.9173
 3621SOL    HW214483   1.573   3.979   2.571 -0.7247  0.2085  0.2920
 3621SOL     MW14484   1.642   4.011   2.528 -0.6104 -0.0975  0.2381
 3622SOL     OW14485   2.830   5.376   0.845  0.7419 -0.3152 -0.0457
 3622SOL    HW114486   2.832   5.469   0.865  1.7377 -0.1981 -0.6489
 3622SOL    HW214487   2.799   5.371   0.754 -0.6584 -0.6674  0.4190
 3622SOL     MW14488   2.826   5.387   0.836  0.6901 -0.3453 -0.0635
 3623SOL     OW14489   4.116   2.602   1.122  0.7211 -0.0342 -0.1509
 3623SOL    HW114490   4.020   2.593   1.117  0.2408  2.5924  1.7586
 3623SOL    HW214491   4.146   2.518   1.156 -0.9739 -0.7468 -0.3141
 3623SOL     MW14492   4.107   2.590   1.126  0.4426  0.2108  0.0727
 3624SOL     OW14493   5.140   3.435   1.386 -0.0304 -0.4715  0.2421
 3624SOL    HW114494   5.162   3.528   1.390 -0.6105 -0.0360 -3.1654
 3624SOL    HW214495   5.224   3.390   1.391  0.4836  0.4003 -0.3138
 3624SOL     MW14496   5.154   3.441   1.387 -0.0388 -0.3041 -0.2652
 3625SOL     OW14497   2.307   0.687   1.323 -0.1428 -0.1060 -0.2398
 3625SOL    HW114498   2.315   0.775   1.359 -0.3602 -0.5457  0.9046
 3625SOL    HW214499   2.214   0.675   1.306 -0.0098  0.2075 -1.2596
 3625SOL     MW14500   2.296   0.696   1.325 -0.1536 -0.1221 -0.2239
 3626SOL     OW14501   5.025   2.746   3.145  0.4040 -0.9752 -0.2610
 3626SOL    HW114502   5.056   2.670   3.195  0.8032 -1.0962 -0.6878
 3626SOL    HW214503   5.008   2.711   3.058 -0.1108 -0.7227 -0.2631
 3626SOL     MW14504   5.027   2.732   3.141  0.3892 -0.9584 -0.3159
 3627SOL     OW14505   3.244   5.068   3.902  0.5765 -0.3297  0.3665
 3627SOL    HW114506   3.242   5.154   3.942  0.9296 -0.2856  0.2954
 3627SOL    HW214507   3.196   5.078   3.820  1.3930  0.0303 -0.0767
 3627SOL     MW14508   3.238   5.080   3.897  0.7262 -0.2779  0.3007
 3628SOL     OW14509   4.038   2.254   5.408 -0.4900  0.0047 -0.2086
 3628SOL    HW114510   3.980   2.290   5.476 -1.1220  0.1465 -0.8099
 3628SOL    HW214511   4.058   2.166   5.438  1.1284  0.8147  1.3230
 3628SOL     MW14512   4.033   2.248   5.420 -0.3637  0.1265 -0.0895
 3629SOL     OW14513   2.633   1.222   2.935 -0.5767  0.4522  0.5452
 3629SOL    HW114514   2.602   1.214   2.845 -1.5044  0.4302  0.8558
 3629SOL    HW214515   2.727   1.236   2.927 -0.7766  1.3058 -0.4564
 3629SOL     MW14516   2.641   1.223   2.923 -0.7210  0.5587  0.4568
 3630SOL     OW14517   0.875   1.525   1.209  0.2256  0.1103 -0.2355
 3630SOL    HW114518   0.862   1.590   1.139 -0.0755 -1.1978 -1.4488
 3630SOL    HW214519   0.790   1.480   1.216  1.3553 -2.6582 -2.1300
 3630SOL     MW14520   0.862   1.527   1.201  0.3317 -0.4116 -0.6333
 3631SOL     OW14521   4.898   4.968   2.113  0.2488 -0.2138 -0.1311
 3631SOL    HW114522   4.934   5.045   2.067  0.0234  0.7262  1.1941
 3631SOL    HW214523   4.975   4.926   2.152  0.1800  0.4810  0.7812
 3631SOL     MW14524   4.913   4.973   2.112  0.2111 -0.0045  0.1553
 3632SOL     OW14525   3.465   0.760   2.106  0.0302  0.3970 -0.1734
 3632SOL    HW114526   3.397   0.700   2.138 -0.0567  0.9984  0.8130
 3632SOL    HW214527   3.531   0.761   2.176  0.9522 -0.0083 -1.0259
 3632SOL     MW14528   3.465   0.753   2.119  0.1371  0.4221 -0.1562
 3633SOL     OW14529   3.601   4.437   4.509 -0.2573  0.4155 -0.0604
 3633SOL    HW114530   3.628   4.374   4.442  0.4345  0.7923 -0.1509
 3633SOL    HW214531   3.509   4.454   4.491 -0.6084 -0.9786  0.3020
 3633SOL     MW14532   3.593   4.431   4.498 -0.2137  0.2853 -0.0256
 3634SOL     OW14533   1.746   4.888   3.671 -0.5801  0.8577  0.1327
 3634SOL    HW114534   1.706   4.816   3.622  2.0718 -0.7188  0.0387
 3634SOL    HW214535   1.793   4.844   3.743  1.2392  2.4302 -0.0144
 3634SOL     MW14536   1.747   4.873   3.674 -0.0078  0.8572  0.1018
 3635SOL     OW14537   5.414   5.170   5.199  0.4343 -0.3116 -0.0923
 3635SOL    HW114538   5.481   5.115   5.160  0.2398 -1.1641  0.7355
 3635SOL    HW214539   5.425   5.158   5.294 -1.8469 -1.7321  0.0769
 3635SOL     MW14540   5.424   5.161   5.207  0.1174 -0.6026  0.0353
 3636SOL     OW14541   0.467   4.538   5.310 -0.8659  0.1954  0.0262
 3636SOL    HW114542   0.538   4.581   5.358  0.4045 -1.3610 -0.3833
 3636SOL    HW214543   0.393   4.599   5.318  0.4108  1.7407  0.6976
 3636SOL     MW14544   0.467   4.551   5.317 -0.5399  0.1939  0.0597
 3637SOL     OW14545   2.469   2.136   1.448  0.3878 -0.5325 -0.2946
 3637SOL    HW114546   2.511   2.062   1.492 -0.3025  0.2534  1.8023
 3637SOL    HW214547   2.429   2.187   1.519 -1.3925  0.4529 -1.9002
 3637SOL     MW14548   2.469   2.133   1.463  0.0716 -0.3057 -0.2317
 3638SOL     OW14549   0.497   0.486   5.221  0.1061 -0.2753 -0.0145
 3638SOL    HW114550   0.412   0.470   5.178  0.0253  1.8199 -0.7552
 3638SOL    HW214551   0.474   0.520   5.307  0.2167 -0.5702  0.1322
 3638SOL     MW14552   0.483   0.488   5.226  0.1099 -0.0448 -0.0905
 3639SOL     OW14553   1.067   1.256   0.184  0.1758  0.0137 -0.9381
 3639SOL    HW114554   1.047   1.346   0.209  0.4073 -0.0356 -0.5666
 3639SOL    HW214555   0.982   1.216   0.166 -0.0301 -0.0445  0.1065
 3639SOL     MW14556   1.053   1.262   0.185  0.1791 -0.0000 -0.7568
 3640SOL     OW14557   1.737   3.935   3.512 -0.5789 -0.4737  0.4876
 3640SOL    HW114558   1.687   3.975   3.440  2.5835  0.6497 -1.2840
 3640SOL    HW214559   1.770   4.010   3.562 -0.2186 -1.1516  1.2800
 3640SOL     MW14560   1.735   3.950   3.509 -0.1279 -0.4167  0.3623
 3641SOL     OW14561   0.294   2.049   1.444  0.2235  0.7847 -0.1060
 3641SOL    HW114562   0.211   2.031   1.488  0.5676 -0.1218  0.1940
 3641SOL    HW214563   0.340   2.106   1.505 -0.3839  1.7440 -0.5174
 3641SOL     MW14564   0.289   2.054   1.458  0.1898  0.7915 -0.1203
 3642SOL     OW14565   3.933   5.107   0.370  0.2341 -0.3322  0.4031
 3642SOL    HW114566   3.922   5.035   0.308 -0.4308  0.2912 -0.2207
 3642SOL    HW214567   3.996   5.075   0.434  0.1506 -1.3635 -0.0246
 3642SOL     MW14568   3.940   5.094   0.370  0.1383 -0.3844  0.2685
 3643SOL     OW14569   0.411   0.927   0.669  0.2740 -0.2038 -0.1015
 3643SOL    HW114570   0.427   0.839   0.705 -0.3372 -0.2602  0.0365
 3643SOL    HW214571   0.445   0.922   0.579  2.4924  0.1546  0.6345
 3643SOL     MW14572   0.418   0.915   0.662  0.4797 -0.1651  0.0104
 3644SOL     OW14573   3.132   0.732   4.520  0.3211  0.4472  0.1048
 3644SOL    HW114574   3.113   0.639   4.524 -1.0646  0.6773 -0.4695
 3644SOL    HW214575   3.165   0.753   4.607  1.6451 -0.7559 -0.0781
 3644SOL     MW14576   3.134   0.723   4.532  0.3132  0.3226  0.0079
 3645SOL     OW14577   1.143   2.938   1.603 -0.1238  0.5764  0.0937
 3645SOL    HW114578   1.054   2.970   1.589 -0.0670  1.2442  1.1809
 3645SOL    HW214579   1.197   3.017   1.605  0.4755  0.1880 -0.3294
 3645SOL     MW14580   1.138   2.952   1.601 -0.0398  0.6122  0.1787
 3646SOL     OW14581   0.900   3.524   1.092 -0.4339  0.0398 -0.0425
 3646SOL    HW114582   0.952   3.444   1.087  0.8642  0.9153 -3.1709
 3646SOL    HW214583   0.834   3.513   1.023 -1.2365  1.0027  0.5540
 3646SOL     MW14584   0.898   3.512   1.082 -0.3705  0.2752 -0.3666
 3647SOL     OW14585   0.470   4.306   0.542 -0.4519  0.4470 -0.5486
 3647SOL    HW114586   0.434   4.244   0.478 -0.6714  1.2412 -1.2172
 3647SOL    HW214587   0.440   4.273   0.626 -1.7990  0.4470 -1.0042
 3647SOL     MW14588   0.461   4.294   0.544 -0.6524  0.5487 -0.6925
 3648SOL     OW14589   1.242   0.813   3.747 -0.1318  0.1860 -0.2162
 3648SOL    HW114590   1.220   0.815   3.840 -0.0872 -0.5444 -0.1816
 3648SOL    HW214591   1.158   0.809   3.702 -0.2561  2.5022 -0.3154
 3648SOL     MW14592   1.228   0.813   3.753 -0.1420  0.3890 -0.2245
 3649SOL     OW14593   1.923   2.062   2.762  0.3767  0.6353 -0.0327
 3649SOL    HW114594   2.014   2.091   2.757  0.9967 -1.3907 -2.1996
 3649SOL    HW214595   1.909   2.043   2.855  1.5694  2.6075  0.6145
 3649SOL     MW14596   1.933   2.064   2.773  0.6087  0.6284 -0.2272
 3650SOL     OW14597   3.814   2.271   2.053 -0.4859 -0.1853 -0.3511
 3650SOL    HW114598   3.871   2.342   2.023  1.1094 -0.9903  0.5997
 3650SOL    HW214599   3.759   2.311   2.120 -0.6172  0.4743 -0.8420
 3650SOL     MW14600   3.814   2.285   2.058 -0.2985 -0.2039 -0.2922
 3651SOL     OW14601   2.950   3.672   2.551 -0.1057 -0.2318 -0.4323
 3651SOL    HW114602   3.002   3.727   2.610  2.9993 -2.6970 -0.5890
 3651SOL    HW214603   2.967   3.708   2.463  0.4081 -0.2936 -0.3629
 3651SOL     MW14604   2.959   3.684   2.547  0.3575 -0.5553 -0.4435
 3652SOL     OW14605   2.691   3.781   0.020 -0.4943 -0.1637 -0.3724
 3652SOL    HW114606   2.781   3.811   0.006 -1.4530  2.4597 -1.5111
 3652SOL    HW214607   2.678   3.790   0.115  0.5236 -0.9386 -0.1349
 3652SOL     MW14608   2.701   3.786   0.031 -0.4868  0.0729 -0.4877
 3653SOL     OW14609   4.920   1.069   3.293  0.3671 -0.0870 -0.1164
 3653SOL    HW114610   4.828   1.051   3.311 -0.1932  1.9450 -0.5781
 3653SOL    HW214611   4.966   0.988   3.312 -1.5122 -1.1132  0.2186
 3653SOL     MW14612   4.914   1.057   3.298  0.0548  0.0417 -0.1326
 3654SOL     OW14613   3.005   4.130   2.752 -0.6401 -0.1889  0.1450
 3654SOL    HW114614   3.091   4.148   2.790  0.2289 -0.3516 -1.6264
 3654SOL    HW214615   2.945   4.126   2.827  1.1553 -1.7239  1.5694
 3654SOL     MW14616   3.008   4.132   2.766 -0.2990 -0.4063  0.1006
 3655SOL     OW14617   3.619   0.091   2.244 -0.1904 -0.1279  0.1101
 3655SOL    HW114618   3.697   0.099   2.298  1.0180 -0.8662 -1.4538
 3655SOL    HW214619   3.635   0.016   2.188 -0.5875  1.5695 -2.4877
 3655SOL     MW14620   3.631   0.083   2.244 -0.0865 -0.0051 -0.4226
 3656SOL     OW14621   5.181   3.399   3.002  0.2891 -0.3652 -0.0399
 3656SOL    HW114622   5.216   3.314   3.028  0.8455 -0.2765 -0.4831
 3656SOL    HW214623   5.088   3.383   2.986 -0.1522 -0.3801  2.2165
 3656SOL     MW14624   5.174   3.386   3.003  0.3038 -0.3558  0.1922
 3657SOL     OW14625   0.921   1.584   3.758 -0.3179  0.6586 -0.3328
 3657SOL    HW114626   0.918   1.502   3.709  1.5295 -0.5263  1.3656
 3657SOL    HW214627   0.832   1.595   3.793 -0.3546 -1.1977  0.2392
 3657SOL     MW14628   0.909   1.575   3.756 -0.0861  0.2693 -0.0421
 3658SOL     OW14629   1.086   4.439   1.560 -0.1052  0.4904  0.3818
 3658SOL    HW114630   1.103   4.476   1.473  2.6875 -1.8598 -0.2138
 3658SOL    HW214631   1.015   4.377   1.546 -0.6323  1.1284  0.1311
 3658SOL     MW14632   1.079   4.436   1.547  0.1849  0.2712  0.2734
 3659SOL     OW14633   1.150   5.079   0.772  0.1210 -0.1306 -0.2802
 3659SOL    HW114634   1.173   5.074   0.679  1.1874  0.8393 -0.1013
 3659SOL    HW214635   1.212   5.021   0.815 -0.0575 -0.2088 -0.1291
 3659SOL     MW14636   1.161   5.071   0.765  0.2347 -0.0165 -0.2379
 3660SOL     OW14637   3.182   3.005   1.592 -0.0683 -0.0217  0.2554
 3660SOL    HW114638   3.123   2.979   1.662  0.8426 -1.2855  0.6042
 3660SOL    HW214639   3.161   2.946   1.519  0.7809 -0.5413  0.4122
 3660SOL     MW14640   3.172   2.994   1.591  0.1570 -0.2500  0.3201
 3661SOL     OW14641   0.791   0.650   2.643  0.2903 -0.2694  0.0067
 3661SOL    HW114642   0.785   0.559   2.671 -1.2880  0.5556  2.7619
 3661SOL    HW214643   0.756   0.651   2.554 -0.0225 -2.2734  0.0634
 3661SOL     MW14644   0.786   0.639   2.635  0.0482 -0.4203  0.3667
 3662SOL     OW14645   2.808   0.741   4.168 -0.4298 -0.3766 -0.1768
 3662SOL    HW114646   2.781   0.790   4.246  1.7362  0.4344  0.1290
 3662SOL    HW214647   2.869   0.675   4.201  1.1314  0.4814 -1.2329
 3662SOL     MW14648   2.812   0.738   4.182  0.0473 -0.1630 -0.2729
 3663SOL     OW14649   4.304   2.723   4.530  0.7174 -0.1845  0.1075
 3663SOL    HW114650   4.318   2.637   4.569 -1.2039 -1.1219 -1.1509
 3663SOL    HW214651   4.363   2.726   4.455  0.8525 -0.3625  0.2079
 3663SOL     MW14652   4.314   2.713   4.526  0.4888 -0.3273 -0.0408
 3664SOL     OW14653   3.498   4.054   2.790  0.5017 -0.0721  0.2224
 3664SOL    HW114654   3.591   4.047   2.770  0.1011 -3.0193 -1.3126
 3664SOL    HW214655   3.467   4.129   2.739  1.6162 -0.6295 -1.3525
 3664SOL     MW14656   3.506   4.062   2.780  0.5931 -0.5208 -0.1757
 3665SOL     OW14657   4.270   2.813   1.783  0.4623 -0.0651  0.7974
 3665SOL    HW114658   4.353   2.861   1.784  0.4375  0.0121  2.2340
 3665SOL    HW214659   4.206   2.876   1.750  0.8772  0.0510  0.2000
 3665SOL     MW14660   4.273   2.827   1.779  0.5122 -0.0404  0.9048
 3666SOL     OW14661   1.541   0.549   0.936  0.6099  0.2523 -0.0593
 3666SOL    HW114662   1.504   0.524   0.851 -0.4931 -1.1051  0.7633
 3666SOL    HW214663   1.517   0.641   0.947  0.2000  0.2589 -0.9298
 3666SOL     MW14664   1.533   0.557   0.926  0.4162  0.0794 -0.0654
 3667SOL     OW14665   1.043   2.365   2.384 -0.0392  0.3544  0.5404
 3667SOL    HW114666   1.073   2.275   2.376  2.3523  1.2022 -1.0929
 3667SOL    HW214667   0.965   2.369   2.327  1.6356 -0.0285 -1.9425
 3667SOL     MW14668   1.037   2.354   2.375  0.4814  0.4139  0.0135
 3668SOL     OW14669   3.224   0.948   0.208  0.7258  0.2390  0.7452
 3668SOL    HW114670   3.258   0.901   0.284 -0.6290  0.9390  1.8339
 3668SOL    HW214671   3.185   0.880   0.153 -0.2797 -0.0717  1.7888
 3668SOL     MW14672   3.224   0.934   0.211  0.4236  0.2889  1.0181
 3669SOL     OW14673   3.992   3.812   4.295  0.8172 -0.2239  0.1638
 3669SOL    HW114674   4.011   3.809   4.201  1.4114  0.4938  0.2554
 3669SOL    HW214675   3.918   3.872   4.303  0.5967 -0.4872  0.1365
 3669SOL     MW14676   3.985   3.819   4.284  0.8650 -0.1657  0.1720
 3670SOL     OW14677   3.473   5.269   1.313  0.2395  0.3146 -0.4007
 3670SOL    HW114678   3.460   5.347   1.367  0.2040  0.6709 -0.9196
 3670SOL    HW214679   3.397   5.267   1.255 -1.8653 -2.2576  2.1364
 3670SOL     MW14680   3.462   5.279   1.313 -0.0345  0.0309 -0.1424
 3671SOL     OW14681   1.638   0.094   3.772  0.1995 -0.3986  0.0905
 3671SOL    HW114682   1.663   0.040   3.697 -0.6709  2.4356 -2.4285
 3671SOL    HW214683   1.554   0.057   3.800  0.2773 -1.1864 -0.6581
 3671SOL     MW14684   1.630   0.082   3.766  0.0980 -0.1367 -0.3278
 3672SOL     OW14685   3.543   4.936   2.638 -0.0898 -0.2323  0.6287
 3672SOL    HW114686   3.452   4.958   2.617  0.3368 -0.8263 -2.2771
 3672SOL    HW214687   3.587   5.021   2.644 -0.1523  0.0396 -1.8016
 3672SOL     MW14688   3.537   4.950   2.636 -0.0432 -0.2736 -0.0544
 3673SOL     OW14689   3.181   5.398   3.151  0.0368  0.7414  0.2814
 3673SOL    HW114690   3.098   5.399   3.198  0.4235  0.3530  0.9867
 3673SOL    HW214691   3.174   5.324   3.091 -0.2675  0.9336  0.0793
 3673SOL     MW14692   3.170   5.389   3.150  0.0473  0.7163  0.3458
 3674SOL     OW14693   1.385   1.789   0.133 -0.5355 -0.0417 -0.5020
 3674SOL    HW114694   1.397   1.882   0.149  0.8667 -0.5832  2.0800
 3674SOL    HW214695   1.426   1.773   0.048 -2.6961  1.9675 -2.0601
 3674SOL     MW14696   1.392   1.799   0.124 -0.6326  0.1462 -0.3709
 3675SOL     OW14697   5.370   2.813   5.416  0.1700  0.1595 -0.4322
 3675SOL    HW114698   5.417   2.734   5.443  0.5729  0.6963  0.5173
 3675SOL    HW214699   5.410   2.883   5.469 -1.3256  0.7271 -0.0025
 3675SOL     MW14700   5.381   2.812   5.426  0.0301  0.3009 -0.2556
 3676SOL     OW14701   4.060   5.107   2.460  0.2360 -0.1751  0.1569
 3676SOL    HW114702   4.154   5.120   2.472  0.1480 -0.1920  0.8784
 3676SOL    HW214703   4.020   5.187   2.494 -0.0927 -0.7449  1.1289
 3676SOL     MW14704   4.067   5.119   2.466  0.1826 -0.2502  0.3736
 3677SOL     OW14705   2.535   3.237   3.498 -0.0080  0.2564  0.4570
 3677SOL    HW114706   2.558   3.315   3.446 -2.2169  0.8341  0.2416
 3677SOL    HW214707   2.562   3.259   3.587  1.0233  0.5136  0.0942
 3677SOL     MW14708   2.542   3.250   3.503 -0.1587  0.3633  0.3830
 3678SOL     OW14709   4.273   0.255   0.214  0.1115 -0.3923 -0.1964
 3678SOL    HW114710   4.276   0.280   0.306 -1.0228  0.4657 -0.3622
 3678SOL    HW214711   4.363   0.261   0.184  0.3391  0.3982  0.6006
 3678SOL     MW14712   4.285   0.259   0.222 -0.0045 -0.1813 -0.1156
 3679SOL     OW14713   5.288   5.447   5.324 -0.5005 -0.0950  0.1587
 3679SOL    HW114714   5.308   5.386   5.253 -1.0443 -0.8035  0.5982
 3679SOL    HW214715   5.373   5.483   5.350 -0.1171 -1.0198  0.2113
 3679SOL     MW14716   5.301   5.444   5.318 -0.5210 -0.3041  0.2217
 3680SOL     OW14717   5.282   1.778   2.544  0.4428  0.2171  0.2048
 3680SOL    HW114718   5.291   1.683   2.533 -2.5586 -0.4979  2.5900
 3680SOL    HW214719   5.372   1.809   2.555  1.5539 -2.2637 -1.0328
 3680SOL     MW14720   5.295   1.770   2.544  0.2008 -0.1920  0.3517
 3681SOL     OW14721   0.203   0.200   0.770  0.7893 -0.3064 -0.2407
 3681SOL    HW114722   0.212   0.146   0.849 -0.3976  0.6969  0.6133
 3681SOL    HW214723   0.159   0.279   0.800  1.2489  0.5459 -1.7364
 3681SOL     MW14724   0.199   0.203   0.784  0.6962 -0.0689 -0.3228
 3682SOL     OW14725   1.106   1.256   4.978  0.5837 -0.3868  0.1217
 3682SOL    HW114726   1.020   1.216   4.967  0.2604  0.4718 -0.6168
 3682SOL    HW214727   1.089   1.340   5.020  1.0197 -0.0515 -0.3594
 3682SOL     MW14728   1.093   1.262   4.982  0.5981 -0.2340 -0.0344
 3683SOL     OW14729   2.858   4.081   3.419  0.5371  0.5816 -0.1542
 3683SOL    HW114730   2.914   4.082   3.496  1.6018  0.3322 -0.9087
 3683SOL    HW214731   2.782   4.028   3.445  2.3758 -2.3071 -0.2930
 3683SOL     MW14732   2.855   4.074   3.432  0.9088  0.1799 -0.2686
 3684SOL     OW14733   1.398   1.568   2.939  0.0339 -0.2533  0.5496
 3684SOL    HW114734   1.402   1.607   3.026 -0.3637  0.7481  0.1367
 3684SOL    HW214735   1.482   1.523   2.929  0.0890 -0.3588  1.4335
 3684SOL     MW14736   1.409   1.568   2.949 -0.0099 -0.1386  0.6099
 3685SOL     OW14737   1.151   4.601   3.084 -0.3372 -0.6993  0.1990
 3685SOL    HW114738   1.176   4.613   2.992 -1.0282  0.7118  0.1715
 3685SOL    HW214739   1.056   4.593   3.082 -0.5398  1.1297  0.9307
 3685SOL     MW14740   1.142   4.601   3.072 -0.4516 -0.2845  0.2892
 3686SOL     OW14741   1.213   2.785   4.210  0.0831 -0.5129  0.0115
 3686SOL    HW114742   1.161   2.798   4.131 -0.3883 -0.7266  0.2876
 3686SOL    HW214743   1.152   2.794   4.282  0.1872 -1.8545  0.3003
 3686SOL     MW14744   1.199   2.788   4.209  0.0361 -0.7120  0.0838
 3687SOL     OW14745   1.729   0.643   4.017  0.1017  0.2972 -0.1651
 3687SOL    HW114746   1.820   0.670   4.006  0.6377 -0.2855  2.3047
 3687SOL    HW214747   1.722   0.561   3.969  0.8166  0.4581 -0.5527
 3687SOL     MW14748   1.740   0.636   4.009  0.2618  0.2432  0.1014
 3688SOL     OW14749   2.016   4.288   2.896  0.0200 -0.6090  0.0951
 3688SOL    HW114750   2.071   4.213   2.878  0.6010 -0.5922  1.6290
 3688SOL    HW214751   1.946   4.284   2.831  0.1346 -2.3779  0.0501
 3688SOL     MW14752   2.014   4.278   2.886  0.1091 -0.8333  0.2857
 3689SOL     OW14753   1.202   4.391   1.936  0.3285 -0.1869 -0.5544
 3689SOL    HW114754   1.259   4.397   1.859 -1.3292  0.3380 -1.8086
 3689SOL    HW214755   1.153   4.309   1.923  1.0864 -0.8801  0.7483
 3689SOL     MW14756   1.203   4.381   1.925  0.2134 -0.2084 -0.5482
 3690SOL     OW14757   0.072   2.608   0.003 -0.2753 -0.4389  0.5121
 3690SOL    HW114758   0.054   2.515   0.019  1.8348 -1.2946 -1.3683
 3690SOL    HW214759   0.134   2.632   0.072 -0.4843 -0.5813  0.7484
 3690SOL     MW14760   0.078   2.599   0.014 -0.0319 -0.5666  0.3016
 3691SOL     OW14761   4.135   5.236   2.867  0.2992  0.4954 -0.2256
 3691SOL    HW114762   4.125   5.141   2.880 -0.3928  0.0833 -3.0211
 3691SOL    HW214763   4.048   5.272   2.886  0.2226  0.3741 -0.3393
 3691SOL     MW14764   4.122   5.228   2.871  0.2008  0.4271 -0.5980
 3692SOL     OW14765   2.935   3.206   2.533 -0.7868 -0.0264  0.3361
 3692SOL    HW114766   2.886   3.267   2.477  1.1487 -1.0508 -2.7601
 3692SOL    HW214767   3.006   3.258   2.569  0.0975 -0.0657 -1.2448
 3692SOL     MW14768   2.938   3.220   2.530 -0.4258 -0.1626 -0.2626
 3693SOL     OW14769   3.836   4.560   4.681 -0.4458 -0.0476 -0.6640
 3693SOL    HW114770   3.810   4.631   4.623  0.9920  0.1090 -1.1494
 3693SOL    HW214771   3.878   4.496   4.624  0.0267 -0.3969  0.0544
 3693SOL     MW14772   3.838   4.561   4.666 -0.2013 -0.0722 -0.6342
 3694SOL     OW14773   0.579   3.598   4.926 -0.0131 -0.6370 -0.2429
 3694SOL    HW114774   0.486   3.620   4.929 -0.3524 -1.8662 -1.0919
 3694SOL    HW214775   0.613   3.626   5.011 -1.2632 -0.6515  0.2841
 3694SOL     MW14776   0.571   3.605   4.937 -0.2166 -0.7962 -0.2841
 3695SOL     OW14777   0.214   2.162   3.480  0.2427  0.7194 -0.0511
 3695SOL    HW114778   0.187   2.130   3.394  0.4293  0.6829 -0.0948
 3695SOL    HW214779   0.301   2.126   3.494 -0.7840 -1.4529  1.2628
 3695SOL     MW14780   0.222   2.153   3.471  0.1352  0.4366  0.1115
 3696SOL     OW14781   2.141   4.675   0.746 -0.6279 -0.3712  0.6414
 3696SOL    HW114782   2.212   4.730   0.779 -1.4369  0.6035  0.8248
 3696SOL    HW214783   2.120   4.713   0.660 -0.7318 -0.8360  0.4614
 3696SOL     MW14784   2.147   4.687   0.739 -0.7448 -0.3060  0.6419
 3697SOL     OW14785   3.024   2.592   3.526 -0.7415 -0.3824 -0.2322
 3697SOL    HW114786   3.048   2.609   3.618 -0.6134  1.8133 -0.6197
 3697SOL    HW214787   2.929   2.601   3.524 -0.5497  1.9235 -0.7093
 3697SOL     MW14788   3.015   2.595   3.538 -0.7006  0.1938 -0.3429
 3698SOL     OW14789   1.134   4.981   2.919 -0.2043 -0.3612  0.2197
 3698SOL    HW114790   1.058   4.926   2.937 -0.2402 -0.0323  1.0900
 3698SOL    HW214791   1.102   5.071   2.928 -0.2415 -0.1518 -1.5433
 3698SOL     MW14792   1.120   4.986   2.922 -0.2137 -0.2923  0.1054
 3699SOL     OW14793   5.388   4.838   2.616  0.5292 -0.1403 -0.2466
 3699SOL    HW114794   5.336   4.865   2.692  0.0336  0.7008 -0.8706
 3699SOL    HW214795   5.381   4.912   2.555 -1.4300 -1.9337 -2.3341
 3699SOL     MW14796   5.381   4.851   2.618  0.2149 -0.2622 -0.5937
 3700SOL     OW14797   0.892   3.969   0.371  0.4228  0.1528  0.0787
 3700SOL    HW114798   0.811   3.962   0.320  0.2159  0.4713  0.3562
 3700SOL    HW214799   0.959   3.992   0.307  0.0235  1.3206  0.0516
 3700SOL     MW14800   0.890   3.971   0.356  0.3452  0.3431  0.1107
 3701SOL     OW14801   4.894   2.347   4.222 -0.4413  0.0082 -0.5975
 3701SOL    HW114802   4.933   2.403   4.290 -0.9076 -0.8614  0.4054
 3701SOL    HW214803   4.808   2.323   4.257  0.4034 -2.7324 -0.2046
 3701SOL     MW14804   4.888   2.351   4.236 -0.3929 -0.4539 -0.4188
 3702SOL     OW14805   2.028   1.793   4.520 -0.3959  0.3733  0.1285
 3702SOL    HW114806   1.968   1.832   4.456 -1.8862  0.7766  1.6900
 3702SOL    HW214807   1.980   1.797   4.603  0.2257 -2.8349  0.7767
 3702SOL     MW14808   2.014   1.798   4.522 -0.5071  0.0142  0.4113
 3703SOL     OW14809   2.945   4.133   3.168 -0.1780 -0.0818  0.4903
 3703SOL    HW114810   2.895   4.103   3.243  1.6123 -0.7099  1.4837
 3703SOL    HW214811   2.966   4.224   3.188 -0.9824  0.2261  0.0079
 3703SOL     MW14812   2.941   4.141   3.180 -0.0518 -0.1228  0.5558
 3704SOL     OW14813   2.660   5.435   2.470  0.9853 -0.2145 -0.8197
 3704SOL    HW114814   2.577   5.388   2.463  0.6096  0.5409 -1.6180
 3704SOL    HW214815   2.675   5.445   2.564 -0.1589  0.2077 -0.6763
 3704SOL     MW14816   2.652   5.430   2.481  0.7907 -0.0637 -0.9036
 3705SOL     OW14817   1.449   0.437   2.149 -0.6443 -0.1985  0.1754
 3705SOL    HW114818   1.540   0.447   2.176 -0.7584  1.3783  0.0843
 3705SOL    HW214819   1.413   0.526   2.155 -2.0353 -0.7112 -0.2760
 3705SOL     MW14820   1.456   0.450   2.153 -0.8370 -0.0623  0.1060
 3706SOL     OW14821   3.135   3.996   3.351 -0.1412 -0.0871 -0.5877
 3706SOL    HW114822   3.060   4.044   3.315 -1.1495  0.4479  2.0523
 3706SOL    HW214823   3.194   3.985   3.276 -2.4076  0.2885 -2.5513
 3706SOL     MW14824   3.133   4.001   3.337 -0.5604  0.0294 -0.5011
 3707SOL     OW14825   4.209   4.416   4.181  0.3458 -0.8151 -0.4904
 3707SOL    HW114826   4.290   4.438   4.135 -0.6079 -1.1525 -2.3981
 3707SOL    HW214827   4.159   4.364   4.119 -0.3889 -2.6053  1.4508
 3707SOL     MW14828   4.213   4.412   4.167  0.1297 -1.0875 -0.4861
 3708SOL     OW14829   0.071   2.819   1.448 -0.1055  0.7763  0.1028
 3708SOL    HW114830   0.117   2.781   1.374 -0.6100  1.1156 -0.4021
 3708SOL    HW214831   0.014   2.885   1.409 -0.6571  0.7014  0.7555
 3708SOL     MW14832   0.069   2.823   1.434 -0.2407  0.8101  0.1218
 3709SOL     OW14833   0.182   0.628   4.313 -0.0787 -0.0733 -0.1215
 3709SOL    HW114834   0.110   0.672   4.358 -0.6709  0.1898 -1.2731
 3709SOL    HW214835   0.153   0.622   4.222  2.2737  2.0938 -1.1356
 3709SOL     MW14836   0.169   0.633   4.307  0.1466  0.2378 -0.3988
 3710SOL     OW14837   0.377   4.966   1.135 -0.2257  0.0451 -0.1114
 3710SOL    HW114838   0.404   4.878   1.110  0.3169  0.6351 -1.7181
 3710SOL    HW214839   0.454   5.020   1.121 -0.1517  0.6088  2.1049
 3710SOL     MW14840   0.390   4.961   1.130 -0.1468  0.1928 -0.0334
 3711SOL     OW14841   4.099   3.312   5.084 -0.5229 -0.4366 -0.1404
 3711SOL    HW114842   4.182   3.352   5.108 -0.4082 -0.8782  0.2213
 3711SOL    HW214843   4.041   3.385   5.067 -1.1400  0.0074  3.1607
 3711SOL     MW14844   4.102   3.326   5.085 -0.5872 -0.4363  0.3285
 3712SOL     OW14845   4.291   0.857   5.061  0.5454  0.1862  0.2551
 3712SOL    HW114846   4.337   0.834   5.142  1.1739  0.0008 -0.1498
 3712SOL    HW214847   4.322   0.945   5.039 -1.0332  1.0261  1.2070
 3712SOL     MW14848   4.301   0.865   5.069  0.4238  0.2699  0.3251
 3713SOL     OW14849   1.634   3.454   3.125 -0.4475 -0.4106  0.1525
 3713SOL    HW114850   1.582   3.447   3.045  0.8317  2.1519 -1.0260
 3713SOL    HW214851   1.725   3.459   3.093  0.1688 -0.3272  1.8391
 3713SOL     MW14852   1.639   3.453   3.111 -0.2048 -0.0719  0.2175
 3714SOL     OW14853   3.022   2.647   3.796  0.6765  0.5553 -0.0036
 3714SOL    HW114854   3.024   2.579   3.864 -0.7613 -0.3503 -0.8162
 3714SOL    HW214855   2.939   2.692   3.809  0.5986  0.6779 -0.8671
 3714SOL     MW14856   3.012   2.644   3.806  0.4824  0.4551 -0.2181
 3715SOL     OW14857   4.399   5.130   5.120 -0.2887  0.2103 -0.2875
 3715SOL    HW114858   4.358   5.044   5.108  0.1257  0.0117 -0.2816
 3715SOL    HW214859   4.458   5.138   5.045 -0.7426  0.7352 -0.6008
 3715SOL     MW14860   4.401   5.120   5.109 -0.2937  0.2521 -0.3268
 3716SOL     OW14861   1.684   1.832   2.811 -0.5116  0.5443  0.2499
 3716SOL    HW114862   1.691   1.771   2.884  1.6867 -3.1954 -2.7255
 3716SOL    HW214863   1.759   1.891   2.822  0.1940 -0.4131  0.6227
 3716SOL     MW14864   1.695   1.832   2.822 -0.1399 -0.0570 -0.0833
 3717SOL     OW14865   0.958   0.511   2.209 -0.4220  0.0988 -0.0553
 3717SOL    HW114866   0.978   0.541   2.120 -1.3465  0.3452 -0.1958
 3717SOL    HW214867   1.034   0.460   2.235 -0.9801 -1.7399 -1.7828
 3717SOL     MW14868   0.970   0.508   2.201 -0.6118 -0.1050 -0.2944
 3718SOL     OW14869   1.443   2.056   0.227  0.6622 -0.1758 -0.5959
 3718SOL    HW114870   1.371   2.105   0.186  2.2575  1.0054 -2.1442
 3718SOL    HW214871   1.427   2.064   0.321 -0.7554  0.7865 -0.8813
 3718SOL     MW14872   1.431   2.063   0.233  0.6850  0.0986 -0.8306
 3719SOL     OW14873   0.137   2.499   3.195 -0.1901  0.0543  0.0452
 3719SOL    HW114874   0.062   2.518   3.139 -0.6191  0.3145  0.6995
 3719SOL    HW214875   0.116   2.541   3.278 -0.1073 -1.3259  0.7954
 3719SOL     MW14876   0.125   2.507   3.198 -0.2344 -0.0891  0.2250
 3720SOL     OW14877   2.143   3.408   2.012 -0.0567  0.2341 -0.3979
 3720SOL    HW114878   2.162   3.501   2.023  0.3098  0.1772 -0.5164
 3720SOL    HW214879   2.133   3.374   2.101  3.3840 -0.3362 -0.0695
 3720SOL     MW14880   2.144   3.415   2.025  0.4307  0.1538 -0.3711
 3721SOL     OW14881   1.344   0.265   1.896 -0.1966 -1.0681 -0.0384
 3721SOL    HW114882   1.251   0.244   1.906 -0.0115 -1.9120  0.0534
 3721SOL    HW214883   1.364   0.323   1.970 -0.4708 -1.5306  0.4058
 3721SOL     MW14884   1.335   0.270   1.907 -0.2080 -1.2354  0.0302
 3722SOL     OW14885   1.372   1.492   2.681 -0.0450 -0.2911 -0.5794
 3722SOL    HW114886   1.384   1.528   2.769 -0.8411 -0.0529 -0.5609
 3722SOL    HW214887   1.332   1.406   2.696 -0.3096 -0.1923 -0.7072
 3722SOL     MW14888   1.368   1.486   2.694 -0.1808 -0.2479 -0.5934
 3723SOL     OW14889   1.442   2.310   1.163  0.2952 -0.0930 -0.4267
 3723SOL    HW114890   1.484   2.384   1.206  1.1153  0.7960 -2.6336
 3723SOL    HW214891   1.349   2.321   1.182  0.6436  0.0008  1.4248
 3723SOL     MW14892   1.436   2.321   1.171  0.4448  0.0328 -0.4722
 3724SOL     OW14893   4.442   0.721   4.160  0.1372  0.3365 -0.1595
 3724SOL    HW114894   4.435   0.756   4.249 -2.1894 -0.3027 -0.0201
 3724SOL    HW214895   4.463   0.797   4.106 -1.6925  1.4031  0.5442
 3724SOL     MW14896   4.444   0.735   4.165 -0.3948  0.3912 -0.0516
 3725SOL     OW14897   0.830   2.326   4.544 -0.0446 -0.2667  0.8464
 3725SOL    HW114898   0.835   2.273   4.465  0.5146 -0.6195  1.1130
 3725SOL    HW214899   0.847   2.265   4.615 -0.7940 -0.0042  1.2660
 3725SOL     MW14900   0.832   2.312   4.543 -0.0689 -0.2783  0.9342
 3726SOL     OW14901   1.848   1.966   0.994  0.3548  0.0975  0.9086
 3726SOL    HW114902   1.819   2.021   0.920  1.5016 -0.2573  0.1699
 3726SOL    HW214903   1.860   2.028   1.066  2.2545  0.9713 -0.0870
 3726SOL     MW14904   1.846   1.981   0.994  0.7448  0.1640  0.6866
 3727SOL     OW14905   1.183   0.666   0.318  0.0756  0.1828  0.4264
 3727SOL    HW114906   1.110   0.710   0.276 -0.4542  1.1558  2.2701
 3727SOL    HW214907   1.145   0.621   0.393  1.2880  0.4334  1.2311
 3727SOL     MW14908   1.169   0.666   0.322  0.1630  0.3395  0.7655
 3728SOL     OW14909   2.036   4.931   4.934  0.4783 -0.7712  0.6837
 3728SOL    HW114910   2.083   5.015   4.939  0.9231 -0.9017 -0.8051
 3728SOL    HW214911   1.944   4.955   4.931  0.6296 -0.0950 -2.2784
 3728SOL     MW14912   2.030   4.945   4.934  0.5546 -0.7013  0.1139
 3729SOL     OW14913   3.651   3.250   3.709 -0.5843  0.1403 -0.0056
 3729SOL    HW114914   3.640   3.333   3.755  0.3009  0.5934 -0.5835
 3729SOL    HW214915   3.567   3.235   3.666 -0.9055  0.4962  0.4914
 3729SOL     MW14916   3.639   3.259   3.709 -0.5121  0.2439 -0.0160
 3730SOL     OW14917   3.456   3.528   4.606 -0.0046  0.3268  0.1712
 3730SOL    HW114918   3.393   3.528   4.533  0.5590 -2.3881 -0.3980
 3730SOL    HW214919   3.502   3.612   4.597 -0.9996  0.7384 -1.6581
 3730SOL     MW14920   3.454   3.539   4.595 -0.0599  0.0319 -0.1358
 3731SOL     OW14921   3.715   4.774   3.396 -0.3433  0.2785 -0.1095
 3731SOL    HW114922   3.787   4.751   3.338 -0.3359  1.6306 -0.6718
 3731SOL    HW214923   3.642   4.720   3.367  0.1488 -0.3301 -0.2262
 3731SOL     MW14924   3.715   4.764   3.385 -0.2794  0.3737 -0.1964
 3732SOL     OW14925   0.519   4.059   2.231 -0.5256 -0.6592 -0.0577
 3732SOL    HW114926   0.535   4.009   2.151 -1.0949 -1.0184  0.0476
 3732SOL    HW214927   0.568   4.140   2.218 -0.2554 -0.8980 -0.5817
 3732SOL     MW14928   0.527   4.063   2.219 -0.5639 -0.7358 -0.1113
 3733SOL     OW14929   0.113   4.157   1.022  0.2553 -0.3793 -0.3671
 3733SOL    HW114930   0.195   4.144   1.069  0.2217 -0.7527 -0.4117
 3733SOL    HW214931   0.106   4.252   1.013  0.7233 -0.3480 -0.4364
 3733SOL     MW14932   0.122   4.168   1.027  0.3109 -0.4231 -0.3817
 3734SOL     OW14933   4.751   3.580   3.782 -0.0944  0.3542  0.0250
 3734SOL    HW114934   4.744   3.535   3.698 -1.0533  0.7481 -0.1244
 3734SOL    HW214935   4.712   3.520   3.845 -1.6376  1.0397 -0.2186
 3734SOL     MW14936   4.745   3.567   3.779 -0.4147  0.4924 -0.0253
 3735SOL     OW14937   2.078   4.458   0.921  0.5523 -0.1499  0.6078
 3735SOL    HW114938   2.114   4.530   0.869 -0.7283  0.4194  0.4794
 3735SOL    HW214939   2.152   4.428   0.974  1.1770  1.0773  0.4762
 3735SOL     MW14940   2.092   4.463   0.921  0.4683  0.0801  0.5745
 3736SOL     OW14941   3.328   2.348   0.382  0.0530  0.2568  0.5158
 3736SOL    HW114942   3.286   2.411   0.440  0.4397 -0.5924  1.7577
 3736SOL    HW214943   3.337   2.394   0.299 -2.6038  0.7466  0.4114
 3736SOL     MW14944   3.323   2.362   0.379 -0.2376  0.2108  0.6614
 3737SOL     OW14945   1.518   2.061   2.770 -0.5286  0.3455 -0.1913
 3737SOL    HW114946   1.575   1.993   2.806 -0.9966  0.4347  0.7648
 3737SOL    HW214947   1.544   2.069   2.679  1.4228  0.8110  0.3546
 3737SOL     MW14948   1.529   2.053   2.763 -0.3387  0.4165  0.0010
 3738SOL     OW14949   5.262   1.051   1.564 -0.0266  0.1289 -0.1760
 3738SOL    HW114950   5.268   1.113   1.636 -0.8357 -0.6244  0.5645
 3738SOL    HW214951   5.304   1.095   1.490  0.0114  1.2713  0.5136
 3738SOL     MW14952   5.268   1.064   1.563 -0.1253  0.1787  0.0071
 3739SOL     OW14953   5.317   4.066   3.241 -0.1896 -0.2327 -0.5374
 3739SOL    HW114954   5.277   3.992   3.196 -0.3217 -0.1499 -0.5558
 3739SOL    HW214955   5.339   4.127   3.170 -0.9599  0.1677 -0.4319
 3739SOL     MW14956   5.315   4.064   3.226 -0.3051 -0.1708 -0.5262
 3740SOL     OW14957   0.294   3.596   1.250 -0.3557 -0.5030  0.1717
 3740SOL    HW114958   0.206   3.633   1.244 -0.0892 -0.0759 -1.3027
 3740SOL    HW214959   0.292   3.518   1.194  0.5207  0.1802 -0.8469
 3740SOL     MW14960   0.283   3.591   1.242 -0.2094 -0.3608 -0.1475
 3741SOL     OW14961   1.470   1.291   1.209 -0.0149 -0.2003 -0.6767
 3741SOL    HW114962   1.431   1.306   1.124 -1.5167 -0.5068 -0.0647
 3741SOL    HW214963   1.433   1.358   1.266  1.4421  0.3960 -0.3850
 3741SOL     MW14964   1.461   1.301   1.206 -0.0207 -0.1632 -0.5610
 3742SOL     OW14965   1.074   2.323   2.632 -0.1523 -0.2735 -1.0570
 3742SOL    HW114966   1.087   2.352   2.541  2.4549  0.6179 -0.4974
 3742SOL    HW214967   1.011   2.386   2.668 -2.1135 -1.3063 -2.4742
 3742SOL     MW14968   1.068   2.335   2.625 -0.0696 -0.2916 -1.1668
 3743SOL     OW14969   3.946   4.805   1.153 -0.3085  0.1743  0.2638
 3743SOL    HW114970   3.898   4.741   1.205  1.1592 -1.2888 -0.0820
 3743SOL    HW214971   3.881   4.871   1.130 -1.3007  0.1950  2.8083
 3743SOL     MW14972   3.931   4.805   1.156 -0.2476 -0.0103  0.5452
 3744SOL     OW14973   3.596   2.808   0.357  0.3186  0.1822  0.2886
 3744SOL    HW114974   3.627   2.787   0.445  0.7159  0.1315  0.1393
 3744SOL    HW214975   3.619   2.731   0.304 -4.0118 -1.9115  1.0329
 3744SOL     MW14976   3.603   2.795   0.361 -0.1849 -0.0923  0.3648
 3745SOL     OW14977   2.178   0.108   1.330 -0.2101  0.3077  0.8618
 3745SOL    HW114978   2.191   0.014   1.329 -1.5017  0.1063  0.2716
 3745SOL    HW214979   2.178   0.134   1.237  0.9606  1.0263  1.0434
 3745SOL     MW14980   2.180   0.099   1.318 -0.2256  0.3739  0.8095
 3746SOL     OW14981   4.280   1.832   1.873  0.1673 -0.3249  0.2487
 3746SOL    HW114982   4.207   1.889   1.850  0.6125  0.9521  1.8623
 3746SOL    HW214983   4.358   1.885   1.856  0.6072 -0.5734  1.4030
 3746SOL     MW14984   4.281   1.846   1.868  0.2806 -0.1932  0.6031
 3747SOL     OW14985   2.460   0.583   2.029  0.1888 -0.4761  0.1916
 3747SOL    HW114986   2.487   0.556   1.941  2.0199  0.0032  0.5482
 3747SOL    HW214987   2.527   0.545   2.087  0.5783  1.4307  1.0804
 3747SOL     MW14988   2.472   0.574   2.025  0.4730 -0.1707  0.3510
 3748SOL     OW14989   4.868   0.521   2.945 -0.5169 -0.0144  0.4470
 3748SOL    HW114990   4.776   0.547   2.936 -0.4199  0.4321  0.7100
 3748SOL    HW214991   4.911   0.599   2.981 -0.0157 -0.1881  0.2258
 3748SOL     MW14992   4.862   0.535   2.948 -0.4403  0.0205  0.4523
 3749SOL     OW14993   4.731   3.672   1.056 -0.3741  0.6362  0.2391
 3749SOL    HW114994   4.711   3.599   1.115  0.1879  1.3302  1.3223
 3749SOL    HW214995   4.649   3.719   1.046 -1.2240 -1.1067 -1.9332
 3749SOL     MW14996   4.718   3.669   1.062 -0.4110  0.5019  0.0997
 3750SOL     OW14997   4.362   3.002   3.639  0.6742  0.3994 -0.3898
 3750SOL    HW114998   4.284   3.048   3.671  0.0116 -0.6370 -0.4736
 3750SOL    HW214999   4.376   2.932   3.702  0.0450 -0.9434 -1.6660
 3750SOL     MW15000   4.354   2.999   3.651  0.5088  0.0948 -0.5639
 3751SOL     OW15001   0.784   1.517   2.052 -0.7044 -0.0858  0.2270
 3751SOL    HW115002   0.762   1.591   1.995 -0.8435 -0.5985 -0.3916
 3751SOL    HW215003   0.779   1.553   2.140 -0.4392  0.7291 -0.0849
 3751SOL     MW15004   0.781   1.531   2.056 -0.6882 -0.0471  0.1079
 3752SOL     OW15005   5.140   3.229   1.965  0.0802 -0.1195  0.0044
 3752SOL    HW115006   5.092   3.195   1.890  1.9629 -0.0770 -1.2527
 3752SOL    HW215007   5.161   3.319   1.941  0.1709  0.1004  0.8641
 3752SOL     MW15008   5.136   3.236   1.953  0.3328 -0.0859 -0.0465
 3753SOL     OW15009   0.025   3.335   4.110  0.0469 -0.0314  0.0412
 3753SOL    HW115010   0.026   3.279   4.032 -2.1374  0.4318 -0.3928
 3753SOL    HW215011  -0.044   3.299   4.165  0.0146  0.9944  0.7029
 3753SOL     MW15012   0.016   3.323   4.107 -0.2368  0.1592  0.0704
 3754SOL     OW15013   5.280   1.890   4.569  0.2172 -0.2174 -0.8094
 3754SOL    HW115014   5.197   1.846   4.556 -0.0485  0.6044 -2.0777
 3754SOL    HW215015   5.273   1.970   4.518  1.4699  0.2837 -0.2433
 3754SOL     MW15016   5.269   1.895   4.561  0.3435 -0.0481 -0.8993
 3755SOL     OW15017   1.087   3.967   4.943 -0.0724 -0.4067 -0.2102
 3755SOL    HW115018   1.071   4.034   4.877 -0.3795  0.0534  0.3301
 3755SOL    HW215019   1.169   3.993   4.985  1.4122 -1.9698 -1.9829
 3755SOL     MW15020   1.095   3.979   4.940  0.0783 -0.5479 -0.3679
 3756SOL     OW15021   0.457   2.897   4.257  0.2432 -0.0925 -0.5238
 3756SOL    HW115022   0.511   2.976   4.268  1.2225 -0.5364 -1.9244
 3756SOL    HW215023   0.371   2.922   4.293  1.4609  0.4532  2.2536
 3756SOL     MW15024   0.453   2.911   4.263  0.5244 -0.0795 -0.3476
 3757SOL     OW15025   2.519   3.791   1.851 -0.2700 -0.0322  0.3181
 3757SOL    HW115026   2.559   3.847   1.918 -0.3833 -0.4018  0.7015
 3757SOL    HW215027   2.516   3.704   1.891  0.9712 -0.5764 -0.7017
 3757SOL     MW15028   2.524   3.787   1.865 -0.1257 -0.1492  0.2367
 3758SOL     OW15029   0.830   2.335   5.037 -0.0319 -0.0369 -0.3527
 3758SOL    HW115030   0.773   2.412   5.040 -1.5964 -1.1705  0.0485
 3758SOL    HW215031   0.874   2.334   5.122 -2.2892 -1.1896  0.9044
 3758SOL     MW15032   0.828   2.345   5.048 -0.5211 -0.3296 -0.1404
 3759SOL     OW15033   4.530   3.273   1.198  0.4226  0.5309  0.6690
 3759SOL    HW115034   4.534   3.366   1.179  1.2168  0.7655  1.8887
 3759SOL    HW215035   4.581   3.262   1.278  0.1481 -0.9175  0.6806
 3759SOL     MW15036   4.537   3.283   1.206  0.4891  0.3755  0.8266
 3760SOL     OW15037   0.651   4.571   4.530 -0.0741  0.1444 -0.1539
 3760SOL    HW115038   0.707   4.586   4.453  0.3363  0.9603  0.2809
 3760SOL    HW215039   0.587   4.506   4.501  0.5711 -0.1656 -0.9349
 3760SOL     MW15040   0.650   4.565   4.516  0.0610  0.2091 -0.1982
 3761SOL     OW15041   2.563   5.018   3.150  0.0768  0.3622  0.5006
 3761SOL    HW115042   2.569   5.076   3.226 -0.2715 -1.9256  2.4098
 3761SOL    HW215043   2.533   4.934   3.187  0.1442 -0.9203 -2.1477
 3761SOL     MW15044   2.560   5.015   3.165  0.0408 -0.0948  0.4060
 3762SOL     OW15045   1.446   1.461   0.104  0.3218  0.9020  0.3545
 3762SOL    HW115046   1.533   1.425   0.120  0.0605  1.1809  2.7451
 3762SOL    HW215047   1.426   1.512   0.182 -4.1574 -3.5145  2.6364
 3762SOL     MW15048   1.454   1.463   0.116 -0.2850  0.3723  0.9526
 3763SOL     OW15049   4.133   4.683   3.549  0.1247 -0.4043 -0.1250
 3763SOL    HW115050   4.222   4.672   3.584  0.4824  1.7954 -0.2011
 3763SOL    HW215051   4.081   4.711   3.624  0.2149  1.3095 -0.6568
 3763SOL     MW15052   4.138   4.685   3.563  0.1821  0.0966 -0.2028
 3764SOL     OW15053   3.615   2.366   0.182  0.7381  0.4206  0.4063
 3764SOL    HW115054   3.527   2.404   0.184  0.5135 -0.1134  1.4516
 3764SOL    HW215055   3.603   2.279   0.145  1.2249  1.2414 -1.8107
 3764SOL     MW15056   3.602   2.360   0.178  0.7717  0.4573  0.2563
 3765SOL     OW15057   1.802   5.415   0.385 -0.1869  0.2307 -0.2739
 3765SOL    HW115058   1.777   5.324   0.373  1.3405 -0.3162  0.3659
 3765SOL    HW215059   1.831   5.444   0.299 -1.8532  0.5204 -0.7577
 3765SOL     MW15060   1.803   5.407   0.373 -0.2047  0.1978 -0.2539
 3766SOL     OW15061   3.789   4.295   1.176 -0.0102  0.4145 -0.4213
 3766SOL    HW115062   3.772   4.251   1.093 -1.3949 -0.2893  0.2091
 3766SOL    HW215063   3.703   4.325   1.206 -0.4643 -3.4495  3.0149
 3766SOL     MW15064   3.776   4.293   1.169 -0.2456 -0.1702  0.0992
 3767SOL     OW15065   1.975   4.675   2.845  0.1548 -0.0707 -0.2637
 3767SOL    HW115066   1.987   4.717   2.930  1.0624 -1.1599  0.1761
 3767SOL    HW215067   1.891   4.708   2.813 -1.4672 -1.5056  2.1988
 3767SOL     MW15068   1.966   4.685   2.851  0.0633 -0.3938  0.1078
 3768SOL     OW15069   0.542   2.030   4.650 -0.8679  0.5887 -0.6750
 3768SOL    HW115070   0.532   2.064   4.561  1.6848  1.3232 -0.7709
 3768SOL    HW215071   0.538   2.108   4.706 -0.7861  0.3419 -0.3205
 3768SOL     MW15072   0.540   2.044   4.646 -0.5307  0.6511 -0.6419
 3769SOL     OW15073   5.062   1.155   2.505  0.2441 -0.0350  0.1604
 3769SOL    HW115074   5.010   1.098   2.449 -0.9891  1.2288 -0.0442
 3769SOL    HW215075   5.069   1.237   2.456  0.7679  0.4636  1.0306
 3769SOL     MW15076   5.056   1.158   2.492  0.1533  0.1906  0.2456
 3770SOL     OW15077   0.090   1.928   5.029  0.0480  0.2429 -0.0725
 3770SOL    HW115078   0.085   1.845   5.075  0.1525 -0.2924 -1.0174
 3770SOL    HW215079   0.058   1.992   5.092 -1.0396 -0.6445  0.2962
 3770SOL     MW15080   0.085   1.926   5.043 -0.0778  0.0608 -0.1463
 3771SOL     OW15081   0.810   5.222   4.190 -0.2588  0.0794 -0.0360
 3771SOL    HW115082   0.738   5.228   4.252 -1.9819 -3.2080 -1.4648
 3771SOL    HW215083   0.774   5.256   4.108  0.1819 -0.5063 -0.4845
 3771SOL     MW15084   0.796   5.227   4.187 -0.4230 -0.4164 -0.2763
 3772SOL     OW15085   0.279   1.389   1.288 -0.3843  0.2364  0.2286
 3772SOL    HW115086   0.298   1.462   1.229  0.8255 -0.2497 -0.0018
 3772SOL    HW215087   0.299   1.310   1.237 -0.2158 -0.2142  0.9720
 3772SOL     MW15088   0.284   1.388   1.274 -0.2079  0.1165  0.2943
 3773SOL     OW15089   0.090   3.786   0.329 -0.6008 -0.1869  0.1190
 3773SOL    HW115090   0.101   3.773   0.423  0.1679 -1.2991 -0.0937
 3773SOL    HW215091   0.103   3.698   0.292 -1.7636  0.0673 -0.9508
 3773SOL     MW15092   0.094   3.773   0.336 -0.6513 -0.2967 -0.0452
 3774SOL     OW15093   4.995   3.814   2.291 -0.5682 -0.2798  0.0419
 3774SOL    HW115094   4.955   3.859   2.366 -0.1776 -1.0121  0.7022
 3774SOL    HW215095   5.072   3.868   2.270 -0.9369  0.1843 -0.1325
 3774SOL     MW15096   5.000   3.827   2.298 -0.5654 -0.3142  0.1041
 3775SOL     OW15097   3.647   3.071   0.405  0.3450 -0.0717  0.6514
 3775SOL    HW115098   3.640   2.984   0.366 -2.5241 -0.8676  2.6062
 3775SOL    HW215099   3.741   3.084   0.419  0.9734 -2.1446 -1.0989
 3775SOL     MW15100   3.658   3.061   0.402  0.0582 -0.4389  0.6776
 3776SOL     OW15101   2.454   4.487   0.454  0.5529 -0.0298  0.1702
 3776SOL    HW115102   2.365   4.474   0.486  0.7522 -1.1474  0.3191
 3776SOL    HW215103   2.508   4.435   0.514  1.2424  0.1674 -0.2731
 3776SOL     MW15104   2.450   4.479   0.466  0.6667 -0.1476  0.1325
 3777SOL     OW15105   3.383   0.578   4.558 -0.4217  0.2501 -0.4459
 3777SOL    HW115106   3.390   0.646   4.626 -0.0727 -0.8472  0.6516
 3777SOL    HW215107   3.355   0.500   4.605  1.7259 -1.0616 -1.1854
 3777SOL     MW15108   3.380   0.577   4.573 -0.1021 -0.0583 -0.4001
 3778SOL     OW15109   2.837   2.702   4.731  0.2995  0.5205 -0.0051
 3778SOL    HW115110   2.865   2.629   4.786 -0.2023  1.0638  0.9977
 3778SOL    HW215111   2.751   2.727   4.765  0.5464  1.7062 -0.1882
 3778SOL     MW15112   2.830   2.696   4.742  0.2669  0.7418  0.0998
 3779SOL     OW15113   0.855   4.965   4.131  0.2208  0.3782 -0.1375
 3779SOL    HW115114   0.921   4.929   4.190 -0.5219 -1.0497 -0.1400
 3779SOL    HW215115   0.856   5.059   4.148  1.5463  0.2525  0.5708
 3779SOL     MW15116   0.863   4.972   4.141  0.2954  0.1793 -0.0472
 3780SOL     OW15117   2.383   4.915   3.868  0.0420  0.4896  0.4422
 3780SOL    HW115118   2.430   4.961   3.938 -0.1496  1.7120 -0.2020
 3780SOL    HW215119   2.391   4.973   3.792 -0.7838 -0.2393 -0.2173
 3780SOL     MW15120   2.390   4.928   3.868 -0.0882  0.5528  0.2753
 3781SOL     OW15121   3.576   4.786   1.616  0.0428 -0.2352 -0.1181
 3781SOL    HW115122   3.569   4.778   1.521 -1.6977 -0.2192 -0.0231
 3781SOL    HW215123   3.582   4.881   1.631 -1.1398 -0.1436 -0.1555
 3781SOL     MW15124   3.576   4.797   1.606 -0.3314 -0.2214 -0.1107
 3782SOL     OW15125   0.114   3.654   2.620  0.1607 -0.1290 -0.5710
 3782SOL    HW115126   0.164   3.687   2.545  1.5013  0.0608  0.3728
 3782SOL    HW215127   0.030   3.700   2.615  0.8908  1.2174 -0.9605
 3782SOL     MW15128   0.109   3.664   2.610  0.4257  0.0677 -0.5000
 3783SOL     OW15129   4.184   1.630   3.797 -0.9864 -0.1580 -0.3702
 3783SOL    HW115130   4.234   1.704   3.764  0.9758 -0.8631  0.8541
 3783SOL    HW215131   4.105   1.628   3.742  0.8743  0.2315 -3.3058
 3783SOL     MW15132   4.180   1.639   3.786 -0.4970 -0.1984 -0.5892
 3784SOL     OW15133   4.142   1.348   3.516  0.0286  0.2348  0.2463
 3784SOL    HW115134   4.159   1.309   3.602  1.9779 -0.2255 -0.2992
 3784SOL    HW215135   4.104   1.433   3.536 -0.1180 -0.1163  1.5527
 3784SOL     MW15136   4.139   1.354   3.530  0.2594  0.1309  0.3437
 3785SOL     OW15137   5.190   0.148   2.419 -0.0610  0.6735  0.3025
 3785SOL    HW115138   5.196   0.199   2.500  2.0861  1.8978 -0.5631
 3785SOL    HW215139   5.181   0.213   2.350  2.8503  0.0224 -0.8353
 3785SOL     MW15140   5.190   0.163   2.421  0.5865  0.7469  0.0461
 3786SOL     OW15141   0.256   0.905   2.586  0.6494 -0.0324  0.9578
 3786SOL    HW115142   0.268   0.832   2.526 -0.8894  1.4010 -1.2315
 3786SOL    HW215143   0.345   0.938   2.601  1.1542 -1.0111  0.2397
 3786SOL     MW15144   0.269   0.900   2.580  0.5170  0.0258  0.5856
 3787SOL     OW15145   1.858   1.585   1.768 -0.3226 -0.1689  0.4697
 3787SOL    HW115146   1.882   1.529   1.695 -1.1265  0.0451  0.0204
 3787SOL    HW215147   1.928   1.574   1.832  1.3108  0.9479 -1.0294
 3787SOL     MW15148   1.870   1.577   1.767 -0.2164  0.0014  0.2203
 3788SOL     OW15149   1.353   3.305   0.397  0.2627  0.2456 -0.5784
 3788SOL    HW115150   1.275   3.260   0.365 -0.5256 -0.3671  1.9493
 3788SOL    HW215151   1.348   3.392   0.359 -0.7591 -0.2843 -1.7501
 3788SOL     MW15152   1.343   3.310   0.388  0.0310  0.0993 -0.4048
 3789SOL     OW15153   4.867   0.243   1.361 -0.0108  0.2852  0.3283
 3789SOL    HW115154   4.788   0.245   1.415  0.2164  0.2929  0.6705
 3789SOL    HW215155   4.839   0.205   1.278 -1.0759  3.1290 -0.7249
 3789SOL     MW15156   4.854   0.239   1.358 -0.1181  0.6503  0.2373
 3790SOL     OW15157   2.498   4.609   2.389  0.1386  0.1923  0.1574
 3790SOL    HW115158   2.412   4.617   2.348  0.1383 -1.5259 -0.2363
 3790SOL    HW215159   2.483   4.555   2.466  0.7934  0.2657  0.3437
 3790SOL     MW15160   2.485   4.603   2.394  0.2224 -0.0182  0.1309
 3791SOL     OW15161   0.121   3.280   1.966 -0.1497  0.3238  0.3680
 3791SOL    HW115162   0.051   3.245   1.911  0.5367 -1.3535  0.4972
 3791SOL    HW215163   0.104   3.243   2.053  1.2025 -0.6449  0.2656
 3791SOL     MW15164   0.110   3.270   1.970  0.1112 -0.0149  0.3714
 3792SOL     OW15165   3.319   2.228   2.362  0.5178 -0.3023 -0.6923
 3792SOL    HW115166   3.388   2.235   2.427  0.7540 -1.3834 -0.8124
 3792SOL    HW215167   3.249   2.178   2.405 -0.2988  0.9639 -0.4947
 3792SOL     MW15168   3.319   2.222   2.376  0.4435 -0.2786 -0.6824
 3793SOL     OW15169   0.794   0.767   4.970  0.3898  0.3602  0.5538
 3793SOL    HW115170   0.871   0.711   4.963 -0.1656 -0.7862  2.7015
 3793SOL    HW215171   0.821   0.850   4.931  1.1701 -1.3535 -2.9879
 3793SOL     MW15172   0.808   0.771   4.964  0.4186 -0.0059  0.3753
 3794SOL     OW15173   0.428   3.739   1.897 -0.5051 -0.5603 -0.6609
 3794SOL    HW115174   0.434   3.835   1.894 -0.7520 -0.4731  0.7643
 3794SOL    HW215175   0.519   3.710   1.910 -0.6619 -0.3624  1.1502
 3794SOL     MW15176   0.440   3.748   1.899 -0.5568 -0.5238 -0.2466
 3795SOL     OW15177   2.354   0.788   1.091 -0.4343  0.6166  0.2519
 3795SOL    HW115178   2.339   0.759   1.181  1.6232  1.2897  0.8595
 3795SOL    HW215179   2.349   0.884   1.096 -0.7873  0.6430 -0.4681
 3795SOL     MW15180   2.351   0.797   1.103 -0.2161  0.7062  0.2375
 3796SOL     OW15181   5.410   1.115   1.310  0.7994 -0.3015  0.3613
 3796SOL    HW115182   5.354   1.138   1.236 -1.3318 -1.0709  1.6469
 3796SOL    HW215183   5.469   1.048   1.276  1.6611  1.2026 -1.2807
 3796SOL     MW15184   5.410   1.109   1.297  0.6369 -0.2075  0.3157
 3797SOL     OW15185   2.186   4.082   2.827  0.4652  0.4615  0.4135
 3797SOL    HW115186   2.277   4.106   2.844  0.7970 -1.0913  0.9371
 3797SOL    HW215187   2.175   4.097   2.733  1.6241 -0.4378  0.1132
 3797SOL     MW15188   2.196   4.087   2.817  0.6560  0.1476  0.4421
 3798SOL     OW15189   0.267   4.024   1.774  0.0289  0.0905 -0.6086
 3798SOL    HW115190   0.245   4.115   1.755 -0.0389  0.0919 -0.5245
 3798SOL    HW215191   0.336   4.002   1.712  0.5463  0.4194 -0.1592
 3798SOL     MW15192   0.273   4.033   1.764  0.0865  0.1328 -0.5403
 3799SOL     OW15193   3.953   1.680   2.471  0.0155 -0.0037 -0.0075
 3799SOL    HW115194   4.018   1.738   2.433  0.5159 -0.1308  0.6444
 3799SOL    HW215195   3.874   1.695   2.419 -0.3734  2.4972  1.1513
 3799SOL     MW15196   3.951   1.689   2.459  0.0298  0.3002  0.2243
 3800SOL     OW15197   0.557   4.592   4.099 -0.0050  0.2496  0.2731
 3800SOL    HW115198   0.597   4.667   4.054  1.0269  0.6211  1.7393
 3800SOL    HW215199   0.548   4.525   4.031  1.4086  0.8303 -0.5266
 3800SOL     MW15200   0.561   4.593   4.084  0.3080  0.3715  0.3584
 3801SOL     OW15201   1.093   5.124   3.446  0.2680  0.7953  0.1068
 3801SOL    HW115202   1.167   5.071   3.417 -1.1969 -0.1492 -2.1689
 3801SOL    HW215203   1.059   5.079   3.523 -0.8760 -1.6485 -1.7039
 3801SOL     MW15204   1.098   5.112   3.452 -0.0660  0.3616 -0.4163
 3802SOL     OW15205   2.969   1.095   5.240 -0.2643  0.0256 -0.2730
 3802SOL    HW115206   3.061   1.070   5.230 -0.7918 -2.3012  0.3214
 3802SOL    HW215207   2.966   1.185   5.205  1.9228 -0.3419 -1.6456
 3802SOL     MW15208   2.981   1.104   5.234 -0.0519 -0.3193 -0.3726
 3803SOL     OW15209   0.990   1.427   4.048  0.1566 -0.7415  0.1918
 3803SOL    HW115210   0.965   1.470   3.967  0.6437 -0.1359  0.3575
 3803SOL    HW215211   0.925   1.357   4.060  0.1336 -0.8876 -0.7528
 3803SOL     MW15212   0.979   1.423   4.039  0.2160 -0.6827  0.0921
 3804SOL     OW15213   5.056   1.060   2.971  0.1296 -0.5542  0.4098
 3804SOL    HW115214   5.073   1.108   3.052 -2.1975 -0.7409  1.0907
 3804SOL    HW215215   4.978   1.008   2.990 -1.0669  0.1029 -2.2161
 3804SOL     MW15216   5.048   1.060   2.984 -0.3215 -0.4940  0.1608
 3805SOL     OW15217   4.469   4.664   4.345 -0.0827 -0.4229  0.0776
 3805SOL    HW115218   4.525   4.703   4.279 -2.3104 -0.7187 -2.1295
 3805SOL    HW215219   4.485   4.570   4.337 -1.1286 -0.5428 -0.8676
 3805SOL     MW15220   4.478   4.657   4.336 -0.5018 -0.4761 -0.3259
 3806SOL     OW15221   5.434   3.346   1.386  0.2641  0.2633 -0.2078
 3806SOL    HW115222   5.439   3.404   1.462 -1.2652 -0.4030  0.4495
 3806SOL    HW215223   5.462   3.400   1.312  0.6617  1.2709  0.6633
 3806SOL     MW15224   5.438   3.360   1.386  0.1193  0.3070 -0.0122
 3807SOL     OW15225   2.847   0.686   1.417  0.1968  0.2459  0.1245
 3807SOL    HW115226   2.907   0.731   1.476  0.6839  0.4528 -0.5275
 3807SOL    HW215227   2.837   0.744   1.342  0.6756 -0.6205 -0.6349
 3807SOL     MW15228   2.853   0.699   1.415  0.3205  0.1615 -0.0562
 3808SOL     OW15229   3.102   3.058   0.637  0.6230 -0.6662 -0.3317
 3808SOL    HW115230   3.133   3.030   0.551 -0.2098 -0.8574 -0.5839
 3808SOL    HW215231   3.141   3.144   0.651 -0.6260  0.1586 -1.6868
 3808SOL     MW15232   3.111   3.065   0.628  0.3565 -0.5851 -0.5374
 3809SOL     OW15233   5.023   1.152   5.343 -0.1488 -0.2376  0.3231
 3809SOL    HW115234   5.054   1.105   5.266 -0.6912 -1.0605  0.5893
 3809SOL    HW215235   4.940   1.109   5.366 -0.0834  0.1056  1.2605
 3809SOL     MW15236   5.016   1.141   5.336 -0.2099 -0.2990  0.4772
 3810SOL     OW15237   1.377   2.872   3.173 -1.2234 -0.3321 -0.2739
 3810SOL    HW115238   1.453   2.814   3.166  0.0489  1.3803 -1.2627
 3810SOL    HW215239   1.360   2.878   3.267  0.9719  0.5855  0.1120
 3810SOL     MW15240   1.384   2.865   3.184 -0.7795  0.0045 -0.3511
 3811SOL     OW15241   1.256   4.860   3.130  0.3100  0.3949  0.5871
 3811SOL    HW115242   1.229   4.898   3.046  1.0573 -0.6267 -0.1379
 3811SOL    HW215243   1.242   4.766   3.119  0.0655  0.2860  1.7489
 3811SOL     MW15244   1.251   4.853   3.118  0.3744  0.2502  0.6430
 3812SOL     OW15245   4.715   4.865   1.504 -0.2289  0.3137  0.6828
 3812SOL    HW115246   4.808   4.855   1.485 -0.1023  0.1703  1.3497
 3812SOL    HW215247   4.691   4.947   1.462  0.3505  0.6769  1.0451
 3812SOL     MW15248   4.724   4.874   1.496 -0.1385  0.3418  0.8146
 3813SOL     OW15249   1.484   3.098   3.014 -0.1408 -0.2826 -0.0203
 3813SOL    HW115250   1.447   3.026   3.066 -0.8955 -0.6017 -0.9746
 3813SOL    HW215251   1.422   3.111   2.942  1.4993 -0.7439 -1.6025
 3813SOL     MW15252   1.471   3.090   3.011 -0.0274 -0.3825 -0.3450
 3814SOL     OW15253   4.575   0.836   1.550  0.0538  0.0709 -0.0299
 3814SOL    HW115254   4.573   0.899   1.478  1.1622 -0.4957 -0.5932
 3814SOL    HW215255   4.601   0.753   1.508  0.9974 -0.2086  1.0559
 3814SOL     MW15256   4.578   0.833   1.535  0.3165 -0.0374  0.0370
 3815SOL     OW15257   5.424   2.066   2.873  0.2188 -0.1890  0.3550
 3815SOL    HW115258   5.434   2.109   2.788 -0.7729 -0.3937  0.1186
 3815SOL    HW215259   5.350   2.006   2.861 -0.3173  0.1908  1.5130
 3815SOL     MW15260   5.416   2.064   2.861  0.0232 -0.1666  0.4729
 3816SOL     OW15261   1.631   2.321   0.660 -0.1387 -0.0480 -0.3272
 3816SOL    HW115262   1.692   2.261   0.702  0.9256  0.9191 -0.4599
 3816SOL    HW215263   1.577   2.355   0.731  0.6654  0.4466  0.0586
 3816SOL     MW15264   1.632   2.317   0.674  0.1005  0.1391 -0.2948
 3817SOL     OW15265   0.157   0.838   0.620  0.8215  0.0998 -0.1420
 3817SOL    HW115266   0.149   0.834   0.525 -1.5547 -1.6669  0.0373
 3817SOL    HW215267   0.243   0.877   0.635  0.8114  1.4744 -2.9790
 3817SOL     MW15268   0.167   0.842   0.610  0.5160  0.0496 -0.4822
 3818SOL     OW15269   1.110   2.516   3.200 -0.6616 -0.0127  0.7119
 3818SOL    HW115270   1.141   2.580   3.136  1.1447 -1.1830  0.3227
 3818SOL    HW215271   1.104   2.434   3.151 -1.8570 -0.3925  1.4492
 3818SOL     MW15272   1.114   2.513   3.186 -0.5834 -0.2111  0.7564
 3819SOL     OW15273   3.587   0.841   0.440  0.0904 -0.3398 -0.0412
 3819SOL    HW115274   3.646   0.818   0.512 -0.1773 -0.2651  0.2045
 3819SOL    HW215275   3.646   0.870   0.370  0.2937  1.1719  0.7168
 3819SOL     MW15276   3.602   0.842   0.441  0.0822 -0.1367  0.0873
 3820SOL     OW15277   1.821   1.579   5.346 -0.0516 -0.2652 -0.3109
 3820SOL    HW115278   1.862   1.507   5.298  1.5430  1.3900 -1.5724
 3820SOL    HW215279   1.727   1.570   5.328  0.0704 -2.1612 -0.1910
 3820SOL     MW15280   1.814   1.569   5.337  0.1682 -0.2960 -0.4571
 3821SOL     OW15281   4.589   1.245   0.478 -0.3770  0.1267  0.0152
 3821SOL    HW115282   4.604   1.339   0.479 -1.9728  0.4080  1.4284
 3821SOL    HW215283   4.530   1.229   0.552 -1.2470 -1.8001 -1.0181
 3821SOL     MW15284   4.584   1.255   0.488 -0.6926 -0.0840  0.0638
 3822SOL     OW15285   4.388   4.447   1.508 -0.1203 -0.2524 -0.6114
 3822SOL    HW115286   4.317   4.446   1.572 -0.4289  0.3643 -0.9343
 3822SOL    HW215287   4.425   4.359   1.512  0.7313  0.1449  1.3653
 3822SOL     MW15288   4.383   4.435   1.517 -0.0508 -0.1226 -0.3997
 3823SOL     OW15289   2.900   3.110   3.820  0.0023  0.3233 -0.0459
 3823SOL    HW115290   2.884   3.048   3.891 -1.0257  0.5787 -0.0475
 3823SOL    HW215291   2.955   3.061   3.759  0.6797  0.0075  0.7775
 3823SOL     MW15292   2.905   3.096   3.822 -0.0426  0.3156  0.0593
 3824SOL     OW15293   5.286   2.354   0.375 -0.3647  0.3657 -0.4494
 3824SOL    HW115294   5.235   2.288   0.423 -0.5358  0.7149 -0.1403
 3824SOL    HW215295   5.254   2.348   0.285  1.4297 -1.7607 -1.0401
 3824SOL     MW15296   5.275   2.345   0.370 -0.1569  0.1382 -0.4855
 3825SOL     OW15297   1.777   3.112   0.879 -0.3853 -0.3363  0.0722
 3825SOL    HW115298   1.798   3.189   0.826 -2.0063 -0.8210 -1.3610
 3825SOL    HW215299   1.697   3.137   0.926  1.7785  0.6413  3.6029
 3825SOL     MW15300   1.769   3.125   0.878 -0.3158 -0.2732  0.3407
 3826SOL     OW15301   5.325   3.958   1.988 -0.0058 -0.3238  0.0486
 3826SOL    HW115302   5.417   3.983   1.988 -0.3936  1.3348 -1.7451
 3826SOL    HW215303   5.309   3.923   1.900 -1.1623 -0.2832  0.2183
 3826SOL     MW15304   5.334   3.956   1.977 -0.2035 -0.1063 -0.1593
 3827SOL     OW15305   0.167   1.268   2.206 -0.8623  0.3306  0.0449
 3827SOL    HW115306   0.258   1.297   2.199 -0.6652  0.3610  1.9641
 3827SOL    HW215307   0.172   1.190   2.263 -1.8712 -0.6771 -1.1970
 3827SOL     MW15308   0.180   1.262   2.213 -0.9662  0.2055  0.1316
 3828SOL     OW15309   0.097   4.368   5.043 -0.3346 -0.1099  0.2878
 3828SOL    HW115310   0.032   4.326   4.987  0.6724 -0.8246 -0.3850
 3828SOL    HW215311   0.073   4.341   5.131 -0.4292 -1.1036 -0.0296
 3828SOL     MW15312   0.085   4.359   5.047 -0.2178 -0.3286  0.1610
 3829SOL     OW15313   1.842   0.027   5.144 -0.0189 -0.8152  0.4562
 3829SOL    HW115314   1.763   0.038   5.092  0.1491 -0.9497  0.1695
 3829SOL    HW215315   1.814   0.045   5.234  0.1724  1.5783  0.0841
 3829SOL     MW15316   1.828   0.031   5.149  0.0271 -0.5260  0.3719
 3830SOL     OW15317   0.553   0.825   2.046  0.0094 -0.1783  0.3130
 3830SOL    HW115318   0.532   0.773   2.123  1.4287 -0.9023  0.2265
 3830SOL    HW215319   0.648   0.817   2.036  0.1751  1.8304 -0.1324
 3830SOL     MW15320   0.562   0.817   2.054  0.2123 -0.0139  0.2449
 3831SOL     OW15321   3.934   4.639   0.940  0.2350  0.2927 -0.4472
 3831SOL    HW115322   4.020   4.597   0.943  0.3004  0.4350 -0.2923
 3831SOL    HW215323   3.939   4.708   1.006 -0.8756 -1.3782  1.5204
 3831SOL     MW15324   3.946   4.643   0.949  0.1012  0.0971 -0.1755
 3832SOL     OW15325   4.944   2.366   3.379  0.1770 -0.2795  0.5793
 3832SOL    HW115326   4.967   2.288   3.327 -1.6815 -0.5140  0.0366
 3832SOL    HW215327   5.008   2.432   3.352  0.8764 -1.1727 -0.0387
 3832SOL     MW15328   4.955   2.364   3.369  0.0286 -0.4239  0.4307
 3833SOL     OW15329   4.906   3.031   3.734 -1.0176  0.1022  0.5297
 3833SOL    HW115330   4.945   3.118   3.728  0.1656 -0.3986  0.8867
 3833SOL    HW215331   4.929   2.989   3.651  0.2403 -0.6110  1.2261
 3833SOL     MW15332   4.914   3.037   3.722 -0.7051 -0.0532  0.6645
 3834SOL     OW15333   0.980   0.600   0.727  0.0628 -0.0979 -0.5492
 3834SOL    HW115334   0.997   0.600   0.821  2.2349 -1.5269 -0.8709
 3834SOL    HW215335   0.884   0.598   0.719 -0.1879  1.0281  1.5846
 3834SOL     MW15336   0.970   0.600   0.738  0.3087 -0.1367 -0.3172
 3835SOL     OW15337   2.300   1.209   5.322 -0.3105  0.0190 -0.1519
 3835SOL    HW115338   2.274   1.296   5.292 -0.5108  0.3436  0.9285
 3835SOL    HW215339   2.302   1.216   5.417  0.7192 -0.8662 -0.0954
 3835SOL     MW15340   2.297   1.221   5.330 -0.2044 -0.0528 -0.0064
 3836SOL     OW15341   3.534   0.549   0.937 -0.0592 -0.0529  0.4821
 3836SOL    HW115342   3.472   0.525   1.007 -0.0492 -3.8636 -0.5609
 3836SOL    HW215343   3.502   0.502   0.860  2.0061  1.0130 -1.1250
 3836SOL     MW15344   3.522   0.540   0.936  0.2064 -0.4043  0.1428
 3837SOL     OW15345   0.215   1.376   4.641  0.4923 -0.4882 -0.2167
 3837SOL    HW115346   0.273   1.424   4.699 -0.7283 -0.3272  0.9233
 3837SOL    HW215347   0.190   1.298   4.690  1.3855 -1.6500 -1.5228
 3837SOL     MW15348   0.219   1.372   4.655  0.4504 -0.6163 -0.2380
 3838SOL     OW15349   3.196   4.039   0.246  0.5519 -0.0172 -0.4418
 3838SOL    HW115350   3.178   4.011   0.336 -0.0620  1.4290 -0.0757
 3838SOL    HW215351   3.213   4.133   0.254  1.0355  0.0263 -1.7764
 3838SOL     MW15352   3.196   4.048   0.259  0.5352  0.1735 -0.5658
 3839SOL     OW15353   3.036   3.487   3.462 -0.0150 -0.3662 -0.0032
 3839SOL    HW115354   3.015   3.544   3.388 -1.3199 -1.0562 -0.1946
 3839SOL    HW215355   2.978   3.516   3.532  1.2533  0.3209  0.8170
 3839SOL     MW15356   3.026   3.498   3.462 -0.0197 -0.3666  0.0773
 3840SOL     OW15357   2.336   1.528   2.587 -0.5778  0.1461 -0.4431
 3840SOL    HW115358   2.373   1.559   2.670 -1.0568  2.2135 -0.9428
 3840SOL    HW215359   2.250   1.492   2.611  0.5342 -2.2462  0.3386
 3840SOL     MW15360   2.330   1.527   2.601 -0.4968  0.1045 -0.4070
 3841SOL     OW15361   1.032   5.329   4.303  0.0765 -0.4826 -0.0210
 3841SOL    HW115362   0.965   5.294   4.244 -0.1425 -1.6557  0.8883
 3841SOL    HW215363   1.100   5.363   4.245 -0.8512 -0.1861 -0.9496
 3841SOL     MW15364   1.033   5.329   4.288 -0.0703 -0.5948 -0.0235
 3842SOL     OW15365   2.286   2.643   0.577 -0.2177  0.4532  0.0058
 3842SOL    HW115366   2.205   2.641   0.527 -0.8670 -0.4865  1.0621
 3842SOL    HW215367   2.259   2.664   0.666  0.8574  1.5029  0.1120
 3842SOL     MW15368   2.272   2.646   0.582 -0.1632  0.4673  0.1546
 3843SOL     OW15369   3.629   2.796   4.870  0.4754  0.0527  0.3572
 3843SOL    HW115370   3.628   2.757   4.783 -1.1978  1.7784 -0.4718
 3843SOL    HW215371   3.574   2.739   4.923 -0.1271  0.0632 -0.2520
 3843SOL     MW15372   3.622   2.784   4.866  0.1841  0.2750  0.1731
 3844SOL     OW15373   5.361   3.497   2.827 -0.2018 -0.1729  0.0419
 3844SOL    HW115374   5.303   3.468   2.897 -1.1201 -0.0346 -0.6392
 3844SOL    HW215375   5.318   3.574   2.790  0.4182 -0.0611 -0.4776
 3844SOL     MW15376   5.348   3.503   2.831 -0.2400 -0.1409 -0.1118
 3845SOL     OW15377   4.524   4.858   4.134 -0.1411  0.4272  0.2098
 3845SOL    HW115378   4.545   4.951   4.124  1.3474  0.1354  0.3237
 3845SOL    HW215379   4.431   4.856   4.154 -0.9028  1.6989 -2.7061
 3845SOL     MW15380   4.515   4.870   4.135 -0.0480  0.5526 -0.1489
 3846SOL     OW15381   2.619   4.789   5.122 -0.3832  0.2233 -0.5770
 3846SOL    HW115382   2.645   4.704   5.086  0.8610  0.7756 -1.0272
 3846SOL    HW215383   2.677   4.852   5.080 -0.1782  1.1223  0.9633
 3846SOL     MW15384   2.630   4.786   5.112 -0.1977  0.4091 -0.4375
 3847SOL     OW15385   4.596   3.032   0.710 -0.4847  0.4134  0.1048
 3847SOL    HW115386   4.587   2.937   0.718 -0.6694  0.3776 -0.5136
 3847SOL    HW215387   4.670   3.054   0.767  0.4125 -0.2666 -0.7645
 3847SOL     MW15388   4.604   3.023   0.719 -0.3935  0.3218 -0.0857
 3848SOL     OW15389   0.670   1.373   3.220  0.2028 -0.3578 -0.0633
 3848SOL    HW115390   0.640   1.337   3.304 -2.7280 -0.0380 -0.8635
 3848SOL    HW215391   0.624   1.456   3.212  1.2791  0.1318 -1.5274
 3848SOL     MW15392   0.660   1.379   3.230 -0.0346 -0.2542 -0.3532
 3849SOL     OW15393   0.353   5.429   0.104  0.3133 -0.5297 -0.1419
 3849SOL    HW115394   0.390   5.362   0.046 -0.7137  0.0734 -1.5610
 3849SOL    HW215395   0.344   5.385   0.189 -0.5191 -2.2921 -1.0843
 3849SOL     MW15396   0.357   5.414   0.107  0.0753 -0.6781 -0.4442
 3850SOL     OW15397   5.221   0.540   5.048 -0.5763 -0.0840 -0.4182
 3850SOL    HW115398   5.153   0.473   5.035  0.4095 -1.3993  0.8570
 3850SOL    HW215399   5.294   0.510   4.994 -0.5181  0.5993 -0.7270
 3850SOL     MW15400   5.222   0.528   5.040 -0.4427 -0.1649 -0.2945
 3851SOL     OW15401   0.750   5.269   1.946 -0.3198 -0.5802  0.2478
 3851SOL    HW115402   0.676   5.265   2.007  0.0318 -0.8655  0.6631
 3851SOL    HW215403   0.765   5.177   1.922  0.1596 -0.5669  0.4866
 3851SOL     MW15404   0.742   5.257   1.951 -0.2134 -0.6150  0.3315
 3852SOL     OW15405   4.268   4.518   2.749 -0.4596 -0.2473  0.1643
 3852SOL    HW115406   4.185   4.537   2.705  0.9643  1.5039 -2.0253
 3852SOL    HW215407   4.297   4.436   2.710 -0.4043  0.0028 -0.3375
 3852SOL     MW15408   4.261   4.510   2.738 -0.2702  0.0089 -0.1802
 3853SOL     OW15409   3.117   4.723   0.530  0.4428 -0.2450 -0.5916
 3853SOL    HW115410   3.166   4.724   0.448  0.7130  0.2023 -0.4277
 3853SOL    HW215411   3.042   4.665   0.513 -0.1672  0.7892 -1.5307
 3853SOL     MW15412   3.113   4.716   0.517  0.3993 -0.0553 -0.6909
 3854SOL     OW15413   5.266   3.125   3.016  0.1156 -0.2806  0.3942
 3854SOL    HW115414   5.348   3.124   2.966  0.1777 -0.7250  0.4987
 3854SOL    HW215415   5.198   3.103   2.952 -0.1398  1.5878 -0.0390
 3854SOL     MW15416   5.268   3.122   3.001  0.0908 -0.0983  0.3521
 3855SOL     OW15417   0.013   3.856   1.440  0.4124 -0.5198  0.2274
 3855SOL    HW115418   0.036   3.820   1.526 -1.8403 -2.5870  0.0809
 3855SOL    HW215419  -0.047   3.928   1.460  1.3566  0.2222  0.4169
 3855SOL     MW15420   0.008   3.860   1.454  0.2449 -0.6895  0.2329
 3856SOL     OW15421   3.185   0.662   1.071  0.0209 -0.3888 -0.3390
 3856SOL    HW115422   3.099   0.703   1.059  0.2607  0.1186 -0.3428
 3856SOL    HW215423   3.216   0.646   0.981  1.0158  1.7343 -0.4299
 3856SOL     MW15424   3.178   0.665   1.058  0.1790 -0.0521 -0.3512
 3857SOL     OW15425   1.133   0.362   4.226  0.0994 -0.4992 -0.0394
 3857SOL    HW115426   1.061   0.329   4.278  0.7445 -2.5415 -0.3247
 3857SOL    HW215427   1.184   0.417   4.286 -0.5310 -0.7691  0.7556
 3857SOL     MW15428   1.131   0.365   4.240  0.1013 -0.7952  0.0258
 3858SOL     OW15429   2.371   1.483   3.794 -0.3939 -0.1110 -0.7418
 3858SOL    HW115430   2.315   1.470   3.718 -1.4293 -2.3591  0.3036
 3858SOL    HW215431   2.425   1.404   3.797 -2.8459 -1.9130  2.7361
 3858SOL     MW15432   2.371   1.471   3.785 -0.8403 -0.6294 -0.1628
 3859SOL     OW15433   3.881   2.524   2.751  0.1022  0.4458 -0.0655
 3859SOL    HW115434   3.967   2.536   2.791  0.5239 -0.0159 -0.8204
 3859SOL    HW215435   3.871   2.430   2.743 -0.5027  0.4940  0.0622
 3859SOL     MW15436   3.890   2.514   2.755  0.0787  0.3929 -0.1458
 3860SOL     OW15437   0.026   3.038   0.920 -0.2737 -0.0391 -0.2286
 3860SOL    HW115438   0.106   2.986   0.927 -0.3954 -0.2540 -0.4010
 3860SOL    HW215439  -0.033   2.999   0.986  0.2554  1.0378  0.9194
 3860SOL     MW15440   0.029   3.026   0.929 -0.2216  0.0713 -0.1037
 3861SOL     OW15441   2.576   2.347   1.614 -0.5918  0.0996 -0.2822
 3861SOL    HW115442   2.545   2.315   1.698  1.2772  0.3653  0.5472
 3861SOL    HW215443   2.605   2.268   1.567 -0.7958  0.0506 -0.3283
 3861SOL     MW15444   2.576   2.333   1.619 -0.3787  0.1274 -0.1819
 3862SOL     OW15445   0.950   1.149   0.430 -0.1570 -0.2739  0.2473
 3862SOL    HW115446   1.006   1.072   0.416 -1.0557 -1.0571  0.8582
 3862SOL    HW215447   0.900   1.156   0.349  1.2377  0.8163 -0.5640
 3862SOL     MW15448   0.951   1.140   0.418 -0.0935 -0.2346  0.2216
 3863SOL     OW15449   4.977   1.444   0.503  0.0207 -0.1072  0.0359
 3863SOL    HW115450   5.019   1.528   0.522  1.8849 -0.8634 -0.5461
 3863SOL    HW215451   4.888   1.467   0.478 -0.7115  1.4216  3.4361
 3863SOL     MW15452   4.971   1.458   0.503  0.1656 -0.0083  0.3967
 3864SOL     OW15453   1.155   2.575   3.922 -0.3792  0.3903  0.0794
 3864SOL    HW115454   1.200   2.545   3.843 -0.4726 -0.9675  0.5207
 3864SOL    HW215455   1.204   2.535   3.994 -0.6816  1.0973  0.6920
 3864SOL     MW15456   1.167   2.566   3.921 -0.4299  0.3070  0.2143
 3865SOL     OW15457   1.970   2.904   2.130  0.1116 -0.1641 -0.3202
 3865SOL    HW115458   1.972   2.972   2.197 -0.6630  1.3236 -1.7263
 3865SOL    HW215459   1.891   2.923   2.079  0.2475 -1.7209 -1.1762
 3865SOL     MW15460   1.960   2.915   2.132  0.0298 -0.1730 -0.6098
 3866SOL     OW15461   1.672   0.187   4.308 -0.2981  0.0142  0.6913
 3866SOL    HW115462   1.580   0.205   4.288  0.2684  0.4305 -1.8641
 3866SOL    HW215463   1.720   0.212   4.229  1.9062 -1.2980  1.4971
 3866SOL     MW15464   1.667   0.192   4.295  0.0566 -0.1005  0.4674
 3867SOL     OW15465   4.767   2.146   2.110  0.1400 -0.2631  0.0828
 3867SOL    HW115466   4.860   2.154   2.129 -0.0111 -0.4132  0.9707
 3867SOL    HW215467   4.748   2.053   2.120  0.0418 -0.3504 -0.8527
 3867SOL     MW15468   4.776   2.135   2.114  0.1081 -0.2935  0.0767
 3868SOL     OW15469   0.924   1.157   3.689  0.3310 -0.0874  0.0052
 3868SOL    HW115470   0.979   1.175   3.612  0.2899  0.8584  0.1892
 3868SOL    HW215471   0.987   1.144   3.760  0.4142 -1.9950 -0.3647
 3868SOL     MW15472   0.939   1.157   3.688  0.3364 -0.2105 -0.0186
 3869SOL     OW15473   1.410   4.052   0.039  0.4244 -0.0217 -0.2930
 3869SOL    HW115474   1.479   4.037  -0.025  1.0607 -1.1539  0.6136
 3869SOL    HW215475   1.449   4.109   0.105  0.1246  0.2737 -0.3687
 3869SOL     MW15476   1.424   4.057   0.040  0.4675 -0.1288 -0.1866
 3870SOL     OW15477   2.571   1.222   5.241 -0.9591  0.0377 -0.7963
 3870SOL    HW115478   2.487   1.201   5.281  0.9276 -2.9403  2.1609
 3870SOL    HW215479   2.612   1.137   5.224  3.1015  1.0676  2.1386
 3870SOL     MW15480   2.566   1.209   5.244 -0.1977 -0.2117 -0.0420
 3871SOL     OW15481   0.119   4.546   1.611 -0.7136  0.5105 -0.0085
 3871SOL    HW115482   0.054   4.544   1.681 -1.5069  0.3337 -0.7288
 3871SOL    HW215483   0.074   4.506   1.536 -0.1032  1.2780 -0.8012
 3871SOL     MW15484   0.104   4.541   1.610 -0.7370  0.5862 -0.2022
 3872SOL     OW15485   1.628   1.073   2.819 -0.3341  0.0416  0.3620
 3872SOL    HW115486   1.712   1.103   2.853  0.1341 -0.7638 -0.0600
 3872SOL    HW215487   1.634   0.977   2.818 -0.8853 -0.0051 -0.5731
 3872SOL     MW15488   1.639   1.064   2.823 -0.3448 -0.0675  0.1883
 3873SOL     OW15489   4.791   2.078   3.800 -0.1351 -0.5093 -0.4559
 3873SOL    HW115490   4.701   2.091   3.829 -0.5450  0.5597 -2.0681
 3873SOL    HW215491   4.830   2.166   3.799  0.5355 -0.7981 -0.9514
 3873SOL     MW15492   4.785   2.091   3.804 -0.1017 -0.4094 -0.7257
 3874SOL     OW15493   2.970   1.027   2.641 -0.4675  0.2267  0.2745
 3874SOL    HW115494   3.020   1.107   2.653 -0.5947  0.3819 -0.2218
 3874SOL    HW215495   2.959   0.992   2.730  2.7640 -1.2235  0.2366
 3874SOL     MW15496   2.975   1.033   2.654 -0.0701  0.0609  0.2061
 3875SOL     OW15497   4.450   1.389   0.908 -0.3988  0.0621  0.4882
 3875SOL    HW115498   4.528   1.369   0.960 -0.3303 -0.0563  0.3423
 3875SOL    HW215499   4.444   1.485   0.910 -0.4772  0.0523  0.8264
 3875SOL     MW15500   4.459   1.399   0.915 -0.4000  0.0457  0.5128
 3876SOL     OW15501   2.532   2.307   3.577  0.0326  0.3333  0.1821
 3876SOL    HW115502   2.507   2.355   3.655 -0.9937  0.6161 -0.2875
 3876SOL    HW215503   2.448   2.274   3.543  0.4731  0.1228 -0.7195
 3876SOL     MW15504   2.518   2.309   3.582 -0.0424  0.3425  0.0066
 3877SOL     OW15505   2.376   4.959   1.478 -0.8704  0.0243  0.1927
 3877SOL    HW115506   2.326   4.982   1.557 -0.4476  2.0102 -0.0557
 3877SOL    HW215507   2.314   4.971   1.406 -0.4877  1.0518  0.0115
 3877SOL     MW15508   2.362   4.964   1.479 -0.7672  0.4100  0.1377
 3878SOL     OW15509   5.061   1.415   2.433  0.2191  0.4127 -0.1239
 3878SOL    HW115510   5.141   1.463   2.454  0.2330  0.5351 -0.4453
 3878SOL    HW215511   5.073   1.387   2.342  0.8163 -1.4110  0.4753
 3878SOL     MW15512   5.073   1.418   2.424  0.2974  0.1949 -0.0883
 3879SOL     OW15513   4.740   2.729   5.303 -0.2050 -0.1622  0.6111
 3879SOL    HW115514   4.833   2.744   5.291  0.0580 -0.9025  1.5840
 3879SOL    HW215515   4.698   2.811   5.275  0.5175 -0.6378 -2.1278
 3879SOL     MW15516   4.746   2.742   5.298 -0.0788 -0.3178  0.3851
 3880SOL     OW15517   2.098   2.661   2.337 -0.3830 -0.0822 -0.2268
 3880SOL    HW115518   2.006   2.647   2.318 -0.3129  0.1479 -0.7548
 3880SOL    HW215519   2.137   2.574   2.332 -0.4174 -0.0637 -0.8861
 3880SOL     MW15520   2.091   2.648   2.334 -0.3784 -0.0504 -0.3788
 3881SOL     OW15521   4.931   2.882   2.219  0.1489 -0.0084 -0.0340
 3881SOL    HW115522   4.852   2.866   2.168 -0.1927 -1.7444  0.9659
 3881SOL    HW215523   4.926   2.820   2.292  1.8578  0.6593  0.7135
 3881SOL     MW15524   4.921   2.872   2.222  0.3239 -0.1452  0.1897
 3882SOL     OW15525   1.659   4.265   0.812  0.2581  0.4005  0.0323
 3882SOL    HW115526   1.737   4.316   0.789  0.6716  0.4311  1.4380
 3882SOL    HW215527   1.638   4.218   0.732  0.3810  2.0978 -1.0650
 3882SOL     MW15528   1.667   4.266   0.799  0.3268  0.6217  0.0717
 3883SOL     OW15529   2.834   1.549   5.093 -0.1107 -0.2726 -0.1385
 3883SOL    HW115530   2.789   1.633   5.102  0.3455 -0.1214  0.7679
 3883SOL    HW215531   2.768   1.491   5.054 -0.3890  0.5234 -0.8955
 3883SOL     MW15532   2.820   1.552   5.089 -0.0879 -0.1513 -0.1194
 3884SOL     OW15533   0.668   2.686   3.548  0.2334  0.6709 -0.5292
 3884SOL    HW115534   0.696   2.769   3.510  0.0806  0.6429 -0.6997
 3884SOL    HW215535   0.585   2.666   3.505 -0.5148  1.1970  0.6164
 3884SOL     MW15536   0.661   2.694   3.538  0.1180  0.7347 -0.4044
 3885SOL     OW15537   4.177   0.575   3.380 -0.3671 -0.5799 -0.3166
 3885SOL    HW115538   4.191   0.582   3.474  1.0280  0.2384 -0.5595
 3885SOL    HW215539   4.126   0.495   3.369 -1.4864 -0.1109  1.2109
 3885SOL     MW15540   4.172   0.566   3.391 -0.3318 -0.4151 -0.1521
 3886SOL     OW15541   0.909   3.067   3.022  0.0827 -0.1862 -0.1593
 3886SOL    HW115542   0.849   2.996   3.002  1.0876 -1.3203  0.7285
 3886SOL    HW215543   0.960   3.079   2.942 -1.7238  1.2739 -1.1757
 3886SOL     MW15544   0.908   3.060   3.009 -0.0199 -0.1444 -0.1757
 3887SOL     OW15545   3.882   0.056   1.169 -0.1574  0.6483  0.2055
 3887SOL    HW115546   3.929   0.128   1.211 -0.5596 -0.5864  2.9936
 3887SOL    HW215547   3.792   0.089   1.158 -0.5232  0.4071  2.1286
 3887SOL     MW15548   3.876   0.069   1.173 -0.2557  0.4593  0.8086
 3888SOL     OW15549   0.850   2.325   2.204  0.0432 -0.1417 -0.2077
 3888SOL    HW115550   0.831   2.249   2.150 -0.6922 -1.2800  1.5722
 3888SOL    HW215551   0.769   2.376   2.204  0.7791  1.1587 -2.0674
 3888SOL     MW15552   0.837   2.322   2.197  0.0433 -0.1209 -0.2179
 3889SOL     OW15553   2.938   2.573   0.759 -1.0783 -0.5664  0.0468
 3889SOL    HW115554   2.960   2.583   0.666 -0.9731 -0.6283  0.0651
 3889SOL    HW215555   2.848   2.604   0.765 -0.3943  1.5516  0.3209
 3889SOL     MW15556   2.930   2.578   0.748 -0.9773 -0.3032  0.0843
 3890SOL     OW15557   3.120   2.297   0.158 -0.0520  0.1941 -0.2198
 3890SOL    HW115558   3.084   2.383   0.138 -0.2709 -0.1999 -1.6711
 3890SOL    HW215559   3.164   2.308   0.242 -2.6756  0.9348  1.1590
 3890SOL     MW15560   3.121   2.309   0.166 -0.4159  0.2385 -0.2291
 3891SOL     OW15561   1.639   0.311   0.798  0.2198  0.0176  0.4097
 3891SOL    HW115562   1.586   0.341   0.872  0.7568  1.0195  0.4023
 3891SOL    HW215563   1.687   0.235   0.832  1.1466  1.0047  1.3884
 3891SOL     MW15564   1.638   0.305   0.812  0.4072  0.2722  0.5340
 3892SOL     OW15565   4.428   1.845   1.331  0.0549 -0.7708 -0.3951
 3892SOL    HW115566   4.389   1.836   1.244  0.6701 -0.0262 -0.7578
 3892SOL    HW215567   4.408   1.935   1.357 -0.9019 -1.2534  0.6314
 3892SOL     MW15568   4.420   1.855   1.323  0.0112 -0.7373 -0.3101
 3893SOL     OW15569   4.268   1.587   4.684  0.0023  0.0654  0.6401
 3893SOL    HW115570   4.260   1.565   4.777  1.3207  0.1833  0.7995
 3893SOL    HW215571   4.285   1.681   4.683  1.6272 -0.2095  0.3907
 3893SOL     MW15572   4.269   1.597   4.696  0.3791  0.0453  0.6286
 3894SOL     OW15573   0.390   1.465   2.256  0.3956 -0.3622  0.2469
 3894SOL    HW115574   0.458   1.413   2.300  1.3543  0.1231 -0.6029
 3894SOL    HW215575   0.425   1.554   2.255  0.0851 -0.2356 -0.8619
 3894SOL     MW15576   0.403   1.470   2.262  0.4786 -0.2838 -0.0038
 3895SOL     OW15577   2.004   4.134   5.415 -0.1094  0.3085 -0.0391
 3895SOL    HW115578   2.033   4.055   5.370 -0.5635  0.4446 -0.5791
 3895SOL    HW215579   2.044   4.128   5.502  0.9427  0.1463 -0.5161
 3895SOL     MW15580   2.013   4.123   5.420 -0.0328  0.3051 -0.1693
 3896SOL     OW15581   2.746   2.005   3.240 -0.2980  0.1588  0.0673
 3896SOL    HW115582   2.819   2.062   3.263  0.7207 -0.9758 -0.2304
 3896SOL    HW215583   2.788   1.922   3.216 -1.8146 -1.6191  3.0101
 3896SOL     MW15584   2.761   2.002   3.240 -0.3618 -0.2140  0.4059
 3897SOL     OW15585   0.385   3.244   2.418  0.0299  0.4857 -0.3324
 3897SOL    HW115586   0.461   3.196   2.386 -0.4384 -2.1776  2.1427
 3897SOL    HW215587   0.309   3.195   2.385 -0.5179  0.7040  0.5746
 3897SOL     MW15588   0.385   3.232   2.410 -0.1002  0.1727  0.1006
 3898SOL     OW15589   3.754   3.021   3.795 -0.1731 -0.3264  0.1719
 3898SOL    HW115590   3.700   2.987   3.867  0.0862 -2.1417 -0.4537
 3898SOL    HW215591   3.721   3.110   3.780  0.0703  0.3004  2.8239
 3898SOL     MW15592   3.743   3.028   3.803 -0.1087 -0.4785  0.4313
 3899SOL     OW15593   4.155   4.186   5.286 -0.1326 -0.0436 -0.0983
 3899SOL    HW115594   4.091   4.255   5.301  0.4851  0.2957  1.1661
 3899SOL    HW215595   4.113   4.106   5.319 -0.0798  0.1039  0.3368
 3899SOL     MW15596   4.142   4.184   5.292 -0.0468  0.0187  0.1192
 3900SOL     OW15597   4.381   1.943   2.502 -0.0731  0.5183  0.2866
 3900SOL    HW115598   4.308   1.895   2.463  0.7771  0.4652 -1.2846
 3900SOL    HW215599   4.437   1.874   2.540 -1.0505  0.5864  1.9902
 3900SOL     MW15600   4.379   1.928   2.502 -0.0893  0.5202  0.3036
 3901SOL     OW15601   2.406   0.638   3.361  0.8672 -0.5468 -0.1420
 3901SOL    HW115602   2.366   0.559   3.323 -0.7061  0.0194  0.2577
 3901SOL    HW215603   2.483   0.654   3.306 -0.6426 -0.4369 -2.3834
 3901SOL     MW15604   2.410   0.630   3.349  0.4725 -0.4603 -0.3778
 3902SOL     OW15605   0.998   1.910   1.571  0.5399  0.1425  0.0165
 3902SOL    HW115606   1.060   1.933   1.502  0.2497  0.2056 -0.2272
 3902SOL    HW215607   0.946   1.839   1.534  0.0129  0.5516 -0.0421
 3902SOL     MW15608   0.999   1.904   1.557  0.4353  0.2029 -0.0222
 3903SOL     OW15609   1.082   1.043   1.488 -0.7216 -0.2915 -0.1503
 3903SOL    HW115610   1.072   1.093   1.569 -0.7799  0.8172 -0.8092
 3903SOL    HW215611   1.165   1.074   1.451 -0.7171 -0.7534 -0.5375
 3903SOL     MW15612   1.091   1.054   1.493 -0.7285 -0.2087 -0.2842
 3904SOL     OW15613   1.078   2.795   3.454 -0.3920 -0.1575  0.2286
 3904SOL    HW115614   1.067   2.811   3.361  0.3399  0.4126  0.2357
 3904SOL    HW215615   1.140   2.862   3.483  0.8811 -1.5064  0.7306
 3904SOL     MW15616   1.084   2.805   3.446 -0.1353 -0.2572  0.2938
 3905SOL     OW15617   0.189   2.920   0.268  0.0112 -0.1117  0.2644
 3905SOL    HW115618   0.155   2.896   0.354  0.8109 -2.0206  0.0963
 3905SOL    HW215619   0.113   2.952   0.220 -0.6806 -0.1859  1.2784
 3905SOL     MW15620   0.175   2.921   0.273  0.0250 -0.3656  0.3727
 3906SOL     OW15621   4.022   1.873   0.438  0.3775 -0.7006  0.2287
 3906SOL    HW115622   4.040   1.779   0.435  1.0990 -0.5570 -0.0064
 3906SOL    HW215623   4.108   1.914   0.440  0.0748 -0.0018 -0.7540
 3906SOL     MW15624   4.035   1.866   0.438  0.4311 -0.5928  0.0728
 3907SOL     OW15625   3.864   3.415   1.413  0.4590  0.0492  0.0270
 3907SOL    HW115626   3.851   3.499   1.456  1.2508  0.5494 -0.6639
 3907SOL    HW215627   3.943   3.428   1.360 -0.2973 -0.6220 -1.3080
 3907SOL     MW15628   3.873   3.428   1.411  0.4636  0.0273 -0.2323
 3908SOL     OW15629   1.576   2.783   3.482  0.2365 -0.1133 -0.1596
 3908SOL    HW115630   1.582   2.694   3.446  1.0961 -0.3811  0.5838
 3908SOL    HW215631   1.663   2.799   3.520 -0.1063  0.8054  0.2692
 3908SOL     MW15632   1.588   2.774   3.482  0.3027 -0.0300 -0.0095
 3909SOL     OW15633   0.556   4.509   5.058 -0.4454 -0.5887 -0.5111
 3909SOL    HW115634   0.516   4.522   5.144  0.4398  0.5264 -0.2333
 3909SOL    HW215635   0.525   4.583   5.006  2.8967  1.6912  0.3883
 3909SOL     MW15636   0.547   4.520   5.063  0.0957 -0.1541 -0.3604
 3910SOL     OW15637   1.737   3.314   1.428 -0.1427  0.2759  0.0695
 3910SOL    HW115638   1.663   3.354   1.474 -1.5588 -2.2704  0.2303
 3910SOL    HW215639   1.748   3.229   1.471  0.2327 -1.0873 -2.5428
 3910SOL     MW15640   1.729   3.308   1.440 -0.2759 -0.2246 -0.2443
 3911SOL     OW15641   4.639   5.074   1.905  0.1215  0.0733 -0.0869
 3911SOL    HW115642   4.689   5.002   1.868 -0.1837 -0.1530 -0.0682
 3911SOL    HW215643   4.660   5.150   1.850 -1.4908 -0.5801 -1.7120
 3911SOL     MW15644   4.648   5.075   1.893 -0.1240 -0.0393 -0.2925
 3912SOL     OW15645   4.220   1.156   1.270 -0.0013  0.5472 -0.5057
 3912SOL    HW115646   4.162   1.148   1.346  0.6254  0.0667 -0.0700
 3912SOL    HW215647   4.161   1.162   1.195 -0.6353  1.6301  0.0705
 3912SOL     MW15648   4.205   1.156   1.270 -0.0022  0.6243 -0.3762
 3913SOL     OW15649   4.256   2.834   4.240 -0.2124  0.0738  0.1754
 3913SOL    HW115650   4.179   2.853   4.185  0.1413 -0.9348 -0.7055
 3913SOL    HW215651   4.262   2.909   4.299 -2.6152 -0.3664  1.1284
 3913SOL     MW15652   4.247   2.846   4.240 -0.4747 -0.1117  0.1847
 3914SOL     OW15653   3.804   1.025   5.267  0.3673  0.4311  0.0741
 3914SOL    HW115654   3.744   0.952   5.280  1.3409 -0.6351 -1.1484
 3914SOL    HW215655   3.887   0.994   5.304  0.9698  0.6177 -1.0693
 3914SOL     MW15656   3.807   1.012   5.274  0.5691  0.3185 -0.2287
 3915SOL     OW15657   2.777   4.091   5.203  0.9558 -0.3881  0.0763
 3915SOL    HW115658   2.703   4.129   5.154  0.3740 -0.4724  0.8740
 3915SOL    HW215659   2.754   3.998   5.211  1.2358 -0.4474  0.1839
 3915SOL     MW15660   2.764   4.084   5.198  0.9172 -0.4065  0.1922
 3916SOL     OW15661   0.114   2.334   0.044  0.0728 -0.1894  0.3194
 3916SOL    HW115662   0.193   2.300   0.002 -0.0635 -2.0471  1.4810
 3916SOL    HW215663   0.084   2.263   0.100 -2.7864  0.2410 -0.5371
 3916SOL     MW15664   0.121   2.321   0.046 -0.3107 -0.3721  0.3585
 3917SOL     OW15665   1.330   3.854   5.231 -0.1070 -0.0527 -0.1704
 3917SOL    HW115666   1.249   3.869   5.280  0.4693 -1.7671  1.4356
 3917SOL    HW215667   1.301   3.814   5.149 -1.0135  1.6399 -0.7009
 3917SOL     MW15668   1.316   3.851   5.227 -0.1493 -0.0555 -0.0327
 3918SOL     OW15669   2.447   0.076   2.694 -0.3215  0.0188  0.4465
 3918SOL    HW115670   2.366   0.033   2.723  0.1069 -0.8141  0.4149
 3918SOL    HW215671   2.424   0.116   2.610 -0.4453 -1.0232 -0.0248
 3918SOL     MW15672   2.433   0.076   2.687 -0.2825 -0.2212  0.3821
 3919SOL     OW15673   4.349   3.873   4.220  0.1837  0.3197  0.2646
 3919SOL    HW115674   4.308   3.908   4.299 -0.2321 -0.0359  0.2102
 3919SOL    HW215675   4.442   3.893   4.230  0.1958 -0.0775  1.0376
 3919SOL     MW15676   4.356   3.880   4.231  0.1320  0.2233  0.3566
 3920SOL     OW15677   3.347   3.803   4.459 -0.3830 -0.6055 -0.4056
 3920SOL    HW115678   3.346   3.885   4.410 -1.4355  0.6982  1.6564
 3920SOL    HW215679   3.437   3.793   4.488 -0.3456  0.0650 -0.2875
 3920SOL     MW15680   3.358   3.812   4.456 -0.5129 -0.3528 -0.1265
 3921SOL     OW15681   3.003   5.089   4.625 -0.2852 -0.8047 -0.1517
 3921SOL    HW115682   2.930   5.029   4.640 -0.0297 -1.4157 -1.2653
 3921SOL    HW215683   3.066   5.068   4.694 -1.7428  0.7644  1.8054
 3921SOL     MW15684   3.002   5.079   4.636 -0.4391 -0.6821 -0.0438
 3922SOL     OW15685   2.575   5.398   3.990  0.3077  0.4036  0.5150
 3922SOL    HW115686   2.644   5.353   4.038  1.0833  0.5142 -0.4556
 3922SOL    HW215687   2.507   5.416   4.055  0.0038 -2.0483  0.9657
 3922SOL     MW15688   2.575   5.394   4.004  0.3681  0.1039  0.4484
 3923SOL     OW15689   2.489   4.221   3.154 -0.8154  0.0830  0.0918
 3923SOL    HW115690   2.542   4.274   3.214 -0.0302 -0.5084 -0.0705
 3923SOL    HW215691   2.521   4.132   3.165 -0.6837 -0.0439 -1.1741
 3923SOL     MW15692   2.500   4.217   3.163 -0.6980 -0.0089 -0.0910
 3924SOL     OW15693   3.194   2.795   2.556  0.2101 -0.6403  0.0181
 3924SOL    HW115694   3.224   2.719   2.606 -0.7381 -1.1181 -0.1130
 3924SOL    HW215695   3.117   2.826   2.603  0.6679  0.3352  0.1463
 3924SOL     MW15696   3.188   2.790   2.568  0.1473 -0.5766  0.0177
 3925SOL     OW15697   1.308   4.619   4.636 -0.4806  0.4416  0.2920
 3925SOL    HW115698   1.294   4.608   4.730 -0.5997  1.6515  0.4323
 3925SOL    HW215699   1.226   4.656   4.603 -0.5539 -0.2572 -0.3605
 3925SOL     MW15700   1.296   4.622   4.644 -0.5052  0.5070  0.2264
 3926SOL     OW15701   5.045   4.624   2.423  0.4921  0.1285 -0.2887
 3926SOL    HW115702   5.076   4.701   2.471  0.4990  0.0657 -0.1925
 3926SOL    HW215703   4.961   4.603   2.464  1.5278 -1.3017  1.2500
 3926SOL     MW15704   5.038   4.631   2.435  0.6256 -0.0626 -0.0794
 3927SOL     OW15705   2.106   1.156   2.531  0.2311 -0.0003  0.3594
 3927SOL    HW115706   2.137   1.074   2.568 -0.1915 -0.0692  0.5641
 3927SOL    HW215707   2.011   1.150   2.536  0.2039  0.7901  0.9982
 3927SOL     MW15708   2.098   1.145   2.536  0.1735  0.0921  0.4673
 3928SOL     OW15709   2.122   1.064   0.575  0.1331  0.8450  0.1754
 3928SOL    HW115710   2.169   1.143   0.602  0.1765  0.5084  1.1409
 3928SOL    HW215711   2.061   1.047   0.648  0.2697 -0.1205  0.0751
 3928SOL     MW15712   2.120   1.072   0.588  0.1561  0.6783  0.2861
 3929SOL     OW15713   0.308   1.783   2.036  0.1587 -0.2743  0.0934
 3929SOL    HW115714   0.305   1.688   2.032  1.1048 -0.3811  1.4726
 3929SOL    HW215715   0.374   1.808   1.971  1.7018 -0.7347  1.4497
 3929SOL     MW15716   0.316   1.774   2.027  0.4774 -0.3469  0.4436
 3930SOL     OW15717   4.326   0.376   5.054  0.0994  0.4456 -0.0380
 3930SOL    HW115718   4.295   0.286   5.045 -0.0930  0.6496 -1.8477
 3930SOL    HW215719   4.279   0.424   4.986  1.4768  1.5690 -0.2474
 3930SOL     MW15720   4.316   0.371   5.044  0.2511  0.6155 -0.2965
 3931SOL     OW15721   0.097   0.374   3.597 -0.7821  0.0340  0.7553
 3931SOL    HW115722   0.047   0.431   3.656 -1.8474  0.8651 -0.8836
 3931SOL    HW215723   0.180   0.420   3.584 -0.2158 -0.5275  2.1508
 3931SOL     MW15724   0.101   0.387   3.603 -0.8460  0.0685  0.7242
 3932SOL     OW15725   0.515   2.139   2.763  0.3347  0.3805 -0.0089
 3932SOL    HW115726   0.505   2.181   2.848  2.5662 -0.5879  0.8311
 3932SOL    HW215727   0.426   2.133   2.728 -0.9503 -0.7607  3.0458
 3932SOL     MW15728   0.503   2.143   2.769  0.4559  0.1104  0.4897
 3933SOL     OW15729   3.501   0.572   1.407 -0.1445  0.1069  0.1709
 3933SOL    HW115730   3.543   0.656   1.388  0.3823 -0.1646  0.0883
 3933SOL    HW215731   3.477   0.538   1.321  1.1472 -0.5715  0.0420
 3933SOL     MW15732   3.503   0.579   1.394  0.0883 -0.0147  0.1438
 3934SOL     OW15733   3.257   3.034   4.936  0.3466  0.4509 -0.2904
 3934SOL    HW115734   3.224   2.945   4.930  2.1893 -0.1628 -2.5544
 3934SOL    HW215735   3.350   3.027   4.918  0.5258  2.8481 -0.6345
 3934SOL     MW15736   3.264   3.022   4.933  0.6054  0.6792 -0.6243
 3935SOL     OW15737   3.346   0.436   3.013  0.3097 -0.3007  0.5992
 3935SOL    HW115738   3.308   0.349   3.002  1.2235 -0.5864 -0.4318
 3935SOL    HW215739   3.401   0.429   3.091 -0.6504 -0.2657  1.2916
 3935SOL     MW15740   3.348   0.424   3.022  0.3038 -0.3328  0.5559
 3936SOL     OW15741   4.085   2.946   1.629 -0.5004  0.6655  0.2358
 3936SOL    HW115742   4.104   3.000   1.553 -0.9198 -1.8210 -1.7429
 3936SOL    HW215743   4.057   2.862   1.594 -1.0852 -0.4995  3.1430
 3936SOL     MW15744   4.084   2.942   1.615 -0.6289  0.1981  0.3547
 3937SOL     OW15745   2.632   0.497   3.461 -0.6221 -0.0082  0.2900
 3937SOL    HW115746   2.549   0.545   3.462 -1.2754 -1.1206  0.8205
 3937SOL    HW215747   2.693   0.552   3.511 -1.5155 -0.0049  1.4011
 3937SOL     MW15748   2.629   0.510   3.467 -0.8201 -0.1502  0.5001
 3938SOL     OW15749   0.352   3.374   3.256  0.2259 -0.1482 -0.1748
 3938SOL    HW115750   0.387   3.437   3.320 -0.7462 -0.3591  0.5966
 3938SOL    HW215751   0.264   3.407   3.237 -0.8096 -1.9451  1.2339
 3938SOL     MW15752   0.345   3.387   3.262 -0.0311 -0.4053  0.1043
 3939SOL     OW15753   4.030   0.928   5.382 -0.3850  0.3825 -0.0124
 3939SOL    HW115754   4.063   0.849   5.341  1.2128  1.3328 -0.6572
 3939SOL    HW215755   4.090   0.944   5.455  0.2975  1.8336 -0.8510
 3939SOL     MW15756   4.042   0.920   5.386 -0.0931  0.6899 -0.2023
 3940SOL     OW15757   1.614   4.999   2.466 -0.2585 -0.1029  0.0511
 3940SOL    HW115758   1.530   5.000   2.511  0.7030 -1.5619  2.0354
 3940SOL    HW215759   1.622   4.910   2.431  0.6207 -0.1149  0.2489
 3940SOL     MW15760   1.604   4.988   2.467 -0.0229 -0.2912  0.3305
 3941SOL     OW15761   2.921   2.347   2.715  0.1210  0.0808 -0.4332
 3941SOL    HW115762   2.991   2.302   2.762 -1.3448 -1.3787  0.4396
 3941SOL    HW215763   2.887   2.281   2.654 -0.4801  0.7917 -0.8833
 3941SOL     MW15764   2.926   2.333   2.713 -0.1436 -0.0150 -0.3791
 3942SOL     OW15765   5.482   1.969   3.571  0.1296  0.3373 -0.0281
 3942SOL    HW115766   5.456   1.911   3.642 -1.6684  0.0359 -0.8803
 3942SOL    HW215767   5.449   1.927   3.492 -1.1262  2.4197 -0.7044
 3942SOL     MW15768   5.475   1.956   3.570 -0.2613  0.5653 -0.2237
 3943SOL     OW15769   5.291   4.594   3.310 -0.4366  0.2210 -0.4833
 3943SOL    HW115770   5.315   4.687   3.302  0.1570  0.2824  1.4643
 3943SOL    HW215771   5.375   4.550   3.325 -0.9699 -0.3027  1.0246
 3943SOL     MW15772   5.305   4.600   3.311 -0.4288  0.1618 -0.0409
 3944SOL     OW15773   0.672   3.616   2.191  0.4217  0.1166 -0.0544
 3944SOL    HW115774   0.670   3.676   2.116  1.5020  1.9542  1.3111
 3944SOL    HW215775   0.609   3.653   2.253  2.1899  0.7948  1.4393
 3944SOL     MW15776   0.663   3.628   2.189  0.7863  0.4386  0.3116
 3945SOL     OW15777   1.964   1.478   0.706 -0.5368 -0.0157  0.2169
 3945SOL    HW115778   2.008   1.525   0.777 -0.4727  0.3826 -0.0849
 3945SOL    HW215779   2.035   1.435   0.658 -0.6925 -1.4243  1.2059
 3945SOL     MW15780   1.979   1.479   0.709 -0.5485 -0.1451  0.3049
 3946SOL     OW15781   3.443   3.137   2.077  0.0037  0.1149 -0.0983
 3946SOL    HW115782   3.411   3.054   2.042 -0.3464  0.2108 -0.0115
 3946SOL    HW215783   3.528   3.115   2.116 -0.3434 -0.3170  0.4253
 3946SOL     MW15784   3.450   3.123   2.077 -0.0855  0.0719 -0.0201
 3947SOL     OW15785   0.744   4.396   1.310  0.0605 -0.4021  0.2581
 3947SOL    HW115786   0.668   4.338   1.314  0.8854 -1.4411  2.4260
 3947SOL    HW215787   0.810   4.347   1.262  0.4516 -0.9340  1.3030
 3947SOL     MW15788   0.743   4.383   1.304  0.2162 -0.6032  0.6694
 3948SOL     OW15789   3.648   3.955   1.099 -0.7055 -0.2762  0.0869
 3948SOL    HW115790   3.593   4.021   1.056  0.2895 -0.0221 -0.8191
 3948SOL    HW215791   3.650   3.882   1.038  0.1732 -0.1774 -0.0176
 3948SOL     MW15792   3.641   3.954   1.086 -0.4656 -0.2310 -0.0425
 3949SOL     OW15793   3.793   4.439   0.807  0.0877  0.2469 -0.4090
 3949SOL    HW115794   3.848   4.496   0.860  1.2179 -0.8869 -0.3119
 3949SOL    HW215795   3.843   4.426   0.726  0.6000 -1.8300  0.1900
 3949SOL     MW15796   3.806   4.445   0.803  0.2979 -0.1641 -0.3199
 3950SOL     OW15797   4.867   5.031   4.301 -0.1380 -0.0738  0.0364
 3950SOL    HW115798   4.941   5.074   4.344 -0.6387  0.3945  0.4356
 3950SOL    HW215799   4.811   5.001   4.373 -0.9924  0.7329 -0.2647
 3950SOL     MW15800   4.869   5.033   4.316 -0.3115  0.0894  0.0490
 3951SOL     OW15801   2.708   1.011   5.192 -0.5231 -0.1141  0.3644
 3951SOL    HW115802   2.801   1.028   5.207 -0.5739  0.2908  0.2510
 3951SOL    HW215803   2.684   0.946   5.259 -0.4074  0.5735  1.0951
 3951SOL     MW15804   2.717   1.005   5.203 -0.5148  0.0257  0.4434
 3952SOL     OW15805   3.392   2.706   5.043  0.3258 -0.0733  0.3702
 3952SOL    HW115806   3.389   2.611   5.044 -3.3081 -0.1212 -0.5749
 3952SOL    HW215807   3.353   2.731   4.959  1.1171  2.2585  0.6123
 3952SOL     MW15808   3.386   2.697   5.032 -0.0381  0.2191  0.2802
 3953SOL     OW15809   3.207   0.209   1.190  0.0903 -0.2437 -0.3825
 3953SOL    HW115810   3.146   0.162   1.246  0.7019 -1.0509 -0.3898
 3953SOL    HW215811   3.231   0.146   1.122  2.8083 -0.7986  0.9589
 3953SOL     MW15812   3.202   0.195   1.188  0.5165 -0.4180 -0.2117
 3954SOL     OW15813   5.111   3.631   4.034 -0.2776 -0.6487 -0.2296
 3954SOL    HW115814   5.201   3.600   4.038 -0.6856 -1.7773  1.1692
 3954SOL    HW215815   5.100   3.665   3.945  1.9336  0.8371 -0.0019
 3954SOL     MW15816   5.121   3.632   4.023 -0.0467 -0.6030 -0.0214
 3955SOL     OW15817   0.488   1.997   0.408  0.0411  0.5648 -0.3199
 3955SOL    HW115818   0.507   1.938   0.481  0.3875  0.3823 -0.5546
 3955SOL    HW215819   0.393   1.989   0.394  0.2048 -0.6153 -0.9186
 3955SOL     MW15820   0.478   1.988   0.415  0.1064  0.3903 -0.4266
 3956SOL     OW15821   4.671   0.574   5.279  0.5091 -0.5921 -0.6106
 3956SOL    HW115822   4.592   0.623   5.256  1.3035  0.2403 -1.5946
 3956SOL    HW215823   4.668   0.497   5.222  0.8859 -0.0884 -1.3157
 3956SOL     MW15824   4.660   0.570   5.269  0.6591 -0.4211 -0.8268
 3957SOL     OW15825   0.788   5.391   1.167  0.7040 -0.6984 -0.5800
 3957SOL    HW115826   0.703   5.357   1.139  0.9612 -0.6523 -1.4424
 3957SOL    HW215827   0.845   5.379   1.091  1.2139  0.1834 -0.3548
 3957SOL     MW15828   0.784   5.385   1.154  0.8022 -0.5796 -0.6616
 3958SOL     OW15829   2.406   0.812   3.554 -0.1918  0.4659  0.6747
 3958SOL    HW115830   2.413   0.745   3.486  0.9103 -0.6353  1.8308
 3958SOL    HW215831   2.485   0.865   3.545  0.3523 -0.1688  1.5743
 3958SOL     MW15832   2.417   0.811   3.544  0.0189  0.2437  0.9378
 3959SOL     OW15833   2.345   1.801   2.875  0.3516  1.1878 -0.0950
 3959SOL    HW115834   2.376   1.853   2.950 -2.3118  0.4878  1.6385
 3959SOL    HW215835   2.340   1.712   2.910 -0.9767  0.8542 -1.0964
 3959SOL     MW15836   2.348   1.796   2.889 -0.1594  1.0555 -0.0013
 3960SOL     OW15837   0.308   1.255   0.455  0.6640 -0.4254  0.2149
 3960SOL    HW115838   0.331   1.194   0.384 -0.1805  0.6512 -1.0190
 3960SOL    HW215839   0.377   1.321   0.452  0.5774 -0.3317  0.3349
 3960SOL     MW15840   0.320   1.255   0.445  0.5448 -0.2756  0.0723
 3961SOL     OW15841   3.339   1.121   4.106  0.3294  0.1272 -0.5582
 3961SOL    HW115842   3.247   1.138   4.085  0.0621 -0.6410 -0.0522
 3961SOL    HW215843   3.379   1.100   4.022 -0.1339 -0.3031 -0.6739
 3961SOL     MW15844   3.333   1.121   4.093  0.2359 -0.0262 -0.5083
 3962SOL     OW15845   3.137   2.161   4.984 -0.1504 -0.0379 -0.0076
 3962SOL    HW115846   3.102   2.247   4.965  0.2168  0.2724  0.6779
 3962SOL    HW215847   3.114   2.146   5.076  1.8230  0.3454  0.5894
 3962SOL     MW15848   3.129   2.170   4.993  0.1492  0.0509  0.1566
 3963SOL     OW15849   5.452   2.894   1.874  0.0412  0.5326  0.1050
 3963SOL    HW115850   5.460   2.987   1.896 -1.3368  0.8110 -0.4421
 3963SOL    HW215851   5.521   2.879   1.809  0.6422  1.0238  0.6128
 3963SOL     MW15852   5.462   2.904   1.869 -0.0583  0.6311  0.1000
 3964SOL     OW15853   0.099   1.829   0.947  0.2214 -0.1368  0.0658
 3964SOL    HW115854   0.026   1.884   0.976 -0.2150 -0.5138 -0.3062
 3964SOL    HW215855   0.132   1.789   1.028 -0.1700 -0.1918  0.1989
 3964SOL     MW15856   0.094   1.831   0.961  0.1154 -0.1921  0.0352
 3965SOL     OW15857   4.647   2.059   2.903 -0.4466  0.7706 -0.1130
 3965SOL    HW115858   4.684   2.142   2.873 -0.3031  0.8992  0.4088
 3965SOL    HW215859   4.684   2.047   2.991 -1.3885  0.7479  0.2964
 3965SOL     MW15860   4.657   2.068   2.911 -0.5488  0.7842  0.0062
 3966SOL     OW15861   1.319   0.071   0.651  0.9337  0.2058 -1.0338
 3966SOL    HW115862   1.347  -0.016   0.681  1.4632  0.8271  0.3758
 3966SOL    HW215863   1.250   0.096   0.713  0.5649  0.6772 -1.6203
 3966SOL     MW15864   1.314   0.063   0.663  0.9542  0.3457 -0.9284
 3967SOL     OW15865   0.988   2.177   0.661  0.1834 -0.1183  0.2001
 3967SOL    HW115866   0.919   2.226   0.618  1.7531  1.1183 -1.0294
 3967SOL    HW215867   0.942   2.117   0.721 -1.8581  1.8594  0.7286
 3967SOL     MW15868   0.973   2.175   0.663  0.1230  0.2932  0.1103
 3968SOL     OW15869   3.926   0.412   4.933  0.1728  0.3913 -0.0659
 3968SOL    HW115870   3.854   0.355   4.906  0.5117  0.3669 -0.9577
 3968SOL    HW215871   3.891   0.461   5.008 -0.4205 -0.3435  0.1537
 3968SOL     MW15872   3.912   0.411   4.939  0.1402  0.2941 -0.1519
 3969SOL     OW15873   2.897   1.528   0.205 -0.2724  0.0164  0.2044
 3969SOL    HW115874   2.812   1.485   0.199  0.0828 -0.7623  0.5758
 3969SOL    HW215875   2.937   1.513   0.119 -0.4653  0.2886  0.0665
 3969SOL     MW15876   2.891   1.520   0.193 -0.2516 -0.0484  0.2343
 3970SOL     OW15877   0.751   5.354   4.808 -0.0338  0.2886 -0.0289
 3970SOL    HW115878   0.843   5.362   4.834 -0.1128 -0.6356  0.5736
 3970SOL    HW215879   0.704   5.412   4.868  0.4466  3.4808 -2.4814
 3970SOL     MW15880   0.757   5.363   4.819  0.0176  0.5790 -0.2657
 3971SOL     OW15881   5.078   4.774   2.194  0.3799  0.4693  0.8316
 3971SOL    HW115882   5.170   4.793   2.211  0.3503  0.1992  1.3077
 3971SOL    HW215883   5.062   4.690   2.237  0.8601 -1.4544 -2.4437
 3971SOL     MW15884   5.088   4.766   2.202  0.4376  0.1885  0.4733
 3972SOL     OW15885   0.061   1.903   1.808  0.4747 -0.2908 -0.1953
 3972SOL    HW115886   0.113   1.835   1.852 -0.4295 -0.4339  0.6943
 3972SOL    HW215887   0.073   1.981   1.864 -0.2103 -0.3107 -0.0178
 3972SOL     MW15888   0.069   1.905   1.821  0.2713 -0.3117 -0.0587
 3973SOL     OW15889   3.975   1.789   3.392  0.3918 -0.0831 -0.4590
 3973SOL    HW115890   3.979   1.726   3.320 -0.4192 -0.1311 -0.4675
 3973SOL    HW215891   3.959   1.873   3.349  0.5668 -0.0089 -0.3798
 3973SOL     MW15892   3.973   1.792   3.377  0.3104 -0.0797 -0.4499
 3974SOL     OW15893   2.232   3.222   2.959 -0.2148 -0.1853  0.6035
 3974SOL    HW115894   2.246   3.176   2.876  0.2600  0.0086  0.5772
 3974SOL    HW215895   2.216   3.152   3.023  1.0412 -0.4252  0.6699
 3974SOL     MW15896   2.232   3.207   2.957  0.0068 -0.1912  0.6086
 3975SOL     OW15897   3.726   2.789   1.859 -0.1453  0.1797  0.8158
 3975SOL    HW115898   3.790   2.733   1.904  1.1220  0.2254 -0.8372
 3975SOL    HW215899   3.694   2.736   1.787  1.2240  1.5591 -0.9040
 3975SOL     MW15900   3.730   2.775   1.856  0.1922  0.3621  0.3841
 3976SOL     OW15901   5.348   0.731   0.039 -0.3794 -0.3435 -0.3319
 3976SOL    HW115902   5.256   0.752   0.023 -0.9331 -0.4314  2.3222
 3976SOL    HW215903   5.362   0.648  -0.007 -2.4108 -1.6884  1.2813
 3976SOL     MW15904   5.338   0.723   0.031 -0.7104 -0.5269  0.2144
 3977SOL     OW15905   1.756   4.700   4.650  0.7271 -0.7275 -0.1227
 3977SOL    HW115906   1.716   4.669   4.730  1.7063 -2.0541 -0.1221
 3977SOL    HW215907   1.842   4.733   4.677  0.3134  0.5970 -0.3551
 3977SOL     MW15908   1.762   4.701   4.664  0.7995 -0.7278 -0.1524
 3978SOL     OW15909   2.422   5.113   3.630  0.0411  0.0414  0.4991
 3978SOL    HW115910   2.451   5.188   3.682 -1.6148  1.7629 -0.9154
 3978SOL    HW215911   2.329   5.129   3.614 -0.0364 -1.6050 -1.0295
 3978SOL     MW15912   2.414   5.124   3.635 -0.1808  0.0510  0.1224
 3979SOL     OW15913   0.646   2.502   1.557  0.0782 -0.0815  0.5509
 3979SOL    HW115914   0.655   2.460   1.471  1.3398 -0.6186  0.9334
 3979SOL    HW215915   0.688   2.588   1.547 -1.2083  0.5343  0.1905
 3979SOL     MW15916   0.652   2.508   1.545  0.0750 -0.0714  0.5537
 3980SOL     OW15917   1.584   1.182   3.073  0.1116 -0.2726  0.2642
 3980SOL    HW115918   1.585   1.158   2.980  1.1003 -2.3916  0.7642
 3980SOL    HW215919   1.507   1.138   3.108 -0.6019  1.0133  0.3765
 3980SOL     MW15920   1.574   1.173   3.065  0.1468 -0.3793  0.3426
 3981SOL     OW15921   2.432   2.550   1.938  0.1581 -0.9539  0.0509
 3981SOL    HW115922   2.394   2.606   1.870  1.1442 -1.5880 -1.0671
 3981SOL    HW215923   2.446   2.608   2.012 -1.2843 -0.3181 -0.1427
 3981SOL     MW15924   2.429   2.565   1.939  0.0997 -0.9537 -0.1170
 3982SOL     OW15925   5.277   1.295   3.799 -0.2309  0.3136  0.6464
 3982SOL    HW115926   5.259   1.276   3.891 -2.4554 -0.9956  0.0161
 3982SOL    HW215927   5.294   1.209   3.759 -0.9743  0.6546 -0.4636
 3982SOL     MW15928   5.276   1.281   3.805 -0.6108  0.1896  0.4236
 3983SOL     OW15929   4.377   2.766   3.783 -0.0902  0.0947 -0.0436
 3983SOL    HW115930   4.420   2.683   3.763  0.6776  0.4208  0.1993
 3983SOL    HW215931   4.405   2.786   3.872 -2.6166 -0.8259  1.0669
 3983SOL     MW15932   4.386   2.758   3.792 -0.3153  0.0186  0.1297
 3984SOL     OW15933   3.613   2.832   5.287  1.0153 -0.2805  0.9538
 3984SOL    HW115934   3.580   2.771   5.221  1.4631 -0.1394  0.5909
 3984SOL    HW215935   3.602   2.787   5.370 -1.1434  0.1959  0.9830
 3984SOL     MW15936   3.608   2.819   5.289  0.7963 -0.2015  0.9111
 3985SOL     OW15937   3.001   3.869   2.351  0.1771 -0.5502 -0.5507
 3985SOL    HW115938   3.034   3.854   2.262  2.0520  0.9296 -0.1753
 3985SOL    HW215939   2.936   3.938   2.342 -0.1023 -0.8504 -0.8461
 3985SOL     MW15940   2.997   3.876   2.339  0.3814 -0.3992 -0.5405
 3986SOL     OW15941   3.137   3.135   2.955 -0.9501 -0.1721  0.3850
 3986SOL    HW115942   3.087   3.082   3.017 -0.2958  0.9365  1.9255
 3986SOL    HW215943   3.091   3.125   2.871 -1.6013 -2.0621  0.9311
 3986SOL     MW15944   3.125   3.127   2.952 -0.9497 -0.2721  0.6521
 3987SOL     OW15945   4.842   0.532   4.690  0.6601 -0.0221 -0.4415
 3987SOL    HW115946   4.872   0.501   4.604 -2.7358  0.1478 -1.8622
 3987SOL    HW215947   4.771   0.593   4.669  0.3547  0.7679  2.5187
 3987SOL     MW15948   4.837   0.536   4.676  0.1863  0.1008 -0.2444
 3988SOL     OW15949   3.036   0.251   3.614  0.3782  0.0702  0.1657
 3988SOL    HW115950   3.049   0.203   3.696 -0.8091 -0.8674 -0.1623
 3988SOL    HW215951   2.946   0.230   3.589  0.4451  1.0424 -0.9366
 3988SOL     MW15952   3.026   0.242   3.622  0.2347  0.0746 -0.0174
 3989SOL     OW15953   4.051   0.941   0.919 -0.3632  0.3270 -0.2969
 3989SOL    HW115954   4.000   0.933   1.000 -0.5018 -1.0923 -0.4948
 3989SOL    HW215955   4.093   0.855   0.908 -0.7364  0.3098 -1.9735
 3989SOL     MW15956   4.050   0.929   0.928 -0.4287  0.1431 -0.5369
 3990SOL     OW15957   0.630   3.538   0.942 -0.4894 -0.0784 -0.3849
 3990SOL    HW115958   0.583   3.579   1.015 -2.0115 -1.0394 -0.7859
 3990SOL    HW215959   0.561   3.503   0.886  0.7026 -0.7706 -1.4554
 3990SOL     MW15960   0.615   3.539   0.944 -0.5316 -0.2900 -0.5733
 3991SOL     OW15961   3.911   4.642   4.243  0.9210 -0.5725 -0.0657
 3991SOL    HW115962   3.905   4.559   4.196  0.7862  0.2378 -1.5182
 3991SOL    HW215963   3.915   4.709   4.175 -0.9992  0.7722  1.0535
 3991SOL     MW15964   3.911   4.640   4.229  0.6579 -0.2967 -0.1083
 3992SOL     OW15965   1.480   3.170   1.624  0.2234  0.3581 -0.4576
 3992SOL    HW115966   1.403   3.223   1.606 -0.0269 -0.2542 -1.2459
 3992SOL    HW215967   1.496   3.122   1.543  0.9285 -0.1581 -0.0298
 3992SOL     MW15968   1.472   3.170   1.611  0.2816  0.2137 -0.5038
 3993SOL     OW15969   2.992   1.456   2.485 -0.3090  0.1785 -0.6405
 3993SOL    HW115970   3.006   1.529   2.425  1.3376 -1.9462 -3.0417
 3993SOL    HW215971   2.947   1.390   2.433 -0.7052 -1.0225  1.1180
 3993SOL     MW15972   2.988   1.457   2.471 -0.1489 -0.2472 -0.7227
 3994SOL     OW15973   1.673   5.109   1.970 -0.1258 -0.1560 -0.0633
 3994SOL    HW115974   1.659   5.129   2.062  1.0533 -0.3989  0.1897
 3994SOL    HW215975   1.709   5.190   1.934  0.3630 -0.3696 -0.0687
 3994SOL     MW15976   1.676   5.122   1.977  0.0877 -0.2144 -0.0316
 3995SOL     OW15977   3.876   1.621   5.223  0.1008  0.1463 -0.2794
 3995SOL    HW115978   3.884   1.531   5.190 -0.0289  0.3132 -0.7787
 3995SOL    HW215979   3.790   1.650   5.194  0.0222  0.3321  0.1373
 3995SOL     MW15980   3.866   1.613   5.215  0.0741  0.1915 -0.2900
 3996SOL     OW15981   1.573   2.207   4.021 -0.1956 -0.4251  0.1240
 3996SOL    HW115982   1.646   2.157   3.984  0.0216  0.4485 -0.6506
 3996SOL    HW215983   1.495   2.158   3.996 -0.1236  0.5785 -2.2734
 3996SOL     MW15984   1.572   2.194   4.013 -0.1586 -0.1848 -0.2821
 3997SOL     OW15985   2.499   1.072   0.264 -0.2513  0.2668  0.1586
 3997SOL    HW115986   2.430   1.117   0.214  0.5547 -0.0282 -1.2848
 3997SOL    HW215987   2.555   1.143   0.295  1.1986  0.3428 -2.3859
 3997SOL     MW15988   2.497   1.087   0.261  0.0375  0.2388 -0.3519
 3998SOL     OW15989   0.300   0.910   3.814  0.0420 -0.2360  0.4031
 3998SOL    HW115990   0.281   0.954   3.897  0.5881  2.1795 -0.6813
 3998SOL    HW215991   0.385   0.945   3.787  0.1707 -1.4642 -0.8897
 3998SOL     MW15992   0.309   0.920   3.821  0.1284 -0.0840  0.0988
 3999SOL     OW15993   5.014   3.192   5.487  0.4354  0.2965 -0.1498
 3999SOL    HW115994   5.030   3.286   5.486 -0.9509  0.5582 -0.3894
 3999SOL    HW215995   5.008   3.168   5.394 -0.0989  0.1487 -0.0810
 3999SOL     MW15996   5.015   3.201   5.475  0.1896  0.3111 -0.1716
 4000SOL     OW15997   4.776   2.286   2.797 -0.1111  0.1927 -0.1053
 4000SOL    HW115998   4.845   2.275   2.732  0.9244 -1.7352  1.1986
 4000SOL    HW215999   4.753   2.379   2.793  0.4833  0.2929 -2.5992
 4000SOL     MW16000   4.782   2.296   2.788  0.0975 -0.0412 -0.2576
 4001SOL     OW16001   0.645   1.356   0.710 -0.7172  0.1744  0.3210
 4001SOL    HW116002   0.594   1.304   0.772 -0.5027 -1.7311 -1.0356
 4001SOL    HW216003   0.581   1.383   0.644 -0.4382 -0.0882 -0.0565
 4001SOL     MW16004   0.630   1.353   0.709 -0.6540 -0.1032  0.0990
 4002SOL     OW16005   3.576   3.506   4.304 -0.1965  0.2678 -0.3577
 4002SOL    HW116006   3.597   3.558   4.226 -0.2587 -0.2853 -0.7474
 4002SOL    HW216007   3.650   3.521   4.363 -0.4255  1.1479 -0.2791
 4002SOL     MW16008   3.588   3.515   4.301 -0.2338  0.3096 -0.3975
 4003SOL     OW16009   0.551   4.961   1.534  0.2691  0.4364 -0.0676
 4003SOL    HW116010   0.609   4.953   1.458 -0.4400  1.6943 -0.7713
 4003SOL    HW216011   0.463   4.962   1.498 -0.0935  0.7931  0.7868
 4003SOL     MW16012   0.547   4.960   1.520  0.1319  0.6431 -0.0483
 4004SOL     OW16013   4.841   4.739   5.270 -0.0283  0.0373 -0.1202
 4004SOL    HW116014   4.925   4.712   5.234 -0.3278 -0.2459 -0.6215
 4004SOL    HW216015   4.792   4.657   5.281  0.0937  0.1005  1.0553
 4004SOL     MW16016   4.845   4.725   5.267 -0.0510  0.0092 -0.0339
 4005SOL     OW16017   4.281   0.488   2.680 -0.4150 -0.4632  0.6510
 4005SOL    HW116018   4.200   0.451   2.716  0.5662 -2.4203  0.9912
 4005SOL    HW216019   4.314   0.420   2.621  0.3620  0.8106 -0.4345
 4005SOL     MW16020   4.275   0.474   2.677 -0.1899 -0.5507  0.5556
 4006SOL     OW16021   2.667   2.334   5.206  0.6646 -0.0766  0.1041
 4006SOL    HW116022   2.668   2.240   5.186 -2.6720 -0.9812  3.1708
 4006SOL    HW216023   2.739   2.346   5.268  2.0043 -0.2021 -1.3491
 4006SOL     MW16024   2.676   2.323   5.211  0.4090 -0.2084  0.3107
 4007SOL     OW16025   3.525   2.798   2.277  0.0101 -0.1028  0.0753
 4007SOL    HW116026   3.562   2.866   2.220 -1.4799  1.3661  0.7805
 4007SOL    HW216027   3.480   2.738   2.217  0.2591  0.2316 -0.4593
 4007SOL     MW16028   3.524   2.799   2.262 -0.1487  0.1280  0.0971
 4008SOL     OW16029   3.880   4.670   0.273 -0.1156  0.5694 -0.0259
 4008SOL    HW116030   3.818   4.669   0.345  1.0745  0.3107  1.0355
 4008SOL    HW216031   3.880   4.760   0.241 -0.4520  0.7471  0.4802
 4008SOL     MW16032   3.872   4.681   0.278 -0.0063  0.5590  0.1747
 4009SOL     OW16033   1.389   0.332   1.634 -0.1164 -0.1631 -0.2761
 4009SOL    HW116034   1.378   0.296   1.722  2.2884  2.1406  1.1270
 4009SOL    HW216035   1.482   0.319   1.615 -0.5762 -0.5875 -2.5383
 4009SOL     MW16036   1.400   0.325   1.643  0.1326  0.0774 -0.3861
 4010SOL     OW16037   4.655   5.358   2.120 -0.1803  0.1823 -0.3796
 4010SOL    HW116038   4.609   5.390   2.042  1.0255 -1.5313 -1.8762
 4010SOL    HW216039   4.626   5.267   2.129  0.1460  0.1817  0.8394
 4010SOL     MW16040   4.645   5.351   2.111  0.0158 -0.0371 -0.4151
 4011SOL     OW16041   1.158   4.300   4.465 -0.1393  0.4177  0.4284
 4011SOL    HW116042   1.132   4.344   4.546  0.2612  0.3714  0.5840
 4011SOL    HW216043   1.240   4.342   4.440  0.6562 -0.7421  0.9844
 4011SOL     MW16044   1.166   4.311   4.472  0.0138  0.2633  0.5195
 4012SOL     OW16045   5.226   3.140   4.622 -0.1181  0.3856  0.1245
 4012SOL    HW116046   5.158   3.204   4.645 -0.3519  0.2521 -0.1873
 4012SOL    HW216047   5.192   3.096   4.544 -0.4271 -0.8321  0.9155
 4012SOL     MW16048   5.213   3.143   4.615 -0.1876  0.2126  0.1858
 4013SOL     OW16049   1.558   3.467   3.861 -0.1097  0.0137 -0.1568
 4013SOL    HW116050   1.464   3.483   3.853 -0.2763 -0.3881  0.8454
 4013SOL    HW216051   1.592   3.477   3.772 -1.1542 -0.1727 -0.5858
 4013SOL     MW16052   1.550   3.470   3.848 -0.2647 -0.0616 -0.0834
 4014SOL     OW16053   1.556   1.152   1.575 -0.3743  0.0855 -0.1088
 4014SOL    HW116054   1.527   1.242   1.589 -0.6966  1.0016 -5.0410
 4014SOL    HW216055   1.476   1.102   1.559 -0.0551 -0.6287  0.4401
 4014SOL     MW16056   1.542   1.157   1.575 -0.3747  0.1113 -0.6699
 4015SOL     OW16057   0.743   0.088   3.299 -0.5397 -0.0163 -0.3873
 4015SOL    HW116058   0.697   0.156   3.348 -0.0438  0.1641 -0.1635
 4015SOL    HW216059   0.783   0.134   3.225 -0.6044 -0.1459 -0.5036
 4015SOL     MW16060   0.742   0.103   3.296 -0.4845 -0.0098 -0.3735
 4016SOL     OW16061   2.305   4.106   0.320 -0.4550 -0.0170  0.4242
 4016SOL    HW116062   2.346   4.163   0.255  2.5585 -1.6542  0.7022
 4016SOL    HW216063   2.271   4.166   0.386  0.1202  1.5399 -0.6233
 4016SOL     MW16064   2.306   4.121   0.320  0.0044 -0.0273  0.3257
 4017SOL     OW16065   0.031   1.734   4.592  0.0959 -0.6498  0.0165
 4017SOL    HW116066   0.078   1.717   4.510 -2.8878 -1.8315 -1.6033
 4017SOL    HW216067  -0.040   1.793   4.567  0.2782  0.6011  2.2309
 4017SOL     MW16068   0.028   1.739   4.578 -0.2627 -0.6409  0.0926
 4018SOL     OW16069   5.293   2.571   1.938  0.8405  0.4521  0.3041
 4018SOL    HW116070   5.238   2.587   1.861  0.9793 -0.0533  0.0982
 4018SOL    HW216071   5.357   2.506   1.908  0.7203  0.0437  0.9234
 4018SOL     MW16072   5.294   2.565   1.924  0.8428  0.3351  0.3570
 4019SOL     OW16073   5.424   1.949   2.286 -0.3052 -0.4376 -0.0479
 4019SOL    HW116074   5.442   1.860   2.256  1.6521 -0.3230  0.6174
 4019SOL    HW216075   5.509   1.994   2.280 -1.0416  1.1034  0.5440
 4019SOL     MW16076   5.437   1.943   2.282 -0.1489 -0.2257  0.1130
 4020SOL     OW16077   5.461   0.030   1.371  0.0306  0.0494 -0.5790
 4020SOL    HW116078   5.518  -0.008   1.437 -0.2807  1.2046  0.3859
 4020SOL    HW216079   5.374  -0.003   1.392  0.2268 -1.3107 -1.7483
 4020SOL     MW16080   5.457   0.021   1.382  0.0159  0.0232 -0.6052
 4021SOL     OW16081   4.328   4.220   4.867 -0.2085  0.0078  0.0605
 4021SOL    HW116082   4.397   4.185   4.811 -0.7736 -1.2285  0.0918
 4021SOL    HW216083   4.250   4.169   4.844 -0.6559  0.0432  1.3783
 4021SOL     MW16084   4.327   4.209   4.857 -0.3381 -0.1460  0.2332
 4022SOL     OW16085   2.972   3.662   0.584 -0.3782  0.2310 -0.4819
 4022SOL    HW116086   3.049   3.658   0.527 -0.3671  0.9769 -0.5284
 4022SOL    HW216087   3.007   3.650   0.672 -0.1269  1.0708 -0.4521
 4022SOL     MW16088   2.986   3.660   0.588 -0.3446  0.4340 -0.4840
 4023SOL     OW16089   5.108   0.732   5.214  0.4712  0.5964 -0.0129
 4023SOL    HW116090   5.143   0.659   5.162  0.6672  0.7729 -0.1308
 4023SOL    HW216091   5.174   0.801   5.206 -0.3465  1.2819 -1.0094
 4023SOL     MW16092   5.121   0.731   5.207  0.3916  0.7067 -0.1556
 4024SOL     OW16093   2.017   4.910   2.636 -0.2127 -0.0905  0.1844
 4024SOL    HW116094   2.001   4.985   2.578  1.3846  0.0418 -0.1300
 4024SOL    HW216095   2.039   4.950   2.720  1.8273 -0.1091 -0.2818
 4024SOL     MW16096   2.018   4.925   2.639  0.2529 -0.0759  0.0845
 4025SOL     OW16097   0.279   1.375   0.902 -0.8745  0.8815 -0.3750
 4025SOL    HW116098   0.304   1.303   0.843  1.3425  0.0600  1.4267
 4025SOL    HW216099   0.234   1.331   0.975 -1.2304  1.5709 -0.1739
 4025SOL     MW16100   0.276   1.360   0.904 -0.6362  0.8646 -0.1186
 4026SOL     OW16101   0.904   2.084   1.781  0.2495 -0.6040 -0.2127
 4026SOL    HW116102   0.928   2.016   1.719  0.0589 -0.6909 -0.1895
 4026SOL    HW216103   0.854   2.148   1.729 -0.0543 -0.7597 -0.1131
 4026SOL     MW16104   0.901   2.084   1.767  0.1862 -0.6351 -0.1970
 4027SOL     OW16105   1.278   3.309   3.130  0.1456 -0.5009  0.1457
 4027SOL    HW116106   1.344   3.240   3.120 -0.8836 -1.5209  0.2117
 4027SOL    HW216107   1.328   3.387   3.151  1.4748 -0.8871 -1.3878
 4027SOL     MW16108   1.293   3.310   3.131  0.1840 -0.6809 -0.0422
 4028SOL     OW16109   3.443   0.450   2.372  0.0525  0.3443 -0.7584
 4028SOL    HW116110   3.409   0.482   2.288  1.8343 -0.4890 -1.8628
 4028SOL    HW216111   3.538   0.461   2.364  0.2679  0.0635  1.1010
 4028SOL     MW16112   3.451   0.456   2.360  0.3082  0.2017 -0.6617
 4029SOL     OW16113   3.149   5.219   2.962 -0.1126  0.4731 -0.2163
 4029SOL    HW116114   3.066   5.254   2.930 -0.6289  1.9272  2.4244
 4029SOL    HW216115   3.213   5.244   2.895 -1.6819 -0.3516 -2.1302
 4029SOL     MW16116   3.147   5.227   2.949 -0.3796  0.5537 -0.1233
 4030SOL     OW16117   5.197   2.969   2.059 -0.6419  0.0135  0.1826
 4030SOL    HW116118   5.125   2.946   2.118 -0.4504  1.0200  0.8168
 4030SOL    HW216119   5.171   3.053   2.022  1.1189  1.4220  1.9648
 4030SOL     MW16120   5.184   2.977   2.061 -0.3920  0.3226  0.4919
 4031SOL     OW16121   4.157   3.018   2.708 -0.6210  0.2061 -0.0958
 4031SOL    HW116122   4.148   2.926   2.684  0.3459  0.2539 -0.7098
 4031SOL    HW216123   4.095   3.031   2.779  0.6741 -1.4327  1.4386
 4031SOL     MW16124   4.148   3.008   2.714 -0.3314  0.0024  0.0221
 4032SOL     OW16125   1.810   2.119   5.287 -0.3093  0.1295 -0.0548
 4032SOL    HW116126   1.865   2.134   5.364  0.1313 -1.4033 -0.0338
 4032SOL    HW216127   1.851   2.172   5.218 -0.6858  1.4786  0.7313
 4032SOL     MW16128   1.823   2.128   5.288 -0.3011  0.1060  0.0485
 4033SOL     OW16129   4.455   2.186   0.810 -0.1539  0.2742  0.7110
 4033SOL    HW116130   4.432   2.254   0.747  0.2837  1.4628  1.7895
 4033SOL    HW216131   4.375   2.174   0.863 -0.4210 -0.4970  0.1536
 4033SOL     MW16132   4.442   2.193   0.809 -0.1321  0.3277  0.7777
 4034SOL     OW16133   0.679   4.347   3.871 -0.3878 -0.1308 -0.2232
 4034SOL    HW116134   0.724   4.279   3.922  0.0750 -0.2450 -0.7760
 4034SOL    HW216135   0.722   4.429   3.897  0.0639 -0.2256 -0.6603
 4034SOL     MW16136   0.690   4.349   3.881 -0.2707 -0.1575 -0.3499
 4035SOL     OW16137   1.743   2.726   1.424 -0.6023  0.3592  0.2609
 4035SOL    HW116138   1.661   2.681   1.404  0.6065 -1.4340 -0.9368
 4035SOL    HW216139   1.806   2.656   1.440  1.0866  1.6214 -0.4815
 4035SOL     MW16140   1.740   2.711   1.423 -0.2314  0.2913  0.0125
 4036SOL     OW16141   2.372   0.629   2.547 -0.1249  0.3247 -0.2927
 4036SOL    HW116142   2.279   0.620   2.564 -0.0530  0.0553 -0.0410
 4036SOL    HW216143   2.412   0.634   2.633  0.3500 -2.1005 -0.2886
 4036SOL     MW16144   2.366   0.628   2.560 -0.0549 -0.0203 -0.2600
 4037SOL     OW16145   1.795   0.793   0.398 -0.3019 -0.1914  0.1014
 4037SOL    HW116146   1.875   0.840   0.376 -0.4448  0.0400  0.0673
 4037SOL    HW216147   1.733   0.862   0.423 -0.0882 -0.4550  1.4254
 4037SOL     MW16148   1.797   0.808   0.399 -0.2928 -0.1955  0.2665
 4038SOL     OW16149   0.768   1.986   1.336  0.3540 -0.0847 -0.4005
 4038SOL    HW116150   0.791   1.914   1.394 -0.1742  0.7870  0.9180
 4038SOL    HW216151   0.830   2.056   1.357 -1.3931  1.1272  0.9193
 4038SOL     MW16152   0.779   1.986   1.346  0.0628  0.1820 -0.0628
 4039SOL     OW16153   5.340   5.115   1.316  0.1572 -0.0990 -1.0398
 4039SOL    HW116154   5.421   5.122   1.367  0.2772  2.0568 -1.3924
 4039SOL    HW216155   5.320   5.022   1.314  0.7898 -0.4051  1.9158
 4039SOL     MW16156   5.348   5.104   1.322  0.2536  0.1378 -0.7066
 4040SOL     OW16157   1.329   3.698   0.564 -0.0213 -0.0476  0.6744
 4040SOL    HW116158   1.271   3.626   0.540 -0.9857  0.6227  0.9285
 4040SOL    HW216159   1.309   3.768   0.502  2.4857 -0.6999 -1.0348
 4040SOL     MW16160   1.319   3.698   0.553  0.1762 -0.0453  0.4881
 4041SOL     OW16161   2.567   2.984   4.128  0.1833  0.0858  0.4678
 4041SOL    HW116162   2.565   3.080   4.129 -2.0494  0.0865  0.0926
 4041SOL    HW216163   2.556   2.961   4.036 -1.2288 -0.5206  0.7714
 4041SOL     MW16164   2.565   2.994   4.116 -0.2833  0.0082  0.4587
 4042SOL     OW16165   0.046   3.706   1.204 -0.2692 -0.2752 -0.2632
 4042SOL    HW116166   0.007   3.619   1.199  0.7278 -0.7125 -0.5238
 4042SOL    HW216167   0.002   3.747   1.279 -1.4360 -0.6391 -0.7290
 4042SOL     MW16168   0.035   3.700   1.213 -0.2909 -0.3778 -0.3562
 4043SOL     OW16169   1.425   1.985   3.862  0.0893 -0.2001 -0.3178
 4043SOL    HW116170   1.344   1.956   3.821 -0.4339  0.3861  0.2714
 4043SOL    HW216171   1.495   1.940   3.814 -0.6770 -3.1925  1.0925
 4043SOL     MW16172   1.424   1.976   3.851 -0.0758 -0.5081 -0.0618
 4044SOL     OW16173   4.169   1.087   1.961  0.3465 -0.3625 -0.0577
 4044SOL    HW116174   4.183   1.074   2.055  0.2762 -1.0070 -0.1357
 4044SOL    HW216175   4.248   1.133   1.932  0.9374 -1.2604  0.0902
 4044SOL     MW16176   4.181   1.091   1.970  0.4132 -0.5599 -0.0487
 4045SOL     OW16177   3.374   2.509   0.169 -0.3427 -0.0082 -0.0502
 4045SOL    HW116178   3.347   2.601   0.167 -1.1675 -0.2547 -0.7091
 4045SOL    HW216179   3.347   2.474   0.084  1.6397 -0.4175 -0.5658
 4045SOL     MW16180   3.367   2.517   0.158 -0.1945 -0.0922 -0.2005
 4046SOL     OW16181   1.781   0.369   1.426 -0.1436 -0.4018 -0.5249
 4046SOL    HW116182   1.864   0.403   1.462 -1.1467  0.4234  1.1245
 4046SOL    HW216183   1.782   0.397   1.334  1.4542 -0.5418 -0.5898
 4046SOL     MW16184   1.792   0.377   1.419 -0.0675 -0.3141 -0.3221
 4047SOL     OW16185   3.302   1.570   3.664 -0.0795 -0.5901 -0.0601
 4047SOL    HW116186   3.254   1.510   3.721 -0.9679 -0.3905 -0.5810
 4047SOL    HW216187   3.282   1.657   3.697 -1.0047 -0.4423 -0.9504
 4047SOL     MW16188   3.293   1.573   3.675 -0.3117 -0.5456 -0.2408
 4048SOL     OW16189   0.406   2.179   2.236 -0.1588 -0.2610 -0.0210
 4048SOL    HW116190   0.465   2.117   2.279 -1.3933 -0.4763  1.4614
 4048SOL    HW216191   0.447   2.265   2.252  0.1696 -0.4730  0.3009
 4048SOL     MW16192   0.419   2.182   2.244 -0.2748 -0.3157  0.2100
 4049SOL     OW16193   4.400   1.248   4.681  0.3590  0.2417  0.0679
 4049SOL    HW116194   4.465   1.311   4.713  0.0391  0.4652  0.2852
 4049SOL    HW216195   4.360   1.292   4.606 -2.3999  1.9076  2.3131
 4049SOL     MW16196   4.403   1.262   4.676 -0.0351  0.4836  0.3831
 4050SOL     OW16197   0.885   3.479   3.662 -0.7284 -0.2921  0.4717
 4050SOL    HW116198   0.823   3.489   3.589  1.4897  2.8950 -1.2236
 4050SOL    HW216199   0.862   3.549   3.723  1.4923  1.4589 -0.5602
 4050SOL     MW16200   0.874   3.489   3.660 -0.1602  0.3400  0.1226
 4051SOL     OW16201   5.489   3.993   2.438 -0.3030 -0.0379  0.2378
 4051SOL    HW116202   5.420   3.971   2.375 -0.6913  1.8933 -0.0608
 4051SOL    HW216203   5.451   4.062   2.492  1.3477  1.0109  0.1181
 4051SOL     MW16204   5.475   3.999   2.437 -0.1414  0.3436  0.1842
 4052SOL     OW16205   1.924   2.493   1.979  0.4607  0.9014 -0.6577
 4052SOL    HW116206   1.907   2.428   2.046  0.4999  0.4861 -1.0465
 4052SOL    HW216207   2.020   2.504   1.980  0.4632  0.8796 -0.6617
 4052SOL     MW16208   1.934   2.486   1.988  0.4660  0.8454 -0.7079
 4053SOL     OW16209   1.571   4.383   4.789  0.6386  0.6978 -0.0954
 4053SOL    HW116210   1.574   4.478   4.799  1.0675  0.9022 -1.8618
 4053SOL    HW216211   1.609   4.366   4.703  0.3627 -1.0675  0.0789
 4053SOL     MW16212   1.576   4.393   4.780  0.6582  0.4980 -0.2992
 4054SOL     OW16213   5.265   2.011   4.805 -0.2938  0.4112  0.1043
 4054SOL    HW116214   5.297   1.996   4.716  1.5653 -2.9667  1.1946
 4054SOL    HW216215   5.170   2.004   4.797 -0.1419 -0.3055 -1.5552
 4054SOL     MW16216   5.257   2.008   4.792 -0.0363 -0.1129  0.0314
 4055SOL     OW16217   3.261   4.306   0.294 -0.2695 -0.1647 -0.4061
 4055SOL    HW116218   3.351   4.317   0.263  0.3143 -0.3429  1.1218
 4055SOL    HW216219   3.259   4.350   0.379 -1.8650  0.5350 -0.7725
 4055SOL     MW16220   3.272   4.313   0.301 -0.3990 -0.0980 -0.2574
 4056SOL     OW16221   4.693   4.775   3.290 -0.0891 -0.5182 -0.4595
 4056SOL    HW116222   4.664   4.867   3.295 -0.2351 -0.4701 -1.6930
 4056SOL    HW216223   4.758   4.775   3.220  0.2593 -1.2731 -0.1367
 4056SOL     MW16224   4.697   4.787   3.281 -0.0632 -0.6087 -0.5761
 4057SOL     OW16225   5.258   2.907   3.186 -0.2588 -0.2860  0.2376
 4057SOL    HW116226   5.170   2.872   3.171  0.1368 -0.8110 -0.9300
 4057SOL    HW216227   5.257   2.993   3.142 -1.3187  1.4587  3.3250
 4057SOL     MW16228   5.246   2.914   3.179 -0.3438 -0.1299  0.4833
 4058SOL     OW16229   2.331   2.758   2.199 -0.4960  0.5084 -0.4520
 4058SOL    HW116230   2.250   2.762   2.249 -0.5186 -1.2328 -0.2616
 4058SOL    HW216231   2.401   2.770   2.263 -0.5421 -1.1749 -0.0370
 4058SOL     MW16232   2.330   2.760   2.213 -0.5048  0.0700 -0.3745
 4059SOL     OW16233   2.599   0.780   5.393  0.0332 -0.1696  0.5217
 4059SOL    HW116234   2.506   0.798   5.407 -0.3936 -1.3117 -0.7154
 4059SOL    HW216235   2.639   0.795   5.479 -1.4367 -0.6223  1.3192
 4059SOL     MW16236   2.593   0.784   5.406 -0.2096 -0.3737  0.4654
 4060SOL     OW16237   2.451   1.864   0.156 -0.0265  0.0472 -0.1646
 4060SOL    HW116238   2.497   1.879   0.239  0.1411 -1.9570  0.1427
 4060SOL    HW216239   2.521   1.850   0.092 -0.1811  0.1946 -0.3701
 4060SOL     MW16240   2.466   1.864   0.158 -0.0249 -0.1905 -0.1515
 4061SOL     OW16241   4.368   3.087   5.158  0.0996 -0.1075 -0.4704
 4061SOL    HW116242   4.335   3.044   5.079  0.0549 -0.5266 -0.2258
 4061SOL    HW216243   4.316   3.050   5.229  0.7048 -0.3476 -0.1445
 4061SOL     MW16244   4.357   3.077   5.157  0.1714 -0.1918 -0.3974
 4062SOL     OW16245   1.730   3.676   2.645 -0.1658  0.0532  0.1633
 4062SOL    HW116246   1.638   3.698   2.627 -0.8881  0.1783  3.3362
 4062SOL    HW216247   1.774   3.761   2.649 -0.4726  0.1910  0.9620
 4062SOL     MW16248   1.724   3.690   2.643 -0.2976  0.0869  0.6717
 4063SOL     OW16249   0.331   1.578   1.102  0.1693  0.0073  0.0938
 4063SOL    HW116250   0.397   1.646   1.089  0.6428 -0.5802 -0.7115
 4063SOL    HW216251   0.327   1.533   1.017 -0.4507 -0.6764  0.4784
 4063SOL     MW16252   0.339   1.581   1.089  0.1505 -0.1554  0.0400
 4064SOL     OW16253   2.699   2.111   3.653  0.0282 -0.1776  0.0970
 4064SOL    HW116254   2.718   2.048   3.584 -1.2408  0.9068 -1.2995
 4064SOL    HW216255   2.634   2.170   3.615  2.6275  3.2741  0.5427
 4064SOL     MW16256   2.693   2.111   3.640  0.1985  0.4031 -0.0247
 4065SOL     OW16257   2.762   3.581   4.255 -0.5194 -0.6342 -0.2158
 4065SOL    HW116258   2.729   3.553   4.341 -2.3115  0.2147 -0.5779
 4065SOL    HW216259   2.795   3.670   4.270  0.5018 -1.0185 -0.1232
 4065SOL     MW16260   2.762   3.589   4.268 -0.6181 -0.5747 -0.2503
 4066SOL     OW16261   3.209   3.242   5.445  0.0174 -0.2510  0.3057
 4066SOL    HW116262   3.206   3.215   5.353 -1.5788  0.5732  0.0808
 4066SOL    HW216263   3.273   3.183   5.485 -0.5510 -1.8031 -0.9639
 4066SOL     MW16264   3.217   3.231   5.439 -0.2597 -0.3442  0.1144
 4067SOL     OW16265   1.849   3.609   1.901  0.7792 -0.2105  0.3748
 4067SOL    HW116266   1.912   3.661   1.850 -0.4872  0.3060 -0.7482
 4067SOL    HW216267   1.774   3.599   1.842  0.7053 -2.7850  0.8188
 4067SOL     MW16268   1.847   3.615   1.887  0.6076 -0.4740  0.2878
 4068SOL     OW16269   2.574   0.706   1.451  0.1284  0.3144 -0.4435
 4068SOL    HW116270   2.551   0.648   1.378 -0.6834  0.2173 -0.1311
 4068SOL    HW216271   2.669   0.707   1.453  0.1522 -0.5144 -0.8490
 4068SOL     MW16272   2.583   0.698   1.442  0.0275  0.1959 -0.4554
 4069SOL     OW16273   3.225   2.735   1.926 -0.2828 -0.8862 -0.7861
 4069SOL    HW116274   3.177   2.711   1.846 -0.9768 -1.2568 -0.2644
 4069SOL    HW216275   3.298   2.787   1.894 -2.0198  1.2878 -1.4927
 4069SOL     MW16276   3.228   2.739   1.912 -0.5940 -0.6554 -0.8097
 4070SOL     OW16277   3.228   3.845   1.770  0.0431  0.0987 -0.0153
 4070SOL    HW116278   3.215   3.934   1.737  1.5212 -0.2275 -1.6034
 4070SOL    HW216279   3.274   3.857   1.853  0.2415  0.8199 -0.2214
 4070SOL     MW16280   3.232   3.858   1.777  0.2577  0.1493 -0.2450
 4071SOL     OW16281   2.571   0.458   2.264 -0.0289 -0.1662  0.1763
 4071SOL    HW116282   2.542   0.457   2.355 -0.9318 -1.6735 -0.0975
 4071SOL    HW216283   2.572   0.366   2.238 -2.1350  0.3125 -2.0265
 4071SOL     MW16284   2.567   0.446   2.272 -0.4141 -0.2979 -0.1407
 4072SOL     OW16285   3.825   0.243   0.805  0.2460  0.4192  0.5713
 4072SOL    HW116286   3.811   0.307   0.874  0.6752  0.7018  0.4014
 4072SOL    HW216287   3.921   0.232   0.802  0.3274  1.2668 -0.7430
 4072SOL     MW16288   3.836   0.250   0.814  0.3114  0.5639  0.3813
 4073SOL     OW16289   4.415   0.400   4.364 -0.2086 -0.3723  0.0588
 4073SOL    HW116290   4.419   0.304   4.371  0.0866 -0.3028  0.9883
 4073SOL    HW216291   4.476   0.431   4.431  0.8937  0.4582 -1.2949
 4073SOL     MW16292   4.423   0.392   4.374 -0.0297 -0.2571  0.0045
 4074SOL     OW16293   0.446   2.050   3.517  0.1401 -0.2888 -0.0459
 4074SOL    HW116294   0.516   2.021   3.575  0.1627 -0.5215 -0.1892
 4074SOL    HW216295   0.479   2.032   3.428  0.3979  0.7070 -0.1650
 4074SOL     MW16296   0.459   2.044   3.513  0.1760 -0.1911 -0.0795
 4075SOL     OW16297   4.490   1.095   2.066 -0.0772 -0.5190  0.5592
 4075SOL    HW116298   4.522   1.056   2.147  0.5277  1.5435  1.3795
 4075SOL    HW216299   4.514   1.032   1.998  2.2006 -0.8932  1.6282
 4075SOL     MW16300   4.497   1.082   2.068  0.2918 -0.3029  0.8010
 4076SOL     OW16301   4.953   3.644   0.189  0.4348 -0.2997 -0.1041
 4076SOL    HW116302   4.936   3.738   0.195  0.1820 -0.3143 -0.5466
 4076SOL    HW216303   4.901   3.605   0.259  0.1709 -0.1544 -0.2191
 4076SOL     MW16304   4.944   3.651   0.199  0.3686 -0.2829 -0.1755
 4077SOL     OW16305   3.204   0.208   2.917  0.6641  0.0909  0.4079
 4077SOL    HW116306   3.115   0.174   2.921  0.3581  0.9205  0.7209
 4077SOL    HW216307   3.247   0.173   2.995  1.5205 -2.7285 -1.1612
 4077SOL     MW16308   3.198   0.199   2.927  0.7345 -0.1638  0.2471
 4078SOL     OW16309   1.957   0.929   3.775 -0.7702  0.1124 -0.1057
 4078SOL    HW116310   1.911   0.984   3.839 -1.2874 -0.2725 -0.1398
 4078SOL    HW216311   1.887   0.887   3.725 -0.3640  0.8258 -1.2907
 4078SOL     MW16312   1.942   0.931   3.777 -0.7844  0.1544 -0.2617
 4079SOL     OW16313   1.693   1.070   3.454 -0.3903  0.0668 -0.0450
 4079SOL    HW116314   1.757   1.070   3.383  0.0990 -2.2198  0.3125
 4079SOL    HW216315   1.613   1.036   3.414 -0.1956 -0.9421  0.3803
 4079SOL     MW16316   1.691   1.066   3.440 -0.3027 -0.3551  0.0552
 4080SOL     OW16317   0.672   1.129   1.283  0.4597  0.4171 -0.3455
 4080SOL    HW116318   0.709   1.143   1.370 -0.5742 -1.2134  0.4211
 4080SOL    HW216319   0.738   1.077   1.236  0.3875 -0.0028  0.0091
 4080SOL     MW16320   0.685   1.124   1.288  0.3181  0.1546 -0.2020
 4081SOL     OW16321   1.065   0.677   2.679  0.1505  0.1688 -0.1341
 4081SOL    HW116322   0.973   0.655   2.665 -0.2092  0.9619  0.9234
 4081SOL    HW216323   1.112   0.604   2.639 -0.9680 -1.0626  0.7044
 4081SOL     MW16324   1.059   0.665   2.672 -0.0387  0.1127  0.1086
 4082SOL     OW16325   4.679   0.592   1.689 -0.4859 -0.1720 -0.1824
 4082SOL    HW116326   4.696   0.577   1.782  0.4713  1.2669 -0.1015
 4082SOL    HW216327   4.601   0.648   1.688 -0.5716 -0.2917 -0.2577
 4082SOL     MW16328   4.671   0.598   1.701 -0.3743 -0.0031 -0.1817
 4083SOL     OW16329   3.328   4.470   4.482  0.3193 -0.0327  0.3638
 4083SOL    HW116330   3.336   4.460   4.577  0.7556 -1.6396  0.1916
 4083SOL    HW216331   3.293   4.386   4.452  0.2196  0.4378 -0.9093
 4083SOL     MW16332   3.325   4.458   4.490  0.3624 -0.1781  0.1788
 4084SOL     OW16333   4.414   3.682   1.819  0.2451  0.0974 -0.4951
 4084SOL    HW116334   4.321   3.660   1.812 -0.1162  1.2326  0.2351
 4084SOL    HW216335   4.415   3.778   1.816  1.1582  0.2021  1.5958
 4084SOL     MW16336   4.402   3.692   1.818  0.3158  0.2561 -0.1340
 4085SOL     OW16337   0.828   2.268   3.668  0.3055  0.4546 -0.2174
 4085SOL    HW116338   0.840   2.357   3.637  1.0156  0.8610  1.1402
 4085SOL    HW216339   0.913   2.242   3.702 -0.3369 -0.0139  1.1514
 4085SOL     MW16340   0.840   2.276   3.669  0.3142  0.4466  0.1316
 4086SOL     OW16341   3.339   0.134   3.152 -0.6519 -0.1389  0.3017
 4086SOL    HW116342   3.289   0.053   3.166 -0.5478 -0.4100 -0.8432
 4086SOL    HW216343   3.406   0.111   3.088  1.0536  0.1935  1.8830
 4086SOL     MW16344   3.341   0.121   3.146 -0.4203 -0.1311  0.3576
 4087SOL     OW16345   1.055   2.362   0.290  0.0547 -0.5065 -0.0941
 4087SOL    HW116346   1.077   2.313   0.369 -1.2880 -1.1111 -0.0689
 4087SOL    HW216347   0.974   2.322   0.258  0.0579  0.3451 -1.2486
 4087SOL     MW16348   1.048   2.351   0.296 -0.1168 -0.4749 -0.2387
 4088SOL     OW16349   3.682   3.066   3.307 -0.6141 -0.0707  0.2895
 4088SOL    HW116350   3.761   3.047   3.357 -2.2205 -3.2458  1.9204
 4088SOL    HW216351   3.658   3.155   3.333  1.9548  0.7112  0.2696
 4088SOL     MW16352   3.689   3.075   3.317 -0.4909 -0.3770  0.4957
 4089SOL     OW16353   4.664   3.037   0.435 -0.1457  0.4709 -0.0754
 4089SOL    HW116354   4.626   3.022   0.521 -1.5074 -1.3996 -0.9273
 4089SOL    HW216355   4.589   3.037   0.375  0.7804  1.5529 -1.3017
 4089SOL     MW16356   4.650   3.035   0.438 -0.2015  0.3700 -0.3415
 4090SOL     OW16357   2.754   1.575   3.325  0.8480 -0.3320 -0.7030
 4090SOL    HW116358   2.731   1.537   3.241  2.8517  0.7111 -1.7864
 4090SOL    HW216359   2.813   1.647   3.304  2.3902 -0.7854  1.6343
 4090SOL     MW16360   2.759   1.579   3.312  1.3019 -0.2565 -0.5425
 4091SOL     OW16361   5.334   5.300   4.301  0.0407 -0.5481 -0.5472
 4091SOL    HW116362   5.252   5.341   4.273  0.7925  1.4695  0.0070
 4091SOL    HW216363   5.346   5.226   4.242 -2.5240 -1.3329 -0.1855
 4091SOL     MW16364   5.325   5.296   4.290 -0.1914 -0.3903 -0.4299
 4092SOL     OW16365   4.520   1.190   0.055 -0.5127  0.3010 -0.0120
 4092SOL    HW116366   4.503   1.158  -0.033 -0.9816  0.9105 -0.1500
 4092SOL    HW216367   4.615   1.197   0.060 -0.3367 -1.7240  0.2582
 4092SOL     MW16368   4.530   1.187   0.044 -0.5502  0.1198  0.0049
 4093SOL     OW16369   3.434   2.716   1.014 -0.3881 -0.2995  0.5993
 4093SOL    HW116370   3.380   2.727   1.093 -0.1117 -0.3827  0.8000
 4093SOL    HW216371   3.423   2.799   0.967  0.7336  0.4137  1.5259
 4093SOL     MW16372   3.426   2.728   1.018 -0.2091 -0.2189  0.7436
 4094SOL     OW16373   2.290   4.267   3.833  0.8494 -0.0531  0.2176
 4094SOL    HW116374   2.266   4.218   3.754  1.6256  1.2053 -0.8510
 4094SOL    HW216375   2.328   4.202   3.891 -1.5239 -1.3882  0.4126
 4094SOL     MW16376   2.292   4.253   3.830  0.6449 -0.0629  0.1058
 4095SOL     OW16377   4.790   4.385   1.355  0.1139  0.1938  0.1335
 4095SOL    HW116378   4.885   4.383   1.342  0.0021  0.0764 -0.7526
 4095SOL    HW216379   4.762   4.467   1.313  0.0560  1.2771  2.1839
 4095SOL     MW16380   4.798   4.395   1.348  0.0922  0.3175  0.2825
 4096SOL     OW16381   4.242   1.068   3.218  0.8994 -0.1925  0.0975
 4096SOL    HW116382   4.306   1.072   3.146  1.6219 -0.9296  0.6894
 4096SOL    HW216383   4.164   1.030   3.178  0.9133  0.4335 -0.5583
 4096SOL     MW16384   4.240   1.064   3.203  0.9936 -0.2067  0.0893
 4097SOL     OW16385   0.682   2.788   0.400 -0.1591 -0.4059  0.0678
 4097SOL    HW116386   0.611   2.790   0.336 -1.2978 -0.4117  1.2825
 4097SOL    HW216387   0.709   2.696   0.402 -1.3193 -0.7452  0.8469
 4097SOL     MW16388   0.676   2.776   0.392 -0.4534 -0.4501  0.3230
 4098SOL     OW16389   1.843   3.001   5.433  0.0657  0.2372 -0.2361
 4098SOL    HW116390   1.904   2.939   5.395 -0.3017 -0.2761  0.0046
 4098SOL    HW216391   1.893   3.045   5.502 -0.0290 -0.6535  0.4095
 4098SOL     MW16392   1.857   2.999   5.437  0.0066  0.0575 -0.1226
 4099SOL     OW16393   2.830   1.728   4.319  0.3734  0.3592 -0.0508
 4099SOL    HW116394   2.855   1.795   4.383  0.7559  1.0083 -0.8608
 4099SOL    HW216395   2.850   1.645   4.363  0.0663  0.7745  0.8961
 4099SOL     MW16396   2.836   1.726   4.333  0.3831  0.4955 -0.0333
 4100SOL     OW16397   1.148   4.915   1.884 -0.1906 -0.4866 -0.7788
 4100SOL    HW116398   1.238   4.917   1.918 -0.3940 -0.7909 -0.2095
 4100SOL    HW216399   1.157   4.883   1.794  0.0418 -3.1232  0.0902
 4100SOL     MW16400   1.161   4.911   1.877 -0.1869 -0.8631 -0.5947
 4101SOL     OW16401   1.525   2.688   1.702 -0.6389 -0.7861  0.3940
 4101SOL    HW116402   1.490   2.687   1.791 -1.1020  0.6054  0.2446
 4101SOL    HW216403   1.620   2.684   1.713 -0.6122  0.9694  1.0356
 4101SOL     MW16404   1.532   2.687   1.715 -0.6948 -0.3832  0.4570
 4102SOL     OW16405   2.934   3.917   1.974  0.1459 -0.2761  0.2401
 4102SOL    HW116406   3.024   3.895   2.001  0.4957 -0.4039 -0.9566
 4102SOL    HW216407   2.945   3.961   1.890 -0.7764  1.6575  1.0685
 4102SOL     MW16408   2.947   3.920   1.967  0.0726 -0.0450  0.1930
 4103SOL     OW16409   2.982   2.464   3.114 -0.3570 -0.5525 -0.1079
 4103SOL    HW116410   3.042   2.498   3.047  1.9827 -2.4466  0.8894
 4103SOL    HW216411   3.005   2.372   3.123 -3.3470 -1.3423  0.5274
 4103SOL     MW16412   2.992   2.457   3.106 -0.4403 -0.8961  0.1011
 4104SOL     OW16413   1.232   1.272   2.423  0.3696 -0.0552  0.1718
 4104SOL    HW116414   1.151   1.321   2.414 -0.4074 -1.2153  0.5821
 4104SOL    HW216415   1.247   1.267   2.518  1.6131  1.2135  0.0734
 4104SOL     MW16416   1.224   1.278   2.434  0.4293 -0.0413  0.2117
 4105SOL     OW16417   1.848   4.303   3.221  0.3755  0.1333  0.7277
 4105SOL    HW116418   1.830   4.227   3.165 -0.2968  0.2059  0.8362
 4105SOL    HW216419   1.763   4.324   3.260  0.8148  0.1609  1.6854
 4105SOL     MW16420   1.834   4.296   3.219  0.3457  0.1461  0.8642
 4106SOL     OW16421   2.066   1.254   2.272  0.0526  0.2240  0.6229
 4106SOL    HW116422   2.011   1.197   2.217  2.4109  0.2004 -1.9412
 4106SOL    HW216423   2.082   1.203   2.351  0.1959 -1.7395 -0.6048
 4106SOL     MW16424   2.061   1.240   2.275  0.3728 -0.0304  0.1375
 4107SOL     OW16425   0.951   0.255   4.372  0.0603  0.5029 -0.1331
 4107SOL    HW116426   0.926   0.308   4.448  0.8188  0.3150  0.2599
 4107SOL    HW216427   1.015   0.192   4.407  0.5874  0.5594 -0.9718
 4107SOL     MW16428   0.956   0.253   4.386  0.2248  0.4861 -0.1902
 4108SOL     OW16429   2.313   3.389   4.741 -0.0131  0.4235  0.2012
 4108SOL    HW116430   2.393   3.352   4.703  0.7481  2.6912 -0.5332
 4108SOL    HW216431   2.329   3.483   4.744 -2.0053  0.7717  1.6524
 4108SOL     MW16432   2.326   3.396   4.736 -0.1707  0.7583  0.2930
 4109SOL     OW16433   2.137   3.148   0.390  0.4776  0.1273 -0.4307
 4109SOL    HW116434   2.142   3.244   0.387 -0.6462  0.2110 -0.2787
 4109SOL    HW216435   2.228   3.119   0.397  0.7681  1.2356  0.9100
 4109SOL     MW16436   2.149   3.157   0.391  0.3709  0.2799 -0.2396
 4110SOL     OW16437   4.108   5.435   1.064 -0.6625  0.3013  0.4436
 4110SOL    HW116438   4.019   5.449   1.095 -0.9790 -0.4860 -0.0733
 4110SOL    HW216439   4.103   5.355   1.011  0.3317  0.2932  0.3381
 4110SOL     MW16440   4.096   5.427   1.061 -0.5758  0.1995  0.3639
 4111SOL     OW16441   4.164   3.005   5.313 -0.1416 -0.0536  0.2537
 4111SOL    HW116442   4.153   3.078   5.374 -1.0211  1.4337 -1.5688
 4111SOL    HW216443   4.076   2.967   5.305 -0.0445 -0.2160 -0.0845
 4111SOL     MW16444   4.151   3.010   5.319 -0.2417  0.1160 -0.0229
 4112SOL     OW16445   2.357   4.517   5.277 -0.4450 -0.2486 -0.0775
 4112SOL    HW116446   2.308   4.465   5.340 -1.0517  0.3722 -0.0175
 4112SOL    HW216447   2.439   4.538   5.322 -1.2672  1.0156  0.9240
 4112SOL     MW16448   2.361   4.513   5.291 -0.6279 -0.0073  0.0584
 4113SOL     OW16449   2.856   1.399   4.078  0.2169  0.0703  0.3007
 4113SOL    HW116450   2.843   1.367   3.988 -1.5106 -2.0116  1.1937
 4113SOL    HW216451   2.776   1.448   4.098  0.8266  0.9824  0.5500
 4113SOL     MW16452   2.844   1.401   4.069  0.0738 -0.0794  0.4469
 4114SOL     OW16453   2.368   4.736   2.833 -0.1511 -0.0299  0.4419
 4114SOL    HW116454   2.458   4.724   2.864 -0.4536  0.4228  1.5344
 4114SOL    HW216455   2.314   4.696   2.900 -0.7952  0.1120  0.0171
 4114SOL     MW16456   2.373   4.729   2.845 -0.2723  0.0462  0.5273
 4115SOL     OW16457   4.855   4.750   1.083 -0.3996 -0.1302  0.5452
 4115SOL    HW116458   4.791   4.703   1.136 -1.3243 -0.9432 -1.2298
 4115SOL    HW216459   4.806   4.784   1.009  1.0792 -0.1568 -0.4961
 4115SOL     MW16460   4.841   4.749   1.080 -0.3287 -0.2376  0.1847
 4116SOL     OW16461   5.064   1.366   2.157 -0.0333 -0.3777  0.0874
 4116SOL    HW116462   4.974   1.360   2.123 -0.6739 -0.7182  1.7495
 4116SOL    HW216463   5.095   1.451   2.127 -2.0248  1.1457  1.9267
 4116SOL     MW16464   5.056   1.376   2.149 -0.3702 -0.2263  0.5357
 4117SOL     OW16465   5.155   5.031   3.125 -0.0317 -0.2961  0.2285
 4117SOL    HW116466   5.082   5.031   3.062  1.5304  2.2545 -1.7822
 4117SOL    HW216467   5.182   5.123   3.130  1.8300 -0.8772  2.4361
 4117SOL     MW16468   5.149   5.043   3.118  0.4066 -0.0440  0.2537
 4118SOL     OW16469   3.848   0.396   0.137 -0.3640 -0.0656  0.1914
 4118SOL    HW116470   3.883   0.483   0.118  1.5919 -0.5538  1.2945
 4118SOL    HW216471   3.901   0.364   0.210 -2.3977 -1.3809  1.1812
 4118SOL     MW16472   3.860   0.403   0.144 -0.3739 -0.2965  0.4593
 4119SOL     OW16473   4.359   1.388   1.262  0.1751 -0.0057 -0.2365
 4119SOL    HW116474   4.276   1.432   1.278 -0.1394 -0.1262 -1.5021
 4119SOL    HW216475   4.339   1.295   1.269  0.5584 -0.0216  1.0503
 4119SOL     MW16476   4.346   1.382   1.265  0.1839 -0.0232 -0.2338
 4120SOL     OW16477   2.406   3.717   1.238 -0.8936 -0.4975  0.2723
 4120SOL    HW116478   2.436   3.655   1.171 -0.4894  0.9292 -0.9371
 4120SOL    HW216479   2.482   3.773   1.254 -1.1999 -0.3953  1.4670
 4120SOL     MW16480   2.420   3.716   1.231 -0.8810 -0.3018  0.2705
 4121SOL     OW16481   0.067   1.266   4.019  0.1271 -0.4585 -0.0288
 4121SOL    HW116482   0.139   1.251   4.081  0.5948 -0.3172 -0.5216
 4121SOL    HW216483  -0.012   1.262   4.072  0.4192 -1.7269  0.3569
 4121SOL     MW16484   0.066   1.263   4.034  0.2244 -0.6028 -0.0425
 4122SOL     OW16485   1.054   4.089   0.179  0.3153  0.8866 -0.1251
 4122SOL    HW116486   1.097   4.174   0.193  0.1584  0.8820  0.4273
 4122SOL    HW216487   0.981   4.110   0.120  0.4134  1.0985 -0.1744
 4122SOL     MW16488   1.050   4.103   0.173  0.3078  0.9131 -0.0607
 4123SOL     OW16489   0.991   0.146   5.066 -0.1411  0.0664 -0.1183
 4123SOL    HW116490   0.997   0.061   5.022  0.1979  0.3717 -0.6822
 4123SOL    HW216491   1.078   0.159   5.105 -0.1138  0.2569 -0.2395
 4123SOL     MW16492   1.003   0.137   5.065 -0.0942  0.1299 -0.2060
 4124SOL     OW16493   3.448   1.070   0.823 -0.0997 -0.5028 -0.2729
 4124SOL    HW116494   3.367   1.077   0.875  0.5154  1.1209  0.5555
 4124SOL    HW216495   3.489   0.989   0.853 -1.0646 -0.9659 -0.1696
 4124SOL     MW16496   3.443   1.061   0.834 -0.1445 -0.3542 -0.1537
 4125SOL     OW16497   0.601   2.531   5.290  0.0923 -0.3136 -0.1797
 4125SOL    HW116498   0.597   2.496   5.201  0.0916 -0.2012 -0.2237
 4125SOL    HW216499   0.607   2.626   5.278 -0.7861 -0.2287 -0.0562
 4125SOL     MW16500   0.601   2.539   5.277 -0.0202 -0.2883 -0.1696
 4126SOL     OW16501   2.847   5.013   4.304 -0.6045 -0.0560 -0.3392
 4126SOL    HW116502   2.851   5.088   4.244  0.6639  0.5054  0.3876
 4126SOL    HW216503   2.939   4.997   4.327 -1.0970  0.3137  2.1094
 4126SOL     MW16504   2.860   5.021   4.299 -0.5052  0.0632  0.0673
 4127SOL     OW16505   4.065   3.874   3.342  0.1343 -0.5471 -0.2029
 4127SOL    HW116506   4.049   3.958   3.385 -0.6969 -0.5875 -0.4016
 4127SOL    HW216507   4.067   3.894   3.249 -2.0246 -0.9716 -0.4095
 4127SOL     MW16508   4.063   3.887   3.336 -0.2485 -0.6066 -0.2548
 4128SOL     OW16509   0.288   5.351   4.912  0.1178 -0.8792  0.1646
 4128SOL    HW116510   0.337   5.283   4.867  0.1537 -0.7973  0.0815
 4128SOL    HW216511   0.329   5.433   4.885 -0.3842 -0.7773 -0.3031
 4128SOL     MW16512   0.299   5.353   4.903  0.0581 -0.8557  0.0941
 4129SOL     OW16513   4.471   4.404   4.080  0.4136  0.0835  0.6312
 4129SOL    HW116514   4.523   4.468   4.033  1.1753 -0.8374  0.1739
 4129SOL    HW216515   4.521   4.385   4.159  1.4410 -1.6745 -0.3657
 4129SOL     MW16516   4.484   4.410   4.084  0.6426 -0.2594  0.4451
 4130SOL     OW16517   3.971   5.208   1.393 -0.0591  0.1106  0.2264
 4130SOL    HW116518   4.021   5.273   1.444 -0.5218 -0.2750  1.1994
 4130SOL    HW216519   4.039   5.152   1.354  0.3231  0.7792 -0.0920
 4130SOL     MW16520   3.986   5.209   1.395 -0.0694  0.1468  0.3102
 4131SOL     OW16521   0.472   1.820   1.091 -0.1606  0.7076 -0.5194
 4131SOL    HW116522   0.457   1.884   1.161 -1.4507  0.7526 -0.8178
 4131SOL    HW216523   0.565   1.797   1.100 -0.3332  0.5598  1.3469
 4131SOL     MW16524   0.482   1.825   1.101 -0.3479  0.6945 -0.3187
 4132SOL     OW16525   0.665   4.391   3.010  0.0524  0.0796  0.3470
 4132SOL    HW116526   0.624   4.398   2.924  0.3429 -1.9105 -0.0121
 4132SOL    HW216527   0.606   4.333   3.059  1.2109 -0.9386  0.5850
 4132SOL     MW16528   0.652   4.385   3.005  0.2379 -0.3055  0.3315
 4133SOL     OW16529   5.238   2.133   4.414  0.5340 -0.3846 -0.3361
 4133SOL    HW116530   5.325   2.173   4.418  0.5085 -0.2083 -1.3815
 4133SOL    HW216531   5.191   2.173   4.488  1.0483  0.2315 -0.3299
 4133SOL     MW16532   5.243   2.143   4.424  0.5966 -0.2832 -0.4692
 4134SOL     OW16533   2.424   0.347   0.930 -0.7543  0.3884 -0.4073
 4134SOL    HW116534   2.330   0.356   0.914 -0.7234 -1.5812 -2.0258
 4134SOL    HW216535   2.433   0.261   0.971  0.3758  0.4436 -0.5090
 4134SOL     MW16536   2.413   0.337   0.934 -0.6057  0.1433 -0.6275
 4135SOL     OW16537   1.417   3.500   2.959  0.3188 -0.1571 -0.1241
 4135SOL    HW116538   1.482   3.502   2.889  0.4915  1.9531  0.0348
 4135SOL    HW216539   1.380   3.412   2.955  2.9476 -1.3350 -0.4160
 4135SOL     MW16540   1.421   3.489   2.949  0.6774 -0.0377 -0.1411
 4136SOL     OW16541   3.209   0.455   4.942 -0.2140  0.9070 -0.7148
 4136SOL    HW116542   3.122   0.494   4.936  0.1189  1.6687 -0.6831
 4136SOL    HW216543   3.264   0.525   4.977  0.1177 -0.0216  0.7157
 4136SOL     MW16544   3.205   0.469   4.946 -0.1289  0.8856 -0.5276
 4137SOL     OW16545   0.935   1.235   1.709  0.2311 -0.6714 -0.3039
 4137SOL    HW116546   0.976   1.315   1.675  2.1635 -0.6607  1.8462
 4137SOL    HW216547   0.940   1.244   1.804 -2.7748 -1.7722  0.0564
 4137SOL     MW16548   0.941   1.246   1.716  0.0936 -0.8109  0.0175
 4138SOL     OW16549   3.826   2.801   1.042 -0.0917 -0.1369 -0.4891
 4138SOL    HW116550   3.898   2.795   0.979 -0.6043  1.1180 -1.2396
 4138SOL    HW216551   3.779   2.880   1.017 -1.4171 -0.6293  0.3356
 4138SOL     MW16552   3.829   2.811   1.031 -0.3270 -0.0393 -0.4796
 4139SOL     OW16553   4.035   4.542   2.628  0.2854 -0.2208  0.6235
 4139SOL    HW116554   3.951   4.571   2.662  0.1560  2.9697 -1.9821
 4139SOL    HW216555   4.042   4.583   2.542  3.7427 -1.8574 -0.0537
 4139SOL     MW16556   4.025   4.551   2.621  0.7114 -0.0219  0.2032
 4140SOL     OW16557   5.141   1.425   2.934  1.0006 -0.2811 -0.3226
 4140SOL    HW116558   5.134   1.361   3.005 -2.0564  0.3729  0.1289
 4140SOL    HW216559   5.109   1.379   2.857 -0.3097  0.3630 -0.1939
 4140SOL     MW16560   5.136   1.411   2.933  0.4415 -0.1149 -0.2483
 4141SOL     OW16561   0.427   2.088   1.967 -0.1486  0.0878 -0.2588
 4141SOL    HW116562   0.414   2.134   2.050  1.0408  2.6939 -1.3980
 4141SOL    HW216563   0.508   2.039   1.980  0.2267  0.7676  0.0220
 4141SOL     MW16564   0.436   2.088   1.979  0.0517  0.5085 -0.3687
 4142SOL     OW16565   0.594   3.336   4.908  0.2387  0.3594 -0.0333
 4142SOL    HW116566   0.597   3.431   4.918 -2.7577  0.3568  2.3994
 4142SOL    HW216567   0.614   3.320   4.816 -3.4756  3.7638 -1.6604
 4142SOL     MW16568   0.597   3.346   4.898 -0.6203  0.7949  0.0699
 4143SOL     OW16569   0.267   0.944   1.643 -0.4848 -0.1958  0.3300
 4143SOL    HW116570   0.174   0.931   1.658 -0.6324 -0.2916 -0.6019
 4143SOL    HW216571   0.278   0.932   1.548  0.4362  0.0112  0.4011
 4143SOL     MW16572   0.257   0.941   1.633 -0.3858 -0.1816  0.2198
 4144SOL     OW16573   0.527   0.727   3.485 -0.1259 -0.4251  0.0206
 4144SOL    HW116574   0.514   0.674   3.407 -1.7615 -0.3552  0.2071
 4144SOL    HW216575   0.562   0.810   3.453 -0.0533 -0.6709 -0.5421
 4144SOL     MW16576   0.530   0.731   3.471 -0.3259 -0.4476 -0.0276
 4145SOL     OW16577   2.338   2.481   0.314 -0.4011 -0.3245  0.2411
 4145SOL    HW116578   2.272   2.548   0.328  0.7872  0.6897  1.2095
 4145SOL    HW216579   2.304   2.429   0.242 -1.5453  1.0715 -0.2751
 4145SOL     MW16580   2.325   2.483   0.307 -0.3954 -0.0160  0.2990
 4146SOL     OW16581   0.911   4.290   0.876  0.5617  0.1740  0.0374
 4146SOL    HW116582   0.837   4.268   0.819 -2.3195  1.2573  2.9937
 4146SOL    HW216583   0.940   4.375   0.845  1.6653 -0.8836 -2.0607
 4146SOL     MW16584   0.905   4.298   0.865  0.3342  0.1773  0.1472
 4147SOL     OW16585   0.178   4.602   2.258  0.3481 -0.1294 -0.1940
 4147SOL    HW116586   0.238   4.569   2.191  1.4770  2.2966 -0.5011
 4147SOL    HW216587   0.235   4.640   2.325 -0.8116  0.5069  0.4727
 4147SOL     MW16588   0.193   4.602   2.258  0.3441  0.2626 -0.1480
 4148SOL     OW16589   2.822   3.151   2.881  0.1421 -0.1468 -0.0302
 4148SOL    HW116590   2.806   3.166   2.974  2.4369 -0.8586  0.5376
 4148SOL    HW216591   2.801   3.059   2.867  3.1316 -1.0303  0.6732
 4148SOL     MW16592   2.817   3.141   2.891  0.8186 -0.3510  0.1325
 4149SOL     OW16593   2.537   0.284   1.439 -0.4180  0.6513 -0.1463
 4149SOL    HW116594   2.565   0.361   1.391 -0.5477  0.2255 -0.9092
 4149SOL    HW216595   2.532   0.214   1.374  1.6330 -0.5213  0.8359
 4149SOL     MW16596   2.540   0.285   1.425 -0.1720  0.4467 -0.1182
 4150SOL     OW16597   4.304   2.394   2.938 -0.0946  0.1296  0.3292
 4150SOL    HW116598   4.340   2.306   2.937 -0.4562 -0.0191 -0.5903
 4150SOL    HW216599   4.381   2.451   2.939  0.1891 -0.1919 -0.9279
 4150SOL     MW16600   4.318   2.390   2.938 -0.1046  0.0695  0.0506
 4151SOL     OW16601   0.435   3.720   2.736 -0.0409  0.7924  0.2943
 4151SOL    HW116602   0.519   3.676   2.730 -0.6654 -0.2720 -1.3997
 4151SOL    HW216603   0.371   3.649   2.745 -0.7786  1.5893  1.8859
 4151SOL     MW16604   0.437   3.705   2.737 -0.2153  0.7581  0.2812
 4152SOL     OW16605   5.268   5.372   2.084 -0.0384  0.6978 -0.3745
 4152SOL    HW116606   5.246   5.459   2.051  1.5053  0.5934 -1.8212
 4152SOL    HW216607   5.311   5.388   2.167 -1.3487  1.1786  0.2333
 4152SOL     MW16608   5.271   5.385   2.090 -0.0085  0.7460 -0.4819
 4153SOL     OW16609   2.702   3.471   4.515 -0.4915 -0.0747 -0.8104
 4153SOL    HW116610   2.645   3.542   4.544  1.5182  1.0653  0.6025
 4153SOL    HW216611   2.661   3.391   4.551  0.5933  1.0354  3.4092
 4153SOL     MW16612   2.689   3.470   4.524 -0.0954  0.2133 -0.0894
 4154SOL     OW16613   4.237   1.923   4.077 -0.3813  0.0272  0.2412
 4154SOL    HW116614   4.326   1.888   4.065 -0.3112 -0.1489  1.1935
 4154SOL    HW216615   4.247   1.991   4.144 -1.2363 -1.2085  1.6824
 4154SOL     MW16616   4.250   1.927   4.084 -0.4818 -0.1535  0.5476
 4155SOL     OW16617   3.360   2.613   2.124 -0.1795 -0.3859  0.2559
 4155SOL    HW116618   3.319   2.670   2.059 -0.1380 -0.1650  0.4229
 4155SOL    HW216619   3.387   2.536   2.074 -0.7205 -0.4945  0.1262
 4155SOL     MW16620   3.358   2.611   2.109 -0.2434 -0.3715  0.2607
 4156SOL     OW16621   1.892   1.999   3.041  0.1304 -0.1610 -0.1883
 4156SOL    HW116622   1.932   1.917   3.071  0.2727 -0.5485 -1.3614
 4156SOL    HW216623   1.935   2.067   3.091  0.8641 -0.7277 -0.0285
 4156SOL     MW16624   1.903   1.997   3.051  0.2425 -0.2831 -0.3180
 4157SOL     OW16625   2.962   1.499   0.963 -0.2805 -0.7942  0.1046
 4157SOL    HW116626   3.056   1.486   0.974 -0.1762 -0.2284 -0.0838
 4157SOL    HW216627   2.942   1.455   0.880  0.4398  1.7948 -1.5788
 4157SOL     MW16628   2.971   1.492   0.954 -0.1749 -0.3903 -0.1350
 4158SOL     OW16629   1.257   0.856   2.738  0.0325 -0.1744 -0.4127
 4158SOL    HW116630   1.320   0.798   2.780 -0.1912 -0.7826 -0.9079
 4158SOL    HW216631   1.185   0.798   2.711  0.3504  0.1194 -2.0086
 4158SOL     MW16632   1.256   0.841   2.740  0.0445 -0.2146 -0.6804
 4159SOL     OW16633   4.906   5.398   2.013 -0.0576 -0.0305 -0.0529
 4159SOL    HW116634   4.821   5.367   2.044 -0.2170 -0.0627 -0.5075
 4159SOL    HW216635   4.969   5.334   2.047 -0.2414 -0.1343  0.0931
 4159SOL     MW16636   4.903   5.385   2.021 -0.1015 -0.0479 -0.0924
 4160SOL     OW16637   2.673   4.294   3.356  0.0157  0.2349  0.2697
 4160SOL    HW116638   2.759   4.254   3.372 -0.3863 -1.4103 -1.4018
 4160SOL    HW216639   2.667   4.363   3.421  2.7539  0.6190  0.2324
 4160SOL     MW16640   2.683   4.298   3.366  0.3147  0.0735  0.0510
 4161SOL     OW16641   4.578   2.482   2.963 -0.0114  0.0878  0.1427
 4161SOL    HW116642   4.562   2.575   2.977 -0.6147  0.0021  0.0256
 4161SOL    HW216643   4.617   2.452   3.045 -1.5366  0.0496  0.8718
 4161SOL     MW16644   4.581   2.490   2.975 -0.2839  0.0719  0.2210
 4162SOL     OW16645   2.355   1.171   4.983 -0.1660 -0.0584 -0.1453
 4162SOL    HW116646   2.379   1.162   5.075 -1.4558  1.7211  0.4246
 4162SOL    HW216647   2.374   1.086   4.944 -1.4543 -1.5139  2.1972
 4162SOL     MW16648   2.361   1.159   4.989 -0.4960 -0.0169  0.2275
 4163SOL     OW16649   3.822   2.265   2.457 -0.6778 -0.3499  0.1281
 4163SOL    HW116650   3.883   2.327   2.418 -0.7472 -0.5590 -0.3143
 4163SOL    HW216651   3.830   2.280   2.552 -0.1768 -0.1580  0.0569
 4163SOL     MW16652   3.831   2.275   2.464 -0.6226 -0.3521  0.0624
 4164SOL     OW16653   3.079   2.425   3.982 -0.1568  0.1005 -0.4678
 4164SOL    HW116654   2.987   2.422   4.010 -0.5887 -2.6306 -1.7869
 4164SOL    HW216655   3.103   2.333   3.968  3.8117  0.3739  2.7878
 4164SOL     MW16656   3.070   2.413   3.984  0.2959 -0.2141 -0.2199
 4165SOL     OW16657   5.066   3.176   1.524 -0.2201 -0.2356  0.6398
 4165SOL    HW116658   5.024   3.258   1.548 -2.7598 -0.7928 -1.3935
 4165SOL    HW216659   5.045   3.116   1.596 -0.1876  0.3273  1.1226
 4165SOL     MW16660   5.058   3.179   1.536 -0.5410 -0.2349  0.4413
 4166SOL     OW16661   4.745   0.793   3.204  0.2046  0.5091 -0.2349
 4166SOL    HW116662   4.672   0.731   3.206  0.3511  0.3419  0.0059
 4166SOL    HW216663   4.705   0.878   3.220 -0.0363  0.5184 -0.8535
 4166SOL     MW16664   4.731   0.796   3.206  0.1925  0.4889 -0.2832
 4167SOL     OW16665   0.799   1.240   4.043 -0.3357  0.8481  0.1909
 4167SOL    HW116666   0.766   1.268   3.958  0.8167  0.5804 -0.3732
 4167SOL    HW216667   0.832   1.151   4.029 -0.8210  0.5056  1.1088
 4167SOL     MW16668   0.799   1.232   4.031 -0.2503  0.7700  0.2362
 4168SOL     OW16669   5.323   1.760   1.764  0.5240 -0.1008  0.3250
 4168SOL    HW116670   5.385   1.831   1.781 -0.6716  1.0515 -0.0500
 4168SOL    HW216671   5.275   1.788   1.687  0.5695 -1.7052 -0.3230
 4168SOL     MW16672   5.325   1.772   1.757  0.3768 -0.1587  0.1940
 4169SOL     OW16673   1.784   2.481   2.780 -0.6258  0.6753 -0.2201
 4169SOL    HW116674   1.786   2.510   2.689 -2.1340  2.0641  0.1370
 4169SOL    HW216675   1.758   2.558   2.829 -0.0204 -0.0999  1.3842
 4169SOL     MW16676   1.781   2.494   2.774 -0.7414  0.7538  0.0310
 4170SOL     OW16677   0.678   3.598   1.884 -0.3804  0.2237  0.2554
 4170SOL    HW116678   0.644   3.626   1.799  1.4263  1.0450 -0.2461
 4170SOL    HW216679   0.638   3.512   1.899 -1.2012  0.3420 -1.1395
 4170SOL     MW16680   0.669   3.591   1.875 -0.2542  0.3440  0.0127
 4171SOL     OW16681   4.268   1.965   0.510  0.0076  0.2594  0.1656
 4171SOL    HW116682   4.331   1.919   0.564  2.3234  2.4855 -0.4738
 4171SOL    HW216683   4.227   2.029   0.568  0.3292  0.6470 -0.0302
 4171SOL     MW16684   4.271   1.967   0.524  0.3452  0.5940  0.0587
 4172SOL     OW16685   4.543   0.184   0.166  0.1296 -0.0141 -0.1817
 4172SOL    HW116686   4.566   0.267   0.123  0.7179 -1.1474 -2.1647
 4172SOL    HW216687   4.587   0.117   0.114  0.0754 -1.5737  1.6732
 4172SOL     MW16688   4.552   0.186   0.154  0.1980 -0.3588 -0.1981
 4173SOL     OW16689   1.400   1.971   2.050 -0.0941 -0.3539  0.2665
 4173SOL    HW116690   1.332   1.913   2.014  0.6466 -0.7570 -0.5249
 4173SOL    HW216691   1.481   1.943   2.006  0.3400  1.0636  0.1275
 4173SOL     MW16692   1.402   1.960   2.040  0.0563 -0.2241  0.1474
 4174SOL     OW16693   4.206   0.033   4.280 -0.5277 -0.0455 -0.3445
 4174SOL    HW116694   4.151   0.043   4.357 -1.4532 -0.3385 -0.9508
 4174SOL    HW216695   4.174   0.099   4.218  0.1580  0.1410 -0.5092
 4174SOL     MW16696   4.195   0.042   4.282 -0.5584 -0.0592 -0.4432
 4175SOL     OW16697   1.284   5.074   5.069  0.2791  0.0706 -0.4898
 4175SOL    HW116698   1.235   5.118   4.999  2.1104  0.3262 -1.6940
 4175SOL    HW216699   1.259   4.982   5.062 -0.4349  0.2770 -0.7111
 4175SOL     MW16700   1.274   5.068   5.059  0.4221  0.1298 -0.6723
 4176SOL     OW16701   3.430   2.526   2.422 -0.3688  0.3609 -0.1034
 4176SOL    HW116702   3.407   2.564   2.337 -2.6334  0.0562  0.2878
 4176SOL    HW216703   3.364   2.562   2.482  0.8863  0.1914  1.4326
 4176SOL     MW16704   3.418   2.536   2.419 -0.4981  0.3002  0.1433
 4177SOL     OW16705   2.242   1.431   4.994 -0.1128  0.2016  0.6576
 4177SOL    HW116706   2.292   1.351   5.008  2.0396  1.3216 -0.1118
 4177SOL    HW216707   2.286   1.474   4.920 -2.0361  1.4445  0.1684
 4177SOL     MW16708   2.254   1.426   4.986 -0.0834  0.5041  0.4965
 4178SOL     OW16709   2.896   4.247   4.753  0.0714 -0.0334  0.0828
 4178SOL    HW116710   2.871   4.195   4.829 -0.0316 -1.1478 -0.6830
 4178SOL    HW216711   2.961   4.309   4.786  0.6099 -1.0158  0.9207
 4178SOL     MW16712   2.901   4.249   4.767  0.1271 -0.3018  0.0920
 4179SOL     OW16713   0.312   3.589   4.954 -0.2461  0.5021  0.2941
 4179SOL    HW116714   0.284   3.537   5.029  1.5454  0.4330  0.9665
 4179SOL    HW216715   0.266   3.551   4.880  0.3690 -1.4997  0.8956
 4179SOL     MW16716   0.302   3.578   4.954  0.0620  0.2370  0.4572
 4180SOL     OW16717   4.154   1.436   2.056 -0.8392  0.2264  0.1908
 4180SOL    HW116718   4.207   1.378   2.111  0.2859  0.9622 -0.0691
 4180SOL    HW216719   4.174   1.409   1.967 -2.2833 -0.6410  0.1113
 4180SOL     MW16720   4.164   1.425   2.052 -0.8801  0.2096  0.1474
 4181SOL     OW16721   5.317   0.717   1.136 -0.0359  0.1561  0.1711
 4181SOL    HW116722   5.269   0.698   1.216 -1.7406 -0.5019 -0.9621
 4181SOL    HW216723   5.306   0.639   1.082  0.2454  0.9617 -1.0977
 4181SOL     MW16724   5.310   0.705   1.139 -0.2181  0.1750 -0.1364
 4182SOL     OW16725   0.327   1.137   1.138  0.0514 -0.4468  0.1596
 4182SOL    HW116726   0.286   1.121   1.053 -0.4291 -1.0124  0.4951
 4182SOL    HW216727   0.421   1.124   1.122  0.3077  2.0705 -0.9124
 4182SOL     MW16728   0.334   1.134   1.125  0.0227 -0.1970  0.0653
 4183SOL     OW16729   2.903   1.808  -0.011  0.0216  0.5868  0.2251
 4183SOL    HW116730   2.925   1.764   0.072  2.4041 -0.7280 -1.0108
 4183SOL    HW216731   2.932   1.898   0.001  0.0388  0.4921  0.9438
 4183SOL     MW16732   2.910   1.814   0.001  0.3288  0.4064  0.1589
 4184SOL     OW16733   4.998   0.837   0.789 -0.4331 -0.2313 -0.2081
 4184SOL    HW116734   4.957   0.815   0.872  0.7125 -0.8158  0.2336
 4184SOL    HW216735   4.991   0.756   0.737  3.7454 -1.9101  1.3999
 4184SOL     MW16736   4.992   0.823   0.793  0.2485 -0.5210  0.0543
 4185SOL     OW16737   3.326   1.810   4.273  0.1160  0.0298 -0.0506
 4185SOL    HW116738   3.412   1.772   4.253  0.3275  0.9193 -0.9402
 4185SOL    HW216739   3.263   1.743   4.247  0.5082 -0.1013 -0.6785
 4185SOL     MW16740   3.329   1.797   4.267  0.1933  0.1269 -0.2449
 4186SOL     OW16741   0.780   4.075   1.861 -0.2445  0.1791  0.3751
 4186SOL    HW116742   0.858   4.130   1.871  0.5248 -1.0257  1.2619
 4186SOL    HW216743   0.780   4.049   1.769  0.6751 -0.1935  0.4771
 4186SOL     MW16744   0.790   4.079   1.850 -0.0283 -0.0228  0.5017
 4187SOL     OW16745   2.338   3.364   1.791 -0.4703 -0.2323  0.6389
 4187SOL    HW116746   2.296   3.377   1.706  1.5033 -1.5922 -0.6367
 4187SOL    HW216747   2.271   3.388   1.855 -2.1485  0.4750 -1.2765
 4187SOL     MW16748   2.324   3.369   1.788 -0.4325 -0.3158  0.2304
 4188SOL     OW16749   2.197   0.928   1.466 -0.3424 -0.4146 -0.2536
 4188SOL    HW116750   2.114   0.954   1.425  0.5126  0.6607 -1.3736
 4188SOL    HW216751   2.220   1.002   1.523  0.4634 -0.1493 -0.9115
 4188SOL     MW16752   2.189   0.941   1.468 -0.1298 -0.2430 -0.4812
 4189SOL     OW16753   3.116   0.764   0.621  0.4049 -0.2099 -0.0917
 4189SOL    HW116754   3.195   0.812   0.596  0.3176 -0.8127 -1.6856
 4189SOL    HW216755   3.101   0.704   0.548  0.2520 -2.3672  1.6321
 4189SOL     MW16756   3.124   0.763   0.608  0.3741 -0.5632 -0.0751
 4190SOL     OW16757   3.936   3.562   0.171  0.5430  0.3875  0.3520
 4190SOL    HW116758   3.871   3.492   0.161  0.8419  0.0530  0.6988
 4190SOL    HW216759   3.948   3.569   0.265 -0.8209  2.1672  0.4532
 4190SOL     MW16760   3.929   3.554   0.182  0.4067  0.5725  0.4094
 4191SOL     OW16761   5.342   2.766   2.975  0.0095  0.2631  0.3249
 4191SOL    HW116762   5.298   2.825   3.037  0.2602  0.4920  0.2871
 4191SOL    HW216763   5.324   2.804   2.889 -1.3347 -0.7054  0.1517
 4191SOL     MW16764   5.334   2.778   2.972 -0.1305  0.1684  0.2979
 4192SOL     OW16765   5.426   3.549   5.055  0.5674  0.0125 -0.3178
 4192SOL    HW116766   5.510   3.511   5.082  0.2655  0.7326  1.8724
 4192SOL    HW216767   5.449   3.609   4.984  1.5767 -1.2910 -1.1513
 4192SOL     MW16768   5.440   3.552   5.050  0.6580 -0.0622 -0.1442
 4193SOL     OW16769   4.327   3.787   1.402 -0.1250  0.4938  0.1154
 4193SOL    HW116770   4.293   3.854   1.462 -0.9446 -0.5161  0.8254
 4193SOL    HW216771   4.390   3.738   1.455 -0.2990  0.0614 -0.0711
 4193SOL     MW16772   4.331   3.789   1.417 -0.2522  0.3092  0.1824
 4194SOL     OW16773   4.567   2.737   2.466  0.4726 -0.0992  0.2112
 4194SOL    HW116774   4.589   2.829   2.449 -0.9628  0.3731  0.7532
 4194SOL    HW216775   4.641   2.688   2.430  0.0244  1.1073 -2.7116
 4194SOL     MW16776   4.579   2.743   2.459  0.2315  0.1157 -0.0936
 4195SOL     OW16777   1.509   0.429   5.258 -0.1646  0.5223 -0.0308
 4195SOL    HW116778   1.434   0.482   5.282  0.9177  2.3602 -0.5006
 4195SOL    HW216779   1.525   0.450   5.165  0.5223 -0.3408 -0.1274
 4195SOL     MW16780   1.502   0.438   5.249  0.0619  0.6471 -0.1033
 4196SOL     OW16781   1.059   4.532   3.833 -0.3388  0.1896  0.0167
 4196SOL    HW116782   1.078   4.520   3.926  1.2115 -2.0540 -0.5081
 4196SOL    HW216783   1.113   4.606   3.807  2.1595 -1.4311  0.2030
 4196SOL     MW16784   1.068   4.540   3.842  0.1795 -0.3051 -0.0266
 4197SOL     OW16785   4.648   3.589   3.311 -0.0616  0.1822 -0.0001
 4197SOL    HW116786   4.691   3.650   3.370 -1.8823 -0.3340  2.0164
 4197SOL    HW216787   4.591   3.644   3.257 -1.4629  0.3821  1.5977
 4197SOL     MW16788   4.646   3.604   3.311 -0.4740  0.1417  0.4625
 4198SOL     OW16789   5.443   2.586   4.791 -0.1126 -0.3342 -0.2552
 4198SOL    HW116790   5.416   2.640   4.717  2.8878  0.6884 -0.7677
 4198SOL    HW216791   5.429   2.642   4.868  0.5477  0.2166 -0.5187
 4198SOL     MW16792   5.438   2.600   4.792  0.3560 -0.1328 -0.3545
 4199SOL     OW16793   5.402   2.747   4.593 -0.2824  0.8573  0.0600
 4199SOL    HW116794   5.490   2.733   4.557 -0.3230 -0.9420  0.5568
 4199SOL    HW216795   5.410   2.829   4.642  0.8679  1.1995 -0.6463
 4199SOL     MW16796   5.414   2.755   4.595 -0.1403  0.6708  0.0332
 4200SOL     OW16797   1.796   1.089   3.937 -0.5175  0.0452  0.2988
 4200SOL    HW116798   1.742   1.016   3.967 -0.6055 -1.0727 -2.3452
 4200SOL    HW216799   1.744   1.131   3.868  1.4852 -0.4488 -1.6296
 4200SOL     MW16800   1.783   1.085   3.932 -0.2724 -0.1612 -0.2866
 4201SOL     OW16801   2.463   3.124   1.768 -0.0794  0.3657 -0.1587
 4201SOL    HW116802   2.529   3.156   1.828 -0.8515  0.0046  0.9042
 4201SOL    HW216803   2.416   3.203   1.741  0.0501  0.4900 -0.0223
 4201SOL     MW16804   2.465   3.138   1.772 -0.1616  0.3354 -0.0051
 4202SOL     OW16805   1.458   1.261   2.006 -0.0605 -0.1744  0.3283
 4202SOL    HW116806   1.494   1.278   2.093 -0.2758  0.5799  0.2745
 4202SOL    HW216807   1.465   1.345   1.960 -0.8674 -0.3075 -0.0504
 4202SOL     MW16808   1.464   1.274   2.011 -0.1914 -0.0949  0.2729
 4203SOL     OW16809   0.829   0.093   5.273  0.7166  0.2388 -0.3305
 4203SOL    HW116810   0.854   0.002   5.259 -0.8374 -0.0441 -1.4540
 4203SOL    HW216811   0.879   0.142   5.208  2.1213  0.3095  0.7646
 4203SOL     MW16812   0.839   0.088   5.263  0.6975  0.2116 -0.3342
 4204SOL     OW16813   4.484   4.578   0.142 -0.3054  0.0778 -0.4861
 4204SOL    HW116814   4.407   4.530   0.170  0.3459 -0.8834 -0.2686
 4204SOL    HW216815   4.456   4.628   0.065 -0.6843 -1.7617 -1.6071
 4204SOL     MW16816   4.471   4.578   0.136 -0.2705 -0.2807 -0.6018
 4205SOL     OW16817   2.341   2.779   1.813 -0.2327  0.1740  0.3681
 4205SOL    HW116818   2.304   2.805   1.729 -2.4410 -2.8242  0.2463
 4205SOL    HW216819   2.282   2.815   1.879 -0.9812 -1.0264  0.3804
 4205SOL     MW16820   2.329   2.787   1.811 -0.6112 -0.3635  0.3541
 4206SOL     OW16821   4.155   4.360   0.480  0.2318  0.2309  0.1945
 4206SOL    HW116822   4.191   4.438   0.523 -0.3818  1.1547 -0.9206
 4206SOL    HW216823   4.209   4.348   0.402 -0.5178  0.3704 -0.3613
 4206SOL     MW16824   4.166   4.368   0.476  0.0573  0.3670 -0.0194
 4207SOL     OW16825   0.678   3.163   2.559  0.3217  0.1424 -0.2419
 4207SOL    HW116826   0.662   3.149   2.465  1.1486  2.0815 -0.7260
 4207SOL    HW216827   0.604   3.217   2.588  0.0827 -0.4313  0.2318
 4207SOL     MW16828   0.667   3.168   2.550  0.3969  0.3172 -0.2432
 4208SOL     OW16829   4.081   5.020   1.640  0.0128  0.0290 -0.4667
 4208SOL    HW116830   4.120   5.108   1.640  0.1882 -0.0027 -2.2423
 4208SOL    HW216831   4.155   4.961   1.628  0.0229 -0.4860  1.7808
 4208SOL     MW16832   4.096   5.024   1.638  0.0366 -0.0410 -0.4063
 4209SOL     OW16833   2.627   0.557   1.765  0.3506  0.4095  0.0177
 4209SOL    HW116834   2.567   0.547   1.691  0.8491 -0.3483 -0.2934
 4209SOL    HW216835   2.660   0.647   1.757  0.2871  0.3809 -0.5946
 4209SOL     MW16836   2.624   0.567   1.755  0.4063  0.3088 -0.1005
 4210SOL     OW16837   3.750   1.562   0.726  0.1843 -0.0507 -0.2211
 4210SOL    HW116838   3.707   1.625   0.669 -1.3344  0.9303  1.8441
 4210SOL    HW216839   3.756   1.482   0.674 -0.2959  1.0259 -2.0157
 4210SOL     MW16840   3.745   1.560   0.712 -0.0716  0.2127 -0.1864
 4211SOL     OW16841   1.889   3.229   0.498 -0.1792 -0.2681  0.2181
 4211SOL    HW116842   1.973   3.217   0.452  0.3708  1.3218  0.7435
 4211SOL    HW216843   1.845   3.144   0.489  2.0590 -1.6298  1.1106
 4211SOL     MW16844   1.894   3.216   0.491  0.1777 -0.2389  0.3996
 4212SOL     OW16845   3.740   3.921   4.233 -0.1068  0.0725  0.1260
 4212SOL    HW116846   3.688   3.977   4.291 -0.5033 -0.4226  0.2545
 4212SOL    HW216847   3.680   3.852   4.206  0.2216  0.0084 -0.4731
 4212SOL     MW16848   3.725   3.920   4.237 -0.1155  0.0009  0.0658
 4213SOL     OW16849   0.289   2.689   0.143 -0.4097 -0.5953 -0.1244
 4213SOL    HW116850   0.244   2.772   0.157  0.8818  0.0422  0.3553
 4213SOL    HW216851   0.281   2.643   0.226 -1.0472 -0.9237 -0.3619
 4213SOL     MW16852   0.282   2.694   0.155 -0.3260 -0.5557 -0.0934
 4214SOL     OW16853   2.179   2.806   0.771 -0.2347  0.2589  0.1159
 4214SOL    HW116854   2.084   2.791   0.779 -0.0792 -0.9261 -0.0684
 4214SOL    HW216855   2.191   2.896   0.798 -1.5208  0.6608 -0.5287
 4214SOL     MW16856   2.168   2.815   0.775 -0.3794  0.1586  0.0098
 4215SOL     OW16857   4.804   0.583   1.956 -0.5124  0.3632 -0.5138
 4215SOL    HW116858   4.878   0.533   1.992 -0.6411  0.0668 -0.6638
 4215SOL    HW216859   4.730   0.560   2.012 -0.4778  0.7065 -0.3276
 4215SOL     MW16860   4.804   0.574   1.968 -0.5244  0.3692 -0.5091
 4216SOL     OW16861   2.253   4.314   1.054 -0.3514  0.2847 -0.3129
 4216SOL    HW116862   2.198   4.244   1.018  0.0157  0.1661 -0.6557
 4216SOL    HW216863   2.261   4.294   1.147  0.9666 -0.9878 -0.6531
 4216SOL     MW16864   2.247   4.302   1.061 -0.1357  0.1066 -0.4003
 4217SOL     OW16865   2.043   0.221   5.166  0.5665 -0.4077 -0.4568
 4217SOL    HW116866   2.012   0.260   5.248  0.8355  1.0405 -1.0295
 4217SOL    HW216867   1.976   0.155   5.146 -1.0680  1.1924 -0.5518
 4217SOL     MW16868   2.030   0.217   5.174  0.3917 -0.0175 -0.5423
 4218SOL     OW16869   1.884   3.323   0.744  0.3868  0.4871  0.1152
 4218SOL    HW116870   1.885   3.299   0.651 -0.8901 -0.5665  0.3366
 4218SOL    HW216871   1.973   3.351   0.762  0.6933  0.5869 -1.3999
 4218SOL     MW16872   1.895   3.323   0.734  0.2626  0.3650 -0.0504
 4219SOL     OW16873   4.578   1.463   4.783 -0.0746 -0.0348 -0.6502
 4219SOL    HW116874   4.646   1.398   4.765  0.3531  0.1853  0.1020
 4219SOL    HW216875   4.594   1.534   4.722  0.0029 -0.2483 -0.8773
 4219SOL     MW16876   4.589   1.463   4.773 -0.0099 -0.0339 -0.5830
 4220SOL     OW16877   3.583   4.240   3.922  0.4244 -0.2653  0.0131
 4220SOL    HW116878   3.502   4.193   3.901  0.1737 -0.1370  0.6857
 4220SOL    HW216879   3.644   4.172   3.951  1.1131 -0.5938 -2.0156
 4220SOL     MW16880   3.581   4.225   3.923  0.4805 -0.2909 -0.1605
 4221SOL     OW16881   3.657   3.639   1.719 -0.1017  0.4146 -0.3889
 4221SOL    HW116882   3.570   3.670   1.694 -0.1925  0.1563 -0.3959
 4221SOL    HW216883   3.708   3.642   1.638  0.3053  1.9261 -0.0966
 4221SOL     MW16884   3.652   3.643   1.706 -0.0612  0.5750 -0.3524
 4222SOL     OW16885   2.436   1.858   0.535 -0.7139  0.4963  0.0357
 4222SOL    HW116886   2.396   1.890   0.615  0.4350 -0.0013  0.8451
 4222SOL    HW216887   2.479   1.935   0.497 -1.8055  0.8762 -0.4750
 4222SOL     MW16888   2.437   1.872   0.540 -0.7065  0.4812  0.0740
 4223SOL     OW16889   5.157   1.633   1.315 -0.3719 -0.4756 -0.1498
 4223SOL    HW116890   5.131   1.552   1.359 -0.4285 -1.2221 -1.4847
 4223SOL    HW216891   5.076   1.666   1.277 -0.4549  0.5376  0.8646
 4223SOL     MW16892   5.143   1.627   1.316 -0.3898 -0.4414 -0.1909
 4224SOL     OW16893   3.564   3.223   5.468 -0.0430  0.0605 -0.0355
 4224SOL    HW116894   3.617   3.264   5.400 -0.0346 -0.1175 -0.1347
 4224SOL    HW216895   3.478   3.213   5.429 -0.0174 -0.1148 -0.0477
 4224SOL     MW16896   3.560   3.227   5.455 -0.0387  0.0153 -0.0498
 4225SOL     OW16897   1.840   1.348   2.759 -0.0081  0.0165 -0.1086
 4225SOL    HW116898   1.908   1.383   2.701 -1.1115  0.6382 -1.0561
 4225SOL    HW216899   1.758   1.377   2.720 -0.8806 -1.6378  0.4159
 4225SOL     MW16900   1.839   1.356   2.747 -0.2610 -0.1157 -0.1627
 4226SOL     OW16901   5.014   1.107   0.789  0.0902  0.3182 -0.1766
 4226SOL    HW116902   4.923   1.137   0.794 -0.4703 -0.8546  6.2050
 4226SOL    HW216903   5.007   1.013   0.773  0.3817  0.4858 -1.3582
 4226SOL     MW16904   5.001   1.099   0.788  0.0558  0.1895  0.4891
 4227SOL     OW16905   0.710   4.147   5.252 -0.1754 -0.1238 -0.2747
 4227SOL    HW116906   0.673   4.064   5.223  0.8836 -1.7173  2.5953
 4227SOL    HW216907   0.791   4.156   5.202  1.0909 -2.2641  1.2351
 4227SOL     MW16908   0.716   4.138   5.242  0.1223 -0.6018  0.2860
 4228SOL     OW16909   4.635   4.914   5.317  0.3160  0.5405  0.3432
 4228SOL    HW116910   4.717   4.866   5.310 -1.1218 -1.9944 -0.4817
 4228SOL    HW216911   4.604   4.922   5.227 -1.2780 -0.3902  0.7625
 4228SOL     MW16912   4.641   4.909   5.305 -0.0721  0.0969  0.2913
 4229SOL     OW16913   4.930   2.719   4.120  0.3713  0.4165  0.3777
 4229SOL    HW116914   4.947   2.645   4.062  0.2884  0.6846  0.0114
 4229SOL    HW216915   4.926   2.795   4.062 -1.7135  0.4379  0.4728
 4229SOL     MW16916   4.932   2.719   4.105  0.0938  0.4536  0.3430
 4230SOL     OW16917   4.220   2.515   4.197  0.0024  0.5853 -0.4471
 4230SOL    HW116918   4.136   2.560   4.209  0.2138  0.3851  2.5998
 4230SOL    HW216919   4.285   2.578   4.228  0.6501 -0.4507  0.3543
 4230SOL     MW16920   4.218   2.529   4.202  0.1124  0.4270  0.0456
 4231SOL     OW16921   3.221   5.196   3.481  0.2581 -0.0947 -0.4033
 4231SOL    HW116922   3.169   5.157   3.551  0.0450  0.7678 -0.0748
 4231SOL    HW216923   3.232   5.125   3.417 -1.4132 -0.2650 -0.5455
 4231SOL     MW16924   3.216   5.182   3.482  0.0168 -0.0061 -0.3794
 4232SOL     OW16925   5.252   1.158   1.044 -0.1036 -0.6493 -0.0025
 4232SOL    HW116926   5.213   1.209   0.973 -1.3721 -0.0553  1.0856
 4232SOL    HW216927   5.271   1.073   1.005 -0.6043 -0.2793 -1.0932
 4232SOL     MW16928   5.250   1.154   1.030 -0.3301 -0.5259 -0.0028
 4233SOL     OW16929   2.859   3.186   0.902 -0.3180 -0.1789 -0.1218
 4233SOL    HW116930   2.893   3.098   0.919 -2.8948 -0.8353  2.4662
 4233SOL    HW216931   2.827   3.183   0.812  2.4907 -0.7672 -1.2053
 4233SOL     MW16932   2.859   3.175   0.893 -0.2883 -0.3382  0.0708
 4234SOL     OW16933   0.385   3.745   2.996 -0.1786  0.5575 -0.1696
 4234SOL    HW116934   0.400   3.724   2.904  0.4454 -1.2185  0.2970
 4234SOL    HW216935   0.449   3.814   3.016 -1.3333  2.0528 -1.4106
 4234SOL     MW16936   0.395   3.751   2.987 -0.2466  0.5215 -0.2687
 4235SOL     OW16937   5.160   1.947   3.898 -0.2434  0.2069  0.5225
 4235SOL    HW116938   5.134   1.900   3.819 -1.3034  1.3876  0.1318
 4235SOL    HW216939   5.080   1.953   3.950  0.6791 -1.5706  2.2837
 4235SOL     MW16940   5.146   1.942   3.895 -0.2610  0.1305  0.6980
 4236SOL     OW16941   1.271   5.085   1.486  0.3481 -0.1539  0.3410
 4236SOL    HW116942   1.327   5.037   1.425 -0.7300  1.0567 -1.7115
 4236SOL    HW216943   1.331   5.116   1.553  1.7469 -0.8032 -0.5555
 4236SOL     MW16944   1.286   5.083   1.487  0.3892 -0.0820 -0.0365
 4237SOL     OW16945   0.107   4.739   2.961 -0.2665  0.2027  0.0472
 4237SOL    HW116946   0.123   4.827   2.925  1.1977  0.4770  1.2675
 4237SOL    HW216947   0.193   4.696   2.959 -0.9134 -1.1172 -0.2773
 4237SOL     MW16948   0.120   4.745   2.956 -0.1619  0.0688  0.1619
 4238SOL     OW16949   2.869   5.083   3.287 -0.3652  0.0256  0.4642
 4238SOL    HW116950   2.857   5.094   3.381  1.7812 -1.1505  0.9211
 4238SOL    HW216951   2.938   5.146   3.264 -0.8028  0.2385 -0.3340
 4238SOL     MW16952   2.876   5.093   3.296 -0.1465 -0.0977  0.4205
 4239SOL     OW16953   2.973   5.052   2.303  0.4778  0.0336  0.0625
 4239SOL    HW116954   2.887   5.015   2.284  1.4749 -2.2014 -0.4394
 4239SOL    HW216955   2.957   5.146   2.311 -2.2285 -0.4141  1.3296
 4239SOL     MW16956   2.960   5.059   2.302  0.2590 -0.3098  0.1605
 4240SOL     OW16957   4.960   3.397   2.362  0.2640  0.2998  0.3166
 4240SOL    HW116958   5.026   3.467   2.367  0.7469  0.0142 -1.3670
 4240SOL    HW216959   4.877   3.444   2.367  0.5689  1.1110 -1.4394
 4240SOL     MW16960   4.958   3.412   2.363  0.3648  0.3671 -0.1237
 4241SOL     OW16961   0.333   4.248   1.996  0.8179 -0.3566  0.4500
 4241SOL    HW116962   0.399   4.269   2.063  0.0036  4.4459  0.1436
 4241SOL    HW216963   0.250   4.266   2.039  0.2183  1.5687 -1.3418
 4241SOL     MW16964   0.331   4.253   2.010  0.6369  0.5046  0.1814
 4242SOL     OW16965   2.042   1.482   4.066 -0.0790 -0.1088  0.2396
 4242SOL    HW116966   2.042   1.387   4.069 -1.4763 -0.1395 -0.0131
 4242SOL    HW216967   2.073   1.509   4.152 -0.4756 -0.7925  0.6021
 4242SOL     MW16968   2.046   1.474   4.077 -0.3087 -0.2003  0.2536
 4243SOL     OW16969   1.986   4.537   2.203  0.2155 -0.0432 -0.8920
 4243SOL    HW116970   2.074   4.554   2.237 -0.1382  0.5303 -0.2091
 4243SOL    HW216971   1.990   4.449   2.166  0.4573 -1.0327  1.3373
 4243SOL     MW16972   1.998   4.528   2.203  0.2012 -0.0965 -0.5192
 4244SOL     OW16973   2.043   0.785   2.860 -0.5810  0.5256  0.2173
 4244SOL    HW116974   2.005   0.812   2.943  1.3093  0.4645  1.1616
 4244SOL    HW216975   2.082   0.865   2.824 -0.1601  0.2662  0.0898
 4244SOL     MW16976   2.043   0.799   2.866 -0.2852  0.4846  0.3219
 4245SOL     OW16977   1.415   0.594   2.621  0.6469  0.1765 -0.2485
 4245SOL    HW116978   1.438   0.647   2.697 -1.8604 -2.2871  2.4550
 4245SOL    HW216979   1.480   0.523   2.620  0.7120  0.2387 -0.4413
 4245SOL     MW16980   1.426   0.592   2.631  0.3342 -0.1309  0.0729
 4246SOL     OW16981   0.800   4.319   0.215  0.4488  0.0814  0.3830
 4246SOL    HW116982   0.715   4.360   0.197  2.2095  3.8256 -0.4784
 4246SOL    HW216983   0.799   4.299   0.308 -1.2117  0.4724  0.4719
 4246SOL     MW16984   0.789   4.321   0.224  0.4616  0.6108  0.2841
 4247SOL     OW16985   1.048   2.091   4.941 -0.1597  0.2584 -0.2865
 4247SOL    HW116986   1.087   2.142   5.012 -1.2077 -0.2040  0.6594
 4247SOL    HW216987   1.028   2.006   4.981  0.5649 -0.5328 -1.5380
 4247SOL     MW16988   1.051   2.087   4.955 -0.2011  0.0979 -0.3256
 4248SOL     OW16989   0.651   0.096   0.747 -0.3478  0.4654 -0.1394
 4248SOL    HW116990   0.612   0.021   0.701 -2.4989  0.5223  1.4354
 4248SOL    HW216991   0.601   0.171   0.715  0.4115  0.9627 -0.1725
 4248SOL     MW16992   0.640   0.096   0.737 -0.5260  0.5363  0.0579
 4249SOL     OW16993   4.939   1.610   0.096  0.5673 -0.4087 -0.7071
 4249SOL    HW116994   5.026   1.582   0.067  1.1970  0.6239  0.1006
 4249SOL    HW216995   4.925   1.693   0.051  0.4989 -0.0090  0.0396
 4249SOL     MW16996   4.948   1.617   0.087  0.6392 -0.2254 -0.5081
 4250SOL     OW16997   1.771   5.177   0.251  0.2617 -0.2888  0.1677
 4250SOL    HW116998   1.846   5.160   0.193  0.7712  0.6359  0.5443
 4250SOL    HW216999   1.694   5.159   0.196  0.7233  1.0796 -1.0006
 4250SOL     MW17000   1.771   5.173   0.236  0.3860  0.0047  0.0663
 4251SOL     OW17001   5.187   3.968   2.957 -0.0714  0.0338  0.4077
 4251SOL    HW117002   5.116   3.908   2.983 -0.0246 -1.3781 -2.3161
 4251SOL    HW217003   5.160   4.000   2.871  1.8722  0.7239  0.0186
 4251SOL     MW17004   5.174   3.964   2.949  0.1834 -0.0586  0.0092
 4252SOL     OW17005   0.940   0.200   3.117  0.7689  0.4234  0.1684
 4252SOL    HW117006   1.021   0.250   3.125  0.8746  0.4445 -0.8899
 4252SOL    HW217007   0.911   0.216   3.027 -1.6948  2.3773  1.2100
 4252SOL     MW17008   0.947   0.208   3.107  0.4670  0.6762  0.1662
 4253SOL     OW17009   3.666   4.506   3.984  0.2297 -0.2146  0.8860
 4253SOL    HW117010   3.643   4.420   3.949 -0.6626 -0.5229  2.1620
 4253SOL    HW217011   3.717   4.547   3.914  0.3365 -1.6167  0.0979
 4253SOL     MW17012   3.670   4.500   3.971  0.1292 -0.4336  0.9485
 4254SOL     OW17013   5.075   1.408   4.777  0.2285 -0.4878 -0.4404
 4254SOL    HW117014   5.115   1.404   4.690 -1.1119 -1.4642 -1.0511
 4254SOL    HW217015   4.988   1.369   4.765  0.1310 -0.9242  1.4034
 4254SOL     MW17016   5.069   1.403   4.764  0.0444 -0.6686 -0.2825
 4255SOL     OW17017   3.742   3.373   5.278 -0.0001 -0.2417 -0.0280
 4255SOL    HW117018   3.823   3.365   5.328 -1.0476 -0.8019  1.6492
 4255SOL    HW217019   3.697   3.449   5.315  0.8207  1.6628 -2.6185
 4255SOL     MW17020   3.746   3.381   5.289 -0.0291 -0.0696 -0.1449
 4256SOL     OW17021   2.940   1.533   1.250 -0.1418 -0.2800  0.0971
 4256SOL    HW117022   2.985   1.465   1.301 -2.4486 -1.7073  0.3452
 4256SOL    HW217023   2.940   1.500   1.161 -0.9847 -0.4874  0.1640
 4256SOL     MW17024   2.946   1.520   1.245 -0.5450 -0.4893  0.1374
 4257SOL     OW17025   0.887   1.434   3.520  0.1986  0.0066  0.2177
 4257SOL    HW117026   0.935   1.365   3.474 -0.8773 -0.7826  0.2461
 4257SOL    HW217027   0.796   1.419   3.496 -0.1301  0.9329  0.8755
 4257SOL     MW17028   0.882   1.423   3.511  0.0188  0.0242  0.3055
 4258SOL     OW17029   0.672   5.142   5.435  0.3958  0.1311  0.2280
 4258SOL    HW117030   0.757   5.172   5.405  0.2654  0.3697  0.0927
 4258SOL    HW217031   0.654   5.064   5.382 -0.4698  1.3510 -1.3540
 4258SOL     MW17032   0.680   5.135   5.424  0.2683  0.3178  0.0081
 4259SOL     OW17033   3.563   1.566   3.754  0.2942  0.0513 -0.3775
 4259SOL    HW117034   3.469   1.554   3.739  0.0638  1.8088 -0.5366
 4259SOL    HW217035   3.574   1.550   3.848 -0.0780 -0.6349 -0.4443
 4259SOL     MW17036   3.552   1.563   3.764  0.2171  0.1884 -0.4064
 4260SOL     OW17037   5.364   3.370   2.187  0.0289 -0.1443  0.3439
 4260SOL    HW117038   5.390   3.448   2.138 -0.8559 -0.1977 -0.2371
 4260SOL    HW217039   5.393   3.386   2.276  1.1733  0.2012 -0.0770
 4260SOL     MW17040   5.371   3.382   2.192  0.0621 -0.1069  0.2156
 4261SOL     OW17041   2.739   3.365   0.245 -0.0239 -0.1356 -0.0985
 4261SOL    HW117042   2.772   3.400   0.162 -0.8370 -0.9242 -0.7751
 4261SOL    HW217043   2.762   3.432   0.310  1.0514  0.2761 -0.8705
 4261SOL     MW17044   2.746   3.378   0.243  0.0097 -0.1838 -0.2840
 4262SOL     OW17045   0.742   3.195   0.365 -0.4885 -0.4705  0.0637
 4262SOL    HW117046   0.837   3.179   0.373 -0.2109  1.1266  0.1708
 4262SOL    HW217047   0.716   3.142   0.290  0.7708  0.0949 -0.8166
 4262SOL     MW17048   0.751   3.186   0.356 -0.2918 -0.1937 -0.0353
 4263SOL     OW17049   0.399   1.019   4.703 -0.6186 -0.0835 -1.0304
 4263SOL    HW117050   0.450   1.099   4.716  0.9047 -1.0791 -0.6517
 4263SOL    HW217051   0.450   0.967   4.642 -1.7087 -0.6921 -1.4611
 4263SOL     MW17052   0.412   1.023   4.697 -0.5632 -0.2889 -1.0371
 4264SOL     OW17053   3.753   2.443   4.332  0.1415  0.6702 -0.1740
 4264SOL    HW117054   3.690   2.441   4.404  0.4750  0.9142  0.1272
 4264SOL    HW217055   3.703   2.474   4.256 -0.5063 -0.7107 -0.3428
 4264SOL     MW17056   3.738   2.446   4.331  0.1013  0.5247 -0.1571
 4265SOL     OW17057   1.692   4.472   2.641 -0.2539 -0.0636 -0.2874
 4265SOL    HW117058   1.750   4.398   2.660 -0.2172  0.3081  1.2200
 4265SOL    HW217059   1.744   4.529   2.584 -0.2358 -1.1031 -1.3614
 4265SOL     MW17060   1.706   4.470   2.636 -0.2469 -0.1491 -0.2320
 4266SOL     OW17061   0.223   1.988   0.371  0.0626  0.2799 -0.4954
 4266SOL    HW117062   0.222   1.921   0.303  2.2375 -0.4004  0.0639
 4266SOL    HW217063   0.162   1.956   0.437  0.5504 -0.8071 -0.5529
 4266SOL     MW17064   0.215   1.976   0.370  0.4035  0.0537 -0.4312
 4267SOL     OW17065   5.017   3.990   3.594 -0.0370  0.0120 -0.0168
 4267SOL    HW117066   5.067   4.071   3.581 -0.0580 -0.0682 -0.6292
 4267SOL    HW217067   5.063   3.925   3.541 -1.5265  0.2386 -1.6630
 4267SOL     MW17068   5.029   3.992   3.586 -0.2304  0.0307 -0.3059
 4268SOL     OW17069   1.055   0.663   1.996 -0.3575  0.1166 -0.4689
 4268SOL    HW117070   1.147   0.657   2.021 -0.1100  1.4206 -0.9461
 4268SOL    HW217071   1.057   0.671   1.900 -0.9713 -0.0618 -0.4964
 4268SOL     MW17072   1.067   0.664   1.987 -0.4044  0.2607 -0.5335
 4269SOL     OW17073   5.116   1.249   3.180  0.0005 -0.6878  0.2844
 4269SOL    HW117074   5.034   1.241   3.229  0.7371 -0.4859  1.5655
 4269SOL    HW217075   5.184   1.254   3.246  0.9445  0.5246 -0.7254
 4269SOL     MW17076   5.114   1.249   3.194  0.2156 -0.5068  0.3191
 4270SOL     OW17077   2.697   1.234   3.435  0.0738 -0.2142  0.8499
 4270SOL    HW117078   2.662   1.323   3.444 -0.9472 -0.6778  1.6163
 4270SOL    HW217079   2.667   1.205   3.349  0.5244  0.2277  0.5402
 4270SOL     MW17080   2.689   1.242   3.425  0.0008 -0.2170  0.9084
 4271SOL     OW17081   0.205   4.976   0.110  0.6837  0.1542  0.1738
 4271SOL    HW117082   0.278   4.974   0.049  0.2732 -1.1464 -0.3127
 4271SOL    HW217083   0.180   4.884   0.121  0.0723  0.4530  1.4817
 4271SOL     MW17084   0.211   4.964   0.104  0.5529  0.0259  0.2790
 4272SOL     OW17085   2.494   5.416   0.593 -0.0985  0.1488 -0.5495
 4272SOL    HW117086   2.445   5.429   0.674  0.2400  0.3428 -0.3715
 4272SOL    HW217087   2.567   5.359   0.617  1.5378  2.2825 -0.0768
 4272SOL     MW17088   2.497   5.411   0.606  0.1543  0.4467 -0.4662
 4273SOL     OW17089   1.477   3.943   2.722 -0.3479 -0.0648  0.4409
 4273SOL    HW117090   1.425   4.011   2.764 -0.2201  0.4052 -0.1503
 4273SOL    HW217091   1.468   3.867   2.780  1.5330  1.1298  2.4247
 4273SOL     MW17092   1.469   3.942   2.735 -0.0908  0.1483  0.6191
 4274SOL     OW17093   1.484   3.349   4.218 -0.1990  0.1385  0.4970
 4274SOL    HW117094   1.425   3.425   4.218  1.4711  1.5253 -0.2902
 4274SOL    HW217095   1.452   3.294   4.147 -0.7462  0.6913  0.3044
 4274SOL     MW17096   1.473   3.352   4.209 -0.0553  0.3868  0.3716
 4275SOL     OW17097   3.815   3.064   1.448 -0.1030  0.1846  0.3721
 4275SOL    HW117098   3.765   3.117   1.386  0.0774 -0.4811 -0.3642
 4275SOL    HW217099   3.837   3.124   1.519  1.3546  1.5077 -1.1101
 4275SOL     MW17100   3.811   3.078   1.449  0.1067  0.2688  0.0881
 4276SOL     OW17101   2.097   2.062   2.032 -0.0147 -0.0393 -0.1098
 4276SOL    HW117102   2.130   2.126   1.969 -0.2860 -0.1812 -0.3972
 4276SOL    HW217103   2.175   2.018   2.066  0.1392  0.1242 -0.2532
 4276SOL     MW17104   2.111   2.065   2.029 -0.0297 -0.0365 -0.1650
 4277SOL     OW17105  -0.005   4.012   4.849  0.4120 -0.0163  0.0494
 4277SOL    HW117106  -0.010   4.101   4.812  2.1983 -0.2106 -0.7533
 4277SOL    HW217107   0.075   3.975   4.812  0.4158 -1.4982  1.4355
 4277SOL     MW17108   0.004   4.019   4.840  0.6412 -0.2309  0.1241
 4278SOL     OW17109   0.704   0.827   3.175 -0.0318 -0.0382  0.4066
 4278SOL    HW117110   0.755   0.841   3.096 -0.1348  1.7704  0.6172
 4278SOL    HW217111   0.640   0.760   3.151 -0.0588  0.4674 -1.0406
 4278SOL     MW17112   0.702   0.820   3.162 -0.0484  0.2581  0.2483
 4279SOL     OW17113   1.875   4.074   0.832 -0.1603 -0.1450  0.2782
 4279SOL    HW117114   1.803   4.133   0.855  0.2261  0.4872 -0.1050
 4279SOL    HW217115   1.837   3.987   0.838 -0.4654  0.0694  1.9074
 4279SOL     MW17116   1.861   4.071   0.836 -0.1499 -0.0366  0.4377
 4280SOL     OW17117   2.303   0.769   5.026  0.4665  0.4086 -0.5043
 4280SOL    HW117118   2.284   0.696   5.085  1.5665 -0.8789 -1.6571
 4280SOL    HW217119   2.218   0.808   5.007 -0.1272 -0.4804  0.2720
 4280SOL     MW17120   2.290   0.764   5.031  0.5313  0.1300 -0.5525
 4281SOL     OW17121   3.651   3.590   5.437  0.6539  0.3720 -0.3117
 4281SOL    HW117122   3.559   3.591   5.411  0.6320 -0.1484 -0.2661
 4281SOL    HW217123   3.679   3.681   5.428  0.2843  0.4414 -0.8540
 4281SOL     MW17124   3.643   3.601   5.433  0.6038  0.3142 -0.3753
 4282SOL     OW17125   2.249   3.069   4.300 -0.2556  0.6839  0.2146
 4282SOL    HW117126   2.186   3.050   4.369  1.8259  0.7187  2.2526
 4282SOL    HW217127   2.270   2.984   4.262 -1.9954  0.7488 -1.0104
 4282SOL     MW17128   2.244   3.056   4.304 -0.2118  0.6966  0.3187
 4283SOL     OW17129   5.373   4.924   0.864 -0.3367 -0.4308 -0.1502
 4283SOL    HW117130   5.352   5.016   0.884  0.6241 -0.2947  0.2643
 4283SOL    HW217131   5.298   4.894   0.813 -0.3250  0.8115 -0.9494
 4283SOL     MW17132   5.361   4.932   0.860 -0.2122 -0.2544 -0.1995
 4284SOL     OW17133   1.824   1.099   1.605  0.1214  0.6440  0.4179
 4284SOL    HW117134   1.734   1.095   1.572  0.0615 -2.5297  0.6866
 4284SOL    HW217135   1.854   1.187   1.582 -2.5105  1.2506 -1.0837
 4284SOL     MW17136   1.816   1.110   1.598 -0.2232  0.3154  0.2601
 4285SOL     OW17137   1.374   2.405   3.259  0.7634 -0.6952  0.1655
 4285SOL    HW117138   1.374   2.335   3.193  0.9705  0.9989 -1.7426
 4285SOL    HW217139   1.296   2.456   3.239  1.5699  0.6367  0.3532
 4285SOL     MW17140   1.364   2.402   3.248  0.8931 -0.3078 -0.0548
 4286SOL     OW17141   1.938   0.543   4.670 -0.2522 -0.1339  0.5049
 4286SOL    HW117142   1.991   0.600   4.725 -1.5660  0.3190  1.3569
 4286SOL    HW217143   1.994   0.522   4.595  0.8612  0.8755  1.0326
 4286SOL     MW17144   1.952   0.548   4.667 -0.2779  0.0533  0.6815
 4287SOL     OW17145   3.022   2.115   4.534  0.6634 -0.8560 -0.0030
 4287SOL    HW117146   2.994   2.090   4.622 -1.5987 -1.7472 -0.9192
 4287SOL    HW217147   3.072   2.039   4.503 -0.3595 -1.4375 -0.2546
 4287SOL     MW17148   3.025   2.102   4.541  0.2429 -1.0445 -0.1525
 4288SOL     OW17149   3.437   5.305   3.250  0.2862 -0.1207 -0.1606
 4288SOL    HW117150   3.411   5.213   3.251 -0.0508 -0.0237 -0.0992
 4288SOL    HW217151   3.359   5.352   3.220  0.8998  0.0028 -1.6729
 4288SOL     MW17152   3.424   5.299   3.246  0.3216 -0.0925 -0.3463
 4289SOL     OW17153   4.160   0.492   3.880 -0.0796  0.0278 -0.2405
 4289SOL    HW117154   4.170   0.468   3.972 -0.0843 -1.6175 -0.6483
 4289SOL    HW217155   4.175   0.411   3.832 -0.2325  0.8290 -1.6927
 4289SOL     MW17156   4.163   0.479   3.886 -0.0998 -0.0802 -0.4786
 4290SOL     OW17157   0.523   1.178   5.421 -0.3788  0.5527  0.1790
 4290SOL    HW117158   0.472   1.098   5.434  2.3403 -1.5471 -0.9691
 4290SOL    HW217159   0.502   1.206   5.332  0.0273 -0.0108 -0.1036
 4290SOL     MW17160   0.514   1.171   5.411  0.0212  0.2118 -0.0041
 4291SOL     OW17161   2.974   2.062   0.023  0.4919 -0.0646 -0.1613
 4291SOL    HW117162   2.898   2.076   0.080 -0.1941  3.5375 -1.6874
 4291SOL    HW217163   3.050   2.085   0.077  0.2593 -0.8406  0.5105
 4291SOL     MW17164   2.974   2.067   0.037  0.3743  0.2971 -0.2707
 4292SOL     OW17165   2.310   4.128   0.672 -0.5057  0.0269 -0.1120
 4292SOL    HW117166   2.302   4.145   0.765  0.6608  0.7733 -0.1223
 4292SOL    HW217167   2.221   4.108   0.643 -0.8155 -0.6427  1.2213
 4292SOL     MW17168   2.298   4.127   0.680 -0.3960  0.0367  0.0574
 4293SOL     OW17169   1.983   2.737   2.610  0.6343 -0.0058 -0.6138
 4293SOL    HW117170   2.017   2.654   2.576  2.6094  1.0613 -1.4236
 4293SOL    HW217171   2.022   2.803   2.553  1.7757  1.6940  1.9731
 4293SOL     MW17172   1.992   2.735   2.598  1.0332  0.3484 -0.3863
 4294SOL     OW17173   3.597   3.750   4.544  0.0526 -0.2155  0.5257
 4294SOL    HW117174   3.658   3.687   4.506 -1.1893 -2.1624  1.5709
 4294SOL    HW217175   3.648   3.796   4.610  0.7288 -0.8550  0.4654
 4294SOL     MW17176   3.611   3.748   4.547 -0.0198 -0.5466  0.6518
 4295SOL     OW17177   0.160   3.428   0.044  0.3260 -0.1010  0.2238
 4295SOL    HW117178   0.251   3.407   0.065  0.6763 -0.2389 -1.3809
 4295SOL    HW217179   0.165   3.506  -0.011 -0.5044 -0.4098 -0.3057
 4295SOL     MW17180   0.172   3.436   0.040  0.2645 -0.1582 -0.0494
 4296SOL     OW17181   4.115   2.054   4.628  0.2763 -0.2696  0.0062
 4296SOL    HW117182   4.161   2.082   4.707 -0.3102 -0.3366  0.3758
 4296SOL    HW217183   4.153   2.107   4.558 -0.0696  0.6974  0.5285
 4296SOL     MW17184   4.126   2.065   4.629  0.1569 -0.1544  0.1203
 4297SOL     OW17185   3.838   2.013   4.884  0.0859  0.0001  0.0610
 4297SOL    HW117186   3.760   2.037   4.834 -0.8229 -1.5176  0.6679
 4297SOL    HW217187   3.807   2.005   4.974  1.3382  1.0368  0.6126
 4297SOL     MW17188   3.824   2.015   4.889  0.1299 -0.0615  0.2093
 4298SOL     OW17189   3.915   1.684   3.111 -0.1695 -0.9919  0.2135
 4298SOL    HW117190   3.908   1.774   3.081  1.1059 -0.3067  1.8042
 4298SOL    HW217191   3.840   1.639   3.072 -1.1315  0.8790 -0.1786
 4298SOL     MW17192   3.905   1.690   3.102 -0.1294 -0.6647  0.3670
 4299SOL     OW17193   2.770   1.204   4.838 -0.0941  0.0610  0.2718
 4299SOL    HW117194   2.819   1.134   4.878  0.4104 -0.1505 -0.6803
 4299SOL    HW217195   2.739   1.167   4.755  1.0499  1.2579 -0.7300
 4299SOL     MW17196   2.772   1.191   4.832  0.1169  0.1872  0.0217
 4300SOL     OW17197   0.855   2.602   4.546 -0.2776  0.2730  0.3097
 4300SOL    HW117198   0.914   2.624   4.475 -2.2974  0.7525 -1.3170
 4300SOL    HW217199   0.851   2.506   4.545  0.8514  0.2002  0.8201
 4300SOL     MW17200   0.862   2.592   4.537 -0.3916  0.3251  0.1668
 4301SOL     OW17201   0.549   4.222   3.219  0.1002 -0.4044  0.4281
 4301SOL    HW117202   0.484   4.157   3.192 -0.8567  1.1435 -1.1975
 4301SOL    HW217203   0.498   4.294   3.255  1.0603  0.0481  0.9333
 4301SOL     MW17204   0.534   4.223   3.220  0.1006 -0.1484  0.2847
 4302SOL     OW17205   1.578   2.533   3.377  0.4338 -0.1142  0.2871
 4302SOL    HW117206   1.585   2.481   3.457 -1.0728  0.7901  1.0556
 4302SOL    HW217207   1.503   2.496   3.330  0.6592  0.0347 -0.2013
 4302SOL     MW17208   1.569   2.522   3.381  0.2698  0.0206  0.3230
 4303SOL     OW17209   4.619   3.986   5.011  0.0217 -0.2988 -0.2111
 4303SOL    HW117210   4.561   3.993   5.086 -0.3693  1.4631 -0.6384
 4303SOL    HW217211   4.612   4.071   4.967  2.2227 -0.3574 -0.7896
 4303SOL     MW17212   4.611   3.998   5.015  0.2534 -0.0808 -0.3399
 4304SOL     OW17213   1.319   4.624   2.401  0.3369  0.4191  0.2013
 4304SOL    HW117214   1.332   4.714   2.373  0.7978  0.7033  1.2665
 4304SOL    HW217215   1.287   4.578   2.323  3.5443  0.6761 -1.4056
 4304SOL     MW17216   1.316   4.629   2.388  0.8065  0.4884  0.1320
 4305SOL     OW17217   4.305   1.664   3.390 -0.3409  0.4872 -0.4013
 4305SOL    HW117218   4.284   1.756   3.409 -0.1258  0.4887 -0.1723
 4305SOL    HW217219   4.226   1.630   3.349 -1.2150  0.2127  1.4037
 4305SOL     MW17220   4.292   1.672   3.388 -0.4252  0.4522 -0.1409
 4306SOL     OW17221   0.532   5.057   0.480  0.4025  0.3905  0.0989
 4306SOL    HW117222   0.521   5.047   0.574  1.8400 -0.4043  0.2060
 4306SOL    HW217223   0.444   5.046   0.444 -0.1372  0.5748  1.3291
 4306SOL     MW17224   0.520   5.054   0.487  0.5174  0.3123  0.2701
 4307SOL     OW17225   3.636   0.860   2.543  0.3282 -0.5717  0.0147
 4307SOL    HW117226   3.547   0.852   2.576  0.9705 -2.1072  1.5723
 4307SOL    HW217227   3.634   0.821   2.456 -0.2006 -2.2513  0.7369
 4307SOL     MW17228   3.624   0.854   2.536  0.3427 -0.9832  0.3066
 4308SOL     OW17229   5.460   3.034   0.112  0.4463  0.2738 -0.0342
 4308SOL    HW117230   5.461   3.107   0.050 -0.4677 -0.1553 -0.5736
 4308SOL    HW217231   5.380   3.045   0.162  0.5652 -0.0727  0.2411
 4308SOL     MW17232   5.450   3.044   0.110  0.3445  0.1745 -0.0680
 4309SOL     OW17233   3.910   3.640   2.916 -0.0996  0.4127  0.1219
 4309SOL    HW117234   3.860   3.563   2.940 -1.6316  0.8943 -1.3670
 4309SOL    HW217235   3.923   3.633   2.822  0.2814  1.6530  0.0523
 4309SOL     MW17236   3.905   3.629   2.907 -0.2469  0.6331 -0.0776
 4310SOL     OW17237   3.501   2.007   1.770  0.1949  0.1596 -0.5446
 4310SOL    HW117238   3.580   1.980   1.723  0.1750 -1.3017  0.1701
 4310SOL    HW217239   3.532   2.073   1.832  0.2380  2.0238 -2.4494
 4310SOL     MW17240   3.515   2.012   1.772  0.1979  0.2112 -0.6970
 4311SOL     OW17241   0.568   2.797   4.942 -0.0329 -0.3175  0.1106
 4311SOL    HW117242   0.485   2.845   4.943 -0.9325 -1.7697 -0.9346
 4311SOL    HW217243   0.594   2.792   5.034 -0.3164  1.4332  0.3136
 4311SOL     MW17244   0.561   2.803   4.954 -0.1843 -0.2793  0.0028
 4312SOL     OW17245   4.545   0.622   3.549  0.1403 -0.3131  0.2396
 4312SOL    HW117246   4.506   0.694   3.500  1.1539 -0.4616 -0.8271
 4312SOL    HW217247   4.475   0.557   3.555 -0.2379  0.0248 -0.3609
 4312SOL     MW17248   4.531   0.623   3.543  0.2217 -0.2888  0.0261
 4313SOL     OW17249   0.128   4.790   1.508  0.0129  0.1448  0.5233
 4313SOL    HW117250   0.201   4.845   1.479 -0.4504 -0.0432 -1.1309
 4313SOL    HW217251   0.170   4.710   1.540  0.5560 -0.8861 -2.4365
 4313SOL     MW17252   0.143   4.787   1.508  0.0231 -0.0112 -0.0674
 4314SOL     OW17253   1.857   3.472   2.971 -0.1590  0.5833 -0.3903
 4314SOL    HW117254   1.779   3.459   2.917  0.7482 -0.0487 -1.6109
 4314SOL    HW217255   1.864   3.566   2.982 -1.2960  0.6290  0.0613
 4314SOL     MW17256   1.848   3.482   2.965 -0.1884  0.5082 -0.4887
 4315SOL     OW17257   3.988   0.995   3.130  0.2400  0.3197  0.2940
 4315SOL    HW117258   3.946   0.945   3.200  1.1838 -0.8022  0.0984
 4315SOL    HW217259   3.923   1.060   3.104 -0.8417 -0.4865  0.9004
 4315SOL     MW17260   3.975   0.997   3.136  0.2224  0.0729  0.3466
 4316SOL     OW17261   0.698   1.500   1.558  0.3253  0.3177 -0.3033
 4316SOL    HW117262   0.616   1.512   1.510  1.2781  0.2987 -2.0306
 4316SOL    HW217263   0.702   1.406   1.576 -0.7411  0.5287  1.1893
 4316SOL     MW17264   0.688   1.490   1.554  0.3107  0.3423 -0.3334
 4317SOL     OW17265   1.895   2.117   1.233  0.1702  0.6250 -0.0421
 4317SOL    HW117266   1.956   2.173   1.186  0.9554  0.2039  0.4625
 4317SOL    HW217267   1.849   2.176   1.292  0.8341  0.7838  0.3238
 4317SOL     MW17268   1.897   2.132   1.235  0.3557  0.5914  0.0693
 4318SOL     OW17269   3.881   2.295   4.988  0.5820  0.2772  0.1342
 4318SOL    HW117270   3.889   2.205   4.957 -1.0984  0.6008 -1.3884
 4318SOL    HW217271   3.842   2.286   5.075 -0.1645 -0.4742 -0.2572
 4318SOL     MW17272   3.877   2.282   4.995  0.2713  0.2224 -0.1108
 4319SOL     OW17273   3.841   4.805   2.224  0.4787 -0.0426 -0.0161
 4319SOL    HW117274   3.924   4.848   2.242  1.3648 -1.4125 -0.6653
 4319SOL    HW217275   3.857   4.712   2.241 -0.4524 -0.5490 -1.5976
 4319SOL     MW17276   3.853   4.799   2.228  0.4730 -0.2828 -0.3016
 4320SOL     OW17277   0.355   1.706   5.186  0.8047  0.7112 -0.3544
 4320SOL    HW117278   0.272   1.709   5.139  0.1953 -0.3478  0.6162
 4320SOL    HW217279   0.365   1.794   5.222  0.3499  0.9842 -0.8729
 4320SOL     MW17280   0.346   1.718   5.185  0.6685  0.6106 -0.2965
 4321SOL     OW17281   0.594   3.904   3.091  0.2561  0.1975  0.2605
 4321SOL    HW117282   0.635   3.817   3.089 -2.4916 -1.2088 -1.0336
 4321SOL    HW217283   0.628   3.948   3.012  1.6191  0.3428  0.8915
 4321SOL     MW17284   0.604   3.898   3.080  0.0789  0.0360  0.1756
 4322SOL     OW17285   4.641   2.643   4.133  0.2814 -0.3477  0.0302
 4322SOL    HW117286   4.646   2.574   4.067  0.2756  0.4073 -0.7702
 4322SOL    HW217287   4.724   2.690   4.126  1.1342 -1.4402  1.9196
 4322SOL     MW17288   4.652   2.640   4.124  0.3898 -0.3909  0.1696
 4323SOL     OW17289   1.790   3.331   3.962  0.8322 -0.4633  0.4045
 4323SOL    HW117290   1.708   3.376   3.942  0.0763 -2.3250 -0.8187
 4323SOL    HW217291   1.767   3.268   4.030  1.0266 -1.6272 -0.5871
 4323SOL     MW17292   1.777   3.329   3.968  0.7604 -0.8506  0.1210
 4324SOL     OW17293   3.677   0.367   3.587  0.4923  0.1385  0.8373
 4324SOL    HW117294   3.582   0.364   3.577  0.5330  0.8012  0.1511
 4324SOL    HW217295   3.694   0.324   3.671 -0.1415 -3.0035 -0.5004
 4324SOL     MW17296   3.667   0.361   3.597  0.4164 -0.1788  0.5782
 4325SOL     OW17297   1.314   4.286   4.835  0.1037 -0.2854  0.2040
 4325SOL    HW117298   1.287   4.371   4.870  0.1581  0.7647 -2.1030
 4325SOL    HW217299   1.405   4.300   4.809  1.4997 -2.3046  3.3372
 4325SOL     MW17300   1.322   4.299   4.836  0.2894 -0.4095  0.3098
 4326SOL     OW17301   0.237   2.629   2.733 -0.5327 -0.3021  0.0426
 4326SOL    HW117302   0.190   2.549   2.755  1.0327 -1.8575 -1.7887
 4326SOL    HW217303   0.230   2.635   2.637 -0.0014  1.3448  0.0744
 4326SOL     MW17304   0.230   2.619   2.723 -0.2643 -0.2904 -0.1877
 4327SOL     OW17305   4.832   0.628   1.197  0.0865  0.1203 -0.6069
 4327SOL    HW117306   4.885   0.566   1.147  1.3240  0.3505  0.3630
 4327SOL    HW217307   4.841   0.711   1.151 -0.0570 -0.0071 -0.8663
 4327SOL     MW17308   4.840   0.631   1.185  0.2266  0.1334 -0.5160
 4328SOL     OW17309   3.720   1.637   4.758 -0.2848  0.2853  0.0068
 4328SOL    HW117310   3.787   1.612   4.823 -0.4931  0.1823  0.1841
 4328SOL    HW217311   3.768   1.645   4.676 -0.1090 -0.1039  0.0707
 4328SOL     MW17312   3.735   1.635   4.756 -0.2890  0.2223  0.0377
 4329SOL     OW17313   3.315   3.546   4.358  0.4764 -0.1297  0.6969
 4329SOL    HW117314   3.302   3.635   4.391 -0.2124 -0.0739  0.3020
 4329SOL    HW217315   3.410   3.537   4.350  0.6620 -0.0980  2.5213
 4329SOL     MW17316   3.325   3.557   4.361  0.4120 -0.1185  0.8799
 4330SOL     OW17317   0.837   5.281   0.398  0.5209  0.2696 -0.4663
 4330SOL    HW117318   0.813   5.228   0.322  0.9716  1.5158 -1.5127
 4330SOL    HW217319   0.762   5.338   0.412  0.8182  0.6954 -0.5837
 4330SOL     MW17320   0.824   5.282   0.390  0.6166  0.4836 -0.6153
 4331SOL     OW17321   2.214   2.305   4.209 -0.4707 -0.0211  0.2710
 4331SOL    HW117322   2.125   2.325   4.182 -0.7356 -2.4901 -0.9443
 4331SOL    HW217323   2.207   2.230   4.266  0.8936 -1.4533 -1.3119
 4331SOL     MW17324   2.202   2.298   4.213 -0.3299 -0.5205 -0.0872
 4332SOL     OW17325   4.175   0.846   1.850 -0.2064 -0.0046  0.2355
 4332SOL    HW117326   4.169   0.931   1.894  1.3728  0.5573 -0.5476
 4332SOL    HW217327   4.243   0.858   1.784 -0.1803 -1.7970 -0.1188
 4332SOL     MW17328   4.183   0.858   1.847 -0.0009 -0.1621  0.0899
 4333SOL     OW17329   2.141   0.067   3.287  0.5377  0.1526  0.1779
 4333SOL    HW117330   2.066   0.086   3.230  0.9010  0.2457 -0.2751
 4333SOL    HW217331   2.208   0.032   3.228  1.0165  0.5094  0.5031
 4333SOL     MW17332   2.140   0.065   3.272  0.6455  0.2102  0.1615
 4334SOL     OW17333   0.061   1.217   4.447  0.6052 -0.4444 -0.1102
 4334SOL    HW117334  -0.001   1.161   4.493  0.8341 -1.5355 -1.1053
 4334SOL    HW217335   0.111   1.260   4.517 -1.3639  0.6093  0.7147
 4334SOL     MW17336   0.060   1.216   4.462  0.3824 -0.4492 -0.1319
 4335SOL     OW17337   1.597   5.262   0.738  0.2496 -0.0485  0.1718
 4335SOL    HW117338   1.523   5.286   0.794  1.2883  2.8197  0.4783
 4335SOL    HW217339   1.558   5.247   0.652 -0.9799 -1.3853  0.9148
 4335SOL     MW17340   1.582   5.263   0.734  0.2251  0.1475  0.3062
 4336SOL     OW17341   3.933   1.577   4.876 -0.0486 -0.0456 -0.6123
 4336SOL    HW117342   3.964   1.544   4.791  2.2837 -0.0252  0.1502
 4336SOL    HW217343   3.932   1.500   4.932  0.9679  0.3557 -0.0128
 4336SOL     MW17344   3.937   1.563   4.872  0.3801  0.0084 -0.4379
 4337SOL     OW17345   2.352   0.350   4.057  0.2550 -0.0152  0.0298
 4337SOL    HW117346   2.360   0.376   4.149  0.4250 -0.9671  0.2960
 4337SOL    HW217347   2.259   0.329   4.046 -0.1019  1.6969 -0.4748
 4337SOL     MW17348   2.341   0.350   4.067  0.2311  0.0821 -0.0007
 4338SOL     OW17349   2.120   2.151   0.442 -0.1479  0.3588 -0.5291
 4338SOL    HW117350   2.127   2.166   0.347 -1.5009  2.2447 -0.3855
 4338SOL    HW217351   2.200   2.189   0.478  0.2906 -0.2066 -0.8855
 4338SOL     MW17352   2.131   2.158   0.434 -0.2650  0.5278 -0.5563
 4339SOL     OW17353   2.194   3.723   3.794 -0.4055  0.5067  0.3422
 4339SOL    HW117354   2.242   3.805   3.780  3.0358 -1.0637  1.8056
 4339SOL    HW217355   2.171   3.724   3.887 -1.0469  0.1316  0.1947
 4339SOL     MW17356   2.197   3.734   3.804 -0.0471  0.2577  0.5107
 4340SOL     OW17357   3.761   2.605   1.412 -0.3713 -0.2844  0.1686
 4340SOL    HW117358   3.680   2.632   1.369  0.3454  1.3088 -0.2455
 4340SOL    HW217359   3.807   2.686   1.430  1.6977 -1.1879 -0.7320
 4340SOL     MW17360   3.756   2.619   1.409 -0.0147 -0.1961  0.0003
 4341SOL     OW17361   1.047   1.292   0.964  0.2746  0.6004  0.3219
 4341SOL    HW117362   0.990   1.228   0.923  2.9944 -1.0784 -1.1225
 4341SOL    HW217363   1.054   1.264   1.055 -0.6961  0.4989  0.3736
 4341SOL     MW17364   1.041   1.280   0.971  0.4985  0.3725  0.1436
 4342SOL     OW17365   3.013   1.491   1.911 -0.0885  0.5449 -0.7817
 4342SOL    HW117366   2.950   1.470   1.980  2.4728  0.1338  1.6237
 4342SOL    HW217367   2.981   1.444   1.834 -1.1325 -2.1050  1.1289
 4342SOL     MW17368   3.001   1.482   1.910  0.1058  0.1530 -0.2292
 4343SOL     OW17369   0.913   3.031   4.406 -0.3683  0.4179 -0.2565
 4343SOL    HW117370   0.980   3.064   4.346 -0.3014 -0.7403 -0.8557
 4343SOL    HW217371   0.833   3.075   4.380  0.1030  1.7110  0.3718
 4343SOL     MW17372   0.912   3.041   4.395 -0.2994  0.4352 -0.2528
 4344SOL     OW17373   3.509   1.283   2.463 -0.2917  0.7892  0.3197
 4344SOL    HW117374   3.579   1.319   2.408 -0.8112 -0.2729 -1.0859
 4344SOL    HW217375   3.430   1.290   2.410 -0.5589 -1.6081  0.2964
 4344SOL     MW17376   3.508   1.289   2.450 -0.3924  0.3464  0.1367
 4345SOL     OW17377   3.605   1.417   4.627 -0.1406 -0.7673  0.0670
 4345SOL    HW117378   3.643   1.495   4.669  0.3254 -1.1350  0.3538
 4345SOL    HW217379   3.511   1.431   4.632 -0.0599  0.0250 -0.3677
 4345SOL     MW17380   3.598   1.429   4.633 -0.0706 -0.7129  0.0480
 4346SOL     OW17381   2.986   3.103   4.969 -0.0422  0.5840 -0.0252
 4346SOL    HW117382   3.077   3.110   4.939 -0.3731  0.1136 -1.1755
 4346SOL    HW217383   2.956   3.194   4.975  0.7486  0.7997  1.2321
 4346SOL     MW17384   2.994   3.116   4.966  0.0167  0.5514 -0.0115
 4347SOL     OW17385   0.537   4.724   3.206  0.1999  0.4508 -0.1851
 4347SOL    HW117386   0.497   4.793   3.259  0.6490  1.8999 -1.6635
 4347SOL    HW217387   0.624   4.758   3.184  0.8678 -1.0726 -0.0533
 4347SOL     MW17388   0.543   4.737   3.210  0.3429  0.4413 -0.3575
 4348SOL     OW17389   4.073   1.451   2.977  0.2003  0.1498  0.2235
 4348SOL    HW117390   4.082   1.501   3.058  0.7123  1.5804 -0.6871
 4348SOL    HW217391   4.103   1.510   2.909  1.2895 -1.5761 -0.8627
 4348SOL     MW17392   4.078   1.465   2.979  0.4053  0.1120 -0.0321
 4349SOL     OW17393   2.794   1.854   3.862 -0.3220  0.3571  0.1556
 4349SOL    HW117394   2.859   1.822   3.924 -0.5848  0.4034  0.4590
 4349SOL    HW217395   2.840   1.918   3.808  0.0050  0.0456  0.0588
 4349SOL     MW17396   2.808   1.858   3.863 -0.3138  0.3232  0.1821
 4350SOL     OW17397   0.160   1.560   4.003  0.1460 -0.1691  0.1180
 4350SOL    HW117398   0.225   1.490   4.011  0.6747  0.1914 -0.9104
 4350SOL    HW217399   0.146   1.570   3.909  0.7185  1.6795  0.1790
 4350SOL     MW17400   0.166   1.552   3.992  0.2870  0.1137 -0.0058
 4351SOL     OW17401   5.434   3.619   3.546  0.0814  0.4803 -0.6358
 4351SOL    HW117402   5.375   3.544   3.553  0.0338  0.5530 -0.2484
 4351SOL    HW217403   5.522   3.582   3.553  0.0333  0.5731  0.6347
 4351SOL     MW17404   5.438   3.605   3.548  0.0691  0.5015 -0.4235
 4352SOL     OW17405   0.069   3.198   3.857 -0.5457  0.3977 -0.1739
 4352SOL    HW117406   0.134   3.249   3.808 -0.4764  0.3012 -0.1843
 4352SOL    HW217407   0.080   3.108   3.824  0.8146 -0.0488  1.3413
 4352SOL     MW17408   0.079   3.193   3.847 -0.3627  0.3282  0.0188
 4353SOL     OW17409   2.377   1.314   1.372 -0.0838 -0.0210 -0.4467
 4353SOL    HW117410   2.431   1.237   1.390  0.0588  0.6060  2.1511
 4353SOL    HW217411   2.294   1.278   1.340  0.0373 -1.2522  0.5365
 4353SOL     MW17412   2.373   1.299   1.370 -0.0500 -0.0983  0.0117
 4354SOL     OW17413   0.727   1.103   2.536  0.0239  0.0747  0.1912
 4354SOL    HW117414   0.802   1.044   2.532  0.1367 -0.0871  2.9445
 4354SOL    HW217415   0.677   1.083   2.457  1.3681 -1.8897 -0.2428
 4354SOL     MW17416   0.730   1.093   2.526  0.2104 -0.1975  0.4881
 4355SOL     OW17417   3.479   2.916   4.426  0.6919 -0.1332  0.3058
 4355SOL    HW117418   3.442   3.001   4.448  2.2566  0.3857  1.0801
 4355SOL    HW217419   3.404   2.857   4.423 -0.3975  1.2420 -0.1162
 4355SOL     MW17420   3.465   2.919   4.429  0.7528  0.1093  0.3509
 4356SOL     OW17421   5.477   3.071   1.312  0.0807 -0.4468 -0.4228
 4356SOL    HW117422   5.405   3.055   1.252 -0.5233  2.3408 -0.5603
 4356SOL    HW217423   5.476   3.165   1.327  1.8892 -0.6985  1.8888
 4356SOL     MW17424   5.468   3.081   1.306  0.2349 -0.1222 -0.1445
 4357SOL     OW17425   2.089   1.977   2.412 -0.4488  0.4482  0.0511
 4357SOL    HW117426   2.018   2.032   2.447 -0.7260 -0.7845  1.5410
 4357SOL    HW217427   2.119   1.926   2.487  2.0979  0.9619 -0.5158
 4357SOL     MW17428   2.083   1.978   2.426 -0.1582  0.3561  0.1692
 4358SOL     OW17429   1.178   5.380   1.022 -0.6629  0.1886 -0.4489
 4358SOL    HW117430   1.122   5.450   1.056 -2.5216 -2.6358  3.0107
 4358SOL    HW217431   1.235   5.357   1.095  0.1826 -1.6124 -1.5953
 4358SOL     MW17432   1.178   5.386   1.035 -0.7926 -0.4035 -0.1528
 4359SOL     OW17433   0.429   3.560   3.435 -0.6483  0.4822  0.6671
 4359SOL    HW117434   0.524   3.574   3.428 -0.5793  0.5953  1.6596
 4359SOL    HW217435   0.391   3.645   3.416 -0.6554  0.0734 -1.3487
 4359SOL     MW17436   0.437   3.572   3.432 -0.6404  0.4443  0.5361
 4360SOL     OW17437   0.694   1.609   2.914  0.0300  0.2497 -0.5716
 4360SOL    HW117438   0.756   1.557   2.862 -0.1429  1.4366 -2.0166
 4360SOL    HW217439   0.631   1.642   2.851 -1.3750  0.1057  0.7029
 4360SOL     MW17440   0.694   1.606   2.899 -0.1720  0.3832 -0.5935
 4361SOL     OW17441   2.133   1.690   5.373  0.1409 -0.1431  0.0016
 4361SOL    HW117442   2.082   1.702   5.293 -0.8819 -2.4820  0.2466
 4361SOL    HW217443   2.080   1.633   5.428  1.7233 -0.2431  1.5230
 4361SOL     MW17444   2.120   1.684   5.370  0.2125 -0.4553  0.2277
 4362SOL     OW17445   2.639   5.376   1.419  0.6200 -0.1062 -0.3001
 4362SOL    HW117446   2.709   5.394   1.482  0.3343  0.7677 -0.2260
 4362SOL    HW217447   2.645   5.281   1.403  1.0155 -0.2541  0.6638
 4362SOL     MW17448   2.649   5.366   1.425  0.6341 -0.0133 -0.1672
 4363SOL     OW17449   3.897   5.193   2.056  0.3720  0.2282  0.4415
 4363SOL    HW117450   3.907   5.154   1.969 -0.0790  1.3456 -0.1345
 4363SOL    HW217451   3.925   5.124   2.116 -0.7478 -1.1285 -0.5021
 4363SOL     MW17452   3.902   5.179   2.052  0.1709  0.1975  0.2470
 4364SOL     OW17453   4.217   2.383   2.064  0.0914  0.0085 -0.4785
 4364SOL    HW117454   4.241   2.475   2.078 -1.8169  0.3048  1.3491
 4364SOL    HW217455   4.182   2.354   2.149 -0.2445 -2.1115 -1.2872
 4364SOL     MW17456   4.215   2.391   2.077 -0.1958 -0.2249 -0.3481
 4365SOL     OW17457   0.999   0.368   4.895 -0.0787 -0.0504  0.4006
 4365SOL    HW117458   0.977   0.294   4.952  0.8668  0.4805  1.4819
 4365SOL    HW217459   1.092   0.358   4.877 -0.2130  0.2061 -0.4589
 4365SOL     MW17460   1.008   0.357   4.900  0.0251  0.0504  0.4290
 4366SOL     OW17461   1.008   4.505   4.329  0.3246  0.2820  0.2327
 4366SOL    HW117462   0.932   4.475   4.280  0.2148 -0.2543  0.7226
 4366SOL    HW217463   1.052   4.425   4.358  1.2740  0.5787 -0.3306
 4366SOL     MW17464   1.004   4.491   4.327  0.4321  0.2513  0.2233
 4367SOL     OW17465   3.146   1.801   3.318  0.4783  0.1768  0.4604
 4367SOL    HW117466   3.198   1.729   3.354 -1.0042 -0.8935  0.5920
 4367SOL    HW217467   3.095   1.833   3.393 -0.6270 -0.2585 -0.0708
 4367SOL     MW17468   3.146   1.796   3.332  0.1471 -0.0159  0.4092
 4368SOL     OW17469   3.969   1.263   3.819 -0.4802  0.0585  0.3646
 4368SOL    HW117470   3.877   1.264   3.793 -0.2145 -2.2555 -0.8870
 4368SOL    HW217471   3.967   1.269   3.915 -2.0516 -1.3818  0.4704
 4368SOL     MW17472   3.957   1.264   3.828 -0.6473 -0.4221  0.2179
 4369SOL     OW17473   4.795   1.017   5.309 -0.1467 -0.0108  0.1549
 4369SOL    HW117474   4.805   0.964   5.230 -1.0265 -0.0793  0.0810
 4369SOL    HW217475   4.777   0.953   5.378 -2.0210  0.1938 -0.0741
 4369SOL     MW17476   4.794   1.002   5.308 -0.4992  0.0066  0.1161
 4370SOL     OW17477   1.105   5.431   3.439  0.0511 -0.3584  0.0124
 4370SOL    HW117478   1.056   5.500   3.484  0.2953  0.2420 -0.6289
 4370SOL    HW217479   1.081   5.350   3.486  0.2902  0.2396  1.2059
 4370SOL     MW17480   1.096   5.429   3.451  0.1130 -0.2050  0.0831
 4371SOL     OW17481   1.959   4.824   3.496 -0.4095 -0.2083  0.3758
 4371SOL    HW117482   1.895   4.820   3.567  0.2455 -0.5646  0.9554
 4371SOL    HW217483   2.002   4.739   3.498  1.3326  0.6456  1.1913
 4371SOL     MW17484   1.956   4.813   3.506 -0.1027 -0.1446  0.5544
 4372SOL     OW17485   3.353   0.922   0.584 -0.1984 -0.3303 -0.3169
 4372SOL    HW117486   3.399   0.864   0.524 -1.0725  0.1450 -1.4649
 4372SOL    HW217487   3.421   0.951   0.645  0.9821  0.1117 -1.7821
 4372SOL     MW17488   3.368   0.918   0.584 -0.1592 -0.2129 -0.6514
 4373SOL     OW17489   4.172   1.574   0.776  0.0921 -0.2380  0.2873
 4373SOL    HW117490   4.139   1.486   0.794  0.6434 -0.3648  0.6818
 4373SOL    HW217491   4.253   1.559   0.728 -0.2158  0.0726 -0.3451
 4373SOL     MW17492   4.178   1.561   0.772  0.1232 -0.2145  0.2569
 4374SOL     OW17493   4.342   1.011   0.483  0.3775 -0.1481  0.6104
 4374SOL    HW117494   4.404   1.038   0.416  0.9131 -0.0729  1.1331
 4374SOL    HW217495   4.365   1.063   0.560 -1.5770  1.3536  0.2797
 4374SOL     MW17496   4.353   1.021   0.485  0.1959  0.0538  0.6350
 4375SOL     OW17497   4.475   3.356   1.846  0.3379  0.1287  0.1108
 4375SOL    HW117498   4.558   3.363   1.895  0.0392 -0.0424  0.6526
 4375SOL    HW217499   4.409   3.344   1.914 -0.2640  1.2844 -0.2526
 4375SOL     MW17500   4.477   3.356   1.861  0.2226  0.2547  0.1337
 4376SOL     OW17501   0.752   2.078   0.442  0.1243 -0.3762  0.1268
 4376SOL    HW117502   0.675   2.038   0.402 -0.2162 -0.8076  1.1650
 4376SOL    HW217503   0.749   2.170   0.413 -0.6991 -0.4215  0.0396
 4376SOL     MW17504   0.742   2.085   0.433 -0.0246 -0.4372  0.2485
 4377SOL     OW17505   1.301   3.917   0.405  0.2922 -0.3264 -0.0841
 4377SOL    HW117506   1.261   3.911   0.318  0.1327 -0.0072 -0.0364
 4377SOL    HW217507   1.323   4.010   0.415  1.3416 -0.5445 -0.2384
 4377SOL     MW17508   1.299   3.928   0.395  0.4061 -0.3134 -0.0977
 4378SOL     OW17509   5.262   3.515   3.226 -0.0882  0.4351  0.6993
 4378SOL    HW117510   5.274   3.445   3.291 -0.1195  0.2475  0.5044
 4378SOL    HW217511   5.206   3.476   3.159 -0.4672  0.7895  0.8070
 4378SOL     MW17512   5.257   3.501   3.226 -0.1407  0.4565  0.6881
 4379SOL     OW17513   1.645   0.557   5.014  0.0029  0.0941  0.2418
 4379SOL    HW117514   1.668   0.518   4.930  0.2779 -0.1423  0.4216
 4379SOL    HW217515   1.719   0.535   5.071  0.6240  1.6676  0.1098
 4379SOL     MW17516   1.658   0.549   5.011  0.1176  0.2652  0.2479
 4380SOL     OW17517   0.854   2.913   4.035 -0.4214  0.0541  0.1889
 4380SOL    HW117518   0.818   2.892   4.121 -0.9847  1.3217  0.2951
 4380SOL    HW217519   0.791   2.975   3.998  0.0746 -0.0935 -0.9314
 4380SOL     MW17520   0.841   2.919   4.041 -0.4300  0.1974  0.0591
 4381SOL     OW17521   0.698   5.035   4.671 -0.1142 -0.1976  0.6872
 4381SOL    HW117522   0.754   5.069   4.602 -1.9719  2.4471  0.3113
 4381SOL    HW217523   0.646   4.967   4.628  0.5387 -0.3872  0.1831
 4381SOL     MW17524   0.698   5.031   4.657 -0.2684  0.1167  0.5746
 4382SOL     OW17525   0.118   1.048   3.120  0.0465 -0.6669  0.3072
 4382SOL    HW117526   0.080   1.080   3.038 -0.2141 -0.2938  0.5719
 4382SOL    HW217527   0.168   0.971   3.094  1.0509  0.1852 -0.4159
 4382SOL     MW17528   0.119   1.042   3.106  0.1417 -0.5101  0.2486
 4383SOL     OW17529   1.509   4.189   1.708 -0.0395  0.1040 -0.1765
 4383SOL    HW117530   1.447   4.118   1.695 -0.0533 -0.1028  0.8929
 4383SOL    HW217531   1.454   4.266   1.728 -0.0207  0.3972 -1.2128
 4383SOL     MW17532   1.494   4.190   1.709 -0.0388  0.1151 -0.1722
 4384SOL     OW17533   5.255   4.560   4.983 -0.1286 -0.6548  0.4071
 4384SOL    HW117534   5.196   4.591   4.914 -0.7080 -0.9775  0.7408
 4384SOL    HW217535   5.335   4.611   4.971 -0.7935  0.4524  0.4973
 4384SOL     MW17536   5.257   4.571   4.973 -0.2879 -0.5544  0.4614
 4385SOL     OW17537   4.770   2.090   1.840 -0.2351 -0.1655  0.2815
 4385SOL    HW117538   4.801   2.095   1.930  2.4572 -1.5608 -0.4690
 4385SOL    HW217539   4.822   2.020   1.800 -2.1351 -0.3635 -2.0779
 4385SOL     MW17540   4.781   2.082   1.846 -0.1337 -0.3695 -0.1166
 4386SOL     OW17541   5.258   0.539   0.398 -0.1407  0.0597  0.4363
 4386SOL    HW117542   5.228   0.629   0.400  1.9553  0.9701 -2.5498
 4386SOL    HW217543   5.187   0.491   0.355 -0.6436  0.5404  0.7074
 4386SOL     MW17544   5.245   0.544   0.393  0.0632  0.2378  0.0888
 4387SOL     OW17545   4.858   1.266   1.549  0.4216 -0.4609 -0.1683
 4387SOL    HW117546   4.823   1.189   1.594  0.8844  0.4319  1.8191
 4387SOL    HW217547   4.790   1.333   1.559  0.9018  0.0104 -0.0368
 4387SOL     MW17548   4.845   1.265   1.556  0.5423 -0.2863  0.1029
 4388SOL     OW17549   4.779   1.160   0.199  0.1987 -0.0315 -0.0273
 4388SOL    HW117550   4.817   1.229   0.145  0.1610 -0.3884 -0.5231
 4388SOL    HW217551   4.741   1.206   0.274  0.6402  0.4310 -0.0804
 4388SOL     MW17552   4.779   1.175   0.202  0.2504 -0.0180 -0.0975
 4389SOL     OW17553   2.822   2.178   2.515  0.7025 -0.9326 -0.1951
 4389SOL    HW117554   2.853   2.220   2.435 -0.1916 -2.0102 -1.1327
 4389SOL    HW217555   2.745   2.229   2.541  1.6276  0.0970  0.6339
 4389SOL     MW17556   2.816   2.190   2.508  0.7064 -0.9387 -0.2090
 4390SOL     OW17557   0.541   4.657   3.750 -0.5330 -0.0264 -0.4544
 4390SOL    HW117558   0.580   4.687   3.668  0.4435  0.2412  0.0922
 4390SOL    HW217559   0.597   4.586   3.779 -1.2330 -0.5360 -0.3255
 4390SOL     MW17560   0.553   4.652   3.743 -0.4976 -0.0574 -0.3680
 4391SOL     OW17561   3.192   5.385   2.269  0.2994 -0.1839 -0.4115
 4391SOL    HW117562   3.220   5.380   2.360 -1.8599 -2.1205  0.2482
 4391SOL    HW217563   3.210   5.298   2.234  0.0270  0.1866 -1.5181
 4391SOL     MW17564   3.198   5.373   2.276 -0.0119 -0.3844 -0.4687
 4392SOL     OW17565   1.051   4.834   0.784 -0.3428 -0.3756  0.4554
 4392SOL    HW117566   1.077   4.925   0.768 -2.7542  0.4289  0.7454
 4392SOL    HW217567   0.958   4.831   0.760 -0.0211 -3.1052 -0.7786
 4392SOL     MW17568   1.042   4.845   0.779 -0.6103 -0.6220  0.3346
 4393SOL     OW17569   0.981   2.986   4.757  0.3231 -0.3340  0.2953
 4393SOL    HW117570   0.910   2.923   4.743  1.2302 -1.1400 -0.7358
 4393SOL    HW217571   1.059   2.943   4.724  1.3915  0.4000  1.7399
 4393SOL     MW17572   0.982   2.973   4.751  0.5760 -0.3432  0.3482
 4394SOL     OW17573   1.633   4.935   4.608 -0.5251 -0.0508  0.1871
 4394SOL    HW117574   1.663   5.002   4.670 -1.5053  0.5280  0.0543
 4394SOL    HW217575   1.692   4.861   4.622  0.6761  0.8975  0.2205
 4394SOL     MW17576   1.644   4.934   4.618 -0.4968  0.1447  0.1744
 4395SOL     OW17577   5.119   2.700   2.700  0.1653  0.1978  0.5646
 4395SOL    HW117578   5.159   2.650   2.628 -1.6704  0.8963 -1.0319
 4395SOL    HW217579   5.181   2.771   2.716 -0.3421  1.3249 -1.9162
 4395SOL     MW17580   5.132   2.703   2.693 -0.1346  0.4315  0.0426
 4396SOL     OW17581   3.989   4.546   3.360  0.1497 -0.2876 -0.4891
 4396SOL    HW117582   4.047   4.608   3.404 -2.2910  1.7700  0.0982
 4396SOL    HW217583   3.968   4.481   3.426  0.2379  0.0738 -0.0986
 4396SOL     MW17584   3.994   4.546   3.374 -0.1514  0.0220 -0.3639
 4397SOL     OW17585   2.639   1.629   2.923 -0.4242  0.1719  0.4901
 4397SOL    HW117586   2.683   1.713   2.936  0.1696 -0.3459  2.0199
 4397SOL    HW217587   2.671   1.598   2.838  0.1638  0.9937  0.4004
 4397SOL     MW17588   2.648   1.636   2.914 -0.2730  0.2108  0.6744
 4398SOL     OW17589   0.250   2.096   2.711 -0.2419  0.2267 -0.0096
 4398SOL    HW117590   0.196   2.161   2.757  0.4576 -0.0683  1.2809
 4398SOL    HW217591   0.243   2.017   2.764  0.7061 -0.0839 -0.3193
 4398SOL     MW17592   0.243   2.094   2.724 -0.0310  0.1492  0.1159
 4399SOL     OW17593   5.180   3.002   0.409  0.4089 -0.3699  0.1426
 4399SOL    HW117594   5.173   3.017   0.315  0.3773 -0.4346  0.1351
 4399SOL    HW217595   5.274   3.003   0.426  0.5715 -2.8418 -0.2857
 4399SOL     MW17596   5.191   3.004   0.399  0.4257 -0.6946  0.0869
 4400SOL     OW17597   2.011   2.091   4.859 -0.5426  0.2759 -0.0416
 4400SOL    HW117598   2.024   2.153   4.787  0.4324 -0.5929 -0.6379
 4400SOL    HW217599   1.965   2.017   4.820  0.5361 -0.4704  0.0633
 4400SOL     MW17600   2.007   2.090   4.845 -0.2797  0.0692 -0.1045
 4401SOL     OW17601   1.579   3.167   4.757  0.4296 -0.4148 -0.5186
 4401SOL    HW117602   1.633   3.100   4.715 -1.2657 -0.8903 -2.0757
 4401SOL    HW217603   1.642   3.231   4.790  1.9612 -0.4043 -3.1402
 4401SOL     MW17604   1.594   3.166   4.756  0.4086 -0.4743 -1.0536
 4402SOL     OW17605   2.429   4.661   1.415  0.0759 -0.4520 -0.4178
 4402SOL    HW117606   2.483   4.624   1.484  3.7109  2.0423 -1.6108
 4402SOL    HW217607   2.394   4.742   1.453 -0.9933 -0.9013 -0.4049
 4402SOL     MW17608   2.431   4.667   1.429  0.4044 -0.1902 -0.5688
 4403SOL     OW17609   0.006   5.277   0.521 -0.1134 -0.0399  0.1593
 4403SOL    HW117610  -0.027   5.313   0.439  0.7618 -0.0332 -0.1945
 4403SOL    HW217611   0.076   5.337   0.547 -1.1437  0.6390  1.5347
 4403SOL     MW17612   0.011   5.290   0.514 -0.1333  0.0478  0.2901
 4404SOL     OW17613   2.192   2.164   0.181 -0.3371  0.2288  0.0238
 4404SOL    HW117614   2.197   2.075   0.145 -0.7686  0.8856 -1.7545
 4404SOL    HW217615   2.124   2.207   0.130  0.0653  1.6809  0.6497
 4404SOL     MW17616   2.184   2.158   0.170 -0.3409  0.4988 -0.1237
 4405SOL     OW17617   0.204   5.076   4.443  0.3748 -0.4063  0.1864
 4405SOL    HW117618   0.235   5.064   4.354  0.1077 -1.2175  0.1976
 4405SOL    HW217619   0.269   5.032   4.498 -0.4801 -1.6172  0.2475
 4405SOL     MW17620   0.216   5.069   4.439  0.2312 -0.6652  0.1957
 4406SOL     OW17621   1.187   0.442   2.587 -0.1800 -0.8072  0.0725
 4406SOL    HW117622   1.271   0.487   2.600 -0.5885 -0.3161  1.1615
 4406SOL    HW217623   1.189   0.413   2.496  1.4236 -1.3231  0.2355
 4406SOL     MW17624   1.198   0.444   2.577 -0.0270 -0.8104  0.2328
 4407SOL     OW17625   3.110   1.396   5.189 -0.1097 -0.3288 -0.1049
 4407SOL    HW117626   3.041   1.438   5.137  0.1227 -0.9701 -0.9550
 4407SOL    HW217627   3.192   1.428   5.150  0.0734 -1.6173 -0.8396
 4407SOL     MW17628   3.112   1.406   5.177 -0.0565 -0.5758 -0.3078
 4408SOL     OW17629   4.301   0.097   1.670  0.8706 -0.3791 -0.2122
 4408SOL    HW117630   4.247   0.144   1.733  0.6447 -0.1596 -0.5622
 4408SOL    HW217631   4.249   0.020   1.646  0.6008 -0.0395 -0.7329
 4408SOL     MW17632   4.288   0.093   1.675  0.8071 -0.3075 -0.3237
 4409SOL     OW17633   1.542   3.749   2.900  0.0036 -0.2383  0.0261
 4409SOL    HW117634   1.634   3.738   2.922  0.1924 -1.0651 -1.0740
 4409SOL    HW217635   1.498   3.675   2.943 -0.1739  0.2481  0.6859
 4409SOL     MW17636   1.548   3.738   2.908  0.0050 -0.2819 -0.0303
 4410SOL     OW17637   2.360   0.627   4.805  0.3652 -0.0946 -0.1548
 4410SOL    HW117638   2.362   0.535   4.833 -0.4390  0.0490  0.4026
 4410SOL    HW217639   2.347   0.676   4.886  1.2591  0.5572 -0.3816
 4410SOL     MW17640   2.359   0.621   4.819  0.3767  0.0072 -0.1125
 4411SOL     OW17641   5.349   2.390   3.318  0.0396 -0.0216  0.4472
 4411SOL    HW117642   5.402   2.441   3.379  1.5829  0.0310 -0.8613
 4411SOL    HW217643   5.380   2.417   3.231  0.2980 -2.5230 -0.3085
 4411SOL     MW17644   5.360   2.400   3.315  0.2702 -0.3351  0.1830
 4412SOL     OW17645   1.019   1.548   3.177 -0.1017 -0.3417  0.7566
 4412SOL    HW117646   1.061   1.549   3.091  1.2850  1.6433  1.3950
 4412SOL    HW217647   0.952   1.616   3.171  0.4220  0.2351  1.4463
 4412SOL     MW17648   1.015   1.557   3.165  0.1429 -0.0137  0.9266
 4413SOL     OW17649   3.258   3.906   4.695  0.6440  0.4954 -0.2532
 4413SOL    HW117650   3.180   3.951   4.661 -1.7795 -1.8599  1.7393
 4413SOL    HW217651   3.280   3.842   4.627 -0.8647 -0.5856  0.2182
 4413SOL     MW17652   3.251   3.904   4.682  0.1407  0.0555  0.0622
 4414SOL     OW17653   4.077   0.236   4.150 -0.6426 -0.0416  0.1349
 4414SOL    HW117654   4.045   0.302   4.212  0.2463  1.4122 -0.8805
 4414SOL    HW217655   4.007   0.171   4.146 -0.6372 -0.3432  2.8140
 4414SOL     MW17656   4.064   0.236   4.158 -0.5282  0.1059  0.3479
 4415SOL     OW17657   4.721   3.227   0.941 -0.3746  0.3753 -0.2659
 4415SOL    HW117658   4.703   3.275   0.860 -0.8632  0.5971 -0.0343
 4415SOL    HW217659   4.734   3.296   1.006  0.0870  0.1965 -0.1707
 4415SOL     MW17660   4.720   3.242   0.939 -0.3781  0.3808 -0.2241
 4416SOL     OW17661   0.683   4.878   1.297 -0.6133  0.3820  0.0269
 4416SOL    HW117662   0.615   4.838   1.243 -0.0174 -1.0372  0.2808
 4416SOL    HW217663   0.729   4.804   1.336  0.6181  1.3309  0.4324
 4416SOL     MW17664   0.680   4.863   1.295 -0.3794  0.3218  0.1113
 4417SOL     OW17665   2.263   0.247   5.424  0.0490 -0.0724  0.0407
 4417SOL    HW117666   2.271   0.228   5.518 -0.7046 -0.4196  0.0496
 4417SOL    HW217667   2.349   0.228   5.388  0.2899 -0.1309  0.6363
 4417SOL     MW17668   2.275   0.242   5.432 -0.0167 -0.1243  0.1181
 4418SOL     OW17669   0.861   3.490   1.362 -0.3575 -0.3375  0.2981
 4418SOL    HW117670   0.855   3.504   1.267  0.5324 -1.9742 -0.0399
 4418SOL    HW217671   0.779   3.446   1.384 -0.4447 -0.2088  0.2336
 4418SOL     MW17672   0.849   3.486   1.352 -0.2548 -0.5305  0.2465
 4419SOL     OW17673   0.355   4.369   3.026 -0.2346  0.0843  0.6092
 4419SOL    HW117674   0.340   4.368   3.120 -0.1260 -0.4853  0.6231
 4419SOL    HW217675   0.326   4.282   2.996  0.4734 -0.0279  0.2327
 4419SOL     MW17676   0.349   4.357   3.034 -0.1301 -0.0030  0.5628
 4420SOL     OW17677   4.056   2.426   3.122 -0.3288 -0.2945 -0.3454
 4420SOL    HW117678   3.994   2.408   3.193 -0.4669 -0.6696 -0.5566
 4420SOL    HW217679   4.139   2.442   3.166  0.4452 -3.8713 -0.1528
 4420SOL     MW17680   4.059   2.425   3.137 -0.2474 -0.8004 -0.3478
 4421SOL     OW17681   0.777   5.071   2.629 -0.0518 -0.7313 -0.1764
 4421SOL    HW117682   0.786   5.129   2.705  0.2367  1.6731 -1.9340
 4421SOL    HW217683   0.861   5.027   2.621  0.8069  0.9023 -0.5202
 4421SOL     MW17684   0.789   5.073   2.638  0.0950 -0.2144 -0.4454
 4422SOL     OW17685   2.743   3.286   1.494 -0.0315  0.2011  0.2928
 4422SOL    HW117686   2.774   3.198   1.516  1.9274  0.7724  0.0051
 4422SOL    HW217687   2.699   3.317   1.573 -0.9850 -1.1202  0.3074
 4422SOL     MW17688   2.741   3.279   1.507  0.0972  0.1051  0.2579
 4423SOL     OW17689   1.753   1.581   1.012 -0.2551 -0.4293 -0.1553
 4423SOL    HW117690   1.704   1.660   1.035 -0.7359 -0.9557  0.6537
 4423SOL    HW217691   1.753   1.529   1.092  1.6512 -0.4351 -0.1103
 4423SOL     MW17692   1.747   1.585   1.025 -0.0726 -0.4975 -0.0460
 4424SOL     OW17693   3.585   3.206   4.055 -0.4699 -0.2799 -0.2907
 4424SOL    HW117694   3.499   3.240   4.030 -0.3183 -0.1409 -0.6369
 4424SOL    HW217695   3.585   3.210   4.150 -1.7052 -2.4184 -0.1527
 4424SOL     MW17696   3.574   3.211   4.064 -0.6086 -0.5359 -0.3173
 4425SOL     OW17697   4.398   0.143   2.758  0.4666 -0.1303  0.1125
 4425SOL    HW117698   4.484   0.114   2.729  0.2790 -0.8991  0.3076
 4425SOL    HW217699   4.337   0.077   2.724 -0.3309  1.5481 -1.9350
 4425SOL     MW17700   4.401   0.131   2.750  0.3405 -0.0139 -0.1246
 4426SOL     OW17701   0.985   4.388   3.586  0.3215  0.1756 -0.1991
 4426SOL    HW117702   0.977   4.452   3.657  0.0001 -0.7453  0.6133
 4426SOL    HW217703   0.903   4.338   3.590 -0.3442  1.0075 -2.1305
 4426SOL     MW17704   0.973   4.390   3.596  0.1952  0.1642 -0.3423
 4427SOL     OW17705   0.506   1.899   3.072  0.1399  0.6225 -0.2967
 4427SOL    HW117706   0.580   1.903   3.012  0.2350 -2.1373 -0.4934
 4427SOL    HW217707   0.541   1.927   3.156  1.3806 -0.3497 -0.4542
 4427SOL     MW17708   0.520   1.903   3.075  0.3109  0.1447 -0.3420
 4428SOL     OW17709   0.825   4.308   1.560  0.2500 -0.2674 -1.1114
 4428SOL    HW117710   0.815   4.393   1.603  2.6004 -0.6864  0.3826
 4428SOL    HW217711   0.799   4.324   1.469  0.1506  1.9014 -0.7408
 4428SOL     MW17712   0.820   4.321   1.554  0.5382 -0.0434 -0.8727
 4429SOL     OW17713   0.461   0.467   1.291  0.0912  0.8597 -0.1366
 4429SOL    HW117714   0.471   0.549   1.243  0.0602  1.1535  0.3550
 4429SOL    HW217715   0.374   0.434   1.265 -0.5664  1.7598  0.8316
 4429SOL     MW17716   0.451   0.473   1.281  0.0030  1.0125  0.0503
 4430SOL     OW17717   3.677   1.257   3.939  0.5892  0.3880 -0.3167
 4430SOL    HW117718   3.694   1.210   4.021  1.3748 -0.2224 -0.8053
 4430SOL    HW217719   3.591   1.226   3.911  1.3509 -1.3098 -0.9541
 4430SOL     MW17720   3.668   1.247   3.946  0.7873  0.0925 -0.4608
 4431SOL     OW17721   3.919   5.405   0.034 -0.0850 -0.0954  0.4982
 4431SOL    HW117722   3.858   5.356  -0.022  0.2631  0.7077 -0.6048
 4431SOL    HW217723   3.868   5.480   0.064 -0.2346 -0.4637  1.1941
 4431SOL     MW17724   3.904   5.408   0.030 -0.0596 -0.0397  0.4461
 4432SOL     OW17725   3.944   5.327   2.552  0.1771  0.4955 -0.1286
 4432SOL    HW117726   3.926   5.407   2.502  0.1504  0.8369  0.4258
 4432SOL    HW217727   3.863   5.310   2.600  0.9723  1.5435  1.6859
 4432SOL     MW17728   3.931   5.335   2.551  0.2755  0.6733  0.1746
 4433SOL     OW17729   2.187   3.968   3.672 -0.2108 -0.4773  0.4267
 4433SOL    HW117730   2.197   3.899   3.606 -0.7670 -1.2310  1.1152
 4433SOL    HW217731   2.100   3.954   3.708 -0.6415  1.0853  0.0466
 4433SOL     MW17732   2.177   3.957   3.668 -0.3371 -0.3738  0.4662
 4434SOL     OW17733   5.116   2.364   3.616  0.3623 -0.7107  0.3386
 4434SOL    HW117734   5.064   2.371   3.536  1.5587 -0.0501 -0.4059
 4434SOL    HW217735   5.187   2.304   3.595  1.1383  0.0661  0.6301
 4434SOL     MW17736   5.118   2.357   3.603  0.6148 -0.5267  0.2806
 4435SOL     OW17737   0.563   2.374   4.533 -0.2973  0.3587 -0.2041
 4435SOL    HW117738   0.525   2.383   4.620 -0.8442  0.2985 -0.4282
 4435SOL    HW217739   0.654   2.350   4.548 -0.1077  1.4036  0.3572
 4435SOL     MW17740   0.569   2.372   4.546 -0.3430  0.4847 -0.1609
 4436SOL     OW17741   4.734   2.196   1.184 -0.1214  0.0798  0.0271
 4436SOL    HW117742   4.639   2.207   1.180 -0.4446 -1.3873  1.8071
 4436SOL    HW217743   4.770   2.272   1.137 -2.1448  1.5325  0.6854
 4436SOL     MW17744   4.727   2.207   1.178 -0.4218  0.0780  0.3392
 4437SOL     OW17745   2.775   0.240   3.544 -0.4813  0.7233 -0.0095
 4437SOL    HW117746   2.720   0.315   3.567 -0.8415  0.4809 -0.0699
 4437SOL    HW217747   2.758   0.176   3.613 -0.7484  0.4064 -0.3669
 4437SOL     MW17748   2.766   0.241   3.556 -0.5616  0.6517 -0.0630
 4438SOL     OW17749   3.782   3.602   2.229  0.3426  0.1429  0.8022
 4438SOL    HW117750   3.792   3.630   2.139 -0.6839 -1.6829  0.0626
 4438SOL    HW217751   3.699   3.641   2.258 -1.0566 -1.8724 -0.2065
 4438SOL     MW17752   3.772   3.610   2.221  0.0321 -0.3488  0.5784
 4439SOL     OW17753   1.345   0.920   4.822  0.0748 -0.0435  0.3761
 4439SOL    HW117754   1.363   0.926   4.916  1.3590  0.0632  0.1470
 4439SOL    HW217755   1.359   0.827   4.801 -3.0608 -0.7204  0.7831
 4439SOL     MW17756   1.349   0.909   4.831 -0.1622 -0.1165  0.3988
 4440SOL     OW17757   0.442   3.095   2.893  0.4425  0.4649 -0.1422
 4440SOL    HW117758   0.482   3.055   2.815  1.0431  1.2026 -0.2332
 4440SOL    HW217759   0.353   3.117   2.865 -0.2706 -1.7556  0.2513
 4440SOL     MW17760   0.436   3.093   2.879  0.4281  0.2751 -0.1035
 4441SOL     OW17761   4.062   3.120   4.495  0.3947 -0.3919 -0.3930
 4441SOL    HW117762   3.988   3.105   4.554  0.3506 -1.5459 -0.7162
 4441SOL    HW217763   4.023   3.162   4.418  0.3943  0.7615  0.2095
 4441SOL     MW17764   4.047   3.124   4.493  0.3890 -0.3920 -0.3573
 4442SOL     OW17765   3.122   2.719   3.315 -0.4282  0.1762 -0.7073
 4442SOL    HW117766   3.069   2.671   3.379 -0.6379 -1.4611 -2.0485
 4442SOL    HW217767   3.099   2.680   3.231  2.9250 -0.6724 -1.3681
 4442SOL     MW17768   3.112   2.708   3.313 -0.0258 -0.1420 -0.9636
 4443SOL     OW17769   5.400   3.602   4.752  0.3574 -0.3268 -0.0617
 4443SOL    HW117770   5.411   3.665   4.681  0.2959  0.4674  0.6317
 4443SOL    HW217771   5.305   3.592   4.762  0.3524  0.3067  0.5597
 4443SOL     MW17772   5.389   3.609   4.744  0.3489 -0.1440  0.1066
 4444SOL     OW17773   3.781   4.939   5.048  0.2425 -0.1892  0.1200
 4444SOL    HW117774   3.725   4.989   5.107  0.5570  2.7855 -1.8669
 4444SOL    HW217775   3.844   5.004   5.014  2.3820 -2.5267 -0.7314
 4444SOL     MW17776   3.782   4.954   5.051  0.5566 -0.1076 -0.2433
 4445SOL     OW17777   1.343   4.660   3.510 -0.1025  0.5772 -0.0328
 4445SOL    HW117778   1.437   4.676   3.506  0.0158  0.3331  1.3544
 4445SOL    HW217779   1.334   4.566   3.492  0.1793  0.0563  2.2479
 4445SOL     MW17780   1.354   4.650   3.507 -0.0513  0.4793  0.4368
 4446SOL     OW17781   5.287   1.812   0.690 -0.0224  0.4420 -0.0079
 4446SOL    HW117782   5.274   1.874   0.761 -2.3498 -0.1380  0.1726
 4446SOL    HW217783   5.345   1.745   0.726  2.1106  2.1823 -0.0538
 4446SOL     MW17784   5.293   1.811   0.703 -0.0473  0.5905  0.0094
 4447SOL     OW17785   4.314   5.255   0.443 -0.4933 -0.1273 -0.3115
 4447SOL    HW117786   4.264   5.174   0.440  0.6095 -0.9138  1.0653
 4447SOL    HW217787   4.268   5.314   0.384 -1.6552 -1.5609 -0.9040
 4447SOL     MW17788   4.302   5.252   0.435 -0.5009 -0.4115 -0.2111
 4448SOL     OW17789   0.993   3.100   0.602 -0.3119  0.1385 -0.1525
 4448SOL    HW117790   1.072   3.054   0.631 -0.2891  1.1107  1.4437
 4448SOL    HW217791   0.927   3.031   0.596  0.5572 -0.6425 -1.2180
 4448SOL     MW17792   0.995   3.085   0.605 -0.1977  0.1630 -0.0845
 4449SOL     OW17793   1.716   2.139   4.892  0.1296  0.4257 -0.4039
 4449SOL    HW117794   1.684   2.079   4.825  1.5345  0.1304 -0.8376
 4449SOL    HW217795   1.809   2.120   4.900 -0.1027 -0.0474  2.1507
 4449SOL     MW17796   1.724   2.129   4.884  0.2797  0.3273 -0.1324
 4450SOL     OW17797   3.576   4.903   2.269 -0.5273  0.2168 -0.0649
 4450SOL    HW117798   3.592   4.997   2.282  0.6301 -0.2253  2.0436
 4450SOL    HW217799   3.663   4.865   2.263 -0.9897 -0.8094 -0.4481
 4450SOL     MW17800   3.589   4.910   2.270 -0.4383  0.0289  0.1559
 4451SOL     OW17801   1.910   0.094   1.480 -0.0202  0.1444  0.2457
 4451SOL    HW117802   1.848   0.148   1.431 -0.3422 -1.3837 -1.0857
 4451SOL    HW217803   1.989   0.095   1.427  1.2355  2.1632  1.9839
 4451SOL     MW17804   1.912   0.101   1.467  0.0993  0.2072  0.2977
 4452SOL     OW17805   2.901   2.865   4.518  0.4812 -0.3549  0.0681
 4452SOL    HW117806   2.884   2.950   4.558  0.2797 -0.1937 -0.3457
 4452SOL    HW217807   2.879   2.801   4.585  1.4272 -0.0648  0.6775
 4452SOL     MW17808   2.896   2.868   4.531  0.5765 -0.2971  0.0932
 4453SOL     OW17809   4.612   2.909   4.358  0.3106 -0.0541 -0.3278
 4453SOL    HW117810   4.597   2.982   4.418 -1.1538  0.1021 -0.8416
 4453SOL    HW217811   4.666   2.945   4.288  0.2220  0.3406 -0.1950
 4453SOL     MW17812   4.617   2.923   4.357  0.1118  0.0164 -0.3766
 4454SOL     OW17813   1.785   3.544   0.839 -0.2279  0.2295 -0.2388
 4454SOL    HW117814   1.809   3.458   0.805 -0.5725  0.8237 -2.0969
 4454SOL    HW217815   1.774   3.530   0.933  0.4444 -1.5837 -0.3891
 4454SOL     MW17816   1.787   3.531   0.847 -0.1860  0.0734 -0.4959
 4455SOL     OW17817   5.053   3.734   1.681 -0.4585  0.0247 -0.2887
 4455SOL    HW117818   4.987   3.802   1.694 -1.4208 -1.1399  1.3065
 4455SOL    HW217819   5.135   3.774   1.709 -0.8753  0.7611 -0.0802
 4455SOL     MW17820   5.055   3.748   1.686 -0.6350 -0.0301 -0.0578
 4456SOL     OW17821   4.532   1.936   3.544 -0.2092  0.1568  0.0174
 4456SOL    HW117822   4.626   1.918   3.552 -0.6511 -1.6766  2.3985
 4456SOL    HW217823   4.523   2.027   3.571  0.8585  0.2967 -0.0474
 4456SOL     MW17824   4.543   1.945   3.549 -0.1291 -0.0600  0.3139
 4457SOL     OW17825   4.304   4.705   4.539 -0.2051  0.2423  0.4650
 4457SOL    HW117826   4.377   4.712   4.477  0.8641  0.3459  1.6761
 4457SOL    HW217827   4.239   4.651   4.494  0.5595  0.2611 -0.7081
 4457SOL     MW17828   4.305   4.699   4.525  0.0297  0.2580  0.4699
 4458SOL     OW17829   4.528   5.334   0.739  0.0281 -0.0128 -0.5536
 4458SOL    HW117830   4.599   5.324   0.676 -0.6586 -1.3030 -1.1612
 4458SOL    HW217831   4.471   5.401   0.701  0.5066  0.4657 -0.4394
 4458SOL     MW17832   4.530   5.341   0.726  0.0015 -0.1167 -0.6168
 4459SOL     OW17833   2.216   4.830   5.484 -0.0279 -0.3990  0.3054
 4459SOL    HW117834   2.184   4.797   5.400 -2.4140 -0.9865  1.3835
 4459SOL    HW217835   2.223   4.925   5.472  2.3350 -0.6829 -1.3387
 4459SOL     MW17836   2.213   4.838   5.472 -0.0309 -0.5106  0.2329
 4460SOL     OW17837   2.041   3.949   4.176 -0.0090  0.0581 -0.2761
 4460SOL    HW117838   2.060   4.042   4.162  0.8115  0.1519  1.3395
 4460SOL    HW217839   1.949   3.940   4.149 -0.3425  1.5120  0.2644
 4460SOL     MW17840   2.031   3.960   4.171  0.0533  0.2562 -0.0001
 4461SOL     OW17841   4.245   2.344   0.377  0.2105  0.3143  0.0513
 4461SOL    HW117842   4.245   2.401   0.300  0.2008  0.0681 -0.1307
 4461SOL    HW217843   4.251   2.256   0.342 -0.2273  0.1768  0.3138
 4461SOL     MW17844   4.246   2.340   0.363  0.1532  0.2652  0.0616
 4462SOL     OW17845   2.396   4.150   1.285  0.0579 -0.6417  0.2719
 4462SOL    HW117846   2.357   4.096   1.216 -0.9361 -0.1133  0.4107
 4462SOL    HW217847   2.461   4.203   1.239 -1.3186  0.4599 -0.4930
 4462SOL     MW17848   2.399   4.150   1.270 -0.2455 -0.4330  0.1917
 4463SOL     OW17849   3.256   4.233   3.662  0.3963 -0.2568 -0.1008
 4463SOL    HW117850   3.298   4.244   3.577  0.2712  0.7654 -0.0416
 4463SOL    HW217851   3.180   4.178   3.645 -1.0605  1.9672 -1.1274
 4463SOL     MW17852   3.252   4.227   3.649  0.1938  0.1588 -0.2247
 4464SOL     OW17853   0.324   0.963   5.299 -0.4410 -0.0002 -0.7204
 4464SOL    HW117854   0.273   0.886   5.326 -1.0196  0.0493 -1.6601
 4464SOL    HW217855   0.286   0.990   5.216  0.3772  0.7389 -0.8716
 4464SOL     MW17856   0.313   0.956   5.292 -0.4104  0.1007 -0.8600
 4465SOL     OW17857   5.232   2.632   5.182 -0.0372 -0.2338 -0.1006
 4465SOL    HW117858   5.175   2.591   5.116  2.0523  0.2025 -2.3392
 4465SOL    HW217859   5.253   2.561   5.243 -0.0944 -1.3488 -1.3249
 4465SOL     MW17860   5.227   2.618   5.181  0.2230 -0.3207 -0.5439
 4466SOL     OW17861   3.684   5.376   2.848 -0.1692 -0.6075  0.4941
 4466SOL    HW117862   3.768   5.411   2.876 -0.8519 -0.7930  3.0302
 4466SOL    HW217863   3.622   5.448   2.859 -0.8604 -1.3585  1.7578
 4466SOL     MW17864   3.687   5.389   2.853 -0.3451 -0.7274  0.9805
 4467SOL     OW17865   5.402   4.630   2.059  0.2438 -0.4836 -0.1551
 4467SOL    HW117866   5.493   4.639   2.088 -0.2756  0.4414  1.2933
 4467SOL    HW217867   5.367   4.558   2.110  0.1105 -0.7259 -0.5849
 4467SOL     MW17868   5.409   4.622   2.069  0.1602 -0.3962 -0.0247
 4468SOL     OW17869   1.295   1.241   0.715 -0.3245  0.0639  0.6207
 4468SOL    HW117870   1.222   1.184   0.740 -0.3005  0.5112  1.7558
 4468SOL    HW217871   1.261   1.291   0.639 -0.7370 -0.6375  0.3339
 4468SOL     MW17872   1.281   1.240   0.708 -0.3742  0.0313  0.7293
 4469SOL     OW17873   0.428   4.105   4.104 -0.2431 -0.1342 -0.2788
 4469SOL    HW117874   0.340   4.085   4.135  0.0968  0.3212  1.0664
 4469SOL    HW217875   0.456   4.025   4.059 -0.4622 -1.1960  1.3650
 4469SOL     MW17876   0.420   4.092   4.102 -0.2277 -0.2118  0.1038
 4470SOL     OW17877   0.208   2.865   5.340  0.3770  0.1027  0.0524
 4470SOL    HW117878   0.187   2.776   5.369  0.6184 -0.0284 -0.1688
 4470SOL    HW217879   0.154   2.877   5.261 -0.3325  0.4849  0.5919
 4470SOL     MW17880   0.198   2.855   5.333  0.3171  0.1348  0.0932
 4471SOL     OW17881   1.160   2.798   0.408  0.3421  0.0579  0.2031
 4471SOL    HW117882   1.230   2.862   0.392  0.2269 -0.1092 -1.0613
 4471SOL    HW217883   1.181   2.724   0.351 -1.0148  0.1300 -0.4347
 4471SOL     MW17884   1.172   2.797   0.399  0.1537  0.0457 -0.0404
 4472SOL     OW17885   4.418   4.751   5.415 -0.4315  0.0246 -0.1428
 4472SOL    HW117886   4.333   4.792   5.399  0.3265  1.5569 -0.4986
 4472SOL    HW217887   4.475   4.825   5.438  0.8763 -0.9349 -0.2178
 4472SOL     MW17888   4.414   4.766   5.416 -0.1670  0.0980 -0.1979
 4473SOL     OW17889   2.803   0.665   3.576  0.1346 -0.8803  0.3872
 4473SOL    HW117890   2.891   0.647   3.611  0.7290 -2.0218 -1.5202
 4473SOL    HW217891   2.818   0.725   3.503 -0.4391 -2.2655 -0.9278
 4473SOL     MW17892   2.816   0.670   3.572  0.1372 -1.2037 -0.0253
 4474SOL     OW17893   3.701   2.435   4.856  0.1736 -0.2420  0.0495
 4474SOL    HW117894   3.738   2.464   4.772 -0.2762 -1.4534 -0.6041
 4474SOL    HW217895   3.770   2.382   4.895  0.0531 -0.4385  0.0005
 4474SOL     MW17896   3.715   2.432   4.850  0.1006 -0.4222 -0.0404
 4475SOL     OW17897   4.770   4.287   5.087 -0.1552 -0.0743  0.2844
 4475SOL    HW117898   4.804   4.201   5.113  1.2468 -0.1200 -1.5178
 4475SOL    HW217899   4.809   4.348   5.150  1.0245 -0.4763 -0.0208
 4475SOL     MW17900   4.779   4.284   5.099  0.1753 -0.1316  0.0146
 4476SOL     OW17901   0.780   0.211   0.031  0.3186  0.7125  0.0978
 4476SOL    HW117902   0.786   0.170  -0.055 -0.5990  1.5015 -0.3608
 4476SOL    HW217903   0.818   0.147   0.091 -2.5461 -1.5858 -0.3432
 4476SOL     MW17904   0.786   0.198   0.028 -0.1655  0.5193 -0.0174
 4477SOL     OW17905   1.332   4.059   5.032 -0.4645  0.3138  0.3373
 4477SOL    HW117906   1.401   4.038   4.969 -0.5256  0.4218  0.2352
 4477SOL    HW217907   1.360   4.016   5.113 -0.6546 -0.2804  0.0967
 4477SOL     MW17908   1.344   4.050   5.034 -0.4967  0.2515  0.2935
 4478SOL     OW17909   0.281   4.534   0.882 -0.0877  0.2621  0.8323
 4478SOL    HW117910   0.302   4.623   0.912 -0.9829  0.3589  1.1838
 4478SOL    HW217911   0.213   4.504   0.941  0.1860 -0.6593  0.6955
 4478SOL     MW17912   0.275   4.542   0.894 -0.1673  0.1565  0.8598
 4479SOL     OW17913   2.068   4.294   1.884  0.1090 -1.0823  0.0725
 4479SOL    HW117914   2.066   4.269   1.977  0.7345  1.1264  0.7381
 4479SOL    HW217915   1.995   4.354   1.874  0.8521 -0.2487 -0.5067
 4479SOL     MW17916   2.058   4.299   1.895  0.2842 -0.6929  0.0835
 4480SOL     OW17917   2.860   3.369   4.926 -0.6131  0.2233 -0.0825
 4480SOL    HW117918   2.781   3.391   4.877 -1.0819 -0.1169  0.5136
 4480SOL    HW217919   2.829   3.344   5.013 -0.0213 -1.7209 -0.3834
 4480SOL     MW17920   2.846   3.369   4.931 -0.5974 -0.0691 -0.0447
 4481SOL     OW17921   1.923   2.501   1.433  0.0288 -0.4718  0.6753
 4481SOL    HW117922   1.858   2.443   1.394  0.3392 -0.1320 -0.3796
 4481SOL    HW217923   1.983   2.443   1.480  0.8667 -1.1392 -1.1326
 4481SOL     MW17924   1.923   2.486   1.434  0.1758 -0.5137  0.3089
 4482SOL     OW17925   4.707   0.908   0.111 -0.2347  0.0501  0.0716
 4482SOL    HW117926   4.762   0.847   0.159  1.0306  0.7279 -0.4765
 4482SOL    HW217927   4.726   0.993   0.151  0.5909  0.5769 -1.3756
 4482SOL     MW17928   4.716   0.911   0.122  0.0330  0.2043 -0.1838
 4483SOL     OW17929   5.106   1.025   4.242 -0.0544  0.6724  0.5698
 4483SOL    HW117930   5.132   0.973   4.166 -0.6482  0.1042  0.7497
 4483SOL    HW217931   5.150   0.983   4.316  0.4557  1.1752  0.5634
 4483SOL     MW17932   5.115   1.013   4.242 -0.0651  0.6640  0.5920
 4484SOL     OW17933   4.890   3.502   4.221  0.2667  0.1190  0.2131
 4484SOL    HW117934   4.797   3.514   4.237  0.0132 -1.7216  0.2626
 4484SOL    HW217935   4.895   3.462   4.134  1.0237  0.2712  0.1753
 4484SOL     MW17936   4.879   3.499   4.212  0.3311 -0.0971  0.2146
 4485SOL     OW17937   4.774   1.283   2.648  0.0969 -0.3701 -0.2863
 4485SOL    HW117938   4.768   1.364   2.597 -0.8634  1.4874  2.5133
 4485SOL    HW217939   4.863   1.282   2.682 -0.0246 -0.2132  0.0455
 4485SOL     MW17940   4.785   1.294   2.646 -0.0416 -0.1122  0.1146
 4486SOL     OW17941   4.286   3.562   3.018 -0.3135  0.5675  1.0724
 4486SOL    HW117942   4.238   3.632   2.974 -1.4123 -0.0936  1.1847
 4486SOL    HW217943   4.320   3.508   2.947  0.5066  1.1820  0.9870
 4486SOL     MW17944   4.284   3.564   3.003 -0.3492  0.5615  1.0758
 4487SOL     OW17945   2.412   1.507   4.785 -0.1955 -0.3418 -0.8872
 4487SOL    HW117946   2.455   1.581   4.743 -0.3059  0.3729  0.2202
 4487SOL    HW217947   2.484   1.456   4.822 -0.0890  2.9266  4.5037
 4487SOL     MW17948   2.427   1.510   4.784 -0.1960  0.1681 -0.0553
 4488SOL     OW17949   0.137   0.431   1.562  0.5284  0.6033  0.1957
 4488SOL    HW117950   0.185   0.469   1.635 -0.0878  1.4267  0.1950
 4488SOL    HW217951   0.059   0.487   1.552  0.3638  0.2362 -0.7842
 4488SOL     MW17952   0.133   0.443   1.570  0.4285  0.6617  0.0702
 4489SOL     OW17953   4.497   3.205   3.113 -0.0154  0.4963 -0.0312
 4489SOL    HW117954   4.546   3.164   3.184  0.6307  2.6968  0.9103
 4489SOL    HW217955   4.560   3.266   3.074 -0.5867 -0.1209 -2.0482
 4489SOL     MW17956   4.512   3.208   3.117 -0.0058  0.6990 -0.1689
 4490SOL     OW17957   2.089   0.703   0.069 -0.2547  0.3494  0.3056
 4490SOL    HW117958   2.100   0.613   0.098 -0.3094  0.3296  0.2643
 4490SOL    HW217959   2.015   0.701   0.009  0.4999  0.2154 -0.6378
 4490SOL     MW17960   2.081   0.692   0.065 -0.1651  0.3297  0.1795
 4491SOL     OW17961   0.356   0.199   3.835  0.1079 -0.1561  0.6014
 4491SOL    HW117962   0.369   0.141   3.910 -1.0484 -1.3209 -0.0553
 4491SOL    HW217963   0.273   0.245   3.853  0.0748 -0.0778  0.2671
 4491SOL     MW17964   0.347   0.198   3.847 -0.0443 -0.2952  0.4746
 4492SOL     OW17965   2.062   0.838   4.941  0.4773 -0.8312  0.0980
 4492SOL    HW117966   2.072   0.928   4.910 -1.7376  0.6581  3.1332
 4492SOL    HW217967   2.003   0.797   4.877 -0.5339  0.7286 -0.0429
 4492SOL     MW17968   2.056   0.844   4.929  0.0643 -0.4409  0.4685
 4493SOL     OW17969   4.289   2.933   0.980  0.2712  0.0461  0.0965
 4493SOL    HW117970   4.380   2.932   1.009  0.7332 -1.7394 -1.1914
 4493SOL    HW217971   4.250   3.008   1.023  2.0281  0.0992  1.7002
 4493SOL     MW17972   4.295   2.942   0.989  0.5553 -0.1757  0.1369
 4494SOL     OW17973   0.309   3.340   1.060  0.6104  0.3670 -0.1834
 4494SOL    HW117974   0.381   3.311   1.004  0.3125 -1.5430  0.3739
 4494SOL    HW217975   0.233   3.345   1.002  0.6241 -0.1707 -0.2508
 4494SOL     MW17976   0.309   3.337   1.046  0.5740  0.0537 -0.1207
 4495SOL     OW17977   3.005   1.703   4.538  0.0886 -0.0834 -0.5047
 4495SOL    HW117978   2.960   1.688   4.621 -1.3094 -2.0428 -1.5255
 4495SOL    HW217979   3.081   1.645   4.540 -0.1693 -0.4340 -0.7387
 4495SOL     MW17980   3.009   1.694   4.549 -0.1234 -0.3791 -0.6653
 4496SOL     OW17981   5.056   1.948   2.446  0.1710 -0.0828  0.1525
 4496SOL    HW117982   5.115   1.872   2.442 -0.3993 -0.5329  0.1040
 4496SOL    HW217983   5.063   1.979   2.536  0.6657  0.0171  0.0830
 4496SOL     MW17984   5.064   1.942   2.457  0.1613 -0.1276  0.1374
 4497SOL     OW17985   1.964   5.341   2.102 -0.2522 -0.1652 -0.0936
 4497SOL    HW117986   2.054   5.371   2.085  0.0243  0.7117  2.5443
 4497SOL    HW217987   1.915   5.368   2.024  1.4956  0.4523 -1.0502
 4497SOL     MW17988   1.969   5.348   2.090  0.0070  0.0261  0.1216
 4498SOL     OW17989   2.206   1.843   2.647  0.2714 -0.5570 -0.1636
 4498SOL    HW117990   2.289   1.880   2.615 -0.0663  2.1191  1.6748
 4498SOL    HW217991   2.224   1.819   2.738 -1.0402  0.5699  0.4363
 4498SOL     MW17992   2.219   1.845   2.655  0.0602 -0.0702  0.1485
 4499SOL     OW17993   0.480   1.940   0.844  0.2312  0.2209  0.0272
 4499SOL    HW117994   0.392   1.966   0.817  0.2144  0.1892  0.0514
 4499SOL    HW217995   0.470   1.913   0.935  0.0386 -0.8879 -0.3021
 4499SOL     MW17996   0.467   1.940   0.852  0.2044  0.0749 -0.0118
 4500SOL     OW17997   4.145   3.993   2.481 -0.2269 -0.0188  0.4947
 4500SOL    HW117998   4.160   4.021   2.391  0.5538 -0.1748  0.5687
 4500SOL    HW217999   4.232   3.968   2.513 -0.3228  0.9370  1.5928
 4500SOL     MW18000   4.158   3.994   2.473 -0.1392  0.0836  0.6447
 4501SOL     OW18001   4.332   1.812   0.220  0.0470  0.0070 -0.0689
 4501SOL    HW118002   4.380   1.892   0.198  0.4670 -0.3916 -0.6336
 4501SOL    HW218003   4.348   1.800   0.314  0.2672  0.4001 -0.0529
 4501SOL     MW18004   4.340   1.820   0.229  0.1289  0.0063 -0.1392
 4502SOL     OW18005   4.452   3.273   0.731  0.4764 -0.0852 -0.0819
 4502SOL    HW118006   4.536   3.316   0.713  0.4665 -0.9159 -2.5955
 4502SOL    HW218007   4.474   3.180   0.735 -0.0299 -0.1632  1.6240
 4502SOL     MW18008   4.466   3.267   0.729  0.4103 -0.2015 -0.1853
 4503SOL     OW18009   3.320   0.477   3.911  0.1664  0.0097  0.1957
 4503SOL    HW118010   3.382   0.410   3.940  1.2683  0.7068 -0.4616
 4503SOL    HW218011   3.303   0.456   3.819  0.7400  0.7803 -0.0924
 4503SOL     MW18012   3.326   0.466   3.903  0.3809  0.1976  0.0746
 4504SOL     OW18013   3.223   2.952   4.636  0.6321  0.4412  0.0302
 4504SOL    HW118014   3.131   2.933   4.655  0.1668  0.9238 -1.5992
 4504SOL    HW218015   3.246   3.021   4.698  0.5942 -1.2046  1.9808
 4504SOL     MW18016   3.214   2.958   4.646  0.5677  0.2923  0.0713
 4505SOL     OW18017   4.773   1.394   3.389 -0.3886  0.5908  0.0442
 4505SOL    HW118018   4.796   1.312   3.434 -1.1495  1.0814  1.3911
 4505SOL    HW218019   4.703   1.370   3.329  1.6238 -0.3766 -2.1022
 4505SOL     MW18020   4.767   1.380   3.387 -0.2284  0.5298 -0.0582
 4506SOL     OW18021   4.602   3.261   2.556  0.0363  0.5630 -0.1536
 4506SOL    HW118022   4.594   3.200   2.630  0.9022 -1.4377 -1.6193
 4506SOL    HW218023   4.694   3.287   2.556  0.1833  0.0690 -0.8631
 4506SOL     MW18024   4.613   3.256   2.566  0.1660  0.2436 -0.4321
 4507SOL     OW18025   1.809   4.830   5.334  0.2566  0.0720 -0.1089
 4507SOL    HW118026   1.870   4.902   5.317  0.5534  0.1732  1.2452
 4507SOL    HW218027   1.729   4.855   5.289  1.0340  0.1845 -1.4963
 4507SOL     MW18028   1.807   4.842   5.326  0.3941  0.0994 -0.1132
 4508SOL     OW18029   4.975   5.032   1.406 -0.0332  0.5847 -0.5963
 4508SOL    HW118030   4.930   5.116   1.394  1.1156  1.2052 -0.8191
 4508SOL    HW218031   4.995   5.003   1.317  0.7092  0.7364 -0.4895
 4508SOL     MW18032   4.972   5.039   1.393  0.2089  0.6836 -0.6111
 4509SOL     OW18033   4.012   5.115   4.593  0.0031  0.1140  0.4323
 4509SOL    HW118034   3.919   5.096   4.605 -0.0665 -0.8147 -1.2559
 4509SOL    HW218035   4.020   5.209   4.607 -2.0617  1.1226 -3.5901
 4509SOL     MW18036   4.001   5.125   4.596 -0.2702  0.1243 -0.2987
 4510SOL     OW18037   3.429   3.551   5.021  0.0088 -0.2663 -0.4008
 4510SOL    HW118038   3.363   3.484   5.003 -1.1183  0.7218 -0.1511
 4510SOL    HW218039   3.441   3.547   5.116 -0.9158  0.5991 -0.2215
 4510SOL     MW18040   3.422   3.542   5.031 -0.2538 -0.0290 -0.3459
 4511SOL     OW18041   4.714   1.459   5.183 -0.3383  0.1695  0.3014
 4511SOL    HW118042   4.677   1.529   5.236  1.0789  0.9363  0.3105
 4511SOL    HW218043   4.784   1.500   5.134 -0.6065 -0.8787 -1.0116
 4511SOL     MW18044   4.718   1.473   5.184 -0.1912  0.1334  0.1345
 4512SOL     OW18045   4.301   1.397   4.487 -0.2898 -0.3380  0.3112
 4512SOL    HW118046   4.283   1.473   4.541  1.0487  1.9425 -2.1842
 4512SOL    HW218047   4.217   1.375   4.446 -0.6359 -0.0714  0.8706
 4512SOL     MW18048   4.288   1.404   4.488 -0.1628 -0.0119  0.0634
 4513SOL     OW18049   4.800   0.229   4.287  0.3037 -0.1796 -0.0581
 4513SOL    HW118050   4.723   0.274   4.253 -0.1903 -1.5774 -0.8391
 4513SOL    HW218051   4.768   0.143   4.314  1.5466 -0.6962 -0.1711
 4513SOL     MW18052   4.786   0.224   4.286  0.3996 -0.4247 -0.1725
 4514SOL     OW18053   3.512   1.992   4.580  0.3830  0.3165  0.2407
 4514SOL    HW118054   3.573   1.994   4.506  1.6470 -0.3214  1.2247
 4514SOL    HW218055   3.457   2.070   4.568 -0.8288 -0.8385 -2.4677
 4514SOL     MW18056   3.513   2.002   4.569  0.3897  0.0870  0.0200
 4515SOL     OW18057   5.359   0.376   3.431 -0.1931  0.3045  0.1810
 4515SOL    HW118058   5.443   0.357   3.472 -0.0671  0.3473 -0.0569
 4515SOL    HW218059   5.305   0.410   3.502 -0.7742 -1.9209  0.8885
 4515SOL     MW18060   5.363   0.378   3.445 -0.2514  0.0251  0.2411
 4516SOL     OW18061   2.588   1.482   0.166 -0.4647  0.3207  0.1276
 4516SOL    HW118062   2.602   1.530   0.085 -1.6816  1.6492  0.6531
 4516SOL    HW218063   2.493   1.486   0.180 -0.2568  0.3503  1.7329
 4516SOL     MW18064   2.578   1.489   0.158 -0.5939  0.4946  0.4003
 4517SOL     OW18065   3.213   0.556   0.806 -0.0636 -0.5562  0.7212
 4517SOL    HW118066   3.193   0.633   0.753  0.7178 -0.5623  0.3985
 4517SOL    HW218067   3.128   0.514   0.821 -0.3356 -0.4022 -0.3015
 4517SOL     MW18068   3.200   0.560   0.801  0.0016 -0.5372  0.5489
 4518SOL     OW18069   3.037   5.455   5.081  0.1412  0.5623 -0.4928
 4518SOL    HW118070   3.060   5.548   5.077 -0.9509  0.8026 -2.4973
 4518SOL    HW218071   3.089   5.415   5.012 -0.2488 -0.1222 -0.3955
 4518SOL     MW18072   3.047   5.462   5.072 -0.0486  0.5054 -0.7370
 4519SOL     OW18073   0.623   4.318   2.156 -0.0210  0.3380 -0.1424
 4519SOL    HW118074   0.629   4.336   2.250  2.0598  0.4761 -0.2442
 4519SOL    HW218075   0.647   4.402   2.115  0.3582 -0.0664 -0.7550
 4519SOL     MW18076   0.627   4.331   2.163  0.2939  0.3039 -0.2339
 4520SOL     OW18077   4.000   0.102   3.129  0.8092 -0.3172 -0.1439
 4520SOL    HW118078   4.031   0.186   3.162  0.5917 -0.2112 -0.2106
 4520SOL    HW218079   4.044   0.037   3.185 -1.5789 -0.1005  2.1819
 4520SOL     MW18080   4.010   0.104   3.141  0.4757 -0.2759  0.1453
 4521SOL     OW18081   0.547   4.279   1.595  0.0749 -0.5719  0.4416
 4521SOL    HW118082   0.639   4.304   1.595 -0.5127  1.8603 -0.5467
 4521SOL    HW218083   0.511   4.322   1.673 -0.4339 -0.6939  0.2761
 4521SOL     MW18084   0.554   4.287   1.605 -0.0654 -0.2761  0.2939
 4522SOL     OW18085   2.498   1.894   3.859  0.3547  0.1225 -0.1773
 4522SOL    HW118086   2.486   1.958   3.930  1.4099  0.6784 -0.4777
 4522SOL    HW218087   2.593   1.884   3.853  0.2407 -0.4641 -1.0400
 4522SOL     MW18088   2.509   1.901   3.867  0.4752  0.1185 -0.3262
 4523SOL     OW18089   1.698   0.892   0.036 -0.7013 -0.0645 -0.3985
 4523SOL    HW118090   1.682   0.819   0.095 -0.1716  0.2497  0.1537
 4523SOL    HW218091   1.687   0.970   0.091  0.2181  0.2219 -0.6020
 4523SOL     MW18092   1.695   0.893   0.050 -0.5158  0.0124 -0.3539
 4524SOL     OW18093   0.965   1.625   4.708 -0.3818  0.1461  0.0443
 4524SOL    HW118094   0.937   1.655   4.621  0.4801 -1.8951 -0.9979
 4524SOL    HW218095   1.058   1.647   4.712 -0.2069 -0.5718  0.0682
 4524SOL     MW18096   0.973   1.632   4.697 -0.2491 -0.2071 -0.0860
 4525SOL     OW18097   1.792   5.219   4.053 -0.1521 -0.1579  0.2392
 4525SOL    HW118098   1.873   5.207   4.004 -0.3460  0.7789 -0.3197
 4525SOL    HW218099   1.731   5.156   4.014 -1.1162  2.3085 -2.5642
 4525SOL     MW18100   1.795   5.209   4.042 -0.3004  0.2777 -0.1912
 4526SOL     OW18101   0.214   3.320   4.548 -0.1756  0.3143  0.1636
 4526SOL    HW118102   0.239   3.320   4.456 -1.6432  0.6689 -0.2601
 4526SOL    HW218103   0.123   3.292   4.548 -0.5301  1.3671  1.4142
 4526SOL     MW18104   0.206   3.316   4.536 -0.4089  0.4945  0.2694
 4527SOL     OW18105   1.358   2.107   0.504  0.4791  0.1468  0.2988
 4527SOL    HW118106   1.339   2.190   0.548  0.1539 -0.2068  0.8416
 4527SOL    HW218107   1.391   2.050   0.573  2.8504  0.4878 -0.4732
 4527SOL     MW18108   1.360   2.110   0.518  0.7410  0.1452  0.2694
 4528SOL     OW18109   2.361   1.469   4.166  0.1215 -0.6058  0.2337
 4528SOL    HW118110   2.302   1.517   4.108  2.3465  1.1348 -0.7500
 4528SOL    HW218111   2.448   1.486   4.131  1.3611 -1.7738  2.5040
 4528SOL     MW18112   2.364   1.477   4.154  0.5650 -0.5325  0.3984
 4529SOL     OW18113   2.291   4.019   2.180 -0.2941 -0.5741  0.0956
 4529SOL    HW118114   2.239   4.016   2.100 -0.8522  0.2353  0.4175
 4529SOL    HW218115   2.315   3.928   2.196 -0.0372 -0.7295 -1.0754
 4529SOL     MW18116   2.287   4.007   2.172 -0.3326 -0.4904 -0.0131
 4530SOL     OW18117   1.706   4.064   2.849  0.1855 -0.1677 -0.2637
 4530SOL    HW118118   1.651   4.138   2.873  0.2972  0.6306 -2.3509
 4530SOL    HW218119   1.646   4.001   2.809  0.0761 -1.3000  1.5623
 4530SOL     MW18120   1.692   4.065   2.847  0.1858 -0.2104 -0.2971
 4531SOL     OW18121   5.402   3.498   1.588  0.1824 -0.2695 -0.2540
 4531SOL    HW118122   5.380   3.487   1.681  2.2402  0.6603  0.3975
 4531SOL    HW218123   5.342   3.567   1.558  0.9022  0.9658  0.9956
 4531SOL     MW18124   5.391   3.506   1.596  0.5380  0.0077 -0.0107
 4532SOL     OW18125   2.219   4.774   4.501  0.5403 -0.3137  0.1071
 4532SOL    HW118126   2.235   4.687   4.536 -0.7434 -0.7733 -0.3908
 4532SOL    HW218127   2.179   4.759   4.415 -1.4664  0.6957  0.7910
 4532SOL     MW18128   2.216   4.761   4.494  0.1191 -0.2433  0.1309
 4533SOL     OW18129   0.910   1.045   5.249  0.3971  0.1764  0.4028
 4533SOL    HW118130   0.895   1.044   5.155  0.9783  1.9495  0.2495
 4533SOL    HW218131   0.823   1.035   5.287 -0.0691  1.1303 -0.3602
 4533SOL     MW18132   0.897   1.044   5.242  0.4118  0.5255  0.2855
 4534SOL     OW18133   2.134   2.632   4.299  0.3832  0.2181 -0.1575
 4534SOL    HW118134   2.224   2.599   4.297  0.3215  0.0198  0.2207
 4534SOL    HW218135   2.098   2.610   4.213  0.4317 -0.4589 -0.0107
 4534SOL     MW18136   2.141   2.625   4.288  0.3815  0.1061 -0.0903
 4535SOL     OW18137   5.086   2.210   3.174 -0.1979 -0.3402  0.1574
 4535SOL    HW118138   5.180   2.194   3.165 -0.7485 -3.2479 -2.1352
 4535SOL    HW218139   5.047   2.164   3.099 -3.4834  0.4410  1.2276
 4535SOL     MW18140   5.093   2.202   3.163 -0.6890 -0.6124  0.0009
 4536SOL     OW18141   3.661   2.727   4.576  0.2375 -0.0511 -0.8645
 4536SOL    HW118142   3.594   2.790   4.551  0.5577  0.4395 -0.4996
 4536SOL    HW218143   3.743   2.765   4.548  0.7389  1.0381  1.7652
 4536SOL     MW18144   3.663   2.740   4.569  0.3427  0.1511 -0.4812
 4537SOL     OW18145   4.427   3.085   0.277 -0.6653  0.1022 -0.5180
 4537SOL    HW118146   4.415   3.149   0.347  0.2813 -1.4631  1.1653
 4537SOL    HW218147   4.349   3.030   0.281  0.4519 -1.4918  1.0463
 4537SOL     MW18148   4.415   3.086   0.287 -0.4011 -0.3023 -0.1023
 4538SOL     OW18149   5.022   2.713   3.835  0.4126 -0.0630  0.2216
 4538SOL    HW118150   5.013   2.726   3.741 -1.0083 -0.6418  0.2479
 4538SOL    HW218151   4.976   2.631   3.853 -1.3941  1.1715  1.7079
 4538SOL     MW18152   5.015   2.705   3.826 -0.0005  0.0209  0.4152
 4539SOL     OW18153   3.222   1.024   5.211  0.1072 -0.1590 -0.1132
 4539SOL    HW118154   3.188   0.938   5.186  0.5773 -0.5001  0.4053
 4539SOL    HW218155   3.268   1.055   5.133  0.9868 -0.9182  0.0965
 4539SOL     MW18156   3.223   1.017   5.197  0.2800 -0.2999 -0.0200
 4540SOL     OW18157   3.730   4.665   4.465 -0.2288 -0.2504  0.3026
 4540SOL    HW118158   3.679   4.584   4.474 -1.1798  0.1489 -1.3127
 4540SOL    HW218159   3.788   4.649   4.390 -1.6277  1.1529 -1.1365
 4540SOL     MW18160   3.731   4.652   4.457 -0.5296 -0.0197 -0.0884
 4541SOL     OW18161   4.104   3.824   3.959 -0.2565 -0.0758 -0.0786
 4541SOL    HW118162   4.163   3.895   3.936  0.1868 -0.7888 -1.2046
 4541SOL    HW218163   4.141   3.747   3.917 -0.2269 -1.1760  1.8331
 4541SOL     MW18164   4.116   3.823   3.951 -0.1960 -0.3079  0.0220
 4542SOL     OW18165   3.243   0.197   2.641  0.2794 -0.0418  0.3326
 4542SOL    HW118166   3.222   0.108   2.614  0.4417  0.0656 -0.1618
 4542SOL    HW218167   3.209   0.205   2.730  0.3676 -0.6319  0.4178
 4542SOL     MW18168   3.236   0.187   2.649  0.3115 -0.1036  0.2802
 4543SOL     OW18169   1.873   4.942   1.987 -0.3517  0.1261  0.0437
 4543SOL    HW118170   1.798   5.001   1.981  0.0934  0.7349  0.2906
 4543SOL    HW218171   1.917   4.969   2.068 -0.3151 -0.7615  0.3318
 4543SOL     MW18172   1.869   4.953   1.997 -0.2901  0.0904  0.1121
 4544SOL     OW18173   1.947   5.096   0.443 -0.5380  0.2751 -0.1749
 4544SOL    HW118174   1.880   5.127   0.382  1.1851  0.2342 -2.2099
 4544SOL    HW218175   2.017   5.062   0.387  0.3839 -1.4710  1.8862
 4544SOL     MW18176   1.947   5.096   0.428 -0.1994  0.0463 -0.1715
 4545SOL     OW18177   2.413   2.336   1.045  0.4963  0.1509 -0.1810
 4545SOL    HW118178   2.469   2.331   1.123  0.1903  2.8804  0.3146
 4545SOL    HW218179   2.474   2.345   0.972  0.7557  0.8560  0.1161
 4545SOL     MW18180   2.428   2.337   1.046  0.4904  0.5905 -0.0795
 4546SOL     OW18181   1.869   1.240   5.027  0.2415 -0.2674  0.5730
 4546SOL    HW118182   1.871   1.269   5.118  1.1741  1.0482  0.1689
 4546SOL    HW218183   1.830   1.313   4.979  0.4278 -0.6514 -0.1835
 4546SOL     MW18184   1.864   1.253   5.032  0.3847 -0.1482  0.4244
 4547SOL     OW18185   1.661   4.142   0.564 -0.4204 -0.6644 -0.6514
 4547SOL    HW118186   1.614   4.080   0.510 -1.0913 -1.1348  0.4510
 4547SOL    HW218187   1.663   4.223   0.512 -1.1712 -1.0606 -1.3072
 4547SOL     MW18188   1.655   4.145   0.551 -0.6024 -0.7753 -0.5942
 4548SOL     OW18189   4.307   3.912   1.173 -0.0927 -0.2356 -0.0759
 4548SOL    HW118190   4.221   3.954   1.175 -0.9164 -1.6597 -2.1092
 4548SOL    HW218191   4.314   3.870   1.259 -1.2316  0.2610  0.2867
 4548SOL     MW18192   4.297   3.912   1.184 -0.3439 -0.3543 -0.2898
 4549SOL     OW18193   0.787   4.172   4.047 -0.2489 -0.1972 -0.1636
 4549SOL    HW118194   0.761   4.081   4.065 -0.8549 -0.3552 -1.6924
 4549SOL    HW218195   0.881   4.174   4.064 -0.2864 -1.0282  0.1990
 4549SOL     MW18196   0.796   4.161   4.051 -0.3313 -0.3238 -0.3129
 4550SOL     OW18197   0.247   3.120   5.427  0.0432 -0.1924 -0.2903
 4550SOL    HW118198   0.202   3.037   5.409 -1.6089  0.5338  0.2774
 4550SOL    HW218199   0.258   3.120   5.522  0.3483  0.0800 -0.3266
 4550SOL     MW18200   0.242   3.109   5.437 -0.1292 -0.0646 -0.2223
 4551SOL     OW18201   1.542   0.557   3.291  0.0951  0.3349 -0.5157
 4551SOL    HW118202   1.582   0.602   3.217  0.6565 -0.2523 -0.5758
 4551SOL    HW218203   1.530   0.467   3.261  1.8653 -0.3471  0.6353
 4551SOL     MW18204   1.545   0.551   3.278  0.3936  0.1725 -0.3761
 4552SOL     OW18205   5.304   0.931   5.210  0.0999 -0.0292 -0.2040
 4552SOL    HW118206   5.306   0.958   5.118  0.0819 -0.3962 -0.3151
 4552SOL    HW218207   5.377   0.869   5.218 -0.9996 -1.4020 -0.4188
 4552SOL     MW18208   5.314   0.927   5.199 -0.0432 -0.2519 -0.2457
 4553SOL     OW18209   1.962   3.526   1.138  0.3694 -0.0514  0.1529
 4553SOL    HW118210   1.872   3.493   1.128 -0.1541  0.1650  3.1942
 4553SOL    HW218211   1.959   3.613   1.098 -0.8209 -0.0038  0.3003
 4553SOL     MW18212   1.950   3.533   1.131  0.1500 -0.0176  0.5611
 4554SOL     OW18213   1.461   1.333   2.286 -0.1210 -0.3387 -0.7388
 4554SOL    HW118214   1.440   1.427   2.284  0.7668 -0.0943  0.4635
 4554SOL    HW218215   1.382   1.292   2.322  0.3053  0.2449  0.9887
 4554SOL     MW18216   1.448   1.340   2.291  0.0472 -0.2327 -0.3637
 4555SOL     OW18217   0.504   5.035   0.746 -0.0385 -0.5710 -0.3285
 4555SOL    HW118218   0.498   4.940   0.734  1.9326 -0.8250  0.4001
 4555SOL    HW218219   0.557   5.047   0.825  0.5451  1.1381 -0.9236
 4555SOL     MW18220   0.510   5.024   0.755  0.2885 -0.3847 -0.3114
 4556SOL     OW18221   2.049   2.330   1.580 -0.0620 -0.4212  0.0936
 4556SOL    HW118222   2.139   2.353   1.556  0.5321 -0.7730  1.8248
 4556SOL    HW218223   2.034   2.246   1.537  0.2200 -0.0852 -0.6836
 4556SOL     MW18224   2.059   2.323   1.571  0.0501 -0.4232  0.2157
 4557SOL     OW18225   4.444   4.568   4.734 -0.0773  0.2520  0.4796
 4557SOL    HW118226   4.505   4.515   4.681  1.1435  2.4046 -0.4123
 4557SOL    HW218227   4.398   4.622   4.670 -2.5080 -0.8003  1.2143
 4557SOL     MW18228   4.446   4.568   4.719 -0.2322  0.3928  0.4595
 4558SOL     OW18229   2.637   3.373   1.243  0.3616  0.1145 -0.1317
 4558SOL    HW118230   2.669   3.360   1.332  0.5957 -0.9201 -0.3541
 4558SOL    HW218231   2.630   3.285   1.207 -0.9912  0.4305 -0.7103
 4558SOL     MW18232   2.640   3.360   1.250  0.2184  0.0225 -0.2342
 4559SOL     OW18233   3.384   4.872   4.894  0.3677  0.4887 -0.2127
 4559SOL    HW118234   3.461   4.925   4.874  1.9997 -1.4992  0.5832
 4559SOL    HW218235   3.357   4.837   4.809  1.2828 -0.0358 -0.2937
 4559SOL     MW18236   3.390   4.874   4.880  0.6938  0.1671 -0.1212
 4560SOL     OW18237   4.155   3.785   2.908 -0.4804 -0.2893  0.2568
 4560SOL    HW118238   4.080   3.731   2.883  0.4073 -1.3867 -0.0908
 4560SOL    HW218239   4.117   3.856   2.960 -2.1344  0.9006 -2.3860
 4560SOL     MW18240   4.141   3.787   2.912 -0.5785 -0.2774 -0.1260
 4561SOL     OW18241   5.243   0.494   1.770  0.0678  0.2906  0.3316
 4561SOL    HW118242   5.157   0.536   1.766 -0.3365 -0.5059  0.4070
 4561SOL    HW218243   5.235   0.417   1.714  0.9985  0.6569 -0.3226
 4561SOL     MW18244   5.231   0.489   1.763  0.1352  0.2355  0.2575
 4562SOL     OW18245   3.597   3.016   1.045  0.1597  0.2677 -0.2918
 4562SOL    HW118246   3.558   2.981   1.125  2.5703  0.9042  1.2667
 4562SOL    HW218247   3.635   3.100   1.072  0.0756  1.0348 -2.3870
 4562SOL     MW18248   3.597   3.023   1.059  0.4575  0.4473 -0.3605
 4563SOL     OW18249   5.034   5.047   0.422  0.0645  0.2615 -0.0319
 4563SOL    HW118250   5.024   5.115   0.489  0.1004  0.3761 -0.1425
 4563SOL    HW218251   4.946   5.012   0.410 -0.3188  1.5703 -1.3211
 4563SOL     MW18252   5.022   5.051   0.429  0.0200  0.4437 -0.2111
 4564SOL     OW18253   1.699   0.458   1.189  0.1891  0.3105  0.0480
 4564SOL    HW118254   1.607   0.435   1.204  0.4330 -0.4755  0.3845
 4564SOL    HW218255   1.707   0.547   1.221  0.0839 -0.4199  2.3143
 4564SOL     MW18256   1.688   0.466   1.195  0.2068  0.1164  0.3812
 4565SOL     OW18257   5.045   4.527   1.769 -0.2765 -0.5207  0.1614
 4565SOL    HW118258   4.993   4.478   1.833  0.5232 -0.4905  0.8467
 4565SOL    HW218259   5.095   4.589   1.822 -0.6799  0.5104 -0.6279
 4565SOL     MW18260   5.045   4.528   1.784 -0.2258 -0.3848  0.1481
 4566SOL     OW18261   2.094   4.407   3.122 -0.5264  0.3466  0.0042
 4566SOL    HW118262   2.073   4.365   3.039  0.8427 -1.4373  0.4952
 4566SOL    HW218263   2.013   4.402   3.173 -0.9775  0.2334 -0.7149
 4566SOL     MW18264   2.081   4.401   3.118 -0.4089  0.1038 -0.0250
 4567SOL     OW18265   3.018   1.877   3.532  0.2325  0.4926 -0.0800
 4567SOL    HW118266   3.051   1.939   3.598 -0.3810  0.9593 -0.2044
 4567SOL    HW218267   3.008   1.795   3.580  0.6206  0.6036  0.2006
 4567SOL     MW18268   3.021   1.875   3.547  0.2037  0.5665 -0.0600
 4568SOL     OW18269   1.337   0.829   0.616  0.2058 -0.0120 -0.0444
 4568SOL    HW118270   1.293   0.902   0.659 -1.2761 -1.1980  0.5782
 4568SOL    HW218271   1.401   0.869   0.558 -1.4732  1.8257 -0.7421
 4568SOL     MW18272   1.339   0.843   0.614 -0.1989  0.0714 -0.0540
 4569SOL     OW18273   3.937   1.449   0.326 -0.1195  0.1591 -0.2158
 4569SOL    HW118274   3.996   1.511   0.370  0.1994 -0.5568  0.3861
 4569SOL    HW218275   3.996   1.392   0.276 -0.4477  0.6670 -1.2081
 4569SOL     MW18276   3.952   1.450   0.325 -0.1207  0.1325 -0.2658
 4570SOL     OW18277   0.357   3.167   1.926  0.3148  0.0487  0.1129
 4570SOL    HW118278   0.272   3.210   1.936 -0.9411 -2.4486  0.9221
 4570SOL    HW218279   0.363   3.146   1.833 -1.4289 -2.4112  0.4660
 4570SOL     MW18280   0.347   3.170   1.916 -0.0692 -0.5859  0.2617
 4571SOL     OW18281   3.379   0.455   3.631 -0.1103  0.1878  0.3131
 4571SOL    HW118282   3.306   0.459   3.570  1.5939 -0.6465 -1.9644
 4571SOL    HW218283   3.432   0.532   3.610  0.7459 -0.3636  0.4074
 4571SOL     MW18284   3.377   0.465   3.621  0.2175  0.0104  0.0336
 4572SOL     OW18285   5.331   5.125   2.844  0.2926  0.5303 -0.2358
 4572SOL    HW118286   5.262   5.061   2.829 -0.7165  1.2821  1.0511
 4572SOL    HW218287   5.329   5.181   2.766 -1.0968  1.0117  0.1170
 4572SOL     MW18288   5.322   5.124   2.832 -0.0144  0.6881 -0.0259
 4573SOL     OW18289   5.085   4.646   0.240 -0.6148  0.4482  0.3520
 4573SOL    HW118290   5.115   4.732   0.210  0.6406  0.4349  1.5106
 4573SOL    HW218291   5.082   4.653   0.335 -0.6281 -0.7637  0.4567
 4573SOL     MW18292   5.088   4.658   0.248 -0.4558  0.2914  0.5137
 4574SOL     OW18293   2.509   2.947   3.832 -0.2479  0.6008  0.3065
 4574SOL    HW118294   2.578   2.915   3.774 -1.1278  0.4270 -0.6735
 4574SOL    HW218295   2.429   2.904   3.801 -0.9682  1.5544  0.7833
 4574SOL     MW18296   2.508   2.938   3.820 -0.4527  0.7006  0.2421
 4575SOL     OW18297   4.874   1.763   0.769 -0.1399 -0.1664  0.1916
 4575SOL    HW118298   4.797   1.712   0.745 -0.3552  1.3747 -2.8669
 4575SOL    HW218299   4.940   1.738   0.704  1.1519  0.3628  1.2557
 4575SOL     MW18300   4.873   1.753   0.758 -0.0021  0.0987 -0.0637
 4576SOL     OW18301   4.467   2.285   3.306 -0.0730 -0.3320  0.0157
 4576SOL    HW118302   4.535   2.315   3.247 -0.9512 -0.3820 -1.0446
 4576SOL    HW218303   4.431   2.207   3.264  1.7461 -2.6776  2.3851
 4576SOL     MW18304   4.471   2.279   3.293  0.0474 -0.6387  0.1833
 4577SOL     OW18305   2.617   1.580   4.084  0.0018  0.1905 -0.2822
 4577SOL    HW118306   2.596   1.628   4.004  0.5660  0.0631 -0.5124
 4577SOL    HW218307   2.600   1.642   4.154 -1.1546  0.0858 -0.4514
 4577SOL     MW18308   2.612   1.594   4.082 -0.0740  0.1608 -0.3333
 4578SOL     OW18309   1.621   2.755   4.360 -0.3283  0.1205  0.0069
 4578SOL    HW118310   1.563   2.830   4.375 -1.2323 -0.7252  0.8513
 4578SOL    HW218311   1.599   2.724   4.273  0.1358  0.9052 -0.3976
 4578SOL     MW18312   1.611   2.761   4.351 -0.3846  0.1127  0.0632
 4579SOL     OW18313   5.114   4.196   2.222  0.0876  0.1255 -0.4245
 4579SOL    HW118314   5.126   4.270   2.281  0.7154 -1.5513  1.6960
 4579SOL    HW218315   5.137   4.230   2.135  2.4378  1.8592  0.7765
 4579SOL     MW18316   5.118   4.210   2.218  0.4688  0.1328  0.0007
 4580SOL     OW18317   1.231   4.563   4.885  0.3425  0.1326  0.2745
 4580SOL    HW118318   1.294   4.554   4.957  0.3192 -1.5614  0.1344
 4580SOL    HW218319   1.148   4.582   4.927  0.6037  0.5769  0.5922
 4580SOL     MW18320   1.229   4.564   4.899  0.3730 -0.0274  0.2972
 4581SOL     OW18321   1.678   0.416   3.901  0.6498  0.2391  0.6062
 4581SOL    HW118322   1.724   0.384   3.979 -1.7655 -0.8425  1.6955
 4581SOL    HW218323   1.586   0.391   3.915  0.0647  0.2090 -2.4936
 4581SOL     MW18324   1.672   0.409   3.913  0.2657  0.0968  0.3489
 4582SOL     OW18325   1.169   4.833   5.099  0.4699 -0.1509 -0.3180
 4582SOL    HW118326   1.103   4.796   5.041  0.0008  0.1708  0.0070
 4582SOL    HW218327   1.212   4.757   5.138 -0.0634 -0.3634 -0.1311
 4582SOL     MW18328   1.166   4.819   5.097  0.3416 -0.1369 -0.2525
 4583SOL     OW18329   3.399   0.089   4.957 -0.6347  0.5991 -0.0799
 4583SOL    HW118330   3.387   0.016   5.018 -0.4180 -0.2438 -1.0018
 4583SOL    HW218331   3.323   0.145   4.972 -1.1260 -0.1296  0.2573
 4583SOL     MW18332   3.388   0.087   4.967 -0.6698  0.3979 -0.1548
 4584SOL     OW18333   2.759   1.186   4.196  0.1252 -0.5747 -0.0052
 4584SOL    HW118334   2.797   1.257   4.143  1.1054 -1.1278 -0.0486
 4584SOL    HW218335   2.696   1.231   4.253  2.0209  0.6280  1.2653
 4584SOL     MW18336   2.756   1.201   4.196  0.4934 -0.4915  0.1518
 4585SOL     OW18337   4.499   2.516   3.752 -0.7583  0.3366  0.0777
 4585SOL    HW118338   4.581   2.493   3.710 -1.3912 -0.7298 -0.6072
 4585SOL    HW218339   4.433   2.508   3.683 -1.6995 -0.6277  1.0586
 4585SOL     MW18340   4.501   2.512   3.738 -0.9598  0.0766  0.1156
 4586SOL     OW18341   2.193   3.840   5.392 -0.0519  0.1213 -0.1588
 4586SOL    HW118342   2.125   3.826   5.458 -1.2020  0.9940 -1.1032
 4586SOL    HW218343   2.252   3.765   5.402 -0.5027 -0.0730  1.4477
 4586SOL     MW18344   2.192   3.829   5.402 -0.2569  0.2082 -0.0741
 4587SOL     OW18345   4.120   1.223   0.219 -0.3285 -0.4933  0.5483
 4587SOL    HW118346   4.140   1.268   0.137  0.6267 -0.9373  0.5195
 4587SOL    HW218347   4.164   1.138   0.211  0.1239 -0.3869  1.6700
 4587SOL     MW18348   4.128   1.218   0.208 -0.1483 -0.5365  0.6882
 4588SOL     OW18349   0.259   3.867   2.175  0.0413 -0.4160 -0.3068
 4588SOL    HW118350   0.208   3.929   2.123 -1.4679 -0.9381  0.4599
 4588SOL    HW218351   0.321   3.829   2.113  1.0626  1.8598 -0.7766
 4588SOL     MW18352   0.260   3.870   2.161 -0.0212 -0.1915 -0.2688
 4589SOL     OW18353   0.061   1.252   0.800 -0.0565 -0.3813  0.0273
 4589SOL    HW118354  -0.031   1.251   0.773 -0.0324 -0.7776 -0.0373
 4589SOL    HW218355   0.101   1.319   0.744 -0.8640  1.8118  1.9203
 4589SOL     MW18356   0.054   1.261   0.789 -0.1568 -0.1513  0.2614
 4590SOL     OW18357   1.801   2.866   5.025  0.0123  0.0898  0.0188
 4590SOL    HW118358   1.717   2.877   4.980 -0.0115 -0.4707 -0.0833
 4590SOL    HW218359   1.779   2.856   5.117 -0.2670 -2.4929 -0.2421
 4590SOL     MW18360   1.788   2.866   5.031 -0.0265 -0.3126 -0.0277
 4591SOL     OW18361   0.930   2.604   5.314  0.1779 -0.0440 -0.1457
 4591SOL    HW118362   1.002   2.627   5.372 -1.0423  1.7910  0.7526
 4591SOL    HW218363   0.950   2.516   5.284  0.3842 -1.5414  3.8690
 4591SOL     MW18364   0.941   2.596   5.318  0.0481 -0.0008  0.4832
 4592SOL     OW18365   2.546   1.430   3.083  0.4331 -0.4624  0.2835
 4592SOL    HW118366   2.566   1.353   3.029 -3.1813 -0.8919 -0.7177
 4592SOL    HW218367   2.594   1.501   3.042  2.0257 -1.7389 -0.1781
 4592SOL     MW18368   2.555   1.429   3.071  0.1743 -0.6808  0.0962
 4593SOL     OW18369   2.809   3.679   1.942 -0.5037  0.6484 -0.4066
 4593SOL    HW118370   2.843   3.634   1.865  0.1257  0.8493 -0.2480
 4593SOL    HW218371   2.862   3.758   1.949  0.1885  0.1114  0.8540
 4593SOL     MW18372   2.820   3.683   1.933 -0.3345  0.6053 -0.2249
 4594SOL     OW18373   0.867   3.071   1.553  0.4120  0.7267 -0.9910
 4594SOL    HW118374   0.814   3.122   1.613  0.5574  0.0352 -0.2583
 4594SOL    HW218375   0.816   2.991   1.537  0.8955  0.3827 -0.8576
 4594SOL     MW18376   0.854   3.067   1.558  0.4925  0.5941 -0.8801
 4595SOL     OW18377   2.943   1.655   3.680 -0.1657  0.2662 -0.1816
 4595SOL    HW118378   3.007   1.682   3.746  0.1786 -0.4276 -0.2242
 4595SOL    HW218379   2.861   1.696   3.709  0.6355  2.7387 -1.1367
 4595SOL     MW18380   2.940   1.664   3.692 -0.0191  0.4939 -0.3093
 4596SOL     OW18381   1.973   3.040   0.206  0.4476  0.4278 -0.4343
 4596SOL    HW118382   1.918   3.022   0.283  0.3610 -0.6738 -0.7340
 4596SOL    HW218383   2.054   3.076   0.243 -0.5619  2.4089 -0.0080
 4596SOL     MW18384   1.977   3.042   0.221  0.3073  0.5404 -0.4181
 4597SOL     OW18385   1.648   4.695   3.522  0.9168  0.0090 -0.0976
 4597SOL    HW118386   1.684   4.610   3.545 -0.7766 -0.8875 -0.5602
 4597SOL    HW218387   1.653   4.699   3.427 -0.4498 -0.3077 -0.2122
 4597SOL     MW18388   1.653   4.685   3.513  0.5251 -0.1464 -0.1715
 4598SOL     OW18389   1.130   0.921   0.440  0.0530  0.2681  0.0304
 4598SOL    HW118390   1.105   0.859   0.371 -1.6448 -0.8752  1.5682
 4598SOL    HW218391   1.209   0.883   0.479 -0.0980 -0.1165 -0.0339
 4598SOL     MW18392   1.137   0.908   0.436 -0.1837  0.0725  0.2191
 4599SOL     OW18393   4.930   4.596   3.668 -0.2865  0.0983 -0.2569
 4599SOL    HW118394   4.847   4.561   3.637  0.3927 -1.4431 -0.4422
 4599SOL    HW218395   4.989   4.520   3.669  0.9568  1.0359  0.4228
 4599SOL     MW18396   4.927   4.582   3.664 -0.0404  0.0210 -0.1936
 4600SOL     OW18397   1.055   3.614   0.040 -0.7106  0.2139 -0.0838
 4600SOL    HW118398   1.114   3.684   0.071 -0.0798 -0.9769  1.5708
 4600SOL    HW218399   0.970   3.637   0.077 -0.8444  0.8613 -0.7706
 4600SOL     MW18400   1.052   3.626   0.049 -0.6470  0.1443  0.0401
 4601SOL     OW18401   1.775   2.870   1.655 -0.3157 -0.6872 -0.7586
 4601SOL    HW118402   1.860   2.855   1.697 -0.1456  0.0154 -0.8275
 4601SOL    HW218403   1.775   2.813   1.579 -0.1398 -1.1170 -0.4386
 4601SOL     MW18404   1.786   2.861   1.651 -0.2714 -0.6523 -0.7265
 4602SOL     OW18405   0.640   3.539   2.677  0.4050 -0.5703  0.5745
 4602SOL    HW118406   0.642   3.513   2.769 -1.8564 -0.3700  0.7314
 4602SOL    HW218407   0.728   3.572   2.660  0.3202  1.4103  3.2817
 4602SOL     MW18408   0.652   3.540   2.686  0.1047 -0.2911  0.9412
 4603SOL     OW18409   4.007   1.119   2.622 -0.1149  0.2759  0.0211
 4603SOL    HW118410   4.002   1.064   2.700  0.0797 -0.0851 -0.2192
 4603SOL    HW218411   3.916   1.141   2.602 -0.1032  1.2525  0.9655
 4603SOL     MW18412   3.995   1.114   2.629 -0.0885  0.3547  0.1112
 4604SOL     OW18413   2.041   4.564   3.571 -0.0155 -0.0696  0.2543
 4604SOL    HW118414   2.007   4.477   3.551  0.0938 -0.1526  0.4158
 4604SOL    HW218415   2.136   4.552   3.574 -0.0323 -0.0818  0.8928
 4604SOL     MW18416   2.049   4.551   3.569 -0.0037 -0.0818  0.3567
 4605SOL     OW18417   2.281   4.489   4.869 -0.5821  0.2948  0.0737
 4605SOL    HW118418   2.249   4.408   4.909 -0.2878  0.0112 -0.2558
 4605SOL    HW218419   2.242   4.489   4.782  0.8359 -0.4070 -0.6002
 4605SOL     MW18420   2.272   4.478   4.863 -0.3629  0.1686 -0.0547
 4606SOL     OW18421   2.258   1.720   2.269 -0.3807  0.6321  0.0263
 4606SOL    HW118422   2.348   1.696   2.290 -0.5276 -1.2422 -1.2446
 4606SOL    HW218423   2.205   1.653   2.312 -0.9926  0.3157 -1.1766
 4606SOL     MW18424   2.263   1.708   2.277 -0.4778  0.3516 -0.2904
 4607SOL     OW18425   3.395   0.990   4.472  0.5335  0.1910  0.1129
 4607SOL    HW118426   3.316   0.967   4.424  1.1017  1.8189 -1.6906
 4607SOL    HW218427   3.467   0.962   4.416  1.2603  0.1631  1.0246
 4607SOL     MW18428   3.394   0.983   4.459  0.6992  0.3958 -0.0013
 4608SOL     OW18429   2.878   4.337   3.959 -0.0711  0.3241 -0.5927
 4608SOL    HW118430   2.956   4.328   4.013  0.0926 -0.2421 -0.9194
 4608SOL    HW218431   2.908   4.322   3.870 -0.7604 -1.0712 -0.6128
 4608SOL     MW18432   2.892   4.334   3.954 -0.1384  0.0730 -0.6371
 4609SOL     OW18433   1.825   4.660   5.117  0.1997 -0.4051  0.0878
 4609SOL    HW118434   1.911   4.658   5.075  0.8978  3.2116  1.0048
 4609SOL    HW218435   1.837   4.715   5.194 -3.1912  1.5804 -0.5880
 4609SOL     MW18436   1.838   4.667   5.121 -0.1450  0.3121  0.1187
 4610SOL     OW18437   1.563   1.955   4.722 -0.3372 -0.2585 -0.0025
 4610SOL    HW118438   1.586   1.978   4.632  0.9128 -1.7983 -0.1317
 4610SOL    HW218439   1.470   1.933   4.718 -0.6405  1.0428 -0.5991
 4610SOL     MW18440   1.554   1.955   4.710 -0.2160 -0.2890 -0.0954
 4611SOL     OW18441   0.844   0.177   2.863 -0.3771 -0.2668  0.2518
 4611SOL    HW118442   0.929   0.177   2.820 -1.0167  0.2476 -1.0525
 4611SOL    HW218443   0.800   0.255   2.830 -1.3604 -0.5294  0.8972
 4611SOL     MW18444   0.849   0.187   2.853 -0.5849 -0.2346  0.1675
 4612SOL     OW18445   5.232   0.741   2.891 -0.0517 -0.4403  0.0130
 4612SOL    HW118446   5.225   0.793   2.971  0.2121 -0.2319 -0.0967
 4612SOL    HW218447   5.148   0.696   2.885 -0.5833  0.5490 -0.2806
 4612SOL     MW18448   5.220   0.742   2.901 -0.0860 -0.2870 -0.0386
 4613SOL     OW18449   4.329   0.862   2.789  0.0370  0.2466 -0.0819
 4613SOL    HW118450   4.236   0.885   2.800 -0.0020 -0.0844  0.3130
 4613SOL    HW218451   4.333   0.769   2.811  0.2057 -0.1359 -1.6033
 4613SOL     MW18452   4.317   0.853   2.793  0.0536  0.1552 -0.2261
 4614SOL     OW18453   5.408   3.852   1.017  0.3671  0.3441 -0.4258
 4614SOL    HW118454   5.384   3.927   1.072 -0.1796 -0.6769  0.7763
 4614SOL    HW218455   5.448   3.790   1.078 -0.6013 -0.9758 -1.0783
 4614SOL     MW18456   5.410   3.854   1.032  0.1732  0.0445 -0.3555
 4615SOL     OW18457   3.647   2.694   2.740 -0.2974 -0.7258 -0.7170
 4615SOL    HW118458   3.733   2.651   2.729 -0.3627 -0.7320 -1.2211
 4615SOL    HW218459   3.668   2.786   2.755 -0.2261 -0.4985 -2.0482
 4615SOL     MW18460   3.661   2.700   2.740 -0.2966 -0.6975 -0.9519
 4616SOL     OW18461   0.570   3.091   0.167 -0.2414  0.2500 -0.3452
 4616SOL    HW118462   0.610   3.110   0.082  0.4647 -0.6341 -0.2329
 4616SOL    HW218463   0.573   2.996   0.174 -1.7449  0.2002 -0.0035
 4616SOL     MW18464   0.576   3.081   0.157 -0.3435  0.1304 -0.2871
 4617SOL     OW18465   2.004   2.676   2.886 -0.0991 -0.2772  0.2912
 4617SOL    HW118466   1.998   2.707   2.795 -0.4628 -2.9553 -0.6892
 4617SOL    HW218467   2.028   2.584   2.878  0.7193 -0.3660  2.9915
 4617SOL     MW18468   2.006   2.668   2.873 -0.0409 -0.6314  0.5114
 4618SOL     OW18469   3.955   2.624   2.323  0.0408 -0.8037  0.0219
 4618SOL    HW118470   4.026   2.627   2.386  1.4909  1.5042 -1.5854
 4618SOL    HW218471   3.877   2.647   2.374  1.1107  0.6970  1.0657
 4618SOL     MW18472   3.954   2.627   2.337  0.3634 -0.3162 -0.0502
 4619SOL     OW18473   1.106   3.916   5.379  0.4888 -0.3851  0.4227
 4619SOL    HW118474   1.067   4.002   5.397 -1.9163 -1.3957  0.4381
 4619SOL    HW218475   1.158   3.896   5.457  2.2118  1.5821 -0.1446
 4619SOL     MW18476   1.108   3.924   5.391  0.4015 -0.2627  0.3521
 4620SOL     OW18477   2.992   0.277   1.588 -0.0092  0.6685  0.0974
 4620SOL    HW118478   2.944   0.328   1.653 -0.7129 -1.6324  1.5098
 4620SOL    HW218479   3.083   0.280   1.617  0.0315  1.4662 -0.1004
 4620SOL     MW18480   2.998   0.284   1.600 -0.0941  0.4761  0.2529
 4621SOL     OW18481   2.242   4.483   1.323 -0.2202 -0.2497 -0.0491
 4621SOL    HW118482   2.298   4.560   1.332 -0.2471 -0.2177 -0.1627
 4621SOL    HW218483   2.254   4.435   1.405  0.3792 -0.5157 -0.2921
 4621SOL     MW18484   2.250   4.487   1.335 -0.1469 -0.2796 -0.0948
 4622SOL     OW18485   2.419   3.798   4.082 -0.2645 -0.1028 -0.0182
 4622SOL    HW118486   2.340   3.747   4.062 -0.5211 -0.0412  0.7958
 4622SOL    HW218487   2.412   3.817   4.176  0.7770 -0.2007  0.0917
 4622SOL     MW18488   2.408   3.794   4.091 -0.1640 -0.1074  0.1001
 4623SOL     OW18489   3.705   0.280   3.851  0.2200 -0.3426 -0.5942
 4623SOL    HW118490   3.635   0.285   3.916 -0.9110 -1.6001 -1.6474
 4623SOL    HW218491   3.734   0.189   3.854  2.1721  0.2654  0.1460
 4623SOL     MW18492   3.699   0.269   3.860  0.3251 -0.4258 -0.6342
 4624SOL     OW18493   2.565   3.422   5.314 -0.2777 -0.2942 -0.4736
 4624SOL    HW118494   2.633   3.382   5.260 -0.2429 -1.6058  0.4921
 4624SOL    HW218495   2.541   3.354   5.377 -0.6484  1.0148  0.8691
 4624SOL     MW18496   2.571   3.408   5.315 -0.3207 -0.2946 -0.1781
 4625SOL     OW18497   1.623   4.267   5.158 -0.0920  0.1861 -0.4839
 4625SOL    HW118498   1.565   4.328   5.112  1.0017  0.1284 -2.0121
 4625SOL    HW218499   1.689   4.322   5.199 -0.9714  0.2245  0.9554
 4625SOL     MW18500   1.624   4.282   5.157 -0.0646  0.1836 -0.4953
 4626SOL     OW18501   2.061   4.085   2.574  0.5258 -0.6435  0.1468
 4626SOL    HW118502   2.014   4.004   2.555  1.4855 -1.3242  0.6321
 4626SOL    HW218503   2.100   4.111   2.490 -0.1860 -0.4024 -0.1188
 4626SOL     MW18504   2.060   4.078   2.560  0.5576 -0.6998  0.1749
 4627SOL     OW18505   1.313   1.228   4.173 -0.3944 -0.5035  0.4219
 4627SOL    HW118506   1.240   1.189   4.222 -0.1118 -0.0612  1.2109
 4627SOL    HW218507   1.369   1.153   4.150  0.1900 -0.5828  2.0011
 4627SOL     MW18508   1.311   1.213   4.176 -0.2834 -0.4571  0.7251
 4628SOL     OW18509   4.545   1.822   3.283 -0.1726 -0.4080 -0.1545
 4628SOL    HW118510   4.533   1.829   3.377  0.1941  0.8299 -0.1807
 4628SOL    HW218511   4.612   1.755   3.272  0.4212  0.0518  0.5279
 4628SOL     MW18512   4.552   1.814   3.293 -0.0496 -0.1907 -0.0705
 4629SOL     OW18513   5.269   4.528   4.610 -0.2706  0.6720  0.8920
 4629SOL    HW118514   5.353   4.499   4.575  0.2014  1.5342  1.2734
 4629SOL    HW218515   5.279   4.623   4.621 -1.1590  0.7283  1.3100
 4629SOL     MW18516   5.281   4.537   4.607 -0.3239  0.7895  0.9944
 4630SOL     OW18517   1.399   3.694   4.764 -0.1724 -0.0321 -0.1796
 4630SOL    HW118518   1.342   3.684   4.841 -0.6417  0.5395 -0.4466
 4630SOL    HW218519   1.339   3.707   4.691  0.2888  0.0389 -0.5502
 4630SOL     MW18520   1.384   3.695   4.765 -0.1734  0.0502 -0.2613
 4631SOL     OW18521   3.795   5.412   1.400  0.4008  0.1856  0.0968
 4631SOL    HW118522   3.817   5.462   1.322 -1.3227  1.6404  0.4715
 4631SOL    HW218523   3.862   5.436   1.464  2.7416 -2.1813 -1.2799
 4631SOL     MW18524   3.806   5.421   1.398  0.4798  0.0689 -0.0315
 4632SOL     OW18525   1.588   5.385   2.946 -0.9259 -0.2368 -0.1162
 4632SOL    HW118526   1.601   5.400   3.040 -3.0277  1.1303  0.0203
 4632SOL    HW218527   1.612   5.469   2.906  1.5716 -1.3049 -1.0541
 4632SOL     MW18528   1.593   5.398   2.953 -0.8752 -0.1985 -0.2188
 4633SOL     OW18529   0.516   3.900   3.943  0.0737 -0.1754  0.8875
 4633SOL    HW118530   0.603   3.883   3.978  0.0165 -1.1806  0.5767
 4633SOL    HW218531   0.532   3.938   3.856  0.2206 -1.3195  0.3950
 4633SOL     MW18532   0.529   3.902   3.936  0.0852 -0.4506  0.7847
 4634SOL     OW18533   0.546   2.839   2.032  0.3242  0.2076 -0.4379
 4634SOL    HW118534   0.580   2.867   1.947  0.3240  1.0965 -0.1569
 4634SOL    HW218535   0.614   2.866   2.095  0.4425 -0.6712 -0.1780
 4634SOL     MW18536   0.559   2.846   2.029  0.3393  0.2089 -0.3686
 4635SOL     OW18537   1.676   5.332   3.207 -0.8624  0.1240 -0.6025
 4635SOL    HW118538   1.648   5.246   3.237  0.3735 -0.0951 -0.0237
 4635SOL    HW218539   1.639   5.393   3.270 -0.2880 -0.1364 -0.0013
 4635SOL     MW18540   1.667   5.329   3.219 -0.6307  0.0626 -0.4515
 4636SOL     OW18541   5.016   2.146   2.926  0.6443  0.6580  0.2300
 4636SOL    HW118542   4.992   2.054   2.909  1.4961 -0.0566  2.5569
 4636SOL    HW218543   4.939   2.196   2.900  0.1675 -0.6968 -1.1152
 4636SOL     MW18544   5.003   2.140   2.920  0.6923  0.3931  0.3557
 4637SOL     OW18545   3.150   3.805   2.991 -0.2597 -0.0143 -0.0929
 4637SOL    HW118546   3.179   3.714   2.984  2.4372  0.8562 -1.5397
 4637SOL    HW218547   3.099   3.820   2.911  2.3008  0.6287 -1.7223
 4637SOL     MW18548   3.147   3.795   2.980  0.4133  0.1795 -0.4867
 4638SOL     OW18549   0.238   1.847   2.312 -0.2278 -0.1241  0.0510
 4638SOL    HW118550   0.253   1.839   2.218  0.1949  1.0656  0.0022
 4638SOL    HW218551   0.326   1.854   2.350 -0.4233  0.2584  0.4434
 4638SOL     MW18552   0.251   1.847   2.305 -0.1987  0.0772  0.0950
 4639SOL     OW18553   4.582   4.300   5.294 -0.2994 -0.0820 -0.3370
 4639SOL    HW118554   4.652   4.366   5.292 -0.6554  0.4036  1.4225
 4639SOL    HW218555   4.543   4.303   5.207  1.5351 -0.0172 -1.2125
 4639SOL     MW18556   4.586   4.308   5.283 -0.1101 -0.0115 -0.2238
 4640SOL     OW18557   0.601   0.133   4.171 -0.3893 -0.2469 -0.1434
 4640SOL    HW118558   0.539   0.204   4.153 -0.7471 -0.3857  0.5303
 4640SOL    HW218559   0.613   0.135   4.265  0.0111 -0.7454 -0.1806
 4640SOL     MW18560   0.595   0.142   4.180 -0.3838 -0.3285 -0.0619
 4641SOL     OW18561   4.917   0.217   0.623  0.4253 -0.6559 -0.2316
 4641SOL    HW118562   4.857   0.273   0.572  0.4726 -0.3421  0.0511
 4641SOL    HW218563   5.000   0.224   0.576  0.4455 -0.4393 -0.1684
 4641SOL     MW18564   4.920   0.225   0.610  0.4339 -0.5880 -0.1873
 4642SOL     OW18565   4.144   0.103   3.380  0.1733 -0.1301  0.2462
 4642SOL    HW118566   4.230   0.064   3.366  0.2466 -0.5219  1.6703
 4642SOL    HW218567   4.117   0.073   3.467 -1.2519  0.2658 -0.0215
 4642SOL     MW18568   4.151   0.094   3.389  0.0002 -0.1296  0.3943
 4643SOL     OW18569   4.245   0.990   4.495 -0.3626 -0.2429  0.2826
 4643SOL    HW118570   4.324   0.935   4.497  0.7689  1.3374  0.3571
 4643SOL    HW218571   4.241   1.025   4.407 -0.3988  0.5148  0.5800
 4643SOL     MW18572   4.254   0.987   4.484 -0.2224  0.0564  0.3302
 4644SOL     OW18573   3.689   1.801   2.110  0.4499  0.4870  0.0183
 4644SOL    HW118574   3.738   1.727   2.073  0.2965 -0.0334  0.8325
 4644SOL    HW218575   3.602   1.793   2.072  0.6281  0.6619 -0.4368
 4644SOL     MW18576   3.684   1.790   2.100  0.4531  0.4428  0.0643
 4645SOL     OW18577   5.291   4.779   4.668 -0.4083  0.6567  0.2878
 4645SOL    HW118578   5.203   4.802   4.699 -0.0301  1.5622  0.7213
 4645SOL    HW218579   5.291   4.803   4.575 -2.2151 -3.9067 -1.1849
 4645SOL     MW18580   5.280   4.785   4.660 -0.5912  0.1884  0.1547
 4646SOL     OW18581   4.833   3.454   3.543 -0.0374  0.5894  0.2512
 4646SOL    HW118582   4.883   3.383   3.583 -0.6315  0.0362  0.0387
 4646SOL    HW218583   4.897   3.522   3.525  0.4883  0.2401  0.7668
 4646SOL     MW18584   4.847   3.454   3.546 -0.0462  0.4739  0.2900
 4647SOL     OW18585   2.999   1.221   0.043 -0.4064  0.3267  0.4005
 4647SOL    HW118586   2.990   1.181  -0.044 -0.4473  1.8676 -0.3486
 4647SOL    HW218587   3.028   1.311   0.024  0.5786  0.3826  2.0333
 4647SOL     MW18588   3.002   1.228   0.029 -0.2855  0.5311  0.5136
 4648SOL     OW18589   1.066   4.952   5.368 -0.0597 -0.3641  0.0577
 4648SOL    HW118590   1.111   4.914   5.293 -0.8894  0.0812 -0.6928
 4648SOL    HW218591   1.028   4.877   5.414  0.0391 -0.6060 -0.2495
 4648SOL     MW18592   1.067   4.938   5.364 -0.1532 -0.3381 -0.0777
 4649SOL     OW18593   3.460   5.171   2.046  0.1962 -0.0784  0.5437
 4649SOL    HW118594   3.384   5.167   2.104 -1.3864  0.1320 -1.4074
 4649SOL    HW218595   3.462   5.086   2.003  0.9913 -0.0301  0.4736
 4649SOL     MW18596   3.450   5.160   2.048  0.0954 -0.0453  0.2849
 4650SOL     OW18597   3.635   1.255   5.237 -0.0796  0.2425 -0.4277
 4650SOL    HW118598   3.561   1.200   5.264 -0.1160  0.0151 -0.9635
 4650SOL    HW218599   3.711   1.197   5.241 -0.0547  0.2611 -0.5998
 4650SOL     MW18600   3.635   1.241   5.241 -0.0811  0.2158 -0.5183
 4651SOL     OW18601   4.608   4.293   3.094 -0.4600 -0.0730  0.4137
 4651SOL    HW118602   4.634   4.207   3.062 -0.9878  0.5125 -1.7961
 4651SOL    HW218603   4.527   4.313   3.047  0.6270  2.3674 -0.6218
 4651SOL     MW18604   4.601   4.285   3.084 -0.3885  0.3143 -0.0017
 4652SOL     OW18605   4.241   4.873   2.704 -0.0037 -0.0930  0.2758
 4652SOL    HW118606   4.303   4.842   2.769  0.9708 -0.8669 -0.9778
 4652SOL    HW218607   4.220   4.795   2.652 -0.3144  0.6092 -0.6845
 4652SOL     MW18608   4.246   4.859   2.706  0.0813 -0.1022 -0.0076
 4653SOL     OW18609   2.040   5.144   1.287 -0.0826  0.1066 -0.0119
 4653SOL    HW118610   2.081   5.064   1.255 -2.1123 -0.6560 -0.8937
 4653SOL    HW218611   2.001   5.119   1.371 -0.1361  0.3735  0.0427
 4653SOL     MW18612   2.040   5.131   1.294 -0.3493  0.0432 -0.1178
 4654SOL     OW18613   4.143   3.195   0.024  0.2363 -0.0264 -0.3329
 4654SOL    HW118614   4.110   3.181   0.112  0.1801  1.4399 -0.1002
 4654SOL    HW218615   4.082   3.256  -0.016  1.3400  0.8966 -0.6836
 4654SOL     MW18616   4.131   3.201   0.030  0.3704  0.2795 -0.3480
 4655SOL     OW18617   2.138   2.414   4.821 -0.0611  0.2144 -0.2714
 4655SOL    HW118618   2.105   2.351   4.756 -1.7292  2.0506 -1.3152
 4655SOL    HW218619   2.063   2.469   4.841  1.4411  2.2170  0.1696
 4655SOL     MW18620   2.125   2.413   4.815 -0.0824  0.7058 -0.3486
 4656SOL     OW18621   3.609   3.299   4.889 -0.4106 -0.0816  0.3565
 4656SOL    HW118622   3.541   3.358   4.859  0.2657  0.6790  0.2874
 4656SOL    HW218623   3.588   3.281   4.980 -0.0991  1.0338  0.6576
 4656SOL     MW18624   3.598   3.304   4.896 -0.2841  0.1586  0.3862
 4657SOL     OW18625   1.711   5.243   2.580 -0.3623 -0.3327  0.0245
 4657SOL    HW118626   1.676   5.291   2.505  0.9242  0.2816 -0.2158
 4657SOL    HW218627   1.666   5.158   2.578 -1.2105  0.1164 -0.7281
 4657SOL     MW18628   1.701   5.238   2.570 -0.3062 -0.1966 -0.1026
 4658SOL     OW18629   4.599   2.491   5.219  0.2833  0.4991 -0.3337
 4658SOL    HW118630   4.663   2.430   5.182  0.1033 -0.0905  0.3041
 4658SOL    HW218631   4.651   2.553   5.270  0.5873  1.6572 -1.9952
 4658SOL     MW18632   4.613   2.491   5.221  0.2992  0.5719 -0.4648
 4659SOL     OW18633   4.107   4.124   3.483 -0.1081  0.1145  0.5610
 4659SOL    HW118634   4.168   4.111   3.556  0.4900  1.3683  0.3077
 4659SOL    HW218635   4.049   4.194   3.512  0.3404  0.8541 -0.2628
 4659SOL     MW18636   4.108   4.131   3.496  0.0259  0.3697  0.4232
 4660SOL     OW18637   4.722   0.229   3.974  0.3362 -0.2868  0.0743
 4660SOL    HW118638   4.636   0.199   3.945 -0.1087  2.0487 -1.2695
 4660SOL    HW218639   4.703   0.296   4.041  1.2108 -1.2676  1.3513
 4660SOL     MW18640   4.709   0.234   3.979  0.3912 -0.1134  0.0658
 4661SOL     OW18641   3.258   5.178   1.686  0.7046 -0.1837 -0.2115
 4661SOL    HW118642   3.344   5.137   1.672 -0.3865 -2.4747 -0.8076
 4661SOL    HW218643   3.213   5.168   1.602  0.1283  1.7606 -0.1665
 4661SOL     MW18644   3.263   5.171   1.673  0.4912 -0.2281 -0.2820
 4662SOL     OW18645   0.225   1.849   2.827  0.4712 -0.1100 -0.0888
 4662SOL    HW118646   0.163   1.841   2.900  1.6494 -0.8789  0.8594
 4662SOL    HW218647   0.178   1.812   2.752 -1.1630  1.6610 -0.0148
 4662SOL     MW18648   0.211   1.843   2.827  0.4128  0.0183  0.0420
 4663SOL     OW18649   3.871   2.351   0.139  0.0835  0.0140  0.2496
 4663SOL    HW118650   3.899   2.331   0.228  0.1902  0.4045  0.3089
 4663SOL    HW218651   3.776   2.353   0.144  0.0122 -1.5921 -0.0146
 4663SOL     MW18652   3.862   2.349   0.151  0.0880 -0.1416  0.2233
 4664SOL     OW18653   4.191   4.789   1.927  0.1101  0.1495 -0.6530
 4664SOL    HW118654   4.271   4.742   1.903  0.1324 -0.9922  1.4064
 4664SOL    HW218655   4.123   4.751   1.872  0.5643 -0.5443 -0.7474
 4664SOL     MW18656   4.192   4.778   1.917  0.1711 -0.0855 -0.4014
 4665SOL     OW18657   1.683   5.299   4.820 -0.6317 -0.0790  0.2974
 4665SOL    HW118658   1.761   5.341   4.856  0.0119 -0.7696 -0.2601
 4665SOL    HW218659   1.629   5.278   4.897 -0.3839  0.6100  0.6666
 4665SOL     MW18660   1.686   5.302   4.834 -0.5176 -0.0792  0.2733
 4666SOL     OW18661   0.414   5.420   3.944 -0.1074  0.4355  0.1151
 4666SOL    HW118662   0.380   5.399   4.031 -1.1144 -0.4174 -0.4616
 4666SOL    HW218663   0.369   5.359   3.885 -0.5410  1.9544 -1.2037
 4666SOL     MW18664   0.404   5.409   3.947 -0.2919  0.5208 -0.1275
 4667SOL     OW18665   3.433   1.574   1.803 -0.2016  0.3339  0.3454
 4667SOL    HW118666   3.382   1.525   1.867  1.3125 -0.9458  0.6465
 4667SOL    HW218667   3.387   1.560   1.720 -0.8415 -0.0370  0.7556
 4667SOL     MW18668   3.421   1.566   1.800 -0.0897  0.1226  0.4365
 4668SOL     OW18669   2.817   0.158   1.017 -0.3441  0.8996 -0.1670
 4668SOL    HW118670   2.825   0.184   0.925 -0.3145 -0.7147 -0.6434
 4668SOL    HW218671   2.863   0.227   1.065 -0.0413  1.5772 -1.3849
 4668SOL     MW18672   2.824   0.171   1.012 -0.3015  0.7797 -0.3839
 4669SOL     OW18673   1.314   2.412   5.406  0.2517 -0.1022  0.5890
 4669SOL    HW118674   1.258   2.488   5.390  1.1090  0.5074  0.3969
 4669SOL    HW218675   1.317   2.368   5.321 -0.6994 -0.6791  0.8409
 4669SOL     MW18676   1.307   2.416   5.393  0.2397 -0.0980  0.5967
 4670SOL     OW18677   1.518   0.130   2.665  0.1358  0.0153  0.9677
 4670SOL    HW118678   1.460   0.181   2.721 -0.6643 -0.9822  1.0953
 4670SOL    HW218679   1.514   0.174   2.580  0.8385  1.1544  1.5058
 4670SOL     MW18680   1.510   0.142   2.661  0.1233  0.0334  1.0529
 4671SOL     OW18681   0.241   1.351   3.701  0.3467  0.0062 -0.1275
 4671SOL    HW118682   0.166   1.407   3.718  0.7406  0.8428 -1.0313
 4671SOL    HW218683   0.253   1.300   3.781 -1.3827 -0.3912 -0.0779
 4671SOL     MW18684   0.233   1.351   3.713  0.1757  0.0624 -0.2368
 4672SOL     OW18685   4.964   5.034   2.942  0.0280  0.3112 -0.1989
 4672SOL    HW118686   4.977   5.127   2.927 -0.3966  0.3665 -0.2373
 4672SOL    HW218687   4.871   5.019   2.922 -0.2365  0.1392  1.0585
 4672SOL     MW18688   4.954   5.044   2.937 -0.0602  0.2962 -0.0429
 4673SOL     OW18689   0.541   1.842   1.700 -0.2718  0.2559 -0.1975
 4673SOL    HW118690   0.549   1.871   1.609 -1.6428  1.5461  0.0527
 4673SOL    HW218691   0.457   1.795   1.702  0.3882 -0.9434  0.1249
 4673SOL     MW18692   0.531   1.840   1.688 -0.3628  0.2676 -0.1242
 4674SOL     OW18693   2.018   1.208   4.060  0.0355  0.2287 -0.5761
 4674SOL    HW118694   1.989   1.170   4.143  0.7145  0.1190 -0.3869
 4674SOL    HW218695   1.946   1.188   3.999 -0.9365  1.1921  0.2027
 4674SOL     MW18696   2.005   1.201   4.063 -0.0020  0.3380 -0.4522
 4675SOL     OW18697   3.911   4.917   0.175 -0.3380  0.1186  0.0723
 4675SOL    HW118698   3.995   4.933   0.133 -0.3481 -1.2809 -0.5364
 4675SOL    HW218699   3.847   4.959   0.118 -0.1306  0.4350  0.0707
 4675SOL     MW18700   3.913   4.924   0.163 -0.3128 -0.0200 -0.0058
 4676SOL     OW18701   2.845   0.941   3.992 -0.0450  0.9020  0.6814
 4676SOL    HW118702   2.797   0.918   3.912  1.0277 -0.8181  0.4941
 4676SOL    HW218703   2.814   0.878   4.057 -0.4139  1.8715  1.4792
 4676SOL     MW18704   2.835   0.930   3.990  0.0451  0.8059  0.7596
 4677SOL     OW18705   2.386   3.595   1.480  0.2498  0.6176 -0.1952
 4677SOL    HW118706   2.398   3.643   1.398 -1.4107  1.0123 -0.2390
 4677SOL    HW218707   2.306   3.632   1.518 -0.5113 -1.3812  0.2704
 4677SOL     MW18708   2.377   3.606   1.474 -0.0602  0.4123 -0.1412
 4678SOL     OW18709   0.484   4.403   1.827 -0.3466 -0.4226  0.6178
 4678SOL    HW118710   0.421   4.475   1.832  0.5443  0.6385 -1.9266
 4678SOL    HW218711   0.438   4.328   1.863 -2.9131  0.4136 -0.7105
 4678SOL     MW18712   0.470   4.403   1.832 -0.5611 -0.1798  0.1221
 4679SOL     OW18713   0.697   0.256   3.512  0.2221 -0.4434 -0.5528
 4679SOL    HW118714   0.630   0.319   3.485  1.0893  0.9870  0.4695
 4679SOL    HW218715   0.650   0.188   3.559 -0.6744 -0.3017 -1.2224
 4679SOL     MW18716   0.683   0.256   3.514  0.2184 -0.2422 -0.5076
 4680SOL     OW18717   3.633   3.255   4.320  0.2178  0.0611  0.4103
 4680SOL    HW118718   3.573   3.214   4.381 -0.5638 -1.0324 -1.0314
 4680SOL    HW218719   3.602   3.346   4.313 -0.9163 -0.3353  0.1355
 4680SOL     MW18720   3.621   3.262   4.327 -0.0274 -0.1296  0.1906
 4681SOL     OW18721   3.534   2.272   1.512 -0.0672  0.1746  0.0194
 4681SOL    HW118722   3.486   2.319   1.580 -0.7922 -0.5070  0.0043
 4681SOL    HW218723   3.484   2.190   1.501  0.2125  0.1448 -1.1103
 4681SOL     MW18724   3.521   2.267   1.520 -0.1242  0.0835 -0.1271
 4682SOL     OW18725   0.954   5.354   2.338  0.0037 -0.1787  0.5728
 4682SOL    HW118726   0.871   5.387   2.304  1.3269  0.3255 -2.6298
 4682SOL    HW218727   0.983   5.291   2.272  1.5111 -1.4588  2.3472
 4682SOL     MW18728   0.947   5.350   2.325  0.3660 -0.2780  0.3900
 4683SOL     OW18729   1.931   0.769   1.068  0.2700  0.2503  0.5832
 4683SOL    HW118730   1.885   0.700   1.022  0.7849  0.8181 -0.8302
 4683SOL    HW218731   1.963   0.728   1.148 -0.1254 -0.9180  0.1524
 4683SOL     MW18732   1.929   0.755   1.072  0.2853  0.1734  0.3471
 4684SOL     OW18733   2.915   1.023   4.935  0.4803 -0.4478 -0.2388
 4684SOL    HW118734   2.939   1.019   5.028 -0.5932 -1.0220  0.0283
 4684SOL    HW218735   2.866   0.942   4.920 -1.3120  0.6871 -0.7262
 4684SOL     MW18736   2.912   1.012   4.945  0.1134 -0.3760 -0.2670
 4685SOL     OW18737   2.879   4.505   1.652  0.0522 -0.3865 -0.5636
 4685SOL    HW118738   2.855   4.597   1.659  0.1745 -0.3948  0.0073
 4685SOL    HW218739   2.894   4.491   1.558  0.9291  0.4023 -0.5570
 4685SOL     MW18740   2.878   4.515   1.641  0.1801 -0.2866 -0.4896
 4686SOL     OW18741   3.852   3.219   2.737 -0.2628  0.5428  0.0494
 4686SOL    HW118742   3.850   3.196   2.830  1.2009  0.2770  0.0431
 4686SOL    HW218743   3.820   3.141   2.692  1.9650 -0.5349  0.1929
 4686SOL     MW18744   3.848   3.206   2.743  0.2097  0.3708  0.0670
 4687SOL     OW18745   1.681   3.894   1.053 -0.1588 -0.4399 -0.0034
 4687SOL    HW118746   1.668   3.880   0.959 -1.5851 -0.3628  0.1537
 4687SOL    HW218747   1.644   3.981   1.069 -1.5256 -1.1370  0.8930
 4687SOL     MW18748   1.675   3.903   1.043 -0.5164 -0.5193  0.1315
 4688SOL     OW18749   0.778   5.135   4.998  0.2781  0.4212 -0.2678
 4688SOL    HW118750   0.749   5.142   4.907  1.0153  1.4426 -0.4428
 4688SOL    HW218751   0.847   5.069   4.996 -0.6022 -0.5380 -0.1946
 4688SOL     MW18752   0.783   5.127   4.986  0.2598  0.4292 -0.2808
 4689SOL     OW18753   3.418   0.129   4.619 -0.0123  0.2560  0.2938
 4689SOL    HW118754   3.454   0.138   4.531  0.8346 -1.0925  0.4798
 4689SOL    HW218755   3.480   0.073   4.665 -0.9843  0.0787  1.4469
 4689SOL     MW18756   3.431   0.123   4.614 -0.0283  0.0607  0.4652
 4690SOL     OW18757   3.711   4.230   0.435  0.5594 -0.7059 -0.1184
 4690SOL    HW118758   3.742   4.140   0.427 -0.5070 -0.9893 -1.4907
 4690SOL    HW218759   3.673   4.250   0.349 -1.5836  0.1416  0.9467
 4690SOL     MW18760   3.710   4.221   0.423  0.1485 -0.6337 -0.1577
 4691SOL     OW18761   0.716   4.412   4.269  0.0489  0.3048 -0.1028
 4691SOL    HW118762   0.664   4.471   4.214 -2.5349 -1.0746  0.6865
 4691SOL    HW218763   0.727   4.334   4.215  0.7170  0.3276  0.0017
 4691SOL     MW18764   0.711   4.410   4.255 -0.1964  0.1312  0.0116
 4692SOL     OW18765   5.400   3.505   4.392  0.1237  0.2978  0.0130
 4692SOL    HW118766   5.348   3.582   4.413  0.8565  0.6815  0.4522
 4692SOL    HW218767   5.394   3.450   4.469  0.2408  0.2752  0.0067
 4692SOL     MW18768   5.393   3.508   4.404  0.2325  0.3440  0.0684
 4693SOL     OW18769   3.158   4.771   1.570  0.2875 -0.5200 -0.0126
 4693SOL    HW118770   3.161   4.706   1.500  0.0271 -1.0640  0.4718
 4693SOL    HW218771   3.066   4.797   1.575  0.4958  0.4206 -0.6693
 4693SOL     MW18772   3.147   4.766   1.562  0.2809 -0.4693 -0.0346
 4694SOL     OW18773   3.221   1.295   0.682  0.2185 -0.0129  0.3028
 4694SOL    HW118774   3.248   1.204   0.671  1.0064  0.3133 -0.5822
 4694SOL    HW218775   3.303   1.343   0.698 -0.2470  0.4605  1.3461
 4694SOL     MW18776   3.235   1.290   0.683  0.2598  0.0895  0.3231
 4695SOL     OW18777   0.670   3.819   1.511  0.6067 -0.4751 -0.1244
 4695SOL    HW118778   0.735   3.867   1.561  1.5342  0.5515 -2.2020
 4695SOL    HW218779   0.700   3.825   1.420 -2.9838  1.0956 -1.3667
 4695SOL     MW18780   0.682   3.826   1.506  0.2658 -0.1426 -0.5494
 4696SOL     OW18781   1.810   4.098   2.101  0.1687 -0.3233  0.2011
 4696SOL    HW118782   1.826   4.004   2.114 -2.0846 -0.8119 -0.2582
 4696SOL    HW218783   1.791   4.106   2.007  0.1223  0.5679  0.2795
 4696SOL     MW18784   1.810   4.087   2.090 -0.1257 -0.2718  0.1524
 4697SOL     OW18785   2.392   2.531   4.236 -0.4276 -0.0071 -0.3068
 4697SOL    HW118786   2.342   2.450   4.221  0.2675 -0.5191  0.0855
 4697SOL    HW218787   2.399   2.571   4.149 -2.7919  0.8562 -0.1594
 4697SOL     MW18788   2.387   2.525   4.223 -0.6413  0.0379 -0.2378
 4698SOL     OW18789   3.617   5.276   4.992 -0.0640 -0.3406 -0.2598
 4698SOL    HW118790   3.523   5.267   5.006  0.0941 -0.0348  1.1857
 4698SOL    HW218791   3.645   5.342   5.056  1.2775 -1.1469  0.0352
 4698SOL     MW18792   3.609   5.283   5.002  0.1280 -0.4047 -0.0370
 4699SOL     OW18793   0.915   3.556   3.271 -0.8728  0.1975  0.1300
 4699SOL    HW118794   1.007   3.562   3.298 -0.9574  2.3538  0.0961
 4699SOL    HW218795   0.914   3.487   3.205  0.5371 -0.5096  0.7947
 4699SOL     MW18796   0.926   3.548   3.266 -0.7032  0.3830  0.2107
 4700SOL     OW18797   1.751   2.532   2.520 -0.2299 -0.5247  0.1327
 4700SOL    HW118798   1.762   2.613   2.472 -1.5838  0.4670  1.3970
 4700SOL    HW218799   1.661   2.504   2.501 -0.3039 -0.8760  0.9307
 4700SOL     MW18800   1.741   2.538   2.511 -0.4127 -0.4427  0.3967
 4701SOL     OW18801   2.697   5.381   3.063 -0.3974  0.1845  0.2911
 4701SOL    HW118802   2.676   5.472   3.042  0.2234  0.4043  0.6217
 4701SOL    HW218803   2.656   5.366   3.148  1.0267  0.7181  1.0990
 4701SOL     MW18804   2.689   5.391   3.071 -0.1356  0.2809  0.4368
 4702SOL     OW18805   2.036   3.338   3.783 -0.4339 -0.2690  0.3190
 4702SOL    HW118806   1.970   3.331   3.714  0.0692  2.9097 -0.6225
 4702SOL    HW218807   1.987   3.320   3.864 -1.0536 -3.9748 -0.6611
 4702SOL     MW18808   2.021   3.335   3.785 -0.4488 -0.3365  0.0730
 4703SOL     OW18809   2.609   3.656   2.492 -0.0553 -0.0275 -0.3958
 4703SOL    HW118810   2.666   3.583   2.517  0.8902  1.5573  2.5496
 4703SOL    HW218811   2.544   3.661   2.563 -1.8061  0.3357 -1.9563
 4703SOL     MW18812   2.608   3.648   2.505 -0.1584  0.2219 -0.2185
 4704SOL     OW18813   1.768   0.167   0.526 -0.1850 -0.3100  0.0578
 4704SOL    HW118814   1.764   0.252   0.482  2.0826 -0.1588  0.0540
 4704SOL    HW218815   1.782   0.104   0.455 -1.2805 -0.6553  0.1244
 4704SOL     MW18816   1.769   0.170   0.511 -0.0350 -0.3348  0.0658
 4705SOL     OW18817   1.463   0.098   0.408  0.1887  0.3249  0.3785
 4705SOL    HW118818   1.412   0.097   0.489  1.7049  1.0427  1.3999
 4705SOL    HW218819   1.548   0.135   0.434  0.6748  0.6853 -1.5730
 4705SOL     MW18820   1.468   0.103   0.422  0.4450  0.4629  0.2594
 4706SOL     OW18821   4.521   4.601   3.438 -0.0434  0.5034  0.0504
 4706SOL    HW118822   4.572   4.545   3.496 -0.1218  0.0448 -0.3177
 4706SOL    HW218823   4.586   4.636   3.376 -0.3295 -1.0563 -1.1934
 4706SOL     MW18824   4.536   4.598   3.438 -0.0900  0.2450 -0.1559
 4707SOL     OW18825   4.085   1.608   0.487 -0.2812  0.3102  0.6841
 4707SOL    HW118826   4.180   1.615   0.493 -0.3074  0.0099  1.4554
 4707SOL    HW218827   4.058   1.564   0.567 -1.3034  2.5460  1.6748
 4707SOL     MW18828   4.093   1.603   0.498 -0.4154  0.5580  0.9097
 4708SOL     OW18829   3.797   0.745   4.843 -0.2336  0.3780  0.4256
 4708SOL    HW118830   3.860   0.751   4.914  0.2338 -0.4409  0.0952
 4708SOL    HW218831   3.745   0.667   4.863  0.0073  0.0449 -0.2115
 4708SOL     MW18832   3.798   0.736   4.854 -0.1429  0.2306  0.3018
 4709SOL     OW18833   5.024   2.473   4.446 -0.5910 -0.1998 -0.2877
 4709SOL    HW118834   5.091   2.535   4.419  0.9197 -1.7467 -0.2173
 4709SOL    HW218835   4.976   2.518   4.516  0.1072  1.0755 -0.6077
 4709SOL     MW18836   5.026   2.487   4.452 -0.3083 -0.2346 -0.3197
 4710SOL     OW18837   4.834   4.491   4.883 -0.4336 -0.1787 -0.0965
 4710SOL    HW118838   4.835   4.578   4.923 -0.0798 -0.5132  0.6456
 4710SOL    HW218839   4.834   4.431   4.958 -0.0322 -0.8180 -0.6018
 4710SOL     MW18840   4.834   4.494   4.898 -0.3369 -0.3033 -0.0662
 4711SOL     OW18841   3.687   3.026   2.171 -0.1380 -0.5505  0.2671
 4711SOL    HW118842   3.767   3.006   2.123 -1.4319 -0.5884 -1.9789
 4711SOL    HW218843   3.716   3.077   2.246  2.2035 -2.4008  0.7384
 4711SOL     MW18844   3.701   3.030   2.175 -0.0039 -0.7922  0.0399
 4712SOL     OW18845   3.694   4.343   2.673  0.0921 -0.2248 -0.1900
 4712SOL    HW118846   3.634   4.410   2.707 -0.2745 -0.8026  0.3306
 4712SOL    HW218847   3.765   4.339   2.737  0.1175 -0.3291 -0.2247
 4712SOL     MW18848   3.695   4.351   2.686  0.0484 -0.3121 -0.1278
 4713SOL     OW18849   2.297   4.349   3.286  0.4105 -0.3814  0.0071
 4713SOL    HW118850   2.346   4.290   3.229  0.4663 -0.6559  0.3329
 4713SOL    HW218851   2.224   4.380   3.233 -0.4756 -1.9047  0.2834
 4713SOL     MW18852   2.294   4.345   3.272  0.3042 -0.6115  0.0842
 4714SOL     OW18853   3.411   2.953   0.859 -0.2713 -0.2858  0.2364
 4714SOL    HW118854   3.490   2.994   0.894 -0.1981 -1.1767  1.1585
 4714SOL    HW218855   3.342   2.978   0.921 -0.3565 -0.9801  0.4246
 4714SOL     MW18856   3.412   2.962   0.871 -0.2728 -0.4887  0.3786
 4715SOL     OW18857   0.777   2.605   2.484  0.1390  0.1405 -0.1204
 4715SOL    HW118858   0.752   2.528   2.433 -1.0260  0.4293  0.0063
 4715SOL    HW218859   0.695   2.639   2.520  0.2028  2.9722 -2.2743
 4715SOL     MW18860   0.764   2.599   2.482 -0.0020  0.5400 -0.3799
 4716SOL     OW18861   1.216   2.591   0.239 -1.0055  0.0202  0.5552
 4716SOL    HW118862   1.168   2.509   0.245  0.2093 -0.8519 -0.9727
 4716SOL    HW218863   1.298   2.574   0.285 -0.7957  0.4190  0.3360
 4716SOL     MW18864   1.221   2.578   0.246 -0.8232 -0.0404  0.3315
 4717SOL     OW18865   2.820   3.814   4.878  0.4212  0.0682 -0.1332
 4717SOL    HW118866   2.891   3.767   4.836 -0.6848 -0.2328 -1.7573
 4717SOL    HW218867   2.862   3.885   4.926  1.7835 -0.0514 -1.1163
 4717SOL     MW18868   2.834   3.817   4.879  0.4540  0.0144 -0.4670
 4718SOL     OW18869   1.326   3.191   3.739 -0.2746 -0.4693  0.2011
 4718SOL    HW118870   1.334   3.110   3.791 -0.3877 -0.4318  0.2780
 4718SOL    HW218871   1.271   3.248   3.793 -0.1374 -0.3146  0.1788
 4718SOL     MW18872   1.320   3.188   3.753 -0.2715 -0.4447  0.2081
 4719SOL     OW18873   2.605   4.658   2.970 -0.2047  0.1478  0.3330
 4719SOL    HW118874   2.611   4.602   3.047 -0.3429 -0.5800 -0.1765
 4719SOL    HW218875   2.696   4.679   2.948  0.0807 -2.3828 -1.2600
 4719SOL     MW18876   2.617   4.653   2.977 -0.1859 -0.2693  0.0639
 4720SOL     OW18877   4.716   2.217   5.322 -0.0127  0.3365 -0.2074
 4720SOL    HW118878   4.699   2.290   5.381 -0.9032  0.5930 -0.7614
 4720SOL    HW218879   4.753   2.258   5.243  0.6482  0.0552 -0.0498
 4720SOL     MW18880   4.719   2.232   5.319 -0.0421  0.3333 -0.2581
 4721SOL     OW18881   0.942   1.356   4.394 -0.5281  0.7791 -0.1469
 4721SOL    HW118882   0.848   1.341   4.384 -0.6744  1.2167  0.5098
 4721SOL    HW218883   0.957   1.353   4.489  0.6645 -2.4403 -0.3040
 4721SOL     MW18884   0.932   1.354   4.405 -0.3942  0.4230 -0.0830
 4722SOL     OW18885   2.671   3.072   4.760 -0.0127 -0.4501  0.0783
 4722SOL    HW118886   2.608   3.008   4.728  0.4501 -0.5702 -0.6222
 4722SOL    HW218887   2.743   3.068   4.697  0.8840 -0.6178  1.0832
 4722SOL     MW18888   2.672   3.064   4.748  0.1614 -0.4870  0.1172
 4723SOL     OW18889   1.161   0.801   1.707  0.2329  0.0940  0.0751
 4723SOL    HW118890   1.099   0.870   1.733 -0.9666  0.2833 -2.8934
 4723SOL    HW218891   1.223   0.844   1.649  0.1168 -1.0773 -0.9699
 4723SOL     MW18892   1.161   0.815   1.703  0.0645 -0.0317 -0.4386
 4724SOL     OW18893   4.645   5.275   3.479 -0.5823  0.5689 -0.7364
 4724SOL    HW118894   4.722   5.245   3.432  0.2305  2.0194 -0.3785
 4724SOL    HW218895   4.660   5.369   3.494 -1.5444  0.5032  0.9739
 4724SOL     MW18896   4.656   5.283   3.475 -0.6014  0.7461 -0.4717
 4725SOL     OW18897   2.469   1.927   1.831 -0.1984 -0.3770  0.1071
 4725SOL    HW118898   2.397   1.920   1.768  0.1339 -2.6087 -0.1201
 4725SOL    HW218899   2.533   1.862   1.801  1.2251  0.4926  1.1743
 4725SOL     MW18900   2.468   1.917   1.819  0.0263 -0.5514  0.2146
 4726SOL     OW18901   5.218   1.899   2.799 -0.1838  0.1774 -0.1619
 4726SOL    HW118902   5.123   1.890   2.807 -0.1680  0.7501  0.8770
 4726SOL    HW218903   5.239   1.861   2.714 -1.1161 -1.6489  0.3708
 4726SOL     MW18904   5.209   1.893   2.789 -0.3011  0.0169  0.0393
 4727SOL     OW18905   3.502   0.257   4.042  0.1860 -0.0184  0.5510
 4727SOL    HW118906   3.485   0.306   4.123  1.3840 -0.3535  1.0394
 4727SOL    HW218907   3.451   0.177   4.050 -0.8305  0.5789  0.2995
 4727SOL     MW18908   3.494   0.253   4.053  0.2092  0.0151  0.5814
 4728SOL     OW18909   2.357   1.052   3.165  0.2709  0.4566 -0.1875
 4728SOL    HW118910   2.321   1.011   3.244  0.8356 -0.8213 -0.5640
 4728SOL    HW218911   2.280   1.077   3.114 -0.1108  1.8530  1.0185
 4728SOL     MW18912   2.343   1.050   3.169  0.2944  0.4717 -0.0813
 4729SOL     OW18913   0.480   1.486   0.183 -0.3212  0.1908 -0.5297
 4729SOL    HW118914   0.408   1.474   0.121  0.2065 -0.8395 -0.9753
 4729SOL    HW218915   0.551   1.433   0.147  1.5458  3.0681 -1.4532
 4729SOL     MW18916   0.480   1.478   0.170 -0.0146  0.4272 -0.7050
 4730SOL     OW18917   2.698   3.802   3.485  0.5573 -0.2656  0.1422
 4730SOL    HW118918   2.619   3.762   3.448  0.8086  0.9298 -1.8144
 4730SOL    HW218919   2.770   3.752   3.446  0.8074 -0.0335  0.3067
 4730SOL     MW18920   2.697   3.791   3.475  0.6215 -0.0829 -0.0872
 4731SOL     OW18921   2.381   1.036   2.346 -0.1717  0.2484 -0.4337
 4731SOL    HW118922   2.438   1.006   2.275  0.8735  0.4932  0.2849
 4731SOL    HW218923   2.366   1.129   2.327 -1.8572 -0.2094 -1.6132
 4731SOL     MW18924   2.386   1.044   2.335 -0.2537  0.2211 -0.4927
 4732SOL     OW18925   0.345   5.300   4.421 -0.2158 -0.2852 -0.0605
 4732SOL    HW118926   0.282   5.227   4.426 -0.0494 -0.4107  0.2471
 4732SOL    HW218927   0.313   5.363   4.487  0.2139 -0.5361  0.3942
 4732SOL     MW18928   0.333   5.299   4.430 -0.1395 -0.3334  0.0371
 4733SOL     OW18929   4.701   1.897   2.133 -0.0776  0.1508  0.7203
 4733SOL    HW118930   4.756   1.843   2.077  0.2549  0.5765  0.6340
 4733SOL    HW218931   4.711   1.859   2.220  0.7919  0.5558  0.8101
 4733SOL     MW18932   4.709   1.885   2.137  0.0763  0.2572  0.7208
 4734SOL     OW18933   5.190   3.804   3.224 -0.2360  0.0635 -0.0563
 4734SOL    HW118934   5.099   3.833   3.214  0.1588  0.8798 -1.5694
 4734SOL    HW218935   5.183   3.712   3.249 -1.4926  0.7402  2.3649
 4734SOL     MW18936   5.177   3.796   3.226 -0.3464  0.2546  0.0600
 4735SOL     OW18937   1.215   0.274   1.431 -0.1942  0.2452 -0.6790
 4735SOL    HW118938   1.267   0.303   1.356  0.9198  0.0286 -0.0141
 4735SOL    HW218939   1.272   0.289   1.507 -1.5383  1.0977  0.2108
 4735SOL     MW18940   1.229   0.280   1.431 -0.2237  0.3266 -0.4800
 4736SOL     OW18941   4.446   0.745   5.266 -0.1655 -0.4938 -0.3509
 4736SOL    HW118942   4.392   0.667   5.278  0.5024 -0.8411  0.5442
 4736SOL    HW218943   4.440   0.791   5.350 -2.5241  1.7563 -1.5872
 4736SOL     MW18944   4.438   0.741   5.278 -0.3820 -0.2503 -0.3945
 4737SOL     OW18945   1.306   4.005   0.984  0.2104  0.3470 -0.0015
 4737SOL    HW118946   1.388   4.055   0.991 -1.1419  2.8479 -0.6513
 4737SOL    HW218947   1.253   4.038   1.057 -1.4275  1.3429 -1.5733
 4737SOL     MW18948   1.310   4.016   0.995 -0.1724  0.7946 -0.2859
 4738SOL     OW18949   2.432   1.319   2.416 -0.3855 -0.3953 -0.1870
 4738SOL    HW118950   2.369   1.363   2.473 -0.1474  0.7982 -0.8195
 4738SOL    HW218951   2.496   1.281   2.476 -0.8314 -0.2475  0.3923
 4738SOL     MW18952   2.432   1.319   2.431 -0.4121 -0.2236 -0.1938
 4739SOL     OW18953   0.445   0.600   0.717  0.2523 -0.1159  0.1642
 4739SOL    HW118954   0.540   0.599   0.716  0.3271  1.9053  0.7720
 4739SOL    HW218955   0.419   0.513   0.687  2.2786 -1.7500  2.7191
 4739SOL     MW18956   0.454   0.588   0.713  0.5213 -0.0664  0.5691
 4740SOL     OW18957   2.893   3.074   1.264  0.2182 -0.3773  0.3559
 4740SOL    HW118958   2.822   3.127   1.227  0.9746 -0.1703 -0.8756
 4740SOL    HW218959   2.939   3.134   1.323  1.0482  0.4075 -1.0017
 4740SOL     MW18960   2.890   3.089   1.267  0.4213 -0.2504  0.0245
 4741SOL     OW18961   1.693   1.039   0.472  0.2081  0.4109 -1.3666
 4741SOL    HW118962   1.597   1.031   0.473  0.3153 -1.0205 -1.4110
 4741SOL    HW218963   1.711   1.085   0.390 -0.4028  0.1784 -1.6419
 4741SOL     MW18964   1.683   1.044   0.462  0.1436  0.1979 -1.4075
 4742SOL     OW18965   3.424   3.577   0.759 -0.3911  0.6704  0.2699
 4742SOL    HW118966   3.427   3.581   0.664 -3.1053 -1.6038 -0.0458
 4742SOL    HW218967   3.468   3.494   0.781 -0.1522  0.9750  0.9839
 4742SOL     MW18968   3.430   3.567   0.750 -0.7080  0.4183  0.3209
 4743SOL     OW18969   3.973   4.781   3.759 -0.3663  0.0052  0.1515
 4743SOL    HW118970   3.907   4.714   3.743 -0.6948  0.8819 -2.5842
 4743SOL    HW218971   3.924   4.857   3.790  0.0489 -0.9685  3.7289
 4743SOL     MW18972   3.958   4.782   3.761 -0.3552 -0.0072  0.2592
 4744SOL     OW18973   4.895   1.478   3.806 -0.0599 -0.4478  0.2516
 4744SOL    HW118974   4.957   1.467   3.734 -0.1129 -1.0387  0.2960
 4744SOL    HW218975   4.837   1.402   3.801 -1.5610  0.6946 -0.5343
 4744SOL     MW18976   4.896   1.467   3.796 -0.2588 -0.3772  0.1567
 4745SOL     OW18977   0.237   3.377   4.287  0.3171  0.4776 -0.5069
 4745SOL    HW118978   0.152   3.352   4.251  0.2172 -1.7393  1.0643
 4745SOL    HW218979   0.301   3.338   4.227  0.2131  0.6626 -0.7407
 4745SOL     MW18980   0.235   3.369   4.275  0.2910  0.2175 -0.3357
 4746SOL     OW18981   4.942   1.967   4.052 -0.6510  0.0677  0.2017
 4746SOL    HW118982   4.974   2.006   4.133  2.2606 -0.7441 -0.4391
 4746SOL    HW218983   4.878   2.030   4.018  0.7935  2.2234  1.2695
 4746SOL     MW18984   4.938   1.980   4.058 -0.0934  0.2398  0.2564
 4747SOL     OW18985   3.286   2.676   3.834 -0.5729  0.1977 -0.0086
 4747SOL    HW118986   3.194   2.662   3.811 -0.4890 -0.5927  0.1037
 4747SOL    HW218987   3.323   2.588   3.838 -0.1458  0.4131  1.3293
 4747SOL     MW18988   3.279   2.663   3.832 -0.5075  0.1240  0.1770
 4748SOL     OW18989   4.773   2.187   4.568 -0.7693 -0.2857  0.3332
 4748SOL    HW118990   4.720   2.238   4.507 -1.3492 -1.1948  0.0646
 4748SOL    HW218991   4.755   2.226   4.654  0.9793  1.8093 -0.1293
 4748SOL     MW18992   4.764   2.199   4.572 -0.6197 -0.1339  0.2396
 4749SOL     OW18993   4.350   5.171   3.290 -0.1514 -0.0214 -0.2209
 4749SOL    HW118994   4.257   5.171   3.311 -0.1922 -1.2574 -0.3114
 4749SOL    HW218995   4.386   5.100   3.344  0.9736  1.2431  0.7574
 4749SOL     MW18996   4.343   5.162   3.300 -0.0126 -0.0178 -0.1072
 4750SOL     OW18997   5.004   4.301   0.839  0.5281 -0.1523  0.0986
 4750SOL    HW118998   4.970   4.369   0.897  0.0346 -0.6411  0.3909
 4750SOL    HW218999   4.974   4.328   0.752 -1.2967 -0.9505  0.4334
 4750SOL     MW19000   4.996   4.313   0.835  0.2313 -0.3170  0.1789
 4751SOL     OW19001   5.397   1.103   3.611  0.2436 -0.4878  0.1359
 4751SOL    HW119002   5.473   1.105   3.670  0.1689  0.8237  0.2343
 4751SOL    HW219003   5.374   1.011   3.604  3.5889 -1.3540 -2.1426
 4751SOL     MW19004   5.404   1.092   3.617  0.6622 -0.4308 -0.1432
 4752SOL     OW19005   1.401   1.423   4.346  0.3006 -0.1670 -0.0468
 4752SOL    HW119006   1.493   1.395   4.353  0.6805  0.2673 -2.3628
 4752SOL    HW219007   1.366   1.369   4.275 -0.6080  1.1279 -0.6168
 4752SOL     MW19008   1.409   1.413   4.338  0.2329  0.0544 -0.4163
 4753SOL     OW19009   5.143   3.085   2.622  0.0063 -0.1765 -0.0265
 4753SOL    HW119010   5.096   3.099   2.541 -0.5000  0.0162  0.2974
 4753SOL    HW219011   5.194   3.166   2.635  0.0906 -0.2096 -0.1536
 4753SOL     MW19012   5.144   3.097   2.613 -0.0477 -0.1561 -0.0014
 4754SOL     OW19013   2.614   1.115   3.202 -0.5044 -0.2662  0.3066
 4754SOL    HW119014   2.630   1.147   3.113  1.7975 -1.4430  0.2315
 4754SOL    HW219015   2.519   1.113   3.209 -0.7547  0.1106 -2.0263
 4754SOL     MW19016   2.604   1.119   3.191 -0.2418 -0.3686 -0.0017
 4755SOL     OW19017   0.304   3.158   0.217  0.7960 -0.1558  0.1551
 4755SOL    HW119018   0.278   3.067   0.233  1.6746 -0.1697  1.6570
 4755SOL    HW219019   0.398   3.154   0.203  1.1313  0.6831  1.9001
 4755SOL     MW19020   0.313   3.146   0.217  0.9514 -0.0502  0.5707
 4756SOL     OW19021   3.759   3.953   0.811 -0.0281 -0.6458  0.2911
 4756SOL    HW119022   3.695   3.930   0.744 -1.2366  1.0629  0.7712
 4756SOL    HW219023   3.725   4.035   0.849  1.5676 -0.5946  1.7304
 4756SOL     MW19024   3.746   3.961   0.807  0.0214 -0.4205  0.5368
 4757SOL     OW19025   1.143   1.172   3.829 -0.1340  0.7284  0.1479
 4757SOL    HW119026   1.196   1.154   3.751 -1.4391  2.7400 -1.3181
 4757SOL    HW219027   1.180   1.253   3.865 -1.3804  1.4955 -0.2078
 4757SOL     MW19028   1.154   1.180   3.824 -0.4607  1.0841 -0.0853
 4758SOL     OW19029   0.564   3.946   2.465 -0.3891  0.1223  0.8816
 4758SOL    HW119030   0.545   3.995   2.385 -1.3220  1.2638  1.7658
 4758SOL    HW219031   0.543   3.855   2.443 -0.0530  0.3297 -0.3497
 4758SOL     MW19032   0.559   3.940   2.452 -0.4655  0.2950  0.8371
 4759SOL     OW19033   2.784   3.494   2.167 -0.2675 -0.0537 -0.0350
 4759SOL    HW119034   2.872   3.457   2.177  0.7732  2.1852 -0.3310
 4759SOL    HW219035   2.786   3.538   2.082 -2.3859 -1.6400 -1.0080
 4759SOL     MW19036   2.796   3.495   2.157 -0.4055  0.0298 -0.1974
 4760SOL     OW19037   5.164   0.100   1.004  0.1252 -0.5020  0.6026
 4760SOL    HW119038   5.257   0.121   1.012  0.2794 -0.5842 -0.7604
 4760SOL    HW219039   5.160   0.005   1.014  0.3899 -0.6754 -0.7062
 4760SOL     MW19040   5.175   0.090   1.006  0.1788 -0.5347  0.2606
 4761SOL     OW19041   2.617   3.097   5.045  0.3133 -0.3100  0.6769
 4761SOL    HW119042   2.623   3.009   5.083 -0.4364 -0.6779 -0.0401
 4761SOL    HW219043   2.630   3.084   4.951 -1.2011  0.1454  0.3784
 4761SOL     MW19044   2.620   3.084   5.038  0.0234 -0.2988  0.5469
 4762SOL     OW19045   3.176   5.442   3.570  0.0876  0.5795 -0.5101
 4762SOL    HW119046   3.206   5.359   3.533  1.8589  1.6762 -1.6919
 4762SOL    HW219047   3.236   5.507   3.534 -0.1989  2.1763  1.7368
 4762SOL     MW19048   3.187   5.440   3.561  0.2777  0.9243 -0.3737
 4763SOL     OW19049   0.224   1.793   0.191 -0.0442 -0.1393  0.4666
 4763SOL    HW119050   0.300   1.755   0.148  1.6096  0.6115  2.5719
 4763SOL    HW219051   0.185   1.720   0.239  0.5169 -0.1398  0.9369
 4763SOL     MW19052   0.229   1.778   0.192  0.2394 -0.0433  0.7963
 4764SOL     OW19053   1.224   0.546   4.395 -0.2244 -0.0089 -0.2133
 4764SOL    HW119054   1.220   0.510   4.484 -1.4094 -0.5143 -0.4495
 4764SOL    HW219055   1.203   0.639   4.406  1.0498  0.2552  0.1850
 4764SOL     MW19056   1.220   0.553   4.408 -0.2130 -0.0398 -0.1925
 4765SOL     OW19057   0.486   2.889   3.089  0.2249 -0.6774  0.0098
 4765SOL    HW119058   0.430   2.950   3.041  0.7068  0.1191  0.4386
 4765SOL    HW219059   0.425   2.826   3.128 -0.5228  0.9801  1.6146
 4765SOL     MW19060   0.471   2.889   3.088  0.1909 -0.3633  0.2701
 4766SOL     OW19061   0.446   0.147   2.780  0.0183 -0.3233  0.5604
 4766SOL    HW119062   0.405   0.129   2.865  0.5482  3.5200  1.8714
 4766SOL    HW219063   0.519   0.085   2.775 -0.5821 -1.2752  2.4644
 4766SOL     MW19064   0.450   0.137   2.790  0.0093  0.0469  0.9720
 4767SOL     OW19065   2.372   0.511   1.649  0.1332  0.3830  0.0347
 4767SOL    HW119066   2.348   0.479   1.736 -0.8991  0.4366 -0.2201
 4767SOL    HW219067   2.323   0.592   1.639  1.0138  0.8980 -0.2139
 4767SOL     MW19068   2.363   0.517   1.659  0.1137  0.4558 -0.0297
 4768SOL     OW19069   5.289   2.419   2.754  0.2552 -0.2658  0.0014
 4768SOL    HW119070   5.261   2.414   2.845  0.9624 -0.3105  0.2154
 4768SOL    HW219071   5.265   2.508   2.726 -0.5920 -0.4760  0.0131
 4768SOL     MW19072   5.282   2.430   2.762  0.2373 -0.2984  0.0303
 4769SOL     OW19073   2.326   2.854   4.818  0.2919 -0.1419 -0.0997
 4769SOL    HW119074   2.411   2.810   4.830  1.1892  1.3811 -0.5197
 4769SOL    HW219075   2.335   2.936   4.867 -0.7120  0.3204 -0.6588
 4769SOL     MW19076   2.338   2.859   4.826  0.2783  0.1122 -0.2250
 4770SOL     OW19077   0.386   4.326   3.956 -0.0189 -0.2572  0.1205
 4770SOL    HW119078   0.413   4.251   4.009 -1.3016  1.1180  2.9291
 4770SOL    HW219079   0.455   4.336   3.891  2.5391 -1.1160  2.5228
 4770SOL     MW19080   0.398   4.318   3.954  0.1443 -0.1911  0.7875
 4771SOL     OW19081   3.657   2.882   1.554 -0.0586 -0.0167  0.2051
 4771SOL    HW119082   3.726   2.944   1.531  0.1993 -0.1185  0.6750
 4771SOL    HW219083   3.602   2.929   1.617  1.1309 -0.7987  1.9359
 4771SOL     MW19084   3.659   2.896   1.559  0.1267 -0.1298  0.4868
 4772SOL     OW19085   2.147   4.951   0.346  0.5818 -0.1410  0.4848
 4772SOL    HW119086   2.231   4.989   0.373 -0.2246  0.4825  2.2322
 4772SOL    HW219087   2.152   4.947   0.251  1.6342  2.1744  0.3841
 4772SOL     MW19088   2.159   4.955   0.337  0.6133  0.2352  0.6956
 4773SOL     OW19089   1.051   2.357   4.272  0.3826 -0.2887 -0.1428
 4773SOL    HW119090   1.128   2.410   4.250  0.8926 -1.2745 -0.8649
 4773SOL    HW219091   1.048   2.291   4.202 -2.9322  1.5207 -1.9709
 4773SOL     MW19092   1.061   2.355   4.260  0.0235 -0.1832 -0.4693
 4774SOL     OW19093   0.815   5.029   3.737 -0.3932 -0.1576  0.5358
 4774SOL    HW119094   0.897   5.075   3.757  0.6888 -2.5390  1.9422
 4774SOL    HW219095   0.759   5.097   3.699  0.4120  2.8721  4.0960
 4774SOL     MW19096   0.819   5.044   3.735 -0.1516 -0.0746  1.1716
 4775SOL     OW19097   1.123   5.139   4.865  0.3801 -0.2963  0.0158
 4775SOL    HW119098   1.057   5.076   4.837  0.3311  0.3369 -1.3928
 4775SOL    HW219099   1.172   5.160   4.785  1.6360  0.0116  0.8255
 4775SOL     MW19100   1.121   5.134   4.851  0.5346 -0.1758 -0.0609
 4776SOL     OW19101   2.431   1.336   0.525  0.1876  0.4694 -0.2482
 4776SOL    HW119102   2.454   1.260   0.578 -0.8388  1.2221  1.3893
 4776SOL    HW219103   2.514   1.369   0.493  0.6649 -1.1569 -0.7362
 4776SOL     MW19104   2.444   1.331   0.528  0.1173  0.3576 -0.1010
 4777SOL     OW19105   4.919   3.170   0.581 -0.3025 -0.7224  0.1723
 4777SOL    HW119106   4.850   3.213   0.630 -0.0396  1.7010 -1.3994
 4777SOL    HW219107   5.000   3.207   0.615  0.0286 -1.0276 -0.2579
 4777SOL     MW19108   4.921   3.180   0.591 -0.2265 -0.4512 -0.0840
 4778SOL     OW19109   1.559   3.138   0.339 -0.2216 -0.4893  0.2840
 4778SOL    HW119110   1.624   3.195   0.298  1.3765 -0.0737  3.1379
 4778SOL    HW219111   1.480   3.192   0.343 -0.0301 -0.0828 -0.9689
 4778SOL     MW19112   1.557   3.152   0.334  0.0075 -0.3841  0.4889
 4779SOL     OW19113   4.009   2.053   3.296  0.3852  0.1273 -0.1384
 4779SOL    HW119114   4.033   2.090   3.211  0.7913  1.0425  0.3605
 4779SOL    HW219115   3.973   2.127   3.345 -1.6551 -0.7997 -0.1742
 4779SOL     MW19116   4.008   2.067   3.292  0.1760  0.1258 -0.0792
 4780SOL     OW19117   3.128   1.910   4.429 -0.2564  0.5317  0.1137
 4780SOL    HW119118   3.204   1.865   4.392  0.9860  2.0855  0.6774
 4780SOL    HW219119   3.080   1.841   4.476  0.7907 -0.4757 -0.2405
 4780SOL     MW19120   3.131   1.895   4.430  0.0367  0.6016  0.1405
 4781SOL     OW19121   4.657   4.189   4.831  0.7245 -0.2194  0.1226
 4781SOL    HW119122   4.629   4.221   4.745 -0.8243  0.5314  0.8539
 4781SOL    HW219123   4.667   4.268   4.884 -2.3421 -0.7565  1.7387
 4781SOL     MW19124   4.655   4.203   4.827  0.1337 -0.1921  0.4231
 4782SOL     OW19125   5.424   3.614   4.063 -0.4136  0.5024 -0.7322
 4782SOL    HW119126   5.404   3.597   3.972  0.0760  0.7613 -0.8941
 4782SOL    HW219127   5.457   3.531   4.097 -0.6917  0.3799 -0.7637
 4782SOL     MW19128   5.426   3.601   4.056 -0.3865  0.5198 -0.7570
 4783SOL     OW19129   3.965   3.470   0.441 -0.1332 -0.1203  0.4759
 4783SOL    HW119130   3.874   3.472   0.470 -0.6013  3.1933 -0.7953
 4783SOL    HW219131   4.015   3.492   0.520 -0.4017 -1.5542  1.0836
 4783SOL     MW19132   3.960   3.473   0.455 -0.2275  0.1203  0.3909
 4784SOL     OW19133   1.129   0.381   3.414  0.6321 -0.0061 -0.0454
 4784SOL    HW119134   1.047   0.413   3.451 -0.6108 -0.5191 -2.1369
 4784SOL    HW219135   1.194   0.448   3.436 -0.0836 -0.0509  2.4950
 4784SOL     MW19136   1.127   0.394   3.422  0.3814 -0.0775  0.0120
 4785SOL     OW19137   4.706   2.379   3.186  0.4653 -0.0223  0.4227
 4785SOL    HW119138   4.738   2.433   3.259  0.9193 -2.1453  1.8930
 4785SOL    HW219139   4.785   2.340   3.149  0.0129 -1.4540  0.9004
 4785SOL     MW19140   4.720   2.381   3.191  0.4655 -0.4773  0.6721
 4786SOL     OW19141   1.843   1.146   2.549 -0.4381  0.5052 -0.0471
 4786SOL    HW119142   1.813   1.217   2.493 -1.0826  0.6467  0.4643
 4786SOL    HW219143   1.847   1.185   2.637  0.9756  0.4143 -0.0423
 4786SOL     MW19144   1.840   1.160   2.553 -0.3397  0.5117  0.0190
 4787SOL     OW19145   5.136   2.406   2.182  0.6418  0.3406  0.3079
 4787SOL    HW119146   5.115   2.474   2.118  1.3887  0.3793  0.1030
 4787SOL    HW219147   5.230   2.410   2.193  0.8286 -1.2440 -0.3894
 4787SOL     MW19148   5.145   2.415   2.175  0.7613  0.1427  0.1924
 4788SOL     OW19149   0.061   1.356   0.400  0.6600  0.3804  0.2069
 4788SOL    HW119150   0.060   1.451   0.392  0.2452  0.3924  0.3483
 4788SOL    HW219151   0.147   1.335   0.435  1.1471  0.6206 -0.8095
 4788SOL     MW19152   0.072   1.365   0.403  0.6693  0.4127  0.0949
 4789SOL     OW19153   0.209   2.010   0.749  0.2969 -0.5132 -0.0058
 4789SOL    HW119154   0.169   1.956   0.817  0.6852  0.7271  1.2684
 4789SOL    HW219155   0.158   2.091   0.750 -0.4908 -0.9195 -2.0971
 4789SOL     MW19156   0.197   2.014   0.758  0.2458 -0.4065 -0.1104
 4790SOL     OW19157   2.016   1.799   0.267  0.1650  0.3039 -0.0078
 4790SOL    HW119158   2.075   1.849   0.211  0.5800  0.2694  0.3914
 4790SOL    HW219159   1.990   1.724   0.213  0.0524  0.6028 -0.3759
 4790SOL     MW19160   2.020   1.796   0.253  0.2037  0.3378 -0.0038
 4791SOL     OW19161   2.873   2.326   5.378  0.6448  0.7216  0.1667
 4791SOL    HW119162   2.810   2.344   5.447 -0.9726 -2.4957 -0.2548
 4791SOL    HW219163   2.934   2.264   5.417  1.1000  0.6621 -0.6105
 4791SOL     MW19164   2.873   2.320   5.392  0.4960  0.3022  0.0132
 4792SOL     OW19165   0.780   2.165   2.428 -0.2596 -0.6505  0.0673
 4792SOL    HW119166   0.809   2.231   2.366 -1.8214 -0.8745 -0.9532
 4792SOL    HW219167   0.750   2.214   2.504  0.4826 -0.3070  0.1439
 4792SOL     MW19168   0.780   2.179   2.430 -0.3645 -0.6352 -0.0536
 4793SOL     OW19169   3.613   1.075   2.843  0.6175 -0.1140  0.0569
 4793SOL    HW119170   3.640   1.074   2.752  0.0388  0.0717 -0.1261
 4793SOL    HW219171   3.563   0.994   2.855  0.1422  0.1699  0.0276
 4793SOL     MW19172   3.610   1.065   2.833  0.4826 -0.0539  0.0297
 4794SOL     OW19173   1.117   2.844   3.957  0.3907  0.1116  0.3519
 4794SOL    HW119174   1.115   2.749   3.946 -0.5283  0.1073  0.4122
 4794SOL    HW219175   1.026   2.867   3.977  0.7150  0.9342  0.9273
 4794SOL     MW19176   1.105   2.835   3.958  0.3146  0.2164  0.4333
 4795SOL     OW19177   3.166   2.560   2.933 -0.3150  0.1413 -0.3260
 4795SOL    HW119178   3.231   2.584   2.999 -0.4973 -3.1733  1.2885
 4795SOL    HW219179   3.217   2.539   2.855  0.2462  0.5686 -0.0772
 4795SOL     MW19180   3.181   2.560   2.931 -0.2665 -0.2283 -0.0875
 4796SOL     OW19181   2.089   3.628   4.591  0.6317  0.4315 -0.0518
 4796SOL    HW119182   1.995   3.626   4.609  0.7080 -0.0506  0.2997
 4796SOL    HW219183   2.102   3.710   4.542 -0.3524 -0.5873 -2.1913
 4796SOL     MW19184   2.078   3.638   4.587  0.5155  0.2394 -0.2807
 4797SOL     OW19185   4.798   0.068   5.057  0.0248  0.0621  0.5845
 4797SOL    HW119186   4.810   0.016   5.136 -0.2442 -1.0625 -0.0875
 4797SOL    HW219187   4.708   0.049   5.029  0.3112 -0.0197 -0.3064
 4797SOL     MW19188   4.788   0.059   5.063  0.0271 -0.0924  0.3844
 4798SOL     OW19189   2.926   0.729   0.308 -0.0854  0.4349  0.0945
 4798SOL    HW119190   2.964   0.813   0.283  0.1714  0.4658  0.5719
 4798SOL    HW219191   2.837   0.749   0.337 -0.3271  0.4202 -0.6314
 4798SOL     MW19192   2.920   0.742   0.309 -0.0835  0.4370  0.0627
 4799SOL     OW19193   4.832   3.623   1.429  0.6614 -0.0020 -0.0852
 4799SOL    HW119194   4.846   3.542   1.379 -0.1501 -0.4142  0.3278
 4799SOL    HW219195   4.895   3.618   1.501 -0.4989 -1.1038  0.9036
 4799SOL     MW19196   4.842   3.612   1.432  0.4089 -0.1958  0.0942
 4800SOL     OW19197   3.426   4.778   5.163 -0.3400 -0.1496 -0.0072
 4800SOL    HW119198   3.474   4.843   5.214  0.2327 -0.0453 -0.6576
 4800SOL    HW219199   3.417   4.818   5.076  0.2910 -1.0518 -0.5107
 4800SOL     MW19200   3.431   4.792   5.158 -0.1859 -0.2518 -0.1549
 4801SOL     OW19201   0.439   5.150   3.456  0.5276  0.7801 -0.2029
 4801SOL    HW119202   0.478   5.226   3.411  0.5728  0.2047 -1.1714
 4801SOL    HW219203   0.362   5.129   3.404  1.4381 -0.8666 -0.9797
 4801SOL     MW19204   0.434   5.157   3.443  0.6499  0.4956 -0.4263
 4802SOL     OW19205   5.169   2.925   3.938 -0.1594 -0.1458 -0.3886
 4802SOL    HW119206   5.167   2.912   4.033  1.6543 -0.4863 -0.3678
 4802SOL    HW219207   5.123   2.849   3.902  0.1286 -0.5897  0.1740
 4802SOL     MW19208   5.163   2.914   3.945  0.1097 -0.2462 -0.3140
 4803SOL     OW19209   4.553   2.632   1.980 -0.1630  0.6080 -0.1780
 4803SOL    HW119210   4.575   2.593   1.895 -0.8903  0.9212 -0.5137
 4803SOL    HW219211   4.583   2.567   2.044  0.1704  0.2595 -0.6766
 4803SOL     MW19212   4.560   2.619   1.977 -0.2134  0.6035 -0.2848
 4804SOL     OW19213   1.481   0.845   2.429 -0.3323  0.2257 -0.6443
 4804SOL    HW119214   1.437   0.761   2.446 -1.9973  0.6032 -2.7182
 4804SOL    HW219215   1.446   0.904   2.497 -1.4814 -0.0213 -0.9928
 4804SOL     MW19216   1.471   0.842   2.440 -0.6925  0.2424 -0.9544
 4805SOL     OW19217   0.737   0.492   0.346 -0.6088  0.3110 -0.0502
 4805SOL    HW119218   0.756   0.437   0.422  1.1974  1.4718  0.3723
 4805SOL    HW219219   0.760   0.581   0.373 -0.5340  0.8468 -1.7404
 4805SOL     MW19220   0.742   0.496   0.359 -0.3680  0.5282 -0.2125
 4806SOL     OW19221   0.557   3.504   0.505 -0.5566 -0.3828 -0.9609
 4806SOL    HW119222   0.494   3.558   0.457 -0.3683  1.3199  0.5911
 4806SOL    HW219223   0.639   3.515   0.457 -0.2846  1.5827 -0.1700
 4806SOL     MW19224   0.559   3.513   0.493 -0.4977  0.0868 -0.6610
 4807SOL     OW19225   4.232   1.921   5.313 -0.0042 -0.4121  0.1102
 4807SOL    HW119226   4.327   1.929   5.321 -0.1559  0.0404  1.8747
 4807SOL    HW219227   4.216   1.828   5.296  0.7305 -0.5787  0.3209
 4807SOL     MW19228   4.242   1.910   5.312  0.0704 -0.3755  0.3631
 4808SOL     OW19229   2.258   0.213   3.483 -0.4087 -0.4721  0.6401
 4808SOL    HW119230   2.352   0.195   3.475 -0.3870 -1.1372  2.1484
 4808SOL    HW219231   2.218   0.156   3.418  0.2591  0.3940 -0.5774
 4808SOL     MW19232   2.265   0.203   3.473 -0.3204 -0.4464  0.6773
 4809SOL     OW19233   1.541   1.038   1.891 -0.0774  0.3812 -0.2705
 4809SOL    HW119234   1.588   1.046   1.808 -1.3909 -0.0117 -1.0769
 4809SOL    HW219235   1.509   1.127   1.909 -0.7105  0.2535 -0.7503
 4809SOL     MW19236   1.543   1.051   1.883 -0.3266  0.3145 -0.4351
 4810SOL     OW19237   2.089   0.095   2.479 -0.0193  0.2681  0.1319
 4810SOL    HW119238   2.018   0.070   2.419  1.8188 -0.0323 -2.0685
 4810SOL    HW219239   2.067   0.184   2.507 -0.7143  0.6025 -1.3909
 4810SOL     MW19240   2.077   0.103   2.475  0.1270  0.2725 -0.3447
 4811SOL     OW19241   0.642   5.159   2.199  1.0662 -0.3814 -0.1689
 4811SOL    HW119242   0.629   5.139   2.292  4.4797 -0.5012  0.4092
 4811SOL    HW219243   0.630   5.075   2.154 -0.9337 -0.2617  0.0323
 4811SOL     MW19244   0.639   5.146   2.205  1.2471 -0.3814 -0.0692
 4812SOL     OW19245   3.014   0.445   3.827 -0.2751 -0.1757 -0.5421
 4812SOL    HW119246   3.008   0.383   3.755 -3.3393  1.2906 -1.7578
 4812SOL    HW219247   3.028   0.530   3.784 -1.2700  0.6100  0.6218
 4812SOL     MW19248   3.015   0.448   3.812 -0.7947  0.1126 -0.5487
 4813SOL     OW19249   0.431   3.489   0.118  0.0059 -0.2353 -0.5689
 4813SOL    HW119250   0.444   3.511   0.026  1.5278  1.5388  0.0105
 4813SOL    HW219251   0.515   3.453   0.147 -0.2125 -0.0630  0.3104
 4813SOL     MW19252   0.443   3.487   0.110  0.1728  0.0138 -0.3822
 4814SOL     OW19253   3.379   4.279   2.685 -0.3013 -0.5145  0.7135
 4814SOL    HW119254   3.329   4.241   2.757  1.4245 -1.9376  1.2234
 4814SOL    HW219255   3.446   4.333   2.728 -0.5179  0.2793  0.0902
 4814SOL     MW19256   3.381   4.281   2.700 -0.1081 -0.5951  0.6990
 4815SOL     OW19257   0.125   2.731   2.041  0.1042  0.3173  0.0426
 4815SOL    HW119258   0.195   2.795   2.054  0.4573 -0.3053  1.4603
 4815SOL    HW219259   0.063   2.775   1.982  2.3391  0.3169 -2.4599
 4815SOL     MW19260   0.126   2.745   2.035  0.4355  0.2376 -0.0963
 4816SOL     OW19261   3.073   0.635   2.348  0.2611 -0.2197 -0.2407
 4816SOL    HW119262   2.982   0.643   2.318  0.0793  0.9026  0.5534
 4816SOL    HW219263   3.074   0.555   2.401 -0.7925  0.8226  1.4523
 4816SOL     MW19264   3.061   0.626   2.351  0.1030  0.0574  0.0777
 4817SOL     OW19265   1.043   1.052   2.395  0.1740 -0.1847 -0.3338
 4817SOL    HW119266   1.114   1.116   2.401 -0.0760  0.0245  0.5301
 4817SOL    HW219267   0.989   1.083   2.321  0.5575  0.0841 -0.5029
 4817SOL     MW19268   1.045   1.064   2.386  0.1911 -0.1235 -0.2448
 4818SOL     OW19269   1.201   2.926   5.087 -0.0024  0.0873  0.2246
 4818SOL    HW119270   1.268   2.994   5.094  1.2303 -1.0661 -0.0942
 4818SOL    HW219271   1.138   2.947   5.156  0.8887  0.9694  0.7942
 4818SOL     MW19272   1.201   2.937   5.097  0.2695  0.0525  0.2567
 4819SOL     OW19273   2.299   0.951   4.484 -0.5055  0.2100  0.3261
 4819SOL    HW119274   2.299   0.871   4.536 -2.0479  0.8104  1.3142
 4819SOL    HW219275   2.385   0.989   4.499  0.0793 -1.0221  0.1971
 4819SOL     MW19276   2.310   0.946   4.492 -0.6281  0.1292  0.4361
 4820SOL     OW19277   1.991   2.934   4.010  0.1700 -0.4319 -0.6581
 4820SOL    HW119278   2.044   3.006   4.043  1.4132 -1.6181 -0.0058
 4820SOL    HW219279   1.985   2.950   3.916 -0.2522  0.9410 -0.4146
 4820SOL     MW19280   1.997   2.945   4.002  0.2751 -0.4080 -0.5434
 4821SOL     OW19281   3.100   5.018   4.384  0.0669 -0.2432  0.0162
 4821SOL    HW119282   3.076   5.043   4.473  1.4473 -0.8748  0.6050
 4821SOL    HW219283   3.130   4.928   4.392  1.1301  0.0019 -0.8899
 4821SOL     MW19284   3.101   5.010   4.397  0.3797 -0.2927 -0.0244
 4822SOL     OW19285   4.805   0.651   3.465 -0.3815 -0.6596 -0.6997
 4822SOL    HW119286   4.716   0.617   3.475 -0.8469  0.7160  0.0184
 4822SOL    HW219287   4.802   0.699   3.382 -0.7802  0.6878  0.0560
 4822SOL     MW19288   4.793   0.653   3.456 -0.4921 -0.3111 -0.5111
 4823SOL     OW19289   0.245   2.500   2.003  0.3107 -0.8239  0.1203
 4823SOL    HW119290   0.327   2.525   1.961  0.5833 -0.6199  0.7594
 4823SOL    HW219291   0.196   2.582   2.011  0.9267 -0.5676  1.6151
 4823SOL     MW19292   0.249   2.514   1.999  0.4244 -0.7650  0.3935
 4824SOL     OW19293   2.357   0.129   4.535 -0.0312 -0.9472  0.2480
 4824SOL    HW119294   2.416   0.120   4.460 -0.7191 -0.1391 -0.4077
 4824SOL    HW219295   2.279   0.079   4.511 -0.1152 -0.9721  0.5678
 4824SOL     MW19296   2.354   0.121   4.522 -0.1300 -0.8469  0.2050
 4825SOL     OW19297   4.994   0.582   0.671  0.3645 -0.1986 -0.1520
 4825SOL    HW119298   4.965   0.550   0.757 -0.6640 -0.2373 -0.4977
 4825SOL    HW219299   5.070   0.528   0.650  0.3811 -0.4671  0.5547
 4825SOL     MW19300   5.000   0.571   0.680  0.2350 -0.2379 -0.1058
 4826SOL     OW19301   4.282   3.650   0.723 -0.5820 -0.0250 -0.9157
 4826SOL    HW119302   4.328   3.600   0.656  0.1627  0.3627 -0.7095
 4826SOL    HW219303   4.190   3.627   0.712 -0.3983 -0.4147 -1.6816
 4826SOL     MW19304   4.276   3.641   0.713 -0.4631 -0.0252 -0.9874
 4827SOL     OW19305   1.930   2.738   0.889  0.3361 -0.4788  1.1455
 4827SOL    HW119306   1.934   2.812   0.948  0.4087  0.6522 -0.2173
 4827SOL    HW219307   1.853   2.755   0.834  1.9936  0.1587 -1.1241
 4827SOL     MW19308   1.920   2.749   0.889  0.5576 -0.2524  0.6805
 4828SOL     OW19309   4.192   2.333   4.002 -0.0323 -0.2610 -0.0536
 4828SOL    HW119310   4.099   2.313   4.014 -0.1994  0.8175  0.5362
 4828SOL    HW219311   4.211   2.400   4.067  1.3323 -0.9255  0.2663
 4828SOL     MW19312   4.183   2.339   4.012  0.1210 -0.2080  0.0628
 4829SOL     OW19313   0.933   1.284   3.200  0.2690 -0.2031 -0.0938
 4829SOL    HW119314   0.843   1.299   3.230 -0.6544 -1.5451 -2.0201
 4829SOL    HW219315   0.970   1.371   3.191 -0.6921  0.3610  1.1043
 4829SOL     MW19316   0.926   1.297   3.203  0.0278 -0.3027 -0.1870
 4830SOL     OW19317   4.676   0.984   3.452  0.4764 -0.2615 -0.0743
 4830SOL    HW119318   4.585   0.963   3.430  0.4857  0.5721 -0.9348
 4830SOL    HW219319   4.699   0.920   3.520  0.2198 -2.4381 -1.9314
 4830SOL     MW19320   4.667   0.973   3.458  0.4447 -0.4334 -0.4222
 4831SOL     OW19321   3.968   1.037   1.391 -0.2406 -0.6146 -0.0863
 4831SOL    HW119322   3.963   0.979   1.315  2.1522 -1.4377  0.2875
 4831SOL    HW219323   3.996   0.979   1.462  0.7148  0.6978  0.6409
 4831SOL     MW19324   3.971   1.022   1.390  0.1880 -0.5520  0.0547
 4832SOL     OW19325   1.484   0.112   5.373 -0.4164 -0.0581 -0.2300
 4832SOL    HW119326   1.415   0.087   5.434 -1.3190 -1.1881 -1.6474
 4832SOL    HW219327   1.461   0.202   5.347 -1.0831 -0.2481 -0.3204
 4832SOL     MW19328   1.472   0.120   5.377 -0.6173 -0.2270 -0.4230
 4833SOL     OW19329   3.104   4.040   3.975 -0.5851  0.2233  0.5954
 4833SOL    HW119330   3.182   4.002   4.017 -1.1666  0.3478  1.8390
 4833SOL    HW219331   3.062   3.966   3.931 -2.0935 -0.8562  3.5867
 4833SOL     MW19332   3.109   4.026   3.975 -0.8526  0.1010  1.1375
 4834SOL     OW19333   3.905   4.850   5.277  0.4083 -0.0040 -0.0348
 4834SOL    HW119334   3.872   4.882   5.192  1.8079 -1.8377 -1.3383
 4834SOL    HW219335   3.874   4.760   5.282 -0.0863  0.2339  1.6936
 4834SOL     MW19336   3.897   4.843   5.267  0.5242 -0.2083  0.0196
 4835SOL     OW19337   4.058   1.890   2.690  0.0797 -0.0469 -0.4327
 4835SOL    HW119338   4.125   1.958   2.694  0.1945 -0.0896 -1.3838
 4835SOL    HW219339   3.993   1.924   2.628  0.0048 -0.6735 -0.7079
 4835SOL     MW19340   4.058   1.903   2.682  0.0848 -0.1326 -0.5897
 4836SOL     OW19341   0.522   4.721   0.253 -0.3488  0.5219  0.1294
 4836SOL    HW119342   0.587   4.733   0.323 -0.3090  0.8562  0.0377
 4836SOL    HW219343   0.438   4.732   0.297 -0.3329  0.4309  0.1827
 4836SOL     MW19344   0.520   4.724   0.268 -0.3416  0.5530  0.1245
 4837SOL     OW19345   2.148   1.224   3.532  0.6071 -0.2313  0.0529
 4837SOL    HW119346   2.157   1.319   3.535 -0.5560 -0.1355  1.6756
 4837SOL    HW219347   2.154   1.196   3.624 -1.5270 -1.4451 -0.1105
 4837SOL     MW19348   2.150   1.232   3.544  0.1850 -0.3744  0.2397
 4838SOL     OW19349   2.500   0.952   4.939 -0.0529 -0.3464  0.4155
 4838SOL    HW119350   2.593   0.955   4.961  0.6726 -1.3188 -2.1951
 4838SOL    HW219351   2.466   0.876   4.986  1.1269 -1.6211 -0.7350
 4838SOL     MW19352   2.508   0.943   4.948  0.1910 -0.6341 -0.0660
 4839SOL     OW19353   2.807   2.221   4.919 -0.0201  0.6213  0.0063
 4839SOL    HW119354   2.797   2.172   5.001 -1.6425 -0.1571 -0.6033
 4839SOL    HW219355   2.886   2.186   4.879 -0.3882 -0.5249  0.2428
 4839SOL     MW19356   2.816   2.210   4.925 -0.2749  0.3749 -0.0414
 4840SOL     OW19357   3.539   0.951   3.681 -0.0758 -0.2426 -0.0803
 4840SOL    HW119358   3.542   1.023   3.618  2.1058 -1.5699 -1.6298
 4840SOL    HW219359   3.629   0.944   3.714 -0.3131 -1.9664  0.3109
 4840SOL     MW19360   3.551   0.959   3.677  0.1731 -0.6332 -0.2286
 4841SOL     OW19361   4.602   1.099   1.030  0.1107 -0.2468 -0.3351
 4841SOL    HW119362   4.669   1.168   1.031 -1.0130  0.8759 -0.1711
 4841SOL    HW219363   4.591   1.075   1.121  0.2315 -0.3672 -0.3527
 4841SOL     MW19364   4.609   1.105   1.041 -0.0177 -0.1185 -0.3164
 4842SOL     OW19365   3.025   0.965   0.773 -0.6195  0.2523 -0.2020
 4842SOL    HW119366   2.964   0.925   0.836 -1.5928  0.2629 -1.1234
 4842SOL    HW219367   3.066   0.890   0.729  2.2723  0.0948  2.3642
 4842SOL     MW19368   3.022   0.950   0.776 -0.3739  0.2335  0.0085
 4843SOL     OW19369   1.533   2.407   2.434  0.3690 -0.1988  0.1402
 4843SOL    HW119370   1.468   2.419   2.503  1.0029  2.6680  0.3623
 4843SOL    HW219371   1.485   2.422   2.353  0.4201  0.3513  0.2095
 4843SOL     MW19372   1.519   2.410   2.432  0.4567  0.2386  0.1775
 4844SOL     OW19373   3.175   5.350   0.218 -0.1347  0.6534 -0.0268
 4844SOL    HW119374   3.154   5.373   0.128  2.0578 -0.0196 -0.7873
 4844SOL    HW219375   3.160   5.430   0.268 -1.4541  1.0049 -0.9505
 4844SOL     MW19376   3.171   5.363   0.213 -0.0229  0.6122 -0.2424
 4845SOL     OW19377   3.901   3.018   1.840  0.6808  0.0012  0.3122
 4845SOL    HW119378   3.946   2.981   1.764 -1.2008 -0.9797 -0.4039
 4845SOL    HW219379   3.844   2.948   1.871  0.7422  0.6957  2.0810
 4845SOL     MW19380   3.899   3.004   1.834  0.4478 -0.0355  0.4470
 4846SOL     OW19381   2.036   2.521   5.217  0.0570 -0.3463  0.3128
 4846SOL    HW119382   2.061   2.557   5.132  0.7104 -1.6442 -0.0745
 4846SOL    HW219383   2.104   2.456   5.237 -2.0937 -2.9063 -0.0750
 4846SOL     MW19384   2.048   2.517   5.208 -0.1347 -0.8401  0.2136
 4847SOL     OW19385   0.407   4.295   0.197  0.0759  0.5336 -0.3759
 4847SOL    HW119386   0.479   4.326   0.141  1.7761  0.6071  1.7262
 4847SOL    HW219387   0.379   4.373   0.245  0.0852  0.0748  0.3851
 4847SOL     MW19388   0.413   4.309   0.196  0.2948  0.4843 -0.0094
 4848SOL     OW19389   1.518   5.189   0.483 -0.4935 -0.1073  0.1219
 4848SOL    HW119390   1.498   5.253   0.414  3.1722  0.8284 -0.2772
 4848SOL    HW219391   1.570   5.121   0.438  0.8045 -0.1845  1.6515
 4848SOL     MW19392   1.522   5.188   0.468  0.1419  0.0026  0.2666
 4849SOL     OW19393   2.884   1.231   0.864  0.2099 -0.2399  0.8680
 4849SOL    HW119394   2.913   1.182   0.787 -1.8546  0.5259 -0.4688
 4849SOL    HW219395   2.802   1.189   0.890 -1.5016  2.2024 -0.1861
 4849SOL     MW19396   2.877   1.219   0.857 -0.2735  0.1708  0.5619
 4850SOL     OW19397   1.680   1.439   3.571  0.1892  0.3126 -0.0824
 4850SOL    HW119398   1.764   1.440   3.523 -0.2088 -0.5910 -0.8366
 4850SOL    HW219399   1.682   1.357   3.619 -0.4016  0.1298 -0.3676
 4850SOL     MW19400   1.691   1.429   3.571  0.0626  0.1735 -0.2155
 4851SOL     OW19401   3.287   1.518   2.684  0.2143 -0.3846  0.0162
 4851SOL    HW119402   3.313   1.560   2.766 -0.9770 -1.0034  0.7377
 4851SOL    HW219403   3.292   1.588   2.619 -0.7393  0.6288  0.9999
 4851SOL     MW19404   3.291   1.532   2.686 -0.0603 -0.3341  0.2345
 4852SOL     OW19405   2.958   0.531   4.284 -0.4096  0.6146  0.2613
 4852SOL    HW119406   2.990   0.484   4.361 -0.3670  1.4874  0.7839
 4852SOL    HW219407   3.033   0.532   4.225 -0.7788 -1.0631 -0.3028
 4852SOL     MW19408   2.972   0.525   4.286 -0.4514  0.5116  0.2560
 4853SOL     OW19409   0.294   4.150   5.476 -0.2765 -0.4894  0.0042
 4853SOL    HW119410   0.311   4.217   5.541  3.3137 -1.3363  0.1648
 4853SOL    HW219411   0.349   4.174   5.401 -0.2215 -2.2968 -0.6005
 4853SOL     MW19412   0.303   4.162   5.475  0.1901 -0.8292 -0.0527
 4854SOL     OW19413   4.766   3.295   4.941  0.2809  0.5586  0.3070
 4854SOL    HW119414   4.712   3.286   5.020  0.4715  2.5001  0.6930
 4854SOL    HW219415   4.741   3.380   4.905 -0.0881 -0.4400 -1.9777
 4854SOL     MW19416   4.756   3.305   4.946  0.2580  0.6793  0.0640
 4855SOL     OW19417   1.913   2.265   2.156  0.0282  0.6713  0.2906
 4855SOL    HW119418   2.003   2.264   2.122 -0.6613  1.4286 -1.7266
 4855SOL    HW219419   1.893   2.173   2.172  1.2956  0.5272  1.2163
 4855SOL     MW19420   1.922   2.253   2.154  0.1022  0.7498  0.1509
 4856SOL     OW19421   1.227   3.091   4.050  0.3801  0.1673 -0.1842
 4856SOL    HW119422   1.322   3.082   4.040  0.2346 -1.3654 -0.4230
 4856SOL    HW219423   1.190   3.013   4.008 -0.9809  0.6609  0.0292
 4856SOL     MW19424   1.234   3.080   4.044  0.1873  0.0343 -0.1874
 4857SOL     OW19425   5.025   5.035   3.505 -0.3899 -0.0094 -0.3115
 4857SOL    HW119426   5.040   5.089   3.582  1.9522 -1.0732  0.0618
 4857SOL    HW219427   4.967   4.965   3.535 -0.4139  0.2139  0.1697
 4857SOL     MW19428   5.019   5.033   3.518 -0.0931 -0.1170 -0.2021
 4858SOL     OW19429   3.721   0.617   1.739  0.4997  0.1004  0.3736
 4858SOL    HW119430   3.741   0.601   1.832  1.6489  0.4000  0.1975
 4858SOL    HW219431   3.646   0.561   1.721  0.1881  0.1165  1.5144
 4858SOL     MW19432   3.714   0.608   1.749  0.6069  0.1408  0.4971
 4859SOL     OW19433   3.005   4.824   0.955  0.0638 -0.1965 -0.1187
 4859SOL    HW119434   2.986   4.771   0.877 -2.4006  0.3330  0.0519
 4859SOL    HW219435   3.025   4.911   0.920  1.4823 -0.5379 -0.2434
 4859SOL     MW19436   3.005   4.828   0.940 -0.0701 -0.1725 -0.1128
 4860SOL     OW19437   1.918   1.043   2.135  0.4931  0.4128  0.1299
 4860SOL    HW119438   1.866   1.055   2.056 -0.7199 -0.6668  0.7451
 4860SOL    HW219439   1.863   0.992   2.193  2.1205 -0.5002  0.9296
 4860SOL     MW19440   1.905   1.038   2.132  0.5462  0.1577  0.3110
 4861SOL     OW19441   0.954   1.875   4.269  0.6120 -0.0038  0.1116
 4861SOL    HW119442   0.889   1.811   4.240  0.7338 -0.1712  0.2093
 4861SOL    HW219443   1.037   1.843   4.233  1.2550 -1.6706  2.7774
 4861SOL     MW19444   0.956   1.863   4.260  0.7099 -0.2386  0.4654
 4862SOL     OW19445   1.129   4.117   4.721  0.6042  0.0893 -0.0970
 4862SOL    HW119446   1.160   4.093   4.633 -0.0527  0.7091 -0.5100
 4862SOL    HW219447   1.186   4.189   4.748  0.9274 -0.2267  0.0639
 4862SOL     MW19448   1.140   4.123   4.713  0.5614  0.1282 -0.1293
 4863SOL     OW19449   3.657   2.174   4.747 -0.2353  0.1504  0.0069
 4863SOL    HW119450   3.586   2.113   4.726  0.7372 -0.3552 -2.0558
 4863SOL    HW219451   3.612   2.256   4.768 -1.4650 -0.1357 -1.3180
 4863SOL     MW19452   3.642   2.177   4.747 -0.2682  0.0491 -0.4268
 4864SOL     OW19453   0.884   0.606   3.328  0.2990  0.0291 -0.0590
 4864SOL    HW119454   0.830   0.685   3.338  0.1859 -0.0462 -0.0773
 4864SOL    HW219455   0.873   0.559   3.410 -1.6521 -1.2310 -0.9509
 4864SOL     MW19456   0.876   0.610   3.339  0.0347 -0.1419 -0.1755
 4865SOL     OW19457   1.469   0.724   2.891  0.1591 -0.3373 -0.2479
 4865SOL    HW119458   1.556   0.712   2.929  0.7782  2.3830 -0.6014
 4865SOL    HW219459   1.408   0.698   2.960  1.2718  0.2987  1.0193
 4865SOL     MW19460   1.472   0.719   2.905  0.3808  0.0924 -0.1309
 4866SOL     OW19461   1.668   1.375   4.424 -0.5096  0.0407 -0.4389
 4866SOL    HW119462   1.712   1.294   4.396  0.2419  0.4163 -0.3569
 4866SOL    HW219463   1.701   1.442   4.363  0.6093  0.7312  0.8646
 4866SOL     MW19464   1.678   1.373   4.412 -0.2702  0.1772 -0.2615
 4867SOL     OW19465   4.113   4.407   3.782 -0.4445  0.1547  0.3295
 4867SOL    HW119466   4.114   4.334   3.843  2.2421  0.2747  0.5717
 4867SOL    HW219467   4.107   4.485   3.838 -1.0854  0.1867  0.2203
 4867SOL     MW19468   4.113   4.408   3.797 -0.1826  0.1742  0.3466
 4868SOL     OW19469   4.892   2.474   0.213 -0.6309 -0.1401 -0.0290
 4868SOL    HW119470   4.886   2.409   0.283  0.3261  0.1371  0.3298
 4868SOL    HW219471   4.951   2.540   0.248 -0.5585  0.2647 -0.9079
 4868SOL     MW19472   4.898   2.474   0.227 -0.4991 -0.0528 -0.0955
 4869SOL     OW19473   0.351   5.218   3.024  0.0034 -0.4040 -0.2184
 4869SOL    HW119474   0.345   5.174   3.109  0.1555  1.3861  0.7804
 4869SOL    HW219475   0.444   5.235   3.012  0.0132 -0.9146 -0.8996
 4869SOL     MW19476   0.362   5.215   3.034  0.0242 -0.2402 -0.1777
 4870SOL     OW19477   3.688   0.788   1.440  0.1186 -0.1188 -0.3051
 4870SOL    HW119478   3.680   0.848   1.366 -0.5759 -0.7881 -0.7910
 4870SOL    HW219479   3.682   0.845   1.517 -0.8377  0.4136 -0.7466
 4870SOL     MW19480   3.686   0.803   1.440 -0.0927 -0.1363 -0.4238
 4871SOL     OW19481   4.965   2.497   3.983  0.4512  0.3098  0.0393
 4871SOL    HW119482   4.934   2.441   4.053  0.5795 -0.7658 -0.7397
 4871SOL    HW219483   5.060   2.481   3.979  0.4184  0.2036 -0.4915
 4871SOL     MW19484   4.973   2.488   3.991  0.4634  0.1585 -0.1284
 4872SOL     OW19485   5.164   0.193   4.367 -0.4891  0.2731 -0.6217
 4872SOL    HW119486   5.258   0.197   4.353 -0.3171 -0.0201  0.3926
 4872SOL    HW219487   5.126   0.189   4.278  0.4810 -0.5199 -1.0109
 4872SOL     MW19488   5.171   0.193   4.354 -0.3429  0.1341 -0.5416
 4873SOL     OW19489   5.057   0.680   3.581  0.0139  0.4096 -0.3761
 4873SOL    HW119490   4.968   0.672   3.547 -0.5728 -0.2011  1.2155
 4873SOL    HW219491   5.090   0.591   3.583  0.3801  0.5477 -0.2283
 4873SOL     MW19492   5.050   0.668   3.577 -0.0143  0.3491 -0.1535
 4874SOL     OW19493   4.652   2.903   4.716  0.0415 -0.0692 -0.0530
 4874SOL    HW119494   4.656   2.904   4.811  0.5164 -0.0966 -0.0733
 4874SOL    HW219495   4.559   2.892   4.697  0.2260 -4.7144  0.4729
 4874SOL     MW19496   4.640   2.902   4.726  0.1259 -0.6673  0.0117
 4875SOL     OW19497   5.068   4.140   0.292 -0.2717 -0.0825  0.1618
 4875SOL    HW119498   5.022   4.184   0.363 -1.5240  0.3867 -0.9218
 4875SOL    HW219499   5.159   4.134   0.323 -0.6623  0.6672  1.5262
 4875SOL     MW19500   5.074   4.145   0.305 -0.4820  0.0735  0.1978
 4876SOL     OW19501   0.991   2.774   4.393 -0.0081  0.2633  0.2752
 4876SOL    HW119502   0.982   2.868   4.405 -0.2217  0.2446  0.2599
 4876SOL    HW219503   0.924   2.752   4.329 -0.7577 -0.0964  1.1706
 4876SOL     MW19504   0.982   2.783   4.386 -0.1314  0.2149  0.3879
 4877SOL     OW19505   4.081   5.143   3.919  0.0793  0.2012 -0.0371
 4877SOL    HW119506   4.117   5.211   3.862  1.1219  0.0268  0.3958
 4877SOL    HW219507   4.080   5.184   4.006  0.1994 -0.1529  0.1297
 4877SOL     MW19508   4.085   5.157   3.923  0.2281  0.1336  0.0397
 4878SOL     OW19509   0.674   0.574   4.286 -0.5663  0.1689 -0.0316
 4878SOL    HW119510   0.586   0.609   4.272 -0.1641  1.4233  0.3871
 4878SOL    HW219511   0.728   0.616   4.219  0.3127  2.0120  1.7165
 4878SOL     MW19512   0.669   0.584   4.276 -0.4023  0.5654  0.2458
 4879SOL     OW19513   0.234   0.125   2.623 -0.0510 -0.3929  0.7286
 4879SOL    HW119514   0.324   0.138   2.652  0.7111 -1.2208 -1.0788
 4879SOL    HW219515   0.201   0.054   2.678  0.7652 -0.7738  0.7457
 4879SOL     MW19516   0.241   0.117   2.633  0.1510 -0.5476  0.4994
 4880SOL     OW19517   0.925   3.709   5.277  0.1425 -0.1408 -0.2063
 4880SOL    HW119518   0.974   3.784   5.244  2.7754 -1.5686  0.1934
 4880SOL    HW219519   0.971   3.683   5.356 -2.6168 -0.3084  1.4775
 4880SOL     MW19520   0.937   3.715   5.283  0.1263 -0.3450  0.0604
 4881SOL     OW19521   4.226   1.330   3.794  0.2268 -0.0261  0.2562
 4881SOL    HW119522   4.131   1.319   3.796  0.2179 -0.6040 -1.5797
 4881SOL    HW219523   4.239   1.422   3.816 -0.7890  0.1592  0.1608
 4881SOL     MW19524   4.215   1.340   3.797  0.0956 -0.0764  0.0090
 4882SOL     OW19525   3.304   2.330   3.365 -0.4471 -0.1002  0.2774
 4882SOL    HW119526   3.350   2.409   3.392  0.6015 -0.2138 -1.0544
 4882SOL    HW219527   3.349   2.259   3.411 -0.3531 -0.0651  0.2394
 4882SOL     MW19528   3.316   2.331   3.375 -0.3009 -0.1103  0.1021
 4883SOL     OW19529   2.535   0.427   0.111  0.2622  0.5459 -0.1479
 4883SOL    HW119530   2.486   0.453   0.032  0.4021  1.0620 -0.0663
 4883SOL    HW219531   2.533   0.505   0.167 -0.5911 -0.0873  0.7388
 4883SOL     MW19532   2.528   0.441   0.108  0.1709  0.5309 -0.0239
 4884SOL     OW19533   2.385   4.844   1.124  0.2308  0.2992 -0.0398
 4884SOL    HW119534   2.294   4.835   1.151 -0.0538 -0.9330 -1.3255
 4884SOL    HW219535   2.404   4.937   1.136 -0.5474  0.2412  2.1357
 4884SOL     MW19536   2.376   4.855   1.129  0.0947  0.1341  0.0741
 4885SOL     OW19537   0.293   4.726   0.443 -0.2821 -0.4712 -0.2840
 4885SOL    HW119538   0.198   4.732   0.456 -0.1233 -0.0851  0.8446
 4885SOL    HW219539   0.323   4.666   0.511  0.3393 -0.2709 -0.3743
 4885SOL     MW19540   0.285   4.719   0.453 -0.1823 -0.3961 -0.1511
 4886SOL     OW19541   5.231   0.433   3.647  0.1706 -0.4865 -0.3109
 4886SOL    HW119542   5.264   0.505   3.701  2.9548 -1.0516 -1.0843
 4886SOL    HW219543   5.267   0.354   3.687 -0.1006 -1.1457 -1.3208
 4886SOL     MW19544   5.240   0.432   3.659  0.4923 -0.6432 -0.5392
 4887SOL     OW19545   2.703   4.953   2.244 -0.2730  0.1141  0.2137
 4887SOL    HW119546   2.655   4.984   2.321 -3.1278 -0.3445 -1.2290
 4887SOL    HW219547   2.713   4.859   2.259  0.5479  0.2677  0.6793
 4887SOL     MW19548   2.698   4.945   2.256 -0.5334  0.0750  0.0887
 4888SOL     OW19549   1.793   2.140   0.803  0.0918  0.0490 -0.0246
 4888SOL    HW119550   1.838   2.105   0.725 -0.2722 -0.5736  0.0333
 4888SOL    HW219551   1.860   2.191   0.848 -0.0015  1.4274 -1.3612
 4888SOL     MW19552   1.807   2.142   0.798  0.0333  0.1457 -0.1883
 4889SOL     OW19553   0.130   2.106   3.224 -0.0229  0.1844  0.1347
 4889SOL    HW119554   0.035   2.104   3.213 -0.0441  1.3883 -0.0829
 4889SOL    HW219555   0.162   2.154   3.148  0.5312  1.8656  1.3520
 4889SOL     MW19556   0.122   2.112   3.213  0.0453  0.5538  0.2627
 4890SOL     OW19557   2.790   0.434   0.459 -0.3834  0.3726  0.1842
 4890SOL    HW119558   2.763   0.523   0.484 -1.1757  0.7239 -1.7131
 4890SOL    HW219559   2.752   0.378   0.527  0.1246  1.4689  1.4113
 4890SOL     MW19560   2.781   0.438   0.471 -0.4198  0.5579  0.0984
 4891SOL     OW19561   2.038   4.590   3.854  0.2510 -0.3165 -0.5396
 4891SOL    HW119562   2.063   4.683   3.861 -1.4140  0.1017  0.5737
 4891SOL    HW219563   2.049   4.569   3.762  1.5863  0.6984 -0.6481
 4891SOL     MW19564   2.043   4.599   3.843  0.2088 -0.1330 -0.4110
 4892SOL     OW19565   0.415   1.056   2.133  0.3806 -0.1174 -0.4226
 4892SOL    HW119566   0.465   0.986   2.092  0.4775 -0.6916  0.6485
 4892SOL    HW219567   0.464   1.136   2.112  1.9490 -0.6900  0.8531
 4892SOL     MW19568   0.428   1.058   2.125  0.5938 -0.2642 -0.1222
 4893SOL     OW19569   1.804   0.265   2.446 -0.3872 -0.0238  0.2000
 4893SOL    HW119570   1.821   0.174   2.423 -0.5855 -0.3617  1.3182
 4893SOL    HW219571   1.882   0.313   2.418 -0.3196 -0.5184 -0.4681
 4893SOL     MW19572   1.816   0.260   2.439 -0.4039 -0.1304  0.2576
 4894SOL     OW19573   1.451   2.677   2.899  0.0138 -0.2705  0.0225
 4894SOL    HW119574   1.520   2.688   2.964  0.1981 -3.1825  0.4591
 4894SOL    HW219575   1.497   2.673   2.815  0.0464  0.7203 -0.0183
 4894SOL     MW19576   1.466   2.678   2.896  0.0416 -0.5164  0.0732
 4895SOL     OW19577   2.788   2.781   1.012  0.4831  0.1454  0.0812
 4895SOL    HW119578   2.846   2.706   0.997  0.3505 -0.2087  1.2446
 4895SOL    HW219579   2.714   2.766   0.952  0.1312 -1.0300  0.7547
 4895SOL     MW19580   2.786   2.769   1.003  0.4210 -0.0504  0.3164
 4896SOL     OW19581   2.721   1.884   3.502 -0.5495 -0.2702 -0.5187
 4896SOL    HW119582   2.810   1.876   3.538 -0.3603  0.6583 -0.7465
 4896SOL    HW219583   2.731   1.941   3.426 -1.4866  0.6202  0.0005
 4896SOL     MW19584   2.734   1.890   3.497 -0.6452 -0.0374 -0.4814
 4897SOL     OW19585   2.100   3.875   4.458 -0.1388 -0.3189  0.4960
 4897SOL    HW119586   2.082   3.968   4.472  1.8312  0.4689 -1.4911
 4897SOL    HW219587   2.068   3.857   4.370 -0.3700 -1.5008  0.8030
 4897SOL     MW19588   2.094   3.884   4.448  0.0838 -0.3693  0.2809
 4898SOL     OW19589   1.785   3.667   1.562 -0.1518 -0.2219 -0.6269
 4898SOL    HW119590   1.749   3.716   1.488 -0.9128 -0.6828 -0.5809
 4898SOL    HW219591   1.849   3.607   1.523 -0.7100 -0.6221 -0.9553
 4898SOL     MW19592   1.788   3.665   1.548 -0.3207 -0.3322 -0.6631
 4899SOL     OW19593   1.374   5.353   0.264 -0.1291 -0.3633  0.0182
 4899SOL    HW119594   1.407   5.419   0.325 -0.3475 -0.3989  0.1769
 4899SOL    HW219595   1.284   5.337   0.292 -0.4645  0.1240 -0.7344
 4899SOL     MW19596   1.366   5.359   0.275 -0.2000 -0.3054 -0.0579
 4900SOL     OW19597   4.660   3.137   2.802 -0.6903  0.3421  0.1885
 4900SOL    HW119598   4.699   3.057   2.838  0.1494 -1.2900 -3.8937
 4900SOL    HW219599   4.569   3.136   2.833 -0.0872 -0.8825  2.0840
 4900SOL     MW19600   4.653   3.127   2.811 -0.5056 -0.0236 -0.0914
 4901SOL     OW19601   5.356   5.281   2.614  0.0008 -0.1919 -0.5869
 4901SOL    HW119602   5.449   5.275   2.635  0.0798 -0.0504 -0.8890
 4901SOL    HW219603   5.354   5.309   2.522 -0.3471  1.3024 -0.1455
 4901SOL     MW19604   5.367   5.283   2.605 -0.0336  0.0175 -0.5691
 4902SOL     OW19605   2.609   4.414   2.817  0.2931  0.0316 -0.1679
 4902SOL    HW119606   2.608   4.499   2.862 -0.0495  0.3621 -0.7799
 4902SOL    HW219607   2.693   4.413   2.771 -0.0059  0.3645 -0.7417
 4902SOL     MW19608   2.619   4.425   2.816  0.2110  0.1165 -0.3197
 4903SOL     OW19609   2.454   5.259   5.155  0.0168  0.1263 -0.2387
 4903SOL    HW119610   2.528   5.214   5.114 -0.0002 -0.2226  0.1078
 4903SOL    HW219611   2.389   5.190   5.169 -0.5840  0.5258 -1.0136
 4903SOL     MW19612   2.455   5.244   5.151 -0.0623  0.1328 -0.2935
 4904SOL     OW19613   3.171   2.788   0.776  0.0418  0.0868 -0.0993
 4904SOL    HW119614   3.092   2.822   0.733  0.0611  0.1585 -0.0773
 4904SOL    HW219615   3.234   2.859   0.769 -0.2850  0.5086  0.9929
 4904SOL     MW19616   3.169   2.801   0.769  0.0025  0.1500  0.0434
 4905SOL     OW19617   0.082   5.364   0.077 -0.7316 -0.1534  0.3720
 4905SOL    HW119618   0.177   5.363   0.067 -0.6777  0.7392  0.7086
 4905SOL    HW219619   0.052   5.437   0.023 -0.9548  1.1672  2.1654
 4905SOL     MW19620   0.090   5.373   0.069 -0.7533  0.1299  0.6447
 4906SOL     OW19621   3.288   4.892   3.411 -0.7638  0.0907  0.1257
 4906SOL    HW119622   3.348   4.861   3.343 -0.0045 -0.2705  0.9441
 4906SOL    HW219623   3.295   4.828   3.481 -1.3130  0.6144  0.6740
 4906SOL     MW19624   3.296   4.880   3.411 -0.7369  0.1115  0.3007
 4907SOL     OW19625   2.271   4.609   3.087  0.2586 -0.1142 -0.2893
 4907SOL    HW119626   2.208   4.544   3.116 -0.8445  0.8775 -0.3597
 4907SOL    HW219627   2.323   4.629   3.164 -0.8597  0.5136  0.3351
 4907SOL     MW19628   2.269   4.603   3.100 -0.0257  0.0931 -0.2184
 4908SOL     OW19629   1.500   5.226   1.572 -0.4681  0.0494 -0.3301
 4908SOL    HW119630   1.481   5.292   1.506  2.4811  0.4150 -0.9840
 4908SOL    HW219631   1.504   5.275   1.654  0.7026  0.5722 -0.6694
 4908SOL     MW19632   1.498   5.241   1.574  0.0593  0.1631 -0.4572
 4909SOL     OW19633   0.430   3.468   0.747 -0.3403 -0.8524  0.3628
 4909SOL    HW119634   0.367   3.540   0.750 -0.8659 -1.2844 -0.0413
 4909SOL    HW219635   0.473   3.477   0.662 -1.2119 -1.6659 -0.1890
 4909SOL     MW19636   0.427   3.478   0.736 -0.5191 -1.0118  0.2404
 4910SOL     OW19637   1.017   3.779   0.497 -0.0107  0.3688 -0.5109
 4910SOL    HW119638   0.973   3.838   0.436  1.3716  0.9610 -0.9633
 4910SOL    HW219639   1.045   3.834   0.569 -0.5163 -0.1107  0.0649
 4910SOL     MW19640   1.015   3.793   0.498  0.1015  0.3833 -0.4951
 4911SOL     OW19641   2.487   3.951   0.467 -0.5000  1.2291  0.2450
 4911SOL    HW119642   2.408   4.001   0.443 -0.1488  1.6442 -0.0560
 4911SOL    HW219643   2.559   4.012   0.451 -0.0775  0.6822  0.0558
 4911SOL     MW19644   2.486   3.965   0.462 -0.4009  1.2122  0.1822
 4912SOL     OW19645   3.570   4.888   4.171  0.0628  0.2227 -0.2548
 4912SOL    HW119646   3.562   4.885   4.267 -0.3943  0.4890 -0.2839
 4912SOL    HW219647   3.546   4.800   4.142  0.4599  0.0658 -0.1046
 4912SOL     MW19648   3.566   4.876   4.180  0.0551  0.2367 -0.2393
 4913SOL     OW19649   2.500   4.826   0.077  0.1563 -0.1132  0.6473
 4913SOL    HW119650   2.516   4.877   0.157  1.9506 -0.9072  0.8487
 4913SOL    HW219651   2.405   4.833   0.063  0.1648  2.2193  1.3352
 4913SOL     MW19652   2.490   4.833   0.086  0.3871  0.0838  0.7612
 4914SOL     OW19653   4.632   2.754   0.691  0.0238 -0.2968 -0.3248
 4914SOL    HW119654   4.667   2.695   0.625 -1.1945 -1.0253 -0.3415
 4914SOL    HW219655   4.547   2.717   0.715  0.3089  0.0870  1.4639
 4914SOL     MW19656   4.626   2.742   0.686 -0.0956 -0.3409 -0.0980
 4915SOL     OW19657   4.037   2.635   4.490  0.6369 -0.4308 -0.3950
 4915SOL    HW119658   4.128   2.665   4.503  1.4116 -2.2386 -1.3421
 4915SOL    HW219659   4.032   2.614   4.397 -0.9355  0.0945 -0.4584
 4915SOL     MW19660   4.048   2.636   4.480  0.5348 -0.5950 -0.5243
 4916SOL     OW19661   3.941   3.735   5.384 -0.0111 -0.0704 -0.8136
 4916SOL    HW119662   3.999   3.665   5.413 -0.4771  0.2655  1.0158
 4916SOL    HW219663   3.914   3.708   5.296  1.9546 -0.8106 -1.2579
 4916SOL     MW19664   3.945   3.723   5.376  0.1809 -0.1222 -0.6363
 4917SOL     OW19665   1.200   0.422   4.623  0.5420 -0.2347 -0.6738
 4917SOL    HW119666   1.104   0.422   4.633  0.5578 -1.3327 -0.3532
 4917SOL    HW219667   1.232   0.421   4.713  0.7886 -2.8265 -0.7011
 4917SOL     MW19668   1.192   0.422   4.636  0.5756 -0.7071 -0.6363
 4918SOL     OW19669   1.533   0.541   4.441 -0.4099 -0.1334 -0.2589
 4918SOL    HW119670   1.499   0.534   4.352 -0.2489  1.8672 -0.5194
 4918SOL    HW219671   1.527   0.452   4.476 -1.9081 -0.6570 -1.7324
 4918SOL     MW19672   1.528   0.529   4.434 -0.5811  0.0557 -0.4809
 4919SOL     OW19673   3.977   2.394   0.726  0.5673  0.0965  0.3764
 4919SOL    HW119674   3.995   2.393   0.821 -0.1418  1.2661  0.5414
 4919SOL    HW219675   3.882   2.386   0.720  0.6913 -1.0947 -0.3030
 4919SOL     MW19676   3.967   2.393   0.738  0.4924  0.0937  0.3105
 4920SOL     OW19677   5.084   4.623   5.180 -0.6273 -0.4528 -0.0987
 4920SOL    HW119678   5.136   4.599   5.103 -0.4112 -0.6648  0.1118
 4920SOL    HW219679   5.100   4.553   5.243 -1.8452 -0.9578 -0.3352
 4920SOL     MW19680   5.093   4.611   5.178 -0.7555 -0.5446 -0.1020
 4921SOL     OW19681   1.786   0.930   2.339  0.4056  0.3685  0.2858
 4921SOL    HW119682   1.780   1.005   2.398 -0.2232 -0.4035  1.2411
 4921SOL    HW219683   1.701   0.888   2.346  0.7990 -0.5165 -0.1206
 4921SOL     MW19684   1.774   0.934   2.348  0.3755  0.1564  0.3561
 4922SOL     OW19685   3.282   3.091   1.278 -0.0862  0.3113  0.0587
 4922SOL    HW119686   3.206   3.096   1.337 -0.8112 -1.4345 -0.6762
 4922SOL    HW219687   3.321   3.178   1.284 -0.8535  0.5940  2.1527
 4922SOL     MW19688   3.277   3.103   1.287 -0.2772  0.1240  0.2327
 4923SOL     OW19689   3.270   1.036   3.107 -0.2985 -0.1460 -0.3455
 4923SOL    HW119690   3.260   0.979   3.031  1.2659  0.1285 -0.7987
 4923SOL    HW219691   3.357   1.015   3.141  0.0968  1.5925 -0.2106
 4923SOL     MW19692   3.280   1.026   3.102 -0.0476  0.1117 -0.3862
 4924SOL     OW19693   1.404   2.653   1.934  0.2697  0.1908 -0.0219
 4924SOL    HW119694   1.454   2.611   2.003  2.1692  1.4205 -0.5891
 4924SOL    HW219695   1.354   2.722   1.978  1.7174  1.1781  0.1138
 4924SOL     MW19696   1.404   2.656   1.948  0.6982  0.4746 -0.0771
 4925SOL     OW19697   1.712   3.848   0.793 -0.3884  0.1352  0.0056
 4925SOL    HW119698   1.737   3.756   0.795 -0.7751 -0.0463 -1.9775
 4925SOL    HW219699   1.665   3.859   0.710 -0.2467  2.1468  0.1397
 4925SOL     MW19700   1.709   3.838   0.783 -0.4198  0.3695 -0.2311
 4926SOL     OW19701   2.281   4.624   1.797 -0.1414 -0.6708  0.6158
 4926SOL    HW119702   2.278   4.594   1.888 -0.6996 -0.7734  0.5723
 4926SOL    HW219703   2.301   4.546   1.746 -2.2480 -1.1674  0.4414
 4926SOL     MW19704   2.283   4.611   1.802 -0.4825 -0.7475  0.5879
 4927SOL     OW19705   5.424   3.463   1.129 -0.2993  0.3965  0.3526
 4927SOL    HW119706   5.481   3.460   1.051 -1.1102  1.4988 -0.3196
 4927SOL    HW219707   5.342   3.423   1.100 -1.2767  2.5252  0.0019
 4927SOL     MW19708   5.421   3.457   1.115 -0.5282  0.8101  0.2217
 4928SOL     OW19709   2.487   4.330   2.250  0.1363  0.3119  0.2760
 4928SOL    HW119710   2.475   4.424   2.234  1.6867  0.4568 -0.1925
 4928SOL    HW219711   2.456   4.288   2.170 -0.1412  0.4535  0.3073
 4928SOL     MW19712   2.482   4.337   2.238  0.2992  0.3486  0.2200
 4929SOL     OW19713   4.543   5.178   3.724 -0.6706  0.3920  0.2635
 4929SOL    HW119714   4.595   5.102   3.752  2.0599  2.2560  0.7432
 4929SOL    HW219715   4.586   5.207   3.643 -1.6668  1.4072  0.0849
 4929SOL     MW19716   4.555   5.172   3.717 -0.4486  0.7606  0.3020
 4930SOL     OW19717   4.513   2.156   4.203  0.4189  0.1826  0.9042
 4930SOL    HW119718   4.510   2.101   4.282 -0.2120  0.3971  1.0415
 4930SOL    HW219719   4.421   2.176   4.185  0.4627 -0.7502 -0.5213
 4930SOL     MW19720   4.501   2.151   4.211  0.3438  0.0907  0.7393
 4931SOL     OW19721   0.505   4.268   4.896 -0.6118 -0.4185 -0.4407
 4931SOL    HW119722   0.431   4.225   4.939  0.0778 -0.5349  0.6917
 4931SOL    HW219723   0.514   4.352   4.942  0.1609 -0.5595 -0.3125
 4931SOL     MW19724   0.497   4.273   4.908 -0.4246 -0.4514 -0.2793
 4932SOL     OW19725   5.140   2.344   0.133  0.2655  0.1268 -0.2317
 4932SOL    HW119726   5.170   2.353   0.043  1.6193  1.3177  0.3000
 4932SOL    HW219727   5.089   2.424   0.150 -0.0096 -0.1027  0.0542
 4932SOL     MW19728   5.137   2.355   0.124  0.4036  0.2498 -0.1270
 4933SOL     OW19729   1.216   5.115   4.605  0.6097 -0.3134 -0.0593
 4933SOL    HW119730   1.272   5.191   4.589  0.0108 -0.0987 -1.3156
 4933SOL    HW219731   1.274   5.049   4.642  1.8453 -0.3226 -1.8923
 4933SOL     MW19732   1.230   5.116   4.608  0.6912 -0.2871 -0.4548
 4934SOL     OW19733   0.990   3.007   5.237 -0.2119  0.1335 -0.1212
 4934SOL    HW119734   0.966   3.011   5.329 -0.4267  2.5644 -0.2008
 4934SOL    HW219735   0.913   2.973   5.193 -0.1131 -1.0188  0.5765
 4934SOL     MW19736   0.977   3.003   5.243 -0.2268  0.2971 -0.0420
 4935SOL     OW19737   2.011   4.776   4.688 -0.0457 -0.2142  0.3165
 4935SOL    HW119738   2.088   4.756   4.635 -1.2282 -1.1557 -1.1389
 4935SOL    HW219739   2.046   4.818   4.766  2.0515 -1.8991  0.3710
 4935SOL     MW19740   2.025   4.779   4.691  0.0714 -0.5504  0.1372
 4936SOL     OW19741   0.422   3.157   1.348 -0.3331  0.4429  0.0247
 4936SOL    HW119742   0.374   3.136   1.268  0.7757  0.9698 -0.8056
 4936SOL    HW219743   0.357   3.199   1.405 -1.2896 -0.5153 -0.3278
 4936SOL     MW19744   0.407   3.160   1.345 -0.3136  0.3877 -0.1267
 4937SOL     OW19745   3.964   4.984   1.873 -0.6925 -0.5679  0.0610
 4937SOL    HW119746   3.999   4.992   1.785  0.5749  0.3039  0.6101
 4937SOL    HW219747   4.040   4.966   1.928 -1.5343 -1.6907  0.9186
 4937SOL     MW19748   3.978   4.983   1.869 -0.6380 -0.6001  0.2411
 4938SOL     OW19749   1.424   0.394   1.197  0.7313 -0.1616 -0.0973
 4938SOL    HW119750   1.407   0.473   1.248 -1.3098 -0.6802  0.1324
 4938SOL    HW219751   1.358   0.396   1.128  0.9070 -1.4518 -0.3268
 4938SOL     MW19752   1.413   0.404   1.195  0.4925 -0.3931 -0.0973
 4939SOL     OW19753   1.631   2.756   2.679  0.6769 -0.5557  0.5052
 4939SOL    HW119754   1.603   2.844   2.702 -1.1139 -1.1796  0.8453
 4939SOL    HW219755   1.722   2.767   2.649 -0.0040  1.6187 -0.9896
 4939SOL     MW19756   1.639   2.769   2.678  0.3605 -0.3572  0.3574
 4940SOL     OW19757   3.649   3.344   1.741 -0.4223  0.2107 -0.3033
 4940SOL    HW119758   3.653   3.439   1.735  1.3172  0.1256 -0.9893
 4940SOL    HW219759   3.671   3.324   1.832 -0.4273  0.4508 -0.2498
 4940SOL     MW19760   3.652   3.354   1.752 -0.2002  0.2305 -0.3843
 4941SOL     OW19761   5.338   2.117   3.139  0.0088 -0.9363  0.1950
 4941SOL    HW119762   5.366   2.110   3.048 -0.8619  1.6845 -0.3597
 4941SOL    HW219763   5.264   2.057   3.146 -0.0058 -1.0639 -0.8769
 4941SOL     MW19764   5.332   2.109   3.128 -0.1045 -0.6172 -0.0132
 4942SOL     OW19765   1.451   3.203   2.481 -0.1183 -0.6000 -0.4040
 4942SOL    HW119766   1.367   3.247   2.495 -1.1708 -2.8074  0.8254
 4942SOL    HW219767   1.470   3.217   2.388 -1.6160  0.3408 -0.6122
 4942SOL     MW19768   1.442   3.210   2.471 -0.4447 -0.7622 -0.2733
 4943SOL     OW19769   2.182   0.796   0.882 -0.0919 -0.1111  0.1063
 4943SOL    HW119770   2.105   0.806   0.939  0.7046  3.2863  0.8127
 4943SOL    HW219771   2.253   0.775   0.941  0.0571 -0.2843 -0.1346
 4943SOL     MW19772   2.181   0.795   0.896  0.0292  0.3016  0.1659
 4944SOL     OW19773   2.050   5.449   0.497  0.4898 -0.2274 -0.2128
 4944SOL    HW119774   1.969   5.429   0.449  1.4345 -2.2128 -1.0905
 4944SOL    HW219775   2.025   5.443   0.589 -0.3785 -0.8297 -0.4712
 4944SOL     MW19776   2.036   5.446   0.503  0.4996 -0.5586 -0.3582
 4945SOL     OW19777   2.187   1.488   3.595  0.5238 -0.0091  0.4336
 4945SOL    HW119778   2.209   1.571   3.551 -2.3964  0.8794  0.4156
 4945SOL    HW219779   2.127   1.514   3.666 -0.7732 -2.1102  0.1935
 4945SOL     MW19780   2.182   1.502   3.598 -0.0161 -0.1643  0.4006
 4946SOL     OW19781   4.862   1.426   0.769  0.0087  0.2915 -0.0995
 4946SOL    HW119782   4.934   1.434   0.831 -0.5180  0.4207  0.5034
 4946SOL    HW219783   4.904   1.433   0.683  0.8316 -0.4961  0.2112
 4946SOL     MW19784   4.877   1.428   0.766  0.0466  0.2073  0.0174
 4947SOL     OW19785   1.995  -0.009   3.770  0.4339 -0.0945 -0.0323
 4947SOL    HW119786   1.995   0.076   3.725  0.5913  0.1725  0.4583
 4947SOL    HW219787   1.913  -0.009   3.820  0.7918  0.1014  0.5687
 4947SOL     MW19788   1.985   0.002   3.771  0.4999 -0.0352  0.1074
 4948SOL     OW19789   2.638   2.743   2.124 -0.2634  0.3023  0.4497
 4948SOL    HW119790   2.640   2.836   2.146 -0.1015  0.7809 -1.4239
 4948SOL    HW219791   2.635   2.698   2.208  0.3049  1.9875  1.4046
 4948SOL     MW19792   2.638   2.749   2.137 -0.1699  0.5793  0.3321
 4949SOL     OW19793   1.247   4.425   0.904  0.2965  0.3993 -0.6148
 4949SOL    HW119794   1.335   4.459   0.886 -0.0241  1.9195  0.4433
 4949SOL    HW219795   1.248   4.336   0.870  1.7235  0.9298 -2.1083
 4949SOL     MW19796   1.259   4.418   0.897  0.4381  0.6618 -0.6705
 4950SOL     OW19797   4.596   1.302   3.223  0.1142 -0.0344 -0.0753
 4950SOL    HW119798   4.582   1.361   3.148 -0.6664  0.4955  0.4658
 4950SOL    HW219799   4.508   1.273   3.247  0.5353 -2.1624 -0.8726
 4950SOL     MW19800   4.583   1.306   3.217  0.0682 -0.2390 -0.1081
 4951SOL     OW19801   3.457   0.381   0.209 -0.2268 -0.3039  0.1141
 4951SOL    HW119802   3.411   0.406   0.289  0.8212  1.1417  0.3066
 4951SOL    HW219803   3.453   0.286   0.208  2.8617 -0.7341  3.8785
 4951SOL     MW19804   3.451   0.372   0.219  0.3028 -0.1739  0.6206
 4952SOL     OW19805   3.907   3.163   4.261  0.1561 -0.4488  0.3112
 4952SOL    HW119806   3.829   3.217   4.279  2.1779  2.2566  1.8725
 4952SOL    HW219807   3.942   3.199   4.180  2.2659  1.8348  2.0470
 4952SOL     MW19808   3.901   3.175   4.253  0.6850  0.1899  0.7333
 4953SOL     OW19809   1.520   2.932   4.979 -0.4743  0.0894  0.0221
 4953SOL    HW119810   1.502   2.838   4.983  0.9071 -0.2943 -1.4290
 4953SOL    HW219811   1.469   2.964   4.905 -0.5638  0.3858  0.2078
 4953SOL     MW19812   1.511   2.924   4.970 -0.3089  0.0782 -0.1399
 4954SOL     OW19813   4.969   3.417   3.979 -0.3082 -0.0342  0.0171
 4954SOL    HW119814   4.995   3.412   3.887  0.7723 -0.1894  0.3092
 4954SOL    HW219815   5.012   3.495   4.013  1.3420 -1.2775  0.9610
 4954SOL     MW19816   4.978   3.426   3.972  0.0414 -0.2132  0.1753
 4955SOL     OW19817   1.947   0.176   4.761  0.1626  0.4698  0.0701
 4955SOL    HW119818   1.906   0.144   4.681 -0.8048  0.9578  0.3605
 4955SOL    HW219819   2.036   0.202   4.734  0.1202 -0.1356 -0.6650
 4955SOL     MW19820   1.953   0.176   4.748  0.0334  0.4547  0.0132
 4956SOL     OW19821   0.008   3.173   2.861 -0.2415 -0.2196  0.0305
 4956SOL    HW119822   0.056   3.183   2.778 -2.0227 -1.4241 -1.2186
 4956SOL    HW219823   0.066   3.120   2.916  1.1307  0.9061 -0.2652
 4956SOL     MW19824   0.022   3.168   2.857 -0.2939 -0.2297 -0.1672
 4957SOL     OW19825   4.394   0.733   2.265  0.4702  0.3404  0.4073
 4957SOL    HW119826   4.391   0.703   2.356 -0.5319  1.2847  0.7187
 4957SOL    HW219827   4.449   0.811   2.268 -0.7507  1.2357  0.5124
 4957SOL     MW19828   4.401   0.739   2.277  0.1857  0.5759  0.4606
 4958SOL     OW19829   5.302   1.239   3.394  0.4346 -0.1112  0.2081
 4958SOL    HW119830   5.329   1.225   3.484 -0.8642 -0.8004  0.5152
 4958SOL    HW219831   5.366   1.301   3.359 -0.5622  2.3354  2.4035
 4958SOL     MW19832   5.313   1.245   3.401  0.1407  0.1137  0.5285
 4959SOL     OW19833   0.201   3.079   2.270  0.3033  0.0111  0.6768
 4959SOL    HW119834   0.236   3.016   2.208  1.0512  0.4847  0.5950
 4959SOL    HW219835   0.107   3.077   2.257  0.4426  0.0338 -0.4141
 4959SOL     MW19836   0.194   3.071   2.261  0.4169  0.0746  0.5266
 4960SOL     OW19837   0.438   1.533   1.455 -0.0598  0.4922 -0.5974
 4960SOL    HW119838   0.404   1.534   1.544 -0.2240  2.0671 -0.6498
 4960SOL    HW219839   0.390   1.462   1.411  0.5556 -0.8094  0.7347
 4960SOL     MW19840   0.428   1.524   1.460 -0.0020  0.5272 -0.4336
 4961SOL     OW19841   4.114   5.357   4.714  0.3633 -0.7072 -0.1464
 4961SOL    HW119842   4.051   5.405   4.768  0.9210 -0.3516  0.1983
 4961SOL    HW219843   4.163   5.425   4.669  1.3525 -0.9343  0.5609
 4961SOL     MW19844   4.112   5.372   4.715  0.5613 -0.6907 -0.0118
 4962SOL     OW19845   0.025   1.127   1.959 -0.2330 -0.0345 -0.2132
 4962SOL    HW119846   0.086   1.101   2.027  0.4740  2.3623  0.1641
 4962SOL    HW219847  -0.029   1.049   1.944  0.6781 -1.1486  1.8661
 4962SOL     MW19848   0.026   1.114   1.966 -0.0259  0.1297  0.1013
 4963SOL     OW19849   1.184   4.923   0.347 -0.5205 -0.0620  0.0541
 4963SOL    HW119850   1.196   4.968   0.263  2.3691 -0.2770  0.2604
 4963SOL    HW219851   1.105   4.870   0.334 -2.5930  2.9839 -1.0545
 4963SOL     MW19852   1.175   4.922   0.334 -0.4159  0.3004 -0.0614
 4964SOL     OW19853   1.983   4.955   1.730  0.3708 -0.5413 -0.2207
 4964SOL    HW119854   1.973   4.976   1.823  0.2906  0.3110 -0.4120
 4964SOL    HW219855   1.973   4.860   1.725  0.6868 -0.6269  0.6822
 4964SOL     MW19856   1.981   4.946   1.741  0.4010 -0.4431 -0.1296
 4965SOL     OW19857   2.775   4.743   4.168  0.0891 -0.0339 -0.4163
 4965SOL    HW119858   2.739   4.703   4.089 -0.1297  0.7901 -0.7433
 4965SOL    HW219859   2.743   4.833   4.166  0.3776  0.0969  0.4294
 4965SOL     MW19860   2.766   4.749   4.157  0.0980  0.0883 -0.3499
 4966SOL     OW19861   2.201   0.179   0.679  0.5552 -0.0538  0.0997
 4966SOL    HW119862   2.261   0.118   0.723  0.4575 -0.1444  0.1097
 4966SOL    HW219863   2.120   0.172   0.730 -0.3182 -1.8830 -1.4303
 4966SOL     MW19864   2.198   0.170   0.691  0.4309 -0.2996 -0.0949
 4967SOL     OW19865   4.671   4.537   1.601 -0.0055 -0.0980 -0.4194
 4967SOL    HW119866   4.578   4.519   1.591 -0.2780  1.2629 -0.4962
 4967SOL    HW219867   4.682   4.626   1.567  1.5608 -0.7099 -1.6734
 4967SOL     MW19868   4.660   4.546   1.595  0.1601 -0.0021 -0.5897
 4968SOL     OW19869   3.099   5.081   1.432 -0.0207  0.2947  0.3010
 4968SOL    HW119870   3.156   5.005   1.422 -0.6445 -0.2016  0.4461
 4968SOL    HW219871   3.083   5.111   1.343  0.7078  0.6223  0.2768
 4968SOL     MW19872   3.104   5.075   1.419 -0.0073  0.2731  0.3165
 4969SOL     OW19873   1.296   4.140   2.761  0.3942 -0.1642 -0.1105
 4969SOL    HW119874   1.245   4.135   2.681  0.0109 -1.1788  0.1790
 4969SOL    HW219875   1.305   4.234   2.779  0.5869  0.0815 -1.3876
 4969SOL     MW19876   1.291   4.152   2.753  0.3698 -0.2626 -0.2369
 4970SOL     OW19877   4.535   5.191   0.082 -0.3619 -0.6827  0.1123
 4970SOL    HW119878   4.599   5.210   0.014  0.1209  2.0368  1.2089
 4970SOL    HW219879   4.581   5.206   0.165 -1.9253 -0.2380  0.9586
 4970SOL     MW19880   4.549   5.195   0.084 -0.5002 -0.2777  0.3610
 4971SOL     OW19881   0.723   3.292   1.654  0.2892  0.1336  0.3299
 4971SOL    HW119882   0.679   3.306   1.570  0.6871  0.1351  0.1167
 4971SOL    HW219883   0.790   3.361   1.657 -0.2667  0.6527  1.0281
 4971SOL     MW19884   0.726   3.303   1.644  0.2690  0.2002  0.3920
 4972SOL     OW19885   1.519   2.600   5.406  0.4240  0.1168  0.8310
 4972SOL    HW119886   1.466   2.520   5.396  0.0159  0.2825  1.6090
 4972SOL    HW219887   1.489   2.658   5.336  1.1483 -0.6310 -0.1281
 4972SOL     MW19888   1.508   2.597   5.396  0.4645  0.0423  0.8078
 4973SOL     OW19889   2.270   4.208   3.569  0.3923  0.4491  0.5341
 4973SOL    HW119890   2.357   4.216   3.531  0.0989  1.0145 -0.0482
 4973SOL    HW219891   2.249   4.115   3.564  0.6923  0.4081  0.0659
 4973SOL     MW19892   2.278   4.198   3.564  0.3931  0.5162  0.3996
 4974SOL     OW19893   2.181   4.198   1.464 -0.2737 -0.8337 -0.6666
 4974SOL    HW119894   2.232   4.239   1.533 -0.2077 -0.7041 -0.7914
 4974SOL    HW219895   2.242   4.190   1.391 -0.0093 -2.0155 -0.3361
 4974SOL     MW19896   2.195   4.202   1.463 -0.2314 -0.9684 -0.6403
 4975SOL     OW19897   4.151   3.082   1.970 -0.3912 -0.0569 -0.4232
 4975SOL    HW119898   4.106   3.136   1.905  0.4509  1.5152  0.2207
 4975SOL    HW219899   4.229   3.050   1.926 -0.1715  0.4389 -0.3992
 4975SOL     MW19900   4.155   3.085   1.956 -0.2553  0.2078 -0.3377
 4976SOL     OW19901   4.563   4.256   3.695 -0.1937 -0.2866 -0.1447
 4976SOL    HW119902   4.474   4.287   3.683  0.3129  1.3682  0.1367
 4976SOL    HW219903   4.572   4.182   3.634 -1.4233  0.1835 -0.9188
 4976SOL     MW19904   4.553   4.250   3.686 -0.2862 -0.0146 -0.2078
 4977SOL     OW19905   4.618   2.607   1.713 -0.1119  0.3660 -0.2993
 4977SOL    HW119906   4.602   2.513   1.713  0.3331  0.2725 -1.4105
 4977SOL    HW219907   4.551   2.643   1.653 -1.9289  1.1066  1.9895
 4977SOL     MW19908   4.607   2.600   1.705 -0.2876  0.4488 -0.1486
 4978SOL     OW19909   2.816   3.485   3.668 -0.0398  0.2889  0.1221
 4978SOL    HW119910   2.840   3.442   3.750 -0.2075  1.4546  0.8008
 4978SOL    HW219911   2.778   3.569   3.695 -1.9113 -0.1216 -1.0420
 4978SOL     MW19912   2.814   3.490   3.682 -0.3008  0.3856  0.0600
 4979SOL     OW19913   0.715   4.478   0.515  0.5210 -0.1930 -0.4174
 4979SOL    HW119914   0.769   4.410   0.554  0.1340 -0.4049 -0.2534
 4979SOL    HW219915   0.626   4.442   0.515  0.3049  0.3275 -0.2781
 4979SOL     MW19916   0.710   4.465   0.520  0.4438 -0.1535 -0.3786
 4980SOL     OW19917   0.066   0.893   1.190 -0.2591 -0.6184  0.1631
 4980SOL    HW119918   0.094   0.934   1.108 -1.2974 -0.0346  0.0843
 4980SOL    HW219919  -0.013   0.844   1.167 -0.3051 -0.8142  0.7254
 4980SOL     MW19920   0.059   0.892   1.177 -0.3979 -0.5687  0.2250
 4981SOL     OW19921   0.834   4.590   3.128 -0.3315  0.9835  0.4885
 4981SOL    HW119922   0.765   4.547   3.077 -1.0763  0.7837  1.6243
 4981SOL    HW219923   0.829   4.549   3.214  1.8114  0.3425  0.3485
 4981SOL     MW19924   0.825   4.580   3.133 -0.1525  0.8759  0.6160
 4982SOL     OW19925   4.015   2.200   2.949 -0.0686  0.1764 -0.3363
 4982SOL    HW119926   4.024   2.232   2.859  2.6526  1.8870  0.4465
 4982SOL    HW219927   4.042   2.274   3.004  0.2482 -1.4504  1.8272
 4982SOL     MW19928   4.019   2.214   2.944  0.3203  0.1871  0.0408
 4983SOL     OW19929   0.420   3.401   3.657  0.1335  0.3564 -0.0564
 4983SOL    HW119930   0.422   3.452   3.576 -1.1696  0.1743 -0.2145
 4983SOL    HW219931   0.510   3.369   3.667 -0.0027 -0.8791 -2.2354
 4983SOL     MW19932   0.432   3.404   3.648 -0.0507  0.1749 -0.3556
 4984SOL     OW19933   1.724   4.053   1.850 -0.3877 -0.1887  0.1036
 4984SOL    HW119934   1.685   4.123   1.797  1.2912 -0.8040 -2.0475
 4984SOL    HW219935   1.661   3.981   1.845 -0.5065 -0.0424 -0.5730
 4984SOL     MW19936   1.711   4.053   1.843 -0.1880 -0.2487 -0.2584
 4985SOL     OW19937   3.822   1.728   3.848 -0.5639 -0.2109  0.3464
 4985SOL    HW119938   3.780   1.675   3.916  0.1175 -1.2942 -0.0528
 4985SOL    HW219939   3.868   1.797   3.897  1.8778 -2.3052  1.2664
 4985SOL     MW19940   3.823   1.730   3.863 -0.1641 -0.6177  0.4130
 4986SOL     OW19941   0.313   0.598   0.296  0.3287  0.1539 -0.0348
 4986SOL    HW119942   0.365   0.557   0.364 -1.7136 -0.4073  1.2893
 4986SOL    HW219943   0.227   0.557   0.304 -0.6854  1.8984 -1.2951
 4986SOL     MW19944   0.308   0.587   0.306 -0.0626  0.3054 -0.0266
 4987SOL     OW19945   4.182   2.288   2.331 -0.1223  0.3835  0.1389
 4987SOL    HW119946   4.127   2.212   2.312 -1.4172  1.1214  0.7907
 4987SOL    HW219947   4.272   2.256   2.322 -0.6414 -1.1171  0.0440
 4987SOL     MW19948   4.186   2.274   2.327 -0.3545  0.2858  0.2102
 4988SOL     OW19949   1.263   5.132   0.516  0.2669  0.8072 -0.5246
 4988SOL    HW119950   1.356   5.148   0.501  0.3405  0.0524 -0.9170
 4988SOL    HW219951   1.240   5.063   0.453 -0.0606 -0.4811  0.9320
 4988SOL     MW19952   1.272   5.125   0.506  0.2344  0.5457 -0.3884
 4989SOL     OW19953   0.506   2.110   0.100 -0.2105 -0.1574 -0.3226
 4989SOL    HW119954   0.540   2.200   0.099  2.4098 -1.0547 -0.2004
 4989SOL    HW219955   0.464   2.101   0.185 -0.6436  0.9763 -0.3930
 4989SOL     MW19956   0.505   2.121   0.110  0.0695 -0.1271 -0.3159
 4990SOL     OW19957   3.639   4.294   1.983 -0.2520 -0.2897  0.1585
 4990SOL    HW119958   3.573   4.250   1.930 -1.2536 -0.5430  1.5577
 4990SOL    HW219959   3.616   4.386   1.979  0.7384 -0.0746 -1.2555
 4990SOL     MW19960   3.628   4.300   1.976 -0.2534 -0.2946  0.1566
 4991SOL     OW19961   1.671   0.776   1.608  0.2684 -0.3679 -0.5183
 4991SOL    HW119962   1.665   0.702   1.669 -0.3964  0.2272  0.1563
 4991SOL    HW219963   1.728   0.839   1.652  1.4039 -0.7470 -1.3974
 4991SOL     MW19964   1.677   0.774   1.622  0.3287 -0.3403 -0.5445
 4992SOL     OW19965   0.869   2.126   1.038  0.0552 -0.8863  0.1401
 4992SOL    HW119966   0.914   2.081   0.966  1.6679  0.4344  0.2408
 4992SOL    HW219967   0.930   2.119   1.111  0.0043  0.7559  0.3693
 4992SOL     MW19968   0.883   2.120   1.038  0.2551 -0.5070  0.1823
 4993SOL     OW19969   3.541   0.201   0.904  0.8280 -0.3745  0.2528
 4993SOL    HW119970   3.614   0.208   0.842  0.3754 -1.5393 -0.4445
 4993SOL    HW219971   3.583   0.199   0.990  1.7295 -2.0029 -0.1782
 4993SOL     MW19972   3.556   0.201   0.907  0.8854 -0.7321  0.1083
 4994SOL     OW19973   4.917   5.066   5.432 -0.0889  0.0330  0.0455
 4994SOL    HW119974   4.977   5.002   5.470 -0.1575  0.1852  0.4093
 4994SOL    HW219975   4.894   5.124   5.504  2.4763  2.4752 -0.8735
 4994SOL     MW19976   4.922   5.065   5.446  0.2307  0.3651 -0.0256
 4995SOL     OW19977   0.961   4.390   2.473 -0.4983  0.0189 -0.0650
 4995SOL    HW119978   0.913   4.400   2.555 -0.5262 -0.7356  0.0130
 4995SOL    HW219979   1.005   4.306   2.480  0.1972  0.3360 -0.4736
 4995SOL     MW19980   0.960   4.381   2.484 -0.4128 -0.0371 -0.1073
 4996SOL     OW19981   1.300   2.897   3.782  0.0018  0.2763 -0.1820
 4996SOL    HW119982   1.280   2.904   3.688 -0.8604  0.4839  0.0151
 4996SOL    HW219983   1.217   2.874   3.823 -0.5859  3.8281  0.9905
 4996SOL     MW19984   1.287   2.895   3.775 -0.1838  0.7576 -0.0067
 4997SOL     OW19985   1.735   3.358   4.909 -0.6821 -0.1799  0.1022
 4997SOL    HW119986   1.777   3.317   4.985 -0.7777 -0.3048  0.0880
 4997SOL    HW219987   1.807   3.399   4.861 -0.2943 -1.9034 -0.8705
 4997SOL     MW19988   1.750   3.358   4.912 -0.6447 -0.4165 -0.0241
 4998SOL     OW19989   5.053   4.904   1.625  0.0369  0.4049  0.4718
 4998SOL    HW119990   5.045   4.958   1.547 -1.1465  0.3459  0.5390
 4998SOL    HW219991   5.039   4.815   1.595  0.2790  0.3041  0.6453
 4998SOL     MW19992   5.051   4.900   1.612 -0.0836  0.3844  0.5027
 4999SOL     OW19993   0.059   3.597   3.188  0.0341  0.0451  0.2301
 4999SOL    HW119994   0.061   3.549   3.105 -0.4476  2.2915 -1.1948
 4999SOL    HW219995  -0.032   3.593   3.217 -0.0553  0.2784 -0.0136
 4999SOL     MW19996   0.048   3.591   3.181 -0.0390  0.3625  0.0165
 5000SOL     OW19997   2.370  -0.003   0.818  0.4609 -0.1035  0.5348
 5000SOL    HW119998   2.310  -0.036   0.885  1.1524  0.1540  1.2929
 5000SOL    HW219999   2.432   0.051   0.866  0.3718  0.9029 -0.4620
 5000SOL     MW20000   2.370  -0.001   0.833  0.5380  0.0583  0.5043
 5001SOL     OW20001   1.892   1.737   3.354 -0.3271  0.2328  0.1559
 5001SOL    HW120002   1.804   1.759   3.322 -1.2266 -3.6383 -0.5613
 5001SOL    HW220003   1.948   1.744   3.277 -0.3255  1.1033  0.2304
 5001SOL     MW20004   1.888   1.741   3.340 -0.4420 -0.1513  0.0736
 5002SOL     OW20005   2.106   3.100   1.558 -0.0779 -0.3709 -0.1680
 5002SOL    HW120006   2.102   3.094   1.463 -1.2198 -1.2526 -0.0772
 5002SOL    HW220007   2.131   3.191   1.575  1.1789 -0.4742 -1.3096
 5002SOL     MW20008   2.109   3.111   1.548 -0.0632 -0.4970 -0.3025
 5003SOL     OW20009   1.502   2.660   4.951  0.1297 -0.6496 -0.3679
 5003SOL    HW120010   1.407   2.658   4.956  0.1695 -0.2905  1.7450
 5003SOL    HW220011   1.531   2.606   5.025  1.5506  0.1471 -0.3057
 5003SOL     MW20012   1.494   2.653   4.961  0.3167 -0.5016 -0.0895
 5004SOL     OW20013  -0.028   0.829   4.002 -0.3985 -0.4489 -0.4654
 5004SOL    HW120014   0.010   0.749   4.037  1.8833  0.5326 -0.5229
 5004SOL    HW220015   0.047   0.889   3.992 -1.7721  1.1298 -1.9469
 5004SOL     MW20016  -0.013   0.827   4.005 -0.2822 -0.1212 -0.6624
 5005SOL     OW20017   3.458   4.657   4.084  0.1625  0.4003 -0.5128
 5005SOL    HW120018   3.412   4.683   4.005 -1.0946 -0.3446 -0.0649
 5005SOL    HW220019   3.525   4.595   4.054 -0.0539  0.4154 -1.0309
 5005SOL     MW20020   3.460   4.652   4.070 -0.0261  0.3069 -0.5218
 5006SOL     OW20021   3.310   4.438   3.283 -0.2964 -0.1385  0.1143
 5006SOL    HW120022   3.221   4.457   3.314  0.0585  1.1199  0.4401
 5006SOL    HW220023   3.329   4.351   3.317 -1.1960 -0.1796  0.5380
 5006SOL     MW20024   3.301   4.429   3.292 -0.3662  0.0173  0.2103
 5007SOL     OW20025   4.453   4.956   4.699 -0.2540 -0.2469 -1.1893
 5007SOL    HW120026   4.488   4.934   4.785  0.5595  1.2257 -1.1097
 5007SOL    HW220027   4.378   4.897   4.688 -1.1694  0.3831  1.0818
 5007SOL     MW20028   4.448   4.946   4.709 -0.2671  0.0223 -0.8884
 5008SOL     OW20029   1.807   5.338   1.861  0.1644  1.3644  0.8137
 5008SOL    HW120030   1.796   5.433   1.861  0.6784  1.4636 -1.1711
 5008SOL    HW220031   1.829   5.317   1.770 -0.8750 -0.7641  1.0078
 5008SOL     MW20032   1.809   5.348   1.849  0.0972  1.1046  0.5844
 5009SOL     OW20033   3.318   4.445   3.014  0.6205 -0.1248 -0.0643
 5009SOL    HW120034   3.314   4.420   3.106  1.2296 -1.0359 -0.2842
 5009SOL    HW220035   3.232   4.486   2.997  0.0741 -0.9664  0.6112
 5009SOL     MW20036   3.306   4.447   3.024  0.6285 -0.3492 -0.0060
 5010SOL     OW20037   2.312   0.859   0.588 -0.1134 -0.2659 -0.3158
 5010SOL    HW120038   2.282   0.942   0.625  2.1530  0.4520  0.0600
 5010SOL    HW220039   2.321   0.876   0.494 -0.8085 -0.4900 -0.4331
 5010SOL     MW20040   2.309   0.872   0.581  0.0878 -0.2027 -0.2827
 5011SOL     OW20041   2.169   2.243   1.287  0.4139 -0.2046 -0.5083
 5011SOL    HW120042   2.224   2.248   1.208  1.5526  0.7976  0.2958
 5011SOL    HW220043   2.223   2.284   1.355  0.1525 -2.4885  1.1893
 5011SOL     MW20044   2.183   2.249   1.286  0.5262 -0.3687 -0.1881
 5012SOL     OW20045   4.381   3.658   0.067 -0.1810  0.2537  0.1513
 5012SOL    HW120046   4.433   3.664  -0.013 -1.0717 -1.9671 -0.6657
 5012SOL    HW220047   4.422   3.587   0.117 -2.7954 -2.2082 -0.9352
 5012SOL     MW20048   4.393   3.650   0.063 -0.6297 -0.3457 -0.0924
 5013SOL     OW20049   1.512   4.275   3.675  0.0323 -0.2643 -0.6366
 5013SOL    HW120050   1.518   4.179   3.676  1.5454 -0.2015  0.2014
 5013SOL    HW220051   1.430   4.295   3.720  0.8438 -1.1484  1.3570
 5013SOL     MW20052   1.503   4.265   3.681  0.3299 -0.3694 -0.2741
 5014SOL     OW20053   2.546   4.354   1.740 -0.0269 -0.1570 -0.2249
 5014SOL    HW120054   2.568   4.288   1.675 -1.6039  1.2622 -2.3341
 5014SOL    HW220055   2.589   4.324   1.820  0.8859 -2.6877 -1.5508
 5014SOL     MW20056   2.555   4.342   1.742 -0.1120 -0.2993 -0.6646
 5015SOL     OW20057   4.001   4.364   4.557  0.2061 -0.6152 -0.6038
 5015SOL    HW120058   4.017   4.426   4.486  0.0923 -0.8100 -0.8022
 5015SOL    HW220059   4.065   4.387   4.625  1.8181 -1.8157 -1.6488
 5015SOL     MW20060   4.011   4.375   4.557  0.3979 -0.7938 -0.7630
 5016SOL     OW20061   1.619   0.602   3.558 -0.0587  0.4700 -0.1224
 5016SOL    HW120062   1.588   0.593   3.468  1.5619  0.9322 -0.7510
 5016SOL    HW220063   1.703   0.556   3.559 -0.1230  0.3477  1.2030
 5016SOL     MW20064   1.626   0.595   3.547  0.1405  0.5135 -0.0332
 5017SOL     OW20065   2.985   0.332   1.111 -0.1317 -0.0954  0.0533
 5017SOL    HW120066   2.983   0.371   1.199 -1.7472  0.2315 -0.0850
 5017SOL    HW220067   3.073   0.296   1.102 -0.0023 -0.3132  1.8809
 5017SOL     MW20068   2.996   0.333   1.121 -0.3219 -0.0814  0.2696
 5018SOL     OW20069   3.771   2.753   3.646 -0.1921  0.0565  0.3614
 5018SOL    HW120070   3.720   2.834   3.643  0.5475  0.5112 -0.8851
 5018SOL    HW220071   3.736   2.700   3.575  0.0390 -0.2787  0.4957
 5018SOL     MW20072   3.760   2.756   3.637 -0.0678  0.0718  0.2190
 5019SOL     OW20073   3.848   2.895   2.539  0.5497  0.0902 -0.1576
 5019SOL    HW120074   3.803   2.815   2.510  0.0267 -0.0854  1.0674
 5019SOL    HW220075   3.935   2.889   2.499 -0.4303  0.3886 -2.5110
 5019SOL     MW20076   3.853   2.884   2.530  0.3573  0.1059 -0.3020
 5020SOL     OW20077   3.828   1.009   4.382  0.0667 -0.0798  0.6764
 5020SOL    HW120078   3.780   1.054   4.451  0.6021 -1.0511  1.7267
 5020SOL    HW220079   3.763   0.957   4.336 -0.2329  0.2770  0.6972
 5020SOL     MW20080   3.814   1.008   4.385  0.0969 -0.1585  0.8135
 5021SOL     OW20081   0.444   4.385   1.036  0.0359 -0.1435  0.3461
 5021SOL    HW120082   0.418   4.430   0.955  2.8711 -0.8476 -1.0530
 5021SOL    HW220083   0.407   4.439   1.106  0.5088  2.5159 -1.3346
 5021SOL     MW20084   0.436   4.398   1.035  0.4594  0.1068 -0.0481
 5022SOL     OW20085   3.760   1.216   0.332  0.0077 -0.1524 -0.2071
 5022SOL    HW120086   3.796   1.290   0.283 -1.0299  0.8300  0.4799
 5022SOL    HW220087   3.679   1.194   0.286 -0.7405  0.4838  0.7652
 5022SOL     MW20088   3.754   1.223   0.319 -0.2209  0.0548  0.0053
 5023SOL     OW20089   3.883   0.603   1.515  0.4230 -0.0910 -0.2370
 5023SOL    HW120090   3.848   0.605   1.604  1.9315  0.4153  0.3782
 5023SOL    HW220091   3.845   0.680   1.473 -0.0949 -0.1869  0.0444
 5023SOL     MW20092   3.874   0.613   1.521  0.5498 -0.0385 -0.1222
 5024SOL     OW20093   0.691   1.224   1.569 -0.5238 -0.5484  0.3111
 5024SOL    HW120094   0.779   1.238   1.602  0.2513 -1.2315 -1.3507
 5024SOL    HW220095   0.641   1.193   1.645  1.5001 -3.4106  0.6104
 5024SOL     MW20096   0.696   1.222   1.583 -0.1655 -1.0022  0.1367
 5025SOL     OW20097   4.785   3.810   3.441  0.0419 -0.5213 -0.6085
 5025SOL    HW120098   4.743   3.888   3.478 -0.1529 -1.3579  0.9947
 5025SOL    HW220099   4.834   3.844   3.365 -0.7326  1.0129 -0.4726
 5025SOL     MW20100   4.786   3.825   3.436 -0.0822 -0.4320 -0.3859
 5026SOL     OW20101   3.524   4.863   1.067 -0.1641 -0.0125 -0.2178
 5026SOL    HW120102   3.501   4.772   1.084  0.1818  0.1987  1.5850
 5026SOL    HW220103   3.542   4.867   0.973 -3.4520 -1.0568 -1.0207
 5026SOL     MW20104   3.523   4.852   1.057 -0.5407 -0.1192 -0.0898
 5027SOL     OW20105   3.273   0.631   1.570 -0.3430  0.0796  0.1772
 5027SOL    HW120106   3.245   0.721   1.584  0.5488  0.2296  1.0815
 5027SOL    HW220107   3.354   0.638   1.520  0.0607 -0.1814  0.7798
 5027SOL     MW20108   3.280   0.643   1.565 -0.1771  0.0654  0.3701
 5028SOL     OW20109   3.193   3.694   5.024  0.6519 -0.4009 -0.2462
 5028SOL    HW120110   3.145   3.664   4.946  0.2347  0.8491 -0.4937
 5028SOL    HW220111   3.282   3.661   5.010  0.5109 -0.4703 -1.0980
 5028SOL     MW20112   3.198   3.686   5.012  0.5804 -0.2498 -0.3869
 5029SOL     OW20113   0.756   1.776   3.465  0.2540  0.6833 -0.6466
 5029SOL    HW120114   0.696   1.704   3.482  0.3569  0.4844 -1.1174
 5029SOL    HW220115   0.814   1.778   3.541 -1.7826  2.3772  0.9998
 5029SOL     MW20116   0.756   1.767   3.477  0.0065  0.8747 -0.4961
 5030SOL     OW20117   4.409   3.768   0.335 -0.7492 -0.2243  0.9051
 5030SOL    HW120118   4.397   3.754   0.241 -1.6234  1.0134  0.7956
 5030SOL    HW220119   4.389   3.861   0.347  2.6745  0.5392  1.8074
 5030SOL     MW20120   4.405   3.778   0.324 -0.4229  0.0319  1.0066
 5031SOL     OW20121   1.705   3.463   1.095  0.0370  0.1556 -0.0407
 5031SOL    HW120122   1.700   3.369   1.114  0.2663 -0.4962 -2.8036
 5031SOL    HW220123   1.640   3.503   1.153 -1.0103 -1.8680  0.2680
 5031SOL     MW20124   1.696   3.456   1.105 -0.0677 -0.1869 -0.3549
 5032SOL     OW20125   5.145   2.841   4.216 -0.2456  0.2651  0.2949
 5032SOL    HW120126   5.065   2.793   4.193  0.1231 -0.4908  0.5573
 5032SOL    HW220127   5.187   2.788   4.283  0.2719  0.8699  0.4617
 5032SOL     MW20128   5.140   2.828   4.221 -0.1321  0.2457  0.3499
 5033SOL     OW20129   2.371   1.469   1.611  0.4396  0.2673  0.1641
 5033SOL    HW120130   2.370   1.424   1.526 -1.8194  0.8382 -0.1968
 5033SOL    HW220131   2.364   1.562   1.588 -1.3684  0.3644  0.9360
 5033SOL     MW20132   2.370   1.475   1.597 -0.0810  0.3528  0.2167
 5034SOL     OW20133   3.949   3.027   0.846 -0.1432  0.0610  0.8714
 5034SOL    HW120134   3.950   3.100   0.784 -1.3569 -1.0123 -0.5155
 5034SOL    HW220135   4.041   3.006   0.859  0.1674  0.2492 -0.7223
 5034SOL     MW20136   3.961   3.034   0.840 -0.2588 -0.0523  0.4899
 5035SOL     OW20137   5.375   5.354   0.257 -0.3467  0.2770 -0.0907
 5035SOL    HW120138   5.444   5.337   0.193 -0.2602  0.4186 -0.0351
 5035SOL    HW220139   5.378   5.448   0.271 -0.4177  0.2564  0.0633
 5035SOL     MW20140   5.384   5.364   0.250 -0.3447  0.2925 -0.0639
 5036SOL     OW20141   5.334   0.492   2.036 -0.6551  0.1869 -0.5262
 5036SOL    HW120142   5.308   0.487   1.944  1.0599 -1.4399 -0.9849
 5036SOL    HW220143   5.414   0.439   2.042  0.5280  2.0405  1.4905
 5036SOL     MW20144   5.341   0.484   2.025 -0.2841  0.2159 -0.3267
 5037SOL     OW20145   2.457   0.372   2.498  0.0313 -0.4415  0.1932
 5037SOL    HW120146   2.434   0.465   2.507  1.5539 -0.0336  0.2013
 5037SOL    HW220147   2.388   0.335   2.442 -1.4624  0.3231  1.4329
 5037SOL     MW20148   2.445   0.379   2.492  0.0350 -0.2914  0.3530
 5038SOL     OW20149   0.876   5.077   1.786 -0.1339 -0.2983  0.0383
 5038SOL    HW120150   0.954   5.079   1.840 -0.5020  0.2315  0.5607
 5038SOL    HW220151   0.815   5.020   1.834 -0.3845  0.0039  0.0856
 5038SOL     MW20152   0.878   5.070   1.799 -0.2131 -0.1918  0.1112
 5039SOL     OW20153   5.096   0.611   3.304  0.5062  0.0618  0.9192
 5039SOL    HW120154   5.093   0.705   3.320  0.4284  0.3372 -0.5695
 5039SOL    HW220155   5.183   0.596   3.266 -0.4618  0.0108 -1.4056
 5039SOL     MW20156   5.107   0.621   3.301  0.3723  0.0905  0.4310
 5040SOL     OW20157   1.991   3.042   5.010 -0.4352 -0.4178  0.1844
 5040SOL    HW120158   1.914   2.985   5.004 -1.2274  0.6077  0.2586
 5040SOL    HW220159   1.957   3.123   5.047  1.0875 -0.6301  2.1399
 5040SOL     MW20160   1.976   3.045   5.014 -0.3417 -0.3137  0.4442
 5041SOL     OW20161   1.012   4.537   0.752 -0.6079  0.3094  0.2002
 5041SOL    HW120162   1.066   4.518   0.828 -1.0876  0.5172  0.6040
 5041SOL    HW220163   1.014   4.633   0.744 -0.5778  0.2910 -0.0345
 5041SOL     MW20164   1.019   4.547   0.760 -0.6655  0.3337  0.2218
 5042SOL     OW20165   2.061   3.065   4.511 -0.0054 -0.4326  0.5000
 5042SOL    HW120166   1.965   3.062   4.507 -0.1733  1.3040  1.9811
 5042SOL    HW220167   2.082   3.026   4.596  0.4618  0.6304  0.8885
 5042SOL     MW20168   2.051   3.060   4.521  0.0329 -0.0742  0.7393
 5043SOL     OW20169   4.976   5.036   0.810 -0.0619 -0.2521  0.6637
 5043SOL    HW120170   4.904   4.974   0.824  0.6476 -0.9754  1.1982
 5043SOL    HW220171   5.044   4.984   0.767 -0.2553  0.6981 -0.8549
 5043SOL     MW20172   4.975   5.021   0.807  0.0041 -0.2231  0.5377
 5044SOL     OW20173   0.772   0.909   3.717 -0.2827 -0.3466 -0.2521
 5044SOL    HW120174   0.738   0.890   3.630  1.3944 -2.9172 -0.4597
 5044SOL    HW220175   0.814   0.995   3.708 -0.8776 -0.1800 -1.7259
 5044SOL     MW20176   0.773   0.918   3.704 -0.1442 -0.6544 -0.4673
 5045SOL     OW20177   0.325   2.365   5.167 -0.2988 -0.3316 -0.1360
 5045SOL    HW120178   0.349   2.393   5.255 -0.2242 -0.9024  0.0291
 5045SOL    HW220179   0.230   2.351   5.172 -0.3528 -0.0176 -0.2463
 5045SOL     MW20180   0.316   2.367   5.179 -0.2962 -0.3645 -0.1290
 5046SOL     OW20181   4.784   1.864   3.610 -0.1322 -0.1679 -0.1024
 5046SOL    HW120182   4.776   1.792   3.672 -0.1254  1.2424  1.6151
 5046SOL    HW220183   4.769   1.943   3.663 -0.6433  1.0771 -2.0061
 5046SOL     MW20184   4.781   1.865   3.625 -0.1968  0.1720 -0.1263
 5047SOL     OW20185   2.079   2.530   0.951 -0.3257 -0.1758  0.2816
 5047SOL    HW120186   2.163   2.563   0.982  0.8333 -0.1390 -2.6199
 5047SOL    HW220187   2.030   2.609   0.928 -0.4813 -0.2531  0.3478
 5047SOL     MW20188   2.083   2.544   0.952 -0.1972 -0.1810 -0.0814
 5048SOL     OW20189   0.816   4.549   1.681  0.3236  0.2171  0.1237
 5048SOL    HW120190   0.846   4.528   1.770  1.2430 -1.1268 -0.4792
 5048SOL    HW220191   0.748   4.615   1.694 -0.5696 -0.9966  1.9215
 5048SOL     MW20192   0.811   4.555   1.694  0.3270 -0.1103  0.2766
 5049SOL     OW20193   4.610   2.048   0.161  0.0680 -0.1099  0.2237
 5049SOL    HW120194   4.645   2.056   0.072  0.8875 -2.1623  0.3005
 5049SOL    HW220195   4.540   2.113   0.165 -1.0110 -0.9433 -2.4299
 5049SOL     MW20196   4.606   2.057   0.150  0.0348 -0.4793 -0.1061
 5050SOL     OW20197   5.047   0.470   1.089 -0.5498  0.3869  0.0687
 5050SOL    HW120198   5.049   0.389   1.140 -1.4524 -0.8583 -1.7631
 5050SOL    HW220199   4.987   0.452   1.017 -1.1633  2.8740 -0.1575
 5050SOL     MW20200   5.039   0.458   1.087 -0.7439  0.5459 -0.1948
 5051SOL     OW20201   1.312   0.561   3.470 -0.7044 -0.2944 -0.2888
 5051SOL    HW120202   1.268   0.646   3.462 -0.5466 -0.1283  0.4707
 5051SOL    HW220203   1.387   0.567   3.411 -1.3163 -0.3264 -1.0792
 5051SOL     MW20204   1.316   0.573   3.461 -0.7625 -0.2772 -0.2928
 5052SOL     OW20205   1.793   4.736   0.128 -0.1867 -0.0782 -0.2462
 5052SOL    HW120206   1.885   4.727   0.154 -0.2034  0.6437  0.0843
 5052SOL    HW220207   1.796   4.785   0.045 -0.2617 -0.2157 -0.3299
 5052SOL     MW20208   1.805   4.741   0.121 -0.1984 -0.0034 -0.2146
 5053SOL     OW20209   2.143   3.766   5.054  0.1315 -0.1828 -0.1007
 5053SOL    HW120210   2.187   3.692   5.095  0.4809 -0.4927 -1.0251
 5053SOL    HW220211   2.055   3.735   5.035 -0.1158  0.0441  0.6213
 5053SOL     MW20212   2.138   3.753   5.057  0.1445 -0.1934 -0.1266
 5054SOL     OW20213   0.101   0.409   3.102  0.0422  0.1661 -0.4751
 5054SOL    HW120214   0.040   0.438   3.034 -0.2799 -1.1972 -0.7930
 5054SOL    HW220215   0.110   0.485   3.160  0.2581  1.3386 -1.9743
 5054SOL     MW20216   0.095   0.422   3.101  0.0286  0.1417 -0.7077
 5055SOL     OW20217   2.939   0.755   0.957  0.2100  0.4334  0.0621
 5055SOL    HW120218   2.909   0.687   0.897  0.9010  1.0417 -1.0035
 5055SOL    HW220219   2.879   0.749   1.032  1.8544 -3.1615  1.3351
 5055SOL     MW20220   2.927   0.745   0.959  0.5090  0.0511  0.0887
 5056SOL     OW20221   1.570   4.607   2.861  0.0399 -0.0478  0.4305
 5056SOL    HW120222   1.610   4.571   2.782  1.0967 -0.3103  1.0605
 5056SOL    HW220223   1.645   4.635   2.915 -0.6424 -0.1492  1.4610
 5056SOL     MW20224   1.585   4.606   2.858  0.0879 -0.0944  0.6430
 5057SOL     OW20225   2.869   4.154   2.440 -0.2445  0.2909  0.0413
 5057SOL    HW120226   2.775   4.149   2.426 -0.3839  1.0240  0.6482
 5057SOL    HW220227   2.889   4.082   2.501 -0.2557 -0.4395 -0.8025
 5057SOL     MW20228   2.860   4.144   2.446 -0.2638  0.2913  0.0109
 5058SOL     OW20229   4.853   4.306   1.636  0.1905 -0.5244  0.0809
 5058SOL    HW120230   4.800   4.365   1.582  1.2131  0.4417  0.1121
 5058SOL    HW220231   4.846   4.221   1.592  1.5253  0.3679 -1.9989
 5058SOL     MW20232   4.845   4.303   1.624  0.4923 -0.2865 -0.1814
 5059SOL     OW20233   2.452   2.958   2.797  0.2067  0.1888 -0.3310
 5059SOL    HW120234   2.412   2.873   2.813 -0.2525  0.7109  1.7279
 5059SOL    HW220235   2.383   3.009   2.755 -0.1455  0.0645  0.0830
 5059SOL     MW20236   2.438   2.954   2.794  0.1028  0.2397 -0.0144
 5060SOL     OW20237   0.362   0.054   1.820 -0.2219 -0.2118  0.1306
 5060SOL    HW120238   0.452   0.034   1.797 -0.0356  0.1570  0.5324
 5060SOL    HW220239   0.333   0.117   1.755  0.4349  1.1446  1.1132
 5060SOL     MW20240   0.370   0.059   1.809 -0.1140  0.0090  0.3078
 5061SOL     OW20241   3.121   4.487   3.627  0.3578  0.1545 -0.0189
 5061SOL    HW120242   3.114   4.541   3.705  1.5761  0.6360 -0.2225
 5061SOL    HW220243   3.161   4.405   3.658  0.6460  0.2635 -0.1025
 5061SOL     MW20244   3.125   4.483   3.641  0.5507  0.2301 -0.0557
 5062SOL     OW20245   2.620   2.433   0.874  0.4877  0.6421 -0.2283
 5062SOL    HW120246   2.696   2.381   0.850  1.3821  1.0024  1.5820
 5062SOL    HW220247   2.594   2.477   0.793  2.0342  0.2815 -0.9668
 5062SOL     MW20248   2.627   2.432   0.861  0.8001  0.6421 -0.0911
 5063SOL     OW20249   2.032   0.523   1.530  0.1065 -0.3073 -0.4539
 5063SOL    HW120250   2.063   0.594   1.586 -0.1764 -0.5030 -0.0487
 5063SOL    HW220251   2.100   0.456   1.537  0.1278 -0.2849 -0.4442
 5063SOL     MW20252   2.045   0.524   1.538  0.0730 -0.3295 -0.4008
 5064SOL     OW20253   2.335   4.590   3.576  0.0356 -0.8434  0.3347
 5064SOL    HW120254   2.355   4.676   3.613 -1.0660  0.2648 -1.4848
 5064SOL    HW220255   2.374   4.528   3.638  1.6716  0.9511  1.2242
 5064SOL     MW20256   2.342   4.593   3.589  0.1040 -0.4718  0.2156
 5065SOL     OW20257   5.359   0.740   2.148 -0.6892 -0.2050  0.6942
 5065SOL    HW120258   5.285   0.764   2.204  0.7775 -0.7257  3.0161
 5065SOL    HW220259   5.336   0.655   2.112 -1.1376 -0.5003  1.6339
 5065SOL     MW20260   5.347   0.732   2.151 -0.5589 -0.3095  1.1117
 5066SOL     OW20261   2.688   5.220   0.630 -0.3278  0.0428  0.3996
 5066SOL    HW120262   2.631   5.144   0.646  0.3567 -0.5704 -0.0542
 5066SOL    HW220263   2.710   5.215   0.537  0.2365  0.4464  0.5073
 5066SOL     MW20264   2.683   5.210   0.620 -0.1679  0.0160  0.3553
 5067SOL     OW20265   4.149   4.967   0.076 -0.0273  0.8002  0.0553
 5067SOL    HW120266   4.158   4.926  -0.010 -1.8134 -0.2893  0.3422
 5067SOL    HW220267   4.239   4.981   0.106  0.6255 -0.4265 -1.2353
 5067SOL     MW20268   4.161   4.964   0.069 -0.1724  0.5037 -0.0732
 5068SOL     OW20269   1.117   0.309   0.061 -0.3842 -0.4211  0.1150
 5068SOL    HW120270   1.135   0.344  -0.026  0.7792 -0.3578  0.3639
 5068SOL    HW220271   1.021   0.315   0.070 -0.5024 -0.2519 -1.0698
 5068SOL     MW20272   1.107   0.315   0.051 -0.2504 -0.3914 -0.0048
 5069SOL     OW20273   3.381   4.760   4.627  0.4650  0.1374 -0.0278
 5069SOL    HW120274   3.430   4.818   4.570 -0.1879 -0.8715 -1.6890
 5069SOL    HW220275   3.300   4.742   4.579  0.3013 -1.4968  0.7939
 5069SOL     MW20276   3.377   4.765   4.614  0.3605 -0.2010 -0.1353
 5070SOL     OW20277   4.452   3.437   1.591 -0.3813  0.0392  0.4562
 5070SOL    HW120278   4.360   3.465   1.591 -0.7733 -1.1217  1.7167
 5070SOL    HW220279   4.471   3.419   1.684  1.1204  0.2416  0.2134
 5070SOL     MW20280   4.443   3.438   1.603 -0.2393 -0.0835  0.5865
 5071SOL     OW20281   1.198   0.930   4.009  0.6293  0.2533  0.1008
 5071SOL    HW120282   1.279   0.961   4.049  0.5149 -0.2799  0.7803
 5071SOL    HW220283   1.182   0.989   3.936  2.9764 -1.1152 -1.6530
 5071SOL     MW20284   1.206   0.941   4.005  0.9151  0.0099 -0.0367
 5072SOL     OW20285   5.117   3.620   2.477  0.3130 -0.3046  0.0740
 5072SOL    HW120286   5.180   3.674   2.525  0.6243 -1.3785  0.9092
 5072SOL    HW220287   5.068   3.682   2.424 -0.2476  0.9772  1.9996
 5072SOL     MW20288   5.119   3.635   2.476  0.2811 -0.2780  0.4274
 5073SOL     OW20289   2.098   0.275   0.428  0.2111 -0.5787  0.3144
 5073SOL    HW120290   2.151   0.351   0.455 -0.8990 -0.2407  1.6777
 5073SOL    HW220291   2.110   0.212   0.499  0.3380 -1.2773 -0.3282
 5073SOL     MW20292   2.106   0.277   0.441  0.0853 -0.6249  0.4066
 5074SOL     OW20293   3.351   3.863   2.641  0.1229  0.2454  0.1616
 5074SOL    HW120294   3.399   3.931   2.689  1.6864 -0.6908  0.0059
 5074SOL    HW220295   3.340   3.899   2.553 -0.0649  0.7491  0.3881
 5074SOL     MW20296   3.356   3.876   2.636  0.2990  0.1900  0.1706
 5075SOL     OW20297   4.877   4.036   4.862 -0.5058 -0.4444 -0.3009
 5075SOL    HW120298   4.959   4.076   4.833 -1.1028 -0.3816 -2.0043
 5075SOL    HW220299   4.809   4.098   4.836 -1.1515 -0.7591  0.5781
 5075SOL     MW20300   4.879   4.049   4.855 -0.6649 -0.4766 -0.4064
 5076SOL     OW20301   1.534   3.617   2.292 -0.1579 -0.2884  0.0561
 5076SOL    HW120302   1.622   3.578   2.291 -0.1634 -0.3357  0.7999
 5076SOL    HW220303   1.512   3.624   2.385 -0.6103  0.4845 -0.1014
 5076SOL     MW20304   1.543   3.613   2.304 -0.2165 -0.1955  0.1312
 5077SOL     OW20305   3.785   4.163   4.536 -0.3011 -0.2130  0.9179
 5077SOL    HW120306   3.815   4.251   4.559  0.3867 -0.3812  0.6972
 5077SOL    HW220307   3.808   4.109   4.612  2.5841 -0.9041 -0.3177
 5077SOL     MW20308   3.792   4.167   4.548  0.1563 -0.3230  0.7315
 5078SOL     OW20309   5.267   0.162   4.918  0.1124 -0.2387 -0.2826
 5078SOL    HW120310   5.210   0.141   4.991  0.4888  0.5184  0.2428
 5078SOL    HW220311   5.288   0.078   4.878 -0.0998 -0.6548  0.4724
 5078SOL     MW20312   5.262   0.149   4.922  0.1334 -0.1951 -0.1187
 5079SOL     OW20313   0.473   0.270   0.671 -0.0336  0.1367  0.1462
 5079SOL    HW120314   0.453   0.276   0.578  1.1996 -0.1657 -0.1482
 5079SOL    HW220315   0.387   0.272   0.714 -0.5842  0.8114 -0.9518
 5079SOL     MW20316   0.459   0.271   0.665  0.0538  0.1844 -0.0321
 5080SOL     OW20317   2.138   4.912   1.199 -0.3863  0.2228 -0.3410
 5080SOL    HW120318   2.101   4.872   1.278  0.0511  0.4646 -0.0080
 5080SOL    HW220319   2.079   4.884   1.128 -0.6321 -0.2170  0.0277
 5080SOL     MW20320   2.126   4.903   1.200 -0.3617  0.1974 -0.2511
 5081SOL     OW20321   2.693   4.285   0.202  0.2421 -0.1519  0.2204
 5081SOL    HW120322   2.681   4.376   0.177 -0.9020 -0.5024 -0.6012
 5081SOL    HW220323   2.672   4.235   0.123  1.9370 -1.1030  0.3284
 5081SOL     MW20324   2.689   4.290   0.189  0.3126 -0.3185  0.1290
 5082SOL     OW20325   1.813   4.142   3.659  0.7714  0.1874  0.3706
 5082SOL    HW120326   1.867   4.213   3.625  0.2898  0.1921 -0.4109
 5082SOL    HW220327   1.876   4.085   3.705  1.3257  0.5485  0.0783
 5082SOL     MW20328   1.828   4.144   3.661  0.7807  0.2342  0.2331
 5083SOL     OW20329   4.502   4.211   0.849 -0.9229  0.2989 -0.4342
 5083SOL    HW120330   4.547   4.159   0.783 -0.3594 -2.1959  1.7081
 5083SOL    HW220331   4.558   4.204   0.927 -3.1928  0.1629  1.2974
 5083SOL     MW20332   4.515   4.204   0.851 -1.1413 -0.0379  0.0617
 5084SOL     OW20333   1.119   0.084   2.200  0.3966  0.5780  0.1792
 5084SOL    HW120334   1.129   0.028   2.123  0.9919  0.5986  0.2332
 5084SOL    HW220335   1.105   0.024   2.273  0.2261  0.5394  0.1140
 5084SOL     MW20336   1.119   0.069   2.200  0.4510  0.5757  0.1778
 5085SOL     OW20337   2.587   4.648   5.353  0.0397 -0.0054  0.0075
 5085SOL    HW120338   2.541   4.710   5.410 -0.1224 -0.3877  0.3008
 5085SOL    HW220339   2.606   4.698   5.274 -1.4568 -0.0069 -0.3853
 5085SOL     MW20340   2.583   4.662   5.350 -0.1726 -0.0546 -0.0052
 5086SOL     OW20341   4.329   4.870   1.658 -0.0727 -0.5440  0.0741
 5086SOL    HW120342   4.333   4.927   1.734 -0.3723  0.4959 -0.6602
 5086SOL    HW220343   4.396   4.804   1.673 -0.3384 -0.5392  1.3680
 5086SOL     MW20344   4.338   4.869   1.670 -0.1450 -0.4103  0.1457
 5087SOL     OW20345   1.343   1.587   2.262  0.2646 -0.1247  0.3540
 5087SOL    HW120346   1.324   1.585   2.168  2.3707 -1.5360 -0.1335
 5087SOL    HW220347   1.425   1.636   2.268 -0.0138  0.2105  1.4863
 5087SOL     MW20348   1.351   1.593   2.251  0.4985 -0.2624  0.4366
 5088SOL     OW20349   4.516   3.854   0.994  0.1092  0.5661  0.2773
 5088SOL    HW120350   4.475   3.860   0.908 -0.7972 -1.7109  0.4604
 5088SOL    HW220351   4.447   3.882   1.055 -1.0497 -2.3990  0.5177
 5088SOL     MW20352   4.502   3.858   0.991 -0.1552 -0.1049  0.3315
 5089SOL     OW20353   5.016   2.911   0.604 -0.1970  0.0596 -0.0315
 5089SOL    HW120354   4.967   2.992   0.617 -0.2781 -0.2068  1.4365
 5089SOL    HW220355   5.067   2.927   0.524 -0.4026  1.4606  0.0883
 5089SOL     MW20356   5.016   2.923   0.595 -0.2337  0.2049  0.1717
 5090SOL     OW20357   3.459   0.116   0.152  0.2342  0.0164  0.3724
 5090SOL    HW120358   3.479   0.076   0.067  0.9889  0.3662  0.3745
 5090SOL    HW220359   3.470   0.045   0.215 -1.2830 -0.4918  0.0912
 5090SOL     MW20360   3.463   0.102   0.149  0.1366 -0.0039  0.3367
 5091SOL     OW20361   0.628   3.212   3.660 -0.4904  0.3698  0.5539
 5091SOL    HW120362   0.679   3.181   3.734 -0.0362  1.0801  0.5508
 5091SOL    HW220363   0.688   3.207   3.586 -0.9345 -0.3178  0.2321
 5091SOL     MW20364   0.642   3.208   3.660 -0.4891  0.3727  0.5123
 5092SOL     OW20365   5.038   1.473   4.051 -0.0653  0.7994 -0.1672
 5092SOL    HW120366   4.978   1.485   3.977 -0.4382  0.6561  0.1049
 5092SOL    HW220367   5.005   1.533   4.118 -0.5084  0.0121  0.3375
 5092SOL     MW20368   5.026   1.482   4.050 -0.1698  0.6803 -0.0678
 5093SOL     OW20369   0.531   1.279   1.793 -0.3090  0.7971 -0.2239
 5093SOL    HW120370   0.462   1.230   1.749 -0.6879  0.9559  0.1772
 5093SOL    HW220371   0.503   1.371   1.787 -0.1815  0.8540  0.0102
 5093SOL     MW20372   0.518   1.285   1.787 -0.3412  0.8247 -0.1426
 5094SOL     OW20373   3.490   1.660   3.147 -0.2318  0.2263 -0.3259
 5094SOL    HW120374   3.540   1.697   3.220 -1.8554 -0.0774  1.0135
 5094SOL    HW220375   3.546   1.592   3.111 -0.1405 -0.9804  1.9363
 5094SOL     MW20376   3.503   1.656   3.152 -0.4280  0.0330  0.1351
 5095SOL     OW20377   3.368   3.633   0.254  0.1437 -0.0103 -0.3314
 5095SOL    HW120378   3.373   3.549   0.209 -1.9214 -0.3847  0.0283
 5095SOL    HW220379   3.301   3.621   0.321 -0.0138  1.8430 -0.0829
 5095SOL     MW20380   3.360   3.621   0.257 -0.1409  0.1790 -0.2535
 5096SOL     OW20381   0.904   0.020   0.199 -0.6071 -0.6091 -0.2198
 5096SOL    HW120382   0.964   0.060   0.262 -0.3006 -1.2552 -0.0933
 5096SOL    HW220383   0.822   0.011   0.247 -0.6147 -0.3370 -0.1788
 5096SOL     MW20384   0.901   0.024   0.213 -0.5688 -0.6569 -0.1983
 5097SOL     OW20385   2.613   2.528   0.330 -0.2204  0.5335 -0.1277
 5097SOL    HW120386   2.519   2.537   0.346 -0.2814 -0.8854  0.3975
 5097SOL    HW220387   2.632   2.592   0.261 -1.1195  2.4871  1.3430
 5097SOL     MW20388   2.604   2.538   0.323 -0.3433  0.6020  0.1278
 5098SOL     OW20389   3.020   5.110   0.149 -0.5567  0.1788 -0.1573
 5098SOL    HW120390   3.068   5.167   0.209 -0.4268 -0.6909  0.5833
 5098SOL    HW220391   3.084   5.045   0.120 -1.0871 -0.5325  0.2414
 5098SOL     MW20392   3.034   5.109   0.153 -0.6080 -0.0236 -0.0114
 5099SOL     OW20393   0.421   1.421   5.251  0.3096 -0.5221 -0.8890
 5099SOL    HW120394   0.442   1.512   5.270 -3.7626 -0.0970  3.3438
 5099SOL    HW220395   0.343   1.425   5.195  0.3954 -1.4054 -1.0908
 5099SOL     MW20396   0.413   1.433   5.246 -0.2007 -0.5808 -0.3730
 5100SOL     OW20397   1.436   1.275   0.939  0.2953  0.1446 -0.4562
 5100SOL    HW120398   1.505   1.331   0.903  0.5390  0.8543  1.0372
 5100SOL    HW220399   1.378   1.256   0.864  1.6464  0.1957 -1.5573
 5100SOL     MW20400   1.437   1.279   0.924  0.4995  0.2420 -0.4060
 5101SOL     OW20401   1.490   0.555   4.161 -0.0091 -0.2905  0.2393
 5101SOL    HW120402   1.431   0.630   4.172  0.2875 -0.1954  1.3039
 5101SOL    HW220403   1.563   0.590   4.110 -0.5806 -0.2579 -0.5793
 5101SOL     MW20404   1.492   0.569   4.156 -0.0443 -0.2741  0.2708
 5102SOL     OW20405   4.042   4.434   5.336  0.0361 -0.3966 -0.2156
 5102SOL    HW120406   3.954   4.464   5.315  0.4506  0.7471 -0.4311
 5102SOL    HW220407   4.098   4.475   5.270  1.1646  1.9959  2.0008
 5102SOL     MW20408   4.038   4.443   5.325  0.2336  0.0561  0.0406
 5103SOL     OW20409   0.563   3.942   3.661 -0.1762 -0.4252  0.0250
 5103SOL    HW120410   0.629   3.873   3.648  0.7642  0.2621  0.9957
 5103SOL    HW220411   0.589   4.011   3.600 -1.1520 -0.9277 -0.9895
 5103SOL     MW20412   0.575   3.942   3.651 -0.1807 -0.4016  0.0194
 5104SOL     OW20413   3.676   3.265   0.716 -0.6358  0.2652 -0.2358
 5104SOL    HW120414   3.663   3.170   0.720  0.3863  0.1316  0.2705
 5104SOL    HW220415   3.693   3.290   0.807  1.7759  0.5070 -0.6890
 5104SOL     MW20416   3.676   3.256   0.728 -0.1962  0.2791 -0.2290
 5105SOL     OW20417   2.056   0.397   0.152 -0.3698 -0.2200  0.1146
 5105SOL    HW120418   2.115   0.384   0.226 -0.8603 -1.0759  0.3654
 5105SOL    HW220419   1.978   0.437   0.190 -0.1901  0.3725 -0.1261
 5105SOL     MW20420   2.054   0.400   0.166 -0.4096 -0.2537  0.1159
 5106SOL     OW20421   2.888   3.509   1.735  0.3382  0.3365 -0.4038
 5106SOL    HW120422   2.912   3.432   1.786  0.3197 -0.6636 -1.8559
 5106SOL    HW220423   2.796   3.494   1.711  0.6401  0.2828 -1.5804
 5106SOL     MW20424   2.879   3.497   1.738  0.3745  0.2016 -0.7403
 5107SOL     OW20425   1.594   4.284   2.967 -0.3629 -0.1890  0.0973
 5107SOL    HW120426   1.555   4.291   3.054 -1.3456 -1.6024 -0.1957
 5107SOL    HW220427   1.593   4.374   2.933 -1.7927  0.0843  0.7873
 5107SOL     MW20428   1.589   4.296   2.973 -0.6717 -0.3349  0.1481
 5108SOL     OW20429   5.053   2.269   1.821  0.1203  0.7317  0.0011
 5108SOL    HW120430   5.124   2.269   1.885 -0.2203  0.5280  0.3896
 5108SOL    HW220431   5.020   2.179   1.823  1.0011  0.3385 -1.4786
 5108SOL     MW20432   5.058   2.257   1.830  0.1895  0.6553 -0.1386
 5109SOL     OW20433   2.113   5.236   4.602  0.7792  0.6214 -0.0673
 5109SOL    HW120434   2.112   5.225   4.697 -0.2583 -0.2737 -0.1739
 5109SOL    HW220435   2.160   5.159   4.569 -0.3272  0.0514 -0.3671
 5109SOL     MW20436   2.119   5.225   4.610  0.5048  0.4338 -0.1193
 5110SOL     OW20437   0.102   2.807   2.895  0.5384  0.1930  0.1391
 5110SOL    HW120438   0.020   2.770   2.927  0.7046  0.6833  1.1624
 5110SOL    HW220439   0.146   2.734   2.852 -0.2651 -0.1651 -0.1002
 5110SOL     MW20440   0.097   2.793   2.893  0.4568  0.2099  0.2395
 5111SOL     OW20441   4.247   4.138   2.941  0.3560 -0.5730 -0.8248
 5111SOL    HW120442   4.209   4.145   2.853  2.7179 -1.7586 -2.0706
 5111SOL    HW220443   4.280   4.226   2.960 -1.6092  0.1071 -0.3311
 5111SOL     MW20444   4.247   4.150   2.932  0.4067 -0.6377 -0.9211
 5112SOL     OW20445   1.618   1.454   0.820  0.1458  0.0910  0.2328
 5112SOL    HW120446   1.650   1.508   0.892 -0.4648 -0.2185  0.7528
 5112SOL    HW220447   1.668   1.482   0.744  0.5679  0.6553  0.7120
 5112SOL     MW20448   1.628   1.464   0.820  0.1216  0.1236  0.3607
 5113SOL     OW20449   2.984   3.678   5.199 -0.1076  0.2090  0.2881
 5113SOL    HW120450   2.900   3.699   5.159  0.2510  0.0867 -0.5559
 5113SOL    HW220451   3.048   3.692   5.129  0.8845  2.6860  1.5640
 5113SOL     MW20452   2.981   3.682   5.185  0.0653  0.5105  0.3434
 5114SOL     OW20453   1.167   3.637   3.414 -0.1017  0.2473  0.0242
 5114SOL    HW120454   1.098   3.689   3.456 -0.8078 -0.6717  0.0185
 5114SOL    HW220455   1.194   3.574   3.480  1.3311  1.0983  0.3098
 5114SOL     MW20456   1.161   3.636   3.428 -0.0087  0.2386  0.0600
 5115SOL     OW20457   4.044   3.273   2.980 -0.1902 -0.0926  0.3887
 5115SOL    HW120458   3.968   3.331   2.987 -0.3225 -0.0921 -0.8827
 5115SOL    HW220459   4.105   3.307   3.045  0.6625  2.9346 -1.7766
 5115SOL     MW20460   4.042   3.285   2.989 -0.0980  0.2950 -0.0513
 5116SOL     OW20461   1.911   1.296   5.284 -0.6141  0.2848 -0.4794
 5116SOL    HW120462   1.837   1.287   5.344  0.6389 -1.5000  0.8883
 5116SOL    HW220463   1.968   1.222   5.304  0.7042  0.5962 -2.7236
 5116SOL     MW20464   1.909   1.286   5.294 -0.2850  0.0962 -0.5916
 5117SOL     OW20465   0.035   3.346   2.503 -0.1583  0.3905  0.4411
 5117SOL    HW120466   0.097   3.316   2.570 -0.3592 -1.2179 -0.0477
 5117SOL    HW220467  -0.051   3.344   2.547  0.0402  2.2436  1.0004
 5117SOL     MW20468   0.032   3.342   2.517 -0.1586  0.4218  0.4501
 5118SOL     OW20469   1.330   2.915   3.469 -0.1526 -0.2259 -0.4548
 5118SOL    HW120470   1.416   2.875   3.476 -0.7551 -1.4536  0.3316
 5118SOL    HW220471   1.347   3.007   3.448  1.3312 -0.4473 -0.2889
 5118SOL     MW20472   1.343   2.922   3.467 -0.0398 -0.4114 -0.3329
 5119SOL     OW20473   2.867   4.582   0.554  0.4252 -0.0274 -0.2891
 5119SOL    HW120474   2.879   4.490   0.528 -0.8401 -0.4126  0.4295
 5119SOL    HW220475   2.875   4.581   0.649  0.2090  0.5792 -0.2618
 5119SOL     MW20476   2.870   4.570   0.563  0.2356  0.0010 -0.1936
 5120SOL     OW20477   0.094   0.362   2.606  0.0805  0.0225 -0.3009
 5120SOL    HW120478   0.165   0.426   2.607  0.1367 -0.0233  0.8202
 5120SOL    HW220479   0.137   0.277   2.600  0.0371  0.0509 -1.1233
 5120SOL     MW20480   0.108   0.359   2.606  0.0821  0.0203 -0.2626
 5121SOL     OW20481   4.540   4.767   4.909 -0.0738  0.7056 -0.7688
 5121SOL    HW120482   4.501   4.736   4.991  1.9485 -0.5104 -0.1805
 5121SOL    HW220483   4.520   4.698   4.845  1.5184 -0.2414 -0.3091
 5121SOL     MW20484   4.533   4.754   4.911  0.3889  0.4287 -0.6346
 5122SOL     OW20485   0.221   1.216   4.243  0.2345 -0.4592 -0.2594
 5122SOL    HW120486   0.159   1.209   4.315 -1.9068  0.6249 -1.8850
 5122SOL    HW220487   0.246   1.308   4.240  0.5676 -0.5547 -0.6972
 5122SOL     MW20488   0.217   1.227   4.252  0.0031 -0.3327 -0.5235
 5123SOL     OW20489   1.263   0.210   3.561  0.6786  0.0936 -0.3647
 5123SOL    HW120490   1.348   0.216   3.516  0.2267 -0.8979 -1.3920
 5123SOL    HW220491   1.209   0.276   3.518  0.9573  0.8395  0.4008
 5123SOL     MW20492   1.267   0.219   3.549  0.6565  0.0622 -0.3982
 5124SOL     OW20493   3.290   3.838   5.307 -0.2979 -0.5370 -0.3941
 5124SOL    HW120494   3.266   3.877   5.223 -0.3409 -1.6135 -0.9041
 5124SOL    HW220495   3.258   3.900   5.373 -3.6011 -1.3617 -1.0403
 5124SOL     MW20496   3.283   3.851   5.305 -0.7263 -0.7804 -0.5421
 5125SOL     OW20497   4.678   5.332   4.771 -0.2428  0.1058  0.7152
 5125SOL    HW120498   4.761   5.337   4.819 -0.6190 -0.8372  1.5000
 5125SOL    HW220499   4.703   5.306   4.682  0.2248 -1.7844  1.3466
 5125SOL     MW20500   4.692   5.329   4.766 -0.2311 -0.2569  0.8965
 5126SOL     OW20501   1.522   3.998   3.705 -0.2992  0.1658 -0.0738
 5126SOL    HW120502   1.577   3.961   3.635  3.3461  1.1667  2.0281
 5126SOL    HW220503   1.436   3.958   3.690  0.8471 -1.4440 -3.6949
 5126SOL     MW20504   1.518   3.988   3.694  0.3142  0.0878 -0.2683
 5127SOL     OW20505   0.238   4.850   1.873  0.0382 -0.0263 -0.7501
 5127SOL    HW120506   0.156   4.867   1.827 -0.2076  0.1791 -0.2438
 5127SOL    HW220507   0.297   4.920   1.843  0.0174 -0.1391 -1.0670
 5127SOL     MW20508   0.235   4.861   1.863  0.0041 -0.0145 -0.7259
 5128SOL     OW20509   4.837   0.040   0.425 -0.2781 -0.0017  0.2287
 5128SOL    HW120510   4.744   0.059   0.413 -0.7340 -1.1718  1.6086
 5128SOL    HW220511   4.863   0.089   0.503 -0.1678 -0.9591  0.8076
 5128SOL     MW20512   4.829   0.048   0.433 -0.3223 -0.2740  0.4794
 5129SOL     OW20513   3.672   3.160   3.037 -0.3355 -0.2601  0.2894
 5129SOL    HW120514   3.697   3.087   2.981 -0.7378  0.1021 -0.3697
 5129SOL    HW220515   3.665   3.121   3.125 -1.2646 -1.1784 -0.1719
 5129SOL     MW20516   3.674   3.145   3.041 -0.5059 -0.3313  0.1460
 5130SOL     OW20517   0.544   2.978   0.641  0.2214 -0.5028  0.3203
 5130SOL    HW120518   0.470   2.947   0.589 -0.2074  1.8572 -0.6209
 5130SOL    HW220519   0.556   3.069   0.613  1.5687  0.1058  2.6111
 5130SOL     MW20520   0.536   2.985   0.631  0.3390 -0.1228  0.4930
 5131SOL     OW20521   0.849   3.050   1.891 -0.1830 -0.4940  0.1376
 5131SOL    HW120522   0.893   2.969   1.865  2.0125  0.3291  1.0621
 5131SOL    HW220523   0.763   3.045   1.848  0.5687 -2.4435 -1.3128
 5131SOL     MW20524   0.843   3.039   1.882  0.1943 -0.6382  0.0703
 5132SOL     OW20525   2.978   4.072   1.764 -0.4388  0.2806 -0.3237
 5132SOL    HW120526   2.964   4.166   1.775  0.8986  0.5548 -0.7360
 5132SOL    HW220527   2.924   4.048   1.689  0.1926  0.9974 -1.0316
 5132SOL     MW20528   2.969   4.081   1.756 -0.1868  0.4075 -0.4671
 5133SOL     OW20529   3.421   4.054   3.879 -0.2831  0.4130  0.3627
 5133SOL    HW120530   3.342   4.092   3.841 -1.3549 -1.2763  0.8181
 5133SOL    HW220531   3.391   4.004   3.955  1.6146  2.3525  2.5582
 5133SOL     MW20532   3.407   4.052   3.884 -0.1774  0.4450  0.7020
 5134SOL     OW20533   0.400   0.139   4.848 -0.0186  0.1247 -0.0308
 5134SOL    HW120534   0.472   0.194   4.880 -0.0805  0.3072 -0.2002
 5134SOL    HW220535   0.321   0.190   4.865 -0.0667  0.1438 -0.2992
 5134SOL     MW20536   0.399   0.153   4.854 -0.0326  0.1505 -0.0869
 5135SOL     OW20537   0.751   1.001   4.488  0.4523  0.0133  0.5338
 5135SOL    HW120538   0.839   0.979   4.457  1.4920  0.8883  2.6569
 5135SOL    HW220539   0.740   1.094   4.466  0.1122 -0.0607  0.3890
 5135SOL     MW20540   0.761   1.010   4.481  0.5418  0.1158  0.7871
 5136SOL     OW20541   3.618   0.837   5.349  0.6406 -0.0825  0.1189
 5136SOL    HW120542   3.656   0.808   5.432 -0.9510  0.5173  1.1114
 5136SOL    HW220543   3.590   0.756   5.306 -0.6980 -0.2754  1.2988
 5136SOL     MW20544   3.619   0.823   5.354  0.2655 -0.0304  0.3970
 5137SOL     OW20545   3.601   1.784   3.597 -0.5177  0.4901 -0.6320
 5137SOL    HW120546   3.516   1.826   3.601  0.0072  1.5559  2.2450
 5137SOL    HW220547   3.596   1.714   3.662  1.1512  1.4710  0.6590
 5137SOL     MW20548   3.590   1.780   3.606 -0.2369  0.7521 -0.0984
 5138SOL     OW20549   1.362   1.476   1.360  0.0921  0.1916  0.2933
 5138SOL    HW120550   1.268   1.494   1.353  0.2028  0.4661 -0.5003
 5138SOL    HW220551   1.404   1.547   1.313  0.5490 -1.7319 -2.4823
 5138SOL     MW20552   1.355   1.487   1.353  0.1648 -0.0195 -0.1636
 5139SOL     OW20553   0.847   1.111   0.849  0.0944 -0.3131 -0.4710
 5139SOL    HW120554   0.832   1.093   0.757  0.1516 -0.8064 -0.3858
 5139SOL    HW220555   0.774   1.167   0.875 -0.9181 -1.6357 -0.3705
 5139SOL     MW20556   0.836   1.116   0.841 -0.0279 -0.5455 -0.4473
 5140SOL     OW20557   3.961   2.788   3.169  0.3310  0.3444  0.2133
 5140SOL    HW120558   3.868   2.765   3.176 -0.3872  2.7763 -0.3452
 5140SOL    HW220559   3.995   2.777   3.258 -0.1142 -1.8783  0.1542
 5140SOL     MW20560   3.953   2.784   3.181  0.1821  0.3712  0.1342
 5141SOL     OW20561   3.947   4.105   2.274 -0.7385  0.6293  0.2720
 5141SOL    HW120562   3.861   4.112   2.233 -0.4423  1.4725 -0.2389
 5141SOL    HW220563   3.952   4.181   2.332 -0.3773  0.5390  0.3624
 5141SOL     MW20564   3.936   4.116   2.276 -0.6544  0.7256  0.2181
 5142SOL     OW20565   5.226   3.713   2.747  0.0874 -0.1698  0.0977
 5142SOL    HW120566   5.274   3.793   2.770 -0.4076  0.4728 -0.9803
 5142SOL    HW220567   5.172   3.695   2.824  0.2093  0.5434  0.3640
 5142SOL     MW20568   5.225   3.721   2.760  0.0396  0.0038 -0.0062
 5143SOL     OW20569   0.092   3.206   5.193 -0.2898  0.1055 -0.7626
 5143SOL    HW120570   0.093   3.176   5.284 -1.1482 -0.0977 -0.8143
 5143SOL    HW220571   0.103   3.126   5.141  0.4664  0.2522 -0.8385
 5143SOL     MW20572   0.094   3.192   5.198 -0.3029  0.0983 -0.7789
 5144SOL     OW20573   1.404   2.513   2.209  0.3774 -0.2193 -0.2380
 5144SOL    HW120574   1.355   2.436   2.178  0.0035  0.0419 -0.3026
 5144SOL    HW220575   1.340   2.562   2.260  0.9618 -0.6048  0.8974
 5144SOL     MW20576   1.389   2.509   2.211  0.4043 -0.2352 -0.1009
 5145SOL     OW20577   1.081   0.228   1.905 -0.1839  0.0542 -0.6717
 5145SOL    HW120578   0.997   0.273   1.915 -0.9287 -1.3726 -0.0525
 5145SOL    HW220579   1.068   0.169   1.830  0.3277 -0.0386 -0.6929
 5145SOL     MW20580   1.069   0.226   1.897 -0.2137 -0.1403 -0.5951
 5146SOL     OW20581   2.029   5.268   2.955 -0.7059  0.0895 -0.1699
 5146SOL    HW120582   2.023   5.288   3.048 -1.8022 -0.7447 -0.0513
 5146SOL    HW220583   1.938   5.265   2.924 -0.3893 -0.3854 -1.1064
 5146SOL     MW20584   2.017   5.270   2.963 -0.8057 -0.0781 -0.2746
 5147SOL     OW20585   1.591   1.583   2.007 -0.0478 -0.0745 -0.0033
 5147SOL    HW120586   1.612   1.522   1.936  0.0099 -0.4310  0.3126
 5147SOL    HW220587   1.660   1.568   2.071  0.0553  0.4437  0.0065
 5147SOL     MW20588   1.602   1.573   2.006 -0.0272 -0.0538  0.0384
 5148SOL     OW20589   2.562   5.151   2.770  0.2287 -0.0271 -0.0143
 5148SOL    HW120590   2.614   5.111   2.840 -0.8249 -0.4811  0.5338
 5148SOL    HW220591   2.483   5.097   2.765  0.7376 -0.6671 -2.3154
 5148SOL     MW20592   2.558   5.139   2.778  0.1590 -0.1672 -0.2387
 5149SOL     OW20593   5.151   2.762   0.945 -0.5379 -0.5608  0.2416
 5149SOL    HW120594   5.131   2.808   1.026  1.2565  1.2141 -0.2444
 5149SOL    HW220595   5.068   2.762   0.897 -0.9448  0.9475  0.8769
 5149SOL     MW20596   5.137   2.768   0.949 -0.3603 -0.1405  0.2607
 5150SOL     OW20597   3.595   0.821   0.908  0.6135  0.3569 -0.6750
 5150SOL    HW120598   3.651   0.852   0.980 -0.4486  3.2035 -0.9512
 5150SOL    HW220599   3.573   0.731   0.932  3.7187 -0.2638  0.3744
 5150SOL     MW20600   3.600   0.814   0.921  0.8750  0.6419 -0.5760
 5151SOL     OW20601   4.745   1.173   0.755  0.4467  0.2194  0.0819
 5151SOL    HW120602   4.765   1.173   0.661  0.8288 -1.5017  0.1340
 5151SOL    HW220603   4.769   1.261   0.784  1.2147  0.4882 -1.2613
 5151SOL     MW20604   4.751   1.184   0.747  0.5939  0.0335 -0.0834
 5152SOL     OW20605   3.575   2.599   0.744  0.0600  0.2962  0.4385
 5152SOL    HW120606   3.572   2.592   0.839 -0.5101 -0.5379  0.3793
 5152SOL    HW220607   3.483   2.607   0.718  0.1189 -0.5566 -0.0886
 5152SOL     MW20608   3.563   2.599   0.753 -0.0054  0.0803  0.3635
 5153SOL     OW20609   4.016   3.544   4.368 -0.3476  0.0327  0.3104
 5153SOL    HW120610   4.079   3.501   4.310  0.0913 -0.1468  0.9178
 5153SOL    HW220611   4.005   3.631   4.330 -0.6387 -0.3280 -0.4719
 5153SOL     MW20612   4.023   3.549   4.355 -0.3287 -0.0365  0.2880
 5154SOL     OW20613   0.239   0.162   1.029  0.1053 -0.9348  0.1707
 5154SOL    HW120614   0.333   0.153   1.045  0.3759  1.3945  0.2576
 5154SOL    HW220615   0.215   0.244   1.072 -1.4387 -0.2187 -1.8787
 5154SOL     MW20616   0.248   0.172   1.036 -0.0577 -0.5450 -0.0806
 5155SOL     OW20617   3.328   3.960   4.101  0.0033 -0.0244 -0.4779
 5155SOL    HW120618   3.369   3.997   4.179  0.8088 -1.2366 -0.3061
 5155SOL    HW220619   3.287   3.879   4.131  1.1306 -0.9911 -1.4682
 5155SOL     MW20620   3.328   3.954   4.115  0.2507 -0.3033 -0.5827
 5156SOL     OW20621   4.370   1.535   5.264  0.0642 -0.4970 -0.1471
 5156SOL    HW120622   4.431   1.598   5.226 -0.6574  0.8859  0.8921
 5156SOL    HW220623   4.289   1.585   5.277 -0.4692 -1.5746  0.9015
 5156SOL     MW20624   4.367   1.549   5.261 -0.0965 -0.4579  0.1202
 5157SOL     OW20625   4.432   4.140   1.226  0.5400  0.2326 -0.8316
 5157SOL    HW120626   4.348   4.186   1.223 -0.8581 -2.1130 -0.4819
 5157SOL    HW220627   4.412   4.052   1.194  2.9636 -0.3064 -1.0548
 5157SOL     MW20628   4.419   4.134   1.222  0.6713 -0.1367 -0.8154
 5158SOL     OW20629   4.771   0.098   1.116 -0.1239  0.3183 -0.5507
 5158SOL    HW120630   4.693   0.052   1.087 -0.5722  0.8284 -0.1645
 5158SOL    HW220631   4.816   0.122   1.035 -0.7384  0.6646 -0.7941
 5158SOL     MW20632   4.767   0.095   1.102 -0.2599  0.4280 -0.5324
 5159SOL     OW20633   3.436   1.477   0.718  0.3178  0.2396 -0.4222
 5159SOL    HW120634   3.373   1.545   0.693  0.1875  0.8307  1.3560
 5159SOL    HW220635   3.520   1.521   0.717  0.0981  0.8096  1.8775
 5159SOL     MW20636   3.438   1.491   0.715  0.2730  0.3882  0.0998
 5160SOL     OW20637   3.895   0.046   2.361 -0.3758  0.3481 -0.2608
 5160SOL    HW120638   3.962   0.113   2.376  0.7610 -0.7900 -0.0933
 5160SOL    HW220639   3.922   0.002   2.281 -1.8559  0.9273 -1.1302
 5160SOL     MW20640   3.907   0.049   2.352 -0.4198  0.2766 -0.3507
 5161SOL     OW20641   2.484   1.620   2.364  0.4547  0.5063 -0.4586
 5161SOL    HW120642   2.523   1.545   2.321  3.4357  2.0746 -0.7315
 5161SOL    HW220643   2.433   1.583   2.436 -0.3361 -1.8537 -2.0945
 5161SOL     MW20644   2.482   1.606   2.367  0.7351  0.4050 -0.7029
 5162SOL     OW20645   4.841   0.167   2.222 -0.1415 -0.1910  0.4224
 5162SOL    HW120646   4.843   0.108   2.146  0.7543 -0.6520  0.7865
 5162SOL    HW220647   4.889   0.120   2.290  2.8884  2.0024 -0.0389
 5162SOL     MW20648   4.847   0.153   2.221  0.3610  0.0307  0.4099
 5163SOL     OW20649   3.252   2.613   0.511 -0.3713  0.4014 -0.2906
 5163SOL    HW120650   3.268   2.706   0.499 -0.2990  0.3535 -0.5822
 5163SOL    HW220651   3.248   2.601   0.606 -0.7676  0.7627 -0.2596
 5163SOL     MW20652   3.254   2.623   0.522 -0.4128  0.4415 -0.3240
 5164SOL     OW20653   0.935   4.252   1.147  0.4577 -0.2341  0.1905
 5164SOL    HW120654   0.996   4.179   1.151 -0.5905 -1.1337  0.2644
 5164SOL    HW220655   0.910   4.259   1.055  1.7281  1.0660 -0.0952
 5164SOL     MW20656   0.939   4.244   1.136  0.4862 -0.1828  0.1634
 5165SOL     OW20657   4.483   1.531   3.799  0.1726 -0.0423 -0.5280
 5165SOL    HW120658   4.424   1.606   3.813 -0.5206 -0.7992  0.8320
 5165SOL    HW220659   4.502   1.532   3.705 -0.4855  1.3416 -0.6700
 5165SOL     MW20660   4.478   1.541   3.789 -0.0004  0.0380 -0.3721
 5166SOL     OW20661   1.979   3.099   2.318 -0.2292  0.0032 -0.2481
 5166SOL    HW120662   2.038   3.174   2.312  1.5768 -1.4123 -1.4367
 5166SOL    HW220663   1.905   3.122   2.262  0.4353  0.7959 -0.8220
 5166SOL     MW20664   1.977   3.112   2.310  0.0870 -0.0765 -0.4737
 5167SOL     OW20665   1.883   5.111   4.502 -0.0204 -0.1700 -0.0565
 5167SOL    HW120666   1.835   5.180   4.455  0.8557 -0.4925 -1.4656
 5167SOL    HW220667   1.960   5.155   4.537  0.4099 -0.3735 -0.7408
 5167SOL     MW20668   1.887   5.125   4.501  0.1468 -0.2374 -0.3245
 5168SOL     OW20669   0.916   2.587   2.704 -0.5389  0.2517  0.2344
 5168SOL    HW120670   0.860   2.597   2.627 -1.4799 -2.0937  0.5483
 5168SOL    HW220671   0.944   2.676   2.724 -2.8101  1.3273 -0.9461
 5168SOL     MW20672   0.913   2.600   2.697 -0.9501  0.0892  0.1234
 5169SOL     OW20673   3.999   3.307   3.578  0.2129  0.0790 -0.1587
 5169SOL    HW120674   4.054   3.383   3.600  0.9372  1.0065 -4.3529
 5169SOL    HW220675   4.052   3.257   3.517 -1.4540 -2.2646  0.2010
 5169SOL     MW20676   4.013   3.310   3.573  0.0923 -0.1023 -0.6496
 5170SOL     OW20677   1.001   0.773   3.623  0.1917 -0.1320  0.2006
 5170SOL    HW120678   0.948   0.822   3.685  2.1848  1.5081  0.6983
 5170SOL    HW220679   0.953   0.691   3.611 -1.8547  0.7955  1.4390
 5170SOL     MW20680   0.988   0.769   3.629  0.1849  0.1967  0.4229
 5171SOL     OW20681   0.928   2.784   2.329 -0.4610  0.2525  0.3423
 5171SOL    HW120682   1.020   2.800   2.347  0.1901 -1.6038 -1.1146
 5171SOL    HW220683   0.897   2.737   2.407  0.3072 -0.7401  0.0652
 5171SOL     MW20684   0.936   2.780   2.342 -0.2793 -0.1122  0.1204
 5172SOL     OW20685   2.606   2.101   5.443 -0.0936  0.2416  0.0932
 5172SOL    HW120686   2.526   2.125   5.396 -1.7494 -0.6805  2.2452
 5172SOL    HW220687   2.606   2.006   5.443  0.0025  0.2146  1.6333
 5172SOL     MW20688   2.595   2.092   5.437 -0.2933  0.1201  0.5658
 5173SOL     OW20689   0.277   1.383   2.826  0.0930  0.5179  0.0010
 5173SOL    HW120690   0.216   1.311   2.810 -1.6427  1.6142  1.3151
 5173SOL    HW220691   0.302   1.414   2.739 -2.1384  0.7247 -0.6245
 5173SOL     MW20692   0.272   1.378   2.813 -0.4148  0.6847  0.0892
 5174SOL     OW20693   1.420   2.173   4.356 -0.3774 -0.5183  0.5269
 5174SOL    HW120694   1.368   2.150   4.279 -0.5456  0.1799  0.4258
 5174SOL    HW220695   1.355   2.197   4.422 -0.1971  0.8358  0.2476
 5174SOL     MW20696   1.405   2.173   4.355 -0.3758 -0.2556  0.4782
 5175SOL     OW20697   0.819   0.781   2.094 -0.3010 -0.1816  0.2448
 5175SOL    HW120698   0.863   0.737   2.022  0.0103  0.6338 -0.0696
 5175SOL    HW220699   0.846   0.732   2.172 -2.4148 -2.5026 -0.3580
 5175SOL     MW20700   0.828   0.769   2.095 -0.5317 -0.3744  0.1274
 5176SOL     OW20701   4.625   1.141   4.102 -0.4797  0.0520 -0.1855
 5176SOL    HW120702   4.706   1.182   4.072 -0.1269 -1.1609 -0.9717
 5176SOL    HW220703   4.646   1.048   4.105 -1.4833 -0.1566  0.8170
 5176SOL     MW20704   4.638   1.134   4.098 -0.5630 -0.1300 -0.1578
 5177SOL     OW20705   2.629   3.304   2.745  0.6009 -0.0723 -0.3308
 5177SOL    HW120706   2.707   3.248   2.747  1.0007  0.4679  1.9249
 5177SOL    HW220707   2.582   3.282   2.825  0.4915  2.3672  0.3710
 5177SOL     MW20708   2.633   3.294   2.755  0.6381  0.3091  0.0478
 5178SOL     OW20709   2.074   4.032   0.197 -0.7788 -0.3646 -0.2662
 5178SOL    HW120710   2.156   4.051   0.243 -0.4965 -1.3811 -0.3244
 5178SOL    HW220711   2.006   4.044   0.263 -0.6098  0.7312 -0.2808
 5178SOL     MW20712   2.076   4.036   0.211 -0.7210 -0.3545 -0.2755
 5179SOL     OW20713   3.651   5.383   1.012 -0.2815 -0.4766 -0.0272
 5179SOL    HW120714   3.637   5.335   0.931  2.1204  0.7854 -1.2835
 5179SOL    HW220715   3.680   5.317   1.075  0.4955 -1.0567 -0.9794
 5179SOL     MW20716   3.653   5.369   1.010  0.1254 -0.3893 -0.3099
 5180SOL     OW20717   2.380   2.904   0.453 -0.6926 -0.1969  0.3953
 5180SOL    HW120718   2.445   2.925   0.520 -1.5712 -0.0881  1.2332
 5180SOL    HW220719   2.347   2.818   0.477 -1.8546  0.3392  0.8019
 5180SOL     MW20720   2.384   2.896   0.465 -0.9538 -0.1144  0.5546
 5181SOL     OW20721   3.987   5.363   0.309  0.4369  0.2740 -0.4298
 5181SOL    HW120722   3.952   5.358   0.220 -0.9783  0.0184  0.1274
 5181SOL    HW220723   3.975   5.276   0.345  0.8844  0.4123  0.0671
 5181SOL     MW20724   3.981   5.351   0.302  0.3130  0.2590 -0.2949
 5182SOL     OW20725   5.370   1.386   1.983  0.0063  0.6485  0.2193
 5182SOL    HW120726   5.362   1.300   2.026  2.0896  0.4184  0.2634
 5182SOL    HW220727   5.292   1.434   2.011  0.3945 -0.1078  2.8813
 5182SOL     MW20728   5.359   1.381   1.992  0.3227  0.5223  0.5657
 5183SOL     OW20729   3.609   0.381   2.873  0.0056 -0.2236  0.1780
 5183SOL    HW120730   3.537   0.407   2.816  0.3296  0.8014  0.2229
 5183SOL    HW220731   3.614   0.450   2.939  1.3956  0.0417 -0.1682
 5183SOL     MW20732   3.601   0.393   2.874  0.2250 -0.0584  0.1394
 5184SOL     OW20733   5.177   0.248   1.238 -0.4663 -0.0729  0.5352
 5184SOL    HW120734   5.161   0.190   1.164 -1.8564 -1.3193  1.7418
 5184SOL    HW220735   5.269   0.273   1.231 -0.1893 -1.3791 -0.7558
 5184SOL     MW20736   5.187   0.244   1.228 -0.6088 -0.3996  0.5244
 5185SOL     OW20737   0.645   0.718   5.468  0.6681 -0.3182 -0.1223
 5185SOL    HW120738   0.662   0.714   5.374 -2.7938  1.3220 -1.0062
 5185SOL    HW220739   0.662   0.629   5.499 -0.2502 -1.5635 -2.8013
 5185SOL     MW20740   0.649   0.706   5.460  0.1074 -0.2677 -0.5784
 5186SOL     OW20741   3.698   2.689   2.426 -0.5321  0.6058  0.7758
 5186SOL    HW120742   3.637   2.736   2.369 -1.3426 -0.2192  0.9352
 5186SOL    HW220743   3.642   2.630   2.476  0.3374  0.3039  1.4014
 5186SOL     MW20744   3.683   2.688   2.425 -0.5245  0.4615  0.8763
 5187SOL     OW20745   1.310   2.652   1.156  0.6455  0.1489 -0.1975
 5187SOL    HW120746   1.253   2.729   1.164  2.4563  1.6802 -1.0391
 5187SOL    HW220747   1.317   2.638   1.062  0.8181 -0.6958 -0.0627
 5187SOL     MW20748   1.304   2.660   1.145  0.8994  0.2368 -0.2880
 5188SOL     OW20749   3.043   1.867   2.628 -0.2301  0.2062  0.5762
 5188SOL    HW120750   3.123   1.819   2.609 -0.2522  0.0338  0.9295
 5188SOL    HW220751   2.973   1.812   2.593 -0.4093 -0.9050  2.5920
 5188SOL     MW20752   3.044   1.854   2.621 -0.2559  0.0419  0.8795
 5189SOL     OW20753   5.116   0.893   3.336 -0.2890 -0.1414 -0.4754
 5189SOL    HW120754   5.154   0.898   3.424 -1.0565 -2.7263  0.1077
 5189SOL    HW220755   5.189   0.910   3.277  0.8311 -0.8457  0.6574
 5189SOL     MW20756   5.130   0.895   3.340 -0.2438 -0.5625 -0.2558
 5190SOL     OW20757   0.912   2.461   3.855  0.3949  0.0549  0.5241
 5190SOL    HW120758   0.851   2.535   3.850  1.0388  0.5137 -1.9550
 5190SOL    HW220759   0.997   2.502   3.874  0.7105 -0.0318 -0.6194
 5190SOL     MW20760   0.915   2.476   3.857  0.5177  0.1025  0.0604
 5191SOL     OW20761   1.763   4.653   0.848 -0.4275  0.3491 -0.0103
 5191SOL    HW120762   1.768   4.714   0.774 -0.5572 -0.0201 -0.3296
 5191SOL    HW220763   1.776   4.567   0.808  0.4828  0.2270  0.5325
 5191SOL     MW20764   1.765   4.650   0.833 -0.3276  0.2862  0.0183
 5192SOL     OW20765   0.223   2.640   4.851  0.3993 -0.0710 -0.2787
 5192SOL    HW120766   0.191   2.651   4.940  0.4639  0.4665 -0.3189
 5192SOL    HW220767   0.150   2.598   4.805  0.2392 -0.0342 -0.0589
 5192SOL     MW20768   0.209   2.636   4.856  0.3871  0.0025 -0.2557
 5193SOL     OW20769   5.422   5.350   1.637 -0.2340  0.2319 -0.2006
 5193SOL    HW120770   5.409   5.306   1.721  0.4050 -0.6540 -0.5438
 5193SOL    HW220771   5.336   5.351   1.597 -0.1630 -1.3858 -0.4787
 5193SOL     MW20772   5.410   5.344   1.643 -0.1431 -0.0886 -0.2801
 5194SOL     OW20773   4.164   4.109   0.562  0.7501  0.4632  0.2771
 5194SOL    HW120774   4.224   4.088   0.491 -0.2847 -0.6846 -0.3118
 5194SOL    HW220775   4.147   4.203   0.553  3.0735  1.0164  1.0013
 5194SOL     MW20776   4.169   4.118   0.552  0.9151  0.3871  0.2944
 5195SOL     OW20777   0.474   0.380   1.578 -0.3174 -0.1178 -0.1227
 5195SOL    HW120778   0.412   0.445   1.612  2.1206  0.9157  2.8931
 5195SOL    HW220779   0.483   0.402   1.485 -0.9032  2.8101  0.3930
 5195SOL     MW20780   0.467   0.391   1.571 -0.0803  0.3893  0.3294
 5196SOL     OW20781   4.813   4.467   5.313  0.0390  0.3801  0.0718
 5196SOL    HW120782   4.781   4.450   5.402  0.3368  1.6624  0.4517
 5196SOL    HW220783   4.903   4.435   5.315 -0.0679  0.0776  0.1208
 5196SOL     MW20784   4.821   4.461   5.325  0.0635  0.5055  0.1267
 5197SOL     OW20785   4.991   3.674   3.555  0.5004  0.3997 -0.3155
 5197SOL    HW120786   4.924   3.725   3.509 -0.3554 -0.3386  0.0780
 5197SOL    HW220787   4.998   3.715   3.641  1.2592  1.0609 -0.6763
 5197SOL     MW20788   4.983   3.686   3.560  0.4880  0.3899 -0.3113
 5198SOL     OW20789   4.044   0.347   3.303  0.0768 -0.2112 -0.0167
 5198SOL    HW120790   4.072   0.273   3.358  0.3549  0.7161  1.1285
 5198SOL    HW220791   3.948   0.344   3.307 -0.0363 -1.9855 -2.0453
 5198SOL     MW20792   4.035   0.337   3.311  0.0979 -0.3197 -0.1298
 5199SOL     OW20793   3.612   2.576   4.122 -0.3104  0.3412  0.3462
 5199SOL    HW120794   3.613   2.660   4.169  0.0852  0.8957 -0.6254
 5199SOL    HW220795   3.633   2.599   4.032 -2.4293 -0.5165 -0.4339
 5199SOL     MW20796   3.615   2.590   4.116 -0.5310  0.3024  0.1219
 5200SOL     OW20797   3.168   5.471   1.771 -0.0204 -0.3146  0.2716
 5200SOL    HW120798   3.243   5.415   1.792 -0.6322 -1.0789  0.4896
 5200SOL    HW220799   3.140   5.506   1.856 -0.4764 -0.7810  0.3204
 5200SOL     MW20800   3.174   5.468   1.784 -0.1571 -0.4722  0.3058
 5201SOL     OW20801   2.643   3.470   4.011  0.3336  0.1509 -0.6928
 5201SOL    HW120802   2.663   3.511   4.095  0.1550 -3.4445  1.3058
 5201SOL    HW220803   2.547   3.475   4.004  0.1317 -1.2747  0.4320
 5201SOL     MW20804   2.633   3.476   4.021  0.2849 -0.4919 -0.2930
 5202SOL     OW20805   5.326   4.372   0.036 -0.7987  0.0175  0.1104
 5202SOL    HW120806   5.342   4.367   0.130  1.1561  1.3055 -0.0867
 5202SOL    HW220807   5.369   4.293   0.001 -0.4389  0.1676  0.2018
 5202SOL     MW20808   5.334   4.361   0.044 -0.5024  0.2015  0.0969
 5203SOL     OW20809   1.988   1.836   5.154  0.7387  0.0635 -0.0798
 5203SOL    HW120810   1.960   1.753   5.115 -1.8303  0.5266  0.5821
 5203SOL    HW220811   1.925   1.900   5.122  2.1392  1.5947  0.1421
 5203SOL     MW20812   1.976   1.833   5.145  0.5891  0.3188  0.0333
 5204SOL     OW20813   0.280   0.127   5.284  0.1445 -0.3493 -0.0641
 5204SOL    HW120814   0.199   0.123   5.335 -0.2204 -1.3345 -0.6868
 5204SOL    HW220815   0.257   0.177   5.206  0.4054  0.2123  0.2157
 5204SOL     MW20816   0.267   0.132   5.280  0.1312 -0.4035 -0.1080
 5205SOL     OW20817   2.589   0.662   3.173 -0.7241 -0.5997  0.9093
 5205SOL    HW120818   2.644   0.588   3.147 -1.3046 -0.9597  0.7051
 5205SOL    HW220819   2.647   0.738   3.165 -0.6323 -0.7992 -0.6269
 5205SOL     MW20820   2.604   0.662   3.169 -0.7867 -0.6713  0.6865
 5206SOL     OW20821   2.444   0.621   2.798 -0.4036  0.0079  0.1675
 5206SOL    HW120822   2.432   0.662   2.884  0.4366 -1.5780  1.0864
 5206SOL    HW220823   2.536   0.592   2.798 -0.5209 -0.4150 -1.0840
 5206SOL     MW20824   2.455   0.622   2.809 -0.3110 -0.2492  0.1249
 5207SOL     OW20825   1.226   4.833   1.597  0.0749 -0.0394  0.1392
 5207SOL    HW120826   1.279   4.788   1.531  0.8870  0.7879  0.2042
 5207SOL    HW220827   1.233   4.925   1.575  1.2711  0.3711  2.0033
 5207SOL     MW20828   1.234   4.839   1.586  0.3320  0.1191  0.3861
 5208SOL     OW20829   2.655   1.295   0.342 -0.5801 -0.2806  0.1066
 5208SOL    HW120830   2.743   1.268   0.317  0.0978  0.3800  1.6674
 5208SOL    HW220831   2.626   1.351   0.270  0.1866 -0.6435 -0.5046
 5208SOL     MW20832   2.663   1.299   0.330 -0.3952 -0.2425  0.2282
 5209SOL     OW20833   5.185   0.906   4.469  0.3822  0.6215  0.1906
 5209SOL    HW120834   5.102   0.858   4.476  0.4988  0.4178  0.1779
 5209SOL    HW220835   5.252   0.838   4.463  0.5703  0.7832  0.4200
 5209SOL     MW20836   5.183   0.891   4.469  0.4212  0.6161  0.2183
 5210SOL     OW20837   0.849   2.601   1.826  0.4154  0.4657  0.8255
 5210SOL    HW120838   0.886   2.688   1.811 -0.2300  0.3821 -1.7009
 5210SOL    HW220839   0.882   2.548   1.753 -1.1211 -0.7627  0.9743
 5210SOL     MW20840   0.858   2.605   1.815  0.1361  0.2977  0.5212
 5211SOL     OW20841   1.875   4.442   0.719 -0.6380  0.2875  0.0712
 5211SOL    HW120842   1.957   4.456   0.765 -0.3110  2.3852 -1.0208
 5211SOL    HW220843   1.902   4.422   0.629 -1.3156 -0.0398 -0.0638
 5211SOL     MW20844   1.889   4.441   0.713 -0.6829  0.5142 -0.0859
 5212SOL     OW20845   0.661   3.738   4.696  0.4189  0.4502 -0.3322
 5212SOL    HW120846   0.632   3.667   4.752  0.7180  0.7809  0.2611
 5212SOL    HW220847   0.598   3.741   4.625 -0.1431  0.2158  0.1498
 5212SOL     MW20848   0.649   3.729   4.694  0.3853  0.4625 -0.1946
 5213SOL     OW20849   4.008   0.699   2.756  0.0640  0.6052 -0.2161
 5213SOL    HW120850   4.044   0.746   2.681 -0.8162 -1.0975 -1.7884
 5213SOL    HW220851   4.026   0.606   2.737 -1.5786  0.0156  0.8757
 5213SOL     MW20852   4.015   0.693   2.744 -0.2589  0.3118 -0.2776
 5214SOL     OW20853   3.229   1.477   0.961  0.1629  0.2464  0.2761
 5214SOL    HW120854   3.311   1.482   1.010 -0.0937  1.4614  0.6151
 5214SOL    HW220855   3.256   1.480   0.869  0.5144  0.5121  0.3833
 5214SOL     MW20856   3.243   1.478   0.956  0.1751  0.4360  0.3332
 5215SOL     OW20857   0.393   2.667   1.700 -0.2706 -0.5415 -0.3147
 5215SOL    HW120858   0.362   2.613   1.627 -0.9373 -0.9416  0.2477
 5215SOL    HW220859   0.463   2.615   1.740  0.5474 -0.0298 -1.0541
 5215SOL     MW20860   0.398   2.653   1.696 -0.2512 -0.5272 -0.3373
 5216SOL     OW20861   0.912   4.840   0.260 -0.2112 -0.2006  0.0166
 5216SOL    HW120862   0.857   4.788   0.319 -2.3558  0.8348 -0.9770
 5216SOL    HW220863   0.867   4.924   0.253 -0.3884 -0.4400 -3.4981
 5216SOL     MW20864   0.900   4.844   0.267 -0.5084 -0.0987 -0.5605
 5217SOL     OW20865   4.181   3.912   0.132  0.0340 -0.4976 -0.6389
 5217SOL    HW120866   4.086   3.915   0.142 -0.1358  0.6649 -2.2149
 5217SOL    HW220867   4.195   3.849   0.061  0.4904 -0.9949 -0.1203
 5217SOL     MW20868   4.171   3.904   0.124  0.0707 -0.4124 -0.7742
 5218SOL     OW20869   2.018   1.816   4.082  0.0802 -0.0657  0.5205
 5218SOL    HW120870   1.965   1.864   4.146 -1.4854 -2.3493  1.0432
 5218SOL    HW220871   2.018   1.872   4.004  0.3359  1.8386  1.8147
 5218SOL     MW20872   2.011   1.830   4.080 -0.0875 -0.1143  0.7531
 5219SOL     OW20873   0.717   4.206   0.720 -0.1032 -0.0226 -0.1959
 5219SOL    HW120874   0.624   4.206   0.699  0.0227  1.0685 -0.8540
 5219SOL    HW220875   0.760   4.171   0.642  0.0196 -0.9284  0.2666
 5219SOL     MW20876   0.711   4.201   0.707 -0.0713  0.0011 -0.2209
 5220SOL     OW20877   4.119   3.409   1.297 -0.4746 -0.0242 -0.3227
 5220SOL    HW120878   4.171   3.337   1.332  0.0173  0.6448  0.3536
 5220SOL    HW220879   4.129   3.402   1.202  0.9282  0.1478 -0.2079
 5220SOL     MW20880   4.127   3.399   1.290 -0.2320  0.0834 -0.2214
 5221SOL     OW20881   4.216   1.535   4.053 -0.2806  0.2763  0.2086
 5221SOL    HW120882   4.197   1.585   3.973  0.3255 -0.0429 -0.1409
 5221SOL    HW220883   4.146   1.470   4.058  0.0458 -0.1391 -0.4406
 5221SOL     MW20884   4.205   1.533   4.043 -0.1613  0.1823  0.0807
 5222SOL     OW20885   4.702   4.933   3.749  0.0967  0.2844 -0.1062
 5222SOL    HW120886   4.666   4.870   3.813  1.5672  0.2830  0.7782
 5222SOL    HW220887   4.737   4.878   3.679 -2.6981  0.3238 -1.6577
 5222SOL     MW20888   4.702   4.918   3.749 -0.0728  0.2892 -0.1916
 5223SOL     OW20889   3.408   5.207   0.208  0.3420 -0.1762 -0.3397
 5223SOL    HW120890   3.421   5.148   0.283 -0.0564  1.8057  1.3926
 5223SOL    HW220891   3.322   5.245   0.222  0.4004  0.4700 -1.6458
 5223SOL     MW20892   3.399   5.205   0.220  0.2985  0.1602 -0.2851
 5224SOL     OW20893   2.289   2.217   3.497 -0.4674 -0.5805 -0.7754
 5224SOL    HW120894   2.232   2.198   3.571  0.3342  1.9160  0.6037
 5224SOL    HW220895   2.230   2.251   3.429 -0.9391 -0.6161 -0.3893
 5224SOL     MW20896   2.274   2.219   3.498 -0.4251 -0.2655 -0.5494
 5225SOL     OW20897   1.590   2.684   3.130 -0.3304 -1.0142  0.2120
 5225SOL    HW120898   1.583   2.613   3.194 -0.3916 -1.5343 -0.3566
 5225SOL    HW220899   1.683   2.707   3.130 -0.4983 -0.3353  1.1989
 5225SOL     MW20900   1.601   2.678   3.138 -0.3597 -0.9939  0.2655
 5226SOL     OW20901   0.769   3.701   3.113  0.0865 -0.6363  0.4417
 5226SOL    HW120902   0.822   3.653   3.176  0.6359  0.4987  0.8617
 5226SOL    HW220903   0.827   3.717   3.038  0.0024 -0.3499  0.4362
 5226SOL     MW20904   0.783   3.697   3.111  0.1461 -0.4544  0.4948
 5227SOL     OW20905   1.236   0.816   3.447  0.0055 -0.6332 -0.6394
 5227SOL    HW120906   1.198   0.778   3.368 -1.2774 -0.1038 -0.3143
 5227SOL    HW220907   1.161   0.829   3.505  0.6863  0.5251  0.0233
 5227SOL     MW20908   1.221   0.813   3.445 -0.0716 -0.4172 -0.5129
 5228SOL     OW20909   4.920   4.266   3.358  0.0582 -0.1671 -0.3910
 5228SOL    HW120910   4.910   4.337   3.295 -0.0090  0.0374 -0.1498
 5228SOL    HW220911   4.840   4.215   3.350 -0.4408  0.4959  0.3226
 5228SOL     MW20912   4.909   4.269   3.349 -0.0143 -0.0560 -0.2688
 5229SOL     OW20913   4.130   0.112   5.184  0.1521  0.2789  0.3336
 5229SOL    HW120914   4.163   0.023   5.171  1.9495  1.0187 -0.6273
 5229SOL    HW220915   4.169   0.140   5.268  0.2307  0.4085  0.2559
 5229SOL     MW20916   4.139   0.105   5.193  0.3922  0.3902  0.2007
 5230SOL     OW20917   0.950   4.124   2.198  0.1833 -0.0374  0.2050
 5230SOL    HW120918   0.949   4.197   2.136 -0.9989  0.3812  0.6753
 5230SOL    HW220919   1.034   4.081   2.184  0.5575  0.9335 -0.6464
 5230SOL     MW20920   0.960   4.128   2.188  0.0799  0.1405  0.1562
 5231SOL     OW20921   1.470   4.707   0.710 -0.7920 -0.3749  0.3170
 5231SOL    HW120922   1.563   4.715   0.693 -0.8123  1.3612  0.7616
 5231SOL    HW220923   1.464   4.643   0.781  0.1691  0.1965  0.9466
 5231SOL     MW20924   1.481   4.700   0.717 -0.6716 -0.0795  0.4545
 5232SOL     OW20925   3.725   3.746   0.197 -0.5588 -0.3703  0.4821
 5232SOL    HW120926   3.783   3.685   0.150 -0.9780  0.7263 -1.6124
 5232SOL    HW220927   3.643   3.698   0.208 -0.2779 -0.8357  0.5496
 5232SOL     MW20928   3.722   3.732   0.192 -0.5765 -0.2895  0.2226
 5233SOL     OW20929   4.429   0.363   3.531  0.3322 -0.1133 -0.2039
 5233SOL    HW120930   4.522   0.353   3.549  0.4372  0.8802 -0.1212
 5233SOL    HW220931   4.417   0.323   3.445  0.7020 -0.8316  0.0729
 5233SOL     MW20932   4.439   0.357   3.522  0.3930 -0.0780 -0.1579
 5234SOL     OW20933   0.066   4.118   2.731 -0.0585  0.2668 -0.1074
 5234SOL    HW120934   0.008   4.047   2.759 -1.3136  0.7332 -1.3949
 5234SOL    HW220935   0.147   4.074   2.706 -0.4651 -0.6050  0.0595
 5234SOL     MW20936   0.069   4.103   2.731 -0.2713  0.2149 -0.2508
 5235SOL     OW20937   3.326   5.463   1.495 -0.4050  0.2234 -0.8673
 5235SOL    HW120938   3.307   5.407   1.571  0.6850 -1.1126 -1.5274
 5235SOL    HW220939   3.240   5.483   1.459 -0.8529 -0.7812 -0.4148
 5235SOL     MW20940   3.312   5.458   1.500 -0.3228 -0.0762 -0.8939
 5236SOL     OW20941   3.173   1.397   3.831  0.6617 -0.0132 -0.0018
 5236SOL    HW120942   3.183   1.306   3.802  0.2514  0.3277 -1.2900
 5236SOL    HW220943   3.246   1.411   3.891  0.7192 -1.1963  0.2441
 5236SOL     MW20944   3.183   1.387   3.835  0.6165 -0.1210 -0.1352
 5237SOL     OW20945   0.325   3.522   1.535  0.4807  0.0447  0.7185
 5237SOL    HW120946   0.277   3.542   1.616 -0.0393 -0.1918  0.4698
 5237SOL    HW220947   0.294   3.586   1.472  0.8692  0.2116  0.6941
 5237SOL     MW20948   0.315   3.532   1.538  0.4639  0.0358  0.6835
 5238SOL     OW20949   0.428   2.420   3.829  0.2052  0.0375 -0.5175
 5238SOL    HW120950   0.517   2.388   3.845  0.2148  0.2215 -0.2004
 5238SOL    HW220951   0.372   2.357   3.873  0.1094 -0.7266 -1.6780
 5238SOL     MW20952   0.432   2.408   3.837  0.1942 -0.0368 -0.6254
 5239SOL     OW20953   2.804   1.975   4.470  0.5935  0.3733  0.0414
 5239SOL    HW120954   2.798   1.929   4.554  0.1157  0.7796  0.2337
 5239SOL    HW220955   2.886   2.025   4.477  1.5779 -1.0964 -0.5135
 5239SOL     MW20956   2.814   1.975   4.482  0.6584  0.2372 -0.0050
 5240SOL     OW20957   4.001   2.494   4.868  0.0819 -0.2968  0.3826
 5240SOL    HW120958   3.962   2.484   4.781 -2.2817 -0.4042  1.3777
 5240SOL    HW220959   3.984   2.411   4.912 -0.4046  0.4004  1.5437
 5240SOL     MW20960   3.994   2.482   4.862 -0.2829 -0.2213  0.6586
 5241SOL     OW20961   1.545   4.483   1.310  0.1215  0.0154  0.4313
 5241SOL    HW120962   1.586   4.433   1.381  1.5286  1.0480  0.3919
 5241SOL    HW220963   1.616   4.536   1.275 -0.4537 -0.7107 -2.0032
 5241SOL     MW20964   1.559   4.483   1.315  0.2280  0.0546  0.1146
 5242SOL     OW20965   3.379   0.830   3.328 -0.2350 -0.0611 -0.1704
 5242SOL    HW120966   3.409   0.796   3.412  1.3805 -0.0880 -0.7182
 5242SOL    HW220967   3.304   0.886   3.349 -1.1871 -1.6932  1.0441
 5242SOL     MW20968   3.373   0.833   3.341 -0.1501 -0.2734 -0.0850
 5243SOL     OW20969   0.307   5.315   3.718 -0.3235 -0.1378 -0.0009
 5243SOL    HW120970   0.241   5.255   3.754  1.1371 -1.8524 -0.0236
 5243SOL    HW220971   0.361   5.260   3.661  1.0664  1.2189 -0.0666
 5243SOL     MW20972   0.305   5.300   3.715  0.0414 -0.1837 -0.0122
 5244SOL     OW20973   2.748   3.588   0.451  0.4810 -0.2165  0.0918
 5244SOL    HW120974   2.831   3.604   0.497  1.2887 -1.9775 -0.6661
 5244SOL    HW220975   2.692   3.548   0.517 -0.9601  3.5957  1.5047
 5244SOL     MW20976   2.751   3.585   0.466  0.4000  0.0461  0.1756
 5245SOL     OW20977   2.478   4.833   3.543  0.6414 -0.0878  0.0353
 5245SOL    HW120978   2.428   4.915   3.545 -0.2400 -0.6188  0.6550
 5245SOL    HW220979   2.471   4.802   3.453  2.5620  1.4275 -0.7129
 5245SOL     MW20980   2.471   4.840   3.532  0.7744  0.0382  0.0189
 5246SOL     OW20981   1.081   4.704   4.486 -0.4972  0.1271 -0.0986
 5246SOL    HW120982   1.062   4.781   4.431 -0.7165 -0.4660 -0.8767
 5246SOL    HW220983   1.060   4.630   4.430 -0.5206 -0.5045  0.7315
 5246SOL     MW20984   1.076   4.705   4.472 -0.5283 -0.0297 -0.0919
 5247SOL     OW20985   4.370   1.196   4.107  0.0129  0.0920 -0.0845
 5247SOL    HW120986   4.369   1.259   4.035 -0.1160 -0.3654 -0.4841
 5247SOL    HW220987   4.457   1.157   4.104  1.0040  1.9440  1.6673
 5247SOL     MW20988   4.381   1.199   4.097  0.1233  0.2705  0.0886
 5248SOL     OW20989   2.234   1.840   4.234  0.4589 -0.1317 -0.3425
 5248SOL    HW120990   2.159   1.813   4.181  0.8113 -0.4187 -0.6987
 5248SOL    HW220991   2.307   1.789   4.200  1.0923  1.0816 -0.8709
 5248SOL     MW20992   2.233   1.830   4.222  0.5851 -0.0131 -0.4558
 5249SOL     OW20993   3.281   4.999   1.061 -0.5803 -0.2141 -0.0881
 5249SOL    HW120994   3.358   4.950   1.089 -0.5894 -0.3761 -0.3486
 5249SOL    HW220995   3.207   4.957   1.105 -0.6172 -0.5925 -0.5079
 5249SOL     MW20996   3.281   4.987   1.070 -0.5862 -0.2833 -0.1752
 5250SOL     OW20997   4.868   4.701   3.913 -0.0207 -0.0534  0.3237
 5250SOL    HW120998   4.880   4.654   3.830 -0.7988 -0.0554  0.2043
 5250SOL    HW220999   4.919   4.781   3.902  0.7437 -0.5398  0.2564
 5250SOL     MW21000   4.876   4.705   3.901 -0.0224 -0.1159  0.2998
 5251SOL     OW21001   1.035   4.082   4.345  0.1232  0.3730 -0.1711
 5251SOL    HW121002   0.942   4.088   4.366 -0.1893 -1.5003 -0.8279
 5251SOL    HW221003   1.076   4.147   4.402 -1.7532  2.7261 -1.3102
 5251SOL     MW21004   1.028   4.091   4.355 -0.1570  0.4344 -0.4010
 5252SOL     OW21005   3.622   2.226   3.249  0.1238  0.1981  0.0222
 5252SOL    HW121006   3.655   2.148   3.203  1.9288  0.6277  0.4784
 5252SOL    HW221007   3.575   2.191   3.325 -0.3028 -0.4614 -0.5360
 5252SOL     MW21008   3.621   2.211   3.253  0.3002  0.1687  0.0092
 5253SOL     OW21009   0.151   3.452   3.701 -0.0283  0.1023 -0.4989
 5253SOL    HW121010   0.245   3.430   3.699 -0.0065  0.2167 -0.7400
 5253SOL    HW221011   0.149   3.543   3.730  0.0803  0.8933 -2.7715
 5253SOL     MW21012   0.163   3.460   3.704 -0.0116  0.2182 -0.8207
 5254SOL     OW21013   1.109   0.596   4.089 -0.1646 -0.2724  0.0449
 5254SOL    HW121014   1.106   0.516   4.142  1.1183  0.7947  1.8421
 5254SOL    HW221015   1.028   0.641   4.110 -0.0475 -0.2539  0.4746
 5254SOL     MW21016   1.098   0.591   4.098  0.0146 -0.1334  0.3300
 5255SOL     OW21017   3.397   3.169   3.643  0.3730  0.0264 -0.6305
 5255SOL    HW121018   3.366   3.102   3.703 -0.4627  1.7908  1.0027
 5255SOL    HW221019   3.329   3.173   3.575  0.0466 -0.2705 -0.3298
 5255SOL     MW21020   3.384   3.161   3.642  0.2242  0.2142 -0.3829
 5256SOL     OW21021   1.295   2.061   4.144  0.3785  0.1189 -0.1509
 5256SOL    HW121022   1.346   2.023   4.073  0.1149  0.4089 -0.5073
 5256SOL    HW221023   1.258   1.986   4.191  1.4022 -0.0954  0.3196
 5256SOL     MW21024   1.297   2.047   4.141  0.4758  0.1286 -0.1363
 5257SOL     OW21025   4.422   1.075   4.959 -0.1505  0.1194  0.4213
 5257SOL    HW121026   4.476   1.153   4.974 -0.3502  0.5966 -1.1788
 5257SOL    HW221027   4.340   1.109   4.923  0.4662 -0.8859 -2.1701
 5257SOL     MW21028   4.418   1.090   4.956 -0.0971  0.0518 -0.1153
 5258SOL     OW21029   3.060   4.493   0.218 -0.7045  0.0602  0.1300
 5258SOL    HW121030   3.021   4.481   0.132  0.1061  1.0307 -0.4019
 5258SOL    HW221031   3.125   4.423   0.226  0.2672  0.8252 -0.7056
 5258SOL     MW21032   3.064   4.483   0.208 -0.4763  0.2823 -0.0451
 5259SOL     OW21033   3.100   4.732   2.031  0.2171 -0.2674  0.3065
 5259SOL    HW121034   3.162   4.795   2.068 -0.7450  1.1558 -0.4144
 5259SOL    HW221035   3.040   4.785   1.980 -0.1936 -1.8603 -0.9536
 5259SOL     MW21036   3.100   4.747   2.029  0.0414 -0.2891  0.0529
 5260SOL     OW21037   1.338   3.184   4.428 -0.4609  0.1883 -0.1333
 5260SOL    HW121038   1.376   3.098   4.410  0.3709  0.4157  0.4709
 5260SOL    HW221039   1.397   3.246   4.387 -1.2299  0.4723 -0.8364
 5260SOL     MW21040   1.350   3.181   4.421 -0.4529  0.2538 -0.1459
 5261SOL     OW21041   5.345   1.484   0.199  0.2733  0.1590 -0.4884
 5261SOL    HW121042   5.391   1.452   0.122  0.4267  0.7679 -0.6551
 5261SOL    HW221043   5.408   1.541   0.243  0.2856 -0.3987  0.2422
 5261SOL     MW21044   5.359   1.487   0.195  0.2945  0.1655 -0.4162
 5262SOL     OW21045   3.550   4.550   0.694  0.3081  0.2151 -0.2986
 5262SOL    HW121046   3.623   4.512   0.743  0.4385  0.0530 -0.6183
 5262SOL    HW221047   3.553   4.643   0.715  0.9806  0.3062 -0.7902
 5262SOL     MW21048   3.560   4.557   0.703  0.4109  0.2060 -0.4024
 5263SOL     OW21049   1.743   0.512   0.610 -0.7004  0.1888  0.1834
 5263SOL    HW121050   1.724   0.456   0.686  0.1487  0.6916  0.7885
 5263SOL    HW221051   1.770   0.596   0.648  0.6514  0.1663 -0.6332
 5263SOL     MW21052   1.744   0.516   0.625 -0.4187  0.2503  0.1563
 5264SOL     OW21053   2.232   2.149   0.871 -0.1743 -0.1133  0.1181
 5264SOL    HW121054   2.212   2.205   0.797 -1.6667  1.4293  1.6052
 5264SOL    HW221055   2.298   2.197   0.921  0.0150 -0.6286  0.3821
 5264SOL     MW21056   2.238   2.162   0.868 -0.3411  0.0182  0.3422
 5265SOL     OW21057   3.620   4.597   5.080  0.3644 -0.5858 -0.2130
 5265SOL    HW121058   3.551   4.532   5.087 -0.7271  0.6438  1.2261
 5265SOL    HW221059   3.580   4.678   5.114  1.4409  1.0088 -2.4797
 5265SOL     MW21060   3.606   4.599   5.085  0.3625 -0.2243 -0.3189
 5266SOL     OW21061   4.818   3.700   4.455 -0.0845 -0.4224  0.2202
 5266SOL    HW121062   4.826   3.762   4.528  0.7962 -1.7217  1.2760
 5266SOL    HW221063   4.907   3.689   4.423 -0.3963 -0.2653 -0.7479
 5266SOL     MW21064   4.830   3.707   4.460 -0.0117 -0.5686  0.2314
 5267SOL     OW21065   1.820   3.139   3.153 -0.1270 -0.4382 -0.4284
 5267SOL    HW121066   1.792   3.132   3.244 -0.4050  1.0418 -0.3779
 5267SOL    HW221067   1.753   3.092   3.103 -0.6978 -0.1062  0.0209
 5267SOL     MW21068   1.808   3.132   3.158 -0.2356 -0.2062 -0.3644
 5268SOL     OW21069   4.857   3.357   2.599  0.1353  0.0158 -0.2730
 5268SOL    HW121070   4.915   3.378   2.525  0.8705  1.3260  0.6242
 5268SOL    HW221071   4.857   3.437   2.652  0.1113 -1.0877  1.4518
 5268SOL     MW21072   4.865   3.370   2.596  0.2263  0.0422  0.0626
 5269SOL     OW21073   4.661   3.332   5.190 -0.1768 -0.4217  0.3701
 5269SOL    HW121074   4.671   3.284   5.273  0.3964 -3.4711 -1.2947
 5269SOL    HW221075   4.566   3.339   5.178 -0.2993 -1.7984  0.3616
 5269SOL     MW21076   4.650   3.327   5.199 -0.1191 -0.9883  0.1559
 5270SOL     OW21077   4.614   4.628   2.904 -0.3723 -0.0103  0.2352
 5270SOL    HW121078   4.693   4.671   2.872 -0.0178 -0.0423  1.0586
 5270SOL    HW221079   4.646   4.554   2.957 -0.9051  0.7780  1.7079
 5270SOL     MW21080   4.628   4.624   2.907 -0.3951  0.0865  0.5291
 5271SOL     OW21081   2.772   2.048   0.196  0.0284  0.1821 -0.4131
 5271SOL    HW121082   2.708   2.065   0.127 -0.8398  1.2647  0.6194
 5271SOL    HW221083   2.721   2.045   0.277  1.1084 -0.3698  0.2785
 5271SOL     MW21084   2.757   2.050   0.198  0.0555  0.2500 -0.1924
 5272SOL     OW21085   2.858   1.384   2.101 -0.0887  0.1988  0.0508
 5272SOL    HW121086   2.763   1.381   2.089  0.0614  0.4692 -1.3966
 5272SOL    HW221087   2.872   1.354   2.191 -1.6340  1.5998  0.8034
 5272SOL     MW21088   2.848   1.380   2.111 -0.2673  0.4128 -0.0382
 5273SOL     OW21089   4.166   3.874   5.322  0.3831  0.0537  0.5035
 5273SOL    HW121090   4.082   3.828   5.318  0.1137  0.5344  0.6173
 5273SOL    HW221091   4.229   3.812   5.285 -0.2039  0.1273 -0.6421
 5273SOL     MW21092   4.163   3.860   5.317  0.2734  0.1247  0.3714
 5274SOL     OW21093   4.571   1.326   4.319  0.3880  0.6140  0.1404
 5274SOL    HW121094   4.552   1.255   4.258  1.1281  0.1968  0.3822
 5274SOL    HW221095   4.504   1.392   4.301 -1.4573 -0.8934  1.1735
 5274SOL     MW21096   4.560   1.326   4.309  0.2465  0.3676  0.3036
 5275SOL     OW21097   1.594   5.041   0.978  0.0853  0.0659  0.0538
 5275SOL    HW121098   1.598   5.119   1.034 -0.6938  1.1093 -1.2812
 5275SOL    HW221099   1.624   5.072   0.892 -0.9116 -0.9296 -0.6745
 5275SOL     MW21100   1.599   5.055   0.974 -0.1421  0.0720 -0.2104
 5276SOL     OW21101   1.892   3.329   3.558  0.6838 -0.0110  0.1399
 5276SOL    HW121102   1.958   3.395   3.538  1.4187 -1.0906 -1.1525
 5276SOL    HW221103   1.927   3.248   3.522  0.0851 -1.2767  2.2248
 5276SOL     MW21104   1.905   3.327   3.551  0.7012 -0.3112  0.2414
 5277SOL     OW21105   4.327   5.020   2.487  0.4749 -0.0149  0.1208
 5277SOL    HW121106   4.327   4.955   2.558  1.3659  0.5656  0.6699
 5277SOL    HW221107   4.369   4.975   2.414 -0.9751 -0.8166 -0.2551
 5277SOL     MW21108   4.332   5.006   2.487  0.4033 -0.0433  0.1430
 5278SOL     OW21109   5.052   1.024   3.868  0.2844  0.5308 -0.3702
 5278SOL    HW121110   4.976   0.998   3.817  0.0376 -1.0345  0.7262
 5278SOL    HW221111   5.016   1.073   3.942  0.6168  2.5184 -1.4523
 5278SOL     MW21112   5.038   1.027   3.871  0.2954  0.5849 -0.3683
 5279SOL     OW21113   0.469   5.094   4.984  0.4737 -0.5288  0.2874
 5279SOL    HW121114   0.455   5.085   4.890  0.1841 -1.3759  0.4047
 5279SOL    HW221115   0.556   5.132   4.992  0.4607 -0.3648 -0.3260
 5279SOL     MW21116   0.478   5.098   4.973  0.4349 -0.6162  0.2239
 5280SOL     OW21117   3.912   0.900   1.169 -0.1614 -0.3983  0.2437
 5280SOL    HW121118   3.937   0.811   1.192 -1.4279 -0.0939  3.2911
 5280SOL    HW221119   3.817   0.897   1.161 -0.0305  0.1360 -2.8016
 5280SOL     MW21120   3.903   0.888   1.171 -0.3067 -0.2909  0.2439
 5281SOL     OW21121   3.430   3.330   1.307  0.5231 -0.4659  0.3025
 5281SOL    HW121122   3.404   3.388   1.378  1.4622 -1.0205  1.1265
 5281SOL    HW221123   3.426   3.384   1.228 -1.6864 -0.1414  0.5753
 5281SOL     MW21124   3.426   3.344   1.306  0.3605 -0.4954  0.4429
 5282SOL     OW21125   1.221   2.675   4.948 -0.2432  0.1292 -0.2326
 5282SOL    HW121126   1.157   2.675   4.877 -0.9977  1.1162  0.4250
 5282SOL    HW221127   1.212   2.761   4.988 -0.9216 -0.9159  2.0144
 5282SOL     MW21128   1.212   2.686   4.944 -0.4266  0.1218  0.1392
 5283SOL     OW21129   3.657   4.058   1.638  0.3563 -0.1656 -0.4743
 5283SOL    HW121130   3.685   4.149   1.628  0.9651 -0.3442 -0.4153
 5283SOL    HW221131   3.673   4.038   1.730 -0.2166 -0.1915 -0.3746
 5283SOL     MW21132   3.663   4.067   1.649  0.3609 -0.1918 -0.4540
 5284SOL     OW21133   1.251   5.027   3.830 -0.2376 -0.6035 -0.2552
 5284SOL    HW121134   1.338   5.061   3.808 -0.2675 -1.1722 -1.3005
 5284SOL    HW221135   1.252   4.937   3.798 -2.2148  0.2418 -3.0792
 5284SOL     MW21136   1.262   5.020   3.823 -0.4946 -0.5681 -0.7505
 5285SOL     OW21137   1.405   2.920   0.341 -0.6200 -0.1453 -0.0361
 5285SOL    HW121138   1.454   3.002   0.347  0.7627 -0.9902  0.5038
 5285SOL    HW221139   1.442   2.874   0.266 -1.9389  0.0399 -0.8414
 5285SOL     MW21140   1.416   2.925   0.332 -0.6118 -0.2297 -0.0701
 5286SOL     OW21141   0.070   5.305   3.253 -0.6624  0.4252  0.0081
 5286SOL    HW121142   0.133   5.374   3.273 -0.3589 -0.0950  0.9119
 5286SOL    HW221143   0.064   5.254   3.334 -0.9522 -0.5506 -0.6137
 5286SOL     MW21144   0.078   5.308   3.266 -0.6607  0.2337  0.0442
 5287SOL     OW21145   5.285   1.230   1.769 -0.4793  0.7518 -0.0263
 5287SOL    HW121146   5.197   1.266   1.772 -0.6437  0.3403  0.2080
 5287SOL    HW221147   5.331   1.272   1.842 -0.8073  0.1505  0.5401
 5287SOL     MW21148   5.280   1.240   1.779 -0.5424  0.6222  0.0762
 5288SOL     OW21149   3.315   1.536   1.562 -0.3279 -0.8188  0.1261
 5288SOL    HW121150   3.319   1.441   1.555  0.8561 -0.8151  0.5110
 5288SOL    HW221151   3.339   1.567   1.475 -0.5000 -0.8729  0.0597
 5288SOL     MW21152   3.319   1.528   1.550 -0.1983 -0.8253  0.1669
 5289SOL     OW21153   3.370   2.946   3.787  0.1067  0.3342 -0.1974
 5289SOL    HW121154   3.414   2.960   3.871  2.0160  1.1580 -1.2805
 5289SOL    HW221155   3.342   2.854   3.790  1.9948 -0.2579  0.5341
 5289SOL     MW21156   3.372   2.936   3.798  0.5928  0.3639 -0.2424
 5290SOL     OW21157   1.267   3.844   0.120 -0.0562 -0.2133  0.3068
 5290SOL    HW121158   1.315   3.923   0.094 -1.9961  1.0452  0.3647
 5290SOL    HW221159   1.319   3.772   0.084  1.5766  1.0881 -0.0758
 5290SOL     MW21160   1.280   3.845   0.112 -0.0955  0.1144  0.2653
 5291SOL     OW21161   1.924   3.578   4.053 -0.1849 -0.0077 -0.0732
 5291SOL    HW121162   1.922   3.558   3.960 -1.5382  1.1602 -0.3265
 5291SOL    HW221163   1.834   3.603   4.074  0.0486 -0.4483  1.5940
 5291SOL     MW21164   1.912   3.579   4.044 -0.3282  0.0854  0.1078
 5292SOL     OW21165   4.823   0.964   3.718 -0.1785 -0.0506 -0.2856
 5292SOL    HW121166   4.797   0.875   3.742 -0.8240  0.1719 -0.1300
 5292SOL    HW221167   4.742   1.014   3.723  0.5931  1.1329  2.3287
 5292SOL     MW21168   4.809   0.959   3.722 -0.1624  0.1294  0.0690
 5293SOL     OW21169   5.239   3.952   2.264  0.0464  0.0175 -0.0115
 5293SOL    HW121170   5.274   3.953   2.175  0.6445 -0.5209  0.2100
 5293SOL    HW221171   5.196   4.037   2.274  1.0099  0.5646 -0.4033
 5293SOL     MW21172   5.238   3.963   2.254  0.2463  0.0186 -0.0333
 5294SOL     OW21173   3.074   4.501   2.930  0.1212 -0.4253 -0.1743
 5294SOL    HW121174   3.078   4.594   2.908 -2.2692 -0.1551  0.2514
 5294SOL    HW221175   3.010   4.464   2.869 -0.4307 -1.3566  0.9236
 5294SOL     MW21176   3.067   4.508   2.919 -0.2554 -0.5100  0.0207
 5295SOL     OW21177   0.752   3.291   5.422 -0.4238 -0.3854 -0.4887
 5295SOL    HW121178   0.844   3.315   5.409 -0.9388  3.0867  1.0016
 5295SOL    HW221179   0.708   3.319   5.342 -0.6518  1.6663  0.2872
 5295SOL     MW21180   0.758   3.298   5.410 -0.5189  0.3217 -0.1986
 5296SOL     OW21181   4.401   1.651   3.102  0.0339 -0.2983 -0.4443
 5296SOL    HW121182   4.439   1.694   3.179  0.8021 -1.1782 -0.3198
 5296SOL    HW221183   4.311   1.631   3.128 -0.4856  1.5671 -0.6455
 5296SOL     MW21184   4.394   1.654   3.115  0.0657 -0.1722 -0.4541
 5297SOL     OW21185   4.965   5.075   5.150 -0.5242 -0.2463  0.1939
 5297SOL    HW121186   4.945   5.066   5.243 -2.5394 -0.8977 -0.2475
 5297SOL    HW221187   4.966   5.170   5.135  1.8820 -0.0520  1.2318
 5297SOL     MW21188   4.962   5.086   5.160 -0.4741 -0.3048  0.2703
 5298SOL     OW21189   4.284   2.491   3.559  0.2529  0.3290 -0.2054
 5298SOL    HW121190   4.255   2.400   3.556 -0.3320  0.4886  0.4264
 5298SOL    HW221191   4.217   2.537   3.610  1.8009  0.6115  1.6857
 5298SOL     MW21192   4.272   2.485   3.565  0.3762  0.3856  0.1176
 5299SOL     OW21193   1.676   3.288   1.795  0.2347  0.4130 -0.1472
 5299SOL    HW121194   1.754   3.254   1.750  0.6452  0.1623  0.7252
 5299SOL    HW221195   1.602   3.250   1.748  0.6628 -0.1307 -0.3930
 5299SOL     MW21196   1.677   3.279   1.783  0.3420  0.3113 -0.0670
 5300SOL     OW21197   4.647   4.175   3.955  0.4566 -0.2111 -0.1675
 5300SOL    HW121198   4.631   4.194   3.863  1.1736  2.0701  0.1245
 5300SOL    HW221199   4.572   4.213   4.001  1.4322  1.1542  0.3636
 5300SOL     MW21200   4.635   4.182   3.949  0.6732  0.2557 -0.0621
 5301SOL     OW21201   1.088   0.010   1.742  0.1481 -0.6219 -0.6392
 5301SOL    HW121202   1.004  -0.031   1.720 -0.0509 -1.3036  1.1918
 5301SOL    HW221203   1.133   0.020   1.658 -1.1659 -1.5806 -1.4937
 5301SOL     MW21204   1.083   0.006   1.728 -0.0456 -0.8319 -0.5142
 5302SOL     OW21205   5.251   2.418   3.947 -0.4508 -0.2316  0.1481
 5302SOL    HW121206   5.315   2.463   3.893  0.3181 -1.0384  0.3545
 5302SOL    HW221207   5.286   2.329   3.956 -1.2378 -0.4837  0.8632
 5302SOL     MW21208   5.264   2.412   3.941 -0.4531 -0.3672  0.2661
 5303SOL     OW21209   0.332   4.061   1.169 -0.2301  0.2189  0.0249
 5303SOL    HW121210   0.417   4.102   1.183 -0.4765  1.1677 -1.0836
 5303SOL    HW221211   0.352   3.982   1.119 -0.0403  0.8113 -0.8642
 5303SOL     MW21212   0.346   4.056   1.164 -0.2374  0.4162 -0.2308
 5304SOL     OW21213   1.350   3.842   4.259 -0.0918 -0.5804  0.2586
 5304SOL    HW121214   1.366   3.831   4.165 -0.9954 -2.7736  0.3104
 5304SOL    HW221215   1.255   3.844   4.267 -0.0125  0.7992  1.0369
 5304SOL     MW21216   1.340   3.841   4.248 -0.1973 -0.6846  0.3648
 5305SOL     OW21217   1.109   3.683   1.065 -0.4752 -0.2444  0.0171
 5305SOL    HW121218   1.021   3.653   1.044 -0.6070  0.9273 -1.1874
 5305SOL    HW221219   1.158   3.678   0.983  0.9438 -1.9321  0.8841
 5305SOL     MW21220   1.104   3.679   1.052 -0.3104 -0.3104 -0.0261
 5306SOL     OW21221   1.081   1.432   1.341  0.3825  0.2006 -0.1915
 5306SOL    HW121222   1.020   1.483   1.287  0.2421  1.2804  0.9517
 5306SOL    HW221223   1.065   1.463   1.430  3.2874  1.2238  0.0550
 5306SOL     MW21224   1.071   1.442   1.346  0.7364  0.4698 -0.0136
 5307SOL     OW21225   1.123   4.332   3.170 -0.4661  0.5090  0.2258
 5307SOL    HW121226   1.146   4.407   3.115  0.7972 -0.5844 -0.8192
 5307SOL    HW221227   1.068   4.277   3.115 -1.1786  0.5366  0.8981
 5307SOL     MW21228   1.119   4.335   3.156 -0.3956  0.3726  0.1781
 5308SOL     OW21229   3.356   3.967   0.691  0.2434 -0.3079  0.0635
 5308SOL    HW121230   3.288   3.946   0.626 -0.1772 -2.0697  1.0123
 5308SOL    HW221231   3.436   3.929   0.654  0.5394  0.8736 -0.5667
 5308SOL     MW21232   3.358   3.959   0.678  0.2274 -0.3821  0.1043
 5309SOL     OW21233   4.384   3.114   2.848  0.2215  0.0066  0.0141
 5309SOL    HW121234   4.360   3.100   2.939 -0.9302  2.7905  0.2417
 5309SOL    HW221235   4.318   3.066   2.798  1.0343 -1.7791  0.5746
 5309SOL     MW21236   4.373   3.106   2.853  0.1781  0.1344  0.1150
 5310SOL     OW21237   4.603   4.397   4.296 -0.3848 -0.1264 -0.1234
 5310SOL    HW121238   4.629   4.309   4.321 -0.8101 -0.6827 -1.5438
 5310SOL    HW221239   4.683   4.436   4.259 -0.2168  0.0700  0.4339
 5310SOL     MW21240   4.617   4.391   4.294 -0.4177 -0.1725 -0.2339
 5311SOL     OW21241   3.680   4.548   3.059  0.0690  0.4008 -0.1183
 5311SOL    HW121242   3.611   4.522   2.997  0.9701 -1.0551 -0.5592
 5311SOL    HW221243   3.632   4.591   3.130 -1.1738  0.4836 -0.9596
 5311SOL     MW21244   3.665   4.550   3.060  0.0253  0.2250 -0.2824
 5312SOL     OW21245   3.337   3.528   1.474  0.3053  0.4084  0.2279
 5312SOL    HW121246   3.354   3.604   1.529 -0.3628  0.1379  0.8311
 5312SOL    HW221247   3.245   3.507   1.490 -1.5710  3.2641 -4.6707
 5312SOL     MW21248   3.328   3.535   1.483 -0.0204  0.7393 -0.3220
 5313SOL     OW21249   0.985   1.936   0.217 -0.1705 -0.2434  0.0760
 5313SOL    HW121250   1.035   1.855   0.210 -1.6980 -1.2910  0.6498
 5313SOL    HW221251   1.037   1.992   0.275  0.6393 -1.0452  0.1391
 5313SOL     MW21252   0.998   1.932   0.224 -0.2624 -0.4801  0.1575
 5314SOL     OW21253   3.035   2.580   2.221 -0.8486  0.5062  0.3421
 5314SOL    HW121254   3.110   2.531   2.186  0.2314  1.3825  1.3261
 5314SOL    HW221255   2.983   2.602   2.144 -1.1228 -1.7313 -0.1676
 5314SOL     MW21256   3.038   2.577   2.207 -0.7454  0.3319  0.4028
 5315SOL     OW21257   0.599   5.414   1.769  0.0732 -0.1563 -0.3272
 5315SOL    HW121258   0.583   5.361   1.691 -0.8394 -0.1272 -0.1647
 5315SOL    HW221259   0.658   5.360   1.823 -0.6060 -0.8788 -0.2988
 5315SOL     MW21260   0.605   5.400   1.766 -0.1306 -0.2450 -0.3027
 5316SOL     OW21261   4.426   4.955   0.158  0.3826 -0.4016 -0.2116
 5316SOL    HW121262   4.455   5.043   0.134 -0.5502  0.3697  1.3625
 5316SOL    HW221263   4.508   4.905   0.165  1.0061  0.5829 -0.1925
 5316SOL     MW21264   4.440   4.960   0.156  0.3430 -0.1769 -0.0077
 5317SOL     OW21265   0.131   1.726   1.489  0.0490 -0.3217 -0.1942
 5317SOL    HW121266   0.120   1.813   1.528 -1.1514 -0.7236  0.4193
 5317SOL    HW221267   0.127   1.743   1.394  0.9792  0.4145 -0.1180
 5317SOL     MW21268   0.129   1.739   1.482  0.0144 -0.2789 -0.1059
 5318SOL     OW21269   0.426   1.798   4.727 -0.8463  0.5327  0.1470
 5318SOL    HW121270   0.481   1.874   4.705 -0.6829  0.7811  1.3541
 5318SOL    HW221271   0.337   1.833   4.732 -0.7875  0.6237  0.5803
 5318SOL     MW21272   0.422   1.812   4.725 -0.8178  0.5761  0.3570
 5319SOL     OW21273   1.783   5.249   2.836 -0.3154  0.5032 -0.2844
 5319SOL    HW121274   1.707   5.301   2.864 -1.1990  0.1157 -1.8591
 5319SOL    HW221275   1.774   5.243   2.741  1.7035  0.4370 -0.5038
 5319SOL     MW21276   1.772   5.255   2.827 -0.1701  0.4451 -0.5141
 5320SOL     OW21277   5.231   3.300   3.428 -0.1598 -0.2258 -0.6156
 5320SOL    HW121278   5.213   3.380   3.478  0.7481  0.0804 -0.7695
 5320SOL    HW221279   5.325   3.287   3.436  0.0701 -0.0128 -2.4548
 5320SOL     MW21280   5.241   3.309   3.435 -0.0141 -0.1594 -0.8707
 5321SOL     OW21281   3.477   4.939   1.904 -0.5527 -0.5317 -0.1925
 5321SOL    HW121282   3.420   4.882   1.852  0.7706 -1.7899 -0.3100
 5321SOL    HW221283   3.560   4.892   1.911  0.1293  0.7417  0.9409
 5321SOL     MW21284   3.480   4.926   1.898 -0.2960 -0.5298 -0.0625
 5322SOL     OW21285   4.094   1.689   1.551  0.5562  0.3014 -0.1646
 5322SOL    HW121286   4.096   1.650   1.464  0.9128 -1.5302  0.6085
 5322SOL    HW221287   4.173   1.656   1.594  1.5895  2.9499  0.1690
 5322SOL     MW21288   4.105   1.680   1.545  0.7341  0.4059 -0.0229
 5323SOL     OW21289   2.164   1.471   3.097  0.6202  0.0284  0.4749
 5323SOL    HW121290   2.190   1.529   3.168  0.7151  0.9247 -0.2662
 5323SOL    HW221291   2.078   1.504   3.069 -0.0243 -1.1191  1.0094
 5323SOL     MW21292   2.156   1.483   3.102  0.5498 -0.0037  0.4485
 5324SOL     OW21293   1.209   3.737   4.585 -0.1452  0.2035 -0.4603
 5324SOL    HW121294   1.115   3.730   4.598  0.1760 -0.4091  2.1828
 5324SOL    HW221295   1.228   3.831   4.596 -0.3864  0.2313 -0.2638
 5324SOL     MW21296   1.200   3.749   4.588 -0.1350  0.1286 -0.0968
 5325SOL     OW21297   4.361   1.527   4.928 -0.2071  0.4031  0.3984
 5325SOL    HW121298   4.425   1.472   4.882 -0.6934  2.0345 -2.4799
 5325SOL    HW221299   4.322   1.469   4.993 -0.4800 -2.6285 -2.2112
 5325SOL     MW21300   4.364   1.513   4.930 -0.3043  0.2239 -0.3041
 5326SOL     OW21301   4.110   2.678   3.729  0.0655  0.3254 -0.5129
 5326SOL    HW121302   4.193   2.714   3.761 -0.0528  0.1880 -0.0365
 5326SOL    HW221303   4.083   2.737   3.659 -0.0479  1.0810  0.1526
 5326SOL     MW21304   4.117   2.690   3.724  0.0358  0.4046 -0.3667
 5327SOL     OW21305   5.445   1.343   4.946 -0.1173 -0.3713 -0.3920
 5327SOL    HW121306   5.357   1.326   4.979  0.1849  0.5278  0.9665
 5327SOL    HW221307   5.441   1.432   4.911 -0.0086 -0.7210 -1.3192
 5327SOL     MW21308   5.434   1.352   4.946 -0.0647 -0.3010 -0.3368
 5328SOL     OW21309   1.014   1.650   2.737 -0.1164 -0.5918  0.3883
 5328SOL    HW121310   1.062   1.631   2.656 -0.9716 -0.1793 -0.2256
 5328SOL    HW221311   0.951   1.579   2.745  0.4257 -1.0182  1.0859
 5328SOL     MW21312   1.012   1.638   2.728 -0.1565 -0.5936  0.3990
 5329SOL     OW21313   4.623   1.067   3.103  0.0449 -0.2735  0.0632
 5329SOL    HW121314   4.536   1.072   3.063 -1.5385 -0.6483  3.1273
 5329SOL    HW221315   4.635   1.152   3.146  0.3949 -0.8146  1.0852
 5329SOL     MW21316   4.614   1.079   3.103 -0.1130 -0.3908  0.5863
 5330SOL     OW21317   5.070   0.120   3.778 -0.2281  0.3529  0.4824
 5330SOL    HW121318   5.045   0.140   3.688  0.9766  1.6335  0.3942
 5330SOL    HW221319   5.161   0.148   3.784 -0.2623  0.2150  2.0931
 5330SOL     MW21320   5.079   0.126   3.768 -0.0783  0.4992  0.6773
 5331SOL     OW21321   3.847   0.615   4.124  0.0905  0.1514 -0.1412
 5331SOL    HW121322   3.935   0.631   4.158  0.2228 -1.4781  0.4124
 5331SOL    HW221323   3.862   0.582   4.036 -0.0518  1.0423 -0.5060
 5331SOL     MW21324   3.860   0.612   4.117  0.0892  0.0569 -0.1170
 5332SOL     OW21325   2.682   3.456   3.422 -0.2655  0.1313 -0.1447
 5332SOL    HW121326   2.726   3.465   3.507 -2.3086 -0.3261  1.0599
 5332SOL    HW221327   2.752   3.443   3.359  1.3308  0.4573  1.4886
 5332SOL     MW21328   2.696   3.455   3.425 -0.3227  0.1145  0.2186
 5333SOL     OW21329   0.790   4.115   2.456 -0.0960 -0.2860  0.0379
 5333SOL    HW121330   0.705   4.071   2.450 -0.7214  1.0486 -1.3778
 5333SOL    HW221331   0.831   4.101   2.371  0.5779  0.1471  0.2817
 5333SOL     MW21332   0.785   4.107   2.444 -0.0898 -0.0597 -0.1121
 5334SOL     OW21333   0.234   4.709   4.767 -0.4704 -0.1844  0.6296
 5334SOL    HW121334   0.218   4.652   4.691  0.9410 -0.4968  0.5499
 5334SOL    HW221335   0.165   4.684   4.829  0.2152 -2.1422  0.6766
 5334SOL     MW21336   0.223   4.698   4.765 -0.2020 -0.4750  0.6254
 5335SOL     OW21337   3.059   3.209   1.441  0.1375 -0.1213  0.4408
 5335SOL    HW121338   3.096   3.154   1.511  0.2459  0.1083  0.5628
 5335SOL    HW221339   3.037   3.291   1.484  0.6556  0.1964  0.1057
 5335SOL     MW21340   3.061   3.212   1.456  0.2177 -0.0513  0.4135
 5336SOL     OW21341   3.838   3.587   4.029 -0.0245 -0.0177  0.2726
 5336SOL    HW121342   3.814   3.494   4.024 -2.1635  0.4164  1.4413
 5336SOL    HW221343   3.855   3.612   3.938  0.8262 -1.5725 -0.0457
 5336SOL     MW21344   3.837   3.578   4.017 -0.1895 -0.1612  0.3815
 5337SOL     OW21345   3.982   2.976   2.146 -0.4419  0.5829  0.1372
 5337SOL    HW121346   4.019   2.945   2.228 -1.5784 -0.4490  0.2983
 5337SOL    HW221347   4.054   3.019   2.101  0.4749  0.1704  1.1770
 5337SOL     MW21348   3.996   2.978   2.151 -0.4700  0.3980  0.2909
 5338SOL     OW21349   2.934   3.233   5.431  0.2334 -0.2499 -0.3255
 5338SOL    HW121350   3.029   3.224   5.440  0.5790  1.5258 -1.6415
 5338SOL    HW221351   2.914   3.317   5.471 -0.6988 -0.3430 -0.5675
 5338SOL     MW21352   2.944   3.243   5.437  0.1583 -0.0345 -0.5249
 5339SOL     OW21353   2.109   3.422   3.409 -0.0004 -0.0213  0.2976
 5339SOL    HW121354   2.176   3.354   3.409 -1.1722 -1.2329 -0.3633
 5339SOL    HW221355   2.098   3.445   3.316  0.0512  0.7295  0.4732
 5339SOL     MW21356   2.116   3.416   3.397 -0.1438 -0.0803  0.2355
 5340SOL     OW21357   2.682   4.066   1.067  0.5754 -1.0837 -0.6898
 5340SOL    HW121358   2.723   3.988   1.031  0.5440 -1.1091 -0.6707
 5340SOL    HW221359   2.598   4.074   1.021 -0.0176 -1.7987  0.2086
 5340SOL     MW21360   2.676   4.057   1.057  0.4955 -1.1785 -0.5724
 5341SOL     OW21361   4.108   4.053   1.825 -0.2210 -0.1674  0.6468
 5341SOL    HW121362   4.168   4.066   1.899 -1.5401  2.7126  1.3274
 5341SOL    HW221363   4.052   3.980   1.853  1.3684 -1.3144  1.0079
 5341SOL     MW21364   4.109   4.045   1.838 -0.1864  0.0544  0.7801
 5342SOL     OW21365   1.555   4.146   1.074  0.3022 -0.2702  0.3281
 5342SOL    HW121366   1.601   4.200   1.009  0.3821  0.3494  0.8874
 5342SOL    HW221367   1.508   4.209   1.128 -0.7390 -0.8545  0.1357
 5342SOL     MW21368   1.555   4.161   1.072  0.1792 -0.2657  0.3751
 5343SOL     OW21369   0.590   4.839   4.521  0.3307 -0.4483 -0.0034
 5343SOL    HW121370   0.522   4.825   4.455  0.0431 -1.9566  0.5698
 5343SOL    HW221371   0.615   4.751   4.549  1.1368  0.1317  1.2096
 5343SOL     MW21372   0.584   4.826   4.516  0.3970 -0.5671  0.2253
 5344SOL     OW21373   1.401   1.904   5.022  0.0907  0.2896 -0.1404
 5344SOL    HW121374   1.481   1.940   5.061  0.4884 -0.5471 -0.1634
 5344SOL    HW221375   1.388   1.956   4.942 -0.1077  1.2673  0.5077
 5344SOL     MW21376   1.409   1.916   5.017  0.1162  0.3077 -0.0604
 5345SOL     OW21377   4.108   3.229   4.823 -0.2410  0.1359 -0.3424
 5345SOL    HW121378   4.153   3.270   4.897 -0.3421 -1.8228  0.8734
 5345SOL    HW221379   4.088   3.301   4.765  0.3915  1.6764  1.2494
 5345SOL     MW21380   4.112   3.243   4.825 -0.1730  0.0824  0.0170
 5346SOL     OW21381   3.099   0.056   3.818 -0.0031  0.2414 -0.1515
 5346SOL    HW121382   3.180   0.045   3.868  1.3051 -1.3579 -2.4703
 5346SOL    HW221383   3.122   0.030   3.729 -3.1007 -0.2658 -0.8954
 5346SOL     MW21384   3.113   0.052   3.813 -0.2322 -0.0283 -0.5436
 5347SOL     OW21385   1.790   2.469   3.226 -0.1241 -0.4714  0.0224
 5347SOL    HW121386   1.718   2.481   3.288 -0.8922  0.4522 -1.0057
 5347SOL    HW221387   1.818   2.379   3.240 -1.2734 -0.7538  0.6714
 5347SOL     MW21388   1.784   2.459   3.236 -0.3696 -0.3893 -0.0261
 5348SOL     OW21389   1.863   0.272   4.114  0.3928  0.5031 -0.1313
 5348SOL    HW121390   1.945   0.314   4.087  0.3421  1.3927  1.0322
 5348SOL    HW221391   1.857   0.194   4.059  1.6509  0.8094 -0.7425
 5348SOL     MW21392   1.873   0.268   4.103  0.5474  0.6562 -0.0606
 5349SOL     OW21393   4.599   3.610   2.120  0.3029 -0.1705 -0.1015
 5349SOL    HW121394   4.535   3.661   2.071 -0.0674 -0.7692 -0.2390
 5349SOL    HW221395   4.613   3.531   2.068  1.8476  0.3580 -0.5465
 5349SOL     MW21396   4.593   3.607   2.107  0.4532 -0.1795 -0.1761
 5350SOL     OW21397   1.187   3.445   3.632 -0.1095 -0.4491 -0.2088
 5350SOL    HW121398   1.094   3.463   3.648  0.0726 -1.0547  1.9337
 5350SOL    HW221399   1.188   3.369   3.575 -0.9395 -0.6588  0.0415
 5350SOL     MW21400   1.175   3.438   3.627 -0.1924 -0.5535  0.0975
 5351SOL     OW21401   4.674   1.533   1.816  0.0606  0.0168 -0.7245
 5351SOL    HW121402   4.617   1.467   1.855  0.2627 -0.1867 -0.7685
 5351SOL    HW221403   4.667   1.519   1.721 -1.9510  1.7729 -0.9012
 5351SOL     MW21404   4.666   1.523   1.809 -0.1710  0.2156 -0.7528
 5352SOL     OW21405   1.985   2.256   0.986  0.1409  0.1675  0.1532
 5352SOL    HW121406   2.061   2.210   0.951  0.8029  0.9573  0.5262
 5352SOL    HW221407   2.014   2.347   0.996 -1.0640  0.6354 -0.3621
 5352SOL     MW21408   1.998   2.262   0.982  0.0714  0.3285  0.1350
 5353SOL     OW21409   1.644   0.713   1.327  0.1104 -0.1449  0.5121
 5353SOL    HW121410   1.553   0.684   1.332 -0.8826  2.7249  1.2169
 5353SOL    HW221411   1.669   0.726   1.418  1.3208 -1.0253  0.3280
 5353SOL     MW21412   1.636   0.711   1.339  0.1382  0.1097  0.5787
 5354SOL     OW21413   5.286   3.488   1.837  0.0177 -0.2824  0.1909
 5354SOL    HW121414   5.351   3.500   1.907 -1.7741 -0.7236  2.0374
 5354SOL    HW221415   5.204   3.517   1.876 -1.1545 -1.0690 -1.5739
 5354SOL     MW21416   5.284   3.493   1.851 -0.3617 -0.4396  0.2014
 5355SOL     OW21417   0.863   3.523   1.631  0.1198  0.0443 -0.0273
 5355SOL    HW121418   0.773   3.554   1.643 -0.1921 -1.1806  0.9415
 5355SOL    HW221419   0.877   3.527   1.536 -0.7174  0.8704 -0.1275
 5355SOL     MW21420   0.853   3.527   1.620 -0.0273 -0.0068  0.0839
 5356SOL     OW21421   4.943   0.750   0.443 -0.4912  0.0391 -0.1031
 5356SOL    HW121422   5.032   0.783   0.429 -0.0831 -1.5246 -1.5163
 5356SOL    HW221423   4.952   0.684   0.511 -0.9301  1.2070  1.1255
 5356SOL     MW21424   4.956   0.746   0.450 -0.4952 -0.0116 -0.1267
 5357SOL     OW21425   1.519   0.150   1.263 -0.4333 -0.2748 -0.3175
 5357SOL    HW121426   1.503   0.244   1.247  0.2249 -0.2242 -0.7275
 5357SOL    HW221427   1.570   0.122   1.188 -1.6552 -1.2637 -0.8128
 5357SOL     MW21428   1.523   0.159   1.251 -0.5055 -0.3949 -0.4334
 5358SOL     OW21429   3.806   3.333   3.964  0.0269  0.4488 -0.1296
 5358SOL    HW121430   3.867   3.271   3.924  0.3303  0.9156 -0.3958
 5358SOL    HW221431   3.740   3.277   4.007 -0.0065 -0.0643 -0.8180
 5358SOL     MW21432   3.805   3.318   3.964  0.0615  0.4429 -0.2518
 5359SOL     OW21433   1.573   2.821   3.870  0.4189 -0.1903  0.1995
 5359SOL    HW121434   1.637   2.796   3.804  0.1995 -2.1742  0.6762
 5359SOL    HW221435   1.490   2.826   3.823  0.7188  1.4141 -0.2237
 5359SOL     MW21436   1.570   2.819   3.856  0.4292 -0.2389  0.2063
 5360SOL     OW21437   4.217   4.411   4.718  0.2962 -0.0673  0.3742
 5360SOL    HW121438   4.249   4.331   4.759  0.9436  0.2637  0.5311
 5360SOL    HW221439   4.295   4.466   4.709  0.1692 -0.1012 -1.2498
 5360SOL     MW21440   4.231   4.408   4.722  0.3628 -0.0292  0.1864
 5361SOL     OW21441   2.958   1.696   4.067 -0.4085 -0.6255  0.5876
 5361SOL    HW121442   2.927   1.611   4.039  1.8554 -1.7249  1.1742
 5361SOL    HW221443   2.910   1.714   4.148 -1.7175 -0.7847 -0.1319
 5361SOL     MW21444   2.948   1.688   4.074 -0.2863 -0.7866  0.5706
 5362SOL     OW21445   2.818   4.044   4.167 -0.1070  0.1219  0.4849
 5362SOL    HW121446   2.884   4.112   4.172 -0.2821  0.5761 -2.0265
 5362SOL    HW221447   2.763   4.069   4.092 -1.6687 -1.4916  1.0121
 5362SOL     MW21448   2.819   4.056   4.158 -0.3293 -0.0265  0.2309
 5363SOL     OW21449   2.822   0.670   2.726  0.1489 -0.1456 -0.3849
 5363SOL    HW121450   2.807   0.750   2.775  0.1046 -0.0994 -0.4736
 5363SOL    HW221451   2.916   0.654   2.733 -0.2490 -1.9373  2.5097
 5363SOL     MW21452   2.832   0.678   2.733  0.0923 -0.3691 -0.0257
 5364SOL     OW21453   0.222   3.177   2.651 -0.0010  0.0939 -0.3174
 5364SOL    HW121454   0.171   3.123   2.590 -0.0824  2.0100 -2.0247
 5364SOL    HW221455   0.304   3.194   2.606  1.5733 -1.5418  1.7229
 5364SOL     MW21456   0.226   3.172   2.638  0.1901  0.1298 -0.2748
 5365SOL     OW21457   2.683   0.067   5.326 -0.6483  0.4096 -0.0813
 5365SOL    HW121458   2.650   0.006   5.391 -2.5925 -0.0782 -1.4133
 5365SOL    HW221459   2.707   0.013   5.251  1.8757  0.9212  0.2569
 5365SOL     MW21460   2.682   0.052   5.325 -0.5741  0.4126 -0.2085
 5366SOL     OW21461   3.076   4.623   2.482 -0.4581  0.0711 -0.1775
 5366SOL    HW121462   3.145   4.601   2.545 -2.2009 -0.9177  1.4776
 5366SOL    HW221463   3.097   4.712   2.455  1.1656 -0.0068  0.6820
 5366SOL     MW21464   3.087   4.632   2.486 -0.4733 -0.0654  0.1444
 5367SOL     OW21465   4.896   4.768   4.260 -0.1472  0.3736 -0.4696
 5367SOL    HW121466   4.891   4.862   4.277 -2.6648 -0.0128  1.7322
 5367SOL    HW221467   4.829   4.753   4.193 -3.3329 -0.2883  2.5815
 5367SOL     MW21468   4.886   4.778   4.254 -0.8773  0.2394  0.2028
 5368SOL     OW21469   0.115   2.166   3.778  0.5255  0.1783 -0.0367
 5368SOL    HW121470   0.086   2.257   3.770 -0.2240  0.1155  1.5971
 5368SOL    HW221471   0.141   2.142   3.689 -1.4300  1.2717 -0.9886
 5368SOL     MW21472   0.114   2.175   3.765  0.1792  0.3103  0.0506
 5369SOL     OW21473   3.619   2.106   0.014  0.8868  0.0132 -0.0996
 5369SOL    HW121474   3.645   2.046   0.084  1.5578 -1.3741 -1.4773
 5369SOL    HW221475   3.523   2.104   0.014  0.8391  0.7979  1.3771
 5369SOL     MW21476   3.610   2.098   0.023  0.9666 -0.0639 -0.0869
 5370SOL     OW21477   3.909   1.294   2.155  0.1596 -0.0881  0.3392
 5370SOL    HW121478   3.941   1.377   2.122 -1.9108 -0.1814 -2.2196
 5370SOL    HW221479   3.889   1.311   2.247 -0.2479  2.2632 -0.1234
 5370SOL     MW21480   3.910   1.307   2.163 -0.1576  0.2009 -0.0476
 5371SOL     OW21481   5.324   4.486   1.445 -0.6694  0.1694  0.0221
 5371SOL    HW121482   5.270   4.417   1.483  0.8570 -0.4943  1.1098
 5371SOL    HW221483   5.307   4.562   1.500 -1.3418  0.2914 -0.3458
 5371SOL     MW21484   5.315   4.487   1.457 -0.5600  0.1000  0.1142
 5372SOL     OW21485   4.644   2.926   1.314  0.1848  0.3622 -0.4036
 5372SOL    HW121486   4.619   2.936   1.223 -0.1022  0.0433 -0.3638
 5372SOL    HW221487   4.579   2.866   1.350 -0.2601  1.2150  0.2406
 5372SOL     MW21488   4.633   2.920   1.307  0.0911  0.4306 -0.3161
 5373SOL     OW21489   1.938   2.966   1.039  0.0719 -0.0213 -0.7736
 5373SOL    HW121490   2.016   3.011   1.072  1.2486 -1.8667 -0.8635
 5373SOL    HW221491   1.893   3.032   0.985  1.2744  1.2483 -0.2875
 5373SOL     MW21492   1.942   2.980   1.036  0.3764 -0.0950 -0.7229
 5374SOL     OW21493   4.057   3.358   1.033  0.5383  0.0478 -0.0605
 5374SOL    HW121494   4.137   3.387   0.990  0.3398  0.8433  0.0938
 5374SOL    HW221495   4.077   3.269   1.063  1.7820  0.6483  1.0202
 5374SOL     MW21496   4.070   3.350   1.032  0.6721  0.2265  0.0976
 5375SOL     OW21497   5.000   2.029   4.828 -0.0316 -0.1167  0.5242
 5375SOL    HW121498   4.969   2.118   4.811  1.0837 -0.1836 -2.4425
 5375SOL    HW221499   4.938   1.973   4.781  1.7617 -0.5399 -1.4712
 5375SOL     MW21500   4.988   2.033   4.820  0.3407 -0.1794 -0.1110
 5376SOL     OW21501   0.784   1.264   4.832 -0.5075 -0.0107  0.7594
 5376SOL    HW121502   0.787   1.308   4.917  0.3134  0.0204  0.7271
 5376SOL    HW221503   0.829   1.324   4.772  0.6170 -0.8685  0.7117
 5376SOL     MW21504   0.790   1.278   4.835 -0.2585 -0.1165  0.7491
 5377SOL     OW21505   5.164   1.532   1.607  0.9851 -0.0862  0.1968
 5377SOL    HW121506   5.259   1.526   1.602  0.8820 -1.2296 -0.7558
 5377SOL    HW221507   5.140   1.468   1.675  0.7942 -1.0732 -0.7754
 5377SOL     MW21508   5.173   1.523   1.615  0.9475 -0.3589 -0.0496
 5378SOL     OW21509   4.798   1.319   4.724 -0.2828  0.5167  0.2035
 5378SOL    HW121510   4.802   1.255   4.795  2.3289 -0.2213 -0.4801
 5378SOL    HW221511   4.816   1.267   4.645 -0.1149  1.7777 -0.6092
 5378SOL     MW21512   4.801   1.304   4.723  0.0730  0.5837  0.0120
 5379SOL     OW21513   0.730   4.736   0.436  0.8592  0.2576  0.3150
 5379SOL    HW121514   0.743   4.647   0.468 -0.7803  0.5579  1.9380
 5379SOL    HW221515   0.768   4.792   0.504 -2.0838  0.8834  1.5840
 5379SOL     MW21516   0.736   4.732   0.449  0.2726  0.3762  0.6852
 5380SOL     OW21517   2.641   5.099   1.422 -0.4683  0.0602  0.4893
 5380SOL    HW121518   2.571   5.063   1.477  1.0601 -2.1946  1.0970
 5380SOL    HW221519   2.718   5.103   1.479 -0.1376  3.0884  0.0245
 5380SOL     MW21520   2.642   5.095   1.437 -0.2303  0.1592  0.5076
 5381SOL     OW21521   3.804   3.592   1.962  0.0089 -0.4233  0.2158
 5381SOL    HW121522   3.829   3.512   1.916  1.3800  0.9074 -1.4783
 5381SOL    HW221523   3.735   3.630   1.908  1.2056  0.8457 -0.4792
 5381SOL     MW21524   3.799   3.586   1.949  0.3376 -0.0905 -0.0900
 5382SOL     OW21525   3.367   3.917   3.152 -0.1614 -0.0003  0.1508
 5382SOL    HW121526   3.421   3.991   3.123 -1.3051  0.8005 -0.0002
 5382SOL    HW221527   3.301   3.907   3.084 -0.2104 -0.9814  0.3227
 5382SOL     MW21528   3.366   3.925   3.139 -0.3141 -0.0234  0.1535
 5383SOL     OW21529   1.114   3.149   4.289  0.2183 -0.1343 -0.8264
 5383SOL    HW121530   1.139   3.137   4.198  0.8359  2.1470 -1.0355
 5383SOL    HW221531   1.196   3.138   4.338 -0.0978 -1.2832 -0.5268
 5383SOL     MW21532   1.128   3.146   4.284  0.2569  0.0106 -0.8148
 5384SOL     OW21533   3.518   3.659   0.506 -0.7108  0.0778  0.7232
 5384SOL    HW121534   3.464   3.652   0.428 -0.3787 -1.0696  0.5705
 5384SOL    HW221535   3.580   3.586   0.499 -1.7134 -1.0678  2.8373
 5384SOL     MW21536   3.519   3.649   0.495 -0.7966 -0.2157  0.9743
 5385SOL     OW21537   4.560   0.796   0.387  0.0574 -0.1206 -0.4301
 5385SOL    HW121538   4.475   0.801   0.432  0.0314 -0.7336 -0.3961
 5385SOL    HW221539   4.562   0.873   0.331 -0.3381  0.1282 -0.1119
 5385SOL     MW21540   4.549   0.807   0.386  0.0034 -0.1672 -0.3850
 5386SOL     OW21541   1.795   4.171   4.930 -0.4033  0.1424 -0.4263
 5386SOL    HW121542   1.723   4.234   4.932 -1.5371 -1.0621 -1.3654
 5386SOL    HW221543   1.771   4.105   4.996  0.1649  0.0624 -0.2941
 5386SOL     MW21544   1.782   4.170   4.939 -0.4757 -0.0220 -0.5296
 5387SOL     OW21545   3.978   2.844   0.421 -0.3805 -0.5924 -0.1267
 5387SOL    HW121546   3.938   2.924   0.455 -1.8123 -1.0433 -0.6836
 5387SOL    HW221547   3.991   2.789   0.498  0.4736  0.0910  0.2390
 5387SOL     MW21548   3.974   2.847   0.435 -0.4544 -0.5626 -0.1511
 5388SOL     OW21549   2.709   3.696   2.982  0.7264  0.0491  0.2160
 5388SOL    HW121550   2.677   3.766   2.925 -0.0684 -0.5549 -0.0879
 5388SOL    HW221551   2.630   3.657   3.019  1.1977 -0.1284  1.0689
 5388SOL     MW21552   2.695   3.700   2.980  0.6850 -0.0510  0.2863
 5389SOL     OW21553   2.816   4.348   4.495 -0.1814  0.2985  0.2312
 5389SOL    HW121554   2.862   4.300   4.564  0.2071  1.6217  0.9301
 5389SOL    HW221555   2.871   4.425   4.478 -0.0213 -0.2272 -1.9162
 5389SOL     MW21556   2.829   4.352   4.502 -0.1112  0.4006  0.0458
 5390SOL     OW21557   4.615   5.130   4.952 -0.5002  0.8824 -0.1438
 5390SOL    HW121558   4.688   5.069   4.953 -1.3167 -0.1798 -1.3459
 5390SOL    HW221559   4.607   5.157   4.860 -0.1987  2.7872  0.3364
 5390SOL     MW21560   4.623   5.126   4.940 -0.5661  0.9902 -0.2362
 5391SOL     OW21561   0.991   1.355   4.654 -0.2287 -0.0586  0.1734
 5391SOL    HW121562   0.982   1.449   4.671  0.4436 -0.1046  0.8495
 5391SOL    HW221563   1.085   1.342   4.640 -0.4264 -0.4951 -0.8086
 5391SOL     MW21564   1.002   1.366   4.655 -0.1679 -0.1204  0.1342
 5392SOL     OW21565   1.202   1.659   2.488 -0.1948 -0.1063 -0.2631
 5392SOL    HW121566   1.265   1.607   2.539  0.3283  0.4935 -0.2874
 5392SOL    HW221567   1.229   1.647   2.397  0.4085  0.8224 -0.2147
 5392SOL     MW21568   1.213   1.651   2.483 -0.0506  0.0894 -0.2600
 5393SOL     OW21569   0.322   0.478   4.678 -0.1183 -0.4550 -0.5257
 5393SOL    HW121570   0.300   0.571   4.683 -2.8096 -1.0314  0.4354
 5393SOL    HW221571   0.415   0.473   4.698 -0.2036  1.9148  0.7430
 5393SOL     MW21572   0.331   0.489   4.681 -0.4737 -0.2254 -0.2403
 5394SOL     OW21573   0.006   0.323   1.347 -0.3381 -0.0895  0.6565
 5394SOL    HW121574   0.039   0.234   1.354 -0.5041 -0.2931 -0.7809
 5394SOL    HW221575   0.034   0.366   1.428  3.4731 -0.2432 -0.4251
 5394SOL     MW21576   0.014   0.317   1.358  0.1286 -0.1353  0.3340
 5395SOL     OW21577   0.820   1.831   2.654 -0.0890  0.3462  0.1759
 5395SOL    HW121578   0.880   1.774   2.702  0.6795  1.5719  0.7217
 5395SOL    HW221579   0.872   1.908   2.632 -1.4944  1.5685  0.8816
 5395SOL     MW21580   0.834   1.833   2.658 -0.1705  0.6596  0.3361
 5396SOL     OW21581   0.173   2.827   1.711  0.2356 -0.4093  0.4702
 5396SOL    HW121582   0.140   2.805   1.623 -0.8850 -2.8484  1.4230
 5396SOL    HW221583   0.244   2.765   1.726  1.3708  0.9220  0.7941
 5396SOL     MW21584   0.178   2.816   1.701  0.2375 -0.5511  0.6336
 5397SOL     OW21585   2.556   1.296   3.886  0.0419 -0.3298  0.3670
 5397SOL    HW121586   2.630   1.349   3.856 -0.4273 -0.1769 -0.5450
 5397SOL    HW221587   2.584   1.206   3.873 -0.2607 -0.2648 -0.8206
 5397SOL     MW21588   2.569   1.292   3.881 -0.0569 -0.3019  0.0983
 5398SOL     OW21589   1.195   5.466   4.730 -0.0332  0.5995 -0.4035
 5398SOL    HW121590   1.241   5.421   4.659 -1.4507  0.0814 -1.0148
 5398SOL    HW221591   1.103   5.464   4.706 -0.5680  0.3971  1.4640
 5398SOL     MW21592   1.189   5.460   4.718 -0.2831  0.5073 -0.2427
 5399SOL     OW21593   1.279   2.034   1.011  0.1432 -0.1281 -0.2712
 5399SOL    HW121594   1.234   2.095   0.953  1.5642  1.3177  0.0930
 5399SOL    HW221595   1.368   2.029   0.976 -0.1876 -3.0007 -1.0431
 5399SOL     MW21596   1.285   2.041   0.999  0.2827 -0.3108 -0.3234
 5400SOL     OW21597   1.062   3.887   2.411  0.3571 -0.1294 -0.2793
 5400SOL    HW121598   0.989   3.838   2.449  0.2658 -0.7684 -1.2265
 5400SOL    HW221599   1.071   3.851   2.322  1.6682  0.1091 -0.2651
 5400SOL     MW21600   1.054   3.876   2.404  0.5132 -0.1807 -0.3987
 5401SOL     OW21601   3.389   0.166   0.509  0.0609  0.1865  0.4506
 5401SOL    HW121602   3.476   0.192   0.541  0.2513  0.4993 -0.3095
 5401SOL    HW221603   3.348   0.248   0.481 -0.1028 -0.0809 -0.1071
 5401SOL     MW21604   3.395   0.180   0.510  0.0643  0.1923  0.2819
 5402SOL     OW21605   5.360   0.764   2.469  0.1107  0.1945 -0.0269
 5402SOL    HW121606   5.324   0.825   2.533  0.9256  0.4490  0.1953
 5402SOL    HW221607   5.294   0.694   2.464 -0.3405  0.5701  0.4874
 5402SOL     MW21608   5.347   0.763   2.477  0.1573  0.2752  0.0674
 5403SOL     OW21609   4.257   3.320   3.168 -0.2962  0.2076 -0.1000
 5403SOL    HW121610   4.338   3.274   3.148 -1.0606 -1.3854  0.2995
 5403SOL    HW221611   4.274   3.411   3.143  1.2389 -0.2909 -0.9880
 5403SOL     MW21612   4.270   3.326   3.162 -0.1975 -0.0601 -0.1626
 5404SOL     OW21613   1.352   4.730   0.459 -0.4402 -0.5431 -0.1734
 5404SOL    HW121614   1.389   4.736   0.548 -1.1740  0.1124  0.0935
 5404SOL    HW221615   1.282   4.795   0.457 -0.9127 -1.0539 -1.0027
 5404SOL     MW21616   1.348   4.739   0.470 -0.5946 -0.5246 -0.2454
 5405SOL     OW21617   1.701   1.407   0.263  0.4559  0.1963 -0.1805
 5405SOL    HW121618   1.796   1.395   0.275  0.2612  0.2110  1.6644
 5405SOL    HW221619   1.672   1.449   0.344 -1.2980 -0.8100 -0.2391
 5405SOL     MW21620   1.710   1.411   0.275  0.2064  0.0694  0.0482
 5406SOL     OW21621   3.466   4.570   2.225  0.3799  0.2662  0.5143
 5406SOL    HW121622   3.467   4.604   2.314 -0.5296 -1.3935  1.1863
 5406SOL    HW221623   3.398   4.503   2.225  0.1987  0.3784 -1.4961
 5406SOL     MW21624   3.457   4.566   2.236  0.2403  0.0681  0.3430
 5407SOL     OW21625   1.922   1.130   2.899  0.7305 -0.0204 -0.1073
 5407SOL    HW121626   1.897   1.125   2.991  1.7351 -0.5621  0.1576
 5407SOL    HW221627   1.925   1.224   2.880  0.6313  0.0998  0.4537
 5407SOL     MW21628   1.919   1.142   2.908  0.8464 -0.0744 -0.0016
 5408SOL     OW21629   2.626   0.477   1.276  0.2892  0.6814  0.6601
 5408SOL    HW121630   2.636   0.460   1.183 -0.8538 -0.0666  0.6548
 5408SOL    HW221631   2.710   0.451   1.315  0.8227  1.1410 -0.1634
 5408SOL     MW21632   2.638   0.472   1.269  0.2111  0.6445  0.5540
 5409SOL     OW21633   0.177   1.180   2.500 -0.3018  0.3744 -0.1698
 5409SOL    HW121634   0.124   1.211   2.573  0.1419  0.7589 -0.0138
 5409SOL    HW221635   0.213   1.097   2.530 -0.5855  0.2464 -0.1733
 5409SOL     MW21636   0.175   1.173   2.513 -0.2813  0.4072 -0.1503
 5410SOL     OW21637   2.668   0.454   1.022  0.8820 -0.2969 -0.8430
 5410SOL    HW121638   2.653   0.537   0.977 -0.9396  0.6447  1.2975
 5410SOL    HW221639   2.603   0.394   0.985  0.2930  0.0843 -0.4447
 5410SOL     MW21640   2.657   0.457   1.012  0.5734 -0.1275 -0.5180
 5411SOL     OW21641   0.859   0.796   1.385  0.0363 -0.4117 -0.4042
 5411SOL    HW121642   0.938   0.761   1.426 -0.4625 -0.0886  0.8805
 5411SOL    HW221643   0.791   0.786   1.451 -0.4537  1.5691 -0.5322
 5411SOL     MW21644   0.861   0.790   1.399 -0.0903 -0.1168 -0.2562
 5412SOL     OW21645   0.418   1.581   3.763  0.5597  0.7331  0.2430
 5412SOL    HW121646   0.377   1.662   3.794  0.2051  1.8648 -2.8390
 5412SOL    HW221647   0.368   1.511   3.805 -1.0238  2.0949  0.7253
 5412SOL     MW21648   0.407   1.583   3.773  0.3116  1.0523 -0.0898
 5413SOL     OW21649   2.212   1.668   0.407  0.5891 -0.1030 -0.0460
 5413SOL    HW121650   2.142   1.726   0.376 -0.4336 -0.6647  1.1442
 5413SOL    HW221651   2.281   1.728   0.436 -0.3535  0.5377  0.9259
 5413SOL     MW21652   2.212   1.683   0.407  0.3375 -0.0929  0.2308
 5414SOL     OW21653   1.010   5.419   0.656  0.1057 -0.2600 -0.5701
 5414SOL    HW121654   0.943   5.374   0.605 -0.0805 -0.4999 -0.1185
 5414SOL    HW221655   1.063   5.349   0.694 -0.7189 -0.1571  0.8654
 5414SOL     MW21656   1.008   5.404   0.655 -0.0237 -0.2776 -0.3285
 5415SOL     OW21657   2.651   4.189   3.963  0.7312  0.4661  0.0475
 5415SOL    HW121658   2.719   4.255   3.949 -0.0337  1.2648 -0.0840
 5415SOL    HW221659   2.632   4.155   3.875  1.5001 -0.3277  0.1827
 5415SOL     MW21660   2.657   4.193   3.950  0.7317  0.4667  0.0479
 5416SOL     OW21661   1.705   0.685   2.507 -0.1416  0.1304 -0.4204
 5416SOL    HW121662   1.794   0.702   2.476  0.3005 -0.8697  0.2245
 5416SOL    HW221663   1.658   0.766   2.493  0.1789 -0.0831 -3.1485
 5416SOL     MW21664   1.711   0.697   2.501 -0.0440 -0.0249 -0.6871
 5417SOL     OW21665   4.296   0.450   0.454 -0.1126  0.3759  0.1418
 5417SOL    HW121666   4.261   0.384   0.514  0.4217  0.6418  0.7670
 5417SOL    HW221667   4.389   0.458   0.479 -0.1621  1.3414  0.0703
 5417SOL     MW21668   4.304   0.443   0.465 -0.0506  0.5336  0.2127
 5418SOL     OW21669   1.303   3.826   2.531 -0.4171  0.0584 -0.0722
 5418SOL    HW121670   1.333   3.905   2.576 -0.6507  0.4629 -0.6117
 5418SOL    HW221671   1.212   3.846   2.507 -0.4838 -0.3866 -0.1933
 5418SOL     MW21672   1.295   3.839   2.534 -0.4555  0.0532 -0.1567
 5419SOL     OW21673   0.583   4.143   1.149  0.0194 -0.3096 -0.0899
 5419SOL    HW121674   0.613   4.106   1.066  2.3867  0.6324  0.2530
 5419SOL    HW221675   0.577   4.237   1.133  0.1355 -0.1565  0.6986
 5419SOL     MW21676   0.586   4.150   1.136  0.3373 -0.1694  0.0550
 5420SOL     OW21677   3.350   2.623   2.719  0.0397 -0.3457 -0.3185
 5420SOL    HW121678   3.445   2.634   2.710  0.2921 -1.1944  1.0112
 5420SOL    HW221679   3.323   2.695   2.776  0.2565 -1.3397  1.0798
 5420SOL     MW21680   3.359   2.634   2.725  0.0998 -0.5816  0.0307
 5421SOL     OW21681   0.374   1.527   4.825 -0.1603  0.2921  0.0658
 5421SOL    HW121682   0.461   1.494   4.801  1.1631  2.8502  0.8928
 5421SOL    HW221683   0.375   1.618   4.796 -3.1293  0.0852 -1.0750
 5421SOL     MW21684   0.386   1.534   4.818 -0.3709  0.5931  0.0256
 5422SOL     OW21685   1.303   0.117   4.954 -0.0918  0.5677 -0.4372
 5422SOL    HW121686   1.383   0.146   4.910  0.7330 -0.3988  0.4154
 5422SOL    HW221687   1.256   0.066   4.887  1.0692 -0.7420 -0.2814
 5422SOL     MW21688   1.307   0.114   4.940  0.1624  0.2763 -0.3081
 5423SOL     OW21689   2.393   3.909   5.029 -0.2654 -0.2097 -0.1614
 5423SOL    HW121690   2.444   3.848   5.081  1.6588 -1.3518 -3.1249
 5423SOL    HW221691   2.303   3.878   5.037 -0.1432 -0.0661  2.6615
 5423SOL     MW21692   2.388   3.897   5.036 -0.0035 -0.3375 -0.1794
 5424SOL     OW21693   4.114   2.374   2.710 -0.4399 -0.2265 -0.1663
 5424SOL    HW121694   4.155   2.433   2.647 -0.2894 -0.1164  0.0351
 5424SOL    HW221695   4.166   2.384   2.790 -0.3442 -0.7148 -0.1649
 5424SOL     MW21696   4.126   2.383   2.713 -0.4084 -0.2749 -0.1403
 5425SOL     OW21697   0.463   0.973   4.987 -0.0553  0.8091 -0.1190
 5425SOL    HW121698   0.452   1.008   4.899 -2.0750  0.1873 -0.1483
 5425SOL    HW221699   0.519   1.037   5.031  3.8803 -0.4495 -2.7137
 5425SOL     MW21700   0.469   0.986   4.982  0.1899  0.5684 -0.4549
 5426SOL     OW21701   0.234   3.714   2.392  0.0045 -0.7671 -0.0243
 5426SOL    HW121702   0.156   3.674   2.353 -1.8012  1.4819  1.0289
 5426SOL    HW221703   0.242   3.798   2.349  1.6909 -0.8008  0.1536
 5426SOL     MW21704   0.225   3.719   2.382 -0.0108 -0.4835  0.1333
 5427SOL     OW21705   0.964   5.121   4.453  0.4346 -0.1626 -0.0784
 5427SOL    HW121706   1.006   5.182   4.392  0.4297 -0.0168  0.0663
 5427SOL    HW221707   1.021   5.120   4.529  0.4709 -0.3912 -0.1071
 5427SOL     MW21708   0.977   5.128   4.455  0.4386 -0.1732 -0.0635
 5428SOL     OW21709   0.786   2.639   0.068  0.2270  0.1733  0.1611
 5428SOL    HW121710   0.870   2.673   0.101  0.2658 -0.4629  0.7477
 5428SOL    HW221711   0.804   2.615  -0.023  0.7449 -0.1575  0.3464
 5428SOL     MW21712   0.799   2.640   0.061  0.2983  0.0495  0.2599
 5429SOL     OW21713   3.992   0.123   4.914 -0.0836  0.4069 -0.2178
 5429SOL    HW121714   4.051   0.111   4.988 -0.2767  1.6542  0.1693
 5429SOL    HW221715   3.906   0.095   4.947 -0.0352  0.2663 -0.2104
 5429SOL     MW21716   3.988   0.118   4.928 -0.1021  0.5485 -0.1673
 5430SOL     OW21717   4.315   1.370   0.363  0.1773  0.2733  0.2396
 5430SOL    HW121718   4.364   1.424   0.300 -1.1087  0.4524 -0.6597
 5430SOL    HW221719   4.253   1.321   0.308 -0.7491  0.1809  1.3443
 5430SOL     MW21720   4.313   1.371   0.348 -0.1059  0.2844  0.2659
 5431SOL     OW21721   0.688   0.039   0.378  0.7063 -0.0941  0.5556
 5431SOL    HW121722   0.600   0.076   0.363  1.4018  1.0586 -1.0264
 5431SOL    HW221723   0.739   0.113   0.411  1.4898 -0.3066 -0.1652
 5431SOL     MW21724   0.683   0.053   0.380  0.8956  0.0262  0.2609
 5432SOL     OW21725   4.158   3.925   1.574  0.0176  0.1334 -0.4015
 5432SOL    HW121726   4.072   3.925   1.532  0.4324 -0.6607 -1.2873
 5432SOL    HW221727   4.140   3.949   1.665 -1.0960  0.3262 -0.6595
 5432SOL     MW21728   4.145   3.928   1.580 -0.0719  0.0564 -0.5479
 5433SOL     OW21729   0.674   1.892   0.126 -0.0894  0.4401  0.6745
 5433SOL    HW121730   0.653   1.986   0.125  1.1163  0.7641 -1.3712
 5433SOL    HW221731   0.704   1.874   0.037  0.3971 -1.7448  1.2325
 5433SOL     MW21732   0.675   1.902   0.114  0.1272  0.2019  0.4840
 5434SOL     OW21733   1.332   1.621   3.386  0.3675  0.2239 -0.2478
 5434SOL    HW121734   1.317   1.666   3.303 -0.6799 -2.0054 -1.3369
 5434SOL    HW221735   1.244   1.603   3.420  0.7802  0.9747  1.3164
 5434SOL     MW21736   1.319   1.624   3.379  0.2863  0.0346 -0.1870
 5435SOL     OW21737   0.949   1.967   0.822  0.1338 -0.3274  0.2822
 5435SOL    HW121738   1.018   1.906   0.796 -0.0885 -0.1990 -0.6745
 5435SOL    HW221739   0.869   1.915   0.818  0.0794 -0.2634  0.5608
 5435SOL     MW21740   0.947   1.953   0.818  0.0984 -0.3028  0.1954
 5436SOL     OW21741   5.003   1.986   1.778  0.2890 -0.0989  0.0825
 5436SOL    HW121742   5.022   1.966   1.686  1.5346  1.0302  0.0560
 5436SOL    HW221743   5.028   1.908   1.826 -3.6086 -2.1292 -0.7533
 5436SOL     MW21744   5.008   1.974   1.772 -0.0505 -0.2143 -0.0279
 5437SOL     OW21745   1.113   1.956   4.522  0.4609  0.0095 -0.4510
 5437SOL    HW121746   1.018   1.958   4.514  0.2200 -2.6525  0.9171
 5437SOL    HW221747   1.142   2.033   4.472 -2.4464  1.8477  0.4306
 5437SOL     MW21748   1.105   1.966   4.514  0.0579 -0.0959 -0.1630
 5438SOL     OW21749   3.905   4.830   3.162 -0.1649 -0.0947  0.0559
 5438SOL    HW121750   3.973   4.778   3.121  0.1355 -0.7584  1.3406
 5438SOL    HW221751   3.947   4.912   3.185 -0.0981 -0.0717 -0.1505
 5438SOL     MW21752   3.919   4.834   3.160 -0.1179 -0.1767  0.1939
 5439SOL     OW21753   1.356   1.522   0.386  0.1308  0.0221 -0.1041
 5439SOL    HW121754   1.285   1.463   0.413 -0.9959 -0.5487 -3.7518
 5439SOL    HW221755   1.316   1.609   0.389  0.1845  0.0305  0.4868
 5439SOL     MW21756   1.342   1.525   0.389 -0.0066 -0.0499 -0.4954
 5440SOL     OW21757   2.077   2.077   1.493 -0.1391  0.0977 -0.3024
 5440SOL    HW121758   2.096   2.111   1.405 -2.0028 -0.4907 -0.9774
 5440SOL    HW221759   2.004   2.017   1.480  1.0821 -1.8653  1.3148
 5440SOL     MW21760   2.070   2.074   1.480 -0.2214 -0.2289 -0.1818
 5441SOL     OW21761   0.449   0.334   0.426  0.2105 -0.5250 -0.0119
 5441SOL    HW121762   0.427   0.281   0.350  1.3885  2.2447 -2.4752
 5441SOL    HW221763   0.535   0.370   0.407 -0.0715  1.4490  1.9415
 5441SOL     MW21764   0.457   0.332   0.414  0.3252  0.0823 -0.0771
 5442SOL     OW21765   3.256   2.138   4.296 -0.0343 -0.0255  0.0053
 5442SOL    HW121766   3.216   2.209   4.346  1.7240 -0.2766  1.9082
 5442SOL    HW221767   3.229   2.059   4.342  0.2142 -0.3992 -0.4834
 5442SOL     MW21768   3.248   2.137   4.308  0.2226 -0.1055  0.1864
 5443SOL     OW21769   1.416   1.080   0.505  0.1135  0.1984 -0.1872
 5443SOL    HW121770   1.400   1.106   0.596 -0.6687 -2.3204  0.4715
 5443SOL    HW221771   1.391   1.157   0.453  2.0690  2.2728  1.7487
 5443SOL     MW21772   1.411   1.094   0.510  0.2637  0.1415  0.1449
 5444SOL     OW21773   3.898   3.552   0.917 -0.0274  0.3025  0.4175
 5444SOL    HW121774   3.951   3.500   0.979 -1.3897 -0.5290  0.9355
 5444SOL    HW221775   3.883   3.635   0.963  0.4370  0.3714  0.4550
 5444SOL     MW21776   3.903   3.556   0.931 -0.1424  0.2049  0.4886
 5445SOL     OW21777   4.150   3.583   1.802  0.2110 -0.3107  0.3269
 5445SOL    HW121778   4.149   3.592   1.706 -2.1799  1.0563  0.4210
 5445SOL    HW221779   4.148   3.488   1.817 -2.4873 -0.5790 -1.0652
 5445SOL     MW21780   4.150   3.572   1.791 -0.4405 -0.1700  0.1608
 5446SOL     OW21781   2.754   0.400   4.835  0.0328  0.4229  0.3075
 5446SOL    HW121782   2.669   0.376   4.871  0.7228 -1.0391  1.0253
 5446SOL    HW221783   2.785   0.322   4.790  1.5888  0.4452  1.2287
 5446SOL     MW21784   2.747   0.387   4.834  0.3203  0.2386  0.5173
 5447SOL     OW21785   1.222   3.326   4.933  0.4290 -0.3369  0.5341
 5447SOL    HW121786   1.267   3.344   4.851 -0.6355 -0.7671 -0.1621
 5447SOL    HW221787   1.130   3.317   4.909  0.1005 -0.4916  1.7696
 5447SOL     MW21788   1.216   3.327   4.920  0.2507 -0.4117  0.6031
 5448SOL     OW21789   4.795   4.876   2.542 -0.0567 -0.0809  0.6703
 5448SOL    HW121790   4.791   4.951   2.482 -0.7407 -0.0129  0.7906
 5448SOL    HW221791   4.880   4.836   2.524 -1.1625 -1.4793 -2.0729
 5448SOL     MW21792   4.805   4.881   2.532 -0.2858 -0.2512  0.3345
 5449SOL     OW21793   2.024   4.607   1.217 -0.0077 -0.7099  0.1799
 5449SOL    HW121794   2.102   4.563   1.251 -0.3036 -1.4761 -0.1159
 5449SOL    HW221795   1.965   4.612   1.293  0.5042  0.3116  0.5308
 5449SOL     MW21796   2.026   4.602   1.231  0.0199 -0.6773  0.1869
 5450SOL     OW21797   3.669   1.395   1.019  0.7714 -0.4649  0.2330
 5450SOL    HW121798   3.710   1.352   0.944  0.8894  0.8489 -0.4931
 5450SOL    HW221799   3.737   1.395   1.087  2.6169  2.8269 -1.3655
 5450SOL     MW21800   3.683   1.390   1.018  1.0228  0.1247 -0.0646
 5451SOL     OW21801   5.019   3.074   5.233 -0.4114  0.1876  0.2414
 5451SOL    HW121802   5.099   3.127   5.237 -0.5600  0.5637 -1.1593
 5451SOL    HW221803   4.974   3.105   5.154 -0.0687 -2.6375 -1.1736
 5451SOL     MW21804   5.024   3.085   5.224 -0.3865 -0.1259 -0.1190
 5452SOL     OW21805   0.041   1.916   0.558 -0.0738  0.4388 -0.6937
 5452SOL    HW121806   0.098   1.957   0.623 -0.7232  0.3022 -0.0323
 5452SOL    HW221807  -0.046   1.918   0.597 -0.2190 -1.0676 -0.8782
 5452SOL     MW21808   0.037   1.922   0.571 -0.1755  0.2285 -0.6326
 5453SOL     OW21809   3.301   2.757   4.098  0.0150 -0.2067 -0.3148
 5453SOL    HW121810   3.308   2.733   4.005  0.4620 -0.6281 -0.1762
 5453SOL    HW221811   3.250   2.838   4.098 -0.1160 -0.2840 -0.9175
 5453SOL     MW21812   3.295   2.764   4.086  0.0555 -0.2705 -0.3742
 5454SOL     OW21813   1.055   1.826   5.073 -0.3273  0.1704  0.0280
 5454SOL    HW121814   1.133   1.787   5.033 -0.5533  1.7040 -2.0856
 5454SOL    HW221815   1.087   1.864   5.156  0.6714 -1.1289  0.2672
 5454SOL     MW21816   1.069   1.826   5.079 -0.2284  0.2004 -0.2120
 5455SOL     OW21817   1.056   3.208   3.295  0.3754  0.0835  0.0746
 5455SOL    HW121818   1.120   3.239   3.230  1.5218 -1.6503  0.3030
 5455SOL    HW221819   1.108   3.189   3.373 -0.0682 -2.9390 -0.2444
 5455SOL     MW21820   1.071   3.209   3.297  0.4654 -0.5254  0.0630
 5456SOL     OW21821   4.166   2.717   0.857  0.2002 -0.2410 -0.8973
 5456SOL    HW121822   4.146   2.660   0.931 -2.4717  0.7451 -0.7301
 5456SOL    HW221823   4.193   2.800   0.898  0.6242 -0.2822 -1.0863
 5456SOL     MW21824   4.167   2.721   0.872 -0.0876 -0.1200 -0.9001
 5457SOL     OW21825   2.848   1.095   1.654 -0.4161  0.2922 -0.1099
 5457SOL    HW121826   2.793   1.112   1.578  0.8343 -0.2997 -1.1925
 5457SOL    HW221827   2.907   1.170   1.659 -0.5090  0.3405  0.2922
 5457SOL     MW21828   2.849   1.107   1.645 -0.2680  0.2226 -0.1970
 5458SOL     OW21829   0.166   2.123   1.958 -0.3668  0.4256 -0.6416
 5458SOL    HW121830   0.151   2.137   2.051 -1.0676  0.8129 -0.8061
 5458SOL    HW221831   0.243   2.066   1.954 -1.3982 -1.0998  0.2366
 5458SOL     MW21832   0.174   2.117   1.969 -0.5886  0.2799 -0.5502
 5459SOL     OW21833   2.243   3.516   4.350  0.0184  0.2273 -0.2233
 5459SOL    HW121834   2.193   3.567   4.413 -0.6976 -0.0693 -0.5377
 5459SOL    HW221835   2.178   3.461   4.306  0.6260 -0.2055 -0.6093
 5459SOL     MW21836   2.228   3.515   4.352  0.0045  0.1339 -0.3130
 5460SOL     OW21837   4.857   5.257   1.337 -0.1841 -0.1774  0.0067
 5460SOL    HW121838   4.806   5.233   1.260  0.0686  1.2936 -0.6515
 5460SOL    HW221839   4.913   5.329   1.308 -0.0616  0.3969  1.5499
 5460SOL     MW21840   4.858   5.264   1.324 -0.1361  0.0844  0.1200
 5461SOL     OW21841   4.144   3.526   3.613 -0.0942 -0.1837 -0.1498
 5461SOL    HW121842   4.225   3.513   3.564 -0.5607 -3.2313 -0.2782
 5461SOL    HW221843   4.092   3.585   3.557  0.6743 -0.9684 -1.7558
 5461SOL     MW21844   4.148   3.532   3.600 -0.0556 -0.6743 -0.3718
 5462SOL     OW21845   4.646   1.732   2.355  0.2315 -0.2805  0.2442
 5462SOL    HW121846   4.700   1.659   2.383  1.6739  0.7312  0.1724
 5462SOL    HW221847   4.567   1.691   2.319  0.0914 -1.7224  2.0504
 5462SOL     MW21848   4.643   1.718   2.354  0.3982 -0.3356  0.4662
 5463SOL     OW21849   1.955   0.986   1.357 -0.7581 -0.2668  0.0356
 5463SOL    HW121850   1.894   0.966   1.286 -0.3946 -0.0748 -0.3351
 5463SOL    HW221851   1.899   1.016   1.429 -1.0087  1.1539 -0.7303
 5463SOL     MW21852   1.940   0.987   1.357 -0.7437 -0.0604 -0.1099
 5464SOL     OW21853   0.236   2.958   3.987  0.1961 -0.1696 -0.4544
 5464SOL    HW121854   0.171   2.945   3.918  0.0013  1.8725 -0.7216
 5464SOL    HW221855   0.185   2.989   4.062  0.6391 -0.5395  0.0048
 5464SOL     MW21856   0.221   2.960   3.988  0.2279  0.0444 -0.4298
 5465SOL     OW21857   4.118   0.727   4.250  0.2039 -0.2675 -0.1165
 5465SOL    HW121858   4.136   0.784   4.175  1.7468  1.4764  1.4832
 5465SOL    HW221859   4.179   0.655   4.240 -0.3137 -0.5931 -1.0582
 5465SOL     MW21860   4.128   0.725   4.239  0.3351 -0.0860 -0.0322
 5466SOL     OW21861   3.756   5.279   3.741  0.5023 -0.6251 -0.0050
 5466SOL    HW121862   3.664   5.297   3.722  0.5327  0.7243  0.9271
 5466SOL    HW221863   3.803   5.310   3.664  0.3174  0.8963  0.4447
 5466SOL     MW21864   3.750   5.285   3.729  0.4825 -0.2576  0.1719
 5467SOL     OW21865   4.728   4.458   3.576 -0.3110  0.1402  0.1908
 5467SOL    HW121866   4.775   4.405   3.512 -0.7694  0.9305 -0.8342
 5467SOL    HW221867   4.675   4.396   3.625 -1.0292 -0.3356 -1.1509
 5467SOL     MW21868   4.728   4.443   3.574 -0.4617  0.1804 -0.1121
 5468SOL     OW21869   1.524   0.269   4.847  0.2105  0.5434 -0.5913
 5468SOL    HW121870   1.606   0.313   4.871  0.3285  0.3174 -0.5805
 5468SOL    HW221871   1.515   0.286   4.753 -0.7557  2.2701 -0.2387
 5468SOL     MW21872   1.533   0.277   4.838  0.1019  0.7355 -0.5447
 5469SOL     OW21873   3.907   3.109   0.442  0.0887 -0.0829 -0.0402
 5469SOL    HW121874   3.917   3.160   0.522  1.3071 -2.0429  1.1376
 5469SOL    HW221875   3.977   3.140   0.385 -0.6553  1.1708 -0.3347
 5469SOL     MW21876   3.917   3.120   0.445  0.1494 -0.1733  0.0729
 5470SOL     OW21877   0.644   4.916   5.293 -0.0205 -0.0080 -0.8088
 5470SOL    HW121878   0.693   4.841   5.328  0.1905  0.8740  0.8917
 5470SOL    HW221879   0.593   4.879   5.221  0.6203 -1.6479 -0.4796
 5470SOL     MW21880   0.643   4.901   5.289  0.0885 -0.1051 -0.5490
 5471SOL     OW21881   1.339   1.822   4.507  0.5548  0.1403 -0.5995
 5471SOL    HW121882   1.250   1.856   4.513 -0.1034 -1.1332 -2.5035
 5471SOL    HW221883   1.337   1.760   4.435  2.9183 -0.1979 -0.4600
 5471SOL     MW21884   1.327   1.818   4.499  0.7731 -0.0661 -0.8254
 5472SOL     OW21885   1.419   1.012   3.715 -0.2997  0.0652  0.0044
 5472SOL    HW121886   1.394   1.027   3.624 -2.3898  0.3228  0.5670
 5472SOL    HW221887   1.377   0.930   3.739  0.2829 -0.0353  0.7419
 5472SOL     MW21888   1.411   1.004   3.706 -0.4927  0.0853  0.1708
 5473SOL     OW21889   0.391   2.471   2.248  0.6436 -0.5381  0.2375
 5473SOL    HW121890   0.351   2.530   2.184  0.7939  0.8316  1.3612
 5473SOL    HW221891   0.317   2.428   2.291  0.5442 -2.2733 -1.4922
 5473SOL     MW21892   0.377   2.473   2.245  0.6501 -0.5849  0.1600
 5474SOL     OW21893   2.876   1.185   3.669  0.5349 -0.0076 -0.5014
 5474SOL    HW121894   2.899   1.227   3.586  0.8932 -0.6019 -0.7141
 5474SOL    HW221895   2.959   1.150   3.702  0.4685  0.6149  0.3360
 5474SOL     MW21896   2.889   1.186   3.662  0.5722 -0.0040 -0.4215
 5475SOL     OW21897   0.659   1.252   0.978  0.2256 -0.7464  0.1317
 5475SOL    HW121898   0.649   1.298   1.061 -0.6986 -1.9421  0.7101
 5475SOL    HW221899   0.586   1.191   0.975  0.4609 -0.9962 -1.3943
 5475SOL     MW21900   0.649   1.250   0.988  0.1374 -0.9315  0.0104
 5476SOL     OW21901   0.507   1.002   2.660  1.0038  0.5913 -0.3105
 5476SOL    HW121902   0.503   1.075   2.722  0.0118  1.8009 -1.7356
 5476SOL    HW221903   0.579   1.024   2.601  2.3160 -0.8346  0.6869
 5476SOL     MW21904   0.516   1.014   2.660  1.0448  0.5636 -0.3652
 5477SOL     OW21905   1.172   5.386   1.975  0.1367  0.2216  0.2416
 5477SOL    HW121906   1.120   5.419   1.902 -2.3411 -3.0993  0.2975
 5477SOL    HW221907   1.250   5.349   1.933 -0.8918 -0.9537 -0.7379
 5477SOL     MW21908   1.176   5.386   1.960 -0.3122 -0.3540  0.1234
 5478SOL     OW21909   4.270   3.101   2.480 -0.4290  0.1730  0.2428
 5478SOL    HW121910   4.248   3.081   2.570 -0.9310  0.6089  0.2198
 5478SOL    HW221911   4.240   3.191   2.467  0.3849  0.4081 -0.1097
 5478SOL     MW21912   4.264   3.110   2.489 -0.3890  0.2589  0.1948
 5479SOL     OW21913   4.848   5.402   3.725 -0.2059 -0.2077  0.1923
 5479SOL    HW121914   4.863   5.471   3.790 -1.2088  1.0925 -0.9243
 5479SOL    HW221915   4.753   5.395   3.718 -0.1481  0.7137 -2.1856
 5479SOL     MW21916   4.838   5.410   3.733 -0.3269  0.0767 -0.2551
 5480SOL     OW21917   3.146   0.810   5.052  0.0947 -0.1001  0.1242
 5480SOL    HW121918   3.078   0.759   5.096 -0.1709  1.8084  2.1285
 5480SOL    HW221919   3.143   0.781   4.961 -2.8038 -0.7034  0.3104
 5480SOL     MW21920   3.137   0.800   5.046 -0.3104  0.0670  0.4046
 5481SOL     OW21921   1.241   3.013   0.696 -0.4258 -0.0016  0.6597
 5481SOL    HW121922   1.200   3.020   0.782 -1.5703  1.0493  0.0650
 5481SOL    HW221923   1.275   3.101   0.678 -1.7251  0.2761 -0.6558
 5481SOL     MW21924   1.240   3.025   0.705 -0.7386  0.1685  0.4152
 5482SOL     OW21925   2.913   3.706   3.380 -0.0691 -0.0383 -0.2878
 5482SOL    HW121926   2.886   3.750   3.300 -0.0281 -0.4453 -0.5264
 5482SOL    HW221927   3.002   3.736   3.396 -0.4737  0.9261  0.2328
 5482SOL     MW21928   2.921   3.715   3.372 -0.1157  0.0330 -0.2517
 5483SOL     OW21929   2.927   3.629   1.345 -0.3048  0.0231  0.1205
 5483SOL    HW121930   2.861   3.657   1.409 -1.4516 -0.0091 -0.9920
 5483SOL    HW221931   2.996   3.694   1.350 -0.5872  0.2619  1.0663
 5483SOL     MW21932   2.927   3.641   1.354 -0.4878  0.0496  0.0991
 5484SOL     OW21933   4.908   0.828   2.055  0.2118  0.2613 -0.3842
 5484SOL    HW121934   4.883   0.834   2.147  1.5637  0.8360 -0.0411
 5484SOL    HW221935   4.869   0.746   2.025 -0.0541 -0.0392  0.7451
 5484SOL     MW21936   4.900   0.819   2.063  0.3508  0.2964 -0.1957
 5485SOL     OW21937   2.626   3.644   1.620  0.1950  0.4532  0.3119
 5485SOL    HW121938   2.541   3.615   1.585  0.1027  0.6379  0.3860
 5485SOL    HW221939   2.604   3.695   1.698  0.4226 -0.3523  0.9148
 5485SOL     MW21940   2.612   3.647   1.626  0.2124  0.3738  0.3985
 5486SOL     OW21941   3.806   3.686   3.737 -0.5629  0.7859 -0.4198
 5486SOL    HW121942   3.734   3.625   3.723  0.1493 -0.2085  0.1635
 5486SOL    HW221943   3.842   3.700   3.649 -1.3372  1.1556 -0.6908
 5486SOL     MW21944   3.802   3.680   3.724 -0.5708  0.7060 -0.3798
 5487SOL     OW21945   4.703   3.370   0.706  0.1453  0.1308 -0.5388
 5487SOL    HW121946   4.732   3.449   0.754 -0.7962  0.5586 -0.6504
 5487SOL    HW221947   4.722   3.390   0.614  0.1537  0.1208 -0.5392
 5487SOL     MW21948   4.709   3.383   0.700  0.0259  0.1843 -0.5531
 5488SOL     OW21949   3.614   5.025   4.871  0.0747  0.1245  0.4602
 5488SOL    HW121950   3.687   4.986   4.919 -0.3431 -0.2181  0.8268
 5488SOL    HW221951   3.608   5.114   4.904  0.7946  0.3892 -0.1076
 5488SOL     MW21952   3.622   5.031   4.882  0.1134  0.1145  0.4345
 5489SOL     OW21953   2.923   2.462   1.344 -0.6148  0.1641 -1.1974
 5489SOL    HW121954   2.991   2.431   1.285  0.4136 -1.6755  0.7914
 5489SOL    HW221955   2.850   2.402   1.330  0.2787 -1.4439  0.5225
 5489SOL     MW21956   2.923   2.451   1.335 -0.3687 -0.2772 -0.7226
 5490SOL     OW21957   0.292   3.485   2.757  0.2008  0.1440 -0.1661
 5490SOL    HW121958   0.220   3.516   2.703 -0.9602 -1.0117  0.6836
 5490SOL    HW221959   0.258   3.484   2.846  1.3800 -0.0836  0.3088
 5490SOL     MW21960   0.279   3.489   2.761  0.2031 -0.0331  0.0035
 5491SOL     OW21961   2.198   3.399   0.288  0.1109 -0.1210  0.2667
 5491SOL    HW121962   2.273   3.434   0.241  0.4603  0.7781  1.4310
 5491SOL    HW221963   2.123   3.415   0.231  0.4999  1.0777  0.0623
 5491SOL     MW21964   2.198   3.406   0.275  0.2055  0.1476  0.3896
 5492SOL     OW21965   0.470   1.086   4.314 -0.0103 -0.2132  0.0430
 5492SOL    HW121966   0.482   1.025   4.387 -0.5056 -0.8653 -0.4131
 5492SOL    HW221967   0.378   1.115   4.322 -0.4299 -1.1893 -0.9938
 5492SOL     MW21968   0.459   1.082   4.325 -0.1274 -0.4216 -0.1481
 5493SOL     OW21969   1.503   1.979   2.296 -0.3385 -0.0767  0.1346
 5493SOL    HW121970   1.472   1.968   2.206  0.1301 -1.3621  0.1073
 5493SOL    HW221971   1.431   1.944   2.350 -0.4528  0.3235  0.2426
 5493SOL     MW21972   1.489   1.973   2.291 -0.2931 -0.1900  0.1449
 5494SOL     OW21973   1.662   0.677   3.082 -0.4381 -0.3491  0.0509
 5494SOL    HW121974   1.675   0.592   3.039 -1.3609  0.0931 -1.1654
 5494SOL    HW221975   1.743   0.724   3.066 -0.7645 -0.1919 -1.2662
 5494SOL     MW21976   1.674   0.672   3.074 -0.5980 -0.2723 -0.2734
 5495SOL     OW21977   1.925   1.749   2.287 -0.2151  0.3117  0.0768
 5495SOL    HW121978   1.886   1.828   2.249 -0.3373  0.1314 -0.1839
 5495SOL    HW221979   1.976   1.780   2.362  2.3049  1.0542 -1.7944
 5495SOL     MW21980   1.926   1.763   2.291  0.0918  0.3837 -0.1961
 5496SOL     OW21981   0.519   0.743   4.882 -0.0409  0.0034 -0.4936
 5496SOL    HW121982   0.507   0.831   4.918 -0.4639 -0.2138 -0.0845
 5496SOL    HW221983   0.613   0.729   4.885 -0.1277 -0.5809  1.9942
 5496SOL     MW21984   0.529   0.753   4.887 -0.1062 -0.0992 -0.1228
 5497SOL     OW21985   1.896   0.840   1.814 -0.0258 -0.4348  0.0150
 5497SOL    HW121986   1.815   0.810   1.856  0.4549 -0.5340  0.9003
 5497SOL    HW221987   1.894   0.935   1.824 -0.5445 -0.3327 -0.9346
 5497SOL     MW21988   1.885   0.848   1.821 -0.0307 -0.4344  0.0068
 5498SOL     OW21989   3.504   3.944   1.438 -1.3063 -0.1239  0.3271
 5498SOL    HW121990   3.553   3.912   1.362 -1.5459 -0.4108  0.2946
 5498SOL    HW221991   3.572   3.976   1.498 -1.0579 -0.7465  0.3866
 5498SOL     MW21992   3.519   3.944   1.436 -1.3052 -0.2403  0.3305
 5499SOL     OW21993   3.680   1.972   3.141 -0.0309  0.1963 -0.8981
 5499SOL    HW121994   3.644   1.945   3.056 -0.2249 -1.1405 -0.4123
 5499SOL    HW221995   3.658   1.900   3.200  1.6400  0.2961 -0.1063
 5499SOL     MW21996   3.672   1.960   3.137  0.1582  0.0379 -0.7345
 5500SOL     OW21997   2.687   0.333   2.663 -0.0006 -0.5284  0.0071
 5500SOL    HW121998   2.605   0.350   2.617  0.4656 -1.6509 -1.3463
 5500SOL    HW221999   2.681   0.384   2.743 -1.8757 -0.3261 -0.2053
 5500SOL     MW22000   2.676   0.342   2.667 -0.1810 -0.6462 -0.1933
   5.47665   5.47665   5.47665
