Protein
22000
    1SOL     OW    1   2.737   3.802   2.789  0.2335  0.3171 -0.9014
    1SOL    HW1    2   2.797   3.858   2.838  0.3970 -0.7556  0.1744
    1SOL    HW2    3   2.790   3.725   2.765 -0.7993 -0.8923  0.5262
    1SOL     MW    4   2.752   3.799   2.792  0.1222  0.0250 -0.5810
    2SOL     OW    5   0.773   1.277   4.368 -0.2946 -0.0808 -0.5144
    2SOL    HW1    6   0.784   1.370   4.386  0.8964 -0.2209 -0.4038
    2SOL    HW2    7   0.831   1.234   4.431 -0.7117 -0.8956 -0.6685
    2SOL     MW    8   0.782   1.283   4.379 -0.1956 -0.2031 -0.5200
    3SOL     OW    9   0.575   5.057   4.241  0.3367 -0.3626 -0.1789
    3SOL    HW1   10   0.525   5.136   4.261 -0.5632 -0.7173 -0.9369
    3SOL    HW2   11   0.576   5.008   4.323  0.5869  0.2654  0.1979
    3SOL     MW   12   0.568   5.061   4.254  0.2536 -0.3276 -0.2277
    4SOL     OW   13   5.087   0.708   0.375 -0.7990 -0.7332 -0.1953
    4SOL    HW1   14   5.008   0.677   0.330  0.1567  0.1813 -2.6811
    4SOL    HW2   15   5.065   0.796   0.404 -0.8104 -0.5914 -0.6243
    4SOL     MW   16   5.074   0.715   0.373 -0.6781 -0.5980 -0.5684
    5SOL     OW   17   1.474   0.573   0.518  0.2156 -0.0789  0.4942
    5SOL    HW1   18   1.568   0.575   0.499  0.2834 -2.3105  0.2915
    5SOL    HW2   19   1.455   0.480   0.536 -1.5510  0.6059  2.6567
    5SOL     MW   20   1.483   0.561   0.518 -0.0019 -0.2769  0.7451
    6SOL     OW   21   1.029   2.125   4.945 -0.2357  0.3404  0.4405
    6SOL    HW1   22   1.047   2.117   5.038  1.7673 -0.3924  0.0413
    6SOL    HW2   23   1.067   2.047   4.906 -1.6103  0.3114 -0.9435
    6SOL     MW   24   1.036   2.114   4.952 -0.1552  0.2429  0.2123
    7SOL     OW   25   1.506   4.461   1.770  0.4549 -0.1741  0.4092
    7SOL    HW1   26   1.412   4.446   1.759  0.3772 -0.5390  1.3848
    7SOL    HW2   27   1.514   4.492   1.861  1.2634 -0.0521  0.3012
    7SOL     MW   28   1.495   4.463   1.780  0.5485 -0.2052  0.5202
    8SOL     OW   29   3.739   4.409   0.967  0.0526  0.0687 -0.2079
    8SOL    HW1   30   3.751   4.504   0.962  0.6660 -0.0553 -1.4856
    8SOL    HW2   31   3.645   4.397   0.976  0.0996  0.8356  1.7018
    8SOL     MW   32   3.729   4.420   0.968  0.1372  0.1510 -0.1270
    9SOL     OW   33   0.857   1.365   5.394 -0.2714 -0.3592  0.5173
    9SOL    HW1   34   0.812   1.377   5.477 -1.5769 -2.3297  0.1514
    9SOL    HW2   35   0.943   1.330   5.418 -0.4916 -0.5365  1.0483
    9SOL     MW   36   0.862   1.362   5.408 -0.4667 -0.6342  0.5384
   10SOL     OW   37   5.366   2.447   4.867 -0.2497 -0.0914  0.6594
   10SOL    HW1   38   5.306   2.425   4.796  1.1540  0.2803 -0.7136
   10SOL    HW2   39   5.424   2.371   4.873 -0.0274  0.1071  1.0311
   10SOL     MW   40   5.366   2.434   4.859 -0.0416 -0.0184  0.5312
   11SOL     OW   41   0.366   1.171   4.170  0.0958  0.6156 -0.1900
   11SOL    HW1   42   0.272   1.188   4.173  0.3176  1.9924 -0.4163
   11SOL    HW2   43   0.375   1.093   4.115 -0.8815  0.8012 -0.6273
   11SOL     MW   44   0.355   1.164   4.163 -0.0009  0.8156 -0.2749
   12SOL     OW   45   4.563   3.467   3.710  0.2325  0.2147  0.6465
   12SOL    HW1   46   4.631   3.401   3.697 -2.3228 -2.1992 -1.7060
   12SOL    HW2   47   4.504   3.430   3.775 -1.9658 -0.6440 -1.6688
   12SOL     MW   48   4.564   3.454   3.716 -0.3760 -0.2042  0.0490
   13SOL     OW   49   0.644   0.894   1.336  0.0243  0.1291  0.3215
   13SOL    HW1   50   0.699   0.816   1.328  0.3197  0.2964  0.7496
   13SOL    HW2   51   0.705   0.966   1.344 -0.1892  0.6591 -2.0247
   13SOL     MW   52   0.659   0.893   1.336  0.0348  0.2184  0.0759
   14SOL     OW   53   2.510   4.650   0.916 -0.1817  0.1469  0.2955
   14SOL    HW1   54   2.534   4.637   1.008  0.0420 -0.2960  0.1728
   14SOL    HW2   55   2.437   4.591   0.901  0.1843 -0.2395  0.0181
   14SOL     MW   56   2.504   4.641   0.926 -0.1062  0.0407  0.2443
   15SOL     OW   57   2.897   3.890   3.432 -0.3597  0.5671 -0.2476
   15SOL    HW1   58   2.984   3.851   3.437 -0.2357  0.9306  0.6619
   15SOL    HW2   59   2.913   3.984   3.430 -0.7443  0.6450  0.2761
   15SOL     MW   60   2.910   3.897   3.432 -0.3930  0.6236 -0.0642
   16SOL     OW   61   1.040   4.566   1.018  0.2189 -0.1422 -0.1926
   16SOL    HW1   62   1.045   4.564   0.922 -0.8202 -0.7752 -0.2549
   16SOL    HW2   63   0.964   4.512   1.038 -0.6405  1.3956  0.9058
   16SOL     MW   64   1.031   4.559   1.008 -0.0241 -0.0264 -0.0600
   17SOL     OW   65   5.379   2.385   0.400 -0.2529 -0.4502  0.1498
   17SOL    HW1   66   5.300   2.395   0.346 -0.3988 -2.0794 -0.0147
   17SOL    HW2   67   5.374   2.455   0.464 -0.1426  1.4923 -1.8505
   17SOL     MW   68   5.368   2.395   0.401 -0.2574 -0.4101 -0.1273
   18SOL     OW   69   1.059   3.378   1.626 -0.6895 -0.9569 -0.1212
   18SOL    HW1   70   0.970   3.409   1.612 -0.1297 -0.1042 -2.1037
   18SOL    HW2   71   1.108   3.455   1.655 -0.6013 -1.4723  1.2003
   18SOL     MW   72   1.054   3.391   1.628 -0.6065 -0.9137 -0.2058
   19SOL     OW   73   4.709   4.776   4.693 -0.0151  0.1977 -0.0521
   19SOL    HW1   74   4.646   4.745   4.628  0.8411 -0.1622 -0.7360
   19SOL    HW2   75   4.656   4.800   4.769 -0.9386 -0.3954 -0.4951
   19SOL     MW   76   4.694   4.775   4.695 -0.0238  0.0757 -0.1964
   20SOL     OW   77   2.825   1.179   0.074 -0.4049 -0.2488  0.2465
   20SOL    HW1   78   2.867   1.265   0.069  0.5200 -0.7623 -1.7128
   20SOL    HW2   79   2.821   1.149  -0.017  2.1804 -3.6251  1.0329
   20SOL     MW   80   2.830   1.186   0.062  0.0444 -0.7468  0.0964
   21SOL     OW   81   0.877   1.852   4.528  0.0952  1.0558 -0.2339
   21SOL    HW1   82   0.844   1.765   4.506  1.7274  0.6475 -1.2656
   21SOL    HW2   83   0.800   1.908   4.527 -1.0319 -0.4091  0.7185
   21SOL     MW   84   0.863   1.848   4.525  0.1599  0.8160 -0.2441
   22SOL     OW   85   1.738   3.120   0.318 -0.0909 -0.1629  0.2849
   22SOL    HW1   86   1.671   3.089   0.257 -0.3677  1.4004 -0.2781
   22SOL    HW2   87   1.700   3.107   0.405  0.3707 -2.5664  0.1794
   22SOL     MW   88   1.725   3.115   0.321 -0.0672 -0.2704  0.1993
   23SOL     OW   89   0.535   3.006   0.747  0.0961 -0.0252  0.1647
   23SOL    HW1   90   0.564   2.997   0.656 -1.2285  0.8820 -0.3713
   23SOL    HW2   91   0.615   2.995   0.798  0.5857 -2.3869 -0.9851
   23SOL     MW   92   0.549   3.003   0.742 -0.0108 -0.2114 -0.0511
   24SOL     OW   93   5.351   2.603   0.577 -0.1255 -0.3945 -0.3004
   24SOL    HW1   94   5.317   2.671   0.519 -0.3395 -0.8717 -0.7453
   24SOL    HW2   95   5.340   2.638   0.665 -0.1066  0.2013 -0.5326
   24SOL     MW   96   5.345   2.616   0.581 -0.1504 -0.3793 -0.3871
   25SOL     OW   97   5.249   3.818   4.628 -0.6773 -0.3263  0.2837
   25SOL    HW1   98   5.204   3.763   4.692  0.3355  1.4517  2.6755
   25SOL    HW2   99   5.323   3.855   4.676  0.8791  0.1568 -2.3069
   25SOL     MW  100   5.253   3.815   4.642 -0.3484 -0.0368  0.2583
   26SOL     OW  101   0.671   1.576   2.678 -0.0453  0.2451 -0.1689
   26SOL    HW1  102   0.626   1.601   2.597 -0.0668  0.1756 -0.1792
   26SOL    HW2  103   0.707   1.657   2.712  0.4074  0.1973 -0.5219
   26SOL     MW  104   0.670   1.589   2.672  0.0099  0.2301 -0.2154
   27SOL     OW  105   2.322   5.420   2.988  0.2061 -0.0497 -0.0017
   27SOL    HW1  106   2.347   5.508   2.959  0.8720 -0.6881 -1.4877
   27SOL    HW2  107   2.308   5.371   2.907 -1.8216 -0.8930  0.7846
   27SOL     MW  108   2.324   5.425   2.974  0.0318 -0.2394 -0.0913
   28SOL     OW  109   0.331   3.683   1.236 -0.0648 -0.0006 -0.1635
   28SOL    HW1  110   0.254   3.658   1.287  0.7678 -1.7500  0.3209
   28SOL    HW2  111   0.296   3.723   1.157 -1.5609 -2.3205 -0.7619
   28SOL     MW  112   0.317   3.685   1.233 -0.1497 -0.5215 -0.1781
   29SOL     OW  113   1.655   2.091   0.105 -0.1261  0.6939 -0.6606
   29SOL    HW1  114   1.620   2.038   0.177 -0.9071  0.3260 -1.3026
   29SOL    HW2  115   1.664   2.179   0.142  0.4960  0.2840  0.1967
   29SOL     MW  116   1.652   2.096   0.119 -0.1464  0.5944 -0.6330
   30SOL     OW  117   4.665   4.908   2.787 -0.1306  0.4288 -0.8879
   30SOL    HW1  118   4.752   4.868   2.793 -0.4016 -0.0639 -0.0228
   30SOL    HW2  119   4.627   4.896   2.875 -1.8428 -1.1489 -1.7613
   30SOL     MW  120   4.671   4.901   2.799 -0.3845  0.1638 -0.8890
   31SOL     OW  121   3.541   1.848   1.267  0.3359 -0.4834  0.0515
   31SOL    HW1  122   3.603   1.873   1.336 -0.2716  1.9304 -0.1847
   31SOL    HW2  123   3.455   1.860   1.307 -0.0098  0.3844 -0.8981
   31SOL     MW  124   3.538   1.853   1.281  0.2139 -0.0633 -0.1003
   32SOL     OW  125   5.191   1.813   5.046  0.1709 -0.0747 -0.4503
   32SOL    HW1  126   5.133   1.757   5.098  1.1232  1.2846  2.2514
   32SOL    HW2  127   5.275   1.767   5.045  0.2423  0.0563 -0.5514
   32SOL     MW  128   5.194   1.800   5.053  0.3020  0.1160 -0.1174
   33SOL     OW  129   1.808   0.822   2.500 -0.3337  0.2177 -0.1241
   33SOL    HW1  130   1.740   0.769   2.458 -0.2687 -0.2001  0.2816
   33SOL    HW2  131   1.849   0.870   2.428 -0.7931  0.1685 -0.4224
   33SOL     MW  132   1.805   0.821   2.485 -0.3842  0.1579 -0.1103
   34SOL     OW  133   0.493   3.063   3.403  0.1701 -0.1067 -0.0612
   34SOL    HW1  134   0.459   3.150   3.384 -1.6878 -0.9183 -0.6719
   34SOL    HW2  135   0.428   3.024   3.462  0.5402 -1.3718 -0.4574
   34SOL     MW  136   0.480   3.069   3.408 -0.0204 -0.3725 -0.1901
   35SOL     OW  137   2.368   1.028   4.242  0.5692 -0.1375 -0.1728
   35SOL    HW1  138   2.275   1.045   4.253  0.7626  1.7657 -0.9897
   35SOL    HW2  139   2.374   0.934   4.227 -1.1523 -0.3780  0.4195
   35SOL     MW  140   2.357   1.018   4.242  0.3736  0.0754 -0.2015
   36SOL     OW  141   2.010   3.522   4.921  0.5018  0.4817  0.1601
   36SOL    HW1  142   2.065   3.596   4.946 -0.6986  1.4491  0.0043
   36SOL    HW2  143   2.049   3.447   4.967  1.8613  1.1512  0.1466
   36SOL     MW  144   2.022   3.522   4.930  0.5222  0.6912  0.1384
   37SOL     OW  145   2.516   0.890   5.383  0.0495 -0.2708  0.0380
   37SOL    HW1  146   2.492   0.973   5.343  0.3772 -0.4217 -0.4818
   37SOL    HW2  147   2.433   0.843   5.392 -0.2384  0.4034  1.0229
   37SOL     MW  148   2.503   0.895   5.379  0.0546 -0.2038  0.0976
   38SOL     OW  149   1.502   3.218   5.417 -0.3667  0.3888 -0.4665
   38SOL    HW1  150   1.428   3.215   5.479  0.4788 -0.7446  0.5268
   38SOL    HW2  151   1.551   3.296   5.442 -0.2783  0.1852 -0.0036
   38SOL     MW  152   1.499   3.228   5.428 -0.2471  0.2177 -0.2801
   39SOL     OW  153   2.677   3.640   0.396 -0.1982 -0.0207  0.4999
   39SOL    HW1  154   2.636   3.556   0.416 -0.0291 -0.2616 -0.1542
   39SOL    HW2  155   2.603   3.700   0.382 -0.3185 -0.0728  0.8911
   39SOL     MW  156   2.662   3.637   0.397 -0.1920 -0.0582  0.4662
   40SOL     OW  157   4.671   3.714   3.683  0.5585 -0.2119 -0.0273
   40SOL    HW1  158   4.634   3.627   3.695  1.4300 -0.5957 -0.0737
   40SOL    HW2  159   4.761   3.707   3.715  0.2574  1.0056  1.1522
   40SOL     MW  160   4.678   3.702   3.689  0.6315 -0.1052  0.1178
   41SOL     OW  161   0.380   2.303   3.738 -0.1850 -0.3171  0.9926
   41SOL    HW1  162   0.451   2.361   3.766  0.1280 -0.4556  0.4970
   41SOL    HW2  163   0.367   2.244   3.812 -0.3225  0.2054  1.3975
   41SOL     MW  164   0.387   2.303   3.751 -0.1626 -0.2680  0.9810
   42SOL     OW  165   3.633   0.291   3.514 -0.4130  0.6181 -0.2589
   42SOL    HW1  166   3.681   0.297   3.597 -0.8580 -0.6597  0.1160
   42SOL    HW2  167   3.561   0.232   3.533 -1.7319  1.9242 -1.0213
   42SOL     MW  168   3.630   0.284   3.527 -0.6388  0.6217 -0.3085
   43SOL     OW  169   2.364   3.931   3.974 -0.2112 -0.3639  0.0360
   43SOL    HW1  170   2.393   3.915   3.884 -2.2846 -0.5737 -0.6626
   43SOL    HW2  171   2.345   3.844   4.009  3.2720 -0.5768  1.7649
   43SOL     MW  172   2.365   3.918   3.967 -0.0307 -0.4180  0.1679
   44SOL     OW  173   2.733   2.339   2.753  0.5641 -0.1590 -0.1955
   44SOL    HW1  174   2.644   2.369   2.734  0.6953  0.7724  0.5828
   44SOL    HW2  175   2.743   2.258   2.702 -1.0979 -0.8656  0.5445
   44SOL     MW  176   2.723   2.332   2.744  0.3681 -0.1302 -0.0011
   45SOL     OW  177   2.425   2.062   2.645 -0.7234  0.1318  0.0165
   45SOL    HW1  178   2.431   2.039   2.552  0.1307  0.2053  0.0526
   45SOL    HW2  179   2.371   1.992   2.683  0.2525 -0.7754 -0.2324
   45SOL     MW  180   2.419   2.050   2.638 -0.4891  0.0251 -0.0107
   46SOL     OW  181   2.746   3.497   2.601 -0.2141 -0.1682  0.9612
   46SOL    HW1  182   2.812   3.434   2.575  0.9877  0.2614  2.8099
   46SOL    HW2  183   2.743   3.560   2.529  0.9555 -0.5179  0.5933
   46SOL     MW  184   2.754   3.497   2.589  0.0895 -0.1580  1.1507
   47SOL     OW  185   3.123   3.895   4.693 -0.3774 -0.0957 -0.2319
   47SOL    HW1  186   3.179   3.969   4.715 -1.0244 -0.1323  1.7550
   47SOL    HW2  187   3.183   3.820   4.690 -0.2308 -0.1186  1.7805
   47SOL     MW  188   3.138   3.895   4.695 -0.4415 -0.1033  0.2801
   48SOL     OW  189   2.189   0.014   4.092  0.4785 -0.2781  0.6015
   48SOL    HW1  190   2.123  -0.030   4.145  1.0983 -0.2381  1.4335
   48SOL    HW2  191   2.160   0.105   4.090  1.1038 -0.0278  1.9520
   48SOL     MW  192   2.177   0.020   4.098  0.6379 -0.2409  0.8809
   49SOL     OW  193   3.527   0.065   3.947 -0.4867  0.3159  0.0363
   49SOL    HW1  194   3.561   0.078   4.036  0.6916  1.0212 -0.4890
   49SOL    HW2  195   3.483  -0.020   3.950 -0.6493  0.4282  1.3440
   49SOL     MW  196   3.526   0.056   3.959 -0.3567  0.4206  0.1365
   50SOL     OW  197   3.436   0.181   3.151  0.1376 -0.3904 -0.3467
   50SOL    HW1  198   3.391   0.120   3.092 -0.3999 -0.3757  0.0335
   50SOL    HW2  199   3.436   0.264   3.103  0.7777 -0.6602 -0.8218
   50SOL     MW  200   3.430   0.184   3.137  0.1507 -0.4230 -0.3589
   51SOL     OW  201   4.921   1.081   5.103 -0.0215  0.2169 -0.2066
   51SOL    HW1  202   4.951   1.170   5.083  1.1792  0.0298  0.6849
   51SOL    HW2  203   4.994   1.040   5.148 -0.9307 -0.9116  0.3054
   51SOL     MW  204   4.934   1.087   5.106  0.0158  0.0485 -0.0269
   52SOL     OW  205   5.215   1.124   1.683  0.5559 -0.4589 -0.2386
   52SOL    HW1  206   5.227   1.060   1.613  0.8304  1.4040 -2.0175
   52SOL    HW2  207   5.295   1.177   1.680 -0.0702  0.5577  0.5071
   52SOL     MW  208   5.227   1.123   1.674  0.5109 -0.0903 -0.3708
   53SOL     OW  209   0.316   1.685   3.294  0.0691 -0.4473  0.0523
   53SOL    HW1  210   0.256   1.690   3.368 -1.7705 -0.2544 -1.3793
   53SOL    HW2  211   0.285   1.610   3.243  2.0820 -1.3705  0.0790
   53SOL     MW  212   0.304   1.676   3.297  0.0913 -0.5408 -0.1276
   54SOL     OW  213   4.446   2.262   0.222  0.3934 -0.2377  0.2923
   54SOL    HW1  214   4.444   2.180   0.272 -0.2109 -0.8789 -0.7378
   54SOL    HW2  215   4.401   2.241   0.140  2.5300  0.3516 -1.1369
   54SOL     MW  216   4.440   2.249   0.218  0.5896 -0.2444 -0.0226
   55SOL     OW  217   2.539   5.037   4.791  0.4133  0.4045  0.0664
   55SOL    HW1  218   2.469   4.973   4.783  0.7792 -0.1788  1.3161
   55SOL    HW2  219   2.514   5.091   4.866  1.1530  0.3453  0.3676
   55SOL     MW  220   2.527   5.035   4.800  0.5548  0.3223  0.2650
   56SOL     OW  221   1.987   1.877   3.677  0.1948  0.6775 -0.0628
   56SOL    HW1  222   2.065   1.836   3.639  1.5464 -0.0773  3.1718
   56SOL    HW2  223   2.022   1.940   3.740 -1.8801  2.2187 -0.3667
   56SOL     MW  224   2.001   1.880   3.680  0.1022  0.7782  0.3124
   57SOL     OW  225   3.797   5.013   4.802  0.1445  0.4925 -0.2898
   57SOL    HW1  226   3.735   5.085   4.789  0.7005  1.3359  1.4159
   57SOL    HW2  227   3.857   5.045   4.869 -0.0372 -1.8358  1.0892
   57SOL     MW  228   3.796   5.026   4.809  0.1924  0.3024  0.1051
   58SOL     OW  229   3.525   3.990   1.638 -0.2591 -0.0029 -0.4388
   58SOL    HW1  230   3.470   4.019   1.712  0.0541  1.2114 -0.6577
   58SOL    HW2  231   3.491   3.904   1.615 -0.5791 -0.2663  0.9144
   58SOL     MW  232   3.514   3.983   1.645 -0.2600  0.1188 -0.2936
   59SOL     OW  233   0.837   4.235   2.397 -0.0373  0.3873 -0.4910
   59SOL    HW1  234   0.912   4.213   2.453  2.1158 -0.5904 -3.4982
   59SOL    HW2  235   0.766   4.180   2.429  1.0600 -0.1028  1.2426
   59SOL     MW  236   0.838   4.225   2.408  0.3788  0.1994 -0.6541
   60SOL     OW  237   0.580   0.667   2.464 -0.3621  0.5056 -0.8421
   60SOL    HW1  238   0.597   0.613   2.387 -0.4626  0.7100 -1.0082
   60SOL    HW2  239   0.504   0.720   2.440 -0.6576  0.2690 -0.4474
   60SOL     MW  240   0.572   0.667   2.451 -0.4128  0.5015 -0.8129
   61SOL     OW  241   1.622   0.286   3.580 -0.4752  0.1208 -0.1941
   61SOL    HW1  242   1.716   0.291   3.598 -0.5598  1.6173 -0.0015
   61SOL    HW2  243   1.616   0.265   3.487  0.0273 -0.7621 -0.0427
   61SOL     MW  244   1.633   0.284   3.570 -0.4217  0.1994 -0.1501
   62SOL     OW  245   3.934   4.895   1.647  0.5220  0.0942  0.3793
   62SOL    HW1  246   3.923   4.887   1.552 -0.2195  0.3854  0.4384
   62SOL    HW2  247   4.009   4.839   1.667  1.2807  0.7720 -0.5097
   62SOL     MW  248   3.942   4.887   1.637  0.5242  0.2183  0.2731
   63SOL     OW  249   0.110   1.276   2.684  0.1238 -0.6093 -0.1340
   63SOL    HW1  250   0.036   1.259   2.626 -1.8510  0.4399  1.9366
   63SOL    HW2  251   0.102   1.212   2.754  0.1849  0.5353  0.9650
   63SOL     MW  252   0.100   1.266   2.686 -0.1212 -0.3285  0.2717
   64SOL     OW  253   2.532   0.843   1.271 -0.2405 -0.7647  0.4756
   64SOL    HW1  254   2.470   0.864   1.340 -0.9199 -1.7597  0.1851
   64SOL    HW2  255   2.493   0.879   1.192  0.2723 -0.1080  0.5137
   64SOL     MW  256   2.519   0.850   1.270 -0.2618 -0.8080  0.4433
   65SOL     OW  257   0.388   1.133   1.347  0.0467 -0.0195  0.0230
   65SOL    HW1  258   0.392   1.052   1.295 -0.8613  0.5061 -0.8916
   65SOL    HW2  259   0.356   1.199   1.286  1.5701  1.2370  0.5346
   65SOL     MW  260   0.384   1.131   1.332  0.1255  0.2086 -0.0286
   66SOL     OW  261   1.590   5.391   3.162 -0.1303  0.4307 -0.0462
   66SOL    HW1  262   1.664   5.451   3.152  0.3539  0.1416  1.6111
   66SOL    HW2  263   1.581   5.379   3.256 -0.5874 -1.6497 -0.3100
   66SOL     MW  264   1.598   5.397   3.172 -0.1268  0.1274  0.1322
   67SOL     OW  265   2.962   0.050   1.704 -0.1091 -0.5061  0.0698
   67SOL    HW1  266   2.957   0.102   1.624 -2.6531 -1.8234 -0.7418
   67SOL    HW2  267   2.889   0.081   1.758  1.4296  0.2049  1.8496
   67SOL     MW  268   2.952   0.060   1.701 -0.2378 -0.5837  0.1937
   68SOL     OW  269   1.797   5.413   5.321 -0.3891  0.2072 -0.7388
   68SOL    HW1  270   1.767   5.430   5.410 -0.8974  1.9386 -1.1976
   68SOL    HW2  271   1.751   5.333   5.294 -0.4941 -0.1308  0.4187
   68SOL     MW  272   1.787   5.405   5.329 -0.4676  0.3856 -0.6493
   69SOL     OW  273   2.723   1.187   0.933  0.3264  0.8971  0.1443
   69SOL    HW1  274   2.665   1.238   0.991 -1.7854  1.1518 -2.0160
   69SOL    HW2  275   2.756   1.116   0.988 -0.1535  2.1073  2.0950
   69SOL     MW  276   2.720   1.185   0.947 -0.0054  1.0846  0.1174
   70SOL     OW  277   4.655   0.846   2.399 -0.1635 -0.5036 -0.1819
   70SOL    HW1  278   4.745   0.834   2.370  0.4435 -0.3551  1.5237
   70SOL    HW2  279   4.628   0.929   2.360 -0.4566 -1.6665 -2.6859
   70SOL     MW  280   4.663   0.855   2.390 -0.1233 -0.6334 -0.2841
   71SOL     OW  281   1.149   3.342   0.432  0.4963 -0.0544 -0.0675
   71SOL    HW1  282   1.204   3.395   0.374  1.3982 -0.3291  0.5057
   71SOL    HW2  283   1.188   3.255   0.429 -0.3051 -0.4177 -0.1408
   71SOL     MW  284   1.161   3.337   0.425  0.5091 -0.1360 -0.0035
   72SOL     OW  285   1.734   2.267   1.749  0.2453  0.2044  0.0441
   72SOL    HW1  286   1.700   2.236   1.832 -1.6621 -0.8011 -1.0505
   72SOL    HW2  287   1.705   2.358   1.743 -0.5731 -0.0567 -0.0083
   72SOL     MW  288   1.726   2.274   1.759 -0.1037  0.0422 -0.1027
   73SOL     OW  289   2.216   1.374   4.008  0.0802 -0.3198 -0.3250
   73SOL    HW1  290   2.193   1.291   3.967 -3.1279 -0.4490  1.3345
   73SOL    HW2  291   2.200   1.440   3.940  1.6241 -0.9143 -1.3214
   73SOL     MW  292   2.211   1.372   3.994 -0.1328 -0.4125 -0.2401
   74SOL     OW  293   4.527   2.924   2.009 -0.5475 -0.6230  0.4182
   74SOL    HW1  294   4.469   2.993   1.977  0.2724 -0.2623 -0.3132
   74SOL    HW2  295   4.508   2.918   2.103 -1.0512  0.1691  0.3757
   74SOL     MW  296   4.517   2.932   2.017 -0.5070 -0.4754  0.3191
   75SOL     OW  297   3.420   5.185   0.117  0.5757  0.0350 -0.3913
   75SOL    HW1  298   3.385   5.235   0.044 -1.4998  1.1328  1.2607
   75SOL    HW2  299   3.381   5.098   0.108 -1.7577  0.8902  0.7337
   75SOL     MW  300   3.411   5.180   0.107  0.0113  0.2850 -0.0358
   76SOL     OW  301   1.342   0.689   4.784  0.3876 -0.3002  0.4203
   76SOL    HW1  302   1.405   0.619   4.803  1.1563  0.0424 -0.7463
   76SOL    HW2  303   1.302   0.664   4.701  1.7986  1.3502 -0.8412
   76SOL     MW  304   1.345   0.677   4.776  0.6666 -0.0451  0.1095
   77SOL     OW  305   5.287   4.934   2.161 -0.4024 -0.3831 -0.5408
   77SOL    HW1  306   5.351   4.962   2.095  0.3203  1.6010  0.8923
   77SOL    HW2  307   5.317   4.847   2.188  1.1476  0.0881 -0.6084
   77SOL     MW  308   5.299   4.927   2.156 -0.1115 -0.0688 -0.3660
   78SOL     OW  309   3.520   3.150   1.131  0.6503  0.1274 -0.5942
   78SOL    HW1  310   3.453   3.206   1.170 -0.2056 -0.4207 -1.2397
   78SOL    HW2  311   3.542   3.088   1.200 -0.0589 -0.1533 -0.6102
   78SOL     MW  312   3.514   3.149   1.145  0.4499  0.0213 -0.6789
   79SOL     OW  313   2.156   2.783   1.442 -0.2434  0.2021  0.1015
   79SOL    HW1  314   2.080   2.842   1.441 -0.1894  0.2652 -0.7537
   79SOL    HW2  315   2.147   2.732   1.362 -0.9542 -1.8440  1.4055
   79SOL     MW  316   2.145   2.784   1.431 -0.3275 -0.0518  0.1589
   80SOL     OW  317   5.426   0.667   3.521  0.8345 -0.2776 -0.2046
   80SOL    HW1  318   5.376   0.740   3.482 -0.9425 -1.1220  0.3888
   80SOL    HW2  319   5.406   0.672   3.614  0.0245 -1.9902 -0.2619
   80SOL     MW  320   5.417   0.677   3.528  0.5034 -0.6049 -0.1360
   81SOL     OW  321   0.710   1.828   3.057  0.1630  0.6802 -0.2670
   81SOL    HW1  322   0.697   1.734   3.058 -0.8677  0.8153  0.4775
   81SOL    HW2  323   0.628   1.863   3.022  0.7806  1.2699 -1.1601
   81SOL     MW  324   0.698   1.821   3.053  0.1101  0.7730 -0.2860
   82SOL     OW  325   5.079   2.380   5.469 -0.1997  0.2972 -0.4802
   82SOL    HW1  326   5.016   2.311   5.488  0.8231 -0.2088  1.3695
   82SOL    HW2  327   5.104   2.366   5.378 -0.2541 -1.5823 -0.2357
   82SOL     MW  328   5.074   2.370   5.460 -0.0757 -0.0082 -0.2121
   83SOL     OW  329   2.920   3.173   5.297 -0.0891 -0.1894  0.2492
   83SOL    HW1  330   2.903   3.108   5.365  0.2985  0.1827  0.7045
   83SOL    HW2  331   2.870   3.250   5.323 -0.1235 -0.1236 -0.0065
   83SOL     MW  332   2.912   3.175   5.309 -0.0439 -0.1333  0.2748
   84SOL     OW  333   3.013   3.914   1.665 -0.3822  0.1459  0.6331
   84SOL    HW1  334   3.010   3.916   1.760  1.1082 -1.5486  0.7541
   84SOL    HW2  335   3.061   3.994   1.641 -1.0756  0.7642  1.2560
   84SOL     MW  336   3.019   3.925   1.674 -0.2802  0.0081  0.7283
   85SOL     OW  337   4.247   3.214   5.160 -0.6556  0.1873  0.1731
   85SOL    HW1  338   4.311   3.263   5.108 -0.0079  0.0986  0.8727
   85SOL    HW2  339   4.169   3.212   5.105 -0.6984  1.9685  0.1076
   85SOL     MW  340   4.246   3.220   5.146 -0.5782  0.4040  0.2543
   86SOL     OW  341   5.010   2.460   5.075 -0.0611 -0.0409 -0.5819
   86SOL    HW1  342   4.969   2.525   5.133 -0.5275 -0.7428 -0.1110
   86SOL    HW2  343   5.012   2.503   4.989  0.3782  0.9071 -0.1199
   86SOL     MW  344   5.005   2.474   5.071 -0.0646 -0.0094 -0.4625
   87SOL     OW  345   4.610   3.847   3.425 -0.3852  0.0215 -0.5925
   87SOL    HW1  346   4.675   3.917   3.420  0.2966 -0.5039  0.4517
   87SOL    HW2  347   4.650   3.781   3.482 -1.4489 -0.7449 -0.6950
   87SOL     MW  348   4.624   3.847   3.432 -0.4341 -0.1439 -0.4719
   88SOL     OW  349   3.791   5.037   3.453 -0.9167 -0.1176 -0.0067
   88SOL    HW1  350   3.724   4.971   3.472 -0.2287 -0.5958  0.8594
   88SOL    HW2  351   3.854   5.029   3.525  0.2898  0.0392 -1.0082
   88SOL     MW  352   3.790   5.028   3.465 -0.6742 -0.1587 -0.0240
   89SOL     OW  353   5.092   4.897   0.919 -0.3355 -0.4127  0.2214
   89SOL    HW1  354   5.107   4.806   0.943 -0.9337 -1.7780 -3.7936
   89SOL    HW2  355   4.997   4.903   0.905 -0.4119  1.0907  1.0958
   89SOL     MW  356   5.082   4.886   0.920 -0.4218 -0.3950 -0.1806
   90SOL     OW  357   5.127   3.400   0.243  0.0375  0.5565  0.3394
   90SOL    HW1  358   5.031   3.405   0.241  0.0744  0.9342 -0.9981
   90SOL    HW2  359   5.155   3.490   0.260  0.1636  0.5064  0.3963
   90SOL     MW  360   5.118   3.412   0.245  0.0584  0.5984  0.1754
   91SOL     OW  361   2.889   2.949   3.476 -0.2186 -0.2552 -0.4264
   91SOL    HW1  362   2.863   3.039   3.457  0.0691  0.2529  1.3863
   91SOL    HW2  363   2.806   2.903   3.492 -0.2788  0.2275  0.7415
   91SOL     MW  364   2.875   2.954   3.476 -0.1894 -0.1284 -0.0449
   92SOL     OW  365   2.981   5.172   1.343 -0.5532  0.0220 -0.0726
   92SOL    HW1  366   2.907   5.117   1.319 -1.0112  0.5325  0.1403
   92SOL    HW2  367   2.958   5.207   1.429 -0.7114  1.2920 -0.6081
   92SOL     MW  368   2.969   5.170   1.351 -0.6321  0.2499 -0.1139
   93SOL     OW  369   2.591   0.534   0.620  0.0366  0.2623  0.3499
   93SOL    HW1  370   2.662   0.484   0.660  0.1557  0.8486  0.8830
   93SOL    HW2  371   2.513   0.480   0.633  0.1767  0.1761  0.8522
   93SOL     MW  372   2.590   0.520   0.626  0.0698  0.3263  0.4824
   94SOL     OW  373   2.264   2.001   5.441 -0.3582 -0.4262  0.5073
   94SOL    HW1  374   2.242   2.070   5.504  1.2137  0.2532  0.3498
   94SOL    HW2  375   2.239   2.037   5.356  0.6507  0.0749  0.4018
   94SOL     MW  376   2.258   2.014   5.438 -0.0278 -0.2751  0.4736
   95SOL     OW  377   1.002   2.694   0.498 -0.3634 -0.4530  0.2360
   95SOL    HW1  378   1.058   2.648   0.560  2.0257  0.1707 -1.3550
   95SOL    HW2  379   1.054   2.769   0.469 -1.6372 -0.3398 -2.0076
   95SOL     MW  380   1.015   2.698   0.502 -0.2206 -0.3587 -0.2549
   96SOL     OW  381   2.593   3.243   3.052 -0.2767  0.3851  0.3094
   96SOL    HW1  382   2.532   3.258   2.980 -0.5655 -1.7038  0.0468
   96SOL    HW2  383   2.674   3.213   3.010 -0.7792 -1.8839  0.8156
   96SOL     MW  384   2.596   3.241   3.038 -0.3780 -0.1728  0.3406
   97SOL     OW  385   1.894   0.965   2.279  0.0406 -0.0854 -0.7121
   97SOL    HW1  386   1.818   0.943   2.226 -0.5573  0.1568  0.0316
   97SOL    HW2  387   1.930   1.044   2.238 -1.9568  1.6742  0.7044
   97SOL     MW  388   1.889   0.972   2.267 -0.2917  0.1708 -0.4356
   98SOL     OW  389   4.103   3.974   3.878 -0.5035  0.1264  0.3368
   98SOL    HW1  390   4.060   4.057   3.898  2.9115  1.9733  0.6742
   98SOL    HW2  391   4.154   3.954   3.957  0.5057 -1.0826 -0.5794
   98SOL     MW  392   4.104   3.982   3.891  0.0629  0.2081  0.2627
   99SOL     OW  393   3.355   0.229   3.428 -0.1560  1.0473 -0.4771
   99SOL    HW1  394   3.384   0.207   3.339  1.5294  0.2109  0.2267
   99SOL    HW2  395   3.263   0.205   3.430  0.6498 -2.7650 -0.9109
   99SOL     MW  396   3.347   0.223   3.417  0.1629  0.4522 -0.4426
  100SOL     OW  397   3.959   0.722   5.506 -0.0647 -0.6898  0.1122
  100SOL    HW1  398   3.910   0.804   5.505 -0.4930 -0.8699  2.1021
  100SOL    HW2  399   3.985   0.708   5.414 -2.0859  0.3865 -0.6828
  100SOL     MW  400   3.956   0.731   5.494 -0.3783 -0.5751  0.2652
  101SOL     OW  401   3.061   4.865   0.942  0.0324  0.2573 -0.1691
  101SOL    HW1  402   3.050   4.837   0.851  1.5447  0.9355 -0.6009
  101SOL    HW2  403   3.046   4.960   0.939  4.5383  1.1848 -0.7140
  101SOL     MW  404   3.058   4.874   0.930  0.8028  0.4628 -0.2941
  102SOL     OW  405   4.665   4.981   5.139  0.0473 -0.5092  0.0989
  102SOL    HW1  406   4.712   4.957   5.218  0.9992  1.2664  0.1213
  102SOL    HW2  407   4.601   5.047   5.168  1.7707  1.7022 -0.8312
  102SOL     MW  408   4.663   4.987   5.153  0.3897  0.0012 -0.0173
  103SOL     OW  409   4.877   2.165   2.435  0.6293 -0.0001  0.0566
  103SOL    HW1  410   4.817   2.096   2.407  0.8764 -0.6208  0.9791
  103SOL    HW2  411   4.853   2.180   2.527  0.6915  1.0261 -0.0918
  103SOL     MW  412   4.866   2.158   2.443  0.6689  0.0518  0.1557
  104SOL     OW  413   2.682   1.873   4.569  0.4394  0.4768  0.1684
  104SOL    HW1  414   2.685   1.967   4.550  0.6828  0.5848  0.7245
  104SOL    HW2  415   2.638   1.867   4.654  0.1489  0.0645 -0.0090
  104SOL     MW  416   2.677   1.884   4.577  0.4334  0.4378  0.2168
  105SOL     OW  417   0.654   0.881   3.689 -0.1149  0.3298  0.1968
  105SOL    HW1  418   0.687   0.892   3.599  0.2399  0.2206  0.3096
  105SOL    HW2  419   0.642   0.786   3.698 -0.5416  0.3790  0.1289
  105SOL     MW  420   0.657   0.870   3.678 -0.1241  0.3221  0.2025
  106SOL     OW  421   5.232   4.146   3.384 -0.1160 -0.2621 -0.1281
  106SOL    HW1  422   5.234   4.167   3.477 -1.1868  0.6186 -0.2794
  106SOL    HW2  423   5.231   4.231   3.340 -1.4081 -0.6328 -0.8805
  106SOL     MW  424   5.232   4.160   3.390 -0.4185 -0.1968 -0.2438
  107SOL     OW  425   0.288   0.565   5.204  0.1610 -0.2311  0.5994
  107SOL    HW1  426   0.377   0.531   5.201  1.9822  3.8826 -0.4479
  107SOL    HW2  427   0.284   0.613   5.287 -0.7081  0.3329  0.2451
  107SOL     MW  428   0.299   0.567   5.214  0.2829  0.3677  0.4200
  108SOL     OW  429   2.621   2.438   1.248  0.6083 -0.2846 -0.0034
  108SOL    HW1  430   2.694   2.440   1.311  0.2019 -0.0362  0.4745
  108SOL    HW2  431   2.579   2.523   1.259  0.5818 -0.2028 -0.6873
  108SOL     MW  432   2.625   2.449   1.258  0.5529 -0.2423 -0.0298
  109SOL     OW  433   0.895   4.693   1.712  0.1147 -0.2294  0.0492
  109SOL    HW1  434   0.879   4.644   1.632  0.1622  1.5245 -1.0814
  109SOL    HW2  435   0.886   4.785   1.687  0.6649  0.3953  1.9320
  109SOL     MW  436   0.892   4.699   1.699  0.1912  0.0751  0.1455
  110SOL     OW  437   1.905   1.922   2.970  0.0417  0.2894  0.3848
  110SOL    HW1  438   1.895   1.993   2.907 -0.1730 -0.7702 -0.8243
  110SOL    HW2  439   1.818   1.881   2.973  0.3505 -0.3595  0.5236
  110SOL     MW  440   1.892   1.926   2.962  0.0538  0.0707  0.2478
  111SOL     OW  441   5.026   1.245   0.968 -0.3150 -0.4426  0.1880
  111SOL    HW1  442   4.937   1.278   0.982 -0.3679  0.6321 -2.2614
  111SOL    HW2  443   5.028   1.220   0.876  2.3143  0.8534 -0.1681
  111SOL     MW  444   5.015   1.246   0.958  0.0148 -0.1391 -0.1711
  112SOL     OW  445   5.346   5.479   3.827  0.2264 -0.3909  0.0928
  112SOL    HW1  446   5.388   5.403   3.786 -0.6609 -1.0130  0.3122
  112SOL    HW2  447   5.409   5.550   3.815  0.3329 -0.7457 -1.6120
  112SOL     MW  448   5.360   5.478   3.820  0.1265 -0.5160 -0.0973
  113SOL     OW  449   5.097   3.479   2.000  1.0129  0.2955  0.0287
  113SOL    HW1  450   5.057   3.396   2.025  0.0576  0.2414 -1.5306
  113SOL    HW2  451   5.111   3.525   2.083 -1.1187 -0.2311  0.7415
  113SOL     MW  452   5.094   3.474   2.014  0.6178  0.2212 -0.0796
  114SOL     OW  453   2.859   2.068   4.928  0.3124 -0.1417 -0.4225
  114SOL    HW1  454   2.803   2.142   4.905  1.0540  1.1976  1.7712
  114SOL    HW2  455   2.798   2.000   4.957 -0.2670  0.7120  0.4053
  114SOL     MW  456   2.844   2.069   4.929  0.3331  0.1390 -0.0357
  115SOL     OW  457   4.066   0.972   4.442  0.0622 -0.3509 -0.1238
  115SOL    HW1  458   4.078   0.885   4.481 -0.5597  0.3568  1.7694
  115SOL    HW2  459   4.022   1.022   4.510 -0.2456  1.2549 -1.4576
  115SOL     MW  460   4.062   0.967   4.456 -0.0568 -0.0548 -0.0522
  116SOL     OW  461   2.923   4.587   1.263 -0.0128  0.5097  0.0564
  116SOL    HW1  462   2.984   4.653   1.231  0.4692 -0.0945 -0.3081
  116SOL    HW2  463   2.979   4.514   1.289 -0.2115  1.4506  3.6871
  116SOL     MW  464   2.938   4.586   1.263  0.0235  0.5528  0.4745
  117SOL     OW  465   4.171   2.500   0.953 -0.0202 -0.2640 -0.4153
  117SOL    HW1  466   4.210   2.537   0.874  0.2197 -0.7208 -0.5118
  117SOL    HW2  467   4.171   2.406   0.938 -1.1328 -0.2792 -0.4033
  117SOL     MW  468   4.176   2.493   0.941 -0.1320 -0.3245 -0.4261
  118SOL     OW  469   3.160   5.222   2.794  0.0001  0.1814  0.1628
  118SOL    HW1  470   3.090   5.286   2.781  0.6277  1.5551  2.7171
  118SOL    HW2  471   3.212   5.259   2.866 -0.0556 -3.5612  2.3629
  118SOL     MW  472   3.158   5.235   2.802  0.0733 -0.1219  0.7715
  119SOL     OW  473   3.207   0.455   2.132 -0.3038 -0.1387 -0.7020
  119SOL    HW1  474   3.294   0.421   2.107  0.2245  1.8513 -1.7805
  119SOL    HW2  475   3.216   0.476   2.225 -0.0045 -0.9754 -0.5268
  119SOL     MW  476   3.219   0.453   2.141 -0.1978  0.0089 -0.8177
  120SOL     OW  477   3.913   1.091   1.927 -0.3211 -0.2199 -0.5595
  120SOL    HW1  478   3.884   1.147   1.855 -1.4745 -0.6308 -0.4240
  120SOL    HW2  479   3.940   1.009   1.885  2.3488  0.7116 -0.8777
  120SOL     MW  480   3.913   1.088   1.912 -0.1270 -0.1533 -0.5829
  121SOL     OW  481   4.836   1.444   1.260  0.3155  0.0907  0.1016
  121SOL    HW1  482   4.922   1.480   1.282  1.3984 -1.2904 -1.6273
  121SOL    HW2  483   4.823   1.374   1.324  0.5053  0.2746  0.3446
  121SOL     MW  484   4.845   1.440   1.271  0.4784 -0.0626 -0.0886
  122SOL     OW  485   1.914   4.538   0.128  0.1870 -0.2298 -0.2298
  122SOL    HW1  486   1.861   4.494   0.061 -1.4987  1.2222  0.0510
  122SOL    HW2  487   1.924   4.627   0.095  0.3157  0.1947  0.9080
  122SOL     MW  488   1.908   4.544   0.115 -0.0123  0.0104 -0.0482
  123SOL     OW  489   3.489   1.210   4.367  0.0395  0.0950  0.2609
  123SOL    HW1  490   3.565   1.249   4.324 -0.0601  1.0969  0.9705
  123SOL    HW2  491   3.510   1.116   4.371  0.4891  0.1219 -1.0364
  123SOL     MW  492   3.501   1.203   4.362  0.0843  0.2267  0.1856
  124SOL     OW  493   0.145   2.672   4.376 -0.6007  0.1369  0.0739
  124SOL    HW1  494   0.222   2.615   4.371 -0.1053  0.8532 -0.8921
  124SOL    HW2  495   0.071   2.615   4.353 -0.5568 -0.8645  2.2323
  124SOL     MW  496   0.145   2.658   4.372 -0.5317  0.1004  0.2265
  125SOL     OW  497   3.255   3.144   0.851 -0.2702 -0.1783 -0.0350
  125SOL    HW1  498   3.235   3.076   0.787 -0.1431 -2.1177  1.8497
  125SOL    HW2  499   3.230   3.106   0.936  2.8772  0.7411  1.4909
  125SOL     MW  500   3.249   3.130   0.854  0.1490 -0.3089  0.4016
  126SOL     OW  501   4.686   2.245   4.866  0.2054 -0.0227 -0.3543
  126SOL    HW1  502   4.710   2.329   4.827  0.4962 -0.4382 -1.0979
  126SOL    HW2  503   4.764   2.218   4.914  0.7111 -0.6343 -1.4808
  126SOL     MW  504   4.699   2.253   4.867  0.3074 -0.1542 -0.5937
  127SOL     OW  505   1.652   2.692   2.354  0.2017 -0.0311  0.3455
  127SOL    HW1  506   1.625   2.769   2.303  0.4344 -0.2057 -0.0522
  127SOL    HW2  507   1.741   2.712   2.382 -0.0351  0.1885  0.9358
  127SOL     MW  508   1.660   2.704   2.351  0.2011 -0.0253  0.3701
  128SOL     OW  509   0.232   3.883   0.592 -0.3833  0.4506 -0.2343
  128SOL    HW1  510   0.229   3.881   0.496  0.3864 -1.0476 -0.2642
  128SOL    HW2  511   0.325   3.871   0.613 -0.2476  2.6525  0.7099
  128SOL     MW  512   0.244   3.882   0.582 -0.2674  0.5407 -0.1172
  129SOL     OW  513   4.148   2.806   5.186  0.3142 -0.0726  0.1107
  129SOL    HW1  514   4.243   2.799   5.187  0.3224  0.0374  0.0253
  129SOL    HW2  515   4.120   2.734   5.129  0.2343 -1.4260  1.8030
  129SOL     MW  516   4.156   2.796   5.178  0.3050 -0.2318  0.3164
  130SOL     OW  517   0.163   3.375   0.798 -0.3133 -0.2210  0.0489
  130SOL    HW1  518   0.217   3.303   0.766  0.2989  0.7384 -1.1430
  130SOL    HW2  519   0.094   3.385   0.732 -1.7588 -1.1737  1.3513
  130SOL     MW  520   0.161   3.367   0.786 -0.4200 -0.2201  0.0630
  131SOL     OW  521   1.325   3.010   2.936  0.0429 -0.3871  0.0340
  131SOL    HW1  522   1.350   3.002   2.844  0.4937 -0.0671  0.1276
  131SOL    HW2  523   1.394   3.063   2.975  0.2839 -1.1895  0.7298
  131SOL     MW  524   1.337   3.016   2.929  0.1315 -0.4488  0.1350
  132SOL     OW  525   2.134   4.098   3.200  0.0189  0.2471  1.0619
  132SOL    HW1  526   2.124   4.096   3.105  1.0613 -0.0949  0.9470
  132SOL    HW2  527   2.071   4.034   3.232  1.2526 -1.3698  0.4221
  132SOL     MW  528   2.125   4.090   3.192  0.3102 -0.0037  0.9653
  133SOL     OW  529   0.782   0.735   0.908  0.4502 -0.8997  0.1228
  133SOL    HW1  530   0.821   0.819   0.933 -0.6837 -0.0195 -0.9561
  133SOL    HW2  531   0.809   0.721   0.817 -0.4412 -1.0398 -0.1343
  133SOL     MW  532   0.790   0.744   0.900  0.1909 -0.8050 -0.0483
  134SOL     OW  533   4.331   1.220   1.825  0.1712 -0.3445  0.2477
  134SOL    HW1  534   4.319   1.254   1.914 -0.6764 -1.6523  0.6666
  134SOL    HW2  535   4.423   1.239   1.804  0.0456  1.0954  0.8986
  134SOL     MW  536   4.342   1.227   1.834  0.0466 -0.3276  0.3847
  135SOL     OW  537   5.433   3.582   4.592  0.0942  0.1313 -0.1416
  135SOL    HW1  538   5.398   3.665   4.626  1.9577  0.1803  1.9035
  135SOL    HW2  539   5.368   3.517   4.616 -0.2222  0.6717  0.5042
  135SOL     MW  540   5.420   3.584   4.599  0.2922  0.2067  0.2029
  136SOL     OW  541   4.325   3.652   2.339  0.0868  0.3960  0.2514
  136SOL    HW1  542   4.412   3.693   2.341  1.2963 -2.0272  0.5098
  136SOL    HW2  543   4.332   3.585   2.272 -1.3031 -0.4254  0.8972
  136SOL     MW  544   4.337   3.649   2.331  0.0637 -0.0194  0.3672
  137SOL     OW  545   4.323   2.288   4.109  0.1088 -0.1466 -0.4079
  137SOL    HW1  546   4.325   2.321   4.199  0.9847 -0.1594 -0.4140
  137SOL    HW2  547   4.354   2.361   4.056  0.9019 -0.5699 -0.5497
  137SOL     MW  548   4.327   2.301   4.114  0.3225 -0.2024 -0.4268
  138SOL     OW  549   1.677   3.102   4.004  0.3979 -0.1138  0.4441
  138SOL    HW1  550   1.684   3.007   3.995 -1.1705 -0.3675  1.4821
  138SOL    HW2  551   1.711   3.121   4.092  1.1034  0.3482  0.0810
  138SOL     MW  552   1.682   3.093   4.014  0.2874 -0.0872  0.5305
  139SOL     OW  553   0.965   0.219   3.128 -0.0145 -0.0729 -0.3871
  139SOL    HW1  554   1.057   0.221   3.104 -0.0802 -1.0891 -0.7672
  139SOL    HW2  555   0.945   0.126   3.142 -0.9802  0.1275 -0.3181
  139SOL     MW  556   0.974   0.207   3.127 -0.1465 -0.1773 -0.4269
  140SOL     OW  557   4.104   0.149   5.301 -0.5558 -0.2952 -0.0264
  140SOL    HW1  558   4.092   0.127   5.393 -1.5898  1.9055  0.4400
  140SOL    HW2  559   4.159   0.228   5.302 -1.5372  0.4510 -1.1910
  140SOL     MW  560   4.110   0.156   5.313 -0.8138  0.0820 -0.1158
  141SOL     OW  561   2.508   0.414   4.613  0.0668  0.1025 -0.1443
  141SOL    HW1  562   2.536   0.343   4.671 -0.3199 -0.3194 -0.4707
  141SOL    HW2  563   2.582   0.428   4.554  0.1810  0.0440 -0.0166
  141SOL     MW  564   2.521   0.407   4.613  0.0319  0.0410 -0.1697
  142SOL     OW  565   1.244   0.517   0.371 -0.0244 -0.3063  0.0148
  142SOL    HW1  566   1.281   0.462   0.302  0.7395 -0.2814  0.3885
  142SOL    HW2  567   1.321   0.555   0.414 -0.4777 -0.6600  1.1549
  142SOL     MW  568   1.259   0.515   0.368  0.0153 -0.3484  0.2085
  143SOL     OW  569   4.653   4.015   0.677  0.1194  0.0855 -0.2169
  143SOL    HW1  570   4.640   3.981   0.588  0.3508  1.5158 -0.8308
  143SOL    HW2  571   4.571   3.997   0.722 -0.3218  0.0949 -0.9971
  143SOL     MW  572   4.641   4.009   0.671  0.0925  0.2698 -0.3954
  144SOL     OW  573   4.948   5.467   1.489  0.1595 -0.0626 -0.6718
  144SOL    HW1  574   5.032   5.509   1.472 -0.9547  2.4215 -0.6052
  144SOL    HW2  575   4.903   5.468   1.405  0.0337 -0.9855 -0.6206
  144SOL     MW  576   4.953   5.473   1.476  0.0008  0.1373 -0.6567
  145SOL     OW  577   0.906   4.461   3.400  0.1791 -0.3283 -0.1877
  145SOL    HW1  578   0.990   4.506   3.408  0.2378 -0.3567 -0.6153
  145SOL    HW2  579   0.896   4.413   3.482  0.6229 -0.3928 -0.1715
  145SOL     MW  580   0.915   4.460   3.411  0.2435 -0.3402 -0.2404
  146SOL     OW  581   3.227   2.861   5.003 -0.4420 -0.2880 -0.0248
  146SOL    HW1  582   3.202   2.945   5.042 -1.4865  0.6179 -2.4028
  146SOL    HW2  583   3.158   2.800   5.030  0.2059 -0.3616  1.5399
  146SOL     MW  584   3.215   2.864   5.011 -0.4927 -0.1814 -0.1289
  147SOL     OW  585   2.395   4.987   1.201  0.3988 -0.3286  0.0525
  147SOL    HW1  586   2.409   4.945   1.117  0.1647  0.1020 -0.2020
  147SOL    HW2  587   2.325   4.936   1.242 -0.0765 -0.0165 -0.3696
  147SOL     MW  588   2.388   4.975   1.196  0.3080 -0.2335 -0.0341
  148SOL     OW  589   0.576   3.813   3.799  0.0507  0.2192 -0.2601
  148SOL    HW1  590   0.515   3.872   3.754 -0.0918 -0.3815 -0.8770
  148SOL    HW2  591   0.538   3.802   3.886 -1.2918 -0.9425 -0.9518
  148SOL     MW  592   0.563   3.819   3.804 -0.1394 -0.0064 -0.4276
  149SOL     OW  593   2.583   3.280   3.326 -0.6229  0.1610  0.0646
  149SOL    HW1  594   2.669   3.269   3.366 -1.1810 -1.3600  0.9357
  149SOL    HW2  595   2.593   3.247   3.237 -0.2234  0.2602  0.0732
  149SOL     MW  596   2.595   3.274   3.320 -0.6432 -0.0210  0.1772
  150SOL     OW  597   3.046   0.346   3.743 -0.3448 -0.4100  0.3824
  150SOL    HW1  598   2.978   0.291   3.782 -1.2546 -0.0052 -0.5814
  150SOL    HW2  599   3.010   0.434   3.745  0.4018 -0.0937  0.3819
  150SOL     MW  600   3.033   0.350   3.748 -0.3657 -0.3177  0.2590
  151SOL     OW  601   5.384   4.133   4.444  0.3513 -0.6452 -0.3819
  151SOL    HW1  602   5.369   4.053   4.393  1.8244 -0.7564 -0.6877
  151SOL    HW2  603   5.316   4.132   4.511 -0.4189 -1.5098 -1.1479
  151SOL     MW  604   5.374   4.122   4.446  0.4413 -0.7701 -0.5191
  152SOL     OW  605   2.087   0.140   0.098  0.2325 -0.0639  0.2611
  152SOL    HW1  606   2.078   0.163   0.006 -1.1380 -0.2976  0.3138
  152SOL    HW2  607   2.134   0.057   0.098 -0.3780 -0.4197 -0.2742
  152SOL     MW  608   2.092   0.133   0.086 -0.0211 -0.1394  0.1993
  153SOL     OW  609   2.008   3.698   0.935  0.0385  0.1084  0.0598
  153SOL    HW1  610   2.052   3.653   1.007 -0.6389 -0.3852  0.1816
  153SOL    HW2  611   2.029   3.790   0.947  0.0834  0.0066  0.7854
  153SOL     MW  612   2.016   3.704   0.946 -0.0425  0.0322  0.1683
  154SOL     OW  613   2.501   4.477   3.943 -0.0316  0.0822  0.2984
  154SOL    HW1  614   2.410   4.497   3.961  0.2922  0.4726  1.6444
  154SOL    HW2  615   2.550   4.538   3.999  1.0190 -1.4557  1.1215
  154SOL     MW  616   2.496   4.487   3.952  0.1443 -0.0647  0.5761
  155SOL     OW  617   0.938   4.566   3.788 -0.6466  0.0019  0.5802
  155SOL    HW1  618   0.872   4.573   3.857 -2.3289 -1.4654 -0.7657
  155SOL    HW2  619   0.988   4.487   3.810 -1.3343 -0.5997  0.0520
  155SOL     MW  620   0.936   4.557   3.800 -0.9500 -0.2629  0.3403
  156SOL     OW  621   3.959   4.887   0.815  0.4345  0.1214 -0.0526
  156SOL    HW1  622   3.971   4.811   0.758 -0.1015  0.2772 -0.3755
  156SOL    HW2  623   3.948   4.961   0.755 -0.3794  0.2493  0.2397
  156SOL     MW  624   3.959   4.887   0.800  0.2617  0.1577 -0.0565
  157SOL     OW  625   3.219   3.047   2.906  0.6564  0.2919 -0.3009
  157SOL    HW1  626   3.232   3.006   2.820  0.0294 -0.0449 -0.2402
  157SOL    HW2  627   3.295   3.021   2.957 -0.2207 -1.7023  0.0792
  157SOL     MW  628   3.231   3.039   2.901  0.4639 -0.0065 -0.2445
  158SOL     OW  629   1.767   0.196   0.714 -0.6474 -0.0444  0.4451
  158SOL    HW1  630   1.696   0.136   0.734  1.7366 -2.2810  3.0173
  158SOL    HW2  631   1.847   0.147   0.733  1.5607  3.3181  0.7978
  158SOL     MW  632   1.768   0.182   0.719 -0.0596  0.0997  0.8195
  159SOL     OW  633   3.437   0.303   2.048 -0.3590 -0.1086 -0.1172
  159SOL    HW1  634   3.410   0.285   1.958 -1.3278 -1.3192  0.3840
  159SOL    HW2  635   3.422   0.221   2.095  1.4966  0.0441  0.8563
  159SOL     MW  636   3.432   0.290   2.043 -0.2455 -0.2440  0.0716
  160SOL     OW  637   5.190   0.608   3.810  0.2160 -0.2360 -0.2736
  160SOL    HW1  638   5.132   0.623   3.885  0.1446 -0.3043 -0.3150
  160SOL    HW2  639   5.133   0.617   3.734  0.5753  1.3113 -0.3967
  160SOL     MW  640   5.175   0.611   3.810  0.2528 -0.0466 -0.2947
  161SOL     OW  641   0.902   2.678   5.424 -0.1636 -0.3987 -0.0609
  161SOL    HW1  642   0.926   2.655   5.514 -2.0896 -2.0057  0.1144
  161SOL    HW2  643   0.985   2.690   5.379  1.0092 -3.8701  0.8946
  161SOL     MW  644   0.916   2.676   5.430 -0.2600 -1.0488  0.0838
  162SOL     OW  645   3.884   1.521   4.082 -0.4819 -0.3109  0.5493
  162SOL    HW1  646   3.934   1.491   4.006  1.4033 -1.2246  2.0939
  162SOL    HW2  647   3.876   1.615   4.069 -0.1939 -0.4440 -0.7651
  162SOL     MW  648   3.889   1.529   4.071 -0.2037 -0.4449  0.5788
  163SOL     OW  649   3.413   0.928   0.563  0.4326 -0.0635  0.4975
  163SOL    HW1  650   3.433   0.875   0.639 -0.3862 -0.9856  0.0853
  163SOL    HW2  651   3.318   0.936   0.563  0.4940  0.7871  0.1419
  163SOL     MW  652   3.404   0.922   0.572  0.3357 -0.0726  0.3992
  164SOL     OW  653   3.525   0.503   1.052 -0.5872 -0.4988 -0.3187
  164SOL    HW1  654   3.434   0.475   1.063 -0.0039 -2.4173 -0.0783
  164SOL    HW2  655   3.554   0.528   1.140  0.1732 -3.4284  0.3588
  164SOL     MW  656   3.517   0.503   1.064 -0.4152 -1.1194 -0.2012
  165SOL     OW  657   2.420   0.327   0.092 -0.2657 -0.0088  0.2514
  165SOL    HW1  658   2.460   0.299   0.174  2.2166  2.4387  0.0480
  165SOL    HW2  659   2.334   0.361   0.117 -1.0579 -2.5162  1.2171
  165SOL     MW  660   2.414   0.328   0.105 -0.0493 -0.0165  0.3490
  166SOL     OW  661   0.849   3.718   3.861 -0.1700 -0.5626  0.0661
  166SOL    HW1  662   0.904   3.783   3.817  0.0861 -1.1772 -0.5367
  166SOL    HW2  663   0.762   3.731   3.823 -0.7283  1.1068  1.7572
  166SOL     MW  664   0.845   3.728   3.851 -0.2087 -0.4276  0.2054
  167SOL     OW  665   2.708   0.085   1.387 -0.1249 -0.3975 -0.3345
  167SOL    HW1  666   2.648   0.147   1.428  1.6552  0.5966  0.9198
  167SOL    HW2  667   2.676  -0.001   1.412 -0.4112  0.1337  1.2146
  167SOL     MW  668   2.696   0.082   1.395  0.0663 -0.2022  0.0244
  168SOL     OW  669   0.274   0.568   0.998 -0.2013  0.1048  0.5483
  168SOL    HW1  670   0.234   0.497   0.948 -0.4539 -0.3627  1.3898
  168SOL    HW2  671   0.345   0.600   0.942  0.0135 -0.9189  0.2130
  168SOL     MW  672   0.278   0.563   0.985 -0.2061 -0.0861  0.6131
  169SOL     OW  673   4.797   3.983   2.524  0.4905  0.3136  0.0446
  169SOL    HW1  674   4.707   4.007   2.500  0.5589  0.6675  0.1398
  169SOL    HW2  675   4.823   3.920   2.457 -0.4167 -1.1021  0.9741
  169SOL     MW  676   4.789   3.978   2.512  0.3831  0.1777  0.1758
  170SOL     OW  677   0.485   2.172   2.318 -0.0106 -0.0411  0.2335
  170SOL    HW1  678   0.510   2.098   2.262 -0.1705 -0.3631  0.5845
  170SOL    HW2  679   0.473   2.245   2.257 -1.2877 -0.6649 -0.3016
  170SOL     MW  680   0.487   2.172   2.303 -0.1945 -0.1621  0.2100
  171SOL     OW  681   0.506   2.051   1.752  0.1443 -0.2490 -0.1867
  171SOL    HW1  682   0.489   2.109   1.678 -0.5264 -1.3479 -0.9247
  171SOL    HW2  683   0.418   2.028   1.784  0.4060 -0.7484  0.1783
  171SOL     MW  684   0.492   2.055   1.747  0.0920 -0.4536 -0.2345
  172SOL     OW  685   0.337   4.017   1.181  0.4819 -0.7360 -0.6007
  172SOL    HW1  686   0.259   4.055   1.141 -0.6613 -0.4909  1.6641
  172SOL    HW2  687   0.380   4.091   1.224  0.6288 -1.2563  0.1802
  172SOL     MW  688   0.333   4.031   1.182  0.3544 -0.7712 -0.2108
  173SOL     OW  689   2.748   1.381   4.641  0.3037 -0.1647  0.5376
  173SOL    HW1  690   2.663   1.338   4.654 -0.7761  1.4465 -0.7577
  173SOL    HW2  691   2.762   1.431   4.721  0.0046 -0.3948  0.7389
  173SOL     MW  692   2.739   1.382   4.653  0.1272  0.0121  0.3976
  174SOL     OW  693   0.581   2.047   5.168  0.2579 -0.1452  0.2668
  174SOL    HW1  694   0.556   2.122   5.114  0.6446  0.7365  1.2737
  174SOL    HW2  695   0.632   2.085   5.239  0.8015 -1.4211  0.5818
  174SOL     MW  696   0.584   2.061   5.170  0.3770 -0.1956  0.4360
  175SOL     OW  697   0.497   4.193   1.583 -0.6034  0.2739  0.1749
  175SOL    HW1  698   0.457   4.270   1.623 -0.0588 -0.1614  1.6007
  175SOL    HW2  699   0.589   4.198   1.608 -0.7262 -1.2801  0.9932
  175SOL     MW  700   0.504   4.204   1.591 -0.5494  0.0192  0.4622
  176SOL     OW  701   3.889   4.412   4.224  0.2882  0.1686  0.9043
  176SOL    HW1  702   3.983   4.400   4.216  0.2919  0.7618 -0.1843
  176SOL    HW2  703   3.858   4.335   4.272  1.3104 -0.0792  1.1713
  176SOL     MW  704   3.897   4.400   4.229  0.4196  0.2129  0.7991
  177SOL     OW  705   0.672   4.566   4.721 -0.0456 -0.4397  0.2852
  177SOL    HW1  706   0.758   4.557   4.763  0.3944  1.1841 -0.2093
  177SOL    HW2  707   0.688   4.542   4.629  0.0390  0.4551  0.0556
  177SOL     MW  708   0.685   4.561   4.714  0.0215 -0.1173  0.1925
  178SOL     OW  709   5.116   0.888   0.028 -0.0146 -0.3605  0.4056
  178SOL    HW1  710   5.151   0.803   0.057  2.6638  1.3067  2.5734
  178SOL    HW2  711   5.038   0.901   0.082  0.6310 -0.6595  1.4554
  178SOL     MW  712   5.111   0.879   0.039  0.4109 -0.1853  0.8175
  179SOL     OW  713   1.067   4.557   0.743  0.0617  0.2064  0.3614
  179SOL    HW1  714   1.135   4.491   0.736 -0.6234 -0.7853  2.3418
  179SOL    HW2  715   0.994   4.522   0.691  0.6302  0.7036 -0.7851
  179SOL     MW  716   1.066   4.544   0.736  0.0468  0.1431  0.4681
  180SOL     OW  717   4.106   0.325   2.014 -0.5007  0.3758 -0.6990
  180SOL    HW1  718   4.136   0.324   2.105 -0.5586 -1.5908 -0.6569
  180SOL    HW2  719   4.167   0.384   1.970 -0.5823  1.5164  0.6212
  180SOL     MW  720   4.118   0.333   2.020 -0.5186  0.2701 -0.5246
  181SOL     OW  721   2.123   1.380   1.439 -0.1363  0.8344 -0.1400
  181SOL    HW1  722   2.034   1.412   1.456 -0.2490  0.4517  0.0117
  181SOL    HW2  723   2.137   1.312   1.505 -0.4549 -0.4544 -1.3494
  181SOL     MW  724   2.113   1.376   1.450 -0.1915  0.6204 -0.2754
  182SOL     OW  725   0.335   5.245   3.999  0.2860 -0.5373 -0.4846
  182SOL    HW1  726   0.379   5.288   4.073 -1.0593  0.7571 -0.3781
  182SOL    HW2  727   0.291   5.169   4.037  0.5582 -0.5396 -0.1754
  182SOL     MW  728   0.335   5.241   4.013  0.1486 -0.3719 -0.4314
  183SOL     OW  729   1.627   0.102   5.124  0.2478 -0.3380  1.0282
  183SOL    HW1  730   1.585   0.173   5.171  0.4191 -0.1658  0.9229
  183SOL    HW2  731   1.710   0.088   5.170  1.3243  1.1342 -0.3614
  183SOL     MW  732   1.632   0.109   5.136  0.4075 -0.1275  0.8368
  184SOL     OW  733   1.863   4.596   0.584  0.1080 -0.1683 -0.1674
  184SOL    HW1  734   1.948   4.631   0.612 -0.4578  0.0829  1.3256
  184SOL    HW2  735   1.799   4.645   0.635 -0.8993 -0.9286 -0.6644
  184SOL     MW  736   1.866   4.607   0.594 -0.0934 -0.2334 -0.0399
  185SOL     OW  737   0.827   2.382   4.394 -0.1205  0.0688  0.1176
  185SOL    HW1  738   0.784   2.466   4.413 -1.6725 -0.8103  0.6843
  185SOL    HW2  739   0.916   2.392   4.430 -0.7908  0.9266  1.6454
  185SOL     MW  740   0.833   2.394   4.401 -0.4050  0.0661  0.3857
  186SOL     OW  741   3.628   1.978   3.439 -0.0443  0.3043  0.1661
  186SOL    HW1  742   3.651   1.892   3.403 -0.5082 -0.2103  1.0734
  186SOL    HW2  743   3.590   1.959   3.524 -0.8125  1.3678  0.0736
  186SOL     MW  744   3.626   1.965   3.445 -0.2021  0.3745  0.2704
  187SOL     OW  745   0.953   0.593   4.269  0.1595 -0.0805  0.4163
  187SOL    HW1  746   1.042   0.625   4.251  0.4924 -0.9495  0.4611
  187SOL    HW2  747   0.953   0.503   4.235 -1.0071  0.2410 -0.4533
  187SOL     MW  748   0.965   0.585   4.263  0.0528 -0.1506  0.3107
  188SOL     OW  749   2.689   1.714   1.525  0.1353  0.2046  0.4822
  188SOL    HW1  750   2.749   1.665   1.468  1.1211 -0.3675  1.9418
  188SOL    HW2  751   2.734   1.717   1.609 -1.8676 -0.1811  1.6289
  188SOL     MW  752   2.703   1.708   1.529  0.0051  0.0820  0.8158
  189SOL     OW  753   1.737   1.984   2.451 -0.5789  0.3583 -0.1182
  189SOL    HW1  754   1.832   1.986   2.435 -0.5437  0.7322  0.1258
  189SOL    HW2  755   1.701   2.044   2.385 -0.6878 -0.1000 -0.4794
  189SOL     MW  756   1.745   1.992   2.440 -0.5884  0.3475 -0.1332
  190SOL     OW  757   2.899   0.447   1.046  0.1255 -0.3966  0.5938
  190SOL    HW1  758   2.961   0.379   1.070 -0.8493 -1.1496  1.0654
  190SOL    HW2  759   2.844   0.459   1.124 -0.0981  0.5025  0.3134
  190SOL     MW  760   2.900   0.440   1.059 -0.0279 -0.3779  0.6183
  191SOL     OW  761   2.042   4.178   0.276  0.4390 -0.0619 -0.2595
  191SOL    HW1  762   2.033   4.083   0.264 -1.3554 -0.0137  0.3290
  191SOL    HW2  763   2.074   4.188   0.366 -0.6881 -0.1132  0.1686
  191SOL     MW  764   2.045   4.167   0.286  0.0650 -0.0623 -0.1294
  192SOL     OW  765   3.157   1.798   4.424 -0.1404 -0.5065  0.0403
  192SOL    HW1  766   3.181   1.803   4.331 -0.1094  0.7336  0.0952
  192SOL    HW2  767   3.067   1.766   4.424  0.2841 -1.7569 -0.3428
  192SOL     MW  768   3.149   1.794   4.412 -0.0821 -0.5078 -0.0017
  193SOL     OW  769   2.883   1.558   0.177  0.4876  0.3190 -0.0125
  193SOL    HW1  770   2.897   1.498   0.104 -0.2162  0.3840 -0.2126
  193SOL    HW2  771   2.930   1.518   0.250  0.7060 -0.0514 -0.3528
  193SOL     MW  772   2.891   1.545   0.177  0.4254  0.2799 -0.0817
  194SOL     OW  773   4.870   0.081   1.946  0.5685 -0.2014  1.0095
  194SOL    HW1  774   4.922   0.051   1.872  1.9400  2.7161  0.6750
  194SOL    HW2  775   4.795   0.126   1.907  1.5636  1.8011  1.2895
  194SOL     MW  776   4.867   0.083   1.932  0.8715  0.4284  1.0025
  195SOL     OW  777   0.592   3.502   1.878  0.1170 -0.2682  0.4847
  195SOL    HW1  778   0.601   3.407   1.870 -0.1485 -0.1827 -1.1919
  195SOL    HW2  779   0.518   3.524   1.821 -0.8568  0.7826  2.0846
  195SOL     MW  780   0.584   3.493   1.869 -0.0417 -0.1227  0.4749
  196SOL     OW  781   0.733   2.650   3.275  0.0837 -0.4534  0.6787
  196SOL    HW1  782   0.678   2.573   3.287 -0.7147 -0.2882 -1.4782
  196SOL    HW2  783   0.672   2.719   3.247  1.1216  0.2261  0.0089
  196SOL     MW  784   0.718   2.649   3.273  0.1143 -0.3453  0.3168
  197SOL     OW  785   1.808   4.821   2.275  0.0197 -0.0651  0.2663
  197SOL    HW1  786   1.869   4.859   2.212 -1.0739  1.6748  0.1844
  197SOL    HW2  787   1.736   4.884   2.279 -0.4773 -0.6974  2.3990
  197SOL     MW  788   1.807   4.834   2.267 -0.1839  0.0767  0.5288
  198SOL     OW  789   4.679   2.244   3.340 -0.1718 -0.3702 -0.2301
  198SOL    HW1  790   4.611   2.260   3.273 -0.1854  0.9953  0.0864
  198SOL    HW2  791   4.637   2.268   3.422  0.5799  0.1629  0.0079
  198SOL     MW  792   4.665   2.249   3.342 -0.0773 -0.1271 -0.1591
  199SOL     OW  793   3.936   3.509   3.977 -0.0458 -0.0281 -0.1909
  199SOL    HW1  794   3.933   3.425   4.022  0.1598 -0.1135 -0.3382
  199SOL    HW2  795   3.951   3.488   3.885 -0.1568  0.1619 -0.2546
  199SOL     MW  796   3.938   3.496   3.971 -0.0337 -0.0147 -0.2179
  200SOL     OW  797   5.274   4.143   5.337 -0.2619  0.4890  0.0575
  200SOL    HW1  798   5.348   4.203   5.332  0.6016 -0.5912 -0.5136
  200SOL    HW2  799   5.298   4.080   5.405 -0.4904 -0.0706 -0.3681
  200SOL     MW  800   5.286   4.142   5.345 -0.1806  0.2791 -0.0701
  201SOL     OW  801   1.785   3.383   1.223 -0.7983  0.2820  0.5564
  201SOL    HW1  802   1.783   3.329   1.302 -1.7914  1.9267  1.7174
  201SOL    HW2  803   1.706   3.359   1.175 -0.3067 -0.5600  0.1357
  201SOL     MW  804   1.775   3.373   1.227 -0.8625  0.3847  0.6512
  202SOL     OW  805   4.183   4.788   1.700  0.2534  0.5240  0.5576
  202SOL    HW1  806   4.220   4.779   1.613  2.4666 -0.9202  1.5511
  202SOL    HW2  807   4.210   4.709   1.747  0.0291  1.6992  2.8483
  202SOL     MW  808   4.191   4.777   1.695  0.5080  0.4895  0.9780
  203SOL     OW  809   0.919   5.120   0.862 -0.2733 -0.2146  0.4970
  203SOL    HW1  810   0.981   5.191   0.880 -0.4877  0.4657 -1.2148
  203SOL    HW2  811   0.963   5.042   0.895  1.8787  0.1378 -1.2550
  203SOL     MW  812   0.933   5.119   0.868 -0.0253 -0.0824  0.0536
  204SOL     OW  813   3.299   2.252   3.867 -0.2621  0.0065 -0.7785
  204SOL    HW1  814   3.207   2.244   3.893  0.3161 -0.2307  1.4016
  204SOL    HW2  815   3.297   2.260   3.772 -2.4983 -0.6560 -0.8330
  204SOL     MW  816   3.287   2.252   3.858 -0.4744 -0.1087 -0.5064
  205SOL     OW  817   4.818   0.931   4.432  0.0995 -0.7186  0.1037
  205SOL    HW1  818   4.794   0.840   4.413 -0.0042 -0.8682  0.8811
  205SOL    HW2  819   4.847   0.929   4.524  0.4544 -0.0333  0.0141
  205SOL     MW  820   4.818   0.919   4.442  0.1317 -0.6500  0.1918
  206SOL     OW  821   4.032   1.127   3.549  0.0117 -0.1385  0.2355
  206SOL    HW1  822   3.968   1.177   3.600 -0.1140 -0.5361  0.4712
  206SOL    HW2  823   4.033   1.170   3.464 -0.8807 -0.3826  0.0906
  206SOL     MW  824   4.024   1.139   3.545 -0.1187 -0.2206  0.2471
  207SOL     OW  825   0.889   1.448   1.890 -0.0757  0.5038 -1.2042
  207SOL    HW1  826   0.797   1.473   1.890  0.2469  1.7161 -0.4910
  207SOL    HW2  827   0.908   1.424   1.981  0.8519  2.3611 -0.8722
  207SOL     MW  828   0.880   1.448   1.901  0.0843  0.8967 -1.0704
  208SOL     OW  829   1.588   0.708   2.385 -0.1878  0.4265 -0.5340
  208SOL    HW1  830   1.494   0.695   2.372  0.1061 -2.3429 -0.4452
  208SOL    HW2  831   1.629   0.643   2.327  1.5750 -0.3763  1.4935
  208SOL     MW  832   1.581   0.698   2.376  0.0755 -0.0308 -0.2630
  209SOL     OW  833   1.626   2.357   0.190  0.2629  0.5675 -0.0049
  209SOL    HW1  834   1.536   2.357   0.158  0.5471 -1.5175 -1.0202
  209SOL    HW2  835   1.670   2.423   0.137  0.0530 -0.8151 -2.0417
  209SOL     MW  836   1.620   2.365   0.179  0.2724  0.1236 -0.3956
  210SOL     OW  837   5.316   4.726   3.200 -0.3040 -0.4075  0.0499
  210SOL    HW1  838   5.240   4.766   3.156 -1.6264 -0.0390  2.4838
  210SOL    HW2  839   5.279   4.655   3.252  0.8469  0.3665  2.0212
  210SOL     MW  840   5.301   4.722   3.201 -0.3260 -0.2612  0.6139
  211SOL     OW  841   4.006   3.945   3.238 -0.6750  0.7273  0.0982
  211SOL    HW1  842   4.003   4.038   3.261 -0.7731  0.4903  1.0525
  211SOL    HW2  843   3.963   3.901   3.310  0.5502 -0.1852  0.3036
  211SOL     MW  844   4.000   3.952   3.250 -0.5307  0.5801  0.2467
  212SOL     OW  845   1.947   4.630   3.583 -0.2161  0.1167  0.2069
  212SOL    HW1  846   1.906   4.634   3.670 -0.2447 -1.8473  0.3430
  212SOL    HW2  847   1.910   4.704   3.535 -2.1161 -0.1923  1.0955
  212SOL     MW  848   1.937   4.640   3.588 -0.4630 -0.1742  0.3381
  213SOL     OW  849   4.565   3.813   0.453  0.0386 -0.3085 -0.3684
  213SOL    HW1  850   4.516   3.879   0.404  0.1731 -0.7210 -1.0776
  213SOL    HW2  851   4.498   3.765   0.502 -0.2253 -0.5590 -0.9616
  213SOL     MW  852   4.550   3.815   0.453  0.0220 -0.3934 -0.5351
  214SOL     OW  853   2.311   1.060   3.108 -0.1931 -0.1359 -0.5000
  214SOL    HW1  854   2.275   1.128   3.165  0.1409  0.0801 -0.5419
  214SOL    HW2  855   2.389   1.029   3.154 -0.1071 -0.1937 -0.6826
  214SOL     MW  856   2.316   1.065   3.121 -0.1393 -0.1157 -0.5287
  215SOL     OW  857   5.387   0.487   4.530  0.0696 -0.2595  1.1481
  215SOL    HW1  858   5.314   0.539   4.565 -0.2707  0.4615 -0.5264
  215SOL    HW2  859   5.363   0.471   4.438  1.9003 -0.2262  0.6245
  215SOL     MW  860   5.374   0.492   4.522  0.2604 -0.1630  0.8667
  216SOL     OW  861   0.766   1.540   0.392 -0.4581 -0.3480  0.5524
  216SOL    HW1  862   0.676   1.506   0.384 -0.8806  0.7201  0.6412
  216SOL    HW2  863   0.809   1.479   0.451 -0.6194 -1.8446 -0.7893
  216SOL     MW  864   0.760   1.528   0.398 -0.5329 -0.4028  0.3921
  217SOL     OW  865   5.192   4.281   3.116  0.4416  0.0006 -0.0244
  217SOL    HW1  866   5.288   4.281   3.112  0.4782 -1.0381  0.4440
  217SOL    HW2  867   5.168   4.191   3.094 -0.3133 -0.3223  1.9345
  217SOL     MW  868   5.201   4.269   3.113  0.3496 -0.1737  0.2863
  218SOL     OW  869   3.872   4.748   2.416  0.2581 -0.5247 -0.1040
  218SOL    HW1  870   3.779   4.742   2.397  0.7000  0.8190 -3.3247
  218SOL    HW2  871   3.883   4.704   2.501 -3.2030 -0.9602  0.2313
  218SOL     MW  872   3.862   4.742   2.425 -0.1284 -0.4085 -0.4734
  219SOL     OW  873   2.079   4.167   0.773  0.0295 -0.1255 -0.2967
  219SOL    HW1  874   2.009   4.101   0.772  0.9246 -1.0968 -1.2571
  219SOL    HW2  875   2.160   4.117   0.768  0.7925  1.0154  0.1125
  219SOL     MW  876   2.080   4.152   0.772  0.2418 -0.1038 -0.3673
  220SOL     OW  877   5.450   5.119   1.092 -0.0776  0.0996 -0.4918
  220SOL    HW1  878   5.509   5.054   1.055 -0.2269 -1.6332  2.0914
  220SOL    HW2  879   5.374   5.069   1.121 -0.4514  1.4647  1.0361
  220SOL     MW  880   5.448   5.104   1.091 -0.1445  0.0525  0.0345
  221SOL     OW  881   3.800   4.664   0.909 -0.4472 -0.2460 -0.3295
  221SOL    HW1  882   3.705   4.670   0.901 -0.5365 -0.9628  0.0955
  221SOL    HW2  883   3.833   4.740   0.861 -1.2473  0.2965 -0.0455
  221SOL     MW  884   3.792   4.675   0.902 -0.5611 -0.2683 -0.2387
  222SOL     OW  885   0.006   4.710   1.971  0.2530  0.1546 -0.2722
  222SOL    HW1  886  -0.045   4.630   1.960 -0.5091  0.7381 -1.0221
  222SOL    HW2  887   0.065   4.690   2.044 -0.6149 -0.7412  0.2095
  222SOL     MW  888   0.007   4.697   1.979  0.0443  0.1146 -0.3065
  223SOL     OW  889   4.127   0.384   0.194 -0.0521 -0.7615 -0.1322
  223SOL    HW1  890   4.059   0.358   0.131  0.5236  0.6846 -1.4360
  223SOL    HW2  891   4.209   0.351   0.156  0.3562  0.4946 -0.4063
  223SOL     MW  892   4.129   0.377   0.181  0.0738 -0.4156 -0.3342
  224SOL     OW  893   0.419   4.454   1.671 -0.1773 -0.0842  0.0443
  224SOL    HW1  894   0.472   4.525   1.708 -0.6948  0.2921  0.0772
  224SOL    HW2  895   0.334   4.463   1.713 -1.1320  1.0376 -1.9732
  224SOL     MW  896   0.415   4.465   1.681 -0.3658  0.1076 -0.2098
  225SOL     OW  897   0.664   1.380   2.431  0.1221  0.0846  0.2038
  225SOL    HW1  898   0.597   1.313   2.448  1.2098 -1.2837 -0.6857
  225SOL    HW2  899   0.645   1.411   2.343  0.2888  0.1483  0.1898
  225SOL     MW  900   0.653   1.376   2.422  0.2826 -0.0824  0.0882
  226SOL     OW  901   5.051   5.184   1.820  0.2187 -0.4566 -0.5234
  226SOL    HW1  902   4.976   5.128   1.839  0.1083 -0.5412 -1.2007
  226SOL    HW2  903   5.106   5.178   1.898 -1.1099  0.6498  0.5443
  226SOL     MW  904   5.048   5.176   1.832  0.0345 -0.3258 -0.4734
  227SOL     OW  905   2.574   0.369   2.701 -0.1796  0.1291  0.3725
  227SOL    HW1  906   2.518   0.296   2.674 -0.5872  0.4402  0.3647
  227SOL    HW2  907   2.663   0.334   2.698 -0.0747  0.4561 -2.4944
  227SOL     MW  908   2.579   0.355   2.697 -0.2184  0.2108  0.0045
  228SOL     OW  909   0.174   3.277   3.254  0.2031  0.0825  0.3108
  228SOL    HW1  910   0.269   3.283   3.264  0.2990 -0.3553 -0.2612
  228SOL    HW2  911   0.139   3.325   3.329  0.8710  0.7026  0.2364
  228SOL     MW  912   0.182   3.284   3.265  0.3009  0.1058  0.2280
  229SOL     OW  913   1.413   3.108   4.855  0.1490 -0.0423 -0.7580
  229SOL    HW1  914   1.456   3.183   4.895 -0.5768  0.5941 -1.1461
  229SOL    HW2  915   1.428   3.119   4.761  1.3127 -1.1942 -0.7294
  229SOL     MW  916   1.421   3.119   4.848  0.2050 -0.1083 -0.8040
  230SOL     OW  917   0.397   3.792   2.308 -0.1130 -0.2284 -0.7204
  230SOL    HW1  918   0.448   3.724   2.265  1.5628  0.2173  0.4696
  230SOL    HW2  919   0.427   3.874   2.268 -0.1791  0.0137 -0.2793
  230SOL     MW  920   0.407   3.794   2.297  0.0931 -0.1403 -0.5116
  231SOL     OW  921   0.322   5.119   5.004  0.0855 -0.3985  0.0063
  231SOL    HW1  922   0.350   5.210   5.012 -1.9614  0.3924 -0.9595
  231SOL    HW2  923   0.400   5.072   4.975  0.9148  1.2608 -0.6039
  231SOL     MW  924   0.335   5.125   5.001 -0.0704 -0.0849 -0.1955
  232SOL     OW  925   4.822   5.453   1.237 -0.2813 -0.1383 -0.3653
  232SOL    HW1  926   4.836   5.538   1.195  0.1029 -0.7181 -1.4515
  232SOL    HW2  927   4.867   5.390   1.179  0.5985 -0.9291  1.1086
  232SOL     MW  928   4.830   5.456   1.224 -0.1195 -0.3138 -0.3156
  233SOL     OW  929   2.644   0.602   4.403  0.0480  0.1565 -0.0329
  233SOL    HW1  930   2.620   0.535   4.338  1.1943 -0.7262  0.4089
  233SOL    HW2  931   2.701   0.663   4.355 -0.8145  0.7046 -0.3786
  233SOL     MW  932   2.648   0.601   4.389  0.0844  0.1136 -0.0206
  234SOL     OW  933   5.231   0.497   1.407 -0.1986  0.2723  0.9059
  234SOL    HW1  934   5.150   0.542   1.434 -1.2003 -0.5423 -0.5929
  234SOL    HW2  935   5.206   0.448   1.329  1.9824  0.7074 -0.1480
  234SOL     MW  936   5.217   0.497   1.400 -0.0476  0.2237  0.5791
  235SOL     OW  937   3.269   3.898   0.870  0.4145  0.3444 -0.1951
  235SOL    HW1  938   3.334   3.968   0.860  0.0676  0.4132 -2.3020
  235SOL    HW2  939   3.219   3.900   0.789 -0.9008 -1.0688  0.5410
  235SOL     MW  940   3.271   3.908   0.858  0.2017  0.1723 -0.3706
  236SOL     OW  941   1.763   3.316   3.782 -0.0582  0.1495  0.2463
  236SOL    HW1  942   1.735   3.308   3.691  0.2080  0.8651  0.0922
  236SOL    HW2  943   1.763   3.226   3.816  1.9379 -0.4222 -1.0923
  236SOL     MW  944   1.760   3.303   3.775  0.2314  0.1679  0.0553
  237SOL     OW  945   3.616   3.390   0.510  0.5977 -0.0541 -0.2998
  237SOL    HW1  946   3.704   3.363   0.538  0.9175 -0.9007 -1.9540
  237SOL    HW2  947   3.557   3.338   0.564  1.1189  0.3552  0.6739
  237SOL     MW  948   3.620   3.380   0.520  0.7054 -0.1101 -0.3869
  238SOL     OW  949   0.043   1.445   1.860  0.5218  0.3057  0.0825
  238SOL    HW1  950  -0.024   1.506   1.831  0.3572 -0.3211 -0.9064
  238SOL    HW2  951   0.097   1.429   1.782 -1.5834 -3.5995 -0.8213
  238SOL     MW  952   0.042   1.451   1.847  0.2312 -0.2744 -0.1598
  239SOL     OW  953   0.616   4.661   1.833  0.0403  0.1454 -0.2019
  239SOL    HW1  954   0.562   4.740   1.826 -0.8967 -0.2640  1.8383
  239SOL    HW2  955   0.703   4.689   1.803 -0.6495  1.5240 -0.9946
  239SOL     MW  956   0.621   4.675   1.828 -0.1680  0.2695 -0.0422
  240SOL     OW  957   0.029   5.042   0.285  0.0533 -0.1891  0.0993
  240SOL    HW1  958   0.106   5.035   0.340  0.2362 -0.7748 -0.2257
  240SOL    HW2  959   0.055   5.003   0.201 -0.5529 -0.2802 -0.0524
  240SOL     MW  960   0.042   5.036   0.281 -0.0009 -0.2757  0.0383
  241SOL     OW  961   1.538   2.371   1.098 -0.4617 -0.3927  0.4208
  241SOL    HW1  962   1.591   2.408   1.168 -1.4291  1.7918  0.0726
  241SOL    HW2  963   1.580   2.403   1.017 -0.9703 -0.5611  0.0886
  241SOL     MW  964   1.550   2.380   1.096 -0.6506 -0.1346  0.3337
  242SOL     OW  965   1.677   2.644   5.035  0.3876  0.7161 -0.1245
  242SOL    HW1  966   1.612   2.705   5.070 -0.0833  0.8854 -1.2337
  242SOL    HW2  967   1.702   2.590   5.109 -0.6365  0.9945  0.4467
  242SOL     MW  968   1.672   2.645   5.049  0.1962  0.7734 -0.1934
  243SOL     OW  969   0.626   2.448   2.425 -0.4863  0.2188 -0.2752
  243SOL    HW1  970   0.638   2.353   2.414  0.7185  0.0681  1.8307
  243SOL    HW2  971   0.677   2.487   2.354  0.0484 -0.7051 -0.4115
  243SOL     MW  972   0.634   2.441   2.414 -0.2636  0.0812 -0.0231
  244SOL     OW  973   1.694   3.088   0.616  0.3582  0.5829 -0.4140
  244SOL    HW1  974   1.645   3.114   0.694  1.5905 -1.1110  1.0166
  244SOL    HW2  975   1.782   3.123   0.630  0.1816  1.7005 -1.8862
  244SOL     MW  976   1.699   3.096   0.628  0.4933  0.5091 -0.4193
  245SOL     OW  977   2.704   2.488   2.051  0.3931 -0.3905 -0.2326
  245SOL    HW1  978   2.661   2.558   2.001  1.8268 -0.9305 -2.3350
  245SOL    HW2  979   2.783   2.467   2.001  1.4204 -1.6695  1.7889
  245SOL     MW  980   2.708   2.494   2.039  0.7082 -0.6234 -0.2429
  246SOL     OW  981   4.746   1.551   5.268  0.5393 -0.3021  0.0733
  246SOL    HW1  982   4.685   1.623   5.284  1.9298  0.8295  0.4844
  246SOL    HW2  983   4.769   1.518   5.355  0.3283 -0.8879 -0.0892
  246SOL     MW  984   4.742   1.556   5.281  0.6903 -0.2323  0.1051
  247SOL     OW  985   2.651   1.097   3.106  0.2488  0.6435 -0.6701
  247SOL    HW1  986   2.610   1.089   3.192  0.2061 -0.7668 -0.8098
  247SOL    HW2  987   2.628   1.017   3.060  2.2935  0.2598 -1.1238
  247SOL     MW  988   2.643   1.086   3.111  0.5051  0.4139 -0.7461
  248SOL     OW  989   3.331   1.189   0.351  0.1400  0.1989  0.9343
  248SOL    HW1  990   3.252   1.149   0.389 -0.9584  1.9595  0.6098
  248SOL    HW2  991   3.344   1.142   0.269  0.1404 -0.8967  1.5348
  248SOL     MW  992   3.322   1.178   0.346 -0.0006  0.2840  0.9697
  249SOL     OW  993   0.520   1.224   0.595  0.3111 -0.5511 -0.5789
  249SOL    HW1  994   0.427   1.211   0.578  0.4680  0.6115 -2.7505
  249SOL    HW2  995   0.557   1.136   0.594 -0.6987 -0.9891 -0.1687
  249SOL     MW  996   0.513   1.211   0.593  0.2019 -0.4584 -0.8044
  250SOL     OW  997   1.788   0.487   1.381 -0.2041  0.1792  0.2639
  250SOL    HW1  998   1.720   0.435   1.425 -0.6879  0.8203  0.2898
  250SOL    HW2  999   1.843   0.520   1.452 -0.3607  0.3426  0.3108
  250SOL     MW 1000   1.786   0.485   1.395 -0.2861  0.2822  0.2732
  251SOL     OW 1001   0.352   1.597   0.764 -0.7207 -0.1940 -0.5654
  251SOL    HW1 1002   0.330   1.505   0.782  0.3819 -0.1524  1.3532
  251SOL    HW2 1003   0.270   1.644   0.779 -0.2850 -0.3509  3.6329
  251SOL     MW 1004   0.339   1.591   0.768 -0.5238 -0.2087  0.2176
  252SOL     OW 1005   2.942   2.254   4.240  0.3604  0.2127  0.1107
  252SOL    HW1 1006   2.986   2.183   4.287  1.5105 -0.1259 -1.3909
  252SOL    HW2 1007   2.993   2.332   4.261 -1.5804  0.9422  2.7104
  252SOL     MW 1008   2.954   2.255   4.249  0.2592  0.2627  0.2513
  253SOL     OW 1009   4.334   0.519   4.656  0.3452 -0.0002  0.9525
  253SOL    HW1 1010   4.426   0.489   4.654 -0.2633 -2.2763  2.3787
  253SOL    HW2 1011   4.302   0.504   4.567  1.0251 -0.4523  0.7708
  253SOL     MW 1012   4.342   0.513   4.644  0.3543 -0.3494  1.1118
  254SOL     OW 1013   3.358   4.332   2.020  0.2049 -0.1646  0.5161
  254SOL    HW1 1014   3.286   4.360   1.963  0.4917  0.2910  0.3674
  254SOL    HW2 1015   3.404   4.413   2.041  1.2031 -0.5512 -0.1140
  254SOL     MW 1016   3.354   4.346   2.016  0.3694 -0.1558  0.4164
  255SOL     OW 1017   4.703   4.779   3.663  0.6133  0.9647  0.2305
  255SOL    HW1 1018   4.629   4.721   3.682  1.4995  0.1172  1.1927
  255SOL    HW2 1019   4.700   4.791   3.568  0.7188 -1.0988 -0.0729
  255SOL     MW 1020   4.693   4.773   3.654  0.7402  0.5920  0.3149
  256SOL     OW 1021   3.886   3.902   4.737 -0.2097  0.0106  0.3183
  256SOL    HW1 1022   3.884   3.842   4.811  0.3342 -0.7062 -0.2258
  256SOL    HW2 1023   3.977   3.899   4.706 -0.3125  0.6717 -0.0795
  256SOL     MW 1024   3.898   3.894   4.742 -0.1532  0.0035  0.1978
  257SOL     OW 1025   4.005   3.410   1.862  0.4118 -0.0034  0.3621
  257SOL    HW1 1026   3.984   3.461   1.783 -1.5440 -0.9043  0.2559
  257SOL    HW2 1027   3.996   3.473   1.934 -1.2664  0.0188  0.1647
  257SOL     MW 1028   4.001   3.425   1.861 -0.0534 -0.1159  0.3233
  258SOL     OW 1029   0.413   3.134   0.366 -0.4215  0.6069 -0.5764
  258SOL    HW1 1030   0.486   3.086   0.407 -0.5375  0.3645 -0.6526
  258SOL    HW2 1031   0.345   3.068   0.354 -1.2439  1.1320  0.8730
  258SOL     MW 1032   0.414   3.119   0.370 -0.5416  0.6431 -0.4007
  259SOL     OW 1033   2.609   3.875   4.986 -0.0135  0.6964 -0.2299
  259SOL    HW1 1034   2.607   3.815   4.911 -0.5910 -0.1286  0.4275
  259SOL    HW2 1035   2.526   3.860   5.031  0.7487  0.4647  1.1365
  259SOL     MW 1036   2.598   3.866   4.982  0.0102  0.5611  0.0292
  260SOL     OW 1037   0.896   1.643   5.300 -0.1999 -0.1918  0.4231
  260SOL    HW1 1038   0.889   1.556   5.340 -0.3316 -1.1521 -1.5428
  260SOL    HW2 1039   0.808   1.663   5.270  0.3583 -0.8090 -1.8260
  260SOL     MW 1040   0.884   1.634   5.301 -0.1453 -0.3938 -0.1165
  261SOL     OW 1041   5.227   0.053   4.489 -0.1786  0.3599 -0.4968
  261SOL    HW1 1042   5.195  -0.037   4.485  1.3141 -0.4014  2.3104
  261SOL    HW2 1043   5.322   0.045   4.491 -0.0032  2.0291 -0.3334
  261SOL     MW 1044   5.235   0.041   4.489  0.0349  0.4761 -0.1166
  262SOL     OW 1045   3.679   3.310   1.722  0.2840 -0.0954  0.2866
  262SOL    HW1 1046   3.585   3.292   1.723  0.0367  1.0379 -0.7424
  262SOL    HW2 1047   3.694   3.361   1.802 -0.3870  1.4913 -0.5396
  262SOL     MW 1048   3.669   3.314   1.732  0.1664  0.2528  0.0491
  263SOL     OW 1049   3.258   3.214   3.159 -0.2322  0.0522 -0.1314
  263SOL    HW1 1050   3.176   3.235   3.115 -0.1395 -1.3385 -1.0336
  263SOL    HW2 1051   3.254   3.120   3.174  0.7987  0.1184  0.6578
  263SOL     MW 1052   3.247   3.205   3.155 -0.0884 -0.1174 -0.1458
  264SOL     OW 1053   2.870   5.009   5.170 -0.2909 -0.3960  0.1842
  264SOL    HW1 1054   2.821   4.955   5.108  1.1695  1.1273 -2.4501
  264SOL    HW2 1055   2.856   5.099   5.139  1.5106  0.3174  1.3166
  264SOL     MW 1056   2.862   5.014   5.158  0.1267 -0.1097 -0.0081
  265SOL     OW 1057   2.490   3.116   0.231 -0.1753 -0.1920 -0.2721
  265SOL    HW1 1058   2.400   3.119   0.199 -0.6353 -0.8448  0.9181
  265SOL    HW2 1059   2.542   3.086   0.156 -1.1405 -1.1594 -0.5644
  265SOL     MW 1060   2.485   3.113   0.218 -0.3577 -0.3994 -0.1572
  266SOL     OW 1061   2.766   3.756   3.719  0.3008  0.0374 -0.5709
  266SOL    HW1 1062   2.676   3.749   3.686  0.1105  0.1881 -0.0939
  266SOL    HW2 1063   2.801   3.834   3.675  0.1549  0.0551 -0.6581
  266SOL     MW 1064   2.759   3.765   3.709  0.2577  0.0589 -0.5210
  267SOL     OW 1065   0.421   0.314   2.169 -0.4508  0.0077 -0.3896
  267SOL    HW1 1066   0.372   0.264   2.235 -0.9988  1.2358  0.1668
  267SOL    HW2 1067   0.504   0.267   2.161 -0.1564  0.1115  1.5791
  267SOL     MW 1068   0.425   0.301   2.176 -0.4832  0.1782 -0.0664
  268SOL     OW 1069   0.616   1.694   3.878  0.5345 -0.2825  0.2167
  268SOL    HW1 1070   0.541   1.752   3.863  0.6316 -0.4590 -1.1559
  268SOL    HW2 1071   0.685   1.732   3.823  1.2282 -0.5413  0.8990
  268SOL     MW 1072   0.615   1.707   3.869  0.6358 -0.3382  0.1284
  269SOL     OW 1073   3.825   2.621   0.903 -0.7125  0.7884 -0.4967
  269SOL    HW1 1074   3.761   2.658   0.964 -0.3710  0.1944  0.2348
  269SOL    HW2 1075   3.905   2.671   0.921  0.2921 -1.4044  1.8105
  269SOL     MW 1076   3.827   2.632   0.913 -0.5402  0.4317 -0.1077
  270SOL     OW 1077   0.945   3.230   3.533 -0.1820  0.0808  0.1338
  270SOL    HW1 1078   0.931   3.167   3.605 -1.3754  0.1219 -0.0382
  270SOL    HW2 1079   0.963   3.313   3.577  1.3743 -0.3507  0.3642
  270SOL     MW 1080   0.945   3.232   3.548 -0.1355  0.0308  0.1413
  271SOL     OW 1081   4.101   3.532   5.404 -0.3567  0.3890  0.0172
  271SOL    HW1 1082   4.089   3.437   5.401  1.8365  0.0648 -0.3145
  271SOL    HW2 1083   4.189   3.546   5.368 -1.6426  2.7966 -2.5490
  271SOL     MW 1084   4.111   3.522   5.399 -0.2406  0.6557 -0.3538
  272SOL     OW 1085   0.891   4.877   0.654  0.0285 -0.0946  0.4317
  272SOL    HW1 1086   0.829   4.935   0.698  1.0811  0.7805  0.8233
  272SOL    HW2 1087   0.962   4.935   0.626  0.6061 -1.0438 -0.1199
  272SOL     MW 1088   0.892   4.892   0.656  0.2372 -0.1041  0.4112
  273SOL     OW 1089   4.839   2.952   0.098  0.1969 -0.2248  0.1272
  273SOL    HW1 1090   4.908   3.014   0.073 -0.0750 -0.1767 -0.5342
  273SOL    HW2 1091   4.827   2.965   0.192 -0.9058  1.7838 -0.2520
  273SOL     MW 1092   4.846   2.962   0.107  0.0209  0.0385 -0.0060
  274SOL     OW 1093   1.918   1.950   1.704 -0.8843  0.0018 -0.0703
  274SOL    HW1 1094   1.967   1.868   1.714 -0.2921  0.3058 -0.5143
  274SOL    HW2 1095   1.845   1.927   1.647 -1.1207 -0.3854  0.3776
  274SOL     MW 1096   1.915   1.936   1.698 -0.8388 -0.0089 -0.0698
  275SOL     OW 1097   2.622   2.320   3.130 -0.1841 -0.0552  0.0857
  275SOL    HW1 1098   2.667   2.249   3.085  1.1349 -0.4036  1.8248
  275SOL    HW2 1099   2.529   2.299   3.122  0.0974 -0.8788 -1.1456
  275SOL     MW 1100   2.616   2.308   3.123  0.0208 -0.2052  0.1507
  276SOL     OW 1101   2.241   1.642   1.503 -0.1151 -0.0683 -0.4664
  276SOL    HW1 1102   2.157   1.671   1.537 -0.4155  1.3288 -2.2700
  276SOL    HW2 1103   2.227   1.550   1.478 -1.0325  0.0794 -0.5141
  276SOL     MW 1104   2.229   1.634   1.504 -0.2710  0.1295 -0.7034
  277SOL     OW 1105   3.046   4.391   5.191 -0.1184  0.1277 -0.2499
  277SOL    HW1 1106   3.029   4.442   5.112 -1.0987  1.0676  0.5450
  277SOL    HW2 1107   3.139   4.405   5.209  0.3860 -0.9338 -1.7805
  277SOL     MW 1108   3.056   4.399   5.183 -0.1793  0.1122 -0.3441
  278SOL     OW 1109   2.109   0.285   1.409  0.0449 -0.1930  0.0263
  278SOL    HW1 1110   2.141   0.197   1.386  0.9182  0.1996 -0.3174
  278SOL    HW2 1111   2.099   0.329   1.325  0.6798  0.3892  0.2431
  278SOL     MW 1112   2.112   0.279   1.395  0.2380 -0.0682  0.0101
  279SOL     OW 1113   1.115   2.520   2.872  0.0427  0.0362  0.0707
  279SOL    HW1 1114   1.171   2.596   2.855  0.9577 -0.9922 -1.9841
  279SOL    HW2 1115   1.070   2.505   2.788  0.9295 -2.4542 -0.0258
  279SOL     MW 1116   1.116   2.528   2.859  0.2734 -0.4142 -0.2047
  280SOL     OW 1117   3.775   2.266   5.048 -0.3828  0.2014  0.1462
  280SOL    HW1 1118   3.780   2.272   5.143 -0.9873  0.9752  0.1383
  280SOL    HW2 1119   3.866   2.269   5.018 -0.1380 -0.8899  0.7339
  280SOL     MW 1120   3.787   2.267   5.056 -0.4289  0.1608  0.2204
  281SOL     OW 1121   3.223   3.165   3.929 -0.3550 -0.0717 -0.0301
  281SOL    HW1 1122   3.161   3.145   3.858  0.4739  1.3203 -1.2096
  281SOL    HW2 1123   3.209   3.258   3.947  0.8582  0.0785  0.1993
  281SOL     MW 1124   3.213   3.174   3.922 -0.0936  0.1257 -0.1517
  282SOL     OW 1125   4.897   5.098   5.039 -0.5529  0.1786 -0.5612
  282SOL    HW1 1126   4.819   5.080   5.090  0.2284 -0.2602  0.5164
  282SOL    HW2 1127   4.927   5.012   5.008  0.8925 -0.0028  1.1689
  282SOL     MW 1128   4.891   5.085   5.041 -0.2679  0.0992 -0.2018
  283SOL     OW 1129   1.661   3.785   2.870 -0.1731  0.4355 -0.6907
  283SOL    HW1 1130   1.607   3.860   2.845 -1.7076 -0.4836 -0.2972
  283SOL    HW2 1131   1.683   3.800   2.961  0.6112  1.0178 -0.9683
  283SOL     MW 1132   1.657   3.796   2.878 -0.2691  0.3924 -0.6758
  284SOL     OW 1133   3.192   1.861   0.674  0.3044  0.2231 -0.5565
  284SOL    HW1 1134   3.117   1.894   0.624  0.1126 -0.4167 -0.6929
  284SOL    HW2 1135   3.262   1.854   0.610 -0.0652 -1.0199 -0.8434
  284SOL     MW 1136   3.191   1.865   0.660  0.2325 -0.0179 -0.6107
  285SOL     OW 1137   4.367   2.070   5.182 -0.4047  0.3436 -0.3535
  285SOL    HW1 1138   4.367   1.980   5.214  1.2880 -0.3819 -2.2335
  285SOL    HW2 1139   4.287   2.076   5.129 -1.2887  0.4518  0.9273
  285SOL     MW 1140   4.357   2.059   5.179 -0.3012  0.2645 -0.4302
  286SOL     OW 1141   0.637   2.274   0.593 -0.2389 -0.2039  0.0624
  286SOL    HW1 1142   0.704   2.298   0.657  0.2258 -0.9508 -0.1235
  286SOL    HW2 1143   0.618   2.355   0.546  0.1818  0.1236  0.4460
  286SOL     MW 1144   0.643   2.287   0.595 -0.1256 -0.2576  0.0877
  287SOL     OW 1145   4.943   2.109   3.572  0.0670 -0.2219 -0.0892
  287SOL    HW1 1146   5.016   2.056   3.542  0.2556 -0.2872  0.4832
  287SOL    HW2 1147   4.866   2.054   3.559 -0.0315  0.2491 -1.7295
  287SOL     MW 1148   4.942   2.096   3.566  0.0785 -0.1700 -0.2259
  288SOL     OW 1149   4.131   2.429   5.198 -0.2203 -0.9803 -0.0238
  288SOL    HW1 1150   4.093   2.490   5.135  0.7025  0.4753  0.7737
  288SOL    HW2 1151   4.071   2.430   5.272  0.3065 -0.2550  0.3993
  288SOL     MW 1152   4.119   2.437   5.199 -0.0347 -0.7011  0.1324
  289SOL     OW 1153   3.071   2.573   3.337 -0.2816 -1.0677  0.1236
  289SOL    HW1 1154   3.156   2.582   3.381  0.4727 -2.1288 -1.0415
  289SOL    HW2 1155   3.055   2.660   3.300  0.4167 -0.9178  0.1473
  289SOL     MW 1156   3.080   2.585   3.338 -0.0957 -1.1844 -0.0225
  290SOL     OW 1157   2.494   1.748   2.468  0.5165  0.6728 -0.0569
  290SOL    HW1 1158   2.566   1.697   2.431 -0.5365 -0.4813 -0.6075
  290SOL    HW2 1159   2.485   1.824   2.411  1.5806  1.0754  0.2929
  290SOL     MW 1160   2.502   1.751   2.456  0.5179  0.5766 -0.0826
  291SOL     OW 1161   5.298   3.416   1.821 -0.5194  0.2597 -0.0081
  291SOL    HW1 1162   5.253   3.451   1.898  0.7763  1.8033  0.1021
  291SOL    HW2 1163   5.263   3.467   1.748 -0.5402 -0.0509 -0.2133
  291SOL     MW 1164   5.288   3.427   1.822 -0.3562  0.4176 -0.0203
  292SOL     OW 1165   1.649   0.347   0.957 -0.1526 -0.6739 -0.1377
  292SOL    HW1 1166   1.687   0.414   1.014  0.0723 -2.2945  1.7265
  292SOL    HW2 1167   1.697   0.267   0.978 -2.4407 -2.1099 -0.0240
  292SOL     MW 1168   1.660   0.345   0.967 -0.4167 -1.0652  0.1155
  293SOL     OW 1169   1.046   1.828   5.094 -0.6191  0.7661 -0.3544
  293SOL    HW1 1170   1.083   1.847   5.007  2.6851 -0.1771  0.7083
  293SOL    HW2 1171   1.011   1.739   5.086  2.2055 -0.4468 -0.0855
  293SOL     MW 1172   1.046   1.819   5.082  0.1654  0.4901 -0.1839
  294SOL     OW 1173   2.407   0.910   5.041 -0.0558 -0.1212  0.1817
  294SOL    HW1 1174   2.477   0.962   5.081  0.2241 -0.2068 -0.1940
  294SOL    HW2 1175   2.453   0.838   4.997 -0.1268  1.2876 -2.3957
  294SOL     MW 1176   2.422   0.908   5.041 -0.0291  0.0482 -0.1963
  295SOL     OW 1177   3.574   1.613   4.359 -0.1650  0.1995  0.1438
  295SOL    HW1 1178   3.523   1.560   4.422  1.0378 -1.7126 -0.4076
  295SOL    HW2 1179   3.609   1.549   4.297  1.2826  1.6903 -0.6394
  295SOL     MW 1180   3.572   1.598   4.359  0.1743  0.1455 -0.0270
  296SOL     OW 1181   4.806   3.289   3.700  0.5346 -0.3496 -0.6742
  296SOL    HW1 1182   4.890   3.320   3.667  0.4189  0.7203 -0.0073
  296SOL    HW2 1183   4.826   3.246   3.782  0.4403 -0.1465 -0.5438
  296SOL     MW 1184   4.819   3.288   3.706  0.5077 -0.1866 -0.5721
  297SOL     OW 1185   4.075   1.101   1.455 -0.8032  0.6673  0.3296
  297SOL    HW1 1186   4.069   1.194   1.434  1.3662  0.6935 -0.4671
  297SOL    HW2 1187   4.083   1.057   1.370  0.7973  0.0408  0.7673
  297SOL     MW 1188   4.075   1.107   1.441 -0.3206  0.5904  0.2837
  298SOL     OW 1189   3.503   4.541   2.184  0.1191  0.1012  0.3032
  298SOL    HW1 1190   3.508   4.604   2.112 -0.7113  1.1497  1.1361
  298SOL    HW2 1191   3.537   4.588   2.260 -0.4996 -0.4612  0.9469
  298SOL     MW 1192   3.508   4.555   2.185 -0.0664  0.1634  0.4922
  299SOL     OW 1193   1.703   4.803   5.039 -0.0570 -0.2562 -0.0854
  299SOL    HW1 1194   1.630   4.850   4.999  1.6184  1.2018 -1.5652
  299SOL    HW2 1195   1.761   4.871   5.072  1.7106 -1.2775 -0.9463
  299SOL     MW 1196   1.701   4.817   5.038  0.3837 -0.2003 -0.3851
  300SOL     OW 1197   4.056   4.595   0.912  0.1157  0.8156  0.0618
  300SOL    HW1 1198   4.056   4.597   0.817  0.7617  1.7329  0.0679
  300SOL    HW2 1199   3.966   4.619   0.936 -0.1245  0.3053 -0.3136
  300SOL     MW 1200   4.044   4.598   0.903  0.1676  0.8677  0.0145
  301SOL     OW 1201   0.681   5.319   0.578 -0.3443 -0.0592 -0.4039
  301SOL    HW1 1202   0.624   5.360   0.643 -0.3937 -1.1731  0.2816
  301SOL    HW2 1203   0.657   5.361   0.496 -1.1519  0.4982  0.1003
  301SOL     MW 1204   0.670   5.329   0.576 -0.4540 -0.1304 -0.2516
  302SOL     OW 1205   3.884   4.399   2.372  0.2517 -0.0933  0.0646
  302SOL    HW1 1206   3.804   4.364   2.335  0.1000  2.2305 -2.0383
  302SOL    HW2 1207   3.880   4.493   2.355  1.5562  0.7539  3.5485
  302SOL     MW 1208   3.873   4.406   2.365  0.3993  0.3126  0.2414
  303SOL     OW 1209   4.567   2.060   4.699  0.2648  0.5697 -0.3482
  303SOL    HW1 1210   4.619   2.116   4.756  0.2460  0.4782 -0.2402
  303SOL    HW2 1211   4.598   1.972   4.717 -0.2113  0.4703  0.0297
  303SOL     MW 1212   4.577   2.056   4.709  0.2014  0.5452 -0.2860
  304SOL     OW 1213   2.786   4.906   3.253  0.2232 -0.7230  0.1925
  304SOL    HW1 1214   2.691   4.909   3.250  0.2117 -1.3093 -0.1209
  304SOL    HW2 1215   2.807   4.900   3.347  0.0767  2.3984  0.5257
  304SOL     MW 1216   2.777   4.906   3.265  0.2030 -0.3985  0.1951
  305SOL     OW 1217   1.781   1.309   5.486  0.2063 -0.3182 -0.2115
  305SOL    HW1 1218   1.773   1.393   5.531  0.3746 -1.0328  1.1989
  305SOL    HW2 1219   1.823   1.330   5.403 -0.2703  1.0642 -0.1309
  305SOL     MW 1220   1.785   1.322   5.481  0.1668 -0.2327 -0.0206
  306SOL     OW 1221   4.611   1.486   5.015  0.4235  0.5769 -0.3603
  306SOL    HW1 1222   4.668   1.486   5.092  0.3235 -0.2720 -0.2756
  306SOL    HW2 1223   4.523   1.476   5.050  0.4368 -0.5957 -0.6013
  306SOL     MW 1224   4.607   1.484   5.029  0.4124  0.3182 -0.3804
  307SOL     OW 1225   1.064   4.508   2.632 -0.1153 -0.4356 -0.2580
  307SOL    HW1 1226   1.145   4.499   2.682  0.2101 -3.6418 -1.1400
  307SOL    HW2 1227   0.996   4.481   2.694 -0.1725 -0.6082 -0.3979
  307SOL     MW 1228   1.066   4.503   2.646 -0.0809 -0.8681 -0.3888
  308SOL     OW 1229   3.931   3.732   4.963 -0.7689 -0.2029  0.0649
  308SOL    HW1 1230   3.915   3.711   5.055  0.3151 -0.7095  0.1445
  308SOL    HW2 1231   4.014   3.691   4.943 -0.1065  1.3958 -0.6601
  308SOL     MW 1232   3.940   3.724   4.973 -0.5453 -0.0631 -0.0177
  309SOL     OW 1233   1.890   1.846   3.396  0.6447 -1.1507  0.3705
  309SOL    HW1 1234   1.826   1.910   3.364 -0.9671 -2.0153  1.7319
  309SOL    HW2 1235   1.895   1.862   3.490  0.6819 -2.6072  0.6412
  309SOL     MW 1236   1.883   1.856   3.404  0.4431 -1.4478  0.5794
  310SOL     OW 1237   4.410   2.024   3.563  0.5036  0.3258  0.0506
  310SOL    HW1 1238   4.358   1.946   3.548 -4.2859  3.2651 -0.9119
  310SOL    HW2 1239   4.400   2.042   3.656 -0.1856  0.8278 -0.1118
  310SOL     MW 1240   4.402   2.017   3.573 -0.1978  0.7663 -0.0934
  311SOL     OW 1241   4.632   1.803   5.317  1.0087 -0.0293 -0.4763
  311SOL    HW1 1242   4.652   1.839   5.230  0.8797  1.3359  0.0270
  311SOL    HW2 1243   4.629   1.880   5.374 -0.7773 -0.7033  0.3983
  311SOL     MW 1244   4.634   1.818   5.313  0.7635  0.0592 -0.2999
  312SOL     OW 1245   4.463   3.535   4.737  0.3929  0.1918 -0.1054
  312SOL    HW1 1246   4.517   3.516   4.660  0.2057  0.1927 -0.2374
  312SOL    HW2 1247   4.513   3.601   4.785  0.2320  0.6313 -0.5315
  312SOL     MW 1248   4.476   3.541   4.733  0.3483  0.2482 -0.1769
  313SOL     OW 1249   1.537   0.595   0.775  0.2544 -0.1888 -0.3502
  313SOL    HW1 1250   1.494   0.602   0.690  1.1948  0.9513 -0.7611
  313SOL    HW2 1251   1.603   0.527   0.763 -0.4875 -0.9532 -0.1342
  313SOL     MW 1252   1.540   0.587   0.763  0.2798 -0.1407 -0.3752
  314SOL     OW 1253   5.072   1.120   1.315  0.0765  0.0266  0.2629
  314SOL    HW1 1254   5.126   1.088   1.387  1.2343  1.6735  0.1903
  314SOL    HW2 1255   5.133   1.166   1.258 -1.1542  0.5362 -0.7012
  314SOL     MW 1256   5.087   1.122   1.317  0.0672  0.3027  0.1302
  315SOL     OW 1257   2.367   0.555   3.549  0.6236  0.1878  0.6241
  315SOL    HW1 1258   2.377   0.623   3.483  0.1382  0.4230  0.7920
  315SOL    HW2 1259   2.290   0.581   3.600  0.7686 -0.1868  1.0465
  315SOL     MW 1260   2.359   0.567   3.547  0.5800  0.1700  0.6997
  316SOL     OW 1261   1.085   2.639   4.132 -0.1376  0.3417 -0.2937
  316SOL    HW1 1262   1.015   2.575   4.119  0.4716 -0.5746  0.7322
  316SOL    HW2 1263   1.057   2.691   4.207 -0.3656  0.9184 -0.7704
  316SOL     MW 1264   1.073   2.637   4.140 -0.0888  0.2982 -0.2234
  317SOL     OW 1265   3.874   4.537   1.447 -0.4189  0.5864 -0.4177
  317SOL    HW1 1266   3.861   4.629   1.426 -3.2157 -0.0360 -1.8651
  317SOL    HW2 1267   3.803   4.491   1.402 -0.1832 -2.1045  1.6484
  317SOL     MW 1268   3.863   4.543   1.439 -0.7468  0.1622 -0.3385
  318SOL     OW 1269   4.886   0.379   0.603 -0.3635  0.2556 -0.2711
  318SOL    HW1 1270   4.972   0.344   0.582 -0.0282  1.3821 -0.8391
  318SOL    HW2 1271   4.825   0.316   0.565  0.2085 -0.1834 -0.4797
  318SOL     MW 1272   4.889   0.366   0.596 -0.2473  0.3436 -0.3705
  319SOL     OW 1273   2.994   0.951   2.072 -0.3502  0.2253 -0.0932
  319SOL    HW1 1274   3.048   0.875   2.095  1.9532  1.8778  0.3345
  319SOL    HW2 1275   2.941   0.967   2.150  1.3260  0.7742  0.9913
  319SOL     MW 1276   2.994   0.943   2.085  0.1592  0.5071  0.1004
  320SOL     OW 1277   5.449   4.636   4.358 -0.1194 -0.0911 -0.1884
  320SOL    HW1 1278   5.470   4.565   4.419  2.6811  0.4931 -0.3099
  320SOL    HW2 1279   5.362   4.666   4.384  0.2273 -1.0660  2.3510
  320SOL     MW 1280   5.441   4.631   4.369  0.2835 -0.1411  0.1211
  321SOL     OW 1281   4.643   0.173   3.646  0.1255 -0.2200  0.1206
  321SOL    HW1 1282   4.715   0.199   3.589  0.7056 -1.6000  0.1779
  321SOL    HW2 1283   4.684   0.164   3.733 -0.0675 -1.1609  0.1227
  321SOL     MW 1284   4.658   0.175   3.650  0.1751 -0.5171  0.1282
  322SOL     OW 1285   3.955   4.729   2.011 -0.0397  0.2365  0.3873
  322SOL    HW1 1286   3.875   4.781   2.018  0.9143  1.5665  2.3726
  322SOL    HW2 1287   4.026   4.793   2.017  1.2154 -0.8875 -1.4947
  322SOL     MW 1288   3.954   4.744   2.013  0.2431  0.2628  0.4006
  323SOL     OW 1289   0.056   2.493   5.269 -0.4668  0.2812 -0.9298
  323SOL    HW1 1290   0.119   2.558   5.237  1.9325 -1.9164 -0.9677
  323SOL    HW2 1291   0.066   2.418   5.211  0.5744 -2.0376  1.9734
  323SOL     MW 1292   0.065   2.492   5.258 -0.0263 -0.2969 -0.5630
  324SOL     OW 1293   5.009   2.761   3.012 -0.6467  0.3650  0.2294
  324SOL    HW1 1294   4.993   2.812   2.933 -0.7119 -2.1658 -1.5102
  324SOL    HW2 1295   4.923   2.731   3.040 -0.4076 -1.0343 -0.4316
  324SOL     MW 1296   4.996   2.764   3.005 -0.6245 -0.1381 -0.0779
  325SOL     OW 1297   1.444   1.529   2.771 -0.7718  0.3870 -0.4335
  325SOL    HW1 1298   1.388   1.557   2.843 -0.3956 -0.7291  0.3119
  325SOL    HW2 1299   1.404   1.448   2.739  0.6320 -0.6791  0.4100
  325SOL     MW 1300   1.432   1.522   2.776 -0.5439  0.1077 -0.2301
  326SOL     OW 1301   3.999   0.795   2.583  0.6619 -0.0429  0.3114
  326SOL    HW1 1302   4.093   0.808   2.578  0.3629  2.0582 -1.7506
  326SOL    HW2 1303   3.962   0.878   2.553 -1.8642 -0.7342  1.2250
  326SOL     MW 1304   4.006   0.808   2.579  0.3002  0.1376  0.1644
  327SOL     OW 1305   3.622   2.696   3.933  0.5976 -0.6783  0.1279
  327SOL    HW1 1306   3.575   2.613   3.936 -0.6930  0.0471  0.9300
  327SOL    HW2 1307   3.663   2.704   4.019  0.4407 -0.3283  0.1724
  327SOL     MW 1308   3.621   2.687   3.944  0.4123 -0.5407  0.2362
  328SOL     OW 1309   1.977   2.337   1.655  0.0698 -0.3163  0.2799
  328SOL    HW1 1310   1.886   2.333   1.685  0.4608  2.0529  2.1333
  328SOL    HW2 1311   2.003   2.246   1.644 -2.2061 -1.0831  0.7466
  328SOL     MW 1312   1.969   2.325   1.658 -0.1715 -0.1112  0.5769
  329SOL     OW 1313   2.150   3.212   4.724  0.1347  0.2614 -0.6789
  329SOL    HW1 1314   2.108   3.281   4.673 -0.9959  0.5392  0.5649
  329SOL    HW2 1315   2.100   3.133   4.702 -0.6249  0.4583  0.2602
  329SOL     MW 1316   2.138   3.210   4.715 -0.1073  0.3221 -0.3995
  330SOL     OW 1317   5.381   0.145   0.206 -0.3235  0.4790 -0.3297
  330SOL    HW1 1318   5.423   0.136   0.291 -1.0238 -0.3575 -0.0581
  330SOL    HW2 1319   5.445   0.193   0.152  0.2635  0.7060  0.5541
  330SOL     MW 1320   5.394   0.150   0.210 -0.3380  0.4010 -0.1818
  331SOL     OW 1321   1.124   4.401   2.938 -0.2417 -0.2003  0.1002
  331SOL    HW1 1322   1.213   4.428   2.915  0.0193 -0.2603  0.9728
  331SOL    HW2 1323   1.097   4.464   3.005 -2.0341  1.6828 -2.2458
  331SOL     MW 1324   1.132   4.413   2.944 -0.4377  0.0331 -0.0884
  332SOL     OW 1325   2.863   3.100   2.658  0.1363  0.2448  0.0184
  332SOL    HW1 1326   2.904   3.027   2.611 -1.2766  1.1395 -2.8347
  332SOL    HW2 1327   2.895   3.178   2.613 -1.2022  1.1845  0.6360
  332SOL     MW 1328   2.872   3.100   2.647 -0.2159  0.4797 -0.2678
  333SOL     OW 1329   4.922   0.643   3.101 -0.5180  0.3493 -0.3730
  333SOL    HW1 1330   4.988   0.709   3.082  1.6688 -0.9579  2.0986
  333SOL    HW2 1331   4.889   0.666   3.188  0.0494 -1.5344  0.4019
  333SOL     MW 1332   4.926   0.654   3.110 -0.1654 -0.0592  0.0426
  334SOL     OW 1333   3.851   3.092   3.673  0.4224 -0.0192  0.0344
  334SOL    HW1 1334   3.878   3.071   3.763 -1.1789  1.6419  0.9727
  334SOL    HW2 1335   3.919   3.151   3.641  0.8654 -0.4038  0.2522
  334SOL     MW 1336   3.863   3.097   3.680  0.2741  0.1442  0.1824
  335SOL     OW 1337   0.928   4.015   3.478 -0.0873 -0.0404  1.1194
  335SOL    HW1 1338   0.999   3.964   3.438  1.0581  0.9300  1.8554
  335SOL    HW2 1339   0.859   3.951   3.494  0.5482 -0.9771  0.2068
  335SOL     MW 1340   0.928   4.000   3.475  0.1407 -0.0361  1.0968
  336SOL     OW 1341   5.404   3.408   3.932 -0.1185 -0.1883  0.0454
  336SOL    HW1 1342   5.476   3.465   3.960 -0.0904 -0.7664  1.1680
  336SOL    HW2 1343   5.447   3.327   3.903 -0.3421 -0.8846  1.5740
  336SOL     MW 1344   5.419   3.405   3.932 -0.1435 -0.3514  0.3848
  337SOL     OW 1345   0.857   5.375   3.378  0.2133  0.2970  0.3426
  337SOL    HW1 1346   0.924   5.402   3.441 -0.3009  2.7817 -0.0507
  337SOL    HW2 1347   0.898   5.391   3.292  0.8080 -2.7807 -0.0520
  337SOL     MW 1348   0.871   5.380   3.375  0.2236  0.2211  0.2418
  338SOL     OW 1349   3.437   2.031   1.785 -0.3491  0.1269  0.4301
  338SOL    HW1 1350   3.465   1.988   1.865  0.2953  1.0775  0.7391
  338SOL    HW2 1351   3.441   1.963   1.718 -0.4134 -0.5516  1.1095
  338SOL     MW 1352   3.441   2.017   1.786 -0.2749  0.1618  0.5566
  339SOL     OW 1353   3.605   0.885   0.392  0.0497  0.1662  0.2968
  339SOL    HW1 1354   3.593   0.794   0.366 -0.2575  0.6755 -1.5376
  339SOL    HW2 1355   3.532   0.904   0.450 -1.0410 -0.2323 -0.9019
  339SOL     MW 1356   3.594   0.876   0.396 -0.1292  0.1803 -0.0915
  340SOL     OW 1357   1.213   5.296   4.759 -0.0593 -0.0214 -0.1512
  340SOL    HW1 1358   1.262   5.214   4.765  0.7265  0.4825  0.6015
  340SOL    HW2 1359   1.180   5.297   4.670  0.0785 -1.0658 -0.2344
  340SOL     MW 1360   1.215   5.285   4.749  0.0589 -0.0906 -0.0655
  341SOL     OW 1361   0.946   3.344   0.852 -0.5532 -0.0810  0.0267
  341SOL    HW1 1362   0.892   3.402   0.906 -0.7540 -0.2546  0.0130
  341SOL    HW2 1363   0.944   3.260   0.896 -2.1856 -0.7213 -1.1549
  341SOL     MW 1364   0.939   3.341   0.864 -0.7879 -0.1852 -0.1263
  342SOL     OW 1365   4.433   4.115   4.223 -0.4513  0.1024 -0.4400
  342SOL    HW1 1366   4.509   4.161   4.259  1.0424 -0.8070 -2.2246
  342SOL    HW2 1367   4.378   4.184   4.187  0.2890  0.6901 -0.4617
  342SOL     MW 1368   4.436   4.129   4.223 -0.1653  0.0612 -0.6712
  343SOL     OW 1369   4.910   5.126   2.399 -0.5713 -0.0356  0.5196
  343SOL    HW1 1370   4.886   5.129   2.492  0.1689  1.1441  0.6964
  343SOL    HW2 1371   5.005   5.139   2.399 -0.5979  0.2087 -0.4222
  343SOL     MW 1372   4.919   5.128   2.411 -0.4799  0.1467  0.4217
  344SOL     OW 1373   2.674   1.093   1.863 -0.3712  0.6621 -0.6387
  344SOL    HW1 1374   2.708   1.162   1.920  0.5105  0.2084 -0.5919
  344SOL    HW2 1375   2.750   1.065   1.812 -0.9087  0.3029 -1.2507
  344SOL     MW 1376   2.688   1.098   1.864 -0.3271  0.5581 -0.7110
  345SOL     OW 1377   4.315   0.155   3.822 -0.2906 -0.0914  0.0842
  345SOL    HW1 1378   4.286   0.105   3.746  1.3141 -0.4079 -0.3621
  345SOL    HW2 1379   4.366   0.228   3.785 -0.0548  0.1386  0.8259
  345SOL     MW 1380   4.318   0.158   3.808 -0.0550 -0.1024  0.1221
  346SOL     OW 1381   3.272   3.291   2.482  0.6965  0.2991 -0.1072
  346SOL    HW1 1382   3.347   3.289   2.422  1.3138 -1.3723  0.6553
  346SOL    HW2 1383   3.279   3.376   2.527  1.9995  0.2672 -0.2224
  346SOL     MW 1384   3.282   3.302   2.480  0.9424  0.0811 -0.0243
  347SOL     OW 1385   4.908   4.005   5.237 -0.2196  0.1805  0.5831
  347SOL    HW1 1386   4.927   3.961   5.320 -0.7059 -1.1006  0.0380
  347SOL    HW2 1387   4.993   4.012   5.194 -0.1262 -0.2173  0.6952
  347SOL     MW 1388   4.921   4.000   5.242 -0.2699 -0.0344  0.5277
  348SOL     OW 1389   2.106   2.690   2.477 -0.1019 -0.2702  0.5684
  348SOL    HW1 1390   2.202   2.691   2.472 -0.0978  0.3551  0.6466
  348SOL    HW2 1391   2.078   2.743   2.403 -0.4641 -1.9319 -0.5465
  348SOL     MW 1392   2.115   2.697   2.467 -0.1477 -0.4028  0.4357
  349SOL     OW 1393   3.229   4.695   2.863 -0.5609 -0.1737 -0.6287
  349SOL    HW1 1394   3.167   4.725   2.930 -1.6162 -1.4449 -0.9930
  349SOL    HW2 1395   3.183   4.623   2.820  1.0785 -0.9608 -1.1023
  349SOL     MW 1396   3.215   4.690   2.866 -0.4862 -0.4372 -0.7359
  350SOL     OW 1397   3.013   3.948   0.969 -0.4582  0.2736 -0.3079
  350SOL    HW1 1398   3.091   3.911   0.927 -0.1987  1.7549 -1.1860
  350SOL    HW2 1399   2.950   3.958   0.898 -1.0360  0.1944  0.1819
  350SOL     MW 1400   3.015   3.944   0.955 -0.4989  0.4531 -0.3576
  351SOL     OW 1401   1.400   0.251   1.321  0.4804  0.1882 -0.3783
  351SOL    HW1 1402   1.469   0.265   1.385 -0.0403 -1.5702  0.6495
  351SOL    HW2 1403   1.409   0.323   1.259  4.1814 -0.7836 -1.1806
  351SOL     MW 1404   1.410   0.262   1.322  0.8875 -0.1613 -0.3494
  352SOL     OW 1405   3.255   0.738   2.912  0.2735  0.0157  0.0902
  352SOL    HW1 1406   3.303   0.800   2.966 -0.0693 -0.4793  0.9910
  352SOL    HW2 1407   3.300   0.739   2.828  2.2332 -0.8454  1.0653
  352SOL     MW 1408   3.267   0.746   2.908  0.4805 -0.1579  0.3303
  353SOL     OW 1409   0.939   2.319   3.213  0.2006 -0.5391  0.2734
  353SOL    HW1 1410   0.893   2.403   3.210  1.1822  0.0016 -0.0541
  353SOL    HW2 1411   0.933   2.292   3.304 -0.4316 -0.2834  0.3111
  353SOL     MW 1412   0.932   2.326   3.224  0.2453 -0.4372  0.2363
  354SOL     OW 1413   0.038   1.803   2.952 -0.0735 -0.1536 -0.3235
  354SOL    HW1 1414   0.066   1.832   2.865 -2.9208  0.4609 -1.1416
  354SOL    HW2 1415   0.038   1.707   2.947  1.3890 -0.1597 -0.4176
  354SOL     MW 1416   0.041   1.794   2.940 -0.2508 -0.0757 -0.4403
  355SOL     OW 1417   2.417   3.174   4.662 -0.0922  0.2309 -0.2198
  355SOL    HW1 1418   2.334   3.198   4.703 -1.4845  0.0151 -2.6576
  355SOL    HW2 1419   2.432   3.084   4.690 -1.3716 -0.1588 -0.6980
  355SOL     MW 1420   2.408   3.165   4.671 -0.4342  0.1534 -0.5931
  356SOL     OW 1421   3.911   3.300   4.704  0.8619  0.1278 -0.0030
  356SOL    HW1 1422   3.863   3.359   4.762 -0.6140  0.0699 -1.1080
  356SOL    HW2 1423   3.976   3.355   4.662 -0.6166  1.0702 -1.1541
  356SOL     MW 1424   3.913   3.314   4.706  0.4837  0.2410 -0.2918
  357SOL     OW 1425   2.128   1.979   3.345 -0.1802  0.2306  0.5206
  357SOL    HW1 1426   2.195   1.913   3.357  0.0232  0.4180  0.4189
  357SOL    HW2 1427   2.048   1.929   3.326  0.3113  0.0410 -1.2962
  357SOL     MW 1428   2.126   1.964   3.344 -0.0912  0.2303  0.2750
  358SOL     OW 1429   3.417   4.452   4.552 -0.0426 -0.6495 -0.0043
  358SOL    HW1 1430   3.334   4.464   4.506  0.4041  0.1134 -0.6220
  358SOL    HW2 1431   3.418   4.359   4.575 -0.2552 -1.0706 -1.5860
  358SOL     MW 1432   3.407   4.442   4.549 -0.0126 -0.6058 -0.2858
  359SOL     OW 1433   3.587   2.331   2.486 -0.1753 -0.2753  0.3493
  359SOL    HW1 1434   3.583   2.319   2.581  0.3435  0.1572  0.4284
  359SOL    HW2 1435   3.632   2.252   2.454 -2.1397 -1.4031  0.2407
  359SOL     MW 1436   3.592   2.319   2.494 -0.3604 -0.3643  0.3455
  360SOL     OW 1437   4.953   1.604   1.855  0.8137  0.4673  0.2816
  360SOL    HW1 1438   4.928   1.532   1.797  1.0450  0.6248 -0.0165
  360SOL    HW2 1439   4.869   1.643   1.881  0.7198  1.5074 -1.3682
  360SOL     MW 1440   4.939   1.600   1.851  0.8313  0.6206  0.0322
  361SOL     OW 1441   3.101   0.392   1.320  0.4176 -0.4409  0.2681
  361SOL    HW1 1442   3.157   0.391   1.242 -0.9077 -1.3890 -0.7325
  361SOL    HW2 1443   3.083   0.485   1.336 -1.0608 -0.2808 -1.9356
  361SOL     MW 1444   3.106   0.404   1.312  0.0587 -0.5418 -0.1421
  362SOL     OW 1445   1.458   4.769   4.053 -0.0938 -0.0002  0.2365
  362SOL    HW1 1446   1.373   4.747   4.016  0.6863  0.0747 -1.6927
  362SOL    HW2 1447   1.451   4.861   4.078 -0.8481 -0.2412  0.9619
  362SOL     MW 1448   1.446   4.778   4.052 -0.0905 -0.0215  0.0824
  363SOL     OW 1449   0.383   3.524   0.131  0.3361  0.1913  0.0598
  363SOL    HW1 1450   0.364   3.451   0.191 -0.8116  0.7474  0.4197
  363SOL    HW2 1451   0.390   3.483   0.045 -1.8061 -0.2241  0.0170
  363SOL     MW 1452   0.381   3.509   0.128 -0.0850  0.2093  0.1004
  364SOL     OW 1453   4.261   1.216   4.601 -0.3876 -0.4120 -0.0527
  364SOL    HW1 1454   4.332   1.155   4.583  0.1139  0.7555 -2.5388
  364SOL    HW2 1455   4.298   1.279   4.663  1.0537  0.5379 -1.7737
  364SOL     MW 1456   4.275   1.216   4.606 -0.1389 -0.1410 -0.5913
  365SOL     OW 1457   5.319   5.165   4.785  0.5463  0.1050  0.0073
  365SOL    HW1 1458   5.322   5.134   4.875 -0.6142  2.5053  0.9467
  365SOL    HW2 1459   5.227   5.188   4.770  1.1437  2.1420 -0.8667
  365SOL     MW 1460   5.308   5.164   4.795  0.4742  0.6730  0.0157
  366SOL     OW 1461   2.441   0.138   0.646 -0.4281  0.4471 -0.2232
  366SOL    HW1 1462   2.362   0.085   0.656  0.3447 -0.8665 -0.8824
  366SOL    HW2 1463   2.418   0.223   0.684 -2.0020 -0.0543 -0.0061
  366SOL     MW 1464   2.428   0.142   0.652 -0.5306  0.2148 -0.2798
  367SOL     OW 1465   4.753   0.165   0.469  0.4087 -0.4978  0.2566
  367SOL    HW1 1466   4.661   0.169   0.442  0.1708  0.5034  1.1451
  367SOL    HW2 1467   4.795   0.108   0.404 -0.8459 -1.0151 -0.1233
  367SOL     MW 1468   4.747   0.158   0.457  0.2176 -0.4359  0.3217
  368SOL     OW 1469   3.442   1.187   1.242  0.0070  0.2650  0.3545
  368SOL    HW1 1470   3.401   1.272   1.225  0.9366  0.3861 -1.4583
  368SOL    HW2 1471   3.536   1.203   1.235  0.1713 -1.1774 -1.5181
  368SOL     MW 1472   3.449   1.200   1.239  0.1470  0.0958 -0.1173
  369SOL     OW 1473   3.565   2.644   1.514  0.3852  0.1020 -0.6611
  369SOL    HW1 1474   3.614   2.697   1.577  1.4416  0.3487 -1.6578
  369SOL    HW2 1475   3.630   2.615   1.452 -0.2320 -2.1439 -0.3273
  369SOL     MW 1476   3.579   2.647   1.514  0.4414 -0.1539 -0.7460
  370SOL     OW 1477   2.083   2.042   3.877  0.0853  0.2463  0.3369
  370SOL    HW1 1478   2.086   2.138   3.883 -0.2008  0.2065  1.2927
  370SOL    HW2 1479   2.049   2.014   3.962  0.4218 -0.7227  0.1627
  370SOL     MW 1480   2.079   2.051   3.889  0.0918  0.1172  0.4370
  371SOL     OW 1481   4.696   0.483   5.249 -0.3773  0.2952  0.6199
  371SOL    HW1 1482   4.622   0.497   5.190 -0.3676 -1.6952  0.0824
  371SOL    HW2 1483   4.665   0.513   5.334 -0.6072  2.6388 -0.2011
  371SOL     MW 1484   4.683   0.489   5.252 -0.4055  0.3404  0.4460
  372SOL     OW 1485   3.574   2.298   0.439 -0.2155 -0.1976 -0.1771
  372SOL    HW1 1486   3.664   2.300   0.471  0.0598  0.7046 -0.9612
  372SOL    HW2 1487   3.525   2.352   0.500  0.0607  0.4680 -0.5342
  372SOL     MW 1488   3.579   2.305   0.451 -0.1449  0.0031 -0.3232
  373SOL     OW 1489   2.469   1.620   4.313 -0.5178  0.1008  0.1502
  373SOL    HW1 1490   2.481   1.601   4.219 -0.5651 -0.6549  0.2857
  373SOL    HW2 1491   2.376   1.603   4.328 -0.7626  1.3092  0.1058
  373SOL     MW 1492   2.458   1.615   4.303 -0.5552  0.1587  0.1619
  374SOL     OW 1493   5.150   5.097   0.146  0.0258  0.7217  0.2055
  374SOL    HW1 1494   5.159   5.002   0.162 -0.6128  0.5629 -0.3748
  374SOL    HW2 1495   5.111   5.131   0.226  0.5593  0.5529  0.5471
  374SOL     MW 1496   5.146   5.089   0.158  0.0123  0.6798  0.1750
  375SOL     OW 1497   2.852   1.332   3.958 -0.2175 -0.0729  0.3370
  375SOL    HW1 1498   2.785   1.306   4.022  1.0025 -1.2605  1.2190
  375SOL    HW2 1499   2.899   1.403   4.001  0.1213 -0.3631  0.4576
  375SOL     MW 1500   2.849   1.338   3.972 -0.0180 -0.2621  0.4654
  376SOL     OW 1501   3.703   0.431   0.678  0.5944 -0.5426  0.1209
  376SOL    HW1 1502   3.736   0.481   0.753 -0.7442  0.8150 -0.1486
  376SOL    HW2 1503   3.612   0.458   0.669  0.2676 -1.8797 -1.0368
  376SOL     MW 1504   3.695   0.441   0.686  0.3812 -0.5400 -0.0618
  377SOL     OW 1505   4.550   3.142   1.631 -0.0453 -0.4714 -0.3418
  377SOL    HW1 1506   4.524   3.229   1.601  0.0795 -0.2979  0.0584
  377SOL    HW2 1507   4.479   3.114   1.688  0.4357 -0.1764  0.4061
  377SOL     MW 1508   4.538   3.150   1.634  0.0323 -0.4114 -0.1948
  378SOL     OW 1509   4.452   3.834   4.210 -0.2059  0.8629 -0.1342
  378SOL    HW1 1510   4.501   3.916   4.216 -0.3181  0.8773  0.8240
  378SOL    HW2 1511   4.511   3.774   4.164  0.6573  0.9437  0.8112
  378SOL     MW 1512   4.466   3.837   4.205 -0.1098  0.8751  0.1095
  379SOL     OW 1513   2.019   3.486   1.116  0.1771 -0.2991 -0.4664
  379SOL    HW1 1514   1.947   3.443   1.164  0.4753 -1.0653 -0.7020
  379SOL    HW2 1515   2.076   3.520   1.185 -0.3899  0.2869 -0.2760
  379SOL     MW 1516   2.017   3.485   1.131  0.1427 -0.3221 -0.4722
  380SOL     OW 1517   3.087   2.283   0.091 -0.2809 -0.3900  0.1809
  380SOL    HW1 1518   3.143   2.361   0.086 -1.3860  0.3465 -3.2558
  380SOL    HW2 1519   3.146   2.210   0.071 -0.1798  0.2175 -1.9605
  380SOL     MW 1520   3.102   2.284   0.088 -0.4094 -0.2180 -0.5332
  381SOL     OW 1521   1.371   2.863   1.453 -0.2993 -0.6777  0.3255
  381SOL    HW1 1522   1.345   2.816   1.532 -0.8410 -1.5813 -0.3866
  381SOL    HW2 1523   1.410   2.797   1.397  1.0407  0.1525  0.2420
  381SOL     MW 1524   1.373   2.849   1.456 -0.1971 -0.6871  0.2236
  382SOL     OW 1525   3.641   5.275   4.806  0.6075  0.3545 -0.0927
  382SOL    HW1 1526   3.646   5.271   4.710  0.6265  0.8344 -0.1135
  382SOL    HW2 1527   3.731   5.293   4.833  0.4881  0.8418 -0.0192
  382SOL     MW 1528   3.653   5.277   4.797  0.5947  0.4783 -0.0859
  383SOL     OW 1529   4.574   1.312   1.800 -0.6283 -0.3390 -0.3526
  383SOL    HW1 1530   4.632   1.279   1.731  0.1830 -0.1428  0.2242
  383SOL    HW2 1531   4.620   1.388   1.836 -0.6911 -0.8632  0.8895
  383SOL     MW 1532   4.587   1.317   1.796 -0.5325 -0.3810 -0.1198
  384SOL     OW 1533   5.450   4.563   3.895  0.3329 -0.1465 -0.3091
  384SOL    HW1 1534   5.443   4.512   3.975 -0.2069 -0.3525 -0.4804
  384SOL    HW2 1535   5.506   4.637   3.919 -0.5364  0.2740  0.5148
  384SOL     MW 1536   5.456   4.566   3.908  0.1525 -0.1190 -0.2255
  385SOL     OW 1537   3.084   4.163   0.006  0.3439 -0.0796 -0.0542
  385SOL    HW1 1538   3.092   4.258   0.005  0.8015 -0.0747  1.5684
  385SOL    HW2 1539   3.050   4.143   0.093  1.3866 -1.4823  0.0547
  385SOL     MW 1540   3.081   4.173   0.017  0.5360 -0.2586  0.1675
  386SOL     OW 1541   0.772   3.458   4.133  0.7181  0.4492  0.4089
  386SOL    HW1 1542   0.745   3.387   4.193  1.6762  1.2517  1.8576
  386SOL    HW2 1543   0.741   3.538   4.176  0.3963  0.9833 -0.7887
  386SOL     MW 1544   0.764   3.459   4.146  0.7996  0.6203  0.4410
  387SOL     OW 1545   1.364   0.636   3.423 -0.1613  0.2746 -0.4132
  387SOL    HW1 1546   1.333   0.705   3.482 -0.3898  0.5687 -0.8669
  387SOL    HW2 1547   1.387   0.563   3.480 -0.8722  0.3655 -0.0038
  387SOL     MW 1548   1.363   0.636   3.438 -0.2815  0.3239 -0.4189
  388SOL     OW 1549   2.848   3.969   2.266 -0.0620 -0.1988 -0.0210
  388SOL    HW1 1550   2.900   3.924   2.333  1.1159  1.2287  0.0567
  388SOL    HW2 1551   2.909   3.985   2.195 -0.6803  0.5622 -0.3919
  388SOL     MW 1552   2.862   3.965   2.265  0.0096  0.0813 -0.0585
  389SOL     OW 1553   0.945   1.999   2.735  0.6122  0.3317 -0.1219
  389SOL    HW1 1554   0.946   2.018   2.829 -0.4438  1.4443 -0.3184
  389SOL    HW2 1555   1.037   2.007   2.709  0.9005  0.1277  0.7850
  389SOL     MW 1556   0.957   2.002   2.744  0.5139  0.4480 -0.0309
  390SOL     OW 1557   3.571   5.414   2.786 -0.3549  0.0336  0.1677
  390SOL    HW1 1558   3.529   5.339   2.745 -1.8830  0.3503  1.0914
  390SOL    HW2 1559   3.635   5.376   2.847 -1.5536 -0.5742  1.0874
  390SOL     MW 1560   3.574   5.400   2.789 -0.7040 -0.0037  0.4037
  391SOL     OW 1561   4.272   3.967   3.045 -0.1815  0.1265 -1.0463
  391SOL    HW1 1562   4.196   3.927   3.087 -0.6430  1.0340 -0.9783
  391SOL    HW2 1563   4.292   4.043   3.100  0.7855 -0.1114 -1.0574
  391SOL     MW 1564   4.264   3.972   3.057 -0.1168  0.2122 -1.0390
  392SOL     OW 1565   4.678   2.841   3.215  0.3077 -0.2161  0.5174
  392SOL    HW1 1566   4.744   2.887   3.162  0.9454 -2.0077 -0.3476
  392SOL    HW2 1567   4.717   2.836   3.302  0.4045  0.5287  0.5226
  392SOL     MW 1568   4.692   2.846   3.219  0.4017 -0.3501  0.4074
  393SOL     OW 1569   4.207   2.505   4.801  0.1336  0.5052 -0.0218
  393SOL    HW1 1570   4.293   2.467   4.818  0.0925  0.8155  0.9152
  393SOL    HW2 1571   4.223   2.598   4.788  0.0699  0.3917 -0.9954
  393SOL     MW 1572   4.220   2.512   4.801  0.1202  0.5304 -0.0265
  394SOL     OW 1573   3.419   4.760   2.657 -0.3521 -0.6042  0.1992
  394SOL    HW1 1574   3.353   4.757   2.726 -0.2360 -2.3051  0.2797
  394SOL    HW2 1575   3.369   4.767   2.575 -0.4858  1.5535  0.4180
  394SOL     MW 1576   3.404   4.760   2.655 -0.3544 -0.5457  0.2375
  395SOL     OW 1577   1.322   3.814   2.687 -0.1404 -0.1185  0.3259
  395SOL    HW1 1578   1.280   3.729   2.672 -1.6060  0.6324 -0.0008
  395SOL    HW2 1579   1.319   3.826   2.782 -1.4564  0.2699  0.2651
  395SOL     MW 1580   1.316   3.805   2.697 -0.4965  0.0273  0.2763
  396SOL     OW 1581   3.645   1.990   3.087 -0.2005 -0.1736 -0.3949
  396SOL    HW1 1582   3.728   1.992   3.134  0.0184  1.5672 -0.7898
  396SOL    HW2 1583   3.612   1.901   3.099  0.4798 -0.1605  1.9049
  396SOL     MW 1584   3.651   1.979   3.094 -0.0854  0.0509 -0.1511
  397SOL     OW 1585   5.420   4.734   3.654 -0.0420  0.7591 -0.0448
  397SOL    HW1 1586   5.351   4.760   3.593  0.4858 -0.6740 -1.2968
  397SOL    HW2 1587   5.373   4.711   3.734 -0.9338  0.7925 -0.5436
  397SOL     MW 1588   5.405   4.734   3.657 -0.0886  0.5799 -0.2690
  398SOL     OW 1589   1.589   0.510   2.199  0.4055  0.1612  0.0921
  398SOL    HW1 1590   1.585   0.436   2.259 -1.4369 -0.5267 -0.8156
  398SOL    HW2 1591   1.603   0.471   2.113 -1.9001  0.6936 -0.5935
  398SOL     MW 1592   1.591   0.496   2.196 -0.1255  0.1413 -0.1118
  399SOL     OW 1593   0.329   0.626   0.195  0.0653 -0.5236  0.2876
  399SOL    HW1 1594   0.295   0.702   0.244  1.4366 -0.5507  1.3451
  399SOL    HW2 1595   0.251   0.574   0.175 -0.7036  0.2261  1.2022
  399SOL     MW 1596   0.314   0.629   0.199  0.1424 -0.4311  0.5401
  400SOL     OW 1597   3.046   0.798   1.627 -0.0616 -0.2242  0.2660
  400SOL    HW1 1598   3.116   0.746   1.666  0.2925 -1.0438 -1.3689
  400SOL    HW2 1599   3.089   0.847   1.557 -0.9515 -0.0576 -0.1821
  400SOL     MW 1600   3.061   0.798   1.623 -0.1302 -0.3078 -0.0006
  401SOL     OW 1601   4.712   2.397   5.303 -0.4266 -0.0225  0.2101
  401SOL    HW1 1602   4.738   2.482   5.266 -0.5518 -0.2754 -0.4804
  401SOL    HW2 1603   4.652   2.361   5.238  0.9628 -1.4172 -0.3398
  401SOL     MW 1604   4.707   2.403   5.290 -0.2648 -0.2334  0.0513
  402SOL     OW 1605   1.842   2.123   1.139  0.7967  0.4336  0.0841
  402SOL    HW1 1606   1.828   2.171   1.220  0.9124  1.4147 -0.4661
  402SOL    HW2 1607   1.912   2.061   1.160 -0.4387 -0.6145  1.2412
  402SOL     MW 1608   1.849   2.121   1.152  0.6534  0.4250  0.1618
  403SOL     OW 1609   4.925   1.091   2.412  0.7396  0.4304 -0.3181
  403SOL    HW1 1610   4.997   1.147   2.441  1.3242 -1.2664  1.7924
  403SOL    HW2 1611   4.952   1.002   2.438 -1.4902 -0.4463 -0.7565
  403SOL     MW 1612   4.938   1.087   2.419  0.5290  0.1009 -0.1041
  404SOL     OW 1613   4.364   2.068   3.170  0.2202 -0.1964  0.0069
  404SOL    HW1 1614   4.334   1.980   3.190 -0.9706  0.2058  0.0647
  404SOL    HW2 1615   4.325   2.123   3.238 -0.6320  0.6311 -1.1176
  404SOL     MW 1616   4.355   2.064   3.181 -0.0413 -0.0390 -0.1296
  405SOL     OW 1617   2.815   3.385   2.285 -0.0314  0.3149 -0.0861
  405SOL    HW1 1618   2.731   3.430   2.276 -0.9878 -1.3062  0.3806
  405SOL    HW2 1619   2.830   3.344   2.200 -0.6306 -0.8996  0.3793
  405SOL     MW 1620   2.806   3.386   2.273 -0.2305 -0.0481  0.0333
  406SOL     OW 1621   5.158   3.941   1.716 -0.0490 -0.3112 -0.1485
  406SOL    HW1 1622   5.235   3.906   1.761  0.0862  0.3165  0.1066
  406SOL    HW2 1623   5.091   3.949   1.784  0.3967  1.3796  0.1277
  406SOL     MW 1624   5.159   3.937   1.730  0.0254 -0.0144 -0.0805
  407SOL     OW 1625   3.070   2.600   4.918 -0.0022  0.3495  0.4090
  407SOL    HW1 1626   3.156   2.567   4.892  0.4983  2.2614 -0.5600
  407SOL    HW2 1627   3.031   2.529   4.969  2.3643 -0.3665  1.3494
  407SOL     MW 1628   3.076   2.587   4.921  0.3648  0.5026  0.4054
  408SOL     OW 1629   4.339   3.655   0.523 -0.3219 -0.1630 -0.2538
  408SOL    HW1 1630   4.292   3.718   0.469 -0.4030 -0.9700 -1.1287
  408SOL    HW2 1631   4.315   3.679   0.613 -0.2915  1.0940 -0.5524
  408SOL     MW 1632   4.330   3.666   0.528 -0.3284 -0.1054 -0.4040
  409SOL     OW 1633   1.667   0.225   3.904  0.0813  0.0068  0.2901
  409SOL    HW1 1634   1.581   0.183   3.912 -0.8701  1.8556  0.4584
  409SOL    HW2 1635   1.664   0.270   3.820  1.6193 -1.3659 -0.5483
  409SOL     MW 1636   1.656   0.225   3.894  0.1564  0.0678  0.2043
  410SOL     OW 1637   5.084   2.767   5.440 -0.6966 -0.7878  0.5744
  410SOL    HW1 1638   5.102   2.857   5.468 -2.7788 -0.1593  0.0703
  410SOL    HW2 1639   5.168   2.735   5.407 -0.0480  1.1908  0.1942
  410SOL     MW 1640   5.097   2.774   5.439 -0.8801 -0.4541  0.4612
  411SOL     OW 1641   5.332   3.255   1.124  0.0418 -0.2249 -0.0343
  411SOL    HW1 1642   5.353   3.307   1.202  0.3957  0.3127 -0.4834
  411SOL    HW2 1643   5.251   3.209   1.147 -0.4374  0.7518  0.2559
  411SOL     MW 1644   5.325   3.256   1.137  0.0258 -0.0311 -0.0547
  412SOL     OW 1645   5.315   3.403   4.988  0.8103 -0.1628 -0.3418
  412SOL    HW1 1646   5.392   3.425   4.936  1.1946  2.4776  1.2074
  412SOL    HW2 1647   5.322   3.456   5.067 -1.7584 -1.0985  0.6440
  412SOL     MW 1648   5.325   3.412   4.991  0.5307  0.0555 -0.0173
  413SOL     OW 1649   1.144   1.243   5.131  0.3521 -0.4635  0.3628
  413SOL    HW1 1650   1.077   1.175   5.133  0.7789 -0.9586 -1.2700
  413SOL    HW2 1651   1.215   1.207   5.184  0.3295 -1.0187  0.0213
  413SOL     MW 1652   1.144   1.230   5.138  0.4038 -0.5979  0.1101
  414SOL     OW 1653   3.182   0.763   0.418 -0.2019 -0.2932 -0.3971
  414SOL    HW1 1654   3.159   0.847   0.458  1.2564  0.6075 -1.3643
  414SOL    HW2 1655   3.250   0.727   0.474 -2.4873 -2.0869  1.4252
  414SOL     MW 1656   3.188   0.769   0.430 -0.3078 -0.4075 -0.2876
  415SOL     OW 1657   1.396   1.840   4.413  0.0390 -0.0524  0.0864
  415SOL    HW1 1658   1.444   1.843   4.495  0.8998 -0.1051 -0.4036
  415SOL    HW2 1659   1.435   1.767   4.364 -1.2777 -0.8171  0.1147
  415SOL     MW 1660   1.407   1.831   4.417 -0.0194 -0.1570  0.0273
  416SOL     OW 1661   0.588   4.076   0.177 -0.1804  0.0432 -0.0604
  416SOL    HW1 1662   0.520   4.104   0.239 -1.2735  1.2748 -1.7095
  416SOL    HW2 1663   0.620   3.993   0.212 -3.5221 -1.3354  0.1400
  416SOL     MW 1664   0.583   4.069   0.189 -0.7481  0.0244 -0.2459
  417SOL     OW 1665   1.733   4.086   2.857 -0.2773 -0.7554  0.2122
  417SOL    HW1 1666   1.727   4.097   2.952 -0.6393 -1.4374  0.2803
  417SOL    HW2 1667   1.826   4.092   2.838 -0.1799 -0.8430  0.6464
  417SOL     MW 1668   1.744   4.088   2.866 -0.3112 -0.8539  0.2765
  418SOL     OW 1669   4.114   3.242   5.403  0.1094  0.3627 -0.1653
  418SOL    HW1 1670   4.171   3.196   5.465  0.7580  0.4517 -0.6812
  418SOL    HW2 1671   4.158   3.232   5.319 -0.0406  1.4365 -0.3857
  418SOL     MW 1672   4.127   3.235   5.400  0.1732  0.5116 -0.2596
  419SOL     OW 1673   4.063   1.299   2.966 -0.3111  0.0297  0.0401
  419SOL    HW1 1674   4.049   1.228   2.903  0.3839  0.9900 -1.2320
  419SOL    HW2 1675   3.991   1.360   2.950 -0.4710 -0.0027  0.6046
  419SOL     MW 1676   4.052   1.298   2.956 -0.2426  0.1485 -0.0505
  420SOL     OW 1677   2.107   4.830   2.985  0.3584  0.4590 -0.6491
  420SOL    HW1 1678   2.128   4.917   2.950 -0.4898  0.9128 -0.0625
  420SOL    HW2 1679   2.192   4.790   3.002  0.7945  0.5740 -2.3446
  420SOL     MW 1680   2.121   4.836   2.983  0.3056  0.5318 -0.7911
  421SOL     OW 1681   4.768   2.681   1.281 -0.4520 -0.2540  0.1861
  421SOL    HW1 1682   4.825   2.663   1.356  0.3742 -1.4723 -0.6833
  421SOL    HW2 1683   4.687   2.633   1.301 -0.9793  0.9877  1.1482
  421SOL     MW 1684   4.765   2.672   1.294 -0.4138 -0.2510  0.1979
  422SOL     OW 1685   2.794   0.417   4.527 -0.3014 -0.1789 -0.2983
  422SOL    HW1 1686   2.760   0.476   4.460 -1.7260 -0.0664  0.4761
  422SOL    HW2 1687   2.889   0.417   4.514 -0.2572  2.2158 -0.3788
  422SOL     MW 1688   2.802   0.425   4.517 -0.4781  0.1421 -0.2094
  423SOL     OW 1689   2.398   4.799   2.487 -0.2113  0.1675 -0.3110
  423SOL    HW1 1690   2.367   4.832   2.403  0.8561 -1.2699 -1.3210
  423SOL    HW2 1691   2.372   4.707   2.488 -1.6192  0.5308  1.6661
  423SOL     MW 1692   2.391   4.792   2.476 -0.2549  0.0300 -0.1872
  424SOL     OW 1693   2.783   2.193   1.527 -0.7863 -0.1913 -0.9836
  424SOL    HW1 1694   2.757   2.109   1.490  0.3772 -1.7093  1.4261
  424SOL    HW2 1695   2.872   2.179   1.560 -1.6038  1.0478  2.0751
  424SOL     MW 1696   2.791   2.181   1.527 -0.7420 -0.2270 -0.2836
  425SOL     OW 1697   2.369   2.651   2.058  0.1070  0.3257 -0.1642
  425SOL    HW1 1698   2.374   2.724   2.120 -0.0337  0.3239 -0.1507
  425SOL    HW2 1699   2.296   2.597   2.090  0.1733  0.2107 -0.2076
  425SOL     MW 1700   2.360   2.653   2.070  0.0975  0.3107 -0.1680
  426SOL     OW 1701   3.186   5.161   3.189  0.0749  0.4684 -0.1202
  426SOL    HW1 1702   3.201   5.081   3.239  0.0350  0.6264  0.1469
  426SOL    HW2 1703   3.133   5.216   3.248 -2.4506 -0.4460 -1.3839
  426SOL     MW 1704   3.181   5.158   3.203 -0.2535  0.3716 -0.2478
  427SOL     OW 1705   3.952   5.362   0.046  0.4334  0.2823 -0.3209
  427SOL    HW1 1706   3.911   5.341  -0.039  0.0679 -0.8379  0.1154
  427SOL    HW2 1707   3.878   5.387   0.102  0.2955 -1.6052  0.4281
  427SOL     MW 1708   3.937   5.362   0.042  0.3690 -0.1027 -0.1691
  428SOL     OW 1709   5.050   3.659   4.064  0.1501 -0.5959  0.3328
  428SOL    HW1 1710   5.070   3.749   4.089 -0.9561 -0.1098 -0.4469
  428SOL    HW2 1711   4.992   3.667   3.988  0.4475 -1.9746 -0.0803
  428SOL     MW 1712   5.045   3.671   4.057  0.0466 -0.7102  0.1801
  429SOL     OW 1713   0.951   3.098   3.769  0.5055  0.1297 -0.6853
  429SOL    HW1 1714   1.033   3.141   3.791  0.9068 -0.2669 -1.3655
  429SOL    HW2 1715   0.887   3.135   3.830  0.6965  2.1113 -1.6036
  429SOL     MW 1716   0.953   3.108   3.779  0.5813  0.3326 -0.8900
  430SOL     OW 1717   0.324   2.434   3.387 -0.0899  0.0411  0.0004
  430SOL    HW1 1718   0.282   2.460   3.469  1.4713  3.5529 -0.1457
  430SOL    HW2 1719   0.275   2.480   3.319 -0.3783 -1.5783 -0.9439
  430SOL     MW 1720   0.312   2.443   3.389  0.0731  0.2833 -0.1392
  431SOL     OW 1721   3.806   1.851   5.148 -0.6909  0.2929  0.9956
  431SOL    HW1 1722   3.785   1.773   5.198 -1.9126  0.0586  0.1774
  431SOL    HW2 1723   3.827   1.918   5.214  1.4670 -0.9641  1.6843
  431SOL     MW 1724   3.806   1.850   5.163 -0.5711  0.1020  0.9790
  432SOL     OW 1725   2.379   3.313   4.989  0.4450  0.1833  0.0319
  432SOL    HW1 1726   2.390   3.390   5.046 -1.2781  0.9785 -0.6358
  432SOL    HW2 1727   2.284   3.303   4.981  0.6299 -0.2490 -2.2207
  432SOL     MW 1728   2.368   3.322   4.996  0.2481  0.2298 -0.3419
  433SOL     OW 1729   4.441   4.541   3.407 -0.0321 -0.0295 -0.2429
  433SOL    HW1 1730   4.468   4.506   3.492  1.5293  2.0529  0.1937
  433SOL    HW2 1731   4.516   4.527   3.350  0.1017  1.2576 -0.4267
  433SOL     MW 1732   4.454   4.535   3.411  0.1849  0.4018 -0.2105
  434SOL     OW 1733   3.366   3.012   3.463 -0.2539  0.1982  0.1683
  434SOL    HW1 1734   3.454   3.048   3.468 -0.3633  0.5344 -0.2847
  434SOL    HW2 1735   3.369   2.933   3.517  0.3658  0.1164  0.0182
  434SOL     MW 1736   3.377   3.007   3.471 -0.1886  0.2308  0.0911
  435SOL     OW 1737   3.330   1.800   2.896  0.7475  0.2162 -0.5075
  435SOL    HW1 1738   3.372   1.783   2.980  1.5776  2.3951 -0.4183
  435SOL    HW2 1739   3.236   1.788   2.913  0.7221  2.2152  1.2384
  435SOL     MW 1740   3.323   1.796   2.909  0.8505  0.7510 -0.2726
  436SOL     OW 1741   1.029   0.911   1.459  0.2091 -0.2802  0.5037
  436SOL    HW1 1742   1.112   0.951   1.433 -0.3080  1.1264  0.9025
  436SOL    HW2 1743   0.997   0.867   1.381  0.3832  0.8611 -0.2327
  436SOL     MW 1744   1.035   0.910   1.446  0.1652  0.0460  0.4605
  437SOL     OW 1745   4.537   5.417   0.082  0.0352 -0.3160 -0.1096
  437SOL    HW1 1746   4.500   5.465   0.009 -0.7262 -1.1788 -0.3126
  437SOL    HW2 1747   4.572   5.336   0.043 -1.0651 -1.1404  0.5601
  437SOL     MW 1748   4.537   5.413   0.068 -0.2031 -0.5320 -0.0499
  438SOL     OW 1749   2.591   4.639   3.353  0.1451  0.4351  0.4285
  438SOL    HW1 1750   2.624   4.681   3.433  0.4767  2.0469 -0.5271
  438SOL    HW2 1751   2.541   4.707   3.308 -1.3962 -0.9062  0.0065
  438SOL     MW 1752   2.589   4.653   3.358 -0.0097  0.4697  0.2521
  439SOL     OW 1753   4.309   5.478   0.237  0.2694 -0.6187 -0.5118
  439SOL    HW1 1754   4.236   5.509   0.183 -0.9795  0.9024  1.8935
  439SOL    HW2 1755   4.373   5.446   0.174 -1.2324  0.7106 -2.8655
  439SOL     MW 1756   4.308   5.478   0.222 -0.0827 -0.2538 -0.5052
  440SOL     OW 1757   0.154   2.898   5.013  0.1551 -0.3698  0.0800
  440SOL    HW1 1758   0.072   2.915   4.967  0.1401  0.4791  0.4069
  440SOL    HW2 1759   0.220   2.893   4.944  0.0560  0.4166 -0.0800
  440SOL     MW 1760   0.152   2.899   4.998  0.1405 -0.1605  0.1014
  441SOL     OW 1761   2.585   2.559   3.704  0.3492 -0.7295  0.0852
  441SOL    HW1 1762   2.578   2.616   3.780 -0.0875 -1.2358  0.4345
  441SOL    HW2 1763   2.566   2.615   3.629  2.7577  0.2798  0.1128
  441SOL     MW 1764   2.582   2.573   3.704  0.6016 -0.6651  0.1335
  442SOL     OW 1765   4.150   3.655   3.349 -0.0860 -0.6610 -0.4414
  442SOL    HW1 1766   4.217   3.723   3.341 -0.2832 -0.3717  0.3374
  442SOL    HW2 1767   4.199   3.573   3.349  0.1808 -0.5104 -0.9708
  442SOL     MW 1768   4.165   3.654   3.348 -0.0771 -0.6047 -0.4094
  443SOL     OW 1769   2.870   5.212   2.299 -0.0808  0.2069 -0.1777
  443SOL    HW1 1770   2.936   5.279   2.318 -0.4457  0.4226  0.3352
  443SOL    HW2 1771   2.894   5.139   2.355 -1.5704  1.0983  1.7304
  443SOL     MW 1772   2.882   5.211   2.309 -0.3182  0.3486  0.1323
  444SOL     OW 1773   0.402   0.741   1.956  0.0858  0.3572  0.1932
  444SOL    HW1 1774   0.320   0.693   1.968  0.2218 -0.2568 -1.1443
  444SOL    HW2 1775   0.469   0.674   1.950  0.8008  0.8771  1.8483
  444SOL     MW 1776   0.400   0.727   1.957  0.1948  0.3451  0.2339
  445SOL     OW 1777   1.350   2.696   2.591 -0.0730  0.4705  0.1250
  445SOL    HW1 1778   1.319   2.684   2.680 -1.8841  1.0009 -0.4003
  445SOL    HW2 1779   1.301   2.633   2.539  0.0958  0.9724 -0.6679
  445SOL     MW 1780   1.340   2.687   2.595 -0.2832  0.6027 -0.0438
  446SOL     OW 1781   0.115   3.614   0.527  0.1902  0.3358  0.3105
  446SOL    HW1 1782   0.174   3.549   0.488 -0.7378  0.1551 -0.8422
  446SOL    HW2 1783   0.173   3.681   0.563  1.1030  0.2345 -0.9200
  446SOL     MW 1784   0.130   3.614   0.527  0.1882  0.2997  0.0055
  447SOL     OW 1785   1.411   1.054   3.749 -0.2164  0.6250  0.1849
  447SOL    HW1 1786   1.484   0.996   3.770  0.5730  1.2023 -0.8486
  447SOL    HW2 1787   1.433   1.090   3.663 -1.9007  0.5346 -0.3208
  447SOL     MW 1788   1.423   1.051   3.740 -0.3310  0.6873 -0.0121
  448SOL     OW 1789   2.563   0.511   3.323  0.0575 -0.4064 -0.4339
  448SOL    HW1 1790   2.566   0.433   3.268  0.5609 -1.1847  0.6635
  448SOL    HW2 1791   2.485   0.499   3.378 -0.9025  0.7398 -1.4765
  448SOL     MW 1792   2.553   0.500   3.323 -0.0009 -0.3593 -0.4269
  449SOL     OW 1793   2.620   0.592   5.382 -0.3620  0.3033  0.3547
  449SOL    HW1 1794   2.654   0.673   5.345  0.4218 -0.1591  0.0501
  449SOL    HW2 1795   2.577   0.619   5.463 -1.2012  1.1865 -0.3496
  449SOL     MW 1796   2.619   0.606   5.387 -0.3691  0.3572  0.2255
  450SOL     OW 1797   2.761   0.480   1.289 -0.3256 -0.1811  0.0651
  450SOL    HW1 1798   2.789   0.521   1.371 -0.6888 -1.7592  1.0283
  450SOL    HW2 1799   2.709   0.547   1.245 -0.2314  0.6620  1.1841
  450SOL     MW 1800   2.758   0.493   1.294 -0.3600 -0.2752  0.3317
  451SOL     OW 1801   1.330   4.555   2.224  0.8123  0.8963 -0.1408
  451SOL    HW1 1802   1.244   4.574   2.186  1.4083 -0.0127 -2.1279
  451SOL    HW2 1803   1.312   4.529   2.314 -0.9958  0.7153 -0.5161
  451SOL     MW 1804   1.317   4.554   2.230  0.6571  0.7568 -0.4432
  452SOL     OW 1805   4.586   5.425   3.523  0.4215  0.2700 -0.3716
  452SOL    HW1 1806   4.614   5.511   3.556  1.6384 -0.5119  0.7377
  452SOL    HW2 1807   4.493   5.420   3.545  0.4866  1.0344  0.1232
  452SOL     MW 1808   4.578   5.435   3.530  0.5856  0.2678 -0.1663
  453SOL     OW 1809   0.493   3.750   1.727  0.1141 -0.6353 -0.3055
  453SOL    HW1 1810   0.497   3.839   1.692 -0.4828 -0.3138  0.4276
  453SOL    HW2 1811   0.583   3.730   1.753 -0.0582  0.4429  1.2148
  453SOL     MW 1812   0.505   3.759   1.726  0.0156 -0.4561 -0.0171
  454SOL     OW 1813   1.813   1.305   1.069  0.3332 -0.6532 -0.4865
  454SOL    HW1 1814   1.773   1.354   0.997 -0.8516 -0.0714  0.5245
  454SOL    HW2 1815   1.907   1.318   1.057  0.0907  2.2500 -0.0591
  454SOL     MW 1816   1.820   1.313   1.058  0.1505 -0.2071 -0.3024
  455SOL     OW 1817   5.455   4.266   3.126  0.3995 -0.2329  0.0238
  455SOL    HW1 1818   5.457   4.171   3.137  0.9422 -0.2949 -0.5388
  455SOL    HW2 1819   5.520   4.284   3.057 -0.7420  0.4035 -0.9284
  455SOL     MW 1820   5.464   4.256   3.118  0.3229 -0.1594 -0.1701
  456SOL     OW 1821   5.027   2.495   3.421 -0.4192 -0.1985  0.6145
  456SOL    HW1 1822   5.070   2.581   3.428 -1.6646  0.9494 -3.0620
  456SOL    HW2 1823   5.097   2.432   3.435  1.3802  1.5184 -0.0840
  456SOL     MW 1824   5.042   2.498   3.424 -0.3482  0.1682  0.0544
  457SOL     OW 1825   0.544   5.026   4.903 -0.1736 -1.0963  0.0153
  457SOL    HW1 1826   0.516   4.993   4.818  3.4728  0.5267 -2.0712
  457SOL    HW2 1827   0.611   4.963   4.932 -0.2962 -0.8224  0.9237
  457SOL     MW 1828   0.549   5.013   4.896  0.2775 -0.8535 -0.1355
  458SOL     OW 1829   1.680   2.469   3.487  0.0294 -0.3564  0.6134
  458SOL    HW1 1830   1.620   2.450   3.415 -0.3881  0.6258  0.6909
  458SOL    HW2 1831   1.696   2.563   3.481  0.7581 -0.4321  1.2177
  458SOL     MW 1832   1.674   2.478   3.477  0.0693 -0.2404  0.7006
  459SOL     OW 1833   4.079   0.034   4.734  0.5320 -0.0915  0.4176
  459SOL    HW1 1834   4.080   0.124   4.703  1.3773 -0.3177 -0.2474
  459SOL    HW2 1835   4.139  -0.013   4.675 -0.0629 -1.1319  0.6104
  459SOL     MW 1836   4.087   0.039   4.722  0.5641 -0.2537  0.3571
  460SOL     OW 1837   4.054   4.242   5.336  0.8757 -0.6593 -0.4701
  460SOL    HW1 1838   3.968   4.200   5.331  0.5041 -0.0190  0.3806
  460SOL    HW2 1839   4.051   4.309   5.267  0.9316 -1.0584 -0.8639
  460SOL     MW 1840   4.042   4.245   5.326  0.8353 -0.6284 -0.4116
  461SOL     OW 1841   3.849   1.335   1.794  0.2191  0.3091 -0.4257
  461SOL    HW1 1842   3.823   1.392   1.866  1.7318 -0.4001  0.7506
  461SOL    HW2 1843   3.790   1.357   1.722 -1.7412  0.6329  1.2044
  461SOL     MW 1844   3.838   1.345   1.794  0.1618  0.2598 -0.0664
  462SOL     OW 1845   3.962   3.984   5.041 -0.0107  0.4339  1.1172
  462SOL    HW1 1846   3.941   3.893   5.019 -3.4119  0.9452  1.6910
  462SOL    HW2 1847   3.930   4.034   4.965 -0.6815  1.3096  1.9590
  462SOL     MW 1848   3.955   3.979   5.028 -0.5319  0.6115  1.2984
  463SOL     OW 1849   1.913   1.223   2.542  0.1341  0.1125  0.0273
  463SOL    HW1 1850   1.909   1.281   2.465 -0.2088 -0.8881 -0.7343
  463SOL    HW2 1851   1.835   1.168   2.534  1.3370 -1.6434 -0.2415
  463SOL     MW 1852   1.902   1.224   2.531  0.2442 -0.2404 -0.1046
  464SOL     OW 1853   5.488   4.018   1.541 -0.0795  0.0994  0.0639
  464SOL    HW1 1854   5.463   4.052   1.455  1.5552 -0.4306 -0.6741
  464SOL    HW2 1855   5.474   4.091   1.601 -0.6218  0.6977 -0.7588
  464SOL     MW 1856   5.483   4.031   1.537  0.0604  0.1081 -0.1359
  465SOL     OW 1857   3.315   0.782   1.914  0.7370 -0.2048 -0.0798
  465SOL    HW1 1858   3.351   0.707   1.865  0.4378  0.0005 -0.6168
  465SOL    HW2 1859   3.329   0.857   1.856  2.5566  0.4562  1.1346
  465SOL     MW 1860   3.322   0.782   1.900  0.9316 -0.0939  0.0069
  466SOL     OW 1861   3.999   0.720   2.845  0.3103  0.4573  0.5116
  466SOL    HW1 1862   3.945   0.641   2.847 -0.1903  0.8012  0.8007
  466SOL    HW2 1863   4.002   0.744   2.752  0.1948  0.2878  0.4630
  466SOL     MW 1864   3.993   0.713   2.833  0.2315  0.4797  0.5424
  467SOL     OW 1865   1.839   1.102   4.826  0.7149  0.0507 -0.0625
  467SOL    HW1 1866   1.768   1.122   4.887  0.0118 -2.2163 -0.0414
  467SOL    HW2 1867   1.883   1.026   4.865  1.1533 -0.5533 -1.6477
  467SOL     MW 1868   1.835   1.095   4.839  0.6811 -0.3168 -0.2627
  468SOL     OW 1869   1.384   2.233   4.838  0.0668 -0.7736 -0.6472
  468SOL    HW1 1870   1.432   2.316   4.833 -1.0786 -0.0451  0.0141
  468SOL    HW2 1871   1.315   2.242   4.772 -2.4678  0.4674  1.9668
  468SOL     MW 1872   1.382   2.245   4.829 -0.4043 -0.5215 -0.2279
  469SOL     OW 1873   2.439   3.350   2.846  0.1577  0.1240 -0.1403
  469SOL    HW1 1874   2.453   3.376   2.755 -0.5034 -1.5384 -0.7555
  469SOL    HW2 1875   2.427   3.433   2.893  2.1678  1.1105 -1.2334
  469SOL     MW 1876   2.439   3.364   2.840  0.3304  0.0375 -0.3590
  470SOL     OW 1877   1.052   3.294   2.905  0.3558  0.6207  1.0146
  470SOL    HW1 1878   0.988   3.312   2.836  0.5326 -0.4100  0.5770
  470SOL    HW2 1879   1.037   3.202   2.929  1.9334  0.2374  0.6308
  470SOL     MW 1880   1.042   3.285   2.899  0.5804  0.4397  0.9095
  471SOL     OW 1881   4.443   4.569   1.574  0.3162 -0.3768  0.2143
  471SOL    HW1 1882   4.414   4.647   1.528 -1.6195 -0.0082  1.9217
  471SOL    HW2 1883   4.364   4.515   1.582  0.6081 -0.5709  2.6835
  471SOL     MW 1884   4.429   4.572   1.569  0.1058 -0.3544  0.7489
  472SOL     OW 1885   0.929   5.101   5.444  0.3346 -0.0357 -0.9180
  472SOL    HW1 1886   1.002   5.040   5.432 -0.0277 -0.7623  0.3993
  472SOL    HW2 1887   0.856   5.060   5.398  0.2938 -0.2153 -0.6955
  472SOL     MW 1888   0.929   5.088   5.437  0.2830 -0.1517 -0.7209
  473SOL     OW 1889   1.016   4.124   0.497  0.1132 -0.3169  0.0840
  473SOL    HW1 1890   0.958   4.049   0.487  1.5747 -1.7813  1.8854
  473SOL    HW2 1891   1.104   4.088   0.483  0.8929  0.9273  1.5434
  473SOL     MW 1892   1.020   4.110   0.494  0.4001 -0.3451  0.5014
  474SOL     OW 1893   3.794   3.877   0.042  0.2504  0.1228 -0.0908
  474SOL    HW1 1894   3.759   3.893   0.130 -0.3081 -0.5605 -0.1790
  474SOL    HW2 1895   3.749   3.797   0.013  0.8240  0.0499 -0.7870
  474SOL     MW 1896   3.783   3.869   0.050  0.2523  0.0260 -0.1912
  475SOL     OW 1897   2.586   3.243   1.565  0.4643  0.5092 -0.0808
  475SOL    HW1 1898   2.669   3.199   1.581 -0.0600  0.2392  2.1234
  475SOL    HW2 1899   2.565   3.288   1.647 -2.2558 -0.5757 -0.0678
  475SOL     MW 1900   2.594   3.243   1.577  0.0490  0.3358  0.2030
  476SOL     OW 1901   3.105   2.044   2.074  0.0026 -0.6302  0.3914
  476SOL    HW1 1902   3.125   2.051   1.980  0.5951 -2.2533  0.3617
  476SOL    HW2 1903   3.027   2.097   2.086 -0.0391 -0.3353 -1.0155
  476SOL     MW 1904   3.098   2.052   2.063  0.0731 -0.8002  0.2075
  477SOL     OW 1905   2.654   2.781   2.524  0.3020 -0.5301  0.2943
  477SOL    HW1 1906   2.628   2.846   2.589  1.2991 -0.5769  0.7662
  477SOL    HW2 1907   2.702   2.831   2.458  1.8254 -0.8659  1.0945
  477SOL     MW 1908   2.657   2.796   2.524  0.6247 -0.5791  0.4571
  478SOL     OW 1909   5.297   2.204   2.703 -0.0072 -0.3235  0.1199
  478SOL    HW1 1910   5.290   2.211   2.798  0.2249  0.6376  0.0750
  478SOL    HW2 1911   5.388   2.227   2.684 -0.6219  1.8164 -0.5127
  478SOL     MW 1912   5.308   2.207   2.713 -0.0562  0.0735  0.0332
  479SOL     OW 1913   2.660   3.215   4.741 -0.1008  0.1403 -0.2605
  479SOL    HW1 1914   2.569   3.223   4.715  0.2006  1.6459 -0.9776
  479SOL    HW2 1915   2.662   3.242   4.833 -0.3091  0.6138 -0.3943
  479SOL     MW 1916   2.649   3.220   4.750 -0.0889  0.3937 -0.3694
  480SOL     OW 1917   3.435   3.123   0.288  0.4400 -0.2056 -0.7006
  480SOL    HW1 1918   3.470   3.210   0.273 -0.1279  0.4585  1.4131
  480SOL    HW2 1919   3.355   3.137   0.339  1.1824 -1.9768  1.1146
  480SOL     MW 1920   3.429   3.136   0.293  0.4623 -0.3473 -0.1977
  481SOL     OW 1921   5.290   2.457   4.129 -0.3478 -0.1183 -0.3495
  481SOL    HW1 1922   5.279   2.552   4.126  0.1411 -0.0877 -1.2603
  481SOL    HW2 1923   5.347   2.436   4.055 -0.7603 -1.1670 -0.3886
  481SOL     MW 1924   5.296   2.466   4.119 -0.3381 -0.2487 -0.4711
  482SOL     OW 1925   1.957   5.428   1.001 -0.3813 -0.2086 -0.4559
  482SOL    HW1 1926   1.890   5.361   1.016 -0.4557 -0.1521 -0.5418
  482SOL    HW2 1927   2.040   5.381   1.010 -0.2841  0.3532  3.2700
  482SOL     MW 1928   1.959   5.413   1.004 -0.3784 -0.1294  0.0101
  483SOL     OW 1929   0.426   0.026   5.297 -0.1088 -0.2897 -0.1961
  483SOL    HW1 1930   0.358   0.004   5.233 -0.1307  1.8743 -0.9953
  483SOL    HW2 1931   0.508  -0.001   5.255 -0.3492 -2.1431  0.4238
  483SOL     MW 1932   0.428   0.020   5.283 -0.1424 -0.2499 -0.2191
  484SOL     OW 1933   3.932   1.624   2.577 -0.3356 -0.2541  0.5220
  484SOL    HW1 1934   4.015   1.579   2.563 -0.2805 -1.0209  2.7980
  484SOL    HW2 1935   3.866   1.556   2.562 -0.3727 -0.4396  1.4181
  484SOL     MW 1936   3.934   1.609   2.573 -0.3333 -0.3760  0.9281
  485SOL     OW 1937   4.339   4.125   1.244  0.2255  0.2236  0.6913
  485SOL    HW1 1938   4.361   4.034   1.267  1.3471  0.6672  1.4689
  485SOL    HW2 1939   4.260   4.143   1.294 -1.9942 -1.3175 -1.9539
  485SOL     MW 1940   4.332   4.116   1.253  0.0849  0.0831  0.4522
  486SOL     OW 1941   3.065   2.633   0.238 -0.4484  0.4979  0.0006
  486SOL    HW1 1942   3.073   2.597   0.326 -1.1521  2.1958  0.8122
  486SOL    HW2 1943   3.153   2.666   0.218 -0.7592  2.1443  1.0679
  486SOL     MW 1944   3.078   2.633   0.247 -0.5782  0.9260  0.2411
  487SOL     OW 1945   2.045   3.434   4.657 -0.1053  0.2032  0.1459
  487SOL    HW1 1946   1.954   3.435   4.626 -0.3182 -1.3631  0.6398
  487SOL    HW2 1947   2.039   3.459   4.749 -0.3165 -1.8677  0.7386
  487SOL     MW 1948   2.033   3.437   4.665 -0.1596 -0.2624  0.2850
  488SOL     OW 1949   5.190   5.040   1.155 -0.0213 -0.2085  0.0374
  488SOL    HW1 1950   5.173   4.969   1.218 -0.1740  0.3554  0.6475
  488SOL    HW2 1951   5.140   5.016   1.077 -0.7736 -0.3402  0.5486
  488SOL     MW 1952   5.181   5.027   1.153 -0.1371 -0.1532  0.1810
  489SOL     OW 1953   2.004   3.869   4.471 -0.2560  0.3506  0.4301
  489SOL    HW1 1954   1.989   3.964   4.468 -0.8445  0.3510  2.4530
  489SOL    HW2 1955   2.064   3.856   4.544  0.7145 -0.7735 -0.5125
  489SOL     MW 1956   2.010   3.880   4.480 -0.2071  0.2067  0.5684
  490SOL     OW 1957   0.527   1.113   5.397  0.2663  0.2492 -0.7193
  490SOL    HW1 1958   0.496   1.028   5.366 -0.4820 -0.3157  1.4195
  490SOL    HW2 1959   0.616   1.097   5.428 -0.1771  0.0184  0.4762
  490SOL     MW 1960   0.534   1.100   5.397  0.1137  0.1474 -0.2925
  491SOL     OW 1961   0.456   3.974   4.966 -0.0557  0.8690 -0.0682
  491SOL    HW1 1962   0.544   3.945   4.992  0.9143  2.4345 -1.4214
  491SOL    HW2 1963   0.401   3.897   4.978  1.4078 -0.0274  1.2401
  491SOL     MW 1964   0.460   3.961   4.971  0.2558  0.9546 -0.0740
  492SOL     OW 1965   1.455   5.105   3.477 -0.0354  0.2413 -0.0436
  492SOL    HW1 1966   1.420   5.047   3.545 -0.3035  1.2932  0.7562
  492SOL    HW2 1967   1.546   5.078   3.467 -0.7587 -1.8949 -1.4503
  492SOL     MW 1968   1.462   5.094   3.485 -0.1623  0.1025 -0.1213
  493SOL     OW 1969   3.168   5.033   1.706  0.0906 -0.0103 -0.0395
  493SOL    HW1 1970   3.166   5.120   1.746 -0.7808 -0.9779  2.1667
  493SOL    HW2 1971   3.257   5.025   1.672 -0.3523  2.4442 -2.0894
  493SOL     MW 1972   3.179   5.043   1.707 -0.0776  0.1800 -0.0195
  494SOL     OW 1973   1.825   3.258   5.216  0.0623 -0.4253  0.0054
  494SOL    HW1 1974   1.798   3.272   5.307  1.1964 -0.6719  0.3928
  494SOL    HW2 1975   1.827   3.163   5.205 -1.3956 -0.4085 -0.7091
  494SOL     MW 1976   1.822   3.248   5.226  0.0209 -0.4547 -0.0365
  495SOL     OW 1977   2.369   1.134   3.900  0.7230 -0.2495  0.2488
  495SOL    HW1 1978   2.344   1.103   3.813  0.2519  0.4772  0.1184
  495SOL    HW2 1979   2.439   1.075   3.927  1.8858  0.3805 -1.2241
  495SOL     MW 1980   2.374   1.123   3.892  0.8115 -0.0758  0.0436
  496SOL     OW 1981   4.933   2.354   2.264  0.0025 -0.0010 -0.0787
  496SOL    HW1 1982   5.020   2.388   2.285 -0.4585  0.9899  0.2692
  496SOL    HW2 1983   4.918   2.286   2.330  1.9329 -2.7444 -2.2097
  496SOL     MW 1984   4.942   2.349   2.275  0.1906 -0.2253 -0.3070
  497SOL     OW 1985   0.539   0.674   4.170 -0.5430 -0.2349 -0.3112
  497SOL    HW1 1986   0.554   0.580   4.181 -1.4731 -0.3909 -0.2998
  497SOL    HW2 1987   0.607   0.703   4.109  0.0493 -0.8176  0.0667
  497SOL     MW 1988   0.550   0.666   4.164 -0.5863 -0.3294 -0.2614
  498SOL     OW 1989   1.421   1.526   3.405  0.1547  0.2600  0.1332
  498SOL    HW1 1990   1.453   1.441   3.376  1.0633  0.4046  0.6607
  498SOL    HW2 1991   1.448   1.587   3.336  2.0348  0.5528  1.0593
  498SOL     MW 1992   1.429   1.523   3.393  0.5117  0.3160  0.3193
  499SOL     OW 1993   0.879   0.962   1.007  0.0013  0.7240  0.3069
  499SOL    HW1 1994   0.974   0.970   1.000 -0.0915  0.8803 -1.1628
  499SOL    HW2 1995   0.848   1.053   1.010 -0.1435  0.6932 -0.1486
  499SOL     MW 1996   0.887   0.975   1.006 -0.0291  0.7401  0.0604
  500SOL     OW 1997   0.222   2.662   1.809  0.1506  0.6843 -0.0578
  500SOL    HW1 1998   0.155   2.730   1.802 -1.2756 -0.7977 -1.5944
  500SOL    HW2 1999   0.199   2.613   1.888 -0.0893  0.6695 -0.1374
  500SOL     MW 2000   0.211   2.665   1.818 -0.0627  0.4927 -0.2647
  501SOL     OW 2001   2.745   2.071   5.351 -0.2252 -0.0204 -0.3769
  501SOL    HW1 2002   2.777   2.157   5.380  2.0295 -0.9718  0.1599
  501SOL    HW2 2003   2.663   2.059   5.399  0.9565  0.5597  1.9440
  501SOL     MW 2004   2.739   2.081   5.361  0.2147 -0.0680 -0.0110
  502SOL     OW 2005   5.088   3.786   3.140  0.1295  0.5334  0.5579
  502SOL    HW1 2006   5.136   3.712   3.178  1.2465  0.6457 -0.5860
  502SOL    HW2 2007   5.009   3.746   3.103  0.6435 -0.0691  0.0880
  502SOL     MW 2008   5.084   3.771   3.140  0.3383  0.4707  0.3513
  503SOL     OW 2009   0.917   0.111   2.110  0.1684 -0.3921 -0.5930
  503SOL    HW1 2010   0.931   0.061   2.190  1.4253 -1.5665 -1.5078
  503SOL    HW2 2011   0.889   0.046   2.045 -3.0200  0.8380 -0.6375
  503SOL     MW 2012   0.915   0.096   2.112 -0.0788 -0.3850 -0.7158
  504SOL     OW 2013   3.907   3.150   0.824 -0.0282  0.1138 -0.0247
  504SOL    HW1 2014   3.894   3.195   0.741 -0.2943 -1.7185 -1.0321
  504SOL    HW2 2015   3.999   3.165   0.845 -0.5421  2.6724  0.6917
  504SOL     MW 2016   3.917   3.158   0.816 -0.1281  0.2068 -0.0620
  505SOL     OW 2017   1.004   2.957   4.631  0.1292  0.1599 -0.8594
  505SOL    HW1 2018   0.939   2.889   4.612 -0.4182  0.4195 -0.0027
  505SOL    HW2 2019   1.013   2.955   4.726  2.2281 -0.6248 -1.0107
  505SOL     MW 2020   0.997   2.948   4.641  0.3278  0.0927 -0.7691
  506SOL     OW 2021   1.776   3.040   4.594  0.0332  0.0930  0.0478
  506SOL    HW1 2022   1.768   2.966   4.534  0.7164  0.4180 -0.4639
  506SOL    HW2 2023   1.747   3.115   4.543  0.2761  0.3193  0.2379
  506SOL     MW 2024   1.772   3.040   4.580  0.1518  0.1636  0.0066
  507SOL     OW 2025   3.781   4.191   5.336  0.6085 -0.6337 -0.3498
  507SOL    HW1 2026   3.742   4.152   5.258  1.2891 -2.8558  0.3616
  507SOL    HW2 2027   3.788   4.119   5.399 -1.4592  1.3969  2.4604
  507SOL     MW 2028   3.777   4.177   5.334  0.4309 -0.6582  0.1010
  508SOL     OW 2029   0.153   1.314   4.527 -0.0284 -0.3841 -0.6680
  508SOL    HW1 2030   0.130   1.224   4.504 -0.4664 -0.0714 -1.4779
  508SOL    HW2 2031   0.244   1.309   4.557 -0.0367 -1.0852 -0.7593
  508SOL     MW 2032   0.162   1.302   4.528 -0.0855 -0.4338 -0.7834
  509SOL     OW 2033   5.101   1.288   4.409  0.0598  0.2399 -0.5709
  509SOL    HW1 2034   5.172   1.353   4.412 -1.7185  2.3792 -1.7249
  509SOL    HW2 2035   5.082   1.269   4.501  1.6364  0.1341 -0.2331
  509SOL     MW 2036   5.108   1.294   4.421  0.0340  0.5002 -0.6754
  510SOL     OW 2037   4.635   2.721   0.708  0.6532  0.1247 -0.2595
  510SOL    HW1 2038   4.604   2.639   0.748  0.4905  0.4798  0.3519
  510SOL    HW2 2039   4.580   2.731   0.630  0.3002 -0.0748 -0.0414
  510SOL     MW 2040   4.624   2.712   0.703  0.5872  0.1446 -0.1533
  511SOL     OW 2041   4.736   3.181   4.887 -0.1868 -0.3552  0.5688
  511SOL    HW1 2042   4.820   3.158   4.848 -0.4506 -0.6811  0.1801
  511SOL    HW2 2043   4.729   3.126   4.965 -0.5150 -1.1271  0.0119
  511SOL     MW 2044   4.746   3.171   4.892 -0.2626 -0.4957  0.4478
  512SOL     OW 2045   3.415   0.039   2.130  0.7849  0.4388  0.2189
  512SOL    HW1 2046   3.480   0.039   2.200  0.6629  1.1988  0.3379
  512SOL    HW2 2047   3.453  -0.017   2.062  2.1885  1.9252 -0.2822
  512SOL     MW 2048   3.428   0.031   2.130  0.9490  0.7264  0.1700
  513SOL     OW 2049   1.721   3.892   2.503  0.4405  0.5561 -0.6677
  513SOL    HW1 2050   1.761   3.909   2.588  0.7782  1.7224 -1.0306
  513SOL    HW2 2051   1.660   3.820   2.519  1.0081  0.2909  0.3999
  513SOL     MW 2052   1.718   3.885   2.516  0.5564  0.6715 -0.5775
  514SOL     OW 2053   3.943   3.333   3.489 -0.1337 -0.2655  0.2949
  514SOL    HW1 2054   3.858   3.364   3.456 -0.0828 -0.0997  0.3160
  514SOL    HW2 2055   3.964   3.258   3.434  0.8044  1.0955 -1.2813
  514SOL     MW 2056   3.935   3.327   3.478 -0.0071 -0.0700  0.0958
  515SOL     OW 2057   4.595   4.964   1.055  0.0481 -0.2820 -0.1085
  515SOL    HW1 2058   4.652   4.887   1.062 -0.2072 -0.5823 -1.0823
  515SOL    HW2 2059   4.648   5.029   1.009 -0.6522 -0.8883 -1.8879
  515SOL     MW 2060   4.609   4.962   1.050 -0.0742 -0.3981 -0.4609
  516SOL     OW 2061   3.241   5.082   4.794  0.6663  0.8930  0.0538
  516SOL    HW1 2062   3.203   5.068   4.881  0.2801  0.9776 -0.1016
  516SOL    HW2 2063   3.329   5.044   4.800  0.8232  1.3360  0.6304
  516SOL     MW 2064   3.247   5.075   4.806  0.6369  0.9605  0.1077
  517SOL     OW 2065   0.679   0.963   2.211  0.4443  0.6709 -0.3162
  517SOL    HW1 2066   0.721   0.890   2.165 -1.9400  0.8521 -3.0485
  517SOL    HW2 2067   0.691   1.038   2.153 -0.3599  1.6122  0.6851
  517SOL     MW 2068   0.686   0.963   2.198  0.0361  0.8146 -0.5378
  518SOL     OW 2069   2.431   0.973   2.609 -0.0423 -0.1309 -0.1183
  518SOL    HW1 2070   2.355   0.924   2.578  0.2548 -0.6199 -0.0756
  518SOL    HW2 2071   2.468   1.011   2.529 -1.5567  1.9318  0.0566
  518SOL     MW 2072   2.426   0.972   2.595 -0.1981  0.0705 -0.0904
  519SOL     OW 2073   1.953   2.069   5.264  0.1080 -0.3377  0.4102
  519SOL    HW1 2074   2.042   2.084   5.233  0.2463 -2.4956 -0.4580
  519SOL    HW2 2075   1.962   2.056   5.359  0.4568  1.0576  0.5787
  519SOL     MW 2076   1.965   2.069   5.272  0.1703 -0.4353  0.3206
  520SOL     OW 2077   3.036   3.332   1.078 -0.0756  0.2600 -0.4102
  520SOL    HW1 2078   3.055   3.422   1.107 -0.8257  0.9067 -1.8217
  520SOL    HW2 2079   3.022   3.340   0.984 -1.1866 -1.1812 -0.3941
  520SOL     MW 2080   3.036   3.345   1.070 -0.3139  0.1583 -0.5888
  521SOL     OW 2081   3.878   5.280   1.988  0.3414  0.3842 -0.1166
  521SOL    HW1 2082   3.869   5.198   1.940 -0.6569  0.5504 -0.2230
  521SOL    HW2 2083   3.841   5.262   2.075  3.0512 -0.2298  1.0378
  521SOL     MW 2084   3.872   5.267   1.993  0.5605  0.3268  0.0176
  522SOL     OW 2085   5.377   2.308   2.273  0.5629 -0.1150  0.5849
  522SOL    HW1 2086   5.331   2.232   2.237  1.3421  0.8246 -2.6904
  522SOL    HW2 2087   5.315   2.380   2.264  1.9608  0.8754 -2.5823
  522SOL     MW 2088   5.363   2.307   2.267  0.8416  0.1320 -0.2398
  523SOL     OW 2089   3.162   3.436   0.432 -0.1692 -0.5629  0.0181
  523SOL    HW1 2090   3.214   3.443   0.513 -0.7140  3.2423  0.2426
  523SOL    HW2 2091   3.071   3.442   0.461 -0.5945 -2.6673 -0.7132
  523SOL     MW 2092   3.157   3.438   0.446 -0.2934 -0.3452 -0.0468
  524SOL     OW 2093   3.923   0.917   3.003 -0.0275 -0.1312 -0.3468
  524SOL    HW1 2094   3.959   0.839   2.961  1.4651  0.3025  0.0617
  524SOL    HW2 2095   3.950   0.989   2.947 -0.4507  0.1876 -0.1424
  524SOL     MW 2096   3.931   0.916   2.991  0.1094 -0.0349 -0.2684
  525SOL     OW 2097   1.702   3.447   3.386  0.3688 -0.2042 -0.5449
  525SOL    HW1 2098   1.773   3.512   3.391 -0.9305  1.3054 -0.9196
  525SOL    HW2 2099   1.653   3.471   3.308 -0.8389 -0.9224 -0.0412
  525SOL     MW 2100   1.705   3.458   3.377  0.0479 -0.1029 -0.5284
  526SOL     OW 2101   0.673   5.312   1.747  0.2813  0.1960  0.0321
  526SOL    HW1 2102   0.725   5.319   1.667  0.2639  0.8235  0.0759
  526SOL    HW2 2103   0.604   5.377   1.738  0.5061  0.5489  0.7239
  526SOL     MW 2104   0.671   5.321   1.736  0.3078  0.3215  0.1262
  527SOL     OW 2105   2.619   1.729   3.455 -0.0787  0.5846  0.0155
  527SOL    HW1 2106   2.609   1.647   3.407 -0.1059  0.3511  0.4158
  527SOL    HW2 2107   2.585   1.796   3.395 -1.6810  0.1118  0.3528
  527SOL     MW 2108   2.614   1.727   3.441 -0.2873  0.4942  0.1099
  528SOL     OW 2109   2.840   5.183   2.027  0.5009  0.4758  0.0504
  528SOL    HW1 2110   2.849   5.193   2.122 -1.2732 -0.0640  0.3113
  528SOL    HW2 2111   2.810   5.269   1.997 -0.0846  0.3053  0.1466
  528SOL     MW 2112   2.837   5.195   2.035  0.1988  0.3848  0.0961
  529SOL     OW 2113   3.948   1.528   4.802 -0.4070 -0.0474  0.2337
  529SOL    HW1 2114   4.028   1.547   4.752 -0.1468  0.3517  0.7760
  529SOL    HW2 2115   3.950   1.434   4.816 -1.2673 -0.3972 -1.7801
  529SOL     MW 2116   3.959   1.519   4.798 -0.4838 -0.0411  0.0453
  530SOL     OW 2117   0.358   2.883   4.834 -0.5031 -0.0177 -0.1245
  530SOL    HW1 2118   0.367   2.843   4.747 -1.8415 -0.7943  0.0584
  530SOL    HW2 2119   0.395   2.818   4.894 -0.2989  0.1679 -0.0520
  530SOL     MW 2120   0.364   2.869   4.830 -0.6483 -0.0933 -0.0918
  531SOL     OW 2121   4.427   2.607   3.582 -0.3421  0.0798 -0.2784
  531SOL    HW1 2122   4.357   2.606   3.647  1.0098 -0.9661  1.2230
  531SOL    HW2 2123   4.392   2.660   3.510 -1.8987  1.2713  1.2733
  531SOL     MW 2124   4.414   2.614   3.581 -0.3683  0.0985  0.1124
  532SOL     OW 2125   1.116   1.593   2.065  0.0340  0.4404 -0.3869
  532SOL    HW1 2126   1.162   1.572   2.147 -0.3822  1.1423  0.0411
  532SOL    HW2 2127   1.123   1.689   2.058 -1.9782  0.6578  0.0821
  532SOL     MW 2128   1.123   1.603   2.075 -0.2768  0.5581 -0.2721
  533SOL     OW 2129   2.474   0.218   3.537  0.3966  0.3707 -0.0762
  533SOL    HW1 2130   2.454   0.312   3.536  0.1184  0.3045 -0.7228
  533SOL    HW2 2131   2.492   0.196   3.446  0.1882 -0.2671  0.0316
  533SOL     MW 2132   2.474   0.227   3.525  0.3343  0.2806 -0.1452
  534SOL     OW 2133   4.168   1.854   2.011  0.1616  0.7201 -0.7778
  534SOL    HW1 2134   4.245   1.833   1.958 -0.8360 -0.8863 -1.6988
  534SOL    HW2 2135   4.126   1.926   1.964  0.2279  0.4847 -1.2042
  534SOL     MW 2136   4.172   1.861   1.998  0.0424  0.4843 -0.9503
  535SOL     OW 2137   1.924   1.383   2.024  0.1041  0.8376  0.1228
  535SOL    HW1 2138   1.958   1.449   2.084  0.6835 -1.9058  3.0463
  535SOL    HW2 2139   1.832   1.373   2.048  0.5875 -0.9896  1.3685
  535SOL     MW 2140   1.917   1.390   2.034  0.2402  0.2525  0.6565
  536SOL     OW 2141   4.722   4.881   4.399  0.3517  0.2161 -0.0020
  536SOL    HW1 2142   4.634   4.918   4.398  0.4039  0.3390 -0.0764
  536SOL    HW2 2143   4.755   4.900   4.487  0.4015  0.4017 -0.0604
  536SOL     MW 2144   4.715   4.889   4.410  0.3648  0.2556 -0.0190
  537SOL     OW 2145   1.417   3.997   2.890  0.6640  0.2153  0.7858
  537SOL    HW1 2146   1.411   4.080   2.844  0.6124 -0.4047 -0.3443
  537SOL    HW2 2147   1.329   3.982   2.924 -0.0271 -0.5986 -1.2111
  537SOL     MW 2148   1.405   4.006   2.889  0.5689  0.0318  0.3855
  538SOL     OW 2149   0.035   4.736   0.417 -0.3507 -0.8043  0.0905
  538SOL    HW1 2150   0.095   4.665   0.439  0.1079 -0.2580  0.6457
  538SOL    HW2 2151   0.085   4.816   0.436 -1.0754 -0.3411  0.0778
  538SOL     MW 2152   0.049   4.737   0.422 -0.3848 -0.6751  0.1600
  539SOL     OW 2153   5.055   3.833   3.624  0.0351 -0.5407  0.2913
  539SOL    HW1 2154   5.149   3.814   3.627  0.0774 -0.4766 -0.4056
  539SOL    HW2 2155   5.045   3.888   3.547 -0.2508  1.3029  1.5819
  539SOL     MW 2156   5.066   3.838   3.614  0.0039 -0.2965  0.3673
  540SOL     OW 2157   2.983   5.393   5.297 -0.1372 -0.0534 -0.3220
  540SOL    HW1 2158   2.912   5.448   5.331  0.5143  1.5854 -1.4691
  540SOL    HW2 2159   3.052   5.455   5.272  0.6625 -1.4038 -1.6515
  540SOL     MW 2160   2.983   5.408   5.298  0.0486 -0.0165 -0.6390
  541SOL     OW 2161   1.919   1.513   5.068 -0.7506 -0.2533  0.1719
  541SOL    HW1 2162   1.912   1.525   4.973 -0.3723 -0.1342  0.1567
  541SOL    HW2 2163   1.856   1.575   5.105  0.9973  1.6471  0.0850
  541SOL     MW 2164   1.910   1.522   5.060 -0.4784  0.0052  0.1588
  542SOL     OW 2165   4.674   1.379   3.240 -0.1992  0.3390  0.3054
  542SOL    HW1 2166   4.597   1.436   3.245 -0.6543 -0.3277  1.0651
  542SOL    HW2 2167   4.707   1.393   3.151 -0.8398  1.0911  0.1690
  542SOL     MW 2168   4.668   1.388   3.229 -0.3394  0.3499  0.3852
  543SOL     OW 2169   4.484   4.897   1.659  0.5915 -0.3357  0.3785
  543SOL    HW1 2170   4.397   4.923   1.628  0.6136  0.0843  0.6614
  543SOL    HW2 2171   4.515   4.971   1.710 -0.1216 -1.5733  2.7609
  543SOL     MW 2172   4.477   4.910   1.662  0.5031 -0.4403  0.7197
  544SOL     OW 2173   2.346   1.304   4.238 -0.3097  0.0783  0.3515
  544SOL    HW1 2174   2.297   1.335   4.162 -1.7437 -0.1696  1.1418
  544SOL    HW2 2175   2.335   1.209   4.236  0.8789 -0.0678  0.0688
  544SOL     MW 2176   2.338   1.296   4.228 -0.3412  0.0279  0.4164
  545SOL     OW 2177   5.203   4.836   5.088 -0.0169  0.3206 -0.3276
  545SOL    HW1 2178   5.145   4.800   5.021  0.7564 -0.5752 -0.5371
  545SOL    HW2 2179   5.151   4.834   5.168 -0.2620 -0.5170 -0.5001
  545SOL     MW 2180   5.189   4.831   5.089  0.0507  0.0987 -0.3765
  546SOL     OW 2181   1.940   3.651   1.640 -0.3534  0.1693  0.1257
  546SOL    HW1 2182   1.926   3.621   1.550 -1.1133  0.5396  0.1097
  546SOL    HW2 2183   2.027   3.691   1.639 -0.1211 -0.3298 -0.3037
  546SOL     MW 2184   1.949   3.652   1.628 -0.4209  0.1528  0.0687
  547SOL     OW 2185   3.383   2.010   5.259  0.0311 -0.1856 -0.0627
  547SOL    HW1 2186   3.436   2.006   5.339  0.1493  0.5890 -0.0893
  547SOL    HW2 2187   3.396   2.100   5.227 -2.0416  0.3433  0.4473
  547SOL     MW 2188   3.392   2.021   5.265 -0.2191 -0.0187 -0.0008
  548SOL     OW 2189   4.846   4.627   5.429 -0.4920  0.2509  0.4903
  548SOL    HW1 2190   4.809   4.704   5.472 -2.3609  0.0121 -0.5591
  548SOL    HW2 2191   4.771   4.586   5.386  1.1288  0.1006 -2.4266
  548SOL     MW 2192   4.831   4.632   5.429 -0.5238  0.2011 -0.0174
  549SOL     OW 2193   4.109   4.471   5.187 -0.0175 -0.2029  0.1217
  549SOL    HW1 2194   4.055   4.445   5.113  0.9065 -0.8143 -0.3554
  549SOL    HW2 2195   4.061   4.544   5.227 -0.6681 -0.0434 -0.9073
  549SOL     MW 2196   4.096   4.477   5.183  0.0175 -0.2607 -0.0711
  550SOL     OW 2197   3.760   3.643   1.609 -0.3615  0.3299 -0.4784
  550SOL    HW1 2198   3.712   3.579   1.556  0.0200 -0.6073  0.2788
  550SOL    HW2 2199   3.842   3.599   1.632 -0.8535  0.3729  1.5422
  550SOL     MW 2200   3.764   3.629   1.605 -0.3756  0.2154 -0.1228
  551SOL     OW 2201   0.739   4.853   2.627 -0.1007  0.5948 -0.3319
  551SOL    HW1 2202   0.691   4.800   2.690 -2.3180  0.6215 -1.8535
  551SOL    HW2 2203   0.756   4.794   2.554  2.7931  0.4437  0.3858
  551SOL     MW 2204   0.735   4.839   2.625 -0.0141  0.5789 -0.4348
  552SOL     OW 2205   1.191   3.982   0.993 -0.8533  0.0371  0.3136
  552SOL    HW1 2206   1.172   3.888   0.987  1.5917 -0.4885 -0.3958
  552SOL    HW2 2207   1.182   4.003   1.086 -0.6315 -1.0907  0.6025
  552SOL     MW 2208   1.188   3.973   1.004 -0.5120 -0.1745  0.2598
  553SOL     OW 2209   4.299   4.807   2.319  0.3657  0.0228  0.4618
  553SOL    HW1 2210   4.211   4.770   2.308  0.7359 -1.2551  1.4826
  553SOL    HW2 2211   4.290   4.870   2.390  0.1193  0.4846  0.0240
  553SOL     MW 2212   4.287   4.810   2.327  0.3815 -0.0817  0.5364
  554SOL     OW 2213   3.554   4.703   0.856 -0.1588 -0.0676  0.1459
  554SOL    HW1 2214   3.556   4.735   0.946 -2.3775 -0.8047  0.5324
  554SOL    HW2 2215   3.477   4.745   0.818  0.3520 -0.3104 -1.2072
  554SOL     MW 2216   3.544   4.712   0.863 -0.3774 -0.1930  0.0221
  555SOL     OW 2217   0.261   5.225   4.711 -0.0297 -0.1626  0.7960
  555SOL    HW1 2218   0.251   5.155   4.775  1.9169 -2.1210 -0.8814
  555SOL    HW2 2219   0.333   5.279   4.745 -0.9628  0.5685  1.6636
  555SOL     MW 2220   0.269   5.223   4.723  0.1001 -0.3197  0.6923
  556SOL     OW 2221   3.932   1.639   0.799  0.4782 -0.4857 -0.3120
  556SOL    HW1 2222   3.901   1.726   0.771  2.8493  1.2462  1.9371
  556SOL    HW2 2223   4.015   1.627   0.753  1.6308 -0.1375  1.5839
  556SOL     MW 2224   3.939   1.649   0.790  0.9293 -0.2194  0.2186
  557SOL     OW 2225   3.589   1.107   2.778 -0.3553  0.1850 -0.4549
  557SOL    HW1 2226   3.610   1.023   2.819 -0.3050 -0.3128 -1.4587
  557SOL    HW2 2227   3.624   1.099   2.689 -0.3575  1.2707 -0.5645
  557SOL     MW 2228   3.596   1.095   2.772 -0.3492  0.2603 -0.5975
  558SOL     OW 2229   3.570   0.263   0.410 -0.3136 -0.2961  0.1527
  558SOL    HW1 2230   3.539   0.279   0.499 -0.3804  0.6859 -0.0409
  558SOL    HW2 2231   3.492   0.238   0.361 -0.5127  0.4984  0.0600
  558SOL     MW 2232   3.556   0.262   0.415 -0.3476 -0.0687  0.1160
  559SOL     OW 2233   1.316   3.389   5.199  0.0780 -0.0895  0.1010
  559SOL    HW1 2234   1.339   3.481   5.186 -0.3639 -0.0226 -0.2772
  559SOL    HW2 2235   1.319   3.376   5.293  1.4035 -0.0297  0.0788
  559SOL     MW 2236   1.319   3.399   5.209  0.1911 -0.0733  0.0497
  560SOL     OW 2237   1.434   1.836   4.022 -0.0006  0.3510 -0.1627
  560SOL    HW1 2238   1.350   1.873   3.994  0.1049  0.9086  0.2371
  560SOL    HW2 2239   1.497   1.906   4.006  0.5293 -0.3214 -1.1708
  560SOL     MW 2240   1.431   1.850   4.016  0.0808  0.3363 -0.2406
  561SOL     OW 2241   2.461   1.537   2.624 -0.1725 -0.2864 -0.2111
  561SOL    HW1 2242   2.460   1.597   2.550 -1.2462 -1.9790 -1.6478
  561SOL    HW2 2243   2.552   1.537   2.654  0.2315  0.6226 -1.3634
  561SOL     MW 2244   2.473   1.544   2.619 -0.2582 -0.3867 -0.5425
  562SOL     OW 2245   5.333   0.971   4.810 -0.2555  0.1276  0.5387
  562SOL    HW1 2246   5.245   1.002   4.830  0.3707  1.9408  0.6629
  562SOL    HW2 2247   5.389   1.048   4.820  1.0776 -0.4902 -1.5366
  562SOL     MW 2248   5.329   0.985   4.814 -0.0047  0.2806  0.2889
  563SOL     OW 2249   2.370   3.981   4.417 -0.8433 -0.3518 -0.1595
  563SOL    HW1 2250   2.318   4.050   4.377 -0.8895 -0.6432 -0.6019
  563SOL    HW2 2251   2.333   3.971   4.505 -0.8908  0.1231 -0.1232
  563SOL     MW 2252   2.358   3.989   4.423 -0.8553 -0.3283 -0.2115
  564SOL     OW 2253   1.678   4.876   4.693  0.0258  0.4629  0.4581
  564SOL    HW1 2254   1.640   4.921   4.769  0.8089  1.1684  0.4441
  564SOL    HW2 2255   1.616   4.806   4.674 -1.3470  1.6524  0.3467
  564SOL     MW 2256   1.665   4.873   4.700 -0.0497  0.7055  0.4420
  565SOL     OW 2257   1.160   4.907   4.271  0.3579 -0.4105 -0.1156
  565SOL    HW1 2258   1.111   4.960   4.334 -2.7626 -1.8531 -1.1277
  565SOL    HW2 2259   1.220   4.969   4.229  0.8286  1.0716  2.5050
  565SOL     MW 2260   1.161   4.922   4.273  0.0187 -0.4054  0.0903
  566SOL     OW 2261   1.916   0.682   2.700 -0.1010 -0.2261  0.1159
  566SOL    HW1 2262   2.011   0.689   2.684 -0.4437  1.8067 -1.4531
  566SOL    HW2 2263   1.877   0.731   2.628 -2.4764 -2.6919 -0.4203
  566SOL     MW 2264   1.923   0.689   2.689 -0.4489 -0.2815 -0.1536
  567SOL     OW 2265   1.649   3.671   4.178  0.1706  0.3694  0.1018
  567SOL    HW1 2266   1.571   3.618   4.164  1.4092 -1.6113  0.3963
  567SOL    HW2 2267   1.655   3.726   4.099 -1.0022 -0.0947 -0.3339
  567SOL     MW 2268   1.640   3.672   4.166  0.1790  0.0564  0.0837
  568SOL     OW 2269   2.717   1.529   3.672 -0.7706  0.1570  0.2162
  568SOL    HW1 2270   2.644   1.489   3.624 -0.4811  0.0609 -0.1508
  568SOL    HW2 2271   2.714   1.487   3.758 -0.9020 -0.1384  0.0702
  568SOL     MW 2272   2.707   1.518   3.676 -0.7504  0.1069  0.1505
  569SOL     OW 2273   2.949   0.700   0.203  0.3854  0.2001 -0.0030
  569SOL    HW1 2274   3.013   0.632   0.226 -1.0071 -1.0672  0.2870
  569SOL    HW2 2275   2.947   0.757   0.280  1.1754  0.2617 -0.0207
  569SOL     MW 2276   2.957   0.698   0.216  0.3083  0.0458  0.0319
  570SOL     OW 2277   0.754   3.646   5.441  0.7584 -0.3142  0.1302
  570SOL    HW1 2278   0.665   3.676   5.421  0.7070 -0.8109 -0.3834
  570SOL    HW2 2279   0.801   3.652   5.358  1.2443  0.0659  0.4262
  570SOL     MW 2280   0.748   3.651   5.428  0.8140 -0.3291  0.1023
  571SOL     OW 2281   0.233   4.833   5.248 -0.1372 -0.2859 -0.5916
  571SOL    HW1 2282   0.327   4.820   5.263 -0.2733 -1.3949 -0.6515
  571SOL    HW2 2283   0.191   4.772   5.307 -0.7960 -0.7353 -1.5072
  571SOL     MW 2284   0.240   4.824   5.258 -0.2389 -0.4854 -0.7165
  572SOL     OW 2285   4.696   1.793   1.909 -0.1026 -0.2115 -0.5182
  572SOL    HW1 2286   4.604   1.779   1.933 -0.0125 -0.7978 -0.5037
  572SOL    HW2 2287   4.741   1.807   1.992 -0.3358  1.1252 -0.5844
  572SOL     MW 2288   4.690   1.793   1.923 -0.1209 -0.1155 -0.5248
  573SOL     OW 2289   3.082   3.601   1.131 -0.5434 -0.4765  0.1520
  573SOL    HW1 2290   3.162   3.647   1.160 -0.7533  0.0961 -0.1616
  573SOL    HW2 2291   3.011   3.659   1.158 -0.7316  0.5022 -2.1969
  573SOL     MW 2292   3.083   3.614   1.138 -0.5944 -0.2779 -0.1888
  574SOL     OW 2293   0.185   4.378   2.659  0.1967  0.0804 -0.4034
  574SOL    HW1 2294   0.134   4.413   2.731 -0.4859  1.4086 -1.4856
  574SOL    HW2 2295   0.121   4.329   2.607  0.3457  0.4324 -0.9243
  574SOL     MW 2296   0.170   4.376   2.661  0.1284  0.2954 -0.6086
  575SOL     OW 2297   3.480   1.942   1.011  0.1547  0.1662  0.0152
  575SOL    HW1 2298   3.496   1.906   1.098  2.5299  1.2462  0.0951
  575SOL    HW2 2299   3.414   1.884   0.973 -0.8338 -0.4201  2.4379
  575SOL     MW 2300   3.474   1.930   1.017  0.3322  0.2294  0.3355
  576SOL     OW 2301   3.040   4.157   1.154 -0.9946 -0.2816  0.6951
  576SOL    HW1 2302   3.033   4.096   1.081 -0.7610  0.3110  0.1727
  576SOL    HW2 2303   3.134   4.160   1.174 -1.2320 -1.8960  2.2814
  576SOL     MW 2304   3.051   4.150   1.147 -0.9951 -0.4124  0.8313
  577SOL     OW 2305   3.228   4.251   3.341 -0.2645 -0.5678 -0.4518
  577SOL    HW1 2306   3.138   4.221   3.352 -0.1531 -0.6037  0.4440
  577SOL    HW2 2307   3.247   4.300   3.421  0.5198 -0.5782 -0.6242
  577SOL     MW 2308   3.219   4.254   3.353 -0.1499 -0.5737 -0.3592
  578SOL     OW 2309   3.727   0.340   1.484 -0.1589 -0.0393 -0.0527
  578SOL    HW1 2310   3.666   0.311   1.551  0.7386  1.1481  1.3558
  578SOL    HW2 2311   3.712   0.281   1.410 -2.3475 -0.3336  0.5555
  578SOL     MW 2312   3.718   0.329   1.483 -0.3242  0.0750  0.2055
  579SOL     OW 2313   4.041   4.224   2.837 -0.1361 -0.2949  0.0812
  579SOL    HW1 2314   4.134   4.212   2.854 -0.1628 -0.3128  0.2089
  579SOL    HW2 2315   4.030   4.319   2.833  0.3864 -0.2523 -2.5380
  579SOL     MW 2316   4.051   4.235   2.838 -0.0726 -0.2917 -0.2378
  580SOL     OW 2317   3.228   2.096   0.323  0.2122  0.0195  0.5941
  580SOL    HW1 2318   3.168   2.032   0.284  1.7751 -0.0021 -2.0433
  580SOL    HW2 2319   3.173   2.171   0.346 -1.0057 -0.4945 -0.5415
  580SOL     MW 2320   3.213   2.097   0.321  0.2564 -0.0491  0.1111
  581SOL     OW 2321   1.713   2.110   4.159  0.0075 -0.0080  0.0669
  581SOL    HW1 2322   1.723   2.205   4.152 -2.3214  0.2679 -0.2736
  581SOL    HW2 2323   1.683   2.096   4.249 -0.8443 -0.2703 -0.2473
  581SOL     MW 2324   1.711   2.121   4.170 -0.3996 -0.0063 -0.0169
  582SOL     OW 2325   4.203   5.297   0.934 -0.1355  0.3303 -0.0993
  582SOL    HW1 2326   4.287   5.253   0.919  2.4291  4.3763  0.5885
  582SOL    HW2 2327   4.182   5.276   1.025  0.4939 -0.2513 -0.0764
  582SOL     MW 2328   4.211   5.289   0.944  0.2734  0.7738 -0.0084
  583SOL     OW 2329   0.271   5.240   1.761 -0.3115 -0.5528 -0.0948
  583SOL    HW1 2330   0.179   5.243   1.788 -0.3173 -1.8820  0.1115
  583SOL    HW2 2331   0.269   5.214   1.670 -0.1555  0.4211 -0.3928
  583SOL     MW 2332   0.259   5.237   1.753 -0.2923 -0.5983 -0.1066
  584SOL     OW 2333   0.379   5.443   1.952 -0.3992  0.3256  0.1882
  584SOL    HW1 2334   0.339   5.388   1.886 -0.0662 -0.4806  0.6491
  584SOL    HW2 2335   0.326   5.523   1.953 -0.6363  0.1836 -0.7649
  584SOL     MW 2336   0.367   5.446   1.944 -0.3870  0.2042  0.1252
  585SOL     OW 2337   5.292   4.541   2.854 -0.1687 -0.1988  0.0532
  585SOL    HW1 2338   5.213   4.523   2.906 -0.7140 -0.1515 -0.7355
  585SOL    HW2 2339   5.279   4.630   2.821  0.3426 -0.0914  0.1410
  585SOL     MW 2340   5.280   4.550   2.856 -0.1730 -0.1790 -0.0365
  586SOL     OW 2341   2.142   1.063   2.599 -0.9196  0.1074 -0.0496
  586SOL    HW1 2342   2.179   1.078   2.686  0.4188  2.2598 -0.8952
  586SOL    HW2 2343   2.068   1.124   2.594 -1.1324 -0.1730 -0.3284
  586SOL     MW 2344   2.137   1.073   2.610 -0.7755  0.3470 -0.1936
  587SOL     OW 2345   4.441   5.148   1.211  0.3740  0.0500  0.4736
  587SOL    HW1 2346   4.487   5.106   1.139  2.0752  1.0774  0.9116
  587SOL    HW2 2347   4.490   5.124   1.290 -0.1363  0.7516  1.0273
  587SOL     MW 2348   4.453   5.140   1.212  0.5265  0.2714  0.6005
  588SOL     OW 2349   3.466   3.811   2.184  0.0657  0.4669  0.1150
  588SOL    HW1 2350   3.537   3.807   2.120  0.4920  2.5615  0.3990
  588SOL    HW2 2351   3.394   3.854   2.137  0.0106  1.0236  0.6907
  588SOL     MW 2352   3.466   3.816   2.170  0.1132  0.8063  0.2251
  589SOL     OW 2353   3.555   1.560   2.336  0.1062 -0.4732  0.1330
  589SOL    HW1 2354   3.592   1.532   2.420 -1.4718  1.7823  1.6917
  589SOL    HW2 2355   3.490   1.493   2.315  0.7332 -1.2207  0.5115
  589SOL     MW 2356   3.551   1.547   2.344 -0.0156 -0.2801  0.3810
  590SOL     OW 2357   3.861   5.330   5.266  0.1990 -0.2228 -0.1680
  590SOL    HW1 2358   3.820   5.406   5.224  2.2674  0.4457 -1.1095
  590SOL    HW2 2359   3.804   5.257   5.243 -1.5355  0.9300  0.2818
  590SOL     MW 2360   3.849   5.330   5.258  0.2417  0.0103 -0.2309
  591SOL     OW 2361   4.762   1.018   0.966 -0.2059  0.3928 -0.8815
  591SOL    HW1 2362   4.852   0.992   0.947 -0.2736  1.6324 -3.2452
  591SOL    HW2 2363   4.769   1.109   0.995 -0.6095  0.0688  0.2902
  591SOL     MW 2364   4.774   1.026   0.967 -0.2663  0.5100 -1.0341
  592SOL     OW 2365   2.404   4.011   1.777  0.2872 -0.0672  0.1041
  592SOL    HW1 2366   2.316   3.982   1.754  0.6461 -0.8127 -0.3781
  592SOL    HW2 2367   2.393   4.101   1.806 -0.8050 -0.5384  1.2188
  592SOL     MW 2368   2.392   4.019   1.778  0.1933 -0.2230  0.1851
  593SOL     OW 2369   5.314   0.039   1.683  0.5503  0.6955  0.5637
  593SOL    HW1 2370   5.223   0.017   1.704 -0.0374  1.0495 -1.3900
  593SOL    HW2 2371   5.347   0.082   1.761 -0.5294 -0.6221  1.8109
  593SOL     MW 2372   5.306   0.041   1.696  0.3369  0.5721  0.4733
  594SOL     OW 2373   5.256   1.422   2.842  0.0380  0.4887 -0.0740
  594SOL    HW1 2374   5.183   1.435   2.903  0.0258 -0.0578  0.0328
  594SOL    HW2 2375   5.332   1.457   2.887 -0.4372  2.8182 -0.9280
  594SOL     MW 2376   5.256   1.428   2.855 -0.0244  0.7170 -0.1696
  595SOL     OW 2377   0.183   4.226   0.858 -0.3392  0.0518 -0.1152
  595SOL    HW1 2378   0.268   4.256   0.892 -0.3582 -1.0871  0.9984
  595SOL    HW2 2379   0.202   4.144   0.814 -1.0908 -1.1487  1.6952
  595SOL     MW 2380   0.196   4.220   0.857 -0.4379 -0.2477  0.2591
  596SOL     OW 2381   2.149   4.431   1.300  0.0393  0.0373  0.1871
  596SOL    HW1 2382   2.112   4.359   1.250 -3.1273  2.3428 -1.1601
  596SOL    HW2 2383   2.130   4.409   1.392 -1.5893 -0.5338 -0.2568
  596SOL     MW 2384   2.141   4.419   1.306 -0.5745  0.2593 -0.0422
  597SOL     OW 2385   2.190   2.818   1.897 -0.0569 -0.3538  0.0082
  597SOL    HW1 2386   2.264   2.772   1.937 -0.5843 -0.2198  1.1727
  597SOL    HW2 2387   2.115   2.759   1.909 -0.3551 -0.0311 -0.2198
  597SOL     MW 2388   2.190   2.804   1.903 -0.1626 -0.2953  0.1281
  598SOL     OW 2389   2.182   1.646   5.032 -0.3267 -0.2892  0.1772
  598SOL    HW1 2390   2.089   1.625   5.024 -0.5492  0.6470  0.1660
  598SOL    HW2 2391   2.227   1.581   4.979 -1.1202  0.3440 -1.3300
  598SOL     MW 2392   2.176   1.635   5.025 -0.4568 -0.0883 -0.0172
  599SOL     OW 2393   0.280   0.393   4.386  0.1099 -0.0277  0.4788
  599SOL    HW1 2394   0.342   0.427   4.322 -0.0942 -0.2241  0.1757
  599SOL    HW2 2395   0.247   0.312   4.347 -1.0915  0.5854  0.1683
  599SOL     MW 2396   0.284   0.387   4.373 -0.0700  0.0256  0.4002
  600SOL     OW 2397   4.359   2.206   1.260  0.1044 -0.3689  0.3927
  600SOL    HW1 2398   4.410   2.250   1.191 -0.3034 -0.5897 -0.0552
  600SOL    HW2 2399   4.384   2.251   1.341  0.9776 -0.4396  0.1760
  600SOL     MW 2400   4.369   2.217   1.261  0.1640 -0.4062  0.3076
  601SOL     OW 2401   3.245   4.897   0.303  0.1874  0.0261 -0.1086
  601SOL    HW1 2402   3.224   4.804   0.296  0.8760 -0.1290 -0.1669
  601SOL    HW2 2403   3.160   4.941   0.303 -0.1296 -0.5753 -0.4896
  601SOL     MW 2404   3.232   4.890   0.302  0.2350 -0.0707 -0.1648
  602SOL     OW 2405   3.584   2.604   5.120  0.0846  0.5961 -0.2130
  602SOL    HW1 2406   3.555   2.692   5.097  0.0732  0.7041  0.2005
  602SOL    HW2 2407   3.510   2.565   5.167 -0.3265 -0.0374 -1.3421
  602SOL     MW 2408   3.571   2.610   5.124  0.0305  0.5288 -0.3046
  603SOL     OW 2409   0.879   1.178   0.727 -0.4036  0.2758  0.2296
  603SOL    HW1 2410   0.868   1.098   0.676 -0.3973  0.2988  0.1917
  603SOL    HW2 2411   0.956   1.162   0.781  1.1645  1.1803 -1.5963
  603SOL     MW 2412   0.888   1.166   0.727 -0.2021  0.3945 -0.0090
  604SOL     OW 2413   4.288   3.688   3.883  0.0377 -0.3861  0.6240
  604SOL    HW1 2414   4.318   3.769   3.843  0.1470 -0.0544  1.3611
  604SOL    HW2 2415   4.285   3.707   3.977  2.5778 -2.0262  1.1347
  604SOL     MW 2416   4.291   3.701   3.890  0.3768 -0.5536  0.7837
  605SOL     OW 2417   4.195   0.848   3.803 -0.0338 -0.3779  0.8274
  605SOL    HW1 2418   4.163   0.933   3.833  0.4472  0.2692 -0.4350
  605SOL    HW2 2419   4.136   0.824   3.732  0.2930 -0.7369  0.6728
  605SOL     MW 2420   4.183   0.856   3.798  0.0696 -0.3410  0.6460
  606SOL     OW 2421   2.703   4.021   0.454 -0.1365  0.5500 -0.2297
  606SOL    HW1 2422   2.729   4.017   0.362  0.8360  1.0099  0.0141
  606SOL    HW2 2423   2.786   4.032   0.502 -0.5552 -0.3513  0.7532
  606SOL     MW 2424   2.717   4.022   0.448 -0.0656  0.4935 -0.0726
  607SOL     OW 2425   0.411   4.451   2.319 -0.3712  0.6153  0.3819
  607SOL    HW1 2426   0.424   4.499   2.238  0.0127  2.7821  1.6569
  607SOL    HW2 2427   0.387   4.363   2.291  2.6307  0.4076 -2.1008
  607SOL     MW 2428   0.410   4.446   2.305  0.0622  0.8661  0.2273
  608SOL     OW 2429   1.451   1.314   1.677 -0.0960 -1.2450 -0.7874
  608SOL    HW1 2430   1.403   1.236   1.647  0.5195 -1.7965 -0.3593
  608SOL    HW2 2431   1.394   1.352   1.744 -0.5620 -1.1230 -1.2450
  608SOL     MW 2432   1.437   1.309   1.682 -0.0768 -1.2999 -0.7912
  609SOL     OW 2433   3.871   2.327   3.074 -0.3181  0.0232  0.2012
  609SOL    HW1 2434   3.776   2.334   3.080 -0.4159 -1.5698  1.0964
  609SOL    HW2 2435   3.897   2.289   3.158  1.1097  0.4192 -0.0408
  609SOL     MW 2436   3.862   2.323   3.086 -0.1478 -0.1300  0.2848
  610SOL     OW 2437   4.098   3.476   4.607 -0.0826  0.3107  0.0571
  610SOL    HW1 2438   4.122   3.497   4.697  0.0498  1.8239 -0.3037
  610SOL    HW2 2439   4.179   3.446   4.567 -0.0052  0.2432  0.2604
  610SOL     MW 2440   4.111   3.475   4.614 -0.0557  0.4958  0.0369
  611SOL     OW 2441   3.455   3.911   1.298 -0.0989 -0.1242  0.3738
  611SOL    HW1 2442   3.458   3.866   1.382 -1.1759  0.0114  0.4904
  611SOL    HW2 2443   3.387   3.865   1.248  1.0193 -0.6691 -0.7080
  611SOL     MW 2444   3.447   3.899   1.302 -0.0937 -0.1766  0.2502
  612SOL     OW 2445   3.000   3.234   4.813 -0.6049 -0.1022  0.1093
  612SOL    HW1 2446   2.920   3.235   4.866 -2.0992 -0.1242 -2.0309
  612SOL    HW2 2447   2.972   3.198   4.729  1.6299  0.1428 -0.7859
  612SOL     MW 2448   2.986   3.229   4.809 -0.5101 -0.0737 -0.2792
  613SOL     OW 2449   4.387   3.623   2.832 -0.3124  0.0179  0.5022
  613SOL    HW1 2450   4.409   3.578   2.914  1.1815 -2.4142 -1.0910
  613SOL    HW2 2451   4.388   3.554   2.766  2.1443  2.3418 -2.1768
  613SOL     MW 2452   4.390   3.608   2.834  0.1934  0.0040 -0.0447
  614SOL     OW 2453   4.383   3.437   3.888 -0.3344 -0.8146 -0.5386
  614SOL    HW1 2454   4.310   3.395   3.843 -2.3057  1.1323  0.6716
  614SOL    HW2 2455   4.369   3.531   3.875  2.5132 -0.3752 -1.0586
  614SOL     MW 2456   4.372   3.444   3.881 -0.2222 -0.5091 -0.4503
  615SOL     OW 2457   0.187   2.186   0.953 -0.0997  0.6906 -0.3825
  615SOL    HW1 2458   0.255   2.221   1.011  1.3639 -1.4467 -0.7191
  615SOL    HW2 2459   0.117   2.252   0.956  1.4420  2.3661  0.9516
  615SOL     MW 2460   0.187   2.199   0.961  0.2850  0.6315 -0.2548
  616SOL     OW 2461   3.312   3.950   4.439  0.1607  0.0389  0.5374
  616SOL    HW1 2462   3.252   3.875   4.434  1.1140 -0.9550  2.5145
  616SOL    HW2 2463   3.398   3.910   4.451  0.5516  1.3856  2.9000
  616SOL     MW 2464   3.315   3.935   4.440  0.3328  0.0840  1.0929
  617SOL     OW 2465   3.382   2.847   2.038 -0.0332  0.0169  0.3876
  617SOL    HW1 2466   3.461   2.811   1.999 -0.3963  0.4898 -0.8421
  617SOL    HW2 2467   3.386   2.822   2.130 -0.3792 -3.3754 -0.3914
  617SOL     MW 2468   3.392   2.839   2.045 -0.1240 -0.3568  0.1305
  618SOL     OW 2469   5.310   0.286   1.189  0.3414  0.8284  0.1013
  618SOL    HW1 2470   5.278   0.208   1.145 -0.3701  1.1144  0.0912
  618SOL    HW2 2471   5.400   0.296   1.158  0.4839 -0.0619  0.2211
  618SOL     MW 2472   5.317   0.278   1.179  0.2685  0.7510  0.1154
  619SOL     OW 2473   0.212   2.818   3.250  0.0772  0.1544 -0.2197
  619SOL    HW1 2474   0.181   2.727   3.248 -2.6101  0.9096  1.3330
  619SOL    HW2 2475   0.306   2.811   3.264 -0.0193 -2.3822 -0.3231
  619SOL     MW 2476   0.220   2.805   3.251 -0.2792 -0.0736 -0.0342
  620SOL     OW 2477   2.440   3.544   3.029  0.1989  0.6221  0.5590
  620SOL    HW1 2478   2.532   3.567   3.011  0.8551 -1.6422  0.6982
  620SOL    HW2 2479   2.444   3.493   3.110 -0.8013 -1.6283 -0.7225
  620SOL     MW 2480   2.453   3.540   3.037  0.1548  0.0442  0.4128
  621SOL     OW 2481   2.786   2.117   3.034  0.0128 -0.3504  0.1385
  621SOL    HW1 2482   2.844   2.126   2.958  1.1944 -1.3469  0.9004
  621SOL    HW2 2483   2.844   2.122   3.110 -1.1556  0.5975  0.9998
  621SOL     MW 2484   2.801   2.118   3.034  0.0145 -0.3566  0.3463
  622SOL     OW 2485   2.888   0.161   3.862 -0.4731  0.2934  0.1662
  622SOL    HW1 2486   2.931   0.079   3.884 -2.4469 -0.5610  1.0838
  622SOL    HW2 2487   2.837   0.141   3.784 -2.1159  0.1659  1.2168
  622SOL     MW 2488   2.887   0.148   3.855 -0.9360  0.1677  0.4182
  623SOL     OW 2489   3.699   3.388   3.391  0.1464  0.2485  0.3153
  623SOL    HW1 2490   3.626   3.378   3.453 -1.1675  1.4799 -0.9589
  623SOL    HW2 2491   3.693   3.479   3.362  1.1424 -0.1158 -1.1196
  623SOL     MW 2492   3.689   3.398   3.395  0.1057  0.3595 -0.0315
  624SOL     OW 2493   1.213   2.413   4.227  0.5344 -0.5497 -0.0376
  624SOL    HW1 2494   1.195   2.487   4.169 -0.7425  0.1752  1.2270
  624SOL    HW2 2495   1.175   2.338   4.182 -2.5915  0.3696  0.8680
  624SOL     MW 2496   1.206   2.413   4.214 -0.0292 -0.3392  0.2402
  625SOL     OW 2497   4.912   0.551   2.657 -0.1569 -0.2083 -0.2561
  625SOL    HW1 2498   4.875   0.639   2.656 -0.9759 -0.4794  1.6997
  625SOL    HW2 2499   5.006   0.565   2.671 -0.1857  0.3448 -0.5616
  625SOL     MW 2500   4.919   0.564   2.658 -0.2654 -0.1722 -0.0448
  626SOL     OW 2501   1.920   3.048   3.766 -0.2993 -0.2964 -0.1971
  626SOL    HW1 2502   1.863   2.979   3.731  0.0548  0.3266 -2.1684
  626SOL    HW2 2503   1.982   3.003   3.823 -0.9697 -1.3881 -0.3109
  626SOL     MW 2504   1.920   3.033   3.768 -0.3398 -0.3564 -0.4640
  627SOL     OW 2505   0.145   1.590   4.872 -0.1540  0.2779  0.0123
  627SOL    HW1 2506   0.225   1.608   4.920  0.7473 -2.2964 -0.3630
  627SOL    HW2 2507   0.093   1.535   4.931 -1.6479  1.8096  0.2091
  627SOL     MW 2508   0.148   1.585   4.886 -0.2298  0.1445 -0.0105
  628SOL     OW 2509   3.042   3.994   2.697  0.3574  0.4721 -0.1539
  628SOL    HW1 2510   2.974   4.061   2.709  1.1472  1.3066 -0.1964
  628SOL    HW2 2511   3.124   4.041   2.711  0.8947 -1.0197  2.3545
  628SOL     MW 2512   3.044   4.009   2.701  0.5273  0.3880  0.1618
  629SOL     OW 2513   1.590   0.593   0.105 -0.1744 -0.2654  0.0429
  629SOL    HW1 2514   1.671   0.595   0.158  0.5224 -0.2208 -0.9964
  629SOL    HW2 2515   1.620   0.608   0.016 -1.3480 -0.2807 -0.3628
  629SOL     MW 2516   1.605   0.595   0.101 -0.2354 -0.2616 -0.1421
  630SOL     OW 2517   2.385   2.278   5.309 -0.0633  0.1692  0.4523
  630SOL    HW1 2518   2.324   2.282   5.383 -0.1675  0.0451  0.3710
  630SOL    HW2 2519   2.470   2.299   5.348 -0.3661  1.7389  0.3260
  630SOL     MW 2520   2.388   2.281   5.324 -0.1154  0.3542  0.4257
  631SOL     OW 2521   4.169   0.868   2.020  0.1084 -0.1272 -0.1011
  631SOL    HW1 2522   4.263   0.882   2.028 -0.1648  2.2224 -0.2435
  631SOL    HW2 2523   4.160   0.775   2.000  2.2319 -0.9467  2.2274
  631SOL     MW 2524   4.180   0.858   2.018  0.3453  0.0687  0.1788
  632SOL     OW 2525   5.452   4.013   3.219  0.2883  0.3513  0.4270
  632SOL    HW1 2526   5.529   4.067   3.238  0.5311 -0.0948  0.7453
  632SOL    HW2 2527   5.385   4.044   3.280 -0.6956  2.5818 -1.6431
  632SOL     MW 2528   5.453   4.024   3.230  0.1934  0.5798  0.2027
  633SOL     OW 2529   1.085   4.217   2.559  0.1660 -0.0036 -0.1479
  633SOL    HW1 2530   1.081   4.311   2.577  1.2331 -0.2582  1.6592
  633SOL    HW2 2531   1.058   4.176   2.641  0.3618 -1.2834 -0.7005
  633SOL     MW 2532   1.081   4.223   2.572  0.3277 -0.2000  0.0127
  634SOL     OW 2533   1.817   1.603   3.791  0.6192  0.4594 -0.3363
  634SOL    HW1 2534   1.727   1.635   3.785  0.2563 -0.6067 -0.8061
  634SOL    HW2 2535   1.847   1.633   3.877 -0.6797 -0.3800  0.4477
  634SOL     MW 2536   1.810   1.611   3.802  0.4065  0.2155 -0.2961
  635SOL     OW 2537   0.239   0.199   1.963 -0.1570 -0.4825 -0.1932
  635SOL    HW1 2538   0.233   0.259   1.888 -0.8389 -0.8730 -0.4592
  635SOL    HW2 2539   0.269   0.254   2.035 -2.1781  0.5307 -0.0541
  635SOL     MW 2540   0.242   0.214   1.962 -0.5030 -0.4028 -0.2094
  636SOL     OW 2541   2.152   1.768   5.385  0.3194  0.2624 -0.0939
  636SOL    HW1 2542   2.060   1.792   5.387  0.2689  0.0340  0.5268
  636SOL    HW2 2543   2.198   1.848   5.414  0.1815 -0.1909  1.4938
  636SOL     MW 2544   2.146   1.782   5.389  0.2953  0.1751  0.1888
  637SOL     OW 2545   3.915   4.486   2.733 -0.0294 -0.1135 -0.2429
  637SOL    HW1 2546   3.868   4.568   2.717  0.9801  0.1835 -1.9625
  637SOL    HW2 2547   3.855   4.418   2.701 -0.1994  0.0813 -0.3455
  637SOL     MW 2548   3.901   4.487   2.727  0.0780 -0.0506 -0.4761
  638SOL     OW 2549   1.859   2.845   3.003 -0.0046 -0.2150 -0.2189
  638SOL    HW1 2550   1.867   2.926   3.055  1.6749  0.1605 -1.0005
  638SOL    HW2 2551   1.886   2.776   3.063  0.2720  0.0153 -0.0751
  638SOL     MW 2552   1.863   2.847   3.018  0.2458 -0.1374 -0.3006
  639SOL     OW 2553   0.621   1.888   0.255  0.0153  0.4284  0.4372
  639SOL    HW1 2554   0.583   1.859   0.338  0.3505  0.5343  0.6282
  639SOL    HW2 2555   0.603   1.816   0.194  0.0596  0.2050  0.6846
  639SOL     MW 2556   0.613   1.875   0.257  0.0639  0.4133  0.4933
  640SOL     OW 2557   0.863   3.485   0.297 -0.1205 -0.3504  0.2173
  640SOL    HW1 2558   0.771   3.495   0.321 -0.0396  1.6401 -0.1222
  640SOL    HW2 2559   0.906   3.457   0.378 -1.1433 -2.3807  0.1188
  640SOL     MW 2560   0.857   3.482   0.311 -0.2411 -0.3555  0.1613
  641SOL     OW 2561   1.140   0.586   4.914  0.3655  0.2440  0.0754
  641SOL    HW1 2562   1.216   0.628   4.872  0.7081  0.6251  1.0455
  641SOL    HW2 2563   1.064   0.621   4.867  0.6906  1.4063  0.3767
  641SOL     MW 2564   1.140   0.596   4.903  0.4510  0.4416  0.2382
  642SOL     OW 2565   3.484   2.508   2.291  0.3595 -0.2924 -0.1616
  642SOL    HW1 2566   3.558   2.484   2.235  1.1302 -0.3014  0.8073
  642SOL    HW2 2567   3.505   2.467   2.376 -1.7137 -1.9386 -0.3612
  642SOL     MW 2568   3.496   2.500   2.295  0.1927 -0.5043 -0.0631
  643SOL     OW 2569   3.808   2.147   1.572  0.2019  0.2432 -0.1706
  643SOL    HW1 2570   3.733   2.180   1.622  0.9231 -0.1463  1.2303
  643SOL    HW2 2571   3.793   2.179   1.483 -1.5930  0.2210  0.0744
  643SOL     MW 2572   3.796   2.156   1.567  0.0644  0.1905  0.0401
  644SOL     OW 2573   5.262   1.426   0.771  0.0489 -0.4215 -0.1017
  644SOL    HW1 2574   5.264   1.481   0.693  0.8010  1.2629  1.0428
  644SOL    HW2 2575   5.349   1.386   0.775  1.2748  2.1320  1.5753
  644SOL     MW 2576   5.273   1.428   0.761  0.3021  0.1210  0.2595
  645SOL     OW 2577   0.640   4.554   5.146 -0.7612  0.1103  0.3040
  645SOL    HW1 2578   0.601   4.631   5.186 -0.6853 -0.1984  0.9862
  645SOL    HW2 2579   0.565   4.501   5.118 -0.8200  0.7242 -0.7837
  645SOL     MW 2580   0.625   4.557   5.147 -0.7590  0.1494  0.2521
  646SOL     OW 2581   5.310   5.008   4.560  0.5175  0.0929 -0.6525
  646SOL    HW1 2582   5.268   4.935   4.605 -0.8914  0.6685 -0.9763
  646SOL    HW2 2583   5.332   5.070   4.629 -1.0455  0.6820 -0.6291
  646SOL     MW 2584   5.307   5.006   4.575  0.1370  0.2420 -0.6909
  647SOL     OW 2585   5.137   1.763   0.176  0.3025 -0.2184 -0.5142
  647SOL    HW1 2586   5.143   1.672   0.205  0.6263 -0.3313 -0.9266
  647SOL    HW2 2587   5.139   1.758   0.080  0.8693  0.2532 -0.5348
  647SOL     MW 2588   5.138   1.751   0.168  0.4165 -0.1725 -0.5696
  648SOL     OW 2589   5.368   4.715   2.267  0.2637 -0.1751 -0.2021
  648SOL    HW1 2590   5.455   4.689   2.237  0.0113 -1.4676  0.0956
  648SOL    HW2 2591   5.317   4.634   2.262 -0.8839  0.5366 -0.2520
  648SOL     MW 2592   5.373   4.701   2.262  0.0845 -0.2494 -0.1704
  649SOL     OW 2593   4.600   3.043   4.298  0.5405  0.0240  0.4261
  649SOL    HW1 2594   4.508   3.021   4.285  0.5229  0.1164  0.3948
  649SOL    HW2 2595   4.599   3.100   4.375  0.7544 -1.4122  1.5453
  649SOL     MW 2596   4.588   3.047   4.307  0.5657 -0.1480  0.5654
  650SOL     OW 2597   0.154   1.033   0.903 -0.2036 -0.0022  0.2121
  650SOL    HW1 2598   0.246   1.007   0.902  0.1750  0.9817  2.5938
  650SOL    HW2 2599   0.123   1.015   0.814  2.3052 -0.1911 -0.7042
  650SOL     MW 2600   0.162   1.027   0.892  0.1660  0.0996  0.3997
  651SOL     OW 2601   5.323   1.755   2.450  0.8895  0.0652 -0.0966
  651SOL    HW1 2602   5.312   1.837   2.498  2.0805 -0.4311  1.0954
  651SOL    HW2 2603   5.297   1.687   2.513 -2.2335 -0.4717 -1.7347
  651SOL     MW 2604   5.318   1.757   2.464  0.6422 -0.0671 -0.1537
  652SOL     OW 2605   0.984   1.980   2.351 -0.1523  0.2017  0.1324
  652SOL    HW1 2606   0.961   2.053   2.409  1.0334  1.0468 -0.4315
  652SOL    HW2 2607   1.056   1.936   2.397  0.5064  0.6226 -0.4796
  652SOL     MW 2608   0.990   1.983   2.364  0.0838  0.3637 -0.0181
  653SOL     OW 2609   4.891   2.709   0.811  0.1107 -0.1067  0.5094
  653SOL    HW1 2610   4.809   2.745   0.778  0.0575 -0.0376  0.7151
  653SOL    HW2 2611   4.865   2.648   0.880  0.2078 -0.4273  0.2679
  653SOL     MW 2612   4.877   2.706   0.816  0.1163 -0.1389  0.5049
  654SOL     OW 2613   4.884   4.947   0.761  0.3957 -0.1489  0.1654
  654SOL    HW1 2614   4.951   5.007   0.727  1.1174 -1.6574 -1.2575
  654SOL    HW2 2615   4.817   4.947   0.693  0.8255 -1.5701 -0.2992
  654SOL     MW 2616   4.884   4.955   0.748  0.5431 -0.5239 -0.0762
  655SOL     OW 2617   2.592   5.363   3.684 -0.2613 -0.4692  0.3843
  655SOL    HW1 2618   2.597   5.283   3.735  1.2874  0.0311  1.0637
  655SOL    HW2 2619   2.604   5.334   3.593  3.5672 -0.7986  0.8339
  655SOL     MW 2620   2.594   5.349   3.679  0.4270 -0.4473  0.5288
  656SOL     OW 2621   0.677   1.894   0.923 -0.5469  0.0104  0.3204
  656SOL    HW1 2622   0.685   1.854   1.009 -0.2823 -1.0315 -0.1741
  656SOL    HW2 2623   0.611   1.841   0.878 -0.3333  0.2511 -0.2849
  656SOL     MW 2624   0.670   1.882   0.928 -0.4857 -0.0922  0.1796
  657SOL     OW 2625   0.492   4.628   4.351 -0.1507  0.2578  0.3271
  657SOL    HW1 2626   0.408   4.632   4.397  0.4464  2.9747  1.3315
  657SOL    HW2 2627   0.552   4.587   4.414  0.0328  1.4307  0.9278
  657SOL     MW 2628   0.489   4.623   4.365 -0.0508  0.7558  0.5326
  658SOL     OW 2629   0.538   1.987   2.117 -0.0870  0.5515  0.1967
  658SOL    HW1 2630   0.610   1.938   2.157  0.2567  2.1146  1.5656
  658SOL    HW2 2631   0.581   2.055   2.066 -0.5792 -0.0214 -1.0170
  658SOL     MW 2632   0.553   1.989   2.116 -0.1060  0.6782  0.2166
  659SOL     OW 2633   2.110   0.850   3.331 -0.1037  0.4057 -0.3627
  659SOL    HW1 2634   2.026   0.804   3.333 -0.7085  1.4990  0.2323
  659SOL    HW2 2635   2.120   0.878   3.240 -0.1308 -0.1529 -0.5435
  659SOL     MW 2636   2.101   0.848   3.319 -0.1846  0.4741 -0.3097
  660SOL     OW 2637   2.435   3.717   4.320 -0.1567  0.1923 -0.0951
  660SOL    HW1 2638   2.389   3.661   4.383  0.5992  0.6978  0.9136
  660SOL    HW2 2639   2.396   3.804   4.332  0.9924  0.6139  0.7306
  660SOL     MW 2640   2.424   3.721   4.330  0.0872  0.3110  0.1397
  661SOL     OW 2641   0.257   3.913   1.460 -0.0228 -0.5960  0.5806
  661SOL    HW1 2642   0.178   3.959   1.488  0.8815  0.5971  1.3200
  661SOL    HW2 2643   0.261   3.927   1.366 -0.4343 -0.2431  0.6121
  661SOL     MW 2644   0.247   3.921   1.452  0.0403 -0.3981  0.6793
  662SOL     OW 2645   0.368   4.993   1.312  0.3166  0.4953 -1.0318
  662SOL    HW1 2646   0.319   5.048   1.251 -0.8584  0.3011 -0.2889
  662SOL    HW2 2647   0.302   4.957   1.371  1.3140 -0.0632 -0.2186
  662SOL     MW 2648   0.354   4.996   1.312  0.2939  0.3989 -0.8326
  663SOL     OW 2649   2.624   1.132   0.413  0.3989  0.6675 -0.0217
  663SOL    HW1 2650   2.558   1.131   0.343  0.0785  1.1554  0.2740
  663SOL    HW2 2651   2.668   1.047   0.404  0.2857  0.6741 -0.7423
  663SOL     MW 2652   2.621   1.121   0.403  0.3434  0.7308 -0.0761
  664SOL     OW 2653   0.600   5.268  -0.003 -0.7353 -0.5527  0.4795
  664SOL    HW1 2654   0.635   5.231   0.079 -0.3519  0.9260  1.0179
  664SOL    HW2 2655   0.507   5.282   0.015 -0.9485 -1.4716  0.1711
  664SOL     MW 2656   0.593   5.265   0.010 -0.7135 -0.4811  0.5089
  665SOL     OW 2657   4.348   1.784   2.719  0.3395  0.8978  0.4921
  665SOL    HW1 2658   4.323   1.870   2.688 -0.2987  1.4975  2.5270
  665SOL    HW2 2659   4.279   1.759   2.780  0.8737 -0.7499  0.4786
  665SOL     MW 2660   4.336   1.791   2.723  0.3262  0.7636  0.7509
  666SOL     OW 2661   4.823   1.943   1.042 -0.3795  0.5404 -0.1261
  666SOL    HW1 2662   4.801   2.034   1.063 -0.3510  0.5031  0.0711
  666SOL    HW2 2663   4.823   1.899   1.127 -2.5005 -0.0988 -0.3914
  666SOL     MW 2664   4.820   1.949   1.056 -0.6474  0.4538 -0.1348
  667SOL     OW 2665   5.036   4.252   0.235 -0.4889 -0.0688 -0.1836
  667SOL    HW1 2666   5.005   4.164   0.256 -2.1143  0.3908 -0.5787
  667SOL    HW2 2667   5.022   4.261   0.140 -0.3098  0.6181 -0.1514
  667SOL     MW 2668   5.030   4.242   0.225 -0.6741  0.0780 -0.2300
  668SOL     OW 2669   5.038   5.079   3.997  0.0836  0.1842  0.3136
  668SOL    HW1 2670   5.126   5.069   4.032  0.9616  0.1515 -1.7345
  668SOL    HW2 2671   5.047   5.059   3.904 -2.2377 -0.5221  0.1687
  668SOL     MW 2672   5.050   5.075   3.989 -0.1011  0.0896  0.0329
  669SOL     OW 2673   1.183   0.209   0.864 -0.0766  0.7512 -0.2918
  669SOL    HW1 2674   1.235   0.135   0.895 -0.1446  0.8759  0.1229
  669SOL    HW2 2675   1.236   0.286   0.887 -1.9989  1.1665  3.4983
  669SOL     MW 2676   1.197   0.209   0.871 -0.3314  0.8203  0.2465
  670SOL     OW 2677   2.906   0.237   5.105 -0.1340  0.3378 -0.9175
  670SOL    HW1 2678   2.871   0.277   5.185 -3.0834 -0.2107 -1.8194
  670SOL    HW2 2679   2.968   0.302   5.072  2.6981 -0.2159  2.6748
  670SOL     MW 2680   2.910   0.251   5.111 -0.1490  0.1967 -0.5731
  671SOL     OW 2681   4.428   2.901   1.251  0.1457 -0.4697  0.3495
  671SOL    HW1 2682   4.518   2.887   1.221  0.5290  1.0286  0.7092
  671SOL    HW2 2683   4.375   2.851   1.189  1.2339 -1.8642  0.4762
  671SOL     MW 2684   4.433   2.893   1.239  0.3341 -0.4564  0.4118
  672SOL     OW 2685   0.993   1.015   5.133  0.1831 -0.0152 -0.2962
  672SOL    HW1 2686   0.986   0.974   5.046 -1.8184 -1.5968  0.5303
  672SOL    HW2 2687   0.912   1.065   5.143  0.8055  0.9016  0.3372
  672SOL     MW 2688   0.982   1.016   5.123  0.0065 -0.1003 -0.1093
  673SOL     OW 2689   0.531   2.124   4.260  0.1620  0.7784  0.2617
  673SOL    HW1 2690   0.456   2.071   4.283  1.3263 -0.4064  1.4800
  673SOL    HW2 2691   0.516   2.208   4.303 -0.3504  0.4660  0.6886
  673SOL     MW 2692   0.520   2.128   4.268  0.2454  0.5867  0.4723
  674SOL     OW 2693   5.467   1.674   0.951  0.2153 -0.0152  0.5134
  674SOL    HW1 2694   5.414   1.742   0.911 -1.7318 -1.5499  0.3487
  674SOL    HW2 2695   5.406   1.602   0.967  2.4090 -2.2795 -0.5788
  674SOL     MW 2696   5.453   1.673   0.948  0.2468 -0.5015  0.3525
  675SOL     OW 2697   3.369   4.014   4.718 -0.1149  0.4839 -0.1852
  675SOL    HW1 2698   3.382   4.108   4.727 -3.0703  0.8909  0.9105
  675SOL    HW2 2699   3.375   3.998   4.623 -1.0639  2.0613 -0.5375
  675SOL     MW 2700   3.371   4.024   4.707 -0.6147  0.7379 -0.0900
  676SOL     OW 2701   3.252   4.318   1.450 -0.4931  0.6263  0.0024
  676SOL    HW1 2702   3.321   4.364   1.497 -0.6183 -0.5551  1.4350
  676SOL    HW2 2703   3.295   4.241   1.413 -0.4789  1.3499 -1.5590
  676SOL     MW 2704   3.266   4.314   1.451 -0.5073  0.5677 -0.0141
  677SOL     OW 2705   0.182   0.854   1.397  0.1208 -0.2892  0.2577
  677SOL    HW1 2706   0.264   0.843   1.445 -0.9142 -0.3673  2.0843
  677SOL    HW2 2707   0.127   0.782   1.427 -0.1893 -1.0670 -1.9860
  677SOL     MW 2708   0.186   0.844   1.407 -0.0514 -0.3987  0.2043
  678SOL     OW 2709   2.233   4.523   3.987  0.0207 -0.6577 -0.7743
  678SOL    HW1 2710   2.213   4.530   4.080 -1.4424 -0.0760 -1.1185
  678SOL    HW2 2711   2.216   4.610   3.951 -0.3396 -1.1160 -1.7622
  678SOL     MW 2712   2.229   4.535   3.994 -0.2127 -0.6419 -0.9448
  679SOL     OW 2713   1.786   3.475   4.581 -0.1871  0.3903 -0.1812
  679SOL    HW1 2714   1.782   3.520   4.666  0.1296  1.1594 -0.5638
  679SOL    HW2 2715   1.757   3.541   4.518  0.8728  0.2569 -0.8317
  679SOL     MW 2716   1.782   3.490   4.584 -0.0109  0.4717 -0.3134
  680SOL     OW 2717   1.444   0.696   5.225 -0.6320 -0.1112  0.3367
  680SOL    HW1 2718   1.400   0.760   5.169 -3.2300 -0.9308  1.3130
  680SOL    HW2 2719   1.522   0.671   5.175 -1.3459  1.2461 -1.6115
  680SOL     MW 2720   1.449   0.701   5.211 -1.0560 -0.0423  0.2123
  681SOL     OW 2721   2.711   4.843   4.640  0.1768  0.2601  0.4962
  681SOL    HW1 2722   2.662   4.908   4.691  0.4362  0.8571 -0.0090
  681SOL    HW2 2723   2.649   4.771   4.628 -0.4727  0.8593  0.1659
  681SOL     MW 2724   2.697   4.842   4.645  0.1269  0.4132  0.3892
  682SOL     OW 2725   4.101   1.503   3.521 -0.0879 -0.0597 -0.4337
  682SOL    HW1 2726   4.100   1.479   3.429  0.9287  1.1161 -0.7807
  682SOL    HW2 2727   4.019   1.549   3.535  1.2544  2.9858 -1.7336
  682SOL     MW 2728   4.091   1.506   3.511  0.2141  0.4807 -0.6445
  683SOL     OW 2729   0.202   1.239   3.546  0.0401 -0.1029  0.1049
  683SOL    HW1 2730   0.147   1.179   3.497 -0.3757  1.3612 -1.2886
  683SOL    HW2 2731   0.286   1.239   3.499  0.3160 -0.2075  0.5848
  683SOL     MW 2732   0.206   1.232   3.534  0.0222  0.0711 -0.0121
  684SOL     OW 2733   4.411   0.073   2.335  0.2662  0.0965 -0.1957
  684SOL    HW1 2734   4.427   0.013   2.408  0.2161 -0.4431 -0.6244
  684SOL    HW2 2735   4.490   0.065   2.280 -0.0118 -0.0538 -0.5794
  684SOL     MW 2736   4.423   0.064   2.337  0.2242  0.0082 -0.2997
  685SOL     OW 2737   3.951   5.196   2.796 -0.2497  0.0020 -0.1250
  685SOL    HW1 2738   3.949   5.154   2.882  0.8473  0.0655 -0.0565
  685SOL    HW2 2739   4.015   5.267   2.806 -0.5120  0.3389 -0.8408
  685SOL     MW 2740   3.959   5.200   2.809 -0.1429  0.0533 -0.2079
  686SOL     OW 2741   4.834   2.460   0.563  0.0835 -0.5207  0.0967
  686SOL    HW1 2742   4.803   2.548   0.585  0.8416 -0.0135 -0.7931
  686SOL    HW2 2743   4.844   2.416   0.647  2.0267  1.0521  0.7590
  686SOL     MW 2744   4.831   2.466   0.576  0.4293 -0.2544  0.0676
  687SOL     OW 2745   3.739   2.162   3.836  0.6723 -0.4811 -0.5848
  687SOL    HW1 2746   3.774   2.142   3.749 -0.0761 -1.2440 -0.7253
  687SOL    HW2 2747   3.655   2.115   3.840 -0.3357  1.2588 -0.2393
  687SOL     MW 2748   3.733   2.153   3.826  0.4475 -0.3561 -0.5585
  688SOL     OW 2749   0.839   0.960   4.463 -0.0768  0.0402 -0.2985
  688SOL    HW1 2750   0.815   0.983   4.553 -1.0157  0.6942 -0.7169
  688SOL    HW2 2751   0.766   0.907   4.431  0.1144  0.0645 -0.7836
  688SOL     MW 2752   0.827   0.956   4.471 -0.1725  0.1270 -0.4142
  689SOL     OW 2753   4.620   3.522   1.477 -0.2558  0.2576 -0.2333
  689SOL    HW1 2754   4.608   3.478   1.393 -1.3568  0.9749 -0.4836
  689SOL    HW2 2755   4.700   3.484   1.513 -0.3265 -0.8096 -1.1303
  689SOL     MW 2756   4.628   3.511   1.471 -0.4058  0.2128 -0.3801
  690SOL     OW 2757   0.788   1.554   0.114 -0.2840 -0.5048  0.2069
  690SOL    HW1 2758   0.876   1.581   0.089  0.1135 -2.1515 -0.2897
  690SOL    HW2 2759   0.793   1.544   0.210  0.0070 -0.3902  0.2054
  690SOL     MW 2760   0.800   1.556   0.123 -0.1958 -0.7009  0.1431
  691SOL     OW 2761   4.439   5.197   0.861  0.3446  0.4478  0.3105
  691SOL    HW1 2762   4.535   5.198   0.855  0.3321 -0.5918 -0.3204
  691SOL    HW2 2763   4.411   5.153   0.781 -0.6078 -0.2660  1.0165
  691SOL     MW 2764   4.448   5.192   0.850  0.2211  0.2233  0.3201
  692SOL     OW 2765   2.911   2.382   5.007 -0.1931 -0.0145 -0.1438
  692SOL    HW1 2766   2.910   2.355   4.915 -0.2560 -1.6122  0.2916
  692SOL    HW2 2767   2.971   2.321   5.049  0.4991  1.2338  0.7457
  692SOL     MW 2768   2.919   2.371   5.000 -0.1126 -0.0592  0.0258
  693SOL     OW 2769   3.299   4.085   2.766  0.5346  0.4435  0.5458
  693SOL    HW1 2770   3.361   4.059   2.697  1.5560  2.1861  0.7353
  693SOL    HW2 2771   3.315   4.024   2.837 -1.9007 -2.7088 -1.3164
  693SOL     MW 2772   3.309   4.074   2.766  0.3536  0.2630  0.3317
  694SOL     OW 2773   4.338   1.045   2.685 -0.6241  0.0337 -0.8357
  694SOL    HW1 2774   4.344   1.104   2.610 -1.1782 -1.0036 -1.7251
  694SOL    HW2 2775   4.427   1.044   2.720 -0.0436 -0.3847 -2.2217
  694SOL     MW 2776   4.351   1.052   2.680 -0.6207 -0.1527 -1.1269
  695SOL     OW 2777   3.254   1.994   2.581  0.3406  0.2963 -0.2293
  695SOL    HW1 2778   3.231   2.060   2.647  0.5742  0.9377 -0.7722
  695SOL    HW2 2779   3.297   2.044   2.512  0.3417 -0.4052 -0.7453
  695SOL     MW 2780   3.257   2.009   2.580  0.3706  0.2886 -0.3649
  696SOL     OW 2781   0.975   2.637   5.051 -0.3741  0.1042  0.1531
  696SOL    HW1 2782   1.028   2.562   5.023 -0.8798  0.2521 -1.3014
  696SOL    HW2 2783   0.896   2.599   5.089 -0.2668 -0.0995  0.1718
  696SOL     MW 2784   0.972   2.623   5.052 -0.4251  0.0970 -0.0307
  697SOL     OW 2785   5.295   2.663   5.297  0.4369 -0.1037  1.6110
  697SOL    HW1 2786   5.301   2.569   5.276  0.1213  0.4940 -1.6619
  697SOL    HW2 2787   5.385   2.694   5.296  0.3707  0.1319 -0.3491
  697SOL     MW 2788   5.307   2.655   5.294  0.3881  0.0030  0.9411
  698SOL     OW 2789   0.804   0.019   0.302 -0.2205 -0.6697  0.1310
  698SOL    HW1 2790   0.800   0.062   0.387  1.8772 -0.0861 -0.0150
  698SOL    HW2 2791   0.889   0.045   0.266 -0.9555 -1.0895 -2.0441
  698SOL     MW 2792   0.814   0.028   0.308 -0.0461 -0.6488 -0.1661
  699SOL     OW 2793   4.238   1.667   2.323  0.1829 -0.5165  0.0500
  699SOL    HW1 2794   4.218   1.634   2.410  1.2214  1.2142  0.9907
  699SOL    HW2 2795   4.155   1.659   2.275 -0.7226 -0.4246  1.5455
  699SOL     MW 2796   4.225   1.662   2.328  0.1999 -0.2832  0.3619
  700SOL     OW 2797   1.155   0.988   4.186 -0.4906 -0.5635 -0.4828
  700SOL    HW1 2798   1.209   0.975   4.109 -1.0143 -0.3074 -0.8990
  700SOL    HW2 2799   1.189   1.069   4.225 -1.5079  0.4015 -1.5551
  700SOL     MW 2800   1.166   0.997   4.181 -0.6878 -0.4072 -0.6734
  701SOL     OW 2801   3.817   2.515   4.463 -0.3676  0.3536 -0.2151
  701SOL    HW1 2802   3.789   2.506   4.372  0.4291 -1.0431 -0.3523
  701SOL    HW2 2803   3.736   2.530   4.512 -1.0554 -0.9543 -0.9112
  701SOL     MW 2804   3.803   2.516   4.458 -0.3537  0.0074 -0.3218
  702SOL     OW 2805   4.537   3.821   2.424 -0.1490  0.0659  0.1002
  702SOL    HW1 2806   4.519   3.915   2.430  1.3873  0.3784  0.0890
  702SOL    HW2 2807   4.542   3.792   2.515 -0.4602  0.0106  0.1035
  702SOL     MW 2808   4.535   3.829   2.437  0.0078  0.0988  0.0992
  703SOL     OW 2809   4.113   5.268   5.145  0.4272 -0.1036 -0.1459
  703SOL    HW1 2810   4.146   5.338   5.088 -0.0983 -1.0906 -1.7190
  703SOL    HW2 2811   4.066   5.314   5.214 -0.8617  1.1295 -1.7348
  703SOL     MW 2812   4.111   5.283   5.146  0.1949 -0.0721 -0.5507
  704SOL     OW 2813   2.153   2.082   4.293  0.5913  0.0062 -0.0767
  704SOL    HW1 2814   2.083   2.037   4.247  0.6158  0.6476 -0.7454
  704SOL    HW2 2815   2.180   2.020   4.361 -0.0054 -0.6069 -0.3879
  704SOL     MW 2816   2.148   2.068   4.296  0.5180  0.0098 -0.2022
  705SOL     OW 2817   4.062   0.423   2.679 -0.7621 -0.5481  0.0921
  705SOL    HW1 2818   4.135   0.478   2.706 -1.5272  0.9183 -0.7252
  705SOL    HW2 2819   4.096   0.333   2.686  1.4717  0.1105 -1.2810
  705SOL     MW 2820   4.076   0.418   2.683 -0.5741 -0.2761 -0.1883
  706SOL     OW 2821   3.489   1.371   5.162  0.2241  0.1105  0.2096
  706SOL    HW1 2822   3.544   1.449   5.168  0.5604 -0.0852 -0.3254
  706SOL    HW2 2823   3.439   1.371   5.244 -1.0884  1.8669 -0.5029
  706SOL     MW 2824   3.489   1.381   5.173  0.0992  0.3103  0.0499
  707SOL     OW 2825   0.767   0.081   4.215  0.1211  0.3894  0.4490
  707SOL    HW1 2826   0.769   0.008   4.276  1.5386 -1.8477 -2.0446
  707SOL    HW2 2827   0.676   0.086   4.187 -0.2988  0.6611  1.8030
  707SOL     MW 2828   0.756   0.072   4.219  0.2488  0.1378  0.3031
  708SOL     OW 2829   1.531   5.404   2.060  0.3955 -0.5692  0.1762
  708SOL    HW1 2830   1.515   5.317   2.098 -0.0735 -1.0148 -1.0065
  708SOL    HW2 2831   1.463   5.413   1.993 -0.5469  1.3583  1.2985
  708SOL     MW 2832   1.520   5.394   2.057  0.2149 -0.3795  0.1684
  709SOL     OW 2833   3.230   5.435   3.941  0.6764 -0.6302  0.0505
  709SOL    HW1 2834   3.247   5.434   4.035  1.3921 -1.7778 -0.0803
  709SOL    HW2 2835   3.135   5.433   3.934  0.5077  1.6136  0.7489
  709SOL     MW 2836   3.220   5.435   3.952  0.7464 -0.4898  0.1232
  710SOL     OW 2837   4.861   2.562   1.053 -0.4299  0.0264  0.0416
  710SOL    HW1 2838   4.834   2.628   1.117  0.0788  0.2493  0.0311
  710SOL    HW2 2839   4.922   2.506   1.102 -1.0033 -0.5503  0.1057
  710SOL     MW 2840   4.866   2.563   1.068 -0.4382 -0.0189  0.0485
  711SOL     OW 2841   4.962   1.249   4.186 -0.5742 -0.0782 -0.2256
  711SOL    HW1 2842   4.927   1.160   4.178  1.5036 -0.9677  0.0251
  711SOL    HW2 2843   5.022   1.244   4.260  1.0513  1.0056 -1.4022
  711SOL     MW 2844   4.965   1.237   4.194 -0.1001 -0.0533 -0.3441
  712SOL     OW 2845   4.817   3.796   2.767 -0.3833  0.4701  0.3402
  712SOL    HW1 2846   4.721   3.789   2.766 -0.4436  0.8646  1.4750
  712SOL    HW2 2847   4.836   3.867   2.706 -0.8887  1.0325  0.8210
  712SOL     MW 2848   4.807   3.804   2.759 -0.4557  0.5926  0.5471
  713SOL     OW 2849   2.038   1.727   4.158 -0.0735  0.2338 -0.0521
  713SOL    HW1 2850   1.949   1.690   4.163  0.5163 -1.3854 -0.8346
  713SOL    HW2 2851   2.069   1.704   4.070  1.9904 -1.3984  1.0087
  713SOL     MW 2852   2.030   1.719   4.147  0.2662 -0.1824 -0.0164
  714SOL     OW 2853   2.817   5.208   4.029 -0.1320  0.1363 -0.4138
  714SOL    HW1 2854   2.777   5.285   4.070  1.8275  0.9670  0.0985
  714SOL    HW2 2855   2.763   5.190   3.953 -0.9266  1.7529 -0.2828
  714SOL     MW 2856   2.805   5.216   4.025  0.0172  0.4496 -0.3315
  715SOL     OW 2857   3.345   4.781   0.640  0.1187 -0.0936  0.3970
  715SOL    HW1 2858   3.249   4.784   0.643  0.1186  1.9032 -0.3917
  715SOL    HW2 2859   3.373   4.868   0.667  1.5735  0.3288 -2.1188
  715SOL     MW 2860   3.336   4.792   0.644  0.3049  0.2161 -0.0260
  716SOL     OW 2861   0.543   4.681   3.644 -0.0017  0.1099  0.0451
  716SOL    HW1 2862   0.630   4.665   3.608  0.7862  2.3012  0.8425
  716SOL    HW2 2863   0.483   4.648   3.577  1.4038 -1.2713 -0.6046
  716SOL     MW 2864   0.546   4.675   3.631  0.2791  0.2136  0.0640
  717SOL     OW 2865   1.242   1.295   3.561  0.0342  0.1098  0.3171
  717SOL    HW1 2866   1.189   1.275   3.638 -1.2700  0.5201 -0.4470
  717SOL    HW2 2867   1.218   1.385   3.538 -0.5275 -0.4243 -1.2899
  717SOL     MW 2868   1.232   1.304   3.568 -0.2046  0.0939  0.0136
  718SOL     OW 2869   1.101   4.534   0.038 -0.1066  0.1339 -0.0769
  718SOL    HW1 2870   1.112   4.496   0.125 -0.1902 -0.8558 -0.4803
  718SOL    HW2 2871   1.189   4.563   0.014 -0.3041  1.5454  0.8229
  718SOL     MW 2872   1.114   4.533   0.046 -0.1426  0.1879 -0.0133
  719SOL     OW 2873   4.646   2.709   0.397  0.0814  0.8728  0.2258
  719SOL    HW1 2874   4.718   2.681   0.341  0.3196  0.7862  0.5725
  719SOL    HW2 2875   4.583   2.637   0.394  1.1419 -0.1883  1.9171
  719SOL     MW 2876   4.647   2.696   0.389  0.2477  0.7259  0.4867
  720SOL     OW 2877   0.073   4.049   4.980 -0.4015  0.2733 -0.0607
  720SOL    HW1 2878   0.155   4.097   4.972 -1.1891  1.8851  0.9052
  720SOL    HW2 2879   0.005   4.117   4.974 -1.5951 -0.8111  0.6536
  720SOL     MW 2880   0.075   4.064   4.978 -0.6551  0.3408  0.1544
  721SOL     OW 2881   1.013   4.946   1.418  0.4794 -0.2671  0.0457
  721SOL    HW1 2882   0.993   4.878   1.354  0.1631  0.6883 -0.8956
  721SOL    HW2 2883   1.068   4.902   1.483 -0.4550 -1.6357 -0.0572
  721SOL     MW 2884   1.018   4.932   1.418  0.3193 -0.3200 -0.0880
  722SOL     OW 2885   0.971   2.808   3.728 -0.5021 -0.0724  0.1367
  722SOL    HW1 2886   0.972   2.901   3.750  2.0765 -0.0033  0.0606
  722SOL    HW2 2887   0.923   2.803   3.646 -1.7319  1.0096  0.7645
  722SOL     MW 2888   0.965   2.819   3.720 -0.3294  0.0750  0.2074
  723SOL     OW 2889   3.057   0.432   4.488 -0.1962  0.5645  0.2742
  723SOL    HW1 2890   3.058   0.336   4.490  0.6406  0.5462 -0.4381
  723SOL    HW2 2891   3.126   0.455   4.425 -0.8769  1.6144 -0.1019
  723SOL     MW 2892   3.066   0.423   4.480 -0.1762  0.6966  0.1349
  724SOL     OW 2893   4.856   3.222   0.857 -0.0639 -0.4187  0.5255
  724SOL    HW1 2894   4.903   3.303   0.872  0.3552 -0.1106 -1.9294
  724SOL    HW2 2895   4.924   3.157   0.839 -0.4490 -0.5084 -0.7698
  724SOL     MW 2896   4.870   3.224   0.856 -0.0596 -0.3907  0.0454
  725SOL     OW 2897   3.874   2.829   2.589  0.1311  0.4589  0.2856
  725SOL    HW1 2898   3.836   2.912   2.559 -1.1684 -0.5392 -0.9618
  725SOL    HW2 2899   3.805   2.789   2.642  0.0474 -0.6357 -0.6250
  725SOL     MW 2900   3.861   2.834   2.592 -0.0460  0.1910  0.0093
  726SOL     OW 2901   4.249   0.478   4.409 -0.1269 -0.6198 -0.1678
  726SOL    HW1 2902   4.196   0.403   4.384  1.1183 -2.1449  1.5771
  726SOL    HW2 2903   4.331   0.467   4.362 -0.2104  0.0747 -0.4909
  726SOL     MW 2904   4.253   0.467   4.400  0.0218 -0.7262  0.0142
  727SOL     OW 2905   1.935   4.800   0.009 -0.0745 -0.2454  0.1554
  727SOL    HW1 2906   1.882   4.753  -0.055 -0.1356  1.6720 -1.2777
  727SOL    HW2 2907   1.870   4.844   0.065 -0.1681  2.6333 -1.9959
  727SOL     MW 2908   1.920   4.800   0.008 -0.0943  0.3686 -0.3034
  728SOL     OW 2909   0.073   1.310   3.091 -0.3843 -0.0178  0.4950
  728SOL    HW1 2910   0.022   1.312   3.172 -2.0390  0.3274 -0.5010
  728SOL    HW2 2911   0.155   1.354   3.113 -0.2943 -0.9598  2.2727
  728SOL     MW 2912   0.077   1.316   3.104 -0.5846 -0.0942  0.5950
  729SOL     OW 2913   2.915   3.807   4.139  0.0529  0.2235 -0.2754
  729SOL    HW1 2914   2.871   3.892   4.144  0.8515  0.6022  0.9590
  729SOL    HW2 2915   2.908   3.781   4.047 -0.5055  1.4631 -0.5989
  729SOL     MW 2916   2.909   3.815   4.128  0.0837  0.4306 -0.1588
  730SOL     OW 2917   0.467   4.613   2.090  0.3747  0.3517  0.1408
  730SOL    HW1 2918   0.405   4.613   2.018 -0.0067 -0.2448  0.4666
  730SOL    HW2 2919   0.553   4.622   2.048  0.0942  0.9542 -0.3197
  730SOL     MW 2920   0.470   4.614   2.076  0.2899  0.3525  0.1235
  731SOL     OW 2921   4.234   4.127   0.105  0.0593  0.1765  0.1823
  731SOL    HW1 2922   4.142   4.102   0.093  0.1032 -0.1688  0.5339
  731SOL    HW2 2923   4.244   4.209   0.056 -0.4263  0.1959  0.1152
  731SOL     MW 2924   4.224   4.134   0.097  0.0028  0.1348  0.2188
  732SOL     OW 2925   2.948   1.448   3.197 -0.1505  0.5832 -0.4790
  732SOL    HW1 2926   2.932   1.432   3.290 -0.8509 -1.2253 -0.8573
  732SOL    HW2 2927   2.867   1.487   3.165 -0.0502  0.8506 -0.4074
  732SOL     MW 2928   2.936   1.451   3.205 -0.2274  0.3859 -0.5183
  733SOL     OW 2929   2.440   3.725   2.611 -0.5136  0.3229 -0.1175
  733SOL    HW1 2930   2.346   3.741   2.607 -0.7176  0.3382  2.5401
  733SOL    HW2 2931   2.479   3.813   2.609 -0.7629  0.4893  1.3350
  733SOL     MW 2932   2.433   3.739   2.610 -0.5716  0.3461  0.4086
  734SOL     OW 2933   0.027   5.378   4.735 -0.5643  0.0924  0.1157
  734SOL    HW1 2934  -0.044   5.317   4.755 -0.6862  0.4562  0.8405
  734SOL    HW2 2935   0.104   5.323   4.720 -1.0429 -0.3158 -0.8960
  734SOL     MW 2936   0.028   5.363   4.735 -0.6411  0.0867  0.0790
  735SOL     OW 2937   4.311   2.808   1.006 -0.2655  0.1069 -0.0096
  735SOL    HW1 2938   4.401   2.836   0.990 -0.4089  0.4303 -0.2735
  735SOL    HW2 2939   4.318   2.718   1.035  0.0806 -0.1645 -0.9158
  735SOL     MW 2940   4.323   2.800   1.007 -0.2395  0.1135 -0.1593
  736SOL     OW 2941   4.378   1.547   2.087 -0.6033 -0.0596 -0.2650
  736SOL    HW1 2942   4.361   1.453   2.093 -2.3473  0.2892  0.7875
  736SOL    HW2 2943   4.339   1.584   2.165  0.7165  1.4899 -0.2806
  736SOL     MW 2944   4.371   1.539   2.098 -0.6576  0.1834 -0.1323
  737SOL     OW 2945   1.501   4.343   4.649  0.0427  0.3288  0.5164
  737SOL    HW1 2946   1.540   4.256   4.660  1.2328  0.8376  0.3513
  737SOL    HW2 2947   1.497   4.356   4.554 -0.4046  0.3475  0.5333
  737SOL     MW 2948   1.505   4.333   4.638  0.1378  0.3963  0.4974
  738SOL     OW 2949   4.072   2.510   2.376 -0.3182 -0.5216  0.0892
  738SOL    HW1 2950   3.992   2.464   2.403  0.5129 -1.9068  0.3047
  738SOL    HW2 2951   4.126   2.510   2.455  0.2739 -0.4369 -0.3162
  738SOL     MW 2952   4.068   2.504   2.390 -0.1360 -0.6881  0.0649
  739SOL     OW 2953   0.478   3.819   4.048  0.2902 -0.1547 -0.7845
  739SOL    HW1 2954   0.395   3.865   4.037 -0.0182 -0.2461  0.9681
  739SOL    HW2 2955   0.517   3.858   4.126  2.2533  0.3759 -1.9687
  739SOL     MW 2956   0.472   3.830   4.056  0.5020 -0.0985 -0.7117
  740SOL     OW 2957   3.879   2.065   4.573 -0.8919 -0.4441 -0.0154
  740SOL    HW1 2958   3.924   2.142   4.538  1.7945 -1.0372  1.7922
  740SOL    HW2 2959   3.870   2.006   4.498 -0.6187  0.5830 -0.8772
  740SOL     MW 2960   3.884   2.067   4.559 -0.5130 -0.3885  0.1057
  741SOL     OW 2961   1.582   4.392   3.014  0.4325  0.5002  0.6075
  741SOL    HW1 2962   1.500   4.410   2.968  1.1215  0.1612 -0.7979
  741SOL    HW2 2963   1.648   4.389   2.946  1.5734  0.3926  1.6780
  741SOL     MW 2964   1.580   4.394   3.000  0.6667  0.4430  0.5646
  742SOL     OW 2965   0.092   3.381   2.767  0.5657  0.4808 -0.2199
  742SOL    HW1 2966   0.045   3.442   2.709  0.3208 -0.3875 -0.9689
  742SOL    HW2 2967   0.148   3.331   2.708 -1.7913 -2.4375 -0.2248
  742SOL     MW 2968   0.093   3.383   2.752  0.2327 -0.0039 -0.3164
  743SOL     OW 2969   2.652   2.896   5.227  0.5278 -0.3851 -0.3850
  743SOL    HW1 2970   2.576   2.916   5.172  0.6760 -0.3135 -0.5625
  743SOL    HW2 2971   2.650   2.962   5.296  0.9041  0.1257 -0.8573
  743SOL     MW 2972   2.642   2.907   5.229  0.5949 -0.3106 -0.4681
  744SOL     OW 2973   5.352   0.587   1.000 -0.0915  0.0632 -0.0523
  744SOL    HW1 2974   5.375   0.643   1.074 -0.5121  0.4096 -0.1741
  744SOL    HW2 2975   5.260   0.563   1.016 -0.0401 -0.2437 -0.2197
  744SOL     MW 2976   5.343   0.591   1.011 -0.1387  0.0682 -0.0893
  745SOL     OW 2977   4.975   2.426   2.712  0.0850 -0.0747 -0.5041
  745SOL    HW1 2978   5.024   2.430   2.629 -0.1643 -0.2671 -0.6604
  745SOL    HW2 2979   5.042   2.442   2.779  0.0926  1.2119 -0.7973
  745SOL     MW 2980   4.990   2.428   2.710  0.0541  0.0654 -0.5617
  746SOL     OW 2981   3.156   4.622   0.287 -0.2939 -0.1547  0.1865
  746SOL    HW1 2982   3.111   4.586   0.363 -1.6170  2.6871  0.8982
  746SOL    HW2 2983   3.241   4.579   0.287 -0.6287 -0.9938  2.6697
  746SOL     MW 2984   3.161   4.612   0.297 -0.5061  0.1016  0.5955
  747SOL     OW 2985   2.084   3.962   1.426 -0.0857  0.0413  1.0114
  747SOL    HW1 2986   2.174   3.935   1.408 -0.2371  0.7386 -0.9851
  747SOL    HW2 2987   2.031   3.886   1.401 -0.1163 -0.0587  1.3736
  747SOL     MW 2988   2.089   3.949   1.420 -0.1090  0.1178  0.8022
  748SOL     OW 2989   0.687   3.853   5.028  0.0408  0.0695  0.1533
  748SOL    HW1 2990   0.770   3.818   4.996  0.3665 -1.1180  2.1399
  748SOL    HW2 2991   0.684   3.829   5.121 -2.2165  0.6596  0.3102
  748SOL     MW 2992   0.697   3.845   5.036 -0.2065 -0.0070  0.4277
  749SOL     OW 2993   1.392   4.508   5.157  0.0424  0.5357  0.2567
  749SOL    HW1 2994   1.453   4.573   5.124  0.1303  0.9652  1.2252
  749SOL    HW2 2995   1.447   4.436   5.187 -0.0440  0.0890 -0.6230
  749SOL     MW 2996   1.407   4.507   5.157  0.0426  0.5335  0.2681
  750SOL     OW 2997   1.867   1.709   1.350  0.1224 -0.0561  0.3968
  750SOL    HW1 2998   1.936   1.755   1.303  1.4675 -0.8677  1.4644
  750SOL    HW2 2999   1.821   1.777   1.399 -1.5180  0.8534 -2.1994
  750SOL     MW 3000   1.870   1.723   1.350  0.0846 -0.0436  0.2011
  751SOL     OW 3001   4.257   3.150   0.133  0.0983 -0.7100  0.2736
  751SOL    HW1 3002   4.253   3.218   0.200  1.0016 -1.3494  1.0036
  751SOL    HW2 3003   4.349   3.145   0.109  0.1004 -1.8940  0.4760
  751SOL     MW 3004   4.268   3.158   0.138  0.2142 -0.9434  0.3929
  752SOL     OW 3005   3.712   5.290   3.460  0.5722 -0.1838  0.0224
  752SOL    HW1 3006   3.745   5.201   3.474 -0.4896 -0.4343  1.0273
  752SOL    HW2 3007   3.785   5.335   3.416  0.9606 -1.6557 -0.9193
  752SOL     MW 3008   3.726   5.285   3.456  0.4860 -0.4043  0.0305
  753SOL     OW 3009   4.397   3.333   4.955 -0.4735 -0.0346 -0.1703
  753SOL    HW1 3010   4.470   3.394   4.957  0.3908 -1.0367  0.0367
  753SOL    HW2 3011   4.415   3.276   4.880 -0.3921 -1.0307  0.5719
  753SOL     MW 3012   4.408   3.333   4.946 -0.3525 -0.2904 -0.0488
  754SOL     OW 3013   4.271   4.301   3.787 -0.4171 -0.2009  0.1367
  754SOL    HW1 3014   4.281   4.213   3.750  0.0396  0.2922 -0.9497
  754SOL    HW2 3015   4.186   4.331   3.754 -0.7351 -0.3656  0.7980
  754SOL     MW 3016   4.262   4.294   3.778 -0.3993 -0.1588  0.0823
  755SOL     OW 3017   4.944   3.590   1.155  0.0942 -0.2573 -0.6442
  755SOL    HW1 3018   5.022   3.644   1.147  0.8329 -1.0305  0.8830
  755SOL    HW2 3019   4.968   3.523   1.219 -1.9711 -0.2193  0.2368
  755SOL     MW 3020   4.957   3.588   1.162 -0.0756 -0.3514 -0.3360
  756SOL     OW 3021   2.343   5.317   5.206  0.1620 -0.1611  0.5463
  756SOL    HW1 3022   2.326   5.383   5.139  1.1804  0.8872  1.2999
  756SOL    HW2 3023   2.437   5.320   5.220  0.1340 -1.2578  1.1439
  756SOL     MW 3024   2.353   5.326   5.199  0.2888 -0.1673  0.7193
  757SOL     OW 3025   1.859   3.106   3.130  0.0323  0.1586  0.3833
  757SOL    HW1 3026   1.936   3.130   3.183 -0.2281 -0.1965  0.9240
  757SOL    HW2 3027   1.871   3.156   3.049  1.1858 -0.4000  0.1792
  757SOL     MW 3028   1.871   3.115   3.126  0.1466  0.0416  0.4264
  758SOL     OW 3029   1.584   1.235   4.954 -0.6720  0.2954  0.2123
  758SOL    HW1 3030   1.491   1.225   4.936 -0.9796  2.2810  0.4343
  758SOL    HW2 3031   1.590   1.235   5.050 -0.3060 -0.7862  0.1971
  758SOL     MW 3032   1.573   1.234   4.964 -0.6646  0.4112  0.2388
  759SOL     OW 3033   0.008   2.978   1.150 -0.2053  0.7172 -0.1852
  759SOL    HW1 3034  -0.013   3.058   1.102 -0.5102  1.5842  1.3391
  759SOL    HW2 3035   0.081   2.940   1.102 -1.3380  0.8298 -2.1023
  759SOL     MW 3036   0.015   2.983   1.138 -0.3893  0.8426 -0.2355
  760SOL     OW 3037   1.421   4.552   1.236  0.5964  0.1385  0.1385
  760SOL    HW1 3038   1.397   4.619   1.171  1.1744  0.2705  0.0629
  760SOL    HW2 3039   1.356   4.483   1.223  1.2302 -0.2331 -1.1830
  760SOL     MW 3040   1.409   4.552   1.226  0.7516  0.1078 -0.0404
  761SOL     OW 3041   2.657   5.445   2.643 -0.2417 -0.2556  0.6853
  761SOL    HW1 3042   2.727   5.498   2.604 -1.7338  0.5893 -1.0024
  761SOL    HW2 3043   2.642   5.375   2.580 -1.3254 -0.0515  0.7045
  761SOL     MW 3044   2.664   5.443   2.630 -0.5714 -0.1213  0.4717
  762SOL     OW 3045   0.218   0.030   3.628  0.8119 -0.1450 -0.6026
  762SOL    HW1 3046   0.137   0.061   3.588  1.0593 -0.0358 -1.0291
  762SOL    HW2 3047   0.201  -0.061   3.652 -0.0063  0.3670  0.8873
  762SOL     MW 3048   0.206   0.022   3.626  0.7388 -0.0655 -0.4665
  763SOL     OW 3049   1.941   3.559   2.620  0.3246 -0.6936 -0.1550
  763SOL    HW1 3050   2.009   3.519   2.674 -0.2469 -0.1316  1.0215
  763SOL    HW2 3051   1.914   3.637   2.669  1.0971  0.9222 -2.1500
  763SOL     MW 3052   1.946   3.564   2.633  0.3503 -0.4148 -0.2598
  764SOL     OW 3053   4.935   1.101   3.468 -0.4600  0.5457  0.3335
  764SOL    HW1 3054   4.864   1.142   3.515 -0.9450 -0.3162  0.3772
  764SOL    HW2 3055   5.014   1.128   3.514 -0.7742  1.2611  0.4655
  764SOL     MW 3056   4.936   1.110   3.480 -0.5623  0.5270  0.3560
  765SOL     OW 3057   0.912   3.711   2.326 -0.4190 -0.0626 -0.2390
  765SOL    HW1 3058   0.932   3.618   2.317 -0.8088 -0.2445  0.6068
  765SOL    HW2 3059   0.981   3.745   2.383 -0.7328 -0.0127  0.1132
  765SOL     MW 3060   0.923   3.704   2.332 -0.5091 -0.0795 -0.0856
  766SOL     OW 3061   3.904   2.934   5.117 -0.4090  0.1534  0.3313
  766SOL    HW1 3062   3.999   2.932   5.127 -0.4726  0.0739  1.0024
  766SOL    HW2 3063   3.889   2.995   5.045  0.1073  1.1739  1.0461
  766SOL     MW 3064   3.914   2.942   5.109 -0.3510  0.2739  0.5087
  767SOL     OW 3065   4.214   3.079   3.910 -0.0566  0.4412 -0.5708
  767SOL    HW1 3066   4.241   3.130   3.986 -0.4332  0.6839 -0.5954
  767SOL    HW2 3067   4.210   3.142   3.838  1.8926 -0.0812 -1.1920
  767SOL     MW 3068   4.217   3.094   3.910  0.1447  0.4054 -0.6535
  768SOL     OW 3069   4.245   1.244   4.947  0.5319  0.0109  0.0516
  768SOL    HW1 3070   4.166   1.272   4.900  1.1476 -1.5961 -2.0670
  768SOL    HW2 3071   4.288   1.326   4.971 -0.6770  0.9053 -0.6737
  768SOL     MW 3072   4.240   1.258   4.944  0.4560 -0.0803 -0.3125
  769SOL     OW 3073   2.615   4.708   4.128  0.1968 -0.2100  0.4087
  769SOL    HW1 3074   2.702   4.698   4.167 -0.0994 -0.2878  1.0655
  769SOL    HW2 3075   2.556   4.719   4.203 -0.5284 -1.3515  0.0415
  769SOL     MW 3076   2.618   4.708   4.142  0.0661 -0.3661  0.4458
  770SOL     OW 3077   3.354   5.084   2.459 -0.4608 -0.3033  0.1232
  770SOL    HW1 3078   3.358   5.125   2.373  0.4879 -0.1335  0.2283
  770SOL    HW2 3079   3.272   5.035   2.460  0.4296 -1.9780 -1.6593
  770SOL     MW 3080   3.344   5.083   2.448 -0.2254 -0.4959 -0.0916
  771SOL     OW 3081   2.841   1.551   1.332  0.0323 -0.6884  0.4576
  771SOL    HW1 3082   2.858   1.632   1.284 -0.1507 -1.3173 -0.7026
  771SOL    HW2 3083   2.927   1.509   1.339 -0.0425 -0.9006  0.1123
  771SOL     MW 3084   2.854   1.556   1.327 -0.0007 -0.7961  0.2649
  772SOL     OW 3085   2.830   4.632   5.247 -0.8052  0.1294  0.4236
  772SOL    HW1 3086   2.880   4.607   5.169 -2.1101 -0.4443 -0.2817
  772SOL    HW2 3087   2.891   4.681   5.301  0.2814  0.1105 -0.7399
  772SOL     MW 3088   2.844   4.635   5.244 -0.8331  0.0535  0.1844
  773SOL     OW 3089   5.244   3.673   0.241 -0.0941  0.1958  0.0603
  773SOL    HW1 3090   5.253   3.682   0.146  1.7884  1.4386  0.2844
  773SOL    HW2 3091   5.153   3.696   0.259 -0.2126  0.9665 -1.3633
  773SOL     MW 3092   5.234   3.677   0.231  0.1317  0.4535 -0.0932
  774SOL     OW 3093   0.277   4.303   3.483 -0.0493  0.0832  0.3482
  774SOL    HW1 3094   0.197   4.355   3.490 -0.3283 -0.0597 -1.2502
  774SOL    HW2 3095   0.266   4.255   3.400  1.7320  0.1452  0.0531
  774SOL     MW 3096   0.265   4.304   3.473  0.1430  0.0728  0.1058
  775SOL     OW 3097   1.515   5.329   0.585  0.0416 -0.0456  0.3005
  775SOL    HW1 3098   1.559   5.304   0.666 -0.0932 -0.7462  0.1594
  775SOL    HW2 3099   1.581   5.315   0.517 -0.4344 -1.2598  0.0668
  775SOL     MW 3100   1.529   5.324   0.587 -0.0366 -0.2908  0.2526
  776SOL     OW 3101   1.172   1.058   0.405 -0.4432  0.1920 -0.1910
  776SOL    HW1 3102   1.221   1.076   0.485 -1.8625  0.4631  0.6674
  776SOL    HW2 3103   1.238   1.046   0.338  0.7953 -0.0631  1.0325
  776SOL     MW 3104   1.187   1.059   0.407 -0.4664  0.1940  0.0755
  777SOL     OW 3105   3.066   5.214   5.492 -0.3666 -0.1068 -0.2895
  777SOL    HW1 3106   3.028   5.286   5.441  0.7510 -0.4486 -1.6896
  777SOL    HW2 3107   3.008   5.139   5.474  0.3739 -0.3860 -1.6286
  777SOL     MW 3108   3.053   5.214   5.483 -0.1287 -0.1863 -0.6401
  778SOL     OW 3109   5.317   0.527   1.686  0.0193  0.9692  0.4060
  778SOL    HW1 3110   5.326   0.517   1.592 -0.3915  1.9343  0.2545
  778SOL    HW2 3111   5.397   0.486   1.722 -1.7673 -3.4936 -0.0234
  778SOL     MW 3112   5.329   0.520   1.679 -0.2620  0.5214  0.3316
  779SOL     OW 3113   2.861   0.297   4.150  0.2381 -0.0147  0.2110
  779SOL    HW1 3114   2.857   0.264   4.060 -0.2782  0.0527  0.2074
  779SOL    HW2 3115   2.910   0.380   4.143  1.4394 -0.7006  0.2041
  779SOL     MW 3116   2.867   0.304   4.138  0.3258 -0.0939  0.2096
  780SOL     OW 3117   0.507   0.463   2.637 -0.5302 -0.0459 -0.3836
  780SOL    HW1 3118   0.547   0.535   2.587  1.0395 -0.0854  0.7273
  780SOL    HW2 3119   0.538   0.477   2.727 -0.4093 -1.9534 -0.0970
  780SOL     MW 3120   0.516   0.474   2.642 -0.3137 -0.2951 -0.2047
  781SOL     OW 3121   1.773   1.705   1.094  0.3488  0.3270 -0.1887
  781SOL    HW1 3122   1.796   1.691   1.185 -1.9671 -0.7656  0.3103
  781SOL    HW2 3123   1.708   1.775   1.096 -0.5064 -0.4207 -0.8609
  781SOL     MW 3124   1.768   1.712   1.106 -0.0572  0.0914 -0.2109
  782SOL     OW 3125   0.427   1.461   2.796 -0.4800 -0.1663 -0.5121
  782SOL    HW1 3126   0.443   1.367   2.784 -1.7301 -0.2194 -2.0264
  782SOL    HW2 3127   0.511   1.502   2.775 -0.2059 -0.8875 -0.8533
  782SOL     MW 3128   0.440   1.454   2.792 -0.6050 -0.2654 -0.7496
  783SOL     OW 3129   4.313   3.778   0.043 -0.0665  0.1526  0.1847
  783SOL    HW1 3130   4.226   3.803   0.013  0.3557 -0.1338 -1.3520
  783SOL    HW2 3131   4.344   3.854   0.092 -0.9273  0.5007  0.2058
  783SOL     MW 3132   4.306   3.791   0.046 -0.1227  0.1605 -0.0093
  784SOL     OW 3133   2.722   3.005   0.633 -0.1908  0.0231  0.4184
  784SOL    HW1 3134   2.734   3.028   0.725 -0.2878 -0.3769  0.5304
  784SOL    HW2 3135   2.642   2.952   0.631  1.3404 -2.4199  0.5224
  784SOL     MW 3136   2.713   3.001   0.644 -0.0072 -0.3408  0.4460
  785SOL     OW 3137   2.361   0.384   0.717  0.2165 -0.1075 -0.0902
  785SOL    HW1 3138   2.340   0.411   0.807  0.8795 -0.7387  0.2676
  785SOL    HW2 3139   2.277   0.374   0.674 -0.1324 -0.4320  0.6548
  785SOL     MW 3140   2.348   0.386   0.723  0.2567 -0.2298  0.0509
  786SOL     OW 3141   2.138   3.081   5.216  0.2146  0.0023 -0.0501
  786SOL    HW1 3142   2.111   3.000   5.174  0.4268  0.5386 -1.2634
  786SOL    HW2 3143   2.080   3.089   5.292  0.5796 -1.5612  0.4414
  786SOL     MW 3144   2.127   3.072   5.220  0.2885 -0.1292 -0.1425
  787SOL     OW 3145   4.081   2.394   3.772 -0.0904  0.6242  0.6421
  787SOL    HW1 3146   4.141   2.469   3.773  0.9260 -0.1359 -0.4899
  787SOL    HW2 3147   4.002   2.427   3.731  0.7448  0.8215 -0.8638
  787SOL     MW 3148   4.079   2.408   3.767  0.1467  0.5522  0.3045
  788SOL     OW 3149   4.500   4.808   0.796 -0.0857 -0.2444  0.2948
  788SOL    HW1 3150   4.561   4.735   0.806 -0.5911 -0.7942 -0.5308
  788SOL    HW2 3151   4.501   4.851   0.882  2.1772  0.3582  0.0207
  788SOL     MW 3152   4.508   4.804   0.809  0.1392 -0.2377  0.1540
  789SOL     OW 3153   0.838   2.689   4.673  0.3824  0.5461 -0.0259
  789SOL    HW1 3154   0.801   2.625   4.734  0.7098  0.1450 -0.2453
  789SOL    HW2 3155   0.788   2.769   4.689  0.4565  0.4459  0.7680
  789SOL     MW 3156   0.827   2.691   4.683  0.4338  0.4819  0.0476
  790SOL     OW 3157   4.484   0.471   2.615 -0.2245 -0.5002  0.2733
  790SOL    HW1 3158   4.529   0.387   2.610 -0.7317 -0.7278 -0.7996
  790SOL    HW2 3159   4.498   0.511   2.530  1.7915  1.4889  1.4247
  790SOL     MW 3160   4.491   0.465   2.604 -0.0313 -0.2747  0.2834
  791SOL     OW 3161   0.363   1.152   2.069 -0.2992 -0.2404  0.3194
  791SOL    HW1 3162   0.285   1.178   2.019  0.1276 -0.7702 -0.6562
  791SOL    HW2 3163   0.331   1.084   2.128 -0.7144  0.0422  0.4288
  791SOL     MW 3164   0.349   1.147   2.070 -0.2977 -0.2720  0.2085
  792SOL     OW 3165   2.814   3.123   3.852 -0.1432  0.0491 -0.0025
  792SOL    HW1 3166   2.881   3.055   3.860 -1.3127 -1.1553 -0.0928
  792SOL    HW2 3167   2.738   3.078   3.816 -1.4921  1.0463  1.4607
  792SOL     MW 3168   2.813   3.109   3.849 -0.4656  0.0226  0.1733
  793SOL     OW 3169   2.797   4.380   4.269 -0.3397  0.3337  0.4167
  793SOL    HW1 3170   2.746   4.347   4.195 -3.1339  0.1141  2.2800
  793SOL    HW2 3171   2.850   4.305   4.297  0.8949  0.4803 -1.3973
  793SOL     MW 3172   2.797   4.366   4.263 -0.5394  0.3243  0.4230
  794SOL     OW 3173   2.636   1.885   2.664 -0.0395 -0.3948  0.3747
  794SOL    HW1 3174   2.566   1.948   2.680  0.6526  0.3187  0.6906
  794SOL    HW2 3175   2.619   1.850   2.576  1.1856  2.4619 -1.1310
  794SOL     MW 3176   2.625   1.888   2.655  0.2059  0.0622  0.2224
  795SOL     OW 3177   4.974   4.015   4.561  0.7356 -0.1805 -0.5558
  795SOL    HW1 3178   4.896   4.045   4.609 -0.0670 -0.3701 -1.7084
  795SOL    HW2 3179   5.005   3.939   4.612 -0.2237 -0.5154 -0.4416
  795SOL     MW 3180   4.968   4.009   4.574  0.5101 -0.2477 -0.6887
  796SOL     OW 3181   3.659   4.569   3.848 -0.1790  0.5220 -0.2620
  796SOL    HW1 3182   3.660   4.502   3.917  1.4437 -0.1643 -0.8979
  796SOL    HW2 3183   3.566   4.585   3.831 -0.6906 -2.6328 -1.0789
  796SOL     MW 3184   3.647   4.562   3.855 -0.0368  0.0303 -0.4480
  797SOL     OW 3185   2.706   5.029   0.793 -0.2328 -0.2242  0.0471
  797SOL    HW1 3186   2.656   5.097   0.748 -0.5648 -0.6308 -0.1972
  797SOL    HW2 3187   2.786   5.020   0.742  0.4557  0.9562  0.8543
  797SOL     MW 3188   2.710   5.037   0.781 -0.1871 -0.1252  0.1192
  798SOL     OW 3189   3.100   3.020   3.743  0.1270  0.1244 -0.1761
  798SOL    HW1 3190   3.098   3.070   3.661 -4.3503  1.5715  0.5402
  798SOL    HW2 3191   3.068   2.933   3.719  0.7805 -0.1018 -0.2471
  798SOL     MW 3192   3.096   3.015   3.729 -0.3625  0.2807 -0.0935
  799SOL     OW 3193   4.552   0.052   4.054  0.0717 -0.0467 -0.1993
  799SOL    HW1 3194   4.609   0.029   3.980  1.0995 -2.7378  1.3034
  799SOL    HW2 3195   4.472   0.084   4.012  1.6376  1.2868 -2.4141
  799SOL     MW 3196   4.549   0.053   4.039  0.4037 -0.2205 -0.2905
  800SOL     OW 3197   2.895   0.932   1.820 -0.2370  0.2583 -0.1931
  800SOL    HW1 3198   2.963   0.891   1.766 -1.9509 -1.7601 -0.9601
  800SOL    HW2 3199   2.937   0.945   1.906  1.4024  0.0605 -0.9279
  800SOL     MW 3200   2.909   0.929   1.824 -0.2465 -0.0254 -0.3854
  801SOL     OW 3201   1.091   3.841   3.351 -0.2569  0.7664 -0.1334
  801SOL    HW1 3202   1.074   3.824   3.258 -1.6391  0.9367  0.0604
  801SOL    HW2 3203   1.163   3.904   3.352  0.2236  0.2541 -1.0578
  801SOL     MW 3204   1.098   3.847   3.339 -0.3723  0.7226 -0.2270
  802SOL     OW 3205   3.622   0.715   2.048 -0.1188  0.3951  0.2000
  802SOL    HW1 3206   3.633   0.624   2.074 -0.3374  0.3515  0.1452
  802SOL    HW2 3207   3.535   0.739   2.082 -0.1595  0.5120  0.0150
  802SOL     MW 3208   3.612   0.707   2.056 -0.1520  0.4045  0.1693
  803SOL     OW 3209   1.683   1.270   1.826  0.4445 -0.6296 -0.5439
  803SOL    HW1 3210   1.661   1.204   1.892  0.2293 -0.8496 -0.8343
  803SOL    HW2 3211   1.600   1.288   1.782  0.6346 -0.6683 -0.9229
  803SOL     MW 3212   1.669   1.264   1.829  0.4413 -0.6627 -0.6296
  804SOL     OW 3213   0.269   5.185   1.145 -0.3316 -0.0829  0.0172
  804SOL    HW1 3214   0.339   5.229   1.095 -0.7737  1.0107  0.3258
  804SOL    HW2 3215   0.215   5.257   1.178  0.1832 -0.7327  2.4547
  804SOL     MW 3216   0.271   5.200   1.143 -0.3223 -0.0260  0.3687
  805SOL     OW 3217   3.613   1.578   1.181 -0.1122 -0.1081  0.0418
  805SOL    HW1 3218   3.586   1.666   1.210  1.4765  0.6577 -0.6872
  805SOL    HW2 3219   3.705   1.571   1.207  1.0011  0.0475 -3.3282
  805SOL     MW 3220   3.621   1.589   1.188  0.2337  0.0099 -0.4829
  806SOL     OW 3221   0.942   0.242   3.852  0.2929 -0.0966 -0.4580
  806SOL    HW1 3222   0.932   0.320   3.798  0.2737 -0.2806 -0.7234
  806SOL    HW2 3223   1.007   0.189   3.805  0.6418 -0.0401 -0.0510
  806SOL     MW 3224   0.949   0.245   3.839  0.3351 -0.1129 -0.4399
  807SOL     OW 3225   0.929   1.939   1.914  0.3771  0.1810  0.7608
  807SOL    HW1 3226   0.995   1.912   1.978  0.6987 -1.7303 -0.2972
  807SOL    HW2 3227   0.852   1.961   1.966  0.8201 -0.7803  1.8660
  807SOL     MW 3228   0.927   1.938   1.929  0.4750 -0.1868  0.7669
  808SOL     OW 3229   0.485   4.116   3.417 -0.0615  0.3102  0.0931
  808SOL    HW1 3230   0.517   4.200   3.383 -1.0651  1.3376  1.5717
  808SOL    HW2 3231   0.539   4.051   3.372  1.2704  1.7636 -0.5444
  808SOL     MW 3232   0.496   4.119   3.407 -0.0194  0.6277  0.2008
  809SOL     OW 3233   2.379   3.820   5.145 -0.3314 -0.0325  0.1183
  809SOL    HW1 3234   2.362   3.778   5.061  0.3946 -0.0633 -0.0269
  809SOL    HW2 3235   2.349   3.756   5.210  1.8791 -1.3824 -0.0702
  809SOL     MW 3236   2.373   3.806   5.143  0.0445 -0.2092  0.0756
  810SOL     OW 3237   1.397   2.562   4.406 -0.6656  0.4313 -0.0103
  810SOL    HW1 3238   1.391   2.649   4.369 -1.4479  0.0824 -0.7135
  810SOL    HW2 3239   1.354   2.505   4.343 -0.3069 -0.4479  0.5129
  810SOL     MW 3240   1.391   2.566   4.393 -0.7199  0.2741 -0.0333
  811SOL     OW 3241   2.517   1.101   3.360 -0.4397  0.3564 -0.5595
  811SOL    HW1 3242   2.557   1.046   3.427 -0.3904  1.8088  0.6511
  811SOL    HW2 3243   2.514   1.189   3.399 -0.3645  1.2626 -2.4685
  811SOL     MW 3244   2.522   1.106   3.373 -0.4238  0.6583 -0.6489
  812SOL     OW 3245   5.305   1.388   0.397 -0.0751 -0.5663  0.3538
  812SOL    HW1 3246   5.352   1.359   0.476 -0.7117  0.0148  0.9593
  812SOL    HW2 3247   5.245   1.456   0.429 -1.3038 -1.2647 -0.4119
  812SOL     MW 3248   5.304   1.393   0.411 -0.3139 -0.5813  0.3333
  813SOL     OW 3249   0.049   4.076   2.359 -0.0710 -0.1153  0.0083
  813SOL    HW1 3250   0.142   4.093   2.346 -0.1563  0.7642  0.4693
  813SOL    HW2 3251   0.029   4.005   2.298  1.1284 -1.0395  0.6259
  813SOL     MW 3252   0.058   4.069   2.350  0.0716 -0.1210  0.1464
  814SOL     OW 3253   3.253   0.432   4.027  0.1616  0.6965  0.0164
  814SOL    HW1 3254   3.338   0.474   4.043  0.1846  0.2689  1.0792
  814SOL    HW2 3255   3.274   0.347   3.988  0.1381  1.3552 -1.4948
  814SOL     MW 3256   3.266   0.427   4.024  0.1615  0.7261 -0.0410
  815SOL     OW 3257   1.176   0.727   1.212 -0.2388 -0.2483 -0.2128
  815SOL    HW1 3258   1.242   0.786   1.250  0.4156 -1.6549  0.8922
  815SOL    HW2 3259   1.201   0.720   1.120 -1.0812  2.1690 -0.7137
  815SOL     MW 3260   1.188   0.734   1.205 -0.2629 -0.1189 -0.1354
  816SOL     OW 3261   4.671   0.010   0.686 -0.4466  0.0993  0.2273
  816SOL    HW1 3262   4.669  -0.079   0.650 -1.8111 -0.0735  0.6672
  816SOL    HW2 3263   4.698   0.065   0.613  0.4982 -0.6781 -0.0318
  816SOL     MW 3264   4.674   0.006   0.672 -0.5003 -0.0223  0.2505
  817SOL     OW 3265   0.796   1.611   0.846  0.2186  0.1144  0.4329
  817SOL    HW1 3266   0.721   1.649   0.800  1.3846  1.1137 -0.6988
  817SOL    HW2 3267   0.848   1.686   0.874  1.0422 -0.5703  0.7792
  817SOL     MW 3268   0.793   1.625   0.844  0.4733  0.1547  0.3324
  818SOL     OW 3269   0.760   4.174   1.215  0.1477  0.6030  0.2215
  818SOL    HW1 3270   0.762   4.116   1.139 -1.0471  0.5432  0.2057
  818SOL    HW2 3271   0.785   4.259   1.181  0.2741  0.4347 -0.1085
  818SOL     MW 3272   0.763   4.177   1.201  0.0109  0.5738  0.1773
  819SOL     OW 3273   1.878   4.033   1.799 -0.2565  0.0133  0.1083
  819SOL    HW1 3274   1.823   4.014   1.723  0.1455 -0.3985 -0.0787
  819SOL    HW2 3275   1.820   4.082   1.858 -0.9833 -0.8266  0.1248
  819SOL     MW 3276   1.863   4.037   1.797 -0.2981 -0.1470  0.0865
  820SOL     OW 3277   2.185   1.618   4.373 -0.1057  0.0230  0.1010
  820SOL    HW1 3278   2.131   1.642   4.297  1.4699 -2.0634 -1.8283
  820SOL    HW2 3279   2.141   1.542   4.410  0.6639 -0.7931 -0.6008
  820SOL     MW 3280   2.172   1.612   4.368  0.1945 -0.3485 -0.2358
  821SOL     OW 3281   2.748   0.032   5.354  0.1787 -0.4003 -0.3525
  821SOL    HW1 3282   2.720   0.015   5.444  1.1301  2.9755  0.7400
  821SOL    HW2 3283   2.691   0.104   5.325  0.7031 -0.6179 -2.0095
  821SOL     MW 3284   2.737   0.039   5.362  0.3676  0.0040 -0.4248
  822SOL     OW 3285   1.411   4.275   1.473 -0.2929 -0.5494  0.1712
  822SOL    HW1 3286   1.490   4.313   1.435 -1.4041  0.0695 -1.6961
  822SOL    HW2 3287   1.441   4.227   1.549  2.0823 -1.5457 -1.2864
  822SOL     MW 3288   1.425   4.274   1.478 -0.1311 -0.5978 -0.2545
  823SOL     OW 3289   5.400   3.774   5.225 -0.0154 -0.0022  0.5498
  823SOL    HW1 3290   5.367   3.855   5.185 -3.2669 -1.3257  0.2638
  823SOL    HW2 3291   5.376   3.782   5.317 -1.4795 -1.0851  0.2969
  823SOL     MW 3292   5.392   3.786   5.231 -0.6191 -0.3102  0.4808
  824SOL     OW 3293   4.083   2.229   1.059 -0.4922 -0.6118 -0.0569
  824SOL    HW1 3294   3.994   2.257   1.082 -0.2047 -1.7856  2.8932
  824SOL    HW2 3295   4.078   2.134   1.057  0.5372 -0.6624 -0.7094
  824SOL     MW 3296   4.071   2.221   1.061 -0.3236 -0.7685  0.2373
  825SOL     OW 3297   3.971   3.434   2.964  0.3761  0.0937 -0.8553
  825SOL    HW1 3298   3.965   3.483   3.046 -0.3643  0.6965 -1.2600
  825SOL    HW2 3299   3.987   3.501   2.897 -0.6129 -0.2036 -1.4076
  825SOL     MW 3300   3.972   3.449   2.966  0.1547  0.1328 -0.9778
  826SOL     OW 3301   0.223   2.132   0.176  0.6427 -0.5461  0.3215
  826SOL    HW1 3302   0.155   2.066   0.163 -0.8345  0.5621  1.7911
  826SOL    HW2 3303   0.244   2.126   0.269  0.6172  0.8510  0.4506
  826SOL     MW 3304   0.217   2.123   0.187  0.4503 -0.2254  0.5262
  827SOL     OW 3305   5.014   0.897   0.963 -0.1971  0.1141  0.1819
  827SOL    HW1 3306   5.096   0.940   0.989 -0.2831 -0.1888  0.9855
  827SOL    HW2 3307   5.004   0.826   1.027 -1.4769  0.6096  0.5494
  827SOL     MW 3308   5.023   0.893   0.975 -0.3719  0.1388  0.3318
  828SOL     OW 3309   4.676   4.071   3.894  0.5906  0.3106  0.0324
  828SOL    HW1 3310   4.709   4.144   3.945 -0.4377  0.8291 -0.0045
  828SOL    HW2 3311   4.712   3.993   3.937  0.7050  0.7891  0.8321
  828SOL     MW 3312   4.685   4.070   3.906  0.4736  0.4382  0.1300
  829SOL     OW 3313   2.439   3.242   2.263 -0.1356 -0.6458  0.4844
  829SOL    HW1 3314   2.509   3.227   2.327  0.6321 -1.3964 -0.4910
  829SOL    HW2 3315   2.461   3.183   2.191 -0.3711  0.9493 -0.9364
  829SOL     MW 3316   2.451   3.232   2.262 -0.0674 -0.5377  0.1776
  830SOL     OW 3317   0.147   1.080   2.328  0.1037 -0.2141  0.5612
  830SOL    HW1 3318   0.190   1.163   2.349  0.7970  0.1427 -1.9734
  830SOL    HW2 3319   0.219   1.017   2.318 -0.2297 -0.5276  0.0637
  830SOL     MW 3320   0.161   1.082   2.329  0.1498 -0.2086  0.1731
  831SOL     OW 3321   5.459   2.958   2.244  0.1951  0.0051  0.6051
  831SOL    HW1 3322   5.430   2.867   2.242  0.2617 -0.0275  1.0433
  831SOL    HW2 3323   5.454   2.983   2.336  1.4001  0.0397  0.6758
  831SOL     MW 3324   5.455   2.950   2.256  0.3579  0.0054  0.6702
  832SOL     OW 3325   5.314   1.194   5.254 -0.7201  0.1150 -0.2618
  832SOL    HW1 3326   5.279   1.225   5.171  0.0398 -0.8836 -0.9815
  832SOL    HW2 3327   5.258   1.120   5.278 -1.1132  0.5756  0.2748
  832SOL     MW 3328   5.302   1.189   5.247 -0.6732  0.0461 -0.2852
  833SOL     OW 3329   1.997   2.404   2.733 -0.3300  0.3102  0.0728
  833SOL    HW1 3330   2.032   2.317   2.714 -0.3392 -0.3065  2.4817
  833SOL    HW2 3331   2.071   2.451   2.772 -0.9955  0.4632  1.1972
  833SOL     MW 3332   2.011   2.399   2.736 -0.4164  0.2509  0.5251
  834SOL     OW 3333   2.639   2.122   2.179  0.3016 -0.1148  0.7075
  834SOL    HW1 3334   2.584   2.176   2.122  2.7699 -1.0775 -2.9231
  834SOL    HW2 3335   2.672   2.183   2.244  0.4549  2.0972 -1.2994
  834SOL     MW 3336   2.636   2.137   2.180  0.6372  0.0451 -0.0142
  835SOL     OW 3337   2.634   4.382   5.057 -0.2736 -0.4718 -0.0569
  835SOL    HW1 3338   2.685   4.368   5.137  1.6159  3.2500 -0.4019
  835SOL    HW2 3339   2.564   4.441   5.084  0.9915  1.6608 -1.2464
  835SOL     MW 3340   2.631   4.387   5.071  0.1303  0.2777 -0.2533
  836SOL     OW 3341   3.847   2.348   1.083  0.4082 -0.1853  0.0137
  836SOL    HW1 3342   3.899   2.423   1.113  0.3038 -0.4193  0.8185
  836SOL    HW2 3343   3.811   2.310   1.164 -1.9263  0.6119 -0.5737
  836SOL     MW 3344   3.849   2.353   1.097  0.0960 -0.1132  0.0415
  837SOL     OW 3345   1.802   2.939   5.124  0.1225 -0.3469 -0.5755
  837SOL    HW1 3346   1.730   2.927   5.063  0.9071 -1.4300 -1.3414
  837SOL    HW2 3347   1.880   2.943   5.069  0.5895  2.0357  0.1408
  837SOL     MW 3348   1.803   2.938   5.109  0.2827 -0.1805 -0.5818
  838SOL     OW 3349   3.626   0.460   2.152  0.4054  0.2087 -0.3759
  838SOL    HW1 3350   3.713   0.432   2.123  1.0225 -0.2603  1.8141
  838SOL    HW2 3351   3.566   0.398   2.110  0.8945  1.5294 -3.2620
  838SOL     MW 3352   3.630   0.449   2.143  0.5470  0.3177 -0.4650
  839SOL     OW 3353   2.017   2.689   1.692  0.5695 -0.5824  0.2357
  839SOL    HW1 3354   2.068   2.624   1.739  1.4547 -0.7076 -0.8555
  839SOL    HW2 3355   2.067   2.707   1.613 -1.1158 -0.7711 -0.9400
  839SOL     MW 3356   2.030   2.683   1.688  0.4671 -0.6226 -0.0545
  840SOL     OW 3357   3.530   1.888   2.001  0.0101  0.0637 -0.2563
  840SOL    HW1 3358   3.593   1.827   2.037  0.0202  0.1850 -0.0647
  840SOL    HW2 3359   3.484   1.923   2.078  0.5663  0.9092 -0.3012
  840SOL     MW 3360   3.532   1.885   2.015  0.0826  0.1875 -0.2375
  841SOL     OW 3361   2.198   3.742   4.939  0.5677 -0.0025 -0.3835
  841SOL    HW1 3362   2.128   3.791   4.983  0.0958 -1.0298  0.0313
  841SOL    HW2 3363   2.189   3.765   4.847  0.6206  1.0141 -0.1495
  841SOL     MW 3364   2.188   3.751   4.933  0.5141 -0.0039 -0.3005
  842SOL     OW 3365   5.003   2.235   4.905 -0.1072 -0.5821  0.0461
  842SOL    HW1 3366   5.011   2.300   4.975 -0.6963 -1.3571  0.8498
  842SOL    HW2 3367   4.978   2.285   4.828  0.4007  0.2657  0.4225
  842SOL     MW 3368   5.001   2.249   4.904 -0.1176 -0.5728  0.1971
  843SOL     OW 3369   3.425   3.756   3.228 -0.1815 -0.7079  0.1369
  843SOL    HW1 3370   3.369   3.828   3.198 -0.3780  0.3149  2.6811
  843SOL    HW2 3371   3.371   3.708   3.291  0.4175 -2.3272 -0.5163
  843SOL     MW 3372   3.411   3.759   3.232 -0.1299 -0.7843  0.3790
  844SOL     OW 3373   3.134   4.948   3.715  0.5010  0.0647  0.2674
  844SOL    HW1 3374   3.226   4.956   3.688  0.8117 -1.8054  0.6769
  844SOL    HW2 3375   3.137   4.925   3.807 -0.4202  0.7254  0.4786
  844SOL     MW 3376   3.146   4.946   3.723  0.4228 -0.0901  0.3469
  845SOL     OW 3377   1.711   2.498   1.276 -0.4536 -0.2599 -0.1494
  845SOL    HW1 3378   1.778   2.431   1.287  0.9907  0.9357 -1.2156
  845SOL    HW2 3379   1.752   2.564   1.219 -2.4099  0.7024 -0.5317
  845SOL     MW 3380   1.725   2.498   1.270 -0.5191  0.0163 -0.3348
  846SOL     OW 3381   2.256   4.465   3.051 -0.2724 -0.3715  0.1723
  846SOL    HW1 3382   2.324   4.398   3.061  0.4140  0.1792 -0.6730
  846SOL    HW2 3383   2.225   4.482   3.141  1.5326  0.2029  0.7288
  846SOL     MW 3384   2.260   4.459   3.064  0.0466 -0.2275  0.1353
  847SOL     OW 3385   3.304   4.354   0.856  0.1222  0.1323 -0.0032
  847SOL    HW1 3386   3.252   4.418   0.904  1.0956  1.3480 -0.5412
  847SOL    HW2 3387   3.347   4.403   0.787 -0.9969 -1.5187 -1.9852
  847SOL     MW 3388   3.303   4.368   0.853  0.1035  0.0766 -0.3258
  848SOL     OW 3389   1.951   5.474   0.741 -0.2755 -0.0166  0.9192
  848SOL    HW1 3390   2.042   5.466   0.712 -1.0275  0.6338 -1.8603
  848SOL    HW2 3391   1.957   5.472   0.837  2.4720 -1.6985  0.8210
  848SOL     MW 3392   1.963   5.473   0.750 -0.0200 -0.1487  0.5508
  849SOL     OW 3393   0.078   4.025   1.033  0.4781 -0.4197 -0.1922
  849SOL    HW1 3394   0.052   3.985   0.950  0.7609 -0.3411 -0.3195
  849SOL    HW2 3395   0.119   4.108   1.008 -1.1202  0.5031  0.1232
  849SOL     MW 3396   0.080   4.031   1.019  0.3097 -0.2915 -0.1681
  850SOL     OW 3397   0.163   3.661   0.085 -0.2999  0.6064 -0.3394
  850SOL    HW1 3398   0.249   3.625   0.101 -0.3051  1.1124  0.9432
  850SOL    HW2 3399   0.104   3.585   0.086  0.0988  0.2744 -1.1156
  850SOL     MW 3400   0.166   3.647   0.087 -0.2495  0.6287 -0.2746
  851SOL     OW 3401   1.655   1.549   3.125 -0.0175  0.2818 -0.2968
  851SOL    HW1 3402   1.661   1.606   3.049 -0.6407  0.1548 -0.4470
  851SOL    HW2 3403   1.726   1.577   3.183  2.4591 -1.5788 -2.2437
  851SOL     MW 3404   1.665   1.560   3.123  0.2198  0.0274 -0.5653
  852SOL     OW 3405   3.399   3.170   5.324  0.7247 -1.0782  0.4981
  852SOL    HW1 3406   3.373   3.208   5.408  0.2787 -0.0862 -0.0597
  852SOL    HW2 3407   3.446   3.241   5.280 -1.3684 -0.6267 -1.1732
  852SOL     MW 3408   3.401   3.184   5.329  0.3997 -0.8935  0.2127
  853SOL     OW 3409   0.380   4.340   5.420 -0.0239  0.5831 -0.2501
  853SOL    HW1 3410   0.471   4.370   5.414 -0.6677  2.7321 -0.3934
  853SOL    HW2 3411   0.357   4.350   5.513  0.1361 -0.8423 -0.0397
  853SOL     MW 3412   0.389   4.345   5.431 -0.0858  0.6758 -0.2415
  854SOL     OW 3413   0.768   1.160   5.209  0.1121  0.9188 -0.1667
  854SOL    HW1 3414   0.676   1.142   5.190  0.1249  0.1572  0.4650
  854SOL    HW2 3415   0.767   1.235   5.268 -0.3028 -0.9841  2.3932
  854SOL     MW 3416   0.756   1.168   5.214  0.0607  0.5777  0.2419
  855SOL     OW 3417   0.202   3.763   3.888  0.1441  0.0391 -0.1868
  855SOL    HW1 3418   0.148   3.826   3.935 -1.1517 -2.5692  2.1301
  855SOL    HW2 3419   0.181   3.778   3.795 -0.4575  2.5890  0.2977
  855SOL     MW 3420   0.192   3.773   3.882 -0.0988  0.0316  0.1718
  856SOL     OW 3421   1.536   2.998   5.251  0.3717 -0.6742 -0.2152
  856SOL    HW1 3422   1.502   3.084   5.276 -3.5899 -2.1573  0.2909
  856SOL    HW2 3423   1.593   2.974   5.323  0.7071  1.0675  0.1559
  856SOL     MW 3424   1.539   3.006   5.263 -0.0925 -0.6411 -0.1029
  857SOL     OW 3425   3.616   3.188   0.871  0.0489  0.0451  0.7019
  857SOL    HW1 3426   3.569   3.169   0.952 -0.3011  0.5667  0.6235
  857SOL    HW2 3427   3.707   3.164   0.890 -0.1933 -0.7160  0.9380
  857SOL     MW 3428   3.622   3.182   0.884 -0.0269  0.0144  0.7221
  858SOL     OW 3429   2.362   5.230   2.492  0.1722  0.3881  0.1783
  858SOL    HW1 3430   2.456   5.222   2.475  0.4556  0.7303  1.5010
  858SOL    HW2 3431   2.340   5.150   2.539 -0.3254  0.0458 -0.6296
  858SOL     MW 3432   2.371   5.219   2.496  0.1448  0.3881  0.2442
  859SOL     OW 3433   0.870   2.264   4.744  0.1779 -0.3952  0.0813
  859SOL    HW1 3434   0.934   2.218   4.798 -0.4973 -2.1967 -0.5858
  859SOL    HW2 3435   0.843   2.200   4.678  1.6739  1.9845 -3.0864
  859SOL     MW 3436   0.875   2.250   4.743  0.2830 -0.3212 -0.4096
  860SOL     OW 3437   1.408   0.705   2.108  0.3540 -0.0524 -0.0903
  860SOL    HW1 3438   1.372   0.740   2.189 -0.3139 -0.7509 -0.0670
  860SOL    HW2 3439   1.447   0.621   2.133 -1.4169 -1.1457 -0.7379
  860SOL     MW 3440   1.408   0.699   2.121  0.0418 -0.2818 -0.1702
  861SOL     OW 3441   5.047   0.611   3.563 -0.1651 -0.0375  0.4396
  861SOL    HW1 3442   5.041   0.533   3.508 -0.3265 -0.9765  1.7425
  861SOL    HW2 3443   4.969   0.607   3.619 -0.2358  1.1254  0.4590
  861SOL     MW 3444   5.036   0.601   3.563 -0.1948 -0.0089  0.6089
  862SOL     OW 3445   5.477   1.835   2.252  0.1923 -0.1704  0.1101
  862SOL    HW1 3446   5.434   1.801   2.331 -1.6144  0.3124 -0.5978
  862SOL    HW2 3447   5.529   1.909   2.282 -0.8482  0.2969  0.7987
  862SOL     MW 3448   5.478   1.840   2.266 -0.1721 -0.0488  0.1076
  863SOL     OW 3449   5.258   0.147   0.768 -0.1551  0.5550 -0.1947
  863SOL    HW1 3450   5.224   0.131   0.856 -3.1942 -0.7281 -1.4605
  863SOL    HW2 3451   5.315   0.071   0.750  1.2738  1.3041  0.9269
  863SOL     MW 3452   5.261   0.135   0.777 -0.3612  0.4867 -0.2132
  864SOL     OW 3453   3.843   0.082   2.115  0.1007 -0.8019  0.2692
  864SOL    HW1 3454   3.889   0.075   2.199 -0.5568 -1.5161  0.5846
  864SOL    HW2 3455   3.853  -0.004   2.075  0.4627 -0.4489 -0.4299
  864SOL     MW 3456   3.850   0.070   2.121  0.0628 -0.8481  0.2201
  865SOL     OW 3457   5.445   4.382   3.699  0.6323  0.1070  0.1796
  865SOL    HW1 3458   5.435   4.427   3.783 -1.5951 -0.1379  0.0962
  865SOL    HW2 3459   5.478   4.450   3.640 -1.9136  1.5072  0.2418
  865SOL     MW 3460   5.448   4.397   3.702  0.0212  0.2549  0.1769
  866SOL     OW 3461   1.049   2.791   4.370 -0.5172 -0.0891  0.2770
  866SOL    HW1 3462   1.140   2.809   4.349 -0.4991  0.3961  0.7530
  866SOL    HW2 3463   0.999   2.858   4.322 -0.6932 -0.9069 -0.7103
  866SOL     MW 3464   1.054   2.802   4.361 -0.5374 -0.1317  0.2115
  867SOL     OW 3465   0.657   1.713   5.231 -0.1734  0.0392  0.4787
  867SOL    HW1 3466   0.573   1.673   5.253 -0.4479  1.6724  2.8122
  867SOL    HW2 3467   0.635   1.789   5.178 -0.0701 -0.0419  0.3169
  867SOL     MW 3468   0.643   1.718   5.227 -0.1953  0.2379  0.7567
  868SOL     OW 3469   2.267   4.911   4.754 -0.4248 -0.6013 -0.0332
  868SOL    HW1 3470   2.251   4.981   4.691  0.4267 -0.0252  0.3691
  868SOL    HW2 3471   2.295   4.837   4.701 -0.5573 -0.3924 -0.3969
  868SOL     MW 3472   2.268   4.910   4.739 -0.3327 -0.5008 -0.0283
  869SOL     OW 3473   3.734   0.440   0.312  0.1738 -0.0915  0.2703
  869SOL    HW1 3474   3.676   0.374   0.351 -1.1890  1.0016  0.1396
  869SOL    HW2 3475   3.783   0.475   0.386  0.2543 -0.5976  0.4646
  869SOL     MW 3476   3.733   0.436   0.327  0.0096 -0.0163  0.2785
  870SOL     OW 3477   4.497   3.067   2.786  0.2036  0.0448  0.8022
  870SOL    HW1 3478   4.449   3.044   2.866  2.8712  0.2410  2.5670
  870SOL    HW2 3479   4.534   2.984   2.756 -1.4662 -0.1877 -0.8133
  870SOL     MW 3480   4.495   3.053   2.793  0.3313  0.0401  0.8213
  871SOL     OW 3481   0.414   0.919   1.202  0.1161 -0.2494 -0.3849
  871SOL    HW1 3482   0.373   0.843   1.244  0.3650 -1.1058 -1.6197
  871SOL    HW2 3483   0.503   0.921   1.238  0.3547 -1.0214 -0.9101
  871SOL     MW 3484   0.420   0.910   1.212  0.1785 -0.4578 -0.6102
  872SOL     OW 3485   1.772   0.147   0.270 -0.0516 -0.2598  0.0709
  872SOL    HW1 3486   1.722   0.213   0.319 -1.4282 -0.9749 -0.3189
  872SOL    HW2 3487   1.825   0.102   0.336  0.4484  0.8207  0.4257
  872SOL     MW 3488   1.772   0.150   0.285 -0.1638 -0.2130  0.0664
  873SOL     OW 3489   0.108   5.027   5.146 -0.2270  0.6891 -0.0822
  873SOL    HW1 3490   0.136   4.944   5.184 -0.3509  0.0414 -1.3418
  873SOL    HW2 3491   0.187   5.061   5.103  0.2670  2.0537  1.7641
  873SOL     MW 3492   0.122   5.021   5.145 -0.1796  0.7809 -0.0071
  874SOL     OW 3493   2.843   4.482   0.108 -0.0803 -0.1365 -0.2694
  874SOL    HW1 3494   2.937   4.467   0.109  0.1153  0.9072  2.0293
  874SOL    HW2 3495   2.812   4.433   0.031  1.9839 -2.5073  0.2830
  874SOL     MW 3496   2.851   4.474   0.098  0.2090 -0.3064  0.0956
  875SOL     OW 3497   1.725   2.880   4.384 -0.0412 -0.2566  0.1921
  875SOL    HW1 3498   1.702   2.809   4.324 -1.1960 -0.9279  1.3665
  875SOL    HW2 3499   1.656   2.946   4.370  0.3974  0.1432 -0.1035
  875SOL     MW 3500   1.713   2.880   4.375 -0.1329 -0.2914  0.3046
  876SOL     OW 3501   5.388   2.723   2.881 -0.4116 -0.0795  0.2547
  876SOL    HW1 3502   5.460   2.669   2.915 -0.6532 -0.0752  0.7797
  876SOL    HW2 3503   5.311   2.667   2.888 -0.3358 -0.3797 -1.0720
  876SOL     MW 3504   5.388   2.709   2.887 -0.4328 -0.1174  0.1520
  877SOL     OW 3505   1.338   0.523   2.902 -0.5461  0.3761  0.3224
  877SOL    HW1 3506   1.354   0.482   2.817  0.4421  2.2192 -0.4604
  877SOL    HW2 3507   1.423   0.518   2.947 -0.6019  0.9091  0.4927
  877SOL     MW 3508   1.351   0.517   2.897 -0.4268  0.6803  0.2440
  878SOL     OW 3509   4.281   4.086   2.412  0.0947  0.1741  0.3447
  878SOL    HW1 3510   4.218   4.158   2.422 -1.4236 -1.2392  1.5180
  878SOL    HW2 3511   4.228   4.007   2.423  1.9095 -1.1070  0.1992
  878SOL     MW 3512   4.266   4.085   2.414  0.1326 -0.1708  0.4763
  879SOL     OW 3513   1.502   4.431   0.376  0.3940 -0.4467  0.5584
  879SOL    HW1 3514   1.469   4.470   0.457  0.1826  0.9208 -0.1586
  879SOL    HW2 3515   1.590   4.467   0.365  0.1667 -0.0890 -0.1538
  879SOL     MW 3516   1.509   4.441   0.385  0.3379 -0.2258  0.3755
  880SOL     OW 3517   0.627   2.954   5.170  0.0144  0.3820  0.4817
  880SOL    HW1 3518   0.659   2.906   5.094  0.9742  1.2812  0.2970
  880SOL    HW2 3519   0.693   2.939   5.238  0.3863  1.5083  0.3874
  880SOL     MW 3520   0.640   2.946   5.169  0.1849  0.6413  0.4460
  881SOL     OW 3521   4.530   3.163   0.923 -0.3505 -0.2680  0.0768
  881SOL    HW1 3522   4.541   3.193   0.833  1.6926  0.9146  0.6607
  881SOL    HW2 3523   4.590   3.089   0.931  0.1826  0.2187  0.7014
  881SOL     MW 3524   4.539   3.157   0.912 -0.0207 -0.0543  0.2315
  882SOL     OW 3525   4.243   1.816   1.580 -0.3551 -0.2212 -0.0905
  882SOL    HW1 3526   4.195   1.747   1.625 -0.2861 -0.4510 -0.3634
  882SOL    HW2 3527   4.203   1.820   1.493  0.0843 -0.3894 -0.3058
  882SOL     MW 3528   4.232   1.807   1.574 -0.2900 -0.2721 -0.1530
  883SOL     OW 3529   5.253   0.958   1.458  0.1130 -0.3817  0.1808
  883SOL    HW1 3530   5.343   0.965   1.426 -0.3405 -1.0238 -1.3309
  883SOL    HW2 3531   5.248   0.872   1.500 -0.0211 -0.7602 -0.5837
  883SOL     MW 3532   5.264   0.948   1.459  0.0378 -0.5124 -0.1106
  884SOL     OW 3533   3.036   3.409   3.786 -0.3641  0.1236  0.1503
  884SOL    HW1 3534   2.954   3.394   3.833 -0.1089 -1.9807  0.0456
  884SOL    HW2 3535   3.094   3.448   3.852 -0.9821  0.1935  0.6634
  884SOL     MW 3536   3.033   3.412   3.801 -0.4105 -0.1368  0.2026
  885SOL     OW 3537   5.286   1.019   0.954 -0.2076 -0.2277 -0.2571
  885SOL    HW1 3538   5.314   0.999   0.865 -0.5549 -3.8138  0.2868
  885SOL    HW2 3539   5.351   1.082   0.986 -0.6445  1.9797 -3.2597
  885SOL     MW 3540   5.298   1.024   0.947 -0.3080 -0.4042 -0.5718
  886SOL     OW 3541   4.681   0.933   5.418 -0.1591  0.1489 -0.2704
  886SOL    HW1 3542   4.593   0.908   5.443 -0.4534  2.6168  1.6115
  886SOL    HW2 3543   4.688   0.909   5.326 -2.6942 -0.3567 -0.4031
  886SOL     MW 3544   4.671   0.927   5.410 -0.5213  0.4001 -0.0465
  887SOL     OW 3545   1.028   3.814   1.869  0.4096 -0.3230  0.1552
  887SOL    HW1 3546   1.034   3.863   1.951  0.3975  2.0325 -1.1780
  887SOL    HW2 3547   1.118   3.803   1.841  0.3662 -0.1590 -0.0520
  887SOL     MW 3548   1.040   3.819   1.876  0.4025 -0.0005 -0.0420
  888SOL     OW 3549   3.283   2.456   0.063  0.2884 -0.7979 -0.1503
  888SOL    HW1 3550   3.307   2.544   0.091 -0.5851 -0.0438 -1.6184
  888SOL    HW2 3551   3.361   2.403   0.079  1.8425  0.8497 -1.7611
  888SOL     MW 3552   3.296   2.460   0.069  0.3755 -0.4904 -0.5445
  889SOL     OW 3553   0.639   4.640   0.057 -0.0673  0.1909  0.1206
  889SOL    HW1 3554   0.672   4.564   0.008  0.8106  0.1314  0.7970
  889SOL    HW2 3555   0.561   4.607   0.102  1.7451 -1.1152  2.5478
  889SOL     MW 3556   0.633   4.626   0.056  0.2771  0.0161  0.5179
  890SOL     OW 3557   3.459   4.376   5.051  0.4318 -0.4923  0.0387
  890SOL    HW1 3558   3.423   4.394   5.138  0.8132  0.8167 -0.0516
  890SOL    HW2 3559   3.395   4.319   5.009 -0.5464  0.1826  0.5929
  890SOL     MW 3560   3.446   4.371   5.057  0.3554 -0.2384  0.0981
  891SOL     OW 3561   4.786   2.269   2.033  0.0204 -0.4788 -0.3397
  891SOL    HW1 3562   4.853   2.319   2.081  0.3019 -0.3551 -0.8529
  891SOL    HW2 3563   4.834   2.199   1.990 -0.1991 -0.4781 -0.5928
  891SOL     MW 3564   4.801   2.267   2.033  0.0284 -0.4629 -0.4378
  892SOL     OW 3565   4.513   3.912   3.769 -0.0867 -0.6296  0.3645
  892SOL    HW1 3566   4.565   3.976   3.816  0.5105 -0.9956  0.2165
  892SOL    HW2 3567   4.577   3.857   3.724 -0.5374 -1.9337  1.2600
  892SOL     MW 3568   4.528   3.913   3.769 -0.0679 -0.8434  0.4602
  893SOL     OW 3569   1.477   3.824   4.935 -0.0166 -0.7223  0.2156
  893SOL    HW1 3570   1.409   3.887   4.909  0.7621  0.0161 -0.1119
  893SOL    HW2 3571   1.478   3.759   4.865 -0.3012 -0.6659  0.1583
  893SOL     MW 3572   1.468   3.824   4.923  0.0467 -0.6205  0.1663
  894SOL     OW 3573   0.204   0.157   2.924  0.0230  0.3825  0.0712
  894SOL    HW1 3574   0.282   0.212   2.917  0.8495 -0.6235  0.9519
  894SOL    HW2 3575   0.238   0.071   2.947 -1.3345 -0.1766  0.0674
  894SOL     MW 3576   0.218   0.153   2.926 -0.0450  0.1821  0.1835
  895SOL     OW 3577   1.990   0.385   1.173  0.3683  0.1162  0.7101
  895SOL    HW1 3578   1.947   0.406   1.256  0.7280 -0.7747  1.1390
  895SOL    HW2 3579   1.947   0.305   1.144  2.1359 -1.1685  1.4817
  895SOL     MW 3580   1.979   0.377   1.180  0.6406 -0.1623  0.8638
  896SOL     OW 3581   2.103   2.032   0.664 -0.1693  0.0297 -0.1146
  896SOL    HW1 3582   2.032   2.025   0.727 -0.6192  0.0646 -0.6065
  896SOL    HW2 3583   2.179   2.061   0.715 -1.0757  2.3238  0.0518
  896SOL     MW 3584   2.104   2.035   0.678 -0.3429  0.3278 -0.1563
  897SOL     OW 3585   4.811   2.426   3.997  0.2997 -0.2361  0.0623
  897SOL    HW1 3586   4.795   2.333   3.982 -0.4628  0.3233 -3.1825
  897SOL    HW2 3587   4.884   2.448   3.939  0.4745  1.2214  0.7829
  897SOL     MW 3588   4.818   2.417   3.988  0.2244  0.0221 -0.2608
  898SOL     OW 3589   1.193   0.223   2.970  0.3449 -0.0400 -0.3233
  898SOL    HW1 3590   1.240   0.304   2.949  0.8235 -0.0653  0.6197
  898SOL    HW2 3591   1.153   0.197   2.887 -0.5179  1.6074 -0.4569
  898SOL     MW 3592   1.194   0.230   2.956  0.2957  0.1677 -0.2197
  899SOL     OW 3593   4.845   0.342   4.052 -0.1596 -0.5114 -0.5636
  899SOL    HW1 3594   4.925   0.360   4.100 -0.4417 -0.1216 -0.2302
  899SOL    HW2 3595   4.788   0.299   4.116  0.0316 -1.4312 -0.9887
  899SOL     MW 3596   4.848   0.339   4.067 -0.1712 -0.5793 -0.5753
  900SOL     OW 3597   4.450   3.024   3.574  0.1168 -0.4275  0.6605
  900SOL    HW1 3598   4.415   3.099   3.527  2.4525 -0.5965 -1.5870
  900SOL    HW2 3599   4.544   3.040   3.579  0.5728 -2.7326  0.9393
  900SOL     MW 3600   4.458   3.035   3.569  0.4741 -0.7442  0.4085
  901SOL     OW 3601   5.220   2.378   4.652 -0.5102 -0.0250 -0.4990
  901SOL    HW1 3602   5.206   2.287   4.626 -0.1792 -0.1755 -0.1526
  901SOL    HW2 3603   5.164   2.429   4.593 -0.8228 -0.4645 -0.5792
  901SOL     MW 3604   5.211   2.373   4.641 -0.5079 -0.1005 -0.4650
  902SOL     OW 3605   4.474   0.118   5.380 -0.0930  0.2949 -0.1162
  902SOL    HW1 3606   4.452   0.094   5.290  1.3624 -1.2888 -0.0973
  902SOL    HW2 3607   4.549   0.176   5.372  0.2833 -0.1588  0.0750
  902SOL     MW 3608   4.481   0.122   5.367  0.1415  0.0341 -0.0893
  903SOL     OW 3609   2.270   4.469   4.827  0.5489  0.6712 -0.2408
  903SOL    HW1 3610   2.307   4.476   4.916 -0.9129  1.0972  0.3588
  903SOL    HW2 3611   2.328   4.408   4.782  1.7245  0.9749  0.7965
  903SOL     MW 3612   2.282   4.462   4.833  0.5123  0.7646 -0.0312
  904SOL     OW 3613   4.742   1.019   1.916  0.0493 -0.2995 -0.4260
  904SOL    HW1 3614   4.709   0.934   1.945 -1.6571  0.0697 -1.1364
  904SOL    HW2 3615   4.831   1.023   1.950 -0.2824 -1.8092  0.7468
  904SOL     MW 3616   4.749   1.009   1.924 -0.2116 -0.4455 -0.3668
  905SOL     OW 3617   3.894   4.818   3.129  0.0903  0.6633 -0.2608
  905SOL    HW1 3618   3.839   4.895   3.115  1.0700  1.4304  0.0446
  905SOL    HW2 3619   3.838   4.744   3.104 -1.8801  1.2265  2.0990
  905SOL     MW 3620   3.879   4.818   3.124 -0.0365  0.8336  0.0804
  906SOL     OW 3621   2.584   1.780   3.742  0.2802  0.7436  0.6236
  906SOL    HW1 3622   2.549   1.692   3.731 -0.3058  1.0078  0.3621
  906SOL    HW2 3623   2.609   1.807   3.654 -1.3305  1.5720  0.3771
  906SOL     MW 3624   2.583   1.773   3.729 -0.0010  0.8834  0.5585
  907SOL     OW 3625   2.046   3.279   3.571  0.5135 -0.3845 -0.5083
  907SOL    HW1 3626   1.976   3.271   3.636  1.7034 -0.4941  0.8147
  907SOL    HW2 3627   2.087   3.193   3.570  0.2486 -0.5176 -1.7604
  907SOL     MW 3628   2.042   3.267   3.579  0.6319 -0.4156 -0.4992
  908SOL     OW 3629   3.344   1.343   5.400  0.5319  0.3809  0.5993
  908SOL    HW1 3630   3.257   1.384   5.394 -0.6332 -1.5889  2.4640
  908SOL    HW2 3631   3.388   1.391   5.471 -0.7701 -1.2857  2.6717
  908SOL     MW 3632   3.338   1.354   5.409  0.2161 -0.0846  1.1033
  909SOL     OW 3633   4.921   4.197   0.937  0.2503  0.4529 -0.8970
  909SOL    HW1 3634   4.889   4.115   0.974  1.1193  0.2382 -0.5986
  909SOL    HW2 3635   4.879   4.265   0.988  0.5486  0.1695 -0.2628
  909SOL     MW 3636   4.912   4.195   0.948  0.3997  0.3891 -0.7776
  910SOL     OW 3637   3.339   4.932   0.057  0.2775  0.1591  0.0130
  910SOL    HW1 3638   3.318   4.906   0.146 -1.8933  2.2277  0.2206
  910SOL    HW2 3639   3.306   4.861   0.002 -1.2598  0.2636  0.7472
  910SOL     MW 3640   3.332   4.920   0.061 -0.1972  0.4373  0.1336
  911SOL     OW 3641   0.205   0.192   4.222  0.5353 -0.3736  0.4298
  911SOL    HW1 3642   0.222   0.126   4.290  1.3899 -0.1416  0.4536
  911SOL    HW2 3643   0.110   0.193   4.213  0.3208  0.2576  2.2976
  911SOL     MW 3644   0.195   0.184   4.229  0.6173 -0.2631  0.6719
  912SOL     OW 3645   2.482   4.038   3.692 -0.4530  0.3233 -0.0519
  912SOL    HW1 3646   2.405   4.074   3.736 -2.5733 -2.3675 -1.2490
  912SOL    HW2 3647   2.497   4.096   3.618  0.1044  2.1041  1.3935
  912SOL     MW 3648   2.474   4.050   3.688 -0.6531  0.2068 -0.0201
  913SOL     OW 3649   1.847   0.416   4.571  0.4147 -0.1736 -0.3708
  913SOL    HW1 3650   1.888   0.363   4.503 -1.0674 -1.1307 -0.5546
  913SOL    HW2 3651   1.896   0.396   4.650 -2.1769 -4.6990  0.4057
  913SOL     MW 3652   1.859   0.407   4.572 -0.1068 -0.8754 -0.2949
  914SOL     OW 3653   2.257   4.934   0.616  0.1697  0.6795 -0.3184
  914SOL    HW1 3654   2.339   4.939   0.567  0.2693  2.3680 -0.0514
  914SOL    HW2 3655   2.285   4.917   0.706  0.3208  2.0273 -0.0841
  914SOL     MW 3656   2.271   4.932   0.621  0.2018  1.0682 -0.2542
  915SOL     OW 3657   4.530   5.057   2.601 -0.1164 -0.3180  0.1999
  915SOL    HW1 3658   4.520   5.131   2.661 -2.7861 -0.1146 -0.3701
  915SOL    HW2 3659   4.584   4.994   2.649  1.5754  1.6289  0.9902
  915SOL     MW 3660   4.536   5.059   2.615 -0.2416 -0.0427  0.2281
  916SOL     OW 3661   0.466   1.847   4.165  0.3898 -0.0363 -0.5758
  916SOL    HW1 3662   0.389   1.903   4.172  1.2908  1.0389  2.0291
  916SOL    HW2 3663   0.441   1.767   4.212  0.6011 -0.0273 -0.4511
  916SOL     MW 3664   0.453   1.844   4.172  0.5322  0.1025 -0.2264
  917SOL     OW 3665   4.879   3.137   3.920 -0.1284 -0.7216 -0.2398
  917SOL    HW1 3666   4.962   3.162   3.961 -0.5652 -0.2212  0.3556
  917SOL    HW2 3667   4.893   3.048   3.890  1.1487 -0.1278 -1.5326
  917SOL     MW 3668   4.891   3.129   3.922 -0.0209 -0.5815 -0.3290
  918SOL     OW 3669   5.034   5.433   2.247 -0.2479  0.0217  0.0667
  918SOL    HW1 3670   5.039   5.509   2.190 -0.1651 -0.4351 -0.5494
  918SOL    HW2 3671   5.114   5.437   2.299 -1.0414  1.2834  1.2662
  918SOL     MW 3672   5.045   5.443   2.247 -0.3389  0.1247  0.1414
  919SOL     OW 3673   0.180   3.700   4.842 -0.2681  0.7679 -0.1359
  919SOL    HW1 3674   0.116   3.767   4.819  0.3109  1.1054 -0.7882
  919SOL    HW2 3675   0.128   3.629   4.879 -0.8085  1.9464  1.4979
  919SOL     MW 3676   0.165   3.699   4.844 -0.2631  0.9620 -0.0102
  920SOL     OW 3677   0.845   4.119   4.976 -0.1850  0.2718 -0.3488
  920SOL    HW1 3678   0.834   4.061   4.900  2.6985 -0.4156 -0.3456
  920SOL    HW2 3679   0.760   4.118   5.019 -1.2516 -1.1276 -2.3082
  920SOL     MW 3680   0.833   4.112   4.972  0.0476  0.0047 -0.5992
  921SOL     OW 3681   2.081   4.899   2.661  0.0836  0.2860  0.3951
  921SOL    HW1 3682   2.080   4.957   2.584 -2.6666 -0.5640 -0.2937
  921SOL    HW2 3683   2.057   4.956   2.734 -0.2991  0.4848  0.1174
  921SOL     MW 3684   2.078   4.914   2.660 -0.3174  0.2027  0.2714
  922SOL     OW 3685   0.266   5.188   0.604 -0.4645  0.1956 -0.2483
  922SOL    HW1 3686   0.175   5.208   0.625 -0.5730 -0.8553  0.3400
  922SOL    HW2 3687   0.302   5.152   0.684 -0.0791 -1.2319 -1.0347
  922SOL     MW 3688   0.259   5.186   0.617 -0.4291 -0.1216 -0.2737
  923SOL     OW 3689   0.185   3.223   4.906 -0.4508  0.1927  0.4025
  923SOL    HW1 3690   0.137   3.148   4.940 -0.7180  0.6722  1.1004
  923SOL    HW2 3691   0.267   3.186   4.872 -0.2676 -0.3345  1.3692
  923SOL     MW 3692   0.190   3.209   4.906 -0.4616  0.1866  0.6156
  924SOL     OW 3693   2.217   1.063   4.905  0.2993  0.3117  0.3855
  924SOL    HW1 3694   2.294   1.015   4.936  1.3120  1.4709 -0.2768
  924SOL    HW2 3695   2.248   1.111   4.828 -0.9258  1.3201  0.5010
  924SOL     MW 3696   2.231   1.063   4.899  0.2721  0.5892  0.3155
  925SOL     OW 3697   2.262   2.104   1.695  0.5249  0.2410  0.5344
  925SOL    HW1 3698   2.320   2.172   1.659  1.0102  0.9143  2.4932
  925SOL    HW2 3699   2.321   2.034   1.722  0.0268 -1.0476 -1.4820
  925SOL     MW 3700   2.277   2.104   1.694  0.5233  0.1623  0.5270
  926SOL     OW 3701   5.085   2.102   5.246 -0.4345 -0.5431  0.1767
  926SOL    HW1 3702   4.992   2.125   5.246 -0.6027 -1.1978 -0.2581
  926SOL    HW2 3703   5.098   2.053   5.165  0.4383  0.0985 -0.0929
  926SOL     MW 3704   5.075   2.099   5.236 -0.3443 -0.5448  0.0865
  927SOL     OW 3705   5.320   4.227   4.957 -0.6502  0.4930  0.1740
  927SOL    HW1 3706   5.247   4.282   4.982 -1.1708  0.7538 -1.7704
  927SOL    HW2 3707   5.361   4.273   4.883  0.2317 -0.6416 -0.0788
  927SOL     MW 3708   5.316   4.240   4.950 -0.6039  0.3811 -0.1073
  928SOL     OW 3709   3.342   2.601   3.426  0.7167 -0.5406 -0.2827
  928SOL    HW1 3710   3.395   2.632   3.500  1.8061 -2.2997 -0.2612
  928SOL    HW2 3711   3.382   2.642   3.349  2.0573 -1.7069 -0.2468
  928SOL     MW 3712   3.354   2.610   3.426  1.0278 -0.9151 -0.2753
  929SOL     OW 3713   0.462   3.897   2.994 -0.3894 -0.1108  0.1095
  929SOL    HW1 3714   0.534   3.902   2.931 -0.8649  1.3047 -0.3601
  929SOL    HW2 3715   0.388   3.866   2.943 -0.6495  0.5573  0.0670
  929SOL     MW 3716   0.462   3.894   2.980 -0.4835  0.1560  0.0439
  930SOL     OW 3717   4.650   3.472   1.816 -0.4821 -0.5250  0.0209
  930SOL    HW1 3718   4.703   3.392   1.813 -0.1813 -0.2951 -1.5171
  930SOL    HW2 3719   4.632   3.492   1.725 -1.4205  0.6139  0.4314
  930SOL     MW 3720   4.654   3.464   1.804 -0.5637 -0.3498 -0.1234
  931SOL     OW 3721   3.291   0.277   2.566  0.5370  0.1092 -0.7998
  931SOL    HW1 3722   3.202   0.310   2.568  0.1571 -0.9066  0.7973
  931SOL    HW2 3723   3.282   0.182   2.565  1.5518 -0.0794  1.3530
  931SOL     MW 3724   3.279   0.269   2.566  0.6183 -0.0450 -0.3198
  932SOL     OW 3725  -0.008   1.327   0.604 -0.4102 -0.2011 -0.1429
  932SOL    HW1 3726   0.085   1.313   0.588 -0.0290  1.0013  0.8456
  932SOL    HW2 3727  -0.044   1.239   0.616  0.1726 -0.8247 -2.5712
  932SOL     MW 3728  -0.001   1.314   0.604 -0.2868 -0.1270 -0.3272
  933SOL     OW 3729   4.775   1.959   4.474  0.2887  0.0557 -0.2844
  933SOL    HW1 3730   4.771   1.864   4.486  0.6627 -0.1344 -1.5000
  933SOL    HW2 3731   4.687   1.990   4.494 -0.2388 -0.7368 -1.2845
  933SOL     MW 3732   4.763   1.951   4.478  0.2690 -0.0701 -0.5680
  934SOL     OW 3733   5.165   3.916   4.121 -0.0892 -0.2443  0.2182
  934SOL    HW1 3734   5.237   3.898   4.061 -0.9630  0.7980 -1.2159
  934SOL    HW2 3735   5.205   3.916   4.208  1.2360 -1.6873 -0.3470
  934SOL     MW 3736   5.179   3.914   4.124 -0.0314 -0.2956 -0.0377
  935SOL     OW 3737   0.412   1.671   1.645  0.2327 -0.2089  0.1516
  935SOL    HW1 3738   0.479   1.716   1.697  1.3446 -0.4808 -0.9929
  935SOL    HW2 3739   0.389   1.594   1.697  0.8846 -0.1621  0.5215
  935SOL     MW 3740   0.418   1.667   1.659  0.4585 -0.2377  0.0524
  936SOL     OW 3741   5.190   5.388   3.569  0.2994  0.0427 -0.3501
  936SOL    HW1 3742   5.174   5.440   3.491  0.3208  0.6274  0.0236
  936SOL    HW2 3743   5.169   5.447   3.642 -0.9804 -0.8911  0.0814
  936SOL     MW 3744   5.185   5.402   3.569  0.1383 -0.0020 -0.2471
  937SOL     OW 3745   3.300   4.677   4.743  0.1489 -0.1673  0.2025
  937SOL    HW1 3746   3.354   4.655   4.819  0.0323  1.8978  0.9301
  937SOL    HW2 3747   3.347   4.639   4.669  1.5751 -0.0920  1.0364
  937SOL     MW 3748   3.313   4.669   4.743  0.3165  0.1067  0.4024
  938SOL     OW 3749   2.070   2.885   0.697 -0.5045 -0.2008 -0.0217
  938SOL    HW1 3750   2.123   2.920   0.769  1.5780  1.3640 -2.1503
  938SOL    HW2 3751   2.026   2.961   0.660 -0.8208 -0.8173 -0.9538
  938SOL     MW 3752   2.071   2.899   0.701 -0.2784 -0.0794 -0.4135
  939SOL     OW 3753   2.876   4.774   4.197  0.3142  0.1235  0.1069
  939SOL    HW1 3754   2.925   4.727   4.264  0.4004  1.3841  0.9690
  939SOL    HW2 3755   2.884   4.866   4.222 -1.8033  0.4307 -0.1640
  939SOL     MW 3756   2.883   4.780   4.209  0.0542  0.3242  0.1826
  940SOL     OW 3757   5.229   0.011   0.003 -0.3659 -0.0859 -0.5997
  940SOL    HW1 3758   5.256   0.053   0.085 -2.2067 -0.3766  0.1879
  940SOL    HW2 3759   5.289  -0.063  -0.006 -1.7278 -1.6394  1.9243
  940SOL     MW 3760   5.241   0.007   0.012 -0.7758 -0.3220 -0.1758
  941SOL     OW 3761   1.570   5.242   2.811 -0.3192  0.0408  0.1403
  941SOL    HW1 3762   1.612   5.305   2.752 -0.2937 -0.8001 -0.7833
  941SOL    HW2 3763   1.513   5.295   2.867 -1.0815  0.7970 -1.2852
  941SOL     MW 3764   1.568   5.257   2.810 -0.4135  0.0300 -0.1604
  942SOL     OW 3765   3.782   1.169   1.146  0.0572 -0.1159  0.5427
  942SOL    HW1 3766   3.867   1.203   1.118  0.2213 -0.3235  0.7801
  942SOL    HW2 3767   3.803   1.108   1.217 -0.2503 -0.5510  0.2612
  942SOL     MW 3768   3.796   1.166   1.151  0.0388 -0.1982  0.5370
  943SOL     OW 3769   0.984   2.560   1.835  0.4253  0.0091 -0.3265
  943SOL    HW1 3770   0.977   2.571   1.930 -1.6881 -0.7088 -0.3544
  943SOL    HW2 3771   0.989   2.649   1.801  0.2587  0.3055  0.4016
  943SOL     MW 3772   0.984   2.573   1.843  0.1334 -0.0449 -0.2368
  944SOL     OW 3773   0.179   3.660   1.911 -0.2535 -0.3832  0.3390
  944SOL    HW1 3774   0.126   3.603   1.967  0.4973 -0.4685  0.9826
  944SOL    HW2 3775   0.211   3.729   1.970 -1.2142  0.7793 -0.4425
  944SOL     MW 3776   0.177   3.662   1.926 -0.2803 -0.2453  0.3213
  945SOL     OW 3777   0.793   2.544   5.213  0.4897  0.7226 -0.3240
  945SOL    HW1 3778   0.819   2.452   5.216 -2.1676 -0.1063  0.3095
  945SOL    HW2 3779   0.823   2.581   5.295 -0.2422 -0.1681  0.3641
  945SOL     MW 3780   0.800   2.537   5.224  0.0558  0.5025 -0.1548
  946SOL     OW 3781   2.131   1.877   3.080  0.0810 -0.0325 -1.0252
  946SOL    HW1 3782   2.043   1.894   3.048 -0.8583 -0.1404  1.2976
  946SOL    HW2 3783   2.140   1.935   3.156  2.6998  1.2643 -2.1841
  946SOL     MW 3784   2.121   1.887   3.086  0.2960  0.1197 -0.8762
  947SOL     OW 3785   5.363   2.293   0.959 -0.2633 -0.2578 -0.2558
  947SOL    HW1 3786   5.352   2.356   1.031  0.0094 -0.9163  0.3794
  947SOL    HW2 3787   5.315   2.331   0.886  1.6116  1.7598 -0.5685
  947SOL     MW 3788   5.356   2.306   0.959  0.0116 -0.0838 -0.2145
  948SOL     OW 3789   4.845   0.568   1.431  0.5321  0.1526  0.5639
  948SOL    HW1 3790   4.752   0.555   1.452  1.0690 -1.7956  2.0272
  948SOL    HW2 3791   4.868   0.491   1.379  1.1179  1.1294 -0.6622
  948SOL     MW 3792   4.836   0.556   1.427  0.6758  0.0282  0.5943
  949SOL     OW 3793   5.211   4.433   3.371 -0.0786 -0.4133  0.4748
  949SOL    HW1 3794   5.143   4.420   3.437  0.4630 -0.1383  1.1000
  949SOL    HW2 3795   5.164   4.431   3.288 -1.2233  1.9826  0.9605
  949SOL     MW 3796   5.196   4.432   3.369 -0.1558 -0.0714  0.6170
  950SOL     OW 3797   4.213   3.488   0.963 -0.2329 -0.1680  0.0462
  950SOL    HW1 3798   4.304   3.498   0.939  0.0951 -0.2276  1.1931
  950SOL    HW2 3799   4.207   3.522   1.052 -1.3033 -0.2597  0.0326
  950SOL     MW 3800   4.224   3.493   0.972 -0.3279 -0.1873  0.1913
  951SOL     OW 3801   3.402   1.493   0.967 -0.0286  0.2874  0.2246
  951SOL    HW1 3802   3.455   1.566   0.999 -0.4188  0.4991  0.3973
  951SOL    HW2 3803   3.465   1.424   0.947  0.5987  1.3985 -2.0344
  951SOL     MW 3804   3.417   1.494   0.968  0.0017  0.4567 -0.0425
  952SOL     OW 3805   1.219   3.979   1.287  0.0477 -0.6098 -0.6423
  952SOL    HW1 3806   1.161   3.903   1.278  0.7118 -1.2426  0.1641
  952SOL    HW2 3807   1.202   4.011   1.376  0.4267 -0.3733 -0.6552
  952SOL     MW 3808   1.209   3.973   1.297  0.1812 -0.6605 -0.5407
  953SOL     OW 3809   0.560   0.667   3.281 -0.6766  0.3357 -0.1229
  953SOL    HW1 3810   0.570   0.590   3.225  1.8765  0.6898 -0.3053
  953SOL    HW2 3811   0.552   0.631   3.369  1.7084 -0.2211 -0.0592
  953SOL     MW 3812   0.560   0.653   3.285 -0.0445  0.3097 -0.1381
  954SOL     OW 3813   3.078   5.002   2.598 -0.4024 -0.1761  0.0159
  954SOL    HW1 3814   3.105   5.025   2.687  1.1998  0.1423 -0.5068
  954SOL    HW2 3815   3.068   4.907   2.601  1.3414 -0.3892  0.1548
  954SOL     MW 3816   3.080   4.993   2.610  0.0259 -0.1626 -0.0332
  955SOL     OW 3817   2.056   1.150   2.149 -0.0548  0.1705  0.3188
  955SOL    HW1 3818   2.034   1.242   2.131  0.4254  0.4337  1.0487
  955SOL    HW2 3819   2.116   1.154   2.223 -2.5049 -0.8895  2.5138
  955SOL     MW 3820   2.061   1.163   2.156 -0.3069  0.0685  0.6933
  956SOL     OW 3821   0.409   1.450   0.110 -0.7237  0.1499  0.2624
  956SOL    HW1 3822   0.431   1.530   0.063  1.2166 -1.1382 -1.1644
  956SOL    HW2 3823   0.450   1.461   0.196  0.8589  0.0767 -0.4634
  956SOL     MW 3824   0.417   1.462   0.115 -0.2727 -0.0244 -0.0131
  957SOL     OW 3825   4.903   1.845   2.360  1.0389  0.4809  0.1513
  957SOL    HW1 3826   4.880   1.762   2.401  1.4607  0.0754 -0.4377
  957SOL    HW2 3827   4.993   1.834   2.330  1.8546  1.8579  1.8908
  957SOL     MW 3828   4.911   1.833   2.362  1.1973  0.6053  0.2986
  958SOL     OW 3829   4.869   1.940   4.072  0.1674  0.2676  0.0535
  958SOL    HW1 3830   4.957   1.971   4.049 -0.2212  1.9000  0.6329
  958SOL    HW2 3831   4.847   1.987   4.152 -0.8294 -0.9392  0.5297
  958SOL     MW 3832   4.877   1.950   4.079 -0.0099  0.3221  0.1886
  959SOL     OW 3833   2.303   3.967   3.411 -0.2710 -0.0102 -0.2369
  959SOL    HW1 3834   2.253   3.975   3.492  0.4635 -1.0175  0.3492
  959SOL    HW2 3835   2.238   3.971   3.341 -0.9493  0.5782  0.4084
  959SOL     MW 3836   2.289   3.969   3.413 -0.2638 -0.0638 -0.0792
  960SOL     OW 3837   0.769   5.043   2.934 -0.0906  0.0140  0.0619
  960SOL    HW1 3838   0.694   5.097   2.957  0.4172  0.8224 -0.1511
  960SOL    HW2 3839   0.820   5.037   3.014 -0.8344 -1.3153  0.4681
  960SOL     MW 3840   0.766   5.049   2.947 -0.1208 -0.0527  0.0866
  961SOL     OW 3841   0.391   0.263   5.463 -0.1002 -0.0927  0.3972
  961SOL    HW1 3842   0.411   0.192   5.402 -1.5125 -1.1238  1.0944
  961SOL    HW2 3843   0.476   0.305   5.479  1.0075 -2.3201  0.8360
  961SOL     MW 3844   0.405   0.259   5.457 -0.1392 -0.5098  0.5426
  962SOL     OW 3845   4.989   3.434   1.381  0.5254  0.5367  0.0129
  962SOL    HW1 3846   5.065   3.376   1.378 -0.7499 -1.1935 -1.3444
  962SOL    HW2 3847   4.944   3.410   1.462 -0.5322 -1.2046 -1.0244
  962SOL     MW 3848   4.993   3.424   1.391  0.2268  0.0923 -0.2936
  963SOL     OW 3849   2.999   1.895   1.059  0.3142  0.4099 -0.4713
  963SOL    HW1 3850   3.050   1.960   1.108 -1.1995  2.2582 -1.2258
  963SOL    HW2 3851   3.065   1.842   1.015  1.6300  0.8691  0.8609
  963SOL     MW 3852   3.014   1.897   1.060  0.2888  0.7053 -0.3973
  964SOL     OW 3853   1.170   1.903   4.262  0.0917  0.0749  0.1129
  964SOL    HW1 3854   1.198   1.964   4.194  0.0184 -0.4660 -0.4117
  964SOL    HW2 3855   1.251   1.870   4.299  0.1386  0.9547  0.8421
  964SOL     MW 3856   1.184   1.907   4.258  0.0883  0.1183  0.1391
  965SOL     OW 3857   4.650   0.824   2.908 -0.4300 -0.2729  0.4150
  965SOL    HW1 3858   4.659   0.862   2.995  2.6779 -2.0232  1.0306
  965SOL    HW2 3859   4.572   0.769   2.913 -0.6368  0.1338  1.9273
  965SOL     MW 3860   4.641   0.822   2.920 -0.0586 -0.4449  0.6874
  966SOL     OW 3861   1.083   3.690   0.968 -0.2078  0.7716 -0.1122
  966SOL    HW1 3862   1.148   3.626   0.938 -1.0182 -0.5668  0.8847
  966SOL    HW2 3863   0.999   3.645   0.958 -0.9352  2.2042 -0.6778
  966SOL     MW 3864   1.081   3.676   0.963 -0.4047  0.7837 -0.0570
  967SOL     OW 3865   4.389   4.620   0.647  0.2175 -0.3025 -0.0253
  967SOL    HW1 3866   4.366   4.556   0.714  0.9590  1.0438  1.5821
  967SOL    HW2 3867   4.422   4.696   0.695 -1.4435  1.6896 -1.7636
  967SOL     MW 3868   4.390   4.622   0.661  0.0998  0.1249 -0.0420
  968SOL     OW 3869   4.628   1.929   1.611  0.2134  0.0643  0.0951
  968SOL    HW1 3870   4.720   1.937   1.639  0.0163  1.5267  0.3963
  968SOL    HW2 3871   4.577   1.950   1.689 -0.4576 -2.4757  0.4470
  968SOL     MW 3872   4.634   1.933   1.625  0.1023 -0.0737  0.1787
  969SOL     OW 3873   5.238   5.293   5.208  0.1390  1.0125  0.1659
  969SOL    HW1 3874   5.284   5.272   5.289 -0.4791 -2.0390 -0.1582
  969SOL    HW2 3875   5.271   5.229   5.144 -1.1109  1.8042 -1.3560
  969SOL     MW 3876   5.248   5.282   5.210 -0.1001  0.7232 -0.0704
  970SOL     OW 3877   3.438   3.338   2.277 -0.1764 -0.3077 -0.4125
  970SOL    HW1 3878   3.507   3.326   2.342 -0.6705 -1.9277 -0.1530
  970SOL    HW2 3879   3.401   3.424   2.297  2.1488  0.9279 -0.9599
  970SOL     MW 3880   3.442   3.348   2.288  0.0580 -0.3569 -0.4493
  971SOL     OW 3881   4.885   1.750   4.718 -0.0059  0.3187  0.1044
  971SOL    HW1 3882   4.937   1.820   4.679 -0.5212  2.3743  2.8003
  971SOL    HW2 3883   4.795   1.774   4.699 -0.1914  0.4947  1.1364
  971SOL     MW 3884   4.880   1.762   4.710 -0.0956  0.6044  0.5816
  972SOL     OW 3885   3.107   4.448   0.033 -0.3648  0.3203  0.2463
  972SOL    HW1 3886   3.146   4.504   0.100 -1.5416  0.0797  1.1745
  972SOL    HW2 3887   3.130   4.489  -0.050  0.4359  1.0782  0.8291
  972SOL     MW 3888   3.115   4.460   0.031 -0.4130  0.3866  0.4397
  973SOL     OW 3889   3.973   2.130   0.156 -0.4291 -0.4988 -0.1641
  973SOL    HW1 3890   4.055   2.091   0.128 -0.3073 -0.2395 -0.1697
  973SOL    HW2 3891   3.912   2.113   0.084  0.1010  0.8821 -0.9654
  973SOL     MW 3892   3.976   2.123   0.143 -0.3456 -0.2888 -0.2674
  974SOL     OW 3893   4.096   0.462   2.387  0.0425 -0.5091 -0.7425
  974SOL    HW1 3894   4.102   0.453   2.483 -1.3339 -1.2633 -0.7007
  974SOL    HW2 3895   4.026   0.525   2.373 -1.8586 -2.5690 -1.2176
  974SOL     MW 3896   4.088   0.469   2.398 -0.3770 -0.8693 -0.7980
  975SOL     OW 3897   3.924   2.750   4.461  0.4456 -0.4635  0.7951
  975SOL    HW1 3898   3.898   2.664   4.426  1.6662 -0.9191  0.9600
  975SOL    HW2 3899   3.903   2.746   4.554  2.8187 -1.5636  1.3341
  975SOL     MW 3900   3.918   2.738   4.468  0.9056 -0.6627  0.8852
  976SOL     OW 3901   3.385   0.639   0.096 -0.0673  0.0832  0.1318
  976SOL    HW1 3902   3.431   0.571   0.046 -0.4839 -0.7968  0.9157
  976SOL    HW2 3903   3.425   0.636   0.183 -0.7924  0.1169  0.4717
  976SOL     MW 3904   3.396   0.630   0.100 -0.2135 -0.0251  0.2756
  977SOL     OW 3905   4.645   5.471   2.222 -0.0156 -0.0731  0.1929
  977SOL    HW1 3906   4.652   5.449   2.129  1.4738 -2.0211  0.6931
  977SOL    HW2 3907   4.623   5.388   2.264  0.1855  0.5948  1.6612
  977SOL     MW 3908   4.643   5.458   2.215  0.2008 -0.2369  0.4449
  978SOL     OW 3909   2.312   2.293   4.931 -0.1767  0.0330  0.1764
  978SOL    HW1 3910   2.333   2.386   4.924  0.4810 -0.0709  0.7029
  978SOL    HW2 3911   2.238   2.290   4.992 -1.5535  0.3722 -1.4293
  978SOL     MW 3912   2.305   2.305   4.938 -0.2688  0.0632  0.0382
  979SOL     OW 3913   2.284   1.236   1.005 -0.0280  0.1472 -0.0090
  979SOL    HW1 3914   2.253   1.152   1.039  1.5685 -1.1666 -1.5797
  979SOL    HW2 3915   2.242   1.301   1.060 -1.1679 -1.6844  1.4138
  979SOL     MW 3916   2.275   1.233   1.016  0.0304 -0.2555 -0.0280
  980SOL     OW 3917   0.907   3.430   2.293 -0.1167 -0.0161 -0.2187
  980SOL    HW1 3918   0.959   3.379   2.355  0.4133 -0.1964 -0.7972
  980SOL    HW2 3919   0.820   3.392   2.297 -0.1211  0.0516  0.4982
  980SOL     MW 3920   0.902   3.419   2.301 -0.0494 -0.0305 -0.2010
  981SOL     OW 3921   0.382   4.178   2.772 -0.1116  0.0929 -0.2601
  981SOL    HW1 3922   0.336   4.255   2.740 -0.7756  0.9711  2.4858
  981SOL    HW2 3923   0.475   4.203   2.769 -0.3594  1.4884  1.4819
  981SOL     MW 3924   0.388   4.191   2.768 -0.2283  0.3839  0.3144
  982SOL     OW 3925   3.965   0.049   2.367  0.2627 -0.0482 -0.1078
  982SOL    HW1 3926   4.046   0.015   2.329  0.1650  1.0776 -1.4284
  982SOL    HW2 3927   3.988   0.075   2.456  0.7172 -2.0125  0.3844
  982SOL     MW 3928   3.978   0.048   2.373  0.3084 -0.1555 -0.2138
  983SOL     OW 3929   4.346   5.177   2.977  0.1259  0.0974 -0.3902
  983SOL    HW1 3930   4.279   5.240   3.004 -0.5255 -0.4034 -0.8160
  983SOL    HW2 3931   4.300   5.094   2.972  0.9534 -0.4027  0.0513
  983SOL     MW 3932   4.331   5.175   2.980  0.1485 -0.0307 -0.3882
  984SOL     OW 3933   1.878   5.351   3.288  0.1362  0.3073  0.0708
  984SOL    HW1 3934   1.943   5.344   3.358 -0.8250 -0.0415  0.9518
  984SOL    HW2 3935   1.929   5.358   3.208  1.2764  1.6079  0.8842
  984SOL     MW 3936   1.893   5.351   3.286  0.1591  0.4292  0.2877
  985SOL     OW 3937   1.038   1.291   1.168 -0.2478 -0.3089  0.4736
  985SOL    HW1 3938   0.955   1.270   1.124  0.5891  0.4806 -1.5556
  985SOL    HW2 3939   1.044   1.386   1.163  0.4561 -0.3041  1.2644
  985SOL     MW 3940   1.028   1.300   1.162 -0.0505 -0.2072  0.3151
  986SOL     OW 3941   4.813   5.038   3.236 -0.0929  0.0522  0.1044
  986SOL    HW1 3942   4.779   5.116   3.280 -2.5960 -1.4145  0.9879
  986SOL    HW2 3943   4.880   5.005   3.295 -0.6873  0.2616  0.9228
  986SOL     MW 3944   4.817   5.044   3.250 -0.4894 -0.1088  0.3223
  987SOL     OW 3945   1.109   0.304   2.181  0.2129 -0.0471 -0.4952
  987SOL    HW1 3946   1.175   0.255   2.229 -1.4627  0.0571  2.1210
  987SOL    HW2 3947   1.038   0.241   2.168 -1.0632  1.0114  0.9595
  987SOL     MW 3948   1.108   0.290   2.185 -0.1649  0.1017  0.0259
  988SOL     OW 3949   0.251   2.565   4.712 -0.5669  0.3765 -0.1128
  988SOL    HW1 3950   0.195   2.588   4.786  0.9073 -0.5324  1.3503
  988SOL    HW2 3951   0.194   2.516   4.653 -1.0418 -1.8317  2.0381
  988SOL     MW 3952   0.237   2.562   4.714 -0.4390 -0.0225  0.3498
  989SOL     OW 3953   4.170   4.482   4.208  0.2829  0.0485 -0.2736
  989SOL    HW1 3954   4.180   4.448   4.297 -1.4473 -1.5188 -0.6091
  989SOL    HW2 3955   4.230   4.430   4.155 -0.7627 -1.0200 -0.4403
  989SOL     MW 3956   4.179   4.471   4.213 -0.0725 -0.2889 -0.3379
  990SOL     OW 3957   0.904   1.314   1.420 -0.1913  0.4317  0.3509
  990SOL    HW1 3958   0.857   1.374   1.363 -0.9860  0.4101  0.9669
  990SOL    HW2 3959   0.987   1.298   1.375 -1.0426 -0.0563 -1.0841
  990SOL     MW 3960   0.909   1.320   1.407 -0.4020  0.3665  0.2460
  991SOL     OW 3961   0.530   4.013   2.275  0.2256 -0.3909  0.1443
  991SOL    HW1 3962   0.565   4.024   2.364  1.1349  0.8759 -0.3336
  991SOL    HW2 3963   0.594   3.957   2.230  0.0737 -0.5426  0.1155
  991SOL     MW 3964   0.542   4.007   2.281  0.3226 -0.2481  0.0794
  992SOL     OW 3965   4.091   2.303   0.483 -0.5085 -0.2094  1.2628
  992SOL    HW1 3966   4.093   2.391   0.521 -0.8171 -0.0714  0.9568
  992SOL    HW2 3967   4.114   2.315   0.391 -0.5920 -0.4404  1.2097
  992SOL     MW 3968   4.094   2.315   0.476 -0.5587 -0.2213  1.2168
  993SOL     OW 3969   1.635   2.356   0.464  0.3026 -0.2419  0.2710
  993SOL    HW1 3970   1.715   2.308   0.487  0.2509 -0.0422  0.9060
  993SOL    HW2 3971   1.633   2.356   0.369 -0.3893 -2.6435  0.2249
  993SOL     MW 3972   1.645   2.350   0.455  0.2074 -0.5238  0.3464
  994SOL     OW 3973   5.083   4.543   2.092  0.1600 -0.2333 -0.2688
  994SOL    HW1 3974   5.073   4.638   2.094  1.4572 -0.0705 -0.4915
  994SOL    HW2 3975   5.082   4.516   2.184  0.5997  0.1035 -0.1625
  994SOL     MW 3976   5.082   4.551   2.104  0.3823 -0.1693 -0.2837
  995SOL     OW 3977   1.563   3.218   0.846 -0.2282 -0.5142 -0.6723
  995SOL    HW1 3978   1.483   3.165   0.850  1.4952 -3.3016 -0.8763
  995SOL    HW2 3979   1.574   3.251   0.936 -1.4850 -0.2344 -0.6046
  995SOL     MW 3980   1.554   3.216   0.858 -0.1685 -0.8352 -0.6898
  996SOL     OW 3981   2.027   2.845   4.382 -0.2696  0.0747  0.2313
  996SOL    HW1 3982   2.046   2.934   4.352  0.3799  0.1066  0.7214
  996SOL    HW2 3983   2.110   2.812   4.416 -0.5042 -0.7201  0.0686
  996SOL     MW 3984   2.040   2.852   4.383 -0.2165 -0.0229  0.2732
  997SOL     OW 3985   0.513   3.802   0.286 -0.3467  0.2555 -0.1727
  997SOL    HW1 3986   0.539   3.745   0.358 -0.4884  1.1520  0.6054
  997SOL    HW2 3987   0.536   3.753   0.207 -2.3791 -1.7889  0.4020
  997SOL     MW 3988   0.519   3.789   0.285 -0.6250  0.1086  0.0005
  998SOL     OW 3989   2.623   0.660   2.516 -0.2591  0.1424  0.6437
  998SOL    HW1 3990   2.551   0.598   2.498  0.1356 -0.6618  1.7231
  998SOL    HW2 3991   2.702   0.609   2.500  0.0747  0.5170  1.1126
  998SOL     MW 3992   2.624   0.645   2.511 -0.1659  0.0874  0.8419
  999SOL     OW 3993   4.184   2.470   2.634 -0.0429  0.5129 -0.3495
  999SOL    HW1 3994   4.122   2.398   2.643 -0.0427  0.3785 -1.3095
  999SOL    HW2 3995   4.144   2.543   2.681 -0.6131  0.2395 -0.4064
  999SOL     MW 3996   4.171   2.470   2.641 -0.1158  0.4607 -0.4797
 1000SOL     OW 3997   4.807   3.612   4.694 -0.0405  0.9402  0.2784
 1000SOL    HW1 3998   4.801   3.666   4.615 -0.1472 -1.9045 -1.8035
 1000SOL    HW2 3999   4.895   3.630   4.728  0.2836  1.6856 -0.8991
 1000SOL     MW 4000   4.818   3.622   4.688 -0.0127  0.6715 -0.1389
 1001SOL     OW 4001   2.065   0.731   2.297 -0.4468  0.2277 -0.1831
 1001SOL    HW1 4002   2.004   0.798   2.269  0.7218  1.7151  0.6648
 1001SOL    HW2 4003   2.133   0.729   2.229 -0.0879  0.4480  0.1645
 1001SOL     MW 4004   2.066   0.739   2.285 -0.2512  0.4463 -0.0300
 1002SOL     OW 4005   0.760   2.618   1.427 -0.5439 -0.1317 -0.0985
 1002SOL    HW1 4006   0.706   2.567   1.488 -0.1876  0.9556  1.1763
 1002SOL    HW2 4007   0.847   2.620   1.469 -0.4503  1.1622 -0.3177
 1002SOL     MW 4008   0.764   2.612   1.440 -0.4863  0.1731  0.0367
 1003SOL     OW 4009   5.448   3.096   2.474  0.1229  0.3745 -0.1563
 1003SOL    HW1 4010   5.368   3.088   2.526 -0.0199  2.2501 -0.0321
 1003SOL    HW2 4011   5.514   3.126   2.536  0.7516 -0.3781 -0.4355
 1003SOL     MW 4012   5.446   3.098   2.489  0.1851  0.5182 -0.1762
 1004SOL     OW 4013   2.852   0.066   1.130  0.1192 -0.1263  0.3517
 1004SOL    HW1 4014   2.799   0.073   1.209  0.1039 -0.8615  0.4194
 1004SOL    HW2 4015   2.804   0.114   1.063  0.2112  0.6336  0.8283
 1004SOL     MW 4016   2.839   0.073   1.131  0.1290 -0.1231  0.4213
 1005SOL     OW 4017   2.888   1.183   3.219  0.3643  0.2465  0.0214
 1005SOL    HW1 4018   2.906   1.274   3.197 -1.6718  1.0828  1.4254
 1005SOL    HW2 4019   2.796   1.170   3.195 -0.5945 -0.1589  3.4438
 1005SOL     MW 4020   2.878   1.193   3.213 -0.0191  0.3017  0.6392
 1006SOL     OW 4021   4.416   1.153   3.880  0.7315  0.9247 -0.1923
 1006SOL    HW1 4022   4.450   1.215   3.945 -1.2880  1.1020  0.7666
 1006SOL    HW2 4023   4.337   1.117   3.920  1.6193 -2.0506 -0.8581
 1006SOL     MW 4024   4.411   1.157   3.893  0.5866  0.5665 -0.1548
 1007SOL     OW 4025   3.623   1.826   0.775  0.2460 -0.6713  0.0717
 1007SOL    HW1 4026   3.584   1.901   0.730  0.2799 -0.3774  0.5227
 1007SOL    HW2 4027   3.594   1.836   0.866  0.3066 -1.1693  0.1482
 1007SOL     MW 4028   3.614   1.837   0.781  0.2581 -0.6974  0.1392
 1008SOL     OW 4029   0.095   5.440   5.457 -0.1723 -0.1580  0.0019
 1008SOL    HW1 4030   0.114   5.533   5.454  0.7523 -0.3497 -0.3224
 1008SOL    HW2 4031   0.062   5.419   5.369 -1.6966  0.1107  0.4673
 1008SOL     MW 4032   0.093   5.449   5.445 -0.2491 -0.1481  0.0200
 1009SOL     OW 4033   0.423   4.161   3.052 -0.3545  0.0452  0.5216
 1009SOL    HW1 4034   0.460   4.073   3.060 -2.0350 -0.8584 -1.0971
 1009SOL    HW2 4035   0.410   4.174   2.958 -0.6436  1.8269  0.7680
 1009SOL     MW 4036   0.426   4.152   3.041 -0.6067  0.1576  0.3459
 1010SOL     OW 4037   2.579   2.735   3.917 -0.3650  0.5919 -0.0333
 1010SOL    HW1 4038   2.540   2.814   3.955  0.6520  1.1499 -0.0900
 1010SOL    HW2 4039   2.637   2.702   3.985 -1.2475 -0.4803  0.2170
 1010SOL     MW 4040   2.582   2.741   3.930 -0.3478  0.5261 -0.0085
 1011SOL     OW 4041   5.385   4.004   0.067  0.0003 -0.0168 -0.7142
 1011SOL    HW1 4042   5.351   4.042   0.149 -0.6491 -1.9696 -0.0130
 1011SOL    HW2 4043   5.480   4.012   0.074 -0.0458 -0.2122  0.2880
 1011SOL     MW 4044   5.393   4.010   0.079 -0.0888 -0.2918 -0.4962
 1012SOL     OW 4045   3.735   2.592   1.305 -0.2167 -0.3348 -0.3806
 1012SOL    HW1 4046   3.687   2.516   1.273  2.7195 -1.2885 -3.0037
 1012SOL    HW2 4047   3.778   2.628   1.228  0.0147  2.9399  1.1056
 1012SOL     MW 4048   3.735   2.587   1.291  0.1888 -0.0377 -0.5261
 1013SOL     OW 4049   3.820   3.501   0.988 -0.0695 -0.3591  0.4036
 1013SOL    HW1 4050   3.738   3.548   0.975 -0.0862 -0.2341  0.9488
 1013SOL    HW2 4051   3.793   3.410   1.001 -0.0643 -0.4569 -0.2180
 1013SOL     MW 4052   3.806   3.495   0.988 -0.0710 -0.3556  0.3938
 1014SOL     OW 4053   5.277   5.365   0.387  0.4150  0.8589  0.2533
 1014SOL    HW1 4054   5.364   5.377   0.348 -0.1752  2.4381 -0.6555
 1014SOL    HW2 4055   5.266   5.270   0.391  1.7832  0.6381 -0.5361
 1014SOL     MW 4056   5.287   5.354   0.382  0.5146  1.0328  0.0359
 1015SOL     OW 4057   4.374   0.942   5.449  0.0610  0.2643 -0.0350
 1015SOL    HW1 4058   4.343   0.992   5.373  0.7748  1.8219  0.6424
 1015SOL    HW2 4059   4.326   0.979   5.523  0.0228 -0.6262  0.3957
 1015SOL     MW 4060   4.364   0.953   5.449  0.1475  0.3497  0.1068
 1016SOL     OW 4061   0.418   3.162   4.325 -0.1872 -0.0535 -0.7923
 1016SOL    HW1 4062   0.341   3.200   4.281  0.6306  1.0021 -1.3663
 1016SOL    HW2 4063   0.452   3.234   4.379  0.2622 -0.5915 -0.3551
 1016SOL     MW 4064   0.412   3.176   4.326 -0.0249  0.0127 -0.8098
 1017SOL     OW 4065   2.939   2.460   1.690 -0.0871  0.3403 -0.1528
 1017SOL    HW1 4066   3.029   2.464   1.658 -0.0551 -0.3875 -0.1667
 1017SOL    HW2 4067   2.947   2.455   1.785 -0.1475  1.2213 -0.0908
 1017SOL     MW 4068   2.951   2.460   1.698 -0.0907  0.3599 -0.1467
 1018SOL     OW 4069   5.227   2.917   1.888  0.0053 -0.7751 -0.4374
 1018SOL    HW1 4070   5.244   2.947   1.977 -0.1047 -1.2839 -0.2424
 1018SOL    HW2 4071   5.234   2.996   1.834 -1.4389 -0.1514  0.2184
 1018SOL     MW 4072   5.230   2.931   1.892 -0.1936 -0.7604 -0.3285
 1019SOL     OW 4073   1.663   4.749   0.695 -0.4412 -0.1803 -0.1891
 1019SOL    HW1 4074   1.658   4.764   0.789  0.3041 -0.9088 -0.0184
 1019SOL    HW2 4075   1.580   4.705   0.673 -0.0332 -1.2709  0.3909
 1019SOL     MW 4076   1.652   4.745   0.704 -0.2935 -0.4132 -0.0930
 1020SOL     OW 4077   0.163   1.571   0.114  0.0835 -0.2272 -0.3660
 1020SOL    HW1 4078   0.237   1.510   0.113 -0.0635 -0.4165  0.0303
 1020SOL    HW2 4079   0.086   1.514   0.114 -0.0558 -0.0639  0.4935
 1020SOL     MW 4080   0.163   1.556   0.114  0.0469 -0.2305 -0.2053
 1021SOL     OW 4081   3.067   4.336   4.826 -0.2769  0.3465  0.4411
 1021SOL    HW1 4082   3.015   4.412   4.850 -0.0861  0.5682  0.1664
 1021SOL    HW2 4083   3.003   4.273   4.792 -0.6248 -0.2030  2.0408
 1021SOL     MW 4084   3.052   4.337   4.824 -0.2970  0.3045  0.6107
 1022SOL     OW 4085   3.785   3.252   1.130 -0.4998  0.2408 -0.0963
 1022SOL    HW1 4086   3.824   3.167   1.114 -1.1929  0.1386 -1.4423
 1022SOL    HW2 4087   3.695   3.233   1.158 -0.5175  0.5187  0.0427
 1022SOL     MW 4088   3.778   3.239   1.132 -0.5908  0.2633 -0.2508
 1023SOL     OW 4089   0.850   5.342   5.046  0.2473  0.3012  0.0034
 1023SOL    HW1 4090   0.877   5.381   4.963 -1.2894  0.6540 -0.3618
 1023SOL    HW2 4091   0.823   5.417   5.099  0.8893  0.0441  0.6980
 1023SOL     MW 4092   0.850   5.357   5.042  0.1328  0.3134  0.0455
 1024SOL     OW 4093   3.879   3.055   0.364 -0.3835  0.4841 -0.2065
 1024SOL    HW1 4094   3.908   2.967   0.340  0.1882  0.2810  1.1298
 1024SOL    HW2 4095   3.789   3.044   0.394 -0.3958  0.3977 -0.2750
 1024SOL     MW 4096   3.871   3.043   0.364 -0.3119  0.4471 -0.0442
 1025SOL     OW 4097   4.409   2.318   1.510 -0.3036 -0.0976  0.0760
 1025SOL    HW1 4098   4.492   2.296   1.552  0.6647 -1.3272 -2.3077
 1025SOL    HW2 4099   4.347   2.255   1.546  0.1118 -0.1305  0.7702
 1025SOL     MW 4100   4.412   2.307   1.520 -0.1265 -0.2592 -0.1403
 1026SOL     OW 4101   2.228   1.528   5.297 -0.1818  0.1047 -0.2570
 1026SOL    HW1 4102   2.213   1.551   5.206  0.2843  0.2432 -0.3027
 1026SOL    HW2 4103   2.195   1.603   5.347 -1.3411 -0.3863 -0.2523
 1026SOL     MW 4104   2.222   1.540   5.292 -0.2705  0.0596 -0.2623
 1027SOL     OW 4105   2.332   2.860   2.771  0.3900 -0.1316  0.0175
 1027SOL    HW1 4106   2.293   2.903   2.847 -0.6540 -0.5127 -0.2868
 1027SOL    HW2 4107   2.411   2.911   2.752  0.5994  0.0477  1.2718
 1027SOL     MW 4108   2.337   2.872   2.779  0.2832 -0.1575  0.1391
 1028SOL     OW 4109   3.060   3.746   5.384  0.4463 -0.0392 -0.3208
 1028SOL    HW1 4110   3.109   3.823   5.356  0.9415 -0.4396 -0.5881
 1028SOL    HW2 4111   3.019   3.771   5.466  2.0407 -0.0600  0.5056
 1028SOL     MW 4112   3.061   3.759   5.391  0.7138 -0.0932 -0.2492
 1029SOL     OW 4113   1.237   5.198   3.702 -0.1369  0.2716 -0.6535
 1029SOL    HW1 4114   1.149   5.209   3.738 -0.0726  1.1235 -0.7380
 1029SOL    HW2 4115   1.234   5.113   3.659 -0.3686 -0.5527  0.9089
 1029SOL     MW 4116   1.225   5.189   3.701 -0.1583  0.2751 -0.4643
 1030SOL     OW 4117   3.925   4.177   1.550 -0.4251  0.0586 -0.5897
 1030SOL    HW1 4118   3.911   4.085   1.570 -2.4327  0.4385 -0.0537
 1030SOL    HW2 4119   3.990   4.177   1.479 -0.3443 -1.7338 -0.5532
 1030SOL     MW 4120   3.932   4.165   1.543 -0.6718 -0.1222 -0.5164
 1031SOL     OW 4121   0.462   3.024   1.174  0.5399 -0.0855 -0.2015
 1031SOL    HW1 4122   0.538   2.968   1.185  1.3962  0.9957 -0.4057
 1031SOL    HW2 4123   0.396   2.968   1.133  1.3482 -0.9356 -0.3755
 1031SOL     MW 4124   0.463   3.010   1.170  0.7530 -0.0559 -0.2500
 1032SOL     OW 4125   3.195   5.348   1.764  0.4763  0.8602 -0.1835
 1032SOL    HW1 4126   3.258   5.395   1.709 -0.0756  0.5024 -1.1440
 1032SOL    HW2 4127   3.112   5.396   1.752  0.3486  0.7717  0.3254
 1032SOL     MW 4128   3.192   5.361   1.755  0.3893  0.8030 -0.2413
 1033SOL     OW 4129   0.234   1.718   4.578 -0.1724  0.3372 -0.2944
 1033SOL    HW1 4130   0.254   1.627   4.600  3.1580  0.6096 -1.5666
 1033SOL    HW2 4131   0.212   1.759   4.662  1.0745 -1.0604  0.7756
 1033SOL     MW 4132   0.234   1.712   4.592  0.4136  0.1931 -0.3203
 1034SOL     OW 4133   1.526   1.829   4.666  0.3079 -0.2614 -0.9752
 1034SOL    HW1 4134   1.618   1.807   4.651  0.6150  0.8371 -0.8518
 1034SOL    HW2 4135   1.492   1.759   4.721  2.1394  1.2565  2.3717
 1034SOL     MW 4136   1.534   1.818   4.671  0.5817  0.0735 -0.5309
 1035SOL     OW 4137   4.049   4.581   4.563  0.4550 -0.0691  0.2930
 1035SOL    HW1 4138   4.019   4.604   4.475  0.3181 -1.2180  0.0175
 1035SOL    HW2 4139   3.968   4.567   4.613  0.5235 -0.7480  0.2240
 1035SOL     MW 4140   4.035   4.582   4.558  0.4462 -0.3031  0.2489
 1036SOL     OW 4141   1.784   3.987   5.424  0.2499  0.2829 -0.2300
 1036SOL    HW1 4142   1.859   3.953   5.473  1.0747  0.5039 -1.2893
 1036SOL    HW2 4143   1.746   3.910   5.381 -0.4435  0.0966  0.6832
 1036SOL     MW 4144   1.789   3.973   5.425  0.2667  0.2873 -0.2487
 1037SOL     OW 4145   1.089   3.751   3.104 -0.3097  0.2865  0.4428
 1037SOL    HW1 4146   1.108   3.660   3.126  1.5473  0.1504 -1.4448
 1037SOL    HW2 4147   1.006   3.747   3.056  0.0111 -0.4851 -0.0633
 1037SOL     MW 4148   1.081   3.739   3.101 -0.0309  0.1703  0.1364
 1038SOL     OW 4149   2.074   0.745   1.277 -0.0761  0.0022 -0.5986
 1038SOL    HW1 4150   2.035   0.831   1.263  1.6822  1.0926  0.8545
 1038SOL    HW2 4151   2.108   0.721   1.191 -1.2424  0.3707 -1.1926
 1038SOL     MW 4152   2.073   0.753   1.264 -0.0003  0.1890 -0.4886
 1039SOL     OW 4153   3.492   0.440   2.997 -0.2425  0.0729 -0.1132
 1039SOL    HW1 4154   3.503   0.494   2.919 -1.7119  0.6398  0.0299
 1039SOL    HW2 4155   3.485   0.503   3.069 -1.3991 -0.3059  0.1361
 1039SOL     MW 4156   3.492   0.455   2.996 -0.5787  0.0970 -0.0630
 1040SOL     OW 4157   3.774   2.574   4.189 -0.1141 -0.2586 -0.3011
 1040SOL    HW1 4158   3.797   2.666   4.183  0.0086 -0.2171  0.5943
 1040SOL    HW2 4159   3.841   2.528   4.139  0.6609  0.0317  0.4602
 1040SOL     MW 4160   3.785   2.580   4.182  0.0008 -0.2162 -0.0890
 1041SOL     OW 4161   4.887   2.628   5.267 -0.5160  0.1812 -0.1453
 1041SOL    HW1 4162   4.908   2.652   5.357  0.4269  1.1114 -0.6036
 1041SOL    HW2 4163   4.895   2.709   5.217  2.2116 -0.8716 -1.6341
 1041SOL     MW 4164   4.890   2.641   5.272 -0.0461  0.1655 -0.3946
 1042SOL     OW 4165   1.869   2.681   4.775  0.2993  0.1950 -0.2984
 1042SOL    HW1 4166   1.825   2.715   4.852  1.0304  0.3409  0.0633
 1042SOL    HW2 4167   1.804   2.687   4.705  0.7564  3.5964 -0.6006
 1042SOL     MW 4168   1.855   2.686   4.776  0.4514  0.6491 -0.2908
 1043SOL     OW 4169   1.198   5.089   1.713  0.1377 -0.0600  0.1027
 1043SOL    HW1 4170   1.166   5.148   1.645 -0.4182  0.5040  0.8277
 1043SOL    HW2 4171   1.190   5.001   1.675  0.1529  0.2697 -0.6741
 1043SOL     MW 4172   1.193   5.085   1.700  0.0685  0.0544  0.0961
 1044SOL     OW 4173   2.491   2.144   0.268 -0.1503  0.5134 -0.2936
 1044SOL    HW1 4174   2.517   2.111   0.182 -0.7056  1.0476 -0.6743
 1044SOL    HW2 4175   2.479   2.066   0.322  0.1866  0.1759 -0.7055
 1044SOL     MW 4176   2.493   2.130   0.264 -0.1782  0.5386 -0.3951
 1045SOL     OW 4177   0.369   0.287   1.244  0.0189 -0.2993 -0.0469
 1045SOL    HW1 4178   0.308   0.358   1.266  0.0946 -0.5256  0.9136
 1045SOL    HW2 4179   0.441   0.331   1.200 -1.4434 -0.1717 -2.5288
 1045SOL     MW 4180   0.370   0.302   1.241 -0.1586 -0.3119 -0.2417
 1046SOL     OW 4181   4.791   0.790   2.669 -0.1534  0.0032  0.2194
 1046SOL    HW1 4182   4.749   0.791   2.755  0.4723 -0.8946  0.5539
 1046SOL    HW2 4183   4.724   0.824   2.610 -0.8551 -0.0698  0.9484
 1046SOL     MW 4184   4.777   0.794   2.673 -0.1631 -0.1211  0.3555
 1047SOL     OW 4185   5.183   2.074   4.785  0.4120  0.0167  0.0313
 1047SOL    HW1 4186   5.135   2.143   4.830  0.4020  0.3442 -0.4652
 1047SOL    HW2 4187   5.116   2.029   4.733  0.5610  0.2107 -0.3396
 1047SOL     MW 4188   5.168   2.077   4.784  0.4298  0.0834 -0.0797
 1048SOL     OW 4189   3.780   1.714   3.728 -0.3333 -0.3594 -0.0554
 1048SOL    HW1 4190   3.789   1.619   3.732  0.7164 -0.2745 -0.2203
 1048SOL    HW2 4191   3.800   1.744   3.817 -0.9943 -0.3138  0.0812
 1048SOL     MW 4192   3.784   1.706   3.740 -0.2836 -0.3427 -0.0590
 1049SOL     OW 4193   1.645   4.459   1.400  0.3123  0.1772 -0.1041
 1049SOL    HW1 4194   1.704   4.529   1.427  0.2646  0.1410  0.0887
 1049SOL    HW2 4195   1.591   4.498   1.330 -0.1254  0.5143  0.4180
 1049SOL     MW 4196   1.645   4.473   1.394  0.2501  0.2157 -0.0126
 1050SOL     OW 4197   2.460   4.153   0.483 -0.1632  0.2331 -0.2962
 1050SOL    HW1 4198   2.525   4.218   0.454 -1.3283  1.5254 -0.1375
 1050SOL    HW2 4199   2.502   4.069   0.467  0.6064  0.9596 -2.4830
 1050SOL     MW 4200   2.474   4.151   0.477 -0.2138  0.4915 -0.5558
 1051SOL     OW 4201   5.396   4.634   5.104 -0.1612  0.2784 -0.1198
 1051SOL    HW1 4202   5.350   4.715   5.082  1.3253  1.0943 -0.4107
 1051SOL    HW2 4203   5.328   4.567   5.107 -1.5833  1.6995  1.0909
 1051SOL     MW 4204   5.382   4.636   5.101 -0.1530  0.5648 -0.0021
 1052SOL     OW 4205   4.036   3.983   0.632 -0.6080 -0.2030  0.0667
 1052SOL    HW1 4206   4.011   3.923   0.562 -0.5303 -0.0300 -0.1111
 1052SOL    HW2 4207   4.016   3.936   0.712 -0.3834 -0.5347 -0.0697
 1052SOL     MW 4208   4.030   3.970   0.633 -0.5693 -0.2233  0.0265
 1053SOL     OW 4209   4.469   0.460   4.183  0.4299  0.5831 -0.7330
 1053SOL    HW1 4210   4.380   0.437   4.156  0.8057 -0.0339 -1.4626
 1053SOL    HW2 4211   4.503   0.380   4.223  0.6380  0.8360 -0.4010
 1053SOL     MW 4212   4.462   0.447   4.185  0.5047  0.5365 -0.7839
 1054SOL     OW 4213   3.661   1.880   0.268  0.3892 -0.7035  0.0043
 1054SOL    HW1 4214   3.738   1.902   0.321  0.6800  0.5086 -0.8705
 1054SOL    HW2 4215   3.596   1.945   0.292  0.0791 -0.9364 -0.2045
 1054SOL     MW 4216   3.663   1.891   0.278  0.3867 -0.5782 -0.1344
 1055SOL     OW 4217   2.623   3.689   1.833 -0.8065  0.5157  0.0679
 1055SOL    HW1 4218   2.664   3.711   1.916  0.6350  1.9540 -0.9689
 1055SOL    HW2 4219   2.666   3.745   1.768 -3.1657  0.8041 -1.3993
 1055SOL     MW 4220   2.634   3.699   1.835 -0.9240  0.7368 -0.2526
 1056SOL     OW 4221   2.790   3.390   3.894  0.1933 -0.1588 -0.2011
 1056SOL    HW1 4222   2.815   3.298   3.882 -2.1518 -0.9503  0.3512
 1056SOL    HW2 4223   2.727   3.388   3.966  1.5357  2.1932  1.1393
 1056SOL     MW 4224   2.785   3.378   3.902  0.0650  0.0409  0.0412
 1057SOL     OW 4225   2.896   3.227   2.049  0.4838 -0.4797  0.0224
 1057SOL    HW1 4226   2.972   3.191   2.004  0.3783 -1.2180  0.4148
 1057SOL    HW2 4227   2.859   3.290   1.987  0.7867 -0.9143 -0.6104
 1057SOL     MW 4228   2.901   3.231   2.035  0.5090 -0.6299 -0.0084
 1058SOL     OW 4229   1.176   5.389   2.348  0.5354  0.7070  0.0020
 1058SOL    HW1 4230   1.082   5.402   2.340  0.5340  0.8757  0.2618
 1058SOL    HW2 4231   1.204   5.359   2.262  0.5587  2.5765 -0.6895
 1058SOL     MW 4232   1.168   5.387   2.336  0.5382  0.9679 -0.0533
 1059SOL     OW 4233   2.845  -0.023   2.021  0.0956  0.2806 -0.4197
 1059SOL    HW1 4234   2.817   0.042   1.956  0.5583  1.1991  0.2817
 1059SOL    HW2 4235   2.936  -0.000   2.040  1.1508 -2.1514 -2.0589
 1059SOL     MW 4236   2.853  -0.012   2.015  0.2899  0.0869 -0.5397
 1060SOL     OW 4237   0.887   4.724   0.046  0.0636  0.2507  0.2172
 1060SOL    HW1 4238   0.795   4.702   0.057 -0.1367  1.4142  0.9678
 1060SOL    HW2 4239   0.934   4.650   0.083 -0.5788 -0.0292  0.4845
 1060SOL     MW 4240   0.881   4.712   0.052 -0.0442  0.3638  0.3475
 1061SOL     OW 4241   0.101   2.540   2.943 -0.2220 -0.1767  0.3999
 1061SOL    HW1 4242   0.078   2.450   2.918  0.4069 -0.2574  0.0829
 1061SOL    HW2 4243   0.197   2.542   2.939 -0.2475  1.4533 -3.1128
 1061SOL     MW 4244   0.110   2.529   2.939 -0.1447  0.0216 -0.0903
 1062SOL     OW 4245   4.257   2.599   3.775  0.1477  0.2398 -0.5149
 1062SOL    HW1 4246   4.237   2.686   3.809  0.8465  0.5718 -0.9343
 1062SOL    HW2 4247   4.302   2.554   3.846 -0.0722  0.2754 -0.3531
 1062SOL     MW 4248   4.260   2.604   3.788  0.2090  0.2869 -0.5479
 1063SOL     OW 4249   0.500   1.176   0.176  0.1545  0.8022 -0.2184
 1063SOL    HW1 4250   0.431   1.242   0.180 -0.1346  0.5325 -0.6542
 1063SOL    HW2 4251   0.497   1.143   0.086  0.0158 -0.0921  0.0987
 1063SOL     MW 4252   0.490   1.180   0.165  0.0997  0.6532 -0.2336
 1064SOL     OW 4253   0.646   3.362   2.244 -0.2624  0.4660 -0.5590
 1064SOL    HW1 4254   0.588   3.314   2.303  0.9141  0.7213  0.8487
 1064SOL    HW2 4255   0.609   3.450   2.241  0.7232  0.9920  1.3690
 1064SOL     MW 4256   0.633   3.367   2.251  0.0144  0.5660 -0.1320
 1065SOL     OW 4257   4.114   4.846   4.149 -0.3018 -0.4610  0.1348
 1065SOL    HW1 4258   4.054   4.917   4.173 -0.6896 -0.3697 -1.0579
 1065SOL    HW2 4259   4.194   4.891   4.121 -1.0998 -0.3767 -2.1845
 1065SOL     MW 4260   4.117   4.861   4.148 -0.4536 -0.4386 -0.3148
 1066SOL     OW 4261   3.892   2.449   0.163 -0.2251  0.1699 -0.0089
 1066SOL    HW1 4262   3.840   2.382   0.206 -0.8531  0.2827 -0.5852
 1066SOL    HW2 4263   3.838   2.528   0.167 -1.6441 -0.4586 -3.5686
 1066SOL     MW 4264   3.878   2.451   0.169 -0.4871  0.1039 -0.5384
 1067SOL     OW 4265   2.050   5.442   4.331  0.3976 -0.0106 -0.2440
 1067SOL    HW1 4266   1.979   5.498   4.301 -0.7023 -1.1900  0.0858
 1067SOL    HW2 4267   2.016   5.400   4.410  1.8160  0.1065  0.4718
 1067SOL     MW 4268   2.037   5.444   4.338  0.4384 -0.1466 -0.1101
 1068SOL     OW 4269   5.263   2.733   4.109 -0.1263  0.3009 -0.0054
 1068SOL    HW1 4270   5.255   2.778   4.193 -1.5733 -1.5210  0.8957
 1068SOL    HW2 4271   5.221   2.792   4.046 -2.7148 -0.0435  1.2653
 1068SOL     MW 4272   5.257   2.746   4.111 -0.6429  0.0236  0.2726
 1069SOL     OW 4273   1.462   1.430   4.202  0.5733  0.1271 -0.0845
 1069SOL    HW1 4274   1.444   1.368   4.131  0.2613  0.5949 -0.4164
 1069SOL    HW2 4275   1.409   1.398   4.275 -0.9974  0.9873 -0.7871
 1069SOL     MW 4276   1.453   1.418   4.202  0.3323  0.2971 -0.2169
 1070SOL     OW 4277   0.073   1.521   4.222  0.0186  0.1592 -0.3095
 1070SOL    HW1 4278   0.072   1.604   4.175  0.1793  0.9331  0.9902
 1070SOL    HW2 4279   0.090   1.545   4.313  0.1327 -1.3089  0.0914
 1070SOL     MW 4280   0.075   1.534   4.228  0.0537  0.0704 -0.0918
 1071SOL     OW 4281   1.306   3.550   2.784 -0.1233 -0.2332 -0.3852
 1071SOL    HW1 4282   1.388   3.565   2.737 -0.5662 -0.5230 -1.2717
 1071SOL    HW2 4283   1.315   3.461   2.819  0.6549  0.3761  1.0409
 1071SOL     MW 4284   1.318   3.541   2.782 -0.0804 -0.1923 -0.3161
 1072SOL     OW 4285   1.086   3.688   4.505  0.5800 -0.4742  0.0808
 1072SOL    HW1 4286   1.023   3.625   4.470  1.7082 -0.9093 -1.2735
 1072SOL    HW2 4287   1.035   3.766   4.524 -0.3877 -0.8634 -0.8329
 1072SOL     MW 4288   1.072   3.690   4.503  0.6005 -0.5797 -0.2095
 1073SOL     OW 4289   2.964   4.762   4.598 -0.6596 -0.2375 -0.2010
 1073SOL    HW1 4290   2.870   4.778   4.601 -0.7457 -0.5024 -1.3352
 1073SOL    HW2 4291   2.976   4.698   4.528  0.4416  0.3804 -0.6068
 1073SOL     MW 4292   2.954   4.756   4.590 -0.5296 -0.1923 -0.3981
 1074SOL     OW 4293   0.335   4.085   4.725 -0.6775 -0.1941 -0.7586
 1074SOL    HW1 4294   0.368   4.055   4.809 -3.1084  1.5727  0.9642
 1074SOL    HW2 4295   0.380   4.168   4.709 -0.4824 -0.3506 -1.0335
 1074SOL     MW 4296   0.345   4.092   4.734 -0.9637  0.0120 -0.5733
 1075SOL     OW 4297   0.362   1.420   2.170 -0.0762  0.2786 -0.1476
 1075SOL    HW1 4298   0.328   1.406   2.258  2.3748 -1.0254  0.6569
 1075SOL    HW2 4299   0.370   1.332   2.132  0.8261  0.6650 -0.8978
 1075SOL     MW 4300   0.359   1.407   2.176  0.3531  0.1611 -0.1406
 1076SOL     OW 4301   2.392   1.329   2.440  0.5088 -0.3348 -0.0084
 1076SOL    HW1 4302   2.416   1.383   2.365 -0.2001  0.7790  0.5409
 1076SOL    HW2 4303   2.403   1.387   2.516  2.6250 -1.8360  0.9567
 1076SOL     MW 4304   2.397   1.343   2.440  0.6889 -0.3844  0.1855
 1077SOL     OW 4305   2.617   1.294   4.221  0.1991 -0.0543  0.3239
 1077SOL    HW1 4306   2.522   1.293   4.235  0.1723 -2.5488  0.4762
 1077SOL    HW2 4307   2.652   1.344   4.294 -1.0468  2.2127 -0.5384
 1077SOL     MW 4308   2.609   1.300   4.232  0.0362 -0.0835  0.2330
 1078SOL     OW 4309   3.462   5.327   5.163  0.5704 -0.2859 -0.0086
 1078SOL    HW1 4310   3.508   5.411   5.162 -1.9628  1.2135  0.3548
 1078SOL    HW2 4311   3.433   5.317   5.254  0.2452 -1.1839 -0.2038
 1078SOL     MW 4312   3.464   5.337   5.174  0.2045 -0.2089  0.0130
 1079SOL     OW 4313   4.947   0.045   0.799 -0.0758  0.0643  0.5617
 1079SOL    HW1 4314   4.978   0.124   0.755 -0.4853 -1.6166 -3.1316
 1079SOL    HW2 4315   4.860   0.030   0.763 -0.2597 -1.7207  1.6482
 1079SOL     MW 4316   4.940   0.053   0.788 -0.1518 -0.3793  0.2280
 1080SOL     OW 4317   2.793   4.293   1.181  0.0910 -0.3227  0.1708
 1080SOL    HW1 4318   2.874   4.244   1.169 -0.5007 -1.0603 -0.9084
 1080SOL    HW2 4319   2.822   4.384   1.192  1.0055 -0.3640 -1.5827
 1080SOL     MW 4320   2.808   4.299   1.181  0.1323 -0.4224 -0.1918
 1081SOL     OW 4321   4.809   1.202   1.385 -0.2323  0.1580  0.4021
 1081SOL    HW1 4322   4.793   1.182   1.477  1.4455 -0.5643  0.5824
 1081SOL    HW2 4323   4.896   1.166   1.367 -0.7964 -0.3568 -1.6638
 1081SOL     MW 4324   4.818   1.194   1.394 -0.0897 -0.0004  0.1607
 1082SOL     OW 4325   1.322   3.077   3.375  0.0321  0.4350  0.1191
 1082SOL    HW1 4326   1.232   3.088   3.345 -0.3720 -0.4281  0.9719
 1082SOL    HW2 4327   1.374   3.132   3.317 -0.9051  0.0172 -1.1388
 1082SOL     MW 4328   1.317   3.085   3.364 -0.1396  0.2710  0.0672
 1083SOL     OW 4329   4.138   1.825   4.556  0.2590  1.1291 -0.4146
 1083SOL    HW1 4330   4.200   1.893   4.583 -1.2546  2.7298 -0.7376
 1083SOL    HW2 4331   4.117   1.847   4.465 -0.4979  0.4152 -0.4208
 1083SOL     MW 4332   4.143   1.837   4.548 -0.0317  1.2426 -0.4568
 1084SOL     OW 4333   1.718   5.275   0.417 -0.2294 -0.0570  0.4875
 1084SOL    HW1 4334   1.759   5.194   0.447  1.0885  0.8243  1.2044
 1084SOL    HW2 4335   1.679   5.253   0.333 -0.0123 -1.4546  0.7220
 1084SOL     MW 4336   1.718   5.262   0.410 -0.0329 -0.1231  0.6093
 1085SOL     OW 4337   3.353   2.341   3.447  0.2874  0.2889 -0.3973
 1085SOL    HW1 4338   3.352   2.435   3.431 -0.0821  0.5717  1.0963
 1085SOL    HW2 4339   3.446   2.319   3.455  0.3415  0.7799  0.4708
 1085SOL     MW 4340   3.365   2.350   3.446  0.2470  0.3880 -0.0950
 1086SOL     OW 4341   1.822   0.690   1.935  0.0773  0.5985 -0.0788
 1086SOL    HW1 4342   1.871   0.715   1.857  0.3533  0.3967  0.0321
 1086SOL    HW2 4343   1.732   0.678   1.903  0.1817  0.5477 -0.3575
 1086SOL     MW 4344   1.816   0.692   1.921  0.1260  0.5662 -0.1003
 1087SOL     OW 4345   1.303   2.758   3.402 -0.3374  0.0106  0.2526
 1087SOL    HW1 4346   1.326   2.849   3.382  0.9388  0.0503  1.7022
 1087SOL    HW2 4347   1.367   2.706   3.354  1.6513  0.0615  2.6326
 1087SOL     MW 4348   1.314   2.763   3.393  0.0805  0.0222  0.7428
 1088SOL     OW 4349   0.081   4.561   0.769 -0.1913 -0.5804  0.0606
 1088SOL    HW1 4350   0.146   4.616   0.812 -0.3038 -1.2058  1.0647
 1088SOL    HW2 4351   0.051   4.501   0.837 -1.4959 -0.5988 -0.4946
 1088SOL     MW 4352   0.085   4.560   0.783 -0.3727 -0.6628  0.1181
 1089SOL     OW 4353   1.236   3.510   2.169 -0.3755  0.0337  0.3858
 1089SOL    HW1 4354   1.154   3.497   2.121 -0.0587  0.6009 -0.3370
 1089SOL    HW2 4355   1.209   3.528   2.259 -1.1845  2.3562 -0.2480
 1089SOL     MW 4356   1.222   3.511   2.174 -0.4385  0.4036  0.2122
 1090SOL     OW 4357   4.110   1.060   2.401 -0.0383  0.3182  0.3291
 1090SOL    HW1 4358   4.198   1.058   2.363  0.1722 -0.6539  0.8237
 1090SOL    HW2 4359   4.065   0.985   2.362 -0.2697  0.1226  0.9532
 1090SOL     MW 4360   4.115   1.050   2.391 -0.0409  0.1687  0.4723
 1091SOL     OW 4361   4.673   3.555   0.422 -0.5535  0.2139  0.0350
 1091SOL    HW1 4362   4.687   3.555   0.517  2.0676  0.3729 -0.2593
 1091SOL    HW2 4363   4.652   3.646   0.401 -0.0404  0.4093  0.3474
 1091SOL     MW 4364   4.672   3.567   0.431 -0.1523  0.2593  0.0373
 1092SOL     OW 4365   1.324   2.811   4.270 -0.3277  0.0542  0.5105
 1092SOL    HW1 4366   1.288   2.852   4.192  0.4194  0.0035  0.1286
 1092SOL    HW2 4367   1.383   2.877   4.307 -0.7556  0.1155  1.0878
 1092SOL     MW 4368   1.327   2.824   4.265 -0.2868  0.0556  0.5355
 1093SOL     OW 4369   1.423   1.688   3.169 -0.0721  0.1160  0.1910
 1093SOL    HW1 4370   1.516   1.665   3.159 -0.2437 -0.0827 -1.0894
 1093SOL    HW2 4371   1.424   1.780   3.196  0.4919  0.2246 -0.1813
 1093SOL     MW 4372   1.435   1.697   3.171 -0.0219  0.1044 -0.0206
 1094SOL     OW 4373   2.116   4.368   0.107  0.5315 -0.4562 -0.3232
 1094SOL    HW1 4374   2.034   4.417   0.099  0.3725 -0.5845  0.4352
 1094SOL    HW2 4375   2.091   4.287   0.151  1.2122 -0.0878  0.7619
 1094SOL     MW 4376   2.102   4.364   0.111  0.5983 -0.4255 -0.0872
 1095SOL     OW 4377   0.469   1.379   3.992 -0.0699 -0.0983 -0.3824
 1095SOL    HW1 4378   0.547   1.424   4.024  0.2354  0.4154 -1.7570
 1095SOL    HW2 4379   0.453   1.310   4.056  0.4224  0.9342  0.8956
 1095SOL     MW 4380   0.477   1.376   4.004  0.0322  0.0996 -0.3948
 1096SOL     OW 4381   3.794   2.866   4.148 -0.2022 -0.2909  0.2598
 1096SOL    HW1 4382   3.741   2.936   4.110  0.5565  0.3515  0.3557
 1096SOL    HW2 4383   3.819   2.899   4.234  0.2776 -0.6267  0.2500
 1096SOL     MW 4384   3.790   2.880   4.154 -0.0436 -0.2517  0.2708
 1097SOL     OW 4385   2.931   5.052   4.229 -0.2035 -0.0826  0.4166
 1097SOL    HW1 4386   2.865   5.066   4.298 -1.6754 -2.9462 -0.2327
 1097SOL    HW2 4387   2.899   5.103   4.155 -1.3412 -0.8071  0.3681
 1097SOL     MW 4388   2.918   5.060   4.229 -0.5376 -0.5419  0.3272
 1098SOL     OW 4389   4.425   1.315   5.325  0.4826  0.3214 -0.4753
 1098SOL    HW1 4390   4.463   1.297   5.411  0.7346 -0.7895 -0.8046
 1098SOL    HW2 4391   4.371   1.238   5.306 -0.3974  1.0144 -0.8707
 1098SOL     MW 4392   4.423   1.303   5.334  0.4022  0.2679 -0.5681
 1099SOL     OW 4393   3.622   4.921   2.481 -0.3888  0.1835 -0.2062
 1099SOL    HW1 4394   3.666   4.990   2.532 -0.5759  0.2940 -0.1914
 1099SOL    HW2 4395   3.529   4.942   2.489 -0.4194  0.2280 -0.6292
 1099SOL     MW 4396   3.616   4.933   2.488 -0.4166  0.2034 -0.2584
 1100SOL     OW 4397   2.749   1.500   2.684  0.2194 -0.1337 -0.1631
 1100SOL    HW1 4398   2.764   1.576   2.740 -0.0440  1.0481 -1.6320
 1100SOL    HW2 4399   2.800   1.430   2.725  0.9504  0.9770  0.9053
 1100SOL     MW 4400   2.757   1.501   2.697  0.2792  0.1598 -0.2144
 1101SOL     OW 4401   2.534   1.385   3.866  0.0750 -0.1541 -0.1923
 1101SOL    HW1 4402   2.451   1.338   3.880  0.4761 -0.8374 -0.0794
 1101SOL    HW2 4403   2.530   1.457   3.929 -0.1304 -0.5913  0.3090
 1101SOL     MW 4404   2.523   1.388   3.876  0.1001 -0.2976 -0.1137
 1102SOL     OW 4405   2.525   0.376   3.928 -0.1252  0.0737  0.4909
 1102SOL    HW1 4406   2.431   0.392   3.923  0.0597  0.8559 -0.8710
 1102SOL    HW2 4407   2.532   0.281   3.943 -1.1371 -0.6730 -2.8873
 1102SOL     MW 4408   2.514   0.366   3.929 -0.2311  0.0782 -0.1159
 1103SOL     OW 4409   1.150   2.240   4.667  0.1042  0.4686 -0.3491
 1103SOL    HW1 4410   1.084   2.310   4.660 -0.4031 -0.0775 -1.3420
 1103SOL    HW2 4411   1.142   2.192   4.584 -1.7489 -2.6874  1.4565
 1103SOL     MW 4412   1.140   2.243   4.655 -0.1980 -0.0053 -0.2451
 1104SOL     OW 4413   1.230   2.241   1.402 -0.0842  0.0538  0.2016
 1104SOL    HW1 4414   1.320   2.271   1.394 -0.0657 -0.0844 -0.1036
 1104SOL    HW2 4415   1.184   2.282   1.329 -0.3667  0.4865  0.6175
 1104SOL     MW 4416   1.235   2.250   1.392 -0.1180  0.0915  0.2158
 1105SOL     OW 4417   4.529   4.505   1.900 -0.4405 -0.3419  0.4737
 1105SOL    HW1 4418   4.546   4.427   1.847 -2.0545 -1.4417  1.4648
 1105SOL    HW2 4419   4.449   4.542   1.864 -1.2109 -0.7473  1.6954
 1105SOL     MW 4420   4.521   4.500   1.889 -0.7457 -0.5346  0.7569
 1106SOL     OW 4421   0.403   2.627   1.550  0.0487  0.4731 -0.0104
 1106SOL    HW1 4422   0.396   2.696   1.617 -1.3411  0.2177  0.1565
 1106SOL    HW2 4423   0.324   2.639   1.497 -0.2223 -0.9806  0.0359
 1106SOL     MW 4424   0.392   2.638   1.552 -0.1639  0.2543  0.0169
 1107SOL     OW 4425   4.961   1.887   0.349 -0.3126  0.1632 -0.2298
 1107SOL    HW1 4426   4.974   1.981   0.346  0.8068  0.0476  0.2767
 1107SOL    HW2 4427   5.027   1.852   0.289 -0.9957 -0.2825 -0.7370
 1107SOL     MW 4428   4.971   1.894   0.341 -0.2568  0.0913 -0.2299
 1108SOL     OW 4429   1.952   0.856   1.726  0.4785 -0.0576  0.2656
 1108SOL    HW1 4430   1.941   0.951   1.715  0.8294 -0.0159  0.2465
 1108SOL    HW2 4431   2.015   0.848   1.798 -0.8048 -0.3040  1.4164
 1108SOL     MW 4432   1.959   0.867   1.734  0.3591 -0.0838  0.4105
 1109SOL     OW 4433   3.082   5.360   3.607 -0.2217  0.1038  0.2373
 1109SOL    HW1 4434   3.079   5.455   3.594  1.3969  0.3445  1.3301
 1109SOL    HW2 4435   3.173   5.336   3.590 -0.5149 -1.1927  0.3796
 1109SOL     MW 4436   3.093   5.369   3.603 -0.0521 -0.0314  0.3954
 1110SOL     OW 4437   3.074   1.442   2.028  0.5968  0.3775  0.6081
 1110SOL    HW1 4438   3.095   1.503   2.099  1.7228  0.4408  0.2486
 1110SOL    HW2 4439   3.079   1.495   1.949 -0.5028  0.2715  0.4633
 1110SOL     MW 4440   3.078   1.456   2.027  0.6002  0.3720  0.5436
 1111SOL     OW 4441   2.024   4.790   1.689  0.0371  0.4426  0.1475
 1111SOL    HW1 4442   1.972   4.739   1.751 -0.6348 -0.7319 -1.3291
 1111SOL    HW2 4443   2.115   4.769   1.711 -0.1919  0.0175  0.7065
 1111SOL     MW 4444   2.029   4.781   1.700 -0.0782  0.2378  0.0300
 1112SOL     OW 4445   1.980   3.020   1.026  0.3661  0.1103  0.9195
 1112SOL    HW1 4446   1.962   3.114   1.023 -0.4506 -0.0542 -0.2472
 1112SOL    HW2 4447   2.075   3.014   1.036  0.4033  1.0520  1.2502
 1112SOL     MW 4448   1.990   3.031   1.027  0.2663  0.2098  0.8125
 1113SOL     OW 4449   5.343   3.168   5.380 -0.0553  0.1978 -0.0511
 1113SOL    HW1 4450   5.277   3.139   5.317 -1.2202 -0.9244  1.5997
 1113SOL    HW2 4451   5.311   3.252   5.413 -0.2676  0.0173  0.2016
 1113SOL     MW 4452   5.331   3.175   5.376 -0.2316  0.0310  0.1926
 1114SOL     OW 4453   1.804   0.341   2.386  0.7453  0.1116  0.2892
 1114SOL    HW1 4454   1.867   0.401   2.346 -1.4364  2.0059 -0.4680
 1114SOL    HW2 4455   1.782   0.382   2.469  0.8238 -0.7813  0.7620
 1114SOL     MW 4456   1.810   0.354   2.392  0.4761  0.2398  0.2528
 1115SOL     OW 4457   3.675   2.074   2.830  0.1226  0.1680  0.5174
 1115SOL    HW1 4458   3.611   2.019   2.784  0.2142  0.0107  0.5750
 1115SOL    HW2 4459   3.673   2.042   2.920 -0.6103  0.9831  0.7969
 1115SOL     MW 4460   3.667   2.063   2.836  0.0405  0.2522  0.5605
 1116SOL     OW 4461   2.033   2.739   0.340 -0.2621 -0.0444  0.3069
 1116SOL    HW1 4462   2.123   2.717   0.319  0.0025  0.9002  0.3990
 1116SOL    HW2 4463   2.014   2.690   0.421  0.2325 -0.0890  0.3971
 1116SOL     MW 4464   2.042   2.730   0.348 -0.1649  0.0708  0.3302
 1117SOL     OW 4465   4.990   0.975   2.031 -0.3944  0.7084 -0.0470
 1117SOL    HW1 4466   5.066   0.930   1.994  0.8219  2.6224 -0.0067
 1117SOL    HW2 4467   4.967   0.924   2.109  1.4817  0.6424  0.5146
 1117SOL     MW 4468   4.997   0.963   2.036  0.0015  0.9450  0.0301
 1118SOL     OW 4469   2.528   0.569   0.175  0.2470 -0.1876 -0.2259
 1118SOL    HW1 4470   2.585   0.527   0.238 -1.4294 -1.5297  0.4666
 1118SOL    HW2 4471   2.482   0.497   0.131 -0.3080  0.8011 -1.3504
 1118SOL     MW 4472   2.529   0.554   0.177 -0.0386 -0.2329 -0.2812
 1119SOL     OW 4473   4.651   2.736   3.702  0.5632  0.8634 -0.4650
 1119SOL    HW1 4474   4.718   2.667   3.703  0.1085  0.3858  1.0904
 1119SOL    HW2 4475   4.578   2.698   3.654  1.3078  1.3082 -1.9886
 1119SOL     MW 4476   4.650   2.722   3.696  0.6003  0.8592 -0.4609
 1120SOL     OW 4477   2.135   0.806   2.560 -0.0018 -0.1642  0.0185
 1120SOL    HW1 4478   2.121   0.899   2.575  0.8512 -0.0663  0.2651
 1120SOL    HW2 4479   2.093   0.789   2.475  1.5260  0.8839 -1.0103
 1120SOL     MW 4480   2.128   0.816   2.551  0.3030 -0.0175 -0.0816
 1121SOL     OW 4481   0.478   0.854   5.313  0.3804  0.7594  0.1781
 1121SOL    HW1 4482   0.506   0.804   5.237 -1.7736 -3.0577  1.6037
 1121SOL    HW2 4483   0.548   0.842   5.377 -0.1912 -0.7969  0.5712
 1121SOL     MW 4484   0.491   0.846   5.312  0.0315  0.0715  0.4109
 1122SOL     OW 4485   0.210   2.258   0.615  0.2140 -0.2760 -0.0363
 1122SOL    HW1 4486   0.179   2.240   0.704  0.6833 -2.2093 -0.2211
 1122SOL    HW2 4487   0.214   2.353   0.610  0.8204 -0.1249  2.2300
 1122SOL     MW 4488   0.206   2.267   0.625  0.3517 -0.5041  0.2301
 1123SOL     OW 4489   4.446   3.980   1.963  0.3833  0.1550  0.0776
 1123SOL    HW1 4490   4.411   4.056   2.009 -1.6246 -0.5684 -0.1856
 1123SOL    HW2 4491   4.385   3.965   1.891 -0.0844 -2.5361  0.9271
 1123SOL     MW 4492   4.434   3.988   1.960  0.0664 -0.2821  0.1526
 1124SOL     OW 4493   3.842   1.355   4.509  0.0727  0.0738 -0.7496
 1124SOL    HW1 4494   3.835   1.450   4.509  1.0116  0.2283  2.3889
 1124SOL    HW2 4495   3.935   1.338   4.515 -0.0234 -1.1338 -2.0200
 1124SOL     MW 4496   3.853   1.365   4.509  0.1806 -0.0610 -0.5104
 1125SOL     OW 4497   1.468   4.154   3.506  0.1207  0.4456  0.4809
 1125SOL    HW1 4498   1.459   4.155   3.601 -0.9714  1.2603  0.3849
 1125SOL    HW2 4499   1.456   4.245   3.479 -0.5381  0.0938 -0.5031
 1125SOL     MW 4500   1.465   4.165   3.515 -0.1034  0.5049  0.3427
 1126SOL     OW 4501   0.398   0.975   2.975  0.2506  0.0179  0.0300
 1126SOL    HW1 4502   0.428   0.982   3.066  0.1162  1.9840 -0.0440
 1126SOL    HW2 4503   0.473   0.937   2.929  0.4575 -0.6521  0.8721
 1126SOL     MW 4504   0.411   0.971   2.981  0.2599  0.1838  0.1283
 1127SOL     OW 4505   5.397   1.644   5.211  0.2256  0.2501  0.0807
 1127SOL    HW1 4506   5.472   1.700   5.229  2.1822 -1.8003 -1.1665
 1127SOL    HW2 4507   5.349   1.640   5.294  2.0385  0.8443  1.2067
 1127SOL     MW 4508   5.400   1.651   5.224  0.7081  0.0637  0.0652
 1128SOL     OW 4509   5.214   1.317   5.463  0.2505 -0.1585 -0.5093
 1128SOL    HW1 4510   5.244   1.278   5.382  3.0251 -3.1661  1.7156
 1128SOL    HW2 4511   5.190   1.243   5.519  0.0076  1.6494  1.9700
 1128SOL     MW 4512   5.215   1.303   5.460  0.5746 -0.3121  0.0929
 1129SOL     OW 4513   3.112   3.883   3.079 -0.1313  0.2491 -0.0123
 1129SOL    HW1 4514   3.148   3.864   2.992 -1.5823  0.9026 -0.7904
 1129SOL    HW2 4515   3.172   3.946   3.117 -1.1074  2.4702 -1.8751
 1129SOL     MW 4516   3.124   3.888   3.072 -0.4420  0.6170 -0.3504
 1130SOL     OW 4517   0.802   3.097   3.100  0.4052 -0.1624 -0.1072
 1130SOL    HW1 4518   0.810   3.089   3.195  1.3164  1.2306 -0.0304
 1130SOL    HW2 4519   0.885   3.063   3.066  1.3709  2.0524 -0.1700
 1130SOL     MW 4520   0.813   3.092   3.108  0.6455  0.2994 -0.1054
 1131SOL     OW 4521   3.431   0.894   3.067  0.3782  0.0729  0.2411
 1131SOL    HW1 4522   3.520   0.886   3.035  0.4432  1.3792  0.0053
 1131SOL    HW2 4523   3.435   0.967   3.129 -0.7345  0.9474 -0.6731
 1131SOL     MW 4524   3.443   0.903   3.070  0.2441  0.3521  0.0939
 1132SOL     OW 4525   3.811   1.654   4.480  0.0156  0.4269 -0.5235
 1132SOL    HW1 4526   3.803   1.704   4.562  1.5530  1.3020 -0.8836
 1132SOL    HW2 4527   3.721   1.649   4.447 -0.5057  0.8366  0.7616
 1132SOL     MW 4528   3.798   1.660   4.487  0.1456  0.5914 -0.4051
 1133SOL     OW 4529   3.714   0.429   1.788  0.4739 -0.3453 -0.5538
 1133SOL    HW1 4530   3.635   0.376   1.782 -0.1422  0.4189  0.4789
 1133SOL    HW2 4531   3.763   0.391   1.861 -0.4808  1.0964  0.9086
 1133SOL     MW 4532   3.710   0.417   1.796  0.2728 -0.0630 -0.2344
 1134SOL     OW 4533   2.101   0.118   5.280  0.4024  0.4684 -0.2648
 1134SOL    HW1 4534   2.195   0.130   5.274  0.5575  1.1921  2.3107
 1134SOL    HW2 4535   2.087   0.025   5.264  1.9611 -0.2917  2.2876
 1134SOL     MW 4536   2.111   0.107   5.277  0.6218  0.4637  0.3916
 1135SOL     OW 4537   4.647   0.236   2.597  0.6388  0.6921 -0.2619
 1135SOL    HW1 4538   4.703   0.241   2.520  2.1463  0.0665  0.7511
 1135SOL    HW2 4539   4.703   0.264   2.670 -0.4548  0.3677  0.7499
 1135SOL     MW 4540   4.661   0.240   2.597  0.6918  0.5705 -0.0027
 1136SOL     OW 4541   3.563   0.284   2.488 -0.1454  0.3828  0.0841
 1136SOL    HW1 4542   3.618   0.248   2.557 -0.0684  1.8089  0.8066
 1136SOL    HW2 4543   3.474   0.277   2.523 -0.2511 -0.2176 -0.2953
 1136SOL     MW 4544   3.558   0.278   2.501 -0.1491  0.4885  0.1280
 1137SOL     OW 4545   2.127   4.789   1.012  0.4218 -0.9641 -0.4167
 1137SOL    HW1 4546   2.051   4.836   0.975 -0.4109  1.4953  3.7818
 1137SOL    HW2 4547   2.089   4.729   1.076  1.9280 -1.2216  0.2653
 1137SOL     MW 4548   2.112   4.788   1.015  0.5080 -0.6823  0.2081
 1138SOL     OW 4549   0.099   3.537   1.007  0.4453 -0.4712  0.2158
 1138SOL    HW1 4550   0.108   3.481   0.930  0.1811 -2.3192  1.4668
 1138SOL    HW2 4551   0.019   3.586   0.992  1.8727  1.3690 -1.9574
 1138SOL     MW 4552   0.090   3.536   0.995  0.5942 -0.4722  0.0977
 1139SOL     OW 4553   2.930   2.501   2.919  0.3227 -0.0101 -0.4339
 1139SOL    HW1 4554   2.872   2.447   2.865  0.4977 -0.6969  0.0597
 1139SOL    HW2 4555   2.871   2.557   2.969 -0.0336 -1.8600  1.3096
 1139SOL     MW 4556   2.915   2.501   2.918  0.2995 -0.3348 -0.1475
 1140SOL     OW 4557   3.214   5.087   4.274 -0.1111 -0.3871 -0.3310
 1140SOL    HW1 4558   3.119   5.087   4.265 -0.2298 -0.1426  0.7839
 1140SOL    HW2 4559   3.230   5.136   4.354  1.0201  0.5417 -1.0942
 1140SOL     MW 4560   3.204   5.094   4.283  0.0185 -0.2369 -0.2860
 1141SOL     OW 4561   1.585   4.367   0.782  0.6578 -0.3227  0.1602
 1141SOL    HW1 4562   1.619   4.386   0.869  0.7420  1.1453 -0.1712
 1141SOL    HW2 4563   1.662   4.344   0.730  0.8373  0.5454  0.0358
 1141SOL     MW 4564   1.599   4.366   0.787  0.6915 -0.0237  0.1018
 1142SOL     OW 4565   1.584   2.160   3.042  0.4981 -0.1255  0.3898
 1142SOL    HW1 4566   1.494   2.130   3.052 -0.2828  1.6848 -0.7788
 1142SOL    HW2 4567   1.589   2.193   2.952  2.0631  0.5959  0.7078
 1142SOL     MW 4568   1.573   2.160   3.032  0.5985  0.1986  0.2809
 1143SOL     OW 4569   2.678   2.381   0.996 -0.1732  0.3515  0.1407
 1143SOL    HW1 4570   2.727   2.300   0.979 -0.2071  0.5181 -0.8139
 1143SOL    HW2 4571   2.667   2.383   1.091  1.5239  0.2201  0.3739
 1143SOL     MW 4572   2.683   2.371   1.006  0.0397  0.3560  0.0484
 1144SOL     OW 4573   0.202   4.981   4.338  0.4891 -0.0058 -0.1451
 1144SOL    HW1 4574   0.107   4.978   4.348  0.3315  2.5482 -0.3423
 1144SOL    HW2 4575   0.229   4.890   4.346 -2.0174 -0.8910 -0.6654
 1144SOL     MW 4576   0.193   4.969   4.340  0.1480  0.2078 -0.2370
 1145SOL     OW 4577   0.020   5.213   0.737  0.6291 -0.2897 -0.6521
 1145SOL    HW1 4578  -0.027   5.130   0.729  0.0588  0.0436 -0.8521
 1145SOL    HW2 4579  -0.002   5.245   0.824 -1.1294  0.8048 -1.4417
 1145SOL     MW 4580   0.011   5.206   0.747  0.3310 -0.1069 -0.7788
 1146SOL     OW 4581   4.920   1.017   3.188 -0.3092  0.0969  0.0759
 1146SOL    HW1 4582   5.000   0.972   3.162  1.2026  3.0663 -0.8824
 1146SOL    HW2 4583   4.933   1.037   3.281 -0.7753 -0.9408  0.3808
 1146SOL     MW 4584   4.932   1.014   3.197 -0.1754  0.3442 -0.0078
 1147SOL     OW 4585   0.155   1.416   1.630  0.1371  0.5779 -0.1589
 1147SOL    HW1 4586   0.162   1.455   1.543  1.6976 -1.0405 -0.8213
 1147SOL    HW2 4587   0.242   1.423   1.667  0.3566 -1.6972 -0.1007
 1147SOL     MW 4588   0.167   1.422   1.624  0.3650  0.0795 -0.2362
 1148SOL     OW 4589   3.039   2.182   3.893 -0.2555 -0.1045 -0.5350
 1148SOL    HW1 4590   3.005   2.118   3.956  0.4520 -0.9988 -1.0274
 1148SOL    HW2 4591   3.021   2.144   3.808 -0.4315  0.6879 -0.8569
 1148SOL     MW 4592   3.033   2.169   3.890 -0.1875 -0.1176 -0.6393
 1149SOL     OW 4593   4.706   3.889   1.999  0.1629 -0.2095 -0.2308
 1149SOL    HW1 4594   4.729   3.862   1.910 -0.7379  2.1936 -1.2755
 1149SOL    HW2 4595   4.614   3.915   1.992  0.4558  1.2540  1.0819
 1149SOL     MW 4596   4.697   3.889   1.986  0.0850  0.2855 -0.1965
 1150SOL     OW 4597   4.011   1.397   0.331  0.1270  0.0887  0.2137
 1150SOL    HW1 4598   4.003   1.332   0.401 -1.1191  0.2555  0.2595
 1150SOL    HW2 4599   3.922   1.404   0.295  0.6765  0.2606 -1.1548
 1150SOL     MW 4600   3.998   1.390   0.336  0.0378  0.1321  0.0444
 1151SOL     OW 4601   1.313   2.691   4.796  0.2413 -0.1146  0.0203
 1151SOL    HW1 4602   1.283   2.764   4.850  0.1414  0.3160 -0.6074
 1151SOL    HW2 4603   1.233   2.642   4.775  0.2421 -0.1101  0.0069
 1151SOL     MW 4604   1.299   2.694   4.800  0.2286 -0.0589 -0.0618
 1152SOL     OW 4605   0.266   5.089   3.652  0.5995  0.2675  0.2579
 1152SOL    HW1 4606   0.200   5.029   3.615  1.2483 -1.3886  1.6219
 1152SOL    HW2 4607   0.301   5.136   3.576 -2.0535  1.1606 -0.5196
 1152SOL     MW 4608   0.262   5.087   3.638  0.3429  0.1699  0.3330
 1153SOL     OW 4609   1.472   2.716   1.255  0.1353 -0.5953  0.1598
 1153SOL    HW1 4610   1.554   2.669   1.270  1.3972  1.9999  2.0990
 1153SOL    HW2 4611   1.492   2.779   1.187  0.4855  1.5110  2.1137
 1153SOL     MW 4612   1.485   2.718   1.248  0.3417  0.0065  0.6582
 1154SOL     OW 4613   4.446   1.549   3.256  0.0814 -0.0672 -0.5555
 1154SOL    HW1 4614   4.496   1.596   3.189  0.3859 -1.6204 -1.4666
 1154SOL    HW2 4615   4.370   1.514   3.210 -0.8874  0.6625  0.4158
 1154SOL     MW 4616   4.443   1.551   3.242 -0.0037 -0.1726 -0.5478
 1155SOL     OW 4617   4.451   4.701   3.744  0.0063  0.5997  0.1582
 1155SOL    HW1 4618   4.435   4.620   3.695 -0.0275  1.1519 -0.7612
 1155SOL    HW2 4619   4.422   4.771   3.685  0.7235  1.3231  0.6376
 1155SOL     MW 4620   4.446   4.699   3.730  0.0938  0.7630  0.1019
 1156SOL     OW 4621   0.914   4.742   3.196 -0.1932  0.0396 -0.1756
 1156SOL    HW1 4622   0.847   4.716   3.133 -1.1172 -0.5968  1.0184
 1156SOL    HW2 4623   0.987   4.682   3.181 -0.7619 -0.6967 -0.0606
 1156SOL     MW 4624   0.915   4.731   3.186 -0.3842 -0.1361 -0.0080
 1157SOL     OW 4625   4.572   0.385   4.664  0.2035  0.1275 -0.0335
 1157SOL    HW1 4626   4.573   0.296   4.630 -0.0371  0.1791 -0.1730
 1157SOL    HW2 4627   4.663   0.415   4.655  0.1341  0.1569 -0.6631
 1157SOL     MW 4628   4.584   0.377   4.659  0.1638  0.1378 -0.1320
 1158SOL     OW 4629   3.260   1.666   2.603  0.5256  0.0898 -0.2244
 1158SOL    HW1 4630   3.204   1.588   2.598  0.0379  0.3982  0.3311
 1158SOL    HW2 4631   3.271   1.693   2.512  0.3887 -0.4119 -0.3923
 1158SOL     MW 4632   3.254   1.659   2.591  0.4456  0.0651 -0.1748
 1159SOL     OW 4633   3.945   1.976   0.378 -0.1340 -0.5056  0.0254
 1159SOL    HW1 4634   3.884   2.013   0.441 -0.1603 -0.1989 -0.1817
 1159SOL    HW2 4635   3.954   2.043   0.310  0.9237 -0.2643  0.3750
 1159SOL     MW 4636   3.939   1.989   0.378 -0.0020 -0.4354  0.0437
 1160SOL     OW 4637   0.365   2.805   4.031  0.3350  0.0829 -0.1616
 1160SOL    HW1 4638   0.429   2.745   4.069 -0.8281 -0.1625  1.5186
 1160SOL    HW2 4639   0.402   2.892   4.045 -0.6204  0.1148  2.9134
 1160SOL     MW 4640   0.378   2.808   4.037  0.0638  0.0556  0.4472
 1161SOL     OW 4641   3.365   2.409   0.571  0.2152  0.4039  0.1749
 1161SOL    HW1 4642   3.370   2.463   0.649 -0.0551  0.0419  0.4437
 1161SOL    HW2 4643   3.289   2.441   0.523  0.3871  0.6322  0.0502
 1161SOL     MW 4644   3.356   2.420   0.575  0.2026  0.3868  0.1933
 1162SOL     OW 4645   4.036   1.358   1.419  0.6642 -0.1456 -0.1768
 1162SOL    HW1 4646   4.065   1.363   1.510  0.9488  2.6231 -0.3092
 1162SOL    HW2 4647   4.113   1.384   1.368 -0.5333  2.4959 -0.8538
 1162SOL     MW 4648   4.050   1.362   1.424  0.5473  0.5470 -0.2804
 1163SOL     OW 4649   4.525   0.603   2.389 -0.1877  0.5922  0.3765
 1163SOL    HW1 4650   4.565   0.687   2.412  1.0506  0.1422 -0.0666
 1163SOL    HW2 4651   4.595   0.554   2.345 -1.1308 -0.3545 -0.1188
 1163SOL     MW 4652   4.539   0.608   2.386 -0.1499  0.4134  0.2563
 1164SOL     OW 4653   2.461   0.671   2.955  0.3718 -0.2545  0.5541
 1164SOL    HW1 4654   2.511   0.694   2.877  1.1200 -1.4732  0.6566
 1164SOL    HW2 4655   2.490   0.583   2.977 -3.1313 -1.8271 -0.4512
 1164SOL     MW 4656   2.471   0.663   2.948  0.0191 -0.6118  0.4385
 1165SOL     OW 4657   3.892   5.017   4.229  0.3373  0.3564 -0.0425
 1165SOL    HW1 4658   3.826   5.022   4.161 -0.3757  1.8635  0.7002
 1165SOL    HW2 4659   3.938   5.102   4.224  0.5302  0.3303  1.0710
 1165SOL     MW 4660   3.889   5.029   4.220  0.2707  0.5460  0.1951
 1166SOL     OW 4661   0.606   3.475   0.345 -0.4584  0.1628  0.0951
 1166SOL    HW1 4662   0.534   3.482   0.282 -0.2558 -1.1296 -0.3045
 1166SOL    HW2 4663   0.563   3.458   0.429 -0.6762  0.8639  0.1340
 1166SOL     MW 4664   0.591   3.474   0.348 -0.4603  0.0871  0.0489
 1167SOL     OW 4665   0.011   2.511   1.417  0.6928  0.0889 -0.5412
 1167SOL    HW1 4666   0.070   2.449   1.461  0.9745 -1.3686 -2.7790
 1167SOL    HW2 4667   0.065   2.589   1.403  1.3213 -0.3006 -0.3601
 1167SOL     MW 4668   0.026   2.513   1.421  0.8093 -0.1475 -0.8045
 1168SOL     OW 4669   1.874   4.690   4.171  0.0204  0.1697 -0.0026
 1168SOL    HW1 4670   1.870   4.644   4.255  1.0391 -0.1565 -0.1192
 1168SOL    HW2 4671   1.835   4.776   4.189 -1.9786 -0.7303  0.1969
 1168SOL     MW 4672   1.868   4.695   4.184 -0.1051  0.0127  0.0080
 1169SOL     OW 4673   2.356   5.465   1.172 -0.1210 -0.2677 -0.1153
 1169SOL    HW1 4674   2.369   5.558   1.156 -0.6864 -0.0031  0.9234
 1169SOL    HW2 4675   2.440   5.425   1.147 -0.6155  0.1973 -2.8205
 1169SOL     MW 4676   2.369   5.472   1.167 -0.2567 -0.1743 -0.3287
 1170SOL     OW 4677   0.708   1.479   1.241  0.7963 -0.6855  0.1365
 1170SOL    HW1 4678   0.662   1.500   1.159  0.4255 -0.0441  0.5055
 1170SOL    HW2 4679   0.653   1.516   1.310  1.7854 -0.0348  0.5979
 1170SOL     MW 4680   0.695   1.487   1.239  0.8754 -0.5201  0.2428
 1171SOL     OW 4681   0.614   1.889   2.575  0.0333  0.2655 -0.3876
 1171SOL    HW1 4682   0.526   1.862   2.550  0.6774 -1.8366 -0.5687
 1171SOL    HW2 4683   0.671   1.851   2.508  1.1800  0.6097  0.3524
 1171SOL     MW 4684   0.610   1.881   2.563  0.2625  0.0404 -0.3160
 1172SOL     OW 4685   4.395   2.382   2.917  0.0132  0.5971  0.3566
 1172SOL    HW1 4686   4.344   2.310   2.880 -0.8258  1.2174  0.2725
 1172SOL    HW2 4687   4.442   2.420   2.842  1.6577 -0.7811  0.6358
 1172SOL     MW 4688   4.394   2.378   2.902  0.1163  0.5001  0.3816
 1173SOL     OW 4689   0.495   4.460   1.402  0.4160 -0.4936 -0.1454
 1173SOL    HW1 4690   0.479   4.379   1.354 -0.0059 -0.1134 -0.6579
 1173SOL    HW2 4691   0.497   4.433   1.494  0.5472 -1.1225 -0.3256
 1173SOL     MW 4692   0.493   4.446   1.408  0.3788 -0.5254 -0.2340
 1174SOL     OW 4693   2.900   2.202   0.801 -0.2197  0.2814 -0.2197
 1174SOL    HW1 4694   2.885   2.143   0.875 -0.3206  0.8882  0.2517
 1174SOL    HW2 4695   2.951   2.273   0.838  0.2492  0.2868 -0.8814
 1174SOL     MW 4696   2.904   2.203   0.816 -0.1726  0.3598 -0.2440
 1175SOL     OW 4697   1.974   1.175   3.742  0.9522 -0.5579 -0.3432
 1175SOL    HW1 4698   2.010   1.119   3.673  2.5869 -1.3545  1.1015
 1175SOL    HW2 4699   2.007   1.138   3.824 -1.2418  0.1135  0.9518
 1175SOL     MW 4700   1.983   1.163   3.744  0.8806 -0.5739  0.0075
 1176SOL     OW 4701   2.584   1.622   4.980  0.0584 -0.1782 -0.3092
 1176SOL    HW1 4702   2.553   1.555   5.041 -0.4441 -0.1720 -0.5510
 1176SOL    HW2 4703   2.643   1.576   4.920 -2.2242 -1.0044 -2.0731
 1176SOL     MW 4704   2.588   1.607   4.980 -0.2981 -0.2831 -0.5659
 1177SOL     OW 4705   0.946   5.108   1.885 -0.2423  0.1526  0.5742
 1177SOL    HW1 4706   1.035   5.111   1.851 -0.4017 -0.7187  0.0655
 1177SOL    HW2 4707   0.923   5.200   1.899 -0.6264  0.7040 -2.9020
 1177SOL     MW 4708   0.955   5.120   1.883 -0.3119  0.1116  0.0641
 1178SOL     OW 4709   4.662   0.920   3.154  0.1522  0.3061  0.0917
 1178SOL    HW1 4710   4.750   0.958   3.160  0.0716  0.7811 -1.4376
 1178SOL    HW2 4711   4.603   0.996   3.154 -0.1255  0.1031 -0.9084
 1178SOL     MW 4712   4.666   0.935   3.155  0.1063  0.3409 -0.2321
 1179SOL     OW 4713   1.926   1.448   2.382 -0.3552 -1.0760 -0.2894
 1179SOL    HW1 4714   1.830   1.451   2.380 -0.3269  0.2710 -0.4948
 1179SOL    HW2 4715   1.949   1.471   2.471 -0.1825  2.3403 -1.0928
 1179SOL     MW 4716   1.916   1.451   2.393 -0.3294 -0.4662 -0.4185
 1180SOL     OW 4717   3.294   2.470   4.861  0.0505  0.0050  0.4482
 1180SOL    HW1 4718   3.362   2.405   4.877  0.3808  0.5222  1.2254
 1180SOL    HW2 4719   3.251   2.441   4.782  0.8670 -0.5986  0.2131
 1180SOL     MW 4720   3.297   2.458   4.853  0.1973 -0.0061  0.5176
 1181SOL     OW 4721   3.833   2.688   5.249 -0.1872  0.6504 -0.0590
 1181SOL    HW1 4722   3.847   2.772   5.206 -0.5159  0.3425 -0.7976
 1181SOL    HW2 4723   3.747   2.659   5.219 -0.6061  0.6004  1.1440
 1181SOL     MW 4724   3.824   2.695   5.239 -0.2829  0.6046  0.0005
 1182SOL     OW 4725   4.962   3.892   4.300  0.0301 -0.5433 -0.1960
 1182SOL    HW1 4726   5.021   3.919   4.229  0.7085  0.2303  0.6347
 1182SOL    HW2 4727   5.015   3.900   4.379 -0.5168 -2.0127  0.3461
 1182SOL     MW 4728   4.976   3.896   4.301  0.0469 -0.6324 -0.0203
 1183SOL     OW 4729   2.160   4.735   3.818 -0.0379  0.3147 -0.1469
 1183SOL    HW1 4730   2.122   4.690   3.743  1.1312 -1.2335  0.1530
 1183SOL    HW2 4731   2.088   4.790   3.851 -0.9896 -0.0412 -1.5275
 1183SOL     MW 4732   2.146   4.736   3.813 -0.0101  0.0709 -0.2853
 1184SOL     OW 4733   0.834   5.365   1.975 -0.7440 -0.3379  0.4102
 1184SOL    HW1 4734   0.782   5.349   1.897  0.5619 -0.9687 -0.3616
 1184SOL    HW2 4735   0.812   5.293   2.034  1.0886 -2.1024 -0.9256
 1184SOL     MW 4736   0.824   5.353   1.973 -0.3422 -0.6446  0.1404
 1185SOL     OW 4737   0.027   4.149   1.997 -0.2726  0.3475  0.3187
 1185SOL    HW1 4738   0.008   4.057   2.016 -2.9005  0.5431 -0.9565
 1185SOL    HW2 4739   0.035   4.152   1.902  0.8779  1.3139  0.4162
 1185SOL     MW 4740   0.026   4.138   1.987 -0.4617  0.4963  0.1679
 1186SOL     OW 4741   0.399   0.074   1.060 -0.2895 -0.3511  0.2091
 1186SOL    HW1 4742   0.404   0.115   1.147 -1.6670  0.6788 -0.1652
 1186SOL    HW2 4743   0.306   0.075   1.039 -0.0571 -1.3662 -0.9386
 1186SOL     MW 4744   0.388   0.080   1.069 -0.4361 -0.3492  0.0142
 1187SOL     OW 4745   1.787   4.655   5.294  0.0578  0.2333 -0.7573
 1187SOL    HW1 4746   1.736   4.665   5.214 -1.1348 -2.1056 -0.3620
 1187SOL    HW2 4747   1.859   4.597   5.270 -0.4865 -0.7409 -0.0880
 1187SOL     MW 4748   1.790   4.649   5.281 -0.1645 -0.1908 -0.6210
 1188SOL     OW 4749   5.172   2.917   1.573  0.2890 -0.7435 -0.0197
 1188SOL    HW1 4750   5.239   2.849   1.567 -0.3419 -1.2944 -1.2864
 1188SOL    HW2 4751   5.099   2.874   1.618  0.5393 -0.3350  0.7968
 1188SOL     MW 4752   5.171   2.903   1.578  0.2403 -0.7617 -0.0773
 1189SOL     OW 4753   0.272   4.273   4.943  0.0742 -0.0684  0.0737
 1189SOL    HW1 4754   0.253   4.301   5.033  0.8138 -0.1950  0.2832
 1189SOL    HW2 4755   0.360   4.308   4.927 -0.6233  1.2438 -1.1359
 1189SOL     MW 4756   0.281   4.281   4.953  0.0796  0.0834 -0.0543
 1190SOL     OW 4757   2.890   4.188   5.217  0.3784  0.9070 -0.5477
 1190SOL    HW1 4758   2.888   4.148   5.130 -0.1358 -0.4633  0.0684
 1190SOL    HW2 4759   2.959   4.254   5.211 -0.3463  1.5937 -2.3014
 1190SOL     MW 4760   2.899   4.191   5.205  0.2198  0.8195 -0.6933
 1191SOL     OW 4761   4.504   2.494   0.786 -0.3199 -0.0551 -0.0728
 1191SOL    HW1 4762   4.425   2.546   0.776 -2.0175 -2.1160  1.5939
 1191SOL    HW2 4763   4.504   2.434   0.711 -1.0063 -0.8265  0.5303
 1191SOL     MW 4764   4.494   2.493   0.775 -0.6251 -0.4177  0.2177
 1192SOL     OW 4765   4.964   1.293   0.432  0.0017  0.2338 -0.1321
 1192SOL    HW1 4766   4.898   1.233   0.396 -0.1782 -0.8403  1.8641
 1192SOL    HW2 4767   4.919   1.377   0.439 -0.5268 -0.0004 -0.6501
 1192SOL     MW 4768   4.950   1.296   0.428 -0.0890  0.0663  0.0571
 1193SOL     OW 4769   0.764   2.239   3.963  0.2903  0.1809  0.1285
 1193SOL    HW1 4770   0.806   2.183   4.028  1.5536  0.5253 -0.3617
 1193SOL    HW2 4771   0.774   2.191   3.881 -0.0655  0.3828 -0.0330
 1193SOL     MW 4772   0.771   2.226   3.961  0.4065  0.2509  0.0451
 1194SOL     OW 4773   3.688   2.210   0.047 -0.4876  0.4933  0.2077
 1194SOL    HW1 4774   3.677   2.119   0.021 -1.1766  0.8250 -0.7297
 1194SOL    HW2 4775   3.674   2.260  -0.033 -1.4707  1.5037  0.9732
 1194SOL     MW 4776   3.685   2.205   0.034 -0.7016  0.6651  0.1857
 1195SOL     OW 4777   3.863   3.004   1.068 -0.0727 -0.3851  0.0939
 1195SOL    HW1 4778   3.898   3.021   0.981  1.4783  0.3687  0.8193
 1195SOL    HW2 4779   3.930   2.951   1.111  0.0954  0.8173  1.4246
 1195SOL     MW 4780   3.876   3.000   1.062  0.1474 -0.1347  0.3571
 1196SOL     OW 4781   4.444   0.644   1.132  0.4880 -0.2318  0.0234
 1196SOL    HW1 4782   4.446   0.551   1.155  0.9838 -0.1261  0.4153
 1196SOL    HW2 4783   4.374   0.651   1.067 -0.7931 -0.5891  1.3165
 1196SOL     MW 4784   4.435   0.633   1.127  0.3874 -0.2640  0.2391
 1197SOL     OW 4785   3.771   4.198   2.935  0.7175 -0.1403  0.3398
 1197SOL    HW1 4786   3.741   4.108   2.947  0.2482  0.0173  0.3525
 1197SOL    HW2 4787   3.867   4.191   2.935  0.7247 -0.4292  1.8940
 1197SOL     MW 4788   3.779   4.186   2.936  0.6584 -0.1571  0.5404
 1198SOL     OW 4789   2.985   5.317   1.104  0.1675  0.2441 -0.0818
 1198SOL    HW1 4790   2.956   5.265   1.180 -1.1983 -0.2390 -0.8845
 1198SOL    HW2 4791   2.922   5.389   1.099  1.0076  0.9937 -0.0198
 1198SOL     MW 4792   2.973   5.319   1.113  0.1002  0.2782 -0.1766
 1199SOL     OW 4793   0.349   5.415   2.956 -0.2099  0.1582  0.4645
 1199SOL    HW1 4794   0.364   5.395   2.863 -1.4402 -0.6126  0.4139
 1199SOL    HW2 4795   0.429   5.459   2.983  0.7522 -0.8222 -0.6165
 1199SOL     MW 4796   0.361   5.418   2.947 -0.2443 -0.0660  0.3197
 1200SOL     OW 4797   0.311   0.392   4.687 -0.3120  0.3043  0.0748
 1200SOL    HW1 4798   0.321   0.398   4.593 -1.9524  2.5337 -0.0352
 1200SOL    HW2 4799   0.223   0.356   4.699 -0.2338  0.3285  0.7596
 1200SOL     MW 4800   0.301   0.388   4.677 -0.5120  0.5928  0.1483
 1201SOL     OW 4801   2.070   2.186   3.565  0.2331  0.2065  0.3166
 1201SOL    HW1 4802   2.155   2.211   3.602  0.2793  2.2915 -1.0358
 1201SOL    HW2 4803   2.085   2.098   3.529  1.5947  0.2297  0.7504
 1201SOL     MW 4804   2.083   2.178   3.565  0.4133  0.4764  0.1990
 1202SOL     OW 4805   2.843   1.800   1.255 -0.0941  0.7152  0.0714
 1202SOL    HW1 4806   2.898   1.832   1.183  1.9396 -2.4821  0.0140
 1202SOL    HW2 4807   2.755   1.795   1.218  1.0085 -1.6585 -2.6596
 1202SOL     MW 4808   2.839   1.804   1.241  0.3074  0.0021 -0.2855
 1203SOL     OW 4809   2.819   0.413   0.772  0.2036 -0.2094 -0.5233
 1203SOL    HW1 4810   2.836   0.404   0.866  0.6922  3.7285 -0.0535
 1203SOL    HW2 4811   2.894   0.464   0.739 -1.9256  2.1933 -2.0787
 1203SOL     MW 4812   2.831   0.419   0.780 -0.0064  0.6023 -0.6622
 1204SOL     OW 4813   4.412   0.305   1.504 -0.0747  0.4114  0.2925
 1204SOL    HW1 4814   4.322   0.274   1.508  0.0796  0.0355  1.2520
 1204SOL    HW2 4815   4.424   0.333   1.414 -1.1803  0.5566  0.1759
 1204SOL     MW 4816   4.402   0.305   1.493 -0.1965  0.3819  0.4004
 1205SOL     OW 4817   1.761   5.430   3.619 -0.0664 -0.6324 -0.2288
 1205SOL    HW1 4818   1.840   5.388   3.651 -0.7089 -3.9553 -2.4443
 1205SOL    HW2 4819   1.780   5.524   3.620  2.5028 -1.0614  2.6010
 1205SOL     MW 4820   1.773   5.436   3.623  0.1803 -1.1127 -0.1502
 1206SOL     OW 4821   0.865   0.475   0.913 -0.0843 -0.1852  0.4458
 1206SOL    HW1 4822   0.837   0.566   0.916  3.9298  1.2506  0.4071
 1206SOL    HW2 4823   0.869   0.448   1.005 -2.0459 -0.6885  0.4271
 1206SOL     MW 4824   0.862   0.483   0.925  0.1784 -0.0658  0.4384
 1207SOL     OW 4825   0.608   5.418   3.275  0.0199 -0.1879  0.0602
 1207SOL    HW1 4826   0.698   5.421   3.308  0.0403  1.5992 -0.0584
 1207SOL    HW2 4827   0.556   5.459   3.345 -0.3157  1.1520 -0.9355
 1207SOL     MW 4828   0.613   5.424   3.288 -0.0204  0.2124 -0.0825
 1208SOL     OW 4829   1.274   0.941   4.845 -0.0916  0.1217  0.8274
 1208SOL    HW1 4830   1.323   0.861   4.826 -0.0157  0.4425 -0.4387
 1208SOL    HW2 4831   1.183   0.913   4.855 -0.2811 -0.0130 -0.8791
 1208SOL     MW 4832   1.269   0.927   4.844 -0.1061  0.1455  0.4469
 1209SOL     OW 4833   0.148   1.931   5.134  0.2845  0.1075  0.2442
 1209SOL    HW1 4834   0.189   1.927   5.221 -0.5631  0.2357  0.6551
 1209SOL    HW2 4835   0.058   1.957   5.151  0.0034 -0.2475 -0.6481
 1209SOL     MW 4836   0.142   1.933   5.147  0.1400  0.0785  0.1826
 1210SOL     OW 4837   5.068   0.382   4.214 -0.2803  0.9240  0.5571
 1210SOL    HW1 4838   5.134   0.448   4.234  0.9588 -0.4029  1.0684
 1210SOL    HW2 4839   5.118   0.301   4.202 -1.5108  0.4346 -2.0858
 1210SOL     MW 4840   5.083   0.380   4.215 -0.2792  0.6915  0.2842
 1211SOL     OW 4841   4.055   0.835   3.558  0.3759 -0.5323  0.5588
 1211SOL    HW1 4842   4.053   0.930   3.568 -0.8379 -0.4075 -0.4820
 1211SOL    HW2 4843   4.088   0.821   3.469  4.6757 -1.3054  2.0763
 1211SOL     MW 4844   4.059   0.846   3.548  0.7709 -0.6153  0.6198
 1212SOL     OW 4845   4.330   2.981   4.299 -0.8651  0.6137  0.0406
 1212SOL    HW1 4846   4.318   2.936   4.214  2.2099 -1.3878  0.5131
 1212SOL    HW2 4847   4.253   2.954   4.350 -0.0807 -2.9015 -0.3216
 1212SOL     MW 4848   4.319   2.972   4.294 -0.3710 -0.0925  0.0547
 1213SOL     OW 4849   1.916   0.339   3.045  0.6297 -0.1039 -0.0902
 1213SOL    HW1 4850   1.915   0.428   3.081  0.2882 -0.1131 -0.0734
 1213SOL    HW2 4851   1.991   0.337   2.987 -0.9875  1.0894 -2.3540
 1213SOL     MW 4852   1.925   0.350   3.042  0.3790  0.0477 -0.3778
 1214SOL     OW 4853   3.925   0.207   4.051 -0.3046  0.0067  0.2725
 1214SOL    HW1 4854   3.857   0.269   4.076  0.8173  0.9983  0.9717
 1214SOL    HW2 4855   3.985   0.206   4.125  0.4469 -0.8399 -0.3264
 1214SOL     MW 4856   3.924   0.215   4.063 -0.0648  0.0252  0.2854
 1215SOL     OW 4857   3.116   1.652   1.873  0.0171  0.2983 -0.1567
 1215SOL    HW1 4858   3.104   1.713   1.945  1.0883 -0.8185  0.9994
 1215SOL    HW2 4859   3.211   1.636   1.869 -0.0585  0.0060 -1.5339
 1215SOL     MW 4860   3.127   1.658   1.881  0.1445  0.1179 -0.1850
 1216SOL     OW 4861   1.075   0.984   5.381 -0.5374  0.6634  0.4250
 1216SOL    HW1 4862   1.051   0.993   5.288 -0.2769  0.4633  0.3367
 1216SOL    HW2 4863   1.094   1.074   5.409  0.9651  0.5648 -0.1549
 1216SOL     MW 4864   1.074   0.997   5.373 -0.3117  0.6252  0.3394
 1217SOL     OW 4865  -0.020   0.292   3.000 -0.1203  0.0209 -0.0281
 1217SOL    HW1 4866   0.049   0.238   2.962 -0.0741 -0.1668  0.3211
 1217SOL    HW2 4867   0.025   0.351   3.060 -0.2912 -0.2948  0.4168
 1217SOL     MW 4868  -0.006   0.293   3.003 -0.1362 -0.0435  0.0736
 1218SOL     OW 4869   2.363   3.913   1.369  0.1092  0.5071 -0.0229
 1218SOL    HW1 4870   2.417   3.992   1.370  0.3860  0.3231 -0.1188
 1218SOL    HW2 4871   2.358   3.889   1.277 -0.2895  0.6249 -0.0308
 1218SOL     MW 4872   2.370   3.920   1.357  0.0936  0.4986 -0.0362
 1219SOL     OW 4873   2.186   0.336   4.169 -0.4259  0.3000  0.0805
 1219SOL    HW1 4874   2.257   0.286   4.210 -1.4228 -1.1868  0.0480
 1219SOL    HW2 4875   2.219   0.355   4.081 -0.2850 -0.9268 -0.1562
 1219SOL     MW 4876   2.200   0.332   4.163 -0.5355 -0.0474  0.0460
 1220SOL     OW 4877   3.483   2.292   2.743 -0.2894  0.1602  0.0759
 1220SOL    HW1 4878   3.391   2.266   2.745 -0.2506 -0.0642 -0.7576
 1220SOL    HW2 4879   3.528   2.224   2.795 -0.5172 -0.0489 -0.0003
 1220SOL     MW 4880   3.477   2.280   2.750 -0.3136  0.1047 -0.0406
 1221SOL     OW 4881   3.009   5.274   4.552  0.7151  0.1866  0.9871
 1221SOL    HW1 4882   3.022   5.179   4.541  1.5236  0.5365 -1.9190
 1221SOL    HW2 4883   3.097   5.311   4.544  0.0578  1.3955 -1.3639
 1221SOL     MW 4884   3.022   5.266   4.550  0.7345  0.3862  0.3141
 1222SOL     OW 4885   3.038   0.094   0.122  0.5064 -0.4189 -0.2659
 1222SOL    HW1 4886   3.098   0.100   0.196  0.5259  2.2298 -0.3976
 1222SOL    HW2 4887   3.091   0.060   0.050  1.1701 -0.5000  0.2591
 1222SOL     MW 4888   3.052   0.091   0.122  0.5938 -0.0902 -0.2156
 1223SOL     OW 4889   0.074   1.153   4.807 -0.1383  0.9226 -0.3196
 1223SOL    HW1 4890   0.120   1.192   4.881  1.0973 -0.2815 -0.4187
 1223SOL    HW2 4891   0.137   1.092   4.769 -1.3787  0.1812 -1.2652
 1223SOL     MW 4892   0.088   1.150   4.811 -0.1389  0.6736 -0.4534
 1224SOL     OW 4893   1.738   3.769   2.223  0.0683  0.0367  0.4072
 1224SOL    HW1 4894   1.801   3.697   2.223 -0.9800 -0.9164  0.6244
 1224SOL    HW2 4895   1.682   3.752   2.299 -0.6515  0.6584  0.0301
 1224SOL     MW 4896   1.739   3.757   2.233 -0.1581 -0.0057  0.3868
 1225SOL     OW 4897   0.064   4.967   2.399 -0.7045 -0.2503 -0.5530
 1225SOL    HW1 4898  -0.014   4.919   2.428 -0.2882  0.4181  1.8245
 1225SOL    HW2 4899   0.138   4.913   2.429 -0.1985 -0.5822 -2.2696
 1225SOL     MW 4900   0.064   4.954   2.406 -0.5864 -0.2072 -0.4684
 1226SOL     OW 4901   5.378   0.133   1.944 -0.0857 -0.3283  0.2713
 1226SOL    HW1 4902   5.392   0.052   1.994 -0.0476 -0.2092  0.4549
 1226SOL    HW2 4903   5.284   0.150   1.953  0.1123  0.3447  1.3205
 1226SOL     MW 4904   5.367   0.125   1.952 -0.0555 -0.2269  0.4291
 1227SOL     OW 4905   1.902   0.371   0.459 -0.1812  0.2563 -0.0750
 1227SOL    HW1 4906   1.844   0.361   0.535 -0.3421  0.2082 -0.2023
 1227SOL    HW2 4907   1.884   0.294   0.406 -1.9595  1.5182 -1.4220
 1227SOL     MW 4908   1.892   0.360   0.462 -0.4294  0.4117 -0.2637
 1228SOL     OW 4909   3.642   3.615   4.465  0.1581  0.2640  0.2153
 1228SOL    HW1 4910   3.586   3.589   4.392 -0.3319 -1.4117  1.1366
 1228SOL    HW2 4911   3.730   3.586   4.440 -0.0697 -0.6348  0.4143
 1228SOL     MW 4912   3.646   3.608   4.452  0.0662 -0.0656  0.3587
 1229SOL     OW 4913   4.568   4.657   2.744  0.4746  0.1709  0.3951
 1229SOL    HW1 4914   4.648   4.609   2.721  0.3888 -0.2396  0.9226
 1229SOL    HW2 4915   4.598   4.745   2.766  0.8582 -0.1461  1.1630
 1229SOL     MW 4916   4.582   4.662   2.744  0.5127  0.0778  0.5609
 1230SOL     OW 4917   5.368   1.927   1.210 -0.0461  0.0639 -0.0322
 1230SOL    HW1 4918   5.306   1.989   1.171  1.1344  1.9916  0.9941
 1230SOL    HW2 4919   5.317   1.847   1.224 -1.9140  1.1240 -0.4827
 1230SOL     MW 4920   5.354   1.925   1.207 -0.1341  0.4464  0.0415
 1231SOL     OW 4921   1.774   3.510   5.086 -0.3888 -0.0565 -0.5901
 1231SOL    HW1 4922   1.865   3.505   5.056 -0.1774 -1.5619  0.2039
 1231SOL    HW2 4923   1.762   3.431   5.139 -2.0935  0.2458 -0.4757
 1231SOL     MW 4924   1.784   3.499   5.089 -0.5799 -0.2105 -0.4738
 1232SOL     OW 4925   0.906   2.931   1.330  0.1697 -0.0334 -0.4428
 1232SOL    HW1 4926   0.836   2.883   1.287 -0.1428  0.3142 -0.3212
 1232SOL    HW2 4927   0.862   2.998   1.383  0.5529 -0.4250  0.3872
 1232SOL     MW 4928   0.892   2.934   1.331  0.1787 -0.0390 -0.3210
 1233SOL     OW 4929   0.257   0.633   2.928 -0.2837  0.0219 -0.5404
 1233SOL    HW1 4930   0.179   0.613   2.876 -0.4514  0.8690 -0.6311
 1233SOL    HW2 4931   0.223   0.648   3.016 -0.3069  0.9590 -0.6992
 1233SOL     MW 4932   0.242   0.632   2.933 -0.3082  0.2503 -0.5723
 1234SOL     OW 4933   1.683   2.603   0.592  0.2592  0.4084 -0.1046
 1234SOL    HW1 4934   1.616   2.668   0.570 -0.1996 -0.1398 -0.3557
 1234SOL    HW2 4935   1.673   2.535   0.525  1.9110  0.9108 -0.9127
 1234SOL     MW 4936   1.673   2.602   0.580  0.4119  0.4025 -0.2402
 1235SOL     OW 4937   4.415   0.484   0.355  0.1262  0.7139  0.1721
 1235SOL    HW1 4938   4.500   0.528   0.366  0.5190 -0.0329  0.2244
 1235SOL    HW2 4939   4.381   0.476   0.444  0.5437 -0.0133  0.2758
 1235SOL     MW 4940   4.422   0.488   0.367  0.2299  0.5252  0.1921
 1236SOL     OW 4941   4.046   1.306   2.041  0.0664  0.1589  0.2296
 1236SOL    HW1 4942   3.989   1.241   1.999 -1.6550  0.4367  2.0094
 1236SOL    HW2 4943   4.020   1.389   2.002 -0.0033  0.1592  0.2762
 1236SOL     MW 4944   4.035   1.308   2.031 -0.1629  0.1945  0.4634
 1237SOL     OW 4945   0.970   0.505   3.755 -0.6484 -0.2908  0.7366
 1237SOL    HW1 4946   0.913   0.534   3.825 -0.2880 -0.0004  0.9115
 1237SOL    HW2 4947   1.056   0.541   3.777 -0.7784  0.8573 -0.4838
 1237SOL     MW 4948   0.974   0.513   3.766 -0.6189 -0.1067  0.6028
 1238SOL     OW 4949   2.659   0.168   0.950 -0.0739 -0.5351  0.3729
 1238SOL    HW1 4950   2.584   0.183   1.008 -0.3470  0.0725 -0.1337
 1238SOL    HW2 4951   2.629   0.098   0.891 -1.0767  1.1549 -1.2346
 1238SOL     MW 4952   2.645   0.161   0.950 -0.2372 -0.2410  0.1022
 1239SOL     OW 4953   2.900   4.292   1.610  0.0653 -0.0836  0.3025
 1239SOL    HW1 4954   2.884   4.383   1.587  0.0240 -0.1640  0.0152
 1239SOL    HW2 4955   2.843   4.242   1.552 -0.9194 -0.2401  1.3678
 1239SOL     MW 4956   2.890   4.297   1.600 -0.0660 -0.1139  0.4021
 1240SOL     OW 4957   0.630   3.638   4.281  0.4209 -0.3531  0.4020
 1240SOL    HW1 4958   0.637   3.734   4.285  1.8800 -0.3597 -1.0261
 1240SOL    HW2 4959   0.542   3.622   4.245 -0.0302  0.4241  1.1318
 1240SOL     MW 4960   0.620   3.648   4.277  0.5500 -0.2545  0.3126
 1241SOL     OW 4961   1.417   1.816   0.910 -0.4622  0.4498 -0.2156
 1241SOL    HW1 4962   1.492   1.858   0.953 -1.2553 -0.1145  1.8670
 1241SOL    HW2 4963   1.389   1.879   0.843  1.8483  0.6524 -1.0611
 1241SOL     MW 4964   1.423   1.830   0.907 -0.2680  0.4035 -0.0573
 1242SOL     OW 4965   1.628   1.948   1.108 -0.2693 -0.0772 -0.0399
 1242SOL    HW1 4966   1.578   1.954   1.189 -0.4603  1.4390 -0.2318
 1242SOL    HW2 4967   1.683   2.027   1.107  0.2662 -0.4371 -1.0296
 1242SOL     MW 4968   1.629   1.959   1.118 -0.2252  0.0708 -0.1911
 1243SOL     OW 4969   4.576   4.966   1.410 -0.3366  0.0730  0.3108
 1243SOL    HW1 4970   4.667   4.948   1.388  0.2558  1.7389  1.1729
 1243SOL    HW2 4971   4.570   4.946   1.504 -0.1988  2.1067  0.7970
 1243SOL     MW 4972   4.587   4.961   1.419 -0.2431  0.5466  0.4834
 1244SOL     OW 4973   1.353   1.496   5.091 -0.1974 -0.5645  0.1111
 1244SOL    HW1 4974   1.339   1.459   5.004 -1.0775  1.1253 -0.5059
 1244SOL    HW2 4975   1.380   1.586   5.075  0.4879 -0.4866  1.5797
 1244SOL     MW 4976   1.354   1.503   5.078 -0.2223 -0.3382  0.2201
 1245SOL     OW 4977   3.760   3.955   3.095 -0.5320  0.2991 -0.2208
 1245SOL    HW1 4978   3.847   3.974   3.131 -1.0217  1.0327  0.6284
 1245SOL    HW2 4979   3.773   3.878   3.039  0.9443  1.2878 -1.3031
 1245SOL     MW 4980   3.773   3.947   3.093 -0.4057  0.5195 -0.2506
 1246SOL     OW 4981   1.677   3.887   5.099 -0.6274 -0.0554 -0.4443
 1246SOL    HW1 4982   1.685   3.819   5.166 -0.2090 -0.5722 -1.0079
 1246SOL    HW2 4983   1.626   3.847   5.029 -0.4051  0.2135 -0.7666
 1246SOL     MW 4984   1.672   3.874   5.098 -0.5454 -0.0871 -0.5577
 1247SOL     OW 4985   1.961   2.994   1.390 -0.0432  0.1821 -0.0896
 1247SOL    HW1 4986   1.938   2.991   1.298  0.8818 -1.2154 -0.3157
 1247SOL    HW2 4987   1.879   3.011   1.435 -0.6315  0.1417 -1.1265
 1247SOL     MW 4988   1.948   2.996   1.384 -0.0001 -0.0020 -0.2513
 1248SOL     OW 4989   1.245   4.331   0.701 -0.7553  0.1804  1.1436
 1248SOL    HW1 4990   1.186   4.362   0.633  0.3690  1.1466  0.5725
 1248SOL    HW2 4991   1.321   4.298   0.653 -1.4863 -2.6787  1.7556
 1248SOL     MW 4992   1.247   4.330   0.686 -0.7050 -0.0619  1.1488
 1249SOL     OW 4993   0.144   2.485   2.264  0.0695 -0.5401 -0.1220
 1249SOL    HW1 4994   0.129   2.502   2.357 -1.2467  1.8031 -0.6956
 1249SOL    HW2 4995   0.115   2.394   2.252 -1.9706 -0.1583  1.3445
 1249SOL     MW 4996   0.138   2.475   2.274 -0.3601 -0.1912 -0.0077
 1250SOL     OW 4997   3.629   2.589   3.661 -0.5088  0.6367  0.0060
 1250SOL    HW1 4998   3.641   2.645   3.738  2.6573 -0.3378  0.3797
 1250SOL    HW2 4999   3.647   2.646   3.586  2.7210  0.3019  0.3830
 1250SOL     MW 5000   3.633   2.603   3.661  0.3099  0.4691  0.1021
 1251SOL     OW 5001   1.510   4.335   4.374  0.3043 -0.1067 -0.1678
 1251SOL    HW1 5002   1.486   4.409   4.319  0.3612 -0.3184 -0.4801
 1251SOL    HW2 5003   1.521   4.261   4.313 -0.4146 -0.5379  0.2149
 1251SOL     MW 5004   1.509   4.335   4.359  0.2196 -0.1890 -0.1588
 1252SOL     OW 5005   0.835   0.950   0.591  0.5852 -0.4064  0.2378
 1252SOL    HW1 5006   0.859   0.965   0.500  0.4426 -1.4548  0.0206
 1252SOL    HW2 5007   0.740   0.938   0.589  0.1721  2.0503  0.8704
 1252SOL     MW 5008   0.826   0.951   0.579  0.5140 -0.2261  0.2910
 1253SOL     OW 5009   3.352   5.262   3.614 -0.1855  0.3377  0.0653
 1253SOL    HW1 5010   3.432   5.301   3.650 -0.2179  0.3918  0.0780
 1253SOL    HW2 5011   3.383   5.185   3.567 -0.4116 -1.3629  2.5480
 1253SOL     MW 5012   3.367   5.257   3.612 -0.2186  0.1269  0.3847
 1254SOL     OW 5013   1.812   2.745   0.148 -0.0856  0.8947  0.0438
 1254SOL    HW1 5014   1.897   2.742   0.191  0.3181  0.5345 -0.7469
 1254SOL    HW2 5015   1.832   2.763   0.056 -0.9740  2.5167  0.1300
 1254SOL     MW 5016   1.825   2.747   0.142 -0.1477  1.0562 -0.0464
 1255SOL     OW 5017   1.432   3.565   1.021  0.0814  0.0024  0.2219
 1255SOL    HW1 5018   1.348   3.520   1.004  0.1961 -0.2150  0.2266
 1255SOL    HW2 5019   1.424   3.597   1.111  0.7007 -1.5854  0.8788
 1255SOL     MW 5020   1.420   3.563   1.030  0.1754 -0.2287  0.3066
 1256SOL     OW 5021   5.034   4.512   4.465 -0.0769 -0.1747  0.1472
 1256SOL    HW1 5022   5.116   4.496   4.512 -0.9971  0.1795  1.9454
 1256SOL    HW2 5023   5.050   4.593   4.416  1.0981 -0.8734 -0.6720
 1256SOL     MW 5024   5.047   4.521   4.465 -0.0443 -0.2188  0.2726
 1257SOL     OW 5025   1.519   2.503   4.861  0.7409  0.1867 -0.4750
 1257SOL    HW1 5026   1.569   2.545   4.931  1.1702 -1.5606  0.3157
 1257SOL    HW2 5027   1.452   2.568   4.838  0.9309  1.0265  1.1746
 1257SOL     MW 5028   1.517   2.517   4.867  0.8201  0.0705 -0.1626
 1258SOL     OW 5029   1.407   0.413   0.161 -0.1619 -0.6479  0.7348
 1258SOL    HW1 5030   1.342   0.383   0.097 -0.9083  0.8030  0.7712
 1258SOL    HW2 5031   1.456   0.481   0.116 -1.5481  1.3280  2.0255
 1258SOL     MW 5032   1.405   0.418   0.147 -0.4349 -0.2092  0.9047
 1259SOL     OW 5033   3.210   4.139   2.252 -0.1723  0.4438  0.2987
 1259SOL    HW1 5034   3.175   4.220   2.214  0.7985  0.2497 -1.1144
 1259SOL    HW2 5035   3.260   4.168   2.328 -0.4991  1.0861  0.2786
 1259SOL     MW 5036   3.212   4.153   2.257 -0.0899  0.5012  0.1152
 1260SOL     OW 5037   0.262   1.924   4.393  0.5097  0.0872 -0.5982
 1260SOL    HW1 5038   0.219   2.001   4.430 -0.3055  0.1781 -1.6655
 1260SOL    HW2 5039   0.228   1.851   4.444 -3.8135 -0.3193 -3.4259
 1260SOL     MW 5040   0.252   1.925   4.404 -0.1481  0.0468 -1.0968
 1261SOL     OW 5041   0.770   3.752   1.747  0.1008 -0.2638  0.1096
 1261SOL    HW1 5042   0.796   3.660   1.734  0.1311 -0.1659 -0.5579
 1261SOL    HW2 5043   0.828   3.783   1.816  0.3843 -0.6299  0.0425
 1261SOL     MW 5044   0.781   3.744   1.754  0.1410 -0.2981  0.0156
 1262SOL     OW 5045   4.224   4.434   1.618 -0.2308  0.0177 -0.2929
 1262SOL    HW1 5046   4.129   4.434   1.627 -0.2390 -0.2160 -0.3763
 1262SOL    HW2 5047   4.251   4.349   1.650  0.2018  1.0233  2.1900
 1262SOL     MW 5048   4.215   4.424   1.623 -0.1765  0.1165  0.0142
 1263SOL     OW 5049   3.945   3.593   0.322 -0.1959  0.1570  0.2852
 1263SOL    HW1 5050   3.944   3.530   0.393  0.3100  0.8152  0.8914
 1263SOL    HW2 5051   4.036   3.596   0.293 -0.9932 -3.3862 -3.4350
 1263SOL     MW 5052   3.957   3.585   0.327 -0.2332 -0.2124 -0.1134
 1264SOL     OW 5053   4.589   4.550   4.976 -0.4970  0.2077  0.0403
 1264SOL    HW1 5054   4.662   4.491   4.956 -1.3531 -0.8808  0.0226
 1264SOL    HW2 5055   4.562   4.526   5.065 -2.1483 -0.8834 -0.6946
 1264SOL     MW 5056   4.595   4.539   4.985 -0.8180 -0.0713 -0.0560
 1265SOL     OW 5057   3.269   1.046   3.917 -0.2723  0.0224 -0.0001
 1265SOL    HW1 5058   3.324   1.112   3.959 -1.0337 -0.0005  1.0671
 1265SOL    HW2 5059   3.184   1.090   3.905 -0.1128 -0.0207 -1.3975
 1265SOL     MW 5060   3.265   1.060   3.921 -0.3493  0.0140 -0.0424
 1266SOL     OW 5061   2.226   2.588   3.927 -0.4451 -0.1860 -0.4938
 1266SOL    HW1 5062   2.303   2.534   3.946 -0.0501  0.5083 -0.0458
 1266SOL    HW2 5063   2.225   2.652   3.998  0.1461  1.5202 -1.9389
 1266SOL     MW 5064   2.236   2.589   3.939 -0.3188  0.1213 -0.6215
 1267SOL     OW 5065   0.280   4.896   2.749  0.2170 -0.2516  0.5298
 1267SOL    HW1 5066   0.289   4.866   2.658 -2.4357  0.1512  0.0616
 1267SOL    HW2 5067   0.300   4.989   2.745 -1.4155  0.1075  0.0032
 1267SOL     MW 5068   0.284   4.904   2.736 -0.3316 -0.1541  0.4025
 1268SOL     OW 5069   3.408   1.493   0.621 -0.0039  0.1117 -0.0052
 1268SOL    HW1 5070   3.465   1.570   0.614  0.1746  0.2656  2.3413
 1268SOL    HW2 5071   3.325   1.521   0.584 -0.4510  2.0451  2.2014
 1268SOL     MW 5072   3.405   1.507   0.616 -0.0383  0.3789  0.5777
 1269SOL     OW 5073   4.876   3.401   2.972  0.4181 -0.3572 -0.2846
 1269SOL    HW1 5074   4.888   3.307   2.957  0.1735 -0.3837 -0.3167
 1269SOL    HW2 5075   4.874   3.409   3.068 -2.1292 -0.7302 -0.2448
 1269SOL     MW 5076   4.878   3.390   2.982  0.0607 -0.4083 -0.2836
 1270SOL     OW 5077   1.082   1.066   2.740 -0.2302  0.3751  0.4350
 1270SOL    HW1 5078   1.064   1.043   2.831  0.2295 -0.1005  0.4117
 1270SOL    HW2 5079   1.153   1.007   2.714 -0.3063  0.5589 -0.2083
 1270SOL     MW 5080   1.089   1.056   2.748 -0.1811  0.3378  0.3496
 1271SOL     OW 5081   0.940   4.569   4.808  0.3528  0.6590 -0.0088
 1271SOL    HW1 5082   0.941   4.473   4.806  2.1885  0.6551 -0.8438
 1271SOL    HW2 5083   0.950   4.591   4.901  0.6885  0.0399  0.1036
 1271SOL     MW 5084   0.941   4.559   4.820  0.6307  0.5793 -0.1013
 1272SOL     OW 5085   2.895   2.554   5.302  0.1600 -0.1298 -0.5768
 1272SOL    HW1 5086   2.951   2.625   5.270 -0.9695  0.3209 -1.5968
 1272SOL    HW2 5087   2.806   2.582   5.283 -0.4690 -0.7489  1.1920
 1272SOL     MW 5088   2.891   2.567   5.296 -0.0651 -0.1513 -0.4810
 1273SOL     OW 5089   5.327   2.198   3.724  0.1837  0.1635  0.1818
 1273SOL    HW1 5090   5.403   2.166   3.675 -1.1334 -1.1423 -1.0941
 1273SOL    HW2 5091   5.263   2.220   3.657 -1.2872 -0.6477  1.2660
 1273SOL     MW 5092   5.329   2.197   3.709 -0.1732 -0.1075  0.1573
 1274SOL     OW 5093   2.765   4.863   2.303  0.2419 -0.4206  0.8179
 1274SOL    HW1 5094   2.697   4.912   2.256  0.4828  0.1767  1.0709
 1274SOL    HW2 5095   2.769   4.906   2.389  0.8431 -0.5375  0.8525
 1274SOL     MW 5096   2.757   4.875   2.308  0.3497 -0.3591  0.8547
 1275SOL     OW 5097   3.125   1.418   2.511 -0.1563  0.3225 -0.1501
 1275SOL    HW1 5098   3.035   1.428   2.481 -0.3144  0.4202  0.3463
 1275SOL    HW2 5099   3.148   1.327   2.491 -0.3371  0.3182 -0.3422
 1275SOL     MW 5100   3.116   1.408   2.505 -0.1997  0.3345 -0.1112
 1276SOL     OW 5101   4.088   1.600   4.273 -0.1620 -0.2177 -0.3859
 1276SOL    HW1 5102   4.056   1.561   4.192  1.0905 -0.1343 -0.9369
 1276SOL    HW2 5103   4.102   1.526   4.332 -3.1905 -0.1389  0.6035
 1276SOL     MW 5104   4.086   1.586   4.271 -0.3894 -0.1969 -0.3298
 1277SOL     OW 5105   1.288   2.077   0.183  0.4923 -0.0803  0.1850
 1277SOL    HW1 5106   1.368   2.066   0.235  1.4212 -2.3214 -1.5604
 1277SOL    HW2 5107   1.299   2.162   0.140  2.0868 -0.4465 -0.2024
 1277SOL     MW 5108   1.300   2.087   0.184  0.8153 -0.4140 -0.0880
 1278SOL     OW 5109   0.813   1.763   2.812  0.0417 -0.0998 -0.6673
 1278SOL    HW1 5110   0.788   1.810   2.891 -2.4587 -1.0307 -0.8092
 1278SOL    HW2 5111   0.840   1.831   2.751  0.0552  0.7914  0.3049
 1278SOL     MW 5112   0.814   1.777   2.814 -0.2767 -0.1048 -0.5610
 1279SOL     OW 5113   2.872   3.769   1.188 -0.2264 -0.0548  0.2120
 1279SOL    HW1 5114   2.912   3.838   1.240  1.3983 -1.0800  0.3792
 1279SOL    HW2 5115   2.907   3.782   1.100 -1.1262  0.2470 -0.1154
 1279SOL     MW 5116   2.881   3.780   1.183 -0.1336 -0.1474  0.1915
 1280SOL     OW 5117   4.902   5.298   1.021  0.2204 -0.0033 -0.7020
 1280SOL    HW1 5118   4.963   5.254   1.082  1.0245  0.9818 -0.7703
 1280SOL    HW2 5119   4.959   5.341   0.958 -0.6024 -0.9215 -2.1230
 1280SOL     MW 5120   4.917   5.298   1.021  0.2180  0.0053 -0.8926
 1281SOL     OW 5121   4.242   2.361   1.907 -0.1773 -0.2805 -0.1705
 1281SOL    HW1 5122   4.208   2.413   1.834  2.7563  2.1591 -0.0044
 1281SOL    HW2 5123   4.336   2.355   1.890  0.1836 -2.0794  2.0082
 1281SOL     MW 5124   4.250   2.367   1.895  0.2445 -0.1985  0.1296
 1282SOL     OW 5125   2.521   0.180   3.274 -0.0234  0.4079  0.3635
 1282SOL    HW1 5126   2.599   0.142   3.233 -0.0859  1.3031 -0.6434
 1282SOL    HW2 5127   2.456   0.110   3.274  0.3251  0.0811 -0.1191
 1282SOL     MW 5128   2.523   0.166   3.269  0.0132  0.4807  0.1728
 1283SOL     OW 5129   4.803   2.753   2.198 -0.0268 -0.0434 -0.4299
 1283SOL    HW1 5130   4.801   2.685   2.266  0.7081 -0.0461 -0.4118
 1283SOL    HW2 5131   4.750   2.824   2.234  1.2026  0.3758  0.6015
 1283SOL     MW 5132   4.796   2.753   2.211  0.2247  0.0099 -0.2955
 1284SOL     OW 5133   4.326   0.344   5.499  0.2996  0.5896  0.1990
 1284SOL    HW1 5134   4.297   0.406   5.432 -2.8098 -0.9979 -0.1109
 1284SOL    HW2 5135   4.334   0.260   5.453 -2.3527 -0.6443  1.7219
 1284SOL     MW 5136   4.324   0.341   5.485 -0.4379  0.2284  0.3543
 1285SOL     OW 5137   4.779   2.337   2.958 -0.6259  0.0476  0.2872
 1285SOL    HW1 5138   4.789   2.429   2.933  0.1295  0.0241  0.4718
 1285SOL    HW2 5139   4.685   2.325   2.966 -0.7387  0.7986  0.2331
 1285SOL     MW 5140   4.768   2.348   2.956 -0.5437  0.1407  0.3039
 1286SOL     OW 5141   3.716   2.799   2.189 -0.0249 -0.1913  0.3804
 1286SOL    HW1 5142   3.643   2.803   2.251 -0.0061  1.2175  0.3404
 1286SOL    HW2 5143   3.793   2.783   2.243 -0.2841 -1.1594  0.4785
 1286SOL     MW 5144   3.716   2.798   2.204 -0.0557 -0.1349  0.3878
 1287SOL     OW 5145   3.683   4.712   0.578 -0.1385 -0.4062  0.4747
 1287SOL    HW1 5146   3.685   4.807   0.569  3.3022 -0.3616 -0.0027
 1287SOL    HW2 5147   3.625   4.695   0.652 -2.2248  1.8733 -0.5193
 1287SOL     MW 5148   3.676   4.722   0.586  0.0348 -0.1087  0.2863
 1288SOL     OW 5149   2.920   4.846   2.845 -0.0435  0.1036 -0.0544
 1288SOL    HW1 5150   2.976   4.894   2.907  0.8687  1.2342 -1.6744
 1288SOL    HW2 5151   2.841   4.899   2.839  0.5562  0.9266 -1.0834
 1288SOL     MW 5152   2.917   4.859   2.852  0.1501  0.3537 -0.3935
 1289SOL     OW 5153   2.217   4.579   0.777 -0.4358  0.1330  0.0639
 1289SOL    HW1 5154   2.240   4.519   0.847  0.3398 -0.0474 -0.3226
 1289SOL    HW2 5155   2.247   4.535   0.697 -2.0702 -0.0427 -0.4741
 1289SOL     MW 5156   2.224   4.566   0.775 -0.5457  0.0874 -0.0544
 1290SOL     OW 5157   5.308   5.056   0.453  0.0955  0.8360 -0.2439
 1290SOL    HW1 5158   5.387   5.036   0.403  0.2218 -0.3177  0.3770
 1290SOL    HW2 5159   5.306   4.989   0.522 -1.9194  0.2722 -0.7942
 1290SOL     MW 5160   5.318   5.045   0.456 -0.1462  0.6161 -0.2348
 1291SOL     OW 5161   3.792   3.976   4.328  0.3877 -0.3432 -0.2027
 1291SOL    HW1 5162   3.743   4.033   4.268  1.3333  1.0148  0.2530
 1291SOL    HW2 5163   3.731   3.957   4.399  0.6934  2.0552  0.8082
 1291SOL     MW 5164   3.778   3.981   4.329  0.5479  0.1377 -0.0150
 1292SOL     OW 5165   5.318   2.551   3.508  0.6082 -0.2582  0.7638
 1292SOL    HW1 5166   5.382   2.621   3.518 -0.1936  0.5923  0.0611
 1292SOL    HW2 5167   5.350   2.501   3.433  0.5769  0.0225  0.5621
 1292SOL     MW 5168   5.330   2.553   3.500  0.5015 -0.1134  0.6480
 1293SOL     OW 5169   0.465   1.201   2.786  0.3781  0.4950 -0.4665
 1293SOL    HW1 5170   0.419   1.125   2.821 -1.2465  1.6117 -0.0913
 1293SOL    HW2 5171   0.557   1.186   2.809  0.0059 -1.0321  0.1531
 1293SOL     MW 5172   0.471   1.190   2.793  0.1225  0.4424 -0.3391
 1294SOL     OW 5173   5.013   5.182   3.589  0.3488  0.2333  0.2737
 1294SOL    HW1 5174   5.065   5.261   3.571  0.8354 -0.1753 -0.1499
 1294SOL    HW2 5175   4.928   5.215   3.619 -0.3742  0.9981 -2.3525
 1294SOL     MW 5176   5.009   5.196   3.590  0.3186  0.2789 -0.1167
 1295SOL     OW 5177   4.785   0.193   3.296  0.1530 -0.0278 -0.4036
 1295SOL    HW1 5178   4.726   0.260   3.262  1.1930  1.1767  0.0868
 1295SOL    HW2 5179   4.803   0.220   3.386 -1.1050 -2.1678  0.5824
 1295SOL     MW 5180   4.780   0.205   3.304  0.1251 -0.1475 -0.2146
 1296SOL     OW 5181   3.491   3.366   4.256  0.1172 -0.5549  0.0741
 1296SOL    HW1 5182   3.433   3.298   4.291 -2.2497  1.1527 -0.3143
 1296SOL    HW2 5183   3.494   3.349   4.162 -2.0451  0.8892 -0.3228
 1296SOL     MW 5184   3.484   3.355   4.249 -0.4626 -0.1514 -0.0264
 1297SOL     OW 5185   0.148   4.672   2.199  0.3269  0.0505  0.4283
 1297SOL    HW1 5186   0.186   4.760   2.199 -2.0588  1.2240 -1.4703
 1297SOL    HW2 5187   0.191   4.627   2.271  1.0837  3.0381  2.0263
 1297SOL     MW 5188   0.158   4.678   2.208  0.1184  0.5831  0.3898
 1298SOL     OW 5189   2.943   2.224   2.383 -0.1851 -0.3642  0.1531
 1298SOL    HW1 5190   2.885   2.274   2.325  0.5724  1.6244  1.0295
 1298SOL    HW2 5191   2.888   2.203   2.459 -0.1930  0.1728  0.2994
 1298SOL     MW 5192   2.928   2.227   2.385 -0.0892 -0.0409  0.2840
 1299SOL     OW 5193   1.203   2.038   2.649 -0.5526 -0.1532  0.1566
 1299SOL    HW1 5194   1.213   1.985   2.728 -1.3348 -0.0921  0.3088
 1299SOL    HW2 5195   1.228   2.126   2.677  0.6554 -0.3993 -0.0728
 1299SOL     MW 5196   1.207   2.043   2.663 -0.4981 -0.1769  0.1467
 1300SOL     OW 5197   3.111   3.029   1.330 -0.0081 -0.5929  0.4679
 1300SOL    HW1 5198   3.086   2.950   1.378  0.8892  0.1353  2.1923
 1300SOL    HW2 5199   3.049   3.096   1.359  1.5370  0.2771  1.9695
 1300SOL     MW 5200   3.100   3.028   1.340  0.3045 -0.3883  0.8809
 1301SOL     OW 5201   0.787   1.906   2.184  0.8005  0.4352 -0.5998
 1301SOL    HW1 5202   0.804   1.812   2.182 -0.8086  0.0895  0.1791
 1301SOL    HW2 5203   0.851   1.941   2.247  1.0037 -0.2325 -0.4250
 1301SOL     MW 5204   0.797   1.899   2.192  0.6206  0.3055 -0.4777
 1302SOL     OW 5205   1.540   0.320   5.251  0.4257 -0.8870 -0.1811
 1302SOL    HW1 5206   1.616   0.373   5.228  2.8687 -3.7058  0.7489
 1302SOL    HW2 5207   1.475   0.340   5.184  2.1723  1.2241 -1.3667
 1302SOL     MW 5208   1.542   0.329   5.240  0.9620 -0.9776 -0.2138
 1303SOL     OW 5209   3.374   2.168   2.408 -0.0829 -0.0588 -0.1377
 1303SOL    HW1 5210   3.447   2.226   2.429  0.0042  0.6824 -2.1830
 1303SOL    HW2 5211   3.304   2.228   2.380 -1.0636 -0.8242  0.6205
 1303SOL     MW 5212   3.374   2.183   2.407 -0.1973 -0.0619 -0.3025
 1304SOL     OW 5213   0.191   2.804   2.503  0.6561 -0.2249  0.5056
 1304SOL    HW1 5214   0.245   2.825   2.427 -1.7580  1.1591 -0.9511
 1304SOL    HW2 5215   0.214   2.871   2.568 -0.3892  1.3629 -0.6985
 1304SOL     MW 5216   0.201   2.816   2.502  0.2133  0.1555  0.1650
 1305SOL     OW 5217   2.494   3.407   0.223 -0.2397 -0.4132  0.0924
 1305SOL    HW1 5218   2.410   3.452   0.215  0.0376 -0.0618 -0.9691
 1305SOL    HW2 5219   2.476   3.316   0.199  0.0062  0.0302 -1.9931
 1305SOL     MW 5220   2.481   3.401   0.219 -0.1727 -0.3114 -0.3104
 1306SOL     OW 5221   4.326   2.872   3.762  0.1079  0.4988 -0.0196
 1306SOL    HW1 5222   4.387   2.925   3.711 -1.0225 -0.7123 -2.7868
 1306SOL    HW2 5223   4.291   2.933   3.827 -0.3241  2.9401 -2.3685
 1306SOL     MW 5224   4.329   2.887   3.764 -0.0921  0.6563 -0.6745
 1307SOL     OW 5225   2.766   2.655   3.082 -0.7061  0.5567  0.1741
 1307SOL    HW1 5226   2.729   2.714   3.016 -0.1197 -2.1199 -2.7760
 1307SOL    HW2 5227   2.700   2.586   3.091  1.1962 -1.6295 -1.3816
 1307SOL     MW 5228   2.753   2.653   3.075 -0.3876 -0.0658 -0.4027
 1308SOL     OW 5229   1.273   2.099   2.245 -0.0150  0.5498  0.3830
 1308SOL    HW1 5230   1.307   2.170   2.191  0.8481  0.2704  0.5424
 1308SOL    HW2 5231   1.287   2.127   2.335 -0.8364  0.7217  0.4628
 1308SOL     MW 5232   1.279   2.111   2.249 -0.0097  0.5361  0.4136
 1309SOL     OW 5233   1.298   5.049   3.021  0.4437 -0.3084  0.2149
 1309SOL    HW1 5234   1.391   5.054   2.998  0.4716 -0.4139  0.3039
 1309SOL    HW2 5235   1.263   4.979   2.967  0.6789 -1.0898  1.0484
 1309SOL     MW 5236   1.305   5.041   3.011  0.4774 -0.4219  0.3330
 1310SOL     OW 5237   2.805   1.951   0.143  0.4236  0.0175 -0.4393
 1310SOL    HW1 5238   2.899   1.933   0.153  0.4971  0.5380 -0.1393
 1310SOL    HW2 5239   2.796   1.981   0.053  0.3947 -0.8913 -0.7549
 1310SOL     MW 5240   2.816   1.952   0.133  0.4293 -0.0322 -0.4413
 1311SOL     OW 5241   2.640   1.975   1.450  0.4277 -0.2357 -0.1796
 1311SOL    HW1 5242   2.601   1.960   1.365 -1.5626 -0.5422  0.7341
 1311SOL    HW2 5243   2.670   1.888   1.478 -1.7449 -0.7581  0.7094
 1311SOL     MW 5244   2.639   1.962   1.443 -0.1052 -0.3418  0.0512
 1312SOL     OW 5245   3.814   4.033   3.605  0.0685 -1.2600  0.6690
 1312SOL    HW1 5246   3.872   3.973   3.558  0.0528 -1.6604  1.1466
 1312SOL    HW2 5247   3.726   4.007   3.580  0.0757  0.4761 -1.4450
 1312SOL     MW 5248   3.810   4.022   3.596  0.0674 -1.0890  0.4596
 1313SOL     OW 5249   4.379   3.391   0.250 -0.3795 -0.3053  0.4067
 1313SOL    HW1 5250   4.392   3.402   0.344 -0.5834  2.3233  0.2104
 1313SOL    HW2 5251   4.297   3.437   0.231 -0.2072 -0.5435 -1.0817
 1313SOL     MW 5252   4.370   3.398   0.259 -0.3835  0.0007  0.1911
 1314SOL     OW 5253   3.202   4.651   4.267 -0.0444  0.1010  0.6433
 1314SOL    HW1 5254   3.285   4.675   4.307  0.8558 -2.2788  0.3239
 1314SOL    HW2 5255   3.224   4.628   4.176 -0.9830 -0.8250  0.6311
 1314SOL     MW 5256   3.215   4.651   4.260 -0.0493 -0.3222  0.6009
 1315SOL     OW 5257   3.319   1.724   4.651  0.0132  0.4092  0.2164
 1315SOL    HW1 5258   3.337   1.630   4.652 -0.6999  0.2605 -0.2073
 1315SOL    HW2 5259   3.248   1.734   4.588 -1.5135  0.9365  1.9207
 1315SOL     MW 5260   3.312   1.713   4.643 -0.2735  0.4576  0.3803
 1316SOL     OW 5261   0.385   2.395   2.132 -0.1032  0.2217  0.2163
 1316SOL    HW1 5262   0.428   2.458   2.075 -0.3275  0.6065  0.4652
 1316SOL    HW2 5263   0.317   2.446   2.178  0.2652 -0.0058  1.0399
 1316SOL     MW 5264   0.382   2.410   2.131 -0.0848  0.2418  0.3536
 1317SOL     OW 5265   3.757   1.341   0.049 -0.3228 -0.0956 -0.0884
 1317SOL    HW1 5266   3.746   1.391   0.130 -0.3162  0.1419 -0.2347
 1317SOL    HW2 5267   3.708   1.261   0.064  1.1337 -0.8598  0.8463
 1317SOL     MW 5268   3.750   1.337   0.062 -0.1355 -0.1630  0.0125
 1318SOL     OW 5269   2.441   3.815   0.359  0.1297 -0.0891  0.0033
 1318SOL    HW1 5270   2.349   3.789   0.365  0.0926  0.1595  0.7071
 1318SOL    HW2 5271   2.441   3.890   0.300  0.0619 -0.8677 -1.0007
 1318SOL     MW 5272   2.429   3.821   0.352  0.1163 -0.1569 -0.0351
 1319SOL     OW 5273   1.294   5.190   0.897  0.0805 -0.3780  0.3025
 1319SOL    HW1 5274   1.216   5.245   0.896  0.0047 -0.4850 -0.7312
 1319SOL    HW2 5275   1.289   5.139   0.817  0.5867 -1.2919  0.8301
 1319SOL     MW 5276   1.284   5.190   0.887  0.1356 -0.5087  0.2377
 1320SOL     OW 5277   1.976   1.352   3.253 -0.4596  0.5469 -0.7720
 1320SOL    HW1 5278   1.955   1.329   3.163 -1.5709  0.3181 -0.4655
 1320SOL    HW2 5279   1.958   1.446   3.259 -0.7512  0.4857 -0.6875
 1320SOL     MW 5280   1.971   1.361   3.243 -0.6392  0.5098 -0.7220
 1321SOL     OW 5281   0.247   1.719   3.803  0.2881  0.3243  0.3192
 1321SOL    HW1 5282   0.278   1.629   3.813 -1.2841 -0.2548  0.1809
 1321SOL    HW2 5283   0.187   1.732   3.877 -0.8623  0.6457 -0.6459
 1321SOL     MW 5284   0.244   1.710   3.814 -0.0604  0.2913  0.1779
 1322SOL     OW 5285   3.859   2.801   5.496  0.0805 -0.0919  0.4001
 1322SOL    HW1 5286   3.854   2.895   5.480  1.1753 -0.1147 -0.1747
 1322SOL    HW2 5287   3.846   2.761   5.410  0.8278 -0.4075  0.4215
 1322SOL     MW 5288   3.857   2.808   5.483  0.3163 -0.1352  0.3293
 1323SOL     OW 5289   5.090   3.089   0.748  0.2039  0.1660 -0.1427
 1323SOL    HW1 5290   5.139   3.024   0.799 -0.4609  0.1608  0.5003
 1323SOL    HW2 5291   5.093   3.056   0.658  0.1682 -0.5782  0.1184
 1323SOL     MW 5292   5.097   3.077   0.743  0.1143  0.0701 -0.0269
 1324SOL     OW 5293   2.858   2.557   3.641 -0.0346  0.2355 -0.1671
 1324SOL    HW1 5294   2.900   2.519   3.719 -0.3209 -2.4807 -1.2450
 1324SOL    HW2 5295   2.771   2.581   3.671  0.2747  0.4052  0.6395
 1324SOL     MW 5296   2.853   2.555   3.655 -0.0316 -0.0905 -0.2018
 1325SOL     OW 5297   3.975   3.643   1.173 -0.0693  0.0637  0.6866
 1325SOL    HW1 5298   3.913   3.618   1.105 -0.1445  0.4895  0.5921
 1325SOL    HW2 5299   3.945   3.730   1.202  0.1704  0.0407  1.0096
 1325SOL     MW 5300   3.963   3.651   1.168 -0.0482  0.1152  0.7159
 1326SOL     OW 5301   2.842   4.725   3.816  0.3224  0.0864  0.0094
 1326SOL    HW1 5302   2.754   4.744   3.848 -0.6423 -2.6508 -0.7027
 1326SOL    HW2 5303   2.873   4.655   3.873  1.9186  0.7576  0.0073
 1326SOL     MW 5304   2.834   4.718   3.827  0.4032 -0.1781 -0.0820
 1327SOL     OW 5305   5.021   0.134   4.652 -0.5125  0.0101 -0.3733
 1327SOL    HW1 5306   5.048   0.171   4.735 -1.1153 -1.7421  0.6647
 1327SOL    HW2 5307   5.101   0.128   4.601  0.0718  0.0549  0.5178
 1327SOL     MW 5308   5.035   0.138   4.656 -0.5149 -0.2084 -0.1263
 1328SOL     OW 5309   4.138   2.407   0.243 -0.7123 -0.3453 -0.5228
 1328SOL    HW1 5310   4.048   2.396   0.211 -0.6094  0.6163 -1.1973
 1328SOL    HW2 5311   4.192   2.411   0.163 -0.0674 -0.9455 -0.1240
 1328SOL     MW 5312   4.133   2.406   0.228 -0.6166 -0.2990 -0.5581
 1329SOL     OW 5313   0.888   1.425   2.765 -0.0266  0.0670 -0.9357
 1329SOL    HW1 5314   0.817   1.481   2.734 -0.6881  0.2262  0.7546
 1329SOL    HW2 5315   0.962   1.485   2.778 -0.7911  0.6666  1.0577
 1329SOL     MW 5316   0.889   1.440   2.763 -0.2091  0.1642 -0.4641
 1330SOL     OW 5317   0.013   0.571   0.381 -0.2781  0.1731 -0.4008
 1330SOL    HW1 5318   0.051   0.563   0.469 -0.5944  0.4549 -0.2387
 1330SOL    HW2 5319   0.075   0.525   0.324 -0.1611 -0.1620 -0.0050
 1330SOL     MW 5320   0.026   0.564   0.385 -0.3036  0.1663 -0.3294
 1331SOL     OW 5321   1.896   3.716   0.356  0.2675 -0.6689  0.2692
 1331SOL    HW1 5322   1.893   3.695   0.263 -3.0630  1.9529 -0.3908
 1331SOL    HW2 5323   1.847   3.644   0.398 -0.1210 -0.7431 -0.2988
 1331SOL     MW 5324   1.889   3.704   0.349 -0.2086 -0.3428  0.1120
 1332SOL     OW 5325   0.854   2.198   0.420 -0.0029  0.1096  0.5433
 1332SOL    HW1 5326   0.820   2.241   0.341 -1.3839 -1.0610  0.4618
 1332SOL    HW2 5327   0.787   2.216   0.487  0.8236  0.5110  1.2935
 1332SOL     MW 5328   0.841   2.206   0.419 -0.0739  0.0111  0.6289
 1333SOL     OW 5329   3.793   1.529   0.248  0.5169  0.0368 -0.2870
 1333SOL    HW1 5330   3.849   1.607   0.240 -0.1360  0.4459 -1.0566
 1333SOL    HW2 5331   3.719   1.559   0.300  0.2213 -0.0460 -0.6584
 1333SOL     MW 5332   3.791   1.543   0.253  0.3955  0.0786 -0.4330
 1334SOL     OW 5333   1.907   0.937   5.371  0.9459 -0.0025  0.7105
 1334SOL    HW1 5334   1.914   0.986   5.453 -1.4199  0.1674  0.8901
 1334SOL    HW2 5335   1.825   0.967   5.332  2.2317  0.3004 -2.0256
 1334SOL     MW 5336   1.897   0.947   5.376  0.8076  0.0580  0.3832
 1335SOL     OW 5337   4.222   1.839   3.191  0.0773  0.3000 -0.1292
 1335SOL    HW1 5338   4.209   1.754   3.150  0.6915 -0.3879  1.0640
 1335SOL    HW2 5339   4.135   1.867   3.218 -0.0186 -0.3292  0.2104
 1335SOL     MW 5340   4.209   1.832   3.189  0.1437  0.1314  0.0670
 1336SOL     OW 5341   4.301   1.783   0.781 -0.1711 -0.3008 -0.0075
 1336SOL    HW1 5342   4.390   1.781   0.747 -0.7071 -0.3600 -1.4980
 1336SOL    HW2 5343   4.310   1.808   0.873  1.2781  0.8634 -0.4383
 1336SOL     MW 5344   4.313   1.786   0.789 -0.0542 -0.1593 -0.2535
 1337SOL     OW 5345   5.148   3.154   4.037  0.1226 -0.1325  0.1255
 1337SOL    HW1 5346   5.139   3.248   4.050 -2.5634 -0.2852 -0.1300
 1337SOL    HW2 5347   5.221   3.145   3.975 -0.8559  1.9141 -1.4166
 1337SOL     MW 5348   5.157   3.165   4.031 -0.3465  0.1099 -0.1046
 1338SOL     OW 5349   5.247   2.136   3.003 -0.6680 -0.2924  0.2578
 1338SOL    HW1 5350   5.163   2.179   3.022 -1.5595 -1.3163 -1.1465
 1338SOL    HW2 5351   5.225   2.043   2.996  0.7433 -0.6689  0.6507
 1338SOL     MW 5352   5.233   2.130   3.005 -0.6015 -0.4716  0.1283
 1339SOL     OW 5353   5.420   2.740   2.594 -0.3221  0.7534 -0.1437
 1339SOL    HW1 5354   5.496   2.777   2.550 -0.7872  1.5072 -0.3295
 1339SOL    HW2 5355   5.447   2.732   2.685  0.2983  0.1301 -0.3707
 1339SOL     MW 5356   5.433   2.744   2.600 -0.3022  0.7701 -0.1966
 1340SOL     OW 5357   4.015   1.931   0.981 -0.2876 -0.5844 -0.7192
 1340SOL    HW1 5358   4.007   1.911   0.888 -2.5021 -2.1242 -0.2827
 1340SOL    HW2 5359   4.007   1.846   1.024  0.7720  0.0887  0.8989
 1340SOL     MW 5360   4.013   1.918   0.975 -0.4354 -0.6954 -0.4562
 1341SOL     OW 5361   2.017   2.849   2.280  0.1176 -0.1859 -0.0916
 1341SOL    HW1 5362   1.982   2.784   2.219 -2.6060 -1.0893  2.2317
 1341SOL    HW2 5363   1.967   2.929   2.262  1.7315  0.6401 -1.2482
 1341SOL     MW 5364   2.006   2.851   2.270 -0.0245 -0.1958  0.0577
 1342SOL     OW 5365   2.972   3.284   2.505 -0.0364 -0.5693  0.0722
 1342SOL    HW1 5366   3.068   3.280   2.494 -0.2162 -3.1826 -1.6421
 1342SOL    HW2 5367   2.940   3.311   2.419 -0.8689  1.0531  0.8574
 1342SOL     MW 5368   2.980   3.287   2.492 -0.1660 -0.6962 -0.0467
 1343SOL     OW 5369   0.688   3.275   0.749 -0.1564  0.8131 -0.3305
 1343SOL    HW1 5370   0.779   3.303   0.763  1.2297 -1.9216 -2.8698
 1343SOL    HW2 5371   0.659   3.244   0.835  2.0211 -0.0749  0.1419
 1343SOL     MW 5372   0.696   3.275   0.762  0.2998  0.3493 -0.5951
 1344SOL     OW 5373   5.019   4.249   5.439 -0.3401 -0.0305  0.0163
 1344SOL    HW1 5374   5.095   4.198   5.409  0.9148  2.1349 -0.7199
 1344SOL    HW2 5375   4.953   4.234   5.372  0.9103  1.2721 -1.5803
 1344SOL     MW 5376   5.020   4.240   5.427 -0.0194  0.4134 -0.2823
 1345SOL     OW 5377   2.184   0.619   4.303  0.4197  0.2438  0.2829
 1345SOL    HW1 5378   2.139   0.620   4.218  1.1307 -0.1535 -0.1032
 1345SOL    HW2 5379   2.193   0.526   4.325 -2.0708  0.3125  2.0637
 1345SOL     MW 5380   2.179   0.607   4.295  0.1919  0.2017  0.4614
 1346SOL     OW 5381   0.551   3.425   3.111  0.2999 -0.0489 -0.2740
 1346SOL    HW1 5382   0.645   3.419   3.091  0.3927  0.5179 -0.0308
 1346SOL    HW2 5383   0.509   3.425   3.025  0.6452  1.5385 -0.4683
 1346SOL     MW 5384   0.558   3.424   3.097  0.3560  0.2269 -0.2677
 1347SOL     OW 5385   3.239   2.613   1.887  0.2181 -0.0127 -0.3228
 1347SOL    HW1 5386   3.306   2.653   1.942 -0.1988 -1.7555  1.5594
 1347SOL    HW2 5387   3.165   2.673   1.891  0.1373 -0.1813  1.1792
 1347SOL     MW 5388   3.238   2.626   1.894  0.1544 -0.2574  0.1104
 1348SOL     OW 5389   0.441   4.789   0.503 -0.1205 -0.0452  0.3897
 1348SOL    HW1 5390   0.487   4.737   0.569  1.1499  0.1223 -0.3225
 1348SOL    HW2 5391   0.511   4.831   0.453 -1.0967  2.0156  0.6458
 1348SOL     MW 5392   0.456   4.788   0.505 -0.0829  0.2400  0.3313
 1349SOL     OW 5393   1.401   5.392   2.956 -0.0117 -0.0299 -0.0273
 1349SOL    HW1 5394   1.421   5.477   2.919  0.3202 -0.3023 -0.4845
 1349SOL    HW2 5395   1.467   5.379   3.024 -0.8077  0.6047  0.9017
 1349SOL     MW 5396   1.412   5.401   2.960 -0.0711  0.0165  0.0331
 1350SOL     OW 5397   0.741   3.117   1.439 -0.1657  0.0508 -0.5531
 1350SOL    HW1 5398   0.685   3.173   1.494 -1.2503 -1.1929 -0.3282
 1350SOL    HW2 5399   0.712   3.028   1.460  1.7099 -0.6258 -0.6899
 1350SOL     MW 5400   0.730   3.113   1.449 -0.0645 -0.1950 -0.5419
 1351SOL     OW 5401   3.025   1.110   4.909 -0.2987  0.9808 -0.4306
 1351SOL    HW1 5402   3.026   1.148   4.821  0.4937  1.2605 -0.3108
 1351SOL    HW2 5403   3.017   1.016   4.895  2.1833  0.7781 -0.9135
 1351SOL     MW 5404   3.024   1.103   4.896  0.1205  0.9907 -0.4771
 1352SOL     OW 5405   5.468   3.911   2.105  0.0005  0.3614  0.5751
 1352SOL    HW1 5406   5.537   3.846   2.120  0.1476  0.1348 -0.9229
 1352SOL    HW2 5407   5.413   3.872   2.037 -0.0235  1.6950 -0.2124
 1352SOL     MW 5408   5.470   3.898   2.098  0.0162  0.5031  0.2826
 1353SOL     OW 5409   1.483   2.476   2.305  0.2293 -0.0865  0.0584
 1353SOL    HW1 5410   1.434   2.509   2.230  0.2573  0.4030  0.2508
 1353SOL    HW2 5411   1.536   2.551   2.333 -1.6394  0.5718  2.1360
 1353SOL     MW 5412   1.484   2.490   2.299 -0.0063  0.0604  0.3490
 1354SOL     OW 5413   2.304   1.165   1.322  0.1324 -0.0647  0.1407
 1354SOL    HW1 5414   2.232   1.216   1.360 -0.2880 -1.9179  2.0887
 1354SOL    HW2 5415   2.383   1.204   1.359 -0.1278 -0.1909  0.8610
 1354SOL     MW 5416   2.305   1.177   1.332  0.0453 -0.3181  0.4822
 1355SOL     OW 5417   0.143   3.766   3.626  0.2520 -0.1487  0.0961
 1355SOL    HW1 5418   0.050   3.757   3.647  0.5815 -0.0435  1.6470
 1355SOL    HW2 5419   0.175   3.676   3.622  0.3163 -0.1538  0.6678
 1355SOL     MW 5420   0.135   3.753   3.628  0.3024 -0.1359  0.3678
 1356SOL     OW 5421   4.404   1.389   0.500  0.1479 -0.4726 -0.1918
 1356SOL    HW1 5422   4.328   1.342   0.535  0.5314 -1.2490 -0.3765
 1356SOL    HW2 5423   4.456   1.321   0.456  1.0932 -0.0016  0.1719
 1356SOL     MW 5424   4.401   1.374   0.499  0.3180 -0.5117 -0.1689
 1357SOL     OW 5425   2.731   5.048   1.426  0.2311 -0.4286  0.1714
 1357SOL    HW1 5426   2.644   5.045   1.467  0.8743  0.5846  1.7473
 1357SOL    HW2 5427   2.790   5.066   1.499  1.3452  2.7647 -1.3172
 1357SOL     MW 5428   2.727   5.050   1.441  0.4561  0.1099  0.1826
 1358SOL     OW 5429   4.271   0.569   2.734 -0.7323 -0.6000 -0.1845
 1358SOL    HW1 5430   4.306   0.588   2.821 -1.8616  1.7416 -0.1648
 1358SOL    HW2 5431   4.348   0.546   2.682  0.1836 -0.3769  1.0133
 1358SOL     MW 5432   4.285   0.569   2.739 -0.7596 -0.2717 -0.0286
 1359SOL     OW 5433   1.252   4.922   3.586 -0.3056 -0.0028  1.1315
 1359SOL    HW1 5434   1.209   4.872   3.656 -2.4191 -1.6841 -1.1997
 1359SOL    HW2 5435   1.203   4.900   3.507  2.9094  0.6196 -1.2137
 1359SOL     MW 5436   1.240   4.913   3.585 -0.1646 -0.1384  0.5329
 1360SOL     OW 5437   4.757   2.298   1.336 -0.0372 -0.2213  0.1998
 1360SOL    HW1 5438   4.706   2.379   1.344  0.3507 -0.0327  0.7776
 1360SOL    HW2 5439   4.691   2.228   1.335 -0.6077  0.1944 -3.0160
 1360SOL     MW 5440   4.742   2.299   1.337 -0.0606 -0.1440 -0.1379
 1361SOL     OW 5441   2.615   0.759   0.775  0.0548 -0.1895 -0.0807
 1361SOL    HW1 5442   2.608   0.693   0.706 -0.6274  1.0714 -1.2868
 1361SOL    HW2 5443   2.677   0.824   0.740 -0.6219  0.6861  0.2861
 1361SOL     MW 5444   2.622   0.759   0.761 -0.1192  0.0840 -0.1881
 1362SOL     OW 5445   3.704   4.476   4.978 -0.1536 -0.1696  0.9470
 1362SOL    HW1 5446   3.686   4.481   4.884  0.4279 -1.3059  0.7658
 1362SOL    HW2 5447   3.634   4.421   5.014 -0.8103  0.8757  1.3187
 1362SOL     MW 5448   3.692   4.470   4.971 -0.1632 -0.1812  0.9714
 1363SOL     OW 5449   0.489   4.208   1.287  0.0990  0.0586 -0.0200
 1363SOL    HW1 5450   0.580   4.192   1.264  0.7199  0.1633  2.1216
 1363SOL    HW2 5451   0.481   4.177   1.377 -1.6639  1.1330  0.2514
 1363SOL     MW 5452   0.500   4.202   1.296 -0.0472  0.2096  0.2889
 1364SOL     OW 5453   4.453   1.237   1.006  0.1925 -0.1104  0.0839
 1364SOL    HW1 5454   4.464   1.215   0.914  3.5758 -1.9578  0.7525
 1364SOL    HW2 5455   4.423   1.156   1.047  2.7862 -0.6710  1.0960
 1364SOL     MW 5456   4.450   1.224   0.999  0.9576 -0.4186  0.2991
 1365SOL     OW 5457   1.850   1.819   2.032 -0.4546 -0.3573 -0.6875
 1365SOL    HW1 5458   1.775   1.802   1.976 -1.4561  1.2618  0.0961
 1365SOL    HW2 5459   1.880   1.907   2.007  0.7156 -0.6772 -0.4767
 1365SOL     MW 5460   1.845   1.828   2.022 -0.4330 -0.1910 -0.5602
 1366SOL     OW 5461   2.798   5.053   4.457  0.0980 -0.3574  0.1556
 1366SOL    HW1 5462   2.778   4.969   4.499 -1.1968 -0.4618 -0.6023
 1366SOL    HW2 5463   2.755   5.118   4.512  0.4111 -0.2611  0.2902
 1366SOL     MW 5464   2.790   5.050   4.469 -0.0277 -0.3584  0.0758
 1367SOL     OW 5465   3.090   4.201   0.732  0.0226  0.0080 -0.8819
 1367SOL    HW1 5466   3.131   4.201   0.646  3.1833 -2.5708  0.4000
 1367SOL    HW2 5467   3.143   4.260   0.784 -0.8404  0.2715 -0.2727
 1367SOL     MW 5468   3.102   4.208   0.728  0.3167 -0.2884 -0.6398
 1368SOL     OW 5469   0.906   0.767   1.249  0.2669 -0.2647 -0.2076
 1368SOL    HW1 5470   0.994   0.755   1.213 -0.1956 -0.4044 -1.3263
 1368SOL    HW2 5471   0.860   0.819   1.183 -0.6923 -0.7555  0.0552
 1368SOL     MW 5472   0.911   0.772   1.236  0.0849 -0.3454 -0.3172
 1369SOL     OW 5473   1.277   4.538   4.497 -0.3072 -0.1364 -0.2697
 1369SOL    HW1 5474   1.359   4.522   4.545 -0.2537  1.3448  0.1626
 1369SOL    HW2 5475   1.274   4.633   4.486 -0.9972 -0.3286 -2.0329
 1369SOL     MW 5476   1.287   4.548   4.502 -0.3887  0.0286 -0.4401
 1370SOL     OW 5477   3.442   3.017   4.224 -0.5971 -0.6364  0.3308
 1370SOL    HW1 5478   3.503   2.974   4.283  0.3877  0.3334  0.0407
 1370SOL    HW2 5479   3.392   3.076   4.279  1.4825  1.5493  0.0122
 1370SOL     MW 5480   3.443   3.019   4.238 -0.2048 -0.2325  0.2529
 1371SOL     OW 5481   4.329   3.891   3.415  0.6546  0.2610 -0.4147
 1371SOL    HW1 5482   4.318   3.924   3.504  0.4873  0.1568 -0.3963
 1371SOL    HW2 5483   4.420   3.862   3.411  1.1581  1.8301 -0.8060
 1371SOL     MW 5484   4.339   3.891   3.426  0.6976  0.4485 -0.4625
 1372SOL     OW 5485   4.686   3.616   1.099 -0.5876  0.1241  0.2703
 1372SOL    HW1 5486   4.669   3.532   1.143 -1.3200  0.7596  1.2302
 1372SOL    HW2 5487   4.781   3.627   1.106 -0.1662 -1.5831 -1.6862
 1372SOL     MW 5488   4.696   3.606   1.105 -0.6274 -0.0131  0.1428
 1373SOL     OW 5489   2.216   3.512   1.346  0.5576 -0.2368 -0.0807
 1373SOL    HW1 5490   2.260   3.532   1.429 -0.7125 -1.3655  0.9037
 1373SOL    HW2 5491   2.210   3.417   1.344 -1.1493 -0.1507 -0.5562
 1373SOL     MW 5492   2.221   3.502   1.356  0.1765 -0.3703 -0.0155
 1374SOL     OW 5493   3.232   3.952   5.052 -0.2376 -0.4805  0.3680
 1374SOL    HW1 5494   3.250   3.956   5.146 -0.4961 -0.4324  0.4185
 1374SOL    HW2 5495   3.237   3.858   5.031 -0.4895 -0.5264  0.4978
 1374SOL     MW 5496   3.235   3.940   5.061 -0.3029 -0.4802  0.3911
 1375SOL     OW 5497   0.330   1.628   0.490  0.1886 -0.4776  0.0909
 1375SOL    HW1 5498   0.335   1.602   0.582  0.4517 -3.1069 -0.5984
 1375SOL    HW2 5499   0.244   1.670   0.482  0.1765 -0.1513  1.5223
 1375SOL     MW 5500   0.320   1.630   0.501  0.2207 -0.7724  0.1859
 1376SOL     OW 5501   0.420   4.303   1.017 -0.4118 -0.4932 -0.3140
 1376SOL    HW1 5502   0.447   4.394   1.007  0.8787 -1.0455 -2.4143
 1376SOL    HW2 5503   0.452   4.278   1.104  3.3449 -0.2114 -1.4566
 1376SOL     MW 5504   0.428   4.311   1.027  0.2343 -0.5278 -0.7292
 1377SOL     OW 5505   5.361   3.815   0.427  0.4014 -0.0695  0.3658
 1377SOL    HW1 5506   5.344   3.765   0.347  0.3020 -0.7395  0.8044
 1377SOL    HW2 5507   5.416   3.758   0.481  2.0407  1.0884  0.0177
 1377SOL     MW 5508   5.366   3.802   0.424  0.5985 -0.0070  0.3774
 1378SOL     OW 5509   1.388   0.432   3.629 -0.0731  0.0633  0.3633
 1378SOL    HW1 5510   1.466   0.383   3.601  0.0247 -0.7749  2.0133
 1378SOL    HW2 5511   1.315   0.375   3.607 -0.0051 -0.5305  1.5939
 1378SOL     MW 5512   1.389   0.418   3.622 -0.0519 -0.1200  0.7321
 1379SOL     OW 5513   4.831   3.911   1.458 -0.6121 -0.0695  0.2225
 1379SOL    HW1 5514   4.802   4.002   1.455 -0.6083 -0.0831 -2.2027
 1379SOL    HW2 5515   4.753   3.860   1.435 -0.0532 -0.4612 -0.9322
 1379SOL     MW 5516   4.817   3.916   1.454 -0.5401 -0.1214 -0.2357
 1380SOL     OW 5517   0.588   0.253   4.987  0.1634 -1.1523  0.0967
 1380SOL    HW1 5518   0.552   0.335   5.022  0.7501 -0.7779 -0.1693
 1380SOL    HW2 5519   0.664   0.235   5.042  0.6858 -0.9277 -0.5370
 1380SOL     MW 5520   0.593   0.261   4.999  0.3054 -1.0757 -0.0185
 1381SOL     OW 5521   0.909   2.661   0.248 -0.1917  0.1737  0.1129
 1381SOL    HW1 5522   0.818   2.635   0.256 -0.4079  0.9874  0.3614
 1381SOL    HW2 5523   0.943   2.661   0.338 -0.7204  2.5492  0.3678
 1381SOL     MW 5524   0.902   2.658   0.260 -0.2870  0.5819  0.1774
 1382SOL     OW 5525   0.632   2.892   1.522 -0.1391 -0.4311 -0.2646
 1382SOL    HW1 5526   0.545   2.909   1.484 -0.9244 -2.1601  0.6530
 1382SOL    HW2 5527   0.657   2.807   1.487  0.9170 -0.2478  0.0055
 1382SOL     MW 5528   0.624   2.884   1.512 -0.1045 -0.6289 -0.1125
 1383SOL     OW 5529   4.786   0.580   3.938 -0.0832 -0.2933  0.1760
 1383SOL    HW1 5530   4.714   0.638   3.964  0.8891  0.2388  1.8276
 1383SOL    HW2 5531   4.773   0.502   3.991  1.5077  0.5082  1.8410
 1383SOL     MW 5532   4.775   0.578   3.948  0.2449 -0.1226  0.6006
 1384SOL     OW 5533   1.037   2.134   1.744  0.4355 -0.4550 -0.5132
 1384SOL    HW1 5534   0.972   2.149   1.676  1.2205 -0.0458 -1.2045
 1384SOL    HW2 5535   0.994   2.077   1.807 -1.4511  1.7493  0.3231
 1384SOL     MW 5536   1.024   2.129   1.743  0.2945 -0.1205 -0.4946
 1385SOL     OW 5537   4.708   0.689   4.662  0.7382  0.2031 -0.2329
 1385SOL    HW1 5538   4.629   0.724   4.703  1.2218  0.6426  0.3429
 1385SOL    HW2 5539   4.690   0.695   4.568  0.3328  0.8984 -0.1237
 1385SOL     MW 5540   4.696   0.695   4.655  0.7482  0.3484 -0.1452
 1386SOL     OW 5541   3.822   0.978   0.636  0.6571  0.0162 -0.2061
 1386SOL    HW1 5542   3.772   1.026   0.702  1.1202 -0.1270  0.2549
 1386SOL    HW2 5543   3.838   1.043   0.568  0.1014  0.1429 -0.2259
 1386SOL     MW 5544   3.818   0.992   0.636  0.6452  0.0141 -0.1496
 1387SOL     OW 5545   2.821   5.266   5.111 -0.8183  0.3853 -0.6749
 1387SOL    HW1 5546   2.883   5.308   5.170  0.2374  0.3907 -1.7419
 1387SOL    HW2 5547   2.735   5.293   5.143 -0.2929  0.3892  0.8278
 1387SOL     MW 5548   2.818   5.275   5.123 -0.6159  0.3865 -0.6191
 1388SOL     OW 5549   2.771   2.546   0.524 -0.2787 -0.0622  0.0785
 1388SOL    HW1 5550   2.741   2.630   0.490 -0.1099 -0.2291 -0.4880
 1388SOL    HW2 5551   2.738   2.481   0.462  1.0945 -0.2636 -0.4919
 1388SOL     MW 5552   2.763   2.548   0.512 -0.0813 -0.1093 -0.0670
 1389SOL     OW 5553   2.990   4.222   4.371 -0.1023 -0.2061 -0.0849
 1389SOL    HW1 5554   2.940   4.162   4.425 -3.0196  1.3899 -0.8161
 1389SOL    HW2 5555   3.045   4.270   4.433 -3.0976  1.3541  1.5470
 1389SOL     MW 5556   2.991   4.220   4.385 -0.8592  0.1979  0.0304
 1390SOL     OW 5557   3.868   1.895   4.352  0.5216 -0.4864  0.4594
 1390SOL    HW1 5558   3.790   1.888   4.297  0.2699  0.3964  0.6777
 1390SOL    HW2 5559   3.884   1.806   4.384 -0.3210 -0.6990  0.3114
 1390SOL     MW 5560   3.860   1.883   4.349  0.3815 -0.4006  0.4684
 1391SOL     OW 5561   1.478   4.289   4.003 -0.0779 -0.1228  0.0075
 1391SOL    HW1 5562   1.420   4.363   4.022  0.9045  0.4038  1.0345
 1391SOL    HW2 5563   1.557   4.328   3.968  0.3672 -0.6966  0.3450
 1391SOL     MW 5564   1.481   4.303   4.001  0.1048 -0.1288  0.1822
 1392SOL     OW 5565   4.374   5.076   3.674  0.5652  0.1254  0.6274
 1392SOL    HW1 5566   4.314   5.033   3.735 -1.1484  0.6563 -0.5978
 1392SOL    HW2 5567   4.396   5.009   3.610  3.5517 -0.8734  2.5151
 1392SOL     MW 5568   4.369   5.062   3.673  0.7281  0.0655  0.7122
 1393SOL     OW 5569   1.756   4.207   0.151  0.0251 -0.2923  0.7912
 1393SOL    HW1 5570   1.803   4.196   0.234 -0.4492 -0.9850  0.9850
 1393SOL    HW2 5571   1.789   4.135   0.096  0.3171  0.1480  0.3865
 1393SOL     MW 5572   1.766   4.196   0.155  0.0018 -0.3246  0.7642
 1394SOL     OW 5573   1.621   3.226   1.862  0.5372 -0.7706  0.4210
 1394SOL    HW1 5574   1.539   3.183   1.885 -1.5875  1.4964 -2.2529
 1394SOL    HW2 5575   1.663   3.244   1.946 -1.5581 -2.2318  1.8648
 1394SOL     MW 5576   1.616   3.223   1.876 -0.0030 -0.6674  0.2635
 1395SOL     OW 5577   0.460   2.766   1.851 -0.1878 -0.1115 -0.0890
 1395SOL    HW1 5578   0.503   2.707   1.913 -0.2380 -0.4137 -0.3408
 1395SOL    HW2 5579   0.372   2.731   1.841 -0.3676  0.2753  0.1165
 1395SOL     MW 5580   0.454   2.754   1.857 -0.2173 -0.1007 -0.0949
 1396SOL     OW 5581   2.753   1.552   3.048  0.4262 -0.7945  0.2607
 1396SOL    HW1 5582   2.780   1.626   2.994  2.1011 -2.1565 -0.8772
 1396SOL    HW2 5583   2.710   1.492   2.988  1.6057 -1.9846  0.5600
 1396SOL     MW 5584   2.751   1.554   3.034  0.7916 -1.1212  0.1534
 1397SOL     OW 5585   1.085   4.615   2.137 -0.2533 -0.1790 -0.8195
 1397SOL    HW1 5586   1.084   4.696   2.086 -3.0483  1.2517  1.2573
 1397SOL    HW2 5587   1.031   4.554   2.087 -2.2629  0.9358 -0.1295
 1397SOL     MW 5588   1.078   4.618   2.124 -0.8683  0.1469 -0.4653
 1398SOL     OW 5589   2.377   0.913   2.252  0.4215 -0.7588 -0.1869
 1398SOL    HW1 5590   2.312   0.979   2.276 -1.1912 -2.2075 -0.3301
 1398SOL    HW2 5591   2.433   0.957   2.187 -1.0966  0.2395 -0.8894
 1398SOL     MW 5592   2.375   0.927   2.247  0.0208 -0.8165 -0.2952
 1399SOL     OW 5593   0.195   2.504   3.985  0.2837 -0.5769 -0.5259
 1399SOL    HW1 5594   0.121   2.464   3.938 -0.3922 -0.1901  0.1817
 1399SOL    HW2 5595   0.196   2.595   3.955 -1.6155  0.3201  1.8373
 1399SOL     MW 5596   0.185   2.510   3.975 -0.0459 -0.4125 -0.1328
 1400SOL     OW 5597   0.832   1.732   4.800 -0.0709 -0.1524 -0.3341
 1400SOL    HW1 5598   0.818   1.806   4.860  1.2022 -0.3835  0.2840
 1400SOL    HW2 5599   0.864   1.773   4.719  2.0668 -0.0733  0.4891
 1400SOL     MW 5600   0.834   1.747   4.797  0.3657 -0.1718 -0.1496
 1401SOL     OW 5601   5.237   1.575   2.623 -0.0726 -0.0436 -0.0969
 1401SOL    HW1 5602   5.250   1.526   2.704 -0.3442  0.3682  0.1974
 1401SOL    HW2 5603   5.181   1.519   2.570  0.5930 -0.5833 -0.2510
 1401SOL     MW 5604   5.232   1.562   2.626 -0.0221 -0.0599 -0.0790
 1402SOL     OW 5605   2.944   1.834   3.196 -0.4544 -0.4158 -0.0959
 1402SOL    HW1 5606   2.914   1.924   3.181  1.6050  0.4295  0.4942
 1402SOL    HW2 5607   2.924   1.817   3.288  0.4159 -0.0223  0.1736
 1402SOL     MW 5608   2.938   1.843   3.206 -0.0793 -0.2572  0.0141
 1403SOL     OW 5609   2.910   3.552   1.712  0.1381  0.4213  0.0670
 1403SOL    HW1 5610   2.932   3.459   1.712 -1.3195  0.0488  1.1248
 1403SOL    HW2 5611   2.904   3.575   1.805 -0.8062  1.2385 -0.1848
 1403SOL     MW 5612   2.912   3.543   1.724 -0.1694  0.4782  0.1702
 1404SOL     OW 5613   3.472   3.090   1.954  0.5584  0.1156  0.1041
 1404SOL    HW1 5614   3.414   3.022   1.987 -1.3960  2.0825  0.9350
 1404SOL    HW2 5615   3.557   3.071   1.994 -0.9825  0.6520  4.0699
 1404SOL     MW 5616   3.476   3.079   1.963  0.1110  0.4360  0.7182
 1405SOL     OW 5617   4.623   3.393   1.245  0.1042 -0.4720 -0.7288
 1405SOL    HW1 5618   4.704   3.362   1.204 -0.0465  0.0560 -1.4496
 1405SOL    HW2 5619   4.565   3.318   1.244 -0.0796 -0.3379 -1.9901
 1405SOL     MW 5620   4.626   3.380   1.239  0.0614 -0.3872 -0.9826
 1406SOL     OW 5621   4.972   3.664   0.324  0.6384  0.3575  0.5376
 1406SOL    HW1 5622   4.899   3.711   0.284  1.1223 -0.5314 -1.5208
 1406SOL    HW2 5623   4.942   3.573   0.328  1.8244 -0.1363 -0.9528
 1406SOL     MW 5624   4.959   3.658   0.320  0.8522  0.1805  0.0833
 1407SOL     OW 5625   3.687   1.602   4.871 -0.1546 -0.5853  0.2387
 1407SOL    HW1 5626   3.693   1.697   4.880 -0.5539 -0.6322  1.1401
 1407SOL    HW2 5627   3.771   1.576   4.832 -0.4885  0.2411 -1.0767
 1407SOL     MW 5628   3.699   1.611   4.867 -0.2485 -0.4855  0.1857
 1408SOL     OW 5629   2.042   3.042   5.463 -0.1653  0.4269  0.3022
 1408SOL    HW1 5630   2.002   2.956   5.458  0.6003  0.0170  1.0740
 1408SOL    HW2 5631   1.976   3.098   5.504  0.0887 -0.2651  1.6714
 1408SOL     MW 5632   2.029   3.038   5.467 -0.0348  0.2859  0.5763
 1409SOL     OW 5633   0.247   2.953   2.993 -0.0142 -0.0144  0.0283
 1409SOL    HW1 5634   0.333   2.989   3.017  0.6484 -0.9463 -0.8246
 1409SOL    HW2 5635   0.217   2.908   3.071  0.2005  0.4476  0.3835
 1409SOL     MW 5636   0.254   2.952   3.006  0.0981 -0.0745 -0.0354
 1410SOL     OW 5637   2.738   0.088   3.635  0.0425 -0.0013  0.0832
 1410SOL    HW1 5638   2.675   0.160   3.625  0.2784 -0.0277 -2.0212
 1410SOL    HW2 5639   2.685   0.013   3.664 -0.4848  0.5574  0.5931
 1410SOL     MW 5640   2.723   0.088   3.638  0.0052  0.0669 -0.1209
 1411SOL     OW 5641   1.227   2.599   1.354  0.1006  0.6805 -0.3420
 1411SOL    HW1 5642   1.204   2.541   1.281  0.5789 -0.5238  0.4483
 1411SOL    HW2 5643   1.296   2.655   1.318 -0.3707  0.7861 -1.1153
 1411SOL     MW 5644   1.233   2.599   1.340  0.1015  0.5399 -0.3398
 1412SOL     OW 5645   0.833   4.504   4.192 -0.0965 -0.4924 -0.4590
 1412SOL    HW1 5646   0.774   4.487   4.118 -0.8797  2.1504 -0.5183
 1412SOL    HW2 5647   0.866   4.592   4.177 -1.0973  0.5643  2.8607
 1412SOL     MW 5648   0.830   4.513   4.180 -0.3249 -0.0188 -0.0417
 1413SOL     OW 5649   5.247   2.586   3.776  0.1327  0.2926 -0.4070
 1413SOL    HW1 5650   5.279   2.553   3.692  1.8271 -0.4961  0.5045
 1413SOL    HW2 5651   5.245   2.681   3.765  0.0834  0.1858 -1.4105
 1413SOL     MW 5652   5.251   2.594   3.764  0.3433  0.1780 -0.4188
 1414SOL     OW 5653   2.226   0.040   1.395  0.1428 -0.1730 -0.0779
 1414SOL    HW1 5654   2.288   0.082   1.453  0.5099 -1.2615  0.3461
 1414SOL    HW2 5655   2.280   0.008   1.322 -0.2799  0.9841 -0.9235
 1414SOL     MW 5656   2.241   0.041   1.393  0.1357 -0.1642 -0.1318
 1415SOL     OW 5657   0.825   3.863   2.741 -0.3108 -0.1173  0.1977
 1415SOL    HW1 5658   0.833   3.806   2.818 -2.5117  0.9669  1.3312
 1415SOL    HW2 5659   0.901   3.921   2.746 -0.3176 -0.1934  1.4869
 1415SOL     MW 5660   0.836   3.863   2.752 -0.5934  0.0117  0.5079
 1416SOL     OW 5661   4.269   4.495   2.191 -0.3084  0.2026 -0.4359
 1416SOL    HW1 5662   4.233   4.426   2.136 -0.4733 -1.0634  1.2008
 1416SOL    HW2 5663   4.193   4.536   2.232 -0.1314 -2.1207  2.6034
 1416SOL     MW 5664   4.255   4.491   2.189 -0.3068 -0.2569  0.1627
 1417SOL     OW 5665   3.616   4.118   4.146  0.4332 -0.2711 -0.3283
 1417SOL    HW1 5666   3.596   4.055   4.077 -0.1368 -0.8847  0.3884
 1417SOL    HW2 5667   3.542   4.113   4.206  2.4345 -2.2865  2.1838
 1417SOL     MW 5668   3.604   4.110   4.145  0.6165 -0.6076  0.0851
 1418SOL     OW 5669   5.073   4.552   4.116 -0.5250  0.4312  0.0173
 1418SOL    HW1 5670   5.074   4.644   4.145  1.1736  0.6885 -0.6957
 1418SOL    HW2 5671   5.133   4.550   4.041 -0.0360 -1.3791  0.4033
 1418SOL     MW 5672   5.081   4.564   4.110 -0.2449  0.2324 -0.0246
 1419SOL     OW 5673   3.569   4.840   4.561  0.2275 -0.6507  0.5146
 1419SOL    HW1 5674   3.494   4.871   4.511 -0.2122 -1.6221  0.5553
 1419SOL    HW2 5675   3.645   4.882   4.519 -0.3755  0.9456  0.9563
 1419SOL     MW 5676   3.569   4.850   4.550  0.0940 -0.5707  0.5764
 1420SOL     OW 5677   2.331   0.642   2.138  0.1658  0.1426 -0.1294
 1420SOL    HW1 5678   2.352   0.724   2.183  0.0496 -0.2107  0.5844
 1420SOL    HW2 5679   2.289   0.669   2.057  1.6358  0.8333 -0.6904
 1420SOL     MW 5680   2.329   0.656   2.134  0.3391  0.1858 -0.1098
 1421SOL     OW 5681   3.287   1.047   4.981 -0.0628  0.1960 -0.2580
 1421SOL    HW1 5682   3.353   1.115   4.970 -0.4076  0.5471 -0.1660
 1421SOL    HW2 5683   3.206   1.087   4.951 -0.2505 -0.2097 -0.2990
 1421SOL     MW 5684   3.285   1.061   4.976 -0.1310  0.1890 -0.2514
 1422SOL     OW 5685   3.007   0.319   2.621  0.3187  0.1646  0.2421
 1422SOL    HW1 5686   2.974   0.319   2.711  1.7946 -1.4330  0.8550
 1422SOL    HW2 5687   2.962   0.392   2.578 -0.7799  0.6620  2.1372
 1422SOL     MW 5688   2.997   0.329   2.627  0.3670  0.0238  0.5632
 1423SOL     OW 5689   2.898   2.452   3.907 -0.0287 -0.2959  0.2867
 1423SOL    HW1 5690   2.818   2.405   3.883  0.5980 -0.3591 -1.9026
 1423SOL    HW2 5691   2.964   2.383   3.920  0.2026 -0.1551 -0.1245
 1423SOL     MW 5692   2.896   2.437   3.906  0.0812 -0.2860 -0.0462
 1424SOL     OW 5693   4.584   2.800   2.721 -0.0736 -0.3386  0.0337
 1424SOL    HW1 5694   4.518   2.737   2.693 -0.2826 -0.0968 -0.0223
 1424SOL    HW2 5695   4.667   2.753   2.716  0.0416  0.0266 -2.0801
 1424SOL     MW 5696   4.587   2.786   2.717 -0.0856 -0.2609 -0.2440
 1425SOL     OW 5697   2.074   3.116   4.292 -0.3220  0.5658 -0.0495
 1425SOL    HW1 5698   2.091   3.131   4.199 -1.1800  0.6413 -0.2036
 1425SOL    HW2 5699   2.152   3.151   4.336 -0.2368  1.2198 -0.6887
 1425SOL     MW 5700   2.086   3.123   4.285 -0.4209  0.6592 -0.1511
 1426SOL     OW 5701   1.930   3.581   2.258 -0.0463 -0.0886  0.6036
 1426SOL    HW1 5702   1.971   3.520   2.197 -0.0308 -1.0998  1.5973
 1426SOL    HW2 5703   1.885   3.526   2.321  1.3272  0.8272  2.5044
 1426SOL     MW 5704   1.930   3.566   2.258  0.1315 -0.1008  0.9741
 1427SOL     OW 5705   1.693   2.426   5.239 -0.0377 -0.0130 -0.2189
 1427SOL    HW1 5706   1.756   2.407   5.309  3.3210  2.3387 -2.3108
 1427SOL    HW2 5707   1.680   2.342   5.195  1.8217 -0.5336  0.1550
 1427SOL     MW 5708   1.699   2.412   5.243  0.6302  0.2214 -0.4389
 1428SOL     OW 5709   3.127   3.482   5.049 -0.0370  0.5149  0.1592
 1428SOL    HW1 5710   3.182   3.407   5.026  0.4840  0.9672 -0.0892
 1428SOL    HW2 5711   3.147   3.499   5.141 -2.3041 -1.4501  1.1134
 1428SOL     MW 5712   3.137   3.474   5.058 -0.2605  0.3212  0.2495
 1429SOL     OW 5713   0.911   5.289   0.159 -0.1965  0.0933 -0.3020
 1429SOL    HW1 5714   0.833   5.344   0.150 -0.8944 -0.5879  1.1022
 1429SOL    HW2 5715   0.915   5.240   0.077 -1.1171  0.3172 -0.5004
 1429SOL     MW 5716   0.901   5.289   0.148 -0.4037  0.0347 -0.1476
 1430SOL     OW 5717   5.385   3.029   0.676  0.1818 -0.3769  0.1156
 1430SOL    HW1 5718   5.400   3.120   0.703  1.3546 -0.7257  0.7382
 1430SOL    HW2 5719   5.336   3.035   0.595  1.5449  0.8700 -0.6680
 1430SOL     MW 5720   5.381   3.042   0.669  0.5064 -0.2620  0.0950
 1431SOL     OW 5721   1.057   2.201   0.893 -0.2544 -0.5000 -0.0100
 1431SOL    HW1 5722   0.993   2.252   0.943  0.1107 -0.6054  0.5853
 1431SOL    HW2 5723   1.141   2.226   0.931  0.0552 -0.3944 -0.7575
 1431SOL     MW 5724   1.059   2.211   0.904 -0.1680 -0.5000 -0.0294
 1432SOL     OW 5725   2.872   2.433   1.379  0.2200 -0.0174  0.0841
 1432SOL    HW1 5726   2.879   2.415   1.472  0.1213 -0.0542  0.0845
 1432SOL    HW2 5727   2.954   2.476   1.356 -0.0221  0.5845  0.3200
 1432SOL     MW 5728   2.883   2.436   1.388  0.1764  0.0550  0.1143
 1433SOL     OW 5729   0.103   1.871   4.776  0.1642  0.2272  0.0216
 1433SOL    HW1 5730   0.090   1.794   4.832 -0.0485 -0.1836 -0.5809
 1433SOL    HW2 5731   0.180   1.914   4.813  1.0188 -0.9326 -0.3295
 1433SOL     MW 5732   0.111   1.866   4.788  0.2464  0.0261 -0.1004
 1434SOL     OW 5733   4.829   2.342   0.282  0.1833  0.5796 -0.1593
 1434SOL    HW1 5734   4.778   2.404   0.229 -2.1625 -1.0785 -0.0378
 1434SOL    HW2 5735   4.806   2.364   0.372 -1.7426 -1.1930 -0.1482
 1434SOL     MW 5736   4.819   2.353   0.287 -0.3636  0.1405 -0.1423
 1435SOL     OW 5737   4.197   3.528   4.917  0.2824 -0.0958 -0.0670
 1435SOL    HW1 5738   4.286   3.493   4.915  0.7017  0.9243  0.0593
 1435SOL    HW2 5739   4.143   3.455   4.947  1.1335 -0.6220  0.2148
 1435SOL     MW 5740   4.202   3.514   4.921  0.4450 -0.0326 -0.0148
 1436SOL     OW 5741   3.001   5.446   2.755  0.7754 -0.2890  0.0185
 1436SOL    HW1 5742   2.972   5.495   2.678 -1.5890 -0.8492  0.4819
 1436SOL    HW2 5743   3.025   5.513   2.819 -0.3214  0.2424 -0.1106
 1436SOL     MW 5744   3.001   5.461   2.753  0.3323 -0.2927  0.0613
 1437SOL     OW 5745   0.627   1.304   0.840 -0.0503  0.4060  0.0540
 1437SOL    HW1 5746   0.575   1.261   0.772 -0.7998 -0.2420  1.0102
 1437SOL    HW2 5747   0.695   1.351   0.791 -0.2846 -0.4068 -1.1197
 1437SOL     MW 5748   0.629   1.304   0.825 -0.1762  0.2190  0.0261
 1438SOL     OW 5749   4.059   2.559   0.588 -0.4057 -0.0783 -0.1501
 1438SOL    HW1 5750   3.977   2.597   0.620  0.9129  1.5952  1.5098
 1438SOL    HW2 5751   4.088   2.618   0.519 -0.5252 -0.5748 -0.6243
 1438SOL     MW 5752   4.052   2.572   0.583 -0.2522  0.0724  0.0017
 1439SOL     OW 5753   0.135   5.426   3.984  0.3679  0.5722 -0.6214
 1439SOL    HW1 5754   0.201   5.357   3.980 -1.0061 -0.9409  1.3918
 1439SOL    HW2 5755   0.129   5.458   3.894  2.6140 -0.3759 -1.1816
 1439SOL     MW 5756   0.143   5.422   3.972  0.4796  0.2571 -0.4354
 1440SOL     OW 5757   1.207   0.723   0.107  0.0346  0.0272  0.0921
 1440SOL    HW1 5758   1.271   0.733   0.178  0.2104  1.0049 -0.1786
 1440SOL    HW2 5759   1.124   0.749   0.146  0.2287  1.1312 -0.1973
 1440SOL     MW 5760   1.205   0.728   0.121  0.0820  0.2937  0.0204
 1441SOL     OW 5761   2.941   1.905   4.687 -0.2242 -0.8888 -0.0157
 1441SOL    HW1 5762   2.953   1.950   4.604 -0.4432  0.4200  0.6370
 1441SOL    HW2 5763   2.871   1.953   4.731 -1.3144 -2.6130  0.2139
 1441SOL     MW 5764   2.934   1.917   4.682 -0.3918 -0.9420  0.0972
 1442SOL     OW 5765   1.557   0.749   1.093  0.8600 -0.0651 -0.4974
 1442SOL    HW1 5766   1.518   0.668   1.127  1.7029 -0.7617 -1.1594
 1442SOL    HW2 5767   1.566   0.805   1.170 -3.2922  0.9855 -0.5264
 1442SOL     MW 5768   1.553   0.746   1.108  0.4364 -0.0197 -0.5859
 1443SOL     OW 5769   4.903   4.686   5.137 -0.2273  0.3403  0.1727
 1443SOL    HW1 5770   4.911   4.594   5.110  2.0964  0.6243 -0.3214
 1443SOL    HW2 5771   4.934   4.687   5.228 -0.5469  0.5984  0.2809
 1443SOL     MW 5772   4.908   4.674   5.145  0.0293  0.4097  0.1233
 1444SOL     OW 5773   1.579   4.283   2.193 -0.0803  0.2517 -0.6059
 1444SOL    HW1 5774   1.580   4.346   2.265  0.5976 -0.1446 -0.2554
 1444SOL    HW2 5775   1.603   4.200   2.233  1.9133  0.3180 -1.5399
 1444SOL     MW 5776   1.582   4.280   2.207  0.2617  0.2094 -0.6806
 1445SOL     OW 5777   3.128   0.682   5.193  0.0609  0.0662 -0.3989
 1445SOL    HW1 5778   3.108   0.619   5.262  0.7965  0.1027 -0.1440
 1445SOL    HW2 5779   3.113   0.768   5.233  0.2856  0.0830 -0.3515
 1445SOL     MW 5780   3.123   0.685   5.207  0.1838  0.0730 -0.3602
 1446SOL     OW 5781   0.143   1.065   2.908 -0.0810 -0.6140 -0.7141
 1446SOL    HW1 5782   0.095   1.117   2.973  1.0861 -1.1405  0.6233
 1446SOL    HW2 5783   0.222   1.036   2.954  0.5618 -1.3978 -2.2417
 1446SOL     MW 5784   0.147   1.068   2.922  0.1507 -0.7817 -0.7385
 1447SOL     OW 5785   2.171   0.700   1.918  0.4442 -0.1767  0.1251
 1447SOL    HW1 5786   2.189   0.794   1.920 -0.9647  0.1179  0.1229
 1447SOL    HW2 5787   2.224   0.666   1.846  2.6020  0.2231  1.4464
 1447SOL     MW 5788   2.180   0.707   1.909  0.5401 -0.0878  0.2939
 1448SOL     OW 5789   2.397   4.267   1.827  0.0767  0.3056  0.4955
 1448SOL    HW1 5790   2.310   4.265   1.866 -0.2301  1.7175 -0.0438
 1448SOL    HW2 5791   2.382   4.299   1.737  0.9727 -1.0063 -0.1514
 1448SOL     MW 5792   2.384   4.271   1.820  0.1521  0.3184  0.3436
 1449SOL     OW 5793   0.577   4.485   3.823  0.1084  0.4456  0.1267
 1449SOL    HW1 5794   0.559   4.426   3.750 -1.1909 -0.4318  1.1199
 1449SOL    HW2 5795   0.592   4.570   3.782  1.0266 -0.3521 -1.2649
 1449SOL     MW 5796   0.577   4.488   3.808  0.0596  0.2311  0.0757
 1450SOL     OW 5797   3.593   2.528   2.876 -0.2956  0.0900  0.2153
 1450SOL    HW1 5798   3.610   2.504   2.967 -0.2081  1.4477  0.5865
 1450SOL    HW2 5799   3.560   2.448   2.836  0.3909 -0.7401  1.2419
 1450SOL     MW 5800   3.591   2.515   2.883 -0.1965  0.1575  0.3942
 1451SOL     OW 5801   4.596   2.867   4.722  0.0853 -0.6743 -0.3597
 1451SOL    HW1 5802   4.621   2.806   4.652 -0.6275 -1.0852 -0.2611
 1451SOL    HW2 5803   4.565   2.945   4.676 -2.3475 -1.7001 -0.5779
 1451SOL     MW 5804   4.595   2.869   4.707 -0.3174 -0.8582 -0.3750
 1452SOL     OW 5805   3.461   0.620   3.685  0.1846  0.1811  0.3027
 1452SOL    HW1 5806   3.438   0.569   3.608 -1.7605  0.3163  0.7529
 1452SOL    HW2 5807   3.453   0.711   3.657 -0.4506  0.2305  0.6439
 1452SOL     MW 5808   3.457   0.625   3.672 -0.1457  0.2048  0.4040
 1453SOL     OW 5809   1.333   2.002   0.732 -0.0767 -0.3961  0.3088
 1453SOL    HW1 5810   1.267   1.969   0.671  0.0479  0.2214 -0.1637
 1453SOL    HW2 5811   1.303   2.090   0.755  0.5519 -0.1316  0.1340
 1453SOL     MW 5812   1.321   2.009   0.727  0.0197 -0.2832  0.2259
 1454SOL     OW 5813   4.699   2.253   1.628  0.0271  0.3613 -0.3852
 1454SOL    HW1 5814   4.733   2.273   1.540 -0.3492 -0.7195 -0.7906
 1454SOL    HW2 5815   4.743   2.171   1.652  0.8686  1.1359  0.8610
 1454SOL     MW 5816   4.709   2.245   1.620  0.0866  0.3221 -0.2776
 1455SOL     OW 5817   5.340   3.108   3.851  0.1664 -0.2040 -0.4442
 1455SOL    HW1 5818   5.311   3.093   3.761 -1.1228 -0.2362 -0.0488
 1455SOL    HW2 5819   5.377   3.025   3.879 -0.4449 -0.5272 -0.5853
 1455SOL     MW 5820   5.341   3.096   3.843 -0.0769 -0.2495 -0.4117
 1456SOL     OW 5821   3.498   3.688   5.114  0.3563 -0.0397 -0.1129
 1456SOL    HW1 5822   3.424   3.700   5.054  0.6260  1.4263 -0.1923
 1456SOL    HW2 5823   3.565   3.747   5.081  0.0452  1.8625  2.3481
 1456SOL     MW 5824   3.497   3.697   5.102  0.3510  0.3915  0.1920
 1457SOL     OW 5825   4.600   4.273   2.308  0.6739 -0.0301  0.1334
 1457SOL    HW1 5826   4.559   4.357   2.328  0.3611 -0.1801  0.1187
 1457SOL    HW2 5827   4.690   4.296   2.285  0.5121  0.3297 -0.1479
 1457SOL     MW 5828   4.607   4.286   2.307  0.6131 -0.0032  0.0955
 1458SOL     OW 5829   4.441   1.531   2.731 -0.1062 -0.0567 -0.2465
 1458SOL    HW1 5830   4.358   1.483   2.734 -0.2230  0.0186 -1.4773
 1458SOL    HW2 5831   4.416   1.622   2.718  0.0831  0.5889  3.1826
 1458SOL     MW 5832   4.427   1.536   2.730 -0.0969  0.0356  0.0349
 1459SOL     OW 5833   4.779   5.221   1.571 -0.6022  0.0054 -0.2930
 1459SOL    HW1 5834   4.831   5.300   1.581 -0.5024  0.1080 -1.4762
 1459SOL    HW2 5835   4.697   5.252   1.531  0.5320 -0.7811 -3.5024
 1459SOL     MW 5836   4.775   5.235   1.567 -0.4442 -0.0821 -0.8553
 1460SOL     OW 5837   4.105   0.344   0.457 -0.4145  0.6139 -0.3442
 1460SOL    HW1 5838   4.183   0.376   0.502 -1.2382 -0.0707  1.6750
 1460SOL    HW2 5839   4.116   0.373   0.367  1.9932  0.8480 -0.0496
 1460SOL     MW 5840   4.116   0.351   0.451 -0.2117  0.5562 -0.0480
 1461SOL     OW 5841   1.550   1.147   3.528  0.4699 -0.1894  0.1738
 1461SOL    HW1 5842   1.527   1.202   3.454  1.4727 -0.9337 -0.7212
 1461SOL    HW2 5843   1.614   1.198   3.577  0.3282  0.0144  0.1483
 1461SOL     MW 5844   1.555   1.161   3.525  0.5801 -0.2586  0.0559
 1462SOL     OW 5845   2.094   4.343   3.291 -0.0460 -0.0951 -0.1138
 1462SOL    HW1 5846   2.101   4.250   3.270  0.0431 -0.1959  0.3495
 1462SOL    HW2 5847   2.034   4.378   3.226 -0.3819 -0.5583 -0.0551
 1462SOL     MW 5848   2.087   4.336   3.280 -0.0776 -0.1673 -0.0469
 1463SOL     OW 5849   3.320   4.792   5.106  0.5224  0.2162  0.2191
 1463SOL    HW1 5850   3.261   4.863   5.081 -0.5771 -1.0940 -1.0946
 1463SOL    HW2 5851   3.402   4.835   5.127 -1.1488  2.2577  3.3263
 1463SOL     MW 5852   3.323   4.806   5.106  0.1677  0.3098  0.4487
 1464SOL     OW 5853   1.598   3.611   0.791 -0.1848  0.0638  0.1208
 1464SOL    HW1 5854   1.545   3.596   0.868 -0.0094  0.5602  0.3432
 1464SOL    HW2 5855   1.580   3.702   0.767 -0.1785 -0.0613 -0.3759
 1464SOL     MW 5856   1.589   3.621   0.797 -0.1615  0.1113  0.0857
 1465SOL     OW 5857   1.155   1.895   4.855 -0.1813  0.3943  0.1327
 1465SOL    HW1 5858   1.170   1.883   4.761 -0.6962  2.1150 -0.2015
 1465SOL    HW2 5859   1.240   1.926   4.889  0.0972 -0.5366  0.3130
 1465SOL     MW 5860   1.168   1.897   4.847 -0.2116  0.4954  0.1130
 1466SOL     OW 5861   3.865   3.110   1.637  0.2599  0.2084  0.2459
 1466SOL    HW1 5862   3.880   3.190   1.586 -0.0550  0.6188  0.7869
 1466SOL    HW2 5863   3.792   3.132   1.695  0.6604 -0.2168  0.9249
 1466SOL     MW 5864   3.858   3.123   1.638  0.2708  0.2065  0.4021
 1467SOL     OW 5865   4.392   2.326   4.874  0.2733 -0.1120  0.4679
 1467SOL    HW1 5866   4.477   2.290   4.845  0.1386  0.6177 -0.9337
 1467SOL    HW2 5867   4.334   2.250   4.877  0.5663 -0.3729 -0.1958
 1467SOL     MW 5868   4.396   2.312   4.871  0.2935 -0.0520  0.2035
 1468SOL     OW 5869   3.412   0.847   2.161  0.4254 -0.3733  0.2448
 1468SOL    HW1 5870   3.368   0.928   2.187  2.7476  1.2338 -0.5627
 1468SOL    HW2 5871   3.367   0.820   2.081  1.0357  1.4243 -0.7592
 1468SOL     MW 5872   3.401   0.854   2.154  0.8008  0.0625  0.0129
 1469SOL     OW 5873   2.997   3.450   4.200  0.0987 -0.2533 -0.1776
 1469SOL    HW1 5874   2.937   3.384   4.166  0.5687 -1.4314  1.1967
 1469SOL    HW2 5875   2.940   3.519   4.234 -0.3906  0.4082 -2.1688
 1469SOL     MW 5876   2.982   3.450   4.200  0.0962 -0.3194 -0.2566
 1470SOL     OW 5877   4.119   2.734   5.443  0.7151 -0.0048  0.3702
 1470SOL    HW1 5878   4.032   2.758   5.474  1.3618  1.8980  0.8466
 1470SOL    HW2 5879   4.114   2.740   5.348  0.1010 -0.8235  0.3406
 1470SOL     MW 5880   4.108   2.738   5.435  0.7193  0.1340  0.4274
 1471SOL     OW 5881   3.248   2.989   0.598 -0.4788  0.3155 -0.6367
 1471SOL    HW1 5882   3.239   3.067   0.543  0.2294 -1.2005 -3.0817
 1471SOL    HW2 5883   3.339   2.992   0.628  0.0802 -0.3559 -2.1424
 1471SOL     MW 5884   3.259   3.000   0.595 -0.3166  0.0355 -1.1424
 1472SOL     OW 5885   1.755   0.457   2.623 -0.4886 -0.3586  0.1769
 1472SOL    HW1 5886   1.811   0.527   2.656 -0.0557  0.1776 -1.5999
 1472SOL    HW2 5887   1.670   0.499   2.607 -0.4118 -0.3776 -0.2980
 1472SOL     MW 5888   1.751   0.471   2.625 -0.4234 -0.2923 -0.1114
 1473SOL     OW 5889   2.347   1.473   3.174  0.3626  0.5749  1.0128
 1473SOL    HW1 5890   2.343   1.443   3.084 -0.6181 -1.2770  1.6237
 1473SOL    HW2 5891   2.271   1.531   3.183 -1.1507 -1.3480  1.3034
 1473SOL     MW 5892   2.337   1.477   3.164  0.0433  0.0916  1.1282
 1474SOL     OW 5893   1.845   4.428   1.100  0.1303 -0.5421 -0.0907
 1474SOL    HW1 5894   1.910   4.496   1.116  0.3322 -1.2002  2.1850
 1474SOL    HW2 5895   1.894   4.355   1.062  0.2880 -0.1891 -0.5676
 1474SOL     MW 5896   1.860   4.427   1.097  0.1763 -0.5811  0.1396
 1475SOL     OW 5897   3.544   4.652   3.313  0.3420  0.2069  0.1062
 1475SOL    HW1 5898   3.479   4.627   3.377 -0.8119  1.2827 -0.5906
 1475SOL    HW2 5899   3.494   4.668   3.233  1.5058  0.6964 -0.5482
 1475SOL     MW 5900   3.530   4.651   3.311  0.3433  0.4073 -0.0668
 1476SOL     OW 5901   4.550   3.813   2.712  0.0368 -0.0549  0.3388
 1476SOL    HW1 5902   4.507   3.893   2.742  0.0140 -0.0319  0.2444
 1476SOL    HW2 5903   4.503   3.743   2.756  0.3085  0.0039  0.7298
 1476SOL     MW 5904   4.539   3.814   2.722  0.0687 -0.0444  0.3768
 1477SOL     OW 5905   4.986   2.559   4.806  0.3268  0.0949  0.0311
 1477SOL    HW1 5906   4.965   2.481   4.754 -0.8847  0.3364  0.1366
 1477SOL    HW2 5907   5.062   2.597   4.762 -0.5905  0.2256 -1.5111
 1477SOL     MW 5908   4.993   2.554   4.793  0.0543  0.1426 -0.1528
 1478SOL     OW 5909   1.598   0.287   1.488  0.0284 -0.0073  0.3155
 1478SOL    HW1 5910   1.675   0.231   1.488 -0.4172 -0.6281  0.7017
 1478SOL    HW2 5911   1.572   0.293   1.581 -0.0156  0.7103  0.2636
 1478SOL     MW 5912   1.604   0.281   1.500 -0.0343  0.0051  0.3583
 1479SOL     OW 5913   5.314   1.001   4.112  0.1808  0.3121  0.1052
 1479SOL    HW1 5914   5.385   0.985   4.049  0.0566  1.5062 -0.3659
 1479SOL    HW2 5915   5.354   1.058   4.178 -0.2079  0.5911  0.1000
 1479SOL     MW 5916   5.328   1.006   4.112  0.1151  0.5007  0.0442
 1480SOL     OW 5917   4.845   4.824   1.341 -0.0517  0.2855  0.2142
 1480SOL    HW1 5918   4.799   4.745   1.369 -1.8417  1.1592 -0.1447
 1480SOL    HW2 5919   4.852   4.877   1.421 -0.0036  0.3310  0.1803
 1480SOL     MW 5920   4.840   4.821   1.355 -0.2747  0.4032  0.1639
 1481SOL     OW 5921   3.391   2.792   2.564 -0.3349  0.2543 -0.0402
 1481SOL    HW1 5922   3.469   2.803   2.618 -1.3537 -1.6295  1.9591
 1481SOL    HW2 5923   3.343   2.875   2.575  0.1803  0.4613  0.7800
 1481SOL     MW 5924   3.395   2.804   2.572 -0.3994  0.0397  0.3207
 1482SOL     OW 5925   3.581   2.171   4.622 -0.4507  0.4001  0.1345
 1482SOL    HW1 5926   3.655   2.138   4.673  0.6243 -0.6915 -1.9733
 1482SOL    HW2 5927   3.603   2.263   4.605  0.8669 -0.0882 -1.0715
 1482SOL     MW 5928   3.594   2.178   4.626 -0.1444  0.1979 -0.2897
 1483SOL     OW 5929   3.805   4.970   4.486 -0.1797  1.3713  0.1773
 1483SOL    HW1 5930   3.843   4.957   4.399  0.9525  2.0631  0.5548
 1483SOL    HW2 5931   3.880   4.979   4.545 -0.9139 -0.1607  1.4166
 1483SOL     MW 5932   3.819   4.970   4.483 -0.1287  1.2638  0.3843
 1484SOL     OW 5933   4.998   1.205   4.649  0.2648  0.1384 -0.6551
 1484SOL    HW1 5934   5.018   1.149   4.725 -1.2903 -0.0577 -0.3526
 1484SOL    HW2 5935   4.993   1.293   4.685  0.1662  0.1287 -0.6441
 1484SOL     MW 5936   5.000   1.209   4.664  0.0531  0.1121 -0.6150
 1485SOL     OW 5937   1.014   2.577   1.538  0.2022  0.3759  0.5937
 1485SOL    HW1 5938   1.019   2.662   1.581 -0.1984  0.4820  0.4374
 1485SOL    HW2 5939   1.082   2.580   1.471  0.0718  0.6429  0.4713
 1485SOL     MW 5940   1.024   2.588   1.535  0.1342  0.4237  0.5580
 1486SOL     OW 5941   3.593   1.685   2.737  0.1777  0.2001  0.1894
 1486SOL    HW1 5942   3.516   1.633   2.761 -0.8631  1.3522 -0.4676
 1486SOL    HW2 5943   3.557   1.771   2.716  1.5213  0.4503 -1.2703
 1486SOL     MW 5944   3.578   1.689   2.737  0.2165  0.3796 -0.0815
 1487SOL     OW 5945   4.778   3.613   3.290 -0.4208 -0.5238  0.2194
 1487SOL    HW1 5946   4.786   3.657   3.206 -0.9819 -0.3480  0.2509
 1487SOL    HW2 5947   4.820   3.528   3.278  0.7057  0.0331  0.1685
 1487SOL     MW 5948   4.784   3.608   3.278 -0.3484 -0.4300  0.2169
 1488SOL     OW 5949   3.505   3.259   3.026 -0.4410  0.1312 -0.3473
 1488SOL    HW1 5950   3.552   3.230   3.105 -1.4662  2.9395  1.4216
 1488SOL    HW2 5951   3.413   3.254   3.049 -0.8698 -0.5696 -2.0309
 1488SOL     MW 5952   3.499   3.254   3.039 -0.6271  0.4010 -0.3364
 1489SOL     OW 5953   5.382   2.901   3.135  0.0916 -0.1804 -0.2292
 1489SOL    HW1 5954   5.418   2.989   3.124 -0.7256  0.3780  1.1994
 1489SOL    HW2 5955   5.401   2.856   3.053 -0.5429  1.7185 -1.4715
 1489SOL     MW 5956   5.389   2.906   3.123 -0.0943  0.1341 -0.2054
 1490SOL     OW 5957   4.622   1.774   4.698 -0.4598  0.0351  0.4319
 1490SOL    HW1 5958   4.631   1.694   4.646  1.4348  0.1596  0.5018
 1490SOL    HW2 5959   4.590   1.744   4.783 -0.6118 -0.5499  0.1720
 1490SOL     MW 5960   4.619   1.760   4.702 -0.2367 -0.0239  0.4076
 1491SOL     OW 5961   2.943   5.055   0.647 -0.2014  0.0421 -0.6245
 1491SOL    HW1 5962   2.906   5.119   0.587 -0.3696  1.1867  0.6448
 1491SOL    HW2 5963   3.007   5.104   0.698  1.4864 -1.3897 -1.2700
 1491SOL     MW 5964   2.946   5.069   0.646 -0.0069  0.0053 -0.5446
 1492SOL     OW 5965   1.175   1.444   3.915  0.3054  0.3304  0.4130
 1492SOL    HW1 5966   1.134   1.379   3.971  0.2463  0.7439  0.8569
 1492SOL    HW2 5967   1.102   1.494   3.877  0.3578  0.2807  0.2432
 1492SOL     MW 5968   1.161   1.442   3.917  0.3046  0.3770  0.4481
 1493SOL     OW 5969   2.561   0.767   3.841  0.4465 -0.3128 -0.4720
 1493SOL    HW1 5970   2.584   0.722   3.922 -1.3420 -1.2783 -0.4529
 1493SOL    HW2 5971   2.597   0.711   3.772  2.5103  0.8237 -0.3957
 1493SOL     MW 5972   2.568   0.754   3.842  0.4817 -0.2909 -0.4598
 1494SOL     OW 5973   1.309   4.990   1.070 -0.1526  0.3534  0.4548
 1494SOL    HW1 5974   1.306   5.065   1.011 -0.1346  0.1209  0.1570
 1494SOL    HW2 5975   1.337   5.027   1.154  1.8243  0.3945 -0.1677
 1494SOL     MW 5976   1.312   5.005   1.073  0.1028  0.3289  0.3370
 1495SOL     OW 5977   3.677   3.659   3.288  0.4884 -0.2950 -0.3715
 1495SOL    HW1 5978   3.733   3.717   3.340  0.1933 -1.0330  0.8082
 1495SOL    HW2 5979   3.602   3.713   3.264 -0.0017 -0.2846  1.0905
 1495SOL     MW 5980   3.675   3.673   3.291  0.3879 -0.3881 -0.0333
 1496SOL     OW 5981   2.466   2.537   4.912  0.4107 -0.1049 -0.3473
 1496SOL    HW1 5982   2.530   2.488   4.963 -1.1879 -1.5200  0.4216
 1496SOL    HW2 5983   2.435   2.606   4.971  1.4801  0.8463 -0.8638
 1496SOL     MW 5984   2.470   2.540   4.926  0.3430 -0.1643 -0.3150
 1497SOL     OW 5985   4.091   0.337   3.872  0.3314 -0.1476 -0.1972
 1497SOL    HW1 5986   4.018   0.292   3.916 -1.4011  1.8662 -0.8318
 1497SOL    HW2 5987   4.155   0.268   3.855 -1.0997 -1.8739  1.0549
 1497SOL     MW 5988   4.090   0.322   3.875 -0.0736 -0.1108 -0.1182
 1498SOL     OW 5989   3.624   3.005   0.457 -0.4276 -0.8101 -0.0010
 1498SOL    HW1 5990   3.598   3.002   0.549 -0.4971 -1.6602 -0.0401
 1498SOL    HW2 5991   3.547   3.042   0.413 -0.2142  0.0590  0.3321
 1498SOL     MW 5992   3.611   3.009   0.463 -0.4091 -0.8077  0.0367
 1499SOL     OW 5993   5.192   0.124   4.220 -0.3143 -0.5066  0.2107
 1499SOL    HW1 5994   5.201   0.042   4.172  3.1010  0.4627 -1.0658
 1499SOL    HW2 5995   5.195   0.099   4.312 -1.6616 -1.9388 -0.0914
 1499SOL     MW 5996   5.194   0.111   4.226 -0.0496 -0.5658  0.0086
 1500SOL     OW 5997   3.914   3.773   2.461  0.0095 -0.0495  0.7775
 1500SOL    HW1 5998   4.001   3.809   2.448  0.4516 -0.7376  1.7754
 1500SOL    HW2 5999   3.855   3.847   2.448  0.5162 -0.0832 -2.6085
 1500SOL     MW 6000   3.917   3.787   2.457  0.1309 -0.1419  0.4718
 1501SOL     OW 6001   3.316   2.155   4.616 -0.3377  0.0084 -0.0786
 1501SOL    HW1 6002   3.408   2.171   4.637  0.5993  0.0223 -3.4939
 1501SOL    HW2 6003   3.293   2.077   4.665  1.1311  0.5836  1.6618
 1501SOL     MW 6004   3.325   2.147   4.625 -0.0297  0.0838 -0.2930
 1502SOL     OW 6005   1.457   5.026   1.722 -0.3616 -0.5863  0.1351
 1502SOL    HW1 6006   1.366   5.054   1.734  0.1322  1.0752  0.3394
 1502SOL    HW2 6007   1.508   5.091   1.771  0.8736 -2.2950  1.2169
 1502SOL     MW 6008   1.452   5.038   1.730 -0.1403 -0.5923  0.2997
 1503SOL     OW 6009   0.295   4.632   1.363 -0.2600 -0.0248 -0.1204
 1503SOL    HW1 6010   0.361   4.575   1.401  0.5957  0.8646 -0.2300
 1503SOL    HW2 6011   0.300   4.713   1.414 -1.5693 -0.0889  0.1447
 1503SOL     MW 6012   0.304   4.635   1.374 -0.3181  0.0808 -0.1005
 1504SOL     OW 6013   3.043   2.058   4.455  0.1314  0.2480 -0.2322
 1504SOL    HW1 6014   3.074   1.974   4.421 -0.0950 -0.4613  1.2136
 1504SOL    HW2 6015   3.122   2.099   4.491 -0.1517 -0.5102  1.3391
 1504SOL     MW 6016   3.057   2.052   4.455  0.0662  0.0601  0.1540
 1505SOL     OW 6017   2.327   2.977   2.502 -0.6321  0.6632  0.3164
 1505SOL    HW1 6018   2.329   2.927   2.584  1.2474 -0.2379 -0.2025
 1505SOL    HW2 6019   2.272   3.052   2.521 -1.0744 -0.0443  2.0932
 1505SOL     MW 6020   2.320   2.980   2.515 -0.4481  0.4573  0.4774
 1506SOL     OW 6021   3.088   1.086   2.826  0.1946 -0.5235 -1.2532
 1506SOL    HW1 6022   3.080   1.045   2.913 -1.5973  2.6007  0.2227
 1506SOL    HW2 6023   3.180   1.112   2.820  0.2504 -0.4144 -0.1117
 1506SOL     MW 6024   3.099   1.084   2.837 -0.0276 -0.1096 -0.9182
 1507SOL     OW 6025   4.581   2.839   1.734  0.1091 -0.3638 -0.0675
 1507SOL    HW1 6026   4.579   2.875   1.823 -0.4799 -0.1020 -0.1784
 1507SOL    HW2 6027   4.587   2.916   1.677 -1.4231 -0.3903 -0.3157
 1507SOL     MW 6028   4.582   2.854   1.738 -0.1625 -0.3337 -0.1135
 1508SOL     OW 6029   1.862   2.329   2.326 -0.7967  0.1273  0.0468
 1508SOL    HW1 6030   1.817   2.377   2.257  1.4139  1.7464 -0.3519
 1508SOL    HW2 6031   1.901   2.253   2.282 -1.7342 -0.3929  0.0910
 1508SOL     MW 6032   1.861   2.325   2.312 -0.6338  0.2680  0.0015
 1509SOL     OW 6033   3.509   3.228   4.900  0.1704 -0.4568  0.4539
 1509SOL    HW1 6034   3.423   3.237   4.940  0.1057 -2.1796  0.7720
 1509SOL    HW2 6035   3.491   3.194   4.812  0.4646  0.6452 -0.0495
 1509SOL     MW 6036   3.496   3.225   4.894  0.1998 -0.5363  0.4302
 1510SOL     OW 6037   1.799   2.208   2.606 -0.6306  0.0905 -0.1680
 1510SOL    HW1 6038   1.780   2.122   2.567 -1.8619 -0.1659  0.9465
 1510SOL    HW2 6039   1.816   2.265   2.531 -2.3504 -0.5230 -1.0654
 1510SOL     MW 6040   1.799   2.204   2.592 -1.0084 -0.0209 -0.1402
 1511SOL     OW 6041   0.964   0.162   1.013  0.1027 -0.0668  0.2396
 1511SOL    HW1 6042   1.035   0.175   0.950  1.2551 -0.9789  1.2709
 1511SOL    HW2 6043   1.008   0.125   1.090 -1.1025  1.7238  1.8861
 1511SOL     MW 6044   0.979   0.159   1.015  0.0960  0.0456  0.5824
 1512SOL     OW 6045   4.826   1.815   0.767  0.1698 -0.1345 -0.0472
 1512SOL    HW1 6046   4.832   1.831   0.862  0.4296  2.1623 -0.3899
 1512SOL    HW2 6047   4.738   1.782   0.754  0.8105 -2.5440  1.2108
 1512SOL     MW 6048   4.816   1.813   0.778  0.2851 -0.1489  0.0700
 1513SOL     OW 6049   3.990   4.402   3.787  0.0976  0.2379  0.3014
 1513SOL    HW1 6050   3.936   4.368   3.715  0.1142  0.6064  0.1132
 1513SOL    HW2 6051   3.999   4.328   3.847 -0.1319  0.0027  0.0492
 1513SOL     MW 6052   3.984   4.388   3.786  0.0704  0.2549  0.2450
 1514SOL     OW 6053   0.449   4.871   1.756  0.4103  0.5252 -0.1612
 1514SOL    HW1 6054   0.475   4.945   1.812  0.4981  0.4338 -0.0823
 1514SOL    HW2 6055   0.491   4.889   1.672  0.6206  0.4451 -0.0731
 1514SOL     MW 6056   0.457   4.883   1.752  0.4485  0.5033 -0.1398
 1515SOL     OW 6057   3.967   3.626   2.028 -0.2368  0.3786  0.2032
 1515SOL    HW1 6058   3.945   3.598   2.117 -0.1099  0.6407  0.3171
 1515SOL    HW2 6059   4.022   3.703   2.039 -0.5850  0.6769 -0.1106
 1515SOL     MW 6060   3.971   3.632   2.041 -0.2652  0.4503  0.1776
 1516SOL     OW 6061   4.537   3.220   4.489  0.3369 -0.1712 -0.3306
 1516SOL    HW1 6062   4.450   3.261   4.487  0.0116 -0.8269  0.0916
 1516SOL    HW2 6063   4.598   3.293   4.496 -0.0965  0.3918 -1.9866
 1516SOL     MW 6064   4.534   3.235   4.489  0.2398 -0.1831 -0.4885
 1517SOL     OW 6065   4.086   4.251   2.458 -0.7036  0.4344  0.1918
 1517SOL    HW1 6066   4.016   4.300   2.415  0.5425  0.7463 -1.6100
 1517SOL    HW2 6067   4.121   4.311   2.524 -0.9318  0.9719 -0.1697
 1517SOL     MW 6068   4.081   4.265   2.461 -0.5733  0.5431 -0.0851
 1518SOL     OW 6069   1.888   3.885   0.598  0.3637 -0.1299 -0.8101
 1518SOL    HW1 6070   1.866   3.823   0.527 -2.3540  0.0369 -0.2231
 1518SOL    HW2 6071   1.818   3.874   0.662  1.9761  0.7644  1.2204
 1518SOL     MW 6072   1.876   3.876   0.597  0.2222  0.0059 -0.4750
 1519SOL     OW 6073   4.221   3.587   1.264  0.0643  0.3770  0.1853
 1519SOL    HW1 6074   4.197   3.502   1.301 -0.2373 -0.0964 -1.0565
 1519SOL    HW2 6075   4.140   3.621   1.226  0.5136  0.5269 -0.6527
 1519SOL     MW 6076   4.208   3.580   1.264  0.0832  0.3356 -0.0809
 1520SOL     OW 6077   0.319   5.452   0.279  0.0767 -0.3172 -0.2419
 1520SOL    HW1 6078   0.224   5.450   0.292  0.1909 -0.1533  0.6320
 1520SOL    HW2 6079   0.331   5.425   0.188 -0.7258 -1.6860  0.0344
 1520SOL     MW 6080   0.308   5.448   0.269 -0.0114 -0.4715 -0.0946
 1521SOL     OW 6081   4.498   2.509   1.821 -0.1756 -0.1633 -0.8374
 1521SOL    HW1 6082   4.488   2.551   1.735 -2.3020 -0.9079 -1.0040
 1521SOL    HW2 6083   4.593   2.496   1.830  0.2875  1.7741 -2.1440
 1521SOL     MW 6084   4.509   2.513   1.811 -0.3885 -0.0106 -1.0260
 1522SOL     OW 6085   1.120   1.887   0.281  0.1265 -0.4287 -0.0673
 1522SOL    HW1 6086   1.031   1.917   0.264  0.0596 -1.0234 -0.8384
 1522SOL    HW2 6087   1.174   1.940   0.222  0.4192  0.6771  1.1548
 1522SOL     MW 6088   1.116   1.897   0.271  0.1554 -0.3633 -0.0096
 1523SOL     OW 6089   5.218   0.889   3.581 -0.1630 -0.0878 -0.0150
 1523SOL    HW1 6090   5.280   0.940   3.633  0.5611 -1.4942  0.5615
 1523SOL    HW2 6091   5.240   0.910   3.490 -0.2137  0.9837  0.2078
 1523SOL     MW 6092   5.229   0.898   3.576 -0.0768 -0.1307  0.0873
 1524SOL     OW 6093   4.163   3.955   4.657 -0.2650 -0.3231  0.1359
 1524SOL    HW1 6094   4.227   3.887   4.634  0.6670  0.7499 -0.5529
 1524SOL    HW2 6095   4.216   4.031   4.679 -1.2692  1.1255 -2.0289
 1524SOL     MW 6096   4.178   3.956   4.657 -0.2742 -0.0003 -0.2294
 1525SOL     OW 6097   3.741   0.562   3.371  0.3676  0.6070  0.4541
 1525SOL    HW1 6098   3.771   0.630   3.311  0.4254  0.7141  0.6038
 1525SOL    HW2 6099   3.769   0.592   3.458  1.0293  0.0431  0.4419
 1525SOL     MW 6100   3.748   0.575   3.375  0.4597  0.5485  0.4717
 1526SOL     OW 6101   4.628   0.439   3.258 -0.2043  0.1265 -0.3140
 1526SOL    HW1 6102   4.651   0.531   3.276  0.7677 -0.0813 -0.4309
 1526SOL    HW2 6103   4.536   0.432   3.282 -0.3786  1.2191 -0.6268
 1526SOL     MW 6104   4.619   0.450   3.264 -0.1022  0.2398 -0.3690
 1527SOL     OW 6105   0.392   0.075   0.534  0.4410  0.2619  0.1719
 1527SOL    HW1 6106   0.454   0.147   0.522 -0.2871  1.0365  0.9562
 1527SOL    HW2 6107   0.375   0.043   0.445 -0.8985  2.4923 -0.4514
 1527SOL     MW 6108   0.398   0.080   0.521  0.1763  0.6466  0.1925
 1528SOL     OW 6109   0.572   4.562   1.108 -0.3680  0.1435 -0.8701
 1528SOL    HW1 6110   0.575   4.547   1.203  1.0918  0.5166 -0.8435
 1528SOL    HW2 6111   0.523   4.644   1.099 -1.8321 -0.6603 -0.5591
 1528SOL     MW 6112   0.566   4.571   1.119 -0.3685  0.0884 -0.8269
 1529SOL     OW 6113   4.263   0.805   2.564 -0.0361  0.1373  0.2888
 1529SOL    HW1 6114   4.248   0.723   2.612  0.5354 -0.6876 -0.8891
 1529SOL    HW2 6115   4.300   0.865   2.629  2.1779 -1.4257  0.6076
 1529SOL     MW 6116   4.266   0.802   2.578  0.3205 -0.1684  0.1788
 1530SOL     OW 6117   3.907   3.795   3.440  0.5661 -0.2399  0.2152
 1530SOL    HW1 6118   3.979   3.732   3.426  1.1642  0.0088  1.8569
 1530SOL    HW2 6119   3.861   3.761   3.517 -0.2955  0.3050 -0.0503
 1530SOL     MW 6120   3.911   3.783   3.448  0.5324 -0.1383  0.3914
 1531SOL     OW 6121   4.173   5.203   2.257  0.2269  0.0649  0.2810
 1531SOL    HW1 6122   4.155   5.204   2.163  0.8924 -1.5878  0.1000
 1531SOL    HW2 6123   4.100   5.154   2.295  0.2544  0.2372  0.5631
 1531SOL     MW 6124   4.161   5.197   2.250  0.3156 -0.1246  0.2940
 1532SOL     OW 6125   5.329   1.171   2.916 -0.3112  0.3369 -0.5121
 1532SOL    HW1 6126   5.281   1.105   2.867 -0.5523  0.0308  0.1321
 1532SOL    HW2 6127   5.301   1.254   2.878  0.3909  0.0707 -1.6921
 1532SOL     MW 6128   5.319   1.173   2.905 -0.2522  0.2636 -0.5807
 1533SOL     OW 6129   4.470   5.302   1.951 -0.0266 -0.0360 -0.4089
 1533SOL    HW1 6130   4.445   5.275   2.039 -0.7282  1.2801 -0.1754
 1533SOL    HW2 6131   4.436   5.391   1.943  0.9936  0.2679 -1.6186
 1533SOL     MW 6132   4.462   5.310   1.961  0.0141  0.1714 -0.5339
 1534SOL     OW 6133   5.407   5.045   3.842  0.4020 -0.5882  0.5000
 1534SOL    HW1 6134   5.458   5.108   3.792 -0.0591 -0.4140  0.2475
 1534SOL    HW2 6135   5.329   5.030   3.789  0.2434 -0.9411  0.8305
 1534SOL     MW 6136   5.404   5.051   3.828  0.3226 -0.6111  0.5100
 1535SOL     OW 6137   1.437   0.943   5.077  0.5100  0.0962  0.3142
 1535SOL    HW1 6138   1.431   0.981   4.990  2.6870  2.3305  1.0314
 1535SOL    HW2 6139   1.409   1.013   5.136  0.2178 -0.9762  1.5111
 1535SOL     MW 6140   1.432   0.957   5.074  0.7513  0.2449  0.5592
 1536SOL     OW 6141   2.156   2.457   1.821 -0.9327  0.0514 -0.3222
 1536SOL    HW1 6142   2.084   2.402   1.792 -1.7163  0.4049  0.8684
 1536SOL    HW2 6143   2.152   2.454   1.917  0.9569 -0.3209 -0.2151
 1536SOL     MW 6144   2.147   2.450   1.829 -0.7911  0.0490 -0.1561
 1537SOL     OW 6145   3.130   1.633   3.100 -0.5605 -0.4601  0.0813
 1537SOL    HW1 6146   3.061   1.578   3.135 -0.9919  0.8662  1.4430
 1537SOL    HW2 6147   3.169   1.676   3.177  1.3566 -0.6701 -0.6953
 1537SOL     MW 6148   3.126   1.632   3.114 -0.3703 -0.3172  0.1562
 1538SOL     OW 6149   1.087   5.010   0.509 -0.3252 -0.1178  0.5379
 1538SOL    HW1 6150   1.082   4.955   0.431 -0.2402 -0.1382  0.5475
 1538SOL    HW2 6151   1.110   5.097   0.476 -0.0083 -0.1890  0.5671
 1538SOL     MW 6152   1.089   5.014   0.495 -0.2738 -0.1296  0.5429
 1539SOL     OW 6153   0.698   3.680   1.484 -0.2804  0.2187  0.2183
 1539SOL    HW1 6154   0.717   3.720   1.569  0.0251 -0.5111  0.4979
 1539SOL    HW2 6155   0.624   3.730   1.451 -0.3576  0.5624  0.8836
 1539SOL     MW 6156   0.691   3.691   1.491 -0.2511  0.1693  0.3392
 1540SOL     OW 6157   2.253   3.844   2.066 -0.6176  0.3112  0.1306
 1540SOL    HW1 6158   2.224   3.792   2.140  1.1513  0.0320  0.6554
 1540SOL    HW2 6159   2.271   3.781   1.997 -1.2891  0.4957 -0.2313
 1540SOL     MW 6160   2.251   3.829   2.066 -0.4771  0.2991  0.1515
 1541SOL     OW 6161   2.487   3.273   5.448  0.2563 -0.8416  0.2954
 1541SOL    HW1 6162   2.466   3.297   5.358  0.4070  0.4744  0.5935
 1541SOL    HW2 6163   2.496   3.356   5.493 -0.1196 -1.4901  1.6075
 1541SOL     MW 6164   2.485   3.286   5.442  0.2275 -0.7562  0.5015
 1542SOL     OW 6165   5.103   0.175   5.315 -0.2668 -0.1402  0.1985
 1542SOL    HW1 6166   5.061   0.232   5.379  0.8749  0.2035  0.6578
 1542SOL    HW2 6167   5.141   0.104   5.366 -0.5549 -0.6166 -0.2394
 1542SOL     MW 6168   5.103   0.173   5.329 -0.1575 -0.1572  0.2012
 1543SOL     OW 6169   3.324   0.066   0.702 -0.1260 -0.2480  0.1244
 1543SOL    HW1 6170   3.325   0.099   0.792  0.5838 -0.7853  0.3253
 1543SOL    HW2 6171   3.399   0.006   0.698 -0.4105 -0.5579 -0.7009
 1543SOL     MW 6172   3.334   0.063   0.713 -0.0715 -0.3565  0.0445
 1544SOL     OW 6173   0.999   0.130   2.781  0.3765 -0.2685  0.4268
 1544SOL    HW1 6174   1.034   0.044   2.757  0.3998 -0.3462  0.7386
 1544SOL    HW2 6175   0.975   0.170   2.697 -0.4793 -0.9402  0.3283
 1544SOL     MW 6176   1.000   0.124   2.767  0.2699 -0.3644  0.4541
 1545SOL     OW 6177   0.108   3.418   3.468 -0.4341  0.6052  0.7126
 1545SOL    HW1 6178   0.015   3.438   3.480  0.1057  2.4583  2.3013
 1545SOL    HW2 6179   0.143   3.494   3.421  0.5813  0.7440  1.6511
 1545SOL     MW 6180   0.101   3.430   3.463 -0.2350  0.8602  1.0361
 1546SOL     OW 6181   1.448   0.079   3.960  0.1493 -0.4456 -0.0127
 1546SOL    HW1 6182   1.445   0.135   4.037  1.5934 -0.5490  0.1447
 1546SOL    HW2 6183   1.364   0.032   3.961 -0.3432  0.4278  0.8098
 1546SOL     MW 6184   1.437   0.080   3.970  0.2711 -0.3470  0.1127
 1547SOL     OW 6185   2.414   0.194   4.233  0.3440  0.3654  0.1815
 1547SOL    HW1 6186   2.491   0.233   4.276 -0.1369  0.2946  1.1312
 1547SOL    HW2 6187   2.448   0.161   4.150  1.3527  0.3228  0.5911
 1547SOL     MW 6188   2.428   0.195   4.228  0.4116  0.3508  0.3555
 1548SOL     OW 6189   1.717   4.591   2.200  0.8629  0.2897  0.2089
 1548SOL    HW1 6190   1.669   4.556   2.275  1.6856  1.2580  1.2192
 1548SOL    HW2 6191   1.733   4.682   2.222  2.2431  0.2607 -0.5587
 1548SOL     MW 6192   1.713   4.598   2.212  1.1449  0.4099  0.2400
 1549SOL     OW 6193   5.041   5.013   3.369  0.2068 -0.3733  0.4709
 1549SOL    HW1 6194   5.018   5.077   3.436 -0.9039  0.1598 -0.3882
 1549SOL    HW2 6195   5.096   5.062   3.308  2.0214 -1.1033  1.4389
 1549SOL     MW 6196   5.045   5.028   3.370  0.2969 -0.3985  0.4848
 1550SOL     OW 6197   4.265   2.507   5.504  0.3451 -0.1200  0.7377
 1550SOL    HW1 6198   4.288   2.465   5.421  1.2274 -0.1189  0.9738
 1550SOL    HW2 6199   4.220   2.588   5.478  0.5748 -0.1440  0.2554
 1550SOL     MW 6200   4.262   2.512   5.490  0.4874 -0.1230  0.7061
 1551SOL     OW 6201   2.619   2.593   0.166  0.1447  0.2319  0.5685
 1551SOL    HW1 6202   2.539   2.587   0.114  0.5737 -0.0949 -0.0675
 1551SOL    HW2 6203   2.686   2.619   0.104  0.7194 -0.3988  0.9100
 1551SOL     MW 6204   2.617   2.595   0.152  0.2732  0.1093  0.5308
 1552SOL     OW 6205   3.249   3.382   3.388 -0.2648  0.1985 -0.4309
 1552SOL    HW1 6206   3.232   3.469   3.351  0.6151  0.6452  0.1837
 1552SOL    HW2 6207   3.273   3.328   3.313  0.4354  0.8098 -0.6590
 1552SOL     MW 6208   3.250   3.386   3.374 -0.0626  0.3340 -0.3814
 1553SOL     OW 6209   4.789   3.449   4.919  0.3436 -0.0187  0.2822
 1553SOL    HW1 6210   4.758   3.358   4.921 -0.5809  0.2882  0.1137
 1553SOL    HW2 6211   4.785   3.473   4.827  1.3799 -0.0574  0.2089
 1553SOL     MW 6212   4.785   3.440   4.908  0.3579  0.0156  0.2513
 1554SOL     OW 6213   1.137   1.375   4.316  0.4784 -0.2940 -0.0167
 1554SOL    HW1 6214   1.115   1.466   4.296  0.9664 -0.3555 -0.8757
 1554SOL    HW2 6215   1.129   1.329   4.233  2.6763 -0.5435 -0.1452
 1554SOL     MW 6216   1.133   1.380   4.303  0.8222 -0.3338 -0.1431
 1555SOL     OW 6217   0.341   1.498   4.714  0.6622 -0.0474  0.3881
 1555SOL    HW1 6218   0.413   1.479   4.773  0.3709 -0.5889  0.5708
 1555SOL    HW2 6219   0.263   1.499   4.770  0.6314  1.4861  0.3617
 1555SOL     MW 6220   0.340   1.496   4.729  0.6209  0.0796  0.4081
 1556SOL     OW 6221   0.463   5.369   4.816  0.3909 -0.2294  0.5165
 1556SOL    HW1 6222   0.510   5.346   4.896 -0.0090  0.0049  0.8262
 1556SOL    HW2 6223   0.422   5.453   4.836 -1.0116 -0.9002  0.6360
 1556SOL     MW 6224   0.464   5.377   4.829  0.1602 -0.2853  0.5715
 1557SOL     OW 6225   4.663   4.631   0.878  0.2294  0.3871 -0.2481
 1557SOL    HW1 6226   4.733   4.618   0.815  0.3678 -1.6866  0.2857
 1557SOL    HW2 6227   4.706   4.667   0.955  0.7206 -0.7840  0.0408
 1557SOL     MW 6228   4.677   4.634   0.880  0.3100 -0.0283 -0.1428
 1558SOL     OW 6229   5.123   1.798   2.233  0.3378 -0.5012  0.1350
 1558SOL    HW1 6230   5.108   1.733   2.164  0.5175 -0.1026 -0.2865
 1558SOL    HW2 6231   5.191   1.759   2.288  0.1409 -0.8530  0.1308
 1558SOL     MW 6232   5.130   1.785   2.231  0.3356 -0.4952  0.0805
 1559SOL     OW 6233   4.097   0.082   0.083  0.0596 -0.1375  0.2301
 1559SOL    HW1 6234   4.040   0.130   0.144 -1.2292 -0.0783 -0.9708
 1559SOL    HW2 6235   4.056  -0.004   0.076  0.2334 -0.1645 -0.4871
 1559SOL     MW 6236   4.084   0.077   0.090 -0.0831 -0.1334 -0.0155
 1560SOL     OW 6237   4.497   0.488   5.071 -0.0734 -0.1617  0.0519
 1560SOL    HW1 6238   4.558   0.433   5.022 -0.0538  1.2155 -1.5440
 1560SOL    HW2 6239   4.426   0.506   5.010  0.0048  1.7012  0.4612
 1560SOL     MW 6240   4.496   0.483   5.057 -0.0609  0.2530 -0.1000
 1561SOL     OW 6241   3.024   2.655   2.446  0.0176  0.3634  0.6617
 1561SOL    HW1 6242   3.097   2.648   2.508 -1.4459  1.1721  2.5814
 1561SOL    HW2 6243   2.954   2.602   2.485 -0.8170  0.5512 -0.5187
 1561SOL     MW 6244   3.024   2.647   2.459 -0.2766  0.4909  0.7564
 1562SOL     OW 6245   4.099   0.764   1.153 -0.9121 -0.3780 -0.4017
 1562SOL    HW1 6246   4.027   0.763   1.091 -0.2516  0.3457 -1.2051
 1562SOL    HW2 6247   4.178   0.766   1.099 -0.3088 -0.2760  0.4550
 1562SOL     MW 6248   4.100   0.764   1.138 -0.7503 -0.2723 -0.3948
 1563SOL     OW 6249   2.233   5.331   2.272 -0.3414  0.9803 -0.2101
 1563SOL    HW1 6250   2.283   5.307   2.350  0.1748  1.5361 -0.3645
 1563SOL    HW2 6251   2.298   5.340   2.203 -0.8016  0.4407 -0.7305
 1563SOL     MW 6252   2.247   5.329   2.273 -0.3342  0.9824 -0.2965
 1564SOL     OW 6253   2.081   0.348   4.747 -0.0685 -0.1227  0.2271
 1564SOL    HW1 6254   2.138   0.315   4.816 -0.5439  0.7909  1.0795
 1564SOL    HW2 6255   2.141   0.373   4.676  0.5790  0.4742  0.9646
 1564SOL     MW 6256   2.096   0.347   4.747 -0.0464  0.0707  0.4306
 1565SOL     OW 6257   1.180   3.985   2.999 -0.0229 -0.1776  0.2537
 1565SOL    HW1 6258   1.156   3.905   3.046 -1.9235 -0.6743 -1.4274
 1565SOL    HW2 6259   1.171   4.055   3.063  1.4520 -1.2343  1.6992
 1565SOL     MW 6260   1.176   3.983   3.013 -0.0774 -0.3764  0.2235
 1566SOL     OW 6261   4.788   1.634   3.783  0.0927  0.0172  0.1125
 1566SOL    HW1 6262   4.762   1.684   3.705  0.6658 -1.3708 -1.0303
 1566SOL    HW2 6263   4.870   1.674   3.811  0.7748 -0.4855 -1.0509
 1566SOL     MW 6264   4.795   1.646   3.776  0.2534 -0.2248 -0.1827
 1567SOL     OW 6265   1.026   1.518   5.105  0.3778 -0.5326 -0.3056
 1567SOL    HW1 6266   1.003   1.542   5.194  1.1065  0.9668 -0.4691
 1567SOL    HW2 6267   1.093   1.450   5.114  0.3580 -0.4725  0.2985
 1567SOL     MW 6268   1.032   1.513   5.117  0.4685 -0.3330 -0.2492
 1568SOL     OW 6269   2.630   4.763   0.706  0.3431  1.1491  0.2285
 1568SOL    HW1 6270   2.622   4.848   0.748 -0.7246  0.2147  2.0277
 1568SOL    HW2 6271   2.578   4.704   0.760  0.2506 -0.4768 -1.5075
 1568SOL     MW 6272   2.622   4.766   0.718  0.1945  0.8214  0.2366
 1569SOL     OW 6273   0.850   4.846   4.431 -0.5844 -0.1234 -0.0554
 1569SOL    HW1 6274   0.887   4.793   4.501  1.7308  3.6522  1.9454
 1569SOL    HW2 6275   0.756   4.849   4.450 -0.4746 -1.7870  0.9028
 1569SOL     MW 6276   0.843   4.840   4.442 -0.2740  0.1470  0.3234
 1570SOL     OW 6277   0.798   1.066   5.464  0.0761  0.4972 -0.4169
 1570SOL    HW1 6278   0.838   1.134   5.410  3.1023 -1.2149 -0.5560
 1570SOL    HW2 6279   0.851   0.988   5.448 -0.9340 -0.9463  2.5205
 1570SOL     MW 6280   0.810   1.065   5.455  0.3342  0.0932 -0.0587
 1571SOL     OW 6281   1.244   1.275   0.730  0.3743  0.1994 -0.2080
 1571SOL    HW1 6282   1.184   1.216   0.775 -0.4284  1.9343  1.0802
 1571SOL    HW2 6283   1.315   1.290   0.793  0.4150  0.8642 -0.4093
 1571SOL     MW 6284   1.246   1.269   0.744  0.2767  0.5066 -0.0688
 1572SOL     OW 6285   4.495   3.141   4.757 -0.4219  0.1651  0.1737
 1572SOL    HW1 6286   4.575   3.152   4.808 -0.0326 -0.0128 -0.3848
 1572SOL    HW2 6287   4.516   3.178   4.671  0.3483 -3.0715 -1.1995
 1572SOL     MW 6288   4.508   3.147   4.752 -0.2734 -0.2720 -0.0736
 1573SOL     OW 6289   3.701   5.244   2.194  0.4091  0.8770 -0.4838
 1573SOL    HW1 6290   3.730   5.291   2.272  3.0167  0.1863 -0.9430
 1573SOL    HW2 6291   3.696   5.152   2.221 -1.2287  0.9178 -0.5120
 1573SOL     MW 6292   3.704   5.238   2.207  0.5333  0.7938 -0.5462
 1574SOL     OW 6293   2.219   2.105   5.188  0.3249 -0.3530  0.1872
 1574SOL    HW1 6294   2.222   2.038   5.120  2.3641 -0.9481  0.7978
 1574SOL    HW2 6295   2.303   2.150   5.182 -0.6933  1.7145  0.2884
 1574SOL     MW 6296   2.230   2.103   5.178  0.4556 -0.1645  0.2783
 1575SOL     OW 6297   3.294   2.346   1.965 -1.1978 -0.1813  0.1301
 1575SOL    HW1 6298   3.260   2.429   1.931 -0.4717 -0.0685 -0.3380
 1575SOL    HW2 6299   3.244   2.279   1.918 -0.2418 -0.0254 -1.1653
 1575SOL     MW 6300   3.283   2.348   1.955 -0.9825 -0.1469 -0.0957
 1576SOL     OW 6301   2.249   4.115   2.083  0.4372  0.1800 -0.1790
 1576SOL    HW1 6302   2.337   4.097   2.051 -0.4419 -1.8792 -1.6539
 1576SOL    HW2 6303   2.202   4.033   2.072 -1.4903  0.9969  1.3037
 1576SOL     MW 6304   2.254   4.102   2.078  0.0779  0.0210 -0.1780
 1577SOL     OW 6305   2.978   1.489   0.420 -0.2077  0.0265 -0.4357
 1577SOL    HW1 6306   2.886   1.492   0.447 -0.8087  0.4582 -2.3316
 1577SOL    HW2 6307   3.026   1.520   0.496 -1.8216  1.7600 -0.0293
 1577SOL     MW 6308   2.972   1.494   0.433 -0.4912  0.3037 -0.6264
 1578SOL     OW 6309   2.000   4.162   1.238  0.0006 -0.3732  0.7008
 1578SOL    HW1 6310   1.955   4.130   1.160  2.4033 -1.0072 -0.5203
 1578SOL    HW2 6311   2.032   4.084   1.282  1.0290  0.1014  0.8194
 1578SOL     MW 6312   1.998   4.148   1.234  0.4398 -0.3936  0.5597
 1579SOL     OW 6313   1.160   3.547   3.922  0.5274 -0.2503 -0.0857
 1579SOL    HW1 6314   1.069   3.533   3.950  0.4678 -0.5517 -0.4159
 1579SOL    HW2 6315   1.154   3.616   3.856  0.5540 -0.1916 -0.0272
 1579SOL     MW 6316   1.147   3.554   3.917  0.5232 -0.2813 -0.1205
 1580SOL     OW 6317   3.102   1.059   0.982  0.2704 -0.0442  0.2871
 1580SOL    HW1 6318   3.095   1.129   0.917  0.3185  0.0940  0.4270
 1580SOL    HW2 6319   3.016   1.017   0.983  0.1866  0.1263  0.3249
 1580SOL     MW 6320   3.090   1.063   0.974  0.2659 -0.0047  0.3098
 1581SOL     OW 6321   5.183   1.225   3.157 -0.4101 -0.1368  0.0783
 1581SOL    HW1 6322   5.233   1.197   3.081  0.1867 -0.7578  0.6932
 1581SOL    HW2 6323   5.125   1.152   3.177 -2.1719  0.8688 -1.1014
 1581SOL     MW 6324   5.182   1.212   3.150 -0.5593 -0.0876  0.0060
 1582SOL     OW 6325   3.774   3.114   2.690 -0.2631  0.8519 -0.2146
 1582SOL    HW1 6326   3.832   3.072   2.753 -0.9366  0.0448 -0.1202
 1582SOL    HW2 6327   3.687   3.107   2.729 -1.1970 -2.2663 -2.4636
 1582SOL     MW 6328   3.770   3.108   2.703 -0.4689  0.3494 -0.4904
 1583SOL     OW 6329   4.397   0.780   0.510 -0.1855  0.2359 -0.4392
 1583SOL    HW1 6330   4.311   0.738   0.519 -1.2319  2.1220 -1.0626
 1583SOL    HW2 6331   4.442   0.762   0.592 -1.0991 -0.9429 -0.1807
 1583SOL     MW 6332   4.392   0.772   0.522 -0.4364  0.3264 -0.4859
 1584SOL     OW 6333   4.698   4.140   1.555  0.3552  0.1478 -0.0675
 1584SOL    HW1 6334   4.698   4.170   1.463 -1.2532  1.5183  0.3195
 1584SOL    HW2 6335   4.745   4.209   1.602 -0.3392  0.3263  0.3714
 1584SOL     MW 6336   4.704   4.153   1.549  0.0604  0.3461  0.0382
 1585SOL     OW 6337   3.444   4.066   3.775  0.0937  0.2654 -0.9410
 1585SOL    HW1 6338   3.460   4.160   3.775 -0.4192  0.3608 -1.8064
 1585SOL    HW2 6339   3.475   4.036   3.690  2.9637 -0.8655  0.3798
 1585SOL     MW 6340   3.450   4.074   3.764  0.3954  0.1328 -0.8827
 1586SOL     OW 6341   0.236   1.872   3.115  0.0195 -0.9392 -0.4837
 1586SOL    HW1 6342   0.174   1.826   3.059 -0.2892 -2.1566  0.8062
 1586SOL    HW2 6343   0.258   1.809   3.184  1.5165 -0.0048 -0.0532
 1586SOL     MW 6344   0.231   1.858   3.116  0.1716 -0.9755 -0.2634
 1587SOL     OW 6345   4.232   2.907   1.456 -0.4135 -0.1247  0.0934
 1587SOL    HW1 6346   4.310   2.929   1.405 -0.3392  0.2644  0.3674
 1587SOL    HW2 6347   4.213   2.987   1.506 -0.8083 -0.3169  0.2562
 1587SOL     MW 6348   4.240   2.920   1.456 -0.4545 -0.0995  0.1493
 1588SOL     OW 6349   1.188   2.015   0.517 -0.2008  0.3591  0.6342
 1588SOL    HW1 6350   1.103   2.000   0.558 -0.3768 -1.0582 -0.1735
 1588SOL    HW2 6351   1.178   1.981   0.428  1.0552  0.6532  0.3567
 1588SOL     MW 6352   1.176   2.009   0.511 -0.0626  0.2153  0.4953
 1589SOL     OW 6353   0.457   5.234   0.415 -0.1301  0.4217  0.4058
 1589SOL    HW1 6354   0.397   5.301   0.382  0.7976  1.1684  0.1784
 1589SOL    HW2 6355   0.415   5.200   0.494 -1.5445 -0.1351 -0.5468
 1589SOL     MW 6356   0.444   5.238   0.420 -0.1924  0.4460  0.2548
 1590SOL     OW 6357   1.770   5.121   3.332  0.6125  0.1797  0.7910
 1590SOL    HW1 6358   1.787   5.213   3.314  0.0758  0.2038  0.3650
 1590SOL    HW2 6359   1.750   5.083   3.246 -2.6644  0.4290  1.3049
 1590SOL     MW 6360   1.770   5.128   3.318  0.1243  0.2147  0.8023
 1591SOL     OW 6361   2.722   0.137   4.499  0.0506 -0.5710  0.7805
 1591SOL    HW1 6362   2.806   0.153   4.541  0.6098 -0.9522 -0.1677
 1591SOL    HW2 6363   2.728   0.047   4.466  0.1734  0.1578 -1.3016
 1591SOL     MW 6364   2.733   0.127   4.500  0.1379 -0.5265  0.3926
 1592SOL     OW 6365   5.142   2.443   2.496  0.0397  0.0037  0.4112
 1592SOL    HW1 6366   5.157   2.538   2.493 -1.2640  0.2142 -1.6959
 1592SOL    HW2 6367   5.208   2.410   2.557  0.7904  2.2090  0.8925
 1592SOL     MW 6368   5.152   2.451   2.503 -0.0311  0.3130  0.2031
 1593SOL     OW 6369   1.341   2.251   3.838  0.4107 -0.0163 -0.4422
 1593SOL    HW1 6370   1.384   2.304   3.772  1.4333 -1.3994 -0.9397
 1593SOL    HW2 6371   1.410   2.195   3.873 -0.3212  0.0192  1.1145
 1593SOL     MW 6372   1.355   2.250   3.834  0.4479 -0.1888 -0.3066
 1594SOL     OW 6373   3.512   3.494   1.450 -0.4945  1.0323 -0.0357
 1594SOL    HW1 6374   3.506   3.587   1.473 -0.0956  1.1171 -0.2743
 1594SOL    HW2 6375   3.572   3.491   1.376 -0.8756  0.6307 -0.3365
 1594SOL     MW 6376   3.519   3.505   1.444 -0.4922  0.9918 -0.1047
 1595SOL     OW 6377   0.003   1.874   1.971 -0.1103  0.1608 -0.4501
 1595SOL    HW1 6378   0.096   1.892   1.982  0.2660 -1.7203 -0.2156
 1595SOL    HW2 6379  -0.022   1.828   2.051 -1.1364  0.2281 -0.7130
 1595SOL     MW 6380   0.012   1.871   1.983 -0.1935 -0.0714 -0.4537
 1596SOL     OW 6381   5.194   2.885   1.204 -0.0303  0.5522 -0.3834
 1596SOL    HW1 6382   5.288   2.903   1.193 -0.3175  1.1812 -2.1603
 1596SOL    HW2 6383   5.191   2.796   1.240  1.2537 -0.2038 -1.9900
 1596SOL     MW 6384   5.206   2.876   1.207  0.0973  0.5359 -0.8166
 1597SOL     OW 6385   2.879   0.302   0.216 -0.1030 -0.1669 -0.4848
 1597SOL    HW1 6386   2.884   0.278   0.308  0.3880  0.2533 -0.3956
 1597SOL    HW2 6387   2.923   0.230   0.170 -0.1974 -0.2922 -0.3792
 1597SOL     MW 6388   2.885   0.290   0.222 -0.0523 -0.1292 -0.4599
 1598SOL     OW 6389   2.309   4.044   2.884 -0.4481 -0.1629 -0.5169
 1598SOL    HW1 6390   2.351   4.080   2.806  0.0822 -0.0185 -0.1740
 1598SOL    HW2 6391   2.347   3.957   2.893  0.2639  0.2056  0.1513
 1598SOL     MW 6392   2.319   4.038   2.875 -0.2891 -0.0973 -0.3874
 1599SOL     OW 6393   2.971   2.798   4.148  0.1931 -0.0589  0.2082
 1599SOL    HW1 6394   3.059   2.833   4.137 -0.2684  1.3561  0.8217
 1599SOL    HW2 6395   2.964   2.778   4.241 -0.5163  0.9923  0.4030
 1599SOL     MW 6396   2.981   2.800   4.159  0.0432  0.2568  0.3117
 1600SOL     OW 6397   2.697   1.054   1.228 -0.1187  0.0986 -0.1292
 1600SOL    HW1 6398   2.646   0.985   1.271  0.0602 -0.7957 -1.3051
 1600SOL    HW2 6399   2.661   1.135   1.264 -1.9265 -0.5247 -0.3867
 1600SOL     MW 6400   2.686   1.055   1.238 -0.3272 -0.0957 -0.3126
 1601SOL     OW 6401   0.768   3.243   0.428 -0.6926 -0.7137  0.1786
 1601SOL    HW1 6402   0.747   3.275   0.340  1.9257  1.1768  0.1167
 1601SOL    HW2 6403   0.790   3.322   0.477  1.0713 -2.0115  1.5921
 1601SOL     MW 6404   0.768   3.258   0.423 -0.1316 -0.6378  0.3516
 1602SOL     OW 6405   3.353   2.889   4.596  0.1969  0.5153 -0.5556
 1602SOL    HW1 6406   3.274   2.857   4.552  0.8914 -0.0244 -1.4545
 1602SOL    HW2 6407   3.370   2.825   4.665 -0.3483  0.8271 -0.1289
 1602SOL     MW 6408   3.345   2.877   4.599  0.2160  0.4861 -0.6160
 1603SOL     OW 6409   0.231   3.491   3.703 -0.5108 -0.2300  0.8615
 1603SOL    HW1 6410   0.202   3.447   3.623 -0.1410 -1.7883  1.5439
 1603SOL    HW2 6411   0.188   3.443   3.774  0.8110 -0.2345  1.6984
 1603SOL     MW 6412   0.222   3.479   3.702 -0.2943 -0.4301  1.0560
 1604SOL     OW 6413   0.556   1.965   4.772  0.0812 -0.1567 -0.4436
 1604SOL    HW1 6414   0.488   1.945   4.836 -0.2409  0.4968 -0.5634
 1604SOL    HW2 6415   0.637   1.966   4.822  0.0756 -1.3880 -0.3831
 1604SOL     MW 6416   0.558   1.963   4.786  0.0393 -0.2306 -0.4512
 1605SOL     OW 6417   2.552   1.050   0.127  0.5091 -0.1541  0.5504
 1605SOL    HW1 6418   2.637   1.087   0.106 -0.0841  1.3545  0.6628
 1605SOL    HW2 6419   2.540   0.979   0.064  0.9226  1.0336 -0.9121
 1605SOL     MW 6420   2.561   1.046   0.116  0.4861  0.1911  0.3776
 1606SOL     OW 6421   1.217   3.018   4.032 -0.0818  0.1663  0.1325
 1606SOL    HW1 6422   1.183   2.936   3.997 -0.1696  0.2253  0.0803
 1606SOL    HW2 6423   1.278   3.050   3.965 -0.7339  0.6059 -0.2606
 1606SOL     MW 6424   1.220   3.012   4.019 -0.1765  0.2301  0.0755
 1607SOL     OW 6425   1.798   2.752   1.191 -0.2625 -0.3530  0.0084
 1607SOL    HW1 6426   1.792   2.792   1.105  0.2205 -1.4100 -0.5347
 1607SOL    HW2 6427   1.891   2.738   1.205 -0.2851  0.3528  0.9699
 1607SOL     MW 6428   1.809   2.755   1.182 -0.2036 -0.3980  0.0620
 1608SOL     OW 6429   2.336   2.937   3.819 -0.2751 -0.0142  0.1772
 1608SOL    HW1 6430   2.427   2.965   3.807 -0.4143  0.0180 -0.9143
 1608SOL    HW2 6431   2.332   2.850   3.780 -0.6904 -0.0702  0.3318
 1608SOL     MW 6432   2.347   2.929   3.813 -0.3461 -0.0172  0.0572
 1609SOL     OW 6433   5.330   2.113   3.281  0.0855  0.7256 -0.6310
 1609SOL    HW1 6434   5.290   2.129   3.195 -1.3208  0.9660  0.0492
 1609SOL    HW2 6435   5.315   2.020   3.297 -1.1847  1.0241  0.0776
 1609SOL     MW 6436   5.323   2.103   3.272 -0.2571  0.7946 -0.4532
 1610SOL     OW 6437   0.412   1.044   0.808 -0.3866  0.3324 -0.4847
 1610SOL    HW1 6438   0.443   1.014   0.722  1.5936  1.1477 -0.1168
 1610SOL    HW2 6439   0.480   1.016   0.869 -1.9091 -0.4995  0.9102
 1610SOL     MW 6440   0.425   1.037   0.804 -0.3280  0.3303 -0.2591
 1611SOL     OW 6441   2.338   2.130   4.079  0.1129 -0.1965  0.6096
 1611SOL    HW1 6442   2.258   2.104   4.125  1.0703 -2.5448  1.0558
 1611SOL    HW2 6443   2.407   2.076   4.118  1.9976  1.8974  0.3706
 1611SOL     MW 6444   2.336   2.120   4.090  0.4767 -0.2291  0.6361
 1612SOL     OW 6445   1.757   4.202   3.394 -0.1738  0.0283  0.3242
 1612SOL    HW1 6446   1.666   4.227   3.409 -0.7443 -0.4684 -1.9112
 1612SOL    HW2 6447   1.808   4.271   3.437 -1.5929  0.7934  0.8632
 1612SOL     MW 6448   1.752   4.214   3.402 -0.4285  0.0626  0.1070
 1613SOL     OW 6449   2.880   5.296   1.570 -0.0320  0.5231  0.6412
 1613SOL    HW1 6450   2.856   5.247   1.649  1.0313  1.5408  1.6362
 1613SOL    HW2 6451   2.913   5.379   1.603  0.5635  0.9179 -0.8874
 1613SOL     MW 6452   2.881   5.300   1.584  0.1804  0.7039  0.5729
 1614SOL     OW 6453   3.192   3.522   5.297  0.3256 -0.3535 -0.2163
 1614SOL    HW1 6454   3.135   3.592   5.330  2.2865  0.6457  1.3096
 1614SOL    HW2 6455   3.280   3.550   5.322  1.4322 -2.1990 -1.7913
 1614SOL     MW 6456   3.196   3.534   5.304  0.7183 -0.4619 -0.2226
 1615SOL     OW 6457   2.895   0.929   4.022  0.0282  0.4150  0.1042
 1615SOL    HW1 6458   2.959   0.905   4.089 -0.4899  0.1897  0.5273
 1615SOL    HW2 6459   2.944   0.985   3.962  0.2515  1.5177  1.2501
 1615SOL     MW 6460   2.909   0.933   4.023 -0.0095  0.5274  0.3051
 1616SOL     OW 6461   2.463   3.959   1.059 -0.0417 -0.2619  0.6205
 1616SOL    HW1 6462   2.509   3.982   0.979 -2.5267 -1.8162 -1.4052
 1616SOL    HW2 6463   2.455   4.042   1.106  1.5918  0.6742 -0.6386
 1616SOL     MW 6464   2.468   3.973   1.055 -0.1507 -0.3411  0.2000
 1617SOL     OW 6465   4.577   2.438   2.695  0.0192 -0.0818  0.1513
 1617SOL    HW1 6466   4.505   2.492   2.661  0.3479  0.7903  0.7941
 1617SOL    HW2 6467   4.656   2.481   2.664  0.2847 -1.3242 -0.9746
 1617SOL     MW 6468   4.578   2.450   2.687  0.0953 -0.1292  0.0895
 1618SOL     OW 6469   1.788   3.502   0.474 -0.0158 -0.4960  0.4793
 1618SOL    HW1 6470   1.834   3.481   0.555  0.3870  1.6282  0.8609
 1618SOL    HW2 6471   1.702   3.462   0.484  1.0475 -2.8890  0.5854
 1618SOL     MW 6472   1.783   3.495   0.485  0.1719 -0.5304  0.5417
 1619SOL     OW 6473   0.590   2.611   1.160  0.4105 -0.4475 -0.1399
 1619SOL    HW1 6474   0.637   2.557   1.223  2.2913  1.2460  0.0148
 1619SOL    HW2 6475   0.629   2.589   1.076  1.4725  0.8725 -0.0270
 1619SOL     MW 6476   0.601   2.602   1.157  0.7872 -0.0618 -0.1057
 1620SOL     OW 6477   0.659   3.984   0.598 -0.0812  0.0037 -0.3099
 1620SOL    HW1 6478   0.720   3.986   0.525 -0.4321  0.2834 -0.5997
 1620SOL    HW2 6479   0.712   3.955   0.672 -0.1184 -2.1067 -1.0482
 1620SOL     MW 6480   0.674   3.981   0.598 -0.1309 -0.2307 -0.4415
 1621SOL     OW 6481   3.139   0.927   2.601  0.5956 -0.3037  0.0549
 1621SOL    HW1 6482   3.101   0.947   2.687  1.0394 -1.7098  0.5924
 1621SOL    HW2 6483   3.065   0.896   2.549  0.0955  1.6203 -0.4743
 1621SOL     MW 6484   3.125   0.926   2.605  0.5884 -0.2374  0.0559
 1622SOL     OW 6485   2.078   4.982   2.387 -0.0158 -0.5517  0.0955
 1622SOL    HW1 6486   2.168   4.988   2.354 -0.4176 -1.3738 -1.2249
 1622SOL    HW2 6487   2.046   4.899   2.353 -0.2211 -1.9333  3.2829
 1622SOL     MW 6488   2.086   4.972   2.379 -0.0935 -0.8338  0.3345
 1623SOL     OW 6489   0.254   3.394   2.980  0.7920  0.4559 -0.2245
 1623SOL    HW1 6490   0.192   3.400   2.907  0.6294 -1.5489 -0.3079
 1623SOL    HW2 6491   0.200   3.390   3.058  0.8563  0.0492 -0.1978
 1623SOL     MW 6492   0.239   3.394   2.980  0.7794  0.1472 -0.2318
 1624SOL     OW 6493   3.734   5.060   3.090 -0.4908  0.0635 -0.5217
 1624SOL    HW1 6494   3.685   5.070   3.008 -2.6318 -2.3340  0.3565
 1624SOL    HW2 6495   3.686   5.111   3.154 -1.4161 -1.5742  0.1470
 1624SOL     MW 6496   3.722   5.068   3.087 -0.8833 -0.4531 -0.3237
 1625SOL     OW 6497   1.171   2.772   3.924  0.1681  0.4889  0.0134
 1625SOL    HW1 6498   1.099   2.762   3.861  0.1404 -0.8257  0.2275
 1625SOL    HW2 6499   1.143   2.720   4.000  0.3984  1.6938  0.9562
 1625SOL     MW 6500   1.158   2.764   3.926  0.1940  0.4749  0.1615
 1626SOL     OW 6501   2.125   1.586   0.344 -0.3994  0.1296 -0.5849
 1626SOL    HW1 6502   2.031   1.571   0.346  0.1048 -4.6713 -0.7900
 1626SOL    HW2 6503   2.160   1.515   0.289  3.4839  0.6674  0.8357
 1626SOL     MW 6504   2.118   1.575   0.337  0.1622 -0.4161 -0.4293
 1627SOL     OW 6505   3.078   4.699   3.100  0.0961 -0.5244  0.0198
 1627SOL    HW1 6506   2.987   4.686   3.126  0.0175 -1.4206 -0.6318
 1627SOL    HW2 6507   3.112   4.610   3.087  1.0134 -0.1963  0.0881
 1627SOL     MW 6508   3.070   4.686   3.101  0.2035 -0.5971 -0.0549
 1628SOL     OW 6509   3.551   4.601   4.240 -0.2271  0.2544 -0.5947
 1628SOL    HW1 6510   3.618   4.614   4.308  0.6724 -0.5900 -1.2871
 1628SOL    HW2 6511   3.567   4.513   4.207  0.2937  1.1263 -2.8716
 1628SOL     MW 6512   3.562   4.591   4.245 -0.0453  0.2579 -0.9748
 1629SOL     OW 6513   3.599   3.904   4.843 -0.1525 -0.3569 -0.0594
 1629SOL    HW1 6514   3.517   3.934   4.802 -0.4477 -1.9436 -0.7062
 1629SOL    HW2 6515   3.608   3.813   4.814  1.6799 -0.3126  0.2756
 1629SOL     MW 6516   3.589   3.896   4.834  0.0443 -0.5543 -0.0993
 1630SOL     OW 6517   3.347   5.191   4.552 -0.0177 -0.7045 -0.1105
 1630SOL    HW1 6518   3.308   5.168   4.636 -1.4788 -0.8287 -0.7881
 1630SOL    HW2 6519   3.436   5.156   4.556 -0.2726 -1.2507  1.1381
 1630SOL     MW 6520   3.353   5.183   4.563 -0.2373 -0.7903 -0.0374
 1631SOL     OW 6521   0.176   5.057   4.078 -0.2211  0.3058  0.0380
 1631SOL    HW1 6522   0.176   5.043   4.173  0.3162  0.2691  0.0367
 1631SOL    HW2 6523   0.108   5.123   4.064  0.7275  1.4484  0.6380
 1631SOL     MW 6524   0.167   5.064   4.089 -0.0309  0.4473  0.1146
 1632SOL     OW 6525   4.456   3.035   3.250 -0.0853  0.0542 -0.3973
 1632SOL    HW1 6526   4.383   2.982   3.283  0.5090 -0.0518  0.7981
 1632SOL    HW2 6527   4.511   2.973   3.202 -0.4049  0.0002 -0.7064
 1632SOL     MW 6528   4.454   3.020   3.248 -0.0501  0.0337 -0.2838
 1633SOL     OW 6529   0.628   5.057   0.672  0.2566  0.1012 -0.0215
 1633SOL    HW1 6530   0.664   5.139   0.639  0.2517 -1.1255 -3.3962
 1633SOL    HW2 6531   0.536   5.076   0.689  0.6811  1.2450  1.2476
 1633SOL     MW 6532   0.621   5.070   0.670  0.3103  0.0906 -0.2911
 1634SOL     OW 6533   0.720   5.492   5.407  0.3119  0.2161  0.3894
 1634SOL    HW1 6534   0.794   5.443   5.371 -0.1010  0.6769 -1.1310
 1634SOL    HW2 6535   0.660   5.424   5.439  0.9735 -0.1747  0.8367
 1634SOL     MW 6536   0.722   5.477   5.407  0.3437  0.2251  0.2521
 1635SOL     OW 6537   2.285   3.633   5.316  0.2553  0.0644  0.0961
 1635SOL    HW1 6538   2.222   3.569   5.283 -0.4725  1.1499 -0.6949
 1635SOL    HW2 6539   2.274   3.631   5.411 -1.0738  0.2932 -0.0294
 1635SOL     MW 6540   2.276   3.625   5.324 -0.0080  0.2326 -0.0212
 1636SOL     OW 6541   2.878   3.069   0.886  0.6258  0.0874 -0.1641
 1636SOL    HW1 6542   2.946   3.049   0.950  0.2963  0.6925  0.3886
 1636SOL    HW2 6543   2.814   3.121   0.934 -1.1562 -1.9474 -0.1670
 1636SOL     MW 6544   2.878   3.073   0.900  0.3555 -0.0956 -0.0937
 1637SOL     OW 6545   2.879   0.614   4.728  0.0745 -0.0960  0.0478
 1637SOL    HW1 6546   2.938   0.686   4.705 -0.2578  0.2330  0.2094
 1637SOL    HW2 6547   2.870   0.563   4.648  0.7566 -0.2808  0.0825
 1637SOL     MW 6548   2.885   0.617   4.715  0.1193 -0.0775  0.0729
 1638SOL     OW 6549   3.832   0.564   4.904 -0.3150 -0.1110 -0.5739
 1638SOL    HW1 6550   3.902   0.519   4.952 -0.2825  0.4853 -0.0571
 1638SOL    HW2 6551   3.789   0.619   4.969 -1.0064 -0.1524 -0.9828
 1638SOL     MW 6552   3.836   0.565   4.918 -0.3994 -0.0399 -0.5601
 1639SOL     OW 6553   4.435   2.745   2.371  0.1168 -0.0306  0.0864
 1639SOL    HW1 6554   4.371   2.778   2.308  1.2011  0.4794 -0.7818
 1639SOL    HW2 6555   4.460   2.659   2.337 -0.0857 -0.2167  0.4074
 1639SOL     MW 6556   4.430   2.738   2.359  0.2297  0.0109  0.0164
 1640SOL     OW 6557   3.874   0.292   1.060  0.2188  0.3442  0.1053
 1640SOL    HW1 6558   3.967   0.277   1.040 -0.4874 -2.2701 -1.7241
 1640SOL    HW2 6559   3.851   0.368   1.007  0.9821  0.0387 -0.7038
 1640SOL     MW 6560   3.883   0.300   1.051  0.2261 -0.0295 -0.2324
 1641SOL     OW 6561   4.852   3.404  -0.016 -0.2701  0.5152 -0.6962
 1641SOL    HW1 6562   4.824   3.422   0.074 -2.2534 -1.1910 -0.9155
 1641SOL    HW2 6563   4.902   3.482  -0.041  0.0517  1.1748  1.7482
 1641SOL     MW 6564   4.855   3.416  -0.008 -0.4828  0.3812 -0.4114
 1642SOL     OW 6565   0.670   3.237   1.789 -0.2862  0.0823 -0.0520
 1642SOL    HW1 6566   0.725   3.212   1.863 -1.5279 -1.9870  0.2489
 1642SOL    HW2 6567   0.592   3.182   1.797 -0.7052  0.1703 -2.5868
 1642SOL     MW 6568   0.667   3.227   1.799 -0.4988 -0.1714 -0.3380
 1643SOL     OW 6569   3.157   2.377   4.640  0.3666 -0.1225  0.0260
 1643SOL    HW1 6570   3.065   2.352   4.630  0.3907 -0.0357 -0.4318
 1643SOL    HW2 6571   3.206   2.298   4.617  0.4305  0.1854 -0.9561
 1643SOL     MW 6572   3.151   2.364   4.636  0.3779 -0.0720 -0.1583
 1644SOL     OW 6573   3.105   3.082   1.727  0.3813 -0.1460  0.1301
 1644SOL    HW1 6574   3.137   3.073   1.817  0.3903 -2.5850 -0.0384
 1644SOL    HW2 6575   3.184   3.076   1.673  0.4189  1.6890 -0.0728
 1644SOL     MW 6576   3.120   3.080   1.731  0.3873 -0.2233  0.0825
 1645SOL     OW 6577   0.323   1.929   4.902 -0.1543 -0.3036  0.1943
 1645SOL    HW1 6578   0.368   1.849   4.931 -0.5073  0.1256  2.0585
 1645SOL    HW2 6579   0.257   1.946   4.970 -1.2072  0.6737 -1.0096
 1645SOL     MW 6580   0.320   1.921   4.914 -0.3342 -0.1235  0.2788
 1646SOL     OW 6581   4.843   4.336   2.202 -0.2166  0.3359 -0.0991
 1646SOL    HW1 6582   4.798   4.409   2.159  0.3562  0.2795 -0.8253
 1646SOL    HW2 6583   4.830   4.262   2.143  0.4516  0.2173 -0.1063
 1646SOL     MW 6584   4.836   4.336   2.189 -0.0578  0.3135 -0.1930
 1647SOL     OW 6585   3.647   3.092   3.487  0.2750  0.3943 -0.2171
 1647SOL    HW1 6586   3.682   3.113   3.400  0.8950 -1.0702 -0.3477
 1647SOL    HW2 6587   3.716   3.118   3.548  0.0925  0.8405 -0.1921
 1647SOL     MW 6588   3.660   3.098   3.483  0.3310  0.2640 -0.2306
 1648SOL     OW 6589   3.732   0.271   2.922  0.1612 -0.0017 -0.0989
 1648SOL    HW1 6590   3.658   0.307   2.971  0.1299 -0.9487  0.5886
 1648SOL    HW2 6591   3.795   0.247   2.990  2.1411  2.8458 -0.7322
 1648SOL     MW 6592   3.731   0.273   2.937  0.4107  0.2416 -0.0920
 1649SOL     OW 6593   3.004   4.871   1.562 -0.2786  0.0099 -0.2484
 1649SOL    HW1 6594   2.946   4.834   1.628  0.0835 -1.4199 -0.6941
 1649SOL    HW2 6595   3.074   4.914   1.611 -0.2765 -0.6176  0.3043
 1649SOL     MW 6596   3.006   4.872   1.577 -0.2320 -0.2535 -0.2347
 1650SOL     OW 6597   1.212   0.093   1.429 -0.2315 -0.2289  0.1351
 1650SOL    HW1 6598   1.137   0.144   1.457 -1.4031 -1.4270 -0.6816
 1650SOL    HW2 6599   1.271   0.157   1.388 -2.6374  0.2744 -2.8933
 1650SOL     MW 6600   1.210   0.108   1.427 -0.6894 -0.3179 -0.3571
 1651SOL     OW 6601   0.438   0.042   2.477  0.0890 -0.5123 -0.6261
 1651SOL    HW1 6602   0.382   0.111   2.512  1.6469  0.8385 -0.6558
 1651SOL    HW2 6603   0.416   0.038   2.384 -1.9509 -2.0305 -0.1333
 1651SOL     MW 6604   0.428   0.050   2.470  0.0273 -0.5337 -0.5668
 1652SOL     OW 6605   2.499   1.269   4.502 -0.1098  0.4821  0.5764
 1652SOL    HW1 6606   2.432   1.280   4.434  0.1700  0.4184  0.2843
 1652SOL    HW2 6607   2.553   1.196   4.470  0.3653  0.8248  0.5810
 1652SOL     MW 6608   2.497   1.261   4.489 -0.0132  0.5178  0.5396
 1653SOL     OW 6609   2.597   0.515   3.702  0.2050  0.2679  0.3472
 1653SOL    HW1 6610   2.523   0.551   3.654  0.2039 -0.6788 -0.3954
 1653SOL    HW2 6611   2.564   0.434   3.741  0.6954  0.1058  0.4405
 1653SOL     MW 6612   2.583   0.509   3.701  0.2676  0.1260  0.2640
 1654SOL     OW 6613   4.757   0.231   2.312 -0.2301  0.9592 -0.3911
 1654SOL    HW1 6614   4.852   0.229   2.317 -0.2877  0.2430  0.7594
 1654SOL    HW2 6615   4.733   0.149   2.269 -0.3151  1.3259 -1.0512
 1654SOL     MW 6616   4.766   0.220   2.307 -0.2484  0.9145 -0.3283
 1655SOL     OW 6617   3.122   3.365   0.012  0.4865  0.2153  0.4272
 1655SOL    HW1 6618   3.143   3.420  -0.063  0.4452  1.1866  1.1175
 1655SOL    HW2 6619   3.187   3.388   0.078  0.4771 -0.5735  0.7299
 1655SOL     MW 6620   3.133   3.375   0.011  0.4800  0.2387  0.5543
 1656SOL     OW 6621   2.409   0.491   2.554  0.1342  0.0108  0.3802
 1656SOL    HW1 6622   2.357   0.534   2.622  2.3133  0.8652  1.6344
 1656SOL    HW2 6623   2.482   0.451   2.601  0.5909 -1.2039 -1.2627
 1656SOL     MW 6624   2.412   0.492   2.569  0.4717 -0.0353  0.3304
 1657SOL     OW 6625   5.438   0.715   3.828 -0.5017  0.2707 -0.5796
 1657SOL    HW1 6626   5.346   0.690   3.838 -0.8063  1.0981 -1.2046
 1657SOL    HW2 6627   5.483   0.669   3.899 -1.2079 -1.0591 -0.9628
 1657SOL     MW 6628   5.432   0.706   3.838 -0.6311  0.2064 -0.7087
 1658SOL     OW 6629   4.701   0.232   5.329 -0.0100  0.7996  0.5743
 1658SOL    HW1 6630   4.739   0.170   5.267  0.1991 -0.4764  1.9287
 1658SOL    HW2 6631   4.725   0.318   5.294 -0.8376  0.1915 -1.6822
 1658SOL     MW 6632   4.709   0.235   5.316 -0.0892  0.5584  0.4589
 1659SOL     OW 6633   2.471   1.684   0.959  0.2589 -0.0017  0.0671
 1659SOL    HW1 6634   2.397   1.724   0.914  0.5159 -1.4179 -1.7140
 1659SOL    HW2 6635   2.435   1.656   1.043 -0.7800  0.8145 -0.0784
 1659SOL     MW 6636   2.457   1.686   0.964  0.1588 -0.0785 -0.1795
 1660SOL     OW 6637   2.646   2.391   5.072  0.4902 -0.1501 -0.0568
 1660SOL    HW1 6638   2.616   2.305   5.101 -0.4188  0.0021 -0.4919
 1660SOL    HW2 6639   2.740   2.380   5.056  0.0590 -1.6184 -2.0310
 1660SOL     MW 6640   2.654   2.379   5.073  0.3186 -0.3186 -0.3652
 1661SOL     OW 6641   3.131   1.373   3.699  0.4647  0.0121 -0.1061
 1661SOL    HW1 6642   3.106   1.290   3.740 -0.9391  0.3264 -0.2831
 1661SOL    HW2 6643   3.060   1.392   3.637  0.1202  1.9480  0.8079
 1661SOL     MW 6644   3.119   1.364   3.696  0.2409  0.3002 -0.0117
 1662SOL     OW 6645   0.261   4.269   2.023 -0.3526  0.3128 -0.0700
 1662SOL    HW1 6646   0.316   4.208   1.974 -0.2491  0.8170 -0.5929
 1662SOL    HW2 6647   0.175   4.228   2.025 -0.4030  0.3812 -0.8383
 1662SOL     MW 6648   0.257   4.256   2.017 -0.3458  0.3861 -0.2353
 1663SOL     OW 6649   1.632   4.619   3.130 -0.2977  0.0230 -0.5911
 1663SOL    HW1 6650   1.599   4.534   3.099 -3.4680  0.6641  0.6106
 1663SOL    HW2 6651   1.698   4.597   3.195 -1.3229 -1.5874 -0.0325
 1663SOL     MW 6652   1.636   4.605   3.135 -0.8348 -0.1011 -0.3658
 1664SOL     OW 6653   2.633   3.038   0.020 -0.2632 -0.2252  0.7344
 1664SOL    HW1 6654   2.617   3.132   0.014 -0.2150  0.2132  4.6325
 1664SOL    HW2 6655   2.728   3.030   0.028 -0.1180 -0.8150 -1.2079
 1664SOL     MW 6656   2.643   3.049   0.020 -0.2384 -0.2446  0.9848
 1665SOL     OW 6657   0.660   0.175   1.245 -0.4641 -0.5356 -0.0129
 1665SOL    HW1 6658   0.663   0.139   1.156 -1.4373 -0.7259  0.0132
 1665SOL    HW2 6659   0.650   0.098   1.301  1.1060 -0.5010  0.3637
 1665SOL     MW 6660   0.659   0.160   1.241 -0.3877 -0.5556  0.0387
 1666SOL     OW 6661   0.661   5.406   4.649  0.0213 -0.5683 -0.0569
 1666SOL    HW1 6662   0.744   5.401   4.697  0.0319 -2.4258 -0.2136
 1666SOL    HW2 6663   0.595   5.387   4.715 -0.0928 -1.3386 -0.3782
 1666SOL     MW 6664   0.663   5.403   4.664  0.0081 -0.9047 -0.1181
 1667SOL     OW 6665   2.879   1.376   0.828 -0.0462 -0.1126 -0.4411
 1667SOL    HW1 6666   2.818   1.432   0.781 -0.6300 -1.8242 -1.8635
 1667SOL    HW2 6667   2.824   1.317   0.880  0.4810 -0.2231  0.0072
 1667SOL     MW 6668   2.864   1.375   0.828 -0.0535 -0.3458 -0.5658
 1668SOL     OW 6669   4.171   3.431   2.406  0.1304 -0.2451  0.1335
 1668SOL    HW1 6670   4.103   3.472   2.354  1.2873  1.1790 -0.3020
 1668SOL    HW2 6671   4.243   3.494   2.406  2.4424 -2.6595 -1.5147
 1668SOL     MW 6672   4.172   3.444   2.399  0.5745 -0.3719 -0.1332
 1669SOL     OW 6673   0.510   0.389   4.225  0.0746  0.2793 -0.5202
 1669SOL    HW1 6674   0.534   0.316   4.168  0.0303  0.4406 -0.7444
 1669SOL    HW2 6675   0.545   0.364   4.311 -0.1782 -0.1323 -0.5342
 1669SOL     MW 6676   0.518   0.376   4.229  0.0366  0.2473 -0.5507
 1670SOL     OW 6677   3.683   4.016   1.164  0.3139  0.1062  0.1040
 1670SOL    HW1 6678   3.654   3.996   1.075 -0.1555 -0.3240  0.3484
 1670SOL    HW2 6679   3.606   3.998   1.218  1.5188 -2.9422  1.0095
 1670SOL     MW 6680   3.669   4.011   1.159  0.4080 -0.3391  0.2512
 1671SOL     OW 6681   0.122   3.197   3.746  0.0705 -0.0651 -0.1221
 1671SOL    HW1 6682   0.177   3.149   3.684  1.1730  0.1858  0.6541
 1671SOL    HW2 6683   0.032   3.176   3.719  0.5104  0.2214 -1.9537
 1671SOL     MW 6684   0.117   3.188   3.734  0.2680  0.0037 -0.2572
 1672SOL     OW 6685   0.158   2.464   3.636 -0.3019  0.2685  0.8083
 1672SOL    HW1 6686   0.133   2.547   3.676 -1.2122  0.4535 -0.1154
 1672SOL    HW2 6687   0.203   2.417   3.707  0.0972  1.4688  1.3838
 1672SOL     MW 6688   0.160   2.468   3.650 -0.3673  0.4458  0.7637
 1673SOL     OW 6689   0.615   0.340   4.481 -0.2671  0.1781 -0.0614
 1673SOL    HW1 6690   0.582   0.418   4.526 -2.0991 -0.7003  0.2241
 1673SOL    HW2 6691   0.706   0.332   4.509  0.4785  3.0880 -1.3602
 1673SOL     MW 6692   0.622   0.349   4.490 -0.4062  0.4381 -0.1912
 1674SOL     OW 6693   3.222   1.072   2.187 -0.4577 -0.5543  0.2714
 1674SOL    HW1 6694   3.241   1.150   2.134 -2.6939 -0.8472 -1.0910
 1674SOL    HW2 6695   3.155   1.025   2.138 -2.3234 -1.1316  3.0976
 1674SOL     MW 6696   3.216   1.076   2.174 -0.9828 -0.6657  0.4588
 1675SOL     OW 6697   1.297   5.204   0.449  0.4997 -0.1752 -0.4770
 1675SOL    HW1 6698   1.353   5.256   0.506 -2.6525 -1.2498  4.1671
 1675SOL    HW2 6699   1.246   5.269   0.400  0.9707  0.9611  0.4985
 1675SOL     MW 6700   1.297   5.219   0.450  0.1565 -0.1673  0.2424
 1676SOL     OW 6701   2.453   0.568   0.943  0.0807 -0.3265  0.1786
 1676SOL    HW1 6702   2.426   0.619   0.866 -0.1741  0.2376  0.6310
 1676SOL    HW2 6703   2.375   0.564   0.998  0.5082  0.0899  0.8363
 1676SOL     MW 6704   2.440   0.574   0.940  0.1028 -0.2010  0.3207
 1677SOL     OW 6705   5.039   1.930   1.504  0.0541  0.1975 -0.0368
 1677SOL    HW1 6706   5.109   1.977   1.458  2.5575 -1.0992  2.1356
 1677SOL    HW2 6707   4.972   1.916   1.438  1.7964  1.6201 -2.2679
 1677SOL     MW 6708   5.040   1.934   1.490  0.5976  0.2136 -0.0443
 1678SOL     OW 6709   2.264   0.212   2.201 -0.1814 -0.1123 -0.0907
 1678SOL    HW1 6710   2.234   0.302   2.216  0.4894  0.3463 -1.3772
 1678SOL    HW2 6711   2.197   0.158   2.243 -2.1441  0.9159 -1.7368
 1678SOL     MW 6712   2.251   0.217   2.208 -0.3468  0.0781 -0.4661
 1679SOL     OW 6713   2.613   4.779   5.457 -0.1038 -0.5093  0.1996
 1679SOL    HW1 6714   2.706   4.760   5.448 -0.1194 -0.4389 -0.1347
 1679SOL    HW2 6715   2.572   4.692   5.461  0.2747 -0.6605  4.1639
 1679SOL     MW 6716   2.619   4.765   5.456 -0.0574 -0.5196  0.6643
 1680SOL     OW 6717   4.526   3.387   0.008 -0.1329  0.3710 -0.1412
 1680SOL    HW1 6718   4.471   3.380   0.086 -2.9946 -1.6120 -2.1209
 1680SOL    HW2 6719   4.580   3.308   0.010 -0.8025 -0.1145 -0.5044
 1680SOL     MW 6720   4.526   3.376   0.018 -0.5850  0.0550 -0.4411
 1681SOL     OW 6721   3.609   3.201   2.453 -0.0871 -0.0063  0.6001
 1681SOL    HW1 6722   3.653   3.205   2.368 -0.9178 -1.2573  0.0797
 1681SOL    HW2 6723   3.675   3.163   2.511  0.7766  1.6471  0.7469
 1681SOL     MW 6724   3.623   3.197   2.449 -0.0829  0.0452  0.5523
 1682SOL     OW 6725   0.243   2.066   1.833 -0.2602 -0.4946  0.2297
 1682SOL    HW1 6726   0.237   2.160   1.850  1.1918 -0.3576  0.1349
 1682SOL    HW2 6727   0.244   2.025   1.919 -1.8567 -0.5196  0.2592
 1682SOL     MW 6728   0.243   2.073   1.846 -0.2787 -0.4803  0.2214
 1683SOL     OW 6729   3.450   5.025   3.447  0.0118 -0.2070 -0.1809
 1683SOL    HW1 6730   3.513   4.963   3.482 -0.1766 -0.5418 -0.4240
 1683SOL    HW2 6731   3.494   5.066   3.373  0.2557  0.1920  0.1801
 1683SOL     MW 6732   3.463   5.022   3.442  0.0189 -0.1988 -0.1658
 1684SOL     OW 6733   0.919   1.420   0.617 -0.5388 -0.3446  0.3666
 1684SOL    HW1 6734   0.879   1.489   0.669 -2.7633 -1.7130  0.6183
 1684SOL    HW2 6735   0.903   1.340   0.668 -1.6907 -1.5629 -1.7745
 1684SOL     MW 6736   0.912   1.418   0.630 -0.9710 -0.6757  0.1247
 1685SOL     OW 6737   3.208   3.175   0.414 -0.4315  0.2917 -0.0522
 1685SOL    HW1 6738   3.133   3.131   0.373 -0.7764  2.1226 -1.5043
 1685SOL    HW2 6739   3.183   3.267   0.417  1.1138  0.7078  0.9647
 1685SOL     MW 6740   3.195   3.181   0.409 -0.2779  0.5793 -0.1079
 1686SOL     OW 6741   4.232   1.537   1.295 -0.6174 -0.2870 -0.8019
 1686SOL    HW1 6742   4.285   1.471   1.339 -1.0202 -0.0045  0.1232
 1686SOL    HW2 6743   4.253   1.527   1.202  2.3579  0.9153 -0.3657
 1686SOL     MW 6744   4.242   1.527   1.288 -0.2881 -0.0969 -0.6276
 1687SOL     OW 6745   3.767   1.762   3.298 -0.5491 -0.7703  0.2859
 1687SOL    HW1 6746   3.761   1.751   3.203 -1.8764 -0.7893  0.3507
 1687SOL    HW2 6747   3.845   1.816   3.311 -0.9707  0.1858 -0.9046
 1687SOL     MW 6748   3.777   1.768   3.288 -0.7730 -0.6503  0.1418
 1688SOL     OW 6749   4.501   0.145   1.096  0.2172  0.2250  0.0148
 1688SOL    HW1 6750   4.515   0.069   1.152 -2.4981  0.8316  1.7430
 1688SOL    HW2 6751   4.432   0.118   1.036  0.0621  0.9261 -0.1283
 1688SOL     MW 6752   4.494   0.132   1.096 -0.1503  0.3924  0.2178
 1689SOL     OW 6753   1.160   4.676   1.839  0.0332 -0.2419 -0.0803
 1689SOL    HW1 6754   1.067   4.658   1.828  0.1605 -0.6602 -0.5152
 1689SOL    HW2 6755   1.204   4.602   1.796  0.5613  0.1982 -0.3128
 1689SOL     MW 6756   1.154   4.664   1.832  0.1171 -0.2391 -0.1658
 1690SOL     OW 6757   2.972   4.454   2.316 -0.6928  0.4394  0.2752
 1690SOL    HW1 6758   3.060   4.492   2.319 -0.6634  0.3238  0.9447
 1690SOL    HW2 6759   2.958   4.433   2.224 -0.2179  0.9280  0.0879
 1690SOL     MW 6760   2.981   4.456   2.305 -0.6282  0.4872  0.3370
 1691SOL     OW 6761   0.068   4.310   1.318  0.0884 -0.0899  0.9827
 1691SOL    HW1 6762   0.046   4.335   1.408 -0.5313 -2.2368  1.4802
 1691SOL    HW2 6763   0.002   4.246   1.293  0.9149 -0.3921 -0.6060
 1691SOL     MW 6764   0.057   4.305   1.326  0.1149 -0.4035  0.8430
 1692SOL     OW 6765   3.759   0.515   0.048 -0.0004  0.0630  0.0780
 1692SOL    HW1 6766   3.830   0.578   0.043  0.1853 -0.2126 -0.9513
 1692SOL    HW2 6767   3.756   0.488   0.140  1.5218 -0.2650  0.0490
 1692SOL     MW 6768   3.767   0.519   0.059  0.2182 -0.0143 -0.0575
 1693SOL     OW 6769   4.998   5.369   0.137  0.1296  0.0067 -0.2798
 1693SOL    HW1 6770   4.959   5.453   0.161 -0.1738  0.0856 -1.0028
 1693SOL    HW2 6771   5.076   5.393   0.086 -0.0594 -0.1410 -0.6464
 1693SOL     MW 6772   5.003   5.383   0.133  0.0666 -0.0021 -0.4193
 1694SOL     OW 6773   0.224   0.349   0.843 -0.1420  0.2037  0.7667
 1694SOL    HW1 6774   0.213   0.364   0.749 -0.0596  0.2730  0.7688
 1694SOL    HW2 6775   0.318   0.339   0.855 -0.1468  0.2696  0.8542
 1694SOL     MW 6776   0.234   0.349   0.832 -0.1320  0.2210  0.7782
 1695SOL     OW 6777   2.469   1.901   5.177 -0.6965 -0.4413  0.3195
 1695SOL    HW1 6778   2.471   1.816   5.221 -0.3587 -0.1073  0.9654
 1695SOL    HW2 6779   2.386   1.901   5.129 -0.4824 -1.3210 -0.0800
 1695SOL     MW 6780   2.459   1.890   5.177 -0.6259 -0.5111  0.3511
 1696SOL     OW 6781   2.234   1.821   0.263  0.2284 -0.2182 -0.0938
 1696SOL    HW1 6782   2.185   1.746   0.298 -0.5310  0.3971  0.2039
 1696SOL    HW2 6783   2.170   1.893   0.263  0.8353  0.3340 -0.7288
 1696SOL     MW 6784   2.219   1.821   0.268  0.2089 -0.0688 -0.1370
 1697SOL     OW 6785   5.246   1.283   5.003  0.0493  0.0910  0.1198
 1697SOL    HW1 6786   5.261   1.229   4.926  1.7840  0.8901 -0.1378
 1697SOL    HW2 6787   5.156   1.315   4.992  0.7062  1.3319 -2.3234
 1697SOL     MW 6788   5.236   1.280   4.992  0.3555  0.3521 -0.2259
 1698SOL     OW 6789   3.970   2.602   1.164 -0.1998 -0.0725 -0.2695
 1698SOL    HW1 6790   3.996   2.692   1.185  0.4847 -0.4138  0.3977
 1698SOL    HW2 6791   3.991   2.592   1.071  1.9891 -0.2776  0.1902
 1698SOL     MW 6792   3.976   2.612   1.155  0.1681 -0.1424 -0.1252
 1699SOL     OW 6793   0.359   1.104   1.638  0.0843  0.2370 -0.7183
 1699SOL    HW1 6794   0.379   1.122   1.546  0.2510  1.9876 -0.3776
 1699SOL    HW2 6795   0.266   1.080   1.638 -0.0005  0.5401 -1.3141
 1699SOL     MW 6796   0.350   1.104   1.627  0.0948  0.4999 -0.7510
 1700SOL     OW 6797   0.751   0.851   4.894 -0.4772  0.0540  0.7938
 1700SOL    HW1 6798   0.742   0.763   4.858  1.2821  0.2313 -0.1800
 1700SOL    HW2 6799   0.718   0.908   4.826  0.1307  0.2323  0.6408
 1700SOL     MW 6800   0.746   0.847   4.881 -0.1742  0.0995  0.6496
 1701SOL     OW 6801   2.845   0.515   2.500 -0.3707 -0.0887 -0.6128
 1701SOL    HW1 6802   2.891   0.598   2.484 -0.7537  0.1319 -0.6076
 1701SOL    HW2 6803   2.819   0.485   2.413 -1.8299  0.7446 -0.5071
 1701SOL     MW 6804   2.847   0.522   2.487 -0.6065  0.0462 -0.5986
 1702SOL     OW 6805   4.490   5.363   1.513  0.0634  0.3181  0.0702
 1702SOL    HW1 6806   4.421   5.297   1.507 -1.6920  2.0507  0.3121
 1702SOL    HW2 6807   4.514   5.382   1.422 -1.4443  1.3374 -0.1419
 1702SOL     MW 6808   4.484   5.357   1.500 -0.3543  0.6704  0.0740
 1703SOL     OW 6809   1.433   0.862   3.274  0.5529  0.0821  0.1311
 1703SOL    HW1 6810   1.353   0.910   3.294 -0.5702 -1.4503 -0.4803
 1703SOL    HW2 6811   1.417   0.774   3.308  2.4218 -0.0043  0.9365
 1703SOL     MW 6812   1.420   0.857   3.281  0.6484 -0.1251  0.1559
 1704SOL     OW 6813   2.754   4.550   1.951 -0.7358 -0.1420 -0.0539
 1704SOL    HW1 6814   2.781   4.465   1.919  1.3405  0.3931  0.1630
 1704SOL    HW2 6815   2.793   4.558   2.038 -0.8815  1.0321 -0.0692
 1704SOL     MW 6816   2.762   4.540   1.958 -0.4886  0.0768 -0.0281
 1705SOL     OW 6817   0.914   1.030   2.958 -0.2334  0.2420 -0.1491
 1705SOL    HW1 6818   0.945   1.113   2.992 -1.8423  0.6302  0.4471
 1705SOL    HW2 6819   0.881   0.983   3.035 -0.6173 -0.3567 -0.6697
 1705SOL     MW 6820   0.913   1.034   2.972 -0.4885  0.2150 -0.1394
 1706SOL     OW 6821   2.839   4.048   3.967  0.0382  0.1460  0.2651
 1706SOL    HW1 6822   2.813   4.107   3.896  0.3127  1.7763  1.4608
 1706SOL    HW2 6823   2.760   4.036   4.019 -0.3465 -1.6273 -0.6709
 1706SOL     MW 6824   2.826   4.054   3.965  0.0241  0.1277  0.2984
 1707SOL     OW 6825   3.683   1.574   5.154 -0.1069  0.2198  0.2200
 1707SOL    HW1 6826   3.774   1.562   5.179 -0.2101 -1.2924 -0.0379
 1707SOL    HW2 6827   3.684   1.572   5.058 -0.4668 -0.4289  0.2211
 1707SOL     MW 6828   3.695   1.572   5.145 -0.1662 -0.0568  0.1871
 1708SOL     OW 6829   1.970   0.103   4.681  0.2021  0.4332 -0.3902
 1708SOL    HW1 6830   2.018   0.176   4.719  2.3181 -0.9066 -0.2785
 1708SOL    HW2 6831   1.962   0.040   4.752 -0.4444  0.0316 -0.8077
 1708SOL     MW 6832   1.975   0.104   4.695  0.3902  0.2103 -0.4293
 1709SOL     OW 6833   5.057   3.991   0.356 -0.4722  0.2328 -0.4904
 1709SOL    HW1 6834   5.046   3.897   0.342 -0.5534  0.4390 -2.0381
 1709SOL    HW2 6835   5.062   4.001   0.451 -0.3339 -1.3427 -0.3022
 1709SOL     MW 6836   5.056   3.980   0.366 -0.4649  0.0575 -0.6645
 1710SOL     OW 6837   5.336   5.263   1.462 -0.4218  1.3205  0.5935
 1710SOL    HW1 6838   5.307   5.220   1.543  1.6570 -1.3123  0.0775
 1710SOL    HW2 6839   5.410   5.318   1.490 -0.5364  1.4425  0.6603
 1710SOL     MW 6840   5.342   5.264   1.476 -0.1703  0.9991  0.5360
 1711SOL     OW 6841   1.107   0.157   0.213 -0.4227  0.3241 -0.1570
 1711SOL    HW1 6842   1.145   0.205   0.286 -1.6541 -0.0659  0.7716
 1711SOL    HW2 6843   1.128   0.210   0.136  0.9869  0.6850  0.4369
 1711SOL     MW 6844   1.115   0.170   0.212 -0.3999  0.3204  0.0379
 1712SOL     OW 6845   4.564   1.787   1.051  0.3398  0.2497  0.0350
 1712SOL    HW1 6846   4.586   1.739   1.131  0.2315 -0.0389 -0.1067
 1712SOL    HW2 6847   4.494   1.847   1.077 -0.0506 -0.2046  0.0429
 1712SOL     MW 6848   4.558   1.789   1.065  0.2760  0.1546  0.0179
 1713SOL     OW 6849   4.763   5.477   3.882 -0.2634  0.0506 -0.1420
 1713SOL    HW1 6850   4.748   5.409   3.816 -0.9735 -0.5770  0.6330
 1713SOL    HW2 6851   4.812   5.433   3.951 -1.2767  0.1331  0.6557
 1713SOL     MW 6852   4.767   5.463   3.882 -0.4840 -0.0192  0.0593
 1714SOL     OW 6853   3.553   3.605   0.655  0.0746  0.2460 -0.1362
 1714SOL    HW1 6854   3.596   3.533   0.609 -0.0968 -0.8280  1.3282
 1714SOL    HW2 6855   3.460   3.582   0.652 -0.0893  0.9427 -0.5510
 1714SOL     MW 6856   3.546   3.592   0.649  0.0317  0.1977 -0.0018
 1715SOL     OW 6857   4.577   1.564   2.331  0.0635 -0.0740  0.4711
 1715SOL    HW1 6858   4.545   1.653   2.320 -0.8053 -0.5076 -0.6773
 1715SOL    HW2 6859   4.623   1.545   2.249  0.7964 -0.4652  0.9617
 1715SOL     MW 6860   4.579   1.573   2.319  0.0461 -0.1796  0.3869
 1716SOL     OW 6861   5.162   5.237   2.077  0.2035 -0.0210 -0.2884
 1716SOL    HW1 6862   5.185   5.178   2.148 -0.1498  0.3214  0.1148
 1716SOL    HW2 6863   5.081   5.279   2.105 -0.4658 -0.5859 -1.3257
 1716SOL     MW 6864   5.155   5.235   2.090  0.0726 -0.0495 -0.3696
 1717SOL     OW 6865   4.598   0.514   0.023 -0.1941  0.2635  0.6166
 1717SOL    HW1 6866   4.529   0.448   0.024 -0.5807  0.6531  0.3108
 1717SOL    HW2 6867   4.558   0.592   0.061 -0.5124  1.0425 -1.1862
 1717SOL     MW 6868   4.584   0.516   0.028 -0.2843  0.4131  0.3467
 1718SOL     OW 6869   4.206   3.148   1.581  0.7591  0.0095  0.4989
 1718SOL    HW1 6870   4.188   3.226   1.528 -0.2811 -0.8671 -0.4909
 1718SOL    HW2 6871   4.157   3.162   1.662 -1.2013 -0.5452 -0.5440
 1718SOL     MW 6872   4.197   3.160   1.585  0.3750 -0.1737  0.2387
 1719SOL     OW 6873   3.597   3.773   2.701  0.7890  0.2529  0.0877
 1719SOL    HW1 6874   3.678   3.770   2.752  0.0769  2.5529  1.4887
 1719SOL    HW2 6875   3.530   3.799   2.763 -0.7432  0.0242 -1.3963
 1719SOL     MW 6876   3.599   3.776   2.715  0.5017  0.5181  0.0770
 1720SOL     OW 6877   3.629   3.892   0.257 -0.0234  0.0801  0.0660
 1720SOL    HW1 6878   3.646   3.986   0.262  2.4590 -0.2860 -0.0537
 1720SOL    HW2 6879   3.601   3.868   0.345 -0.9086  0.9540  0.0329
 1720SOL     MW 6880   3.628   3.901   0.269  0.1810  0.1451  0.0465
 1721SOL     OW 6881   0.449   2.685   4.986  0.0370  0.0439 -0.3086
 1721SOL    HW1 6882   0.533   2.702   5.029 -0.6174  0.0330  1.0266
 1721SOL    HW2 6883   0.463   2.604   4.937  0.6423 -0.2734  0.3692
 1721SOL     MW 6884   0.462   2.677   4.985  0.0307  0.0019 -0.0509
 1722SOL     OW 6885   1.356   2.443   5.114 -0.2657  0.5564  0.5751
 1722SOL    HW1 6886   1.432   2.426   5.058  0.2863 -0.3782  1.5702
 1722SOL    HW2 6887   1.280   2.419   5.060 -0.2354  4.8274 -1.7712
 1722SOL     MW 6888   1.356   2.438   5.100 -0.1912  0.9835  0.4021
 1723SOL     OW 6889   2.083   3.660   3.280  0.2572 -0.6131  0.0292
 1723SOL    HW1 6890   2.129   3.659   3.196  2.4524 -0.3061  1.1461
 1723SOL    HW2 6891   2.138   3.608   3.338 -0.7446 -0.1033  1.5052
 1723SOL     MW 6892   2.096   3.653   3.277  0.4100 -0.5085  0.3611
 1724SOL     OW 6893   1.597   3.423   1.678  0.3098  0.1907 -0.0598
 1724SOL    HW1 6894   1.523   3.401   1.621  0.3190  2.3070 -0.9948
 1724SOL    HW2 6895   1.601   3.351   1.741 -0.7207 -1.4287 -1.7274
 1724SOL     MW 6896   1.588   3.411   1.678  0.1790  0.2543 -0.3929
 1725SOL     OW 6897   0.248   1.321   2.458  0.3195 -0.2894  0.2993
 1725SOL    HW1 6898   0.209   1.302   2.543  0.5866  1.1227  0.7584
 1725SOL    HW2 6899   0.341   1.302   2.470  0.4769  0.6207  0.5549
 1725SOL     MW 6900   0.255   1.316   2.470  0.3738  0.0079  0.3908
 1726SOL     OW 6901   4.274   2.840   2.174  0.3795 -0.2977 -0.1273
 1726SOL    HW1 6902   4.272   2.764   2.116 -2.4629  0.3786 -1.0520
 1726SOL    HW2 6903   4.189   2.882   2.162  1.2059  2.0948  1.6359
 1726SOL     MW 6904   4.263   2.835   2.165  0.1214  0.0951 -0.0200
 1727SOL     OW 6905   5.254   2.591   2.021 -0.3175 -0.1567 -0.4933
 1727SOL    HW1 6906   5.240   2.498   2.002 -0.4002 -0.3691  0.5603
 1727SOL    HW2 6907   5.169   2.632   2.005 -0.4417 -0.3655 -0.3650
 1727SOL     MW 6908   5.241   2.584   2.017 -0.3440 -0.2106 -0.3420
 1728SOL     OW 6909   4.979   5.162   1.280 -0.4277  0.3056 -0.6274
 1728SOL    HW1 6910   5.047   5.109   1.238 -0.3337  0.1085 -0.2362
 1728SOL    HW2 6911   5.000   5.157   1.374  0.4956  2.2953 -0.6686
 1728SOL     MW 6912   4.991   5.154   1.287 -0.2975  0.5351 -0.5826
 1729SOL     OW 6913   3.963   0.476   4.508 -0.0678 -0.0826  0.1166
 1729SOL    HW1 6914   3.961   0.414   4.434  2.3532 -0.4562  0.2668
 1729SOL    HW2 6915   3.891   0.448   4.564 -1.1860 -0.5841 -1.4867
 1729SOL     MW 6916   3.954   0.464   4.506  0.0989 -0.1946 -0.0694
 1730SOL     OW 6917   0.266   2.276   4.169 -0.2511 -0.2953 -0.2728
 1730SOL    HW1 6918   0.300   2.328   4.242 -0.5133  0.3336 -0.5877
 1730SOL    HW2 6919   0.246   2.341   4.101  1.2071 -0.9629 -1.4036
 1730SOL     MW 6920   0.268   2.291   4.169 -0.0980 -0.3002 -0.4578
 1731SOL     OW 6921   2.817   1.257   3.468  0.1684 -0.1397 -0.0708
 1731SOL    HW1 6922   2.850   1.221   3.386  2.9722 -1.5395  1.4983
 1731SOL    HW2 6923   2.868   1.337   3.482  0.1496 -0.2294  0.5618
 1731SOL     MW 6924   2.828   1.263   3.460  0.5249 -0.3304  0.2110
 1732SOL     OW 6925   2.228   0.440   2.335 -0.4213 -0.0374  0.1661
 1732SOL    HW1 6926   2.246   0.498   2.262 -1.1448  1.0053  0.7965
 1732SOL    HW2 6927   2.310   0.439   2.385 -0.2856  0.1392 -0.0514
 1732SOL     MW 6928   2.241   0.447   2.332 -0.4965  0.1187  0.2189
 1733SOL     OW 6929   2.395   0.121   5.378  0.4271 -0.5230  0.2024
 1733SOL    HW1 6930   2.363   0.046   5.428 -0.4707 -1.2345 -1.3487
 1733SOL    HW2 6931   2.388   0.195   5.437 -0.5322 -1.3391  1.1490
 1733SOL     MW 6932   2.390   0.121   5.392  0.1894 -0.7186  0.1250
 1734SOL     OW 6933   5.143   1.932   3.518  0.3754  0.2732 -0.6480
 1734SOL    HW1 6934   5.172   1.887   3.439  1.3075 -0.7755  0.2669
 1734SOL    HW2 6935   5.223   1.949   3.567 -0.0961  1.7660 -0.3415
 1734SOL     MW 6936   5.157   1.929   3.514  0.4343  0.3300 -0.4916
 1735SOL     OW 6937   4.379   2.416   5.280 -0.2842 -0.0674  0.0146
 1735SOL    HW1 6938   4.390   2.332   5.325 -1.6164  0.3840  1.2542
 1735SOL    HW2 6939   4.295   2.408   5.235 -0.7153  0.8056  0.6388
 1735SOL     MW 6940   4.370   2.404   5.280 -0.5100  0.1021  0.2532
 1736SOL     OW 6941   1.687   2.023   3.240 -0.0284  0.2040 -0.0913
 1736SOL    HW1 6942   1.636   2.067   3.172 -2.4263 -1.2402  0.6438
 1736SOL    HW2 6943   1.704   2.091   3.305 -0.2980  0.9202 -0.7597
 1736SOL     MW 6944   1.683   2.037   3.239 -0.3699  0.1108 -0.0828
 1737SOL     OW 6945   4.295   2.802   4.112  0.2613  0.2543  0.3065
 1737SOL    HW1 6946   4.224   2.752   4.072 -0.5295  1.3982  0.2359
 1737SOL    HW2 6947   4.375   2.764   4.076 -0.3458 -0.4193 -0.3517
 1737SOL     MW 6948   4.297   2.790   4.103  0.0824  0.3145  0.2132
 1738SOL     OW 6949   1.695   1.081   2.532 -0.1463 -0.1539 -0.4912
 1738SOL    HW1 6950   1.619   1.048   2.483  1.1477 -0.8038 -2.1961
 1738SOL    HW2 6951   1.733   1.003   2.571 -0.6281  0.2425  0.8078
 1738SOL     MW 6952   1.690   1.067   2.531 -0.0424 -0.1864 -0.5431
 1739SOL     OW 6953   1.256   4.313   5.017 -0.2714 -0.0010 -0.1737
 1739SOL    HW1 6954   1.237   4.329   4.924  0.0744 -0.0142 -0.2487
 1739SOL    HW2 6955   1.295   4.395   5.048 -0.9984  0.2313  0.1298
 1739SOL     MW 6956   1.259   4.325   5.009 -0.3202  0.0270 -0.1444
 1740SOL     OW 6957   3.340   0.761   2.633  0.0642  0.2460 -0.0754
 1740SOL    HW1 6958   3.415   0.801   2.590  0.0310 -0.1340 -0.5001
 1740SOL    HW2 6959   3.269   0.824   2.622  0.2548  0.4933  0.1016
 1740SOL     MW 6960   3.341   0.774   2.626  0.0844  0.2290 -0.1071
 1741SOL     OW 6961   2.069   1.319   0.771 -0.0303  0.4652  0.0455
 1741SOL    HW1 6962   2.099   1.263   0.843 -0.5066 -0.3441 -0.3841
 1741SOL    HW2 6963   2.150   1.350   0.730  0.2646 -1.2212 -0.7208
 1741SOL     MW 6964   2.084   1.316   0.775 -0.0535  0.1457 -0.1076
 1742SOL     OW 6965   5.435   2.667   2.219 -0.0997  0.2774  0.6657
 1742SOL    HW1 6966   5.493   2.591   2.219  0.4620  0.7006  0.1888
 1742SOL    HW2 6967   5.368   2.645   2.155 -1.0469 -0.6277  1.9103
 1742SOL     MW 6968   5.434   2.654   2.211 -0.1490  0.2157  0.7640
 1743SOL     OW 6969   1.283   4.527   3.667  0.4315 -0.2298 -0.5468
 1743SOL    HW1 6970   1.375   4.503   3.681  0.0902 -1.6814 -0.6355
 1743SOL    HW2 6971   1.237   4.444   3.662 -0.9804  0.4874 -0.0314
 1743SOL     MW 6972   1.289   4.514   3.668  0.2071 -0.3238 -0.4922
 1744SOL     OW 6973   5.185   3.166   4.970 -0.2697  0.0816  0.2255
 1744SOL    HW1 6974   5.216   3.256   4.959  0.3189 -0.2362 -0.8285
 1744SOL    HW2 6975   5.109   3.160   4.912  0.3944 -0.4301 -0.6108
 1744SOL     MW 6976   5.179   3.177   4.961 -0.1093 -0.0246 -0.0165
 1745SOL     OW 6977   2.720   4.595   4.891 -0.8295  0.3387  0.3581
 1745SOL    HW1 6978   2.735   4.668   4.951 -0.5438 -0.2337  0.9896
 1745SOL    HW2 6979   2.685   4.525   4.946  1.2174 -0.8543  0.2570
 1745SOL     MW 6980   2.718   4.596   4.905 -0.5309  0.1127  0.4260
 1746SOL     OW 6981   4.222   2.046   0.126 -0.3630 -0.0318  0.1879
 1746SOL    HW1 6982   4.247   2.032   0.217 -0.1180  1.8701  0.4574
 1746SOL    HW2 6983   4.189   1.962   0.097  0.9017 -1.0780  1.5964
 1746SOL     MW 6984   4.221   2.034   0.134 -0.1697  0.0778  0.4027
 1747SOL     OW 6985   1.047   1.992   1.080 -0.0504  0.0096  0.3965
 1747SOL    HW1 6986   0.954   2.001   1.100 -0.1173 -1.3833  0.8080
 1747SOL    HW2 6987   1.060   2.045   1.002 -1.0537  0.7240  0.6953
 1747SOL     MW 6988   1.037   2.000   1.073 -0.1874 -0.0773  0.4874
 1748SOL     OW 6989   4.195   0.571   3.404  0.3369  0.7619  0.0822
 1748SOL    HW1 6990   4.165   0.524   3.482 -1.8005  3.1685  0.8539
 1748SOL    HW2 6991   4.260   0.633   3.437  0.3196  0.9598 -0.2477
 1748SOL     MW 6992   4.200   0.573   3.418  0.0611  1.0953  0.1387
 1749SOL     OW 6993   3.319   4.048   3.163  0.2253  0.1832  0.1646
 1749SOL    HW1 6994   3.288   4.111   3.228  0.9095  0.0180  0.6626
 1749SOL    HW2 6995   3.404   4.020   3.196  0.3863 -0.2280 -0.5867
 1749SOL     MW 6996   3.326   4.052   3.176  0.3335  0.1094  0.1322
 1750SOL     OW 6997   5.114   4.510   5.478  0.9582 -0.1687 -0.4581
 1750SOL    HW1 6998   5.095   4.416   5.474  0.0718  0.0294 -1.4134
 1750SOL    HW2 6999   5.028   4.551   5.484  1.2619  0.6358 -1.3872
 1750SOL     MW 7000   5.101   4.503   5.478  0.8836 -0.0404 -0.6993
 1751SOL     OW 7001   4.489   2.500   2.275  0.0225 -0.2921 -0.0415
 1751SOL    HW1 7002   4.463   2.510   2.183 -0.0975  1.4541  0.1468
 1751SOL    HW2 7003   4.481   2.406   2.292 -1.0294 -0.5051 -1.4952
 1751SOL     MW 7004   4.485   2.489   2.265 -0.1275 -0.0958 -0.2035
 1752SOL     OW 7005   3.086   3.768   0.657  0.4210 -0.4781  0.1005
 1752SOL    HW1 7006   3.020   3.726   0.602 -0.6802 -1.6001  2.1618
 1752SOL    HW2 7007   3.099   3.707   0.730  0.5000  1.6987  2.0085
 1752SOL     MW 7008   3.079   3.755   0.659  0.2901 -0.3431  0.6086
 1753SOL     OW 7009   2.423   4.787   4.332  0.5735  0.1810 -0.5474
 1753SOL    HW1 7010   2.345   4.793   4.276  0.4640 -0.1269 -0.4304
 1753SOL    HW2 7011   2.434   4.876   4.367 -1.8665 -0.4860  2.3026
 1753SOL     MW 7012   2.414   4.799   4.329  0.2471  0.0562 -0.1675
 1754SOL     OW 7013   3.400   1.759   0.037  0.4470  0.4309 -0.3270
 1754SOL    HW1 7014   3.313   1.723   0.019  0.1019 -0.0045  1.9452
 1754SOL    HW2 7015   3.446   1.688   0.082  1.2554  1.3676  0.3569
 1754SOL     MW 7016   3.395   1.745   0.041  0.5063  0.4951  0.0514
 1755SOL     OW 7017   4.266   0.765   0.925  0.2202 -0.0210 -0.4001
 1755SOL    HW1 7018   4.202   0.832   0.902 -0.3166  0.1474  1.4073
 1755SOL    HW2 7019   4.351   0.808   0.913 -0.0072  0.0636 -1.8823
 1755SOL     MW 7020   4.269   0.779   0.921  0.1224  0.0114 -0.3585
 1756SOL     OW 7021   4.837   3.473   2.535 -0.6055 -0.6370 -0.1589
 1756SOL    HW1 7022   4.917   3.437   2.574 -0.7127 -0.1725  0.5118
 1756SOL    HW2 7023   4.822   3.419   2.457  1.0416  0.0128 -0.9954
 1756SOL     MW 7024   4.845   3.462   2.530 -0.4084 -0.4944 -0.1801
 1757SOL     OW 7025   2.752   4.755   1.387 -0.2340  0.2361  0.7867
 1757SOL    HW1 7026   2.804   4.832   1.410 -0.9602  1.1434 -0.4574
 1757SOL    HW2 7027   2.811   4.700   1.335 -0.0273  0.4807  0.7662
 1757SOL     MW 7028   2.766   4.758   1.383 -0.3005  0.3836  0.6248
 1758SOL     OW 7029   0.135   2.015   1.186  0.6163  0.0168  0.0563
 1758SOL    HW1 7030   0.043   1.994   1.175  0.2830  1.2268  0.4020
 1758SOL    HW2 7031   0.155   2.075   1.113  0.5859  1.3415  1.0897
 1758SOL     MW 7032   0.126   2.020   1.175  0.5697  0.3413  0.2328
 1759SOL     OW 7033   3.070   4.306   2.514 -0.9311  0.4890  0.1675
 1759SOL    HW1 7034   3.007   4.335   2.448 -0.0663 -0.5776 -1.1793
 1759SOL    HW2 7035   3.016   4.268   2.584 -1.8136 -1.4957 -1.4859
 1759SOL     MW 7036   3.055   4.305   2.515 -0.9334  0.0984 -0.2166
 1760SOL     OW 7037   3.856   1.768   4.015 -0.2033 -0.2111  0.1858
 1760SOL    HW1 7038   3.768   1.787   4.047 -1.0100 -0.2524 -1.8429
 1760SOL    HW2 7039   3.897   1.854   4.008  0.1377 -0.2294  1.6226
 1760SOL     MW 7040   3.850   1.782   4.018 -0.2629 -0.2187  0.1100
 1761SOL     OW 7041   0.811   4.405   1.098 -0.0738  0.0180 -0.0819
 1761SOL    HW1 7042   0.741   4.470   1.105 -0.2725 -0.1955 -0.0908
 1761SOL    HW2 7043   0.811   4.379   1.006  0.4132  0.4563 -0.2110
 1761SOL     MW 7044   0.802   4.410   1.087 -0.0369  0.0468 -0.0996
 1762SOL     OW 7045   1.994   4.353   3.946 -0.0272 -0.0100  0.2809
 1762SOL    HW1 7046   1.966   4.374   4.035  1.6936 -0.2785  0.9346
 1762SOL    HW2 7047   2.070   4.410   3.931 -0.8872  0.7710 -1.4306
 1762SOL     MW 7048   2.000   4.363   3.956  0.0830  0.0556  0.1455
 1763SOL     OW 7049   3.523   3.386   5.174  0.3892 -0.4020  0.8412
 1763SOL    HW1 7050   3.604   3.394   5.224  0.9118 -0.7388  0.0706
 1763SOL    HW2 7051   3.511   3.471   5.132 -0.5421  0.1899  2.2311
 1763SOL     MW 7052   3.532   3.398   5.175  0.3369 -0.3694  0.9205
 1764SOL     OW 7053   0.605   1.497   1.862 -0.2524  0.3615  0.1434
 1764SOL    HW1 7054   0.646   1.583   1.852  1.2781 -0.4777 -1.5711
 1764SOL    HW2 7055   0.579   1.493   1.954  3.0671  1.2535  1.2873
 1764SOL     MW 7056   0.607   1.508   1.873  0.3685  0.3682  0.0704
 1765SOL     OW 7057   1.330   3.224   1.994 -0.2224 -0.0582  0.2454
 1765SOL    HW1 7058   1.342   3.170   2.073 -1.5317 -0.0419  0.4853
 1765SOL    HW2 7059   1.324   3.314   2.027 -0.8041 -0.0538  0.1433
 1765SOL     MW 7060   1.331   3.229   2.009 -0.4645 -0.0556  0.2631
 1766SOL     OW 7061   1.719   3.606   4.815 -0.0945 -0.2102  0.0835
 1766SOL    HW1 7062   1.790   3.668   4.800 -0.6116 -0.0047 -1.6612
 1766SOL    HW2 7063   1.734   3.574   4.904  1.1123  1.1924  0.4168
 1766SOL     MW 7064   1.730   3.610   4.825 -0.0062 -0.0044 -0.0972
 1767SOL     OW 7065   0.385   1.593   4.316  0.0669  0.4933  0.2258
 1767SOL    HW1 7066   0.424   1.574   4.401  0.7041 -0.3837 -0.2560
 1767SOL    HW2 7067   0.392   1.512   4.266 -2.7320  0.1231  0.2319
 1767SOL     MW 7068   0.391   1.580   4.320 -0.2098  0.3337  0.1649
 1768SOL     OW 7069   5.483   2.270   2.942 -0.2397  0.6370 -0.0509
 1768SOL    HW1 7070   5.402   2.233   2.978 -1.3057  1.1291 -1.8254
 1768SOL    HW2 7071   5.551   2.241   3.003 -1.5074 -1.2073  0.5856
 1768SOL     MW 7072   5.481   2.261   2.955 -0.5384  0.4639 -0.1966
 1769SOL     OW 7073   2.090   2.428   2.397 -0.1007  0.4577  0.3070
 1769SOL    HW1 7074   2.009   2.379   2.387  0.1950  0.1130 -0.5270
 1769SOL    HW2 7075   2.063   2.512   2.433 -1.1682  1.3274 -2.3128
 1769SOL     MW 7076   2.076   2.432   2.400 -0.1995  0.5249 -0.1351
 1770SOL     OW 7077   5.193   5.125   2.332  0.3604 -0.3290  0.0333
 1770SOL    HW1 7078   5.202   5.138   2.426 -0.0760  0.4590 -0.0270
 1770SOL    HW2 7079   5.249   5.050   2.313  0.1467 -0.7422  0.9791
 1770SOL     MW 7080   5.201   5.117   2.341  0.2772 -0.2810  0.1467
 1771SOL     OW 7081   5.332   5.075   5.060 -0.1537 -0.1304  0.3944
 1771SOL    HW1 7082   5.272   5.002   5.073 -0.6420  0.5061  2.0614
 1771SOL    HW2 7083   5.415   5.045   5.099 -0.2465  0.0429  0.7344
 1771SOL     MW 7084   5.335   5.062   5.067 -0.2281 -0.0267  0.6513
 1772SOL     OW 7085   2.776   2.090   1.048  0.2682 -0.1462 -0.1606
 1772SOL    HW1 7086   2.683   2.109   1.040  0.5180  1.2066 -0.1091
 1772SOL    HW2 7087   2.781   1.995   1.050 -1.0538 -0.2559 -0.8582
 1772SOL     MW 7088   2.765   2.080   1.047  0.1309  0.0129 -0.2433
 1773SOL     OW 7089   3.947   0.292   0.692  0.1510 -0.0003 -0.0328
 1773SOL    HW1 7090   3.884   0.362   0.677  0.8627  1.1495  1.9236
 1773SOL    HW2 7091   4.002   0.292   0.613 -1.1607  0.1766 -0.9747
 1773SOL     MW 7092   3.946   0.301   0.680  0.0742  0.1695  0.0971
 1774SOL     OW 7093   0.185   2.494   0.518  0.7090 -0.2583 -0.0202
 1774SOL    HW1 7094   0.168   2.476   0.426 -2.4184 -0.8135  0.5794
 1774SOL    HW2 7095   0.166   2.587   0.528 -0.1623 -0.4671  0.2982
 1774SOL     MW 7096   0.181   2.504   0.508  0.1971 -0.3561  0.0973
 1775SOL     OW 7097   3.600   5.357   3.702 -0.2627  0.4377  0.0087
 1775SOL    HW1 7098   3.579   5.449   3.688 -0.5388  0.5359  0.9550
 1775SOL    HW2 7099   3.639   5.328   3.620  3.2790  2.3549  0.7890
 1775SOL     MW 7100   3.602   5.365   3.690  0.1553  0.6957  0.2297
 1776SOL     OW 7101   4.872   0.496   4.857 -0.3432  0.2953  0.3483
 1776SOL    HW1 7102   4.850   0.456   4.774 -0.0421  1.5307 -0.3554
 1776SOL    HW2 7103   4.947   0.447   4.889 -0.6116 -0.3368  0.0139
 1776SOL     MW 7104   4.878   0.485   4.851 -0.3390  0.3725  0.2154
 1777SOL     OW 7105   3.694   3.441   4.865 -0.3516 -0.6116 -0.1207
 1777SOL    HW1 7106   3.630   3.372   4.883 -0.7290  0.1567  1.6697
 1777SOL    HW2 7107   3.751   3.442   4.941  0.2262  0.4283 -0.5426
 1777SOL     MW 7108   3.693   3.433   4.877 -0.3259 -0.3801  0.0545
 1778SOL     OW 7109   4.637   0.231   0.856 -0.5209  0.6320 -0.2349
 1778SOL    HW1 7110   4.593   0.206   0.938  0.1935  0.0807 -0.0156
 1778SOL    HW2 7111   4.644   0.149   0.807  1.5060  0.4335  0.3266
 1778SOL     MW 7112   4.632   0.217   0.860 -0.1700  0.5360 -0.1350
 1779SOL     OW 7113   3.781   3.270   2.206 -0.1067 -0.6714  0.0934
 1779SOL    HW1 7114   3.805   3.194   2.153 -1.0884 -0.5596 -0.5318
 1779SOL    HW2 7115   3.720   3.319   2.151  0.5528  0.5977  0.4738
 1779SOL     MW 7116   3.776   3.266   2.192 -0.1479 -0.4947  0.0621
 1780SOL     OW 7117   2.029   4.334   5.064  0.2062 -0.7723  0.0098
 1780SOL    HW1 7118   1.938   4.306   5.057  0.2978 -1.1838  0.3991
 1780SOL    HW2 7119   2.026   4.419   5.106  0.0880 -1.5437  1.6516
 1780SOL     MW 7120   2.017   4.341   5.068  0.2028 -0.9237  0.2698
 1781SOL     OW 7121   4.429   2.532   0.398 -0.3579 -0.0170  0.2629
 1781SOL    HW1 7122   4.455   2.466   0.462 -1.4335 -1.3526 -0.6258
 1781SOL    HW2 7123   4.389   2.482   0.327  0.1833  1.4765 -1.1477
 1781SOL     MW 7124   4.427   2.517   0.397 -0.4263  0.0032 -0.0314
 1782SOL     OW 7125   1.165   1.717   3.349  0.3786 -0.0794  0.0197
 1782SOL    HW1 7126   1.175   1.684   3.438 -0.7096 -1.6244 -0.3919
 1782SOL    HW2 7127   1.234   1.673   3.300  0.4592  0.1389 -0.0624
 1782SOL     MW 7128   1.175   1.707   3.354  0.2496 -0.2492 -0.0435
 1783SOL     OW 7129   2.054   0.082   2.319  0.2844  0.1636  0.6100
 1783SOL    HW1 7130   2.084   0.013   2.260  0.6991  1.3462 -0.6197
 1783SOL    HW2 7131   1.960   0.066   2.328  0.2319 -0.1134 -0.3029
 1783SOL     MW 7132   2.046   0.071   2.312  0.3307  0.2796  0.3357
 1784SOL     OW 7133   0.263   2.203   1.360  0.1555  0.2838  0.6465
 1784SOL    HW1 7134   0.223   2.245   1.436 -0.2673 -0.5617  0.9085
 1784SOL    HW2 7135   0.201   2.134   1.335  0.2020  0.6563 -0.5766
 1784SOL     MW 7136   0.250   2.199   1.366  0.1073  0.2233  0.5235
 1785SOL     OW 7137   2.510   4.891   3.272 -0.3216  0.3749 -0.1948
 1785SOL    HW1 7138   2.515   4.928   3.360 -2.7547  0.9021 -0.2080
 1785SOL    HW2 7139   2.480   4.963   3.217  2.7737  0.5638 -1.9058
 1785SOL     MW 7140   2.507   4.905   3.276 -0.2368  0.4666 -0.4155
 1786SOL     OW 7141   0.582   1.536   4.846 -0.2216 -0.0762  0.0905
 1786SOL    HW1 7142   0.658   1.592   4.828 -0.9026  1.0756  0.7003
 1786SOL    HW2 7143   0.620   1.449   4.859  0.8236  0.1289 -1.2881
 1786SOL     MW 7144   0.597   1.532   4.846 -0.1749  0.0975 -0.0079
 1787SOL     OW 7145   3.365   1.747   2.345 -0.2446 -0.1849 -0.1365
 1787SOL    HW1 7146   3.453   1.721   2.315  0.9684  0.5312  2.4696
 1787SOL    HW2 7147   3.349   1.830   2.301 -0.1022 -0.8259 -1.4442
 1787SOL     MW 7148   3.374   1.754   2.336 -0.0711 -0.1753  0.0297
 1788SOL     OW 7149   0.547   1.524   1.024  0.0493 -0.4442  0.7777
 1788SOL    HW1 7150   0.618   1.526   0.959  0.4670 -1.2385  1.1961
 1788SOL    HW2 7151   0.508   1.611   1.019  0.6314 -0.2110  0.0699
 1788SOL     MW 7152   0.551   1.536   1.015  0.1773 -0.5160  0.7407
 1789SOL     OW 7153   4.360   0.380   3.286 -0.2378 -0.2721  0.1540
 1789SOL    HW1 7154   4.294   0.440   3.320 -0.5752 -0.6267  0.1281
 1789SOL    HW2 7155   4.352   0.302   3.340  1.3373  0.3135  1.2936
 1789SOL     MW 7156   4.350   0.378   3.297 -0.0794 -0.2426  0.2965
 1790SOL     OW 7157   2.356   1.813   3.967  0.3144 -0.1521 -0.3669
 1790SOL    HW1 7158   2.342   1.880   3.901  0.6421 -0.2995 -0.5920
 1790SOL    HW2 7159   2.383   1.861   4.045  0.4702 -0.0185 -0.5031
 1790SOL     MW 7160   2.358   1.827   3.968  0.3763 -0.1539 -0.4132
 1791SOL     OW 7161   1.681   5.444   0.073  0.2527 -0.9735  0.0841
 1791SOL    HW1 7162   1.612   5.506   0.053 -0.1232 -1.2451  0.5184
 1791SOL    HW2 7163   1.745   5.495   0.123 -0.3552 -1.0745  0.9904
 1791SOL     MW 7164   1.681   5.458   0.077  0.1268 -1.0212  0.2557
 1792SOL     OW 7165   0.431   1.038   3.713 -0.1470  0.2193 -0.3878
 1792SOL    HW1 7166   0.501   0.978   3.686 -0.9490  0.0284 -2.1533
 1792SOL    HW2 7167   0.475   1.124   3.720  0.8446 -0.3771  1.4264
 1792SOL     MW 7168   0.446   1.042   3.710 -0.1227  0.1185 -0.3815
 1793SOL     OW 7169   0.612   3.251   4.730  0.4134 -0.4340 -0.2356
 1793SOL    HW1 7170   0.592   3.317   4.797  1.4234 -1.8203  1.5272
 1793SOL    HW2 7171   0.540   3.188   4.737  1.1001 -1.1702  0.3762
 1793SOL     MW 7172   0.600   3.251   4.740  0.6306 -0.7057  0.0683
 1794SOL     OW 7173   3.526   0.129   4.319 -0.2197 -0.6776 -0.0826
 1794SOL    HW1 7174   3.595   0.180   4.362 -0.1014 -0.1186 -0.9097
 1794SOL    HW2 7175   3.445   0.157   4.363 -0.2748  0.9489 -1.1344
 1794SOL     MW 7176   3.524   0.139   4.330 -0.2116 -0.3978 -0.3231
 1795SOL     OW 7177   3.547   3.062   5.110 -0.0500  0.8736  0.1842
 1795SOL    HW1 7178   3.515   3.079   5.198  1.8532  1.5217  0.8067
 1795SOL    HW2 7179   3.515   3.136   5.058 -2.1696 -0.1037  0.0086
 1795SOL     MW 7180   3.539   3.074   5.114 -0.0777  0.8314  0.2414
 1796SOL     OW 7181   3.346   0.955   1.680  0.2956  0.2827  0.7569
 1796SOL    HW1 7182   3.416   0.908   1.634 -0.3902 -0.4063  0.3984
 1796SOL    HW2 7183   3.374   1.047   1.680  0.5535  0.2134 -0.5780
 1796SOL     MW 7184   3.359   0.961   1.674  0.2409  0.1856  0.5401
 1797SOL     OW 7185   2.998   1.918   0.493  0.0618 -0.4338  0.4373
 1797SOL    HW1 7186   3.019   2.011   0.503 -2.4269  0.2795 -0.3202
 1797SOL    HW2 7187   3.022   1.898   0.403 -0.1931 -0.3040  0.3411
 1797SOL     MW 7188   3.004   1.927   0.483 -0.2894 -0.3258  0.3280
 1798SOL     OW 7189   1.580   0.885   1.325  0.0572  0.0549 -0.0750
 1798SOL    HW1 7190   1.490   0.917   1.316 -0.1523 -0.0466  1.4432
 1798SOL    HW2 7191   1.624   0.951   1.379  0.3438 -0.8665  0.8437
 1798SOL     MW 7192   1.574   0.897   1.330  0.0671 -0.0761  0.2369
 1799SOL     OW 7193   3.554   2.840   4.412 -0.0236 -0.2572 -0.0164
 1799SOL    HW1 7194   3.469   2.855   4.455  0.2224 -1.2695  0.8562
 1799SOL    HW2 7195   3.546   2.753   4.373  1.3127 -1.3394  1.9223
 1799SOL     MW 7196   3.542   2.831   4.413  0.1789 -0.5253  0.3435
 1800SOL     OW 7197   2.015   3.043   0.332  0.4425 -0.1810  0.2332
 1800SOL    HW1 7198   1.926   3.064   0.303  1.0984 -0.0227 -1.7987
 1800SOL    HW2 7199   2.020   2.948   0.331  0.0434 -0.2223  1.2239
 1800SOL     MW 7200   2.004   3.034   0.328  0.4754 -0.1660  0.0999
 1801SOL     OW 7201   3.295   2.175   0.666 -0.0287  0.1273  0.5553
 1801SOL    HW1 7202   3.216   2.168   0.612  1.1823  0.1976 -1.3401
 1801SOL    HW2 7203   3.338   2.254   0.635  1.2899 -0.4546  0.8151
 1801SOL     MW 7204   3.291   2.184   0.655  0.2951  0.0618  0.3459
 1802SOL     OW 7205   4.443   1.805   2.013  0.1508 -0.0052  0.2212
 1802SOL    HW1 7206   4.440   1.711   2.032 -0.5413 -0.0736 -0.1577
 1802SOL    HW2 7207   4.474   1.845   2.094 -0.0219 -0.5195  0.5504
 1802SOL     MW 7208   4.446   1.798   2.026  0.0401 -0.0798  0.2148
 1803SOL     OW 7209   2.589   1.537   3.268 -0.3313  0.0124 -0.3124
 1803SOL    HW1 7210   2.498   1.517   3.246 -0.5531  1.5431 -0.9099
 1803SOL    HW2 7211   2.628   1.563   3.185  0.7118 -0.7911 -0.0895
 1803SOL     MW 7212   2.582   1.538   3.254 -0.2262  0.1055 -0.3604
 1804SOL     OW 7213   0.521   1.888   4.493  0.2826 -0.3492  0.2228
 1804SOL    HW1 7214   0.507   1.924   4.581 -0.3116 -1.3320  0.5510
 1804SOL    HW2 7215   0.433   1.885   4.454  0.6275  0.7144 -0.6698
 1804SOL     MW 7216   0.508   1.892   4.499  0.2507 -0.3388  0.1505
 1805SOL     OW 7217   3.713   1.631   0.562  0.0661  0.0404 -0.0610
 1805SOL    HW1 7218   3.754   1.564   0.617  0.5954  0.3109 -0.1234
 1805SOL    HW2 7219   3.684   1.698   0.624 -1.7191 -0.8624  0.1556
 1805SOL     MW 7220   3.715   1.631   0.577 -0.0946 -0.0406 -0.0413
 1806SOL     OW 7221   4.474   2.947   0.218  0.0325  0.1588 -0.2507
 1806SOL    HW1 7222   4.389   2.917   0.250  0.9712 -0.7990  1.4569
 1806SOL    HW2 7223   4.508   2.875   0.166  0.5857 -0.2181  0.6105
 1806SOL     MW 7224   4.467   2.934   0.215  0.2235 -0.0120  0.0781
 1807SOL     OW 7225   3.431   3.284   0.698 -0.0260  0.7999 -0.1236
 1807SOL    HW1 7226   3.502   3.288   0.762 -1.2052  1.1223  1.2184
 1807SOL    HW2 7227   3.365   3.228   0.739 -1.5071  2.3362 -0.2787
 1807SOL     MW 7228   3.432   3.278   0.712 -0.3665  1.0378  0.0283
 1808SOL     OW 7229   5.373   5.200   3.500  0.1137 -0.2223 -0.0328
 1808SOL    HW1 7230   5.303   5.256   3.534  0.0261 -0.3385 -0.0191
 1808SOL    HW2 7231   5.411   5.250   3.428  1.0643  0.5391  0.9455
 1808SOL     MW 7232   5.369   5.214   3.495  0.2242 -0.1397  0.0942
 1809SOL     OW 7233   3.636   4.833   3.518 -0.8943 -0.5883  0.8476
 1809SOL    HW1 7234   3.694   4.773   3.564  2.2824  0.5380 -1.3109
 1809SOL    HW2 7235   3.626   4.795   3.431 -1.4805  0.3821  0.4735
 1809SOL     MW 7236   3.642   4.821   3.513 -0.5627 -0.3199  0.5234
 1810SOL     OW 7237   4.311   1.287   2.106 -0.0007  0.3769  0.1415
 1810SOL    HW1 7238   4.215   1.293   2.112 -0.0611 -0.1323 -0.2544
 1810SOL    HW2 7239   4.333   1.206   2.151  0.1500 -0.0098 -0.6059
 1810SOL     MW 7240   4.301   1.277   2.112  0.0109  0.2622 -0.0049
 1811SOL     OW 7241   1.384   4.179   3.770 -0.6569  0.6712  0.0322
 1811SOL    HW1 7242   1.395   4.224   3.853  1.0998  1.2351 -0.4752
 1811SOL    HW2 7243   1.329   4.103   3.791 -0.7646  1.1440  1.5638
 1811SOL     MW 7244   1.378   4.175   3.783 -0.4458  0.8039  0.1633
 1812SOL     OW 7245   4.227   1.387   0.098  0.2894  0.1889 -0.1177
 1812SOL    HW1 7246   4.142   1.381   0.142 -0.1969  2.3764 -0.6395
 1812SOL    HW2 7247   4.209   1.431   0.015  2.0475  1.7099  0.2204
 1812SOL     MW 7248   4.214   1.392   0.093  0.4522  0.6636 -0.1412
 1813SOL     OW 7249   4.818   3.214   1.151 -0.4504 -0.3235 -0.0176
 1813SOL    HW1 7250   4.808   3.205   1.056 -0.5237 -0.0896 -0.0335
 1813SOL    HW2 7251   4.912   3.212   1.166 -0.4196  0.0730 -0.1419
 1813SOL     MW 7252   4.829   3.213   1.141 -0.4558 -0.2428 -0.0356
 1814SOL     OW 7253   0.493   4.800   2.320  0.2460 -0.2136  0.4402
 1814SOL    HW1 7254   0.467   4.739   2.251 -0.4753  0.5363  0.0260
 1814SOL    HW2 7255   0.577   4.767   2.351 -0.5958 -2.0095  0.9463
 1814SOL     MW 7256   0.501   4.788   2.315  0.0459 -0.3475  0.4520
 1815SOL     OW 7257   0.954   5.101   3.384  0.4113 -0.3781 -0.2332
 1815SOL    HW1 7258   0.900   5.180   3.378  0.1772 -0.4509  0.7777
 1815SOL    HW2 7259   1.044   5.133   3.370  0.1994 -0.1396 -1.1180
 1815SOL     MW 7260   0.959   5.116   3.382  0.3542 -0.3569 -0.2170
 1816SOL     OW 7261   2.557   3.308   4.360  0.3578 -0.0047 -0.3018
 1816SOL    HW1 7262   2.602   3.359   4.428  1.0775  0.6874 -1.2653
 1816SOL    HW2 7263   2.496   3.370   4.321  0.7298 -0.0719 -1.0079
 1816SOL     MW 7264   2.555   3.323   4.364  0.4975  0.0753 -0.5155
 1817SOL     OW 7265   0.560   0.450   3.116 -0.3265  0.6485  0.3218
 1817SOL    HW1 7266   0.493   0.383   3.133 -0.8513  0.5915 -1.7130
 1817SOL    HW2 7267   0.642   0.400   3.110 -0.5025  0.3769  0.1494
 1817SOL     MW 7268   0.562   0.435   3.118 -0.4162  0.6064  0.0392
 1818SOL     OW 7269   0.976   0.199   1.555 -0.5502  0.2676 -0.5007
 1818SOL    HW1 7270   0.986   0.246   1.638  0.1322  1.8748 -1.4297
 1818SOL    HW2 7271   0.914   0.253   1.505 -0.2259 -0.1559 -1.3807
 1818SOL     MW 7272   0.969   0.212   1.559 -0.4214  0.4191 -0.7322
 1819SOL     OW 7273   2.072   4.298   1.015 -0.3856 -0.5599  0.5696
 1819SOL    HW1 7274   2.072   4.246   1.095 -1.6391  0.1534  1.0599
 1819SOL    HW2 7275   2.062   4.234   0.944 -1.2549 -1.0489  1.1144
 1819SOL     MW 7276   2.071   4.283   1.016 -0.6573 -0.5312  0.7021
 1820SOL     OW 7277   0.993   0.948   3.231  0.0379  0.0295  0.3996
 1820SOL    HW1 7278   1.050   0.874   3.252 -1.3220 -0.7217  1.6535
 1820SOL    HW2 7279   1.029   1.021   3.280 -1.3279 -0.9959  3.1383
 1820SOL     MW 7280   1.005   0.948   3.240 -0.3110 -0.1979  0.9107
 1821SOL     OW 7281   5.509   0.865   4.960  0.4650 -0.0697 -0.3715
 1821SOL    HW1 7282   5.434   0.891   4.906  1.1412 -2.8309 -2.8721
 1821SOL    HW2 7283   5.480   0.784   5.004  0.9452  0.5720  1.2032
 1821SOL     MW 7284   5.495   0.858   4.959  0.6130 -0.3410 -0.4900
 1822SOL     OW 7285   1.755   4.429   2.817 -0.0527  0.0637 -0.0723
 1822SOL    HW1 7286   1.851   4.426   2.814 -0.0207 -0.2352  1.0122
 1822SOL    HW2 7287   1.734   4.523   2.822  0.2615  0.0665  1.5465
 1822SOL     MW 7288   1.765   4.441   2.817 -0.0084  0.0258  0.2738
 1823SOL     OW 7289   3.138   3.430   2.154  0.1230 -0.1405  1.0023
 1823SOL    HW1 7290   3.222   3.401   2.118 -0.9045 -1.5009 -0.4242
 1823SOL    HW2 7291   3.119   3.367   2.223 -0.6340 -1.0615 -0.0133
 1823SOL     MW 7292   3.147   3.418   2.158 -0.1054 -0.4325  0.6897
 1824SOL     OW 7293   0.470   2.779   0.898 -0.5862 -0.0497  0.5219
 1824SOL    HW1 7294   0.411   2.808   0.967  0.1743  2.3515  0.2846
 1824SOL    HW2 7295   0.479   2.855   0.840  1.3152 -0.9005 -0.4271
 1824SOL     MW 7296   0.464   2.793   0.899 -0.2455  0.1488  0.3700
 1825SOL     OW 7297   3.662   0.233   5.339 -0.0016  0.8930  0.2966
 1825SOL    HW1 7298   3.609   0.312   5.340 -1.5886 -0.1374  0.7340
 1825SOL    HW2 7299   3.673   0.210   5.431 -0.1378  0.2383  0.1588
 1825SOL     MW 7300   3.657   0.240   5.351 -0.2222  0.6773  0.3349
 1826SOL     OW 7301   2.509   4.672   2.736 -0.3015 -0.1363  0.1723
 1826SOL    HW1 7302   2.488   4.682   2.643 -0.2169 -0.5247  0.1059
 1826SOL    HW2 7303   2.604   4.680   2.740 -0.3517  0.4256  0.3044
 1826SOL     MW 7304   2.518   4.674   2.725 -0.2971 -0.1141  0.1807
 1827SOL     OW 7305   5.106   0.235   2.011  0.0612 -0.1428 -0.5326
 1827SOL    HW1 7306   5.127   0.308   1.953  0.9628 -1.8200 -2.4470
 1827SOL    HW2 7307   5.020   0.205   1.982 -1.0331  1.0661  1.2926
 1827SOL     MW 7308   5.098   0.240   2.000  0.0366 -0.2027 -0.5440
 1828SOL     OW 7309   5.235   1.304   1.160  0.2677  0.0576 -0.3458
 1828SOL    HW1 7310   5.322   1.290   1.121  0.6349  1.9339 -0.2951
 1828SOL    HW2 7311   5.175   1.304   1.085  0.2708 -1.3132 -0.3750
 1828SOL     MW 7312   5.239   1.302   1.146  0.3151  0.1223 -0.3431
 1829SOL     OW 7313   0.294   0.981   3.954  0.2583 -0.1791 -0.5198
 1829SOL    HW1 7314   0.336   0.990   3.869 -0.2796  0.8540 -0.6838
 1829SOL    HW2 7315   0.206   1.015   3.941  0.1701 -0.0137  0.4541
 1829SOL     MW 7316   0.288   0.986   3.941  0.1782 -0.0257 -0.4161
 1830SOL     OW 7317   3.998   0.235   3.534 -0.0700 -0.4973 -0.5690
 1830SOL    HW1 7318   4.025   0.319   3.571  1.8618 -1.2741 -0.0746
 1830SOL    HW2 7319   3.948   0.257   3.456  1.5659  1.1220 -1.2131
 1830SOL     MW 7320   3.995   0.248   3.529  0.3867 -0.3895 -0.5882
 1831SOL     OW 7321   2.741   4.173   2.418 -0.0449  1.1581  0.0419
 1831SOL    HW1 7322   2.782   4.118   2.351 -1.6626 -1.2859  0.8949
 1831SOL    HW2 7323   2.687   4.236   2.369 -0.8583 -0.2961 -1.0119
 1831SOL     MW 7324   2.739   4.174   2.404 -0.3561  0.6591  0.0162
 1832SOL     OW 7325   2.226   0.507   1.112  0.4129 -0.0157 -0.5331
 1832SOL    HW1 7326   2.141   0.476   1.140 -0.4832  1.1311 -1.8308
 1832SOL    HW2 7327   2.259   0.558   1.186 -0.6303  0.6166 -0.4926
 1832SOL     MW 7328   2.219   0.510   1.125  0.1647  0.2120 -0.6940
 1833SOL     OW 7329   1.409   1.519   3.680  0.2615 -0.0965 -0.1822
 1833SOL    HW1 7330   1.422   1.520   3.585  0.0585 -1.9110 -0.2547
 1833SOL    HW2 7331   1.418   1.427   3.705  2.0345  0.5310  1.8074
 1833SOL     MW 7332   1.412   1.508   3.671  0.4625 -0.2484  0.0632
 1834SOL     OW 7333   2.902   3.703   4.385 -0.3418 -0.3615 -0.3433
 1834SOL    HW1 7334   2.997   3.707   4.392 -0.2543 -0.5708 -1.2453
 1834SOL    HW2 7335   2.882   3.745   4.301 -0.8497 -2.3132 -1.2618
 1834SOL     MW 7336   2.911   3.709   4.375 -0.3956 -0.6382 -0.5763
 1835SOL     OW 7337   1.331   5.028   4.728 -0.3119  0.1907 -0.2561
 1835SOL    HW1 7338   1.393   5.052   4.659  0.1452 -0.4560 -0.0787
 1835SOL    HW2 7339   1.264   4.976   4.683 -0.7485  0.9104 -0.4517
 1835SOL     MW 7340   1.330   5.025   4.713 -0.3093  0.2001 -0.2585
 1836SOL     OW 7341   2.528   2.168   4.866  0.5493  0.2940  0.3810
 1836SOL    HW1 7342   2.561   2.146   4.953 -1.0318 -0.0414  0.9375
 1836SOL    HW2 7343   2.450   2.222   4.882 -0.4099 -0.6683 -0.7723
 1836SOL     MW 7344   2.522   2.172   4.879  0.2241  0.1279  0.3046
 1837SOL     OW 7345   5.004   3.385   4.200  0.1741 -0.3115  0.4182
 1837SOL    HW1 7346   4.996   3.478   4.177 -1.4187  0.5371  3.8350
 1837SOL    HW2 7347   4.920   3.347   4.173  0.6006 -0.6550 -0.4495
 1837SOL     MW 7348   4.992   3.392   4.193  0.0248 -0.2469  0.7445
 1838SOL     OW 7349   1.310   0.180   4.601  0.0152 -0.2621  0.1501
 1838SOL    HW1 7350   1.235   0.123   4.585  0.2154 -0.3550 -0.4873
 1838SOL    HW2 7351   1.282   0.266   4.570  0.0781 -0.2425  0.1465
 1838SOL     MW 7352   1.297   0.184   4.595  0.0489 -0.2714  0.0681
 1839SOL     OW 7353   0.804   3.682   0.711 -0.0934 -0.8231 -0.0862
 1839SOL    HW1 7354   0.856   3.763   0.703 -0.1894 -0.5492  1.5454
 1839SOL    HW2 7355   0.727   3.697   0.658  0.4050 -0.2748 -0.6689
 1839SOL     MW 7356   0.801   3.694   0.703 -0.0419 -0.7178  0.0481
 1840SOL     OW 7357   3.264   3.645   4.688  0.1830 -0.4894 -0.3547
 1840SOL    HW1 7358   3.360   3.649   4.689  0.2343 -1.3110  0.9890
 1840SOL    HW2 7359   3.244   3.551   4.686 -0.6200 -0.3228 -1.3172
 1840SOL     MW 7360   3.274   3.634   4.688  0.0868 -0.5732 -0.3059
 1841SOL     OW 7361   4.782   3.803   1.734  0.3599  0.0922 -0.3786
 1841SOL    HW1 7362   4.796   3.849   1.652  0.1568  0.9439  0.0533
 1841SOL    HW2 7363   4.861   3.750   1.746  0.4682  0.0959 -1.0256
 1841SOL     MW 7364   4.794   3.802   1.725  0.3477  0.2017 -0.4061
 1842SOL     OW 7365   2.032   4.799   0.727 -0.3277  0.0517 -0.1423
 1842SOL    HW1 7366   2.101   4.851   0.685  0.3237 -1.2384 -0.7357
 1842SOL    HW2 7367   2.080   4.729   0.772 -1.2784 -2.1088 -2.2807
 1842SOL     MW 7368   2.047   4.796   0.728 -0.3660 -0.3901 -0.4920
 1843SOL     OW 7369   5.100   0.058   3.361  0.2532  0.4984  0.4650
 1843SOL    HW1 7370   5.024   0.005   3.338  0.5084 -0.1433  1.0802
 1843SOL    HW2 7371   5.160   0.046   3.287  0.1310  0.2797  0.3993
 1843SOL     MW 7372   5.098   0.049   3.348  0.2702  0.3882  0.5354
 1844SOL     OW 7373   5.424   2.401   3.888  0.1396 -0.3727 -0.0490
 1844SOL    HW1 7374   5.372   2.475   3.858  0.6313 -0.5325 -1.3804
 1844SOL    HW2 7375   5.396   2.328   3.833 -1.3399 -1.5803  2.1690
 1844SOL     MW 7376   5.414   2.401   3.877  0.0132 -0.5478  0.0645
 1845SOL     OW 7377   1.628   1.443   4.777 -0.1281  0.5213 -0.0490
 1845SOL    HW1 7378   1.601   1.365   4.825 -1.5938 -0.6411 -2.5572
 1845SOL    HW2 7379   1.571   1.513   4.809 -1.6027 -0.4017 -0.5629
 1845SOL     MW 7380   1.617   1.442   4.787 -0.5045  0.2544 -0.4359
 1846SOL     OW 7381   0.515   5.455   0.767 -0.2652  0.4782 -0.3264
 1846SOL    HW1 7382   0.468   5.407   0.834 -0.6223 -0.0832 -0.9643
 1846SOL    HW2 7383   0.447   5.480   0.703  0.2825 -0.3605 -1.2666
 1846SOL     MW 7384   0.500   5.452   0.767 -0.2408  0.2990 -0.5284
 1847SOL     OW 7385   2.051   4.411   1.579  0.4228 -0.0641  0.5464
 1847SOL    HW1 7386   1.999   4.432   1.657  1.9827  0.7731  1.4301
 1847SOL    HW2 7387   1.992   4.362   1.522 -1.2111  0.5969  1.6130
 1847SOL     MW 7388   2.037   4.407   1.582  0.4133  0.1277  0.7960
 1848SOL     OW 7389   3.110   4.975   5.034  0.4397  0.1956 -0.3472
 1848SOL    HW1 7390   3.030   4.996   5.081  0.4518  1.8352 -1.0083
 1848SOL    HW2 7391   3.083   4.912   4.967 -0.3771  1.0437 -0.8265
 1848SOL     MW 7392   3.097   4.969   5.031  0.3367  0.5141 -0.4932
 1849SOL     OW 7393   3.203   1.956   4.784 -0.3465 -0.0896  0.3434
 1849SOL    HW1 7394   3.120   1.940   4.739  0.4997 -0.8637 -1.0084
 1849SOL    HW2 7395   3.260   1.885   4.755  1.3069  1.3542 -0.0912
 1849SOL     MW 7396   3.200   1.945   4.774 -0.0266 -0.0039  0.1147
 1850SOL     OW 7397   3.393   5.218   3.027  0.4495 -0.0741 -0.0950
 1850SOL    HW1 7398   3.319   5.186   3.079 -0.0980  0.8822 -0.2603
 1850SOL    HW2 7399   3.421   5.143   2.975  0.8913 -1.0113  1.4178
 1850SOL     MW 7400   3.387   5.204   3.027  0.4360 -0.0716  0.0775
 1851SOL     OW 7401   5.065   3.354   3.620  0.5615  0.3577  0.3394
 1851SOL    HW1 7402   5.028   3.434   3.584 -1.5979 -0.4089  0.6766
 1851SOL    HW2 7403   5.086   3.376   3.710  1.0581  0.8465  0.1097
 1851SOL     MW 7404   5.063   3.367   3.627  0.3486  0.3222  0.3532
 1852SOL     OW 7405   3.778   5.099   2.576 -0.0189 -0.3957 -0.0327
 1852SOL    HW1 7406   3.840   5.067   2.511  0.2093  0.8257 -0.4429
 1852SOL    HW2 7407   3.833   5.125   2.650 -0.0109  0.7122 -0.4057
 1852SOL     MW 7408   3.793   5.098   2.577  0.0114 -0.0975 -0.1329
 1853SOL     OW 7409   3.494   4.372   0.047  0.1302  0.2439  0.1906
 1853SOL    HW1 7410   3.575   4.417   0.026  0.7017 -1.4017 -1.4171
 1853SOL    HW2 7411   3.522   4.288   0.084 -0.8216 -0.3702 -0.4368
 1853SOL     MW 7412   3.508   4.367   0.049  0.0815 -0.0454 -0.0955
 1854SOL     OW 7413   1.336   2.585   2.076  0.2960 -0.3700  0.3673
 1854SOL    HW1 7414   1.289   2.669   2.076  1.8609  0.5631  0.3642
 1854SOL    HW2 7415   1.293   2.533   2.008  0.8455  1.4021 -1.4514
 1854SOL     MW 7416   1.325   2.589   2.067  0.5666 -0.0237  0.1341
 1855SOL     OW 7417   4.675   1.967   2.756  0.8442  0.4473  0.6789
 1855SOL    HW1 7418   4.646   1.955   2.846  0.1322  0.2143  0.4209
 1855SOL    HW2 7419   4.730   2.046   2.759 -0.0229  1.0411  1.1198
 1855SOL     MW 7420   4.679   1.975   2.768  0.6420  0.4935  0.7023
 1856SOL     OW 7421   4.453   3.319   1.925 -0.1558 -0.4797  0.4042
 1856SOL    HW1 7422   4.376   3.372   1.906  0.0663 -0.1095  0.5410
 1856SOL    HW2 7423   4.526   3.366   1.884 -0.2381 -1.7784 -1.3791
 1856SOL     MW 7424   4.452   3.331   1.917 -0.1379 -0.5986  0.1934
 1857SOL     OW 7425   1.962   3.766   2.807 -0.5482 -0.5938  0.0380
 1857SOL    HW1 7426   1.897   3.782   2.875  1.3781  0.3586  1.7617
 1857SOL    HW2 7427   1.965   3.848   2.757 -0.4622 -0.5265  0.1529
 1857SOL     MW 7428   1.954   3.778   2.809 -0.2906 -0.4633  0.2734
 1858SOL     OW 7429   1.515   4.621   2.009 -0.4776 -0.7064  0.2094
 1858SOL    HW1 7430   1.436   4.601   2.060 -0.4722  1.5712  1.2253
 1858SOL    HW2 7431   1.586   4.620   2.073  0.1060 -1.2514 -0.4286
 1858SOL     MW 7432   1.514   4.618   2.024 -0.4022 -0.4846  0.2578
 1859SOL     OW 7433   4.543   1.326   4.036 -0.3279 -0.2984  0.4469
 1859SOL    HW1 7434   4.635   1.350   4.038 -0.4390  0.2880 -0.4720
 1859SOL    HW2 7435   4.508   1.356   4.120 -0.0413  1.0730  0.1005
 1859SOL     MW 7436   4.550   1.333   4.047 -0.3055 -0.0478  0.2849
 1860SOL     OW 7437   5.353   3.283   2.131 -0.3390  0.3638  0.3723
 1860SOL    HW1 7438   5.396   3.208   2.090 -0.0517  0.1029  1.1404
 1860SOL    HW2 7439   5.262   3.277   2.102  0.1955  1.1685 -1.6253
 1860SOL     MW 7440   5.347   3.272   2.122 -0.2338  0.4334  0.2149
 1861SOL     OW 7441   4.669   4.279   4.297  0.1460  0.0897  0.5641
 1861SOL    HW1 7442   4.715   4.295   4.215 -1.2472 -1.7316 -0.6505
 1861SOL    HW2 7443   4.624   4.362   4.315 -2.2778 -0.3759 -2.4283
 1861SOL     MW 7444   4.669   4.292   4.289 -0.3426 -0.2030  0.0255
 1862SOL     OW 7445   2.569   1.326   5.431 -0.4188  0.0815  0.2228
 1862SOL    HW1 7446   2.538   1.249   5.384  0.0984  0.5842 -1.0159
 1862SOL    HW2 7447   2.619   1.375   5.365  2.0072 -0.1310  1.7971
 1862SOL     MW 7448   2.572   1.323   5.416 -0.0420  0.1187  0.2657
 1863SOL     OW 7449   3.373   2.090   4.080  0.5058  0.2674  0.3697
 1863SOL    HW1 7450   3.392   2.133   4.163  0.2621  0.1421  0.4933
 1863SOL    HW2 7451   3.343   2.160   4.022  0.0558  0.2579  0.5874
 1863SOL     MW 7452   3.371   2.104   4.083  0.4170  0.2502  0.4134
 1864SOL     OW 7453   1.519   0.089   0.719  0.0015  0.1105  0.0558
 1864SOL    HW1 7454   1.499   0.023   0.652 -0.9302  1.2300 -0.7987
 1864SOL    HW2 7455   1.464   0.065   0.793  0.2151 -0.4837  0.0336
 1864SOL     MW 7456   1.510   0.077   0.720 -0.0904  0.1778 -0.0564
 1865SOL     OW 7457   3.298   3.317   1.191  0.2873 -0.0411 -0.5628
 1865SOL    HW1 7458   3.209   3.309   1.157  0.2446 -0.6900 -0.3209
 1865SOL    HW2 7459   3.287   3.348   1.281  0.2098 -1.3822 -0.0744
 1865SOL     MW 7460   3.286   3.320   1.198  0.2719 -0.2959 -0.4694
 1866SOL     OW 7461   1.998   0.592   0.893  0.6779  0.8195 -0.4452
 1866SOL    HW1 7462   1.968   0.530   0.960 -0.1981  0.2103 -1.3745
 1866SOL    HW2 7463   1.931   0.661   0.892  0.2705  0.4279 -1.2108
 1866SOL     MW 7464   1.985   0.593   0.901  0.5136  0.6914 -0.6622
 1867SOL     OW 7465   2.848   0.619   1.887 -0.0155  0.6049  0.2672
 1867SOL    HW1 7466   2.924   0.647   1.937 -0.7366  0.5875  1.4159
 1867SOL    HW2 7467   2.813   0.700   1.850  0.2193  0.6889  0.2274
 1867SOL     MW 7468   2.853   0.633   1.888 -0.0777  0.6134  0.4091
 1868SOL     OW 7469   3.295   0.449   4.338 -0.3701  0.2442  0.3431
 1868SOL    HW1 7470   3.375   0.491   4.370 -0.0060 -0.3152  0.1639
 1868SOL    HW2 7471   3.313   0.428   4.247  0.1178 -1.9154  0.8850
 1868SOL     MW 7472   3.307   0.452   4.331 -0.2610 -0.1039  0.3895
 1869SOL     OW 7473   2.747   4.398   5.333  0.0859  0.0418 -0.3953
 1869SOL    HW1 7474   2.804   4.328   5.302  0.3028 -0.7241  1.5798
 1869SOL    HW2 7475   2.785   4.478   5.297  0.2722 -0.7492 -2.0676
 1869SOL     MW 7476   2.759   4.400   5.324  0.1375 -0.1575 -0.3566
 1870SOL     OW 7477   2.394   5.222   0.177  0.0721  0.4539  0.4645
 1870SOL    HW1 7478   2.386   5.198   0.085  0.9987 -1.6139  0.8633
 1870SOL    HW2 7479   2.372   5.142   0.225  3.1451  0.3259  1.9389
 1870SOL     MW 7480   2.390   5.209   0.172  0.5841  0.1729  0.7043
 1871SOL     OW 7481   3.781   0.249   3.735  0.0304  0.4807 -0.1630
 1871SOL    HW1 7482   3.869   0.212   3.736 -0.5830 -1.0692 -0.3605
 1871SOL    HW2 7483   3.732   0.197   3.799 -0.4626  2.1272  0.8708
 1871SOL     MW 7484   3.786   0.238   3.743 -0.1112  0.4930 -0.0560
 1872SOL     OW 7485   4.508   2.364   1.020  0.0315  0.0006  0.1615
 1872SOL    HW1 7486   4.593   2.344   1.059 -0.4738 -0.9520  0.8091
 1872SOL    HW2 7487   4.529   2.401   0.934  1.0923 -0.2352  0.3075
 1872SOL     MW 7488   4.522   2.366   1.014  0.1026 -0.1515  0.2631
 1873SOL     OW 7489   2.773   0.194   1.852  0.4353  0.0543  0.4290
 1873SOL    HW1 7490   2.687   0.200   1.811  0.7573 -0.6608 -0.3709
 1873SOL    HW2 7491   2.830   0.246   1.794  0.5123  0.7024  1.0689
 1873SOL     MW 7492   2.770   0.202   1.839  0.4864  0.0457  0.4085
 1874SOL     OW 7493   3.703   1.359   4.270 -0.0152 -0.1130 -0.1450
 1874SOL    HW1 7494   3.752   1.401   4.199 -0.2669 -1.9728 -1.4884
 1874SOL    HW2 7495   3.763   1.360   4.345 -0.5629  4.0686  0.5292
 1874SOL     MW 7496   3.717   1.365   4.270 -0.1175  0.1842 -0.2307
 1875SOL     OW 7497   3.640   2.335   5.294 -0.4942 -0.6559  0.1689
 1875SOL    HW1 7498   3.551   2.334   5.260 -0.7716 -0.2838  0.8703
 1875SOL    HW2 7499   3.644   2.413   5.350  0.1244 -0.9349  0.5285
 1875SOL     MW 7500   3.629   2.345   5.297 -0.4505 -0.6440  0.3047
 1876SOL     OW 7501   3.831   2.336   0.561 -0.0932 -0.3363 -0.2636
 1876SOL    HW1 7502   3.920   2.317   0.531 -0.1276 -0.5402 -0.2397
 1876SOL    HW2 7503   3.826   2.432   0.563  0.2667 -0.3198  0.1460
 1876SOL     MW 7504   3.842   2.346   0.558 -0.0515 -0.3603 -0.2081
 1877SOL     OW 7505   4.092   4.825   5.286 -0.0619  0.1114 -0.5485
 1877SOL    HW1 7506   4.108   4.780   5.203 -1.4610 -1.9104  0.1846
 1877SOL    HW2 7507   4.145   4.778   5.349 -1.1498 -0.2193  0.1528
 1877SOL     MW 7508   4.100   4.813   5.283 -0.3803 -0.1898 -0.3649
 1878SOL     OW 7509   3.671   0.879   2.903 -0.2118  0.0473 -0.1583
 1878SOL    HW1 7510   3.650   0.798   2.856  0.7164 -0.9834  1.1373
 1878SOL    HW2 7511   3.764   0.871   2.923 -0.1313  1.4138  0.0802
 1878SOL     MW 7512   3.680   0.868   2.899 -0.0826  0.0903  0.0381
 1879SOL     OW 7513   5.438   2.851   3.546 -0.5734 -0.1726 -0.1299
 1879SOL    HW1 7514   5.423   2.922   3.484 -0.3907  1.8922  2.0278
 1879SOL    HW2 7515   5.363   2.855   3.605  0.0865 -0.9387  0.7959
 1879SOL     MW 7516   5.426   2.860   3.546 -0.4655 -0.0063  0.2648
 1880SOL     OW 7517   1.563   0.718   1.565 -0.2311  0.6273  0.3487
 1880SOL    HW1 7518   1.553   0.774   1.488  0.5730  1.9363  1.1585
 1880SOL    HW2 7519   1.567   0.779   1.639  0.5860 -0.5045  1.2822
 1880SOL     MW 7520   1.562   0.733   1.565 -0.0236  0.6500  0.5719
 1881SOL     OW 7521   0.676   0.193   2.155 -0.0671 -0.1639 -0.5748
 1881SOL    HW1 7522   0.770   0.179   2.142 -0.1394 -0.4697 -0.7896
 1881SOL    HW2 7523   0.641   0.105   2.173 -0.0886  0.1288  1.0023
 1881SOL     MW 7524   0.684   0.180   2.156 -0.0791 -0.1656 -0.4004
 1882SOL     OW 7525   3.938   5.241   0.814  0.1174 -0.5172 -0.0453
 1882SOL    HW1 7526   4.027   5.248   0.850  0.8780 -0.4611 -1.8311
 1882SOL    HW2 7527   3.910   5.331   0.800  0.1144 -0.5457 -0.2332
 1882SOL     MW 7528   3.946   5.253   0.817  0.2144 -0.5137 -0.2980
 1883SOL     OW 7529   0.037   1.806   4.146  0.2477 -0.2890  0.0167
 1883SOL    HW1 7530   0.110   1.867   4.140  1.0474 -0.8583  2.7383
 1883SOL    HW2 7531  -0.038   1.860   4.168  0.8154 -0.1498  1.7290
 1883SOL     MW 7532   0.037   1.821   4.148  0.4228 -0.3441  0.5843
 1884SOL     OW 7533   0.278  -0.010   5.075 -0.2986 -0.3013  0.1005
 1884SOL    HW1 7534   0.186  -0.001   5.101 -0.1942 -0.5471  0.5778
 1884SOL    HW2 7535   0.288   0.047   4.999 -0.8613 -0.3204  0.0098
 1884SOL     MW 7536   0.267  -0.002   5.069 -0.3573 -0.3352  0.1500
 1885SOL     OW 7537   4.209   2.173   2.408 -0.6274 -0.0700  0.0745
 1885SOL    HW1 7538   4.155   2.222   2.346  0.1248 -0.6391 -1.0922
 1885SOL    HW2 7539   4.219   2.087   2.367 -1.0368 -0.8467  1.5580
 1885SOL     MW 7540   4.204   2.168   2.395 -0.5835 -0.2423  0.1151
 1886SOL     OW 7541   2.849   2.314   5.441  0.4075 -0.4560  0.0035
 1886SOL    HW1 7542   2.880   2.387   5.386 -1.7343  0.3343 -0.2480
 1886SOL    HW2 7543   2.926   2.288   5.491  1.6499  0.8883 -1.1070
 1886SOL     MW 7544   2.863   2.320   5.441  0.2923 -0.1827 -0.1708
 1887SOL     OW 7545   5.021   0.022   0.440 -0.4303 -0.1452 -0.3180
 1887SOL    HW1 7546   5.076   0.086   0.484 -1.1058  0.5946 -0.5123
 1887SOL    HW2 7547   5.068  -0.061   0.448 -0.5568 -0.0597  1.8460
 1887SOL     MW 7548   5.034   0.019   0.447 -0.5330 -0.0396 -0.0659
 1888SOL     OW 7549   3.288   0.310   5.443  0.3699  0.5727 -0.0574
 1888SOL    HW1 7550   3.362   0.370   5.436 -0.6416  1.6659 -2.3938
 1888SOL    HW2 7551   3.211   0.365   5.426 -0.7714 -0.9744 -0.0910
 1888SOL     MW 7552   3.287   0.325   5.440  0.0943  0.5146 -0.3607
 1889SOL     OW 7553   4.691   1.665   1.280  0.0032  0.1857 -0.1289
 1889SOL    HW1 7554   4.636   1.670   1.358 -1.9967  0.0840 -1.4442
 1889SOL    HW2 7555   4.751   1.592   1.297 -0.2158  0.3403  1.4003
 1889SOL     MW 7556   4.691   1.656   1.292 -0.2808  0.1925 -0.1015
 1890SOL     OW 7557   1.450   2.891   4.648  0.5033  0.2420 -1.0424
 1890SOL    HW1 7558   1.413   2.810   4.683  0.3788 -0.4165 -2.6060
 1890SOL    HW2 7559   1.374   2.938   4.612  0.9573 -0.3986 -2.8926
 1890SOL     MW 7560   1.435   2.887   4.648  0.5455  0.0757 -1.4794
 1891SOL     OW 7561   4.835   4.637   0.435  0.6360  0.8459 -0.4302
 1891SOL    HW1 7562   4.907   4.679   0.386  0.6764  0.2080 -0.9277
 1891SOL    HW2 7563   4.856   4.544   0.433  0.4442  0.7756  0.5067
 1891SOL     MW 7564   4.847   4.630   0.428  0.6166  0.7553 -0.3740
 1892SOL     OW 7565   3.658   4.306   2.257  0.3148  0.6062 -0.1594
 1892SOL    HW1 7566   3.621   4.387   2.221  2.2598  1.9924  0.7755
 1892SOL    HW2 7567   3.695   4.261   2.180  0.5746  1.3882 -0.5091
 1892SOL     MW 7568   3.658   4.310   2.242  0.5971  0.8837 -0.0845
 1893SOL     OW 7569   1.050   4.867   0.239  0.1656  0.0343  0.1358
 1893SOL    HW1 7570   1.043   4.823   0.154  1.7645 -0.5650  0.2837
 1893SOL    HW2 7571   0.974   4.837   0.289 -1.0665  0.7521 -1.2082
 1893SOL     MW 7572   1.039   4.858   0.234  0.2126  0.0495 -0.0173
 1894SOL     OW 7573   0.091   0.706   0.803  0.2992 -0.6117  0.2844
 1894SOL    HW1 7574   0.001   0.678   0.783  0.7274 -0.8959 -1.4049
 1894SOL    HW2 7575   0.109   0.669   0.889 -1.2435 -0.4307  0.7252
 1894SOL     MW 7576   0.082   0.698   0.812  0.1565 -0.6249  0.1246
 1895SOL     OW 7577   4.961   1.893   5.406 -0.1157 -0.3135 -0.1412
 1895SOL    HW1 7578   5.002   1.966   5.359 -1.8349  1.1167  0.4457
 1895SOL    HW2 7579   4.875   1.927   5.432 -0.0512 -1.7317  2.2365
 1895SOL     MW 7580   4.956   1.907   5.403 -0.3275 -0.3120  0.2383
 1896SOL     OW 7581   2.524   5.246   1.208 -0.3601  0.0574 -0.2683
 1896SOL    HW1 7582   2.576   5.224   1.131 -0.4475 -0.6370 -0.1390
 1896SOL    HW2 7583   2.465   5.172   1.219  0.3219 -0.3339  1.0344
 1896SOL     MW 7584   2.523   5.234   1.200 -0.2840 -0.0816 -0.0850
 1897SOL     OW 7585   5.417   2.667   4.635  0.1011 -0.4137  0.3079
 1897SOL    HW1 7586   5.465   2.664   4.718 -0.1439 -0.7223  0.4399
 1897SOL    HW2 7587   5.459   2.738   4.586 -1.2365  1.3575  1.5841
 1897SOL     MW 7588   5.429   2.676   4.639 -0.1015 -0.2264  0.4882
 1898SOL     OW 7589   4.072   2.683   4.021 -0.0251 -0.1232 -0.6066
 1898SOL    HW1 7590   4.028   2.601   4.043 -1.7322  1.0646  0.6279
 1898SOL    HW2 7591   4.013   2.726   3.959  0.7498  0.2711 -1.0838
 1898SOL     MW 7592   4.059   2.678   4.016 -0.1445  0.0793 -0.5096
 1899SOL     OW 7593   4.585   5.097   0.190 -1.0316  0.2946  0.3010
 1899SOL    HW1 7594   4.606   5.147   0.110 -1.3644  0.9882  0.6331
 1899SOL    HW2 7595   4.631   5.143   0.260  0.2413 -1.0180  0.3605
 1899SOL     MW 7596   4.594   5.110   0.188 -0.9113  0.2154  0.3512
 1900SOL     OW 7597   1.819   1.573   0.733 -0.1769 -0.6440  0.0499
 1900SOL    HW1 7598   1.761   1.565   0.809 -0.3967 -0.3791 -0.0865
 1900SOL    HW2 7599   1.907   1.572   0.770 -0.3010  0.9629  0.4605
 1900SOL     MW 7600   1.823   1.572   0.748 -0.2209 -0.4044  0.0850
 1901SOL     OW 7601   3.922   2.728   3.578 -0.1383  0.4961  0.1034
 1901SOL    HW1 7602   3.918   2.719   3.673  0.3454 -0.4097  0.0382
 1901SOL    HW2 7603   3.837   2.767   3.555 -0.7193 -0.3265  0.7893
 1901SOL     MW 7604   3.910   2.732   3.587 -0.1507  0.2749  0.1828
 1902SOL     OW 7605   5.436   3.052   4.894 -0.0595  0.3169 -0.0271
 1902SOL    HW1 7606   5.366   3.109   4.925 -0.2065  0.4332 -0.5666
 1902SOL    HW2 7607   5.409   3.026   4.806  0.9161  0.9337 -0.5280
 1902SOL     MW 7608   5.424   3.056   4.887  0.0466  0.4108 -0.1603
 1903SOL     OW 7609   0.317   5.387   2.690 -0.0943  0.0976 -0.0737
 1903SOL    HW1 7610   0.237   5.360   2.645  0.5311 -1.2703 -0.4449
 1903SOL    HW2 7611   0.369   5.431   2.622 -0.2393  0.3669 -0.0109
 1903SOL     MW 7612   0.314   5.389   2.675 -0.0328 -0.0430 -0.1132
 1904SOL     OW 7613   2.127   5.461   3.414 -0.0429 -0.1143  0.2685
 1904SOL    HW1 7614   2.129   5.379   3.464  0.0344 -0.2265  0.0832
 1904SOL    HW2 7615   2.112   5.529   3.480 -2.5663 -0.4879  0.1990
 1904SOL     MW 7616   2.125   5.459   3.429 -0.3560 -0.1765  0.2359
 1905SOL     OW 7617   3.146   0.109   5.075 -0.2267  0.0306 -0.6952
 1905SOL    HW1 7618   3.138   0.028   5.025 -0.7250  0.5420 -1.4893
 1905SOL    HW2 7619   3.056   0.141   5.082  0.0705  1.1372 -1.4970
 1905SOL     MW 7620   3.133   0.103   5.069 -0.2524  0.2377 -0.8995
 1906SOL     OW 7621   2.107   2.517   5.052 -0.4392  0.0252 -0.2922
 1906SOL    HW1 7622   2.126   2.543   4.962 -1.5776 -0.3028 -0.6396
 1906SOL    HW2 7623   2.027   2.464   5.045  0.3788 -1.4139  0.6984
 1906SOL     MW 7624   2.099   2.513   5.039 -0.4802 -0.2010 -0.2098
 1907SOL     OW 7625   0.740   2.812   4.967 -0.1852 -0.3232  0.1520
 1907SOL    HW1 7626   0.743   2.870   4.891 -0.7987  1.5266  1.4719
 1907SOL    HW2 7627   0.823   2.766   4.965  0.0019  0.0140 -1.3791
 1907SOL     MW 7628   0.751   2.814   4.957 -0.2398 -0.0433  0.1250
 1908SOL     OW 7629   2.973   5.375   3.870  0.2199 -0.2972 -0.8684
 1908SOL    HW1 7630   2.924   5.302   3.907 -2.1483  1.7275  0.3475
 1908SOL    HW2 7631   3.007   5.342   3.787 -0.5240 -2.8127 -0.2599
 1908SOL     MW 7632   2.971   5.362   3.864 -0.1785 -0.3600 -0.6349
 1909SOL     OW 7633   5.398   2.084   1.682  0.1085  0.1929  0.1879
 1909SOL    HW1 7634   5.355   2.022   1.742 -0.8684 -0.1186 -0.7899
 1909SOL    HW2 7635   5.479   2.039   1.656 -0.0872 -0.2313  0.2915
 1909SOL     MW 7636   5.403   2.070   1.686 -0.0416  0.0987  0.0760
 1910SOL     OW 7637   2.879   2.691   0.073  0.0269 -0.1624 -0.0573
 1910SOL    HW1 7638   2.879   2.631  -0.001  1.0457  0.7296 -0.8161
 1910SOL    HW2 7639   2.952   2.663   0.127 -0.2349 -0.3327  0.2111
 1910SOL     MW 7640   2.888   2.680   0.070  0.1238 -0.0700 -0.1201
 1911SOL     OW 7641   3.034   1.783   2.086  0.3016 -0.2403  0.6292
 1911SOL    HW1 7642   3.065   1.865   2.124  0.4202 -0.6526  1.4599
 1911SOL    HW2 7643   3.051   1.718   2.155 -2.3542 -0.5105  1.1308
 1911SOL     MW 7644   3.041   1.785   2.100 -0.0232 -0.3277  0.7998
 1912SOL     OW 7645   4.289   0.547   1.964 -0.0958  0.2567  0.3725
 1912SOL    HW1 7646   4.307   0.586   2.050 -0.0043 -0.4721  0.6892
 1912SOL    HW2 7647   4.347   0.594   1.904 -0.3850  0.9874  0.6495
 1912SOL     MW 7648   4.299   0.558   1.968 -0.1211  0.2570  0.4485
 1913SOL     OW 7649   5.076   2.347   1.762 -1.0034  0.0012  0.7197
 1913SOL    HW1 7650   5.030   2.273   1.721  0.9959 -1.4391  0.9364
 1913SOL    HW2 7651   5.102   2.402   1.688 -0.8693 -0.5045  0.3850
 1913SOL     MW 7652   5.073   2.344   1.747 -0.7303 -0.2479  0.7046
 1914SOL     OW 7653   5.039   3.732   1.483  0.2710  0.1267 -0.0034
 1914SOL    HW1 7654   5.018   3.658   1.426 -0.3424  1.0150 -0.9549
 1914SOL    HW2 7655   4.972   3.797   1.464  1.2413  1.2390  0.2630
 1914SOL     MW 7656   5.028   3.731   1.474  0.3167  0.3828 -0.0911
 1915SOL     OW 7657   2.232   2.055   1.313  0.0340  0.2406 -0.6565
 1915SOL    HW1 7658   2.272   2.137   1.284  1.7847 -0.4970 -0.4730
 1915SOL    HW2 7659   2.175   2.081   1.386  2.7362  1.0254  1.3309
 1915SOL     MW 7660   2.230   2.069   1.318  0.6040  0.2467 -0.3786
 1916SOL     OW 7661   3.948   4.374   5.005 -0.1693 -0.1716 -0.4971
 1916SOL    HW1 7662   3.961   4.298   4.948  0.3038 -0.9280  0.5754
 1916SOL    HW2 7663   3.854   4.388   5.007 -0.2051 -0.2757 -1.2728
 1916SOL     MW 7664   3.938   4.366   4.998 -0.1133 -0.2817 -0.4591
 1917SOL     OW 7665   1.693   2.848   3.964 -0.1155 -0.2735  0.4744
 1917SOL    HW1 7666   1.782   2.823   3.991 -0.0813 -1.8433 -0.9362
 1917SOL    HW2 7667   1.698   2.856   3.869 -1.2211  0.8078  0.4875
 1917SOL     MW 7668   1.705   2.846   3.955 -0.2527 -0.3360  0.2955
 1918SOL     OW 7669   2.827   4.415   3.408 -0.0303  0.4251  0.1984
 1918SOL    HW1 7670   2.844   4.480   3.340 -2.1149 -0.5827 -1.4081
 1918SOL    HW2 7671   2.734   4.426   3.429  0.2682 -0.1510  1.9884
 1918SOL     MW 7672   2.817   4.425   3.402 -0.2589  0.2223  0.2219
 1919SOL     OW 7673   3.022   1.932   5.156 -0.1564  0.1743 -0.2022
 1919SOL    HW1 7674   2.929   1.949   5.142  0.0496 -0.1095 -2.1876
 1919SOL    HW2 7675   3.059   2.018   5.177 -0.8498  0.2853  0.6173
 1919SOL     MW 7676   3.015   1.945   5.157 -0.2188  0.1522 -0.3515
 1920SOL     OW 7677   3.828   4.311   4.624 -0.5871 -0.1005  0.0242
 1920SOL    HW1 7678   3.825   4.252   4.700  0.4308 -0.0917  0.0759
 1920SOL    HW2 7679   3.819   4.398   4.661  4.1770  0.3270  0.7064
 1920SOL     MW 7680   3.826   4.314   4.639  0.1530 -0.0446  0.1182
 1921SOL     OW 7681   1.165   3.262   3.850 -0.2257 -0.3865 -0.0238
 1921SOL    HW1 7682   1.252   3.223   3.856 -0.1179 -0.0421  0.9334
 1921SOL    HW2 7683   1.175   3.348   3.892 -1.0000 -0.2917 -0.0212
 1921SOL     MW 7684   1.178   3.268   3.856 -0.3110 -0.3303  0.0991
 1922SOL     OW 7685   0.985   1.781   3.168 -0.0426 -0.2399  0.4602
 1922SOL    HW1 7686   0.911   1.815   3.218 -0.1726 -1.2294  0.9499
 1922SOL    HW2 7687   1.048   1.754   3.234  1.0071  1.0809  0.0453
 1922SOL     MW 7688   0.983   1.782   3.183  0.0751 -0.1975  0.4698
 1923SOL     OW 7689   2.761   3.500   5.200  0.1248  0.6497 -0.3663
 1923SOL    HW1 7690   2.764   3.595   5.211 -0.2117  0.6390 -0.1645
 1923SOL    HW2 7691   2.802   3.466   5.280 -0.0488  0.6197 -0.2899
 1923SOL     MW 7692   2.767   3.508   5.212  0.0595  0.6445 -0.3307
 1924SOL     OW 7693   3.957   0.559   1.314 -0.2186 -0.2009  0.0040
 1924SOL    HW1 7694   3.976   0.570   1.407  0.8211 -1.4530 -0.0328
 1924SOL    HW2 7695   4.024   0.610   1.269  0.0504 -0.6118 -0.0670
 1924SOL     MW 7696   3.968   0.567   1.320 -0.0510 -0.4138 -0.0098
 1925SOL     OW 7697   4.499   4.084   2.767  0.1096 -0.5563  0.6262
 1925SOL    HW1 7698   4.435   4.155   2.773 -1.0750 -1.4130 -1.0448
 1925SOL    HW2 7699   4.526   4.083   2.675  0.8376 -1.6615  0.8193
 1925SOL     MW 7700   4.495   4.093   2.756  0.0512 -0.8075  0.4370
 1926SOL     OW 7701   4.484   5.307   3.160  0.0170 -0.5179  0.2580
 1926SOL    HW1 7702   4.418   5.355   3.210  0.3318  0.0435  0.1424
 1926SOL    HW2 7703   4.434   5.243   3.109 -0.5361  0.5413 -0.5547
 1926SOL     MW 7704   4.469   5.305   3.160 -0.0135 -0.3105  0.1392
 1927SOL     OW 7705   5.381   3.761   0.977 -0.1876  0.2087  0.3519
 1927SOL    HW1 7706   5.346   3.774   0.889 -0.1867  0.6979  0.4218
 1927SOL    HW2 7707   5.304   3.751   1.032 -0.2363  1.2807  0.5050
 1927SOL     MW 7708   5.367   3.762   0.973 -0.1937  0.4086  0.3804
 1928SOL     OW 7709   3.873   4.144   4.836 -0.0230 -0.0525 -0.3213
 1928SOL    HW1 7710   3.799   4.132   4.896  0.7747  1.1573  0.9421
 1928SOL    HW2 7711   3.880   4.060   4.791 -2.1362 -0.2185 -0.4682
 1928SOL     MW 7712   3.864   4.132   4.838 -0.1914  0.0811 -0.1784
 1929SOL     OW 7713   4.200   5.371   0.447 -0.0751  0.3175 -0.7738
 1929SOL    HW1 7714   4.246   5.399   0.368  1.3376 -2.4369 -1.0516
 1929SOL    HW2 7715   4.147   5.296   0.419 -0.3613 -0.0510  0.6624
 1929SOL     MW 7716   4.199   5.365   0.433  0.0691 -0.0822 -0.6255
 1930SOL     OW 7717   4.842   1.540   3.409  0.3421 -0.2026  0.2438
 1930SOL    HW1 7718   4.776   1.481   3.372 -0.4395 -0.2296  1.6076
 1930SOL    HW2 7719   4.791   1.600   3.464  1.3972  0.1906  0.8085
 1930SOL     MW 7720   4.827   1.540   3.411  0.3771 -0.1557  0.4907
 1931SOL     OW 7721   1.336   0.310   2.716 -0.2650 -0.1665  0.4146
 1931SOL    HW1 7722   1.371   0.223   2.730 -0.8863 -0.5049 -0.0646
 1931SOL    HW2 7723   1.273   0.300   2.644 -0.5458  0.6163  0.5314
 1931SOL     MW 7724   1.332   0.298   2.709 -0.3805 -0.1096  0.3682
 1932SOL     OW 7725   4.328   2.722   4.704 -0.2707 -0.9735 -0.1445
 1932SOL    HW1 7726   4.422   2.720   4.688 -0.1798  0.4078  0.0648
 1932SOL    HW2 7727   4.290   2.738   4.617 -0.2566 -0.6626 -0.0929
 1932SOL     MW 7728   4.335   2.724   4.690 -0.2573 -0.7569 -0.1111
 1933SOL     OW 7729   2.115   5.466   1.893 -0.2431  0.3974  0.0344
 1933SOL    HW1 7730   2.043   5.441   1.951  1.0996  0.6953  1.9006
 1933SOL    HW2 7731   2.079   5.536   1.839 -1.9575 -0.8505 -0.5332
 1933SOL     MW 7732   2.101   5.472   1.893 -0.2906  0.2758  0.2006
 1934SOL     OW 7733   1.903   0.515   2.176  0.2263 -0.2191 -0.0977
 1934SOL    HW1 7734   1.878   0.577   2.108  0.9930  2.1663  1.6265
 1934SOL    HW2 7735   1.973   0.560   2.224  0.8619 -2.4745  1.2462
 1934SOL     MW 7736   1.909   0.529   2.174  0.4058 -0.2025  0.2951
 1935SOL     OW 7737   5.405   5.092   2.989  0.5112  0.2429  0.1056
 1935SOL    HW1 7738   5.319   5.091   3.030  0.0512  2.2098 -0.7009
 1935SOL    HW2 7739   5.437   5.003   2.999 -1.8693 -0.7142 -0.0754
 1935SOL     MW 7740   5.398   5.081   2.995  0.1476  0.3722 -0.0208
 1936SOL     OW 7741   1.771   0.109   3.157  0.6543  0.0916 -0.0406
 1936SOL    HW1 7742   1.835   0.062   3.211  0.8977 -0.4396 -0.7843
 1936SOL    HW2 7743   1.813   0.192   3.137  0.6444  0.2099  0.4115
 1936SOL     MW 7744   1.785   0.114   3.162  0.6842  0.0387 -0.0779
 1937SOL     OW 7745   2.046   4.303   2.412 -0.5695 -0.1363 -0.1234
 1937SOL    HW1 7746   2.106   4.319   2.485  0.1284  1.3993 -0.9717
 1937SOL    HW2 7747   2.081   4.226   2.368  0.9313  0.8489 -0.7152
 1937SOL     MW 7748   2.058   4.295   2.416 -0.2880  0.1864 -0.3078
 1938SOL     OW 7749   0.884   0.247   2.490  0.3138  0.5253  0.3443
 1938SOL    HW1 7750   0.823   0.178   2.465  0.7265  0.7712 -1.4620
 1938SOL    HW2 7751   0.830   0.311   2.537 -0.6430  0.3087 -0.4230
 1938SOL     MW 7752   0.869   0.246   2.493  0.2441  0.5291  0.0148
 1939SOL     OW 7753   1.723   4.977   0.544  0.4026 -0.4251 -0.1633
 1939SOL    HW1 7754   1.716   4.900   0.601 -0.6347  2.5722  4.3432
 1939SOL    HW2 7755   1.635   4.990   0.510 -0.5616  0.9285  2.5724
 1939SOL     MW 7756   1.711   4.969   0.547  0.1464  0.1319  0.7638
 1940SOL     OW 7757   1.575   1.332   3.282  0.2558 -0.1757 -0.1391
 1940SOL    HW1 7758   1.643   1.276   3.245  0.9104  0.4830  0.0492
 1940SOL    HW2 7759   1.595   1.419   3.249 -0.9657 -0.0920 -0.7247
 1940SOL     MW 7760   1.586   1.336   3.273  0.1833 -0.0807 -0.1900
 1941SOL     OW 7761   4.572   3.457   3.439  0.4191 -0.1779  0.1496
 1941SOL    HW1 7762   4.624   3.529   3.403 -0.2939  0.4925  0.4132
 1941SOL    HW2 7763   4.559   3.481   3.531 -0.3742 -0.3030  0.0801
 1941SOL     MW 7764   4.577   3.469   3.446  0.2263 -0.1081  0.1744
 1942SOL     OW 7765   4.099   3.120   4.502  0.3693  0.8260 -0.3544
 1942SOL    HW1 7766   4.010   3.107   4.469 -0.7639  1.4692  2.1896
 1942SOL    HW2 7767   4.088   3.137   4.596  3.2371  0.3788  0.1686
 1942SOL     MW 7768   4.086   3.121   4.510  0.5914  0.8511  0.0382
 1943SOL     OW 7769   4.258   1.929   2.269  0.6775 -0.3302 -0.1194
 1943SOL    HW1 7770   4.212   1.943   2.187 -0.0457  0.9746  0.4835
 1943SOL    HW2 7771   4.233   1.841   2.297 -2.2786  0.6521  0.6602
 1943SOL     MW 7772   4.249   1.920   2.262  0.2065 -0.0374  0.0576
 1944SOL     OW 7773   3.559   1.632   0.341 -0.1289  0.1709 -0.1202
 1944SOL    HW1 7774   3.597   1.714   0.311  1.3103 -1.4182 -3.1879
 1944SOL    HW2 7775   3.610   1.609   0.419  0.0741  1.6917  0.2154
 1944SOL     MW 7776   3.571   1.639   0.347  0.0813  0.1621 -0.4699
 1945SOL     OW 7777   2.759   1.735   2.846 -0.1996 -0.2287 -0.5246
 1945SOL    HW1 7778   2.724   1.785   2.773 -0.6022  1.2502  0.6288
 1945SOL    HW2 7779   2.852   1.757   2.849 -0.3139  0.2289 -0.2107
 1945SOL     MW 7780   2.766   1.744   2.837 -0.2658  0.0192 -0.3367
 1946SOL     OW 7781   5.016   1.286   1.821  0.0292 -0.9517 -0.1474
 1946SOL    HW1 7782   5.079   1.227   1.779  0.2010 -1.0157  0.1967
 1946SOL    HW2 7783   5.051   1.300   1.909 -0.3631 -0.8698 -0.0022
 1946SOL     MW 7784   5.029   1.281   1.827  0.0010 -0.9494 -0.0847
 1947SOL     OW 7785   4.463   4.502   4.734 -0.4440  0.0460 -0.4578
 1947SOL    HW1 7786   4.500   4.511   4.822 -0.7032 -0.5982 -0.2721
 1947SOL    HW2 7787   4.418   4.417   4.736  0.4707 -0.4923 -1.5555
 1947SOL     MW 7788   4.462   4.492   4.746 -0.3601 -0.1053 -0.5746
 1948SOL     OW 7789   1.932   2.164   2.845  0.0036  0.0053 -0.2054
 1948SOL    HW1 7790   1.917   2.254   2.874 -1.3790  0.1812 -1.3518
 1948SOL    HW2 7791   1.896   2.162   2.756  2.1576 -1.0556 -1.1273
 1948SOL     MW 7792   1.925   2.176   2.837  0.1024 -0.1080 -0.4702
 1949SOL     OW 7793   0.742   4.673   2.428  0.0066  0.2705 -0.1539
 1949SOL    HW1 7794   0.708   4.584   2.432 -2.7710  1.0997 -2.2286
 1949SOL    HW2 7795   0.837   4.663   2.432 -0.2658 -2.5884  1.4513
 1949SOL     MW 7796   0.750   4.661   2.429 -0.3838  0.0107 -0.2140
 1950SOL     OW 7797   0.499   2.980   3.121  0.0475 -0.1978 -0.0158
 1950SOL    HW1 7798   0.580   3.005   3.076 -0.7613  0.7133 -1.0223
 1950SOL    HW2 7799   0.503   3.026   3.204  0.4481  0.0434 -0.1647
 1950SOL     MW 7800   0.510   2.989   3.125 -0.0047 -0.0503 -0.1637
 1951SOL     OW 7801   1.321   0.980   1.292  0.7070 -0.1360  0.3596
 1951SOL    HW1 7802   1.313   1.052   1.230  1.1449  1.2109  1.7987
 1951SOL    HW2 7803   1.335   1.023   1.376  1.3396 -1.9244  1.2068
 1951SOL     MW 7804   1.322   0.995   1.295  0.8441 -0.1925  0.6523
 1952SOL     OW 7805   5.378   0.792   1.164  0.2628  0.2504  0.4044
 1952SOL    HW1 7806   5.394   0.817   1.073 -0.8659 -0.6147 -0.0599
 1952SOL    HW2 7807   5.290   0.824   1.183  0.9664  1.5456  1.6294
 1952SOL     MW 7808   5.369   0.799   1.154  0.2084  0.3054  0.5018
 1953SOL     OW 7809   1.281   0.148   2.371 -0.3816  0.4980  0.2152
 1953SOL    HW1 7810   1.224   0.206   2.420 -0.2672  1.0636 -0.3126
 1953SOL    HW2 7811   1.233   0.065   2.366 -0.9828  0.8497  0.1040
 1953SOL     MW 7812   1.268   0.145   2.377 -0.4439  0.6154  0.1334
 1954SOL     OW 7813   0.463   2.447   4.856  0.4581 -0.1496  0.6523
 1954SOL    HW1 7814   0.381   2.461   4.809  1.6081 -1.8452 -2.1282
 1954SOL    HW2 7815   0.446   2.371   4.911  0.0736 -0.3614  0.2517
 1954SOL     MW 7816   0.450   2.439   4.857  0.5561 -0.3938  0.2450
 1955SOL     OW 7817   1.558   3.677   2.472  0.7964  0.7460  0.1741
 1955SOL    HW1 7818   1.481   3.713   2.427  1.9579  0.9640 -1.7743
 1955SOL    HW2 7819   1.564   3.587   2.440  1.4494  0.7959  0.1473
 1955SOL     MW 7820   1.549   3.670   2.462  1.0287  0.7803 -0.0787
 1956SOL     OW 7821   3.114   1.014   3.115  0.0788 -0.5360  0.8047
 1956SOL    HW1 7822   3.198   1.040   3.152  1.2413 -1.1927 -1.2475
 1956SOL    HW2 7823   3.051   1.073   3.156  1.4181 -0.3611  2.7828
 1956SOL     MW 7824   3.117   1.025   3.125  0.3990 -0.5976  0.7952
 1957SOL     OW 7825   4.659   1.226   2.098 -0.0968  0.0879 -0.2533
 1957SOL    HW1 7826   4.571   1.246   2.064 -0.3991 -0.7078  0.0314
 1957SOL    HW2 7827   4.691   1.156   2.041  0.0981 -0.0526  0.0282
 1957SOL     MW 7828   4.652   1.219   2.086 -0.1106 -0.0320 -0.1809
 1958SOL     OW 7829   1.285   2.723   2.912 -0.2278 -0.2682 -0.0594
 1958SOL    HW1 7830   1.371   2.680   2.913 -0.6736 -1.2108 -0.9383
 1958SOL    HW2 7831   1.303   2.813   2.940  1.2755 -0.0481 -1.5682
 1958SOL     MW 7832   1.299   2.729   2.916 -0.0924 -0.3607 -0.3651
 1959SOL     OW 7833   2.270   4.089   2.354  0.5150 -0.6263 -0.3929
 1959SOL    HW1 7834   2.360   4.055   2.355  1.4181  1.5227 -1.0331
 1959SOL    HW2 7835   2.255   4.114   2.263  0.1446  1.1024  0.0991
 1959SOL     MW 7836   2.280   4.088   2.342  0.5832 -0.1299 -0.4119
 1960SOL     OW 7837   0.597   2.156   0.902 -0.4215  0.2031  0.3910
 1960SOL    HW1 7838   0.628   2.065   0.913 -0.3192  0.3270  1.1742
 1960SOL    HW2 7839   0.612   2.175   0.810 -0.8967 -0.7481  0.1066
 1960SOL     MW 7840   0.603   2.146   0.892 -0.4692  0.0972  0.4549
 1961SOL     OW 7841   3.656   1.331   1.334 -0.4415  0.5228  0.3861
 1961SOL    HW1 7842   3.617   1.415   1.310  2.2249  1.6922 -0.2458
 1961SOL    HW2 7843   3.719   1.313   1.263  1.5449 -0.2319  2.2406
 1961SOL     MW 7844   3.659   1.339   1.322  0.1541  0.5759  0.5426
 1962SOL     OW 7845   3.489   3.349   3.994  0.3491 -0.1295  0.0068
 1962SOL    HW1 7846   3.508   3.313   3.908  1.5660  1.3235 -0.3652
 1962SOL    HW2 7847   3.403   3.389   3.985 -0.1245 -1.1374 -0.1264
 1962SOL     MW 7848   3.480   3.349   3.982  0.4442 -0.0725 -0.0579
 1963SOL     OW 7849   3.918   3.897   1.275 -0.3224  0.3220 -0.1714
 1963SOL    HW1 7850   3.990   3.914   1.214 -0.5566 -2.0253 -1.2519
 1963SOL    HW2 7851   3.841   3.930   1.230 -0.1435  1.2055  0.1674
 1963SOL     MW 7852   3.918   3.903   1.261 -0.3295  0.1347 -0.2663
 1964SOL     OW 7853   2.101   2.895   3.349  0.6919  0.0614 -0.6228
 1964SOL    HW1 7854   2.072   2.826   3.289  1.0669 -0.5769 -0.0878
 1964SOL    HW2 7855   2.097   2.854   3.435 -0.4431  1.1477 -0.1213
 1964SOL     MW 7856   2.096   2.881   3.352  0.5946  0.1188 -0.4901
 1965SOL     OW 7857   0.920   1.464   4.842  0.8423 -0.7545  0.4039
 1965SOL    HW1 7858   0.971   1.487   4.920 -0.7514 -0.2360  1.3493
 1965SOL    HW2 7859   0.879   1.546   4.815 -0.9304 -1.4576  0.8029
 1965SOL     MW 7860   0.921   1.477   4.849  0.4114 -0.7781  0.5760
 1966SOL     OW 7861   3.897   0.983   0.330  0.1944 -0.8405  0.3485
 1966SOL    HW1 7862   3.833   0.921   0.365  0.6215 -0.1830  2.4572
 1966SOL    HW2 7863   3.869   1.068   0.364  0.3510 -0.0241 -1.4201
 1966SOL     MW 7864   3.885   0.986   0.339  0.2691 -0.6518  0.3920
 1967SOL     OW 7865   5.085   3.166   5.230  0.4933  1.0305  0.5637
 1967SOL    HW1 7866   5.029   3.243   5.231 -2.5628 -0.9934 -0.7654
 1967SOL    HW2 7867   5.111   3.156   5.139  0.3888  0.2059  0.6158
 1967SOL     MW 7868   5.081   3.175   5.219  0.0887  0.6659  0.4003
 1968SOL     OW 7869   0.796   1.802   3.700 -0.0967 -0.0293 -0.8963
 1968SOL    HW1 7870   0.854   1.727   3.702 -1.7624 -1.4074 -1.6887
 1968SOL    HW2 7871   0.770   1.811   3.608 -0.2245  1.2796 -0.7564
 1968SOL     MW 7872   0.800   1.794   3.688 -0.3263 -0.0382 -0.9798
 1969SOL     OW 7873   1.317   3.339   2.500 -0.4562 -0.4241 -0.1895
 1969SOL    HW1 7874   1.325   3.330   2.595  1.0086  1.9882  0.0081
 1969SOL    HW2 7875   1.404   3.368   2.472 -2.1066  4.1164 -1.4428
 1969SOL     MW 7876   1.329   3.342   2.509 -0.4800  0.4659 -0.3246
 1970SOL     OW 7877   4.664   0.509   0.904 -0.2317 -0.2672 -0.1873
 1970SOL    HW1 7878   4.639   0.520   0.995  3.1298 -1.6279  1.0336
 1970SOL    HW2 7879   4.654   0.415   0.886 -1.4439  0.0607 -1.4899
 1970SOL     MW 7880   4.660   0.498   0.913  0.0434 -0.3994 -0.1978
 1971SOL     OW 7881   5.244   1.661   3.975  0.6227  0.0479 -0.3893
 1971SOL    HW1 7882   5.270   1.590   3.916  1.8923 -0.1045  0.3210
 1971SOL    HW2 7883   5.305   1.732   3.956 -1.9874  1.9376 -2.7073
 1971SOL     MW 7884   5.255   1.661   3.965  0.4511  0.2703 -0.5951
 1972SOL     OW 7885   1.159   3.191   4.225  0.3469 -0.0039  0.0190
 1972SOL    HW1 7886   1.248   3.221   4.238  0.4414  0.4456 -1.4928
 1972SOL    HW2 7887   1.166   3.124   4.157 -0.6912  1.5326 -1.6728
 1972SOL     MW 7888   1.171   3.186   4.218  0.2261  0.2503 -0.3911
 1973SOL     OW 7889   4.974   1.997   5.016 -0.0988  0.1171 -0.1124
 1973SOL    HW1 7890   4.985   2.081   4.972 -0.8952  0.2505 -0.0765
 1973SOL    HW2 7891   5.042   1.941   4.979  0.6674  0.8718  0.1113
 1973SOL     MW 7892   4.984   2.001   5.006 -0.1027  0.2308 -0.0791
 1974SOL     OW 7893   3.694   5.189   0.915 -0.0498  0.3673  0.2325
 1974SOL    HW1 7894   3.779   5.222   0.887  0.5369 -1.4413 -0.2535
 1974SOL    HW2 7895   3.713   5.111   0.966 -1.3994  0.2213  0.5696
 1974SOL     MW 7896   3.707   5.184   0.918 -0.1474  0.1171  0.2135
 1975SOL     OW 7897   0.897   5.430   4.796 -0.2230  0.6357 -0.1711
 1975SOL    HW1 7898   0.993   5.425   4.795 -0.1305  2.0160 -0.9314
 1975SOL    HW2 7899   0.878   5.524   4.793 -1.6039  0.3534 -1.2525
 1975SOL     MW 7900   0.907   5.441   4.795 -0.3879  0.7762 -0.4068
 1976SOL     OW 7901   4.293   0.802   4.168  0.4858 -0.2836  0.2392
 1976SOL    HW1 7902   4.287   0.895   4.187  0.7806 -0.2074 -0.0310
 1976SOL    HW2 7903   4.205   0.777   4.141  0.5953  0.1034 -0.5135
 1976SOL     MW 7904   4.281   0.811   4.167  0.5376 -0.2243  0.1083
 1977SOL     OW 7905   0.465   0.291   1.733 -0.0550  0.0398 -0.2327
 1977SOL    HW1 7906   0.483   0.230   1.662  1.7380  1.7872 -1.3935
 1977SOL    HW2 7907   0.477   0.378   1.694 -1.0814  1.1218  1.6894
 1977SOL     MW 7908   0.469   0.295   1.719  0.0431  0.4020 -0.1353
 1978SOL     OW 7909   3.118   5.207   2.006 -0.2429  0.1318  0.4560
 1978SOL    HW1 7910   3.025   5.183   2.002 -0.1925 -0.2478  1.2534
 1978SOL    HW2 7911   3.127   5.278   1.943 -0.8281 -0.5921 -0.4718
 1978SOL     MW 7912   3.107   5.213   1.998 -0.3113 -0.0095  0.4393
 1979SOL     OW 7913   0.288   4.296   0.208 -0.9450 -0.2327 -0.0105
 1979SOL    HW1 7914   0.284   4.213   0.161 -2.1766 -0.1813 -0.0288
 1979SOL    HW2 7915   0.207   4.299   0.259 -1.5306  1.4995 -0.9506
 1979SOL     MW 7916   0.278   4.286   0.209 -1.1776 -0.0044 -0.1332
 1980SOL     OW 7917   2.976   2.916   2.967 -0.0028 -0.0488 -0.3946
 1980SOL    HW1 7918   3.029   2.990   2.938  0.4182  0.4177  1.4610
 1980SOL    HW2 7919   2.886   2.945   2.954  0.1540  0.8785  0.4709
 1980SOL     MW 7920   2.971   2.929   2.961  0.0711  0.1296 -0.0463
 1981SOL     OW 7921   2.962   3.958   1.342 -0.3647 -0.4493 -0.1965
 1981SOL    HW1 7922   3.047   3.926   1.372  0.0363  2.5724  2.5647
 1981SOL    HW2 7923   2.983   4.037   1.291 -1.4830 -0.8773 -1.3751
 1981SOL     MW 7924   2.976   3.964   1.339 -0.4565 -0.1173  0.0061
 1982SOL     OW 7925   2.375   5.372   4.404 -0.0403  0.5478  0.0323
 1982SOL    HW1 7926   2.364   5.463   4.432  1.5109  0.2467  1.8547
 1982SOL    HW2 7927   2.321   5.322   4.464 -0.0419  0.1648 -0.2865
 1982SOL     MW 7928   2.367   5.378   4.415  0.1581  0.4602  0.2248
 1983SOL     OW 7929   5.004   3.463   0.918  0.0817 -0.1985  0.6492
 1983SOL    HW1 7930   4.970   3.527   0.856  0.2669 -0.6900  0.0291
 1983SOL    HW2 7931   4.974   3.494   1.004  1.3175  1.4692  0.5261
 1983SOL     MW 7932   4.996   3.475   0.921  0.2636 -0.0480  0.5540
 1984SOL     OW 7933   3.188   1.895   3.537 -0.3092 -0.5863  0.4288
 1984SOL    HW1 7934   3.218   1.889   3.447  0.0100  2.7406  0.1654
 1984SOL    HW2 7935   3.230   1.822   3.582  2.8910  0.0204 -1.2970
 1984SOL     MW 7936   3.197   1.885   3.531  0.1414 -0.0828  0.1741
 1985SOL     OW 7937   3.150   2.062   1.182 -0.0098  0.4079 -0.0496
 1985SOL    HW1 7938   3.103   2.144   1.200 -1.7711 -0.1522 -1.7188
 1985SOL    HW2 7939   3.220   2.087   1.123  0.3781  0.9058  0.6050
 1985SOL     MW 7940   3.153   2.076   1.177 -0.1856  0.3999 -0.1795
 1986SOL     OW 7941   1.963   2.586   0.535 -0.0864 -0.2222  0.3825
 1986SOL    HW1 7942   1.986   2.509   0.587 -1.8487  0.1895  1.9114
 1986SOL    HW2 7943   1.867   2.590   0.540 -0.1022  1.4721 -0.5338
 1986SOL     MW 7944   1.954   2.576   0.543 -0.3140  0.0474  0.4609
 1987SOL     OW 7945   2.482   4.960   0.465 -0.0866 -0.1100  0.3630
 1987SOL    HW1 7946   2.456   4.954   0.373  1.8710  2.0015 -0.4415
 1987SOL    HW2 7947   2.533   4.880   0.480  0.4456 -0.0055 -0.7404
 1987SOL     MW 7948   2.485   4.949   0.455  0.2322  0.1737  0.1188
 1988SOL     OW 7949   1.801   2.501   3.013 -0.0291 -0.1877  0.1136
 1988SOL    HW1 7950   1.861   2.504   2.939  0.6388  1.7171  0.6706
 1988SOL    HW2 7951   1.811   2.413   3.049  0.3110 -0.8310 -1.4813
 1988SOL     MW 7952   1.810   2.490   3.008  0.0999 -0.0262 -0.0193
 1989SOL     OW 7953   3.544   3.646   4.728 -0.2096  0.1430 -0.3280
 1989SOL    HW1 7954   3.574   3.643   4.637 -0.0480  1.2406 -0.3242
 1989SOL    HW2 7955   3.607   3.593   4.776  1.2801  1.6996 -0.4583
 1989SOL     MW 7956   3.556   3.639   4.722  0.0018  0.4827 -0.3442
 1990SOL     OW 7957   3.566   4.777   1.105  0.0626 -0.0796  0.6666
 1990SOL    HW1 7958   3.481   4.820   1.093 -0.4922 -1.6592 -1.9375
 1990SOL    HW2 7959   3.630   4.843   1.081 -0.7111 -0.1480 -1.9138
 1990SOL     MW 7960   3.563   4.791   1.100 -0.1075 -0.2906  0.0029
 1991SOL     OW 7961   3.357   5.496   1.600  0.7546 -0.6108 -0.1680
 1991SOL    HW1 7962   3.411   5.419   1.590  1.2668 -0.4720  1.2925
 1991SOL    HW2 7963   3.301   5.497   1.523  3.1284 -0.4933 -1.9715
 1991SOL     MW 7964   3.357   5.487   1.589  1.1241 -0.5780 -0.2119
 1992SOL     OW 7965   3.869   0.777   3.954 -0.2920 -0.2797 -0.4459
 1992SOL    HW1 7966   3.876   0.869   3.927 -0.2290  0.0092  0.5070
 1992SOL    HW2 7967   3.774   0.761   3.960 -0.3899  0.7073  2.4299
 1992SOL     MW 7968   3.858   0.787   3.951 -0.2965 -0.1164  0.0442
 1993SOL     OW 7969   3.582   5.407   1.103  0.1886  1.1244  0.8373
 1993SOL    HW1 7970   3.663   5.420   1.154  0.8401  1.4291 -0.2472
 1993SOL    HW2 7971   3.601   5.330   1.048 -1.5841 -1.1106  3.1220
 1993SOL     MW 7972   3.595   5.398   1.103  0.0451  0.8773  0.9910
 1994SOL     OW 7973   3.063   2.989   1.060  0.2855  0.3086  0.1019
 1994SOL    HW1 7974   3.087   3.028   1.144  0.6815 -0.0931  0.1804
 1994SOL    HW2 7975   3.117   2.910   1.054 -0.4185 -0.1657 -0.1071
 1994SOL     MW 7976   3.073   2.984   1.070  0.2461  0.1965  0.0852
 1995SOL     OW 7977   3.953   4.686   4.331 -0.1056  0.4237  0.2022
 1995SOL    HW1 7978   3.997   4.737   4.263 -0.1233 -1.0810 -0.9889
 1995SOL    HW2 7979   3.925   4.606   4.287 -0.2597 -0.5331  1.9417
 1995SOL     MW 7980   3.955   4.682   4.317 -0.1276  0.1086  0.2724
 1996SOL     OW 7981   0.458   2.079   0.063  0.1556 -0.2389  0.1290
 1996SOL    HW1 7982   0.496   2.022   0.130  0.6188  1.0915  1.0623
 1996SOL    HW2 7983   0.373   2.104   0.099 -0.6725 -1.4525 -0.9365
 1996SOL     MW 7984   0.452   2.075   0.076  0.1089 -0.2239  0.1121
 1997SOL     OW 7985   0.709   0.026   2.504  0.5746 -0.7605  0.5656
 1997SOL    HW1 7986   0.719  -0.058   2.550  1.7713 -0.6736  0.4973
 1997SOL    HW2 7987   0.615   0.036   2.494  0.3429 -1.4415  1.7901
 1997SOL     MW 7988   0.699   0.016   2.508  0.6981 -0.8365  0.7136
 1998SOL     OW 7989   0.437   0.167   1.493  0.1740  0.2882  0.2612
 1998SOL    HW1 7990   0.429   0.221   1.414  1.8288  1.6348  0.9533
 1998SOL    HW2 7991   0.351   0.173   1.535 -1.1076 -1.3952 -1.9521
 1998SOL     MW 7992   0.425   0.175   1.489  0.2218  0.2451  0.0665
 1999SOL     OW 7993   4.930   2.748   4.087 -0.4490 -0.0225  0.0929
 1999SOL    HW1 7994   4.979   2.673   4.120 -0.4857  0.5471  1.5082
 1999SOL    HW2 7995   4.907   2.798   4.165  0.7969  2.2263 -0.8918
 1999SOL     MW 7996   4.934   2.745   4.101 -0.2942  0.3382  0.1480
 2000SOL     OW 7997   0.061   0.571   4.056 -0.3468 -0.0861  0.2846
 2000SOL    HW1 7998   0.146   0.609   4.078 -0.7162  1.7102 -1.1350
 2000SOL    HW2 7999   0.081   0.483   4.025  0.8239 -0.2096  1.3125
 2000SOL     MW 8000   0.075   0.565   4.055 -0.2442  0.1280  0.2345
 2001SOL     OW 8001   0.402   5.141   2.764  0.2806  0.1299 -0.2496
 2001SOL    HW1 8002   0.367   5.226   2.738 -0.0505  0.1668  0.3299
 2001SOL    HW2 8003   0.424   5.151   2.856  2.3967  0.3079 -0.7025
 2001SOL     MW 8004   0.400   5.153   2.772  0.5091  0.1574 -0.2334
 2002SOL     OW 8005   4.356   0.243   3.040  0.1262  0.4801  0.5946
 2002SOL    HW1 8006   4.350   0.276   3.129 -0.6663 -1.0431  1.1495
 2002SOL    HW2 8007   4.424   0.175   3.044 -0.7657 -0.4554  0.3578
 2002SOL     MW 8008   4.364   0.238   3.052 -0.0894  0.1654  0.6353
 2003SOL     OW 8009   0.580   2.473   0.904  0.1237 -0.0662  0.0329
 2003SOL    HW1 8010   0.509   2.469   0.840  0.3619  4.7718 -0.9262
 2003SOL    HW2 8011   0.553   2.415   0.974 -3.3604 -0.6176 -1.5806
 2003SOL     MW 8012   0.568   2.465   0.905 -0.2918  0.4825 -0.2964
 2004SOL     OW 8013   0.410   3.413   0.994 -0.0880  0.4794  0.3890
 2004SOL    HW1 8014   0.349   3.432   0.922 -0.1070 -0.3765  0.1665
 2004SOL    HW2 8015   0.388   3.477   1.061 -1.3180  0.1306  0.3544
 2004SOL     MW 8016   0.399   3.423   0.993 -0.2479  0.3252  0.3561
 2005SOL     OW 8017   0.716   4.379   0.179 -0.3367 -0.6361  0.3415
 2005SOL    HW1 8018   0.639   4.385   0.235 -0.0570 -0.6953  0.7335
 2005SOL    HW2 8019   0.689   4.322   0.107 -0.2303 -1.7870  1.1889
 2005SOL     MW 8020   0.703   4.373   0.177 -0.2873 -0.7910  0.5002
 2006SOL     OW 8021   5.174   4.469   5.065 -0.4917  0.4881 -0.0432
 2006SOL    HW1 8022   5.163   4.475   4.970  1.4133  3.0555 -0.1994
 2006SOL    HW2 8023   5.088   4.443   5.097 -1.1546 -0.6203 -2.4500
 2006SOL     MW 8024   5.162   4.466   5.057 -0.3327  0.6748 -0.3713
 2007SOL     OW 8025   0.392   0.371   0.403 -0.5987  0.3621  0.0220
 2007SOL    HW1 8026   0.459   0.308   0.429 -0.7193 -0.3790 -1.3789
 2007SOL    HW2 8027   0.439   0.439   0.355 -0.5920  0.9012  0.7716
 2007SOL     MW 8028   0.406   0.372   0.400 -0.6133  0.3362 -0.0614
 2008SOL     OW 8029   3.082   0.714   0.708  0.2544 -0.7916 -0.3815
 2008SOL    HW1 8030   3.068   0.662   0.629 -0.4409 -1.6277  0.2713
 2008SOL    HW2 8031   3.011   0.688   0.766  1.8952 -1.6808  1.2969
 2008SOL     MW 8032   3.071   0.704   0.705  0.3755 -1.0124 -0.0831
 2009SOL     OW 8033   1.229   1.481   5.370 -0.4414 -0.2444 -0.1668
 2009SOL    HW1 8034   1.258   1.482   5.279  0.8228 -1.0393  0.1969
 2009SOL    HW2 8035   1.310   1.481   5.421 -1.1181 -0.5840  0.9450
 2009SOL     MW 8036   1.243   1.481   5.365 -0.3662 -0.3896  0.0221
 2010SOL     OW 8037   1.480   5.048   2.659 -0.1996 -0.2403  0.0591
 2010SOL    HW1 8038   1.392   5.079   2.635 -1.0782 -0.8069  2.2457
 2010SOL    HW2 8039   1.517   5.120   2.710 -0.7092 -1.1649  1.8318
 2010SOL     MW 8040   1.473   5.062   2.662 -0.3773 -0.4312  0.5659
 2011SOL     OW 8041   4.348   4.152   3.254 -0.0750  0.3503 -0.0813
 2011SOL    HW1 8042   4.348   4.078   3.314  0.0636  0.3138 -0.1266
 2011SOL    HW2 8043   4.313   4.225   3.305  0.0002  0.3083  0.0289
 2011SOL     MW 8044   4.343   4.152   3.268 -0.0477  0.3402 -0.0730
 2012SOL     OW 8045   1.345   3.080   0.971 -0.3813  0.4511  0.1147
 2012SOL    HW1 8046   1.296   3.135   1.033 -0.6957 -1.0565  1.2592
 2012SOL    HW2 8047   1.287   3.074   0.895 -1.1574  0.2470  0.7006
 2012SOL     MW 8048   1.331   3.086   0.969 -0.5209  0.2320  0.3362
 2013SOL     OW 8049   1.459   3.881   1.321 -0.6005  0.4980 -0.0191
 2013SOL    HW1 8050   1.379   3.932   1.305 -1.0612 -0.2737 -0.2377
 2013SOL    HW2 8051   1.504   3.879   1.237 -0.1261  1.3026  0.2108
 2013SOL     MW 8052   1.454   3.887   1.308 -0.5988  0.5022 -0.0177
 2014SOL     OW 8053   1.477   5.166   2.162 -0.1750  0.2162  0.2696
 2014SOL    HW1 8054   1.538   5.103   2.124 -0.5732  1.5331 -2.8341
 2014SOL    HW2 8055   1.510   5.181   2.250  3.0917 -0.3164 -0.7382
 2014SOL     MW 8056   1.489   5.160   2.168  0.1922  0.3166 -0.2567
 2015SOL     OW 8057   3.308   3.504   0.648  0.2892  0.1034  0.5306
 2015SOL    HW1 8058   3.262   3.529   0.729  0.4456  0.6251  0.4566
 2015SOL    HW2 8059   3.352   3.422   0.671  1.3169  0.8535  1.3552
 2015SOL     MW 8060   3.308   3.497   0.662  0.4407  0.2662  0.6267
 2016SOL     OW 8061   3.514   5.201   4.142 -0.1943 -0.2144 -0.3827
 2016SOL    HW1 8062   3.552   5.114   4.156  0.3146  0.0019 -0.4213
 2016SOL    HW2 8063   3.566   5.239   4.071 -0.8816 -0.1588 -0.8651
 2016SOL     MW 8064   3.525   5.195   4.135 -0.2172 -0.1796 -0.4494
 2017SOL     OW 8065   5.303   2.008   0.545 -0.7353  0.0733  0.2288
 2017SOL    HW1 8066   5.370   2.071   0.516 -1.5370  0.1954 -1.4659
 2017SOL    HW2 8067   5.339   1.923   0.520  0.4201 -0.2434  2.6599
 2017SOL     MW 8068   5.316   2.005   0.538 -0.6900  0.0484  0.3231
 2018SOL     OW 8069   2.270   4.948   3.568 -0.6429  0.2259  0.2717
 2018SOL    HW1 8070   2.364   4.962   3.557 -0.3728 -0.1426  1.8548
 2018SOL    HW2 8071   2.230   4.992   3.493  0.8115  0.0165 -0.6557
 2018SOL     MW 8072   2.277   4.956   3.557 -0.4222  0.1519  0.3556
 2019SOL     OW 8073   3.753   1.085   4.841  0.6323 -0.0136 -0.3036
 2019SOL    HW1 8074   3.743   1.112   4.749  1.3433  3.9626  0.5777
 2019SOL    HW2 8075   3.683   1.132   4.887  1.6271 -0.1707  1.4334
 2019SOL     MW 8076   3.743   1.095   4.835  0.8506  0.4753  0.0315
 2020SOL     OW 8077   2.958   3.969   5.061  0.1273  0.3221 -0.2230
 2020SOL    HW1 8078   2.945   3.933   4.973  0.2334  0.3931 -0.2683
 2020SOL    HW2 8079   3.052   3.980   5.069  0.3307 -1.6460  0.6741
 2020SOL     MW 8080   2.968   3.966   5.051  0.1669  0.0792 -0.1140
 2021SOL     OW 8081   0.180   0.462   1.399 -0.3426 -0.6717  0.4133
 2021SOL    HW1 8082   0.116   0.528   1.372  1.4818  0.8145 -0.4308
 2021SOL    HW2 8083   0.203   0.487   1.489  0.5602  0.0572 -0.0050
 2021SOL     MW 8084   0.175   0.473   1.407  0.0065 -0.3881  0.2517
 2022SOL     OW 8085   3.281   0.858   5.446  0.1949 -0.1678 -0.2606
 2022SOL    HW1 8086   3.189   0.836   5.461 -0.1058 -0.3953 -2.1860
 2022SOL    HW2 8087   3.330   0.794   5.498 -0.7335 -1.6125 -1.1072
 2022SOL     MW 8088   3.275   0.847   5.454  0.0376 -0.3818 -0.6154
 2023SOL     OW 8089   0.109   1.248   4.188  0.0979  0.3123  0.1876
 2023SOL    HW1 8090   0.049   1.214   4.255  1.8703  0.1088  1.7660
 2023SOL    HW2 8091   0.117   1.341   4.209 -0.3654  0.5432 -0.6130
 2023SOL     MW 8092   0.102   1.255   4.199  0.2655  0.3158  0.2872
 2024SOL     OW 8093   5.409   2.056   4.648  0.8727 -0.5868 -0.1787
 2024SOL    HW1 8094   5.329   2.050   4.700 -0.0047  0.7672 -1.3104
 2024SOL    HW2 8095   5.457   1.975   4.669 -0.6960 -1.3509  0.6447
 2024SOL     MW 8096   5.405   2.045   4.658  0.5595 -0.5113 -0.2182
 2025SOL     OW 8097   2.083   0.232   3.824  0.3576  0.3462  0.8050
 2025SOL    HW1 8098   2.026   0.221   3.899 -1.0204 -1.1556 -0.3934
 2025SOL    HW2 8099   2.091   0.144   3.786  1.6384  0.9205 -0.3673
 2025SOL     MW 8100   2.077   0.219   3.829  0.3451  0.2275  0.5015
 2026SOL     OW 8101   3.100   0.687   2.034  0.2777  0.0426  0.3902
 2026SOL    HW1 8102   3.178   0.723   1.993  1.3994 -1.8027  0.7847
 2026SOL    HW2 8103   3.130   0.606   2.076 -1.2390  0.7137  3.0104
 2026SOL     MW 8104   3.114   0.681   2.034  0.2272 -0.1077  0.7761
 2027SOL     OW 8105   4.895   4.389   1.125  0.2268 -0.6029  0.2302
 2027SOL    HW1 8106   4.949   4.406   1.202 -0.7997 -1.1499  1.0972
 2027SOL    HW2 8107   4.864   4.476   1.097 -0.1789 -0.4843  1.0275
 2027SOL     MW 8108   4.898   4.402   1.131  0.0435 -0.6577  0.4433
 2028SOL     OW 8109   1.957   3.751   3.635  0.0265  0.0081 -0.3103
 2028SOL    HW1 8110   2.000   3.831   3.604  0.4002 -0.5489 -1.2868
 2028SOL    HW2 8111   2.025   3.704   3.683  1.2497 -1.7803 -3.4353
 2028SOL     MW 8112   1.971   3.755   3.637  0.2309 -0.2922 -0.8353
 2029SOL     OW 8113   2.536   0.399   2.993 -0.9672 -0.5803  0.6658
 2029SOL    HW1 8114   2.563   0.396   2.902 -2.0974  0.1006  0.2847
 2029SOL    HW2 8115   2.475   0.327   3.003 -1.8145  0.0988  0.5339
 2029SOL     MW 8116   2.532   0.390   2.983 -1.2204 -0.4062  0.6001
 2030SOL     OW 8117   4.367   1.471   5.102  0.4884  0.5438 -0.0979
 2030SOL    HW1 8118   4.383   1.428   5.185 -0.3248  1.2977  0.4626
 2030SOL    HW2 8119   4.334   1.557   5.125 -1.0322  0.3028 -1.1746
 2030SOL     MW 8120   4.365   1.476   5.115  0.1896  0.6095 -0.1640
 2031SOL     OW 8121   3.351   0.597   0.586 -0.1185 -0.4185 -0.0776
 2031SOL    HW1 8122   3.359   0.503   0.599  2.0915 -0.1936  0.6663
 2031SOL    HW2 8123   3.402   0.636   0.657 -2.2361  1.4177  0.5315
 2031SOL     MW 8124   3.359   0.590   0.597 -0.1066 -0.1547  0.0956
 2032SOL     OW 8125   4.808   5.209   2.792 -0.2002 -0.1170 -0.0252
 2032SOL    HW1 8126   4.864   5.280   2.762 -0.4143 -0.2561 -0.7811
 2032SOL    HW2 8127   4.719   5.245   2.790 -0.2274 -0.1570  0.3636
 2032SOL     MW 8128   4.804   5.223   2.788 -0.2311 -0.1399 -0.0722
 2033SOL     OW 8129   3.515   0.681   5.210 -0.2430 -0.3146  0.6217
 2033SOL    HW1 8130   3.463   0.631   5.148 -0.2086  2.2241 -1.6508
 2033SOL    HW2 8131   3.459   0.756   5.232  1.4779  1.2067  0.0229
 2033SOL     MW 8132   3.501   0.684   5.205 -0.0183  0.2051  0.2541
 2034SOL     OW 8133   1.450   1.913   3.332 -0.0138  0.8340 -0.4934
 2034SOL    HW1 8134   1.455   1.930   3.427  0.2269  0.0967 -0.3720
 2034SOL    HW2 8135   1.533   1.947   3.298 -1.0231  3.2250 -0.8039
 2034SOL     MW 8136   1.462   1.920   3.340 -0.1122  1.0457 -0.5176
 2035SOL     OW 8137   1.451   4.015   5.209 -0.3628 -0.5234 -0.7607
 2035SOL    HW1 8138   1.518   3.972   5.157 -0.7880  0.1693 -1.9390
 2035SOL    HW2 8139   1.368   3.979   5.177 -0.6151 -0.3757 -0.2887
 2035SOL     MW 8140   1.449   4.005   5.198 -0.4495 -0.4158 -0.8511
 2036SOL     OW 8141   0.821   3.368   3.089 -0.9992 -0.2642 -0.3218
 2036SOL    HW1 8142   0.795   3.277   3.102 -1.1369 -0.1768  0.0527
 2036SOL    HW2 8143   0.883   3.366   3.016  0.2298 -0.8784  0.7003
 2036SOL     MW 8144   0.826   3.356   3.082 -0.8595 -0.3317 -0.1430
 2037SOL     OW 8145   1.022   4.935   4.871 -0.4434  0.2759  0.5066
 2037SOL    HW1 8146   0.942   4.962   4.916 -0.5285  1.8180 -0.4937
 2037SOL    HW2 8147   1.067   4.879   4.934 -0.5438  2.3184  2.5449
 2037SOL     MW 8148   1.017   4.932   4.885 -0.4672  0.7348  0.6395
 2038SOL     OW 8149   1.259   0.557   5.369 -0.5004 -0.3429 -0.0285
 2038SOL    HW1 8150   1.322   0.603   5.314  2.1074 -1.2060  2.0209
 2038SOL    HW2 8151   1.260   0.605   5.452 -1.3273 -1.3358  0.5855
 2038SOL     MW 8152   1.267   0.569   5.373 -0.2725 -0.5805  0.3124
 2039SOL     OW 8153   3.078   2.551   2.188 -0.0480  0.5822  0.0548
 2039SOL    HW1 8154   3.146   2.490   2.214 -0.6630  0.2797  1.0199
 2039SOL    HW2 8155   3.049   2.591   2.270 -0.5187  1.2433 -0.4253
 2039SOL     MW 8156   3.083   2.548   2.202 -0.1870  0.6281  0.1169
 2040SOL     OW 8157   4.186   3.854   2.463  0.6277  0.3605  0.3466
 2040SOL    HW1 8158   4.232   3.775   2.436  0.2417  0.2500  0.0002
 2040SOL    HW2 8159   4.197   3.858   2.558  1.6399  0.5213  0.2323
 2040SOL     MW 8160   4.193   3.844   2.472  0.7079  0.3670  0.2876
 2041SOL     OW 8161   0.887   3.453   0.565 -0.8261 -0.6192  0.2280
 2041SOL    HW1 8162   0.943   3.399   0.621 -0.9325  0.9278  1.9210
 2041SOL    HW2 8163   0.867   3.530   0.619 -1.0958  0.8770 -1.8988
 2041SOL     MW 8164   0.892   3.456   0.579 -0.8742 -0.2296  0.1724
 2042SOL     OW 8165   0.299   3.293   5.136 -0.3319 -0.1543  0.0799
 2042SOL    HW1 8166   0.276   3.281   5.043 -1.1586  0.6030  0.1720
 2042SOL    HW2 8167   0.219   3.327   5.176  0.3292  0.4972  0.8671
 2042SOL     MW 8168   0.286   3.296   5.129 -0.3531  0.0260  0.1925
 2043SOL     OW 8169   3.359   1.148   3.649  0.2330  0.0525  0.0092
 2043SOL    HW1 8170   3.390   1.238   3.650  1.6895 -0.4219  0.2340
 2043SOL    HW2 8171   3.333   1.130   3.740  0.6211  0.0347  0.1193
 2043SOL     MW 8172   3.359   1.157   3.661  0.4692 -0.0105  0.0521
 2044SOL     OW 8173   3.957   5.452   0.532  0.4941 -0.3135 -0.3561
 2044SOL    HW1 8174   4.049   5.440   0.508  0.1326 -2.2746 -0.8991
 2044SOL    HW2 8175   3.959   5.477   0.625  1.5305 -1.4844 -0.0517
 2044SOL     MW 8176   3.969   5.454   0.541  0.5805 -0.7144 -0.3867
 2045SOL     OW 8177   1.047   2.630   2.386  0.1401 -0.3216  0.2549
 2045SOL    HW1 8178   1.114   2.563   2.397  0.2425 -0.4547 -1.0188
 2045SOL    HW2 8179   0.964   2.583   2.394  0.2046 -0.7627 -1.2995
 2045SOL     MW 8180   1.045   2.615   2.388  0.1615 -0.3951 -0.1072
 2046SOL     OW 8181   2.679   2.286   4.335 -0.2241  0.1069 -0.1277
 2046SOL    HW1 8182   2.774   2.285   4.325 -0.2600 -0.3596 -0.4655
 2046SOL    HW2 8183   2.651   2.363   4.286  0.0903  1.0721  1.1453
 2046SOL     MW 8184   2.688   2.296   4.328 -0.1885  0.1707 -0.0080
 2047SOL     OW 8185   1.710   5.429   2.646 -0.7292 -0.0942 -0.1666
 2047SOL    HW1 8186   1.798   5.429   2.684 -1.6715  3.3091  2.5744
 2047SOL    HW2 8187   1.720   5.473   2.562 -0.0409  2.5499  1.2026
 2047SOL     MW 8188   1.723   5.434   2.640 -0.7617  0.6799  0.3596
 2048SOL     OW 8189   4.594   1.285   4.837 -0.6248  0.2650  0.0612
 2048SOL    HW1 8190   4.521   1.321   4.787 -2.3951 -0.3419  2.0271
 2048SOL    HW2 8191   4.617   1.353   4.901  0.8745  0.6238 -0.8164
 2048SOL     MW 8192   4.588   1.298   4.839 -0.6595  0.2332  0.2005
 2049SOL     OW 8193   4.154   0.085   1.924 -0.1155 -0.5524 -0.0078
 2049SOL    HW1 8194   4.135   0.175   1.950  0.8303 -0.7301  1.3673
 2049SOL    HW2 8195   4.167   0.038   2.006  1.8390 -1.3882 -0.7463
 2049SOL     MW 8196   4.153   0.091   1.938  0.2558 -0.6822  0.0736
 2050SOL     OW 8197   0.455   2.158   3.986 -0.5239  0.3352 -0.2063
 2050SOL    HW1 8198   0.492   2.153   4.074 -1.2286 -0.3916  0.0548
 2050SOL    HW2 8199   0.461   2.069   3.952 -3.1353 -0.0992  0.3121
 2050SOL     MW 8200   0.461   2.146   3.993 -0.9484  0.1866 -0.1065
 2051SOL     OW 8201   2.693   4.796   0.261 -0.0017 -0.1865 -0.0726
 2051SOL    HW1 8202   2.671   4.801   0.168  2.0121  0.8826 -0.5376
 2051SOL    HW2 8203   2.632   4.731   0.296 -0.8989 -0.5196 -2.0923
 2051SOL     MW 8204   2.682   4.788   0.254  0.1412 -0.0923 -0.3907
 2052SOL     OW 8205   1.125   0.652   2.012 -0.0809 -0.0994 -0.5213
 2052SOL    HW1 8206   1.085   0.736   1.993  1.3099  0.4301 -1.2534
 2052SOL    HW2 8207   1.211   0.673   2.048 -0.1155 -1.2041  0.2824
 2052SOL     MW 8208   1.131   0.665   2.014  0.0927 -0.1731 -0.5121
 2053SOL     OW 8209   0.629   1.814   1.823 -0.0662 -0.0275  0.2007
 2053SOL    HW1 8210   0.600   1.899   1.791 -0.2429  0.2768  1.1312
 2053SOL    HW2 8211   0.715   1.801   1.783  0.5141  1.1697  1.0109
 2053SOL     MW 8212   0.636   1.823   1.814 -0.0145  0.1647  0.4235
 2054SOL     OW 8213   3.451   4.955   3.776  0.3663 -0.1228 -0.0624
 2054SOL    HW1 8214   3.423   5.042   3.805  0.6203 -0.0853  0.0692
 2054SOL    HW2 8215   3.512   4.972   3.704 -2.1341 -0.2289 -2.3953
 2054SOL     MW 8216   3.455   4.968   3.770  0.0787 -0.1316 -0.3442
 2055SOL     OW 8217   5.112   0.293   4.878 -0.4035 -0.1687  0.0644
 2055SOL    HW1 8218   5.117   0.254   4.965 -0.3551  0.4927  0.3647
 2055SOL    HW2 8219   5.202   0.313   4.855 -0.4471 -0.0342  0.0069
 2055SOL     MW 8220   5.124   0.291   4.886 -0.4029 -0.0668  0.0955
 2056SOL     OW 8221   0.501   2.193   1.534 -0.2378 -0.0471 -0.1389
 2056SOL    HW1 8222   0.564   2.135   1.492 -1.4426 -2.2503  0.8896
 2056SOL    HW2 8223   0.431   2.204   1.469  0.4896  1.1876 -0.7350
 2056SOL     MW 8224   0.500   2.187   1.520 -0.2989 -0.1711 -0.0835
 2057SOL     OW 8225   3.379   0.576   1.717 -0.0045 -0.5063 -0.0165
 2057SOL    HW1 8226   3.326   0.523   1.658 -0.4839  0.6349 -0.6234
 2057SOL    HW2 8227   3.429   0.634   1.660  0.1331  0.0508  0.6546
 2057SOL     MW 8228   3.379   0.577   1.703 -0.0482 -0.2889 -0.0083
 2058SOL     OW 8229   2.969   4.547   4.985  0.5165 -0.1893 -0.6776
 2058SOL    HW1 8230   2.879   4.568   4.959  0.2200 -0.8621 -0.2347
 2058SOL    HW2 8231   3.023   4.610   4.937 -0.3538  2.1948  1.2562
 2058SOL     MW 8232   2.965   4.558   4.975  0.3671  0.0298 -0.3733
 2059SOL     OW 8233   4.769   0.356   2.800  0.6907  0.7281  0.0447
 2059SOL    HW1 8234   4.699   0.396   2.851  1.8317  0.3102  2.0190
 2059SOL    HW2 8235   4.819   0.430   2.766 -0.2678  1.0146 -0.8006
 2059SOL     MW 8236   4.767   0.370   2.802  0.7141  0.7113  0.1892
 2060SOL     OW 8237   1.752   4.023   1.538 -0.2200  0.4994 -0.2845
 2060SOL    HW1 8238   1.794   4.105   1.510  1.7065 -0.4068 -0.1583
 2060SOL    HW2 8239   1.770   3.961   1.468 -0.5577 -0.1778  0.2133
 2060SOL     MW 8240   1.760   4.026   1.526 -0.0166  0.2967 -0.2046
 2061SOL     OW 8241   3.341   5.183   0.961 -0.2490 -0.8195 -0.7783
 2061SOL    HW1 8242   3.311   5.257   1.014 -2.9187 -0.5927 -2.4195
 2061SOL    HW2 8243   3.408   5.220   0.904  0.6988 -0.4548  0.5157
 2061SOL     MW 8244   3.346   5.197   0.961 -0.4695 -0.7438 -0.8227
 2062SOL     OW 8245   4.690   3.089   5.148  0.5711  0.0036 -0.2110
 2062SOL    HW1 8246   4.638   3.013   5.122  0.5555 -0.0247 -0.0936
 2062SOL    HW2 8247   4.764   3.053   5.196  0.3672  0.0893  0.1698
 2062SOL     MW 8248   4.693   3.075   5.151  0.5430  0.0110 -0.1472
 2063SOL     OW 8249   0.146   2.532   3.197 -0.1626  0.3099  0.1117
 2063SOL    HW1 8250   0.069   2.493   3.240  0.9154 -1.5556  0.4297
 2063SOL    HW2 8251   0.121   2.539   3.105 -1.0848  0.7183  0.3763
 2063SOL     MW 8252   0.133   2.528   3.191 -0.1426  0.1233  0.1863
 2064SOL     OW 8253   2.381   3.776   2.872  0.1244  0.4905  0.1352
 2064SOL    HW1 8254   2.422   3.740   2.793  0.3314  0.9222  0.0402
 2064SOL    HW2 8255   2.408   3.716   2.942  0.0342  0.1690 -0.1031
 2064SOL     MW 8256   2.390   3.764   2.871  0.1394  0.5046  0.0925
 2065SOL     OW 8257   5.466   1.545   2.130  0.7090  0.8735 -0.1337
 2065SOL    HW1 8258   5.466   1.497   2.047 -0.3659  1.6529 -0.6011
 2065SOL    HW2 8259   5.375   1.574   2.141  0.9136  1.0601  1.1511
 2065SOL     MW 8260   5.454   1.543   2.121  0.5976  0.9972 -0.0291
 2066SOL     OW 8261   1.366   3.235   0.184  0.1985 -0.3773 -0.0607
 2066SOL    HW1 8262   1.339   3.147   0.156 -1.2957  0.1297 -0.3164
 2066SOL    HW2 8263   1.307   3.294   0.138  1.4746  0.8080 -0.2401
 2066SOL     MW 8264   1.355   3.231   0.175  0.1706 -0.1606 -0.1164
 2067SOL     OW 8265   0.061   4.863   3.150  0.2094  0.3092  0.1455
 2067SOL    HW1 8266   0.137   4.842   3.204  0.5506 -1.1302 -0.8394
 2067SOL    HW2 8267  -0.013   4.826   3.198  0.4046 -0.1802  0.0775
 2067SOL     MW 8268   0.061   4.855   3.163  0.2781  0.0623  0.0107
 2068SOL     OW 8269   2.295   1.112   2.818 -0.0578 -0.2291  0.1349
 2068SOL    HW1 8270   2.360   1.064   2.766 -0.1214 -1.2157  0.9489
 2068SOL    HW2 8271   2.319   1.093   2.909 -0.2266  1.1060  0.4717
 2068SOL     MW 8272   2.307   1.103   2.823 -0.0876 -0.1845  0.2822
 2069SOL     OW 8273   1.015   5.418   0.661 -0.0908  0.2921 -0.1862
 2069SOL    HW1 8274   0.931   5.378   0.640 -0.8238  1.9928 -0.6467
 2069SOL    HW2 8275   1.004   5.510   0.639  2.0642  0.4673 -0.7066
 2069SOL     MW 8276   1.003   5.424   0.656  0.0912  0.5322 -0.3118
 2070SOL     OW 8277   4.872   2.036   0.627  0.1338  0.0915 -0.1363
 2070SOL    HW1 8278   4.816   2.096   0.677 -0.1599 -1.5947  1.6579
 2070SOL    HW2 8279   4.859   1.951   0.668  0.6266 -1.2294 -2.5237
 2070SOL     MW 8280   4.863   2.033   0.639  0.1593 -0.2934 -0.2122
 2071SOL     OW 8281   1.836   4.322   4.565  0.0452  0.3438 -0.6469
 2071SOL    HW1 8282   1.802   4.398   4.517 -0.0354  0.3001 -0.6597
 2071SOL    HW2 8283   1.761   4.291   4.617 -0.1163 -0.1454 -1.1667
 2071SOL     MW 8284   1.822   4.328   4.566  0.0142  0.2756 -0.7151
 2072SOL     OW 8285   3.884   1.975   5.367 -0.2825  0.6686 -0.1406
 2072SOL    HW1 8286   3.935   2.046   5.328 -1.5313  0.7955 -1.6850
 2072SOL    HW2 8287   3.949   1.912   5.397  0.8088  1.7653 -0.1275
 2072SOL     MW 8288   3.899   1.976   5.365 -0.3027  0.8253 -0.3366
 2073SOL     OW 8289   1.347   4.590   3.259  0.0561  0.7034  0.2919
 2073SOL    HW1 8290   1.409   4.531   3.302  0.9121 -0.0879 -1.9005
 2073SOL    HW2 8291   1.390   4.675   3.259  0.5123  0.4750  0.0691
 2073SOL     MW 8292   1.360   4.593   3.265  0.2241  0.5729 -0.0173
 2074SOL     OW 8293   3.695   2.657   3.250 -0.2611 -0.4794  0.0949
 2074SOL    HW1 8294   3.759   2.702   3.194 -0.0790 -2.7458 -1.6488
 2074SOL    HW2 8295   3.614   2.706   3.237  0.0616 -0.2655 -1.2831
 2074SOL     MW 8296   3.693   2.669   3.241 -0.1965 -0.7421 -0.3047
 2075SOL     OW 8297   1.166   1.605   3.594 -0.4994 -0.1884  0.5367
 2075SOL    HW1 8298   1.246   1.585   3.642 -0.2023 -1.6698 -0.4868
 2075SOL    HW2 8299   1.103   1.630   3.661  1.1348  2.2841  1.2763
 2075SOL     MW 8300   1.168   1.605   3.609 -0.2522 -0.0615  0.5003
 2076SOL     OW 8301   3.108   5.384   0.646  0.3717 -0.2119 -0.3688
 2076SOL    HW1 8302   3.187   5.428   0.679  0.0587 -1.0381  1.6184
 2076SOL    HW2 8303   3.140   5.327   0.577  1.3715  0.2312 -0.2948
 2076SOL     MW 8304   3.122   5.382   0.642  0.4596 -0.2609 -0.1050
 2077SOL     OW 8305   4.098   0.703   4.487 -0.1434 -0.6013  0.2416
 2077SOL    HW1 8306   4.192   0.698   4.503 -0.2119  1.6856  1.7705
 2077SOL    HW2 8307   4.070   0.611   4.479  1.7562 -1.4890  2.5583
 2077SOL     MW 8308   4.107   0.690   4.488  0.0910 -0.4221  0.7339
 2078SOL     OW 8309   4.951   3.116   2.410 -0.4015  0.1542  0.0520
 2078SOL    HW1 8310   5.041   3.148   2.399 -0.7699  1.1184 -0.1985
 2078SOL    HW2 8311   4.896   3.185   2.373 -1.3126  0.1120  1.2673
 2078SOL     MW 8312   4.956   3.129   2.404 -0.5653  0.2722  0.1755
 2079SOL     OW 8313   0.719   2.441   1.827 -0.5190  0.0255  0.1894
 2079SOL    HW1 8314   0.704   2.433   1.733 -1.5709  1.9396  0.1411
 2079SOL    HW2 8315   0.808   2.477   1.834 -0.5790  0.2379 -0.1017
 2079SOL     MW 8316   0.729   2.445   1.816 -0.6613  0.2977  0.1459
 2080SOL     OW 8317   1.319   3.870   2.101  0.0379 -0.7072  0.3217
 2080SOL    HW1 8318   1.376   3.932   2.055  0.4802 -2.1248 -1.1447
 2080SOL    HW2 8319   1.230   3.902   2.085 -0.0276 -2.2602 -3.5452
 2080SOL     MW 8320   1.315   3.882   2.093  0.0861 -1.0874 -0.3610
 2081SOL     OW 8321   4.746   1.070   4.161  0.1087 -0.2322 -0.2643
 2081SOL    HW1 8322   4.718   0.993   4.210 -1.7829  1.3457  1.2916
 2081SOL    HW2 8323   4.692   1.069   4.083  0.8115 -0.9751 -0.7662
 2081SOL     MW 8324   4.736   1.060   4.157 -0.0435 -0.1253 -0.1294
 2082SOL     OW 8325   5.059   4.889   5.305  0.2086  0.2328 -1.1338
 2082SOL    HW1 8326   5.057   4.983   5.323  0.7320  0.3748 -1.7866
 2082SOL    HW2 8327   5.130   4.855   5.361  0.7246  0.4041 -1.6741
 2082SOL     MW 8328   5.068   4.896   5.314  0.3416  0.2729 -1.2866
 2083SOL     OW 8329   3.878   0.757   0.990 -0.1900 -0.2279  0.0419
 2083SOL    HW1 8330   3.835   0.841   0.975 -1.2096 -0.9978 -1.5526
 2083SOL    HW2 8331   3.917   0.735   0.905  2.7494  0.0327  1.1791
 2083SOL     MW 8332   3.878   0.765   0.977  0.0558 -0.2931 -0.0166
 2084SOL     OW 8333   3.756   3.420   0.149 -0.1853 -0.2096  0.0330
 2084SOL    HW1 8334   3.837   3.458   0.183 -0.6758 -0.6365  1.8000
 2084SOL    HW2 8335   3.776   3.327   0.140 -0.6028 -0.4003  0.9541
 2084SOL     MW 8336   3.769   3.413   0.152 -0.3015 -0.2886  0.3771
 2085SOL     OW 8337   1.963   4.127   4.405 -0.6362  0.0204  0.3751
 2085SOL    HW1 8338   1.925   4.190   4.465 -2.0001 -0.4776  0.0679
 2085SOL    HW2 8339   2.045   4.167   4.376  0.0011  0.3241  2.4477
 2085SOL     MW 8340   1.969   4.140   4.409 -0.7292 -0.0044  0.6011
 2086SOL     OW 8341   4.544   4.074   2.505 -0.3689 -0.3292 -0.2263
 2086SOL    HW1 8342   4.451   4.073   2.486 -0.0768 -1.3303 -1.7376
 2086SOL    HW2 8343   4.580   4.140   2.445  0.2258 -1.7326 -1.4495
 2086SOL     MW 8344   4.537   4.083   2.495 -0.2554 -0.6370 -0.5763
 2087SOL     OW 8345   3.966   4.849   3.667  0.5087 -0.1424  0.2388
 2087SOL    HW1 8346   3.909   4.774   3.645 -0.3412  0.9383 -1.4608
 2087SOL    HW2 8347   3.972   4.847   3.762 -1.5619 -0.9207  0.4062
 2087SOL     MW 8348   3.959   4.839   3.676  0.1348 -0.1037  0.0427
 2088SOL     OW 8349   2.991   5.491   4.725 -0.9748 -0.1302  0.1884
 2088SOL    HW1 8350   2.997   5.429   4.652 -0.5835 -0.6004  0.6059
 2088SOL    HW2 8351   2.912   5.464   4.773 -1.6845  0.6827 -0.5035
 2088SOL     MW 8352   2.982   5.479   4.722 -1.0155 -0.0863  0.1533
 2089SOL     OW 8353   4.836   4.967   1.572 -0.2754 -0.5275 -0.1038
 2089SOL    HW1 8354   4.898   4.950   1.643 -0.4355  0.5517  0.3050
 2089SOL    HW2 8355   4.813   5.059   1.581 -1.5894 -0.7861 -0.5298
 2089SOL     MW 8356   4.841   4.976   1.582 -0.4641 -0.4225 -0.1060
 2090SOL     OW 8357   3.230   4.663   1.495 -0.4194 -0.4411 -0.4667
 2090SOL    HW1 8358   3.208   4.609   1.419  1.4851  1.3098 -2.3981
 2090SOL    HW2 8359   3.149   4.708   1.517 -1.5756 -2.6440  0.0595
 2090SOL     MW 8360   3.217   4.662   1.488 -0.3236 -0.4990 -0.6466
 2091SOL     OW 8361   2.374   3.202   3.991 -0.3200 -0.2603 -0.3897
 2091SOL    HW1 8362   2.281   3.198   4.013 -0.2936  0.1938 -0.1749
 2091SOL    HW2 8363   2.376   3.220   3.897 -0.4839  1.5886 -0.0856
 2091SOL     MW 8364   2.362   3.204   3.982 -0.3376  0.0345 -0.3233
 2092SOL     OW 8365   4.199   1.783   3.567 -0.5018  0.2361  0.1841
 2092SOL    HW1 8366   4.226   1.778   3.659 -0.0024 -0.0410  0.0286
 2092SOL    HW2 8367   4.274   1.748   3.518 -0.9518 -0.0729 -0.2967
 2092SOL     MW 8368   4.212   1.778   3.572 -0.4955  0.1611  0.1026
 2093SOL     OW 8369   0.682   4.701   1.407  0.0156 -0.2644 -0.1097
 2093SOL    HW1 8370   0.749   4.725   1.342 -0.1468  0.5159  0.0080
 2093SOL    HW2 8371   0.648   4.785   1.439 -2.1743 -0.6015 -1.3342
 2093SOL     MW 8372   0.686   4.715   1.402 -0.2856 -0.2077 -0.2514
 2094SOL     OW 8373   5.413   0.404   2.021  0.1338  0.0220 -0.0512
 2094SOL    HW1 8374   5.487   0.458   1.992  1.1093 -1.5292 -0.6134
 2094SOL    HW2 8375   5.428   0.319   1.978 -2.3038 -0.1753 -0.6202
 2094SOL     MW 8376   5.425   0.400   2.012 -0.0534 -0.2018 -0.1960
 2095SOL     OW 8377   2.314   0.006   3.664  0.2580  0.5762 -0.3319
 2095SOL    HW1 8378   2.397  -0.028   3.695  0.7113  1.5335 -0.4598
 2095SOL    HW2 8379   2.338   0.080   3.607 -0.5122 -0.9824 -2.8683
 2095SOL     MW 8380   2.327   0.011   3.661  0.2175  0.4992 -0.6730
 2096SOL     OW 8381   4.203   1.070   4.212  0.3619 -0.3379 -0.3279
 2096SOL    HW1 8382   4.287   1.101   4.247 -1.0055  1.9118  1.2163
 2096SOL    HW2 8383   4.147   1.062   4.289 -1.4180  0.1505 -1.5330
 2096SOL     MW 8384   4.207   1.073   4.227 -0.0410  0.0126 -0.2845
 2097SOL     OW 8385   0.253   0.519   2.063 -0.1249  0.0602  0.1653
 2097SOL    HW1 8386   0.186   0.542   2.128 -0.9441 -1.8605  0.0703
 2097SOL    HW2 8387   0.306   0.452   2.106 -0.2432 -0.7227 -0.8936
 2097SOL     MW 8388   0.251   0.514   2.077 -0.2449 -0.2859  0.0176
 2098SOL     OW 8389   5.042   1.471   0.191 -0.6068  0.3811  0.0018
 2098SOL    HW1 8390   5.116   1.455   0.134 -0.5346 -0.0873  0.2228
 2098SOL    HW2 8391   5.047   1.402   0.258 -0.0278  1.5848  1.2533
 2098SOL     MW 8392   5.052   1.460   0.193 -0.5235  0.4752  0.1903
 2099SOL     OW 8393   3.838   5.135   1.493 -0.1310  0.1654  0.4918
 2099SOL    HW1 8394   3.790   5.067   1.446  0.8318  0.0883 -0.4192
 2099SOL    HW2 8395   3.783   5.155   1.568 -0.5947 -1.3950  0.6135
 2099SOL     MW 8396   3.825   5.129   1.497 -0.0671 -0.0443  0.3908
 2100SOL     OW 8397   2.777   3.290   1.040 -0.3923 -0.5058  0.2782
 2100SOL    HW1 8398   2.717   3.352   1.082 -0.0141 -0.7091  1.1388
 2100SOL    HW2 8399   2.864   3.323   1.061 -0.1620  0.0373 -1.3366
 2100SOL     MW 8400   2.780   3.302   1.048 -0.3144 -0.4623  0.1817
 2101SOL     OW 8401   2.514   4.087   3.289 -0.4118 -0.0218 -0.0758
 2101SOL    HW1 8402   2.590   4.030   3.294 -0.0338  0.5804  1.4210
 2101SOL    HW2 8403   2.444   4.039   3.333 -0.6060 -0.1105 -0.4745
 2101SOL     MW 8404   2.515   4.074   3.295 -0.3883  0.0439  0.0647
 2102SOL     OW 8405   5.044   3.138   2.913 -0.1327 -0.4925  0.2177
 2102SOL    HW1 8406   5.052   3.087   2.833 -1.3916  0.5965 -0.6324
 2102SOL    HW2 8407   5.134   3.167   2.932  0.1809 -0.7967 -0.7700
 2102SOL     MW 8408   5.057   3.135   2.905 -0.2537 -0.3920 -0.0176
 2103SOL     OW 8409   0.953   0.762   0.186 -0.5565 -0.2480  0.0924
 2103SOL    HW1 8410   0.926   0.837   0.238 -0.9975 -0.7710  0.6417
 2103SOL    HW2 8411   0.955   0.689   0.249  1.3112 -0.4138 -0.0970
 2103SOL     MW 8412   0.950   0.762   0.201 -0.3739 -0.3362  0.1384
 2104SOL     OW 8413   1.189   2.911   1.855 -0.0116 -0.2171 -0.1723
 2104SOL    HW1 8414   1.111   2.879   1.808 -1.5140  0.5110  1.6997
 2104SOL    HW2 8415   1.201   3.000   1.824 -0.7580  0.1245  0.4776
 2104SOL     MW 8416   1.181   2.918   1.845 -0.2995 -0.0802  0.1505
 2105SOL     OW 8417   0.316   4.706   1.888  0.4278  0.0344  0.1285
 2105SOL    HW1 8418   0.310   4.762   1.965  1.1788 -0.0295  0.2449
 2105SOL    HW2 8419   0.341   4.766   1.817 -0.6925  0.1672 -0.1650
 2105SOL     MW 8420   0.319   4.721   1.889  0.3805  0.0432  0.1058
 2106SOL     OW 8421   2.095   2.950   3.956 -0.0964  0.3742 -0.0210
 2106SOL    HW1 8422   2.110   2.898   4.035 -1.9006  2.0005  1.5119
 2106SOL    HW2 8423   2.180   2.952   3.912  0.3249 -2.9046  0.3323
 2106SOL     MW 8424   2.108   2.943   3.961 -0.2734  0.1626  0.2205
 2107SOL     OW 8425   2.235   5.469   0.685  0.1004  0.0212  0.2832
 2107SOL    HW1 8426   2.245   5.446   0.592 -2.5915 -1.3619  0.2607
 2107SOL    HW2 8427   2.252   5.387   0.732  0.2808  0.4291  0.9405
 2107SOL     MW 8428   2.239   5.455   0.679 -0.2211 -0.1036  0.3644
 2108SOL     OW 8429   1.825   0.673   1.598 -0.0224 -0.0489  0.1006
 2108SOL    HW1 8430   1.861   0.757   1.628  0.1924 -0.5329  1.2404
 2108SOL    HW2 8431   1.739   0.696   1.561  0.9008  0.9451 -1.5102
 2108SOL     MW 8432   1.818   0.687   1.597  0.1233  0.0164  0.0403
 2109SOL     OW 8433   3.642   3.457   2.087  0.6608 -0.1977 -0.1826
 2109SOL    HW1 8434   3.659   3.515   2.161 -1.0182  1.5864 -1.0908
 2109SOL    HW2 8435   3.678   3.503   2.011  0.5614 -1.0197 -0.7467
 2109SOL     MW 8436   3.649   3.470   2.087  0.4332 -0.0745 -0.3711
 2110SOL     OW 8437   2.257   3.722   1.160  0.4046 -0.0655 -0.7134
 2110SOL    HW1 8438   2.240   3.674   1.241 -1.5135  1.0697 -0.3819
 2110SOL    HW2 8439   2.296   3.657   1.101  2.5833 -0.7161  1.3333
 2110SOL     MW 8440   2.260   3.707   1.162  0.4380 -0.0035 -0.4089
 2111SOL     OW 8441   0.727   0.293   0.790 -0.4487 -0.6214 -0.0351
 2111SOL    HW1 8442   0.636   0.312   0.812 -0.5279  1.5060 -1.8572
 2111SOL    HW2 8443   0.779   0.353   0.844 -0.1260 -1.4655  0.6189
 2111SOL     MW 8444   0.722   0.303   0.799 -0.4175 -0.4571 -0.1846
 2112SOL     OW 8445   2.291   2.830   4.911  0.3916  0.2853  0.0332
 2112SOL    HW1 8446   2.226   2.779   4.864 -1.0582  1.6848  0.4176
 2112SOL    HW2 8447   2.344   2.871   4.843  0.9332 -0.8827 -0.2822
 2112SOL     MW 8448   2.290   2.829   4.896  0.2754  0.3150  0.0420
 2113SOL     OW 8449   0.450   3.571   0.764 -0.0100  0.0568 -0.3471
 2113SOL    HW1 8450   0.436   3.511   0.691 -1.9368 -1.6345  1.3094
 2113SOL    HW2 8451   0.479   3.516   0.836 -0.7047  1.2706  0.9107
 2113SOL     MW 8452   0.452   3.556   0.764 -0.3456 -0.0043  0.0260
 2114SOL     OW 8453   3.624   2.302   3.524  0.4059  0.0469 -0.5397
 2114SOL    HW1 8454   3.578   2.347   3.595  0.4899 -1.2770  0.3689
 2114SOL    HW2 8455   3.704   2.354   3.511  0.3531  0.3468  0.2760
 2114SOL     MW 8456   3.628   2.315   3.531  0.4099 -0.0842 -0.3190
 2115SOL     OW 8457   0.920   0.863   3.789 -0.2751 -0.6299 -0.0560
 2115SOL    HW1 8458   0.826   0.857   3.774 -0.0728 -2.1155 -0.8540
 2115SOL    HW2 8459   0.943   0.782   3.833  0.7828 -0.7032 -0.7091
 2115SOL     MW 8460   0.911   0.852   3.792 -0.1138 -0.8294 -0.2418
 2116SOL     OW 8461   4.653   0.520   3.015  0.4948  0.4705 -0.2645
 2116SOL    HW1 8462   4.640   0.480   3.101  2.1155  0.6868  0.1241
 2116SOL    HW2 8463   4.708   0.597   3.033  1.2119  0.2815 -1.5184
 2116SOL     MW 8464   4.659   0.525   3.029  0.7941  0.4740 -0.3752
 2117SOL     OW 8465   3.167   3.104   5.162  0.0881  0.3614 -0.2100
 2117SOL    HW1 8466   3.092   3.149   5.201 -0.3295 -1.6871  1.5844
 2117SOL    HW2 8467   3.240   3.126   5.220  0.1488 -0.2085 -0.0632
 2117SOL     MW 8468   3.167   3.113   5.175  0.0424  0.0262  0.0385
 2118SOL     OW 8469   1.671   4.810   0.212 -0.1923 -0.5881 -0.3459
 2118SOL    HW1 8470   1.683   4.725   0.254 -0.5175 -0.2928  0.3489
 2118SOL    HW2 8471   1.577   4.825   0.214 -0.0001  0.6424  1.2737
 2118SOL     MW 8472   1.661   4.801   0.217 -0.2093 -0.3928 -0.0497
 2119SOL     OW 8473   3.550   2.965   3.770  0.2696 -0.0643  0.1626
 2119SOL    HW1 8474   3.517   2.878   3.790 -1.4753  0.1992 -1.3031
 2119SOL    HW2 8475   3.628   2.950   3.717  0.9902 -0.6932  1.3465
 2119SOL     MW 8476   3.556   2.952   3.766  0.1384 -0.1111  0.1265
 2120SOL     OW 8477   2.439   2.907   4.702 -0.0591  0.2332  0.3058
 2120SOL    HW1 8478   2.416   2.858   4.623 -0.5854  0.4551  0.3111
 2120SOL    HW2 8479   2.534   2.908   4.704 -0.0343  0.6536 -0.6003
 2120SOL     MW 8480   2.448   2.901   4.692 -0.1233  0.3154  0.1905
 2121SOL     OW 8481   2.202   2.341   0.920 -0.1207 -0.0370 -0.6079
 2121SOL    HW1 8482   2.221   2.252   0.889 -0.7844 -0.3656 -0.0862
 2121SOL    HW2 8483   2.274   2.394   0.885  0.4636 -0.8355 -0.6489
 2121SOL     MW 8484   2.214   2.336   0.912 -0.1309 -0.1812 -0.5464
 2122SOL     OW 8485   4.249   5.043   5.181  0.4503 -0.0769 -0.3740
 2122SOL    HW1 8486   4.216   4.986   5.252  0.4539 -0.2756 -0.5313
 2122SOL    HW2 8487   4.185   5.114   5.176 -0.1004 -0.5943 -0.8476
 2122SOL     MW 8488   4.236   5.045   5.190  0.3802 -0.1686 -0.4548
 2123SOL     OW 8489   0.570   2.748   2.415  0.6297  0.2306  0.0103
 2123SOL    HW1 8490   0.521   2.755   2.334 -0.4761 -2.3002  0.3585
 2123SOL    HW2 8491   0.631   2.676   2.400  0.3193 -0.3655  1.4232
 2123SOL     MW 8492   0.572   2.740   2.403  0.4484 -0.1697  0.2357
 2124SOL     OW 8493   2.951   0.371   3.359  0.2129 -0.2511  0.3099
 2124SOL    HW1 8494   2.924   0.457   3.390  0.1337  0.1565 -0.8347
 2124SOL    HW2 8495   3.042   0.382   3.334 -0.2415 -0.0262 -1.3908
 2124SOL     MW 8496   2.959   0.384   3.360  0.1446 -0.1701 -0.0543
 2125SOL     OW 8497   3.234   0.326   2.870 -0.1735 -0.0450  0.2093
 2125SOL    HW1 8498   3.262   0.327   2.778 -0.4161  0.8488  0.1388
 2125SOL    HW2 8499   3.315   0.331   2.920 -0.0555 -0.2661  0.0448
 2125SOL     MW 8500   3.248   0.327   2.864 -0.1894  0.0411  0.1792
 2126SOL     OW 8501   0.344   4.211   3.941  0.6851 -0.2904  0.2946
 2126SOL    HW1 8502   0.296   4.171   3.868 -0.4076  0.1982  0.7194
 2126SOL    HW2 8503   0.318   4.304   3.939 -1.6382 -0.7340  2.9511
 2126SOL     MW 8504   0.334   4.218   3.932  0.2478 -0.2846  0.6891
 2127SOL     OW 8505   0.739   2.482   4.854 -0.0279 -0.2702 -0.0479
 2127SOL    HW1 8506   0.644   2.473   4.854 -0.2648  1.6360  1.5709
 2127SOL    HW2 8507   0.771   2.396   4.826 -2.1893 -1.2279  0.2213
 2127SOL     MW 8508   0.731   2.470   4.850 -0.3349 -0.1488  0.1938
 2128SOL     OW 8509   3.662   4.416   1.301  0.3894  0.2824  0.6684
 2128SOL    HW1 8510   3.711   4.358   1.242 -1.6546 -1.4338  0.5674
 2128SOL    HW2 8511   3.666   4.373   1.386 -1.2661 -0.1183  0.5638
 2128SOL     MW 8512   3.669   4.403   1.304 -0.0842  0.0114  0.6421
 2129SOL     OW 8513   5.059   4.820   4.148  0.0184 -0.1558  0.2572
 2129SOL    HW1 8514   4.982   4.864   4.111  0.5142 -1.2331 -2.2185
 2129SOL    HW2 8515   5.133   4.870   4.114  0.4944 -0.7588  0.4077
 2129SOL     MW 8516   5.059   4.832   4.139  0.1428 -0.3709 -0.0404
 2130SOL     OW 8517   1.047   0.641   3.268 -0.3098  0.2371  0.4300
 2130SOL    HW1 8518   0.986   0.606   3.203 -0.2884  0.8127  0.0941
 2130SOL    HW2 8519   1.097   0.565   3.298  2.0471  0.3696 -2.6979
 2130SOL     MW 8520   1.045   0.627   3.264 -0.0053  0.3278 -0.0134
 2131SOL     OW 8521   0.484   3.537   3.756 -0.4662  0.3417  0.7817
 2131SOL    HW1 8522   0.389   3.532   3.742 -0.2517  0.7796 -1.2457
 2131SOL    HW2 8523   0.503   3.631   3.758 -0.0967  0.2587  1.4431
 2131SOL     MW 8524   0.474   3.548   3.754 -0.3915  0.3871  0.6068
 2132SOL     OW 8525   2.274   5.294   2.754 -0.0563 -0.3204  0.8995
 2132SOL    HW1 8526   2.334   5.300   2.680  0.6963 -1.6096  1.3820
 2132SOL    HW2 8527   2.193   5.335   2.723  0.4754 -0.2045 -0.3829
 2132SOL     MW 8528   2.271   5.300   2.741  0.1081 -0.4706  0.7971
 2133SOL     OW 8529   2.907   1.711   4.458 -0.0807  0.0553 -0.3471
 2133SOL    HW1 8530   2.847   1.640   4.438 -1.1881  0.8352  0.0937
 2133SOL    HW2 8531   2.854   1.775   4.505  1.7011 -0.3783  2.4817
 2133SOL     MW 8532   2.893   1.710   4.461  0.0056  0.0996  0.0715
 2134SOL     OW 8533   1.035   2.894   2.569 -0.3087  0.5385  0.5157
 2134SOL    HW1 8534   1.114   2.947   2.564  0.7609 -0.9923  0.5093
 2134SOL    HW2 8535   1.048   2.824   2.505 -1.8928  0.5366  0.1624
 2134SOL     MW 8536   1.047   2.892   2.560 -0.3745  0.3423  0.4696
 2135SOL     OW 8537   3.325   3.728   4.050 -0.4667  0.3620  0.4801
 2135SOL    HW1 8538   3.259   3.784   4.090  1.0457  0.6494  2.7265
 2135SOL    HW2 8539   3.395   3.787   4.024  0.0262 -0.2045  0.4896
 2135SOL     MW 8540   3.325   3.743   4.051 -0.2100  0.3263  0.7689
 2136SOL     OW 8541   4.507   3.723   1.745  0.3970  0.4207 -0.4015
 2136SOL    HW1 8542   4.595   3.758   1.759  0.3397  0.1715  0.6545
 2136SOL    HW2 8543   4.510   3.635   1.782 -0.5871  0.8028  0.6388
 2136SOL     MW 8544   4.519   3.716   1.751  0.2637  0.4377 -0.1331
 2137SOL     OW 8545   1.666   0.937   3.415 -0.3042 -0.3280 -0.2594
 2137SOL    HW1 8546   1.646   1.007   3.476  0.4875 -0.1485 -0.1964
 2137SOL    HW2 8547   1.581   0.910   3.380 -0.7634 -0.4137  0.8899
 2137SOL     MW 8548   1.652   0.942   3.418 -0.2616 -0.3160 -0.1042
 2138SOL     OW 8549   3.200   2.933   4.099  0.1471  0.1166 -0.3531
 2138SOL    HW1 8550   3.186   3.017   4.056 -1.0500  0.1968  0.1470
 2138SOL    HW2 8551   3.282   2.945   4.148 -1.0798  1.7916  1.4738
 2138SOL     MW 8552   3.209   2.945   4.100 -0.1632  0.3413 -0.0552
 2139SOL     OW 8553   0.986   3.494   3.671  0.1205 -0.2349 -0.3721
 2139SOL    HW1 8554   0.955   3.573   3.715  0.2468  0.1673 -0.9843
 2139SOL    HW2 8555   1.077   3.486   3.696  0.4643  0.5347 -1.2912
 2139SOL     MW 8556   0.993   3.503   3.680  0.1807 -0.0849 -0.5681
 2140SOL     OW 8557   3.997   3.536   1.632  0.8340  0.5612 -0.1165
 2140SOL    HW1 8558   4.004   3.491   1.548  1.0627 -0.2720  0.3398
 2140SOL    HW2 8559   4.074   3.594   1.635  0.4321  1.1525 -0.7892
 2140SOL     MW 8560   4.008   3.538   1.621  0.8119  0.5302 -0.1442
 2141SOL     OW 8561   0.420   2.901   5.324 -0.2036 -0.1918 -0.1807
 2141SOL    HW1 8562   0.494   2.946   5.284 -0.0368  1.6913  2.0426
 2141SOL    HW2 8563   0.344   2.956   5.304 -0.3239  0.0543  0.8509
 2141SOL     MW 8564   0.420   2.914   5.317 -0.1976  0.0807  0.2359
 2142SOL     OW 8565  -0.025   3.788   1.655 -0.0389  0.3968  0.0379
 2142SOL    HW1 8566  -0.022   3.866   1.600  0.0724  0.2319 -0.1964
 2142SOL    HW2 8567   0.066   3.759   1.661 -0.0607  0.3704  0.2458
 2142SOL     MW 8568  -0.013   3.794   1.649 -0.0275  0.3723  0.0345
 2143SOL     OW 8569   4.246   1.530   0.998 -0.1657  0.2285 -0.6417
 2143SOL    HW1 8570   4.203   1.469   0.937  1.9989 -1.5200 -0.5344
 2143SOL    HW2 8571   4.335   1.497   1.005 -0.1148  0.7821  2.9304
 2143SOL     MW 8572   4.252   1.518   0.991  0.1179  0.0755 -0.1707
 2144SOL     OW 8573   4.748   0.049   0.215  0.2930 -0.0617 -0.2931
 2144SOL    HW1 8574   4.673   0.012   0.168  0.7268  1.4729 -2.3296
 2144SOL    HW2 8575   4.758   0.137   0.179  4.2535 -0.8534 -1.5957
 2144SOL     MW 8576   4.740   0.055   0.204  0.8556  0.0334 -0.7206
 2145SOL     OW 8577   3.564   2.444   1.929  0.6495  0.4812 -0.1067
 2145SOL    HW1 8578   3.616   2.441   2.009  0.3401  0.9891  0.1230
 2145SOL    HW2 8579   3.484   2.395   1.950  1.7615 -1.8668 -1.0364
 2145SOL     MW 8580   3.560   2.438   1.942  0.7522  0.2457 -0.1963
 2146SOL     OW 8581   0.719   0.826   3.143 -0.4955  0.4922  0.3360
 2146SOL    HW1 8582   0.685   0.806   3.230 -0.2472 -1.1573  0.0744
 2146SOL    HW2 8583   0.786   0.760   3.127  0.4139  1.5996 -0.5665
 2146SOL     MW 8584   0.723   0.815   3.152 -0.3473  0.4228  0.1870
 2147SOL     OW 8585   2.530   0.348   1.330  0.6242 -0.6025  0.2976
 2147SOL    HW1 8586   2.620   0.380   1.320  0.3564  0.4551  1.0454
 2147SOL    HW2 8587   2.478   0.428   1.343 -0.6502 -1.0602 -1.5914
 2147SOL     MW 8588   2.535   0.362   1.330  0.4268 -0.5257  0.1515
 2148SOL     OW 8589   2.158   2.201   2.547 -0.4721 -0.0439 -0.5960
 2148SOL    HW1 8590   2.246   2.231   2.572 -0.6059  0.0019 -0.1635
 2148SOL    HW2 8591   2.124   2.272   2.492  0.2238 -0.6145 -1.7944
 2148SOL     MW 8592   2.165   2.214   2.543 -0.4002 -0.1111 -0.6940
 2149SOL     OW 8593   3.627   2.711   1.949  0.2367 -0.3384  0.2297
 2149SOL    HW1 8594   3.684   2.732   2.023 -0.9686 -0.6824  1.2904
 2149SOL    HW2 8595   3.606   2.618   1.961  1.3229 -0.8636 -1.4829
 2149SOL     MW 8596   3.632   2.702   1.960  0.2214 -0.4497  0.1463
 2150SOL     OW 8597   4.899   4.754   2.784 -0.4246 -0.5889 -0.0733
 2150SOL    HW1 8598   4.876   4.663   2.765 -0.8825 -0.2184 -1.3406
 2150SOL    HW2 8599   4.943   4.749   2.869  2.2698 -2.4042 -1.4208
 2150SOL     MW 8600   4.902   4.742   2.793 -0.1383 -0.7739 -0.4080
 2151SOL     OW 8601   0.860   4.973   1.675  0.0834  0.2682 -0.0468
 2151SOL    HW1 8602   0.935   4.975   1.615  0.4792 -2.4829  0.2198
 2151SOL    HW2 8603   0.891   5.017   1.754  0.5399  1.3374 -0.7879
 2151SOL     MW 8604   0.874   4.979   1.677  0.1925  0.0529 -0.1075
 2152SOL     OW 8605   2.509   1.381   1.783 -0.3573 -0.2991  0.7326
 2152SOL    HW1 8606   2.556   1.333   1.714 -2.6499 -2.0476  0.2287
 2152SOL    HW2 8607   2.495   1.468   1.746 -0.3836 -0.7958 -0.4861
 2152SOL     MW 8608   2.513   1.386   1.769 -0.6542 -0.5865  0.5121
 2153SOL     OW 8609   4.288   3.636   4.337 -0.2790  0.1140 -0.0777
 2153SOL    HW1 8610   4.344   3.702   4.297 -1.6636  0.7579 -1.0620
 2153SOL    HW2 8611   4.276   3.570   4.268 -0.2912 -0.2904  0.3077
 2153SOL     MW 8612   4.294   3.636   4.323 -0.4578  0.1446 -0.1543
 2154SOL     OW 8613   1.606   5.364   4.926 -0.0329 -0.1413  0.5148
 2154SOL    HW1 8614   1.519   5.394   4.900 -0.2565 -0.6074  0.7050
 2154SOL    HW2 8615   1.643   5.436   4.977  1.0169  1.4530 -2.2650
 2154SOL     MW 8616   1.600   5.377   4.929  0.0729  0.0031  0.1833
 2155SOL     OW 8617   1.519   1.510   0.574 -0.0027  0.5340  0.5393
 2155SOL    HW1 8618   1.450   1.566   0.610  0.9249  1.4300  0.9542
 2155SOL    HW2 8619   1.593   1.522   0.633  0.6615 -0.0707 -0.1560
 2155SOL     MW 8620   1.520   1.519   0.586  0.2011  0.5713  0.5034
 2156SOL     OW 8621   0.305   1.454   3.105 -0.5149  0.1286  0.1151
 2156SOL    HW1 8622   0.384   1.407   3.133  0.4452  1.5498 -0.1177
 2156SOL    HW2 8623   0.318   1.469   3.011 -0.3646  1.6342  0.3543
 2156SOL     MW 8624   0.317   1.450   3.097 -0.3728  0.5033  0.1159
 2157SOL     OW 8625   1.540   3.322   1.106 -0.3877 -0.3572 -0.1076
 2157SOL    HW1 8626   1.511   3.402   1.062  3.0649  2.0023  1.4656
 2157SOL    HW2 8627   1.479   3.310   1.179  0.1068  2.0616  0.7790
 2157SOL     MW 8628   1.528   3.331   1.110  0.1176  0.2545  0.2073
 2158SOL     OW 8629   0.813   0.882   3.454  0.6220 -0.4356  0.6713
 2158SOL    HW1 8630   0.858   0.879   3.370 -0.3416 -0.0675  0.1212
 2158SOL    HW2 8631   0.866   0.826   3.512  0.6500 -1.6800 -0.4977
 2158SOL     MW 8632   0.826   0.874   3.451  0.5022 -0.5477  0.4513
 2159SOL     OW 8633   4.077   0.077   1.161 -0.7541 -0.0913  0.5943
 2159SOL    HW1 8634   4.124   0.113   1.085  0.8893 -2.0175  0.6113
 2159SOL    HW2 8635   4.075   0.149   1.224  2.7038  0.0182  0.7718
 2159SOL     MW 8636   4.083   0.091   1.159 -0.1011 -0.3238  0.6192
 2160SOL     OW 8637   3.947   0.887   2.248  0.1201  1.2847  0.0143
 2160SOL    HW1 8638   4.024   0.865   2.196 -0.8465  1.7120 -1.6888
 2160SOL    HW2 8639   3.911   0.803   2.274  0.2852  1.0294 -0.5598
 2160SOL     MW 8640   3.952   0.874   2.244  0.0175  1.3067 -0.2772
 2161SOL     OW 8641   3.146   4.157   1.656 -0.3788 -0.0357 -0.0872
 2161SOL    HW1 8642   3.207   4.188   1.589 -0.7409  0.8844 -0.0001
 2161SOL    HW2 8643   3.065   4.205   1.640 -1.1886 -1.4156 -0.3433
 2161SOL     MW 8644   3.144   4.167   1.646 -0.5288 -0.0946 -0.1088
 2162SOL     OW 8645   0.771   4.710   0.842  0.2236  0.5361  0.1749
 2162SOL    HW1 8646   0.816   4.729   0.759  2.2319  1.3180  1.3712
 2162SOL    HW2 8647   0.722   4.790   0.861 -0.8231  0.0878 -0.5999
 2162SOL     MW 8648   0.771   4.723   0.834  0.3467  0.5788  0.2289
 2163SOL     OW 8649   0.351   3.882   2.012  0.2266  0.0658 -0.1186
 2163SOL    HW1 8650   0.355   3.951   1.946 -1.2964 -1.0894 -1.5188
 2163SOL    HW2 8651   0.419   3.820   1.985 -1.1737 -0.9903 -1.3835
 2163SOL     MW 8652   0.360   3.883   2.000 -0.1476 -0.2173 -0.4598
 2164SOL     OW 8653   1.715   2.187   4.891 -0.1146  0.9590  0.9066
 2164SOL    HW1 8654   1.770   2.112   4.870 -1.9241 -1.1069  2.9938
 2164SOL    HW2 8655   1.661   2.200   4.813  0.3860  0.2563  0.4326
 2164SOL     MW 8656   1.715   2.179   4.878 -0.2822  0.6046  1.1131
 2165SOL     OW 8657   2.608   4.002   4.100 -0.3422 -0.1457 -0.0472
 2165SOL    HW1 8658   2.536   3.957   4.056 -0.2445  0.1547 -0.5164
 2165SOL    HW2 8659   2.577   4.091   4.114 -0.0799 -0.0271 -0.2082
 2165SOL     MW 8660   2.595   4.008   4.096 -0.2961 -0.0921 -0.1279
 2166SOL     OW 8661   2.950   2.283   1.154  0.3644 -0.0814  0.3089
 2166SOL    HW1 8662   2.919   2.340   1.225  0.5629 -0.4502  0.6944
 2166SOL    HW2 8663   2.893   2.206   1.158 -1.0041  0.7825 -1.2713
 2166SOL     MW 8664   2.939   2.280   1.163  0.2146 -0.0180  0.1559
 2167SOL     OW 8665   2.454   0.427   2.008  0.5308  0.2406 -0.1807
 2167SOL    HW1 8666   2.422   0.504   2.055  1.0599  0.4935 -0.2310
 2167SOL    HW2 8667   2.549   0.430   2.018  0.4697 -1.3949  1.3771
 2167SOL     MW 8668   2.462   0.437   2.015  0.5907  0.0636  0.0123
 2168SOL     OW 8669   4.094   4.787   2.837  0.2289 -0.0241 -0.3961
 2168SOL    HW1 8670   4.158   4.835   2.891 -0.7227  1.1112 -0.2322
 2168SOL    HW2 8671   4.141   4.709   2.808  0.6461 -0.9452  2.4557
 2168SOL     MW 8672   4.108   4.783   2.840  0.1605  0.0033 -0.0101
 2169SOL     OW 8673   3.488   1.139   0.711  0.4031 -0.5920  0.7237
 2169SOL    HW1 8674   3.510   1.203   0.643  0.0052 -0.2271  0.9325
 2169SOL    HW2 8675   3.476   1.057   0.664 -0.3309 -0.2476  0.2863
 2169SOL     MW 8676   3.489   1.137   0.697  0.2582 -0.5012  0.6944
 2170SOL     OW 8677   3.668   4.986   0.566 -0.2998 -0.0133 -0.2199
 2170SOL    HW1 8678   3.646   4.986   0.473  1.7105  0.0488 -0.7297
 2170SOL    HW2 8679   3.715   5.068   0.580 -0.6020 -0.0096  0.8684
 2170SOL     MW 8680   3.671   4.996   0.556 -0.0811 -0.0049 -0.1459
 2171SOL     OW 8681   1.562   0.542   3.224 -0.1260 -0.3069 -0.0564
 2171SOL    HW1 8682   1.520   0.577   3.303 -1.2555 -0.3298 -0.6237
 2171SOL    HW2 8683   1.559   0.447   3.235 -1.9388 -0.4004 -0.8926
 2171SOL     MW 8684   1.556   0.534   3.235 -0.5027 -0.3218 -0.2361
 2172SOL     OW 8685   2.144   0.983   4.494  0.6137  0.1036  0.1171
 2172SOL    HW1 8686   2.096   0.901   4.506  0.5308  0.1204 -0.0964
 2172SOL    HW2 8687   2.236   0.956   4.487  0.5524  0.0004 -0.2806
 2172SOL     MW 8688   2.150   0.969   4.495  0.5952  0.0925  0.0389
 2173SOL     OW 8689   1.015   1.272   3.028 -0.4993  0.7068  0.1332
 2173SOL    HW1 8690   1.015   1.247   3.120 -3.1614 -0.2897 -0.0310
 2173SOL    HW2 8691   0.973   1.359   3.026  0.5752  1.2340 -0.0629
 2173SOL     MW 8692   1.009   1.280   3.039 -0.7026  0.6467  0.0871
 2174SOL     OW 8693   2.630   3.727   1.084 -0.0865 -0.1140  0.3976
 2174SOL    HW1 8694   2.710   3.736   1.135 -0.0431  2.8039  0.0053
 2174SOL    HW2 8695   2.573   3.797   1.115 -2.1180 -1.4619 -0.0549
 2174SOL     MW 8696   2.633   3.737   1.094 -0.3410  0.0870  0.2895
 2175SOL     OW 8697   1.516   5.201   1.502  0.2396 -0.1220  0.5227
 2175SOL    HW1 8698   1.492   5.284   1.541 -1.6152 -0.6309  0.5373
 2175SOL    HW2 8699   1.501   5.136   1.571  0.7171 -0.5808  0.2086
 2175SOL     MW 8700   1.511   5.203   1.515  0.0633 -0.2459  0.4843
 2176SOL     OW 8701   0.744   3.249   3.882  0.0207 -0.1978 -0.5334
 2176SOL    HW1 8702   0.692   3.227   3.804  1.0045  0.1921 -1.3155
 2176SOL    HW2 8703   0.807   3.314   3.852  0.2049  0.2145  0.6805
 2176SOL     MW 8704   0.745   3.254   3.868  0.1702 -0.0951 -0.4781
 2177SOL     OW 8705   2.245   0.614   2.731 -0.5284 -0.0542  0.2213
 2177SOL    HW1 8706   2.208   0.690   2.685 -1.0505 -0.5601 -0.2158
 2177SOL    HW2 8707   2.301   0.652   2.799 -1.5558  0.7431  0.6594
 2177SOL     MW 8708   2.247   0.629   2.734 -0.7268 -0.0169  0.2214
 2178SOL     OW 8709   0.657   1.286   4.935  0.0491 -0.4699  0.2927
 2178SOL    HW1 8710   0.600   1.305   5.009 -0.4217 -0.4917 -0.0648
 2178SOL    HW2 8711   0.746   1.296   4.970 -0.1620 -1.0594  1.0120
 2178SOL     MW 8712   0.661   1.290   4.949 -0.0382 -0.5481  0.3390
 2179SOL     OW 8713   2.718   2.930   4.714  0.5462 -0.2984 -0.3181
 2179SOL    HW1 8714   2.710   3.024   4.733 -0.6955 -0.8597  2.4682
 2179SOL    HW2 8715   2.800   2.904   4.757 -0.1546 -0.8155  0.7677
 2179SOL     MW 8716   2.728   2.939   4.722  0.2975 -0.4365  0.1776
 2180SOL     OW 8717   1.276   1.956   1.688 -0.5272 -0.3705  0.2305
 2180SOL    HW1 8718   1.234   1.923   1.609  0.0631 -1.2355  0.2552
 2180SOL    HW2 8719   1.224   2.032   1.714 -1.6665 -1.0182 -0.0958
 2180SOL     MW 8720   1.264   1.961   1.681 -0.5975 -0.5641  0.1919
 2181SOL     OW 8721   4.869   0.963   0.165  0.5702  0.0440  0.8594
 2181SOL    HW1 8722   4.834   0.886   0.210  0.3423 -0.3329  0.0511
 2181SOL    HW2 8723   4.816   0.971   0.086  2.0494 -0.3267 -0.2096
 2181SOL     MW 8724   4.858   0.954   0.161  0.7304 -0.0517  0.6191
 2182SOL     OW 8725   1.131   0.098   3.735  0.2554  1.1107 -0.0018
 2182SOL    HW1 8726   1.173   0.152   3.668  1.3199 -0.1606 -0.3781
 2182SOL    HW2 8727   1.104   0.019   3.689 -2.0577  1.6022  0.3553
 2182SOL     MW 8728   1.133   0.095   3.720  0.0956  1.0109 -0.0042
 2183SOL     OW 8729   1.073   5.331   0.922  0.0116  0.0672  0.2156
 2183SOL    HW1 8730   1.075   5.375   1.006  1.2834  1.0972 -0.3176
 2183SOL    HW2 8731   1.031   5.393   0.863  2.0761  0.7824 -0.6064
 2183SOL     MW 8732   1.068   5.345   0.925  0.4387  0.2906  0.0421
 2184SOL     OW 8733   1.813   5.105   1.279 -0.0947 -0.2154 -0.6235
 2184SOL    HW1 8734   1.796   5.174   1.215  1.5184  0.8641  0.0427
 2184SOL    HW2 8735   1.766   5.029   1.245 -0.4159  0.6961 -2.3518
 2184SOL     MW 8736   1.805   5.104   1.267  0.0707  0.0395 -0.7595
 2185SOL     OW 8737   0.176   1.565   2.760 -0.3397 -0.1663 -0.5331
 2185SOL    HW1 8738   0.264   1.528   2.750  0.3640  1.6017 -1.3415
 2185SOL    HW2 8739   0.141   1.569   2.670 -0.5494  0.7120 -0.4265
 2185SOL     MW 8740   0.183   1.561   2.747 -0.2764  0.1724 -0.6229
 2186SOL     OW 8741   4.486   2.711   0.093 -0.1127  0.2198  0.0321
 2186SOL    HW1 8742   4.556   2.646   0.098  0.6997  1.1238  1.1264
 2186SOL    HW2 8743   4.406   2.661   0.100  0.4608 -0.7523 -0.2196
 2186SOL     MW 8744   4.485   2.697   0.095  0.0647  0.2111  0.1399
 2187SOL     OW 8745   4.426   4.182   5.064  0.2799  0.1593  0.1851
 2187SOL    HW1 8746   4.397   4.271   5.083  1.6738  0.7187 -0.1604
 2187SOL    HW2 8747   4.365   4.126   5.111 -1.2919  1.2485 -0.4946
 2187SOL     MW 8748   4.415   4.186   5.073  0.2571  0.3703  0.0539
 2188SOL     OW 8749   4.795   4.507   2.720 -0.4713  0.3199 -0.2348
 2188SOL    HW1 8750   4.805   4.443   2.790  1.0040  1.1466  0.3661
 2188SOL    HW2 8751   4.824   4.462   2.641 -1.4320 -0.3882 -0.1921
 2188SOL     MW 8752   4.800   4.493   2.719 -0.4054  0.3351 -0.1524
 2189SOL     OW 8753   3.510   3.395   0.255  0.0662 -0.5163 -0.1220
 2189SOL    HW1 8754   3.594   3.421   0.219  0.3665 -1.4009 -0.0888
 2189SOL    HW2 8755   3.525   3.388   0.349 -0.0155 -0.7526 -0.1243
 2189SOL     MW 8756   3.522   3.397   0.263  0.0942 -0.6597 -0.1180
 2190SOL     OW 8757   4.321   0.071   0.876  0.4854 -0.3176  0.3191
 2190SOL    HW1 8758   4.282  -0.015   0.895 -1.8458  0.7834  0.8536
 2190SOL    HW2 8759   4.327   0.074   0.781 -1.5074 -0.2818  0.1529
 2190SOL     MW 8760   4.316   0.060   0.866 -0.0681 -0.1721  0.3662
 2191SOL     OW 8761   0.463   5.287   4.234 -0.6294 -0.1488 -0.3799
 2191SOL    HW1 8762   0.551   5.310   4.264  0.6551 -2.7935 -1.7251
 2191SOL    HW2 8763   0.415   5.264   4.314  0.0883  0.7216  0.3178
 2191SOL     MW 8764   0.468   5.287   4.248 -0.3731 -0.3759 -0.4628
 2192SOL     OW 8765   3.502   4.480   2.571 -0.1096  0.0156  0.8923
 2192SOL    HW1 8766   3.580   4.440   2.610 -0.2719 -1.2053  0.0205
 2192SOL    HW2 8767   3.468   4.539   2.639  0.5146 -0.8523  1.9802
 2192SOL     MW 8768   3.507   4.483   2.585 -0.0505 -0.2518  0.9200
 2193SOL     OW 8769   0.412   1.693   4.973 -0.0924  0.1115 -0.1948
 2193SOL    HW1 8770   0.474   1.639   4.924  1.3861  1.1446  0.4607
 2193SOL    HW2 8771   0.421   1.663   5.064 -1.2627 -0.3733 -0.2345
 2193SOL     MW 8772   0.421   1.682   4.979 -0.0530  0.1817 -0.1160
 2194SOL     OW 8773   3.345   3.590   2.291 -0.4206 -0.3914  0.1393
 2194SOL    HW1 8774   3.253   3.584   2.265 -0.1406 -1.2179 -0.6986
 2194SOL    HW2 8775   3.378   3.669   2.247 -0.8753  0.2745  0.9577
 2194SOL     MW 8776   3.338   3.600   2.282 -0.4429 -0.4120  0.1368
 2195SOL     OW 8777   4.574   2.881   0.958  0.1462 -0.7432 -0.4078
 2195SOL    HW1 8778   4.642   2.884   1.025  0.6970  0.8204 -0.9738
 2195SOL    HW2 8779   4.611   2.825   0.889  1.5084  1.1084 -1.2912
 2195SOL     MW 8780   4.587   2.875   0.958  0.3911 -0.3061 -0.5934
 2196SOL     OW 8781   2.623   5.370   0.332 -0.3902  0.0624  0.0710
 2196SOL    HW1 8782   2.607   5.343   0.422 -0.4594 -1.6143 -0.4040
 2196SOL    HW2 8783   2.572   5.308   0.279  0.2731  0.5194 -1.1381
 2196SOL     MW 8784   2.614   5.358   0.336 -0.3142 -0.0937 -0.1446
 2197SOL     OW 8785   4.175   4.608   3.943 -0.5467 -0.2056 -0.3039
 2197SOL    HW1 8786   4.153   4.608   4.036 -2.6236  0.2713 -0.7498
 2197SOL    HW2 8787   4.138   4.527   3.909 -2.2141  0.8484 -1.1754
 2197SOL     MW 8788   4.168   4.598   3.950 -1.0260 -0.0096 -0.4726
 2198SOL     OW 8789   5.344   4.454   2.009 -0.1465  0.3603  0.3976
 2198SOL    HW1 8790   5.263   4.492   2.044 -1.4462  0.7158 -2.7082
 2198SOL    HW2 8791   5.348   4.367   2.047 -1.9169  0.3915  0.7560
 2198SOL     MW 8792   5.334   4.448   2.019 -0.5395  0.4098  0.0459
 2199SOL     OW 8793   0.179   3.938   4.392  0.1054  0.3414 -0.0784
 2199SOL    HW1 8794   0.220   3.994   4.327 -1.8052  0.0206 -1.6773
 2199SOL    HW2 8795   0.249   3.914   4.452  1.6706  1.7089 -1.2838
 2199SOL     MW 8796   0.193   3.942   4.391  0.0612  0.4754 -0.4374
 2200SOL     OW 8797   4.038   2.252   2.192 -0.4486  0.1450 -0.5768
 2200SOL    HW1 8798   4.045   2.202   2.111 -2.5222 -1.2475  0.0223
 2200SOL    HW2 8799   4.049   2.344   2.166  1.6876 -0.4303 -1.9626
 2200SOL     MW 8800   4.041   2.258   2.178 -0.4406 -0.1069 -0.6775
 2201SOL     OW 8801   2.227   0.759   5.182  0.1433  0.2278  0.3607
 2201SOL    HW1 8802   2.139   0.796   5.172  0.2999  0.5465  0.1473
 2201SOL    HW2 8803   2.286   0.826   5.145  0.6432  0.8928  2.2524
 2201SOL     MW 8804   2.223   0.773   5.176  0.2273  0.3537  0.5756
 2202SOL     OW 8805   2.417   4.534   5.102  0.3825 -0.1430 -0.0103
 2202SOL    HW1 8806   2.445   4.625   5.095  2.1930 -0.5598  1.0818
 2202SOL    HW2 8807   2.370   4.529   5.185  2.8071 -0.7327  1.4091
 2202SOL     MW 8808   2.415   4.545   5.112  0.9246 -0.2719  0.3112
 2203SOL     OW 8809   4.329   4.940   4.950  0.0697 -0.1725  0.1067
 2203SOL    HW1 8810   4.322   4.970   5.040 -0.8665  1.4589 -0.4613
 2203SOL    HW2 8811   4.422   4.921   4.938  0.1050 -1.0804  1.5810
 2203SOL     MW 8812   4.340   4.941   4.960 -0.0456 -0.0799  0.2227
 2204SOL     OW 8813   2.472   1.868   4.407 -0.0236 -0.0568  0.2121
 2204SOL    HW1 8814   2.468   1.783   4.362  0.2857 -0.5178  1.0370
 2204SOL    HW2 8815   2.545   1.860   4.468  0.0088  0.8090  0.3015
 2204SOL     MW 8816   2.481   1.856   4.409  0.0201 -0.0050  0.3291
 2205SOL     OW 8817   2.211   3.223   2.612 -0.1548 -0.4560 -0.2317
 2205SOL    HW1 8818   2.190   3.255   2.700  0.0995 -2.1333  0.4812
 2205SOL    HW2 8819   2.212   3.301   2.558 -0.7034  0.5794  1.1827
 2205SOL     MW 8820   2.208   3.237   2.616 -0.1925 -0.5382  0.0406
 2206SOL     OW 8821   3.364   4.510   0.645 -0.4996  0.5669  0.3375
 2206SOL    HW1 8822   3.452   4.485   0.617 -0.9675  1.7002 -2.4417
 2206SOL    HW2 8823   3.360   4.604   0.630 -2.3450  0.4532 -0.1246
 2206SOL     MW 8824   3.375   4.519   0.640 -0.7958  0.6974 -0.0774
 2207SOL     OW 8825   5.045   4.245   4.370  0.2775  0.3556  0.2999
 2207SOL    HW1 8826   4.999   4.205   4.443 -2.3471  2.4344 -0.0123
 2207SOL    HW2 8827   5.057   4.336   4.397 -0.0424  0.9681 -1.4866
 2207SOL     MW 8828   5.040   4.252   4.383 -0.0995  0.7001  0.0313
 2208SOL     OW 8829   2.277   3.085   1.921  0.1277  0.1544  0.0302
 2208SOL    HW1 8830   2.272   2.990   1.919 -0.0383  0.1624 -0.0019
 2208SOL    HW2 8831   2.216   3.114   1.853  0.6548  0.2734 -0.3947
 2208SOL     MW 8832   2.268   3.077   1.912  0.1739  0.1706 -0.0283
 2209SOL     OW 8833   5.126   4.382   0.908 -0.8358 -0.0003  0.2934
 2209SOL    HW1 8834   5.177   4.348   0.834 -1.3453 -0.4457  0.1402
 2209SOL    HW2 8835   5.046   4.330   0.908 -2.5027  2.3835 -1.0833
 2209SOL     MW 8836   5.123   4.371   0.898 -1.1144  0.2478  0.0976
 2210SOL     OW 8837   5.161   4.314   0.596 -0.4464 -0.6503  0.0481
 2210SOL    HW1 8838   5.145   4.367   0.518  1.3802  1.1819  0.8240
 2210SOL    HW2 8839   5.256   4.320   0.610 -0.7027 -1.1037  2.2915
 2210SOL     MW 8840   5.171   4.321   0.587 -0.2453 -0.4738  0.4346
 2211SOL     OW 8841   1.187   4.725   4.036  0.3763 -0.3335  0.4211
 2211SOL    HW1 8842   1.208   4.635   4.061  0.5632 -0.1679  0.8667
 2211SOL    HW2 8843   1.143   4.762   4.112 -0.3539 -0.2663 -0.0231
 2211SOL     MW 8844   1.184   4.718   4.049  0.3067 -0.3037  0.4213
 2212SOL     OW 8845   0.849   1.180   2.642 -0.3055  0.2361 -0.1821
 2212SOL    HW1 8846   0.843   1.272   2.668 -1.8690  1.0298 -2.9140
 2212SOL    HW2 8847   0.941   1.157   2.655  0.2319  2.3514  0.0554
 2212SOL     MW 8848   0.860   1.189   2.647 -0.4369  0.6084 -0.5014
 2213SOL     OW 8849   2.345   1.683   2.183 -0.5181 -0.1413 -0.2441
 2213SOL    HW1 8850   2.424   1.733   2.160  0.9713 -2.5811 -0.8577
 2213SOL    HW2 8851   2.298   1.673   2.100 -0.2958 -0.5407 -0.3281
 2213SOL     MW 8852   2.349   1.688   2.169 -0.2990 -0.5048 -0.3334
 2214SOL     OW 8853   3.590   5.083   2.839 -0.0300 -1.1862 -0.4050
 2214SOL    HW1 8854   3.615   5.093   2.747  1.1427 -1.5036 -0.1387
 2214SOL    HW2 8855   3.577   4.989   2.850  0.3942 -1.2164 -0.1213
 2214SOL     MW 8856   3.592   5.072   2.828  0.1744 -1.2307 -0.3346
 2215SOL     OW 8857   0.037   0.932   2.665 -0.3978 -0.3156  0.2048
 2215SOL    HW1 8858   0.084   0.979   2.596 -0.0050 -3.3442 -1.7988
 2215SOL    HW2 8859   0.082   0.956   2.746  0.8641  1.3139 -0.9113
 2215SOL     MW 8860   0.049   0.941   2.667 -0.1860 -0.4947 -0.1946
 2216SOL     OW 8861   4.677   1.590   1.724  0.3477  0.3480 -0.4007
 2216SOL    HW1 8862   4.674   1.666   1.782  0.4570  0.9193 -1.1311
 2216SOL    HW2 8863   4.608   1.606   1.660 -0.3294 -0.6798  0.0432
 2216SOL     MW 8864   4.668   1.602   1.723  0.2750  0.2896 -0.4374
 2217SOL     OW 8865   4.606   0.155   4.516 -0.2666 -0.0940  0.3694
 2217SOL    HW1 8866   4.525   0.111   4.543 -0.3280 -1.0304 -1.2164
 2217SOL    HW2 8867   4.676   0.103   4.556 -0.3898 -0.7206 -0.2146
 2217SOL     MW 8868   4.605   0.143   4.525 -0.2902 -0.2941  0.0917
 2218SOL     OW 8869   2.345   1.119   4.678  0.0025 -0.4449  0.0798
 2218SOL    HW1 8870   2.264   1.104   4.629  0.0923  2.0119 -0.9874
 2218SOL    HW2 8871   2.396   1.177   4.621  0.8813  1.0913  2.3137
 2218SOL     MW 8872   2.341   1.125   4.664  0.1265  0.0663  0.2291
 2219SOL     OW 8873   3.439   3.960   2.557 -0.3274 -0.4319  0.1115
 2219SOL    HW1 8874   3.500   3.888   2.571 -0.8750 -0.7500  0.9351
 2219SOL    HW2 8875   3.464   3.997   2.472 -0.5052 -2.0520 -0.6805
 2219SOL     MW 8876   3.450   3.956   2.548 -0.4202 -0.6800  0.1155
 2220SOL     OW 8877   4.200   3.213   0.962  0.1127  0.2084  0.2340
 2220SOL    HW1 8878   4.191   3.308   0.971 -1.1774  0.2257 -0.8998
 2220SOL    HW2 8879   4.257   3.202   0.886  0.9956  0.0543  0.9009
 2220SOL     MW 8880   4.206   3.224   0.953  0.0606  0.1909  0.1742
 2221SOL     OW 8881   3.947   2.964   1.957  0.3203  0.4601  0.0722
 2221SOL    HW1 8882   4.003   3.027   1.912 -0.9339  0.7544 -1.1194
 2221SOL    HW2 8883   3.954   2.884   1.905 -0.0359  0.3741  0.1546
 2221SOL     MW 8884   3.955   2.961   1.945  0.1142  0.4868 -0.0698
 2222SOL     OW 8885   4.335   5.085   0.598 -0.0893  0.2200  0.4327
 2222SOL    HW1 8886   4.243   5.108   0.592 -0.0726  0.6665  1.5630
 2222SOL    HW2 8887   4.343   5.002   0.551 -0.6159  1.2802 -1.6466
 2222SOL     MW 8888   4.324   5.078   0.591 -0.1546  0.4129  0.3112
 2223SOL     OW 8889   3.433   4.280   0.459 -0.3033 -0.3352 -0.0803
 2223SOL    HW1 8890   3.376   4.310   0.389 -2.8031  1.8161  2.6369
 2223SOL    HW2 8891   3.497   4.351   0.472  0.3429 -0.8553 -0.3326
 2223SOL     MW 8892   3.434   4.293   0.452 -0.5406 -0.1264  0.2352
 2224SOL     OW 8893   1.959   3.928   0.170 -0.5141  0.2522 -0.2337
 2224SOL    HW1 8894   1.933   3.886   0.252 -1.8881 -0.0895 -0.8079
 2224SOL    HW2 8895   2.043   3.889   0.148  0.2275  0.8596  1.3497
 2224SOL     MW 8896   1.966   3.918   0.177 -0.5951  0.2862 -0.1045
 2225SOL     OW 8897   3.634   4.307   3.123 -0.0375 -0.2659 -0.6715
 2225SOL    HW1 8898   3.547   4.332   3.093 -1.0365 -1.3933  1.1187
 2225SOL    HW2 8899   3.672   4.259   3.050 -1.6097 -1.2207 -0.9107
 2225SOL     MW 8900   3.628   4.304   3.110 -0.3666 -0.5325 -0.4729
 2226SOL     OW 8901   1.607   2.960   2.277  0.1965  0.0699  0.6386
 2226SOL    HW1 8902   1.683   2.984   2.223  0.4754  0.8591  1.3722
 2226SOL    HW2 8903   1.626   2.996   2.363 -0.9286  0.1039  0.8877
 2226SOL     MW 8904   1.619   2.968   2.281  0.0882  0.1753  0.7644
 2227SOL     OW 8905   1.811   0.092   4.304  0.0608  0.6957  0.3972
 2227SOL    HW1 8906   1.865   0.166   4.330 -0.9839  0.4647  3.6114
 2227SOL    HW2 8907   1.788   0.048   4.386 -0.5843 -2.3610 -1.2669
 2227SOL     MW 8908   1.815   0.096   4.318 -0.1555  0.2749  0.5956
 2228SOL     OW 8909   2.023   4.562   5.221 -0.3508  0.0056  0.3411
 2228SOL    HW1 8910   2.090   4.544   5.286 -0.3004  1.4660  0.7403
 2228SOL    HW2 8911   2.045   4.650   5.188 -0.8155 -0.3804 -1.0965
 2228SOL     MW 8912   2.035   4.571   5.225 -0.4038  0.1431  0.2082
 2229SOL     OW 8913   1.554   4.995   4.947  0.0608 -0.3571  0.6477
 2229SOL    HW1 8914   1.481   5.005   4.886  0.2122  0.4916  0.5843
 2229SOL    HW2 8915   1.566   5.083   4.984  1.9493 -0.1338 -0.3803
 2229SOL     MW 8916   1.546   5.008   4.944  0.3219 -0.2199  0.5080
 2230SOL     OW 8917   0.284   0.366   3.463 -0.2423  0.5544  0.1456
 2230SOL    HW1 8918   0.192   0.343   3.474 -0.1305  0.1447  0.2036
 2230SOL    HW2 8919   0.307   0.333   3.376 -0.3963  1.4629 -0.2628
 2230SOL     MW 8920   0.275   0.359   3.453 -0.2477  0.6183  0.1008
 2231SOL     OW 8921   2.214   1.568   2.793  0.0142  0.1311 -0.0357
 2231SOL    HW1 8922   2.287   1.590   2.735 -1.1291 -0.9319 -1.9662
 2231SOL    HW2 8923   2.252   1.506   2.856  0.6988 -0.7946 -1.3174
 2231SOL     MW 8924   2.228   1.563   2.794 -0.0445 -0.1235 -0.4469
 2232SOL     OW 8925   1.528   4.131   4.217  0.1632  0.1873  0.5375
 2232SOL    HW1 8926   1.504   4.171   4.133  0.9844 -0.5684 -0.0815
 2232SOL    HW2 8927   1.620   4.109   4.207  0.1281 -0.3970  1.4497
 2232SOL     MW 8928   1.537   4.133   4.205  0.2638  0.0157  0.5751
 2233SOL     OW 8929   1.036   3.256   2.496 -0.0383  0.3271  0.7784
 2233SOL    HW1 8930   0.981   3.180   2.477  0.1592  0.2867  0.3572
 2233SOL    HW2 8931   1.126   3.221   2.496  0.3012  0.9473 -1.7951
 2233SOL     MW 8932   1.041   3.242   2.493  0.0305  0.4013  0.3950
 2234SOL     OW 8933   2.025   3.716   4.224 -0.4866  0.1461 -0.2376
 2234SOL    HW1 8934   2.005   3.772   4.299 -1.4768  0.0757 -0.4452
 2234SOL    HW2 8935   2.013   3.627   4.257 -0.1262  0.0903 -0.2545
 2234SOL     MW 8936   2.021   3.712   4.238 -0.5672  0.1300 -0.2663
 2235SOL     OW 8937   0.481   3.362   0.582 -0.4432 -0.0735  0.1808
 2235SOL    HW1 8938   0.451   3.271   0.573 -1.8141  0.1336  2.0249
 2235SOL    HW2 8939   0.573   3.354   0.607 -0.5286 -0.9492  0.2679
 2235SOL     MW 8940   0.489   3.349   0.584 -0.6297 -0.1591  0.4280
 2236SOL     OW 8941   2.456   4.760   1.471  0.1587  0.9702  0.0063
 2236SOL    HW1 8942   2.448   4.694   1.540  1.2457  1.0206  0.2014
 2236SOL    HW2 8943   2.512   4.719   1.405  0.3997  1.4863 -0.1197
 2236SOL     MW 8944   2.462   4.746   1.472  0.3287  1.0427  0.0151
 2237SOL     OW 8945   4.436   0.861   2.148  0.1016 -0.7065  0.4555
 2237SOL    HW1 8946   4.401   0.791   2.202 -0.7694 -1.1384 -0.6427
 2237SOL    HW2 8947   4.518   0.825   2.113  1.0708 -0.1492  2.0300
 2237SOL     MW 8948   4.442   0.847   2.150  0.1142 -0.6905  0.5165
 2238SOL     OW 8949   1.530   3.307   4.986  0.3850 -0.1533  0.4251
 2238SOL    HW1 8950   1.519   3.312   5.081  0.5510  0.2589  0.4266
 2238SOL    HW2 8951   1.609   3.359   4.969  0.4978 -0.4357  0.0887
 2238SOL     MW 8952   1.539   3.314   4.996  0.4207 -0.1367  0.3823
 2239SOL     OW 8953   0.631   2.547   0.525  0.1127 -0.1154  0.0146
 2239SOL    HW1 8954   0.540   2.547   0.556 -0.1479  0.9703 -0.7261
 2239SOL    HW2 8955   0.682   2.577   0.601 -0.2208 -0.0394  0.2114
 2239SOL     MW 8956   0.626   2.551   0.539  0.0367  0.0333 -0.0550
 2240SOL     OW 8957   3.648   1.092   0.185 -0.1767  0.2664 -0.1133
 2240SOL    HW1 8958   3.569   1.088   0.131 -1.2987  0.1199  1.4631
 2240SOL    HW2 8959   3.632   1.027   0.254  1.3470  0.2171  0.2134
 2240SOL     MW 8960   3.635   1.083   0.187 -0.1253  0.2413  0.1303
 2241SOL     OW 8961   0.702   1.177   3.177 -0.2600 -0.0167  0.1023
 2241SOL    HW1 8962   0.700   1.198   3.084  2.2463 -0.4446 -0.1360
 2241SOL    HW2 8963   0.651   1.096   3.185 -0.7633  0.2040 -0.8462
 2241SOL     MW 8964   0.696   1.169   3.166 -0.0036 -0.0432 -0.0496
 2242SOL     OW 8965   0.631   2.960   1.787  0.3405 -0.0553 -0.0015
 2242SOL    HW1 8966   0.635   2.945   1.692  0.6082  0.3107 -0.0491
 2242SOL    HW2 8967   0.571   2.893   1.819  2.7830 -2.3984  0.0224
 2242SOL     MW 8968   0.624   2.949   1.779  0.6874 -0.3084 -0.0046
 2243SOL     OW 8969   1.550   3.181   3.259  0.2785  0.1021  0.0627
 2243SOL    HW1 8970   1.567   3.151   3.169  1.8734 -0.3986  0.4986
 2243SOL    HW2 8971   1.637   3.183   3.300 -0.4370  0.2387  1.6207
 2243SOL     MW 8972   1.564   3.177   3.253  0.3911  0.0555  0.3179
 2244SOL     OW 8973   0.291   4.640   3.153  0.2499 -0.6348 -0.3469
 2244SOL    HW1 8974   0.357   4.590   3.201  1.8538  1.6838  0.0415
 2244SOL    HW2 8975   0.231   4.672   3.220 -0.0199 -0.9255 -0.4436
 2244SOL     MW 8976   0.292   4.637   3.167  0.4207 -0.3752 -0.3095
 2245SOL     OW 8977   0.989   2.011   3.036  0.0206  0.4557  0.0609
 2245SOL    HW1 8978   0.983   1.929   3.084  3.8811 -0.5356 -0.8223
 2245SOL    HW2 8979   0.985   2.079   3.103  1.0762 -0.6819  1.3287
 2245SOL     MW 8980   0.987   2.009   3.051  0.6499  0.1831  0.1101
 2246SOL     OW 8981   3.156   0.702   1.065  0.3501 -0.6006 -0.2968
 2246SOL    HW1 8982   3.191   0.708   0.977 -1.8284  0.9819 -1.1525
 2246SOL    HW2 8983   3.218   0.749   1.120  1.0536 -0.4385 -1.2234
 2246SOL     MW 8984   3.168   0.709   1.061  0.1613 -0.3772 -0.5249
 2247SOL     OW 8985   0.555   1.390   3.216  0.3308  0.0649  0.0918
 2247SOL    HW1 8986   0.514   1.390   3.303 -0.6606  0.4818 -0.3584
 2247SOL    HW2 8987   0.602   1.308   3.211 -0.3481 -0.3699  0.6912
 2247SOL     MW 8988   0.556   1.380   3.226  0.1170  0.0626  0.1109
 2248SOL     OW 8989   5.016   4.467   2.980  0.4598 -0.5278 -0.4774
 2248SOL    HW1 8990   5.072   4.419   3.041  0.8769  0.7039  0.1508
 2248SOL    HW2 8991   4.965   4.399   2.935 -0.2594 -1.4504  1.6258
 2248SOL     MW 8992   5.016   4.452   2.982  0.4211 -0.4882 -0.1278
 2249SOL     OW 8993   4.524   1.409   3.631 -0.0038 -0.0180 -0.7095
 2249SOL    HW1 8994   4.539   1.448   3.717  1.0243  0.7247 -1.2027
 2249SOL    HW2 8995   4.453   1.346   3.645  0.3443 -0.1303  0.7401
 2249SOL     MW 8996   4.517   1.406   3.644  0.1724  0.0627 -0.5871
 2250SOL     OW 8997   2.396   2.520   0.850 -0.4254  0.6110  0.3257
 2250SOL    HW1 8998   2.473   2.490   0.803 -1.9666 -0.7973 -1.4456
 2250SOL    HW2 8999   2.353   2.580   0.790 -1.4931  0.2069  0.6630
 2250SOL     MW 9000   2.400   2.524   0.836 -0.7594  0.3790  0.1421
 2251SOL     OW 9001   5.149   3.632   2.225  0.3476 -0.6235  0.5738
 2251SOL    HW1 9002   5.172   3.721   2.252  0.9139 -0.8257  0.7810
 2251SOL    HW2 9003   5.146   3.582   2.306 -0.7429 -0.6373  0.5421
 2251SOL     MW 9004   5.151   3.637   2.239  0.2805 -0.6511  0.5963
 2252SOL     OW 9005   1.382   0.843   4.503  0.0372 -0.6128  0.0021
 2252SOL    HW1 9006   1.425   0.877   4.582  0.2337 -0.6478 -0.0903
 2252SOL    HW2 9007   1.293   0.880   4.507  0.3612  0.2322 -0.2931
 2252SOL     MW 9008   1.376   0.852   4.514  0.1039 -0.5091 -0.0475
 2253SOL     OW 9009   1.582   1.626   1.627  0.6988 -0.1190 -0.3676
 2253SOL    HW1 9010   1.524   1.609   1.701  0.7966 -1.7010 -0.6151
 2253SOL    HW2 9011   1.535   1.593   1.551  1.3253 -0.1271 -0.7649
 2253SOL     MW 9012   1.569   1.620   1.627  0.7915 -0.3226 -0.4502
 2254SOL     OW 9013   3.544   2.079   0.717  0.0909  0.0662 -0.3925
 2254SOL    HW1 9014   3.451   2.101   0.711 -0.4336 -1.3984  1.5058
 2254SOL    HW2 9015   3.579   2.141   0.781  0.6958  1.2421 -1.7934
 2254SOL     MW 9016   3.536   2.090   0.725  0.1012  0.0293 -0.3289
 2255SOL     OW 9017   4.468   5.438   5.085 -0.6105 -0.1642 -0.3412
 2255SOL    HW1 9018   4.405   5.432   5.014 -0.1471  3.4111 -1.2817
 2255SOL    HW2 9019   4.548   5.471   5.043  0.1115  0.7153  1.5964
 2255SOL     MW 9020   4.470   5.442   5.071 -0.4587  0.4061 -0.2136
 2256SOL     OW 9021   0.568   2.345   3.017 -0.2140  0.2389 -0.6010
 2256SOL    HW1 9022   0.498   2.280   3.022  0.0198  0.0707  1.6258
 2256SOL    HW2 9023   0.591   2.362   3.109  2.2297  0.7487 -1.2414
 2256SOL     MW 9024   0.562   2.339   3.030  0.1288  0.2827 -0.3980
 2257SOL     OW 9025   5.282   4.843   1.580 -0.0786  0.2049  0.4529
 2257SOL    HW1 9026   5.247   4.761   1.615  1.4710 -0.9182 -0.5189
 2257SOL    HW2 9027   5.235   4.855   1.497 -0.1297  0.1748  0.4773
 2257SOL     MW 9028   5.271   4.834   1.574  0.1132  0.0573  0.3316
 2258SOL     OW 9029   1.916   1.264   5.241  0.5361 -0.2786  1.0957
 2258SOL    HW1 9030   1.869   1.192   5.200  0.2027 -1.0050  2.7093
 2258SOL    HW2 9031   1.913   1.334   5.176 -1.4933 -0.7906  0.5886
 2258SOL     MW 9032   1.910   1.264   5.227  0.2336 -0.4371  1.2373
 2259SOL     OW 9033   2.570   4.715   3.622  1.0119 -0.1010  0.2528
 2259SOL    HW1 9034   2.596   4.631   3.661 -0.6357  0.2459  2.2946
 2259SOL    HW2 9035   2.563   4.774   3.697  0.8348  1.5242 -1.0003
 2259SOL     MW 9036   2.573   4.712   3.637  0.7783  0.1514  0.3538
 2260SOL     OW 9037   4.696   3.091   3.511 -0.4854 -0.2145 -0.0918
 2260SOL    HW1 9038   4.740   3.148   3.574 -0.8934 -1.1314  1.0651
 2260SOL    HW2 9039   4.687   3.144   3.432  2.3981  0.1128 -0.3069
 2260SOL     MW 9040   4.700   3.105   3.509 -0.1685 -0.2899  0.0288
 2261SOL     OW 9041   0.016   2.824   0.097 -0.2482 -0.0312  0.1370
 2261SOL    HW1 9042   0.060   2.808   0.013  2.2318 -1.6296  1.6224
 2261SOL    HW2 9043  -0.001   2.737   0.132 -1.1554  0.6145  1.3673
 2261SOL     MW 9044   0.019   2.811   0.091 -0.0469 -0.1531  0.4847
 2262SOL     OW 9045   0.935   1.998   0.631 -0.7077 -0.0746 -0.0433
 2262SOL    HW1 9046   0.908   1.914   0.594 -0.0405  0.4793 -1.9209
 2262SOL    HW2 9047   0.901   2.063   0.570  1.5857  0.8135 -0.5038
 2262SOL     MW 9048   0.927   1.995   0.618 -0.3287  0.1100 -0.3426
 2263SOL     OW 9049   4.902   3.618   0.734  0.2679  0.5481 -0.2203
 2263SOL    HW1 9050   4.979   3.633   0.679 -0.7657  2.5497 -1.2400
 2263SOL    HW2 9051   4.874   3.706   0.759 -1.4598 -0.1577  0.4574
 2263SOL     MW 9052   4.908   3.632   0.730 -0.0856  0.7140 -0.2640
 2264SOL     OW 9053   3.509   2.993   1.678  0.3101 -0.1002 -0.2349
 2264SOL    HW1 9054   3.482   3.013   1.767  0.6787 -0.5182 -0.0264
 2264SOL    HW2 9055   3.436   3.023   1.623 -0.0014 -0.0218  0.2198
 2264SOL     MW 9056   3.496   2.999   1.682  0.3174 -0.1437 -0.1500
 2265SOL     OW 9057   5.376   0.382   3.753 -0.2242  0.2310 -0.2462
 2265SOL    HW1 9058   5.313   0.321   3.715  0.2485  0.1778 -0.9751
 2265SOL    HW2 9059   5.323   0.455   3.784 -0.5777  0.7879 -2.0067
 2265SOL     MW 9060   5.361   0.384   3.752 -0.2090  0.2955 -0.5649
 2266SOL     OW 9061   2.868   4.313   3.781  0.1980 -0.0143  0.7260
 2266SOL    HW1 9062   2.888   4.367   3.857 -1.2962  0.5144  0.7859
 2266SOL    HW2 9063   2.800   4.362   3.734  0.6258 -0.6399 -0.6058
 2266SOL     MW 9064   2.862   4.326   3.784  0.0615 -0.0267  0.5632
 2267SOL     OW 9065   3.640   5.197   4.539  0.3511 -0.3115 -0.3117
 2267SOL    HW1 9066   3.666   5.256   4.468  0.3655 -1.0903 -0.9649
 2267SOL    HW2 9067   3.703   5.126   4.535 -0.5145 -1.0919 -0.4636
 2267SOL     MW 9068   3.651   5.196   4.529  0.2422 -0.5111 -0.4148
 2268SOL     OW 9069   4.699   4.869   0.130 -0.2648  0.6237  0.0292
 2268SOL    HW1 9070   4.648   4.948   0.145 -1.2901 -0.1785  0.8979
 2268SOL    HW2 9071   4.636   4.806   0.094  0.8679  0.6605 -2.2178
 2268SOL     MW 9072   4.685   4.871   0.127 -0.2511  0.5257 -0.1473
 2269SOL     OW 9073   0.538   0.460   3.521  0.0108 -0.1145  0.2167
 2269SOL    HW1 9074   0.552   0.498   3.608 -2.7150  0.6890  0.4008
 2269SOL    HW2 9075   0.444   0.441   3.518 -0.2479  1.0532 -2.9870
 2269SOL     MW 9076   0.528   0.462   3.532 -0.3712  0.1378 -0.1698
 2270SOL     OW 9077   2.916   3.580   3.583  0.1797 -0.3987 -0.0839
 2270SOL    HW1 9078   2.850   3.634   3.626  1.5610  0.0329  1.6501
 2270SOL    HW2 9079   2.948   3.522   3.652  1.9059 -0.2905 -0.7341
 2270SOL     MW 9080   2.912   3.579   3.597  0.5775 -0.3296  0.0548
 2271SOL     OW 9081   2.372   4.262   5.341 -0.3564 -0.1174 -0.2855
 2271SOL    HW1 9082   2.281   4.234   5.337 -0.1010 -0.8252 -1.5008
 2271SOL    HW2 9083   2.368   4.352   5.374 -1.5328  0.0809 -0.9258
 2271SOL     MW 9084   2.360   4.270   5.345 -0.4743 -0.1826 -0.5230
 2272SOL     OW 9085   2.616   2.053   3.810  0.2381  0.5441  0.2513
 2272SOL    HW1 9086   2.667   2.047   3.891  3.0904 -1.1972 -1.4938
 2272SOL    HW2 9087   2.556   1.979   3.814  0.0754  0.7014  0.9325
 2272SOL     MW 9088   2.615   2.043   3.821  0.5824  0.3413  0.1151
 2273SOL     OW 9089   0.798   2.073   3.752  0.1404 -0.2639 -0.1363
 2273SOL    HW1 9090   0.841   2.128   3.687 -1.8426 -0.5166 -1.7545
 2273SOL    HW2 9091   0.813   1.983   3.722  0.0417 -0.4409  0.3272
 2273SOL     MW 9092   0.805   2.069   3.740 -0.1261 -0.3189 -0.2841
 2274SOL     OW 9093   4.020   2.201   2.590 -0.1310 -0.1416  0.3441
 2274SOL    HW1 9094   3.944   2.236   2.543 -0.7124 -2.4339 -0.5542
 2274SOL    HW2 9095   4.086   2.185   2.522  0.4412  0.0155  0.8502
 2274SOL     MW 9096   4.019   2.204   2.575 -0.1322 -0.4149  0.2939
 2275SOL     OW 9097   0.111   3.407   2.020  0.7885  0.0066 -0.1370
 2275SOL    HW1 9098   0.018   3.416   2.040  0.8620 -0.5663  0.5103
 2275SOL    HW2 9099   0.131   3.315   2.039  1.9866  0.6286  1.9342
 2275SOL     MW 9100   0.102   3.396   2.025  0.9513  0.0129  0.2110
 2276SOL     OW 9101   2.809   4.618   2.207 -0.1215 -0.2380  0.3797
 2276SOL    HW1 9102   2.864   4.565   2.266  0.4258 -0.0211  0.0768
 2276SOL    HW2 9103   2.799   4.701   2.252 -0.3423 -0.3395  0.5142
 2276SOL     MW 9104   2.815   4.622   2.220 -0.0797 -0.2232  0.3582
 2277SOL     OW 9105   0.482   1.209   2.493  0.2812 -0.2178  0.2039
 2277SOL    HW1 9106   0.485   1.216   2.589  1.6525  1.4975  0.0763
 2277SOL    HW2 9107   0.495   1.115   2.476  0.8625 -0.4372  1.6844
 2277SOL     MW 9108   0.484   1.198   2.503  0.5312 -0.0263  0.3771
 2278SOL     OW 9109   3.431   3.645   5.375 -0.1165  0.3266  0.4244
 2278SOL    HW1 9110   3.441   3.723   5.430  2.1157  0.1117  0.4061
 2278SOL    HW2 9111   3.470   3.670   5.291  0.3011 -0.7062  0.3087
 2278SOL     MW 9112   3.437   3.658   5.371  0.2227  0.1668  0.4073
 2279SOL     OW 9113   1.445   0.509   4.337 -0.0259  0.2615  0.3019
 2279SOL    HW1 9114   1.491   0.550   4.410  0.8827  1.5442 -0.9366
 2279SOL    HW2 9115   1.501   0.436   4.311 -1.0607 -1.1229  1.7472
 2279SOL     MW 9116   1.458   0.505   4.343 -0.0421  0.2485  0.3283
 2280SOL     OW 9117   2.172   4.676   2.040 -0.2384 -0.2983 -0.4136
 2280SOL    HW1 9118   2.258   4.667   2.081  0.3826  0.4770 -1.5010
 2280SOL    HW2 9119   2.119   4.607   2.081  0.6964 -0.3703  0.7507
 2280SOL     MW 9120   2.176   4.666   2.051 -0.0392 -0.2083 -0.4037
 2281SOL     OW 9121   0.768   2.946   0.917 -0.4949 -0.0162  0.8178
 2281SOL    HW1 9122   0.823   3.018   0.947  0.5012 -0.4114  0.0102
 2281SOL    HW2 9123   0.827   2.890   0.867 -1.5220 -0.7457  0.3814
 2281SOL     MW 9124   0.783   2.948   0.914 -0.4989 -0.1602  0.6585
 2282SOL     OW 9125   4.365   2.030   0.350  0.0012 -0.1737  0.0970
 2282SOL    HW1 9126   4.415   1.949   0.351 -1.6585 -1.3030 -1.4597
 2282SOL    HW2 9127   4.363   2.058   0.442  1.8769 -1.0338  0.4502
 2282SOL     MW 9128   4.371   2.023   0.362  0.0288 -0.4283 -0.0570
 2283SOL     OW 9129   4.691   0.466   2.199  0.2803  0.7636 -0.7119
 2283SOL    HW1 9130   4.613   0.469   2.144 -0.2382 -0.1044 -0.0393
 2283SOL    HW2 9131   4.696   0.375   2.229 -0.9141  1.6668  2.7384
 2283SOL     MW 9132   4.682   0.455   2.196  0.0611  0.7681 -0.1841
 2284SOL     OW 9133   4.730   3.554   2.132 -0.6011  0.2824  0.1449
 2284SOL    HW1 9134   4.746   3.595   2.047  0.7620 -0.4471  0.0152
 2284SOL    HW2 9135   4.765   3.617   2.195 -0.5371  0.2953  0.0966
 2284SOL     MW 9136   4.737   3.567   2.129 -0.4184  0.1907  0.1221
 2285SOL     OW 9137   2.262   1.234   5.180  0.2407  0.2110  0.3579
 2285SOL    HW1 9138   2.212   1.219   5.260  1.8505 -0.8359  1.2148
 2285SOL    HW2 9139   2.227   1.170   5.117 -0.9066  0.9180  0.2411
 2285SOL     MW 9140   2.251   1.224   5.182  0.2999  0.1675  0.4527
 2286SOL     OW 9141   4.041   1.117   5.328 -0.0398  0.4206 -0.1069
 2286SOL    HW1 9142   4.002   1.083   5.247  0.6166 -0.0311 -0.2439
 2286SOL    HW2 9143   3.988   1.079   5.398 -0.5473  0.7292 -0.3233
 2286SOL     MW 9144   4.029   1.108   5.326 -0.0207  0.4023 -0.1522
 2287SOL     OW 9145   4.080   5.350   3.483 -0.4635 -0.3124 -0.1547
 2287SOL    HW1 9146   4.042   5.344   3.395 -0.2471 -1.2862 -0.1821
 2287SOL    HW2 9147   4.054   5.269   3.527  1.3183 -0.8803 -0.0722
 2287SOL     MW 9148   4.072   5.339   3.477 -0.2077 -0.5097 -0.1476
 2288SOL     OW 9149   0.838   0.224   4.812  0.5650  0.0154  0.2016
 2288SOL    HW1 9150   0.747   0.227   4.841 -0.0843 -1.1751 -1.5543
 2288SOL    HW2 9151   0.884   0.285   4.870 -1.3239  0.5936  1.1634
 2288SOL     MW 9152   0.832   0.232   4.823  0.2401 -0.0630  0.1000
 2289SOL     OW 9153   0.236   4.715   4.359  0.7559 -0.8467 -0.2667
 2289SOL    HW1 9154   0.151   4.673   4.347 -0.6800  1.4184  1.4084
 2289SOL    HW2 9155   0.271   4.722   4.270 -1.0313 -1.3330 -1.0569
 2289SOL     MW 9156   0.230   4.710   4.346  0.3433 -0.6190 -0.1534
 2290SOL     OW 9157   0.366   4.856   3.001 -0.3785  0.2628 -0.3935
 2290SOL    HW1 9158   0.319   4.852   2.918 -0.8666 -0.3426 -0.0948
 2290SOL    HW2 9159   0.338   4.778   3.049 -1.9694  1.7719  1.3204
 2290SOL     MW 9160   0.356   4.845   2.997 -0.6446  0.3785 -0.1359
 2291SOL     OW 9161   3.736   1.249   5.175 -0.0857  0.5435 -0.6661
 2291SOL    HW1 9162   3.651   1.283   5.201 -0.0614 -0.9231  1.5701
 2291SOL    HW2 9163   3.798   1.292   5.233  0.3081 -0.7185 -0.1171
 2291SOL     MW 9164   3.733   1.259   5.186 -0.0322  0.1942 -0.3096
 2292SOL     OW 9165   4.819   1.764   2.679  0.1269 -0.1981 -0.1226
 2292SOL    HW1 9166   4.908   1.792   2.702  0.5710 -2.0256  0.6077
 2292SOL    HW2 9167   4.762   1.834   2.711  1.2696  0.8853 -0.3774
 2292SOL     MW 9168   4.823   1.777   2.686  0.3300 -0.2934 -0.0617
 2293SOL     OW 9169   5.056   0.128   2.935 -0.2137  0.8761  0.4375
 2293SOL    HW1 9170   4.965   0.108   2.956 -0.9320 -0.1318 -3.0539
 2293SOL    HW2 9171   5.058   0.223   2.926 -1.0930  0.8581 -0.0813
 2293SOL     MW 9172   5.045   0.138   2.937 -0.4182  0.7448 -0.0759
 2294SOL     OW 9173   3.708   0.713   1.783 -0.1469 -0.1502  0.3934
 2294SOL    HW1 9174   3.679   0.717   1.874  0.3253  0.7357  0.5161
 2294SOL    HW2 9175   3.709   0.619   1.762  1.3204 -0.4952  1.8270
 2294SOL     MW 9176   3.705   0.702   1.792  0.1014 -0.0810  0.5927
 2295SOL     OW 9177   2.830   0.281   2.827  0.0306 -0.9288  0.1150
 2295SOL    HW1 9178   2.891   0.217   2.865  0.2047 -0.3603  0.8183
 2295SOL    HW2 9179   2.799   0.331   2.902  1.9582  1.6280 -0.6718
 2295SOL     MW 9180   2.834   0.279   2.842  0.2996 -0.5287  0.1043
 2296SOL     OW 9181   3.935   0.822   4.767  0.5965  0.1563  0.0012
 2296SOL    HW1 9182   3.916   0.747   4.823 -0.4516  1.0025  0.8342
 2296SOL    HW2 9183   3.959   0.784   4.683 -2.7844 -1.1701 -0.5233
 2296SOL     MW 9184   3.935   0.808   4.763  0.0295  0.0949  0.0407
 2297SOL     OW 9185   2.984   1.923   4.096 -0.2087  0.3325 -0.0149
 2297SOL    HW1 9186   2.942   1.871   4.028 -0.4256 -0.0395  0.4009
 2297SOL    HW2 9187   3.074   1.892   4.098  0.1001  1.1238 -0.8993
 2297SOL     MW 9188   2.990   1.913   4.088 -0.1970  0.3862 -0.0749
 2298SOL     OW 9189   3.096   3.291   4.412  0.1083  0.2266 -0.2768
 2298SOL    HW1 9190   3.117   3.345   4.488 -1.4364  0.7842 -0.2272
 2298SOL    HW2 9191   3.048   3.349   4.354 -0.1250 -0.6459 -0.9752
 2298SOL     MW 9192   3.093   3.305   4.414 -0.1193  0.1863 -0.3599
 2299SOL     OW 9193   0.170   0.396   0.228  0.0123  0.2114 -0.1166
 2299SOL    HW1 9194   0.248   0.364   0.272 -0.4189  0.0742  0.5701
 2299SOL    HW2 9195   0.142   0.324   0.172  0.6555  0.4448 -0.7460
 2299SOL     MW 9196   0.176   0.383   0.227  0.0394  0.2237 -0.1093
 2300SOL     OW 9197   4.259   3.690   1.593 -0.0376 -0.6624 -0.3175
 2300SOL    HW1 9198   4.322   3.714   1.661 -1.7744  0.0274  1.1186
 2300SOL    HW2 9199   4.301   3.716   1.511  0.9986  1.0583  0.6996
 2300SOL     MW 9200   4.272   3.696   1.591 -0.1273 -0.3538 -0.0035
 2301SOL     OW 9201   3.611   2.936   1.288  0.1166  0.0906 -0.0950
 2301SOL    HW1 9202   3.555   2.938   1.365  0.3457  0.1384  0.0704
 2301SOL    HW2 9203   3.699   2.950   1.322  0.2026  0.2424 -0.3800
 2301SOL     MW 9204   3.615   2.938   1.302  0.1570  0.1161 -0.1103
 2302SOL     OW 9205   3.013   1.958   2.398  0.2576  0.7788  0.3145
 2302SOL    HW1 9206   3.006   2.050   2.372  1.2561  0.6276 -0.5191
 2302SOL    HW2 9207   3.077   1.958   2.469 -0.3095  0.8136  0.8358
 2302SOL     MW 9208   3.020   1.970   2.404  0.3128  0.7639  0.2745
 2303SOL     OW 9209   2.760   3.004   1.456 -0.0682  0.0889 -0.6877
 2303SOL    HW1 9210   2.708   2.981   1.379 -0.7563 -1.5364  0.2169
 2303SOL    HW2 9211   2.835   2.945   1.453  0.3706  0.6350 -0.5823
 2303SOL     MW 9212   2.763   2.994   1.446 -0.1002 -0.0492 -0.5584
 2304SOL     OW 9213   2.232   4.329   2.610 -0.3796  0.0824 -0.3386
 2304SOL    HW1 9214   2.268   4.407   2.567 -1.0913  0.6536  0.0986
 2304SOL    HW2 9215   2.306   4.267   2.612 -0.0507  0.4044 -1.4795
 2304SOL     MW 9216   2.246   4.331   2.605 -0.4286  0.1968 -0.4287
 2305SOL     OW 9217   4.941   5.335   4.066  0.1334  0.2306  0.2569
 2305SOL    HW1 9218   5.024   5.383   4.061 -0.9933  2.1757 -1.1213
 2305SOL    HW2 9219   4.963   5.247   4.036  1.6135  0.8365 -0.5885
 2305SOL     MW 9220   4.955   5.330   4.061  0.1787  0.5571 -0.0278
 2306SOL     OW 9221   4.736   1.813   0.209 -0.2559 -0.3353  0.9595
 2306SOL    HW1 9222   4.821   1.823   0.252 -0.0633 -1.2976  0.8170
 2306SOL    HW2 9223   4.735   1.723   0.177 -0.2934  0.4193 -1.3157
 2306SOL     MW 9224   4.747   1.803   0.211 -0.2360 -0.3619  0.6500
 2307SOL     OW 9225   4.231   3.281   2.935 -0.0971  0.2172  0.1438
 2307SOL    HW1 9226   4.259   3.282   2.844  0.9154 -3.1010  0.2854
 2307SOL    HW2 9227   4.145   3.323   2.934  0.9569  2.6048 -1.8085
 2307SOL     MW 9228   4.224   3.287   2.923  0.1675  0.0981 -0.0880
 2308SOL     OW 9229   3.924   1.988   2.727 -0.3163  0.0352  0.0104
 2308SOL    HW1 9230   3.846   2.044   2.732  1.0636  2.0660  0.3412
 2308SOL    HW2 9231   3.983   2.036   2.668  0.8295 -1.2748  0.0396
 2308SOL     MW 9232   3.921   2.002   2.720  0.0070  0.1275  0.0565
 2309SOL     OW 9233   3.412   0.945   5.211 -0.3162  0.3327 -0.1660
 2309SOL    HW1 9234   3.380   0.999   5.139  1.5100  0.3463 -1.0370
 2309SOL    HW2 9235   3.349   0.957   5.281 -1.1292  1.8269 -1.1169
 2309SOL     MW 9236   3.400   0.953   5.210 -0.1865  0.5257 -0.3992
 2310SOL     OW 9237   2.810   2.602   4.680  0.3513 -0.1614  0.0409
 2310SOL    HW1 9238   2.818   2.646   4.595 -1.6527  0.0445 -0.0897
 2310SOL    HW2 9239   2.827   2.670   4.744  0.2757  0.0616 -0.1759
 2310SOL     MW 9240   2.813   2.616   4.677  0.0851 -0.1065 -0.0036
 2311SOL     OW 9241   2.305   0.794   3.944  0.6276 -0.2496 -0.2137
 2311SOL    HW1 9242   2.353   0.785   4.027 -1.3680 -0.5850  0.9667
 2311SOL    HW2 9243   2.370   0.828   3.882  2.3002 -0.4521  1.3567
 2311SOL     MW 9244   2.319   0.797   3.947  0.5863 -0.3184  0.1384
 2312SOL     OW 9245   4.847   2.120   4.277 -0.1709  0.0091 -0.1991
 2312SOL    HW1 9246   4.775   2.177   4.250  0.2739  0.9807  0.6114
 2312SOL    HW2 9247   4.807   2.056   4.336 -0.6452 -0.4387 -0.9933
 2312SOL     MW 9248   4.833   2.119   4.281 -0.1747  0.0762 -0.1970
 2313SOL     OW 9249   3.250   3.419   1.761 -0.0663  0.0011  0.4026
 2313SOL    HW1 9250   3.203   3.342   1.726 -0.0040  0.5759 -1.0221
 2313SOL    HW2 9251   3.300   3.385   1.835 -0.1084 -1.3229 -0.1440
 2313SOL     MW 9252   3.250   3.404   1.766 -0.0637 -0.0948  0.1503
 2314SOL     OW 9253   4.546   4.476   0.068  0.0900 -0.0116 -0.1075
 2314SOL    HW1 9254   4.591   4.436   0.142 -1.5850 -0.4687  0.6955
 2314SOL    HW2 9255   4.458   4.439   0.070  0.1829 -0.6264 -2.7767
 2314SOL     MW 9256   4.541   4.466   0.078 -0.1125 -0.1488 -0.3464
 2315SOL     OW 9257   3.541   4.048   2.288  0.0885 -0.5314  0.2207
 2315SOL    HW1 9258   3.526   3.964   2.244  1.5322 -0.1579 -1.0918
 2315SOL    HW2 9259   3.630   4.042   2.323  0.0009  0.2296  0.6012
 2315SOL     MW 9260   3.551   4.037   2.287  0.2621 -0.3862  0.1014
 2316SOL     OW 9261   1.279   5.138   2.466  0.0484  0.2475 -0.0569
 2316SOL    HW1 9262   1.283   5.233   2.453  1.4119  0.3322  0.8459
 2316SOL    HW2 9263   1.326   5.102   2.390  0.5985  0.3683  0.2166
 2316SOL     MW 9264   1.286   5.145   2.454  0.2933  0.2738  0.0937
 2317SOL     OW 9265   0.112   4.540   1.182 -0.5121  0.2918 -0.2811
 2317SOL    HW1 9266   0.114   4.456   1.229 -0.0131  1.0644  1.1430
 2317SOL    HW2 9267   0.149   4.603   1.244 -0.8440  1.5690 -1.3348
 2317SOL     MW 9268   0.117   4.537   1.196 -0.4907  0.5542 -0.2337
 2318SOL     OW 9269   4.960   5.060   3.018 -0.2869 -0.1591 -0.3403
 2318SOL    HW1 9270   4.913   5.119   2.959  0.5579  2.7734  1.6909
 2318SOL    HW2 9271   4.896   5.037   3.085  0.1661  0.9980  0.5216
 2318SOL     MW 9272   4.946   5.065   3.019 -0.1208  0.3644  0.0300
 2319SOL     OW 9273   2.001   3.929   4.965  0.4310 -0.0549  1.0213
 2319SOL    HW1 9274   1.926   3.987   4.954  1.1341  0.9387  1.3572
 2319SOL    HW2 9275   2.077   3.984   4.947  1.0761 -1.1381  0.3322
 2319SOL     MW 9276   2.001   3.943   4.961  0.6036 -0.0664  0.9761
 2320SOL     OW 9277   0.191   4.457   1.828 -0.0332 -0.1474 -0.2397
 2320SOL    HW1 9278   0.212   4.541   1.869  0.0864  0.0291 -0.6482
 2320SOL    HW2 9279   0.217   4.391   1.892 -2.7074  0.1531  1.2782
 2320SOL     MW 9280   0.197   4.459   1.841 -0.3602 -0.0863 -0.0977
 2321SOL     OW 9281   5.309   3.503   3.575 -0.3676  0.3500 -0.2460
 2321SOL    HW1 9282   5.254   3.427   3.591 -0.5334  0.5124 -0.0248
 2321SOL    HW2 9283   5.268   3.548   3.501 -0.9931  0.8893  0.4040
 2321SOL     MW 9284   5.297   3.499   3.568 -0.4689  0.4398 -0.1345
 2322SOL     OW 9285   0.709   3.874   2.164  0.2738  0.6024  0.8953
 2322SOL    HW1 9286   0.741   3.932   2.094  1.8921  1.1258  2.0264
 2322SOL    HW2 9287   0.788   3.833   2.199 -0.8296 -2.5023  0.0143
 2322SOL     MW 9288   0.723   3.876   2.159  0.3397  0.2720  0.9273
 2323SOL     OW 9289   3.943   0.840   1.754 -0.6839 -0.7761  0.4814
 2323SOL    HW1 9290   3.870   0.791   1.791 -0.1916 -1.3373  0.7293
 2323SOL    HW2 9291   3.978   0.783   1.685 -0.3757 -0.5923  0.4842
 2323SOL     MW 9292   3.938   0.826   1.750 -0.5814 -0.8244  0.5135
 2324SOL     OW 9293   3.824   4.327   3.562 -0.6631 -0.0916 -0.3793
 2324SOL    HW1 9294   3.786   4.352   3.478  0.6970 -0.8867 -1.2884
 2324SOL    HW2 9295   3.809   4.232   3.568 -2.0015  0.1804  0.9730
 2324SOL     MW 9296   3.817   4.318   3.552 -0.6604 -0.1586 -0.3226
 2325SOL     OW 9297   3.207   4.124   0.495 -0.3657 -0.2847 -0.0761
 2325SOL    HW1 9298   3.276   4.189   0.481 -1.2759  1.4220  2.5892
 2325SOL    HW2 9299   3.253   4.040   0.495  1.4546  0.6647  0.0201
 2325SOL     MW 9300   3.222   4.122   0.493 -0.2492  0.0553  0.2774
 2326SOL     OW 9301   3.333   1.202   2.761  0.0293 -0.3616  0.1194
 2326SOL    HW1 9302   3.418   1.165   2.741  0.8337 -0.0504  2.5943
 2326SOL    HW2 9303   3.349   1.296   2.769 -1.0613  0.0180 -1.6770
 2326SOL     MW 9304   3.346   1.210   2.760 -0.0074 -0.2732  0.2063
 2327SOL     OW 9305   4.994   0.405   2.965 -0.4560 -0.7689  0.2416
 2327SOL    HW1 9306   4.919   0.380   2.912 -2.0983 -2.7260  3.2126
 2327SOL    HW2 9307   4.963   0.478   3.018  1.3386  1.5429 -1.6261
 2327SOL     MW 9308   4.981   0.411   2.965 -0.4365 -0.7235  0.3829
 2328SOL     OW 9309   3.894   4.657   5.227  0.0853 -0.1217 -0.4890
 2328SOL    HW1 9310   3.939   4.736   5.257 -0.5128 -0.3885  1.2325
 2328SOL    HW2 9311   3.868   4.677   5.137  0.8826  1.2265 -0.4427
 2328SOL     MW 9312   3.896   4.670   5.219  0.1108  0.0167 -0.2627
 2329SOL     OW 9313   0.593   3.148   3.696 -0.0700 -0.1741 -0.0483
 2329SOL    HW1 9314   0.586   3.054   3.679 -2.7539  0.1781 -1.4297
 2329SOL    HW2 9315   0.523   3.167   3.757  0.2751  0.9865  0.0119
 2329SOL     MW 9316   0.583   3.139   3.701 -0.3694  0.0196 -0.2174
 2330SOL     OW 9317   0.978   4.633   5.103  0.1441 -0.9879 -0.0331
 2330SOL    HW1 9318   0.953   4.570   5.171  0.6125  0.5637  1.6595
 2330SOL    HW2 9319   0.959   4.718   5.142  0.4110 -0.0371 -1.8917
 2330SOL     MW 9320   0.972   4.636   5.117  0.2382 -0.6676 -0.0543
 2331SOL     OW 9321   1.052   3.937   2.102  0.3549 -0.0176  0.1102
 2331SOL    HW1 9322   1.065   3.946   2.196 -0.3628 -1.0421  0.3235
 2331SOL    HW2 9323   1.032   4.025   2.072 -0.1146  0.2021  1.0329
 2331SOL     MW 9324   1.051   3.949   2.110  0.2029 -0.1207  0.2557
 2332SOL     OW 9325   2.355   0.207   2.906 -0.1853  0.0216  0.5945
 2332SOL    HW1 9326   2.366   0.172   2.818  0.9631 -0.9335  1.0925
 2332SOL    HW2 9327   2.281   0.267   2.899  1.5497  2.0890 -1.6302
 2332SOL     MW 9328   2.347   0.210   2.894  0.1838  0.1640  0.3735
 2333SOL     OW 9329   3.766   0.989   0.942  0.1760  0.1125 -0.3503
 2333SOL    HW1 9330   3.674   0.962   0.936  0.4369 -1.1953  0.9700
 2333SOL    HW2 9331   3.765   1.065   1.000  0.1020 -1.1137  1.3199
 2333SOL     MW 9332   3.754   0.995   0.948  0.1999 -0.2119  0.0325
 2334SOL     OW 9333   3.871   1.030   3.875  0.6335  0.7377 -0.0782
 2334SOL    HW1 9334   3.808   1.080   3.928  0.1980 -0.6722  0.7742
 2334SOL    HW2 9335   3.956   1.052   3.912  0.3965  0.3869  0.6956
 2334SOL     MW 9336   3.874   1.039   3.887  0.5474  0.5123  0.1300
 2335SOL     OW 9337   2.167   3.672   2.527 -0.2463 -0.1324  0.0466
 2335SOL    HW1 9338   2.160   3.765   2.545  0.3217 -0.0862  0.0421
 2335SOL    HW2 9339   2.079   3.638   2.541 -0.3327  0.3075  0.5942
 2335SOL     MW 9340   2.155   3.679   2.531 -0.1846 -0.0702  0.1161
 2336SOL     OW 9341   1.867   3.234   1.661  0.1550 -0.2899  0.1750
 2336SOL    HW1 9342   1.790   3.277   1.700 -1.0951 -0.5089 -1.8931
 2336SOL    HW2 9343   1.843   3.142   1.658  1.2200 -0.6102  1.0145
 2336SOL     MW 9344   1.854   3.228   1.666  0.1313 -0.3589  0.0177
 2337SOL     OW 9345   1.165   5.361   0.270 -0.3844 -0.2380  0.1811
 2337SOL    HW1 9346   1.084   5.316   0.244 -0.1934 -0.5484  0.1120
 2337SOL    HW2 9347   1.146   5.454   0.258 -0.8952 -0.2837  0.6431
 2337SOL     MW 9348   1.152   5.367   0.265 -0.4253 -0.2836  0.2314
 2338SOL     OW 9349   5.252   0.515   0.487  0.0137  0.0525  0.0526
 2338SOL    HW1 9350   5.185   0.571   0.448  0.3359  1.0597  0.8979
 2338SOL    HW2 9351   5.333   0.538   0.440 -0.3528 -1.9165 -1.7088
 2338SOL     MW 9352   5.254   0.525   0.476  0.0080 -0.0706 -0.0646
 2339SOL     OW 9353   3.896   3.557   4.387 -0.2733 -0.4637 -0.3345
 2339SOL    HW1 9354   3.934   3.641   4.360  1.4802 -0.9253  0.5271
 2339SOL    HW2 9355   3.970   3.508   4.421 -1.1770 -2.5746 -1.2536
 2339SOL     MW 9356   3.910   3.562   4.388 -0.1645 -0.7930 -0.3419
 2340SOL     OW 9357   0.864   0.301   4.553 -0.1903 -0.6509  0.3474
 2340SOL    HW1 9358   0.864   0.283   4.647 -0.9354  0.2348  0.5319
 2340SOL    HW2 9359   0.920   0.378   4.543  0.9027 -1.4732 -0.1109
 2340SOL     MW 9360   0.871   0.309   4.563 -0.1457 -0.6428  0.3124
 2341SOL     OW 9361   4.762   2.457   1.812  0.6646  0.0951 -0.1156
 2341SOL    HW1 9362   4.792   2.401   1.884  0.7151  0.8716  0.4784
 2341SOL    HW2 9363   4.741   2.396   1.742 -1.5993 -0.8939  1.3058
 2341SOL     MW 9364   4.763   2.442   1.812  0.3813  0.0679  0.1424
 2342SOL     OW 9365   3.664   5.129   5.232  0.2190  0.1846  0.1900
 2342SOL    HW1 9366   3.632   5.062   5.172  0.9557  0.5210 -0.5952
 2342SOL    HW2 9367   3.596   5.197   5.230 -0.3742 -0.3796  0.7413
 2342SOL     MW 9368   3.651   5.129   5.224  0.2373  0.1554  0.1601
 2343SOL     OW 9369   4.299   0.270   2.754  0.5035  0.4179  0.1021
 2343SOL    HW1 9370   4.326   0.358   2.729 -1.0459  0.9438  0.1637
 2343SOL    HW2 9371   4.285   0.274   2.849 -0.7473  0.4709 -0.0626
 2343SOL     MW 9372   4.301   0.282   2.763  0.1451  0.4920  0.0889
 2344SOL     OW 9373   5.099   4.633   1.716  0.5268  0.1661  0.4196
 2344SOL    HW1 9374   5.031   4.694   1.745 -1.1763 -1.0372 -0.7416
 2344SOL    HW2 9375   5.094   4.560   1.778  1.4588  0.4919  0.8922
 2344SOL     MW 9376   5.089   4.631   1.727  0.4281  0.0538  0.3314
 2345SOL     OW 9377   4.513   0.961   1.567 -0.7194 -0.2561 -0.2513
 2345SOL    HW1 9378   4.427   1.002   1.580 -0.9005 -0.9107  0.7276
 2345SOL    HW2 9379   4.496   0.888   1.507 -1.1941 -1.4083  1.2165
 2345SOL     MW 9380   4.500   0.957   1.561 -0.8033 -0.4874  0.0619
 2346SOL     OW 9381   0.204   1.243   0.248  0.3281 -0.3640 -0.1600
 2346SOL    HW1 9382   0.141   1.306   0.212  0.4388  0.3652  0.9015
 2346SOL    HW2 9383   0.177   1.159   0.211  0.4883  0.3526 -2.0196
 2346SOL     MW 9384   0.193   1.241   0.238  0.3628 -0.1789 -0.2622
 2347SOL     OW 9385   0.742   0.370   2.690 -0.3157  0.4278 -0.1031
 2347SOL    HW1 9386   0.774   0.460   2.684 -2.4378  1.2635  0.3039
 2347SOL    HW2 9387   0.659   0.371   2.643  0.5663 -1.8660 -1.9204
 2347SOL     MW 9388   0.735   0.382   2.683 -0.4745  0.2412 -0.2836
 2348SOL     OW 9389   0.043   2.219   4.858  0.6367  0.2641  0.8282
 2348SOL    HW1 9390   0.030   2.193   4.767  0.5653  2.7322  0.0508
 2348SOL    HW2 9391  -0.021   2.167   4.907 -1.3798  0.9584 -0.9206
 2348SOL     MW 9392   0.033   2.209   4.853  0.3694  0.6689  0.5048
 2349SOL     OW 9393   1.410   2.261   0.686 -0.3974  0.0456  0.5287
 2349SOL    HW1 9394   1.335   2.315   0.663 -0.6596  0.3294  1.9566
 2349SOL    HW2 9395   1.454   2.245   0.603 -1.6595  0.4255 -0.2474
 2349SOL     MW 9396   1.406   2.266   0.673 -0.5925  0.1306  0.6121
 2350SOL     OW 9397   2.586   2.616   5.337  0.2071 -0.9566 -0.7108
 2350SOL    HW1 9398   2.515   2.594   5.277  1.7498 -1.4982 -2.4247
 2350SOL    HW2 9399   2.601   2.709   5.324  1.3236 -1.2994 -2.1263
 2350SOL     MW 9400   2.579   2.625   5.328  0.5475 -1.0698 -1.1114
 2351SOL     OW 9401   5.194   5.128   3.165 -0.1762 -0.1774  0.4270
 2351SOL    HW1 9402   5.118   5.094   3.119 -0.2790 -0.8888  1.0952
 2351SOL    HW2 9403   5.188   5.223   3.155 -0.2898 -0.3048 -0.8451
 2351SOL     MW 9404   5.184   5.136   3.158 -0.2039 -0.2848  0.3497
 2352SOL     OW 9405   4.100   1.351   1.689 -0.3194  0.4879  0.2022
 2352SOL    HW1 9406   4.027   1.321   1.744  0.3288  0.0811  0.8468
 2352SOL    HW2 9407   4.176   1.305   1.723  0.1286  0.3946 -0.9119
 2352SOL     MW 9408   4.100   1.342   1.700 -0.1791  0.4239  0.1421
 2353SOL     OW 9409   0.956   1.587   3.793  0.1170 -0.6342  0.1018
 2353SOL    HW1 9410   0.944   1.639   3.872  0.2282  1.5945 -1.2756
 2353SOL    HW2 9411   0.895   1.514   3.803 -0.5002  0.0735  1.8297
 2353SOL     MW 9412   0.947   1.584   3.804  0.0523 -0.2583  0.1467
 2354SOL     OW 9413   0.968   3.958   3.759 -0.4329  0.0788  0.4605
 2354SOL    HW1 9414   1.038   3.899   3.730 -0.5492  0.0949  0.1443
 2354SOL    HW2 9415   0.925   3.986   3.678 -2.4915 -2.0088  0.7230
 2354SOL     MW 9416   0.971   3.954   3.745 -0.7113 -0.1864  0.4536
 2355SOL     OW 9417   2.387   1.274   0.549  0.5170  0.1970  0.3943
 2355SOL    HW1 9418   2.473   1.272   0.508  0.0642  0.3233 -0.5738
 2355SOL    HW2 9419   2.399   1.226   0.631  1.1881 -0.9496 -0.3496
 2355SOL     MW 9420   2.400   1.268   0.554  0.5450  0.0664  0.1751
 2356SOL     OW 9421   1.646   3.018   0.060  0.5276  0.2752  0.1410
 2356SOL    HW1 9422   1.585   3.075   0.012  0.3526 -1.0331 -1.2815
 2356SOL    HW2 9423   1.589   2.961   0.112  0.5253 -0.7181 -0.9233
 2356SOL     MW 9424   1.631   3.018   0.060  0.5049 -0.0194 -0.1773
 2357SOL     OW 9425   0.356   0.920   2.205 -0.2188 -0.4271 -0.1613
 2357SOL    HW1 9426   0.350   0.847   2.144 -0.5524 -1.0240  0.5636
 2357SOL    HW2 9427   0.431   0.899   2.261  1.1381  0.9339 -1.3853
 2357SOL     MW 9428   0.365   0.908   2.204 -0.0878 -0.3292 -0.2252
 2358SOL     OW 9429   3.558   1.262   0.949 -0.1180 -0.0111 -0.2671
 2358SOL    HW1 9430   3.507   1.200   1.000 -1.2103  0.0639 -1.2283
 2358SOL    HW2 9431   3.546   1.234   0.858  1.0104  0.4171 -0.5681
 2358SOL     MW 9432   3.550   1.250   0.943 -0.1134  0.0533 -0.4287
 2359SOL     OW 9433   0.796   0.341   1.416 -0.5253  0.5930 -0.2316
 2359SOL    HW1 9434   0.731   0.408   1.440 -1.3244 -0.2310 -0.0592
 2359SOL    HW2 9435   0.752   0.287   1.351  0.7511  1.2943 -1.7619
 2359SOL     MW 9436   0.782   0.343   1.411 -0.4642  0.5773 -0.4054
 2360SOL     OW 9437   1.866   2.588   2.567 -0.0399  0.0531  0.6897
 2360SOL    HW1 9438   1.939   2.650   2.566  1.2540 -1.4114 -1.0819
 2360SOL    HW2 9439   1.898   2.515   2.620  0.2094 -1.0305 -0.8951
 2360SOL     MW 9440   1.879   2.587   2.574  0.1576 -0.2731  0.2601
 2361SOL     OW 9441   1.591   5.200   0.165 -0.0053  0.4363  0.5813
 2361SOL    HW1 9442   1.498   5.211   0.145 -0.2312 -1.5091  0.3157
 2361SOL    HW2 9443   1.632   5.280   0.133 -1.2794  0.3101 -1.5575
 2361SOL     MW 9444   1.584   5.212   0.158 -0.1973  0.1711  0.2735
 2362SOL     OW 9445   4.417   4.864   3.511  0.0527  0.1497 -0.3715
 2362SOL    HW1 9446   4.457   4.894   3.430 -0.6316 -0.4424 -0.9470
 2362SOL    HW2 9447   4.327   4.841   3.486  0.7515 -3.1928 -0.1962
 2362SOL     MW 9448   4.410   4.865   3.498  0.0546 -0.3540 -0.4227
 2363SOL     OW 9449   2.028   1.420   4.471  0.7288 -0.0142  0.3358
 2363SOL    HW1 9450   1.935   1.425   4.494  0.7061  1.5690 -0.0032
 2363SOL    HW2 9451   2.029   1.383   4.383  0.3348  0.7718 -0.0143
 2363SOL     MW 9452   2.016   1.416   4.463  0.6755  0.2890  0.2476
 2364SOL     OW 9453   4.874   0.683   0.217 -0.6365 -0.3035  0.0075
 2364SOL    HW1 9454   4.854   0.660   0.127 -1.1870 -0.7795  0.2440
 2364SOL    HW2 9455   4.816   0.628   0.270 -1.1687  0.8156  0.6255
 2364SOL     MW 9456   4.864   0.673   0.212 -0.7751 -0.2212  0.1169
 2365SOL     OW 9457   4.779   3.081   2.612  0.0253  0.1275  0.1021
 2365SOL    HW1 9458   4.740   3.002   2.575  1.1247 -0.9692  1.1744
 2365SOL    HW2 9459   4.863   3.089   2.567  0.9064 -0.6230  1.5190
 2365SOL     MW 9460   4.785   3.072   2.602  0.2788 -0.1089  0.4207
 2366SOL     OW 9461   4.510   4.697   1.179  0.4253  0.4915  0.2473
 2366SOL    HW1 9462   4.426   4.672   1.139 -0.6552  2.0171  1.4227
 2366SOL    HW2 9463   4.534   4.623   1.233 -0.4930  0.2663  0.3675
 2366SOL     MW 9464   4.502   4.685   1.181  0.1695  0.6580  0.4131
 2367SOL     OW 9465   0.200   2.924   4.235 -0.6496 -0.9084 -0.3222
 2367SOL    HW1 9466   0.215   2.927   4.140 -0.7774 -0.2348 -0.3276
 2367SOL    HW2 9467   0.148   2.845   4.248 -1.4902 -0.4761 -0.9465
 2367SOL     MW 9468   0.195   2.914   4.224 -0.7736 -0.7669 -0.4028
 2368SOL     OW 9469   4.294   4.884   2.970  0.1233  0.2371 -0.9355
 2368SOL    HW1 9470   4.387   4.879   2.988 -0.1933  0.4567  0.9411
 2368SOL    HW2 9471   4.253   4.826   3.035 -1.0568  0.2575 -1.6263
 2368SOL     MW 9472   4.300   4.876   2.980 -0.0683  0.2678 -0.7837
 2369SOL     OW 9473   4.029   1.981   4.790  0.3381  0.3726 -0.3663
 2369SOL    HW1 9474   4.026   1.950   4.700 -0.9099  1.6388 -0.7910
 2369SOL    HW2 9475   4.019   1.901   4.843 -0.3391 -0.2420 -1.3761
 2369SOL     MW 9476   4.027   1.966   4.785  0.0917  0.4560 -0.5500
 2370SOL     OW 9477   1.225   4.813   5.291  0.3149  0.1145  0.0698
 2370SOL    HW1 9478   1.275   4.749   5.342  1.4153  0.3587 -0.6543
 2370SOL    HW2 9479   1.198   4.879   5.355  0.5545 -0.2481  0.5529
 2370SOL     MW 9480   1.228   4.813   5.306  0.4864  0.0993  0.0390
 2371SOL     OW 9481   3.819   1.212   0.499  0.3565 -0.6333 -0.5831
 2371SOL    HW1 9482   3.728   1.237   0.485  0.4426 -1.0074 -1.9409
 2371SOL    HW2 9483   3.846   1.262   0.576 -0.8102 -0.0564 -0.5294
 2371SOL     MW 9484   3.811   1.221   0.507  0.2182 -0.6074 -0.7500
 2372SOL     OW 9485   3.904   0.710   0.698  0.4983  0.1489  0.0565
 2372SOL    HW1 9486   3.882   0.663   0.617  3.7929 -1.6113 -0.0098
 2372SOL    HW2 9487   3.889   0.802   0.677  0.4151 -0.3207 -2.2846
 2372SOL     MW 9488   3.899   0.716   0.685  0.9094 -0.1365 -0.2517
 2373SOL     OW 9489   1.286   4.177   2.375 -0.3515  0.0169  0.1990
 2373SOL    HW1 9490   1.218   4.195   2.440 -0.9668  0.9908 -0.6884
 2373SOL    HW2 9491   1.342   4.112   2.417 -1.6216 -0.5460  1.0932
 2373SOL     MW 9492   1.285   4.171   2.389 -0.5928  0.0695  0.1999
 2374SOL     OW 9493   0.276   3.790   5.102  0.2071  0.3195 -0.4776
 2374SOL    HW1 9494   0.231   3.758   5.024 -1.0182  0.8976 -0.0316
 2374SOL    HW2 9495   0.338   3.720   5.124 -0.1382 -0.2907 -1.3861
 2374SOL     MW 9496   0.279   3.777   5.095  0.0061  0.3154 -0.5368
 2375SOL     OW 9497   3.565   1.561   3.297  0.2925  0.1988  0.1266
 2375SOL    HW1 9498   3.636   1.575   3.360  0.2248 -0.4628  0.3604
 2375SOL    HW2 9499   3.502   1.507   3.345  0.0049  0.1170 -0.3435
 2375SOL     MW 9500   3.566   1.556   3.312  0.2470  0.1036  0.0963
 2376SOL     OW 9501   2.460   3.833   0.627 -0.6455  0.0407 -0.3679
 2376SOL    HW1 9502   2.451   3.813   0.534  0.5919  0.4549 -0.5997
 2376SOL    HW2 9503   2.554   3.827   0.644 -0.9191 -0.8621  1.0577
 2376SOL     MW 9504   2.471   3.830   0.617 -0.5221 -0.0219 -0.2150
 2377SOL     OW 9505   4.292   4.072   0.577  0.1755 -0.2909 -0.1646
 2377SOL    HW1 9506   4.330   4.141   0.523 -1.2974  1.0538  0.4197
 2377SOL    HW2 9507   4.201   4.100   0.591 -0.1590 -1.8113  1.0039
 2377SOL     MW 9508   4.285   4.084   0.572 -0.0559 -0.3134  0.0598
 2378SOL     OW 9509   4.487   2.026   1.834  0.1144 -0.2421  0.3665
 2378SOL    HW1 9510   4.526   2.083   1.900  2.0544 -1.4355  0.3115
 2378SOL    HW2 9511   4.471   1.943   1.879  1.3605 -1.0382 -0.5980
 2378SOL     MW 9512   4.490   2.023   1.848  0.5223 -0.4968  0.2360
 2379SOL     OW 9513   2.587   3.020   3.722 -0.3511  0.1408  0.2059
 2379SOL    HW1 9514   2.600   2.946   3.663  2.3581  0.2257  0.5585
 2379SOL    HW2 9515   2.532   3.081   3.673 -1.0953 -1.2884 -0.8107
 2379SOL     MW 9516   2.581   3.018   3.708 -0.0996 -0.0313  0.1209
 2380SOL     OW 9517   3.467   0.926   4.396  0.1265 -0.4370  0.2783
 2380SOL    HW1 9518   3.486   0.866   4.324  0.7120  0.0703 -0.0007
 2380SOL    HW2 9519   3.372   0.921   4.406  0.2047 -1.8023  0.6143
 2380SOL     MW 9520   3.458   0.917   4.388  0.2114 -0.5468  0.2856
 2381SOL     OW 9521   0.843   3.977   4.736 -0.4128 -0.2566  0.1143
 2381SOL    HW1 9522   0.835   3.963   4.642  1.1681  1.0300 -0.2693
 2381SOL    HW2 9523   0.898   3.905   4.767  1.1734  0.6720 -0.4355
 2381SOL     MW 9524   0.849   3.966   4.728 -0.0074  0.0270 -0.0052
 2382SOL     OW 9525   3.781   1.105   4.567 -0.2323  0.5711 -0.4228
 2382SOL    HW1 9526   3.809   1.186   4.526 -2.1944  1.3634 -0.2966
 2382SOL    HW2 9527   3.721   1.065   4.505 -0.7764  0.1857  0.3273
 2382SOL     MW 9528   3.777   1.110   4.554 -0.5532  0.6232 -0.3106
 2383SOL     OW 9529   5.174   3.368   0.599 -0.1787  0.5780  0.3908
 2383SOL    HW1 9530   5.268   3.382   0.606 -0.1559  0.3088  0.6040
 2383SOL    HW2 9531   5.156   3.290   0.651 -0.3123 -0.1837 -0.7546
 2383SOL     MW 9532   5.183   3.360   0.606 -0.1929  0.4460  0.2715
 2384SOL     OW 9533   3.869   1.480   2.999  0.1478 -0.0865  0.4785
 2384SOL    HW1 9534   3.839   1.571   3.002 -0.1017 -0.0228 -1.9715
 2384SOL    HW2 9535   3.797   1.433   2.956  1.0788 -1.0713 -0.0419
 2384SOL     MW 9536   3.856   1.486   2.994  0.2350 -0.2044  0.0982
 2385SOL     OW 9537   3.701   3.023   2.050 -0.1831 -0.0140  0.0716
 2385SOL    HW1 9538   3.682   2.952   2.111 -0.9393 -0.0681 -0.2226
 2385SOL    HW2 9539   3.784   2.997   2.009 -0.6477 -0.9398 -0.3284
 2385SOL     MW 9540   3.709   3.011   2.053 -0.3394 -0.1394 -0.0172
 2386SOL     OW 9541   1.398   2.308   4.520  0.1255  0.0276  0.4365
 2386SOL    HW1 9542   1.410   2.399   4.491  2.5061 -0.2603  0.3706
 2386SOL    HW2 9543   1.307   2.305   4.551  0.1707  2.5902  1.0407
 2386SOL     MW 9544   1.388   2.319   4.520  0.4360  0.3188  0.5054
 2387SOL     OW 9545   2.793   4.929   3.509  0.2700  0.3293  0.2890
 2387SOL    HW1 9546   2.822   4.840   3.530 -0.3588 -0.2489 -1.1544
 2387SOL    HW2 9547   2.863   4.986   3.541  1.1184 -0.7577  0.4034
 2387SOL     MW 9548   2.806   4.925   3.515  0.2981  0.1161  0.1188
 2388SOL     OW 9549   0.714   0.923   2.626 -0.9078  0.5551 -0.0490
 2388SOL    HW1 9550   0.763   1.000   2.654  0.5015 -0.5244  0.6047
 2388SOL    HW2 9551   0.675   0.890   2.707 -0.4775 -0.0922 -0.0990
 2388SOL     MW 9552   0.715   0.929   2.640 -0.6723  0.3341  0.0283
 2389SOL     OW 9553   4.432   2.697   5.261 -0.2210 -0.3225 -0.3927
 2389SOL    HW1 9554   4.424   2.602   5.258 -1.7401 -0.1997 -1.0557
 2389SOL    HW2 9555   4.461   2.716   5.350  2.2761 -1.5066 -0.8607
 2389SOL     MW 9556   4.435   2.687   5.272 -0.0958 -0.4583 -0.5375
 2390SOL     OW 9557   1.101   0.590   2.388  0.3602  0.2414 -0.1471
 2390SOL    HW1 9558   1.038   0.578   2.316 -0.0721  0.9517  0.1002
 2390SOL    HW2 9559   1.070   0.669   2.433  1.4099  0.5729  0.0084
 2390SOL     MW 9560   1.089   0.599   2.384  0.4392  0.3747 -0.0955
 2391SOL     OW 9561   0.972   1.819   0.872  0.3553  0.6168  0.5301
 2391SOL    HW1 9562   0.984   1.869   0.953  1.0097  2.1338 -0.4689
 2391SOL    HW2 9563   0.981   1.883   0.802 -1.8019 -0.3278 -0.7412
 2391SOL     MW 9564   0.974   1.833   0.873  0.1629  0.6900  0.2395
 2392SOL     OW 9565   4.797   1.370   2.956  0.5860 -0.3888 -0.4524
 2392SOL    HW1 9566   4.882   1.404   2.984 -0.5387  2.2097  0.1866
 2392SOL    HW2 9567   4.758   1.442   2.905 -1.9207 -0.7812  0.7415
 2392SOL     MW 9568   4.803   1.384   2.953  0.1211 -0.1064 -0.2178
 2393SOL     OW 9569   2.843   0.435   3.068 -0.2760  0.2461  0.0834
 2393SOL    HW1 9570   2.928   0.453   3.026  0.2158  3.8570  2.1397
 2393SOL    HW2 9571   2.867   0.404   3.155 -1.1666 -1.4740 -0.2645
 2393SOL     MW 9572   2.857   0.434   3.074 -0.3270  0.4881  0.3021
 2394SOL     OW 9573   2.301   2.258   3.664 -0.0625  0.7448  0.1502
 2394SOL    HW1 9574   2.321   2.167   3.685 -1.3634  0.3736 -0.0861
 2394SOL    HW2 9575   2.237   2.284   3.730  0.3367  1.5069  0.2392
 2394SOL     MW 9576   2.295   2.249   3.675 -0.1779  0.7948  0.1313
 2395SOL     OW 9577   3.340   4.063   1.839 -0.1725  0.3146  0.0459
 2395SOL    HW1 9578   3.370   4.132   1.899  1.3339  0.7731 -1.1555
 2395SOL    HW2 9579   3.262   4.099   1.798  0.0799  0.9504  0.1103
 2395SOL     MW 9580   3.334   4.077   1.841  0.0527  0.4547 -0.0997
 2396SOL     OW 9581   5.092   4.827   3.009  0.1835 -0.5092  0.2363
 2396SOL    HW1 9582   5.138   4.817   2.926  0.4481 -0.8643  0.4217
 2396SOL    HW2 9583   5.043   4.909   3.000  2.3639  0.9518  0.7527
 2396SOL     MW 9584   5.092   4.836   2.997  0.4965 -0.3676  0.3261
 2397SOL     OW 9585   3.030   2.176   0.558 -0.4078  0.2891 -0.1226
 2397SOL    HW1 9586   2.987   2.183   0.644  0.5741 -0.6140  0.4678
 2397SOL    HW2 9587   2.970   2.221   0.498 -1.0668  1.0482  1.0437
 2397SOL     MW 9588   3.017   2.183   0.562 -0.3664  0.2707  0.1023
 2398SOL     OW 9589   0.318   3.431   2.225 -0.0890 -0.1844 -0.0843
 2398SOL    HW1 9590   0.371   3.374   2.170  0.2687  0.3983 -0.3532
 2398SOL    HW2 9591   0.237   3.445   2.175 -0.9421 -1.8708  0.7574
 2398SOL     MW 9592   0.315   3.426   2.212 -0.1524 -0.3257 -0.0110
 2399SOL     OW 9593   5.058   3.224   2.049 -0.0620 -1.0260  0.2217
 2399SOL    HW1 9594   5.111   3.145   2.060  2.5560  0.1492 -2.4932
 2399SOL    HW2 9595   4.979   3.194   2.003  0.2902 -2.2302  0.3672
 2399SOL     MW 9596   5.055   3.210   2.044  0.3182 -1.0297 -0.1072
 2400SOL     OW 9597   5.265   4.841   0.200  0.2845  0.0787 -0.0308
 2400SOL    HW1 9598   5.195   4.805   0.254  0.3727  1.4703  1.0738
 2400SOL    HW2 9599   5.343   4.833   0.254  1.1173 -1.7824 -1.3839
 2400SOL     MW 9600   5.266   4.835   0.214  0.4024  0.0186 -0.0626
 2401SOL     OW 9601   0.796   2.575   0.745 -0.4946  0.4193 -0.4935
 2401SOL    HW1 9602   0.718   2.557   0.797 -0.0661 -1.2788 -0.3839
 2401SOL    HW2 9603   0.837   2.489   0.732 -0.1734  0.8651 -2.9942
 2401SOL     MW 9604   0.791   2.562   0.750 -0.3987  0.2590 -0.7996
 2402SOL     OW 9605   5.266   0.632   2.107  0.4735 -0.3498  0.2445
 2402SOL    HW1 9606   5.222   0.649   2.191  0.0399  0.6463 -0.1617
 2402SOL    HW2 9607   5.301   0.544   2.115  1.1176  0.0214  1.7741
 2402SOL     MW 9608   5.265   0.623   2.119  0.5005 -0.1748  0.3883
 2403SOL     OW 9609   4.920   3.412   5.163 -0.1779 -0.5125 -0.3549
 2403SOL    HW1 9610   4.899   3.435   5.073  0.1564  1.6969  0.0655
 2403SOL    HW2 9611   4.837   3.383   5.201 -0.4724 -0.7303 -1.1491
 2403SOL     MW 9612   4.907   3.411   5.157 -0.1728 -0.2575 -0.4028
 2404SOL     OW 9613   2.256   1.911   4.979  0.0000  0.0218 -0.2238
 2404SOL    HW1 9614   2.224   1.821   4.971  0.4977 -0.1510 -0.3096
 2404SOL    HW2 9615   2.307   1.925   4.899 -2.5588  1.4261 -1.7782
 2404SOL     MW 9616   2.258   1.901   4.968 -0.2638  0.1795 -0.4337
 2405SOL     OW 9617   0.853   5.442   1.572 -0.5321 -0.2895  0.3244
 2405SOL    HW1 9618   0.908   5.520   1.575 -0.7714 -0.1389  0.8036
 2405SOL    HW2 9619   0.915   5.369   1.563 -0.3197 -0.0349 -0.3287
 2405SOL     MW 9620   0.868   5.443   1.571 -0.5355 -0.2377  0.3021
 2406SOL     OW 9621   2.995   0.465   4.990 -0.3651  0.1782  0.0417
 2406SOL    HW1 9622   2.959   0.520   4.920 -0.5833  0.3601  0.2963
 2406SOL    HW2 9623   3.022   0.527   5.058 -0.7060 -0.0374  0.3729
 2406SOL     MW 9624   2.994   0.480   4.990 -0.4367  0.1739  0.1167
 2407SOL     OW 9625   2.617   0.765   2.233  0.1651  0.0134 -0.6175
 2407SOL    HW1 9626   2.625   0.694   2.297 -1.1356 -0.2665 -0.7389
 2407SOL    HW2 9627   2.534   0.808   2.255  1.1985  1.8764 -0.1865
 2407SOL     MW 9628   2.607   0.761   2.244  0.1309  0.2161 -0.5779
 2408SOL     OW 9629   4.346   3.848   1.366  0.1883 -0.3558  0.5820
 2408SOL    HW1 9630   4.302   3.775   1.322  0.2046 -0.1836  0.2753
 2408SOL    HW2 9631   4.439   3.835   1.348  0.0872  0.6281 -0.8839
 2408SOL     MW 9632   4.352   3.837   1.358  0.1775 -0.2078  0.3551
 2409SOL     OW 9633   0.008   3.987   0.737 -0.5179  0.0222 -0.0459
 2409SOL    HW1 9634  -0.074   3.940   0.717 -0.0628 -0.9760  0.3688
 2409SOL    HW2 9635   0.070   3.955   0.672  0.2332 -1.1964  1.2281
 2409SOL     MW 9636   0.005   3.977   0.726 -0.3635 -0.2616  0.1703
 2410SOL     OW 9637   4.371   1.949   1.267  0.1583 -0.0223 -0.3109
 2410SOL    HW1 9638   4.282   1.923   1.291  1.3064 -1.4471  2.9194
 2410SOL    HW2 9639   4.375   2.042   1.286 -0.8118  0.2334 -1.2320
 2410SOL     MW 9640   4.360   1.957   1.272  0.1811 -0.1719 -0.0153
 2411SOL     OW 9641   2.174   0.726   0.729  0.3142 -0.5003 -0.5388
 2411SOL    HW1 9642   2.136   0.811   0.752  2.5043 -0.0858  1.9677
 2411SOL    HW2 9643   2.113   0.663   0.766 -0.4288 -0.0082 -0.8819
 2411SOL     MW 9644   2.161   0.729   0.736  0.4995 -0.3842 -0.2619
 2412SOL     OW 9645   4.434   1.408   2.478  0.3091  0.1484  0.5073
 2412SOL    HW1 9646   4.468   1.474   2.418  1.1117  0.0574  0.8540
 2412SOL    HW2 9647   4.438   1.449   2.564 -0.7323  0.2365  0.5335
 2412SOL     MW 9648   4.439   1.422   2.481  0.2785  0.1480  0.5551
 2413SOL     OW 9649   3.667   4.980   1.335  0.1669  0.2093  0.9815
 2413SOL    HW1 9650   3.613   5.056   1.315  0.0133 -0.3040 -0.6861
 2413SOL    HW2 9651   3.606   4.906   1.337  0.7096 -0.3190 -0.5534
 2413SOL     MW 9652   3.652   4.980   1.333  0.2167  0.0760  0.5716
 2414SOL     OW 9653   4.539   4.557   2.989  0.0094 -0.0285 -0.1460
 2414SOL    HW1 9654   4.548   4.463   3.005  3.2508 -0.1183 -1.6937
 2414SOL    HW2 9655   4.538   4.565   2.894 -1.1201  1.4945 -0.0471
 2414SOL     MW 9656   4.540   4.546   2.979  0.2797  0.1550 -0.3315
 2415SOL     OW 9657   4.908   5.374   3.265 -0.0266  0.3110  0.5068
 2415SOL    HW1 9658   4.910   5.417   3.179 -0.4403  0.4971  0.5891
 2415SOL    HW2 9659   4.817   5.382   3.294 -0.5828 -2.1583 -0.2647
 2415SOL     MW 9660   4.896   5.380   3.258 -0.1507  0.0187  0.4186
 2416SOL     OW 9661   0.895   4.295   4.782  0.4272 -0.2648  0.0614
 2416SOL    HW1 9662   0.898   4.237   4.857  1.3763  0.5169  0.6530
 2416SOL    HW2 9663   0.983   4.291   4.744  0.8398  1.5260  0.7234
 2416SOL     MW 9664   0.907   4.287   4.786  0.6015  0.0645  0.2219
 2417SOL     OW 9665   4.193   1.875   4.000  0.0218 -1.2261 -0.5053
 2417SOL    HW1 9666   4.109   1.920   3.986  0.3097 -0.4914  0.0626
 2417SOL    HW2 9667   4.188   1.844   4.091  1.2770  0.8580  0.3372
 2417SOL     MW 9668   4.181   1.877   4.010  0.2193 -0.8653 -0.3247
 2418SOL     OW 9669   0.478   3.607   5.121 -0.2898  0.0725  0.1951
 2418SOL    HW1 9670   0.447   3.538   5.062 -0.8401  0.2240  0.3044
 2418SOL    HW2 9671   0.481   3.564   5.207 -3.3163  0.8901  0.8086
 2418SOL     MW 9672   0.475   3.592   5.125 -0.7477  0.1966  0.2876
 2419SOL     OW 9673   3.344   1.478   3.028 -0.0505  0.5477  0.0951
 2419SOL    HW1 9674   3.374   1.478   3.119 -0.5173 -0.6489  0.2683
 2419SOL    HW2 9675   3.256   1.517   3.032  0.2812  1.3141  0.0197
 2419SOL     MW 9676   3.336   1.483   3.040 -0.0678  0.4926  0.1076
 2420SOL     OW 9677   4.477   4.519   2.409 -0.0772  0.6490 -0.3463
 2420SOL    HW1 9678   4.535   4.594   2.392 -1.1945  1.5671 -0.2377
 2420SOL    HW2 9679   4.407   4.528   2.344 -0.5502  0.0400  0.0692
 2420SOL     MW 9680   4.475   4.530   2.399 -0.2808  0.6886 -0.2792
 2421SOL     OW 9681   3.110   1.559   0.990  0.0678  0.5513  0.1110
 2421SOL    HW1 9682   3.054   1.482   0.996  1.2930 -0.2740  1.5459
 2421SOL    HW2 9683   3.195   1.526   0.960  0.8854  1.1637  1.6478
 2421SOL     MW 9684   3.114   1.545   0.987  0.3293  0.5240  0.4914
 2422SOL     OW 9685   2.838   1.121   5.267 -0.0142  0.5669  0.2651
 2422SOL    HW1 9686   2.868   1.032   5.289  4.0983  2.1142  1.8687
 2422SOL    HW2 9687   2.874   1.138   5.180 -1.4566  0.4591 -0.3760
 2422SOL     MW 9688   2.847   1.112   5.259  0.3276  0.7512  0.3883
 2423SOL     OW 9689   3.789   0.477   2.753 -0.3344 -0.7760 -0.4418
 2423SOL    HW1 9690   3.866   0.447   2.705  0.9775  1.2138  0.2647
 2423SOL    HW2 9691   3.769   0.405   2.813  0.4375 -1.6862 -1.2459
 2423SOL     MW 9692   3.797   0.464   2.755 -0.0677 -0.6378 -0.4543
 2424SOL     OW 9693   4.672   3.267   0.678  0.0087 -0.0115 -0.5443
 2424SOL    HW1 9694   4.738   3.249   0.744  0.7742  0.6852 -1.0981
 2424SOL    HW2 9695   4.706   3.227   0.598 -1.2559 -1.5040 -0.3874
 2424SOL     MW 9696   4.685   3.259   0.676 -0.0552 -0.1133 -0.5951
 2425SOL     OW 9697   2.645   4.145   4.887  0.1585 -0.0169 -0.0248
 2425SOL    HW1 9698   2.644   4.202   4.964 -0.4394 -0.6695  0.4637
 2425SOL    HW2 9699   2.617   4.060   4.920  1.5858 -0.7526 -0.6307
 2425SOL     MW 9700   2.642   4.142   4.901  0.2647 -0.1946 -0.0398
 2426SOL     OW 9701   3.020   1.867   1.465 -0.4993 -0.3049 -0.0098
 2426SOL    HW1 9702   3.020   1.792   1.524 -1.3566  0.5683  1.1473
 2426SOL    HW2 9703   2.947   1.852   1.406 -0.2826 -0.6750 -0.1869
 2426SOL     MW 9704   3.011   1.855   1.465 -0.5813 -0.2405  0.1157
 2427SOL     OW 9705   0.935   2.191   3.476 -0.7686 -0.5471 -0.0115
 2427SOL    HW1 9706   0.840   2.180   3.478 -0.8518  0.0601  2.4587
 2427SOL    HW2 9707   0.969   2.101   3.480 -1.2057 -0.7737 -1.0191
 2427SOL     MW 9708   0.927   2.178   3.476 -0.8352 -0.4984  0.1757
 2428SOL     OW 9709   5.252   4.416   4.589  0.0214 -0.0562 -0.7257
 2428SOL    HW1 9710   5.335   4.399   4.544 -0.0535 -1.4241 -0.3845
 2428SOL    HW2 9711   5.232   4.335   4.635 -0.6250  0.8251  0.6347
 2428SOL     MW 9712   5.260   4.404   4.589 -0.0709 -0.1185 -0.5078
 2429SOL     OW 9713   2.877   4.716   1.786  0.3054  0.3967  0.0270
 2429SOL    HW1 9714   2.830   4.678   1.860  0.2288  0.8114  0.1965
 2429SOL    HW2 9715   2.939   4.777   1.827  1.4630 -0.6399 -0.1538
 2429SOL     MW 9716   2.879   4.719   1.801  0.4438  0.3171  0.0256
 2430SOL     OW 9717   5.387   4.475   2.589 -0.5171 -0.1349  0.1650
 2430SOL    HW1 9718   5.323   4.505   2.654  0.3202  1.1387  0.4408
 2430SOL    HW2 9719   5.377   4.380   2.588 -0.3892 -0.2300  2.3657
 2430SOL     MW 9720   5.377   4.466   2.597 -0.3935  0.0160  0.4820
 2431SOL     OW 9721   2.595   3.476   1.372 -0.0287 -0.3751  0.3482
 2431SOL    HW1 9722   2.576   3.559   1.416 -0.9598  0.0454 -0.7709
 2431SOL    HW2 9723   2.585   3.410   1.440 -0.8864  0.2939  0.9018
 2431SOL     MW 9724   2.591   3.478   1.386 -0.2576 -0.2356  0.2758
 2432SOL     OW 9725   1.943   4.467   1.852 -0.1065  0.2301  0.3040
 2432SOL    HW1 9726   1.905   4.550   1.880 -1.8538 -0.0974 -0.9706
 2432SOL    HW2 9727   1.912   4.403   1.916  2.1497  0.6514  1.9506
 2432SOL     MW 9728   1.934   4.470   1.864 -0.0414  0.2421  0.3516
 2433SOL     OW 9729   0.713   1.049   4.694  0.2052 -0.1535 -0.3796
 2433SOL    HW1 9730   0.707   1.113   4.766  0.9656  0.5042 -0.8841
 2433SOL    HW2 9731   0.631   1.060   4.646 -0.8757 -1.4545  1.0502
 2433SOL     MW 9732   0.701   1.059   4.697  0.1642 -0.2358 -0.2611
 2434SOL     OW 9733   3.423   1.531   1.533  0.4236  0.1832  0.1934
 2434SOL    HW1 9734   3.501   1.482   1.561  0.2493 -1.1906 -1.5356
 2434SOL    HW2 9735   3.350   1.488   1.579  0.3880 -0.4995 -0.4847
 2434SOL     MW 9736   3.424   1.519   1.543  0.3967 -0.0801 -0.1148
 2435SOL     OW 9737   0.100   0.123   3.271  0.3066  0.6001  0.1711
 2435SOL    HW1 9738   0.087   0.029   3.280 -0.4448  0.7917  1.2788
 2435SOL    HW2 9739   0.050   0.147   3.193 -0.3205  0.2327  0.4543
 2435SOL     MW 9740   0.092   0.114   3.262  0.1302  0.5776  0.3491
 2436SOL     OW 9741   0.361   0.560   3.842 -0.1049 -0.2439  0.5778
 2436SOL    HW1 9742   0.331   0.634   3.896  1.7513 -0.2469  1.6990
 2436SOL    HW2 9743   0.303   0.488   3.867 -0.8444  0.3955  0.7397
 2436SOL     MW 9744   0.349   0.560   3.852  0.0381 -0.1624  0.7420
 2437SOL     OW 9745   0.766   2.010   4.939 -0.1683  0.0525 -0.0403
 2437SOL    HW1 9746   0.732   2.024   5.028  1.5452 -1.5280  0.9259
 2437SOL    HW2 9747   0.857   2.040   4.943 -0.0554 -0.1034 -1.2523
 2437SOL     MW 9748   0.773   2.016   4.951  0.0655 -0.1698 -0.0718
 2438SOL     OW 9749   1.773   2.377   4.001 -0.1875 -0.5281 -0.1350
 2438SOL    HW1 9750   1.727   2.461   4.003 -1.3139 -1.1077 -0.7213
 2438SOL    HW2 9751   1.862   2.397   4.032 -0.7488  0.6662  0.7751
 2438SOL     MW 9752   1.779   2.390   4.005 -0.4035 -0.4494 -0.0936
 2439SOL     OW 9753   2.750   5.409   4.839 -0.7925 -0.2270  0.1673
 2439SOL    HW1 9754   2.799   5.389   4.919 -0.5999 -0.5078 -0.0195
 2439SOL    HW2 9755   2.709   5.493   4.857  0.9759  0.7819 -0.2145
 2439SOL     MW 9756   2.751   5.417   4.852 -0.5414 -0.1338  0.0945
 2440SOL     OW 9757   4.415   0.794   3.361  0.2834  0.8004 -0.3840
 2440SOL    HW1 9758   4.504   0.766   3.341 -0.6339 -0.3076 -3.5960
 2440SOL    HW2 9759   4.425   0.874   3.412  3.0672 -0.1475  0.7278
 2440SOL     MW 9760   4.428   0.801   3.365  0.5224  0.5372 -0.6528
 2441SOL     OW 9761   1.017   0.535   4.530  0.1071 -0.4139  0.3419
 2441SOL    HW1 9762   0.988   0.539   4.439  1.7138  0.3620 -0.1743
 2441SOL    HW2 9763   1.102   0.490   4.526  2.2327  3.1856  0.8473
 2441SOL     MW 9764   1.024   0.530   4.518  0.5849  0.1462  0.3405
 2442SOL     OW 9765   4.588   0.525   1.523  0.1891 -0.3595 -0.3701
 2442SOL    HW1 9766   4.530   0.450   1.509 -0.4988  0.3133 -1.2617
 2442SOL    HW2 9767   4.612   0.520   1.616 -1.8597 -0.2949  0.2153
 2442SOL     MW 9768   4.583   0.515   1.533 -0.1612 -0.2651 -0.4093
 2443SOL     OW 9769   5.159   3.992   5.124 -0.1897 -0.5819  0.6444
 2443SOL    HW1 9770   5.129   4.016   5.037 -2.3908 -1.3491  1.1286
 2443SOL    HW2 9771   5.222   4.060   5.147  1.2317 -0.9108 -1.8958
 2443SOL     MW 9772   5.163   4.004   5.116 -0.2895 -0.7222  0.3812
 2444SOL     OW 9773   0.647   4.344   4.031  0.4692 -0.1620 -0.2526
 2444SOL    HW1 9774   0.606   4.393   3.960  0.6835 -0.6916 -0.7597
 2444SOL    HW2 9775   0.580   4.336   4.098 -0.2195 -0.8829 -1.0068
 2444SOL     MW 9776   0.633   4.349   4.030  0.4085 -0.3221 -0.4141
 2445SOL     OW 9777   4.346   3.761   4.584  0.0220  0.3112 -0.1464
 2445SOL    HW1 9778   4.360   3.687   4.643  1.6021  0.4437 -0.3083
 2445SOL    HW2 9779   4.318   3.720   4.502 -0.8254  0.0287  0.2714
 2445SOL     MW 9780   4.344   3.746   4.581  0.1158  0.2920 -0.1137
 2446SOL     OW 9781   4.242   2.945   2.690 -0.6083 -0.2234 -0.1024
 2446SOL    HW1 9782   4.330   2.969   2.718 -0.2059 -1.5887 -0.1539
 2446SOL    HW2 9783   4.214   3.018   2.635  0.3765  0.3481  0.1258
 2446SOL     MW 9784   4.250   2.957   2.687 -0.4307 -0.3250 -0.0798
 2447SOL     OW 9785   0.174   4.963   4.791 -0.6648  0.1212  0.0122
 2447SOL    HW1 9786   0.088   4.933   4.761  0.0171 -1.4490 -0.4673
 2447SOL    HW2 9787   0.172   4.951   4.886 -0.1755 -2.2963 -0.2064
 2447SOL     MW 9788   0.163   4.958   4.799 -0.5149 -0.3893 -0.0772
 2448SOL     OW 9789   5.304   1.265   4.700  0.6321  0.1029 -0.2416
 2448SOL    HW1 9790   5.395   1.258   4.730  1.2978  0.7719 -1.9454
 2448SOL    HW2 9791   5.290   1.185   4.648  0.0260 -0.2894  0.5040
 2448SOL     MW 9792   5.314   1.254   4.697  0.6397  0.1383 -0.3643
 2449SOL     OW 9793   2.451   3.157   3.538  0.2933 -0.1472 -0.0060
 2449SOL    HW1 9794   2.429   3.079   3.489 -2.6095  0.7260 -0.2685
 2449SOL    HW2 9795   2.516   3.203   3.484  1.0575 -1.6938 -0.4450
 2449SOL     MW 9796   2.457   3.153   3.525  0.0196 -0.2334 -0.0958
 2450SOL     OW 9797   3.248   2.788   0.986 -0.0457 -0.5344  0.2213
 2450SOL    HW1 9798   3.337   2.772   0.956  0.2227 -1.2293  1.3380
 2450SOL    HW2 9799   3.195   2.725   0.936 -0.1759  0.9626 -1.6337
 2450SOL     MW 9800   3.252   2.778   0.976 -0.0280 -0.4317  0.1268
 2451SOL     OW 9801   5.475   5.441   5.191 -0.3183  0.3458 -0.4280
 2451SOL    HW1 9802   5.395   5.389   5.188 -1.0538  1.4450 -0.6235
 2451SOL    HW2 9803   5.463   5.507   5.123  1.5024 -0.4720 -1.6275
 2451SOL     MW 9804   5.463   5.443   5.182 -0.1794  0.3818 -0.6066
 2452SOL     OW 9805   5.130   0.666   4.509  0.6124 -0.4263  0.7227
 2452SOL    HW1 9806   5.112   0.647   4.602  2.2746 -0.1265  1.1461
 2452SOL    HW2 9807   5.102   0.757   4.497 -1.2625 -0.9948  0.4216
 2452SOL     MW 9808   5.124   0.675   4.520  0.5852 -0.4607  0.7384
 2453SOL     OW 9809   5.084   0.933   4.392  0.0015 -0.8189  0.0155
 2453SOL    HW1 9810   4.989   0.947   4.388 -0.1915 -1.7855  0.8028
 2453SOL    HW2 9811   5.104   0.882   4.314 -0.3545 -1.7400  0.5077
 2453SOL     MW 9812   5.074   0.928   4.381 -0.0687 -1.0606  0.1793
 2454SOL     OW 9813   3.460   4.326   3.757  0.7004 -0.3116 -0.1069
 2454SOL    HW1 9814   3.432   4.339   3.848 -1.9019  0.8462 -0.9822
 2454SOL    HW2 9815   3.532   4.389   3.745 -0.7439  1.5145  0.4177
 2454SOL     MW 9816   3.466   4.336   3.767  0.1824  0.0704 -0.1518
 2455SOL     OW 9817   0.282   4.849   2.462 -0.3833 -0.2233  0.0620
 2455SOL    HW1 9818   0.260   4.756   2.462 -0.5591 -0.1888  0.8674
 2455SOL    HW2 9819   0.366   4.854   2.416 -0.6460 -0.7061 -0.4789
 2455SOL     MW 9820   0.290   4.838   2.456 -0.4394 -0.2807  0.0959
 2456SOL     OW 9821   5.429   3.427   0.649  0.1057 -0.3663  0.5389
 2456SOL    HW1 9822   5.402   3.467   0.731  1.6539  0.1469  0.8453
 2456SOL    HW2 9823   5.483   3.495   0.607  0.1169 -0.9718 -0.4573
 2456SOL     MW 9824   5.433   3.441   0.654  0.3053 -0.3781  0.4506
 2457SOL     OW 9825   4.864   4.275   2.834  0.2131  0.0424 -0.2530
 2457SOL    HW1 9826   4.789   4.227   2.870  0.9267 -0.5184  0.4952
 2457SOL    HW2 9827   4.904   4.214   2.772  1.7224 -0.7889  1.4338
 2457SOL     MW 9828   4.859   4.261   2.831  0.4976 -0.1358  0.0587
 2458SOL     OW 9829   5.482   2.848   3.949 -0.0020  1.2871 -1.0051
 2458SOL    HW1 9830   5.505   2.791   3.876  3.8928  1.7194 -0.3412
 2458SOL    HW2 9831   5.443   2.790   4.014  0.5065  0.0763 -1.7568
 2458SOL     MW 9832   5.480   2.833   3.948  0.5617  1.1875 -1.0163
 2459SOL     OW 9833   5.432   0.205   4.124 -0.5834 -0.0806  0.0780
 2459SOL    HW1 9834   5.454   0.210   4.031 -0.3549  0.1222  0.1404
 2459SOL    HW2 9835   5.340   0.178   4.125 -0.9661  1.0947 -0.2462
 2459SOL     MW 9836   5.423   0.202   4.112 -0.6031  0.0958  0.0445
 2460SOL     OW 9837   1.723   4.918   4.268  0.3065  0.0678  0.4268
 2460SOL    HW1 9838   1.760   5.003   4.294 -2.5330  1.2809  0.8829
 2460SOL    HW2 9839   1.707   4.927   4.174 -0.2590  0.1745  0.5286
 2460SOL     MW 9840   1.726   4.930   4.259 -0.1294  0.2368  0.4982
 2461SOL     OW 9841   0.569   0.586   4.597  0.2471  0.5688 -0.3057
 2461SOL    HW1 9842   0.587   0.666   4.547 -3.0108  0.3953 -2.0538
 2461SOL    HW2 9843   0.485   0.603   4.640 -0.9569 -2.1087 -1.3552
 2461SOL     MW 9844   0.560   0.599   4.596 -0.3241  0.2038 -0.6638
 2462SOL     OW 9845   1.290   3.010   0.053  0.3578  0.3898 -0.0995
 2462SOL    HW1 9846   1.300   2.988  -0.039  0.5149  0.5202 -0.1143
 2462SOL    HW2 9847   1.301   2.927   0.100  2.2164  0.6254 -0.0618
 2462SOL     MW 9848   1.292   2.997   0.048  0.6158  0.4366 -0.0966
 2463SOL     OW 9849   0.084   4.916   0.039  0.3120 -0.1320  0.0214
 2463SOL    HW1 9850   0.128   4.977  -0.020  1.1266  0.6988  1.4040
 2463SOL    HW2 9851  -0.002   4.902   0.001  1.2876 -0.7545 -2.0797
 2463SOL     MW 9852   0.079   4.922   0.027  0.5412 -0.1054 -0.0706
 2464SOL     OW 9853   1.800   4.218   2.507 -0.2147  0.1312  0.6287
 2464SOL    HW1 9854   1.775   4.158   2.437  0.1064  0.2606  0.3974
 2464SOL    HW2 9855   1.873   4.268   2.470  2.1305 -1.9445  2.1219
 2464SOL     MW 9856   1.806   4.217   2.494  0.1266 -0.1180  0.7902
 2465SOL     OW 9857   3.411   1.654   5.258 -0.0152 -0.2011 -0.0324
 2465SOL    HW1 9858   3.443   1.697   5.337  0.5078  1.3383 -1.0250
 2465SOL    HW2 9859   3.485   1.659   5.197 -1.1814  0.8560 -1.4219
 2465SOL     MW 9860   3.425   1.660   5.260 -0.0975  0.1313 -0.3374
 2466SOL     OW 9861   0.507   3.910   0.982  0.3044  0.1810 -0.3176
 2466SOL    HW1 9862   0.453   3.933   1.057 -0.4557 -2.0416 -0.1093
 2466SOL    HW2 9863   0.472   3.826   0.952  3.5078 -1.3405 -0.2579
 2466SOL     MW 9864   0.495   3.902   0.988  0.6172 -0.2983 -0.2833
 2467SOL     OW 9865   2.860   3.391   5.439 -0.3613  0.2189 -0.1485
 2467SOL    HW1 9866   2.954   3.392   5.458 -0.0907  2.2249 -1.2823
 2467SOL    HW2 9867   2.825   3.464   5.491 -1.1698 -0.0817 -0.2569
 2467SOL     MW 9868   2.868   3.401   5.448 -0.4302  0.4372 -0.3075
 2468SOL     OW 9869   1.844   0.240   5.248 -0.0759 -0.3676  0.0573
 2468SOL    HW1 9870   1.937   0.218   5.244  0.7851  2.8721 -0.3021
 2468SOL    HW2 9871   1.827   0.256   5.341 -0.0949 -0.2543  0.0344
 2468SOL     MW 9872   1.853   0.239   5.259  0.0319  0.0616  0.0083
 2469SOL     OW 9873   4.950   2.026   1.956  0.1318 -0.2118  0.4355
 2469SOL    HW1 9874   4.892   1.986   2.021  1.8281 -1.1796  1.4115
 2469SOL    HW2 9875   5.031   1.976   1.962  0.9046  0.7556 -1.2798
 2469SOL     MW 9876   4.953   2.014   1.965  0.4479 -0.2119  0.3409
 2470SOL     OW 9877   2.963   2.115   3.633  0.5437  0.8066 -0.1107
 2470SOL    HW1 9878   2.877   2.127   3.593  0.4897  2.1920  0.3672
 2470SOL    HW2 9879   3.020   2.176   3.586  1.0567  0.5754  0.1992
 2470SOL     MW 9880   2.960   2.124   3.622  0.6024  0.9544 -0.0099
 2471SOL     OW 9881   2.114   1.626   3.191 -0.0832  0.0675 -0.0505
 2471SOL    HW1 9882   2.126   1.679   3.113 -0.3340 -1.3501 -1.1071
 2471SOL    HW2 9883   2.021   1.637   3.213 -0.4466 -0.8471 -1.0090
 2471SOL     MW 9884   2.104   1.634   3.184 -0.1618 -0.2310 -0.3085
 2472SOL     OW 9885   2.547   4.153   2.130  0.3826 -0.3501  0.3716
 2472SOL    HW1 9886   2.601   4.127   2.055 -0.3528 -1.3183  0.1674
 2472SOL    HW2 9887   2.553   4.080   2.191 -0.0855 -0.1309  0.6857
 2472SOL     MW 9888   2.555   4.140   2.128  0.2285 -0.4460  0.3857
 2473SOL     OW 9889   4.333   4.185   4.742  0.0123 -0.7723 -0.2139
 2473SOL    HW1 9890   4.379   4.170   4.825 -1.6394 -2.5291  0.4531
 2473SOL    HW2 9891   4.392   4.151   4.676 -0.3400 -3.2405  0.6436
 2473SOL     MW 9892   4.346   4.179   4.744 -0.2442 -1.3131 -0.0187
 2474SOL     OW 9893   5.380   3.664   4.134 -0.0542 -0.3803 -0.1498
 2474SOL    HW1 9894   5.335   3.581   4.148  0.2969 -0.9301 -2.0265
 2474SOL    HW2 9895   5.457   3.660   4.192 -0.2936 -1.1446  0.1306
 2474SOL     MW 9896   5.384   3.653   4.144 -0.0399 -0.5485 -0.3542
 2475SOL     OW 9897   2.821   1.268   2.061 -0.2577 -0.2107 -0.4059
 2475SOL    HW1 9898   2.792   1.342   2.115 -1.5562 -1.5667  0.8422
 2475SOL    HW2 9899   2.915   1.261   2.078 -0.3954  0.2429  0.6087
 2475SOL     MW 9900   2.829   1.277   2.070 -0.4416 -0.3262 -0.1162
 2476SOL     OW 9901   3.497   2.693   4.775 -0.3902 -0.6312  0.2417
 2476SOL    HW1 9902   3.520   2.754   4.844  0.4365 -1.4768  0.7412
 2476SOL    HW2 9903   3.436   2.631   4.817  0.8967 -1.7484  0.5424
 2476SOL     MW 9904   3.492   2.693   4.789 -0.1196 -0.8824  0.3442
 2477SOL     OW 9905   1.535   2.408   3.255  0.3324 -0.9630  0.0543
 2477SOL    HW1 9906   1.527   2.499   3.227 -0.0203 -0.1815  2.4616
 2477SOL    HW2 9907   1.532   2.358   3.174  0.8574  1.1676 -1.3682
 2477SOL     MW 9908   1.533   2.413   3.241  0.3544 -0.5902  0.1804
 2478SOL     OW 9909   2.749   3.577   0.125  0.1769 -0.5913 -0.2949
 2478SOL    HW1 9910   2.741   3.621   0.209  1.3995  1.0809 -1.0097
 2478SOL    HW2 9911   2.663   3.589   0.083  0.5387  1.3667 -0.5605
 2478SOL     MW 9912   2.737   3.584   0.130  0.3797 -0.1266 -0.4204
 2479SOL     OW 9913   3.366   1.097   0.056 -0.0129  0.3553  0.7978
 2479SOL    HW1 9914   3.319   1.019   0.028 -0.9750  1.1431  0.1472
 2479SOL    HW2 9915   3.338   1.165  -0.005  2.8719  0.6377 -0.3807
 2479SOL     MW 9916   3.357   1.096   0.045  0.2332  0.4923  0.5636
 2480SOL     OW 9917   1.862   1.773   5.445 -0.2902 -0.3964  0.7602
 2480SOL    HW1 9918   1.831   1.737   5.361  2.4962 -0.1337 -0.5078
 2480SOL    HW2 9919   1.851   1.701   5.507 -0.6166 -1.2861 -0.2862
 2480SOL     MW 9920   1.857   1.759   5.442  0.0247 -0.4767  0.4640
 2481SOL     OW 9921   0.291   2.146   2.675  0.4154  0.0976  0.0448
 2481SOL    HW1 9922   0.282   2.182   2.587  0.3471  0.0087  0.0145
 2481SOL    HW2 9923   0.291   2.051   2.662  0.4057  0.0843  0.1405
 2481SOL     MW 9924   0.290   2.138   2.662  0.4054  0.0845  0.0532
 2482SOL     OW 9925   0.026   1.065   1.322 -0.0285 -0.1401 -1.0071
 2482SOL    HW1 9926   0.094   1.000   1.338 -1.4459 -1.4763 -0.0932
 2482SOL    HW2 9927   0.025   1.118   1.402  0.4272  0.3692 -1.3311
 2482SOL     MW 9928   0.035   1.063   1.334 -0.1516 -0.2459 -0.9316
 2483SOL     OW 9929   1.726   4.367   3.871  0.1403 -0.7296  0.3280
 2483SOL    HW1 9930   1.743   4.275   3.849  0.8627 -1.2194  2.6339
 2483SOL    HW2 9931   1.812   4.401   3.898 -0.2480  0.4342  0.1293
 2483SOL     MW 9932   1.739   4.359   3.872  0.1831 -0.6433  0.5978
 2484SOL     OW 9933   2.067   2.880   2.653  0.1465 -0.3108  0.0663
 2484SOL    HW1 9934   2.145   2.870   2.709  0.5533  0.3627 -0.3722
 2484SOL    HW2 9935   2.075   2.811   2.588  0.4234 -0.1950 -0.0245
 2484SOL     MW 9936   2.078   2.870   2.652  0.2340 -0.2098 -0.0014
 2485SOL     OW 9937   3.785   0.382   4.696  0.6097  0.0693  0.7965
 2485SOL    HW1 9938   3.786   0.449   4.764  0.8211 -0.2029  1.0619
 2485SOL    HW2 9939   3.694   0.354   4.691  0.3031  1.1242 -0.0622
 2485SOL     MW 9940   3.774   0.387   4.704  0.5975  0.1695  0.7206
 2486SOL     OW 9941   2.569   3.002   2.678  0.0906  0.0068  0.7999
 2486SOL    HW1 9942   2.653   3.047   2.680  0.7382 -0.9140 -1.9960
 2486SOL    HW2 9943   2.517   3.049   2.614 -0.1687 -1.5763 -0.2033
 2486SOL     MW 9944   2.573   3.014   2.670  0.1403 -0.3138  0.3136
 2487SOL     OW 9945   2.107   0.540   5.376  0.1755  0.1075  0.0473
 2487SOL    HW1 9946   2.112   0.496   5.461 -1.5148  0.4420  0.3558
 2487SOL    HW2 9947   2.179   0.604   5.378 -0.7139  1.1458  1.8760
 2487SOL     MW 9948   2.117   0.543   5.387 -0.1547  0.2832  0.3209
 2488SOL     OW 9949   2.054   3.180   3.296 -0.1108  0.1015  0.2473
 2488SOL    HW1 9950   2.077   3.246   3.362  1.2512  0.1469 -0.2407
 2488SOL    HW2 9951   2.081   3.097   3.336  0.7576  0.1342 -0.2575
 2488SOL     MW 9952   2.061   3.178   3.310  0.1747  0.1115  0.1202
 2489SOL     OW 9953   4.193   4.392   3.282 -0.7847  0.1841 -0.1325
 2489SOL    HW1 9954   4.264   4.453   3.300 -1.2526  0.6852  0.0451
 2489SOL    HW2 9955   4.178   4.399   3.188 -0.0206 -0.5694 -0.3165
 2489SOL     MW 9956   4.200   4.401   3.272 -0.7468  0.1518 -0.1334
 2490SOL     OW 9957   5.097   1.910   1.008 -0.0583 -0.3158 -0.2226
 2490SOL    HW1 9958   5.117   1.831   1.058 -0.3767 -0.0877  0.2769
 2490SOL    HW2 9959   5.003   1.923   1.021  0.3765  1.4585  1.6912
 2490SOL     MW 9960   5.087   1.901   1.016 -0.0434 -0.0594  0.0863
 2491SOL     OW 9961   2.271   0.418   3.907 -0.1316 -0.0433 -0.4661
 2491SOL    HW1 9962   2.228   0.504   3.909  0.1482  0.1415 -1.7599
 2491SOL    HW2 9963   2.220   0.367   3.845  0.6234 -0.3033 -0.8797
 2491SOL     MW 9964   2.259   0.423   3.899  0.0009 -0.0529 -0.6846
 2492SOL     OW 9965   5.354   3.513   5.250  0.3849 -0.1195  0.1836
 2492SOL    HW1 9966   5.306   3.501   5.332  0.7230  0.6677  0.5110
 2492SOL    HW2 9967   5.368   3.608   5.244 -0.0344 -0.1138 -1.0178
 2492SOL     MW 9968   5.350   3.523   5.260  0.3745 -0.0180  0.0717
 2493SOL     OW 9969   4.916   0.495   4.416  0.1963  0.4274  0.1941
 2493SOL    HW1 9970   4.997   0.538   4.442  0.8171 -1.4547  1.6973
 2493SOL    HW2 9971   4.940   0.438   4.343  0.1918  0.0970  0.4427
 2493SOL     MW 9972   4.929   0.493   4.410  0.2752  0.1442  0.4184
 2494SOL     OW 9973   2.283   4.377   3.505  0.2752 -0.1459 -0.0578
 2494SOL    HW1 9974   2.226   4.375   3.428 -1.3174  1.1263  1.0242
 2494SOL    HW2 9975   2.297   4.470   3.522  1.8858 -0.4295  0.3130
 2494SOL     MW 9976   2.278   4.389   3.497  0.2775 -0.0194  0.1282
 2495SOL     OW 9977   4.993   3.608   1.809  0.3363  0.1346  0.0974
 2495SOL    HW1 9978   5.061   3.660   1.766  0.0117 -0.2422 -0.9004
 2495SOL    HW2 9979   5.039   3.563   1.880  1.0109  0.3025 -0.2187
 2495SOL     MW 9980   5.008   3.609   1.813  0.3811  0.1079 -0.0708
 2496SOL     OW 9981   1.928   2.271   0.467 -0.0683  0.2388  0.4723
 2496SOL    HW1 9982   1.981   2.296   0.542  0.1019  1.0815  0.0828
 2496SOL    HW2 9983   1.962   2.186   0.441  1.7649  1.1858 -0.3616
 2496SOL     MW 9984   1.939   2.264   0.473  0.1881  0.4679  0.3157
 2497SOL     OW 9985   3.150   1.589   2.269  0.3612  0.1022 -0.7099
 2497SOL    HW1 9986   3.217   1.652   2.297 -0.6438  1.2206 -0.7573
 2497SOL    HW2 9987   3.140   1.531   2.344  0.4659  0.7116 -0.2159
 2497SOL     MW 9988   3.158   1.590   2.282  0.2459  0.3234 -0.6527
 2498SOL     OW 9989   0.504   0.780   0.925  0.5403  0.2607 -0.0993
 2498SOL    HW1 9990   0.599   0.773   0.923  0.5597 -1.4751  2.3344
 2498SOL    HW2 9991   0.484   0.822   1.010 -0.8627  0.6196 -0.5684
 2498SOL     MW 9992   0.513   0.785   0.936  0.3632  0.0844  0.1522
 2499SOL     OW 9993   3.537   4.124   2.038 -0.2346 -0.3610  0.4282
 2499SOL    HW1 9994   3.493   4.208   2.042 -1.3092 -0.9143  0.6872
 2499SOL    HW2 9995   3.537   4.091   2.128 -2.5679 -1.9605 -0.0644
 2499SOL     MW 9996   3.532   4.130   2.050 -0.6708 -0.6366  0.3983
 2500SOL     OW 9997   5.212   1.504   4.637 -0.8101  0.5184 -0.2416
 2500SOL    HW1 9998   5.288   1.550   4.599  0.1166  0.6790  1.7068
 2500SOL    HW2 9999   5.247   1.421   4.667 -1.1241  1.0160  1.6241
 2500SOL     MW10000   5.226   1.499   4.636 -0.7316  0.6027  0.2467
 2501SOL     OW10001   1.636   1.339   0.400 -0.0140  0.7305 -0.4739
 2501SOL    HW110002   1.576   1.327   0.327 -0.8136 -0.4680  0.3605
 2501SOL    HW210003   1.590   1.397   0.460  0.3781  1.1855 -0.5998
 2501SOL     MW10004   1.623   1.345   0.398 -0.0662  0.6354 -0.3832
 2502SOL     OW10005   0.197   4.729   3.421 -0.7320  0.4896 -0.5500
 2502SOL    HW110006   0.155   4.810   3.449 -1.8413 -0.6043  1.1981
 2502SOL    HW210007   0.206   4.678   3.502  0.1999 -1.0042 -1.5506
 2502SOL     MW10008   0.193   4.733   3.435 -0.7547  0.1584 -0.4543
 2503SOL     OW10009   5.134   0.654   2.347  0.3339  0.0538 -0.3636
 2503SOL    HW110010   5.209   0.631   2.402  0.4747 -0.2667 -0.6797
 2503SOL    HW210011   5.073   0.581   2.357 -0.2727  0.6553  0.4663
 2503SOL     MW10012   5.136   0.642   2.355  0.2742  0.0898 -0.2978
 2504SOL     OW10013   5.257   2.032   0.151  0.3558 -0.0372  0.1427
 2504SOL    HW110014   5.225   1.944   0.167 -0.7531  0.4633  0.8325
 2504SOL    HW210015   5.188   2.089   0.186  0.7995  1.0996 -0.7683
 2504SOL     MW10016   5.244   2.028   0.157  0.2707  0.1724  0.1144
 2505SOL     OW10017   4.685   0.759   2.017  0.0346  0.1319 -0.5215
 2505SOL    HW110018   4.706   0.705   1.941  0.9282  2.1629 -1.7960
 2505SOL    HW210019   4.757   0.742   2.078  0.5401  0.1876 -1.0887
 2505SOL     MW10020   4.697   0.750   2.015  0.2137  0.3990 -0.7573
 2506SOL     OW10021   1.645   2.226   4.625 -0.5742 -0.1950  0.2935
 2506SOL    HW110022   1.720   2.270   4.586 -0.0017 -1.6093 -0.2450
 2506SOL    HW210023   1.569   2.272   4.588 -0.0006  0.2710 -0.3349
 2506SOL     MW10024   1.645   2.238   4.615 -0.4275 -0.3164  0.1441
 2507SOL     OW10025   0.595   2.981   2.835  0.0236  0.0311 -0.1573
 2507SOL    HW110026   0.680   3.017   2.858 -0.3375  0.8380 -0.0658
 2507SOL    HW210027   0.601   2.889   2.859  0.6703  0.2095  0.3867
 2507SOL     MW10028   0.606   2.974   2.841  0.0601  0.1572 -0.0759
 2508SOL     OW10029   2.956   0.538   0.543 -0.3816  0.4973  0.1792
 2508SOL    HW110030   3.026   0.487   0.501 -1.1842 -0.6240  0.1346
 2508SOL    HW210031   2.883   0.532   0.482 -0.9982  0.3459  0.9252
 2508SOL     MW10032   2.956   0.530   0.530 -0.5633  0.3344  0.2690
 2509SOL     OW10033   3.013   0.539   4.191 -0.2087 -0.9638 -0.3773
 2509SOL    HW110034   3.090   0.500   4.150  0.7004  1.3014 -0.9368
 2509SOL    HW210035   2.970   0.588   4.120 -0.9377 -0.4091  0.4304
 2509SOL     MW10036   3.017   0.540   4.177 -0.1857 -0.6029 -0.3456
 2510SOL     OW10037   0.355   2.324   1.137  0.0633  0.0733 -0.6349
 2510SOL    HW110038   0.318   2.294   1.220  1.4500  0.3359  0.0959
 2510SOL    HW210039   0.447   2.298   1.141  0.1997  0.2851 -2.0065
 2510SOL     MW10040   0.362   2.317   1.148  0.2583  0.1341 -0.7169
 2511SOL     OW10041   0.646   0.760   0.053  0.3390 -0.1560 -0.5637
 2511SOL    HW110042   0.726   0.777   0.004 -0.3307  0.4823 -1.4550
 2511SOL    HW210043   0.676   0.711   0.130  1.5885  0.1206 -0.8431
 2511SOL     MW10044   0.660   0.756   0.057  0.4132 -0.0389 -0.7135
 2512SOL     OW10045   2.355   2.921   4.233  0.6817 -0.2237 -0.8416
 2512SOL    HW110046   2.334   2.993   4.293  0.8547 -0.3065 -0.6803
 2512SOL    HW210047   2.434   2.950   4.188 -0.7908  0.9399 -2.8481
 2512SOL     MW10048   2.363   2.934   4.235  0.5154 -0.0854 -1.0778
 2513SOL     OW10049   2.020   4.902   2.114 -0.5103  0.1926 -0.1823
 2513SOL    HW110050   2.028   4.953   2.034  0.2054  0.8552  0.2973
 2513SOL    HW210051   2.081   4.829   2.102  1.7020  1.7662  0.8377
 2513SOL     MW10052   2.028   4.899   2.102 -0.1355  0.4789  0.0096
 2514SOL     OW10053   2.161   3.207   1.313  0.4255 -0.1176 -0.0009
 2514SOL    HW110054   2.079   3.162   1.334  0.1216 -0.3107 -1.4856
 2514SOL    HW210055   2.228   3.139   1.319  0.0036 -0.7703 -1.9896
 2514SOL     MW10056   2.159   3.193   1.316  0.3326 -0.2259 -0.4456
 2515SOL     OW10057   2.768   5.375   4.382 -0.7171 -0.3862  0.1956
 2515SOL    HW110058   2.699   5.320   4.419 -0.2871 -1.3272 -0.3800
 2515SOL    HW210059   2.849   5.338   4.418 -0.4004 -0.3797 -0.5081
 2515SOL     MW10060   2.770   5.363   4.392 -0.6215 -0.5059  0.0318
 2516SOL     OW10061   2.589   1.490   1.282 -0.4118 -0.0533 -0.3294
 2516SOL    HW110062   2.682   1.513   1.290 -0.2205 -1.1095  0.8877
 2516SOL    HW210063   2.582   1.446   1.198  0.8858 -2.7465  0.8493
 2516SOL     MW10064   2.600   1.487   1.272 -0.2212 -0.5333 -0.0227
 2517SOL     OW10065   5.427   3.739   3.150 -0.0141 -0.3014  0.2131
 2517SOL    HW110066   5.433   3.746   3.054 -2.2628  0.2246  0.0600
 2517SOL    HW210067   5.429   3.829   3.181  2.3370 -0.5064  0.8658
 2517SOL     MW10068   5.428   3.751   3.141 -0.0010 -0.2603  0.2770
 2518SOL     OW10069   2.368   0.125   1.937  0.3802  0.3370  0.1994
 2518SOL    HW110070   2.344   0.192   2.001 -0.5164  1.1170 -0.9141
 2518SOL    HW210071   2.295   0.063   1.938  0.8366 -0.2079  0.6471
 2518SOL     MW10072   2.355   0.125   1.946  0.3238  0.3671  0.1142
 2519SOL     OW10073   1.391   3.620   1.282  0.2738 -0.1712  0.0347
 2519SOL    HW110074   1.297   3.629   1.272  0.3664  0.3229 -0.4774
 2519SOL    HW210075   1.421   3.706   1.310  0.7036  0.0125 -0.9308
 2519SOL     MW10076   1.383   3.632   1.284  0.3406 -0.0844 -0.1545
 2520SOL     OW10077   2.855   4.669   3.531 -0.4161 -0.1107  0.1134
 2520SOL    HW110078   2.851   4.574   3.520 -0.7980  0.0439 -1.1790
 2520SOL    HW210079   2.837   4.683   3.624 -0.1757 -1.3080  0.3525
 2520SOL     MW10080   2.853   4.659   3.542 -0.4342 -0.2442 -0.0214
 2521SOL     OW10081   3.773   3.711   3.641 -0.1906 -0.1212 -0.2837
 2521SOL    HW110082   3.691   3.669   3.613 -0.6858  0.6651 -0.0522
 2521SOL    HW210083   3.768   3.709   3.737  0.1195 -0.1884 -0.2711
 2521SOL     MW10084   3.762   3.705   3.650 -0.2143 -0.0291 -0.2524
 2522SOL     OW10085   5.136   0.266   0.562 -0.0387 -0.1183 -0.3394
 2522SOL    HW110086   5.194   0.336   0.531  0.4093 -0.7150 -0.8852
 2522SOL    HW210087   5.177   0.235   0.642  0.5608 -0.7256 -0.8722
 2522SOL     MW10088   5.149   0.271   0.568  0.0954 -0.2724 -0.4775
 2523SOL     OW10089   5.051   1.419   3.019  0.6254  0.4425  0.8210
 2523SOL    HW110090   5.102   1.360   3.074  0.5364  0.3465  0.7987
 2523SOL    HW210091   5.036   1.496   3.074  2.7565  1.4697  0.1121
 2523SOL     MW10092   5.056   1.421   3.033  0.8868  0.5617  0.7274
 2524SOL     OW10093   0.039   5.453   1.529  0.1186 -0.0007  0.1681
 2524SOL    HW110094   0.095   5.415   1.597  0.4474  0.4132  0.1332
 2524SOL    HW210095  -0.037   5.486   1.576  0.7743  1.1304  0.4718
 2524SOL     MW10096   0.037   5.453   1.544  0.2446  0.1971  0.2025
 2525SOL     OW10097   3.657   0.502   3.845  0.3852  0.2551  0.3358
 2525SOL    HW110098   3.589   0.543   3.790  1.2500  1.8378  0.4095
 2525SOL    HW210099   3.693   0.433   3.790  0.9897  1.5838 -1.0188
 2525SOL     MW10100   3.653   0.499   3.831  0.5733  0.6278  0.1718
 2526SOL     OW10101   1.359   1.131   5.244 -0.6736  0.1634 -0.1636
 2526SOL    HW110102   1.421   1.204   5.251 -2.0574  1.2771  1.7201
 2526SOL    HW210103   1.394   1.064   5.302 -0.3745  0.1142 -0.4008
 2526SOL     MW10104   1.371   1.132   5.253 -0.8125  0.2997  0.0472
 2527SOL     OW10105   5.423   0.601   5.110  0.1480  0.0131 -0.0006
 2527SOL    HW110106   5.455   0.576   5.196 -0.0239  0.9687  0.3606
 2527SOL    HW210107   5.444   0.527   5.053  3.1099  0.5848  0.1882
 2527SOL     MW10108   5.430   0.589   5.114  0.5052  0.2086  0.0698
 2528SOL     OW10109   5.139   0.580   5.370 -0.4591 -0.2157  0.3275
 2528SOL    HW110110   5.097   0.592   5.285 -1.8761  3.3457  1.3601
 2528SOL    HW210111   5.086   0.512   5.413 -0.6685 -0.9447 -1.0295
 2528SOL     MW10112   5.127   0.573   5.364 -0.6673  0.1469  0.2860
 2529SOL     OW10113   3.747   3.327   4.321 -0.2661  0.3456  0.7097
 2529SOL    HW110114   3.799   3.406   4.334  0.4518 -0.3977  2.7867
 2529SOL    HW210115   3.658   3.359   4.304  0.4430  1.6022 -0.8228
 2529SOL     MW10116   3.742   3.341   4.321 -0.0834  0.4113  0.7794
 2530SOL     OW10117   0.295   0.619   1.627  0.5112  0.1529  0.2426
 2530SOL    HW110118   0.360   0.671   1.581  1.6874 -1.6069 -0.1959
 2530SOL    HW210119   0.272   0.671   1.704  0.8858  1.7252 -0.6858
 2530SOL     MW10120   0.300   0.632   1.631  0.7097  0.1289  0.0676
 2531SOL     OW10121   2.457   2.572   4.657  0.3977 -0.4316  0.0799
 2531SOL    HW110122   2.398   2.497   4.659 -0.0563 -0.1191 -0.8590
 2531SOL    HW210123   2.490   2.580   4.746  0.1707 -1.5192  0.2732
 2531SOL     MW10124   2.454   2.563   4.668  0.3105 -0.5308 -0.0156
 2532SOL     OW10125   2.090   0.623   4.024 -0.0021 -0.5754 -0.4304
 2532SOL    HW110126   2.154   0.681   3.983  0.5601 -0.2436  0.8520
 2532SOL    HW210127   2.028   0.602   3.954 -0.0902  1.3737 -0.9962
 2532SOL     MW10128   2.091   0.628   4.010  0.0586 -0.2834 -0.3387
 2533SOL     OW10129   3.562   0.196   1.635  0.6480 -0.5478 -0.1644
 2533SOL    HW110130   3.480   0.149   1.625  0.3850  0.0070 -0.6009
 2533SOL    HW210131   3.601   0.158   1.714  1.4260 -2.9699 -1.5951
 2533SOL     MW10132   3.557   0.185   1.644  0.7139 -0.7868 -0.4035
 2534SOL     OW10133   1.222   2.586   0.635 -0.1697 -0.0856  0.0233
 2534SOL    HW110134   1.264   2.539   0.564  2.3005 -0.6878  1.7587
 2534SOL    HW210135   1.270   2.669   0.641  0.3423 -0.4564  1.5620
 2534SOL     MW10136   1.233   2.591   0.627  0.2121 -0.2102  0.4424
 2535SOL     OW10137   5.097   0.850   1.217 -0.2648  0.3010  0.1187
 2535SOL    HW110138   5.078   0.942   1.233 -2.1313 -0.3196  1.8242
 2535SOL    HW210139   5.116   0.814   1.304  1.9745 -0.6490 -0.6916
 2535SOL     MW10140   5.097   0.857   1.230 -0.2171  0.0999  0.2333
 2536SOL     OW10141   3.888   2.215   3.346  0.0730 -0.2580 -0.0128
 2536SOL    HW110142   3.843   2.296   3.370 -1.6786 -1.1728 -0.0185
 2536SOL    HW210143   3.890   2.164   3.428 -1.9518 -1.5783 -0.7067
 2536SOL     MW10144   3.883   2.219   3.360 -0.4104 -0.5441 -0.1024
 2537SOL     OW10145   2.678   3.937   4.347 -0.2703 -0.9941 -0.2241
 2537SOL    HW110146   2.638   3.971   4.267 -1.5617 -0.5672  0.5812
 2537SOL    HW210147   2.604   3.912   4.403  0.5230  0.3926  1.5605
 2537SOL     MW10148   2.664   3.938   4.344 -0.3341 -0.7619  0.1074
 2538SOL     OW10149   4.294   5.093   1.555  0.0611 -0.1099  0.3208
 2538SOL    HW110150   4.269   5.137   1.636  0.5725 -0.4445  0.6717
 2538SOL    HW210151   4.228   5.120   1.491 -0.0377  0.5876  0.7068
 2538SOL     MW10152   4.282   5.102   1.557  0.1139 -0.0635  0.4151
 2539SOL     OW10153   3.905   3.773   3.982  0.3303 -0.2208 -0.0207
 2539SOL    HW110154   3.940   3.684   3.982 -0.0597 -0.4393 -2.1084
 2539SOL    HW210155   3.979   3.828   3.955  0.2596 -0.0791  0.0706
 2539SOL     MW10156   3.919   3.769   3.978  0.2714 -0.2306 -0.2763
 2540SOL     OW10157   0.281   0.854   0.317  0.5498 -0.0008 -0.1084
 2540SOL    HW110158   0.235   0.914   0.259  0.6161  1.6364  1.4724
 2540SOL    HW210159   0.374   0.874   0.304  0.6660 -0.8295 -0.6629
 2540SOL     MW10160   0.287   0.864   0.308  0.5732  0.1027  0.0230
 2541SOL     OW10161   2.007   1.329   4.195  0.0735 -0.1477 -0.2726
 2541SOL    HW110162   1.922   1.371   4.186 -0.2302 -0.7785 -0.3829
 2541SOL    HW210163   2.047   1.335   4.108 -0.5919 -1.3913 -0.6922
 2541SOL     MW10164   2.001   1.335   4.183 -0.0505 -0.3876 -0.3404
 2542SOL     OW10165   0.574   3.131   2.084  0.3771 -0.1504 -0.1570
 2542SOL    HW110166   0.593   3.213   2.130  0.5386 -1.5290  2.3827
 2542SOL    HW210167   0.659   3.089   2.075  0.0708 -0.8277  0.1126
 2542SOL     MW10168   0.587   3.136   2.089  0.3586 -0.4136  0.2026
 2543SOL     OW10169   1.411   4.018   4.442 -0.2423  0.0449  0.4290
 2543SOL    HW110170   1.454   4.062   4.369 -0.0442  2.0760  1.7118
 2543SOL    HW210171   1.484   3.986   4.497 -0.3016  1.8359  1.6299
 2543SOL     MW10172   1.426   4.019   4.440 -0.2245  0.5342  0.7469
 2544SOL     OW10173   2.334   3.176   1.559  0.2222 -0.3666  0.3122
 2544SOL    HW110174   2.274   3.196   1.488  0.2956  0.2260  0.4106
 2544SOL    HW210175   2.420   3.204   1.527  0.5811 -1.8756 -0.1137
 2544SOL     MW10176   2.338   3.182   1.546  0.2776 -0.4839  0.2703
 2545SOL     OW10177   2.797   5.233   3.261  0.0204  0.3716 -1.0516
 2545SOL    HW110178   2.799   5.152   3.211 -2.1605 -1.1053  1.0119
 2545SOL    HW210179   2.768   5.299   3.198  0.1691 -0.7930 -2.3951
 2545SOL     MW10180   2.794   5.231   3.247 -0.2397  0.0334 -0.9594
 2546SOL     OW10181   0.021   0.063   4.512  0.2486 -0.0093  0.5626
 2546SOL    HW110182   0.034   0.152   4.546  0.0365  0.3399 -0.2622
 2546SOL    HW210183   0.038   0.006   4.588  0.2274  0.7357  1.1386
 2546SOL     MW10184   0.025   0.067   4.526  0.2187  0.1308  0.5308
 2547SOL     OW10185   1.547   1.228   2.718  0.1106  0.0806 -0.9233
 2547SOL    HW110186   1.596   1.170   2.659 -0.0819  0.4550 -1.4521
 2547SOL    HW210187   1.612   1.293   2.746 -0.3082  1.2074 -2.4513
 2547SOL     MW10188   1.562   1.229   2.714  0.0323  0.2728 -1.1866
 2548SOL     OW10189   2.862   1.505   2.422  0.1158 -0.3980 -0.0231
 2548SOL    HW110190   2.822   1.492   2.337  0.3656  0.2923 -0.2556
 2548SOL    HW210191   2.794   1.483   2.485 -1.2483  2.3360 -0.3874
 2548SOL     MW10192   2.848   1.501   2.419 -0.0269  0.0403 -0.0995
 2549SOL     OW10193   4.549   0.706   3.959 -0.3576  0.2338 -0.2531
 2549SOL    HW110194   4.534   0.797   3.983 -0.9278  0.6711 -2.1397
 2549SOL    HW210195   4.510   0.655   4.031  1.8660  1.3977  1.9508
 2549SOL     MW10196   4.542   0.711   3.972 -0.1460  0.4388 -0.2125
 2550SOL     OW10197   4.348   2.082   2.643 -0.1203  0.6543 -0.2810
 2550SOL    HW110198   4.291   2.144   2.597  0.9224  4.4503  3.0152
 2550SOL    HW210199   4.325   2.092   2.735  2.0411 -1.9496  0.6528
 2550SOL     MW10200   4.338   2.091   2.649  0.2899  0.8069  0.2605
 2551SOL     OW10201   0.448   3.527   2.850 -1.0088 -0.7632 -0.3558
 2551SOL    HW110202   0.389   3.463   2.891 -0.9765 -0.4122  0.2506
 2551SOL    HW210203   0.395   3.607   2.845 -0.1126  0.0359  1.6817
 2551SOL     MW10204   0.434   3.529   2.855 -0.8899 -0.6160 -0.0173
 2552SOL     OW10205   1.645   2.516   1.722  0.8448 -0.1103  0.1638
 2552SOL    HW110206   1.662   2.589   1.662 -1.0024  0.4408  0.2466
 2552SOL    HW210207   1.553   2.494   1.708  0.1475  0.4269  3.1596
 2552SOL     MW10208   1.636   2.523   1.712  0.5191  0.0291  0.5579
 2553SOL     OW10209   3.401   4.503   0.254  0.2016 -0.0603  0.5469
 2553SOL    HW110210   3.418   4.456   0.172  0.2239  1.9413 -0.6853
 2553SOL    HW210211   3.488   4.522   0.289  0.2158 -0.1032  0.5348
 2553SOL     MW10212   3.415   4.500   0.248  0.2063  0.1904  0.3876
 2554SOL     OW10213   0.491   1.449   0.368 -0.3607  0.8514 -0.4743
 2554SOL    HW110214   0.496   1.377   0.431 -1.5477  0.8847 -0.3135
 2554SOL    HW210215   0.428   1.510   0.406  1.2081  2.3800 -0.2267
 2554SOL     MW10216   0.484   1.447   0.381 -0.3118  1.0514 -0.4220
 2555SOL     OW10217   4.010   1.673   2.155  0.2553  0.1569  0.0021
 2555SOL    HW110218   4.060   1.719   2.088 -0.2490  1.1409  0.2725
 2555SOL    HW210219   3.973   1.597   2.110  1.2214 -0.0729 -0.4219
 2555SOL     MW10220   4.012   1.669   2.141  0.3144  0.2534 -0.0176
 2556SOL     OW10221   3.583   1.955   5.451  0.8509  0.3898  0.7275
 2556SOL    HW110222   3.515   1.889   5.468 -0.2328  1.1728 -0.3568
 2556SOL    HW210223   3.663   1.905   5.436  0.2772 -0.6194  0.9957
 2556SOL     MW10224   3.584   1.940   5.451  0.6387  0.3608  0.6230
 2557SOL     OW10225   4.587   5.065   4.027 -0.3469 -0.4161 -0.4425
 2557SOL    HW110226   4.670   5.019   4.044 -0.7200 -0.9374  0.0191
 2557SOL    HW210227   4.587   5.080   3.933 -0.6412 -2.2776 -0.7930
 2557SOL     MW10228   4.598   5.061   4.017 -0.4323 -0.7211 -0.4283
 2558SOL     OW10229   3.647   4.555   0.352 -0.0757 -0.0218  0.9084
 2558SOL    HW110230   3.701   4.592   0.282  0.3897 -1.5069  0.4362
 2558SOL    HW210231   3.666   4.609   0.429 -0.5155  1.5754 -0.0579
 2558SOL     MW10232   3.656   4.566   0.353 -0.0724 -0.0075  0.7242
 2559SOL     OW10233   1.722   0.726   4.745  0.1181 -0.2195  0.2119
 2559SOL    HW110234   1.693   0.681   4.666  0.8658 -1.5174  0.6460
 2559SOL    HW210235   1.813   0.700   4.755 -0.2382 -0.9167  2.0451
 2559SOL     MW10236   1.730   0.717   4.736  0.1682 -0.4749  0.5021
 2560SOL     OW10237   0.652   4.069   2.519 -0.0590 -0.5229  0.4656
 2560SOL    HW110238   0.626   4.136   2.583  1.9727  0.9828 -0.1731
 2560SOL    HW210239   0.673   3.992   2.572  0.3926  0.2940  1.5148
 2560SOL     MW10240   0.652   4.068   2.534  0.2589 -0.2256  0.5181
 2561SOL     OW10241   0.420   4.076   1.817  0.0402  0.0573  0.0298
 2561SOL    HW110242   0.426   4.107   1.726  0.5041 -2.3151 -0.8456
 2561SOL    HW210243   0.495   4.115   1.861 -0.2347  1.3129 -0.5635
 2561SOL     MW10244   0.430   4.085   1.811  0.0644 -0.0856 -0.1582
 2562SOL     OW10245   4.372   1.826   5.295  0.3099  0.1901  0.5092
 2562SOL    HW110246   4.331   1.845   5.380 -0.0108  1.4105  0.0997
 2562SOL    HW210247   4.466   1.824   5.314  0.2138 -0.0237  0.9767
 2562SOL     MW10248   4.379   1.828   5.308  0.2565  0.3190  0.5167
 2563SOL     OW10249   4.070   0.331   4.272 -0.0703  0.7671  0.1763
 2563SOL    HW110250   4.113   0.247   4.282 -0.7269  0.5615  1.3789
 2563SOL    HW210251   4.119   0.375   4.202 -0.2684 -0.9377 -1.0851
 2563SOL     MW10252   4.081   0.326   4.264 -0.1797  0.5226  0.1688
 2564SOL     OW10253   3.906   0.730   3.233 -0.3169  0.4242 -0.0200
 2564SOL    HW110254   3.911   0.811   3.183  1.7579  1.6587  2.0060
 2564SOL    HW210255   3.970   0.672   3.190 -1.5550 -0.0803 -1.2574
 2564SOL     MW10256   3.915   0.733   3.221 -0.2098  0.5177  0.0810
 2565SOL     OW10257   1.667   0.872   2.116 -0.0432  0.0098  0.9461
 2565SOL    HW110258   1.594   0.811   2.110 -0.1472  0.0794  1.4762
 2565SOL    HW210259   1.742   0.823   2.083 -0.5101  0.2742 -0.6060
 2565SOL     MW10260   1.667   0.858   2.111 -0.1162  0.0525  0.8152
 2566SOL     OW10261   0.486   0.126   4.599 -0.4251  0.0870 -0.0046
 2566SOL    HW110262   0.534   0.204   4.571 -0.7566  0.7034  1.0674
 2566SOL    HW210263   0.553   0.059   4.609  0.2273  0.8809  1.2929
 2566SOL     MW10264   0.501   0.128   4.597 -0.3840  0.2676  0.2987
 2567SOL     OW10265   1.250   1.589   1.436  0.1124  0.2396  0.1515
 2567SOL    HW110266   1.338   1.555   1.423  0.0493  0.3870 -0.7396
 2567SOL    HW210267   1.209   1.583   1.350 -1.3807 -1.5633  0.9289
 2567SOL     MW10268   1.256   1.584   1.424 -0.0868  0.0277  0.1369
 2568SOL     OW10269   0.889   3.230   4.696  0.6821  0.2619  0.2823
 2568SOL    HW110270   0.793   3.223   4.692  0.5362  2.1105 -0.6875
 2568SOL    HW210271   0.920   3.145   4.664 -0.6573  0.3892 -1.5739
 2568SOL     MW10272   0.880   3.218   4.692  0.4920  0.5148 -0.0795
 2569SOL     OW10273   2.208   5.041   4.106 -0.0536  0.1447  0.1824
 2569SOL    HW110274   2.136   5.026   4.167 -0.0041 -1.8734 -0.2110
 2569SOL    HW210275   2.267   5.101   4.153 -0.5268 -0.5407  1.7088
 2569SOL     MW10276   2.207   5.047   4.120 -0.1078 -0.2013  0.3274
 2570SOL     OW10277   3.398   1.239   2.053 -0.5238  0.2327  1.0125
 2570SOL    HW110278   3.417   1.313   1.996  0.0795  0.4983  1.5500
 2570SOL    HW210279   3.405   1.162   1.997 -2.7703  0.6555  0.0343
 2570SOL     MW10280   3.401   1.238   2.039 -0.7342  0.3208  0.9561
 2571SOL     OW10281   1.305   4.659   2.699 -0.1792  0.2915 -0.2615
 2571SOL    HW110282   1.385   4.710   2.702 -0.5217  0.9250 -1.1736
 2571SOL    HW210283   1.314   4.604   2.621  0.3083 -1.2837  0.8668
 2571SOL     MW10284   1.316   4.658   2.689 -0.1606  0.1709 -0.2338
 2572SOL     OW10285   4.814  -0.011   4.554  0.4183  0.3432 -0.4706
 2572SOL    HW110286   4.836  -0.025   4.462  1.9084  1.8867 -0.4058
 2572SOL    HW210287   4.880   0.051   4.585 -0.9015  0.9462  1.2826
 2572SOL     MW10288   4.825  -0.005   4.546  0.4401  0.6180 -0.2379
 2573SOL     OW10289   4.540   2.526   5.009  0.2467  0.2198  0.1133
 2573SOL    HW110290   4.504   2.609   5.039 -1.0226  0.7024 -2.4430
 2573SOL    HW210291   4.465   2.466   5.006  0.6884 -0.3285 -0.2645
 2573SOL     MW10292   4.526   2.529   5.012  0.1407  0.2114 -0.2623
 2574SOL     OW10293   4.107   1.555   5.359 -0.1142 -0.5714  0.3863
 2574SOL    HW110294   4.154   1.581   5.281 -1.5119  1.3764  0.1288
 2574SOL    HW210295   4.043   1.491   5.329 -0.9003  0.4493 -0.1843
 2574SOL     MW10296   4.105   1.550   5.345 -0.3938 -0.1914  0.2803
 2575SOL     OW10297   1.111   3.793   0.544 -0.6773 -0.4533  0.3454
 2575SOL    HW110298   1.141   3.851   0.613 -3.0716  0.0753  1.0211
 2575SOL    HW210299   1.177   3.801   0.475  0.2605  1.2352  1.3835
 2575SOL     MW10300   1.123   3.801   0.544 -0.8637 -0.1695  0.5648
 2576SOL     OW10301   2.438   3.667   2.347  0.1074 -0.3672 -0.4307
 2576SOL    HW110302   2.348   3.658   2.316 -0.1210  0.8507 -0.1564
 2576SOL    HW210303   2.430   3.685   2.441  0.7451 -2.5870  0.1329
 2576SOL     MW10304   2.426   3.668   2.355  0.1598 -0.4955 -0.3235
 2577SOL     OW10305   4.675   4.119   2.959 -0.3802 -0.0549  0.3065
 2577SOL    HW110306   4.631   4.102   2.875  0.3851 -0.3024 -0.0478
 2577SOL    HW210307   4.667   4.036   3.007  1.6087 -0.8562 -0.6375
 2577SOL     MW10308   4.668   4.106   2.955 -0.0276 -0.1892  0.1403
 2578SOL     OW10309   1.426   0.287   0.546  0.3992  0.0554  0.2525
 2578SOL    HW110310   1.454   0.222   0.611  2.0579 -0.3028 -0.7646
 2578SOL    HW210311   1.336   0.263   0.526  0.9408 -1.9261 -0.0336
 2578SOL     MW10312   1.418   0.275   0.551  0.6808 -0.2441  0.0857
 2579SOL     OW10313   3.331   4.156   1.220  0.5696  0.0396 -0.3161
 2579SOL    HW110314   3.387   4.082   1.243 -0.0460 -0.7809 -1.3535
 2579SOL    HW210315   3.386   4.210   1.162  0.4884 -0.4735 -0.8817
 2579SOL     MW10316   3.346   4.153   1.215  0.4804 -0.1311 -0.5213
 2580SOL     OW10317   4.497   2.341   0.574 -0.4012  0.3552  0.8208
 2580SOL    HW110318   4.439   2.268   0.595  0.4311  0.0158  1.9918
 2580SOL    HW210319   4.584   2.313   0.603  0.1925  1.2510 -0.0030
 2580SOL     MW10320   4.501   2.328   0.580 -0.2186  0.4264  0.8652
 2581SOL     OW10321   4.692   2.208   0.738  0.2765 -0.2784 -0.1926
 2581SOL    HW110322   4.731   2.253   0.813 -0.4770  1.6821 -0.9129
 2581SOL    HW210323   4.648   2.132   0.776 -1.2149  1.3731  1.5595
 2581SOL     MW10324   4.692   2.204   0.752 -0.0109  0.1840 -0.0605
 2582SOL     OW10325   1.328   0.795   1.839  0.2181  0.1517  0.1463
 2582SOL    HW110326   1.262   0.849   1.883 -0.7710 -0.2843 -0.7735
 2582SOL    HW210327   1.280   0.748   1.771  1.5806  0.2613 -0.9409
 2582SOL     MW10328   1.313   0.796   1.836  0.2659  0.1099 -0.1106
 2583SOL     OW10329   0.486   4.387   0.655 -0.1033 -0.4191  0.3285
 2583SOL    HW110330   0.501   4.311   0.710  2.6713 -1.5656 -1.7945
 2583SOL    HW210331   0.393   4.382   0.632 -0.1698 -2.7168  0.8592
 2583SOL     MW10332   0.476   4.377   0.659  0.2434 -0.8600  0.1246
 2584SOL     OW10333   4.132   1.101   3.940 -0.2798 -0.0180 -0.0541
 2584SOL    HW110334   4.119   1.195   3.924 -1.1828 -0.2949 -1.1467
 2584SOL    HW210335   4.121   1.090   4.034 -1.7765  0.7605 -0.1114
 2584SOL     MW10336   4.129   1.112   3.950 -0.5870  0.0462 -0.2013
 2585SOL     OW10337   2.440   2.859   0.398  0.8263  0.5910  0.2488
 2585SOL    HW110338   2.437   2.939   0.345  2.2397 -0.2278 -1.1576
 2585SOL    HW210339   2.370   2.804   0.363 -0.4259  1.3051  1.4928
 2585SOL     MW10340   2.431   2.862   0.387  0.8469  0.5776  0.2280
 2586SOL     OW10341   3.283   0.308   4.976  0.3227  0.0591  0.3695
 2586SOL    HW110342   3.228   0.237   5.009  0.6922 -0.9173 -1.0265
 2586SOL    HW210343   3.364   0.265   4.948  0.9304  1.1684  0.3479
 2586SOL     MW10344   3.287   0.294   4.976  0.4478  0.0761  0.1881
 2587SOL     OW10345   5.157   0.095   1.040 -0.4036 -0.4440  0.0498
 2587SOL    HW110346   5.064   0.117   1.048 -0.4032 -0.4440  0.0546
 2587SOL    HW210347   5.166   0.013   1.087 -0.3203 -0.2316  0.4043
 2587SOL     MW10348   5.146   0.087   1.047 -0.3929 -0.4168  0.0958
 2588SOL     OW10349   1.307   4.678   4.763  0.3568 -0.7183  0.0827
 2588SOL    HW110350   1.281   4.703   4.852  2.0754 -1.2556  0.7791
 2588SOL    HW210351   1.243   4.720   4.706 -0.6082 -0.1212  1.5648
 2588SOL     MW10352   1.296   4.687   4.767  0.4533 -0.7106  0.3616
 2589SOL     OW10353   3.007   3.841   1.974  0.1874  0.0723 -0.0582
 2589SOL    HW110354   3.047   3.759   1.944 -0.9300 -0.5201 -0.0002
 2589SOL    HW210355   3.081   3.897   1.998  0.9592 -1.2011  0.6214
 2589SOL     MW10356   3.022   3.838   1.973  0.1431 -0.1666  0.0362
 2590SOL     OW10357   1.363   3.700   1.883 -0.1360 -0.1094 -0.3879
 2590SOL    HW110358   1.457   3.681   1.881 -0.3295 -1.1811 -0.0063
 2590SOL    HW210359   1.349   3.741   1.968  0.0320  0.2944 -0.5553
 2590SOL     MW10360   1.373   3.702   1.893 -0.1393 -0.1949 -0.3605
 2591SOL     OW10361   5.082   3.979   1.236 -0.3409 -0.0102  0.1976
 2591SOL    HW110362   5.139   4.043   1.195  1.0737 -1.5630 -0.3715
 2591SOL    HW210363   5.083   4.002   1.329  1.8638 -0.4236  0.3319
 2591SOL     MW10364   5.089   3.990   1.243  0.1224 -0.2619  0.1419
 2592SOL     OW10365   3.147   4.204   4.142  0.4163 -0.8222 -0.2643
 2592SOL    HW110366   3.146   4.112   4.114  0.3278 -0.9873  0.2719
 2592SOL    HW210367   3.092   4.206   4.220  0.2531 -0.2709 -0.3897
 2592SOL     MW10368   3.140   4.193   4.148  0.3841 -0.7727 -0.2117
 2593SOL     OW10369   4.363   4.930   4.075 -0.0464  0.3267 -0.1645
 2593SOL    HW110370   4.446   4.975   4.064 -1.2446  2.6174 -0.5523
 2593SOL    HW210371   4.379   4.864   4.142  2.5011 -0.5697 -1.5470
 2593SOL     MW10372   4.375   4.927   4.082  0.1263  0.5052 -0.3911
 2594SOL     OW10373   2.326   1.792   3.325  0.7129 -0.0577 -0.6495
 2594SOL    HW110374   2.396   1.856   3.310  1.3759 -0.8169 -0.8855
 2594SOL    HW210375   2.280   1.787   3.241  0.6721  0.0945 -0.6363
 2594SOL     MW10376   2.329   1.800   3.312  0.7926 -0.1354 -0.6780
 2595SOL     OW10377   5.190   4.798   3.472  0.0770 -0.4031  0.1791
 2595SOL    HW110378   5.141   4.879   3.460 -0.4475 -0.0950  3.4988
 2595SOL    HW210379   5.230   4.782   3.387 -1.6971  2.0461 -1.2519
 2595SOL     MW10380   5.189   4.807   3.460 -0.2173 -0.0501  0.4209
 2596SOL     OW10381   5.168   2.560   2.900  0.1450  0.1521 -0.3107
 2596SOL    HW110382   5.185   2.496   2.969  3.1579 -0.4548 -1.4744
 2596SOL    HW210383   5.109   2.624   2.941 -0.2155 -1.5183  1.9610
 2596SOL     MW10384   5.163   2.560   2.914  0.4845 -0.1394 -0.1689
 2597SOL     OW10385   2.559   5.262   3.429  0.6034 -0.2340  0.1641
 2597SOL    HW110386   2.495   5.319   3.386 -1.3325 -2.3202  0.0665
 2597SOL    HW210387   2.637   5.267   3.374 -0.2436  0.6587 -1.0173
 2597SOL     MW10388   2.561   5.270   3.417  0.2471 -0.3868  0.0003
 2598SOL     OW10389   5.023   5.208   0.376  0.2600 -0.2195  0.0028
 2598SOL    HW110390   4.937   5.202   0.417  0.2809  1.8476  0.4747
 2598SOL    HW210391   5.011   5.273   0.306  1.4024  0.0457  0.0377
 2598SOL     MW10392   5.010   5.216   0.372  0.4089  0.0791  0.0677
 2599SOL     OW10393   2.410   3.444   4.168 -0.1276 -0.1924  1.1912
 2599SOL    HW110394   2.361   3.526   4.161  2.1559  1.1905 -0.2790
 2599SOL    HW210395   2.384   3.395   4.090  0.0435  0.0832  0.9561
 2599SOL     MW10396   2.400   3.448   4.157  0.1866  0.0199  0.9729
 2600SOL     OW10397   3.838   0.313   3.315 -0.6261 -0.1377 -0.5099
 2600SOL    HW110398   3.797   0.399   3.323 -1.1866 -0.1822 -2.3481
 2600SOL    HW210399   3.784   0.256   3.371 -0.2137  0.6946  0.7599
 2600SOL     MW10400   3.826   0.317   3.323 -0.6451 -0.0368 -0.5826
 2601SOL     OW10401   3.197   0.633   3.813 -0.2869  0.0426  0.3586
 2601SOL    HW110402   3.277   0.639   3.759 -0.2286  0.9254  0.5302
 2601SOL    HW210403   3.207   0.550   3.861  0.2937 -0.0953  0.0143
 2601SOL     MW10404   3.209   0.623   3.812 -0.2051  0.1379  0.3365
 2602SOL     OW10405   1.651   2.211   2.031  0.1212  0.6673 -0.2447
 2602SOL    HW110406   1.712   2.138   2.017  0.2717  0.4813  1.2113
 2602SOL    HW210407   1.565   2.173   2.015  0.1326 -0.0851  1.3109
 2602SOL     MW10408   1.648   2.197   2.027  0.1419  0.5472  0.1408
 2603SOL     OW10409   4.622   5.108   1.787 -0.2189  0.9163  0.0900
 2603SOL    HW110410   4.675   5.168   1.735  0.1568  1.5764  1.1844
 2603SOL    HW210411   4.579   5.164   1.852 -0.3440  0.0899  0.7470
 2603SOL     MW10412   4.623   5.123   1.789 -0.1868  0.8950  0.3142
 2604SOL     OW10413   2.312   4.420   0.981  0.4941  0.5423  0.3415
 2604SOL    HW110414   2.386   4.379   1.025  0.3676 -0.1307 -0.0605
 2604SOL    HW210415   2.235   4.373   1.013 -0.0367  2.6898  2.5024
 2604SOL     MW10416   2.311   4.409   0.991  0.4100  0.7311  0.5666
 2605SOL     OW10417   1.352   0.530   1.522  0.5855  0.0228  0.3964
 2605SOL    HW110418   1.349   0.495   1.433 -0.5021  1.3100 -0.1022
 2605SOL    HW210419   1.434   0.580   1.525  1.0098 -0.6616  0.3805
 2605SOL     MW10420   1.362   0.532   1.511  0.5006  0.1000  0.3306
 2606SOL     OW10421   3.033   1.602   1.596  0.0406  0.2735  0.8591
 2606SOL    HW110422   3.090   1.578   1.669  1.3987 -2.4509 -0.9611
 2606SOL    HW210423   3.059   1.544   1.525 -0.5197  3.4373 -2.1861
 2606SOL     MW10424   3.043   1.592   1.596  0.1427  0.3298  0.2363
 2607SOL     OW10425   1.412   1.897   2.093  0.0011 -0.0080  0.1309
 2607SOL    HW110426   1.437   1.816   2.138  1.3212 -0.0519 -0.5997
 2607SOL    HW210427   1.401   1.961   2.163  0.1802 -0.5211  0.6389
 2607SOL     MW10428   1.414   1.895   2.107  0.1930 -0.0793  0.1024
 2608SOL     OW10429   4.020   1.764   4.937  0.0571 -0.0223 -0.5696
 2608SOL    HW110430   4.009   1.671   4.921  0.5649 -0.2113  0.1020
 2608SOL    HW210431   3.946   1.788   4.994  0.0832 -0.0783 -0.5126
 2608SOL     MW10432   4.009   1.755   4.943  0.1254 -0.0536 -0.4764
 2609SOL     OW10433   5.379   2.726   1.603 -0.2758  0.8841  0.1033
 2609SOL    HW110434   5.415   2.756   1.686 -2.4670  2.0675  0.6931
 2609SOL    HW210435   5.450   2.675   1.563  1.4450  1.7672  1.8699
 2609SOL     MW10436   5.393   2.723   1.608 -0.3360  1.1486  0.4049
 2610SOL     OW10437   4.564   2.640   1.561  0.1139 -0.4365  0.2287
 2610SOL    HW110438   4.588   2.717   1.613  0.4841  0.0166 -0.6114
 2610SOL    HW210439   4.475   2.658   1.531  0.2329 -0.3071 -0.0394
 2610SOL     MW10440   4.555   2.652   1.564  0.1765 -0.3619  0.0868
 2611SOL     OW10441   5.343   3.767   3.631  0.0637  0.1500 -0.3291
 2611SOL    HW110442   5.335   3.785   3.725  1.4350  0.0570 -0.1695
 2611SOL    HW210443   5.319   3.675   3.621  0.4516  0.0086  0.0240
 2611SOL     MW10444   5.339   3.758   3.642  0.2889  0.1200 -0.2635
 2612SOL     OW10445   1.140   3.743   3.712 -0.1583 -0.0421 -0.0359
 2612SOL    HW110446   1.153   3.723   3.619 -1.0881 -0.3591 -0.1077
 2612SOL    HW210447   1.221   3.787   3.738  0.8739 -1.5640 -0.5236
 2612SOL     MW10448   1.152   3.746   3.703 -0.1452 -0.2775 -0.1075
 2613SOL     OW10449   4.850   2.885   4.306 -0.0734  0.2155  0.0500
 2613SOL    HW110450   4.763   2.910   4.274  0.5181  0.6178 -1.3240
 2613SOL    HW210451   4.893   2.969   4.326  0.4141  0.0788 -0.4156
 2613SOL     MW10452   4.844   2.899   4.305  0.0647  0.2495 -0.1855
 2614SOL     OW10453   2.364   3.573   0.953  0.2603 -0.2703 -0.1328
 2614SOL    HW110454   2.410   3.646   0.913  1.0717 -0.2924  0.7284
 2614SOL    HW210455   2.348   3.512   0.881  0.6879  0.1910 -0.6209
 2614SOL     MW10456   2.367   3.574   0.938  0.4189 -0.2140 -0.0850
 2615SOL     OW10457   1.890   1.050   2.994  0.3285  0.0376 -0.1617
 2615SOL    HW110458   1.843   1.068   3.076  0.3042 -1.4434  0.1639
 2615SOL    HW210459   1.849   0.971   2.959  0.9205  0.1560 -1.1688
 2615SOL     MW10460   1.878   1.042   3.000  0.4012 -0.1368 -0.2489
 2616SOL     OW10461   4.086   0.950   0.863 -0.4335  0.0649 -0.0966
 2616SOL    HW110462   4.067   0.990   0.948  0.8012  1.6448 -0.5120
 2616SOL    HW210463   4.046   1.009   0.800 -1.3638 -1.1115 -0.6394
 2616SOL     MW10464   4.079   0.963   0.866 -0.3946  0.1165 -0.2193
 2617SOL     OW10465   1.746   0.548   1.127  0.2210  0.2719  0.0111
 2617SOL    HW110466   1.754   0.641   1.106 -1.1524  0.4062 -0.0222
 2617SOL    HW210467   1.764   0.543   1.221  1.3135  0.4087 -0.1799
 2617SOL     MW10468   1.749   0.559   1.136  0.1850  0.3066 -0.0176
 2618SOL     OW10469   2.463   3.168   1.035 -0.5264  0.2965  0.8160
 2618SOL    HW110470   2.457   3.170   0.939  0.5993  1.3835  0.7442
 2618SOL    HW210471   2.487   3.257   1.059  1.5542 -0.4962  1.9260
 2618SOL     MW10472   2.465   3.180   1.026 -0.1159  0.3342  0.9489
 2619SOL     OW10473   1.572   2.860   0.506 -0.2296  0.7681 -0.0609
 2619SOL    HW110474   1.628   2.925   0.548 -0.2702  0.5211  0.3843
 2619SOL    HW210475   1.493   2.857   0.560  0.2387 -0.4645  0.5983
 2619SOL     MW10476   1.569   2.868   0.518 -0.1749  0.5787  0.0805
 2620SOL     OW10477   5.113   0.861   3.118  0.0797 -0.2420 -0.2703
 2620SOL    HW110478   5.079   0.829   3.202 -0.9612  1.8749  0.1688
 2620SOL    HW210479   5.205   0.879   3.135 -0.4078  1.3986  0.8490
 2620SOL     MW10480   5.120   0.859   3.131 -0.1159  0.2390 -0.0708
 2621SOL     OW10481   4.904   2.554   1.481  0.0940 -0.1937  0.2108
 2621SOL    HW110482   4.865   2.578   1.565  0.1416 -0.8953  0.4405
 2621SOL    HW210483   4.995   2.533   1.502  0.4620  0.8969 -0.2337
 2621SOL     MW10484   4.911   2.554   1.495  0.1472 -0.1439  0.1833
 2622SOL     OW10485   0.744   5.329   3.684  0.2974  0.4171  0.2865
 2622SOL    HW110486   0.720   5.237   3.673 -1.1362  0.7815  0.2412
 2622SOL    HW210487   0.779   5.355   3.599  1.4224 -0.2584  0.5103
 2622SOL     MW10488   0.746   5.321   3.672  0.2579  0.3773  0.3094
 2623SOL     OW10489   0.795   4.213   2.938  0.3266  0.2684  0.2345
 2623SOL    HW110490   0.794   4.145   3.006 -0.0602  0.9319  0.9023
 2623SOL    HW210491   0.740   4.283   2.973  1.2245  1.1977 -0.1668
 2623SOL     MW10492   0.788   4.213   2.951  0.3920  0.4723  0.2686
 2624SOL     OW10493   2.538   1.345   1.065  0.0747  0.0308  0.3064
 2624SOL    HW110494   2.551   1.379   0.976  0.9234  1.1547  0.8354
 2624SOL    HW210495   2.451   1.304   1.062 -0.4679  1.1774 -0.7073
 2624SOL     MW10496   2.528   1.344   1.053  0.1139  0.3214  0.2444
 2625SOL     OW10497   0.295   4.674   4.090  0.4178 -0.3381  0.0150
 2625SOL    HW110498   0.365   4.739   4.081  0.3352 -0.3539 -0.9020
 2625SOL    HW210499   0.215   4.722   4.069  0.2898 -0.5871 -0.0732
 2625SOL     MW10500   0.294   4.689   4.086  0.3908 -0.3720 -0.1137
 2626SOL     OW10501   2.119   4.573   4.221 -0.1355  0.1758 -0.5818
 2626SOL    HW110502   2.048   4.635   4.207 -0.0807  0.2303 -0.6183
 2626SOL    HW210503   2.104   4.538   4.308  0.0416  0.5096 -0.4158
 2626SOL     MW10504   2.108   4.576   4.230 -0.1058  0.2255 -0.5652
 2627SOL     OW10505   3.016   1.392   4.348 -0.2282  0.0522 -0.1604
 2627SOL    HW110506   3.069   1.428   4.419 -0.9699  1.6813 -0.4022
 2627SOL    HW210507   2.925   1.408   4.375 -0.5879 -1.2624 -0.4929
 2627SOL     MW10508   3.011   1.398   4.361 -0.3692  0.0925 -0.2339
 2628SOL     OW10509   1.081   2.509   4.458  0.0945  0.1231  0.1478
 2628SOL    HW110510   1.103   2.465   4.376  1.5969  0.9326  0.0812
 2628SOL    HW210511   1.078   2.602   4.436  0.3669  0.3372  0.9784
 2628SOL     MW10512   1.083   2.515   4.445  0.3217  0.2541  0.2456
 2629SOL     OW10513   1.873   0.582   4.208 -0.0453 -0.6420 -0.3677
 2629SOL    HW110514   1.934   0.606   4.138  1.7701  0.1886  1.4109
 2629SOL    HW210515   1.831   0.665   4.233 -1.6656 -1.1410 -1.2978
 2629SOL     MW10516   1.876   0.596   4.202 -0.0204 -0.5995 -0.2591
 2630SOL     OW10517   4.124   5.450   1.596  0.2001  0.3176 -0.0527
 2630SOL    HW110518   4.043   5.468   1.644 -1.2495 -2.8308 -1.0553
 2630SOL    HW210519   4.187   5.422   1.663 -0.6038 -0.3735  0.4319
 2630SOL     MW10520   4.122   5.449   1.610 -0.0883 -0.1739 -0.1190
 2631SOL     OW10521   0.548   2.340   4.447  0.0339 -0.0158  0.1943
 2631SOL    HW110522   0.643   2.354   4.450 -0.0087  1.0618 -1.8487
 2631SOL    HW210523   0.528   2.293   4.528  2.1365  0.7945  1.2630
 2631SOL     MW10524   0.558   2.336   4.458  0.2976  0.2259  0.0696
 2632SOL     OW10525   3.586   1.297   3.172 -0.2693 -0.0159 -0.3132
 2632SOL    HW110526   3.591   1.301   3.076  1.1329 -0.9650 -0.3053
 2632SOL    HW210527   3.628   1.377   3.202 -0.7712  0.3153 -0.4821
 2632SOL     MW10528   3.592   1.307   3.163 -0.1540 -0.0950 -0.3338
 2633SOL     OW10529   2.696   3.902   3.249 -0.2241 -0.3778  0.3219
 2633SOL    HW110530   2.764   3.901   3.317 -1.5241 -0.1546  1.6887
 2633SOL    HW210531   2.652   3.817   3.258 -1.5349  0.3333  0.9967
 2633SOL     MW10532   2.699   3.891   3.259 -0.5583 -0.2582  0.5833
 2634SOL     OW10533   2.294   2.045   2.944  0.1879 -0.0268 -0.0612
 2634SOL    HW110534   2.379   2.003   2.961 -0.3072  0.0144  3.0129
 2634SOL    HW210535   2.231   1.991   2.991 -0.8582  2.3653  1.4321
 2634SOL     MW10536   2.297   2.033   2.952 -0.0094  0.2847  0.5235
 2635SOL     OW10537   3.281   0.918   0.830  0.5945  0.0791 -0.2530
 2635SOL    HW110538   3.240   0.991   0.877 -0.2478  0.3222 -1.3059
 2635SOL    HW210539   3.207   0.863   0.803  1.1355 -0.5538 -0.4652
 2635SOL     MW10540   3.266   0.921   0.833  0.5560  0.0292 -0.4150
 2636SOL     OW10541   1.709   0.344   2.875  0.3587 -0.9547 -0.0867
 2636SOL    HW110542   1.786   0.338   2.931  0.0435 -0.8595  0.3628
 2636SOL    HW210543   1.743   0.371   2.789  0.5902  1.4655  0.7021
 2636SOL     MW10544   1.723   0.347   2.871  0.3480 -0.6327  0.0718
 2637SOL     OW10545   1.577   0.263   3.308  0.3723  0.1289 -0.4784
 2637SOL    HW110546   1.638   0.202   3.265  0.7959  1.4792 -1.8689
 2637SOL    HW210547   1.490   0.227   3.290  0.6648 -1.1796  0.5278
 2637SOL     MW10548   1.574   0.251   3.300  0.4640  0.1342 -0.5276
 2638SOL     OW10549   0.274   3.763   0.987  0.2762  0.5308  0.1065
 2638SOL    HW110550   0.202   3.826   0.989  0.3721  0.6879 -0.7015
 2638SOL    HW210551   0.232   3.678   1.002 -0.0223  0.6638  0.0372
 2638SOL     MW10552   0.260   3.760   0.989  0.2502  0.5679 -0.0058
 2639SOL     OW10553   1.499   4.133   0.171  0.1434 -0.6732 -0.4866
 2639SOL    HW110554   1.582   4.178   0.160  0.5083 -0.9499  0.9864
 2639SOL    HW210555   1.437   4.185   0.119  0.4275  1.9140  1.5711
 2639SOL     MW10556   1.501   4.146   0.163  0.2265 -0.3774 -0.0346
 2640SOL     OW10557   2.579   4.830   3.874 -0.5057 -0.1891 -0.6305
 2640SOL    HW110558   2.496   4.877   3.879  0.0440  0.7373  0.3348
 2640SOL    HW210559   2.590   4.790   3.961  1.6332  2.6066  0.5770
 2640SOL     MW10560   2.570   4.831   3.886 -0.1615  0.2874 -0.3524
 2641SOL     OW10561   3.388   5.256   2.659 -0.6299 -0.3689  0.4785
 2641SOL    HW110562   3.384   5.194   2.586  0.5173  0.6436 -0.4784
 2641SOL    HW210563   3.297   5.266   2.686 -1.2683  0.1753 -1.6461
 2641SOL     MW10564   3.376   5.249   2.653 -0.5647 -0.1697  0.0840
 2642SOL     OW10565   2.077   0.999   3.567 -0.1033 -0.0596  0.4378
 2642SOL    HW110566   2.170   1.005   3.588 -0.1593  1.3395  0.3614
 2642SOL    HW210567   2.074   0.950   3.485  0.6381  0.5985  0.0041
 2642SOL     MW10568   2.089   0.994   3.559 -0.0155  0.2037  0.3725
 2643SOL     OW10569   4.738   4.328   3.430  0.2144  0.3592 -0.0226
 2643SOL    HW110570   4.734   4.248   3.379  0.7899  0.8659 -0.8801
 2643SOL    HW210571   4.733   4.298   3.521  0.5285 -0.6521 -0.3234
 2643SOL     MW10572   4.736   4.314   3.435  0.3283  0.2946 -0.1708
 2644SOL     OW10573   2.361   4.707   2.973  0.1366  0.0903 -0.0962
 2644SOL    HW110574   2.340   4.626   3.018  0.0222 -0.1483 -0.5782
 2644SOL    HW210575   2.399   4.680   2.889 -0.2101  0.5333 -0.4002
 2644SOL     MW10576   2.363   4.693   2.968  0.0776  0.1165 -0.1968
 2645SOL     OW10577   1.725   0.676   0.524 -0.3789 -0.4544  0.2588
 2645SOL    HW110578   1.745   0.665   0.432 -0.1298 -0.7578  0.3493
 2645SOL    HW210579   1.775   0.607   0.569 -1.7103 -1.3185  0.4732
 2645SOL     MW10580   1.734   0.666   0.518 -0.5174 -0.6039  0.2978
 2646SOL     OW10581   4.080   5.005   4.575  0.5337  0.0097  0.0890
 2646SOL    HW110582   4.139   4.932   4.556 -0.5126 -1.2109  1.2544
 2646SOL    HW210583   4.100   5.071   4.509  0.8761 -1.7114 -1.6069
 2646SOL     MW10584   4.090   5.004   4.564  0.4436 -0.3669  0.0211
 2647SOL     OW10585   0.830   2.200   1.295 -0.3227 -0.5155 -0.2655
 2647SOL    HW110586   0.882   2.259   1.350 -1.5860  0.4017  0.0025
 2647SOL    HW210587   0.793   2.136   1.355 -1.0246 -0.0148 -0.1452
 2647SOL     MW10588   0.832   2.200   1.309 -0.5743 -0.3340 -0.2158
 2648SOL     OW10589   1.597   3.864   4.606 -0.0764  0.0221 -0.0641
 2648SOL    HW110590   1.641   3.816   4.536 -0.1550 -0.4981  0.2327
 2648SOL    HW210591   1.539   3.799   4.646 -2.3879  1.0667 -1.4947
 2648SOL     MW10592   1.595   3.849   4.602 -0.3824  0.0892 -0.2092
 2649SOL     OW10593   1.113   2.122   5.204  0.2607 -0.2836 -0.0904
 2649SOL    HW110594   1.114   2.026   5.215  0.4135 -0.2805 -0.0786
 2649SOL    HW210595   1.177   2.153   5.268  0.1745 -0.1692 -0.0602
 2649SOL     MW10596   1.121   2.113   5.214  0.2692 -0.2686 -0.0850
 2650SOL     OW10597   2.095   5.067   1.245  0.0604 -0.8419  0.0248
 2650SOL    HW110598   2.006   5.048   1.216  0.0098 -1.4576  0.5366
 2650SOL    HW210599   2.136   4.981   1.254 -0.3875 -0.8515  3.1321
 2650SOL     MW10600   2.089   5.053   1.243 -0.0034 -0.9220  0.4881
 2651SOL     OW10601   0.410   4.551   3.412 -0.2799  0.1185  0.2174
 2651SOL    HW110602   0.339   4.615   3.411  0.3832  0.8578 -0.4691
 2651SOL    HW210603   0.370   4.471   3.447 -1.3305  0.6535  0.2581
 2651SOL     MW10604   0.396   4.549   3.416 -0.3295  0.2817  0.1347
 2652SOL     OW10605   4.614   1.947   3.037 -0.2842 -0.5003 -0.4624
 2652SOL    HW110606   4.694   1.982   3.075 -0.0804 -0.1618 -1.1839
 2652SOL    HW210607   4.544   1.997   3.078 -0.1716 -1.1982  0.6039
 2652SOL     MW10608   4.615   1.958   3.047 -0.2437 -0.5463 -0.4183
 2653SOL     OW10609   0.709   3.651   4.556  0.6345  0.2930  0.0253
 2653SOL    HW110610   0.671   3.645   4.468 -1.5329  1.5376  0.8156
 2653SOL    HW210611   0.776   3.582   4.557 -0.7756 -1.2391 -1.8649
 2653SOL     MW10612   0.713   3.641   4.545  0.1766  0.2562 -0.1155
 2654SOL     OW10613   2.459   1.679   5.315  0.1094 -0.2264  0.4383
 2654SOL    HW110614   2.384   1.620   5.307 -0.6932  0.6995  0.8212
 2654SOL    HW210615   2.456   1.708   5.407 -0.2805  1.3463 -0.0326
 2654SOL     MW10616   2.449   1.675   5.326 -0.0432  0.0934  0.4270
 2655SOL     OW10617   4.002   3.471   3.717  0.3435  0.0828 -0.4079
 2655SOL    HW110618   4.011   3.565   3.702 -0.0048  0.1586 -0.1479
 2655SOL    HW210619   3.972   3.436   3.634  0.8920  0.1353 -0.6381
 2655SOL     MW10620   4.000   3.478   3.705  0.3692  0.0992 -0.4040
 2656SOL     OW10621   2.139   0.988   1.938  0.2758  0.2859  0.8550
 2656SOL    HW110622   2.123   1.033   2.021  0.3917 -0.5083  1.3103
 2656SOL    HW210623   2.209   1.039   1.897  0.2696  0.6422  1.2736
 2656SOL     MW10624   2.146   1.001   1.943  0.2898  0.2299  0.9669
 2657SOL     OW10625   4.912   3.389   3.226 -0.3267  0.5326  0.7293
 2657SOL    HW110626   4.843   3.324   3.239 -0.4703  0.5394  0.0552
 2657SOL    HW210627   4.994   3.342   3.240 -0.4434  0.2957  0.6067
 2657SOL     MW10628   4.914   3.375   3.229 -0.3600  0.5031  0.6273
 2658SOL     OW10629   2.081   2.738   5.205  0.1084 -0.9632  0.1350
 2658SOL    HW110630   2.074   2.652   5.163  0.1730 -1.1572  0.5156
 2658SOL    HW210631   2.174   2.760   5.198 -0.0905 -0.4244 -0.9333
 2658SOL     MW10632   2.092   2.730   5.199  0.0912 -0.9191  0.0470
 2659SOL     OW10633   5.192   2.455   3.142  0.0939  0.0515 -0.5182
 2659SOL    HW110634   5.121   2.394   3.122 -1.1500 -0.0275  3.3225
 2659SOL    HW210635   5.149   2.527   3.188  2.4976 -0.3838  2.6995
 2659SOL     MW10636   5.177   2.456   3.145  0.2424 -0.0144  0.3854
 2660SOL     OW10637   4.114   2.775   3.127  0.0602  0.5809 -0.6443
 2660SOL    HW110638   4.150   2.750   3.212  1.4891  1.4451 -0.9648
 2660SOL    HW210639   4.155   2.716   3.064 -1.7917 -0.7751 -0.6827
 2660SOL     MW10640   4.124   2.765   3.130  0.0061  0.5180 -0.6902
 2661SOL     OW10641   5.131   3.435   3.883  0.0549 -0.0298  0.1134
 2661SOL    HW110642   5.112   3.515   3.931  1.5343  1.2414 -1.2879
 2661SOL    HW210643   5.226   3.423   3.894  0.1183 -0.6959 -0.9771
 2661SOL     MW10644   5.141   3.444   3.891  0.2524  0.0477 -0.2056
 2662SOL     OW10645   1.212   0.279   3.506  0.7809  0.3131 -0.0700
 2662SOL    HW110646   1.119   0.267   3.485  0.5533  1.6852  0.0279
 2662SOL    HW210647   1.258   0.248   3.428  0.0939  2.2697 -1.3249
 2662SOL     MW10648   1.206   0.273   3.493  0.6638  0.7392 -0.2181
 2663SOL     OW10649   0.013   2.318   4.311 -0.3177  0.0831  0.2624
 2663SOL    HW110650  -0.042   2.377   4.259 -0.4722 -1.6567 -1.7052
 2663SOL    HW210651   0.088   2.299   4.254  0.1360 -0.9543  1.1749
 2663SOL     MW10652   0.015   2.323   4.297 -0.2794 -0.2724  0.1273
 2664SOL     OW10653   4.255   2.919   3.399  0.0334  0.2909 -0.0403
 2664SOL    HW110654   4.222   2.829   3.403 -0.3026  0.4370  0.6057
 2664SOL    HW210655   4.309   2.928   3.478 -0.5098  0.8803  0.2692
 2664SOL     MW10656   4.258   2.909   3.410 -0.0792  0.3851  0.0820
 2665SOL     OW10657   5.176   0.186   3.701  0.2767  0.0334 -0.2296
 2665SOL    HW110658   5.106   0.181   3.766  0.3322 -0.5893 -0.2106
 2665SOL    HW210659   5.244   0.128   3.735 -0.5575 -2.0384 -1.8798
 2665SOL     MW10660   5.176   0.178   3.714  0.1770 -0.3115 -0.4384
 2666SOL     OW10661   3.693   3.179   4.550 -0.2449  0.3649 -0.0642
 2666SOL    HW110662   3.704   3.256   4.494  2.8469 -0.4325 -0.8016
 2666SOL    HW210663   3.747   3.198   4.627  0.5800 -0.9820 -0.2647
 2666SOL     MW10664   3.702   3.191   4.553  0.2565  0.0904 -0.1842
 2667SOL     OW10665   5.279   3.395   0.892 -0.4571  0.1420  0.4442
 2667SOL    HW110666   5.184   3.411   0.894 -0.5604 -0.3958  0.1577
 2667SOL    HW210667   5.296   3.344   0.971 -0.9737 -2.5913 -1.0772
 2667SOL     MW10668   5.269   3.390   0.902 -0.5364 -0.2768  0.2127
 2668SOL     OW10669   0.462   1.907   2.959 -0.3198  0.1640  0.0696
 2668SOL    HW110670   0.450   1.874   2.870 -1.0128  1.8573 -0.5114
 2668SOL    HW210671   0.378   1.890   3.003 -0.2496  0.0335  0.1527
 2668SOL     MW10672   0.450   1.901   2.953 -0.3995  0.3641  0.0058
 2669SOL     OW10673   3.711   0.160   0.126 -0.3081  0.1859 -0.2835
 2669SOL    HW110674   3.785   0.195   0.174 -0.2908 -0.3148  0.0628
 2669SOL    HW210675   3.634   0.201   0.166 -0.5255 -2.3423  2.1361
 2669SOL     MW10676   3.710   0.170   0.137 -0.3337 -0.2018  0.0706
 2670SOL     OW10677   2.095   3.438   2.799 -0.4017  0.1921 -0.1316
 2670SOL    HW110678   2.124   3.505   2.860  0.7872 -0.2580 -0.1763
 2670SOL    HW210679   2.031   3.387   2.848 -1.4243  1.4083 -0.1416
 2670SOL     MW10680   2.091   3.440   2.813 -0.3804  0.2902 -0.1386
 2671SOL     OW10681   0.941   5.216   1.337 -0.4214  0.1923  0.0798
 2671SOL    HW110682   0.851   5.224   1.371 -0.1818 -0.0942  0.8167
 2671SOL    HW210683   0.968   5.128   1.365 -0.3474 -0.2172 -1.2297
 2671SOL     MW10684   0.933   5.206   1.345 -0.3813  0.1032  0.0065
 2672SOL     OW10685   3.438   2.212   0.133  0.2656 -0.2681  0.6318
 2672SOL    HW110686   3.522   2.201   0.090 -0.2710  0.1651 -0.5710
 2672SOL    HW210687   3.459   2.215   0.226  1.6315  0.3142  0.3329
 2672SOL     MW10688   3.451   2.211   0.139  0.3717 -0.1381  0.4395
 2673SOL     OW10689   5.302   4.815   2.518 -0.2754 -0.0588  0.5641
 2673SOL    HW110690   5.315   4.769   2.436  0.8957  0.2725  0.5595
 2673SOL    HW210691   5.207   4.812   2.532 -0.3706 -1.1034 -0.2153
 2673SOL     MW10692   5.291   4.808   2.510 -0.1377 -0.1501  0.4637
 2674SOL     OW10693   1.306   1.200   2.199 -0.1178 -0.8577  0.3279
 2674SOL    HW110694   1.212   1.183   2.202 -0.1590 -0.8037 -0.4267
 2674SOL    HW210695   1.323   1.253   2.277 -0.8134 -0.4043  0.1807
 2674SOL     MW10696   1.296   1.205   2.209 -0.2121 -0.7927  0.2125
 2675SOL     OW10697   1.048   2.912   3.285 -0.1406  0.2328 -0.0623
 2675SOL    HW110698   0.976   2.885   3.342 -0.3756  0.3770 -0.2852
 2675SOL    HW210699   1.113   2.843   3.293  0.4970  0.9740  1.5632
 2675SOL     MW10700   1.047   2.900   3.293 -0.0890  0.3461  0.1173
 2676SOL     OW10701   3.373   2.269   5.165  0.2877 -0.0619 -0.3881
 2676SOL    HW110702   3.313   2.342   5.177 -1.7782 -1.2104 -2.7336
 2676SOL    HW210703   3.412   2.284   5.079  1.8014 -0.4443  0.1985
 2676SOL     MW10704   3.371   2.280   5.156  0.2170 -0.2579 -0.6132
 2677SOL     OW10705   0.170   3.655   3.284  0.4886  0.0568 -0.0322
 2677SOL    HW110706   0.096   3.684   3.230  0.9667  1.0981 -0.1591
 2677SOL    HW210707   0.239   3.635   3.221  1.0812  1.3677  0.1562
 2677SOL     MW10708   0.170   3.656   3.269  0.6257  0.3579 -0.0243
 2678SOL     OW10709   2.904   2.756   4.405  0.2039  0.0903 -0.6803
 2678SOL    HW110710   2.814   2.789   4.405 -0.8979 -2.5827  0.3109
 2678SOL    HW210711   2.939   2.782   4.490 -0.4527 -0.7474 -0.1356
 2678SOL     MW10712   2.897   2.763   4.416 -0.0212 -0.3591 -0.4837
 2679SOL     OW10713   1.702   3.209   3.502 -0.1632  0.6974 -0.3375
 2679SOL    HW110714   1.769   3.154   3.464 -0.8329  0.3412 -1.0100
 2679SOL    HW210715   1.712   3.294   3.458 -1.0164  0.2529 -1.4404
 2679SOL     MW10716   1.712   3.213   3.492 -0.3581  0.5949 -0.5648
 2680SOL     OW10717   2.099   1.088   4.243 -0.5417 -0.0143 -0.0203
 2680SOL    HW110718   2.068   1.178   4.250  0.4115  0.3043  0.2151
 2680SOL    HW210719   2.100   1.056   4.333 -1.0870 -0.3428 -0.1238
 2680SOL     MW10720   2.095   1.095   4.255 -0.4895 -0.0156 -0.0034
 2681SOL     OW10721   3.758   4.580   3.054  0.0834  0.5786 -0.3198
 2681SOL    HW110722   3.697   4.520   3.010  0.4318 -0.4995  0.6257
 2681SOL    HW210723   3.770   4.542   3.141  0.3690  2.0010  0.2845
 2681SOL     MW10724   3.751   4.567   3.059  0.1645  0.6227 -0.1214
 2682SOL     OW10725   2.560   1.246   1.391 -0.4729 -0.2163 -0.2833
 2682SOL    HW110726   2.606   1.260   1.474 -1.9386 -2.4422  1.0073
 2682SOL    HW210727   2.566   1.330   1.346  3.4126  0.0930  0.4450
 2682SOL     MW10728   2.566   1.259   1.396 -0.1631 -0.4616 -0.0249
 2683SOL     OW10729   5.282   1.024   0.443  0.5419 -0.4713 -0.0094
 2683SOL    HW110730   5.189   1.018   0.464 -0.2163 -0.9834 -3.0367
 2683SOL    HW210731   5.286   1.079   0.364  2.8187 -0.4629  0.0272
 2683SOL     MW10732   5.271   1.030   0.435  0.7363 -0.5358 -0.3923
 2684SOL     OW10733   2.714   0.421   2.020 -0.2740 -0.5416  0.4531
 2684SOL    HW110734   2.737   0.343   1.969 -0.8873 -0.9005  0.7014
 2684SOL    HW210735   2.751   0.494   1.972 -0.2168 -0.9396 -0.1163
 2684SOL     MW10736   2.721   0.420   2.008 -0.3452 -0.6385  0.4120
 2685SOL     OW10737   3.427   3.205   3.754  0.4560 -0.0935  0.3679
 2685SOL    HW110738   3.471   3.120   3.746  1.6915  0.3597  1.8971
 2685SOL    HW210739   3.367   3.194   3.828  0.0228  0.1356  0.0571
 2685SOL     MW10740   3.425   3.193   3.762  0.5587 -0.0061  0.5239
 2686SOL     OW10741   3.085   4.844   1.914  0.3862  0.2272 -0.6802
 2686SOL    HW110742   3.109   4.918   1.858  1.8722  0.6236  0.4116
 2686SOL    HW210743   3.069   4.884   2.000 -0.7251 -0.5080 -0.5235
 2686SOL     MW10744   3.086   4.859   1.918  0.4341  0.1839 -0.5204
 2687SOL     OW10745   5.403   4.750   0.688  0.1105 -0.8062  0.0707
 2687SOL    HW110746   5.429   4.764   0.597  2.7084  1.4460  1.0038
 2687SOL    HW210747   5.456   4.676   0.718  1.3378  0.1867  0.4333
 2687SOL     MW10748   5.413   4.743   0.681  0.6002 -0.3908  0.2366
 2688SOL     OW10749   4.328   2.595   2.034 -0.2240  0.2732  0.2659
 2688SOL    HW110750   4.300   2.505   2.013  1.1137 -0.4907  1.5711
 2688SOL    HW210751   4.401   2.612   1.975 -0.9748  0.8082 -0.5152
 2688SOL     MW10752   4.334   2.585   2.024 -0.1489  0.2439  0.3330
 2689SOL     OW10753   2.697   2.160   4.573  0.1036 -0.3771  0.0076
 2689SOL    HW110754   2.619   2.198   4.613  0.1774  0.7121 -0.8392
 2689SOL    HW210755   2.693   2.187   4.481  1.4268 -0.3776 -0.0677
 2689SOL     MW10756   2.687   2.168   4.566  0.2824 -0.2378 -0.1104
 2690SOL     OW10757   4.156   4.905   1.968  0.1013  0.0968  0.2255
 2690SOL    HW110758   4.163   4.856   1.886  0.5524 -1.2771  1.0544
 2690SOL    HW210759   4.240   4.891   2.012 -0.1740  0.7104  0.9870
 2690SOL     MW10760   4.168   4.897   1.963  0.1238 -0.0005  0.4291
 2691SOL     OW10761   2.693   2.766   0.408 -0.2025  0.5261  0.1793
 2691SOL    HW110762   2.706   2.738   0.317  0.3126 -1.0698  0.7115
 2691SOL    HW210763   2.599   2.783   0.415 -0.0029  2.5444 -1.1210
 2691SOL     MW10764   2.682   2.765   0.397 -0.1110  0.5802  0.0809
 2692SOL     OW10765   3.288   5.140   3.932 -0.1597 -0.0910 -0.3211
 2692SOL    HW110766   3.337   5.162   4.011  0.5833 -0.1637 -0.7549
 2692SOL    HW210767   3.255   5.224   3.900  0.9876  0.1675 -0.8722
 2692SOL     MW10768   3.290   5.153   3.938  0.0822 -0.0672 -0.4472
 2693SOL     OW10769   1.647   1.767   1.878 -0.2929 -0.6103 -0.5742
 2693SOL    HW110770   1.563   1.731   1.904 -0.4928 -0.8258 -1.4697
 2693SOL    HW210771   1.626   1.846   1.829  0.1215  0.3977  0.8028
 2693SOL     MW10772   1.634   1.772   1.875 -0.2655 -0.5089 -0.5126
 2694SOL     OW10773   1.740   3.203   1.421  0.6503 -0.0830  0.4532
 2694SOL    HW110774   1.786   3.229   1.500 -0.2838  0.1260  0.9418
 2694SOL    HW210775   1.648   3.194   1.448  0.2394  0.4328 -0.6896
 2694SOL     MW10776   1.734   3.205   1.434  0.4781  0.0098  0.3695
 2695SOL     OW10777   1.127   2.905   0.360 -0.4427  0.4968  0.0241
 2695SOL    HW110778   1.178   2.841   0.310  1.3650  2.1991 -0.4333
 2695SOL    HW210779   1.099   2.969   0.295 -2.8889 -0.1536  0.3471
 2695SOL     MW10780   1.130   2.905   0.346 -0.5245  0.6314  0.0069
 2696SOL     OW10781   0.518   0.938   1.787 -0.2787  0.0337 -0.1693
 2696SOL    HW110782   0.464   0.883   1.844 -1.2767  1.1392 -0.0147
 2696SOL    HW210783   0.456   0.998   1.745  0.6444  0.3158 -1.1758
 2696SOL     MW10784   0.503   0.939   1.789 -0.2883  0.2113 -0.2784
 2697SOL     OW10785   3.448   1.787   3.139  0.3165 -0.0804  0.3847
 2697SOL    HW110786   3.400   1.846   3.198 -0.0993  0.5200 -0.5333
 2697SOL    HW210787   3.486   1.721   3.197  0.8000  1.0874  1.4457
 2697SOL     MW10788   3.447   1.786   3.154  0.3252  0.1460  0.4030
 2698SOL     OW10789   2.227   1.255   3.270 -0.3041 -0.0562 -0.3792
 2698SOL    HW110790   2.272   1.334   3.239 -0.3767  0.0697 -0.1627
 2698SOL    HW210791   2.136   1.282   3.281 -0.3103 -0.1450 -0.2099
 2698SOL     MW10792   2.221   1.268   3.267 -0.3142 -0.0515 -0.3298
 2699SOL     OW10793   4.039   4.430   0.538  0.7075  0.3570  0.5280
 2699SOL    HW110794   4.006   4.514   0.567  0.8791  0.5069  0.2971
 2699SOL    HW210795   4.025   4.371   0.612  0.1760  0.4809  0.5276
 2699SOL     MW10796   4.033   4.433   0.551  0.6615  0.3920  0.4984
 2700SOL     OW10797   4.297   3.205   2.284  0.1819  0.0895 -0.0536
 2700SOL    HW110798   4.243   3.282   2.297 -0.3100 -0.3328  0.4114
 2700SOL    HW210799   4.247   3.150   2.223 -0.1361 -0.5133  0.7415
 2700SOL     MW10800   4.284   3.207   2.278  0.0783 -0.0417  0.1077
 2701SOL     OW10801   3.552   1.286   0.480 -0.5870 -0.5987  0.1753
 2701SOL    HW110802   3.489   1.254   0.415 -0.5490  0.9021 -0.6408
 2701SOL    HW210803   3.512   1.366   0.514 -0.2193 -0.9226  1.4296
 2701SOL     MW10804   3.539   1.292   0.476 -0.5351 -0.4481  0.2314
 2702SOL     OW10805   2.900   3.642   3.908 -0.0322 -0.0632  0.5593
 2702SOL    HW110806   2.867   3.556   3.932  1.0834 -0.1314  2.0412
 2702SOL    HW210807   2.831   3.680   3.854 -0.3503 -2.0381 -0.5281
 2702SOL     MW10808   2.887   3.636   3.904  0.0699 -0.3247  0.6098
 2703SOL     OW10809   0.959   5.011   3.137 -0.6389  0.8342  0.2291
 2703SOL    HW110810   0.941   4.917   3.144  0.2925  0.5651 -0.7037
 2703SOL    HW210811   0.932   5.047   3.221 -4.2810  0.3098 -0.5705
 2703SOL     MW10812   0.954   5.004   3.148 -0.9859  0.7326  0.0073
 2704SOL     OW10813   3.857   2.476   3.401  0.5158  0.1300 -0.3469
 2704SOL    HW110814   3.898   2.538   3.462  0.0365 -0.0668  0.1850
 2704SOL    HW210815   3.817   2.531   3.334  0.1149  0.3959  0.1055
 2704SOL     MW10816   3.857   2.491   3.400  0.4031  0.1389 -0.2209
 2705SOL     OW10817   5.409   0.941   2.302  0.3001  0.0298  0.5929
 2705SOL    HW110818   5.422   0.857   2.345  0.8595  0.7865  1.9444
 2705SOL    HW210819   5.487   0.992   2.325 -0.6315  1.3654  0.8596
 2705SOL     MW10820   5.421   0.937   2.310  0.2525  0.2977  0.8000
 2706SOL     OW10821   2.096   5.273   1.476 -0.1593  0.0659  0.8164
 2706SOL    HW110822   2.102   5.220   1.396 -3.7993  1.3885 -0.5620
 2706SOL    HW210823   2.133   5.358   1.451 -0.2981  0.1394  0.8565
 2706SOL     MW10824   2.101   5.277   1.463 -0.6430  0.2446  0.6451
 2707SOL     OW10825   3.065   2.747   5.192  0.3114 -0.4574  0.3880
 2707SOL    HW110826   2.999   2.809   5.161 -0.2490 -1.7146 -1.0217
 2707SOL    HW210827   3.145   2.799   5.199 -0.1155  0.4193 -0.8542
 2707SOL     MW10828   3.067   2.762   5.189  0.1850 -0.5061  0.0485
 2708SOL     OW10829   3.450   2.392   1.528  0.1937  0.0917  0.3339
 2708SOL    HW110830   3.479   2.484   1.533  0.6005 -0.0076 -0.1000
 2708SOL    HW210831   3.491   2.351   1.605 -0.6253  0.4375  0.9657
 2708SOL     MW10832   3.459   2.399   1.539  0.1410  0.1233  0.3592
 2709SOL     OW10833   2.926   0.794   2.477 -0.1600  0.0308 -0.6189
 2709SOL    HW110834   2.873   0.829   2.549 -0.2550 -2.3736  0.5898
 2709SOL    HW210835   2.890   0.836   2.399 -1.8030  0.7868  0.4643
 2709SOL     MW10836   2.914   0.804   2.476 -0.3825 -0.1802 -0.3255
 2710SOL     OW10837   4.161   1.792   1.309  0.3116  0.1772 -0.1222
 2710SOL    HW110838   4.071   1.796   1.277  0.5043  0.4007 -0.6493
 2710SOL    HW210839   4.182   1.698   1.310  1.1106  0.2405 -3.0172
 2710SOL     MW10840   4.153   1.780   1.305  0.4385  0.2139 -0.5603
 2711SOL     OW10841   5.107   0.470   1.055 -0.2428  0.2273 -0.2101
 2711SOL    HW110842   5.068   0.462   0.968  0.3170 -1.0529 -0.3758
 2711SOL    HW210843   5.162   0.392   1.063 -0.0846  0.4621  1.1925
 2711SOL     MW10844   5.109   0.459   1.045 -0.1509  0.0935 -0.0518
 2712SOL     OW10845   4.848   0.347   4.640 -0.0570  0.6497  0.1349
 2712SOL    HW110846   4.856   0.393   4.557  1.5019  0.8062  0.3398
 2712SOL    HW210847   4.898   0.266   4.627 -1.6747 -0.3959  0.2029
 2712SOL     MW10848   4.856   0.342   4.628 -0.0646  0.5359  0.1698
 2713SOL     OW10849   5.192   2.479   1.492  0.2706 -0.4809 -0.0394
 2713SOL    HW110850   5.227   2.404   1.443  1.1008 -1.5676  2.0934
 2713SOL    HW210851   5.270   2.528   1.520 -0.1875  0.1446  0.1597
 2713SOL     MW10852   5.207   2.476   1.489  0.3182 -0.5400  0.2591
 2714SOL     OW10853   2.417   1.160   0.781  0.0049 -0.0047  0.6876
 2714SOL    HW110854   2.503   1.141   0.819  0.5859  1.7181  0.3471
 2714SOL    HW210855   2.361   1.178   0.856  0.1005 -0.5352  0.8889
 2714SOL     MW10856   2.421   1.160   0.795  0.0916  0.1479  0.6698
 2715SOL     OW10857   3.939   4.795   4.779  0.2718  0.6853  0.0627
 2715SOL    HW110858   3.880   4.871   4.779 -1.1389 -0.3675 -0.4045
 2715SOL    HW210859   3.982   4.799   4.693 -1.6616 -0.3737 -1.0262
 2715SOL     MW10860   3.937   4.806   4.768 -0.1563  0.4149 -0.1365
 2716SOL     OW10861   0.389   1.401   1.745 -0.5994  0.3786  0.2231
 2716SOL    HW110862   0.401   1.308   1.729  0.5060  0.4953  0.3420
 2716SOL    HW210863   0.472   1.431   1.782 -0.6345  1.5855 -0.6007
 2716SOL     MW10864   0.401   1.393   1.748 -0.4624  0.5480  0.1329
 2717SOL     OW10865   1.314   3.671   0.042  0.2099 -0.1707  0.1868
 2717SOL    HW110866   1.233   3.719   0.061  0.2054 -0.3584  0.6651
 2717SOL    HW210867   1.377   3.740   0.019  0.1859  0.0674  0.8071
 2717SOL     MW10868   1.311   3.686   0.042  0.2063 -0.1642  0.3275
 2718SOL     OW10869   4.906   3.721   3.834 -0.0773  0.8209  0.6979
 2718SOL    HW110870   4.870   3.773   3.906 -1.8199  2.4692 -1.2179
 2718SOL    HW210871   4.944   3.785   3.774  1.4420 -0.5091  0.1483
 2718SOL     MW10872   4.906   3.736   3.835 -0.1059  0.8616  0.3823
 2719SOL     OW10873   0.148   1.735   1.176  0.3640 -0.0068 -0.5489
 2719SOL    HW110874   0.096   1.744   1.096 -2.6275  0.8862  1.3256
 2719SOL    HW210875   0.160   1.824   1.207 -0.3415 -0.4192  1.0109
 2719SOL     MW10876   0.143   1.747   1.170 -0.1092  0.0547 -0.1093
 2720SOL     OW10877   0.137   2.946   0.785 -0.3617 -0.3548  0.2132
 2720SOL    HW110878   0.063   2.993   0.746  0.1322 -0.4510 -0.8981
 2720SOL    HW210879   0.156   2.876   0.722  0.9286 -0.0791  0.2714
 2720SOL     MW10880   0.130   2.943   0.772 -0.1333 -0.3319  0.0784
 2721SOL     OW10881   4.733   4.194   1.280  0.5331  0.4580 -0.4426
 2721SOL    HW110882   4.821   4.232   1.281  0.5665  0.4799 -1.8646
 2721SOL    HW210883   4.675   4.270   1.274  0.5139  0.3741 -1.4058
 2721SOL     MW10884   4.737   4.209   1.279  0.5349  0.4501 -0.7480
 2722SOL     OW10885   1.980   4.484   4.757  0.2045  0.1727  0.4016
 2722SOL    HW110886   1.949   4.421   4.692  1.4726 -0.0755  0.0226
 2722SOL    HW210887   2.059   4.445   4.794  0.3520  1.0057  1.0028
 2722SOL     MW10888   1.986   4.471   4.753  0.3857  0.2476  0.4300
 2723SOL     OW10889   2.388   0.624   4.751  0.1554 -0.1768 -0.0629
 2723SOL    HW110890   2.356   0.578   4.828 -1.3636 -0.0068 -0.5732
 2723SOL    HW210891   2.448   0.562   4.710 -0.5509 -1.0400  0.1844
 2723SOL     MW10892   2.392   0.610   4.756 -0.1295 -0.2655 -0.0965
 2724SOL     OW10893   2.965   3.351   0.803 -0.4621 -0.4401 -0.1348
 2724SOL    HW110894   2.983   3.258   0.794 -1.1106 -0.6725  0.7747
 2724SOL    HW210895   2.877   3.362   0.765 -0.0254 -0.0296 -1.0510
 2724SOL     MW10896   2.956   3.341   0.797 -0.4892 -0.4173 -0.1357
 2725SOL     OW10897   5.373   1.161   2.549 -0.1597 -0.0009 -0.3297
 2725SOL    HW110898   5.352   1.119   2.632 -1.1526 -0.2725 -0.7069
 2725SOL    HW210899   5.374   1.090   2.485  0.1141  0.2741 -0.6371
 2725SOL     MW10900   5.371   1.146   2.552 -0.2518 -0.0005 -0.4173
 2726SOL     OW10901   2.687   2.152   3.546 -0.8298  0.1793 -0.3567
 2726SOL    HW110902   2.687   2.248   3.547 -2.1294  0.1865  0.1828
 2726SOL    HW210903   2.646   2.126   3.628  0.4507 -0.8778 -0.0087
 2726SOL     MW10904   2.682   2.161   3.557 -0.8323  0.0449 -0.2431
 2727SOL     OW10905   2.335   5.012   1.992  0.0575 -0.0407  0.0274
 2727SOL    HW110906   2.317   4.928   1.949  0.7738 -0.7033  0.9712
 2727SOL    HW210907   2.303   5.078   1.930  0.2021 -0.9813 -1.0863
 2727SOL     MW10908   2.328   5.010   1.979  0.1677 -0.2459  0.0057
 2728SOL     OW10909   4.295   2.108   4.677 -0.6790 -0.6930 -0.5148
 2728SOL    HW110910   4.273   2.034   4.734  0.5973 -0.3953  0.4262
 2728SOL    HW210911   4.387   2.093   4.653 -1.0347 -0.5124 -2.0551
 2728SOL     MW10912   4.304   2.097   4.681 -0.5612 -0.6318 -0.5915
 2729SOL     OW10913   4.703   5.157   0.890 -0.1276  0.1744 -0.0530
 2729SOL    HW110914   4.759   5.219   0.936 -0.7195  1.0677 -0.4976
 2729SOL    HW210915   4.760   5.119   0.823  0.1569  0.4890  0.0070
 2729SOL     MW10916   4.718   5.160   0.887 -0.1669  0.3291 -0.1022
 2730SOL     OW10917   4.311   5.065   0.185  0.3591  0.2215  0.2028
 2730SOL    HW110918   4.392   5.115   0.188  0.3026  0.7328 -2.8132
 2730SOL    HW210919   4.248   5.118   0.233  1.0723  1.4374 -0.1575
 2730SOL     MW10920   4.313   5.078   0.191  0.4432  0.4426 -0.2294
 2731SOL     OW10921   4.153   0.232   1.531  1.0535 -0.7978  0.2583
 2731SOL    HW110922   4.136   0.141   1.555 -0.0295 -1.1594 -1.6116
 2731SOL    HW210923   4.084   0.281   1.576 -0.2723 -1.3246 -1.0821
 2731SOL     MW10924   4.142   0.226   1.540  0.7452 -0.9115 -0.1527
 2732SOL     OW10925   5.421   2.166   5.458  0.8963  0.3633 -0.4302
 2732SOL    HW110926   5.357   2.129   5.519  0.8365 -0.8425 -1.1906
 2732SOL    HW210927   5.376   2.238   5.415  0.2170 -0.1516 -0.5925
 2732SOL     MW10928   5.407   2.170   5.461  0.8017  0.1430 -0.5484
 2733SOL     OW10929   0.487   4.336   4.259 -0.0147 -0.5101 -0.3976
 2733SOL    HW110930   0.508   4.429   4.270 -1.1202 -0.3424  0.4014
 2733SOL    HW210931   0.392   4.333   4.250  0.0050 -1.5692 -0.4004
 2733SOL     MW10932   0.478   4.347   4.259 -0.1537 -0.6242 -0.2957
 2734SOL     OW10933   1.119   2.549   3.453  0.3671 -0.1562  0.2091
 2734SOL    HW110934   1.176   2.620   3.425  0.0850 -0.1106 -0.2468
 2734SOL    HW210935   1.169   2.469   3.434 -0.6062 -0.2389 -2.3448
 2734SOL     MW10936   1.133   2.548   3.447  0.2064 -0.1610 -0.1762
 2735SOL     OW10937   1.712   4.067   2.299  0.0628  0.3279  0.0985
 2735SOL    HW110938   1.707   3.992   2.359  1.8876  1.3213  1.6359
 2735SOL    HW210939   1.777   4.041   2.234 -0.7051 -0.1158 -0.5125
 2735SOL     MW10940   1.720   4.054   2.299  0.1981  0.3983  0.2171
 2736SOL     OW10941   4.194   1.209   0.418  0.0684  0.2788  0.6993
 2736SOL    HW110942   4.184   1.169   0.331  0.3828 -1.1827  1.3039
 2736SOL    HW210943   4.194   1.135   0.478  0.0834  1.2580  1.9383
 2736SOL     MW10944   4.193   1.194   0.414  0.1106  0.2171  0.9353
 2737SOL     OW10945   2.987   4.344   2.051  0.1916 -0.1632 -0.1464
 2737SOL    HW110946   3.036   4.362   1.971  0.9016  0.9047  0.5018
 2737SOL    HW210947   2.909   4.297   2.022  0.9723 -0.7802 -1.3426
 2737SOL     MW10948   2.983   4.340   2.037  0.3824 -0.1055 -0.2166
 2738SOL     OW10949   2.703   3.349   0.775  0.0474  0.1144  0.2834
 2738SOL    HW110950   2.731   3.319   0.861  1.6870  0.3691 -0.1101
 2738SOL    HW210951   2.682   3.442   0.788  1.5987  0.5122  0.1881
 2738SOL     MW10952   2.704   3.357   0.787  0.4559  0.1979  0.2208
 2739SOL     OW10953   2.443   2.952   0.664  0.5359 -0.2089 -0.0299
 2739SOL    HW110954   2.414   2.922   0.577  0.9643 -0.6895 -0.0092
 2739SOL    HW210955   2.384   2.908   0.725  0.1458  0.2361 -0.0790
 2739SOL     MW10956   2.431   2.943   0.661  0.5408 -0.2134 -0.0335
 2740SOL     OW10957   0.037   5.332   0.255 -0.0364 -0.2932 -0.1752
 2740SOL    HW110958   0.032   5.368   0.167 -0.5363  0.2138  0.0484
 2740SOL    HW210959   0.004   5.243   0.247 -1.1742  0.1240 -0.3072
 2740SOL     MW10960   0.032   5.325   0.243 -0.2460 -0.1749 -0.1635
 2741SOL     OW10961   1.160   5.069   5.095  0.1445  0.4008  0.6548
 2741SOL    HW110962   1.100   5.078   5.021  0.6247  0.4644  0.2683
 2741SOL    HW210963   1.178   4.975   5.101 -0.7269  0.2701  1.3660
 2741SOL     MW10964   1.155   5.058   5.087  0.0944  0.3922  0.6964
 2742SOL     OW10965   4.590   4.836   4.929  0.4143  0.0482  0.2618
 2742SOL    HW110966   4.649   4.884   4.987 -0.6982  1.0010  0.6541
 2742SOL    HW210967   4.584   4.749   4.968  1.5298 -0.0644  0.2177
 2742SOL     MW10968   4.597   4.831   4.942  0.4147  0.1558  0.3064
 2743SOL     OW10969   2.401   5.212   4.189 -0.7260  0.6152  0.5993
 2743SOL    HW110970   2.391   5.261   4.107  3.8036  0.4105 -0.3292
 2743SOL    HW210971   2.373   5.273   4.257  0.1232  2.7154 -0.8356
 2743SOL     MW10972   2.396   5.226   4.187 -0.0375  0.8578  0.2968
 2744SOL     OW10973   3.468   2.778   2.298 -0.2476  0.2269  0.1301
 2744SOL    HW110974   3.469   2.682   2.293 -1.4956  0.2036  0.1621
 2744SOL    HW210975   3.420   2.798   2.378 -2.2787  0.8886 -1.1887
 2744SOL     MW10976   3.462   2.768   2.307 -0.6674  0.3086 -0.0346
 2745SOL     OW10977   5.451   3.862   4.786 -0.4064  0.5929 -0.7358
 2745SOL    HW110978   5.460   3.912   4.867 -1.1178  0.1373 -0.3625
 2745SOL    HW210979   5.484   3.921   4.718 -0.5838  1.3070 -0.2212
 2745SOL     MW10980   5.456   3.876   4.788 -0.5202  0.6260 -0.6221
 2746SOL     OW10981   2.527   3.659   3.352  0.2529  0.0894  0.2242
 2746SOL    HW110982   2.469   3.606   3.299 -0.0663  0.2915  0.3676
 2746SOL    HW210983   2.609   3.610   3.355 -0.6414 -1.4623  2.0816
 2746SOL     MW10984   2.530   3.646   3.346  0.0976 -0.0834  0.4804
 2747SOL     OW10985   4.948   3.041   3.306 -0.1556 -0.0950 -0.0296
 2747SOL    HW110986   4.880   3.035   3.239 -0.1766 -1.9991  0.1193
 2747SOL    HW210987   5.014   2.977   3.279 -0.3165 -1.1429  1.9179
 2747SOL     MW10988   4.948   3.032   3.294 -0.1789 -0.4729  0.2388
 2748SOL     OW10989   3.260   4.534   2.318 -0.1341 -0.4412 -0.0919
 2748SOL    HW110990   3.291   4.459   2.369 -1.7209  0.2951  2.1182
 2748SOL    HW210991   3.326   4.545   2.249  2.4098 -1.2414  2.0363
 2748SOL     MW10992   3.273   4.525   2.316 -0.0116 -0.4494  0.4634
 2749SOL     OW10993   5.467   5.136   2.714 -0.0977 -0.1417  0.0394
 2749SOL    HW110994   5.496   5.049   2.688  2.0308 -0.0019  1.7361
 2749SOL    HW210995   5.439   5.126   2.805 -0.8908  0.7423 -0.0893
 2749SOL     MW10996   5.467   5.124   2.722  0.0733 -0.0106  0.2401
 2750SOL     OW10997   0.782   4.236   4.516 -0.4413 -0.2811 -0.1417
 2750SOL    HW110998   0.812   4.251   4.606 -0.2614  0.8941 -0.3818
 2750SOL    HW210999   0.860   4.204   4.470 -0.4365 -0.5099  0.0218
 2750SOL     MW11000   0.796   4.233   4.522 -0.4177 -0.1600 -0.1515
 2751SOL     OW11001   0.064   3.790   1.261  0.1776 -0.3070  0.4177
 2751SOL    HW111002   0.043   3.700   1.286 -1.8115  0.3920  1.4995
 2751SOL    HW211003   0.023   3.802   1.175 -1.5809  0.1691  1.2549
 2751SOL     MW11004   0.056   3.780   1.253 -0.3021 -0.1566  0.6633
 2752SOL     OW11005   2.006   0.875   4.880 -0.5997  0.1656 -0.0258
 2752SOL    HW111006   2.071   0.944   4.868 -1.6053  1.0064 -0.8541
 2752SOL    HW211007   2.003   0.861   4.974 -0.1306  1.0081  0.1283
 2752SOL     MW11008   2.014   0.882   4.890 -0.6684  0.3811 -0.1121
 2753SOL     OW11009   0.306   0.895   4.978 -0.2157  0.0228 -0.3319
 2753SOL    HW111010   0.216   0.861   4.969 -1.0110  1.6319  0.9620
 2753SOL    HW211011   0.312   0.964   4.913  0.9393 -1.6045 -2.0354
 2753SOL     MW11012   0.295   0.899   4.969 -0.1696  0.0204 -0.3844
 2754SOL     OW11013   4.189   1.331   0.788 -0.4676  0.0995 -0.1194
 2754SOL    HW111014   4.183   1.398   0.720 -1.8635  0.6554  0.5026
 2754SOL    HW211015   4.263   1.276   0.762 -0.0046  1.2123 -1.2436
 2754SOL     MW11016   4.198   1.332   0.776 -0.5870  0.3131 -0.1837
 2755SOL     OW11017   3.057   2.310   3.475 -0.4458 -0.1331 -0.3293
 2755SOL    HW111018   3.149   2.306   3.451 -0.4011 -0.9290 -0.0705
 2755SOL    HW211019   3.023   2.386   3.429 -0.3152 -1.4788 -2.8123
 2755SOL     MW11020   3.064   2.319   3.466 -0.4234 -0.4072 -0.6140
 2756SOL     OW11021   0.487   0.968   3.249  0.2059 -0.0545  0.0126
 2756SOL    HW111022   0.523   0.883   3.224 -1.9191 -0.6586 -1.2129
 2756SOL    HW211023   0.441   0.951   3.331  0.2016  0.0187  0.0253
 2756SOL     MW11024   0.486   0.955   3.256 -0.0667 -0.1224 -0.1426
 2757SOL     OW11025   4.483   3.546   0.915 -0.2089  0.0674 -1.0123
 2757SOL    HW111026   4.542   3.519   0.844  1.5068 -0.2997  0.4832
 2757SOL    HW211027   4.540   3.590   0.978 -1.3695 -1.0539  0.9026
 2757SOL     MW11028   4.498   3.548   0.914 -0.1379 -0.1231 -0.5757
 2758SOL     OW11029   1.736   1.263   3.670 -0.3617  0.0871  0.1294
 2758SOL    HW111030   1.751   1.344   3.622  0.4014  0.1573  0.4721
 2758SOL    HW211031   1.824   1.235   3.698 -0.6710 -0.5777  0.4545
 2758SOL     MW11032   1.749   1.270   3.667 -0.3036  0.0110  0.2149
 2759SOL     OW11033   4.860   5.020   4.593 -0.4352  0.9466 -0.0359
 2759SOL    HW111034   4.872   5.072   4.513  2.5621  0.1828 -0.1904
 2759SOL    HW211035   4.863   5.085   4.663 -1.8361  1.4885 -0.4428
 2759SOL     MW11036   4.862   5.035   4.591 -0.2308  0.9182 -0.1077
 2760SOL     OW11037   1.610   4.829   1.836  0.2769  0.2018  0.4751
 2760SOL    HW111038   1.551   4.893   1.796 -0.1415 -0.2832  0.3154
 2760SOL    HW211039   1.553   4.758   1.865  0.7943 -0.3300  0.2037
 2760SOL     MW11040   1.595   4.828   1.835  0.2896  0.0716  0.4199
 2761SOL     OW11041   4.628   2.051   1.339  0.4281 -0.4854  0.1047
 2761SOL    HW111042   4.629   2.032   1.433 -0.2897 -0.7424  0.0633
 2761SOL    HW211043   4.568   1.987   1.302  0.2319  0.0082 -0.4445
 2761SOL     MW11044   4.620   2.041   1.347  0.3111 -0.4551  0.0291
 2762SOL     OW11045   1.180   4.207   2.105  0.2554  0.5348  0.2327
 2762SOL    HW111046   1.244   4.159   2.052 -0.5770 -0.0372 -0.2668
 2762SOL    HW211047   1.218   4.208   2.193  0.4424 -0.7672  0.1860
 2762SOL     MW11048   1.193   4.201   2.109  0.1728  0.2949  0.1628
 2763SOL     OW11049   4.284   1.107   0.171  0.0399  0.2734  0.2317
 2763SOL    HW111050   4.346   1.144   0.233  0.2800  0.9360 -0.3938
 2763SOL    HW211051   4.245   1.183   0.126  0.4843 -0.2039 -1.0199
 2763SOL     MW11052   4.287   1.121   0.173  0.1275  0.2971 -0.0086
 2764SOL     OW11053   2.890   4.382   0.358 -0.3519  0.1869  0.6725
 2764SOL    HW111054   2.868   4.446   0.290  0.7416 -0.1243 -0.0142
 2764SOL    HW211055   2.957   4.426   0.411 -0.9086  0.2754  1.3029
 2764SOL     MW11056   2.896   4.396   0.356 -0.2832  0.1584  0.6653
 2765SOL     OW11057   4.154   1.612   0.396  0.3268 -0.4232 -0.4667
 2765SOL    HW111058   4.233   1.586   0.349  0.3349 -2.3220  0.4936
 2765SOL    HW211059   4.090   1.543   0.376 -0.8056  0.5950 -0.4859
 2765SOL     MW11060   4.156   1.600   0.388  0.1829 -0.5359 -0.3462
 2766SOL     OW11061   3.560   0.700   0.757 -0.4345 -0.1206 -0.2835
 2766SOL    HW111062   3.653   0.695   0.735 -0.5442 -0.4129 -0.7046
 2766SOL    HW211063   3.558   0.730   0.848  0.0829 -0.5593 -0.1204
 2766SOL     MW11064   3.571   0.703   0.766 -0.3823 -0.2142 -0.3165
 2767SOL     OW11065   2.317   2.222   2.236 -0.0682  0.3310 -0.0139
 2767SOL    HW111066   2.337   2.241   2.145  0.2133  0.6020  0.1002
 2767SOL    HW211067   2.347   2.300   2.284  1.4214 -0.5094  0.5059
 2767SOL     MW11068   2.324   2.235   2.231  0.1585  0.2581  0.0672
 2768SOL     OW11069   2.986   1.522   4.118  0.0966  0.4995 -0.1692
 2768SOL    HW111070   3.021   1.477   4.195  2.0659  2.8365  0.4309
 2768SOL    HW211071   2.924   1.586   4.154 -0.9098 -0.1298 -0.7741
 2768SOL     MW11072   2.983   1.525   4.132  0.2199  0.7181 -0.1698
 2769SOL     OW11073   1.788   0.680   0.261 -0.1179 -0.4198 -0.0850
 2769SOL    HW111074   1.877   0.646   0.252  0.2693 -0.0644  1.9673
 2769SOL    HW211075   1.798   0.775   0.264 -0.5498 -0.3874  0.3746
 2769SOL     MW11076   1.801   0.688   0.260 -0.1237 -0.3701  0.2365
 2770SOL     OW11077   0.596   4.196   5.081 -0.2683  0.5537 -0.0893
 2770SOL    HW111078   0.593   4.182   5.175 -1.4812 -0.5011 -0.2544
 2770SOL    HW211079   0.535   4.131   5.045  0.7266  0.4265 -1.6514
 2770SOL     MW11080   0.588   4.186   5.088 -0.2962  0.4024 -0.3104
 2771SOL     OW11081   4.087   2.154   3.655 -0.4359 -0.1867 -0.1192
 2771SOL    HW111082   4.089   2.241   3.695  1.0159  0.1119 -0.7774
 2771SOL    HW211083   3.995   2.141   3.631 -0.6485  1.2613 -0.1832
 2771SOL     MW11084   4.075   2.163   3.657 -0.2772  0.0369 -0.2116
 2772SOL     OW11085   0.333   0.924   3.461 -0.0768 -0.3225 -0.3216
 2772SOL    HW111086   0.351   0.966   3.545 -1.5564 -2.2413  1.0237
 2772SOL    HW211087   0.324   0.831   3.481 -0.8463 -0.7955 -2.5465
 2772SOL     MW11088   0.334   0.918   3.474 -0.3647 -0.6287 -0.4342
 2773SOL     OW11089   5.336   1.373   1.390  0.0452  0.3886 -0.0474
 2773SOL    HW111090   5.413   1.421   1.362  0.3472  0.0187  0.1468
 2773SOL    HW211091   5.301   1.334   1.310 -1.0269  2.0843 -0.4602
 2773SOL     MW11092   5.341   1.375   1.376 -0.0534  0.5584 -0.0754
 2774SOL     OW11093   2.032   2.258   4.756 -0.2511  0.3307  0.2152
 2774SOL    HW111094   2.116   2.282   4.719 -0.2831 -0.9123 -0.7082
 2774SOL    HW211095   2.018   2.322   4.826 -0.2433  2.8279 -1.9067
 2774SOL     MW11096   2.041   2.269   4.761 -0.2542  0.4912 -0.1746
 2775SOL     OW11097   1.909   4.155   3.706  0.1373 -0.1077  0.4871
 2775SOL    HW111098   1.820   4.149   3.740 -0.2075 -0.3563 -0.4358
 2775SOL    HW211099   1.916   4.244   3.672  0.4928  0.1520  1.2225
 2775SOL     MW11100   1.899   4.166   3.706  0.1387 -0.1063  0.4631
 2776SOL     OW11101   0.375   5.097   0.813  0.2373  0.2871 -0.8622
 2776SOL    HW111102   0.412   5.164   0.871  0.1880  0.6335 -1.2213
 2776SOL    HW211103   0.321   5.043   0.870  0.7085  0.2252 -0.4691
 2776SOL     MW11104   0.373   5.099   0.828  0.2913  0.3235 -0.8578
 2777SOL     OW11105   4.029   4.927   1.071 -0.4062  0.0688 -0.4108
 2777SOL    HW111106   4.060   5.017   1.072 -2.4505  0.8302 -1.0431
 2777SOL    HW211107   4.021   4.906   0.978 -0.1176 -0.7203 -0.2655
 2777SOL     MW11108   4.032   4.936   1.059 -0.6309  0.0652 -0.4731
 2778SOL     OW11109   3.075   2.377   2.595 -0.2813 -0.0716  0.0625
 2778SOL    HW111110   3.130   2.455   2.588 -0.7842  0.3243  0.4373
 2778SOL    HW211111   3.044   2.361   2.506 -0.2137  0.1851 -0.0077
 2778SOL     MW11112   3.078   2.385   2.583 -0.3370  0.0120  0.1015
 2779SOL     OW11113   4.930   2.638   1.949  0.2626  0.5310  0.3823
 2779SOL    HW111114   4.872   2.675   2.016 -0.2178 -0.9782  0.8424
 2779SOL    HW211115   4.873   2.581   1.898  0.9624  0.4716 -0.3515
 2779SOL     MW11116   4.915   2.636   1.951  0.2907  0.3302  0.3473
 2780SOL     OW11117   4.618   4.773   0.406 -0.0922 -0.5326  0.3013
 2780SOL    HW111118   4.643   4.831   0.334 -0.6250 -0.8773 -0.1736
 2780SOL    HW211119   4.694   4.717   0.420 -0.5608 -1.5908 -1.1467
 2780SOL     MW11120   4.631   4.773   0.399 -0.2203 -0.7122  0.0552
 2781SOL     OW11121   4.538   1.744   4.956 -0.6709 -0.7853  0.2610
 2781SOL    HW111122   4.607   1.795   4.998 -0.2116 -0.6059 -0.6777
 2781SOL    HW211123   4.558   1.653   4.979  0.4841 -0.8326 -0.7951
 2781SOL     MW11124   4.549   1.739   4.964 -0.4643 -0.7684  0.0057
 2782SOL     OW11125   4.118   2.530   1.706 -0.1051  0.5416  0.1606
 2782SOL    HW111126   4.065   2.518   1.627  0.7401  1.4177 -0.5615
 2782SOL    HW211127   4.178   2.600   1.684  0.8680  0.0704  1.2232
 2782SOL     MW11128   4.119   2.537   1.693  0.1276  0.5934  0.2042
 2783SOL     OW11129   1.699   1.380   3.955  0.7171  0.3255  0.3323
 2783SOL    HW111130   1.611   1.359   3.924  0.8844 -1.6582  1.0213
 2783SOL    HW211131   1.748   1.403   3.876 -0.4299  1.6417 -0.0358
 2783SOL     MW11132   1.694   1.380   3.941  0.5917  0.2400  0.3734
 2784SOL     OW11133   2.380   2.935   3.367 -0.4982 -0.2862 -0.6501
 2784SOL    HW111134   2.285   2.937   3.352 -0.3297  2.1217 -1.9298
 2784SOL    HW211135   2.417   2.913   3.282  0.1053 -1.2665 -0.1447
 2784SOL     MW11136   2.372   2.933   3.354 -0.3994 -0.1034 -0.7492
 2785SOL     OW11137   3.122   4.375   4.552  0.3875  0.6212  0.1088
 2785SOL    HW111138   3.118   4.363   4.647 -1.6414  0.0311  0.0118
 2785SOL    HW211139   3.055   4.441   4.534 -0.1854 -0.2374 -1.0082
 2785SOL     MW11140   3.113   4.382   4.562  0.0544  0.4357 -0.0466
 2786SOL     OW11141   0.112   1.059   5.191  0.0912 -0.4018 -0.3055
 2786SOL    HW111142   0.026   1.097   5.209  0.7070  0.8558  0.0922
 2786SOL    HW211143   0.099   1.009   5.110 -1.0200 -0.2708 -0.2237
 2786SOL     MW11144   0.099   1.058   5.183  0.0277 -0.2240 -0.2441
 2787SOL     OW11145   4.390   0.211   3.519 -0.1443 -0.0734 -0.0975
 2787SOL    HW111146   4.366   0.284   3.577 -0.2196 -0.2749  0.1277
 2787SOL    HW211147   4.483   0.196   3.538  0.6373  1.7219 -2.0788
 2787SOL     MW11148   4.399   0.218   3.529 -0.0539  0.1306 -0.3223
 2788SOL     OW11149   4.630   3.220   2.973 -0.0578 -0.1763  0.3986
 2788SOL    HW111150   4.590   3.165   2.905 -0.6610  0.7921 -0.0398
 2788SOL    HW211151   4.681   3.285   2.924 -0.7438  0.7157  0.8660
 2788SOL     MW11152   4.632   3.221   2.958 -0.2228  0.0619  0.4023
 2789SOL     OW11153   5.303   2.136   4.400 -0.2104  0.1436 -0.0614
 2789SOL    HW111154   5.346   2.097   4.476 -0.2104 -0.6297 -0.4462
 2789SOL    HW211155   5.370   2.191   4.360 -0.1661  0.4395  0.4130
 2789SOL     MW11156   5.317   2.138   4.404 -0.2048  0.0825 -0.0500
 2790SOL     OW11157   1.458   3.946   3.309 -0.1716  0.5218  0.1225
 2790SOL    HW111158   1.495   4.003   3.241 -0.4286  0.3404 -0.1708
 2790SOL    HW211159   1.460   3.999   3.389  1.1184  0.3761  0.2099
 2790SOL     MW11160   1.463   3.960   3.311 -0.0393  0.4800  0.0962
 2791SOL     OW11161   3.405   5.346   4.912  0.2319 -0.3699  0.5764
 2791SOL    HW111162   3.425   5.327   5.004  0.4638 -1.9253  0.2206
 2791SOL    HW211163   3.487   5.327   4.866 -0.0074  0.0231 -0.0177
 2791SOL     MW11164   3.418   5.341   4.918  0.2310 -0.5187  0.4548
 2792SOL     OW11165   4.282   2.085   1.618  0.5327  0.0420  0.4505
 2792SOL    HW111166   4.273   1.990   1.612 -0.2196  0.0676  1.0032
 2792SOL    HW211167   4.329   2.100   1.700 -0.0092  0.1680  0.7447
 2792SOL     MW11168   4.287   2.075   1.627  0.3670  0.0614  0.5589
 2793SOL     OW11169   1.610   2.658   2.673  0.1686 -0.4145  0.1146
 2793SOL    HW111170   1.698   2.632   2.645  0.3357  0.1474  0.1073
 2793SOL    HW211171   1.557   2.651   2.593  0.7672  1.7427 -0.5397
 2793SOL     MW11172   1.614   2.653   2.659  0.2666 -0.0664  0.0299
 2794SOL     OW11173   5.411   4.072   1.278  0.0997  0.1004  0.1271
 2794SOL    HW111174   5.481   4.011   1.256 -1.0593 -1.1515 -0.2145
 2794SOL    HW211175   5.372   4.096   1.194 -1.2070 -0.8569  0.4400
 2794SOL     MW11176   5.415   4.068   1.264 -0.2159 -0.1824  0.1234
 2795SOL     OW11177   2.315   1.462   0.732 -0.0283  0.0563 -0.3968
 2795SOL    HW111178   2.366   1.407   0.673  0.7956  0.2114  0.1458
 2795SOL    HW211179   2.378   1.491   0.798 -0.5397  1.2962 -0.4252
 2795SOL     MW11180   2.330   1.459   0.733  0.0117  0.2349 -0.3310
 2796SOL     OW11181   4.298   4.023   3.667  0.1323  0.3007 -0.2021
 2796SOL    HW111182   4.230   3.999   3.731  0.0659  2.5598  0.6794
 2796SOL    HW211183   4.380   3.999   3.709 -0.0311 -1.7997 -0.9761
 2796SOL     MW11184   4.300   4.017   3.681  0.1029  0.3210 -0.1884
 2797SOL     OW11185   0.663   2.086   3.179  0.4183 -0.1989 -0.4243
 2797SOL    HW111186   0.701   2.006   3.142  1.3482  0.3307 -0.6314
 2797SOL    HW211187   0.712   2.157   3.138  1.3922  0.4266  1.7121
 2797SOL     MW11188   0.674   2.085   3.169  0.6620 -0.0510 -0.1774
 2798SOL     OW11189   3.479   1.410   1.868 -0.0628 -0.0103  0.8980
 2798SOL    HW111190   3.559   1.373   1.830  0.2228 -0.9525  2.3650
 2798SOL    HW211191   3.491   1.505   1.862  0.5328 -0.1343 -0.1473
 2798SOL     MW11192   3.491   1.418   1.862  0.0500 -0.1468  0.9520
 2799SOL     OW11193   5.004   2.481   3.840 -0.3220  0.0253  0.1413
 2799SOL    HW111194   5.083   2.531   3.816 -0.9586  0.9855 -0.0126
 2799SOL    HW211195   4.943   2.498   3.768 -0.2326 -1.7893 -0.4096
 2799SOL     MW11196   5.007   2.490   3.827 -0.3920 -0.0840  0.0511
 2800SOL     OW11197   5.122   4.753   0.592 -0.3202 -0.0512 -0.1592
 2800SOL    HW111198   5.062   4.690   0.632  1.4725 -1.0225  1.1584
 2800SOL    HW211199   5.200   4.750   0.647  0.2328  2.6010 -0.6618
 2800SOL     MW11200   5.124   4.744   0.604 -0.0200  0.1640 -0.0549
 2801SOL     OW11201   3.363   0.897   1.242 -0.1414  0.4061  0.1373
 2801SOL    HW111202   3.385   0.990   1.249  1.2526 -0.0027  2.1876
 2801SOL    HW211203   3.288   0.885   1.300  0.2545  0.1122  0.5993
 2801SOL     MW11204   3.356   0.907   1.251  0.0877  0.3161  0.4589
 2802SOL     OW11205   0.202   1.684   5.362 -0.5393  0.4327 -0.4369
 2802SOL    HW111206   0.186   1.659   5.453  0.5952 -0.1087 -0.3661
 2802SOL    HW211207   0.264   1.757   5.367  0.5490 -0.4228 -0.7701
 2802SOL     MW11208   0.208   1.690   5.374 -0.2547  0.2539 -0.4705
 2803SOL     OW11209   1.675   3.378   2.919  0.0857  0.4907  0.2801
 2803SOL    HW111210   1.677   3.433   2.998 -0.9721  2.4341 -0.9528
 2803SOL    HW211211   1.645   3.437   2.850  0.0619 -1.3893 -1.4076
 2803SOL     MW11212   1.672   3.393   2.920 -0.0527  0.4988 -0.0937
 2804SOL     OW11213   2.312   5.458   4.952  0.6109  0.0482  0.3116
 2804SOL    HW111214   2.332   5.465   4.859 -0.8312  0.8546  0.0327
 2804SOL    HW211215   2.250   5.529   4.968  3.4892  2.2842  2.6772
 2804SOL     MW11216   2.306   5.468   4.942  0.7947  0.4377  0.5787
 2805SOL     OW11217   4.909   2.367   0.815 -0.1070  0.0654  0.3128
 2805SOL    HW111218   5.004   2.362   0.803  0.1698  0.9244  1.8708
 2805SOL    HW211219   4.897   2.418   0.895 -1.9092  0.5888 -0.2288
 2805SOL     MW11220   4.919   2.373   0.824 -0.3023  0.2423  0.4429
 2806SOL     OW11221   4.306   4.367   5.450  0.3669 -0.0313 -0.5340
 2806SOL    HW111222   4.255   4.435   5.492  2.1024  1.6783 -1.0402
 2806SOL    HW211223   4.346   4.409   5.374  1.2020 -1.7120 -1.0920
 2806SOL     MW11224   4.305   4.381   5.446  0.6960 -0.0276 -0.6703
 2807SOL     OW11225   2.616   2.422   0.724  0.1477  0.8063  0.0008
 2807SOL    HW111226   2.653   2.400   0.809  1.1296 -0.1639 -0.6446
 2807SOL    HW211227   2.684   2.472   0.680 -0.4621  1.5440 -0.1220
 2807SOL     MW11228   2.630   2.425   0.729  0.1953  0.7765 -0.0975
 2808SOL     OW11229   2.938   2.436   1.959  0.1512  0.1076  0.2122
 2808SOL    HW111230   2.982   2.460   2.041  0.0110  0.1505  0.2756
 2808SOL    HW211231   2.931   2.341   1.963 -0.3607  0.1555  0.5115
 2808SOL     MW11232   2.943   2.427   1.970  0.0678  0.1192  0.2586
 2809SOL     OW11233   1.198   1.166   1.834  0.0864  0.6019 -0.2893
 2809SOL    HW111234   1.242   1.229   1.891  2.3335 -0.7130 -0.4228
 2809SOL    HW211235   1.137   1.218   1.782  0.0472  2.2423  1.3364
 2809SOL     MW11236   1.196   1.180   1.834  0.3691  0.6435 -0.0983
 2810SOL     OW11237   1.011   3.731   4.800 -0.2625  0.3541 -0.2341
 2810SOL    HW111238   0.971   3.650   4.831 -1.3605  1.4051  1.2938
 2810SOL    HW211239   1.060   3.706   4.722 -0.9785 -1.6692 -0.0931
 2810SOL     MW11240   1.012   3.718   4.794 -0.4947  0.2296 -0.0205
 2811SOL     OW11241   3.588   0.861   3.371  0.5158 -0.3661  0.1519
 2811SOL    HW111242   3.598   0.776   3.329 -0.2258 -0.8243  0.8820
 2811SOL    HW211243   3.635   0.922   3.313  0.4412 -1.1468 -0.7511
 2811SOL     MW11244   3.596   0.858   3.358  0.4113 -0.5247  0.1297
 2812SOL     OW11245   4.398   1.148   0.742  0.4862 -0.1620 -0.6129
 2812SOL    HW111246   4.477   1.140   0.688  0.2872 -0.3390 -0.8807
 2812SOL    HW211247   4.330   1.105   0.691  0.2218 -0.0363 -0.3673
 2812SOL     MW11248   4.400   1.141   0.729  0.4268 -0.1686 -0.6157
 2813SOL     OW11249   5.482   5.240   1.835 -0.3157 -0.0565  0.2340
 2813SOL    HW111250   5.426   5.189   1.776  0.1680 -1.9344  1.3412
 2813SOL    HW211251   5.422   5.276   1.900 -0.7844  1.6193 -1.0584
 2813SOL     MW11252   5.467   5.238   1.835 -0.3138 -0.0824  0.2103
 2814SOL     OW11253   2.687   5.453   2.284 -0.2335 -0.0533  0.4017
 2814SOL    HW111254   2.729   5.383   2.235 -0.4893 -1.0377  1.5394
 2814SOL    HW211255   2.748   5.527   2.279 -0.6851  0.2475 -2.1870
 2814SOL     MW11256   2.700   5.454   2.277 -0.3240 -0.1408  0.2160
 2815SOL     OW11257   2.702   5.192   1.001  0.3080 -0.0032 -0.3317
 2815SOL    HW111258   2.741   5.263   0.951 -2.4082  0.7396 -1.5914
 2815SOL    HW211259   2.700   5.118   0.940  0.0792 -0.1247 -0.1802
 2815SOL     MW11260   2.707   5.191   0.987 -0.0690  0.0763 -0.4735
 2816SOL     OW11261   0.757   2.103   4.476  0.3453 -0.1845  0.6202
 2816SOL    HW111262   0.668   2.086   4.444  0.7853  0.2093 -0.9029
 2816SOL    HW211263   0.777   2.191   4.443  1.6321 -0.6292  0.2027
 2816SOL     MW11264   0.748   2.112   4.468  0.5663 -0.1910  0.3718
 2817SOL     OW11265   3.333   1.494   3.432 -0.5090 -0.0853  0.1657
 2817SOL    HW111266   3.294   1.568   3.477  0.8378  0.5412  0.3553
 2817SOL    HW211267   3.263   1.428   3.428 -1.7208  1.1600  0.0190
 2817SOL     MW11268   3.319   1.495   3.437 -0.4917  0.1543  0.1712
 2818SOL     OW11269   5.435   1.895   2.674  0.1097 -0.4128 -0.5714
 2818SOL    HW111270   5.405   1.965   2.732 -0.5723 -0.8245 -0.4117
 2818SOL    HW211271   5.530   1.898   2.681  0.0800  0.2565 -0.2834
 2818SOL     MW11272   5.443   1.905   2.682  0.0186 -0.3798 -0.5141
 2819SOL     OW11273   3.529   3.090   2.799  0.3036  0.4420 -0.4848
 2819SOL    HW111274   3.558   3.136   2.878  0.2362 -0.9599  0.3934
 2819SOL    HW211275   3.463   3.147   2.760 -0.2535  0.7889  0.9204
 2819SOL     MW11276   3.524   3.104   2.804  0.2236  0.3070 -0.1925
 2820SOL     OW11277   4.211   4.365   4.440 -0.3975  0.7381  0.0147
 2820SOL    HW111278   4.196   4.270   4.436  0.5685  0.5852 -0.4631
 2820SOL    HW211279   4.164   4.393   4.518  1.8468 -0.6901  2.0490
 2820SOL     MW11280   4.203   4.356   4.449  0.0134  0.5357  0.2140
 2821SOL     OW11281   3.260   2.679   3.955 -0.4047  0.5777  0.6712
 2821SOL    HW111282   3.299   2.712   3.874 -1.4680 -0.8497 -0.4703
 2821SOL    HW211283   3.228   2.758   3.999 -0.9429  1.3034 -0.9250
 2821SOL     MW11284   3.261   2.694   3.950 -0.6097  0.4879  0.3207
 2822SOL     OW11285   1.564   4.617   4.708 -0.2295  0.3318  0.2730
 2822SOL    HW111286   1.548   4.525   4.685 -0.6570  0.4662  0.0135
 2822SOL    HW211287   1.478   4.651   4.734 -0.0607  0.6389  0.4383
 2822SOL     MW11288   1.551   4.610   4.708 -0.2626  0.3883  0.2610
 2823SOL     OW11289   3.974   5.039   5.016  0.6938 -0.0241  0.4448
 2823SOL    HW111290   3.994   5.125   5.054  2.2437  0.2770 -0.9395
 2823SOL    HW211291   4.058   4.993   5.018  0.0894 -1.1640  0.2659
 2823SOL     MW11292   3.988   5.044   5.021  0.8148 -0.1314  0.2446
 2824SOL     OW11293   3.852   3.001   4.388 -0.4617  0.1442 -0.4143
 2824SOL    HW111294   3.783   3.037   4.443  0.3792  1.1706 -0.0078
 2824SOL    HW211295   3.879   2.920   4.432 -0.4513  0.4633  0.1660
 2824SOL     MW11296   3.847   2.995   4.400 -0.3527  0.3164 -0.2880
 2825SOL     OW11297   3.505   2.030   3.835 -0.3499  0.2756  0.2533
 2825SOL    HW111298   3.442   2.079   3.782 -0.3894  0.0119  0.0514
 2825SOL    HW211299   3.472   2.038   3.924 -0.9760 -0.3112  0.0838
 2825SOL     MW11300   3.492   2.037   3.839 -0.4351  0.1667  0.2057
 2826SOL     OW11301   3.773   3.024   4.864 -0.0948  0.2487 -0.6524
 2826SOL    HW111302   3.700   3.029   4.926  1.9715 -1.6450  2.2238
 2826SOL    HW211303   3.825   3.102   4.883  0.4213 -0.2129 -0.1529
 2826SOL     MW11304   3.770   3.035   4.875  0.2358 -0.0528 -0.2203
 2827SOL     OW11305   0.964   0.338   5.169 -0.0009 -0.2452 -0.1077
 2827SOL    HW111306   1.017   0.335   5.090 -0.3213  0.2334 -0.3498
 2827SOL    HW211307   0.981   0.425   5.206  0.3963 -0.5830  0.5308
 2827SOL     MW11308   0.973   0.349   5.164  0.0089 -0.2272 -0.0569
 2828SOL     OW11309   3.929   1.038   5.072 -0.1349 -0.2385  0.1825
 2828SOL    HW111310   3.970   0.972   5.016  2.5845  2.1363 -0.8543
 2828SOL    HW211311   3.836   1.031   5.052  0.4848 -1.0048 -3.0166
 2828SOL     MW11312   3.922   1.028   5.063  0.2925 -0.0325 -0.3598
 2829SOL     OW11313   2.417   4.103   5.109 -0.3237  0.5213 -0.0452
 2829SOL    HW111314   2.438   4.013   5.134  2.0296  1.1608  0.5433
 2829SOL    HW211315   2.406   4.149   5.192 -1.7528  0.7469 -0.3446
 2829SOL     MW11316   2.419   4.097   5.123 -0.2054  0.6321 -0.0082
 2830SOL     OW11317   2.424   3.318   1.961  0.1662 -0.4753  0.3057
 2830SOL    HW111318   2.509   3.341   1.922 -1.1015 -0.3112 -2.5444
 2830SOL    HW211319   2.414   3.225   1.945 -0.2329 -0.4903  0.6243
 2830SOL     MW11320   2.434   3.309   1.954 -0.0472 -0.4562 -0.0184
 2831SOL     OW11321   3.249   0.429   1.075  0.0100  0.0244 -0.2697
 2831SOL    HW111322   3.200   0.511   1.076  0.7454  0.5929 -2.6633
 2831SOL    HW211323   3.194   0.369   1.024 -0.4031 -0.9186  1.2442
 2831SOL     MW11324   3.236   0.432   1.068  0.0513 -0.0236 -0.3823
 2832SOL     OW11325   2.971   1.824   3.718 -0.0268  0.4049 -0.3600
 2832SOL    HW111326   3.052   1.774   3.727 -0.8718 -0.8343  0.7720
 2832SOL    HW211327   2.997   1.903   3.670  2.0422  0.4929  0.7640
 2832SOL     MW11328   2.985   1.828   3.713  0.1299  0.2575 -0.0712
 2833SOL     OW11329   2.158   5.269   1.050 -0.0031 -0.2584  0.4130
 2833SOL    HW111330   2.227   5.302   1.108 -1.2223  1.3405  1.0662
 2833SOL    HW211331   2.117   5.198   1.100  0.8214 -0.8815  0.2277
 2833SOL     MW11332   2.162   5.264   1.064 -0.0536 -0.1335  0.4729
 2834SOL     OW11333   2.992   2.834   3.252  0.1756  0.0312  0.6314
 2834SOL    HW111334   2.929   2.865   3.317 -1.2264  0.3768 -0.8257
 2834SOL    HW211335   2.955   2.862   3.168  2.7390  1.0591 -0.2579
 2834SOL     MW11336   2.979   2.842   3.250  0.3243  0.2070  0.3310
 2835SOL     OW11337   1.926   5.459   0.453  0.4443 -0.0458  0.4045
 2835SOL    HW111338   1.857   5.397   0.428 -0.0804  0.8673 -0.5086
 2835SOL    HW211339   1.936   5.447   0.547 -1.9312  0.6755  0.8308
 2835SOL     MW11340   1.918   5.450   0.462  0.0730  0.1634  0.3422
 2836SOL     OW11341   5.069   3.675   4.781  0.2170 -0.0533  0.2749
 2836SOL    HW111342   5.104   3.590   4.755 -0.2209 -0.2981  0.4714
 2836SOL    HW211343   5.075   3.676   4.877  1.4077  0.6622  0.2087
 2836SOL     MW11344   5.074   3.664   4.790  0.3134  0.0070  0.2916
 2837SOL     OW11345   4.773   4.596   1.523 -0.0461  0.4988  0.7189
 2837SOL    HW111346   4.705   4.562   1.465 -0.0123  0.2973  0.7964
 2837SOL    HW211347   4.725   4.627   1.601 -0.0719  0.5801  0.6709
 2837SOL     MW11348   4.758   4.596   1.526 -0.0450  0.4834  0.7227
 2838SOL     OW11349   0.805   2.265   0.156 -0.1649 -0.2243 -0.2044
 2838SOL    HW111350   0.770   2.233   0.073  1.1946 -0.3473 -0.7444
 2838SOL    HW211351   0.740   2.330   0.186 -0.4308  0.1762 -1.5916
 2838SOL     MW11352   0.792   2.269   0.149 -0.0249 -0.1888 -0.4511
 2839SOL     OW11353   3.210   2.210   2.781 -0.1753  0.0151 -0.3987
 2839SOL    HW111354   3.188   2.261   2.859 -0.8940 -0.0424 -0.5559
 2839SOL    HW211355   3.179   2.264   2.707 -1.4487 -0.8631 -0.5442
 2839SOL     MW11356   3.203   2.223   2.781 -0.4304 -0.1046 -0.4374
 2840SOL     OW11357   3.693   5.267   3.961  0.3027  0.1399  0.0687
 2840SOL    HW111358   3.729   5.180   3.947  1.6997  0.4827  1.2353
 2840SOL    HW211359   3.685   5.304   3.873  2.8234 -0.0033 -0.2934
 2840SOL     MW11360   3.697   5.261   3.948  0.8042  0.1654  0.1717
 2841SOL     OW11361   1.539   2.757   1.877  0.1671  0.3721 -0.4059
 2841SOL    HW111362   1.572   2.670   1.855  0.5545  0.3067  0.3946
 2841SOL    HW211363   1.495   2.746   1.962 -1.6914  0.5227 -1.2903
 2841SOL     MW11364   1.537   2.744   1.885 -0.0212  0.3830 -0.4166
 2842SOL     OW11365   3.072   4.814   1.235  0.2965 -0.1903  0.1529
 2842SOL    HW111366   3.079   4.894   1.287  1.5848 -0.2608  0.1076
 2842SOL    HW211367   3.066   4.845   1.144 -1.4292 -0.0869  0.2723
 2842SOL     MW11368   3.072   4.828   1.230  0.2405 -0.1861  0.1624
 2843SOL     OW11369   3.969   1.977   3.196  0.1252  0.3281 -0.4172
 2843SOL    HW111370   3.999   2.007   3.110  1.4756  1.3954  0.3759
 2843SOL    HW211371   3.968   2.057   3.249 -1.2530 -0.2166  0.4232
 2843SOL     MW11372   3.972   1.991   3.192  0.1217  0.3950 -0.2081
 2844SOL     OW11373   2.348   2.616   0.028  0.0257  0.4360 -0.8008
 2844SOL    HW111374   2.404   2.598  -0.047  1.2609  2.6167 -0.4700
 2844SOL    HW211375   2.302   2.697   0.006 -0.5015  0.4620  0.3038
 2844SOL     MW11376   2.349   2.624   0.016  0.1164  0.7185 -0.6170
 2845SOL     OW11377   2.134   2.293   3.248  0.0227  0.0873  0.0686
 2845SOL    HW111378   2.169   2.225   3.305  1.8599  1.0489  0.1830
 2845SOL    HW211379   2.052   2.258   3.215  0.1882 -1.5382  1.2997
 2845SOL     MW11380   2.128   2.280   3.251  0.2791  0.0023  0.2408
 2846SOL     OW11381   1.599   0.329   0.359 -0.5302  0.0818 -0.0878
 2846SOL    HW111382   1.532   0.379   0.313 -1.6906 -0.3052  1.1234
 2846SOL    HW211383   1.552   0.282   0.428  0.7773 -1.3493 -0.1018
 2846SOL     MW11384   1.585   0.329   0.362 -0.5114 -0.1510  0.0654
 2847SOL     OW11385   0.445   0.024   3.484 -0.4844  1.0110 -0.4527
 2847SOL    HW111386   0.500   0.094   3.520 -1.1120  0.5700  1.4915
 2847SOL    HW211387   0.361   0.035   3.529 -0.5388 -1.0728  0.0587
 2847SOL     MW11388   0.442   0.035   3.495 -0.5717  0.6878 -0.1384
 2848SOL     OW11389   1.415   3.216   4.609  0.5711 -0.3438  0.1052
 2848SOL    HW111390   1.347   3.170   4.560  1.2273 -0.1675 -1.0001
 2848SOL    HW211391   1.377   3.302   4.628  0.0473 -0.6644  0.5532
 2848SOL     MW11392   1.401   3.221   4.605  0.5880 -0.3623  0.0210
 2849SOL     OW11393   0.976   2.324   1.481  0.4565 -0.2842 -0.5321
 2849SOL    HW111394   1.070   2.311   1.473  0.9864  1.4282  1.8615
 2849SOL    HW211395   0.965   2.418   1.496 -1.4919 -0.6273  0.6226
 2849SOL     MW11396   0.986   2.334   1.482  0.2749 -0.1089 -0.0779
 2850SOL     OW11397   0.287   2.650   5.213  0.2392  0.5196 -0.1390
 2850SOL    HW111398   0.319   2.625   5.126 -2.4913  1.2775 -1.4726
 2850SOL    HW211399   0.345   2.722   5.239  2.4870 -1.1415 -0.2743
 2850SOL     MW11400   0.298   2.656   5.205  0.1774  0.4040 -0.3270
 2851SOL     OW11401   2.177   1.004   5.346  0.4327 -0.1915 -0.0741
 2851SOL    HW111402   2.185   1.048   5.431  0.2421  0.0049 -0.1592
 2851SOL    HW211403   2.084   0.981   5.340  0.4843 -0.3836 -0.1406
 2851SOL     MW11404   2.166   1.006   5.356  0.4149 -0.1909 -0.0935
 2852SOL     OW11405   3.831   1.510   2.016  0.4687 -0.0879 -0.2457
 2852SOL    HW111406   3.778   1.458   2.075 -0.3401 -0.3303 -1.1606
 2852SOL    HW211407   3.789   1.596   2.015  0.6888  0.0227 -0.2014
 2852SOL     MW11408   3.819   1.515   2.024  0.3933 -0.1048 -0.3571
 2853SOL     OW11409   2.602   2.088   1.807  0.4432 -0.2528 -0.1741
 2853SOL    HW111410   2.542   2.015   1.790  1.3701 -0.9487 -0.5831
 2853SOL    HW211411   2.596   2.142   1.728  0.0435 -0.0953 -0.0366
 2853SOL     MW11412   2.594   2.086   1.794  0.5107 -0.3217 -0.2089
 2854SOL     OW11413   2.214   1.643   1.952  0.3204  0.2332 -0.4578
 2854SOL    HW111414   2.151   1.631   2.022 -0.7173  1.5324 -1.1287
 2854SOL    HW211415   2.226   1.555   1.914  0.0305 -0.2680  0.5949
 2854SOL     MW11416   2.208   1.630   1.956  0.1504  0.3353 -0.4089
 2855SOL     OW11417   1.263   1.178   1.065  0.4588 -0.1754 -0.0439
 2855SOL    HW111418   1.327   1.238   1.027 -0.2444  0.3726 -0.3815
 2855SOL    HW211419   1.196   1.235   1.103 -1.6349 -0.6522 -2.7326
 2855SOL     MW11420   1.263   1.193   1.065  0.1008 -0.1663 -0.4313
 2856SOL     OW11421   3.524   2.500   0.232  0.1036  0.3809 -0.5880
 2856SOL    HW111422   3.511   2.582   0.280  0.7295 -0.0604  0.3494
 2856SOL    HW211423   3.510   2.432   0.297  0.9308 -0.2306 -1.0446
 2856SOL     MW11424   3.520   2.502   0.246  0.2896  0.2461 -0.5265
 2857SOL     OW11425   3.403   4.695   3.821 -0.3898 -0.0440 -0.3714
 2857SOL    HW111426   3.321   4.677   3.775 -0.8368  2.2984 -0.5906
 2857SOL    HW211427   3.423   4.786   3.800  1.4091 -0.0682  1.0219
 2857SOL     MW11428   3.395   4.704   3.812 -0.2167  0.2528 -0.2211
 2858SOL     OW11429   0.850   1.732   0.537  0.2886  0.0406  0.1241
 2858SOL    HW111430   0.777   1.748   0.597 -0.1688  0.5956 -0.5612
 2858SOL    HW211431   0.818   1.665   0.477  0.2938  0.3686 -0.2507
 2858SOL     MW11432   0.837   1.726   0.537  0.2307  0.1537 -0.0116
 2859SOL     OW11433   0.929   5.411   3.116  0.3660 -0.3422  0.0308
 2859SOL    HW111434   1.008   5.386   3.069  0.7119  0.1278  0.3451
 2859SOL    HW211435   0.857   5.395   3.055  0.7768 -0.0446 -0.5271
 2859SOL     MW11436   0.930   5.406   3.102  0.4628 -0.2439 -0.0004
 2860SOL     OW11437   5.467   0.874   3.005  0.1043  0.3520  0.0362
 2860SOL    HW111438   5.523   0.924   2.946 -1.3444  2.9678  0.7256
 2860SOL    HW211439   5.413   0.820   2.948 -0.7741  2.3062 -1.0706
 2860SOL     MW11440   5.468   0.873   2.990 -0.1936  0.9370 -0.0172
 2861SOL     OW11441   0.549   2.877   0.089  0.0841 -0.0984  0.4347
 2861SOL    HW111442   0.487   2.883   0.016  0.0627 -0.8478  0.3890
 2861SOL    HW211443   0.635   2.888   0.048  0.0216  0.4432  0.4333
 2861SOL     MW11444   0.552   2.879   0.075  0.0733 -0.1250  0.4287
 2862SOL     OW11445   1.445   0.106   4.847 -0.1813  0.2607 -0.2829
 2862SOL    HW111446   1.383   0.125   4.777  0.6908 -1.6064 -1.6529
 2862SOL    HW211447   1.514   0.173   4.837 -0.3445  0.3452 -0.8575
 2862SOL     MW11448   1.446   0.117   4.837 -0.0905  0.0325 -0.5318
 2863SOL     OW11449   0.833   2.841   3.493  0.5121  0.0667  0.2872
 2863SOL    HW111450   0.799   2.905   3.430  3.0328  0.6264 -0.6197
 2863SOL    HW211451   0.828   2.758   3.447  1.0769  0.2677 -0.1502
 2863SOL     MW11452   0.828   2.839   3.479  0.9071  0.1641  0.1151
 2864SOL     OW11453   2.838   3.086   4.192 -0.2577  0.4380 -0.5498
 2864SOL    HW111454   2.916   3.030   4.187  0.2277  1.0789 -0.1767
 2864SOL    HW211455   2.804   3.073   4.280 -0.9227 -0.2869 -0.8967
 2864SOL     MW11456   2.844   3.077   4.202 -0.2807  0.4273 -0.5464
 2865SOL     OW11457   3.540   3.894   3.980  0.3728  0.5844  0.2010
 2865SOL    HW111458   3.578   3.812   3.947  0.0193  0.8145 -0.8279
 2865SOL    HW211459   3.520   3.944   3.901 -0.5319  1.1548  0.7730
 2865SOL     MW11460   3.542   3.890   3.966  0.2117  0.6869  0.1425
 2866SOL     OW11461   0.817   4.013   3.141 -0.1465  0.7289 -0.4243
 2866SOL    HW111462   0.735   3.982   3.179 -0.7453  1.1373 -1.3406
 2866SOL    HW211463   0.852   4.073   3.206 -0.6085  0.6064 -0.0528
 2866SOL     MW11464   0.811   4.016   3.154 -0.2823  0.7655 -0.4941
 2867SOL     OW11465   5.365   4.246   0.760 -0.4813 -0.1542 -0.0430
 2867SOL    HW111466   5.416   4.165   0.757  0.4086  0.3930 -2.8100
 2867SOL    HW211467   5.400   4.294   0.836  0.8008 -1.2272  0.0771
 2867SOL     MW11468   5.376   4.242   0.770 -0.2033 -0.2215 -0.3818
 2868SOL     OW11469   4.459   0.187   0.381 -0.2316  0.0242  0.8584
 2868SOL    HW111470   4.438   0.277   0.358  2.3912 -0.0369 -2.3892
 2868SOL    HW211471   4.420   0.134   0.311 -0.4714 -1.2795  1.9251
 2868SOL     MW11472   4.451   0.192   0.369  0.0734 -0.1505  0.5792
 2869SOL     OW11473   2.056   5.162   0.651 -0.6720  0.4879  0.2351
 2869SOL    HW111474   1.972   5.139   0.691 -0.4926  0.5191  0.6271
 2869SOL    HW211475   2.093   5.079   0.622 -0.1305  0.2887  1.4403
 2869SOL     MW11476   2.050   5.149   0.652 -0.5798  0.4664  0.4396
 2870SOL     OW11477   0.953   4.948   2.776 -0.5541 -0.1512 -0.5065
 2870SOL    HW111478   0.891   4.992   2.835 -0.3209 -0.4721 -0.0220
 2870SOL    HW211479   0.901   4.925   2.699 -1.3766 -1.6686  0.4756
 2870SOL     MW11480   0.938   4.951   2.773 -0.6296 -0.3866 -0.3188
 2871SOL     OW11481   3.949   2.788   1.743 -0.1858 -0.1603 -0.1753
 2871SOL    HW111482   3.858   2.803   1.717  0.1637 -0.4191 -1.6291
 2871SOL    HW211483   3.971   2.703   1.705  0.3822 -0.5548  0.9849
 2871SOL     MW11484   3.940   2.779   1.735 -0.0683 -0.2439 -0.2129
 2872SOL     OW11485   0.097   0.753   1.783 -0.3051  0.4206 -0.0995
 2872SOL    HW111486   0.090   0.752   1.878  1.1089 -0.4602  0.0138
 2872SOL    HW211487   0.104   0.846   1.761 -1.2925  0.6734  0.5827
 2872SOL     MW11488   0.097   0.765   1.792 -0.2505  0.3402  0.0024
 2873SOL     OW11489   1.811   1.511   1.748 -0.1225  0.0028  0.2641
 2873SOL    HW111490   1.760   1.439   1.783 -0.7125 -0.8001 -2.0489
 2873SOL    HW211491   1.747   1.566   1.703  0.8510 -0.4677 -1.8165
 2873SOL     MW11492   1.796   1.509   1.746 -0.0734 -0.1602 -0.2983
 2874SOL     OW11493   1.749   2.689   1.546 -0.4097  0.0025 -0.6703
 2874SOL    HW111494   1.842   2.680   1.564 -0.7769 -1.7457  0.6988
 2874SOL    HW211495   1.739   2.661   1.454  0.5507  1.5744 -1.2829
 2874SOL     MW11496   1.759   2.684   1.536 -0.3337 -0.0201 -0.5735
 2875SOL     OW11497   1.894   4.730   4.770 -0.3265 -0.3379 -0.0621
 2875SOL    HW111498   1.898   4.634   4.777 -0.0440 -0.2812  0.6904
 2875SOL    HW211499   1.801   4.749   4.757 -0.4305 -0.7023  0.1296
 2875SOL     MW11500   1.882   4.720   4.770 -0.3037 -0.3773  0.0588
 2876SOL     OW11501   2.212   4.819   1.338  0.0948 -0.1217 -0.2613
 2876SOL    HW111502   2.147   4.824   1.408 -0.4365  1.3052 -0.8261
 2876SOL    HW211503   2.291   4.787   1.382 -0.2891  0.5101  0.9581
 2876SOL     MW11504   2.214   4.816   1.353 -0.0223  0.1419 -0.1775
 2877SOL     OW11505   0.219   0.479   0.599  0.4217 -0.0994  0.0950
 2877SOL    HW111506   0.277   0.436   0.536  0.3362  0.2208 -0.2014
 2877SOL    HW211507   0.276   0.539   0.647  0.3834  0.0283 -0.0213
 2877SOL     MW11508   0.234   0.481   0.597  0.4058 -0.0420  0.0421
 2878SOL     OW11509   3.184   5.223   0.438 -0.3647 -0.5939 -0.2751
 2878SOL    HW111510   3.246   5.154   0.460 -0.3049 -0.0066  1.5635
 2878SOL    HW211511   3.117   5.179   0.385 -0.4410 -2.1193  1.0129
 2878SOL     MW11512   3.184   5.209   0.434 -0.3668 -0.7140  0.1252
 2879SOL     OW11513   4.179   1.570   4.648 -0.0080  0.0310 -0.1242
 2879SOL    HW111514   4.152   1.536   4.563  0.2123 -1.4015  0.3505
 2879SOL    HW211515   4.157   1.663   4.645  0.7615  0.1946 -2.0481
 2879SOL     MW11516   4.173   1.577   4.637  0.1187 -0.1314 -0.3097
 2880SOL     OW11517   1.974   3.763   5.180  0.0140 -0.3247  0.0808
 2880SOL    HW111518   2.029   3.805   5.246 -1.1401  0.5275  0.5435
 2880SOL    HW211519   1.952   3.834   5.120 -0.5194 -0.6642 -0.1315
 2880SOL     MW11520   1.978   3.778   5.181 -0.2020 -0.2591  0.1128
 2881SOL     OW11521   0.218   0.669   3.469  0.3955  0.0750  0.0043
 2881SOL    HW111522   0.126   0.668   3.497 -0.1938 -0.2809 -1.8144
 2881SOL    HW211523   0.252   0.583   3.492  0.8026  0.7340  2.1489
 2881SOL     MW11524   0.211   0.658   3.476  0.3722  0.1138  0.0460
 2882SOL     OW11525   4.431   3.423   3.024  0.4119  0.0376  0.0114
 2882SOL    HW111526   4.359   3.364   3.004  0.0142  0.8357 -1.0068
 2882SOL    HW211527   4.509   3.376   2.994  0.1799 -0.2986 -0.0726
 2882SOL     MW11528   4.432   3.409   3.018  0.3313  0.0967 -0.1297
 2883SOL     OW11529   2.496   2.282   2.012  0.6359 -0.7001 -0.4035
 2883SOL    HW111530   2.534   2.250   1.930 -0.2069  0.6264 -1.3602
 2883SOL    HW211531   2.546   2.361   2.031  0.7389 -0.9335  0.3010
 2883SOL     MW11532   2.508   2.288   2.004  0.5412 -0.5602 -0.4357
 2884SOL     OW11533   3.159   1.430   4.605  0.1854 -0.8344  0.6072
 2884SOL    HW111534   3.113   1.352   4.634  0.9203 -0.9861  1.4253
 2884SOL    HW211535   3.129   1.499   4.665 -0.2734 -0.5432  0.0463
 2884SOL     MW11536   3.150   1.429   4.617  0.2208 -0.8166  0.6402
 2885SOL     OW11537   4.289   2.732   1.648  0.0193 -1.0859  0.5353
 2885SOL    HW111538   4.263   2.803   1.590  2.2086 -0.9169 -0.3504
 2885SOL    HW211539   4.355   2.771   1.706  1.3222 -2.3620 -0.0206
 2885SOL     MW11540   4.294   2.746   1.648  0.4664 -1.2276  0.3507
 2886SOL     OW11541   4.456   0.737   0.127  0.2444 -0.0190  0.1617
 2886SOL    HW111542   4.437   0.808   0.066 -0.7527 -1.0325 -0.7382
 2886SOL    HW211543   4.372   0.716   0.168  0.4728 -0.8656  0.2115
 2886SOL     MW11544   4.443   0.743   0.124  0.1460 -0.2571  0.0528
 2887SOL     OW11545   0.303   5.221   1.470 -0.4653 -0.1221 -0.5706
 2887SOL    HW111546   0.366   5.184   1.408 -0.4350 -0.5671 -0.2798
 2887SOL    HW211547   0.217   5.201   1.433 -0.4846 -1.7154  0.2571
 2887SOL     MW11548   0.300   5.214   1.457 -0.4639 -0.3831 -0.4274
 2888SOL     OW11549   5.290   4.631   1.217  0.1593 -0.0499 -0.6279
 2888SOL    HW111550   5.384   4.617   1.208  0.1110 -0.0589 -1.1355
 2888SOL    HW211551   5.267   4.587   1.298  1.0755  2.2668  0.9940
 2888SOL     MW11552   5.299   4.624   1.226  0.2704  0.2455 -0.4852
 2889SOL     OW11553   2.343   4.715   4.581  0.4206  0.7525 -0.0071
 2889SOL    HW111554   2.371   4.736   4.492 -0.7573  0.0839 -0.5580
 2889SOL    HW211555   2.416   4.665   4.617 -0.3336 -1.8461 -1.7685
 2889SOL     MW11556   2.356   4.711   4.574  0.1733  0.3343 -0.3031
 2890SOL     OW11557   3.859   4.889   5.464  0.0866 -0.2087  0.2906
 2890SOL    HW111558   3.822   4.977   5.467 -1.6345 -0.8391 -0.5644
 2890SOL    HW211559   3.946   4.900   5.425  0.2603  1.1865  1.0230
 2890SOL     MW11560   3.865   4.902   5.459 -0.1115 -0.1108  0.2749
 2891SOL     OW11561   2.661   1.763   0.279  0.3280 -0.2046  0.5034
 2891SOL    HW111562   2.718   1.828   0.238 -0.2802  0.3380  0.4958
 2891SOL    HW211563   2.705   1.680   0.265  0.0093 -0.0802 -1.5207
 2891SOL     MW11564   2.674   1.761   0.272  0.2093 -0.1192  0.2433
 2892SOL     OW11565   0.218   2.359   1.905 -0.2737  0.1261 -0.0924
 2892SOL    HW111566   0.278   2.373   1.978 -0.0810  1.0298 -0.3994
 2892SOL    HW211567   0.131   2.356   1.944 -0.0229 -1.5945  0.4050
 2892SOL     MW11568   0.215   2.360   1.919 -0.2169  0.0215 -0.0680
 2893SOL     OW11569   4.381   1.561   0.266  0.1217  0.4254 -0.3649
 2893SOL    HW111570   4.328   1.501   0.213  0.0591 -0.4313  0.6364
 2893SOL    HW211571   4.388   1.518   0.351  0.2583  1.7503  0.3185
 2893SOL     MW11572   4.375   1.548   0.270  0.1312  0.4854 -0.1492
 2894SOL     OW11573   3.544   4.207   4.541  0.5234 -0.1433 -0.5476
 2894SOL    HW111574   3.629   4.248   4.554  1.2716 -1.6527 -0.4828
 2894SOL    HW211575   3.526   4.217   4.447  1.1445 -0.4928 -0.7087
 2894SOL     MW11576   3.552   4.213   4.531  0.6987 -0.3812 -0.5600
 2895SOL     OW11577   4.812   4.914   4.127  0.1391 -0.4786  0.0839
 2895SOL    HW111578   4.801   4.917   4.222 -1.4190 -1.5246 -0.0363
 2895SOL    HW211579   4.863   4.993   4.107  1.3910 -0.7762  1.8736
 2895SOL     MW11580   4.817   4.925   4.136  0.0999 -0.6506  0.2976
 2896SOL     OW11581   1.728   1.600   2.691  0.4846 -0.2681 -0.2972
 2896SOL    HW111582   1.668   1.526   2.698  0.8632 -0.6034 -0.5513
 2896SOL    HW211583   1.815   1.561   2.693  0.7375 -0.2188 -3.7456
 2896SOL     MW11584   1.731   1.586   2.692  0.5655 -0.3047 -0.7712
 2897SOL     OW11585   1.275   1.436   1.877 -0.0666 -0.1221 -0.8849
 2897SOL    HW111586   1.234   1.459   1.960  0.8223 -2.7253  0.3862
 2897SOL    HW211587   1.221   1.479   1.810 -2.7052 -0.5510  0.8530
 2897SOL     MW11588   1.263   1.445   1.879 -0.2906 -0.5103 -0.4997
 2898SOL     OW11589   4.681   0.861   5.143 -0.4530  0.4232  0.1337
 2898SOL    HW111590   4.614   0.853   5.076  0.7551  1.2300 -1.2276
 2898SOL    HW211591   4.741   0.929   5.110  0.6179  0.2804  1.6491
 2898SOL     MW11592   4.680   0.869   5.130 -0.1612  0.5082  0.1534
 2899SOL     OW11593   3.670   0.060   1.867  0.1104  0.2349 -0.2726
 2899SOL    HW111594   3.622  -0.017   1.896 -1.0267  0.9403 -0.1893
 2899SOL    HW211595   3.689   0.109   1.947  1.5451 -0.3389 -0.2442
 2899SOL     MW11596   3.666   0.057   1.881  0.1485  0.2517 -0.2583
 2900SOL     OW11597   2.528   2.245   1.606  0.0969 -0.1693 -0.4500
 2900SOL    HW111598   2.515   2.169   1.549 -0.1844  0.9084 -1.9031
 2900SOL    HW211599   2.620   2.269   1.593 -0.2048  0.6271 -1.1853
 2900SOL     MW11600   2.539   2.239   1.597  0.0223  0.0706 -0.7302
 2901SOL     OW11601   0.268   3.828   5.376 -0.4101  0.3838 -0.1782
 2901SOL    HW111602   0.210   3.768   5.424  0.5250 -0.2511  0.1854
 2901SOL    HW211603   0.257   3.803   5.284  0.7184 -1.0660  0.0425
 2901SOL     MW11604   0.259   3.817   5.370 -0.1459  0.1170 -0.1034
 2902SOL     OW11605   3.491   0.746   4.179 -0.4763  0.1786 -0.2556
 2902SOL    HW111606   3.515   0.656   4.155  0.7240  0.5460 -0.4860
 2902SOL    HW211607   3.416   0.766   4.123  0.0408 -0.2425 -1.1213
 2902SOL     MW11608   3.484   0.737   4.169 -0.2565  0.1718 -0.3959
 2903SOL     OW11609   4.074   2.209   4.181  0.6871 -0.0145 -0.5959
 2903SOL    HW111610   4.166   2.204   4.157  0.7626 -1.4141 -0.1020
 2903SOL    HW211611   4.074   2.208   4.277  0.1909  1.0163 -0.5695
 2903SOL     MW11612   4.086   2.208   4.191  0.6332 -0.0617 -0.5293
 2904SOL     OW11613   2.713   0.404   2.286 -0.3141 -0.1834  0.2431
 2904SOL    HW111614   2.684   0.433   2.200 -0.3367  0.0558  0.3283
 2904SOL    HW211615   2.641   0.350   2.319 -0.6949  0.4441  0.4719
 2904SOL     MW11616   2.700   0.401   2.280 -0.3657 -0.0725  0.2833
 2905SOL     OW11617   4.931   0.390   0.863  0.3955 -0.2071 -0.1988
 2905SOL    HW111618   4.909   0.376   0.771  2.0859 -0.5841 -0.5709
 2905SOL    HW211619   4.856   0.437   0.899 -0.9191 -1.2942 -1.4204
 2905SOL     MW11620   4.919   0.394   0.856  0.4436 -0.3945 -0.4028
 2906SOL     OW11621   4.405   3.399   1.565 -0.2491  0.3818  0.3963
 2906SOL    HW111622   4.354   3.456   1.623  1.9562  0.3327  2.5518
 2906SOL    HW211623   4.469   3.458   1.526  0.5544 -0.1797  0.8348
 2906SOL     MW11624   4.406   3.414   1.568  0.1361  0.3036  0.7283
 2907SOL     OW11625   3.463   3.358   3.531  0.0856  0.4601 -0.3787
 2907SOL    HW111626   3.444   3.300   3.604  0.1822  1.3465  0.3747
 2907SOL    HW211627   3.391   3.345   3.470  0.4780 -0.9603 -0.5617
 2907SOL     MW11628   3.451   3.349   3.532  0.1482  0.3917 -0.3057
 2908SOL     OW11629   0.910   3.930   0.746  1.0981 -0.5140 -0.1165
 2908SOL    HW111630   0.889   3.933   0.840  0.0428 -0.5924 -0.3336
 2908SOL    HW211631   0.964   4.007   0.731  1.7814 -0.8155  0.6625
 2908SOL     MW11632   0.914   3.940   0.756  1.0505 -0.5627 -0.0445
 2909SOL     OW11633   0.562   4.170   0.798 -0.2653 -0.1157  0.2915
 2909SOL    HW111634   0.591   4.125   0.719  1.0591 -0.8880  1.1754
 2909SOL    HW211635   0.517   4.103   0.849 -0.2335  0.1187  0.6338
 2909SOL     MW11636   0.560   4.156   0.795 -0.0917 -0.1846  0.4485
 2910SOL     OW11637   1.256   3.071   0.712  0.1586 -0.0906 -0.4345
 2910SOL    HW111638   1.169   3.100   0.741  0.0730 -0.2138 -0.5637
 2910SOL    HW211639   1.258   3.093   0.619  0.0846 -0.5112 -0.5381
 2910SOL     MW11640   1.245   3.077   0.703  0.1382 -0.1602 -0.4643
 2911SOL     OW11641   1.333   2.251   5.331  0.3379  0.0591  0.4035
 2911SOL    HW111642   1.391   2.175   5.320 -0.8622 -0.7425 -0.7869
 2911SOL    HW211643   1.360   2.312   5.262 -0.5632 -0.5609 -0.5252
 2911SOL     MW11644   1.344   2.249   5.321  0.0689 -0.1229  0.1322
 2912SOL     OW11645   1.480   3.895   5.460  0.1283 -0.2701 -0.2629
 2912SOL    HW111646   1.453   3.930   5.375  0.2803  0.4688 -0.0133
 2912SOL    HW211647   1.463   3.967   5.521 -3.0914 -1.8477  0.8951
 2912SOL     MW11648   1.474   3.909   5.457 -0.2644 -0.3774 -0.0827
 2913SOL     OW11649   2.352   3.701   1.856 -0.6087  1.0126 -0.1201
 2913SOL    HW111650   2.325   3.610   1.869  0.7273  0.7264  0.8470
 2913SOL    HW211651   2.447   3.697   1.845 -0.3094  2.4093  1.5074
 2913SOL     MW11652   2.361   3.689   1.856 -0.3994  1.1548  0.2120
 2914SOL     OW11653   1.029   3.614   2.679 -0.2670 -0.5299  0.2844
 2914SOL    HW111654   0.968   3.541   2.686  0.3332 -0.9707  1.1851
 2914SOL    HW211655   1.085   3.606   2.756 -0.5783  1.2546  0.7515
 2914SOL     MW11656   1.029   3.604   2.690 -0.2300 -0.3579  0.4595
 2915SOL     OW11657   0.997   5.172   2.599  0.3308 -0.0479 -0.1987
 2915SOL    HW111658   1.056   5.136   2.533  2.3914  0.7954  1.0802
 2915SOL    HW211659   0.970   5.097   2.651  1.3437 -0.2792 -0.0050
 2915SOL     MW11660   1.001   5.158   2.597  0.7243  0.0305 -0.0102
 2916SOL     OW11661   3.449   3.147   4.651 -0.3087 -0.4914 -0.0855
 2916SOL    HW111662   3.530   3.152   4.601 -0.3875  1.3404 -0.0801
 2916SOL    HW211663   3.418   3.057   4.636  1.8164 -1.3195  0.1258
 2916SOL     MW11664   3.455   3.136   4.642 -0.0468 -0.3629 -0.0578
 2917SOL     OW11665   3.981   3.946   1.781  0.0564 -0.1444 -0.1547
 2917SOL    HW111666   3.901   3.989   1.810 -1.0366 -2.7139  0.8830
 2917SOL    HW211667   3.956   3.903   1.699  0.6654 -0.1828 -0.3246
 2917SOL     MW11668   3.968   3.946   1.774 -0.0056 -0.4782 -0.0436
 2918SOL     OW11669   2.537   4.600   0.304  0.3138 -0.1453  0.5013
 2918SOL    HW111670   2.563   4.511   0.329  0.3479 -0.0982  0.6327
 2918SOL    HW211671   2.443   4.592   0.284  0.1487 -0.0655  1.2128
 2918SOL     MW11672   2.528   4.587   0.304  0.2970 -0.1291  0.6092
 2919SOL     OW11673   0.153   2.765   2.056  0.6895 -0.1041  0.0016
 2919SOL    HW111674   0.115   2.721   2.133  1.1008  0.6457  0.6385
 2919SOL    HW211675   0.077   2.792   2.005  0.3635  0.6981  0.8864
 2919SOL     MW11676   0.138   2.763   2.059  0.7005  0.0946  0.1964
 2920SOL     OW11677   5.443   2.754   1.849 -0.0613  0.4195  0.7723
 2920SOL    HW111678   5.366   2.811   1.852 -1.8559 -1.6845 -1.4432
 2920SOL    HW211679   5.411   2.670   1.881  0.8169 -0.9447 -1.6949
 2920SOL     MW11680   5.429   2.751   1.854 -0.1786 -0.0245  0.1728
 2921SOL     OW11681   0.606   5.079   3.624  0.2031 -0.0788 -0.0367
 2921SOL    HW111682   0.682   5.021   3.622 -1.7573 -2.8171 -1.5236
 2921SOL    HW211683   0.558   5.053   3.703 -0.0065  0.5374  0.0473
 2921SOL     MW11684   0.610   5.068   3.634 -0.0747 -0.3505 -0.2163
 2922SOL     OW11685   0.101   3.120   2.054  0.0026 -0.2095  0.0440
 2922SOL    HW111686   0.167   3.081   1.997  0.3579 -0.6190  0.7273
 2922SOL    HW211687   0.081   3.051   2.117  0.8644  0.8006  1.4712
 2922SOL     MW11688   0.107   3.106   2.054  0.1584 -0.1326  0.3142
 2923SOL     OW11689   1.793   1.559   0.119  0.1879 -0.4921  0.4207
 2923SOL    HW111690   1.709   1.604   0.117 -0.0258 -0.8885  0.3787
 2923SOL    HW211691   1.814   1.550   0.212  0.9907  1.0757  0.4325
 2923SOL     MW11692   1.785   1.564   0.131  0.2633 -0.3421  0.4168
 2924SOL     OW11693   2.508   0.236   2.343  0.7666 -0.1189 -0.2885
 2924SOL    HW111694   2.555   0.153   2.334  0.7717 -0.0464 -1.0078
 2924SOL    HW211695   2.421   0.218   2.307  0.8809  0.2805 -0.7728
 2924SOL     MW11696   2.503   0.223   2.337  0.7819 -0.0585 -0.4426
 2925SOL     OW11697   4.769   2.631   2.992 -0.4749  0.2327 -0.0153
 2925SOL    HW111698   4.754   2.591   3.078  0.5688 -0.4562 -0.1385
 2925SOL    HW211699   4.703   2.701   2.987 -0.1173  0.7414  1.6351
 2925SOL     MW11700   4.759   2.635   3.002 -0.2955  0.2096  0.1802
 2926SOL     OW11701   2.435   2.793   0.963  0.0484  0.2190  0.0706
 2926SOL    HW111702   2.527   2.816   0.953  0.1842  0.1850  1.1748
 2926SOL    HW211703   2.432   2.698   0.953  0.0478  0.2784 -0.5244
 2926SOL     MW11704   2.446   2.784   0.960  0.0657  0.2222  0.1358
 2927SOL     OW11705   3.137   1.026   0.521 -0.2173  0.0545 -0.2459
 2927SOL    HW111706   3.088   1.030   0.438 -1.8342 -0.9053  0.6017
 2927SOL    HW211707   3.088   1.082   0.581  2.5982  3.1632 -0.6317
 2927SOL     MW11708   3.124   1.033   0.518 -0.0638  0.3296 -0.1868
 2928SOL     OW11709   2.306   4.664   3.537 -0.1251  0.3892 -0.0436
 2928SOL    HW111710   2.260   4.745   3.559  0.1258  0.1659  1.4469
 2928SOL    HW211711   2.396   4.679   3.564 -0.3831 -0.8818  1.7285
 2928SOL     MW11712   2.312   4.676   3.543 -0.1260  0.1979  0.3740
 2929SOL     OW11713   0.644   5.193   1.370 -0.1729 -0.6311 -0.1191
 2929SOL    HW111714   0.597   5.143   1.303 -0.4403 -0.7747  0.1737
 2929SOL    HW211715   0.605   5.281   1.366 -0.6888 -0.8330  0.3354
 2929SOL     MW11716   0.633   5.198   1.361 -0.2732 -0.6753 -0.0234
 2930SOL     OW11717   1.193   3.610   3.468  0.1857 -0.1333 -0.0781
 2930SOL    HW111718   1.250   3.551   3.418 -0.6870 -1.5495  0.5231
 2930SOL    HW211719   1.155   3.668   3.403  1.7902  0.4063 -0.5745
 2930SOL     MW11720   1.195   3.610   3.454  0.2793 -0.2455 -0.0647
 2931SOL     OW11721   4.566   1.651   4.305 -0.0380  0.1147 -0.2127
 2931SOL    HW111722   4.632   1.665   4.238 -2.3322  1.2387 -2.4056
 2931SOL    HW211723   4.517   1.733   4.307 -2.5007 -1.2803 -0.0199
 2931SOL     MW11724   4.568   1.663   4.297 -0.6469  0.0800 -0.4687
 2932SOL     OW11725   4.584   4.495   1.342  0.8672 -0.1172 -0.2100
 2932SOL    HW111726   4.528   4.523   1.415  1.5270  1.7582 -0.3621
 2932SOL    HW211727   4.524   4.459   1.278  0.2020 -1.1703  0.9660
 2932SOL     MW11728   4.569   4.494   1.343  0.8665 -0.0119 -0.0789
 2933SOL     OW11729   3.680   4.100   5.028 -0.0843 -0.6344 -0.9212
 2933SOL    HW111730   3.598   4.142   5.004  0.3264 -0.1748 -1.5427
 2933SOL    HW211731   3.680   4.017   4.979 -0.5433 -1.0173 -0.2868
 2933SOL     MW11732   3.670   4.095   5.019 -0.0905 -0.6246 -0.9196
 2934SOL     OW11733   1.155   2.184   4.412  0.3944  0.8113  0.6015
 2934SOL    HW111734   1.106   2.123   4.357  1.7099 -0.6862  0.9950
 2934SOL    HW211735   1.241   2.188   4.371  0.8843  0.9495  1.6095
 2934SOL     MW11736   1.160   2.176   4.400  0.6255  0.6373  0.7809
 2935SOL     OW11737   2.805   0.374   5.381 -0.2403  0.6241  0.1846
 2935SOL    HW111738   2.734   0.436   5.392 -0.5510  0.4065 -0.5108
 2935SOL    HW211739   2.796   0.313   5.454  0.1454  1.4655  0.9378
 2935SOL     MW11740   2.795   0.374   5.391 -0.2307  0.7039  0.1920
 2936SOL     OW11741   2.005   4.639   1.184  0.2602  0.1887 -0.0179
 2936SOL    HW111742   2.064   4.579   1.229 -0.1205 -0.5862 -0.5304
 2936SOL    HW211743   1.983   4.706   1.249  0.7846 -0.1579  0.5205
 2936SOL     MW11744   2.010   4.640   1.198  0.2786  0.0452 -0.0146
 2937SOL     OW11745   3.140   5.376   4.930 -0.0558 -0.1967 -0.4069
 2937SOL    HW111746   3.235   5.365   4.922  0.3712  1.9880  0.7886
 2937SOL    HW211747   3.113   5.413   4.846  0.5233  1.0457 -0.0737
 2937SOL     MW11748   3.148   5.380   4.919  0.0730  0.2420 -0.2112
 2938SOL     OW11749   1.653   3.580   1.443  0.5204 -0.4185 -0.2574
 2938SOL    HW111750   1.641   3.521   1.369 -1.3605 -0.2866 -0.1050
 2938SOL    HW211751   1.631   3.528   1.520  1.2986 -0.2169  0.1128
 2938SOL     MW11752   1.649   3.566   1.443  0.3793 -0.3758 -0.1905
 2939SOL     OW11753   0.382   3.578   4.172 -0.5068 -0.1264 -0.2524
 2939SOL    HW111754   0.420   3.529   4.099 -1.7008 -0.0124 -0.9729
 2939SOL    HW211755   0.397   3.670   4.149 -0.8978 -0.0906 -0.3828
 2939SOL     MW11756   0.389   3.584   4.160 -0.7097 -0.1072 -0.3614
 2940SOL     OW11757   1.375   0.425   0.896  0.1727 -0.1940  0.7039
 2940SOL    HW111758   1.435   0.351   0.901  1.0209  0.5360  1.7710
 2940SOL    HW211759   1.426   0.494   0.852 -0.4000 -0.0475  0.2553
 2940SOL     MW11760   1.390   0.425   0.891  0.2079 -0.0818  0.7831
 2941SOL     OW11761   1.959   1.840   0.461 -0.1567 -0.2192  0.5479
 2941SOL    HW111762   2.014   1.875   0.531  1.9637 -1.6794 -0.2690
 2941SOL    HW211763   1.977   1.896   0.385  1.0997 -1.3317 -0.0102
 2941SOL     MW11764   1.968   1.852   0.460  0.2756 -0.5486  0.3719
 2942SOL     OW11765   3.392   5.037   0.651 -0.4044 -0.5241  0.5052
 2942SOL    HW111766   3.403   5.115   0.705  0.4615 -0.5283  0.3431
 2942SOL    HW211767   3.481   5.012   0.626 -0.6888 -1.4233  0.3581
 2942SOL     MW11768   3.405   5.044   0.655 -0.3299 -0.6398  0.4657
 2943SOL     OW11769   0.744   3.350  -0.020  0.5606 -0.3821 -0.6950
 2943SOL    HW111770   0.770   3.419   0.041  1.0470 -1.5662  0.4703
 2943SOL    HW211771   0.701   3.284   0.034  0.7769 -1.3513 -1.6647
 2943SOL     MW11772   0.742   3.350  -0.005  0.6506 -0.6578 -0.6699
 2944SOL     OW11773   1.038   1.270   0.227 -0.2234  0.4569 -0.0804
 2944SOL    HW111774   0.943   1.268   0.236 -0.4248  0.9770 -1.8627
 2944SOL    HW211775   1.070   1.268   0.317 -1.8597 -1.5365  0.5221
 2944SOL     MW11776   1.030   1.270   0.240 -0.4587  0.2683 -0.2314
 2945SOL     OW11777   3.688   1.423   1.595  0.6475 -0.5636  0.3424
 2945SOL    HW111778   3.752   1.494   1.598 -0.3903  0.5569 -1.5917
 2945SOL    HW211779   3.691   1.391   1.505 -1.4205 -0.4859  0.1858
 2945SOL     MW11780   3.696   1.428   1.584  0.2499 -0.4102  0.0748
 2946SOL     OW11781   3.555   0.042   2.366 -0.2976 -0.3814  0.1472
 2946SOL    HW111782   3.591   0.129   2.388  0.6679 -0.6584 -0.2687
 2946SOL    HW211783   3.619  -0.019   2.402 -0.1912 -0.8916 -0.8846
 2946SOL     MW11784   3.568   0.046   2.374 -0.1604 -0.4822 -0.0381
 2947SOL     OW11785   4.114   1.856   4.259 -0.0750 -0.6713 -0.7702
 2947SOL    HW111786   4.105   1.761   4.263 -0.6705 -0.5931  0.0785
 2947SOL    HW211787   4.026   1.889   4.276  0.3930  0.0469  0.4237
 2947SOL     MW11788   4.101   1.848   4.262 -0.0913 -0.5693 -0.5087
 2948SOL     OW11789   1.507   3.976   1.674 -0.3534  0.2244  0.3719
 2948SOL    HW111790   1.546   3.941   1.754 -0.6509 -0.2895  0.2967
 2948SOL    HW211791   1.579   3.977   1.611 -0.6620 -1.7443 -0.0900
 2948SOL     MW11792   1.522   3.971   1.676 -0.4310 -0.0934  0.3031
 2949SOL     OW11793   1.258   4.449   4.067  0.0422  0.0710 -0.7865
 2949SOL    HW111794   1.214   4.418   4.147  0.4102  1.6189  0.0551
 2949SOL    HW211795   1.195   4.432   3.997 -0.8194 -0.1559  0.0218
 2949SOL     MW11796   1.244   4.443   4.069 -0.0210  0.2401 -0.5753
 2950SOL     OW11797   2.472   0.168   5.115 -0.2323  0.0356 -0.4195
 2950SOL    HW111798   2.441   0.155   5.205  0.8465 -1.2456 -0.2045
 2950SOL    HW211799   2.437   0.093   5.067  0.1297  0.1248 -0.8221
 2950SOL     MW11800   2.463   0.157   5.121 -0.0479 -0.1170 -0.4435
 2951SOL     OW11801   0.210   0.940   0.557 -0.4763 -0.2799 -0.1394
 2951SOL    HW111802   0.267   0.885   0.611  0.1135  0.9871  0.5555
 2951SOL    HW211803   0.220   0.905   0.468 -1.9126 -2.7871  0.5858
 2951SOL     MW11804   0.219   0.928   0.552 -0.5846 -0.4387  0.0424
 2952SOL     OW11805   4.845   3.896   0.810  0.5858  0.0817  0.1336
 2952SOL    HW111806   4.766   3.913   0.759  0.6865  0.9749  0.2657
 2952SOL    HW211807   4.821   3.916   0.900  0.4460 -1.3699  0.4379
 2952SOL     MW11808   4.832   3.900   0.815  0.5808  0.0102  0.1895
 2953SOL     OW11809   0.066   5.323   3.061  0.4257  0.4222 -0.2558
 2953SOL    HW111810   0.152   5.329   3.020  0.0051  0.5833 -1.1344
 2953SOL    HW211811   0.026   5.247   3.020 -0.1242  0.7694 -0.3629
 2953SOL     MW11812   0.072   5.314   3.051  0.3015  0.4873 -0.3819
 2954SOL     OW11813   5.500   4.408   3.398  0.2837  0.5600 -0.3327
 2954SOL    HW111814   5.498   4.376   3.308  1.2715 -2.6932  0.6696
 2954SOL    HW211815   5.408   4.416   3.423 -0.0535 -1.6733 -0.6916
 2954SOL     MW11816   5.488   4.405   3.390  0.3670 -0.1423 -0.2503
 2955SOL     OW11817   2.360   1.367   2.914  0.0699 -0.2747 -0.0589
 2955SOL    HW111818   2.448   1.339   2.889 -0.2495 -1.1403 -0.2388
 2955SOL    HW211819   2.302   1.299   2.879 -0.4311 -1.4632  2.7980
 2955SOL     MW11820   2.364   1.355   2.907 -0.0351 -0.5377  0.2838
 2956SOL     OW11821   4.043   0.067   3.745 -0.3762 -0.0996  0.1057
 2956SOL    HW111822   4.032   0.150   3.698 -0.8810 -0.4732 -0.4525
 2956SOL    HW211823   4.007   0.001   3.686 -2.5832 -0.4198  1.6678
 2956SOL     MW11824   4.037   0.069   3.731 -0.7233 -0.1884  0.2342
 2957SOL     OW11825   4.783   4.907   5.357  0.5682  0.0091 -0.0618
 2957SOL    HW111826   4.870   4.866   5.353  0.0845 -1.2898  1.6507
 2957SOL    HW211827   4.760   4.907   5.450 -1.4606 -0.0933 -0.5092
 2957SOL     MW11828   4.791   4.902   5.369  0.2466 -0.1703  0.1001
 2958SOL     OW11829   3.798   2.062   0.593 -0.6680 -0.0504 -0.5162
 2958SOL    HW111830   3.820   2.155   0.588  1.4899 -0.2761  2.4490
 2958SOL    HW211831   3.718   2.060   0.646 -0.0923  0.0727  0.3665
 2958SOL     MW11832   3.790   2.074   0.599 -0.3181 -0.0635 -0.0236
 2959SOL     OW11833   4.314   3.446   4.131 -0.7150  0.2276 -0.3328
 2959SOL    HW111834   4.329   3.457   4.037  0.6022  0.0048 -0.1634
 2959SOL    HW211835   4.269   3.362   4.138 -0.2738 -0.0491 -0.7247
 2959SOL     MW11836   4.310   3.437   4.119 -0.4899  0.1637 -0.3613
 2960SOL     OW11837   4.508   4.523   3.981  0.1651  0.4016 -0.1163
 2960SOL    HW111838   4.548   4.575   4.051 -2.0978 -0.0230  1.6072
 2960SOL    HW211839   4.492   4.587   3.911  0.1361  1.4178  0.7833
 2960SOL     MW11840   4.511   4.538   3.981 -0.1283  0.4773  0.2195
 2961SOL     OW11841   2.154   0.416   0.119 -0.3988  0.3438  0.2963
 2961SOL    HW111842   2.133   0.470   0.195 -1.3449  0.6141 -0.1474
 2961SOL    HW211843   2.127   0.327   0.144  1.1114  0.0502  1.0071
 2961SOL     MW11844   2.148   0.411   0.132 -0.3266  0.3408  0.3305
 2962SOL     OW11845   3.489   0.631   3.200 -0.3083 -0.8750 -0.3354
 2962SOL    HW111846   3.442   0.609   3.280  0.9156  0.7348  0.8897
 2962SOL    HW211847   3.441   0.704   3.163  0.6581  0.1944  0.4498
 2962SOL     MW11848   3.477   0.637   3.206 -0.0279 -0.5320 -0.0780
 2963SOL     OW11849   3.702   3.843   2.052 -0.6563  0.0239  0.4225
 2963SOL    HW111850   3.683   3.906   1.982  0.2477 -1.8805 -1.6487
 2963SOL    HW211851   3.793   3.859   2.075  0.1435 -1.5614 -1.3637
 2963SOL     MW11852   3.711   3.853   2.046 -0.4382 -0.4228 -0.0713
 2964SOL     OW11853   0.209   0.363   2.359  0.3158 -0.1845 -0.3593
 2964SOL    HW111854   0.128   0.329   2.320 -1.3453  0.8459  1.9337
 2964SOL    HW211855   0.231   0.299   2.427 -0.0983  0.8239  0.7571
 2964SOL     MW11856   0.201   0.350   2.363  0.0502  0.0765  0.0772
 2965SOL     OW11857   3.287   4.206   4.948 -0.2158  0.2350 -0.2854
 2965SOL    HW111858   3.265   4.121   4.986 -0.6847 -0.4233 -1.9478
 2965SOL    HW211859   3.203   4.241   4.918 -0.2073  1.8430  1.3764
 2965SOL     MW11860   3.273   4.199   4.949 -0.2747  0.3566 -0.2855
 2966SOL     OW11861   4.607   3.671   4.046 -0.2223 -1.0403 -0.0536
 2966SOL    HW111862   4.604   3.590   4.096 -0.6062 -0.5369  0.7608
 2966SOL    HW211863   4.612   3.643   3.955  1.8339 -1.9779  0.2930
 2966SOL     MW11864   4.607   3.657   4.041 -0.0082 -1.0959  0.0950
 2967SOL     OW11865   3.853   2.382   2.499 -0.1583 -0.0150  0.4305
 2967SOL    HW111866   3.758   2.382   2.491 -0.2324 -0.4827  1.2209
 2967SOL    HW211867   3.869   2.408   2.589  0.3417 -2.8152  1.2592
 2967SOL     MW11868   3.843   2.385   2.509 -0.1038 -0.4333  0.6378
 2968SOL     OW11869   2.353   2.232   3.125  0.0309 -0.5134  0.4792
 2968SOL    HW111870   2.323   2.173   3.056 -0.0442  1.6461 -1.4484
 2968SOL    HW211871   2.273   2.266   3.164  0.0641 -0.5596  0.5884
 2968SOL     MW11872   2.339   2.228   3.121  0.0255 -0.2429  0.2464
 2969SOL     OW11873   5.232   0.538   2.654 -0.5729  0.1906  0.2042
 2969SOL    HW111874   5.268   0.598   2.719 -1.4929  2.1251 -0.9841
 2969SOL    HW211875   5.256   0.451   2.685 -0.2688  1.0925  2.6753
 2969SOL     MW11876   5.240   0.534   2.666 -0.6518  0.5537  0.3684
 2970SOL     OW11877   0.260   1.322   1.176 -0.1602  0.3630  0.2722
 2970SOL    HW111878   0.309   1.372   1.111 -0.0177  0.6324  0.5878
 2970SOL    HW211879   0.178   1.299   1.132  0.5461 -0.7470 -0.5325
 2970SOL     MW11880   0.255   1.325   1.162 -0.0515  0.2554  0.2096
 2971SOL     OW11881   2.798   5.018   2.516 -1.2579 -0.2688  0.1050
 2971SOL    HW111882   2.892   5.003   2.523 -1.3456 -1.2642 -0.6875
 2971SOL    HW211883   2.765   5.005   2.605 -0.6577  0.0573  0.3791
 2971SOL     MW11884   2.806   5.015   2.528 -1.1923 -0.3545  0.0386
 2972SOL     OW11885   5.180   2.312   2.023 -1.2522 -0.4638  0.3594
 2972SOL    HW111886   5.130   2.309   1.941 -1.7173  0.3214  0.6182
 2972SOL    HW211887   5.166   2.226   2.062 -0.5980 -1.0536 -0.6278
 2972SOL     MW11888   5.172   2.300   2.017 -1.2280 -0.4388  0.2661
 2973SOL     OW11889   0.830   4.308   3.623 -0.2978 -0.3706 -0.5770
 2973SOL    HW111890   0.808   4.364   3.698  2.7868 -1.7084  1.5549
 2973SOL    HW211891   0.755   4.250   3.615 -2.6046  2.4796 -1.4411
 2973SOL     MW11892   0.818   4.308   3.632 -0.1983 -0.1770 -0.4147
 2974SOL     OW11893   4.653   3.365   5.236  0.2423  0.1622  0.6020
 2974SOL    HW111894   4.659   3.272   5.215 -1.5745 -0.3708  2.1265
 2974SOL    HW211895   4.631   3.367   5.329 -1.3116  2.0614  0.2653
 2974SOL     MW11896   4.651   3.353   5.245 -0.1892  0.3371  0.7541
 2975SOL     OW11897   1.142   2.143   4.088  0.4992 -0.0434 -0.4599
 2975SOL    HW111898   1.051   2.121   4.108  0.1224  1.0225 -0.9208
 2975SOL    HW211899   1.137   2.225   4.038  1.6365 -0.5669 -1.5022
 2975SOL     MW11900   1.130   2.151   4.084  0.5965  0.0260 -0.6523
 2976SOL     OW11901   4.832   4.373   1.643 -0.3595 -0.6673  0.2250
 2976SOL    HW111902   4.871   4.416   1.719  0.9894 -1.3286 -0.0589
 2976SOL    HW211903   4.801   4.446   1.589  0.3156 -0.1089  0.5625
 2976SOL     MW11904   4.833   4.388   1.646 -0.1004 -0.6805  0.2318
 2977SOL     OW11905   2.815   0.108   3.368  0.3979  0.1323  0.2489
 2977SOL    HW111906   2.768   0.097   3.450 -1.7787 -1.3182 -1.0840
 2977SOL    HW211907   2.837   0.201   3.364 -0.6305  0.4736  1.8440
 2977SOL     MW11908   2.812   0.118   3.378 -0.0124 -0.0097  0.2825
 2978SOL     OW11909   2.146   0.750   1.551 -0.3504 -0.1983 -0.7921
 2978SOL    HW111910   2.124   0.753   1.458 -1.1982 -0.1700 -0.5911
 2978SOL    HW211911   2.072   0.790   1.596  0.7237  1.2078 -0.1988
 2978SOL     MW11912   2.134   0.755   1.545 -0.3214 -0.0147 -0.6904
 2979SOL     OW11913   3.026   5.286   3.358 -0.3516 -0.3117  0.1272
 2979SOL    HW111914   2.936   5.279   3.326 -0.2900  0.5279 -0.2604
 2979SOL    HW211915   3.018   5.339   3.438 -0.1373  0.2497 -0.2215
 2979SOL     MW11916   3.014   5.292   3.364 -0.3163 -0.1324  0.0330
 2980SOL     OW11917   1.131   2.370   1.201  0.0458 -0.0410  0.6845
 2980SOL    HW111918   1.205   2.368   1.140 -0.5697  1.5075 -0.1794
 2980SOL    HW211919   1.054   2.358   1.146 -0.5479  1.6708  1.0564
 2980SOL     MW11920   1.131   2.369   1.186 -0.1090  0.3763  0.6215
 2981SOL     OW11921   1.847   2.847   1.868  0.1690 -0.5329  0.2508
 2981SOL    HW111922   1.800   2.890   1.796 -0.9823 -0.9406  0.7432
 2981SOL    HW211923   1.911   2.790   1.824  0.3852  0.2143 -0.4252
 2981SOL     MW11924   1.849   2.845   1.853  0.0493 -0.4894  0.2273
 2982SOL     OW11925   1.725   5.192   3.070 -0.7337 -0.2669  0.4761
 2982SOL    HW111926   1.688   5.264   3.120 -0.0140  1.5312 -1.4215
 2982SOL    HW211927   1.671   5.187   2.991  1.7998  1.2503 -1.5062
 2982SOL     MW11928   1.714   5.201   3.066 -0.3173  0.1575 -0.0206
 2983SOL     OW11929   5.114   3.773   2.609 -0.4484  0.0141  0.1659
 2983SOL    HW111930   5.098   3.734   2.695 -0.2060  1.0808  0.7063
 2983SOL    HW211931   5.208   3.791   2.607 -0.4315 -0.1184 -0.3689
 2983SOL     MW11932   5.124   3.770   2.620 -0.4152  0.1337  0.1666
 2984SOL     OW11933   4.976  -0.027   2.738  0.1707  0.3881  0.5970
 2984SOL    HW111934   4.990   0.013   2.653 -0.5419  0.0685  0.3248
 2984SOL    HW211935   4.999   0.042   2.801 -1.5164  1.4321  0.1420
 2984SOL     MW11936   4.981  -0.013   2.736 -0.1365  0.4808  0.5039
 2985SOL     OW11937   2.831   4.587   2.767 -0.5495 -0.1781 -0.0156
 2985SOL    HW111938   2.847   4.673   2.805 -1.7130  0.4246 -0.8084
 2985SOL    HW211939   2.809   4.530   2.841  2.4673 -0.4161  0.7939
 2985SOL     MW11940   2.830   4.590   2.781 -0.3122 -0.1314 -0.0135
 2986SOL     OW11941   4.873   3.405   0.329  0.3468 -0.1143  0.2414
 2986SOL    HW111942   4.855   3.323   0.375 -1.2513 -0.0196 -0.1755
 2986SOL    HW211943   4.810   3.467   0.365  0.7102  0.6113 -0.3430
 2986SOL     MW11944   4.863   3.403   0.340  0.1887 -0.0093  0.1132
 2987SOL     OW11945   1.123   2.744   5.279  0.0042 -0.1235  0.0630
 2987SOL    HW111946   1.200   2.697   5.311  0.1475 -0.6904 -1.0576
 2987SOL    HW211947   1.100   2.699   5.198 -1.1491  0.4226  0.0732
 2987SOL     MW11948   1.130   2.732   5.273 -0.1251 -0.1262 -0.0791
 2988SOL     OW11949   0.926   3.622   5.234 -0.2702  0.0987  0.0975
 2988SOL    HW111950   0.945   3.530   5.251 -2.0230 -0.1961  0.6613
 2988SOL    HW211951   0.988   3.646   5.165 -0.1374 -1.6589 -0.4620
 2988SOL     MW11952   0.937   3.613   5.227 -0.4776 -0.1641  0.0981
 2989SOL     OW11953   2.749   0.528   0.335 -0.8575  0.5983  0.2787
 2989SOL    HW111954   2.787   0.606   0.294  0.9031  0.0566  0.7781
 2989SOL    HW211955   2.781   0.455   0.282 -1.7777  0.1373  0.3350
 2989SOL     MW11956   2.758   0.528   0.323 -0.7499  0.4700  0.3499
 2990SOL     OW11957   1.337   1.154   4.346  0.3582  0.1588  0.0665
 2990SOL    HW111958   1.415   1.104   4.321  1.8696  2.9160 -1.2762
 2990SOL    HW211959   1.335   1.150   4.441  1.2225 -1.2470  0.0543
 2990SOL     MW11960   1.347   1.148   4.355  0.6623  0.3318 -0.1070
 2991SOL     OW11961   3.591   0.193   4.630 -0.6632 -0.6403  0.1232
 2991SOL    HW111962   3.563   0.181   4.720  0.4186  0.3627  0.6116
 2991SOL    HW211963   3.514   0.227   4.584 -1.3530 -1.5998  0.5405
 2991SOL     MW11964   3.577   0.196   4.635 -0.6130 -0.6347  0.2391
 2992SOL     OW11965   0.988   0.952   4.877  0.1019 -0.2356 -0.4771
 2992SOL    HW111966   0.899   0.916   4.874  0.3698 -0.8376 -1.7270
 2992SOL    HW211967   0.976   1.045   4.856 -0.4929  0.3285  1.9705
 2992SOL     MW11968   0.975   0.959   4.874  0.0600 -0.2404 -0.3238
 2993SOL     OW11969   4.258   1.661   3.846  0.3654  0.3603 -0.3073
 2993SOL    HW111970   4.351   1.652   3.869 -0.1107  0.6308  2.0420
 2993SOL    HW211971   4.225   1.729   3.905 -1.2969  0.3786 -1.1945
 2993SOL     MW11972   4.266   1.668   3.857  0.0917  0.3973 -0.1201
 2994SOL     OW11973   4.253   1.010   1.653 -0.0454 -0.0137 -0.8591
 2994SOL    HW111974   4.258   1.065   1.731 -1.1113  0.2568 -0.9688
 2994SOL    HW211975   4.216   1.067   1.586 -2.2112 -1.1053 -0.6973
 2994SOL     MW11976   4.249   1.024   1.655 -0.4591 -0.1188 -0.8524
 2995SOL     OW11977   0.312   5.253   2.177  0.1690 -0.1170 -0.3117
 2995SOL    HW111978   0.347   5.293   2.097 -1.1504  0.3836 -0.6688
 2995SOL    HW211979   0.387   5.207   2.215  1.2402  1.0064 -0.9604
 2995SOL     MW11980   0.326   5.252   2.171  0.1372  0.0909 -0.4404
 2996SOL     OW11981   3.614   0.858   4.789  0.3362 -0.1172  0.0366
 2996SOL    HW111982   3.520   0.869   4.804  0.4244  0.4544  0.1905
 2996SOL    HW211983   3.652   0.944   4.810  1.0035 -0.6069  0.9120
 2996SOL     MW11984   3.607   0.870   4.794  0.4330 -0.1067  0.1683
 2997SOL     OW11985   1.738   4.329   5.117 -0.1256 -0.0445 -0.2690
 2997SOL    HW111986   1.660   4.294   5.160  0.0045 -0.1623 -0.1263
 2997SOL    HW211987   1.706   4.403   5.065 -0.2747  0.1281  0.0670
 2997SOL     MW11988   1.724   4.334   5.116 -0.1280 -0.0375 -0.2077
 2998SOL     OW11989   0.967   3.226   1.891 -0.4414 -0.3153  0.4652
 2998SOL    HW111990   0.952   3.306   1.942 -1.6706 -0.9475  1.1419
 2998SOL    HW211991   0.992   3.258   1.804  0.9113  0.7857  1.1990
 2998SOL     MW11992   0.968   3.241   1.886 -0.4256 -0.2553  0.6458
 2999SOL     OW11993   2.475   2.906   3.107 -1.1087 -0.1765 -0.1718
 2999SOL    HW111994   2.548   2.904   3.045 -1.5410 -0.0926 -0.6933
 2999SOL    HW211995   2.418   2.975   3.074 -0.6550  0.8628  1.1328
 2999SOL     MW11996   2.477   2.915   3.095 -1.1060 -0.0327 -0.0715
 3000SOL     OW11997   1.546   1.960   0.336 -0.0284 -0.4201  0.0304
 3000SOL    HW111998   1.579   2.005   0.414 -0.7761  0.4224 -0.1234
 3000SOL    HW211999   1.481   1.898   0.371 -0.7872  0.3648  0.0447
 3000SOL     MW12000   1.542   1.958   0.351 -0.2213 -0.2117  0.0126
 3001SOL     OW12001   0.760   3.774   1.220 -0.2418 -0.6749 -0.8519
 3001SOL    HW112002   0.683   3.829   1.235 -1.3973 -1.9303 -1.8773
 3001SOL    HW212003   0.771   3.724   1.300 -1.1373 -1.2145 -1.0568
 3001SOL     MW12004   0.752   3.775   1.232 -0.5044 -0.9047 -1.0094
 3002SOL     OW12005   0.621   5.459   1.410  0.4112  0.1152 -0.4844
 3002SOL    HW112006   0.556   5.511   1.456  0.0760 -1.0126  0.3554
 3002SOL    HW212007   0.699   5.462   1.465  0.4098 -0.2162 -0.4601
 3002SOL     MW12008   0.623   5.466   1.423  0.3681 -0.0716 -0.3738
 3003SOL     OW12009   4.769   3.102   1.419  0.1974  0.2363  0.3509
 3003SOL    HW112010   4.682   3.128   1.450 -0.4581  1.3960 -2.1387
 3003SOL    HW212011   4.785   3.159   1.343  1.8946 -1.8651 -0.9999
 3003SOL     MW12012   4.760   3.113   1.413  0.3308  0.1157 -0.1407
 3004SOL     OW12013   3.422   5.086   1.966  0.0662  0.0866  0.2937
 3004SOL    HW112014   3.444   5.063   2.056  0.9906 -1.2428 -0.2332
 3004SOL    HW212015   3.328   5.105   1.968 -0.1613 -1.0124  1.3380
 3004SOL     MW12016   3.413   5.085   1.978  0.1554 -0.2243  0.3600
 3005SOL     OW12017   1.530   1.686   4.226  0.4008  0.0678 -0.1366
 3005SOL    HW112018   1.493   1.738   4.154  1.7786  0.4414 -0.6119
 3005SOL    HW212019   1.491   1.599   4.215 -1.5335  0.8222  0.3531
 3005SOL     MW12020   1.521   1.682   4.215  0.3296  0.2122 -0.1347
 3006SOL     OW12021   4.832   0.097   3.051  0.0341  0.2680  0.5004
 3006SOL    HW112022   4.821   0.147   3.132  0.9148 -0.5736  1.1690
 3006SOL    HW212023   4.746   0.061   3.033 -0.2243  0.6640  0.9301
 3006SOL     MW12024   4.820   0.099   3.059  0.1138  0.2110  0.6410
 3007SOL     OW12025   1.721   1.047   5.181 -0.2089  0.1295 -0.1591
 3007SOL    HW112026   1.677   1.074   5.262  2.1708 -0.3692  1.4076
 3007SOL    HW212027   1.679   0.964   5.158 -1.2211  0.4940  0.2914
 3007SOL     MW12028   1.710   1.040   5.188 -0.0338  0.1123  0.0991
 3008SOL     OW12029   0.102   1.521   1.355  0.2048 -0.4350 -0.3972
 3008SOL    HW112030   0.103   1.607   1.313  1.0062  0.6197  1.6369
 3008SOL    HW212031   0.179   1.476   1.321  0.6432  0.2589 -0.3396
 3008SOL     MW12032   0.112   1.527   1.345  0.3635 -0.2111 -0.1294
 3009SOL     OW12033   4.953   3.649   5.288  0.1543  0.3338 -0.1277
 3009SOL    HW112034   4.964   3.562   5.249 -0.1664  0.0952  0.3036
 3009SOL    HW212035   4.859   3.662   5.292  0.1924  0.5055  0.2303
 3009SOL     MW12036   4.943   3.639   5.284  0.1181  0.3252 -0.0267
 3010SOL     OW12037   1.591   1.101   1.030 -0.1196  0.0216 -0.1909
 3010SOL    HW112038   1.583   1.010   1.000  1.0337 -0.4083  0.6965
 3010SOL    HW212039   1.682   1.108   1.060 -0.5413  1.1016  0.9098
 3010SOL     MW12040   1.602   1.090   1.030 -0.0260  0.1048  0.0636
 3011SOL     OW12041   3.605   4.994   2.232  0.4530 -0.3051  0.2428
 3011SOL    HW112042   3.652   4.938   2.171 -0.3983 -0.4899 -0.2572
 3011SOL    HW212043   3.621   4.956   2.318  1.1162 -0.4284  0.0691
 3011SOL     MW12044   3.613   4.982   2.236  0.4289 -0.3445  0.1566
 3012SOL     OW12045   4.899   1.647   4.380  0.0581 -0.2264  0.5310
 3012SOL    HW112046   4.979   1.698   4.374 -0.4676  0.6192  0.4801
 3012SOL    HW212047   4.899   1.612   4.469 -0.2534  1.0530  1.0598
 3012SOL     MW12048   4.909   1.649   4.390 -0.0491  0.0456  0.5922
 3013SOL     OW12049   3.145   0.330   0.439  0.0458  0.6969  0.0289
 3013SOL    HW112050   3.163   0.384   0.362 -0.7002 -0.2222 -0.8340
 3013SOL    HW212051   3.150   0.240   0.405 -0.3128  0.2805  1.0608
 3013SOL     MW12052   3.148   0.325   0.425 -0.0956  0.5259  0.0505
 3014SOL     OW12053   1.632   5.361   1.321  0.4276  0.0143 -0.2707
 3014SOL    HW112054   1.718   5.382   1.357  0.4994  0.9327 -0.9358
 3014SOL    HW212055   1.587   5.314   1.391  1.7579 -1.2124 -0.2129
 3014SOL     MW12056   1.637   5.358   1.335  0.6071 -0.0251 -0.3485
 3015SOL     OW12057   5.194   0.757   5.075  0.3724  0.0764 -0.6976
 3015SOL    HW112058   5.118   0.701   5.086  1.8927 -2.1401 -0.7867
 3015SOL    HW212059   5.269   0.701   5.099  1.8242  3.1776  3.0756
 3015SOL     MW12060   5.194   0.742   5.079  0.7529  0.1896 -0.2260
 3016SOL     OW12061   1.339   4.265   0.002 -0.0232 -0.1934 -0.3083
 3016SOL    HW112062   1.255   4.223  -0.020 -0.6514  1.4847 -1.2950
 3016SOL    HW212063   1.316   4.335   0.062  0.6659  0.2783 -0.5822
 3016SOL     MW12064   1.325   4.268   0.007 -0.0154  0.0818 -0.4697
 3017SOL     OW12065   4.831   2.512   3.615  0.3309 -0.4431  0.3646
 3017SOL    HW112066   4.867   2.523   3.527 -0.0171  1.0871  0.3771
 3017SOL    HW212067   4.751   2.461   3.603  0.4939 -0.5836 -0.1480
 3017SOL     MW12068   4.826   2.507   3.602  0.3072 -0.2652  0.3006
 3018SOL     OW12069   2.789   2.525   2.535  0.3326  0.4765 -0.0038
 3018SOL    HW112070   2.768   2.479   2.617 -0.7919 -0.3985 -0.7622
 3018SOL    HW212071   2.739   2.606   2.540 -1.7078 -0.6727 -0.8778
 3018SOL     MW12072   2.780   2.530   2.546 -0.0725  0.2174 -0.2128
 3019SOL     OW12073   2.667   0.978   4.713 -0.2042 -0.2097 -0.0242
 3019SOL    HW112074   2.662   0.904   4.775 -1.9649 -1.7430 -1.8409
 3019SOL    HW212075   2.602   0.956   4.646 -1.0299  3.1962 -0.5040
 3019SOL     MW12076   2.658   0.966   4.712 -0.5353  0.0300 -0.3182
 3020SOL     OW12077   0.964   2.406   3.644  0.2280 -0.3667 -0.5481
 3020SOL    HW112078   1.031   2.467   3.612 -0.0320  0.7665  0.9391
 3020SOL    HW212079   0.968   2.332   3.584  0.8601  0.9173 -2.1642
 3020SOL     MW12080   0.973   2.405   3.632  0.2756 -0.0573 -0.5646
 3021SOL     OW12081   1.603   2.595   4.018 -0.1612 -0.5077  0.2490
 3021SOL    HW112082   1.602   2.610   4.113 -2.7838 -0.5718  0.3053
 3021SOL    HW212083   1.613   2.682   3.980 -1.0202 -0.2487  0.5976
 3021SOL     MW12084   1.604   2.608   4.025 -0.6069 -0.4828  0.3008
 3022SOL     OW12085   0.538   3.820   5.400  0.2612 -0.4033 -0.6715
 3022SOL    HW112086   0.555   3.908   5.366  0.2724 -1.1181 -2.6705
 3022SOL    HW212087   0.445   3.819   5.420 -0.1400 -0.4594 -2.4026
 3022SOL     MW12088   0.529   3.831   5.398  0.2113 -0.5020 -1.1490
 3023SOL     OW12089   1.938   0.489   3.413 -0.8032  0.2162 -0.1432
 3023SOL    HW112090   2.020   0.489   3.364 -0.0067 -0.3630  1.1417
 3023SOL    HW212091   1.895   0.570   3.386 -0.6477 -0.2982 -2.1460
 3023SOL     MW12092   1.943   0.499   3.403 -0.6813  0.0762 -0.2351
 3024SOL     OW12093   3.185   5.370   4.204  0.1727 -0.0512 -0.4481
 3024SOL    HW112094   3.209   5.403   4.291  0.8890 -0.9480 -0.2815
 3024SOL    HW212095   3.205   5.276   4.209 -1.0011 -0.3470 -1.1681
 3024SOL     MW12096   3.191   5.362   4.216  0.1141 -0.2038 -0.5190
 3025SOL     OW12097   2.914   1.333   5.047 -0.1526  0.0149 -0.0585
 3025SOL    HW112098   2.992   1.353   5.100  0.5455  1.3089 -1.4950
 3025SOL    HW212099   2.942   1.261   4.990 -0.4042 -0.3474  0.2771
 3025SOL     MW12100   2.928   1.326   5.046 -0.0954  0.1342 -0.1994
 3026SOL     OW12101   0.895   3.769   4.108  0.5258 -0.1965  0.1336
 3026SOL    HW112102   0.878   3.748   4.017 -0.2896  1.3769 -0.1132
 3026SOL    HW212103   0.920   3.686   4.148  1.0335 -0.8816 -1.5382
 3026SOL     MW12104   0.896   3.756   4.102  0.4864 -0.0828 -0.1120
 3027SOL     OW12105   5.054   5.091   0.635 -0.1198  0.0419 -0.7426
 3027SOL    HW112106   5.122   5.026   0.652 -0.0221  0.2379 -0.3820
 3027SOL    HW212107   5.080   5.133   0.553  0.1024 -0.0032 -0.6947
 3027SOL     MW12108   5.066   5.088   0.626 -0.0788  0.0612 -0.6903
 3028SOL     OW12109   4.020   0.687   4.149 -0.1710  0.0191 -0.2990
 3028SOL    HW112110   3.964   0.650   4.217  0.7826  0.1947  0.6021
 3028SOL    HW212111   3.961   0.701   4.074 -0.7027 -2.8012 -0.5166
 3028SOL     MW12112   4.005   0.684   4.148 -0.1170 -0.3195 -0.2115
 3029SOL     OW12113   1.387   1.384   2.441  0.6846  0.3314  0.2825
 3029SOL    HW112114   1.343   1.459   2.402 -0.5523  0.7400  2.3108
 3029SOL    HW212115   1.327   1.353   2.508  1.3017 -2.2986 -0.2470
 3029SOL     MW12116   1.374   1.389   2.444  0.6052  0.0470  0.4743
 3030SOL     OW12117   2.508   0.949   1.013  0.2408  0.2841  0.4572
 3030SOL    HW112118   2.583   1.005   1.030  0.5563  0.7495 -2.0322
 3030SOL    HW212119   2.532   0.900   0.934 -1.3651 -0.8507  0.6249
 3030SOL     MW12120   2.521   0.950   1.005  0.0756  0.1984  0.1600
 3031SOL     OW12121   2.617   2.386   3.398 -0.2353 -0.5193  0.0891
 3031SOL    HW112122   2.691   2.446   3.391 -0.1815 -0.6185 -0.1833
 3031SOL    HW212123   2.612   2.343   3.313  0.1154 -1.3513  0.4698
 3031SOL     MW12124   2.626   2.388   3.386 -0.1835 -0.6385  0.1029
 3032SOL     OW12125   3.901   2.295   1.851 -0.0857 -0.2541 -0.2154
 3032SOL    HW112126   3.924   2.323   1.762  1.9316 -1.2541 -0.0738
 3032SOL    HW212127   3.811   2.265   1.844 -0.5951  1.3896 -1.4945
 3032SOL     MW12128   3.893   2.295   1.839  0.1074 -0.1717 -0.3610
 3033SOL     OW12129   1.739   4.655   2.507  0.2744  0.1408  0.3553
 3033SOL    HW112130   1.788   4.662   2.425 -0.2556  0.6891  0.0728
 3033SOL    HW212131   1.690   4.738   2.512  0.7668  0.3765  1.5265
 3033SOL     MW12132   1.739   4.667   2.497  0.2696  0.2412  0.4690
 3034SOL     OW12133   2.358   1.545   3.700 -0.1387  0.6118 -0.2571
 3034SOL    HW112134   2.281   1.488   3.700  0.9396 -0.8935  0.4231
 3034SOL    HW212135   2.421   1.501   3.756  1.8517  0.9408 -2.1121
 3034SOL     MW12136   2.356   1.532   3.707  0.2541  0.4612 -0.4075
 3035SOL     OW12137   0.524   3.234   1.532  1.0127  0.0784 -0.1649
 3035SOL    HW112138   0.495   3.246   1.623  1.8462  0.8665  0.0102
 3035SOL    HW212139   0.475   3.301   1.483 -1.2758 -1.8954 -0.7379
 3035SOL     MW12140   0.514   3.244   1.538  0.8265 -0.0734 -0.2158
 3036SOL     OW12141   1.235   2.981   5.260 -0.2163  0.2027  0.0125
 3036SOL    HW112142   1.199   2.893   5.261 -0.9555  0.4861  1.2332
 3036SOL    HW212143   1.245   3.003   5.168  0.6733 -1.4183 -0.3104
 3036SOL     MW12144   1.232   2.973   5.249 -0.1970  0.0315  0.1274
 3037SOL     OW12145   1.886   1.542   4.793  0.0862  0.4090  0.4698
 3037SOL    HW112146   1.800   1.501   4.793 -0.1900  0.9825  0.0350
 3037SOL    HW212147   1.947   1.470   4.775 -0.1939 -0.1872  1.7837
 3037SOL     MW12148   1.883   1.528   4.791  0.0150  0.4061  0.5823
 3038SOL     OW12149   0.430   4.793   1.069 -0.1774  0.1923 -0.4921
 3038SOL    HW112150   0.496   4.841   1.018  1.1641 -2.6874 -1.6382
 3038SOL    HW212151   0.449   4.817   1.160  1.0777  1.0507 -0.9465
 3038SOL     MW12152   0.441   4.803   1.075  0.1550 -0.0664 -0.6970
 3039SOL     OW12153   0.550   5.429   2.193  0.5736 -0.3516 -0.2410
 3039SOL    HW112154   0.475   5.453   2.139  1.4877  1.1230 -0.9465
 3039SOL    HW212155   0.582   5.347   2.155 -2.1341 -2.4698  1.6782
 3039SOL     MW12156   0.545   5.422   2.181  0.3440 -0.4340 -0.0856
 3040SOL     OW12157   2.749   3.699   4.606  0.5392  0.5889 -0.7013
 3040SOL    HW112158   2.809   3.696   4.532  0.5451  0.4771 -0.6924
 3040SOL    HW212159   2.805   3.711   4.682  0.7777 -1.7949 -0.4295
 3040SOL     MW12160   2.763   3.700   4.606  0.5705  0.2694 -0.6653
 3041SOL     OW12161   0.058   5.257   3.707 -0.1839 -0.6878  0.5243
 3041SOL    HW112162  -0.009   5.243   3.640 -0.6530 -0.7513  0.9976
 3041SOL    HW212163   0.126   5.194   3.687  0.1011 -0.0937 -0.4319
 3041SOL     MW12164   0.058   5.247   3.696 -0.2075 -0.6199  0.4625
 3042SOL     OW12165   4.650   0.697   3.325  0.2544 -0.0397  0.1657
 3042SOL    HW112166   4.677   0.725   3.413  0.0983 -1.5325  0.7150
 3042SOL    HW212167   4.661   0.776   3.271 -2.2735  1.7587  2.0222
 3042SOL     MW12168   4.655   0.711   3.329 -0.0892 -0.0006  0.4737
 3043SOL     OW12169   5.142   3.186   3.416  0.7731 -0.0710 -0.5670
 3043SOL    HW112170   5.059   3.144   3.394  0.2040  0.6083  0.2376
 3043SOL    HW212171   5.124   3.235   3.496  2.0395 -0.1791 -0.1955
 3043SOL     MW12172   5.129   3.187   3.423  0.8624  0.0021 -0.4165
 3044SOL     OW12173   3.457   4.540   1.185 -0.0317  0.0213  0.1584
 3044SOL    HW112174   3.493   4.625   1.162 -0.1553  0.2247  0.6854
 3044SOL    HW212175   3.529   4.494   1.228 -0.0789  0.0175  0.2350
 3044SOL     MW12176   3.471   4.545   1.188 -0.0536  0.0469  0.2357
 3045SOL     OW12177   0.811   4.331   1.786 -0.5527  0.4465 -0.0400
 3045SOL    HW112178   0.862   4.357   1.862 -1.1751  0.8792  0.2279
 3045SOL    HW212179   0.803   4.411   1.734 -1.1073  0.4185  0.0029
 3045SOL     MW12180   0.817   4.344   1.789 -0.7034  0.4983 -0.0002
 3046SOL     OW12181   4.617   1.515   0.660 -0.4443 -0.1985 -0.1931
 3046SOL    HW112182   4.541   1.465   0.629  0.2744 -0.2174 -2.0563
 3046SOL    HW212183   4.668   1.452   0.710 -1.8023 -0.0911  1.4103
 3046SOL     MW12184   4.614   1.501   0.662 -0.5261 -0.1872 -0.2263
 3047SOL     OW12185   1.824   2.966   3.373 -0.2246 -0.1322  0.2243
 3047SOL    HW112186   1.915   2.938   3.365 -0.8846 -2.0752 -1.9405
 3047SOL    HW212187   1.804   3.006   3.288 -1.2625  0.7439  0.8569
 3047SOL     MW12188   1.833   2.967   3.361 -0.4420 -0.2688  0.0281
 3048SOL     OW12189   1.141   4.589   3.431 -0.2961  0.2892 -0.5052
 3048SOL    HW112190   1.213   4.578   3.369 -0.1558 -0.4101 -0.2356
 3048SOL    HW212191   1.176   4.557   3.514 -0.8968 -0.0080 -0.3599
 3048SOL     MW12192   1.154   4.583   3.434 -0.3550  0.1616 -0.4521
 3049SOL     OW12193   0.786   2.901   0.265 -0.0352  0.2679 -0.5853
 3049SOL    HW112194   0.855   2.955   0.225 -0.6255 -1.1543 -3.8112
 3049SOL    HW212195   0.820   2.812   0.259 -0.9411 -0.1807  0.6105
 3049SOL     MW12196   0.799   2.897   0.259 -0.2267  0.0284 -0.8452
 3050SOL     OW12197   2.603   0.290   0.464  0.3206  0.0838 -0.4239
 3050SOL    HW112198   2.570   0.259   0.549  2.0954 -0.5038  0.1000
 3050SOL    HW212199   2.627   0.382   0.480 -0.7904  0.4429 -0.7426
 3050SOL     MW12200   2.602   0.298   0.477  0.4056  0.0546 -0.3976
 3051SOL     OW12201   3.327   2.555   3.028 -0.3546  0.5110  0.2998
 3051SOL    HW112202   3.407   2.518   2.992  0.0702 -0.6411  2.3070
 3051SOL    HW212203   3.278   2.586   2.951  1.1303 -0.5074 -1.1100
 3051SOL     MW12204   3.331   2.555   3.013 -0.1102  0.2332  0.3762
 3052SOL     OW12205   2.958   4.169   3.442  0.6037 -0.3746  0.1505
 3052SOL    HW112206   2.902   4.245   3.455 -0.0531 -0.7291 -0.5357
 3052SOL    HW212207   3.004   4.158   3.525  0.6704  0.7320  0.2754
 3052SOL     MW12208   2.957   4.177   3.454  0.5282 -0.2783  0.0786
 3053SOL     OW12209   2.209   1.667   0.594  0.4008 -0.7329 -0.0718
 3053SOL    HW112210   2.254   1.600   0.645  0.1024 -0.9701 -0.1206
 3053SOL    HW212211   2.191   1.626   0.510 -0.6992 -0.9500  0.2497
 3053SOL     MW12212   2.212   1.653   0.590  0.2218 -0.7910 -0.0369
 3054SOL     OW12213   4.918   4.834   1.796  0.6565  0.7596 -0.7158
 3054SOL    HW112214   4.830   4.798   1.811  1.4777 -1.5998 -1.0889
 3054SOL    HW212215   4.941   4.877   1.879 -1.3626  2.7239 -1.0934
 3054SOL     MW12216   4.910   4.835   1.809  0.5031  0.7090 -0.8119
 3055SOL     OW12217   3.978   3.017   2.854  0.6933 -0.7027 -0.0435
 3055SOL    HW112218   3.911   2.970   2.903  0.9311 -0.4448  0.5310
 3055SOL    HW212219   4.041   2.949   2.828  1.3313 -0.6284  1.2650
 3055SOL     MW12220   3.977   3.002   2.857  0.8054 -0.6602  0.1976
 3056SOL     OW12221   2.662   2.498   1.708 -0.0279  0.7780 -0.0737
 3056SOL    HW112222   2.754   2.494   1.682  0.1593  1.3438  0.4685
 3056SOL    HW212223   2.621   2.558   1.646 -0.4443 -0.8555 -1.4395
 3056SOL     MW12224   2.668   2.505   1.697 -0.0572  0.6413 -0.1791
 3057SOL     OW12225   3.925   4.195   4.389 -0.1341 -0.1894 -0.6341
 3057SOL    HW112226   3.916   4.236   4.475  1.2961 -1.7741  0.3342
 3057SOL    HW212227   3.873   4.115   4.395 -0.8336  0.1683 -1.6210
 3057SOL     MW12228   3.917   4.190   4.401 -0.0406 -0.3465 -0.6365
 3058SOL     OW12229   4.423   4.047   4.518 -0.3914 -0.2084  0.2153
 3058SOL    HW112230   4.414   3.954   4.540 -0.1590  0.1059  1.7401
 3058SOL    HW212231   4.382   4.055   4.431 -0.3049 -1.7450  0.0053
 3058SOL     MW12232   4.416   4.036   4.509 -0.3506 -0.3648  0.3836
 3059SOL     OW12233   1.332   5.257   0.073 -0.3486 -0.0028  0.0535
 3059SOL    HW112234   1.323   5.316  -0.001  0.4417  1.2756  0.9350
 3059SOL    HW212235   1.277   5.296   0.141 -1.1665 -1.2261  0.1250
 3059SOL     MW12236   1.323   5.270   0.073 -0.3521  0.0043  0.1755
 3060SOL     OW12237   1.477   1.903   2.813  0.1653  0.0180 -0.7627
 3060SOL    HW112238   1.429   1.851   2.749 -0.4621 -0.5433  0.1271
 3060SOL    HW212239   1.413   1.919   2.883  1.3475 -1.0903  0.6534
 3060SOL     MW12240   1.462   1.898   2.814  0.2364 -0.1957 -0.4675
 3061SOL     OW12241   3.127   0.808   3.617 -0.1707 -0.1254  0.1107
 3061SOL    HW112242   3.123   0.757   3.697  0.6447 -0.4337 -0.0399
 3061SOL    HW212243   3.219   0.832   3.608 -0.6678  2.3422  0.7786
 3061SOL     MW12244   3.138   0.805   3.626 -0.1300  0.1510  0.1769
 3062SOL     OW12245   5.347   0.578   4.237 -0.2405 -0.0862 -0.3823
 3062SOL    HW112246   5.419   0.610   4.182  0.5075  0.6453  0.9559
 3062SOL    HW212247   5.288   0.653   4.245 -0.5583 -0.3205 -0.5275
 3062SOL     MW12248   5.349   0.592   4.231 -0.1854 -0.0225 -0.2296
 3063SOL     OW12249   2.103   3.279   4.987 -0.1209  0.5646 -0.2764
 3063SOL    HW112250   2.078   3.205   5.042  0.7609  0.1518 -0.4172
 3063SOL    HW212251   2.111   3.243   4.899  0.2733  0.8360 -0.3529
 3063SOL     MW12252   2.101   3.265   4.983  0.0424  0.5465 -0.3042
 3064SOL     OW12253   3.126   2.743   0.586 -0.4578 -0.5421  0.1803
 3064SOL    HW112254   3.174   2.824   0.602  0.8030 -0.7999 -1.9908
 3064SOL    HW212255   3.040   2.771   0.555 -0.3380 -0.0567  0.2800
 3064SOL     MW12256   3.121   2.757   0.584 -0.2810 -0.5130 -0.0849
 3065SOL     OW12257   0.790   4.067   1.962 -0.1204  0.0316 -0.5791
 3065SOL    HW112258   0.731   4.141   1.975  0.9203  0.7501  0.1824
 3065SOL    HW212259   0.828   4.080   1.876  1.6199  1.5470  0.3648
 3065SOL     MW12260   0.787   4.078   1.953  0.2356  0.3176 -0.3607
 3066SOL     OW12261   2.106   3.190   2.106 -0.3098  0.3785  0.5311
 3066SOL    HW112262   2.160   3.150   2.038 -0.2574 -0.2173  0.9173
 3066SOL    HW212263   2.165   3.200   2.181 -0.7439 -0.3609  0.9840
 3066SOL     MW12264   2.120   3.186   2.107 -0.3587  0.2075  0.6385
 3067SOL     OW12265   1.483   3.108   3.587 -0.5474  0.6850  0.0342
 3067SOL    HW112266   1.560   3.153   3.552 -1.3786  1.4961 -0.8083
 3067SOL    HW212267   1.427   3.094   3.511 -0.3762 -1.7118  0.2949
 3067SOL     MW12268   1.485   3.112   3.573 -0.6319  0.4820 -0.0403
 3068SOL     OW12269   0.713   4.485   4.458 -0.7321  0.3082 -0.2480
 3068SOL    HW112270   0.750   4.403   4.490 -0.0709  1.8938  3.7659
 3068SOL    HW212271   0.757   4.502   4.375  1.5999 -1.7700  0.4711
 3068SOL     MW12272   0.723   4.477   4.452 -0.3490  0.2452  0.3579
 3069SOL     OW12273   4.838   2.777   5.036  0.4904 -0.4570 -0.1918
 3069SOL    HW112274   4.862   2.846   5.098  0.9760  2.1531 -3.0501
 3069SOL    HW212275   4.744   2.788   5.024  0.2444 -1.5171  0.6630
 3069SOL     MW12276   4.829   2.788   5.042  0.5211 -0.2586 -0.4483
 3070SOL     OW12277   4.746   3.218   4.144 -0.2756  0.1529  0.6403
 3070SOL    HW112278   4.795   3.169   4.078 -3.1820  0.7545 -2.2461
 3070SOL    HW212279   4.693   3.152   4.188  0.9363 -0.1135  1.7638
 3070SOL     MW12280   4.745   3.204   4.141 -0.4925  0.1958  0.4146
 3071SOL     OW12281   2.507   0.843   1.936 -0.1851  0.1543  0.2641
 3071SOL    HW112282   2.571   0.912   1.917  0.8455 -1.0032 -0.5781
 3071SOL    HW212283   2.555   0.762   1.925 -1.5903 -0.7399  0.4750
 3071SOL     MW12284   2.521   0.842   1.932 -0.2330 -0.1084  0.1833
 3072SOL     OW12285   1.499   0.143   4.422 -0.2658  0.1799  0.6256
 3072SOL    HW112286   1.431   0.138   4.489 -1.5188 -0.7561 -0.6600
 3072SOL    HW212287   1.581   0.123   4.469 -1.0022  0.2690  1.9907
 3072SOL     MW12288   1.501   0.140   4.437 -0.5205  0.0715  0.6357
 3073SOL     OW12289   3.375   4.901   4.393 -0.4501 -0.0862 -0.3046
 3073SOL    HW112290   3.309   4.929   4.457 -1.0568 -1.6631 -0.2016
 3073SOL    HW212291   3.356   4.953   4.315 -0.2746  1.2048  0.4869
 3073SOL     MW12292   3.364   4.911   4.391 -0.5053 -0.1228 -0.1901
 3074SOL     OW12293   3.257   2.363   2.253 -0.4647  0.1263 -0.6705
 3074SOL    HW112294   3.337   2.414   2.266  1.2702 -2.4779 -0.5022
 3074SOL    HW212295   3.263   2.330   2.163 -0.8546 -0.8589 -0.3503
 3074SOL     MW12296   3.268   2.365   2.243 -0.2925 -0.3332 -0.6080
 3075SOL     OW12297   2.942   1.274   1.773 -0.1531 -0.1001  0.0832
 3075SOL    HW112298   2.939   1.181   1.794  0.3218 -0.7294 -2.2795
 3075SOL    HW212299   2.999   1.313   1.839 -0.2366 -1.4968  1.0124
 3075SOL     MW12300   2.949   1.267   1.784 -0.1030 -0.3595 -0.1003
 3076SOL     OW12301   0.221   3.680   1.581  0.1689  0.1054  0.3838
 3076SOL    HW112302   0.295   3.681   1.642  0.6948 -1.4076 -0.1764
 3076SOL    HW212303   0.242   3.749   1.518  1.2302 -0.4195  0.1275
 3076SOL     MW12304   0.233   3.689   1.580  0.3721 -0.1555  0.2793
 3077SOL     OW12305   0.780   2.223   2.265  0.0452  0.0610 -0.4259
 3077SOL    HW112306   0.873   2.241   2.260  0.0447 -0.1424 -1.4165
 3077SOL    HW212307   0.754   2.205   2.175 -0.3348 -2.9213  0.1520
 3077SOL     MW12308   0.788   2.223   2.253 -0.0035 -0.3468 -0.4788
 3078SOL     OW12309   0.108   2.884   4.553 -0.1632  0.1208 -0.6723
 3078SOL    HW112310   0.147   2.808   4.510 -2.3600 -0.6392 -1.4426
 3078SOL    HW212311   0.169   2.956   4.535  1.4361 -1.2107 -0.8162
 3078SOL     MW12312   0.121   2.884   4.545 -0.2397 -0.1469 -0.7893
 3079SOL     OW12313   2.630   4.998   2.103  0.2950 -0.7260  0.1580
 3079SOL    HW112314   2.537   5.013   2.119  0.6071  0.5660  0.8537
 3079SOL    HW212315   2.667   5.085   2.093  1.3780 -1.2464 -0.4840
 3079SOL     MW12316   2.623   5.011   2.104  0.4736 -0.6273  0.1649
 3080SOL     OW12317   0.665   2.890   4.694 -0.3910  0.3390  0.1208
 3080SOL    HW112318   0.594   2.831   4.671  0.1570  0.0826 -0.9610
 3080SOL    HW212319   0.668   2.954   4.623  1.7530 -0.8493 -0.9565
 3080SOL     MW12320   0.656   2.890   4.682 -0.0464  0.1541 -0.1556
 3081SOL     OW12321   2.462   4.759   2.081 -0.2107 -0.6487 -0.4607
 3081SOL    HW112322   2.538   4.817   2.086  0.0925 -1.1003  0.2780
 3081SOL    HW212323   2.497   4.678   2.043 -0.3752 -0.7697 -0.3539
 3081SOL     MW12324   2.476   4.756   2.077 -0.1929 -0.7220 -0.3525
 3082SOL     OW12325   5.238   5.397   2.729 -0.1607 -0.5500  0.5106
 3082SOL    HW112326   5.154   5.428   2.763 -0.9912 -1.0712 -0.9641
 3082SOL    HW212327   5.216   5.316   2.683  0.9765 -0.1393 -0.8041
 3082SOL     MW12328   5.224   5.390   2.727 -0.1214 -0.5642  0.1535
 3083SOL     OW12329   1.224   4.098   4.622  0.2646 -0.3911 -0.6878
 3083SOL    HW112330   1.141   4.096   4.575 -0.0759  1.0742 -0.2037
 3083SOL    HW212331   1.290   4.085   4.554 -0.1849  2.2608 -1.7389
 3083SOL     MW12332   1.222   4.096   4.607  0.1635  0.1359 -0.7604
 3084SOL     OW12333   2.361   5.335   3.951 -0.4489  0.0496 -0.4393
 3084SOL    HW112334   2.311   5.286   3.886 -0.4806 -0.5722  0.0430
 3084SOL    HW212335   2.295   5.390   3.995 -0.5229  0.0477 -0.5473
 3084SOL     MW12336   2.346   5.336   3.948 -0.4624 -0.0302 -0.3914
 3085SOL     OW12337   5.187   3.733   1.167 -0.0599  0.0114  0.3769
 3085SOL    HW112338   5.173   3.820   1.204  1.0206  0.7211 -0.8021
 3085SOL    HW212339   5.249   3.691   1.226  0.1767  0.4184  0.4230
 3085SOL     MW12340   5.193   3.739   1.179  0.1087  0.1543  0.2319
 3086SOL     OW12341   0.034   1.110   3.948  0.0648  0.4107  0.4045
 3086SOL    HW112342   0.041   1.183   3.886 -0.7854  0.0339 -0.1409
 3086SOL    HW212343   0.060   1.148   4.032 -0.1533  1.2903  0.0860
 3086SOL     MW12344   0.038   1.124   3.951 -0.0720  0.4750  0.2939
 3087SOL     OW12345   4.073   2.982   4.889  0.0267  0.1456  0.0682
 3087SOL    HW112346   4.165   2.963   4.906 -0.1146  0.7176  1.5977
 3087SOL    HW212347   4.031   2.897   4.883  0.1251 -0.1306  2.5712
 3087SOL     MW12348   4.080   2.969   4.890  0.0212  0.1834  0.5844
 3088SOL     OW12349   3.628   3.057   4.039  0.0499 -0.3012 -0.5200
 3088SOL    HW112350   3.553   3.059   4.099 -1.2523  1.4642 -2.0472
 3088SOL    HW212351   3.590   3.030   3.955  1.4416 -0.8817 -0.9806
 3088SOL     MW12352   3.613   3.054   4.036  0.0613 -0.1495 -0.7745
 3089SOL     OW12353   3.751   0.742   5.089  0.4547  0.1018  0.5527
 3089SOL    HW112354   3.668   0.721   5.132  0.0992 -0.5658 -0.4304
 3089SOL    HW212355   3.758   0.837   5.096 -0.7665  0.2490 -0.0135
 3089SOL     MW12356   3.741   0.752   5.095  0.2528  0.0352  0.3544
 3090SOL     OW12357   4.276   2.616   0.729  0.4833  0.1203 -0.0175
 3090SOL    HW112358   4.202   2.578   0.680  2.7483 -0.8565 -2.9837
 3090SOL    HW212359   4.271   2.709   0.710  0.4425 -0.0482 -0.9048
 3090SOL     MW12360   4.266   2.623   0.720  0.7680 -0.0263 -0.5108
 3091SOL     OW12361   3.837   4.242   1.169  0.2152 -0.0217  0.4335
 3091SOL    HW112362   3.782   4.163   1.164  0.5877 -0.2612  0.0141
 3091SOL    HW212363   3.811   4.293   1.093 -0.9649  0.8912  1.4227
 3091SOL     MW12364   3.827   4.238   1.158  0.1118  0.0645  0.5065
 3092SOL     OW12365   0.454   5.308   0.994 -0.0979  0.0935 -0.1912
 3092SOL    HW112366   0.447   5.398   1.026 -0.2511 -0.1026  0.3409
 3092SOL    HW212367   0.540   5.279   1.025  0.0781  0.1521 -0.6185
 3092SOL     MW12368   0.464   5.316   1.002 -0.0950  0.0759 -0.1778
 3093SOL     OW12369   0.350   0.018   4.383 -0.3296 -0.3399  0.0348
 3093SOL    HW112370   0.416  -0.008   4.319  1.2553 -0.0903  1.4698
 3093SOL    HW212371   0.397   0.077   4.442 -2.1801  0.7869  0.4462
 3093SOL     MW12372   0.365   0.022   4.383 -0.3636 -0.1637  0.2712
 3094SOL     OW12373   1.106   4.395   4.292 -0.0468  0.5320  0.2219
 3094SOL    HW112374   1.144   4.434   4.371  1.1145  1.5974 -0.8112
 3094SOL    HW212375   1.027   4.446   4.275 -0.5974 -0.0491  0.9731
 3094SOL     MW12376   1.101   4.407   4.300  0.0314  0.5940  0.1858
 3095SOL     OW12377   0.877   3.157   5.109  0.4409  0.0394  0.0180
 3095SOL    HW112378   0.931   3.235   5.090  0.8240 -0.0603  0.6502
 3095SOL    HW212379   0.787   3.186   5.093  0.5136  0.8412  0.9230
 3095SOL     MW12380   0.873   3.171   5.105  0.4992  0.1293  0.2148
 3096SOL     OW12381   2.202   0.786   1.008  0.0188 -0.0583  0.1461
 3096SOL    HW112382   2.260   0.810   0.936 -0.8710  0.1755 -0.5020
 3096SOL    HW212383   2.147   0.716   0.973 -0.6369  0.2769  0.4948
 3096SOL     MW12384   2.202   0.780   0.994 -0.1791  0.0146  0.1077
 3097SOL     OW12385   3.954   4.011   2.197  0.4073 -0.2781  0.0673
 3097SOL    HW112386   4.011   3.956   2.143  0.9238  0.7390 -0.4557
 3097SOL    HW212387   3.968   4.100   2.163  0.3576  0.3148  1.5310
 3097SOL     MW12388   3.963   4.015   2.186  0.4670 -0.0720  0.1877
 3098SOL     OW12389   4.749   0.946   3.716  0.7954 -0.9916 -0.0546
 3098SOL    HW112390   4.724   1.025   3.668 -0.9719 -0.9731  0.8111
 3098SOL    HW212391   4.844   0.952   3.725  0.8432  0.3526 -1.1618
 3098SOL     MW12392   4.758   0.957   3.711  0.5753 -0.8171 -0.0855
 3099SOL     OW12393   1.586   4.210   1.818 -0.3862  0.0025  0.2290
 3099SOL    HW112394   1.579   4.299   1.782  1.3717 -0.8330 -2.5118
 3099SOL    HW212395   1.541   4.155   1.754  0.2199 -1.2798  0.8754
 3099SOL     MW12396   1.579   4.215   1.805 -0.0835 -0.2686 -0.0391
 3100SOL     OW12397   4.960   1.397   2.183  0.0089  0.4054  0.0629
 3100SOL    HW112398   4.984   1.412   2.274  0.4745 -0.6856  0.1350
 3100SOL    HW212399   5.022   1.331   2.152  0.5678  1.5525 -1.3780
 3100SOL     MW12400   4.971   1.390   2.191  0.1401  0.4126 -0.1123
 3101SOL     OW12401   1.258   2.465   2.459  0.0520  0.4508 -0.3363
 3101SOL    HW112402   1.271   2.418   2.542 -1.2759  1.0299  0.2280
 3101SOL    HW212403   1.344   2.465   2.418  0.5421 -0.6249  0.6313
 3101SOL     MW12404   1.271   2.459   2.464 -0.0552  0.3872 -0.1402
 3102SOL     OW12405   3.892   3.782   0.495 -0.0369  0.4871  0.3134
 3102SOL    HW112406   3.807   3.814   0.466 -1.4814 -0.6023  2.9494
 3102SOL    HW212407   3.924   3.729   0.422 -2.4357 -0.4550 -0.1503
 3102SOL     MW12408   3.885   3.779   0.482 -0.5289  0.2270  0.5915
 3103SOL     OW12409   2.116   4.168   5.376  0.3866 -0.2915 -0.0273
 3103SOL    HW112410   2.086   4.209   5.457  1.8368  0.8932 -0.0534
 3103SOL    HW212411   2.054   4.198   5.310  1.9208  2.7898 -0.2424
 3103SOL     MW12412   2.104   4.177   5.378  0.7686  0.2546 -0.0582
 3104SOL     OW12413   0.320   5.251   3.417  0.1964  0.3336  0.4583
 3104SOL    HW112414   0.383   5.208   3.359  0.4511  0.8246  0.3701
 3104SOL    HW212415   0.362   5.333   3.443  0.0530  0.1439  1.2923
 3104SOL     MW12416   0.333   5.256   3.413  0.2106  0.3722  0.5538
 3105SOL     OW12417   0.861   4.764   0.406 -0.6219 -0.4346  0.0260
 3105SOL    HW112418   0.883   4.808   0.489  1.5759  0.1278 -0.7690
 3105SOL    HW212419   0.779   4.804   0.378 -0.9057  0.0428  1.4668
 3105SOL     MW12420   0.854   4.775   0.413 -0.3769 -0.3015  0.1086
 3106SOL     OW12421   4.080   1.223   3.286 -0.2250  0.2076 -0.6005
 3106SOL    HW112422   4.143   1.290   3.261 -0.1100  0.0089 -0.8579
 3106SOL    HW212423   4.109   1.145   3.239  0.0934 -0.2259  0.2945
 3106SOL     MW12424   4.092   1.221   3.276 -0.1695  0.1267 -0.5189
 3107SOL     OW12425   0.260   0.722   3.211 -0.0842  0.1938  0.1627
 3107SOL    HW112426   0.234   0.697   3.300 -0.1010  1.0334  0.4031
 3107SOL    HW212427   0.356   0.727   3.214 -0.1409  1.4998  0.5060
 3107SOL     MW12428   0.269   0.720   3.223 -0.0936  0.4685  0.2375
 3108SOL     OW12429   0.066   0.122   0.424  0.0405  0.6249 -0.0138
 3108SOL    HW112430   0.137   0.177   0.458  0.0160  0.8814 -0.3657
 3108SOL    HW212431   0.035   0.072   0.499  0.7106  0.3888  0.1114
 3108SOL     MW12432   0.071   0.122   0.438  0.1232  0.6275 -0.0428
 3109SOL     OW12433   4.901   4.416   5.137  0.2662  0.0878 -0.3077
 3109SOL    HW112434   4.851   4.390   5.060 -0.3887 -0.3360  0.2456
 3109SOL    HW212435   4.843   4.397   5.211  0.7994  0.6699  0.2824
 3109SOL     MW12436   4.887   4.411   5.137  0.2506  0.1081 -0.1613
 3110SOL     OW12437   2.809   1.762   2.349  0.8145  0.4699  0.4326
 3110SOL    HW112438   2.852   1.689   2.395  1.8887  1.0644  0.3883
 3110SOL    HW212439   2.864   1.838   2.367 -0.9945  1.5965  1.5993
 3110SOL     MW12440   2.821   1.762   2.357  0.7204  0.6902  0.5763
 3111SOL     OW12441   2.498   2.440   2.644 -0.4405  0.0000 -0.4239
 3111SOL    HW112442   2.504   2.518   2.699  0.7278  0.0380 -0.5736
 3111SOL    HW212443   2.415   2.400   2.669 -1.9300  2.1850 -1.5731
 3111SOL     MW12444   2.488   2.445   2.655 -0.4816  0.2846 -0.5902
 3112SOL     OW12445   2.700   3.969   5.352 -0.0757 -0.3456 -0.3528
 3112SOL    HW112446   2.711   4.041   5.290  2.9009  0.4180  0.8934
 3112SOL    HW212447   2.742   3.894   5.309  1.4742  0.0380  0.4430
 3112SOL     MW12448   2.707   3.969   5.338  0.5038 -0.1987 -0.0914
 3113SOL     OW12449   4.394   2.626   2.619 -0.0490  0.1720  0.2474
 3113SOL    HW112450   4.389   2.664   2.531  0.0890 -2.0645 -0.8053
 3113SOL    HW212451   4.314   2.575   2.628 -1.0479  1.9694  2.2958
 3113SOL     MW12452   4.383   2.624   2.609 -0.1592  0.1158  0.3748
 3114SOL     OW12453   3.853   5.433   1.260  0.3659  0.1365  0.0401
 3114SOL    HW112454   3.874   5.360   1.319 -0.3562 -0.0699  0.0543
 3114SOL    HW212455   3.936   5.455   1.219  0.7376 -0.2082  0.5885
 3114SOL     MW12456   3.866   5.426   1.262  0.3211  0.0659  0.1121
 3115SOL     OW12457   0.793   3.425   1.592 -0.7454 -0.2402  0.0018
 3115SOL    HW112458   0.745   3.498   1.552 -0.1929 -0.1630 -0.5242
 3115SOL    HW212459   0.728   3.382   1.647 -1.3002  0.1405 -0.3436
 3115SOL     MW12460   0.778   3.429   1.594 -0.7457 -0.1816 -0.1097
 3116SOL     OW12461   4.981   3.106   4.795 -0.5365 -0.2824  0.1517
 3116SOL    HW112462   5.035   3.151   4.730  0.8364 -1.0215  0.7432
 3116SOL    HW212463   4.975   3.016   4.763 -1.5880 -0.1612 -0.0052
 3116SOL     MW12464   4.987   3.100   4.783 -0.4953 -0.3615  0.2073
 3117SOL     OW12465   3.886   2.908   3.244 -0.1760  0.3350  0.2250
 3117SOL    HW112466   3.938   2.966   3.299  2.1107 -0.1800 -1.2305
 3117SOL    HW212467   3.950   2.866   3.186 -1.6511 -3.5667  1.0483
 3117SOL     MW12468   3.901   2.910   3.243 -0.0721 -0.2304  0.1441
 3118SOL     OW12469   3.680   2.797   1.072  0.4409 -0.0569 -0.0543
 3118SOL    HW112470   3.633   2.811   1.154 -2.2465  0.6834 -1.5919
 3118SOL    HW212471   3.735   2.875   1.063 -2.6666  2.2364 -1.0092
 3118SOL     MW12472   3.681   2.809   1.082 -0.3009  0.3314 -0.3734
 3119SOL     OW12473   1.780   4.099   4.957  0.0459  0.0804  0.3363
 3119SOL    HW112474   1.749   4.024   5.009 -1.4492 -0.5329 -1.3592
 3119SOL    HW212475   1.779   4.172   5.019 -0.1620 -0.9199  1.5724
 3119SOL     MW12476   1.776   4.099   4.972 -0.1721 -0.1262  0.2775
 3120SOL     OW12477   2.339   2.445   0.464  0.0324  0.5061  0.0857
 3120SOL    HW112478   2.290   2.364   0.469 -1.2097  1.1511 -0.9949
 3120SOL    HW212479   2.427   2.419   0.440 -0.4496 -0.4994 -0.6397
 3120SOL     MW12480   2.344   2.432   0.462 -0.1883  0.4600 -0.1455
 3121SOL     OW12481   1.461   2.783   5.126  0.4299 -0.0014  0.1381
 3121SOL    HW112482   1.418   2.719   5.183  0.7440 -1.1848 -0.8813
 3121SOL    HW212483   1.469   2.862   5.179 -3.2692  0.4388  0.3081
 3121SOL     MW12484   1.456   2.785   5.140 -0.0034 -0.0965  0.0294
 3122SOL     OW12485   2.059   3.274   0.924 -0.3726 -0.2253 -0.0541
 3122SOL    HW112486   2.063   3.333   0.999 -1.9126  1.3212 -1.1307
 3122SOL    HW212487   1.988   3.307   0.870 -1.0304 -2.8222 -0.9545
 3122SOL     MW12488   2.050   3.286   0.927 -0.6539 -0.3598 -0.3072
 3123SOL     OW12489   0.120   2.996   1.415 -0.1139  0.4319  0.1325
 3123SOL    HW112490   0.214   2.995   1.428  0.0782 -0.7023 -1.1521
 3123SOL    HW212491   0.109   3.002   1.320 -1.3156 -0.1130  0.2166
 3123SOL     MW12492   0.130   2.997   1.405 -0.2431  0.2170 -0.0212
 3124SOL     OW12493   3.662   3.628   1.868  0.3477  0.4222  0.0652
 3124SOL    HW112494   3.716   3.682   1.925 -0.3449  1.1345  0.0636
 3124SOL    HW212495   3.695   3.645   1.779 -0.0579  1.0907  0.0322
 3124SOL     MW12496   3.673   3.637   1.864  0.2071  0.5990  0.0608
 3125SOL     OW12497   1.339   4.596   5.416  0.5352  0.1202 -0.0044
 3125SOL    HW112498   1.353   4.540   5.340  1.2091 -1.3324  1.1461
 3125SOL    HW212499   1.426   4.624   5.443  0.2622  1.0781 -0.0847
 3125SOL     MW12500   1.352   4.592   5.410  0.5865  0.0569  0.1326
 3126SOL     OW12501   2.437   4.239   3.054  0.0160  0.2310 -0.3754
 3126SOL    HW112502   2.447   4.199   3.140 -3.3029 -0.9538 -0.4029
 3126SOL    HW212503   2.428   4.164   2.994  1.5461  1.0400 -1.6915
 3126SOL     MW12504   2.437   4.224   3.057 -0.2130  0.1829 -0.5474
 3127SOL     OW12505   2.709   5.017   2.772  0.0503 -0.1825  0.0533
 3127SOL    HW112506   2.750   5.099   2.799  1.0372 -0.6860  0.1294
 3127SOL    HW212507   2.621   5.021   2.808 -0.2578  1.2671 -0.7659
 3127SOL     MW12508   2.703   5.028   2.780  0.1372 -0.0614 -0.0418
 3128SOL     OW12509   0.097   1.298   3.779  0.2783 -0.4458 -0.0793
 3128SOL    HW112510   0.146   1.372   3.815 -0.5874  0.9427 -1.6231
 3128SOL    HW212511   0.139   1.280   3.695  0.4455 -1.6970  0.2628
 3128SOL     MW12512   0.109   1.306   3.773  0.1889 -0.4282 -0.2331
 3129SOL     OW12513   0.388   2.164   2.953  0.0347 -0.1509  0.2145
 3129SOL    HW112514   0.428   2.077   2.950  0.2750 -0.0572  0.6648
 3129SOL    HW212515   0.345   2.173   2.868 -0.6237 -1.0073  0.4518
 3129SOL     MW12516   0.388   2.154   2.941 -0.0188 -0.2485  0.3025
 3130SOL     OW12517   0.326   4.482   3.920 -0.0541  0.1132  0.5954
 3130SOL    HW112518   0.410   4.488   3.875  0.1217 -1.2854  0.7115
 3130SOL    HW212519   0.324   4.559   3.977  1.1468  0.1700  0.5809
 3130SOL     MW12520   0.336   4.493   3.921  0.1221 -0.0585  0.6084
 3131SOL     OW12521   1.978   5.329   2.693 -0.2921 -0.3118  0.7665
 3131SOL    HW112522   1.951   5.271   2.622  0.7225  1.1284 -0.8818
 3131SOL    HW212523   2.013   5.406   2.649 -0.3194  0.9847  2.8570
 3131SOL     MW12524   1.979   5.332   2.679 -0.1657  0.0386  0.8231
 3132SOL     OW12525   1.514   3.883   1.044  0.3210  0.4948  0.1468
 3132SOL    HW112526   1.426   3.883   1.006  0.1388 -0.9733  0.4881
 3132SOL    HW212527   1.547   3.972   1.030 -0.7366  0.7238 -1.0967
 3132SOL     MW12528   1.507   3.894   1.037  0.1623  0.3361  0.0313
 3133SOL     OW12529  -0.007   2.544   0.179 -0.2876 -0.2109 -0.2113
 3133SOL    HW112530  -0.027   2.480   0.247 -1.0135  0.1056 -0.1251
 3133SOL    HW212531   0.047   2.495   0.116 -0.6450 -0.8420 -0.0336
 3133SOL     MW12532  -0.002   2.530   0.180 -0.4263 -0.2512 -0.1775
 3134SOL     OW12533   4.222   0.269   2.251 -0.5343 -0.0692 -0.2846
 3134SOL    HW112534   4.177   0.324   2.314 -0.4273 -0.9622  0.5790
 3134SOL    HW212535   4.285   0.219   2.302  0.1792 -0.1695 -1.2175
 3134SOL     MW12536   4.225   0.270   2.265 -0.4292 -0.1964 -0.2934
 3135SOL     OW12537   0.050   4.329   0.384  0.3953 -0.3920  0.1238
 3135SOL    HW112538  -0.011   4.257   0.371  0.5844 -0.4569 -0.4594
 3135SOL    HW212539   0.004   4.406   0.349  1.5022 -0.8269 -2.5600
 3135SOL     MW12540   0.036   4.330   0.378  0.5612 -0.4560 -0.2944
 3136SOL     OW12541   2.264   2.848   5.441 -0.2434  0.9652  0.0683
 3136SOL    HW112542   2.207   2.921   5.466 -3.4230 -0.7264 -1.6198
 3136SOL    HW212543   2.294   2.870   5.353  1.0497  1.4066  0.5899
 3136SOL     MW12544   2.261   2.860   5.433 -0.4849  0.8052 -0.0810
 3137SOL     OW12545   0.819   3.281   1.223 -0.1824  0.0606  0.2704
 3137SOL    HW112546   0.739   3.266   1.173  0.1988 -0.4795 -0.1910
 3137SOL    HW212547   0.812   3.219   1.296  1.5551 -2.8890 -1.8249
 3137SOL     MW12548   0.808   3.271   1.226  0.0888 -0.3861 -0.0569
 3138SOL     OW12549   4.516   1.602   3.859 -0.0435  0.2386  0.2655
 3138SOL    HW112550   4.553   1.535   3.916  0.0289 -0.0808 -0.1524
 3138SOL    HW212551   4.593   1.645   3.821 -0.0952 -0.1251 -0.2554
 3138SOL     MW12552   4.531   1.599   3.861 -0.0408  0.1511  0.1453
 3139SOL     OW12553   5.130   0.317   3.442  0.0312  0.1331  0.2941
 3139SOL    HW112554   5.111   0.235   3.395  1.6996  0.8444 -1.7546
 3139SOL    HW212555   5.153   0.288   3.530  0.5239 -1.6269 -0.3564
 3139SOL     MW12556   5.130   0.303   3.447  0.3078 -0.0012 -0.0514
 3140SOL     OW12557   2.354   1.615   1.216 -0.1085 -0.0332 -0.4434
 3140SOL    HW112558   2.416   1.550   1.249  0.5756 -0.2917 -2.1095
 3140SOL    HW212559   2.366   1.691   1.273  0.5026 -0.6739  0.3114
 3140SOL     MW12560   2.363   1.616   1.228  0.0573 -0.1483 -0.5600
 3141SOL     OW12561   1.177   1.820   2.430  0.0578  0.1867  0.3871
 3141SOL    HW112562   1.216   1.864   2.506  0.1679 -0.1386  0.5208
 3141SOL    HW212563   1.120   1.754   2.468  1.4224 -1.1485  0.2045
 3141SOL     MW12564   1.175   1.817   2.445  0.2466 -0.0259  0.3809
 3142SOL     OW12565   0.048   0.755   2.066  0.5444 -0.6151  1.3341
 3142SOL    HW112566  -0.045   0.732   2.064 -0.2937  2.3147 -1.0011
 3142SOL    HW212567   0.053   0.830   2.124  1.1253  0.1852  0.2923
 3142SOL     MW12568   0.037   0.762   2.073  0.5114 -0.1376  0.9018
 3143SOL     OW12569   2.964   4.588   4.380 -0.0998 -0.4066 -0.2614
 3143SOL    HW112570   3.050   4.596   4.338  0.1050  1.2300  0.4119
 3143SOL    HW212571   2.916   4.528   4.323  1.6114 -1.7260 -0.4215
 3143SOL     MW12572   2.969   4.581   4.367  0.1455 -0.3660 -0.1957
 3144SOL     OW12573   4.638   1.024   4.773 -0.1732 -0.4295 -0.1629
 3144SOL    HW112574   4.636   1.115   4.799 -1.5407  1.0617 -4.5420
 3144SOL    HW212575   4.558   0.986   4.811 -1.6647  1.3322 -1.3796
 3144SOL     MW12576   4.627   1.031   4.781 -0.5392 -0.0131 -0.8792
 3145SOL     OW12577   0.239   4.030   0.096 -0.0226  0.3090  0.4810
 3145SOL    HW112578   0.276   3.971   0.030  0.3835 -0.3476  1.2738
 3145SOL    HW212579   0.215   3.972   0.169 -2.6784  0.6759  0.0107
 3145SOL     MW12580   0.241   4.015   0.097 -0.3106  0.2719  0.5223
 3146SOL     OW12581   0.193   3.919   3.414  0.3359 -0.1935  0.4852
 3146SOL    HW112582   0.155   3.860   3.480 -0.4388  0.3244  0.5155
 3146SOL    HW212583   0.218   3.861   3.342 -0.0676 -0.6110  0.6708
 3146SOL     MW12584   0.191   3.904   3.414  0.1851 -0.1806  0.5128
 3147SOL     OW12585   3.187   0.943   1.443  0.2223 -0.9900  0.0493
 3147SOL    HW112586   3.144   1.024   1.417  1.6578 -0.1488  0.1987
 3147SOL    HW212587   3.245   0.968   1.515  0.1258 -2.3039  0.6235
 3147SOL     MW12588   3.189   0.956   1.449  0.3937 -1.0505  0.1420
 3148SOL     OW12589   2.138   1.284   5.420 -0.0097  0.0847  0.4114
 3148SOL    HW112590   2.122   1.364   5.369 -0.4508 -0.3012 -0.0611
 3148SOL    HW212591   2.061   1.229   5.404  0.3780 -0.5183  0.5802
 3148SOL     MW12592   2.126   1.287   5.411 -0.0165 -0.0419  0.3725
 3149SOL     OW12593   2.370   2.303   4.325  0.3181 -0.0079 -0.3346
 3149SOL    HW112594   2.445   2.264   4.369 -1.4942 -1.5640  1.5932
 3149SOL    HW212595   2.309   2.231   4.313 -1.3568  1.4054 -0.7350
 3149SOL     MW12596   2.372   2.289   4.329 -0.1283 -0.0262 -0.1391
 3150SOL     OW12597   4.342   3.441   3.305  0.1129  0.1223  0.1480
 3150SOL    HW112598   4.427   3.459   3.346  0.2802 -1.3998  0.5315
 3150SOL    HW212599   4.362   3.434   3.212  0.4959 -0.6058  0.2750
 3150SOL     MW12600   4.356   3.443   3.298  0.1833 -0.1657  0.2133
 3151SOL     OW12601   3.786   1.206   3.648 -0.1323  0.1719  0.5403
 3151SOL    HW112602   3.764   1.134   3.707 -0.9570 -1.6056 -1.7781
 3151SOL    HW212603   3.724   1.197   3.576  0.7454  2.3132 -0.5510
 3151SOL     MW12604   3.775   1.195   3.647 -0.1255  0.2185  0.1038
 3152SOL     OW12605   5.467   1.049   0.650  0.0444 -0.5230 -0.2852
 3152SOL    HW112606   5.397   1.026   0.589  1.1324  0.0269 -1.8046
 3152SOL    HW212607   5.540   0.991   0.625  0.8098  0.3496 -0.1181
 3152SOL     MW12608   5.468   1.038   0.639  0.2817 -0.3409 -0.4583
 3153SOL     OW12609   0.572   0.672   0.569  0.4570  0.1034  0.4785
 3153SOL    HW112610   0.641   0.620   0.612  0.1456 -0.7016  0.0319
 3153SOL    HW212611   0.493   0.654   0.620  0.0373 -1.0341 -0.5269
 3153SOL     MW12612   0.571   0.663   0.581  0.3634 -0.1453  0.2927
 3154SOL     OW12613   4.020   2.104   1.357 -0.0812 -0.5590  0.1736
 3154SOL    HW112614   4.019   2.076   1.449 -0.1515 -0.7848  0.1031
 3154SOL    HW212615   4.070   2.186   1.358  1.9393 -1.7029  0.0881
 3154SOL     MW12616   4.027   2.111   1.369  0.1685 -0.7344  0.1537
 3155SOL     OW12617   3.419   3.867   0.045 -0.1289 -0.2615  0.2044
 3155SOL    HW112618   3.346   3.829   0.094 -0.1267 -0.8951 -0.2686
 3155SOL    HW212619   3.487   3.880   0.111 -1.4882  2.7663  1.2007
 3155SOL     MW12620   3.418   3.863   0.060 -0.3027  0.0450  0.2714
 3156SOL     OW12621   3.757   3.368   2.669  0.0518 -0.5920 -0.8730
 3156SOL    HW112622   3.774   3.275   2.656 -0.5010 -0.7539 -0.4593
 3156SOL    HW212623   3.836   3.411   2.637  0.5178 -1.2265 -0.6055
 3156SOL     MW12624   3.769   3.362   2.663  0.0407 -0.6940 -0.7858
 3157SOL     OW12625   4.915   0.502   2.371  0.0091  0.1538  0.1815
 3157SOL    HW112626   4.892   0.507   2.463 -1.4346 -0.5289 -0.1036
 3157SOL    HW212627   4.831   0.493   2.326  0.5923  1.6047 -1.3041
 3157SOL     MW12628   4.901   0.501   2.377 -0.1010  0.2521 -0.0451
 3158SOL     OW12629   3.996   5.137   3.079  0.2611  0.3651 -0.0589
 3158SOL    HW112630   4.045   5.082   3.141  0.7101 -0.6508 -1.2675
 3158SOL    HW212631   3.907   5.104   3.084  0.5441 -0.5572 -0.8335
 3158SOL     MW12632   3.991   5.126   3.087  0.3548  0.1170 -0.3128
 3159SOL     OW12633   4.193   4.424   2.657 -0.2916  0.8851 -0.5395
 3159SOL    HW112634   4.102   4.440   2.681 -0.1700  1.8740 -0.6853
 3159SOL    HW212635   4.229   4.511   2.639  0.9649  0.6142  0.4970
 3159SOL     MW12636   4.186   4.437   2.657 -0.1152  0.9770 -0.4255
 3160SOL     OW12637   0.753   1.831   3.415 -0.1514  0.0768  0.3974
 3160SOL    HW112638   0.707   1.748   3.402  0.9098 -0.3472 -0.8082
 3160SOL    HW212639   0.690   1.897   3.384  0.0212 -0.5038 -1.3532
 3160SOL     MW12640   0.739   1.829   3.409  0.0065 -0.0518  0.0190
 3161SOL     OW12641   3.932   2.496   2.030  0.0046 -0.2281  0.1234
 3161SOL    HW112642   3.913   2.425   1.969 -1.8037 -0.5513  0.9865
 3161SOL    HW212643   3.986   2.557   1.979  2.1687 -2.4469 -0.4542
 3161SOL     MW12644   3.936   2.495   2.015  0.0502 -0.5535  0.1600
 3162SOL     OW12645   4.517   4.741   5.194 -0.0095  0.3938 -0.1755
 3162SOL    HW112646   4.547   4.830   5.176 -1.4566  0.8703 -0.3633
 3162SOL    HW212647   4.534   4.728   5.287  0.4717  0.7509 -0.2113
 3162SOL     MW12648   4.523   4.751   5.203 -0.1331  0.5005 -0.2041
 3163SOL     OW12649   1.352   2.229   1.992  0.3438  0.3609  0.0530
 3163SOL    HW112650   1.388   2.164   1.932  0.3484  0.3068  0.1138
 3163SOL    HW212651   1.285   2.275   1.940 -0.1430 -0.1570  0.2127
 3163SOL     MW12652   1.348   2.227   1.977  0.2821  0.2877  0.0812
 3164SOL     OW12653   1.276   3.115   0.440 -0.4473 -0.1442 -0.5337
 3164SOL    HW112654   1.233   3.035   0.411  2.8788 -1.8728 -1.1097
 3164SOL    HW212655   1.328   3.144   0.365  0.1363  1.2986  0.3762
 3164SOL     MW12656   1.277   3.109   0.427  0.0532 -0.1808 -0.4910
 3165SOL     OW12657   2.394   5.332   2.072  0.8839 -0.1233 -0.1158
 3165SOL    HW112658   2.426   5.416   2.041 -0.7051  0.6108  0.1278
 3165SOL    HW212659   2.341   5.299   1.999  0.0491 -0.0632  0.4476
 3165SOL     MW12660   2.391   5.338   2.058  0.5737 -0.0217 -0.0125
 3166SOL     OW12661   4.751   4.622   3.393 -0.6364 -0.1182  0.7365
 3166SOL    HW112662   4.817   4.627   3.324  0.2873  1.1642  1.6706
 3166SOL    HW212663   4.750   4.529   3.418 -1.3375 -0.6974 -1.2765
 3166SOL     MW12664   4.760   4.611   3.388 -0.6079 -0.0282  0.5984
 3167SOL     OW12665   0.219   1.456   3.967  0.4542 -0.0776  0.2571
 3167SOL    HW112666   0.312   1.437   3.977  0.5906 -0.2555 -1.2172
 3167SOL    HW212667   0.187   1.463   4.057  1.8907  0.0239  0.7921
 3167SOL     MW12668   0.227   1.455   3.980  0.6556 -0.0874  0.1368
 3168SOL     OW12669   2.940   3.791   0.149 -0.8052  0.1750 -0.0539
 3168SOL    HW112670   2.887   3.870   0.153 -2.8027 -1.0681 -0.4141
 3168SOL    HW212671   2.876   3.720   0.143  0.9112 -1.4716  0.2322
 3168SOL     MW12672   2.925   3.792   0.149 -0.8412 -0.1949 -0.0634
 3169SOL     OW12673   1.075   0.065   4.525 -0.0831 -0.1599  0.1280
 3169SOL    HW112674   0.999   0.122   4.540 -1.2338 -1.9321  1.4056
 3169SOL    HW212675   1.074   0.048   4.431 -1.8809 -0.9168  0.2485
 3169SOL     MW12676   1.065   0.070   4.515 -0.4605 -0.4837  0.3070
 3170SOL     OW12677   1.093   3.744   1.273 -0.0236  0.4611 -0.2972
 3170SOL    HW112678   1.060   3.694   1.347 -0.5284 -0.7106 -1.2675
 3170SOL    HW212679   1.050   3.705   1.197  1.9232  0.3363 -1.4064
 3170SOL     MW12680   1.083   3.733   1.273  0.1610  0.2952 -0.5634
 3171SOL     OW12681   1.992   2.447   0.265 -0.1353  0.2902  0.4028
 3171SOL    HW112682   1.982   2.379   0.332  0.6051  0.2208  0.4541
 3171SOL    HW212683   1.959   2.527   0.307 -0.2795  0.1141  0.6237
 3171SOL     MW12684   1.987   2.449   0.279 -0.0590  0.2588  0.4377
 3172SOL     OW12685   4.342   4.337   4.049  0.5455 -0.0738 -0.2108
 3172SOL    HW112686   4.399   4.411   4.031  0.1933  0.1424 -0.4548
 3172SOL    HW212687   4.299   4.319   3.965 -1.0872  0.9126  0.3865
 3172SOL     MW12688   4.344   4.344   4.036  0.2914  0.0801 -0.1655
 3173SOL     OW12689   0.808   4.203   1.527  0.3660 -0.2219  0.3195
 3173SOL    HW112690   0.830   4.168   1.441  1.5074  0.6308  0.2496
 3173SOL    HW212691   0.883   4.182   1.583  0.7950  1.4642  0.4409
 3173SOL     MW12692   0.820   4.196   1.523  0.5671  0.1031  0.3261
 3174SOL     OW12693   1.401   2.460   1.646 -0.0503  0.0831  0.1593
 3174SOL    HW112694   1.323   2.406   1.660 -0.0903  0.3396  0.9469
 3174SOL    HW212695   1.373   2.549   1.667 -0.2787  0.6114 -2.1109
 3174SOL     MW12696   1.387   2.465   1.650 -0.0847  0.1836 -0.0305
 3175SOL     OW12697   1.369   3.664   5.157 -0.6030  0.4817 -0.0132
 3175SOL    HW112698   1.417   3.708   5.087 -0.2489  0.5007  0.2432
 3175SOL    HW212699   1.279   3.693   5.146 -0.6242  0.1784 -0.7096
 3175SOL     MW12700   1.364   3.673   5.146 -0.5604  0.4453 -0.0695
 3176SOL     OW12701   3.548   5.212   3.252 -0.4110  0.7327 -0.3311
 3176SOL    HW112702   3.538   5.273   3.179  1.4190  2.0013  0.3987
 3176SOL    HW212703   3.588   5.264   3.321  1.0880 -1.2503  0.3874
 3176SOL     MW12704   3.552   5.226   3.251  0.0152  0.6412 -0.1457
 3177SOL     OW12705   3.897   1.890   1.269 -0.5137 -0.7992 -0.0495
 3177SOL    HW112706   3.950   1.967   1.290 -1.0230 -0.7170  0.9782
 3177SOL    HW212707   3.833   1.922   1.204  0.0987 -0.6801 -0.6034
 3177SOL     MW12708   3.895   1.904   1.263 -0.5005 -0.7734  0.0112
 3178SOL     OW12709   3.953   0.362   1.669  0.2641 -0.6908 -0.7875
 3178SOL    HW112710   3.931   0.293   1.731 -0.1159  1.3697  1.5070
 3178SOL    HW212711   3.880   0.364   1.607 -0.4762 -1.3103  0.0637
 3178SOL     MW12712   3.941   0.354   1.669  0.1207 -0.5063 -0.3848
 3179SOL     OW12713   4.488   0.111   1.664 -0.4313 -0.6334 -0.1778
 3179SOL    HW112714   4.452   0.183   1.611 -2.4284 -1.6161 -0.2610
 3179SOL    HW212715   4.490   0.036   1.605  0.9176 -0.8509  0.1174
 3179SOL     MW12716   4.483   0.111   1.650 -0.5142 -0.7871 -0.1507
 3180SOL     OW12717   4.182   4.304   2.013 -0.6469  0.0546  0.0381
 3180SOL    HW112718   4.204   4.303   1.919 -0.1277  1.2754  0.1206
 3180SOL    HW212719   4.257   4.262   2.056 -0.2740  0.6659 -0.0002
 3180SOL     MW12720   4.194   4.299   2.006 -0.5327  0.2892  0.0437
 3181SOL     OW12721   3.624   4.810   2.835  0.4577 -0.5859 -0.3983
 3181SOL    HW112722   3.589   4.758   2.906 -0.4136  1.0884  0.4638
 3181SOL    HW212723   3.573   4.783   2.758 -0.6038 -0.3900  0.2159
 3181SOL     MW12724   3.613   4.800   2.834  0.2103 -0.3465 -0.2093
 3182SOL     OW12725   4.190   3.361   1.401  0.7499  0.9194  0.1748
 3182SOL    HW112726   4.272   3.357   1.452 -0.7439  0.1224  2.6901
 3182SOL    HW212727   4.204   3.301   1.328  1.9089 -0.3304  1.3735
 3182SOL     MW12728   4.203   3.353   1.398  0.7070  0.6574  0.6502
 3183SOL     OW12729   1.691   2.970   4.865 -0.0237  0.4265 -0.5328
 3183SOL    HW112730   1.710   2.969   4.771 -0.1717 -0.7082 -0.5652
 3183SOL    HW212731   1.613   3.024   4.873  0.5045  1.2753 -0.9462
 3183SOL     MW12732   1.684   2.976   4.854  0.0250  0.3899 -0.5899
 3184SOL     OW12733   3.216   3.969   5.347  0.1906 -0.2398  0.2913
 3184SOL    HW112734   3.288   3.944   5.406  2.4494  1.4722 -1.5636
 3184SOL    HW212735   3.166   4.033   5.396  1.0897 -0.0171  0.9437
 3184SOL     MW12736   3.219   3.974   5.361  0.5949  0.0079  0.1374
 3185SOL     OW12737   2.267   2.696   3.677  0.0948  0.1237  0.1084
 3185SOL    HW112738   2.253   2.646   3.758  1.5480  1.2214  1.0754
 3185SOL    HW212739   2.298   2.631   3.614 -1.2240 -0.7777  0.3518
 3185SOL     MW12740   2.269   2.681   3.679  0.1120  0.1488  0.2633
 3186SOL     OW12741   1.914   4.915   3.192  0.5899 -0.2001  0.1698
 3186SOL    HW112742   1.889   4.834   3.236 -0.0157 -0.1253 -0.0143
 3186SOL    HW212743   1.969   4.886   3.119  0.3128 -0.4618  0.0567
 3186SOL     MW12744   1.918   4.901   3.188  0.4769 -0.2240  0.1318
 3187SOL     OW12745   5.462   1.220   1.554  0.3604  0.2597 -0.3587
 3187SOL    HW112746   5.412   1.272   1.492  0.0973  0.5046  0.0554
 3187SOL    HW212747   5.514   1.284   1.604 -0.7846  0.2609  0.9019
 3187SOL     MW12748   5.462   1.235   1.553  0.1801  0.2912 -0.1443
 3188SOL     OW12749   0.896   2.304   0.718  0.4244 -0.3883 -0.0488
 3188SOL    HW112750   0.945   2.235   0.763  0.2144 -1.4467 -1.3565
 3188SOL    HW212751   0.962   2.352   0.668  0.2372 -1.7953 -1.7869
 3188SOL     MW12752   0.911   2.301   0.717  0.3735 -0.7039 -0.4387
 3189SOL     OW12753   5.234   0.980   2.731 -0.4515 -0.0622 -0.0723
 3189SOL    HW112754   5.198   0.952   2.646 -1.8940 -0.4454  0.6283
 3189SOL    HW212755   5.303   0.917   2.749  0.0466  0.1718 -1.0702
 3189SOL     MW12756   5.238   0.968   2.722 -0.5724 -0.0813 -0.1104
 3190SOL     OW12757   1.508   3.479   0.557 -0.4213 -0.6368  0.4836
 3190SOL    HW112758   1.414   3.487   0.577 -0.4218 -0.5672  0.4550
 3190SOL    HW212759   1.551   3.503   0.639 -0.4384 -1.3259  0.6987
 3190SOL     MW12760   1.501   3.483   0.570 -0.4235 -0.7161  0.5075
 3191SOL     OW12761   3.186   4.402   3.094  0.4638 -0.0688 -0.7891
 3191SOL    HW112762   3.217   4.350   3.168  0.1665 -0.0104 -0.6221
 3191SOL    HW212763   3.233   4.366   3.018  0.6049 -0.2739 -0.6066
 3191SOL     MW12764   3.196   4.391   3.094  0.4438 -0.0876 -0.7444
 3192SOL     OW12765   4.448   4.301   0.484 -0.0734  0.1068 -0.3060
 3192SOL    HW112766   4.401   4.377   0.450  2.1354  1.3311 -0.8668
 3192SOL    HW212767   4.445   4.312   0.579 -2.8291 -1.1355 -0.1720
 3192SOL     MW12768   4.442   4.312   0.492 -0.1434  0.1045 -0.3606
 3193SOL     OW12769   1.557   2.063   3.947 -0.1338 -0.4915  0.2616
 3193SOL    HW112770   1.616   2.093   4.016 -0.2401  0.7788 -0.1693
 3193SOL    HW212771   1.612   2.063   3.868 -0.7451  0.9798 -0.1973
 3193SOL     MW12772   1.572   2.067   3.945 -0.2257 -0.1405  0.1477
 3194SOL     OW12773   4.314   2.206   0.850 -0.3210  0.1957  0.2235
 3194SOL    HW112774   4.233   2.196   0.900  0.3070 -0.2007  1.1749
 3194SOL    HW212775   4.383   2.174   0.908  0.2863 -1.6192 -1.4003
 3194SOL     MW12776   4.312   2.201   0.863 -0.1629 -0.0874  0.1374
 3195SOL     OW12777   2.732   2.371   2.285  0.7191 -0.2436 -0.2413
 3195SOL    HW112778   2.758   2.430   2.355  2.2555 -0.0201 -0.9614
 3195SOL    HW212779   2.745   2.422   2.205 -1.8387 -0.1832 -0.6919
 3195SOL     MW12780   2.737   2.385   2.284  0.5883 -0.2073 -0.3911
 3196SOL     OW12781   2.303   5.456   0.105  0.2419  0.3934  0.1853
 3196SOL    HW112782   2.306   5.372   0.151  0.4610  0.3012  0.0089
 3196SOL    HW212783   2.346   5.518   0.164  0.6592  0.2441  0.0460
 3196SOL     MW12784   2.309   5.453   0.118  0.3234  0.3625  0.1449
 3197SOL     OW12785   4.282   1.940   1.003 -0.1320 -0.0969  0.2209
 3197SOL    HW112786   4.306   1.963   1.093  0.1154  0.3198  0.0522
 3197SOL    HW212787   4.186   1.934   1.004 -0.0513 -1.6396  0.8701
 3197SOL     MW12788   4.273   1.942   1.015 -0.0900 -0.2410  0.2824
 3198SOL     OW12789   2.301   2.073   0.850 -0.0070  0.4656 -0.0108
 3198SOL    HW112790   2.370   2.090   0.786  0.4510 -0.2027  0.2922
 3198SOL    HW212791   2.288   1.978   0.847  0.3021  0.3671  1.1477
 3198SOL     MW12792   2.308   2.063   0.841  0.0912  0.3674  0.1763
 3199SOL     OW12793   5.217   4.137   4.663  0.8945 -0.2049 -0.1521
 3199SOL    HW112794   5.269   4.074   4.714 -0.1474  0.2622  1.5493
 3199SOL    HW212795   5.140   4.088   4.635  0.7322 -0.0482  0.0208
 3199SOL     MW12796   5.214   4.123   4.666  0.7404 -0.1250  0.0878
 3200SOL     OW12797   1.821   1.796   4.655  0.1273  0.2433  0.6765
 3200SOL    HW112798   1.805   1.793   4.560 -1.2468 -1.7025  0.9013
 3200SOL    HW212799   1.869   1.716   4.674  2.0184  1.4766  1.4389
 3200SOL     MW12800   1.825   1.786   4.645  0.1935  0.1521  0.8028
 3201SOL     OW12801   2.393   3.490   4.740 -0.1519  0.2493 -0.3100
 3201SOL    HW112802   2.473   3.474   4.689  0.6212  1.7668  0.3320
 3201SOL    HW212803   2.405   3.438   4.820 -0.1073 -0.0372 -0.5026
 3201SOL     MW12804   2.405   3.482   4.744 -0.0472  0.4069 -0.2525
 3202SOL     OW12805   2.764   5.074   0.251 -0.1679 -0.3610  0.3541
 3202SOL    HW112806   2.753   5.144   0.315 -0.5802 -1.5350  1.5860
 3202SOL    HW212807   2.717   4.999   0.287  1.0867 -1.5981 -0.4522
 3202SOL     MW12808   2.757   5.074   0.264 -0.0601 -0.6696  0.4086
 3203SOL     OW12809   3.377   2.827   1.418 -0.5936 -0.4900  0.6732
 3203SOL    HW112810   3.434   2.767   1.466 -0.6191 -0.1688  1.1090
 3203SOL    HW212811   3.367   2.787   1.332 -0.4303 -0.9982  0.8885
 3203SOL     MW12812   3.383   2.815   1.413 -0.5760 -0.5140  0.7566
 3204SOL     OW12813   1.723   0.047   4.553 -0.2845 -0.3006 -0.0941
 3204SOL    HW112814   1.794   0.088   4.602 -0.6753  1.2503 -0.7668
 3204SOL    HW212815   1.701  -0.031   4.603  0.9405 -0.0405  0.8858
 3204SOL     MW12816   1.729   0.042   4.566 -0.1777 -0.0688 -0.0548
 3205SOL     OW12817   4.049   1.878   0.723  0.0968  0.2390  0.0817
 3205SOL    HW112818   4.029   1.877   0.629 -0.8465 -2.3622  0.2121
 3205SOL    HW212819   4.137   1.841   0.729 -0.8969 -2.3570  0.2691
 3205SOL     MW12820   4.057   1.873   0.712 -0.1512 -0.4263  0.1224
 3206SOL     OW12821   0.596   4.080   5.343 -0.4507  0.2736  0.1536
 3206SOL    HW112822   0.612   4.077   5.437 -0.9926 -0.7012  0.2314
 3206SOL    HW212823   0.509   4.119   5.335 -0.8814 -0.6518  0.1388
 3206SOL     MW12824   0.587   4.085   5.354 -0.5752  0.0304  0.1617
 3207SOL     OW12825   1.305   4.825   2.299  0.4806  0.0623 -0.0430
 3207SOL    HW112826   1.333   4.734   2.286 -0.2429 -0.1828  0.0720
 3207SOL    HW212827   1.271   4.852   2.214 -1.3888 -0.5300  0.4670
 3207SOL     MW12828   1.304   4.817   2.286  0.1487 -0.0449  0.0370
 3208SOL     OW12829   3.130   3.608   1.929  0.3016 -0.3443 -0.4612
 3208SOL    HW112830   3.165   3.541   1.870 -0.3940 -0.7903 -0.3861
 3208SOL    HW212831   3.133   3.568   2.015  1.7961  0.4976 -0.0903
 3208SOL     MW12832   3.135   3.594   1.932  0.4039 -0.2936 -0.4041
 3209SOL     OW12833   1.672   3.808   3.188 -0.3405 -0.0242  0.4364
 3209SOL    HW112834   1.721   3.756   3.252 -1.2440 -0.2016  1.0033
 3209SOL    HW212835   1.613   3.862   3.241  1.1734  2.2751 -0.0574
 3209SOL     MW12836   1.670   3.809   3.203 -0.2624  0.2474  0.4458
 3210SOL     OW12837   2.016   2.421   4.088 -0.0120 -0.4675 -0.3605
 3210SOL    HW112838   2.022   2.364   4.165  1.3011 -0.9717 -0.8045
 3210SOL    HW212839   2.084   2.487   4.102  0.2558 -0.5773 -1.0745
 3210SOL     MW12840   2.026   2.422   4.100  0.1904 -0.5461 -0.5088
 3211SOL     OW12841   5.381   0.437   3.369  0.7731 -0.2602  0.4017
 3211SOL    HW112842   5.382   0.523   3.412  0.2500  0.0391 -0.1598
 3211SOL    HW212843   5.290   0.408   3.377  0.8800 -0.6197  0.3142
 3211SOL     MW12844   5.369   0.444   3.376  0.7198 -0.2679  0.3186
 3212SOL     OW12845   4.832   5.224   4.805 -0.0165  1.0575 -0.2478
 3212SOL    HW112846   4.827   5.185   4.893  0.5834 -0.1647 -0.7305
 3212SOL    HW212847   4.743   5.253   4.787 -0.5686 -0.3652  0.0352
 3212SOL     MW12848   4.820   5.222   4.814 -0.0104  0.7189 -0.2733
 3213SOL     OW12849   3.682   2.828   3.500 -0.2685  0.4529  0.3532
 3213SOL    HW112850   3.722   2.810   3.415 -2.9073 -1.3950 -0.6074
 3213SOL    HW212851   3.672   2.923   3.501  1.5926  0.7115 -0.4844
 3213SOL     MW12852   3.686   2.838   3.489 -0.3681  0.2495  0.1230
 3214SOL     OW12853   1.105   4.342   3.859  0.0449  0.1898 -0.5638
 3214SOL    HW112854   1.129   4.297   3.777 -0.8974  0.0674 -0.7838
 3214SOL    HW212855   1.060   4.276   3.911  0.6267  0.2727  0.0606
 3214SOL     MW12856   1.102   4.328   3.855 -0.0013  0.1848 -0.5121
 3215SOL     OW12857   4.353   4.307   2.863 -0.1197  0.1280 -0.1635
 3215SOL    HW112858   4.305   4.349   2.792 -0.9686  0.0562  0.3478
 3215SOL    HW212859   4.371   4.378   2.925 -1.8361 -0.2525  0.8554
 3215SOL     MW12860   4.349   4.322   2.862 -0.4481  0.0701  0.0324
 3216SOL     OW12861   3.497   0.141   4.883 -0.0540  0.0357 -0.4848
 3216SOL    HW112862   3.575   0.156   4.937 -0.0023 -0.1464 -0.5079
 3216SOL    HW212863   3.474   0.050   4.898 -0.7190  0.2946  0.1150
 3216SOL     MW12864   3.504   0.131   4.892 -0.1325  0.0455 -0.4110
 3217SOL     OW12865   0.759   0.130   5.166  0.3621  0.2357 -0.4024
 3217SOL    HW112866   0.825   0.200   5.165  1.4150 -0.7171  0.4308
 3217SOL    HW212867   0.730   0.126   5.257 -0.4458  0.2506 -0.6482
 3217SOL     MW12868   0.763   0.139   5.177  0.3935  0.1157 -0.3272
 3218SOL     OW12869   1.028   4.167   4.423 -0.2796 -0.4383  0.0092
 3218SOL    HW112870   1.017   4.095   4.362  1.1375 -0.1195 -0.6625
 3218SOL    HW212871   1.037   4.245   4.368  0.4870 -0.0725  0.6288
 3218SOL     MW12872   1.028   4.168   4.408 -0.0000 -0.3507  0.0025
 3219SOL     OW12873   4.810   2.221   1.078  0.4918 -0.1931 -0.6924
 3219SOL    HW112874   4.903   2.234   1.063  0.2829  0.9137 -1.1398
 3219SOL    HW212875   4.796   2.250   1.169  0.2553  1.6684 -1.2753
 3219SOL     MW12876   4.820   2.226   1.088  0.4348  0.1869 -0.8243
 3220SOL     OW12877   4.034   2.169   5.273 -0.2074  0.3521  0.2970
 3220SOL    HW112878   4.099   2.158   5.203 -1.3237 -1.5401 -0.5100
 3220SOL    HW212879   4.026   2.263   5.284 -0.9788  0.7890 -3.1022
 3220SOL     MW12880   4.042   2.179   5.266 -0.4490  0.1658 -0.2414
 3221SOL     OW12881   4.312   3.717   0.783 -0.1666 -0.2239  0.2245
 3221SOL    HW112882   4.341   3.798   0.824  2.0255  0.8523 -3.0777
 3221SOL    HW212883   4.366   3.649   0.824  0.7583  0.5346  0.2920
 3221SOL     MW12884   4.323   3.719   0.794  0.2324  0.0110 -0.1896
 3222SOL     OW12885   0.792   5.448   2.890  0.9125  0.3529  0.0568
 3222SOL    HW112886   0.770   5.404   2.808  0.4037  0.8260 -0.0682
 3222SOL    HW212887   0.864   5.507   2.867  0.6321  0.6388 -0.1030
 3222SOL     MW12888   0.798   5.450   2.877  0.8114  0.4501  0.0203
 3223SOL     OW12889   3.852   2.989   1.392  0.4226 -0.2839 -0.3741
 3223SOL    HW112890   3.891   3.076   1.391 -0.9986  0.4412  1.8282
 3223SOL    HW212891   3.850   2.964   1.484  2.0156 -3.2792 -1.0182
 3223SOL     MW12892   3.857   2.997   1.403  0.4446 -0.5745 -0.1747
 3224SOL     OW12893   3.791   0.983   1.339 -0.3795 -0.0754 -0.5141
 3224SOL    HW112894   3.799   1.011   1.431 -0.9847  0.5027 -0.6302
 3224SOL    HW212895   3.726   0.913   1.341 -0.0453 -0.3909 -0.4461
 3224SOL     MW12896   3.784   0.978   1.351 -0.4142 -0.0418 -0.5202
 3225SOL     OW12897   5.357   1.669   1.800  0.2719 -0.6336 -0.2941
 3225SOL    HW112898   5.383   1.740   1.860  1.0201 -0.8589 -0.3474
 3225SOL    HW212899   5.271   1.696   1.768  0.5697  0.2938 -0.3648
 3225SOL     MW12900   5.349   1.682   1.804  0.4058 -0.5437 -0.3100
 3226SOL     OW12901   4.997   3.163   0.040  0.1897  0.5210 -0.0004
 3226SOL    HW112902   4.958   3.250   0.029 -3.2887 -0.9839 -1.0327
 3226SOL    HW212903   5.031   3.141  -0.047 -3.4002 -0.9281 -1.2187
 3226SOL     MW12904   4.997   3.171   0.027 -0.7151  0.1429 -0.2885
 3227SOL     OW12905   0.770   1.188   0.217 -0.3497 -0.9237 -0.0655
 3227SOL    HW112906   0.675   1.181   0.215 -0.3526 -0.8792 -1.7461
 3227SOL    HW212907   0.800   1.131   0.146  0.7426  0.5215 -0.8319
 3227SOL     MW12908   0.762   1.180   0.208 -0.2102 -0.7330 -0.3788
 3228SOL     OW12909   2.297   2.983   1.316  0.1350 -0.0080  0.1034
 3228SOL    HW112910   2.279   2.962   1.224  0.5508  0.8827 -0.1915
 3228SOL    HW212911   2.263   2.908   1.365 -1.0464 -0.0292 -0.7007
 3228SOL     MW12912   2.290   2.971   1.310  0.0370  0.1033 -0.0373
 3229SOL     OW12913   5.441   4.213   4.194 -0.2252 -0.1036  0.2799
 3229SOL    HW112914   5.406   4.177   4.275 -0.0226 -0.5183  0.1841
 3229SOL    HW212915   5.375   4.276   4.165 -0.9943 -1.0220  0.0002
 3229SOL     MW12916   5.428   4.217   4.201 -0.2977 -0.2742  0.2318
 3230SOL     OW12917   2.337   2.529   5.236  0.8436 -0.1245  0.5275
 3230SOL    HW112918   2.269   2.517   5.170  1.8424 -0.4337 -0.4682
 3230SOL    HW212919   2.368   2.440   5.256 -1.1545 -0.3439  3.3410
 3230SOL     MW12920   2.333   2.516   5.230  0.7157 -0.1921  0.7602
 3231SOL     OW12921   3.213   2.591   2.657  0.1274 -0.1827 -0.1588
 3231SOL    HW112922   3.282   2.651   2.628 -0.5964  0.9781  0.4155
 3231SOL    HW212923   3.168   2.638   2.727 -2.6814  0.1283 -1.9895
 3231SOL     MW12924   3.216   2.605   2.662 -0.3248  0.0057 -0.3196
 3232SOL     OW12925   1.848   1.520   0.383 -0.1466  0.2521  0.2505
 3232SOL    HW112926   1.772   1.462   0.392 -1.2855  1.6856  0.2078
 3232SOL    HW212927   1.818   1.604   0.418  1.1737  1.0665 -0.4935
 3232SOL     MW12928   1.834   1.523   0.389 -0.1234  0.5399  0.1498
 3233SOL     OW12929   4.159   2.672   3.404 -0.0959 -0.0377 -0.4113
 3233SOL    HW112930   4.088   2.671   3.468  0.5038  0.6499  0.2823
 3233SOL    HW212931   4.168   2.581   3.376  0.2664 -0.5311  1.2045
 3233SOL     MW12932   4.151   2.660   3.408  0.0273 -0.0128 -0.1157
 3234SOL     OW12933   3.337   0.553   5.065  0.0152 -0.3211 -0.1040
 3234SOL    HW112934   3.258   0.597   5.096  0.8458 -1.0435  3.4398
 3234SOL    HW212935   3.305   0.473   5.022 -1.2191  0.6614 -1.0730
 3234SOL     MW12936   3.323   0.548   5.064 -0.0365 -0.2878  0.2256
 3235SOL     OW12937   1.094   4.805   3.797  0.2322 -0.0145  0.0744
 3235SOL    HW112938   1.122   4.774   3.884 -2.1890  0.7552  1.2003
 3235SOL    HW212939   1.053   4.728   3.757  0.9570 -0.2498 -0.2352
 3235SOL     MW12940   1.092   4.791   3.803  0.0151  0.0539  0.1789
 3236SOL     OW12941   3.656   3.451   2.936 -0.0437  0.2793  0.4026
 3236SOL    HW112942   3.709   3.417   2.865  1.8331 -0.7309  2.2004
 3236SOL    HW212943   3.616   3.374   2.976 -1.0660  0.8321  0.4950
 3236SOL     MW12944   3.658   3.437   2.932  0.0657  0.2207  0.6445
 3237SOL     OW12945   1.208   3.059   4.459  0.1993 -0.1496 -0.4928
 3237SOL    HW112946   1.129   3.010   4.482 -0.0400  0.5972  0.3612
 3237SOL    HW212947   1.181   3.115   4.386  0.1197 -0.3871 -0.6438
 3237SOL     MW12948   1.194   3.060   4.453  0.1585 -0.0844 -0.4028
 3238SOL     OW12949   4.897   2.721   4.535  0.8224 -0.4651 -0.2133
 3238SOL    HW112950   4.842   2.744   4.609  0.9157  1.8027 -0.7740
 3238SOL    HW212951   4.840   2.731   4.458  1.4648  0.0095 -0.6420
 3238SOL     MW12952   4.883   2.725   4.535  0.9166 -0.1140 -0.3400
 3239SOL     OW12953   3.173   0.717   3.199 -0.0662  0.2167  0.1755
 3239SOL    HW112954   3.106   0.687   3.137 -1.3419 -0.2151  1.7201
 3239SOL    HW212955   3.175   0.812   3.188 -0.5223  0.1768 -0.2792
 3239SOL     MW12956   3.165   0.725   3.189 -0.2879  0.1563  0.3150
 3240SOL     OW12957   4.801   4.148   1.991  0.1531 -0.4355 -0.5760
 3240SOL    HW112958   4.764   4.061   2.004  1.4671 -0.7061  2.0404
 3240SOL    HW212959   4.848   4.142   1.908  0.7000 -2.4319 -0.1808
 3240SOL     MW12960   4.803   4.136   1.982  0.3913 -0.7257 -0.1905
 3241SOL     OW12961   1.203   1.430   4.759 -0.0125  0.5750 -0.0901
 3241SOL    HW112962   1.253   1.414   4.679 -0.5715  1.9864 -0.7725
 3241SOL    HW212963   1.139   1.359   4.762  0.2331  0.3149 -0.7248
 3241SOL     MW12964   1.201   1.419   4.749 -0.0526  0.7224 -0.2587
 3242SOL     OW12965   1.973   5.297   2.998  0.0722 -0.2329 -0.2506
 3242SOL    HW112966   1.977   5.315   2.904  1.6300 -1.2685 -0.4271
 3242SOL    HW212967   1.890   5.251   3.010 -1.3535  2.0637 -0.6501
 3242SOL     MW12968   1.963   5.293   2.988  0.0891 -0.0715 -0.3243
 3243SOL     OW12969   1.031   3.031   4.906  0.2936 -0.2995 -0.3961
 3243SOL    HW112970   0.981   3.072   4.976  1.0275 -0.8054  0.4385
 3243SOL    HW212971   1.112   3.003   4.947  2.3379  2.4599 -2.1178
 3243SOL     MW12972   1.035   3.033   4.920  0.6493 -0.0110 -0.5097
 3244SOL     OW12973   5.028   4.174   4.083  0.3648 -0.0094 -0.3465
 3244SOL    HW112974   5.069   4.197   4.166  0.4744 -0.1381 -0.3636
 3244SOL    HW212975   5.049   4.081   4.071 -0.5672 -0.2731  0.0066
 3244SOL     MW12976   5.036   4.165   4.092  0.2595 -0.0596 -0.3035
 3245SOL     OW12977   1.311   0.187   3.232 -0.5855  0.3614 -0.0767
 3245SOL    HW112978   1.301   0.091   3.236  1.9577  0.0436  2.7756
 3245SOL    HW212979   1.323   0.206   3.139 -1.1950 -2.0932 -0.7407
 3245SOL     MW12980   1.312   0.177   3.221 -0.3380  0.0065  0.2034
 3246SOL     OW12981   4.011   0.699   5.211 -0.0097 -0.4204  0.0430
 3246SOL    HW112982   3.927   0.698   5.165  0.1826  1.5798 -0.4669
 3246SOL    HW212983   4.075   0.672   5.145  0.1307  1.4245 -0.6427
 3246SOL     MW12984   4.009   0.695   5.197  0.0329  0.0718 -0.1100
 3247SOL     OW12985   1.245   4.681   0.400 -0.3214  0.8693 -0.0454
 3247SOL    HW112986   1.163   4.726   0.382  0.7701  2.8733 -0.2983
 3247SOL    HW212987   1.255   4.619   0.327 -1.0028  1.4959 -0.6841
 3247SOL     MW12988   1.236   4.679   0.388 -0.2689  1.2061 -0.1595
 3248SOL     OW12989   2.276   2.656   0.291 -0.2058 -0.2462  0.6351
 3248SOL    HW112990   2.315   2.592   0.350  0.0833 -0.0656  0.6409
 3248SOL    HW212991   2.294   2.622   0.203 -1.4467 -1.0028  0.6444
 3248SOL     MW12992   2.283   2.643   0.287 -0.3277 -0.3199  0.6370
 3249SOL     OW12993   0.275   3.767   2.854 -0.3387 -0.5622 -0.1749
 3249SOL    HW112994   0.285   3.837   2.790  0.8173 -1.4173 -0.9536
 3249SOL    HW212995   0.181   3.766   2.874 -0.0445  3.4057  2.3982
 3249SOL     MW12996   0.264   3.776   2.849 -0.1530 -0.1637  0.0548
 3250SOL     OW12997   1.533   1.732   3.785  0.4351 -0.1343  0.2191
 3250SOL    HW112998   1.506   1.736   3.877  2.5836 -1.8917  1.0037
 3250SOL    HW212999   1.498   1.648   3.754  0.2295  0.1808 -0.4123
 3250SOL     MW13000   1.525   1.722   3.793  0.6838 -0.3189  0.2387
 3251SOL     OW13001   2.023   1.702   1.741  0.3636 -0.0496 -1.0904
 3251SOL    HW113002   2.097   1.685   1.799  1.8898  0.5438 -2.7676
 3251SOL    HW213003   1.949   1.655   1.781  1.3569  0.2015  1.2040
 3251SOL     MW13004   2.023   1.694   1.754  0.6861  0.0585 -1.0114
 3252SOL     OW13005   2.092   4.910   4.362  0.4242  0.1405  0.2000
 3252SOL    HW113006   2.070   4.838   4.421 -0.2895  0.1148 -0.0862
 3252SOL    HW213007   2.012   4.963   4.358  0.8669  0.8139  0.2174
 3252SOL     MW13008   2.079   4.907   4.369  0.3895  0.2234  0.1656
 3253SOL     OW13009   2.723   1.495   4.390  0.3062 -0.2495 -0.1630
 3253SOL    HW113010   2.722   1.455   4.477 -1.0159  1.8482  0.8519
 3253SOL    HW213011   2.636   1.534   4.380  1.1789  1.5027 -1.4633
 3253SOL     MW13012   2.712   1.495   4.399  0.2487  0.2434 -0.1995
 3254SOL     OW13013   1.946   3.446   3.934  0.4787 -0.3540  0.0826
 3254SOL    HW113014   1.881   3.397   3.884 -0.9624  1.3027  0.2327
 3254SOL    HW213015   1.914   3.441   4.025 -0.1870  1.5021 -0.0109
 3254SOL     MW13016   1.933   3.439   3.940  0.2090  0.0957  0.0899
 3255SOL     OW13017   0.177   4.640   5.049 -0.5601  0.1172  0.0788
 3255SOL    HW113018   0.083   4.632   5.066 -0.7655 -0.0300 -1.0312
 3255SOL    HW213019   0.202   4.721   5.093 -1.4581  0.7803 -0.5892
 3255SOL     MW13020   0.168   4.649   5.057 -0.7014  0.1832 -0.1488
 3256SOL     OW13021   1.481   0.942   3.007 -0.7757 -0.0832  0.4481
 3256SOL    HW113022   1.505   1.031   2.981 -0.5275 -0.3935 -0.3964
 3256SOL    HW213023   1.474   0.946   3.102 -0.7580  0.8388  0.4174
 3256SOL     MW13024   1.483   0.954   3.016 -0.7416 -0.0049  0.3360
 3257SOL     OW13025   5.411   4.267   2.211  0.0804 -0.5473  0.0271
 3257SOL    HW113026   5.427   4.234   2.123  0.8602  0.1509 -0.1035
 3257SOL    HW213027   5.445   4.199   2.269 -0.0754 -0.8285 -0.2082
 3257SOL     MW13028   5.417   4.254   2.207  0.1603 -0.4939 -0.0197
 3258SOL     OW13029   1.853   4.723   3.899  0.4786 -0.5013 -0.3171
 3258SOL    HW113030   1.772   4.772   3.910  1.1142  0.6201 -0.4524
 3258SOL    HW213031   1.876   4.694   3.988  0.1600 -0.4494 -0.2191
 3258SOL     MW13032   1.846   4.725   3.912  0.5192 -0.3511 -0.3219
 3259SOL     OW13033   4.276   5.341   4.236  0.5053  0.0764  0.0652
 3259SOL    HW113034   4.251   5.376   4.150 -0.1891  2.1401  1.0346
 3259SOL    HW213035   4.368   5.317   4.226 -0.0628 -1.5452 -1.7668
 3259SOL     MW13036   4.285   5.343   4.224  0.3437  0.1330 -0.0452
 3260SOL     OW13037   4.374   0.760   4.431 -0.1395  0.0244  0.0440
 3260SOL    HW113038   4.353   0.759   4.338 -0.2289  1.2383  0.0286
 3260SOL    HW213039   4.422   0.842   4.444  0.6177 -0.5355  0.9162
 3260SOL     MW13040   4.377   0.770   4.421 -0.0540  0.1081  0.1537
 3261SOL     OW13041   3.755   2.047   1.077 -0.3050 -0.3353 -0.1377
 3261SOL    HW113042   3.684   2.007   1.027 -0.6697 -0.5792  0.5475
 3261SOL    HW213043   3.826   2.060   1.014 -0.8378 -0.4047 -0.7564
 3261SOL     MW13044   3.755   2.044   1.063 -0.4199 -0.3754 -0.1292
 3262SOL     OW13045   1.466   4.162   0.472 -0.6916  0.1285 -0.3801
 3262SOL    HW113046   1.392   4.131   0.419 -0.8667  0.4194 -0.3101
 3262SOL    HW213047   1.495   4.242   0.428 -0.5888  0.1600 -0.2548
 3262SOL     MW13048   1.460   4.168   0.460 -0.7009  0.1698 -0.3551
 3263SOL     OW13049   5.356   5.339   0.971 -0.7771 -0.2297  0.2286
 3263SOL    HW113050   5.374   5.254   1.012  0.4608  0.0558  0.3073
 3263SOL    HW213051   5.272   5.327   0.927 -0.7558 -1.4104  0.4820
 3263SOL     MW13052   5.348   5.327   0.971 -0.6159 -0.3443  0.2711
 3264SOL     OW13053   2.793   2.127   2.598 -0.4483  0.3185 -0.2957
 3264SOL    HW113054   2.855   2.115   2.671 -1.1521 -0.2635  0.2210
 3264SOL    HW213055   2.734   2.052   2.604 -1.7647  1.3167 -0.2172
 3264SOL     MW13056   2.793   2.116   2.608 -0.7069  0.3718 -0.2195
 3265SOL     OW13057   4.990   3.854   1.983 -0.0885  0.4035  0.3193
 3265SOL    HW113058   4.987   3.765   1.946 -0.1582  0.7127 -0.4491
 3265SOL    HW213059   4.904   3.867   2.022  0.2443 -0.2122  1.2995
 3265SOL     MW13060   4.979   3.844   1.983 -0.0548  0.3642  0.3464
 3266SOL     OW13061   4.211   0.980   0.574  0.1371 -0.0289  0.7472
 3266SOL    HW113062   4.298   0.941   0.564 -0.6322 -1.3687 -1.3122
 3266SOL    HW213063   4.152   0.920   0.530 -1.5993  1.7934  0.4290
 3266SOL     MW13064   4.215   0.968   0.567 -0.1836  0.0329  0.4429
 3267SOL     OW13065   5.171   2.244   3.479 -0.4352  0.7555  0.5574
 3267SOL    HW113066   5.077   2.225   3.483 -0.2950 -0.5922 -1.3116
 3267SOL    HW213067   5.201   2.202   3.399  2.0436 -0.0085  1.7747
 3267SOL     MW13068   5.163   2.236   3.470 -0.0999  0.4852  0.4740
 3268SOL     OW13069   0.689   0.330   1.899 -0.0076  0.0869 -0.7929
 3268SOL    HW113070   0.688   0.267   1.971 -1.2872  0.1147 -0.7603
 3268SOL    HW213071   0.605   0.318   1.856  0.7868  0.0027 -2.3660
 3268SOL     MW13072   0.678   0.321   1.903 -0.0697  0.0797 -0.9901
 3269SOL     OW13073   5.319   4.461   4.171 -0.3364  0.4255 -0.2439
 3269SOL    HW113074   5.357   4.501   4.249  0.9607 -2.1458  0.5748
 3269SOL    HW213075   5.225   4.473   4.181 -0.1572  0.6184  1.4513
 3269SOL     MW13076   5.312   4.468   4.182 -0.1474  0.1210  0.0779
 3270SOL     OW13077   3.757   4.736   5.013  0.1589  0.0108 -0.2356
 3270SOL    HW113078   3.722   4.649   4.995 -3.3819  1.4176 -1.2212
 3270SOL    HW213079   3.801   4.762   4.932  3.0604 -1.4834  0.7365
 3270SOL     MW13080   3.758   4.728   5.000  0.0770 -0.0004 -0.2373
 3271SOL     OW13081   0.346   5.184   4.453  0.3896 -0.2062  0.0615
 3271SOL    HW113082   0.308   5.100   4.426  1.3814 -0.8459  0.5875
 3271SOL    HW213083   0.306   5.201   4.539 -0.4630  0.3131 -0.4183
 3271SOL     MW13084   0.336   5.175   4.461  0.4074 -0.2216  0.0674
 3272SOL     OW13085   3.488   5.276   0.734 -0.4452  0.0710  0.5750
 3272SOL    HW113086   3.520   5.316   0.654 -0.6320  0.0898  0.5092
 3272SOL    HW213087   3.565   5.233   0.772 -0.3458  0.1053  0.4129
 3272SOL     MW13088   3.502   5.275   0.729 -0.4564  0.0778  0.5458
 3273SOL     OW13089   3.887   3.081   5.367 -0.2079  0.2693 -0.4426
 3273SOL    HW113090   3.868   3.029   5.289 -0.1726  0.3644 -0.5152
 3273SOL    HW213091   3.977   3.111   5.354 -0.0595 -0.0519 -0.1721
 3273SOL     MW13092   3.896   3.078   5.356 -0.1844  0.2404 -0.4173
 3274SOL     OW13093   3.538   4.688   5.416 -0.1963 -0.1551  0.0005
 3274SOL    HW113094   3.593   4.616   5.383  0.1575 -0.1551  0.5600
 3274SOL    HW213095   3.573   4.766   5.373  0.1668 -0.1726  0.2556
 3274SOL     MW13096   3.550   4.688   5.406 -0.1045 -0.1574  0.1048
 3275SOL     OW13097   0.578   1.724   0.740 -0.4562  0.4374  0.3320
 3275SOL    HW113098   0.559   1.774   0.661 -0.5774 -0.0326  0.0556
 3275SOL    HW213099   0.498   1.673   0.755  0.0829 -0.5635 -0.0786
 3275SOL     MW13100   0.565   1.724   0.732 -0.4027  0.2491  0.2440
 3276SOL     OW13101   3.795   1.817   4.692  0.2286 -0.2589 -0.1728
 3276SOL    HW113102   3.713   1.844   4.650  1.6151  0.7897 -2.3746
 3276SOL    HW213103   3.847   1.897   4.699  1.2334 -0.9563  0.8852
 3276SOL     MW13104   3.791   1.831   4.688  0.5347 -0.2139 -0.3192
 3277SOL     OW13105   5.246   3.886   2.261 -0.2018  0.1962  0.1980
 3277SOL    HW113106   5.227   3.937   2.182  0.3393 -2.8131 -2.0665
 3277SOL    HW213107   5.167   3.891   2.314 -0.8414  1.7253 -0.8544
 3277SOL     MW13108   5.234   3.893   2.258 -0.2144  0.0067 -0.2266
 3278SOL     OW13109   3.904   4.792   1.357  0.1204  0.6875 -0.0518
 3278SOL    HW113110   3.890   4.868   1.301  1.9584  1.1226  0.0278
 3278SOL    HW213111   3.992   4.762   1.335  0.0506 -0.4186  1.0896
 3278SOL     MW13112   3.913   4.798   1.347  0.3468  0.6016  0.1045
 3279SOL     OW13113   2.252   1.796   0.824 -0.0944  0.1288  0.0850
 3279SOL    HW113114   2.180   1.769   0.881 -0.1342  0.2196  0.0788
 3279SOL    HW213115   2.234   1.753   0.740  0.0483 -0.1302  0.1864
 3279SOL     MW13116   2.240   1.787   0.821 -0.0812  0.1072  0.0972
 3280SOL     OW13117   2.375   5.091   3.133 -0.3840  0.1781 -0.7151
 3280SOL    HW113118   2.417   5.060   3.053 -0.9858  2.1684 -1.8537
 3280SOL    HW213119   2.347   5.180   3.113 -0.5579  0.7426  1.7217
 3280SOL     MW13120   2.377   5.098   3.120 -0.4833  0.5051 -0.5490
 3281SOL     OW13121   1.652   1.338   2.398 -0.0035  0.2248 -0.3164
 3281SOL    HW113122   1.686   1.275   2.461  1.5145 -1.6244 -2.8218
 3281SOL    HW213123   1.557   1.340   2.414  0.0748 -1.8094  0.5977
 3281SOL     MW13124   1.644   1.330   2.408  0.2008 -0.2723 -0.5201
 3282SOL     OW13125   0.918   1.048   2.416  0.1953 -0.2427 -0.2900
 3282SOL    HW113126   0.843   1.035   2.358 -0.4605 -0.3440  0.5549
 3282SOL    HW213127   0.882   1.095   2.492  0.1654 -3.2935  1.7766
 3282SOL     MW13128   0.903   1.052   2.419  0.1075 -0.6462  0.0827
 3283SOL     OW13129   0.510   1.845   0.506 -0.3603  0.1342 -0.0526
 3283SOL    HW113130   0.446   1.916   0.517  0.5585  0.9734 -0.0121
 3283SOL    HW213131   0.456   1.766   0.501 -1.3739  0.7490  0.5991
 3283SOL     MW13132   0.495   1.844   0.507 -0.3724  0.3203  0.0360
 3284SOL     OW13133   4.753   5.294   3.689 -0.3439 -0.0998  0.5033
 3284SOL    HW113134   4.713   5.209   3.706 -0.0229 -0.3523  0.0243
 3284SOL    HW213135   4.698   5.334   3.622 -0.8246  0.3215  1.1296
 3284SOL     MW13136   4.741   5.288   3.683 -0.3643 -0.0782  0.5222
 3285SOL     OW13137   0.610   5.089   2.578  0.0889  0.0971 -0.6384
 3285SOL    HW113138   0.557   5.101   2.657  0.9589  1.6817 -0.2287
 3285SOL    HW213139   0.655   5.006   2.591 -1.0149 -0.4588 -0.2423
 3285SOL     MW13140   0.609   5.080   2.590  0.0589  0.2288 -0.5353
 3286SOL     OW13141   0.893   1.970   0.187  0.2113 -0.3416 -0.3675
 3286SOL    HW113142   0.815   1.926   0.223 -0.0260 -0.6155 -1.2008
 3286SOL    HW213143   0.871   2.063   0.190  1.3897 -0.0358  3.0417
 3286SOL     MW13144   0.880   1.976   0.192  0.3318 -0.3375 -0.0377
 3287SOL     OW13145   0.748   1.689   2.422 -0.5413 -0.8169  0.1876
 3287SOL    HW113146   0.776   1.658   2.336 -0.0526 -1.1487  0.4626
 3287SOL    HW213147   0.806   1.644   2.484 -0.1224  0.2811  0.6260
 3287SOL     MW13148   0.759   1.679   2.419 -0.4251 -0.7188  0.2789
 3288SOL     OW13149   5.106   0.478   1.846  0.1926 -0.2413 -0.1957
 3288SOL    HW113150   5.038   0.463   1.780  0.3701 -0.6703 -0.2788
 3288SOL    HW213151   5.184   0.502   1.795 -0.1044  1.1078 -0.0717
 3288SOL     MW13152   5.107   0.479   1.831  0.1773 -0.1235 -0.1905
 3289SOL     OW13153   0.944   0.530   2.189  0.2621 -0.0834 -0.0931
 3289SOL    HW113154   0.981   0.594   2.128 -1.5204 -0.4351 -1.6059
 3289SOL    HW213155   0.995   0.451   2.175  0.9453  0.3067  0.1087
 3289SOL     MW13156   0.955   0.528   2.180  0.1214 -0.0785 -0.2609
 3290SOL     OW13157   3.735   4.467   5.399  0.3688  0.5292  0.0130
 3290SOL    HW113158   3.798   4.531   5.366  0.0725  0.8952  0.1347
 3290SOL    HW213159   3.762   4.384   5.361  1.3980  0.5324  0.7138
 3290SOL     MW13160   3.746   4.465   5.390  0.4626  0.5765  0.1183
 3291SOL     OW13161   0.942   1.772   4.007 -0.4599 -0.1997  0.1569
 3291SOL    HW113162   0.856   1.813   4.015 -0.3343 -0.0663  0.9256
 3291SOL    HW213163   0.952   1.721   4.087 -0.4010 -1.3414 -0.5628
 3291SOL     MW13164   0.932   1.771   4.018 -0.4363 -0.3287  0.1631
 3292SOL     OW13165   0.099   5.312   4.365 -0.4832 -0.3151 -0.3922
 3292SOL    HW113166   0.193   5.302   4.384 -0.6245 -2.4322 -0.5282
 3292SOL    HW213167   0.072   5.387   4.417  0.8245 -1.0589  1.4861
 3292SOL     MW13168   0.108   5.320   4.374 -0.3339 -0.6813 -0.1691
 3293SOL     OW13169   2.378   0.258   1.126 -0.0577  0.8691 -0.2731
 3293SOL    HW113170   2.427   0.309   1.191 -1.4224  1.5518  0.2577
 3293SOL    HW213171   2.324   0.322   1.080  2.0718  0.7053 -3.3275
 3293SOL     MW13172   2.378   0.273   1.128  0.0402  0.9355 -0.5962
 3294SOL     OW13173   1.885   4.931   0.324 -0.1820  0.1358 -0.7478
 3294SOL    HW113174   1.812   4.880   0.291 -1.0051  0.5796  0.3222
 3294SOL    HW213175   1.870   4.937   0.418 -0.2353  2.4831 -0.8344
 3294SOL     MW13176   1.874   4.926   0.332 -0.2942  0.4931 -0.6219
 3295SOL     OW13177   3.898   5.399   4.064 -0.4356 -0.6104  0.0940
 3295SOL    HW113178   3.816   5.359   4.032 -0.9585 -0.8826  1.6943
 3295SOL    HW213179   3.887   5.493   4.049 -1.0734 -0.6418  0.3444
 3295SOL     MW13180   3.886   5.406   4.058 -0.5842 -0.6493  0.3309
 3296SOL     OW13181   3.335   2.102   3.620 -0.1545 -0.3749 -0.7882
 3296SOL    HW113182   3.293   2.025   3.583  0.0986  0.2402 -2.4238
 3296SOL    HW213183   3.355   2.157   3.545  1.2131  0.5257  0.1911
 3296SOL     MW13184   3.332   2.099   3.606  0.0530 -0.1809 -0.8722
 3297SOL     OW13185   2.315   1.984   3.753  0.3629 -0.4009  0.3620
 3297SOL    HW113186   2.233   2.008   3.795  1.4769 -0.2545  2.6272
 3297SOL    HW213187   2.290   1.923   3.684 -1.6676 -0.0097  0.6901
 3297SOL     MW13188   2.302   1.979   3.749  0.2456 -0.3321  0.6940
 3298SOL     OW13189   3.252   1.398   1.695 -0.2306  0.2194  0.3306
 3298SOL    HW113190   3.330   1.388   1.749 -0.6766 -1.9223  0.6940
 3298SOL    HW213191   3.260   1.330   1.628 -1.9608 -0.3708  0.6659
 3298SOL     MW13192   3.263   1.388   1.694 -0.5091 -0.1303  0.4200
 3299SOL     OW13193   2.099   3.425   0.528 -0.5141  0.3284 -0.2588
 3299SOL    HW113194   2.076   3.510   0.567 -1.1013  0.5566 -1.0780
 3299SOL    HW213195   2.150   3.381   0.596  0.4243  1.6210 -0.0656
 3299SOL     MW13196   2.103   3.430   0.542 -0.4692  0.5231 -0.3389
 3300SOL     OW13197   3.844   4.474   1.928  0.3131 -0.1707 -0.4339
 3300SOL    HW113198   3.896   4.453   1.850 -1.0258  1.0015 -1.6992
 3300SOL    HW213199   3.890   4.547   1.968  1.0193 -0.7905 -0.0970
 3300SOL     MW13200   3.857   4.481   1.923  0.2321 -0.1000 -0.5528
 3301SOL     OW13201   0.052   0.243   3.519  0.1012 -0.3876 -0.4296
 3301SOL    HW113202   0.057   0.193   3.437 -0.1066 -1.1244 -0.0020
 3301SOL    HW213203  -0.010   0.313   3.500 -0.7145 -1.1405 -0.6146
 3301SOL     MW13204   0.044   0.245   3.506 -0.0298 -0.5783 -0.3986
 3302SOL     OW13205   1.791   1.119   4.553 -0.2089 -0.0383  0.3248
 3302SOL    HW113206   1.795   1.215   4.552  1.2582 -0.0878  0.0180
 3302SOL    HW213207   1.818   1.095   4.642  1.0386 -0.2032 -0.0804
 3302SOL     MW13208   1.795   1.128   4.564  0.1386 -0.0657  0.2337
 3303SOL     OW13209   0.906   3.445   4.509  0.2591  0.3772 -0.6655
 3303SOL    HW113210   0.859   3.397   4.442  0.1762  0.1103 -0.4169
 3303SOL    HW213211   0.937   3.378   4.570 -0.4930  0.6963  0.0802
 3303SOL     MW13212   0.904   3.431   4.509  0.1522  0.3839 -0.5382
 3304SOL     OW13213   5.070   0.874   2.530 -0.2565 -0.2993 -0.0737
 3304SOL    HW113214   5.125   0.799   2.506 -0.3827 -0.8121  1.1699
 3304SOL    HW213215   5.009   0.839   2.595  0.9140  1.2760  1.9834
 3304SOL     MW13216   5.069   0.860   2.535 -0.1228 -0.1633  0.3488
 3305SOL     OW13217   0.281   3.370   0.333 -0.0009 -0.1823  0.1962
 3305SOL    HW113218   0.337   3.294   0.349  0.8079 -0.1446 -2.1184
 3305SOL    HW213219   0.200   3.332   0.298  1.4257 -0.0586 -3.7994
 3305SOL     MW13220   0.278   3.355   0.330  0.2853 -0.1616 -0.6115
 3306SOL     OW13221   5.276   4.338   1.781  0.5757 -0.1417  0.2761
 3306SOL    HW113222   5.313   4.414   1.736 -0.2515  0.6105  0.8182
 3306SOL    HW213223   5.289   4.356   1.874 -0.9052  0.0464  0.4719
 3306SOL     MW13224   5.282   4.350   1.787  0.2803 -0.0213  0.3706
 3307SOL     OW13225   4.624   2.933   2.403 -0.5945  0.0381  0.6361
 3307SOL    HW113226   4.593   3.021   2.383 -0.9808 -0.3004 -0.3133
 3307SOL    HW213227   4.545   2.881   2.416 -0.5171 -0.8174 -1.7662
 3307SOL     MW13228   4.610   2.937   2.402 -0.6341 -0.1148  0.2071
 3308SOL     OW13229   5.102   2.893   3.959 -0.4718 -0.0452  0.1192
 3308SOL    HW113230   5.036   2.845   4.008 -1.3667  0.6063 -0.4103
 3308SOL    HW213231   5.103   2.980   3.998  1.2449 -0.4997  1.1694
 3308SOL     MW13232   5.094   2.898   3.970 -0.3666 -0.0200  0.1859
 3309SOL     OW13233   4.251   2.176   3.415 -0.0749 -0.3517  0.3494
 3309SOL    HW113234   4.176   2.171   3.475 -0.2035  0.8061  0.2991
 3309SOL    HW213235   4.319   2.125   3.458 -0.3308  0.0406  1.2455
 3309SOL     MW13236   4.250   2.169   3.428 -0.1241 -0.1533  0.4577
 3310SOL     OW13237   0.719   1.922   4.055 -0.3188 -0.3638  0.3538
 3310SOL    HW113238   0.685   1.933   3.966 -0.5756  1.9049  0.6823
 3310SOL    HW213239   0.643   1.898   4.107 -1.0631  2.2650  0.6287
 3310SOL     MW13240   0.705   1.920   4.050 -0.4469  0.2632  0.4311
 3311SOL     OW13241   0.066   2.794   5.308 -0.4151 -0.0002 -0.2205
 3311SOL    HW113242   0.123   2.730   5.266  0.7086  1.4294 -0.9612
 3311SOL    HW213243   0.087   2.877   5.265 -2.2580  0.7820  0.2734
 3311SOL     MW13244   0.076   2.796   5.297 -0.5072  0.2830 -0.2521
 3312SOL     OW13245   0.636   3.027   0.469  0.2215  0.0663  0.2835
 3312SOL    HW113246   0.692   3.105   0.464 -0.2425  0.4312  0.7277
 3312SOL    HW213247   0.684   2.960   0.419  0.4286  0.7503 -0.4529
 3312SOL     MW13248   0.650   3.028   0.462  0.1886  0.2006  0.2461
 3313SOL     OW13249   0.064   4.949   3.548 -0.1766  0.5630  0.2152
 3313SOL    HW113250  -0.013   5.001   3.527 -0.9435  0.1404  1.8338
 3313SOL    HW213251   0.031   4.875   3.598  1.0162 -0.9512 -1.1099
 3313SOL     MW13252   0.050   4.946   3.551 -0.1221  0.3151  0.2528
 3314SOL     OW13253   2.048   0.562   0.307 -0.0023  0.1336 -0.0449
 3314SOL    HW113254   2.104   0.626   0.351 -1.0990  1.5909 -0.6853
 3314SOL    HW213255   2.018   0.504   0.376  0.7046  0.5543  0.6234
 3314SOL     MW13256   2.052   0.563   0.321 -0.0522  0.3740 -0.0414
 3315SOL     OW13257   0.522   3.829   1.342 -0.3940 -0.1709 -0.1028
 3315SOL    HW113258   0.462   3.873   1.402 -1.1607 -0.7848 -0.4084
 3315SOL    HW213259   0.467   3.771   1.290  0.7531 -2.8748  1.4635
 3315SOL     MW13260   0.508   3.827   1.343 -0.3453 -0.5957  0.0586
 3316SOL     OW13261   5.391   0.591   5.460  0.3300 -0.0927  0.0889
 3316SOL    HW113262   5.395   0.685   5.478  0.5097 -0.0570 -0.1404
 3316SOL    HW213263   5.298   0.573   5.448  0.3353  0.1309 -0.2747
 3316SOL     MW13264   5.379   0.601   5.461  0.3537 -0.0595  0.0130
 3317SOL     OW13265   0.355   0.698   0.725 -0.1043 -0.2155  0.2416
 3317SOL    HW113266   0.260   0.696   0.742 -0.5117 -0.8708 -1.8286
 3317SOL    HW213267   0.392   0.735   0.805 -2.2540  1.6356  0.5076
 3317SOL     MW13268   0.347   0.702   0.737 -0.4316 -0.0624  0.0106
 3318SOL     OW13269   3.769   3.748   2.914 -0.4803 -0.2329 -0.6434
 3318SOL    HW113270   3.736   3.658   2.918  1.0875 -0.7923  1.1776
 3318SOL    HW213271   3.860   3.738   2.886 -0.6446  0.9213 -1.6634
 3318SOL     MW13272   3.776   3.735   2.911 -0.3007 -0.1567 -0.5409
 3319SOL     OW13273   0.139   4.951   0.948  0.3727  0.0680 -0.6945
 3319SOL    HW113274   0.067   4.953   0.885 -1.8141 -0.8720  1.5865
 3319SOL    HW213275   0.176   4.863   0.939 -0.7901 -0.5402  0.1255
 3319SOL     MW13276   0.134   4.940   0.939 -0.0561 -0.1302 -0.2976
 3320SOL     OW13277   0.317   3.935   2.649 -0.1181 -0.6055  0.3024
 3320SOL    HW113278   0.340   4.017   2.693 -0.6472 -1.2078  1.7481
 3320SOL    HW213279   0.399   3.903   2.613  0.1522  0.3883  0.0005
 3320SOL     MW13280   0.330   3.942   2.650 -0.1512 -0.5554  0.4488
 3321SOL     OW13281   4.373   2.569   1.129  0.4086 -0.0307  0.4391
 3321SOL    HW113282   4.427   2.501   1.089  0.8172  0.5748 -0.0499
 3321SOL    HW213283   4.285   2.551   1.099  0.8994  1.3042 -2.0380
 3321SOL     MW13284   4.369   2.558   1.120  0.5237  0.2177  0.0594
 3322SOL     OW13285   2.798   0.812   4.325 -0.2692  0.4034 -0.3691
 3322SOL    HW113286   2.886   0.813   4.288 -0.3490  1.7171 -0.5715
 3322SOL    HW213287   2.767   0.902   4.315 -2.0144 -0.2364 -1.2102
 3322SOL     MW13288   2.805   0.824   4.319 -0.5028  0.4897 -0.5027
 3323SOL     OW13289   0.384   3.017   1.430 -0.0492  0.7306 -0.4664
 3323SOL    HW113290   0.405   3.040   1.340  0.7112  2.2693  0.0706
 3323SOL    HW213291   0.420   3.088   1.483 -0.8331  0.0815  1.0324
 3323SOL     MW13292   0.391   3.029   1.425 -0.0522  0.8445 -0.2058
 3324SOL     OW13293   2.197   4.133   4.946  0.3536 -0.2626  0.2146
 3324SOL    HW113294   2.278   4.150   4.994  0.1726  0.2104  0.3486
 3324SOL    HW213295   2.137   4.201   4.974  0.1749 -0.1117 -0.5187
 3324SOL     MW13296   2.200   4.144   4.956  0.3075 -0.1827  0.1379
 3325SOL     OW13297   3.064   2.851   4.588  0.0961  0.3971 -0.0741
 3325SOL    HW113298   3.040   2.939   4.560  0.4357  0.8245  0.9245
 3325SOL    HW213299   3.052   2.851   4.683  0.0363 -0.6551 -0.0640
 3325SOL     MW13300   3.060   2.862   4.597  0.1319  0.3171  0.0550
 3326SOL     OW13301   1.836   0.170   1.105  0.2505  0.1615 -0.7049
 3326SOL    HW113302   1.877   0.089   1.073  0.1570 -0.2725  0.2551
 3326SOL    HW213303   1.750   0.142   1.137  0.1855  0.6545 -0.4461
 3326SOL     MW13304   1.830   0.156   1.105  0.2302  0.1690 -0.5489
 3327SOL     OW13305   3.391   1.193   1.532 -0.1909  0.1686  0.9963
 3327SOL    HW113306   3.474   1.191   1.579  0.2580  1.8845  0.3728
 3327SOL    HW213307   3.415   1.195   1.440 -1.0329 -2.0333  0.6834
 3327SOL     MW13308   3.405   1.193   1.526 -0.2412  0.1064  0.8764
 3328SOL     OW13309   3.095   0.494   5.390 -0.2206  0.1372 -0.0698
 3328SOL    HW113310   3.007   0.455   5.386 -0.7307  1.2233  0.1584
 3328SOL    HW213311   3.084   0.572   5.444  1.1413 -0.3309  0.9481
 3328SOL     MW13312   3.082   0.499   5.397 -0.1116  0.2163  0.0897
 3329SOL     OW13313   4.165   2.512   3.025 -0.3274 -0.4740  0.2872
 3329SOL    HW113314   4.232   2.474   2.968 -1.9603 -3.3195  0.0131
 3329SOL    HW213315   4.181   2.473   3.111  1.0248  2.3910  1.4612
 3329SOL     MW13316   4.175   2.502   3.029 -0.3633 -0.4715  0.4024
 3330SOL     OW13317   5.439   5.279   4.126 -0.2678  0.3598  0.1965
 3330SOL    HW113318   5.449   5.327   4.209 -0.7894 -1.0168  1.0945
 3330SOL    HW213319   5.499   5.322   4.066  1.5039  0.2590  1.7979
 3330SOL     MW13320   5.448   5.291   4.129 -0.1078  0.1707  0.5164
 3331SOL     OW13321   3.956   2.007   3.992 -0.0705 -0.0525  0.5350
 3331SOL    HW113322   3.986   2.070   4.058 -0.0544  1.3163 -0.7254
 3331SOL    HW213323   3.875   2.046   3.958 -0.0532 -0.7220 -0.2896
 3331SOL     MW13324   3.949   2.020   3.996 -0.0662  0.0370  0.2681
 3332SOL     OW13325   0.294   0.224   2.595 -0.5049  0.1710  0.0603
 3332SOL    HW113326   0.365   0.276   2.632 -0.0845 -0.3643  0.0183
 3332SOL    HW213327   0.257   0.178   2.670  0.7546 -1.4056 -0.2243
 3332SOL     MW13328   0.299   0.225   2.609 -0.2899 -0.0994  0.0185
 3333SOL     OW13329   3.182   2.885   2.295  0.0188  0.0345  0.6683
 3333SOL    HW113330   3.098   2.896   2.340 -0.4902  3.0656 -0.8027
 3333SOL    HW213331   3.159   2.846   2.211  0.5010 -1.7869  1.3247
 3333SOL     MW13332   3.168   2.881   2.290  0.0154  0.1893  0.5640
 3334SOL     OW13333   3.700   0.141   2.678  0.2292  0.2365  0.3803
 3334SOL    HW113334   3.709   0.188   2.761 -0.6788 -2.1898  1.9590
 3334SOL    HW213335   3.651   0.062   2.701  0.1201 -0.6103 -2.4596
 3334SOL     MW13336   3.695   0.137   2.692  0.0990 -0.1825  0.2189
 3335SOL     OW13337   0.300   4.893   2.080 -0.3348 -0.0550 -0.5978
 3335SOL    HW113338   0.363   4.962   2.102 -2.0491  0.5246  3.4032
 3335SOL    HW213339   0.219   4.939   2.060 -0.3733 -0.8761 -2.5666
 3335SOL     MW13340   0.298   4.908   2.080 -0.5591 -0.0859 -0.3377
 3336SOL     OW13341   0.971   0.205   0.664 -0.1462  0.0172 -0.5194
 3336SOL    HW113342   1.034   0.227   0.732 -1.4880  1.3578  0.3551
 3336SOL    HW213343   0.887   0.235   0.698 -1.1692 -1.0811 -1.9423
 3336SOL     MW13344   0.969   0.212   0.677 -0.4489  0.0482 -0.5896
 3337SOL     OW13345   1.113   3.423   3.136  0.3241 -0.3831 -0.6001
 3337SOL    HW113346   1.090   3.387   3.050  1.9435 -0.5409 -1.0144
 3337SOL    HW213347   1.068   3.368   3.199  0.4591 -1.3366 -1.3179
 3337SOL     MW13348   1.105   3.412   3.133  0.5487 -0.5254 -0.7450
 3338SOL     OW13349   1.757   0.792   4.344 -0.4515  0.1372 -0.7874
 3338SOL    HW113350   1.763   0.880   4.305  0.9306  0.2853 -0.2874
 3338SOL    HW213351   1.825   0.791   4.411 -1.2122 -0.9419 -0.0012
 3338SOL     MW13352   1.766   0.803   4.347 -0.3719  0.0180 -0.6228
 3339SOL     OW13353   5.136   0.960   5.237  0.1271 -0.4247 -0.4937
 3339SOL    HW113354   5.129   0.934   5.329 -0.6160 -0.4007 -0.5412
 3339SOL    HW213355   5.167   0.881   5.192 -0.0579 -0.6026 -0.3109
 3339SOL     MW13356   5.139   0.946   5.243  0.0083 -0.4444 -0.4764
 3340SOL     OW13357   0.198   2.210   5.071  0.1960  0.3870 -0.6559
 3340SOL    HW113358   0.141   2.221   4.995 -1.9217 -0.6245  0.6807
 3340SOL    HW213359   0.181   2.121   5.101  0.3613  0.9996  1.4502
 3340SOL     MW13360   0.189   2.200   5.065 -0.0539  0.3360 -0.2152
 3341SOL     OW13361   4.188   2.839   4.505 -0.0943 -0.6755  0.1192
 3341SOL    HW113362   4.109   2.796   4.474  0.2482  0.5235 -2.8259
 3341SOL    HW213363   4.158   2.924   4.539 -0.1392 -0.3181 -0.7802
 3341SOL     MW13364   4.174   2.845   4.505 -0.0562 -0.4762 -0.3730
 3342SOL     OW13365   3.481   4.433   1.558 -0.0937  0.5746 -0.1957
 3342SOL    HW113366   3.533   4.475   1.627 -0.3840 -0.5795  0.7543
 3342SOL    HW213367   3.534   4.359   1.529 -0.3447  0.5561 -0.6087
 3342SOL     MW13368   3.494   4.429   1.563 -0.1630  0.4245 -0.1270
 3343SOL     OW13369   3.365   0.208   1.326 -0.0035  0.1635  0.2639
 3343SOL    HW113370   3.444   0.189   1.377 -0.0643 -1.5903 -0.2102
 3343SOL    HW213371   3.397   0.225   1.237 -0.0424  1.1545  0.4367
 3343SOL     MW13372   3.379   0.208   1.321 -0.0163  0.0659  0.2253
 3344SOL     OW13373   4.138   5.395   3.042 -0.2551  0.6793  0.1753
 3344SOL    HW113374   4.083   5.330   3.086 -0.7129  0.8598 -0.1184
 3344SOL    HW213375   4.153   5.463   3.108  2.1724 -0.8025  1.2570
 3344SOL     MW13376   4.133   5.395   3.056 -0.0030  0.5127  0.2762
 3345SOL     OW13377   2.895   1.279   2.778 -0.5420 -0.6483 -1.0226
 3345SOL    HW113378   2.876   1.265   2.685 -0.6885 -0.9995 -0.9404
 3345SOL    HW213379   2.950   1.205   2.803 -2.6933 -2.0673 -0.1713
 3345SOL     MW13380   2.900   1.268   2.770 -0.8361 -0.8749 -0.9031
 3346SOL     OW13381   4.035   2.859   1.234  0.2933 -0.2305 -0.1489
 3346SOL    HW113382   3.980   2.906   1.297 -0.7119 -2.6993  0.9408
 3346SOL    HW213383   4.117   2.842   1.280 -0.4924 -2.1575  0.6533
 3346SOL     MW13384   4.038   2.863   1.248  0.0640 -0.7932  0.0933
 3347SOL     OW13385   2.008   2.513   1.010 -0.0748 -0.2940 -0.2850
 3347SOL    HW113386   1.966   2.569   0.944 -0.3790 -1.9516 -1.5686
 3347SOL    HW213387   2.078   2.469   0.962 -0.2105 -1.4242  0.5311
 3347SOL     MW13388   2.011   2.515   0.995 -0.1311 -0.6509 -0.3448
 3348SOL     OW13389   0.866   3.728   0.192  0.7261  0.7289 -0.6285
 3348SOL    HW113390   0.848   3.714   0.099 -1.6170 -0.7042 -0.0229
 3348SOL    HW213391   0.868   3.640   0.230  1.3547  1.3015  0.7471
 3348SOL     MW13392   0.864   3.715   0.185  0.5066  0.6188 -0.3749
 3349SOL     OW13393   1.268   1.486   0.244 -0.6019  0.3396  0.4344
 3349SOL    HW113394   1.230   1.476   0.331  0.0419  2.5265  1.0088
 3349SOL    HW213395   1.199   1.527   0.192 -1.2991 -1.7470 -0.3879
 3349SOL     MW13396   1.255   1.490   0.248 -0.6087  0.3524  0.4027
 3350SOL     OW13397   4.294   2.134   2.906  0.7716  0.0319 -0.1693
 3350SOL    HW113398   4.199   2.133   2.918  0.8013 -0.7595  0.0488
 3350SOL    HW213399   4.329   2.109   2.991  1.1675 -0.0490 -0.3537
 3350SOL     MW13400   4.286   2.131   2.918  0.8261 -0.0798 -0.1650
 3351SOL     OW13401   3.882   5.353   4.943  0.0763  0.1562  0.1666
 3351SOL    HW113402   3.931   5.426   4.904  1.4833 -1.2083 -0.7521
 3351SOL    HW213403   3.911   5.351   5.035 -0.6157  1.2506  0.4219
 3351SOL     MW13404   3.892   5.362   4.950  0.1679  0.1216  0.0817
 3352SOL     OW13405   2.494   2.678   1.274  0.0297  0.0608  0.1770
 3352SOL    HW113406   2.502   2.683   1.369  0.9085  2.0787  0.0381
 3352SOL    HW213407   2.523   2.764   1.242 -1.1044 -0.2447 -1.8653
 3352SOL     MW13408   2.499   2.690   1.282 -0.0029  0.2800 -0.1022
 3353SOL     OW13409   0.042   1.921   0.130  0.1748 -0.4737 -0.1687
 3353SOL    HW113410   0.004   1.881   0.052  0.2612 -0.3836 -0.2580
 3353SOL    HW213411  -0.031   1.965   0.173  0.4615  1.0445 -1.1744
 3353SOL     MW13412   0.028   1.921   0.125  0.2226 -0.2678 -0.3088
 3354SOL     OW13413   2.710   5.448   3.109  0.4433 -0.3661  0.4080
 3354SOL    HW113414   2.769   5.518   3.137  0.3517 -0.4169  0.7301
 3354SOL    HW213415   2.739   5.427   3.020  1.7755 -1.2847  1.0182
 3354SOL     MW13416   2.721   5.454   3.101  0.6021 -0.4902  0.5273
 3355SOL     OW13417   0.598   4.148   3.819 -0.1533  0.5652  0.0142
 3355SOL    HW113418   0.534   4.163   3.888 -1.6052 -0.5133 -1.0175
 3355SOL    HW213419   0.654   4.078   3.851 -0.8402  0.0498  0.0830
 3355SOL     MW13420   0.597   4.141   3.832 -0.4271  0.3611 -0.1091
 3356SOL     OW13421   3.723   1.897   1.457  0.1782  0.1414  1.2749
 3356SOL    HW113422   3.792   1.882   1.393 -1.6911 -0.9845 -0.6017
 3356SOL    HW213423   3.747   1.980   1.499  1.7172  0.6972 -0.5531
 3356SOL     MW13424   3.735   1.906   1.455  0.1359  0.0684  0.8007
 3357SOL     OW13425   4.103   3.741   3.671 -0.1633  0.3779 -0.4060
 3357SOL    HW113426   4.046   3.784   3.607  0.7004  0.5073 -1.0965
 3357SOL    HW213427   4.095   3.795   3.750  1.5359  2.3675 -1.4938
 3357SOL     MW13428   4.095   3.754   3.673  0.1648  0.6492 -0.6337
 3358SOL     OW13429   2.180   2.568   2.840 -0.1016 -0.5750 -0.6944
 3358SOL    HW113430   2.160   2.660   2.858 -0.6668 -0.6303 -1.0475
 3358SOL    HW213431   2.272   2.569   2.811  0.0528 -0.1872 -0.2150
 3358SOL     MW13432   2.189   2.580   2.839 -0.1542 -0.5324 -0.6783
 3359SOL     OW13433   4.383   1.348   1.436 -0.1616 -0.2125  0.2231
 3359SOL    HW113434   4.407   1.383   1.521 -1.1224  1.9539 -0.3443
 3359SOL    HW213435   4.448   1.279   1.419  0.9535  0.3431  2.0119
 3359SOL     MW13436   4.394   1.343   1.445 -0.1419  0.1359  0.3794
 3360SOL     OW13437   1.495   2.848   1.024 -0.2944  0.1563 -0.0913
 3360SOL    HW113438   1.585   2.844   0.992  0.3473 -1.0045  1.7019
 3360SOL    HW213439   1.466   2.937   1.004  1.2313  0.5374 -0.7410
 3360SOL     MW13440   1.503   2.859   1.018 -0.0169  0.0565  0.0551
 3361SOL     OW13441   4.199   5.455   2.182 -0.2316  0.0317 -0.1556
 3361SOL    HW113442   4.264   5.506   2.230  0.6137  1.0198 -2.2444
 3361SOL    HW213443   4.204   5.367   2.221  1.3781  0.4422  0.6247
 3361SOL     MW13444   4.208   5.450   2.193  0.0827  0.2107 -0.3231
 3362SOL     OW13445   4.557   0.867   0.323  0.4819 -0.3651 -0.5810
 3362SOL    HW113446   4.508   0.835   0.248  0.0860  0.6870 -0.7932
 3362SOL    HW213447   4.500   0.850   0.398 -0.6157  1.5565 -0.9114
 3362SOL     MW13448   4.544   0.861   0.323  0.2907  0.0155 -0.6505
 3363SOL     OW13449   0.309   2.872   2.252 -0.1363 -0.2568 -0.5789
 3363SOL    HW113450   0.277   2.821   2.177  0.9979 -0.3306 -1.0339
 3363SOL    HW213451   0.289   2.963   2.229 -0.9729 -0.3790 -0.3658
 3363SOL     MW13452   0.302   2.877   2.239 -0.0982 -0.2819 -0.6099
 3364SOL     OW13453   0.202   4.346   5.201 -0.3621  0.3070  0.0831
 3364SOL    HW113454   0.193   4.259   5.240 -0.3514 -0.2013 -1.0140
 3364SOL    HW213455   0.250   4.396   5.266  0.7600 -0.8802  0.2104
 3364SOL     MW13456   0.207   4.341   5.214 -0.2171  0.0900 -0.0410
 3365SOL     OW13457   4.325   3.035   3.020 -0.0955 -0.3420 -0.0576
 3365SOL    HW113458   4.363   3.057   3.106 -2.2554 -1.7422  1.3504
 3365SOL    HW213459   4.269   3.110   2.999 -0.7115 -0.6375  0.4995
 3365SOL     MW13460   4.323   3.047   3.029 -0.4509 -0.5591  0.1940
 3366SOL     OW13461   4.107   5.004   3.299 -0.0130 -0.5732  0.0472
 3366SOL    HW113462   4.017   4.969   3.300 -0.0654 -0.4369  0.0855
 3366SOL    HW213463   4.153   4.951   3.364  0.3927 -1.8379 -1.2182
 3366SOL     MW13464   4.101   4.992   3.308  0.0322 -0.7177 -0.1099
 3367SOL     OW13465   0.339   3.026   1.956  0.0310  0.4245  0.5303
 3367SOL    HW113466   0.409   3.051   2.016  1.2714  2.3213 -1.5750
 3367SOL    HW213467   0.356   2.933   1.937  2.6268  1.0271 -0.6073
 3367SOL     MW13468   0.350   3.017   1.961  0.5221  0.7445  0.1152
 3368SOL     OW13469   3.342   5.463   2.979 -0.4175  0.1273 -0.2478
 3368SOL    HW113470   3.353   5.379   3.022 -1.5915 -0.4469 -1.0380
 3368SOL    HW213471   3.399   5.458   2.902 -1.3768 -0.4168 -0.9363
 3368SOL     MW13472   3.351   5.452   2.975 -0.6906 -0.0158 -0.4371
 3369SOL     OW13473   1.032   4.916   0.996 -0.0985 -0.4079 -0.1937
 3369SOL    HW113474   1.046   4.837   0.944  0.6193 -0.7221  0.4434
 3369SOL    HW213475   1.118   4.934   1.036 -0.8419 -0.8052  1.7103
 3369SOL     MW13476   1.045   4.908   0.995 -0.1018 -0.4990  0.1316
 3370SOL     OW13477   3.926   3.270   1.376 -0.5424  0.0249 -0.3859
 3370SOL    HW113478   4.016   3.302   1.386 -0.6425 -0.1518  1.4042
 3370SOL    HW213479   3.910   3.274   1.282  2.1637 -2.2132 -1.0761
 3370SOL     MW13480   3.936   3.275   1.366 -0.2088 -0.2842 -0.2451
 3371SOL     OW13481   4.460   0.056   2.717 -0.1051 -0.1717  0.6602
 3371SOL    HW113482   4.532   0.111   2.684  0.0774 -0.8480 -0.1120
 3371SOL    HW213483   4.389   0.118   2.734  0.3058  0.3854  0.4109
 3371SOL     MW13484   4.460   0.071   2.715 -0.0291 -0.1870  0.5294
 3372SOL     OW13485   3.752   4.973   1.084  0.1075  0.0558 -0.2745
 3372SOL    HW113486   3.846   4.956   1.079 -0.3324 -2.9052 -0.3082
 3372SOL    HW213487   3.732   4.968   1.178 -0.0247  0.5776 -0.2752
 3372SOL     MW13488   3.761   4.970   1.095  0.0342 -0.2564 -0.2789
 3373SOL     OW13489   1.602   0.887   3.851 -0.6296  0.3339  0.1522
 3373SOL    HW113490   1.687   0.927   3.866 -1.0315  1.3819 -0.3079
 3373SOL    HW213491   1.621   0.809   3.798  0.0760  0.3471  0.3867
 3373SOL     MW13492   1.615   0.882   3.846 -0.5907  0.4697  0.1233
 3374SOL     OW13493   3.686   1.010   5.283  0.2931  0.2204  0.0265
 3374SOL    HW113494   3.593   0.992   5.273  0.7103 -1.0279 -1.9421
 3374SOL    HW213495   3.697   1.099   5.249 -0.1100  0.2156 -0.1212
 3374SOL     MW13496   3.676   1.019   5.278  0.2949  0.0600 -0.2444
 3375SOL     OW13497   1.619   3.596   1.887 -0.1615 -0.2639 -0.6641
 3375SOL    HW113498   1.708   3.633   1.887 -0.2762  0.0456  0.2321
 3375SOL    HW213499   1.614   3.545   1.806  0.3645  0.8168 -1.4044
 3375SOL     MW13500   1.630   3.595   1.877 -0.1089 -0.0859 -0.6441
 3376SOL     OW13501   3.195   3.468   4.014  0.5119  0.3121 -0.3223
 3376SOL    HW113502   3.248   3.543   4.039 -0.2612  0.2086  1.8190
 3376SOL    HW213503   3.116   3.475   4.067  1.4528 -3.2926  1.9262
 3376SOL     MW13504   3.192   3.478   4.024  0.5334 -0.1626  0.2396
 3377SOL     OW13505   2.426   0.105   2.662  0.4676 -0.4480 -0.4721
 3377SOL    HW113506   2.504   0.051   2.649  0.3735 -0.3317 -1.6667
 3377SOL    HW213507   2.353   0.049   2.635 -0.0377 -0.9997  1.8057
 3377SOL     MW13508   2.427   0.091   2.657  0.3909 -0.5038 -0.3334
 3378SOL     OW13509   1.439   4.989   1.318 -0.0410 -0.2150  0.1872
 3378SOL    HW113510   1.466   5.063   1.372  2.5421 -0.6234 -0.3999
 3378SOL    HW213511   1.403   4.926   1.380 -1.6022  1.1640  0.7783
 3378SOL     MW13512   1.438   4.990   1.333  0.0898 -0.0908  0.1877
 3379SOL     OW13513   5.290   3.878   4.347  0.7524 -0.0191 -0.2077
 3379SOL    HW113514   5.251   3.845   4.428 -1.1585 -0.3714 -1.2298
 3379SOL    HW213515   5.329   3.801   4.306 -0.1446 -0.2601 -0.6286
 3379SOL     MW13516   5.290   3.864   4.352  0.3930 -0.0950 -0.3924
 3380SOL     OW13517   2.421   3.128   5.182  0.6236  0.0689 -0.0301
 3380SOL    HW113518   2.425   3.187   5.106  0.1514 -1.3526 -1.1868
 3380SOL    HW213519   2.330   3.134   5.212  0.2540 -0.9722 -0.9030
 3380SOL     MW13520   2.410   3.137   5.176  0.5158 -0.2463 -0.2899
 3381SOL     OW13521   4.648   3.520   0.691 -0.1160  0.1503  0.7714
 3381SOL    HW113522   4.734   3.557   0.710  0.4030 -0.7800  0.3016
 3381SOL    HW213523   4.662   3.426   0.692 -1.3476 -0.0404  1.6314
 3381SOL     MW13524   4.661   3.513   0.693 -0.2072  0.0068  0.8214
 3382SOL     OW13525   2.635   5.072  -0.004  0.3386  0.1129 -0.7811
 3382SOL    HW113526   2.658   5.072   0.089  0.6705 -0.3982 -0.8581
 3382SOL    HW213527   2.596   4.986  -0.020  0.4021  0.1471 -1.1405
 3382SOL     MW13528   2.633   5.061   0.006  0.3892  0.0518 -0.8369
 3383SOL     OW13529   2.206   2.713   4.150  0.2660  0.4655  0.2675
 3383SOL    HW113530   2.285   2.765   4.163  1.3225 -0.9696 -0.1109
 3383SOL    HW213531   2.207   2.648   4.220 -0.9538  0.8459  0.6642
 3383SOL     MW13532   2.216   2.711   4.160  0.2451  0.3305  0.2699
 3384SOL     OW13533   1.545   4.472   3.694 -0.2635 -0.4279 -0.2808
 3384SOL    HW113534   1.618   4.436   3.743  0.1048  0.0798 -0.4531
 3384SOL    HW213535   1.543   4.565   3.717 -0.4364 -0.2997 -0.7896
 3384SOL     MW13536   1.554   4.480   3.703 -0.2385 -0.3465 -0.3680
 3385SOL     OW13537   4.646   5.199   5.428  0.3598  0.1890 -0.2322
 3385SOL    HW113538   4.729   5.234   5.395  0.2812 -0.5471 -1.2900
 3385SOL    HW213539   4.585   5.208   5.354 -0.1487 -0.4504  0.0893
 3385SOL     MW13540   4.649   5.204   5.414  0.2847  0.0129 -0.3264
 3386SOL     OW13541   3.216   3.773   0.227  0.5067  0.0195 -0.4532
 3386SOL    HW113542   3.233   3.681   0.205  0.8469  0.1960 -0.9524
 3386SOL    HW213543   3.124   3.787   0.203  1.0654  0.4166 -2.5979
 3386SOL     MW13544   3.207   3.763   0.221  0.6217  0.0929 -0.7917
 3387SOL     OW13545   4.436   1.447   4.699 -0.0055  0.0023 -0.3231
 3387SOL    HW113546   4.360   1.503   4.678  1.0960  1.7831  0.2462
 3387SOL    HW213547   4.508   1.485   4.649  1.0491 -0.1670  1.0197
 3387SOL     MW13548   4.435   1.459   4.690  0.2705  0.2086 -0.0783
 3388SOL     OW13549   2.255   0.140   4.459  0.3473 -0.1236 -0.6132
 3388SOL    HW113550   2.171   0.111   4.422  0.5415  0.9295 -1.9525
 3388SOL    HW213551   2.317   0.130   4.387  1.2139 -0.1097  0.1189
 3388SOL     MW13552   2.252   0.135   4.445  0.4831  0.0130 -0.6909
 3389SOL     OW13553   3.254   3.942   2.078  0.1691  0.2513  0.3139
 3389SOL    HW113554   3.251   4.012   2.144  0.0069  0.0585  0.5099
 3389SOL    HW213555   3.279   3.987   1.997  0.4329  0.4800  0.5197
 3389SOL     MW13556   3.257   3.957   2.076  0.1821  0.2559  0.3653
 3390SOL     OW13557   1.309   4.811   4.471 -0.0016 -0.3323  0.0944
 3390SOL    HW113558   1.396   4.788   4.439 -0.3154 -1.0995 -0.2333
 3390SOL    HW213559   1.264   4.846   4.394 -0.4494 -1.2943 -0.0917
 3390SOL     MW13560   1.314   4.813   4.457 -0.0991 -0.5537  0.0286
 3391SOL     OW13561   0.275   0.307   3.979 -0.5208  0.2006 -0.3888
 3391SOL    HW113562   0.269   0.257   4.060  0.2750  1.2110  0.3409
 3391SOL    HW213563   0.339   0.260   3.926  0.4388  0.5752  0.4073
 3391SOL     MW13564   0.283   0.295   3.983 -0.2961  0.3779 -0.1934
 3392SOL     OW13565   5.016   0.080   2.482 -0.1916  0.4693  0.4118
 3392SOL    HW113566   5.033   0.168   2.447  0.8294 -0.4868 -1.6698
 3392SOL    HW213567   4.996   0.027   2.405  0.0424 -1.3204  1.5256
 3392SOL     MW13568   5.015   0.085   2.468 -0.0309  0.1178  0.2879
 3393SOL     OW13569   0.677   2.159   1.943 -0.1278 -0.5417 -0.7088
 3393SOL    HW113570   0.672   2.252   1.921  1.0055 -0.0953  0.7455
 3393SOL    HW213571   0.614   2.117   1.885 -2.4712  1.4233  0.2532
 3393SOL     MW13572   0.669   2.165   1.933 -0.2827 -0.2330 -0.3995
 3394SOL     OW13573   1.873   4.344   5.404  0.0558  0.1126 -0.2517
 3394SOL    HW113574   1.819   4.351   5.326  0.0996 -1.1814 -0.4231
 3394SOL    HW213575   1.816   4.303   5.470  0.0386  1.1237  0.3802
 3394SOL     MW13576   1.859   4.340   5.403  0.0592  0.0764 -0.1928
 3395SOL     OW13577   0.706   5.265   1.045 -0.1971  0.2993 -0.4750
 3395SOL    HW113578   0.708   5.360   1.040 -0.6693  0.2639 -1.8865
 3395SOL    HW213579   0.790   5.238   1.008  0.7693  0.1662  1.6556
 3395SOL     MW13580   0.717   5.274   1.039 -0.1338  0.2777 -0.3829
 3396SOL     OW13581   0.637   2.429   1.561 -0.4413  0.0932 -0.5244
 3396SOL    HW113582   0.618   2.336   1.551 -0.5230  0.1864 -1.2669
 3396SOL    HW213583   0.556   2.472   1.535 -0.6096  0.3593  0.4044
 3396SOL     MW13584   0.624   2.422   1.557 -0.4733  0.1392 -0.5006
 3397SOL     OW13585   3.225   3.119   0.053 -0.1487 -0.0116 -0.0316
 3397SOL    HW113586   3.175   3.196   0.028 -0.8657  0.1182  1.6463
 3397SOL    HW213587   3.190   3.094   0.138 -1.5634 -3.6219 -1.4785
 3397SOL     MW13588   3.214   3.125   0.061 -0.4216 -0.4571 -0.0020
 3398SOL     OW13589   2.075   3.998   3.572 -0.7078  0.8599  0.3566
 3398SOL    HW113590   2.022   3.989   3.492 -1.1830  4.5153  0.0893
 3398SOL    HW213591   2.018   4.044   3.633  0.6606  0.7613  1.7495
 3398SOL     MW13592   2.061   4.003   3.569 -0.5935  1.3152  0.5007
 3399SOL     OW13593   0.273   1.922   2.074  0.4514 -0.0219  0.0760
 3399SOL    HW113594   0.267   1.834   2.110  0.1738 -0.5233 -1.1320
 3399SOL    HW213595   0.366   1.942   2.074  0.4765 -0.1224  0.7851
 3399SOL     MW13596   0.284   1.913   2.079  0.4191 -0.0990  0.0121
 3400SOL     OW13597   5.234   3.347   3.181  0.1888  0.1193 -0.6368
 3400SOL    HW113598   5.250   3.324   3.090  0.1414  0.6234 -0.7726
 3400SOL    HW213599   5.206   3.264   3.222  1.0100 -0.2869 -0.8820
 3400SOL     MW13600   5.232   3.333   3.175  0.2879  0.1318 -0.6856
 3401SOL     OW13601   0.439   2.647   0.224  0.1081  0.1811  0.3443
 3401SOL    HW113602   0.462   2.726   0.175 -1.9915  0.2948 -0.5490
 3401SOL    HW213603   0.409   2.585   0.158  1.8563 -1.4909  1.0096
 3401SOL     MW13604   0.438   2.649   0.210  0.0631 -0.0184  0.3151
 3402SOL     OW13605   1.610   3.721   0.194 -0.1728  0.8229  0.1129
 3402SOL    HW113606   1.529   3.671   0.182  0.4179  0.1118 -1.0187
 3402SOL    HW213607   1.622   3.768   0.112  0.8859  0.4529  0.0422
 3402SOL     MW13608   1.601   3.721   0.182  0.0383  0.6845 -0.0410
 3403SOL     OW13609   0.270   4.734   0.860 -0.3130  0.4476  0.1630
 3403SOL    HW113610   0.346   4.712   0.805 -1.1642  0.5245 -1.0741
 3403SOL    HW213611   0.308   4.751   0.946  0.8343 -1.6766  0.1340
 3403SOL     MW13612   0.285   4.734   0.864 -0.2751  0.1855  0.0010
 3404SOL     OW13613   5.016   0.256   2.262  0.1150 -0.2553 -0.5760
 3404SOL    HW113614   4.990   0.345   2.285 -0.5413 -0.2151 -1.4129
 3404SOL    HW213615   5.052   0.264   2.174  0.3312 -0.7730 -0.5354
 3404SOL     MW13616   5.017   0.268   2.253  0.0587 -0.3164 -0.6779
 3405SOL     OW13617   2.550   3.011   4.071 -0.7164  0.0311  0.5809
 3405SOL    HW113618   2.644   3.026   4.082 -0.9991  0.7027  2.4131
 3405SOL    HW213619   2.515   3.095   4.041 -0.5926 -0.5882 -1.4809
 3405SOL     MW13620   2.557   3.024   4.068 -0.7368  0.0378  0.5515
 3406SOL     OW13621   3.828   2.438   3.748  0.0303  0.2033 -0.3908
 3406SOL    HW113622   3.786   2.368   3.798  0.6088 -0.0736 -0.2837
 3406SOL    HW213623   3.756   2.493   3.718 -0.2903  0.6477  1.1404
 3406SOL     MW13624   3.813   2.436   3.750  0.0633  0.2248 -0.1811
 3407SOL     OW13625   3.955   2.762   2.335  0.2344  0.2888 -0.1133
 3407SOL    HW113626   3.943   2.784   2.428 -0.4864  1.4723 -0.4600
 3407SOL    HW213627   3.988   2.673   2.336  0.5275  0.3786  1.2991
 3407SOL     MW13628   3.958   2.754   2.347  0.1797  0.4518  0.0231
 3408SOL     OW13629   0.344   2.487   4.354  0.1964  0.0902  0.6778
 3408SOL    HW113630   0.370   2.526   4.270  0.5844 -1.4931  0.0199
 3408SOL    HW213631   0.423   2.442   4.385 -0.2093 -0.1134  1.4295
 3408SOL     MW13632   0.357   2.486   4.347  0.1941 -0.1386  0.6898
 3409SOL     OW13633   1.982   1.324   2.984  0.3213  0.1658  0.3100
 3409SOL    HW113634   1.971   1.229   2.987  0.1595  0.1791  0.1525
 3409SOL    HW213635   1.901   1.356   2.945  0.4645  0.3525  0.1622
 3409SOL     MW13636   1.970   1.316   2.979  0.3189  0.1914  0.2709
 3410SOL     OW13637   3.041   5.057   0.257  0.3381 -0.0688  0.1766
 3410SOL    HW113638   2.947   5.074   0.246  0.4492  0.4166 -0.0718
 3410SOL    HW213639   3.082   5.111   0.190  0.8216  0.0884  0.5947
 3410SOL     MW13640   3.034   5.066   0.247  0.4142  0.0134  0.1983
 3411SOL     OW13641   3.601   4.658   2.400 -0.0365 -0.0925  0.2194
 3411SOL    HW113642   3.585   4.740   2.447 -0.7468 -0.4921  0.6938
 3411SOL    HW213643   3.565   4.590   2.457 -1.2206 -0.5629 -1.0365
 3411SOL     MW13644   3.594   4.660   2.413 -0.2790 -0.2039  0.1193
 3412SOL     OW13645   3.240   5.441   4.471 -0.5425 -0.1400  0.3887
 3412SOL    HW113646   3.275   5.528   4.490 -1.5339 -0.2109  2.8918
 3412SOL    HW213647   3.301   5.381   4.513 -0.4568 -0.6314 -0.4031
 3412SOL     MW13648   3.252   5.445   4.479 -0.6585 -0.2120  0.6078
 3413SOL     OW13649   2.253   2.533   4.389  0.4743  0.1812 -0.1462
 3413SOL    HW113650   2.316   2.468   4.359  0.4957 -0.0822  0.4604
 3413SOL    HW213651   2.168   2.489   4.380  0.3536  0.5554 -1.0192
 3413SOL     MW13652   2.250   2.519   4.384  0.4616  0.1954 -0.1803
 3414SOL     OW13653   3.800   4.020   3.868  0.1141 -0.0090  0.2368
 3414SOL    HW113654   3.790   3.927   3.891 -0.4717  0.3236  1.4120
 3414SOL    HW213655   3.804   4.020   3.772  0.1144 -1.2487  0.2133
 3414SOL     MW13656   3.799   4.008   3.858  0.0391 -0.1252  0.3843
 3415SOL     OW13657   2.043   2.120   2.235  0.3736 -0.0499 -0.2748
 3415SOL    HW113658   2.036   2.058   2.306  0.2722  0.5745  0.2717
 3415SOL    HW213659   2.133   2.152   2.239  0.2142  0.3901 -0.0709
 3415SOL     MW13660   2.054   2.116   2.244  0.3402  0.0863 -0.1787
 3416SOL     OW13661   0.646   4.424   2.483  0.2940 -0.8447 -0.2876
 3416SOL    HW113662   0.713   4.363   2.455  1.3974  1.4664 -3.2448
 3416SOL    HW213663   0.582   4.424   2.411  0.7394  1.8790 -0.8110
 3416SOL     MW13664   0.646   4.416   2.470  0.4923 -0.2002 -0.7332
 3417SOL     OW13665   1.286   1.196   4.916  0.0501  0.0356 -0.6115
 3417SOL    HW113666   1.268   1.103   4.906 -0.2352  0.2283 -2.1402
 3417SOL    HW213667   1.247   1.220   5.000  1.2340 -1.4678  0.4189
 3417SOL     MW13668   1.279   1.187   4.925  0.1651 -0.1322 -0.6753
 3418SOL     OW13669   0.384   3.207   1.758 -0.0591  0.2683 -0.5528
 3418SOL    HW113670   0.355   3.142   1.823  0.2524 -0.3424 -1.0159
 3418SOL    HW213671   0.316   3.275   1.761  0.7573  1.0625  1.5542
 3418SOL     MW13672   0.371   3.208   1.767  0.0853  0.2917 -0.3424
 3419SOL     OW13673   0.157   5.145   5.378  0.0528  0.9127 -0.0534
 3419SOL    HW113674   0.136   5.098   5.297 -0.2507 -0.0707  0.5795
 3419SOL    HW213675   0.249   5.169   5.368  0.4034 -0.3662 -0.1494
 3419SOL     MW13676   0.166   5.142   5.367  0.0588  0.6231  0.0153
 3420SOL     OW13677   0.010   1.569   4.515 -0.3919  0.9533 -0.3989
 3420SOL    HW113678   0.047   1.481   4.520 -2.0391  0.2931  1.6234
 3420SOL    HW213679   0.078   1.626   4.550 -0.7359 -0.0844  2.1645
 3420SOL     MW13680   0.024   1.565   4.520 -0.6468  0.7359  0.1881
 3421SOL     OW13681   3.886   0.629   2.386 -0.4620 -0.0796 -0.2591
 3421SOL    HW113682   3.799   0.595   2.404 -0.5004 -0.1411 -0.5467
 3421SOL    HW213683   3.915   0.667   2.469 -0.0785 -1.5602  0.3144
 3421SOL     MW13684   3.879   0.630   2.399 -0.4178 -0.2770 -0.2225
 3422SOL     OW13685   4.212   3.295   3.736 -0.0211 -0.6068 -1.0629
 3422SOL    HW113686   4.246   3.272   3.650  0.5117 -0.5848 -0.8613
 3422SOL    HW213687   4.150   3.366   3.719  1.3007  0.5450 -1.2677
 3422SOL     MW13688   4.209   3.301   3.723  0.2163 -0.4565 -1.0633
 3423SOL     OW13689   3.047   2.465   4.367 -0.8802 -0.3740 -0.4218
 3423SOL    HW113690   2.996   2.545   4.359  0.4309  0.5728  0.1859
 3423SOL    HW213691   3.071   2.461   4.460  0.3342 -0.6494 -0.7280
 3423SOL     MW13692   3.044   2.475   4.378 -0.5569 -0.2880 -0.3832
 3424SOL     OW13693   1.301   5.427   3.336  0.7190 -0.0705  0.0694
 3424SOL    HW113694   1.249   5.350   3.313  0.9302 -0.2548  0.1984
 3424SOL    HW213695   1.384   5.391   3.368  0.0906  0.1260  2.0362
 3424SOL     MW13696   1.305   5.412   3.337  0.6656 -0.0689  0.3377
 3425SOL     OW13697   1.254   3.410   0.001 -0.4983 -0.2170  0.2385
 3425SOL    HW113698   1.272   3.502   0.019 -3.1369  0.6808 -1.1448
 3425SOL    HW213699   1.159   3.402   0.011 -0.2556 -3.0419  1.1809
 3425SOL     MW13700   1.244   3.421   0.005 -0.8050 -0.4637  0.1821
 3426SOL     OW13701   4.098   5.155   3.902  0.2410  0.6211 -0.2088
 3426SOL    HW113702   4.150   5.225   3.943  0.8099 -1.3601  2.7841
 3426SOL    HW213703   4.158   5.080   3.898 -1.6983 -1.1931  1.6434
 3426SOL     MW13704   4.112   5.154   3.907  0.0656  0.1353  0.4115
 3427SOL     OW13705   1.047   3.960   4.241  0.2001 -0.4912  0.3487
 3427SOL    HW113706   1.123   3.904   4.257  0.0587 -0.4703  1.1371
 3427SOL    HW213707   0.977   3.899   4.218 -0.0642 -0.6880  1.6289
 3427SOL     MW13708   1.048   3.945   4.240  0.1481 -0.5137  0.6135
 3428SOL     OW13709   1.111   1.873   2.098  0.1969 -0.1961 -0.5135
 3428SOL    HW113710   1.076   1.906   2.181  0.3279 -0.9962 -0.1220
 3428SOL    HW213711   1.203   1.900   2.098  0.5416 -1.2780  0.2251
 3428SOL     MW13712   1.118   1.880   2.109  0.2578 -0.4370 -0.3689
 3429SOL     OW13713   2.581   2.662   1.896  0.0256  0.2047 -0.4167
 3429SOL    HW113714   2.503   2.638   1.945  0.9012 -0.2642  0.8083
 3429SOL    HW213715   2.589   2.595   1.829  1.1923 -1.7764  1.5641
 3429SOL     MW13716   2.572   2.651   1.894  0.2870 -0.1089 -0.0063
 3430SOL     OW13717   0.116   0.231   5.487  0.1809  0.3162  0.0706
 3430SOL    HW113718   0.210   0.244   5.495  0.1044  2.5183 -1.7447
 3430SOL    HW213719   0.090   0.287   5.414 -2.5906  0.0184  0.7227
 3430SOL     MW13720   0.125   0.240   5.479 -0.1837  0.5600 -0.0783
 3431SOL     OW13721   4.790   3.866   4.038  0.2619  0.2859 -0.3077
 3431SOL    HW113722   4.814   3.903   4.123 -0.5549  0.4493 -0.1386
 3431SOL    HW213723   4.706   3.823   4.053  0.7186 -0.7856 -0.7418
 3431SOL     MW13724   4.782   3.865   4.051  0.2158  0.1696 -0.3416
 3432SOL     OW13725   3.910   2.755   4.732  0.3967  0.0518 -0.1172
 3432SOL    HW113726   3.862   2.679   4.765 -1.2308  0.3376 -1.7132
 3432SOL    HW213727   3.863   2.831   4.764  0.8159  0.3667 -0.2272
 3432SOL     MW13728   3.898   2.755   4.740  0.2420  0.1287 -0.3356
 3433SOL     OW13729   1.536   4.842   2.422 -0.4106  0.1879  0.4443
 3433SOL    HW113730   1.513   4.823   2.513 -0.8941  0.6642  0.4238
 3433SOL    HW213731   1.452   4.856   2.379 -0.2900 -1.3915 -0.3928
 3433SOL     MW13732   1.522   4.841   2.428 -0.4571  0.0467  0.3345
 3434SOL     OW13733   2.371   2.670   2.449 -0.2545 -0.6590 -0.0540
 3434SOL    HW113734   2.444   2.729   2.470  0.2566 -0.4162 -2.2736
 3434SOL    HW213735   2.413   2.586   2.428 -0.6832 -0.8045 -0.3451
 3434SOL     MW13736   2.386   2.667   2.449 -0.2439 -0.6465 -0.3754
 3435SOL     OW13737   4.322   4.666   1.966  0.0823  0.0619  0.6914
 3435SOL    HW113738   4.360   4.751   1.989 -1.2885  0.8357  0.1961
 3435SOL    HW213739   4.320   4.618   2.049  0.4687  0.6803  1.0721
 3435SOL     MW13740   4.326   4.671   1.980 -0.0437  0.2401  0.6767
 3436SOL     OW13741   1.367   3.049   2.205 -0.2685  0.5044 -0.3422
 3436SOL    HW113742   1.448   3.004   2.230  0.2916  1.2873 -0.7080
 3436SOL    HW213743   1.315   2.982   2.161  0.2503  0.0352 -0.2584
 3436SOL     MW13744   1.370   3.034   2.203 -0.1304  0.5445 -0.3783
 3437SOL     OW13745   0.099   1.024   1.739 -0.3412  0.0163 -0.0499
 3437SOL    HW113746   0.026   1.067   1.695 -2.1680 -1.4899  1.3165
 3437SOL    HW213747   0.123   1.083   1.810 -0.4169  0.4110 -0.3522
 3437SOL     MW13748   0.093   1.037   1.743 -0.5847 -0.1260  0.0864
 3438SOL     OW13749   0.435   1.317   5.185  0.2364  0.4597 -0.6085
 3438SOL    HW113750   0.453   1.269   5.266  2.3872 -1.4048 -2.0482
 3438SOL    HW213751   0.354   1.279   5.151 -0.8904  1.5244  0.7978
 3438SOL     MW13752   0.427   1.306   5.191  0.3675  0.3573 -0.6128
 3439SOL     OW13753   1.597   2.192   2.320  0.1756 -0.3800  0.2306
 3439SOL    HW113754   1.614   2.205   2.227  1.0315  0.2592  0.4723
 3439SOL    HW213755   1.577   2.280   2.354  0.7760 -0.4636  0.8266
 3439SOL     MW13756   1.596   2.205   2.313  0.3620 -0.3089  0.3378
 3440SOL     OW13757   1.778   0.330   0.032  0.0870 -0.1445  0.1535
 3440SOL    HW113758   1.720   0.405   0.043  0.1973  0.0584 -0.6051
 3440SOL    HW213759   1.775   0.285   0.116 -1.6862 -0.5195 -0.0877
 3440SOL     MW13760   1.770   0.334   0.044 -0.1258 -0.1666  0.0255
 3441SOL     OW13761   1.814   5.111   3.600 -0.5445  0.1424 -0.3616
 3441SOL    HW113762   1.786   5.105   3.509  0.3625 -0.4879 -0.6197
 3441SOL    HW213763   1.831   5.020   3.626  0.9470  0.4505 -0.1567
 3441SOL     MW13764   1.813   5.098   3.592 -0.2374  0.1011 -0.3684
 3442SOL     OW13765   4.846   4.358   0.413 -0.2423 -0.0917 -0.1399
 3442SOL    HW113766   4.841   4.325   0.503 -1.7433  0.3202 -0.0459
 3442SOL    HW213767   4.923   4.316   0.377 -0.4797 -1.4631  0.8679
 3442SOL     MW13768   4.855   4.349   0.420 -0.4648 -0.2145  0.0011
 3443SOL     OW13769   1.417   1.974   4.897 -0.3816 -1.0358 -0.7797
 3443SOL    HW113770   1.419   2.069   4.886  0.2110 -0.9779 -0.1996
 3443SOL    HW213771   1.465   1.940   4.821  0.1691 -0.8338 -0.5191
 3443SOL     MW13772   1.423   1.982   4.886 -0.2352 -1.0025 -0.6721
 3444SOL     OW13773   1.179   1.922   3.890 -0.8446  0.7760 -0.1929
 3444SOL    HW113774   1.102   1.869   3.912 -0.6227  0.5920  0.1415
 3444SOL    HW213775   1.166   2.003   3.938 -0.9875  0.8716 -0.3908
 3444SOL     MW13776   1.167   1.925   3.899 -0.8345  0.7647 -0.1754
 3445SOL     OW13777   4.548   2.253   3.799 -0.3119 -0.0779  0.1932
 3445SOL    HW113778   4.489   2.177   3.803  0.9124 -1.1852 -1.4410
 3445SOL    HW213779   4.626   2.225   3.847  0.1111  0.1704 -0.3403
 3445SOL     MW13780   4.550   2.240   3.806 -0.1010 -0.1879 -0.0843
 3446SOL     OW13781   2.376   5.241   1.610 -0.1007 -0.1838 -0.1760
 3446SOL    HW113782   2.445   5.277   1.554 -0.9229  1.3586 -0.2356
 3446SOL    HW213783   2.295   5.260   1.563 -0.6990 -0.2241  0.8142
 3446SOL     MW13784   2.375   5.248   1.597 -0.2825  0.0085 -0.0569
 3447SOL     OW13785   5.150   4.847   1.360  0.0692  0.1289 -0.0125
 3447SOL    HW113786   5.187   4.781   1.301 -1.1239  0.8125 -1.6133
 3447SOL    HW213787   5.056   4.833   1.355 -0.1182  1.0475  0.7337
 3447SOL     MW13788   5.143   4.837   1.352 -0.1075  0.3340 -0.1219
 3448SOL     OW13789   3.675   4.377   4.057  0.4969  0.0054 -0.3132
 3448SOL    HW113790   3.752   4.387   4.113 -1.3681  1.7406  2.1600
 3448SOL    HW213791   3.639   4.292   4.081  0.9251 -0.2450 -0.5444
 3448SOL     MW13792   3.680   4.368   4.067  0.3130  0.1954 -0.0262
 3449SOL     OW13793   2.586   1.218   4.834  0.0242 -0.1386  0.1251
 3449SOL    HW113794   2.637   1.147   4.797 -0.6470 -1.0099  0.8386
 3449SOL    HW213795   2.495   1.194   4.817 -0.2362  0.1665  1.0442
 3449SOL     MW13796   2.581   1.206   4.827 -0.0951 -0.2111  0.3341
 3450SOL     OW13797   4.336   4.768   1.442  0.1374  0.2560  0.3885
 3450SOL    HW113798   4.384   4.826   1.383  2.3473 -1.0161  0.8426
 3450SOL    HW213799   4.261   4.739   1.390  0.7349  1.0250 -0.9558
 3450SOL     MW13800   4.332   4.772   1.428  0.4968  0.1916  0.2745
 3451SOL     OW13801   4.485   1.013   4.549 -0.2344 -0.5791 -0.3668
 3451SOL    HW113802   4.545   1.041   4.480 -2.2809  0.2023 -1.9302
 3451SOL    HW213803   4.537   1.018   4.629  1.5674  0.7553 -1.5309
 3451SOL     MW13804   4.500   1.017   4.551 -0.2658 -0.3083 -0.7160
 3452SOL     OW13805   1.831   3.437   0.222  0.0611 -0.2777 -0.0252
 3452SOL    HW113806   1.802   3.447   0.313  1.0590 -0.5398  0.3414
 3452SOL    HW213807   1.925   3.452   0.226 -0.1353  1.5948 -1.3466
 3452SOL     MW13808   1.839   3.440   0.234  0.1637 -0.0715 -0.1474
 3453SOL     OW13809   2.527   4.111   5.495 -0.2468 -0.1836  0.4856
 3453SOL    HW113810   2.471   4.164   5.439  0.9368  0.4454 -0.1423
 3453SOL    HW213811   2.565   4.046   5.436  2.0328  1.2895  0.2053
 3453SOL     MW13812   2.525   4.109   5.481  0.1965  0.0855  0.3694
 3454SOL     OW13813   0.634   0.807   4.413 -0.0119 -0.2947  0.3338
 3454SOL    HW113814   0.613   0.753   4.337 -0.2016 -0.0207  0.1912
 3454SOL    HW213815   0.561   0.868   4.421  1.6390  2.0706 -1.4384
 3454SOL     MW13816   0.622   0.808   4.404  0.1752  0.0432  0.0887
 3455SOL     OW13817   1.059   4.178   5.444  0.0012  0.1701 -0.0279
 3455SOL    HW113818   1.010   4.193   5.525 -0.8888  0.6032 -0.6419
 3455SOL    HW213819   1.001   4.206   5.374  1.2372  1.0017 -0.7668
 3455SOL     MW13820   1.045   4.183   5.445  0.0455  0.3320 -0.2011
 3456SOL     OW13821   4.158   2.927   0.638 -0.0355  0.0767  0.0818
 3456SOL    HW113822   4.201   3.011   0.654  1.0606 -0.6858  1.4029
 3456SOL    HW213823   4.216   2.883   0.575  1.1255 -0.8992  1.7638
 3456SOL     MW13824   4.171   2.932   0.632  0.2535 -0.1458  0.4662
 3457SOL     OW13825   4.028   1.670   1.059 -0.0428  0.2302  0.5359
 3457SOL    HW113826   3.978   1.625   0.990  0.1696 -0.4440  0.8067
 3457SOL    HW213827   4.117   1.635   1.050  0.0948  0.4977  0.8485
 3457SOL     MW13828   4.033   1.659   1.049  0.0020  0.1781  0.6106
 3458SOL     OW13829   1.573   5.236   0.869 -0.5620 -0.0147  0.6760
 3458SOL    HW113830   1.526   5.154   0.883  2.2357 -1.8210  0.2892
 3458SOL    HW213831   1.657   5.209   0.831  0.4754  3.0449  0.5532
 3458SOL     MW13832   1.578   5.222   0.866 -0.0711  0.1457  0.6107
 3459SOL     OW13833   2.270   3.376   0.776 -0.2737  0.4271  0.1351
 3459SOL    HW113834   2.325   3.303   0.749 -0.9618  0.2952 -0.9643
 3459SOL    HW213835   2.200   3.336   0.829 -0.2076  0.3961  0.1993
 3459SOL     MW13836   2.268   3.362   0.779 -0.3534  0.4062  0.0026
 3460SOL     OW13837   4.577   1.881   0.432  0.0609 -0.3733 -0.1658
 3460SOL    HW113838   4.600   1.820   0.363  1.0863 -0.0678 -0.1114
 3460SOL    HW213839   4.620   1.963   0.407  1.4593 -0.5677  1.4101
 3460SOL     MW13840   4.586   1.884   0.420  0.3712 -0.3591  0.0429
 3461SOL     OW13841   3.814   2.623   0.640 -0.3338 -0.4324  0.3153
 3461SOL    HW113842   3.805   2.622   0.735  1.2469  0.7236  0.5061
 3461SOL    HW213843   3.774   2.706   0.613 -1.7177 -1.2203 -0.1740
 3461SOL     MW13844   3.808   2.634   0.649 -0.3086 -0.3853  0.2770
 3462SOL     OW13845   3.340   1.974   2.200 -0.1864 -0.6341 -0.5227
 3462SOL    HW113846   3.266   2.010   2.150  0.1101  0.4361 -0.2170
 3462SOL    HW213847   3.353   2.037   2.271 -0.1130 -1.7345  0.4728
 3462SOL     MW13848   3.332   1.986   2.203 -0.1390 -0.6379 -0.3561
 3463SOL     OW13849   1.539   0.996   4.298  0.0841  0.1120  0.3067
 3463SOL    HW113850   1.501   0.954   4.220 -1.0430  0.5977  0.5678
 3463SOL    HW213851   1.518   0.936   4.369  1.3265 -0.4507  0.2290
 3463SOL     MW13852   1.531   0.983   4.297  0.0988  0.1021  0.3301
 3464SOL     OW13853   5.192   1.593   5.413  0.2556  0.6073 -0.5535
 3464SOL    HW113854   5.137   1.600   5.335  0.6915 -0.7726 -1.0284
 3464SOL    HW213855   5.203   1.498   5.426  2.8071  0.7912 -0.7104
 3464SOL     MW13856   5.187   1.581   5.405  0.6380  0.4542 -0.6344
 3465SOL     OW13857   4.375   4.486   5.193 -0.3484  0.5860 -0.4598
 3465SOL    HW113858   4.282   4.480   5.171 -0.1279  1.0212 -1.5415
 3465SOL    HW213859   4.400   4.576   5.171  0.6479  0.0769 -1.5157
 3465SOL     MW13860   4.366   4.497   5.187 -0.1926  0.5766 -0.7334
 3466SOL     OW13861   2.418   4.423   1.273 -0.3120  0.5103  0.8346
 3466SOL    HW113862   2.326   4.448   1.262 -0.2054  0.5417 -0.1202
 3466SOL    HW213863   2.468   4.502   1.250 -0.0402  0.2756  0.5992
 3466SOL     MW13864   2.413   4.436   1.268 -0.2636  0.4843  0.6822
 3467SOL     OW13865   5.059   1.032   4.853 -0.1060  0.0116 -0.3743
 3467SOL    HW113866   5.023   1.035   4.941 -3.3725  2.6786 -1.6073
 3467SOL    HW213867   5.001   0.973   4.804  0.6879 -0.1528 -1.1647
 3467SOL     MW13868   5.047   1.024   4.858 -0.4226  0.3320 -0.6333
 3468SOL     OW13869   3.044   5.153   0.876  0.0126  0.4054 -0.0083
 3468SOL    HW113870   3.135   5.182   0.872  0.4200 -0.8326 -0.1057
 3468SOL    HW213871   3.002   5.213   0.938  0.7185  1.4117 -0.4689
 3468SOL     MW13872   3.050   5.165   0.883  0.1551  0.3758 -0.0798
 3469SOL     OW13873   1.323   3.778   0.381 -0.0445 -0.6440 -0.3553
 3469SOL    HW113874   1.417   3.795   0.394 -0.0237 -1.3406  0.5674
 3469SOL    HW213875   1.320   3.699   0.327 -0.1362  0.9870 -2.8829
 3469SOL     MW13876   1.335   3.770   0.376 -0.0536 -0.5244 -0.5608
 3470SOL     OW13877   0.513   0.586   2.880  0.3351 -0.1358 -0.0258
 3470SOL    HW113878   0.550   0.559   2.965  1.0975  0.6398 -0.0928
 3470SOL    HW213879   0.425   0.618   2.902  0.3814 -0.3000  0.4196
 3470SOL     MW13880   0.507   0.587   2.894  0.4387 -0.0575  0.0226
 3471SOL     OW13881   5.294   1.849   0.824  0.4303 -0.0402 -0.0604
 3471SOL    HW113882   5.291   1.886   0.736  0.5995  0.0087 -0.0464
 3471SOL    HW213883   5.215   1.883   0.866  1.1152  1.1866  0.2907
 3471SOL     MW13884   5.284   1.858   0.818  0.5397  0.1231 -0.0137
 3472SOL     OW13885   0.949   1.188   4.770 -0.1048 -0.1347 -0.0052
 3472SOL    HW113886   0.955   1.275   4.810 -0.3925 -0.6331  1.1758
 3472SOL    HW213887   0.973   1.202   4.679 -1.7001  1.4718 -0.2369
 3472SOL     MW13888   0.953   1.201   4.764 -0.3458  0.0071  0.1164
 3473SOL     OW13889   1.429   0.904   4.055  0.0118  0.3330  0.2025
 3473SOL    HW113890   1.414   0.810   4.055  0.5432  0.2202 -1.2905
 3473SOL    HW213891   1.479   0.920   3.975  1.4149  1.6529  1.2772
 3473SOL     MW13892   1.433   0.894   4.045  0.2594  0.4875  0.1490
 3474SOL     OW13893   1.413   3.149   3.863  1.0498  0.0062 -0.1640
 3474SOL    HW113894   1.444   3.129   3.775  0.9213  0.7444 -0.3888
 3474SOL    HW213895   1.492   3.147   3.918  1.0933 -0.6840 -0.2520
 3474SOL     MW13896   1.427   3.146   3.859  1.0389  0.0124 -0.2040
 3475SOL     OW13897   4.022   0.107   2.897 -0.4031  0.3546  0.4505
 3475SOL    HW113898   4.061   0.032   2.941 -2.1024 -1.0015 -0.2438
 3475SOL    HW213899   4.011   0.173   2.966 -1.6377 -1.1606  1.7722
 3475SOL     MW13900   4.026   0.106   2.912 -0.7787 -0.0130  0.5309
 3476SOL     OW13901   0.990   4.145   3.995 -0.5694  0.2086  0.3723
 3476SOL    HW113902   0.973   4.088   3.920 -0.0670 -0.5377  0.8104
 3476SOL    HW213903   1.025   4.086   4.062  0.4059  1.0999  0.6721
 3476SOL     MW13904   0.993   4.130   3.994 -0.3802  0.2271  0.4668
 3477SOL     OW13905   0.660   0.220   3.480 -0.2908  0.5708 -0.1227
 3477SOL    HW113906   0.611   0.302   3.472  0.2496  0.7651 -2.0230
 3477SOL    HW213907   0.672   0.208   3.574 -2.2878  1.5075  0.2947
 3477SOL     MW13908   0.655   0.229   3.491 -0.4772  0.7156 -0.3125
 3478SOL     OW13909   0.614   3.188   0.162  0.0857  0.1864 -0.2375
 3478SOL    HW113910   0.538   3.197   0.219  0.0227  0.7327 -0.3989
 3478SOL    HW213911   0.630   3.094   0.157  0.5374  0.1656  1.2501
 3478SOL     MW13912   0.606   3.177   0.169  0.1354  0.2537 -0.0678
 3479SOL     OW13913   0.457   5.051   3.860  0.1981 -1.0124 -0.0828
 3479SOL    HW113914   0.389   5.044   3.793 -0.2899 -0.5122  0.3540
 3479SOL    HW213915   0.439   5.134   3.904  1.5669 -0.4731 -0.4850
 3479SOL     MW13916   0.446   5.061   3.857  0.3108 -0.8793 -0.0784
 3480SOL     OW13917   1.368   1.079   0.574  0.0191 -0.1847  0.3522
 3480SOL    HW113918   1.463   1.069   0.579 -0.0909 -2.9039 -1.2193
 3480SOL    HW213919   1.347   1.141   0.644  2.8380 -0.0978  1.2498
 3480SOL     MW13920   1.378   1.086   0.583  0.3659 -0.5217  0.2659
 3481SOL     OW13921   3.509   4.907   4.133 -0.6575 -0.5769 -0.4532
 3481SOL    HW113922   3.476   4.835   4.079 -2.6020  0.5894 -0.9000
 3481SOL    HW213923   3.525   4.867   4.219  2.1348 -2.3832 -1.6475
 3481SOL     MW13924   3.507   4.892   4.137 -0.5490 -0.6588 -0.6633
 3482SOL     OW13925   1.417   4.119   2.017  0.2318 -0.3696 -0.6728
 3482SOL    HW113926   1.452   4.164   2.094 -0.6146 -0.3210 -0.3165
 3482SOL    HW213927   1.480   4.140   1.948  0.3482  0.6096 -0.2960
 3482SOL     MW13928   1.430   4.128   2.018  0.1384 -0.2380 -0.5790
 3483SOL     OW13929   3.243   4.382   3.600  0.1656 -0.2129 -0.1688
 3483SOL    HW113930   3.206   4.466   3.624  0.3020 -0.2906  0.3195
 3483SOL    HW213931   3.303   4.360   3.671 -0.8830 -1.3589  0.4129
 3483SOL     MW13932   3.246   4.390   3.612  0.0488 -0.3696 -0.0318
 3484SOL     OW13933   1.862   3.417   0.761 -0.2291  0.3528 -0.2828
 3484SOL    HW113934   1.766   3.418   0.763 -0.5275  0.3806 -4.7430
 3484SOL    HW213935   1.888   3.507   0.778 -1.0972  0.6179 -0.3383
 3484SOL     MW13936   1.853   3.429   0.763 -0.3784  0.3903 -0.8609
 3485SOL     OW13937   1.340   4.461   2.490 -0.3667 -0.2181  0.3902
 3485SOL    HW113938   1.319   4.367   2.488 -0.5320 -0.2782  2.6088
 3485SOL    HW213939   1.433   4.465   2.469 -0.3762 -0.8775  0.1898
 3485SOL     MW13940   1.349   4.450   2.487 -0.3891 -0.3102  0.6485
 3486SOL     OW13941   4.614   1.229   0.039 -0.4824 -0.4548 -0.0996
 3486SOL    HW113942   4.629   1.150  -0.013  2.6367 -0.6410  0.8757
 3486SOL    HW213943   4.685   1.287   0.014 -0.9884  0.8659  1.3787
 3486SOL     MW13944   4.625   1.226   0.029 -0.1479 -0.3096  0.2145
 3487SOL     OW13945   0.843   3.880   4.481  0.0222  0.3812 -0.2200
 3487SOL    HW113946   0.774   3.915   4.426  1.4630 -1.3013 -3.3917
 3487SOL    HW213947   0.806   3.800   4.519  0.0913 -0.3671 -1.6832
 3487SOL     MW13948   0.830   3.874   4.479  0.2155  0.0700 -0.8133
 3488SOL     OW13949   5.011   1.675   5.223 -0.0782 -0.3045  0.4704
 3488SOL    HW113950   4.988   1.740   5.290 -1.1930 -0.3484  0.1451
 3488SOL    HW213951   4.929   1.631   5.203 -0.3010  1.2048 -2.5183
 3488SOL     MW13952   4.998   1.678   5.229 -0.2494 -0.1169  0.0462
 3489SOL     OW13953   5.126   1.754   1.691  0.4219  0.3797 -0.1802
 3489SOL    HW113954   5.061   1.696   1.729  0.8977 -0.3803 -0.5173
 3489SOL    HW213955   5.078   1.806   1.627  0.3451 -0.8863 -1.1627
 3489SOL     MW13956   5.112   1.753   1.688  0.4730  0.1204 -0.3491
 3490SOL     OW13957   2.461   4.174   2.677  0.5777 -0.2191 -0.0772
 3490SOL    HW113958   2.520   4.107   2.641 -0.0470 -0.6183 -0.3674
 3490SOL    HW213959   2.512   4.255   2.673  2.0642 -0.9690  2.0445
 3490SOL     MW13960   2.475   4.176   2.672  0.6880 -0.3662  0.1573
 3491SOL     OW13961   0.733   1.231   2.919  0.3420  0.1611  0.3238
 3491SOL    HW113962   0.782   1.150   2.926  0.9165  0.0833 -2.9595
 3491SOL    HW213963   0.798   1.296   2.889 -0.9536  0.6598 -1.6014
 3491SOL     MW13964   0.748   1.229   2.916  0.2497  0.2150 -0.3430
 3492SOL     OW13965   2.209   3.500   3.498  0.2532  0.0905 -0.6105
 3492SOL    HW113966   2.278   3.500   3.564  0.5156 -0.0101 -0.8862
 3492SOL    HW213967   2.144   3.438   3.532  0.5585 -0.2414 -0.6226
 3492SOL     MW13968   2.209   3.492   3.511  0.3259  0.0352 -0.6473
 3493SOL     OW13969   0.026   0.321   1.009 -0.4808  0.2266 -0.0188
 3493SOL    HW113970   0.008   0.411   0.982  0.9751  0.5175 -0.1104
 3493SOL    HW213971   0.113   0.303   0.974 -0.8088 -1.2724 -0.1083
 3493SOL     MW13972   0.035   0.330   1.001 -0.3364  0.0720 -0.0420
 3494SOL     OW13973   0.044   4.845   2.869 -0.0781 -0.1460  0.0911
 3494SOL    HW113974   0.048   4.823   2.962 -0.6669 -1.9917 -0.2893
 3494SOL    HW213975   0.135   4.861   2.844  0.0248  0.9861  1.0926
 3494SOL     MW13976   0.056   4.844   2.878 -0.1403 -0.2373  0.1706
 3495SOL     OW13977   0.612   4.931   0.922 -0.1764 -0.5384 -0.1305
 3495SOL    HW113978   0.680   4.983   0.965 -1.9044  1.6640  0.1754
 3495SOL    HW213979   0.587   4.984   0.846 -1.9687 -0.9535  0.1342
 3495SOL     MW13980   0.617   4.945   0.918 -0.6271 -0.3096 -0.0575
 3496SOL     OW13981   1.264   2.928   4.980 -0.3107 -0.0831  0.0377
 3496SOL    HW113982   1.321   2.867   5.027 -2.1329 -0.9480  1.2653
 3496SOL    HW213983   1.324   2.989   4.937  1.5295 -1.4041  0.5951
 3496SOL     MW13984   1.279   2.928   4.981 -0.3084 -0.3629  0.2662
 3497SOL     OW13985   2.352   4.045   0.213 -0.1488  0.1361  0.4496
 3497SOL    HW113986   2.419   4.071   0.149 -0.4873 -1.3224 -0.5460
 3497SOL    HW213987   2.360   4.109   0.283  0.2949  1.7737 -1.0157
 3497SOL     MW13988   2.362   4.057   0.213 -0.1354  0.1590  0.1346
 3498SOL     OW13989   4.833   2.661   2.646  0.0529  0.0786  0.0420
 3498SOL    HW113990   4.817   2.621   2.561 -2.7096 -0.1827  0.5871
 3498SOL    HW213991   4.896   2.602   2.688 -0.2670 -1.0444 -0.9838
 3498SOL     MW13992   4.839   2.648   2.641 -0.3417 -0.0986 -0.0195
 3499SOL     OW13993   4.156   5.415   3.989 -0.0069  0.4604 -0.4414
 3499SOL    HW113994   4.063   5.393   4.001  0.0174  0.2812 -0.5821
 3499SOL    HW213995   4.159   5.465   3.907  0.1666 -0.4641 -1.0049
 3499SOL     MW13996   4.144   5.419   3.980  0.0184  0.3191 -0.5316
 3500SOL     OW13997   3.891   1.213   2.594  0.2668 -0.2997  0.2794
 3500SOL    HW113998   3.822   1.158   2.557 -0.7247  0.3814  1.0703
 3500SOL    HW213999   3.919   1.268   2.521  0.0177 -0.6185 -0.0629
 3500SOL     MW14000   3.886   1.213   2.580  0.1080 -0.2534  0.3368
 3501SOL     OW14001   0.708   2.500   3.745  0.1942 -0.5790  0.0679
 3501SOL    HW114002   0.796   2.499   3.706  1.6075  1.3336  2.8728
 3501SOL    HW214003   0.708   2.424   3.805 -0.2021 -0.7651 -0.1657
 3501SOL     MW14004   0.720   2.490   3.748  0.3244 -0.3580  0.3971
 3502SOL     OW14005   0.845   1.701   1.213  0.5377 -0.2663  0.4745
 3502SOL    HW114006   0.852   1.729   1.304 -0.0672 -0.3501  0.5507
 3502SOL    HW214007   0.795   1.620   1.217 -0.6960  0.4349 -0.0425
 3502SOL     MW14008   0.839   1.694   1.225  0.3024 -0.1873  0.4181
 3503SOL     OW14009   4.807   4.245   0.682  0.1266  0.4604 -0.1070
 3503SOL    HW114010   4.745   4.173   0.669  2.9944 -1.8342 -2.4289
 3503SOL    HW214011   4.851   4.223   0.764 -1.1528  1.3770  0.8540
 3503SOL     MW14012   4.805   4.233   0.691  0.3300  0.2840 -0.2812
 3504SOL     OW14013   3.852   4.731   2.706 -0.2313 -0.5407 -0.4439
 3504SOL    HW114014   3.930   4.777   2.739 -0.9114  0.1988  0.1850
 3504SOL    HW214015   3.786   4.746   2.773 -0.7711 -1.6197 -0.7141
 3504SOL     MW14016   3.854   4.739   2.719 -0.3875 -0.5841 -0.3980
 3505SOL     OW14017   1.583   2.048   4.419  0.1564  0.2550  0.0253
 3505SOL    HW114018   1.614   2.109   4.487 -2.1421  0.6450  0.8127
 3505SOL    HW214019   1.493   2.029   4.444 -0.6546  0.1304 -2.7650
 3505SOL     MW14020   1.576   2.053   4.431 -0.2416  0.2890 -0.2311
 3506SOL     OW14021   0.486   0.325   0.931 -0.1362  0.3191  0.3029
 3506SOL    HW114022   0.507   0.391   0.998  1.3285 -0.7886  0.9842
 3506SOL    HW214023   0.472   0.244   0.981  1.0350 -0.5456 -0.7116
 3506SOL     MW14024   0.487   0.323   0.946  0.2012  0.0666  0.2602
 3507SOL     OW14025   4.230   3.841   2.734 -0.0227  0.3591 -0.1037
 3507SOL    HW114026   4.288   3.768   2.754  0.3144  0.0716 -1.9876
 3507SOL    HW214027   4.247   3.904   2.804 -0.0275 -1.1663  1.3276
 3507SOL     MW14028   4.240   3.840   2.746  0.0198  0.1270 -0.1616
 3508SOL     OW14029   4.129   0.919   4.912  0.2597  0.6746  0.2571
 3508SOL    HW114030   4.157   0.999   4.868  1.6790 -1.1471 -2.4302
 3508SOL    HW214031   4.056   0.887   4.858 -0.3625  0.1901  1.3551
 3508SOL     MW14032   4.123   0.925   4.899  0.3617  0.3794  0.0537
 3509SOL     OW14033   1.688   1.321   2.112  0.5805 -0.2808 -0.3283
 3509SOL    HW114034   1.691   1.326   2.208  1.0539 -0.3846 -0.3339
 3509SOL    HW214035   1.634   1.243   2.094  0.1805 -0.0486 -0.1542
 3509SOL     MW14036   1.681   1.311   2.122  0.5899 -0.2644 -0.3068
 3510SOL     OW14037   0.517   4.749   5.300 -0.1776 -0.1226  0.0614
 3510SOL    HW114038   0.554   4.838   5.301  0.4743 -0.3905  0.4461
 3510SOL    HW214039   0.548   4.709   5.381  2.1151 -1.7260 -1.4784
 3510SOL     MW14040   0.526   4.756   5.310  0.1993 -0.3621 -0.0865
 3511SOL     OW14041   1.130   2.414   4.972 -0.5069  0.2602  0.5241
 3511SOL    HW114042   1.145   2.447   4.884  2.9313  1.0013  1.2330
 3511SOL    HW214043   1.089   2.328   4.959  0.2337  0.1846 -1.8167
 3511SOL     MW14044   1.127   2.407   4.959  0.0281  0.3454  0.3152
 3512SOL     OW14045   4.337   5.368   3.591 -0.0665  0.0223 -0.1320
 3512SOL    HW114046   4.253   5.362   3.545 -0.2824  0.3587  0.2171
 3512SOL    HW214047   4.356   5.279   3.618 -0.0802 -0.1342 -0.6189
 3512SOL     MW14048   4.329   5.356   3.588 -0.0959  0.0453 -0.1497
 3513SOL     OW14049   2.633   4.354   0.414  0.1760  0.0943 -0.4524
 3513SOL    HW114050   2.725   4.344   0.386  0.3626 -0.7844  0.4230
 3513SOL    HW214051   2.639   4.383   0.505 -0.4107 -0.5765 -0.1929
 3513SOL     MW14052   2.646   4.357   0.422  0.1248 -0.1041 -0.3072
 3514SOL     OW14053   4.125   1.028   1.208 -0.0655  0.1648  0.4477
 3514SOL    HW114054   4.220   1.016   1.199 -0.0431 -0.6079  1.5771
 3514SOL    HW214055   4.088   0.944   1.180 -0.6533  1.3565 -2.8232
 3514SOL     MW14056   4.133   1.016   1.203 -0.1379  0.2184  0.1735
 3515SOL     OW14057   5.476   0.639   1.371  0.0029 -0.5497  0.2564
 3515SOL    HW114058   5.449   0.710   1.314  0.7669  1.1289  1.9009
 3515SOL    HW214059   5.396   0.587   1.384 -0.4088 -0.4043 -1.4746
 3515SOL     MW14060   5.462   0.641   1.365  0.0480 -0.3162  0.2453
 3516SOL     OW14061   4.935   0.405   1.247  0.3266  0.0810  0.2204
 3516SOL    HW114062   4.985   0.336   1.290 -0.4966 -0.4538  0.3399
 3516SOL    HW214063   4.992   0.435   1.176  1.3406  0.3768  1.1282
 3516SOL     MW14064   4.949   0.400   1.243  0.3510  0.0504  0.3519
 3517SOL     OW14065   1.992   5.231   2.169 -0.5272 -0.1545  0.3584
 3517SOL    HW114066   2.004   5.138   2.185 -0.5428 -0.2664 -0.2501
 3517SOL    HW214067   2.077   5.271   2.189 -0.5492 -0.2848  0.7103
 3517SOL     MW14068   2.004   5.225   2.174 -0.5320 -0.1855  0.3255
 3518SOL     OW14069   3.696   2.325   0.843  0.7305  0.7696  0.3754
 3518SOL    HW114070   3.752   2.356   0.772 -0.8640  0.4023 -1.1205
 3518SOL    HW214071   3.747   2.340   0.923  2.4008  1.6170 -0.7963
 3518SOL     MW14072   3.709   2.331   0.844  0.7402  0.8311  0.0339
 3519SOL     OW14073   1.211   4.085   3.400  0.3858 -0.1131 -0.2190
 3519SOL    HW114074   1.214   4.130   3.315  1.1567  0.8746  0.3167
 3519SOL    HW214075   1.302   4.083   3.429  0.1870 -0.8560  0.3812
 3519SOL     MW14076   1.223   4.090   3.392  0.4590 -0.0818 -0.0736
 3520SOL     OW14077   0.949   4.838   5.262 -0.1816  0.6618 -0.3806
 3520SOL    HW114078   1.039   4.813   5.281 -0.5161 -0.3980 -0.1040
 3520SOL    HW214079   0.900   4.815   5.341 -0.7720  0.7937 -0.7019
 3520SOL     MW14080   0.954   4.832   5.274 -0.3000  0.5430 -0.3863
 3521SOL     OW14081  -0.003   4.392   0.956 -0.1485  0.1783 -0.0765
 3521SOL    HW114082   0.028   4.453   1.022 -1.5811 -0.9796  1.7460
 3521SOL    HW214083   0.070   4.331   0.944 -0.5155 -0.7230  1.8958
 3521SOL     MW14084   0.010   4.392   0.963 -0.3788 -0.0853  0.4093
 3522SOL     OW14085   4.270   4.819   0.048 -0.0249 -0.0855 -0.2991
 3522SOL    HW114086   4.290   4.905   0.084 -2.5818 -0.0004  1.2007
 3522SOL    HW214087   4.248   4.765   0.125  0.7109 -1.8605 -1.2670
 3522SOL     MW14088   4.270   4.823   0.062 -0.2580 -0.3018 -0.2310
 3523SOL     OW14089   1.564   3.584   2.726  0.2197  0.0604 -0.1884
 3523SOL    HW114090   1.572   3.618   2.636  1.1754 -0.2095 -0.2145
 3523SOL    HW214091   1.590   3.657   2.781 -0.2488  0.1860 -0.1254
 3523SOL     MW14092   1.568   3.598   2.721  0.2821  0.0419 -0.1836
 3524SOL     OW14093   0.542   5.140   3.317 -0.4642  0.0664  0.0738
 3524SOL    HW114094   0.587   5.225   3.319  2.6411 -1.4749  0.6521
 3524SOL    HW214095   0.572   5.094   3.395  0.0167 -2.5285 -1.5189
 3524SOL     MW14096   0.552   5.145   3.327 -0.0051 -0.4631 -0.0560
 3525SOL     OW14097   0.979   0.560   0.350 -0.0008  0.6618  0.1824
 3525SOL    HW114098   0.938   0.474   0.341  0.4760  0.2950  1.3303
 3525SOL    HW214099   1.073   0.541   0.354  0.1618  1.3132 -0.3729
 3525SOL     MW14100   0.986   0.547   0.349  0.0810  0.6982  0.2582
 3526SOL     OW14101   0.588   3.621   2.161  0.2855 -0.2707  0.1666
 3526SOL    HW114102   0.627   3.704   2.135 -2.4916  1.5005  1.2045
 3526SOL    HW214103   0.553   3.585   2.079  0.0129  0.4842 -0.0610
 3526SOL     MW14104   0.588   3.627   2.147 -0.1049  0.0527  0.2703
 3527SOL     OW14105   0.031   1.754   1.612  0.1341  0.0780  0.2047
 3527SOL    HW114106  -0.035   1.708   1.664  0.2514 -0.7482 -0.3533
 3527SOL    HW214107   0.059   1.690   1.547  2.6336 -0.1540  1.3826
 3527SOL     MW14108   0.026   1.740   1.611  0.4691 -0.0575  0.2840
 3528SOL     OW14109   1.354   1.018   0.165  0.2539  0.2835  0.1349
 3528SOL    HW114110   1.380   0.936   0.204 -0.6210  0.2344  0.6522
 3528SOL    HW214111   1.316   0.994   0.080  1.1866  0.2914 -0.2977
 3528SOL     MW14112   1.352   1.005   0.159  0.2613  0.2782  0.1458
 3529SOL     OW14113   4.148   5.185   1.982  0.1428 -0.3456  0.2773
 3529SOL    HW114114   4.054   5.204   1.983  0.2130  0.1220 -0.5496
 3529SOL    HW214115   4.154   5.093   1.955 -0.0383  0.2554 -2.0482
 3529SOL     MW14116   4.136   5.176   1.978  0.1286 -0.2088 -0.1263
 3530SOL     OW14117   3.340   4.917   1.032 -0.4319 -0.4026  0.3258
 3530SOL    HW114118   3.337   5.005   0.995  1.7819 -1.2865 -2.2411
 3530SOL    HW214119   3.260   4.874   1.000  0.1041 -0.2938 -1.2213
 3530SOL     MW14120   3.329   4.923   1.023 -0.0799 -0.5018 -0.2008
 3531SOL     OW14121   4.684   4.819   2.023  0.1942  0.5386  0.0283
 3531SOL    HW114122   4.738   4.890   1.988  1.3526 -0.0306  0.5861
 3531SOL    HW214123   4.605   4.862   2.054 -0.0177  1.3045 -1.4825
 3531SOL     MW14124   4.681   4.833   2.023  0.3153  0.5638 -0.0937
 3532SOL     OW14125   0.224   4.601   3.679  0.1386  0.7242 -0.2549
 3532SOL    HW114126   0.243   4.562   3.764  2.1313  1.6561 -0.1995
 3532SOL    HW214127   0.144   4.652   3.693  0.9219  1.6022  1.3624
 3532SOL     MW14128   0.216   4.603   3.691  0.4940  0.9559 -0.0408
 3533SOL     OW14129   1.555   1.111   2.024  0.0446  0.5021 -0.1558
 3533SOL    HW114130   1.471   1.119   2.070 -0.5792 -0.6971 -1.0057
 3533SOL    HW214131   1.600   1.040   2.069  0.1586  0.4612 -0.3353
 3533SOL     MW14132   1.550   1.103   2.036 -0.0207  0.3434 -0.2876
 3534SOL     OW14133   0.439   0.289   2.863  0.2628 -0.1500  0.0482
 3534SOL    HW114134   0.415   0.376   2.896  0.2592 -0.2237  0.2459
 3534SOL    HW214135   0.513   0.264   2.918 -0.6347 -0.8788  0.9706
 3534SOL     MW14136   0.445   0.297   2.875  0.1474 -0.2527  0.1916
 3535SOL     OW14137   3.760   1.735   2.993 -0.0702 -0.3033  0.1579
 3535SOL    HW114138   3.679   1.722   2.944 -0.5480  0.7326  0.6443
 3535SOL    HW214139   3.825   1.756   2.927 -0.3909 -0.2784 -0.1531
 3535SOL     MW14140   3.758   1.736   2.978 -0.1724 -0.1675  0.1804
 3536SOL     OW14141   3.537   0.612   0.344 -0.3318 -0.2796 -0.1725
 3536SOL    HW114142   3.496   0.587   0.427 -0.2961  0.4744  0.0871
 3536SOL    HW214143   3.606   0.547   0.331 -1.3021 -1.2978 -0.3883
 3536SOL     MW14144   3.541   0.601   0.353 -0.4515 -0.3134 -0.1669
 3537SOL     OW14145   5.133   2.820   0.906 -0.3133 -0.2606  0.2361
 3537SOL    HW114146   5.102   2.864   0.985 -0.1930  0.7820 -0.2745
 3537SOL    HW214147   5.057   2.771   0.874 -1.0350  1.0865 -0.1929
 3537SOL     MW14148   5.119   2.819   0.912 -0.3903  0.0453  0.1158
 3538SOL     OW14149   0.683   2.870   1.162  0.1322 -0.4284 -0.4945
 3538SOL    HW114150   0.653   2.779   1.161  0.2104 -0.5081  1.3962
 3538SOL    HW214151   0.705   2.889   1.070  0.3203 -2.3631 -0.8878
 3538SOL     MW14152   0.682   2.861   1.150  0.1663 -0.6863 -0.3028
 3539SOL     OW14153   4.819   3.023   3.070  0.4834 -0.1669  0.2310
 3539SOL    HW114154   4.891   3.045   3.010  0.4264 -0.5842  0.0071
 3539SOL    HW214155   4.748   3.081   3.044  0.9089  0.6483  0.8173
 3539SOL     MW14156   4.819   3.033   3.059  0.5306 -0.1159  0.2774
 3540SOL     OW14157   0.787   0.256   0.064 -0.6544 -0.2429  0.0977
 3540SOL    HW114158   0.750   0.170   0.043  0.9223 -0.9107 -0.0454
 3540SOL    HW214159   0.879   0.249   0.040 -0.3438  1.2649  0.7615
 3540SOL     MW14160   0.794   0.244   0.059 -0.4128 -0.1354  0.1643
 3541SOL     OW14161   3.242   0.652   4.663  0.2099 -0.0160  0.5162
 3541SOL    HW114162   3.207   0.565   4.644 -0.6303  0.2910  0.6537
 3541SOL    HW214163   3.329   0.634   4.699  0.0030 -0.8048  0.6545
 3541SOL     MW14164   3.249   0.638   4.665  0.0759 -0.0777  0.5515
 3542SOL     OW14165   3.974   1.741   0.258 -0.1654  0.1620  0.0921
 3542SOL    HW114166   3.958   1.825   0.301  0.8645  0.4282 -0.0310
 3542SOL    HW214167   4.046   1.701   0.307  1.4168  0.7105 -1.6612
 3542SOL     MW14168   3.981   1.746   0.270  0.1690  0.2663 -0.1481
 3543SOL     OW14169   5.321   1.407   3.862  0.2486 -0.2271  0.2740
 3543SOL    HW114170   5.401   1.384   3.814  0.3566  0.8925 -0.1016
 3543SOL    HW214171   5.325   1.352   3.941  0.4269 -1.5488 -0.6247
 3543SOL     MW14172   5.332   1.397   3.866  0.2853 -0.2530  0.1109
 3544SOL     OW14173   2.535   5.012   1.619  0.2767  0.3351 -0.3671
 3544SOL    HW114174   2.470   5.081   1.610  0.5112  0.4413 -1.4578
 3544SOL    HW214175   2.490   4.932   1.592  0.6539  0.4554 -1.4186
 3544SOL     MW14176   2.521   5.011   1.614  0.3550  0.3641 -0.6413
 3545SOL     OW14177   3.987   3.157   3.096 -0.1323 -0.8336  0.2462
 3545SOL    HW114178   4.008   3.249   3.080 -1.9161 -0.1280  1.6098
 3545SOL    HW214179   4.017   3.112   3.017  2.0676  0.6769  0.1136
 3545SOL     MW14180   3.994   3.163   3.084 -0.0790 -0.5499  0.4038
 3546SOL     OW14181   2.546   0.812   3.157  0.5777 -0.4974  0.4583
 3546SOL    HW114182   2.510   0.773   3.077 -1.2826  1.3793  0.2882
 3546SOL    HW214183   2.489   0.779   3.226  0.3492  0.1980  0.6028
 3546SOL     MW14184   2.534   0.803   3.155  0.3103 -0.1682  0.4550
 3547SOL     OW14185   3.067   1.145   1.306  0.0189  0.6959  0.4498
 3547SOL    HW114186   3.083   1.084   1.234  1.1510 -2.2835  3.0141
 3547SOL    HW214187   2.977   1.129   1.332  0.4562 -0.3304  1.4227
 3547SOL     MW14188   3.058   1.135   1.300  0.2198  0.1831  0.9026
 3548SOL     OW14189   0.773   5.217   2.208 -0.1630  0.1712 -0.1690
 3548SOL    HW114190   0.832   5.143   2.222 -0.8355 -1.0406 -3.1371
 3548SOL    HW214191   0.687   5.185   2.235 -0.8391 -1.0035 -3.2851
 3548SOL     MW14192   0.769   5.204   2.213 -0.3356 -0.1343 -0.9478
 3549SOL     OW14193   1.239   0.329   1.669  0.3133 -0.8442  0.3893
 3549SOL    HW114194   1.255   0.412   1.623 -1.6778 -0.5616  0.1066
 3549SOL    HW214195   1.218   0.355   1.759 -1.6838 -0.8700 -0.0232
 3549SOL     MW14196   1.238   0.343   1.675 -0.1972 -0.8113  0.3003
 3550SOL     OW14197   4.900   1.938   3.120 -0.6352  0.0543  0.3878
 3550SOL    HW114198   4.897   1.848   3.151 -0.8240 -0.0708  0.0128
 3550SOL    HW214199   4.952   1.934   3.040 -0.9879  0.2073  0.1478
 3550SOL     MW14200   4.906   1.926   3.114 -0.7045  0.0579  0.3090
 3551SOL     OW14201   2.486   4.524   1.935  0.2127 -0.7535 -0.5084
 3551SOL    HW114202   2.464   4.434   1.912  1.0912 -0.8625 -0.9973
 3551SOL    HW214203   2.581   4.523   1.945  0.0954 -0.1566  0.7648
 3551SOL     MW14204   2.496   4.513   1.933  0.3102 -0.6911 -0.4080
 3552SOL     OW14205   3.513   1.393   3.662  0.1284 -0.0395 -0.4390
 3552SOL    HW114206   3.538   1.333   3.592  1.2107  0.7767 -0.7704
 3552SOL    HW214207   3.454   1.455   3.619 -2.1425 -1.5952  0.2032
 3552SOL     MW14208   3.508   1.393   3.648 -0.0238 -0.1341 -0.3992
 3553SOL     OW14209   4.212   4.049   5.206  0.3887  0.5547  0.7312
 3553SOL    HW114210   4.166   4.121   5.249  0.5886  0.8676  0.4298
 3553SOL    HW214211   4.147   4.013   5.145  0.2782  0.4626  0.9057
 3553SOL     MW14212   4.198   4.054   5.203  0.4002  0.5830  0.7149
 3554SOL     OW14213   1.400   1.174   4.615 -0.4692  0.2010  0.0449
 3554SOL    HW114214   1.482   1.128   4.596 -0.3145  0.4308  0.1540
 3554SOL    HW214215   1.378   1.148   4.704 -1.3844 -1.1634 -0.5336
 3554SOL     MW14216   1.408   1.165   4.624 -0.5666  0.0558 -0.0152
 3555SOL     OW14217   2.991   3.087   0.290  0.2179 -0.2153 -0.1899
 3555SOL    HW114218   2.961   3.033   0.363  0.8495  0.2317  0.4062
 3555SOL    HW214219   2.957   3.174   0.309 -0.0325 -0.1959 -0.6909
 3555SOL     MW14220   2.983   3.091   0.302  0.2667 -0.1556 -0.1777
 3556SOL     OW14221   4.645   0.735   3.598  0.1325 -0.8425  0.0655
 3556SOL    HW114222   4.558   0.725   3.636  0.0348 -1.4094 -0.2989
 3556SOL    HW214223   4.686   0.804   3.650 -0.8185 -0.0029 -0.2873
 3556SOL     MW14224   4.639   0.742   3.610 -0.0017 -0.8076 -0.0263
 3557SOL     OW14225   1.313   1.550   0.740  0.1755 -0.1729 -0.3810
 3557SOL    HW114226   1.257   1.590   0.806  0.9091  0.5628 -0.1992
 3557SOL    HW214227   1.269   1.467   0.719 -0.4020 -0.1188  0.5513
 3557SOL     MW14228   1.300   1.544   0.746  0.1955 -0.0718 -0.2384
 3558SOL     OW14229   4.548   2.026   0.887  0.0204  0.2198 -0.4547
 3558SOL    HW114230   4.608   1.958   0.917  1.2100  1.3411 -0.1902
 3558SOL    HW214231   4.480   1.979   0.838  0.8702 -1.1233 -0.3807
 3558SOL     MW14232   4.547   2.011   0.884  0.2814  0.1914 -0.4114
 3559SOL     OW14233   0.605   0.571   2.004 -0.0696 -0.0845  0.0807
 3559SOL    HW114234   0.635   0.488   1.967 -0.4711  0.2177 -0.9568
 3559SOL    HW214235   0.557   0.546   2.083  0.0671 -0.8089 -0.0569
 3559SOL     MW14236   0.603   0.557   2.010 -0.1035 -0.1385 -0.0697
 3560SOL     OW14237   4.302   0.635   2.230  0.1167 -0.1977 -0.3159
 3560SOL    HW114238   4.240   0.567   2.259 -0.5801  0.6270  0.1904
 3560SOL    HW214239   4.382   0.616   2.279 -0.5461  0.2179  0.9944
 3560SOL     MW14240   4.304   0.624   2.240 -0.0573 -0.0390 -0.0834
 3561SOL     OW14241   3.444   0.323   0.644 -0.4757 -0.0055 -0.3613
 3561SOL    HW114242   3.374   0.263   0.621  1.2277 -1.6929 -1.4207
 3561SOL    HW214243   3.488   0.282   0.719 -0.9867  1.3818  0.7565
 3561SOL     MW14244   3.441   0.310   0.651 -0.3230 -0.0439 -0.3538
 3562SOL     OW14245   1.797   0.793   2.915  0.2603  0.1494  0.2903
 3562SOL    HW114246   1.718   0.740   2.921 -0.6966  1.4513 -0.3527
 3562SOL    HW214247   1.853   0.747   2.853 -1.5167  0.9938 -2.0704
 3562SOL     MW14248   1.794   0.781   2.908 -0.0897  0.4242 -0.0942
 3563SOL     OW14249   1.082   1.665   0.132  0.3722  0.0392 -0.3314
 3563SOL    HW114250   1.125   1.702   0.056  0.8620  0.3370  0.0873
 3563SOL    HW214251   1.095   1.730   0.201  0.3004 -0.4217  0.1180
 3563SOL     MW14252   1.089   1.678   0.131  0.4257  0.0183 -0.2203
 3564SOL     OW14253   2.749   3.809   0.638 -0.5099  0.1839 -0.6023
 3564SOL    HW114254   2.755   3.773   0.550 -0.3080  0.6570 -0.7827
 3564SOL    HW214255   2.821   3.872   0.644  1.5778 -2.1298  0.9647
 3564SOL     MW14256   2.759   3.812   0.628 -0.2168 -0.0517 -0.4248
 3565SOL     OW14257   5.298   3.275   2.923  0.7279 -0.8011 -0.4573
 3565SOL    HW114258   5.385   3.237   2.931  0.9172 -0.2227  0.3518
 3565SOL    HW214259   5.313   3.363   2.887  0.6182 -0.2070  0.8768
 3565SOL     MW14260   5.311   3.282   2.919  0.7381 -0.6510 -0.1829
 3566SOL     OW14261   1.866   2.061   1.972 -0.7081  0.3709  0.0856
 3566SOL    HW114262   1.873   2.056   1.876 -1.7439 -3.9173  0.0359
 3566SOL    HW214263   1.946   2.106   1.999  0.4320  0.2717 -2.7405
 3566SOL     MW14264   1.877   2.066   1.963 -0.6948 -0.1908 -0.2825
 3567SOL     OW14265   5.099   4.007   2.752 -0.2309  0.1756 -0.1894
 3567SOL    HW114266   5.091   3.927   2.700 -0.6081  0.1057 -0.0257
 3567SOL    HW214267   5.079   4.077   2.690  1.5324  0.2659 -0.7160
 3567SOL     MW14268   5.096   4.006   2.737 -0.0535  0.1782 -0.2359
 3568SOL     OW14269   1.166   4.277   1.573  0.2351 -0.5407  0.2264
 3568SOL    HW114270   1.102   4.346   1.555  0.4089 -0.7079 -1.1275
 3568SOL    HW214271   1.242   4.302   1.520  0.5682 -1.3952  0.2988
 3568SOL     MW14272   1.168   4.289   1.564  0.3000 -0.6715  0.0624
 3569SOL     OW14273   1.655   3.248   4.488  0.6006 -0.7137 -0.5044
 3569SOL    HW114274   1.565   3.240   4.520  0.1898  1.2328 -0.9970
 3569SOL    HW214275   1.699   3.304   4.552  1.3886 -1.4298 -0.4094
 3569SOL     MW14276   1.649   3.254   4.500  0.6489 -0.5562 -0.5553
 3570SOL     OW14277   0.620   4.930   1.549 -0.2226  0.0339 -0.1848
 3570SOL    HW114278   0.702   4.954   1.591 -0.0635  0.6956 -0.8632
 3570SOL    HW214279   0.605   4.998   1.484 -0.4369 -0.9948 -1.2493
 3570SOL     MW14280   0.628   4.942   1.546 -0.2296 -0.0131 -0.4079
 3571SOL     OW14281   1.051   2.279   2.284  1.1118  0.0403 -0.0415
 3571SOL    HW114282   1.108   2.205   2.262  1.9114  0.6210  0.0233
 3571SOL    HW214283   1.062   2.290   2.379 -0.9111 -1.2942  0.4124
 3571SOL     MW14284   1.060   2.271   2.294  0.9552 -0.0562  0.0249
 3572SOL     OW14285   2.852   1.752   1.732 -0.1004 -0.0567 -0.2287
 3572SOL    HW114286   2.927   1.695   1.715  0.8798  0.9332  0.6622
 3572SOL    HW214287   2.839   1.747   1.826 -1.4084 -0.5031 -0.4159
 3572SOL     MW14288   2.860   1.744   1.742 -0.1424  0.0129 -0.1386
 3573SOL     OW14289   3.790   2.879   2.981  0.2403  0.3030  0.1084
 3573SOL    HW114290   3.766   2.892   3.073 -0.7301  0.5594 -0.1689
 3573SOL    HW214291   3.819   2.789   2.977 -1.0599 -0.1545  0.4081
 3573SOL     MW14292   3.790   2.869   2.992 -0.0503  0.2773  0.1113
 3574SOL     OW14293   2.739   3.846   1.620  0.7056  0.1748  0.0323
 3574SOL    HW114294   2.828   3.870   1.594  1.5395 -1.4057  1.2246
 3574SOL    HW214295   2.700   3.810   1.541  2.2004 -1.8902  0.1304
 3574SOL     MW14296   2.746   3.844   1.607  1.0037 -0.2919  0.1975
 3575SOL     OW14297   1.262   2.095   3.622  0.1120  0.3419  0.2744
 3575SOL    HW114298   1.238   2.170   3.567 -1.0262  0.9922  1.5730
 3575SOL    HW214299   1.231   2.119   3.710 -0.3339 -1.6695  0.7311
 3575SOL     MW14300   1.255   2.108   3.626 -0.0908  0.1676  0.4991
 3576SOL     OW14301   4.448   5.163   2.193  0.0203  0.4550 -0.4815
 3576SOL    HW114302   4.498   5.157   2.274  1.9096  1.0723 -1.5286
 3576SOL    HW214303   4.356   5.167   2.221  0.5364 -0.5608  1.5288
 3576SOL     MW14304   4.442   5.163   2.207  0.3282  0.4040 -0.3582
 3577SOL     OW14305   0.683   0.472   2.273 -0.3702 -0.5748  0.6179
 3577SOL    HW114306   0.772   0.484   2.239 -0.4881 -2.2622 -0.4105
 3577SOL    HW214307   0.669   0.378   2.270 -1.5643 -0.5074  2.4877
 3577SOL     MW14308   0.693   0.462   2.268 -0.5381 -0.7822  0.7256
 3578SOL     OW14309   1.839   0.941   0.302  0.6885  0.0197  0.1829
 3578SOL    HW114310   1.847   1.022   0.352 -0.1081  0.5892 -0.5595
 3578SOL    HW214311   1.929   0.912   0.287  0.9547  0.2638  1.2388
 3578SOL     MW14312   1.851   0.948   0.306  0.6206  0.1238  0.2231
 3579SOL     OW14313   1.284   5.301   5.018 -0.2715  0.5971  0.0547
 3579SOL    HW114314   1.270   5.209   5.038  0.2425  0.3756 -0.5617
 3579SOL    HW214315   1.253   5.311   4.927 -1.8438  1.4003  0.6331
 3579SOL     MW14316   1.278   5.290   5.009 -0.4070  0.6716  0.0499
 3580SOL     OW14317   4.526   1.872   2.267  0.1500  0.1803  0.1096
 3580SOL    HW114318   4.565   1.916   2.342 -0.4195 -0.6353  0.9084
 3580SOL    HW214319   4.434   1.898   2.268 -0.0938 -0.6619  0.3322
 3580SOL     MW14320   4.519   1.881   2.277  0.0459 -0.0320  0.2404
 3581SOL     OW14321   2.737   1.506   0.628 -0.0501 -0.6989  0.6764
 3581SOL    HW114322   2.754   1.600   0.615 -1.0511 -0.4366  1.1038
 3581SOL    HW214323   2.680   1.482   0.555 -1.3124 -0.5046  1.5498
 3581SOL     MW14324   2.732   1.515   0.617 -0.3398 -0.6405  0.8429
 3582SOL     OW14325   4.680   2.031   0.056 -1.1219 -0.0396 -0.0381
 3582SOL    HW114326   4.603   2.086   0.073 -1.0476 -0.3514  1.4458
 3582SOL    HW214327   4.676   1.963   0.123  0.8019  0.3071  0.4855
 3582SOL     MW14328   4.669   2.029   0.067 -0.8661 -0.0352  0.2189
 3583SOL     OW14329   2.050   3.502   5.248 -0.0538 -0.2209 -0.0027
 3583SOL    HW114330   2.001   3.581   5.225 -1.3489 -0.7745  0.7655
 3583SOL    HW214331   1.986   3.431   5.239  1.0202 -1.1720 -0.4450
 3583SOL     MW14332   2.036   3.503   5.244 -0.0821 -0.4135  0.0390
 3584SOL     OW14333   0.195   2.399   1.580 -0.2756  0.1345 -0.0705
 3584SOL    HW114334   0.211   2.362   1.666 -0.8041  2.4695  1.1316
 3584SOL    HW214335   0.246   2.480   1.579 -1.0553  0.6454 -1.5620
 3584SOL     MW14336   0.203   2.405   1.591 -0.4430  0.4988 -0.1075
 3585SOL     OW14337   4.631   1.159   0.609  0.0609 -0.0540  0.6751
 3585SOL    HW114338   4.696   1.189   0.672 -1.6225  1.2047  1.8890
 3585SOL    HW214339   4.683   1.118   0.539  2.0554 -0.1963  2.1545
 3585SOL     MW14340   4.646   1.157   0.608  0.1007  0.0889  1.0199
 3586SOL     OW14341   0.975   3.468   2.026  0.3352  0.3759 -0.1776
 3586SOL    HW114342   0.960   3.562   2.014 -2.8146 -0.1491 -1.2224
 3586SOL    HW214343   0.952   3.452   2.117 -1.0316  0.3482 -0.5114
 3586SOL     MW14344   0.970   3.478   2.036 -0.2430  0.3052 -0.3541
 3587SOL     OW14345   2.121   0.336   0.615 -0.2047  0.2679 -0.2354
 3587SOL    HW114346   2.094   0.267   0.675 -0.1877 -1.1338 -1.7700
 3587SOL    HW214347   2.043   0.353   0.562  0.3860 -0.0926 -1.2486
 3587SOL     MW14348   2.108   0.329   0.616 -0.1269  0.0423 -0.5615
 3588SOL     OW14349   3.135   4.519   1.008 -0.4645  0.8735 -0.1750
 3588SOL    HW114350   3.146   4.513   1.103 -0.0559  0.9935 -0.2147
 3588SOL    HW214351   3.137   4.613   0.989  3.3487  0.8258 -0.7422
 3588SOL     MW14352   3.136   4.531   1.018  0.0759  0.8828 -0.2527
 3589SOL     OW14353   4.088   5.221   4.406 -0.1154  0.8683 -0.2952
 3589SOL    HW114354   4.045   5.306   4.394  0.6866  1.0457 -2.3009
 3589SOL    HW214355   4.171   5.230   4.361  1.5102  0.0683  2.3330
 3589SOL     MW14356   4.093   5.233   4.399  0.1954  0.7886 -0.2155
 3590SOL     OW14357   3.282   1.899   1.371 -0.2382  0.1100  0.5893
 3590SOL    HW114358   3.249   1.968   1.314 -1.5686 -1.0601 -0.1052
 3590SOL    HW214359   3.205   1.862   1.413  0.5204 -0.4468  1.5527
 3590SOL     MW14360   3.268   1.903   1.369 -0.3114 -0.1110  0.6237
 3591SOL     OW14361   1.887   2.245   3.141  0.0317  0.0011  0.6588
 3591SOL    HW114362   1.865   2.163   3.099  1.0740 -0.9687  1.9206
 3591SOL    HW214363   1.855   2.236   3.231  1.5711  0.2940  1.2758
 3591SOL     MW14364   1.880   2.234   3.147  0.3622 -0.0856  0.8993
 3592SOL     OW14365   2.215   1.903   4.495  0.3542 -0.0294 -0.1052
 3592SOL    HW114366   2.310   1.896   4.487  0.4012  0.2681  0.1656
 3592SOL    HW214367   2.183   1.817   4.469  0.7980 -0.6306  1.2317
 3592SOL     MW14368   2.223   1.891   4.491  0.4170 -0.0683  0.1006
 3593SOL     OW14369   4.848   3.426   1.610  0.0400  0.1247 -1.0071
 3593SOL    HW114370   4.851   3.342   1.655  0.2082 -0.3530 -1.8749
 3593SOL    HW214371   4.881   3.490   1.674 -0.2500 -0.4384 -0.2865
 3593SOL     MW14372   4.853   3.424   1.624  0.0244 -0.0085 -1.0260
 3594SOL     OW14373   1.937   1.109   0.104  0.4615 -0.0687 -0.4647
 3594SOL    HW114374   1.893   1.085   0.186  0.2243 -0.4370 -0.6991
 3594SOL    HW214375   1.886   1.183   0.071  0.6939  0.2287 -0.1650
 3594SOL     MW14376   1.925   1.115   0.110  0.4609 -0.0778 -0.4563
 3595SOL     OW14377   0.361   0.158   4.876 -0.2895  0.6348  0.1635
 3595SOL    HW114378   0.378   0.195   4.790  0.9275  0.1408  0.1668
 3595SOL    HW214379   0.441   0.176   4.926 -0.4066 -0.3353  0.7359
 3595SOL     MW14380   0.373   0.165   4.872 -0.1487  0.4474  0.2372
 3596SOL     OW14381   0.505   4.302   3.629 -0.5691 -0.6323 -0.1791
 3596SOL    HW114382   0.426   4.266   3.588  0.0507 -0.2440 -1.8181
 3596SOL    HW214383   0.547   4.227   3.671 -0.9118 -1.2082 -0.8341
 3596SOL     MW14384   0.501   4.288   3.629 -0.5336 -0.6563 -0.4728
 3597SOL     OW14385   4.913   2.660   0.249 -0.4593 -0.4458  0.6730
 3597SOL    HW114386   4.916   2.731   0.185  0.7543  0.3996  1.6498
 3597SOL    HW214387   4.976   2.596   0.216 -1.4338 -1.0344 -0.1184
 3597SOL     MW14388   4.921   2.661   0.236 -0.4287 -0.4130  0.6968
 3598SOL     OW14389   3.738   0.350   4.178 -0.0640 -0.1384  0.0100
 3598SOL    HW114390   3.745   0.289   4.252  0.0646 -0.5690 -0.3554
 3598SOL    HW214391   3.784   0.428   4.208 -0.3763 -0.1533  0.5462
 3598SOL     MW14392   3.745   0.352   4.191 -0.0875 -0.1954  0.0319
 3599SOL     OW14393   4.839   0.692   5.416 -0.0517 -0.4476 -0.6336
 3599SOL    HW114394   4.920   0.733   5.385 -0.4567  2.4340  1.7098
 3599SOL    HW214395   4.774   0.763   5.413 -1.3520 -1.4500  1.7322
 3599SOL     MW14396   4.841   0.706   5.411 -0.2700 -0.2071 -0.0307
 3600SOL     OW14397   3.690   2.430   2.166 -0.2978  0.1051  0.9527
 3600SOL    HW114398   3.718   2.338   2.171  1.2371  0.4637 -0.1541
 3600SOL    HW214399   3.764   2.475   2.124 -1.5955  1.6011  0.1746
 3600SOL     MW14400   3.703   2.424   2.161 -0.2674  0.3425  0.7114
 3601SOL     OW14401   2.878   0.570   3.721 -0.3010 -0.0384 -0.2882
 3601SOL    HW114402   2.856   0.641   3.661  0.0866 -1.0029 -1.6073
 3601SOL    HW214403   2.793   0.533   3.747 -0.5757  1.4892  1.2198
 3601SOL     MW14404   2.864   0.574   3.717 -0.2865  0.0337 -0.2640
 3602SOL     OW14405   3.954   4.433   0.063 -0.1426  0.7909  0.3228
 3602SOL    HW114406   4.001   4.385  -0.005  0.5905  0.6931  0.8978
 3602SOL    HW214407   3.867   4.448   0.025 -0.2144 -0.5057 -0.0849
 3602SOL     MW14408   3.949   4.429   0.049 -0.0580  0.6124  0.3442
 3603SOL     OW14409   4.297   3.722   1.963  0.1163 -0.1240 -0.2766
 3603SOL    HW114410   4.353   3.668   2.019  1.2721  1.7236  0.4325
 3603SOL    HW214411   4.356   3.759   1.898 -0.3946  1.2835  0.0330
 3603SOL     MW14412   4.312   3.720   1.962  0.1989  0.2927 -0.1462
 3604SOL     OW14413   3.051   2.798   1.703  0.3552  0.6083 -0.4466
 3604SOL    HW114414   3.067   2.888   1.730  0.3479  0.3242  0.5421
 3604SOL    HW214415   2.983   2.767   1.763  0.7208 -0.2150 -0.4421
 3604SOL     MW14416   3.044   2.806   1.714  0.4011  0.4665 -0.3195
 3605SOL     OW14417   5.204   2.355   0.751  0.2138 -0.6922 -0.1560
 3605SOL    HW114418   5.252   2.417   0.696 -3.2657  1.1975 -1.3679
 3605SOL    HW214419   5.153   2.303   0.690  0.7840 -2.7858  1.0444
 3605SOL     MW14420   5.203   2.356   0.736 -0.1586 -0.7183 -0.1575
 3606SOL     OW14421   0.883   2.883   2.831 -0.3455  0.8312  0.0691
 3606SOL    HW114422   0.882   2.787   2.840  1.5893  0.9576  3.3386
 3606SOL    HW214423   0.905   2.898   2.739 -0.1168 -1.8662 -0.4032
 3606SOL     MW14424   0.886   2.872   2.821 -0.0685  0.5021  0.4272
 3607SOL     OW14425   1.924   3.991   3.363  0.3378  0.2262  0.1228
 3607SOL    HW114426   1.870   3.915   3.341  0.4633 -0.1551  1.0663
 3607SOL    HW214427   1.862   4.065   3.362  0.1251  0.0422 -0.3654
 3607SOL     MW14428   1.909   3.991   3.360  0.3266  0.1539  0.1811
 3608SOL     OW14429   2.721   4.802   5.064  0.1721  0.3499  0.0669
 3608SOL    HW114430   2.636   4.845   5.072  0.3576  0.4327  2.3177
 3608SOL    HW214431   2.733   4.758   5.148  1.5753 -1.1654 -0.8702
 3608SOL     MW14432   2.712   4.802   5.076  0.3755  0.1665  0.2350
 3609SOL     OW14433   2.524   2.682   1.543 -0.0622  0.1716 -0.1915
 3609SOL    HW114434   2.441   2.645   1.571 -0.2940  0.7060 -0.1677
 3609SOL    HW214435   2.520   2.774   1.570  0.7601  0.0677  0.3052
 3609SOL     MW14436   2.513   2.689   1.550  0.0134  0.2267 -0.1248
 3610SOL     OW14437   4.817   3.754   3.061 -0.4715 -0.4413  0.1728
 3610SOL    HW114438   4.836   3.782   2.972  1.6402 -0.1405  0.6646
 3610SOL    HW214439   4.746   3.812   3.089 -1.0655 -0.4464 -1.2544
 3610SOL     MW14440   4.810   3.765   3.054 -0.2772 -0.4034  0.0530
 3611SOL     OW14441   1.404   1.647   4.820 -0.4541 -0.5816 -0.1197
 3611SOL    HW114442   1.336   1.670   4.884 -1.0063 -2.3713  0.0082
 3611SOL    HW214443   1.360   1.585   4.761  1.0204 -1.6287 -0.1503
 3611SOL     MW14444   1.389   1.642   4.821 -0.3360 -0.9447 -0.1073
 3612SOL     OW14445   4.285   0.805   3.130 -0.3011  0.1468 -0.0666
 3612SOL    HW114446   4.319   0.806   3.219 -0.9651 -0.0485  0.1962
 3612SOL    HW214447   4.270   0.897   3.109 -0.4931  0.1665  0.1597
 3612SOL     MW14448   4.287   0.817   3.138 -0.4107  0.1243 -0.0040
 3613SOL     OW14449   3.628   4.409   0.626 -1.0250 -0.3258  0.0721
 3613SOL    HW114450   3.592   4.342   0.684  1.2950 -0.2494  1.7628
 3613SOL    HW214451   3.718   4.380   0.608  0.0065  2.1789  0.7303
 3613SOL     MW14452   3.635   4.397   0.631 -0.5960  0.0046  0.3728
 3614SOL     OW14453   1.558   3.139   3.003 -0.2578 -0.2829  0.4002
 3614SOL    HW114454   1.612   3.066   2.972 -0.0353 -0.2750  0.7615
 3614SOL    HW214455   1.571   3.208   2.939 -0.4218 -0.5378  0.0868
 3614SOL     MW14456   1.566   3.138   2.991 -0.2503 -0.3145  0.4063
 3615SOL     OW14457   5.148   2.800   3.247 -0.2151 -0.0903 -0.3470
 3615SOL    HW114458   5.094   2.786   3.169 -0.0659  1.2437 -0.7191
 3615SOL    HW214459   5.232   2.830   3.213 -0.3929  1.2515  0.3250
 3615SOL     MW14460   5.152   2.802   3.232 -0.2188  0.2523 -0.3086
 3616SOL     OW14461   1.373   5.480   0.911 -0.7648 -0.2100 -0.6365
 3616SOL    HW114462   1.363   5.385   0.901  1.5023 -0.6974  0.8455
 3616SOL    HW214463   1.437   5.490   0.982 -0.8111  2.4382 -0.8589
 3616SOL     MW14464   1.380   5.469   0.919 -0.4805  0.0666 -0.4753
 3617SOL     OW14465   4.224   4.776   4.530 -0.0304  0.2787 -0.0307
 3617SOL    HW114466   4.227   4.769   4.435 -0.0110  0.9969 -0.0858
 3617SOL    HW214467   4.171   4.701   4.557 -0.9000  0.6267 -0.6892
 3617SOL     MW14468   4.217   4.766   4.521 -0.1392  0.4152 -0.1221
 3618SOL     OW14469   1.505   2.666   3.216  0.3189  0.5268 -0.5349
 3618SOL    HW114470   1.549   2.667   3.131  1.3102  0.8959 -0.0362
 3618SOL    HW214471   1.572   2.697   3.277 -0.5256  0.7166  0.3076
 3618SOL     MW14472   1.519   2.670   3.213  0.3377  0.5983 -0.3632
 3619SOL     OW14473   4.381   0.416   3.697  0.3646 -0.2576 -0.1549
 3619SOL    HW114474   4.351   0.506   3.712 -1.8931 -1.2905  2.5009
 3619SOL    HW214475   4.472   0.416   3.724  0.4607  1.2738 -0.3812
 3619SOL     MW14476   4.389   0.428   3.703  0.0879 -0.1938  0.1561
 3620SOL     OW14477   5.407   5.062   4.312 -0.1052  0.0084 -0.2053
 3620SOL    HW114478   5.465   5.138   4.309 -0.0763 -0.0306 -0.8039
 3620SOL    HW214479   5.392   5.047   4.405  0.6850  0.1376 -0.0495
 3620SOL     MW14480   5.412   5.070   4.323 -0.0004  0.0199 -0.2620
 3621SOL     OW14481   4.777   1.951   2.142  0.1604 -0.2028 -0.8649
 3621SOL    HW114482   4.690   1.966   2.179  0.9832  1.2216  0.6250
 3621SOL    HW214483   4.828   1.916   2.215  1.0799 -0.1074 -1.4544
 3621SOL     MW14484   4.772   1.948   2.156  0.3834 -0.0082 -0.7496
 3622SOL     OW14485   1.188   2.362   1.789 -0.1932  0.0212  0.1298
 3622SOL    HW114486   1.127   2.435   1.796  0.2061  0.5365 -1.3151
 3622SOL    HW214487   1.134   2.286   1.773 -0.4678  0.5904 -1.8964
 3622SOL     MW14488   1.173   2.362   1.788 -0.1772  0.1600 -0.3145
 3623SOL     OW14489   4.582   0.039   3.007  0.6008 -0.0063 -0.6033
 3623SOL    HW114490   4.541  -0.019   3.072  0.0873  0.3672 -0.5894
 3623SOL    HW214491   4.540   0.016   2.924  0.4419  0.2999 -0.6094
 3623SOL     MW14492   4.572   0.028   3.005  0.5147  0.0807 -0.6023
 3624SOL     OW14493   4.280   0.517   4.918  0.2976 -0.4195  0.3824
 3624SOL    HW114494   4.280   0.532   4.823  0.3975  0.6905  0.5386
 3624SOL    HW214495   4.275   0.605   4.956 -0.7453 -0.8927  1.4120
 3624SOL     MW14496   4.279   0.530   4.911  0.1769 -0.3380  0.5342
 3625SOL     OW14497   3.350   0.949   4.740  0.3801 -0.0580  0.1053
 3625SOL    HW114498   3.284   0.968   4.674  0.9639  0.3614 -0.3695
 3625SOL    HW214499   3.315   0.985   4.821 -0.9310 -1.6841  0.3286
 3625SOL     MW14500   3.337   0.956   4.742  0.2870 -0.2125  0.0731
 3626SOL     OW14501   1.297   3.518   4.334 -0.1412 -0.0620 -0.2616
 3626SOL    HW114502   1.323   3.607   4.313 -1.5119  1.4540  3.6264
 3626SOL    HW214503   1.205   3.512   4.308  0.0724 -0.5312 -0.9372
 3626SOL     MW14504   1.289   3.528   4.328 -0.2893  0.0720  0.1496
 3627SOL     OW14505   3.988   1.296   2.347  0.2898 -0.2268 -0.0457
 3627SOL    HW114506   4.002   1.286   2.253  2.9679  0.2460  0.2285
 3627SOL    HW214507   4.008   1.210   2.383 -0.3691 -0.3057  0.1392
 3627SOL     MW14508   3.993   1.284   2.340  0.5483 -0.1764  0.0131
 3628SOL     OW14509   3.848   1.445   3.760 -0.3417  0.0344  0.6778
 3628SOL    HW114510   3.941   1.431   3.775 -0.2766 -0.1280  0.1169
 3628SOL    HW214511   3.815   1.359   3.734 -0.3035  0.4673 -0.8938
 3628SOL     MW14512   3.856   1.432   3.759 -0.3285  0.0690  0.4048
 3629SOL     OW14513   4.809   0.513   3.679  0.3541 -0.0151 -0.1290
 3629SOL    HW114514   4.746   0.582   3.660 -0.3623 -0.3947  0.7989
 3629SOL    HW214515   4.817   0.514   3.775  1.4619 -0.2361 -0.2049
 3629SOL     MW14516   4.802   0.522   3.689  0.4042 -0.0920 -0.0200
 3630SOL     OW14517   3.074   0.530   2.929  0.0013 -0.0775 -0.2156
 3630SOL    HW114518   3.122   0.450   2.905  1.2096  0.2551  0.9445
 3630SOL    HW214519   3.143   0.594   2.946 -0.7980  0.2788  2.0258
 3630SOL     MW14520   3.089   0.528   2.928  0.0537  0.0107  0.2199
 3631SOL     OW14521   0.333   1.808   2.453 -0.0341 -0.0651 -0.0010
 3631SOL    HW114522   0.293   1.722   2.439 -0.0557  0.0341 -0.5980
 3631SOL    HW214523   0.270   1.870   2.415 -0.9827  0.4063  2.2025
 3631SOL     MW14524   0.320   1.805   2.446 -0.1583  0.0079  0.2046
 3632SOL     OW14525   5.345   2.662   0.852 -0.0863  0.0527 -0.1285
 3632SOL    HW114526   5.299   2.736   0.891  1.4080  0.5126  0.8528
 3632SOL    HW214527   5.367   2.605   0.926  0.1743 -0.5730 -0.6748
 3632SOL     MW14528   5.342   2.664   0.867  0.1384  0.0315 -0.0728
 3633SOL     OW14529   4.568   2.376   3.561 -0.6722  0.1220 -0.1225
 3633SOL    HW114530   4.548   2.333   3.644  0.5594  1.7458  1.1031
 3633SOL    HW214531   4.508   2.451   3.559  0.3910  0.9998  0.1205
 3633SOL     MW14532   4.558   2.380   3.571 -0.3785  0.4422  0.0655
 3634SOL     OW14533   4.017   2.120   2.951  0.2111 -0.4554  0.3623
 3634SOL    HW114534   3.966   2.200   2.958  1.4345  0.2985  0.8955
 3634SOL    HW214535   3.994   2.085   2.865  0.3683  0.9768 -0.2972
 3634SOL     MW14536   4.008   2.126   2.941  0.3878 -0.1756  0.3461
 3635SOL     OW14537   2.283   5.211   0.828 -0.1649  0.0940 -0.5651
 3635SOL    HW114538   2.219   5.160   0.778 -1.1890 -0.1772  0.9625
 3635SOL    HW214539   2.249   5.211   0.917  2.8533 -1.5302  0.7020
 3635SOL     MW14540   2.270   5.205   0.833  0.0904 -0.1486 -0.2073
 3636SOL     OW14541   5.269   4.977   4.094 -0.2597  0.2446  0.2177
 3636SOL    HW114542   5.338   4.988   4.029 -0.2451 -1.7357 -0.1585
 3636SOL    HW214543   5.310   5.005   4.176  1.0743 -1.0022  0.0256
 3636SOL     MW14544   5.283   4.982   4.096 -0.0871 -0.1685  0.1449
 3637SOL     OW14545   1.028   0.813   2.537  0.6627  0.0558 -0.0236
 3637SOL    HW114546   0.961   0.758   2.576  0.3646  0.7114  0.4125
 3637SOL    HW214547   0.980   0.888   2.502  1.1054  0.2458 -0.2351
 3637SOL     MW14548   1.013   0.816   2.537  0.6812  0.1640  0.0051
 3638SOL     OW14549   4.018   3.262   4.993  0.0343  0.4132  0.4669
 3638SOL    HW114550   3.956   3.329   5.021 -0.0322  0.7708 -0.5218
 3638SOL    HW214551   4.005   3.254   4.899  0.7529 -0.2662  0.4115
 3638SOL     MW14552   4.009   3.270   4.985  0.1178  0.3720  0.3332
 3639SOL     OW14553   4.432   1.917   4.253 -0.0326  0.3782  0.0873
 3639SOL    HW114554   4.340   1.935   4.272  0.0835 -1.6312  3.4680
 3639SOL    HW214555   4.468   2.001   4.224 -2.8065  1.2749 -1.1365
 3639SOL     MW14556   4.425   1.930   4.251 -0.3728  0.2357  0.3634
 3640SOL     OW14557   1.523   2.820   3.584  0.2711 -0.6986  0.3391
 3640SOL    HW114558   1.515   2.915   3.581  2.4023 -0.4973 -1.4006
 3640SOL    HW214559   1.459   2.792   3.650 -1.3312  1.7934 -0.0501
 3640SOL     MW14560   1.514   2.828   3.592  0.3388 -0.3538  0.0666
 3641SOL     OW14561   5.040   3.302   2.626 -0.2534 -0.6405  0.0150
 3641SOL    HW114562   5.078   3.226   2.582  0.0914 -1.7138  2.0085
 3641SOL    HW214563   5.067   3.291   2.718 -0.6604  1.6191  0.4532
 3641SOL     MW14564   5.049   3.291   2.632 -0.2613 -0.4887  0.3263
 3642SOL     OW14565   2.569   4.116   0.834  0.6205  0.1307  0.0692
 3642SOL    HW114566   2.587   4.124   0.741  0.1169  1.1222  0.0493
 3642SOL    HW214567   2.582   4.204   0.870  0.2783 -0.1171  0.8343
 3642SOL     MW14568   2.573   4.128   0.827  0.5122  0.2259  0.1646
 3643SOL     OW14569   0.106   0.442   3.190  0.4058  0.2011  0.5025
 3643SOL    HW114570   0.024   0.437   3.240  1.6741 -0.1922  2.6856
 3643SOL    HW214571   0.122   0.536   3.180 -1.1521  0.3172 -1.5328
 3643SOL     MW14572   0.098   0.453   3.195  0.3687  0.1656  0.5214
 3644SOL     OW14573   0.188   2.028   2.356 -0.5752 -0.4240 -0.2886
 3644SOL    HW114574   0.275   2.067   2.366 -0.8004 -0.4369  2.1998
 3644SOL    HW214575   0.129   2.088   2.402 -1.6856 -1.1927 -0.6575
 3644SOL     MW14576   0.192   2.041   2.363 -0.7462 -0.5240 -0.0173
 3645SOL     OW14577   0.499   2.717   2.755 -0.4446 -0.2502 -0.3304
 3645SOL    HW114578   0.588   2.681   2.751 -0.6857 -0.7975 -2.5312
 3645SOL    HW214579   0.453   2.672   2.684 -2.8021 -0.7225  1.3814
 3645SOL     MW14580   0.504   2.706   2.745 -0.7773 -0.3807 -0.3930
 3646SOL     OW14581   0.356   0.640   1.234 -0.1502  0.0120  0.5878
 3646SOL    HW114582   0.313   0.622   1.150  0.2985  0.3059  0.2919
 3646SOL    HW214583   0.302   0.593   1.299 -0.4114 -0.3428  0.1217
 3646SOL     MW14584   0.343   0.631   1.232 -0.1262  0.0042  0.4902
 3647SOL     OW14585   5.222   3.039   2.668  0.0809 -0.4682 -0.3033
 3647SOL    HW114586   5.296   3.004   2.718 -1.3629 -0.9817  1.6066
 3647SOL    HW214587   5.174   2.962   2.639 -1.0885 -0.1364  0.6954
 3647SOL     MW14588   5.226   3.025   2.671 -0.2536 -0.4915  0.0690
 3648SOL     OW14589   4.911   2.088   1.680 -0.6570 -0.2355  0.3898
 3648SOL    HW114590   4.975   2.037   1.629 -0.8043 -1.0117  0.9565
 3648SOL    HW214591   4.929   2.064   1.771 -0.9100  0.5398  0.6506
 3648SOL     MW14592   4.922   2.078   1.685 -0.7083 -0.2356  0.4957
 3649SOL     OW14593   1.874   5.048   4.687  0.0670  0.0490 -0.0248
 3649SOL    HW114594   1.815   4.974   4.676  0.0708 -0.0920  0.8057
 3649SOL    HW214595   1.923   5.028   4.767 -0.3968  1.2400  0.6001
 3649SOL     MW14596   1.873   5.036   4.696  0.0081  0.1834  0.1615
 3650SOL     OW14597   4.076   0.169   5.023 -0.4402 -0.2494  0.7312
 3650SOL    HW114598   4.099   0.142   5.111  0.3755 -3.8510 -0.4278
 3650SOL    HW214599   4.160   0.178   4.978 -0.8876  0.3721  0.0012
 3650SOL     MW14600   4.090   0.167   5.028 -0.3931 -0.6309  0.4894
 3651SOL     OW14601   5.134   1.571   2.059 -0.1731  0.0123  0.3601
 3651SOL    HW114602   5.084   1.583   1.978  0.8218 -0.6071 -0.3648
 3651SOL    HW214603   5.075   1.521   2.115 -0.5887 -0.2318 -0.2754
 3651SOL     MW14604   5.120   1.566   2.056 -0.0989 -0.0982  0.1859
 3652SOL     OW14605   0.891   0.312   4.111  0.1092 -0.0662 -0.4527
 3652SOL    HW114606   0.834   0.250   4.156 -0.6363  0.5268 -0.5802
 3652SOL    HW214607   0.925   0.262   4.036 -0.4441 -0.3436 -0.5256
 3652SOL     MW14608   0.888   0.298   4.107 -0.0571 -0.0258 -0.4783
 3653SOL     OW14609   1.828   2.991   2.115 -0.1730 -0.8642 -0.2128
 3653SOL    HW114610   1.834   3.085   2.100  0.2682 -0.6491  1.1261
 3653SOL    HW214611   1.854   2.951   2.033 -1.6492  0.1747 -1.2428
 3653SOL     MW14612   1.832   2.998   2.103 -0.3055 -0.7037 -0.1733
 3654SOL     OW14613   2.528   0.247   1.745 -0.8521  0.1911  0.3073
 3654SOL    HW114614   2.507   0.338   1.766 -1.5002  0.2813 -0.6762
 3654SOL    HW214615   2.479   0.196   1.809 -0.9312  0.5144  0.5076
 3654SOL     MW14616   2.519   0.252   1.756 -0.9452  0.2440  0.2070
 3655SOL     OW14617   3.268   1.420   5.010  0.3822 -0.3739  0.2953
 3655SOL    HW114618   3.276   1.493   4.948  0.1629 -0.3321  0.3140
 3655SOL    HW214619   3.349   1.421   5.060  1.2727 -1.4058 -1.0759
 3655SOL     MW14620   3.279   1.430   5.008  0.4681 -0.5007  0.1222
 3656SOL     OW14621   4.040   0.439   5.032 -0.1796  0.1356  0.0728
 3656SOL    HW114622   4.122   0.478   5.000 -1.6704  2.0095 -1.6773
 3656SOL    HW214623   4.053   0.345   5.020  1.6130  0.3885 -0.3616
 3656SOL     MW14624   4.052   0.432   5.027 -0.1410  0.4078 -0.2068
 3657SOL     OW14625   0.840   4.945   3.570 -0.1126 -0.1397 -1.2045
 3657SOL    HW114626   0.856   4.852   3.555 -0.9080 -0.5897  0.4133
 3657SOL    HW214627   0.892   4.990   3.504 -1.8277 -1.7779 -3.8585
 3657SOL     MW14628   0.849   4.939   3.560 -0.4340 -0.4070 -1.3372
 3658SOL     OW14629   1.799   4.318   0.638 -0.1251  0.3620 -0.2989
 3658SOL    HW114630   1.838   4.406   0.638 -0.2639  0.4255 -0.5249
 3658SOL    HW214631   1.843   4.273   0.566  0.0797  0.1844 -0.0655
 3658SOL     MW14632   1.810   4.324   0.629 -0.1167  0.3474 -0.2979
 3659SOL     OW14633   5.293   0.797   1.674 -0.1343  0.4985  0.2777
 3659SOL    HW114634   5.383   0.784   1.704  0.4232  0.2691 -1.4035
 3659SOL    HW214635   5.262   0.710   1.651 -0.6984  0.6113  0.5999
 3659SOL     MW14636   5.301   0.785   1.675 -0.1351  0.4836  0.1037
 3660SOL     OW14637   1.787   2.209   3.424 -0.0757  0.3991  0.3858
 3660SOL    HW114638   1.841   2.165   3.490  0.0437  0.9066  0.6287
 3660SOL    HW214639   1.771   2.296   3.460 -3.6453 -0.6834  1.7754
 3660SOL     MW14640   1.792   2.214   3.437 -0.5173  0.3255  0.5948
 3661SOL     OW14641   0.489   1.532   3.652  0.5318  0.6575  0.4607
 3661SOL    HW114642   0.525   1.588   3.721  0.4328  0.9667  0.2632
 3661SOL    HW214643   0.495   1.444   3.688  0.0404  0.8590  1.0592
 3661SOL     MW14644   0.494   1.528   3.666  0.4562  0.7229  0.5120
 3662SOL     OW14645   0.508   3.795   2.547 -0.0215  0.4785  0.2748
 3662SOL    HW114646   0.466   3.785   2.461 -0.7864 -0.4533  0.7389
 3662SOL    HW214647   0.593   3.752   2.537 -1.0372 -1.7501  0.6177
 3662SOL     MW14648   0.514   3.788   2.535 -0.2495  0.0740  0.3781
 3663SOL     OW14649   3.738   3.343   5.324 -0.5510  0.3620  0.0570
 3663SOL    HW114650   3.710   3.258   5.360 -0.3130 -0.3444 -1.3385
 3663SOL    HW214651   3.759   3.396   5.401 -0.0144 -1.0775  0.9489
 3663SOL     MW14652   3.737   3.339   5.339 -0.4518  0.0873 -0.0074
 3664SOL     OW14653   2.398   4.381   4.321  0.1280  0.8085 -0.2421
 3664SOL    HW114654   2.473   4.366   4.378  0.3134  0.9200 -0.4586
 3664SOL    HW214655   2.354   4.457   4.359 -0.3709  0.2147  0.3956
 3664SOL     MW14656   2.402   4.389   4.333  0.0878  0.7468 -0.1882
 3665SOL     OW14657   0.751   3.291   4.337 -0.1980 -0.0685 -0.3118
 3665SOL    HW114658   0.724   3.201   4.321  0.7696 -0.1479 -1.6299
 3665SOL    HW214659   0.688   3.324   4.402 -0.2285 -1.8532  0.6191
 3665SOL     MW14660   0.740   3.284   4.343 -0.0780 -0.3071 -0.3614
 3666SOL     OW14661   3.248   2.172   3.215  0.1161  0.0268 -0.7395
 3666SOL    HW114662   3.326   2.226   3.229 -1.0231  1.3769  0.7844
 3666SOL    HW214663   3.189   2.228   3.165 -0.8429 -0.0222  0.3088
 3666SOL     MW14664   3.251   2.186   3.210 -0.1525  0.1934 -0.4102
 3667SOL     OW14665   1.294   4.974   0.692  0.2889 -0.2773 -0.1608
 3667SOL    HW114666   1.371   4.949   0.641 -0.9045 -0.3539 -2.0547
 3667SOL    HW214667   1.227   4.992   0.626 -0.8507  1.4292  1.3575
 3667SOL     MW14668   1.295   4.973   0.677 -0.0097 -0.0686 -0.2089
 3668SOL     OW14669   5.232   3.388  -0.007  0.0199  0.2001 -0.0218
 3668SOL    HW114670   5.172   3.382   0.068 -0.6234 -0.9699 -0.5998
 3668SOL    HW214671   5.312   3.426   0.029 -0.2536 -0.3922  1.2771
 3668SOL     MW14672   5.234   3.392   0.008 -0.0974 -0.0255  0.0705
 3669SOL     OW14673   0.420   1.589   5.215 -0.3497  0.0122 -0.5792
 3669SOL    HW114674   0.427   1.496   5.193  1.5533 -0.1733  0.5841
 3669SOL    HW214675   0.334   1.598   5.257 -0.4151 -1.2805 -0.4028
 3669SOL     MW14676   0.410   1.578   5.217 -0.1144 -0.1771 -0.4077
 3670SOL     OW14677   0.587   5.287   5.038 -0.1657  0.0756 -0.2309
 3670SOL    HW114678   0.581   5.200   4.998  0.1188 -0.5694  1.0872
 3670SOL    HW214679   0.680   5.308   5.037 -0.2213  0.3285 -0.4311
 3670SOL     MW14680   0.598   5.279   5.033 -0.1364  0.0254 -0.0878
 3671SOL     OW14681   5.186   1.247   4.049 -0.2557  0.3169 -0.4117
 3671SOL    HW114682   5.198   1.156   4.077 -1.2315  0.7078  1.4551
 3671SOL    HW214683   5.099   1.271   4.081 -0.5264  1.5544 -1.9547
 3671SOL     MW14684   5.176   1.238   4.057 -0.4153  0.5253 -0.3702
 3672SOL     OW14685   5.012   0.372   0.049 -0.2981 -0.1164 -0.7212
 3672SOL    HW114686   4.921   0.377   0.077 -0.6160 -2.0528 -1.2435
 3672SOL    HW214687   5.050   0.304   0.106  1.3526  1.8867  0.7453
 3672SOL     MW14688   5.006   0.364   0.060 -0.1275 -0.1079 -0.6003
 3673SOL     OW14689   5.154   4.025   3.004  0.0925 -0.2223  0.3832
 3673SOL    HW114690   5.119   4.027   2.914  0.7800  0.3295  0.1172
 3673SOL    HW214691   5.138   3.936   3.034 -1.8058  0.0650  0.3791
 3673SOL     MW14692   5.147   4.014   2.996 -0.0625 -0.1149  0.3486
 3674SOL     OW14693   3.887   1.398   3.256  0.0463 -0.5785 -0.4892
 3674SOL    HW114694   3.936   1.316   3.250 -0.5786 -1.1680  1.6664
 3674SOL    HW214695   3.909   1.445   3.175  1.3744 -2.3263 -1.2056
 3674SOL     MW14696   3.896   1.394   3.244  0.1363 -0.8777 -0.3050
 3675SOL     OW14697   3.793   3.166   0.127 -0.2579 -0.1531  0.0974
 3675SOL    HW114698   3.834   3.118   0.199 -0.6074 -0.2436  0.2341
 3675SOL    HW214699   3.835   3.131   0.048  1.2813  1.0427  0.3353
 3675SOL     MW14700   3.804   3.156   0.126 -0.1056 -0.0116  0.1454
 3676SOL     OW14701   3.206   3.992   3.833 -0.0901  0.0718  0.5123
 3676SOL    HW114702   3.147   4.034   3.771  0.2432 -0.9074 -0.5021
 3676SOL    HW214703   3.293   4.024   3.810  0.1115 -0.8108  0.0284
 3676SOL     MW14704   3.209   4.001   3.822 -0.0216 -0.1665  0.3205
 3677SOL     OW14705   4.043   1.258   1.086  0.6763  0.5561 -0.9766
 3677SOL    HW114706   4.073   1.170   1.110  0.3355  0.3863 -1.1605
 3677SOL    HW214707   4.073   1.270   0.996  0.4597  0.5051 -1.0569
 3677SOL     MW14708   4.050   1.248   1.078  0.6050  0.5278 -1.0104
 3678SOL     OW14709   1.034   4.200   5.163  0.1385  0.4293  0.1300
 3678SOL    HW114710   0.964   4.189   5.099  0.2301  1.9561 -0.2810
 3678SOL    HW214711   1.113   4.212   5.111  0.8123 -1.6524  0.5913
 3678SOL     MW14712   1.035   4.200   5.148  0.2365  0.3582  0.1365
 3679SOL     OW14713   4.652   4.961   0.610  0.0391  0.5637 -0.1388
 3679SOL    HW114714   4.587   4.931   0.674 -0.1014 -1.3116 -1.0783
 3679SOL    HW214715   4.616   4.933   0.526  1.2649  1.0295 -0.8427
 3679SOL     MW14716   4.639   4.954   0.607  0.1780  0.3833 -0.3492
 3680SOL     OW14717   2.025   2.718   3.539  0.2026 -0.4089  0.1428
 3680SOL    HW114718   2.010   2.623   3.536  1.8636 -0.6845 -0.4245
 3680SOL    HW214719   2.097   2.729   3.602 -0.0869  0.5053  0.3310
 3680SOL     MW14720   2.032   2.707   3.547  0.3782 -0.3272  0.0942
 3681SOL     OW14721   2.373   1.292   1.997 -0.7903 -0.9613 -0.1408
 3681SOL    HW114722   2.433   1.325   1.930  0.6074  0.5393  1.7376
 3681SOL    HW214723   2.287   1.291   1.954  0.1281 -0.5280 -2.0772
 3681SOL     MW14724   2.369   1.296   1.983 -0.4938 -0.7138 -0.1482
 3682SOL     OW14725   2.494   2.663   2.814 -0.4233 -0.2227 -0.8266
 3682SOL    HW114726   2.471   2.636   2.903  0.8712  1.5499  0.1062
 3682SOL    HW214727   2.425   2.724   2.789 -0.0327  0.3812 -0.4526
 3682SOL     MW14728   2.482   2.668   2.822 -0.2076  0.0815 -0.6593
 3683SOL     OW14729   2.463   2.618   3.084 -0.1167  0.3020  0.7462
 3683SOL    HW114730   2.395   2.567   3.128 -1.1888  0.0494 -1.0955
 3683SOL    HW214731   2.440   2.709   3.102 -0.3024  0.2038  1.0223
 3683SOL     MW14732   2.451   2.623   3.092 -0.2777  0.2571  0.5458
 3684SOL     OW14733   1.404   2.656   3.799 -0.1792  0.0598 -0.1054
 3684SOL    HW114734   1.319   2.663   3.843  0.2120 -1.9869  1.0983
 3684SOL    HW214735   1.465   2.631   3.867  1.5154  1.7328 -0.9051
 3684SOL     MW14736   1.401   2.654   3.813  0.0878  0.0120 -0.0537
 3685SOL     OW14737   3.977   0.347   5.448  0.1347  0.1960 -0.0523
 3685SOL    HW114738   3.964   0.293   5.370  0.7538 -0.3505  0.2112
 3685SOL    HW214739   3.892   0.389   5.463 -0.3179 -0.5939 -0.3501
 3685SOL     MW14740   3.964   0.346   5.440  0.1560  0.0249 -0.0567
 3686SOL     OW14741   1.891   5.198   2.443  0.0203 -0.1048  0.0016
 3686SOL    HW114742   1.908   5.258   2.371 -1.4039 -0.5478 -0.7538
 3686SOL    HW214743   1.953   5.127   2.431  1.0623  0.7267  0.3397
 3686SOL     MW14744   1.901   5.196   2.433 -0.0287 -0.0551 -0.0518
 3687SOL     OW14745   3.577   1.450   3.919 -0.5538  0.0415 -0.1949
 3687SOL    HW114746   3.667   1.417   3.923 -0.4292  0.4618  0.9062
 3687SOL    HW214747   3.557   1.453   3.826  0.5855 -0.0437 -0.4592
 3687SOL     MW14748   3.586   1.446   3.908 -0.3920  0.0844 -0.0878
 3688SOL     OW14749   2.334   3.079   2.921 -0.4231 -0.5636 -0.2678
 3688SOL    HW114750   2.281   3.118   2.991  2.5060  0.4643  1.5349
 3688SOL    HW214751   2.361   3.153   2.868  1.3776 -0.6654  0.4539
 3688SOL     MW14752   2.330   3.093   2.924  0.1823 -0.4451  0.0554
 3689SOL     OW14753   1.135   3.171   1.402  0.4326 -0.3190 -0.1374
 3689SOL    HW114754   1.128   3.088   1.449  0.0832 -0.2068  0.0099
 3689SOL    HW214755   1.118   3.238   1.467 -1.5179 -0.2137 -0.6979
 3689SOL     MW14756   1.132   3.169   1.416  0.1382 -0.2911 -0.1903
 3690SOL     OW14757   5.022   4.075   4.895  0.6406  0.0881 -0.5867
 3690SOL    HW114758   4.937   4.118   4.896 -0.9646 -2.7959 -1.2229
 3690SOL    HW214759   5.084   4.144   4.871 -1.5157  2.2267 -0.3894
 3690SOL     MW14760   5.019   4.089   4.892  0.1591 -0.0073 -0.6429
 3691SOL     OW14761   1.133   4.218   3.145 -0.1343 -0.1502  0.4664
 3691SOL    HW114762   1.064   4.228   3.210 -1.5948 -0.8114 -0.9151
 3691SOL    HW214763   1.105   4.271   3.071  1.5161  0.6328  0.3458
 3691SOL     MW14764   1.121   4.226   3.144 -0.1100 -0.1346  0.2741
 3692SOL     OW14765   0.919   4.749   4.152  0.2804  0.0556 -0.7165
 3692SOL    HW114766   0.910   4.829   4.100 -1.5512  0.2048 -0.2418
 3692SOL    HW214767   0.904   4.777   4.243 -1.7805 -0.9662 -0.6671
 3692SOL     MW14768   0.916   4.762   4.157 -0.2179 -0.0561 -0.6494
 3693SOL     OW14769   1.714   3.809   3.871 -0.3933 -0.0804 -0.4576
 3693SOL    HW114770   1.789   3.860   3.900 -1.2417  0.0831  1.6051
 3693SOL    HW214771   1.748   3.755   3.799  1.2421  1.2050 -0.7127
 3693SOL     MW14772   1.728   3.808   3.865 -0.2925  0.1051 -0.2262
 3694SOL     OW14773   1.674   1.739   2.939 -0.0509 -0.4930 -0.3165
 3694SOL    HW114774   1.590   1.784   2.933  0.6734  1.0079  0.3573
 3694SOL    HW214775   1.698   1.722   2.848  0.2909  1.7528 -0.6917
 3694SOL     MW14776   1.666   1.742   2.926  0.0856 -0.0134 -0.2783
 3695SOL     OW14777   2.526   4.161   1.247 -0.1488  0.0988  0.3492
 3695SOL    HW114778   2.606   4.173   1.297 -0.7428 -0.4024  1.4710
 3695SOL    HW214779   2.470   4.234   1.272 -0.6573 -0.4542  0.8395
 3695SOL     MW14780   2.529   4.172   1.256 -0.2899 -0.0362  0.5556
 3696SOL     OW14781   4.264   0.428   5.253 -0.2863 -0.1677  0.8558
 3696SOL    HW114782   4.203   0.500   5.239 -0.4753 -0.3911  0.5071
 3696SOL    HW214783   4.346   0.458   5.213 -0.5884 -0.4598 -0.0266
 3696SOL     MW14784   4.267   0.441   5.246 -0.3492 -0.2337  0.6982
 3697SOL     OW14785   4.632   5.418   4.757 -0.1942  0.2532 -0.2867
 3697SOL    HW114786   4.700   5.416   4.689 -0.9298  0.1859 -1.0390
 3697SOL    HW214787   4.667   5.475   4.825  1.1273 -0.7212 -0.1097
 3697SOL     MW14788   4.645   5.425   4.757 -0.1192  0.1198 -0.3603
 3698SOL     OW14789   0.623   0.242   0.508  0.7351 -0.0843 -0.8345
 3698SOL    HW114790   0.678   0.288   0.444 -0.6521  2.7527 -0.1670
 3698SOL    HW214791   0.668   0.255   0.591  0.3829 -0.0163 -0.6532
 3698SOL     MW14792   0.636   0.249   0.510  0.5124  0.2876 -0.7258
 3699SOL     OW14793   5.101   2.171   0.562  0.5399 -0.1097 -0.0663
 3699SOL    HW114794   5.172   2.107   0.560 -1.3213 -2.3032 -2.3486
 3699SOL    HW214795   5.031   2.128   0.610 -0.6383  0.2962 -1.3463
 3699SOL     MW14796   5.101   2.158   0.568  0.1508 -0.3385 -0.5223
 3700SOL     OW14797   3.317   5.203   2.209 -0.0400 -0.2526  0.4438
 3700SOL    HW114798   3.242   5.215   2.152 -1.1437 -2.3173  1.3805
 3700SOL    HW214799   3.383   5.264   2.175 -1.2454 -0.1587 -1.9088
 3700SOL     MW14800   3.316   5.213   2.198 -0.3356 -0.5049  0.2625
 3701SOL     OW14801   0.577   2.347   2.736 -0.2459  0.9646  0.0227
 3701SOL    HW114802   0.593   2.275   2.675  1.1929  1.7992 -0.6492
 3701SOL    HW214803   0.582   2.307   2.823 -0.9659 -0.0004 -0.3762
 3701SOL     MW14804   0.580   2.333   2.739 -0.1539  0.9479 -0.1144
 3702SOL     OW14805   1.804   3.286   2.060 -0.0502  0.2968 -0.5978
 3702SOL    HW114806   1.898   3.287   2.048  0.0383  0.9813  0.0338
 3702SOL    HW214807   1.791   3.323   2.148 -0.9004  0.2851 -0.7096
 3702SOL     MW14808   1.814   3.291   2.070 -0.1477  0.3829 -0.5312
 3703SOL     OW14809   2.014   4.634   2.630 -0.1410 -0.3665 -0.2706
 3703SOL    HW114810   2.033   4.727   2.634 -1.5345 -0.0835  0.4688
 3703SOL    HW214811   1.919   4.629   2.622 -0.0290 -1.7205 -1.1935
 3703SOL     MW14812   2.004   4.645   2.630 -0.3050 -0.5036 -0.2941
 3704SOL     OW14813   0.279   0.720   5.417  0.4445 -0.7078 -0.3186
 3704SOL    HW114814   0.312   0.707   5.506 -0.5480  0.2316  0.2084
 3704SOL    HW214815   0.340   0.782   5.377  0.3297 -0.3486  0.0546
 3704SOL     MW14816   0.291   0.726   5.424  0.3027 -0.5416 -0.2034
 3705SOL     OW14817   1.803   4.359   4.183  0.0765  0.5140  0.7636
 3705SOL    HW114818   1.810   4.264   4.190 -0.2536  0.1571 -2.2586
 3705SOL    HW214819   1.713   4.378   4.211 -0.5606 -0.3771 -0.5844
 3705SOL     MW14820   1.792   4.349   4.188 -0.0473  0.3543  0.2042
 3706SOL     OW14821   1.287   5.344   1.841 -0.0653 -0.1485 -0.7680
 3706SOL    HW114822   1.252   5.284   1.776 -0.3863  0.5617 -1.2723
 3706SOL    HW214823   1.331   5.412   1.790  0.9180 -0.3271 -0.1842
 3706SOL     MW14824   1.288   5.345   1.826  0.0195 -0.0804 -0.7578
 3707SOL     OW14825   2.680   1.866   4.997 -0.0836 -0.3439 -0.0473
 3707SOL    HW114826   2.665   1.772   4.991 -1.7219 -0.2265  1.4782
 3707SOL    HW214827   2.625   1.895   5.070  0.0899  1.8645 -0.7118
 3707SOL     MW14828   2.671   1.858   5.006 -0.2711 -0.0462  0.0629
 3708SOL     OW14829   0.261   3.989   4.121  0.2620  0.6395 -0.2050
 3708SOL    HW114830   0.172   4.007   4.091  0.0683  2.0274  1.0627
 3708SOL    HW214831   0.312   4.063   4.089  0.9663 -0.1101 -0.8515
 3708SOL     MW14832   0.256   4.001   4.113  0.3274  0.7213 -0.1255
 3709SOL     OW14833   2.038   1.303   4.763  0.3479  0.0175  0.4095
 3709SOL    HW114834   2.053   1.308   4.669  1.5390 -0.4524  0.5610
 3709SOL    HW214835   1.969   1.237   4.773 -0.1695  0.4575 -0.1536
 3709SOL     MW14836   2.031   1.295   4.753  0.4341  0.0137  0.3568
 3710SOL     OW14837   5.062   2.500   4.467 -0.0536  0.3435  0.2428
 3710SOL    HW114838   5.043   2.492   4.373 -1.3053  1.7696  0.3460
 3710SOL    HW214839   5.003   2.568   4.498  0.7222  0.2759  1.9801
 3710SOL     MW14840   5.052   2.508   4.459 -0.1145  0.5174  0.4784
 3711SOL     OW14841   0.571   0.458   1.129  0.0694 -0.2198  0.2981
 3711SOL    HW114842   0.665   0.455   1.144  0.0318 -0.8211  0.4204
 3711SOL    HW214843   0.540   0.529   1.186  0.5232  0.4008 -0.2076
 3711SOL     MW14844   0.579   0.467   1.138  0.1227 -0.2174  0.2490
 3712SOL     OW14845   4.077   3.879   5.438 -0.1085  0.8406  0.0085
 3712SOL    HW114846   4.104   3.932   5.363 -0.5875 -0.2866 -0.9960
 3712SOL    HW214847   3.982   3.887   5.440 -0.2264 -0.2067 -0.3760
 3712SOL     MW14848   4.069   3.887   5.428 -0.1849  0.5622 -0.1693
 3713SOL     OW14849   4.790   3.335   2.308  0.5606 -0.2543 -0.2551
 3713SOL    HW114850   4.710   3.283   2.314 -0.4370  1.3705  1.8997
 3713SOL    HW214851   4.773   3.397   2.237 -0.6328  0.8240  0.9122
 3713SOL     MW14852   4.778   3.337   2.300  0.2801  0.0917  0.1702
 3714SOL     OW14853   2.551   0.167   4.726  0.1009 -0.2838  0.7279
 3714SOL    HW114854   2.617   0.183   4.794 -0.0238  0.9457  0.5850
 3714SOL    HW214855   2.601   0.139   4.650  0.5183  0.9272  0.5309
 3714SOL     MW14856   2.566   0.166   4.725  0.1384  0.0286  0.6844
 3715SOL     OW14857   0.878   4.780   1.229  0.2222  0.4969  0.2338
 3715SOL    HW114858   0.837   4.850   1.180  1.0041  0.7140 -0.1193
 3715SOL    HW214859   0.902   4.715   1.163 -0.2360  0.0200  0.5257
 3715SOL     MW14860   0.876   4.780   1.215  0.2636  0.4637  0.2259
 3716SOL     OW14861   1.157   1.846   1.473 -0.5899  0.3936 -0.5998
 3716SOL    HW114862   1.206   1.764   1.469 -0.5414  0.2788  1.2938
 3716SOL    HW214863   1.186   1.896   1.397  1.7325 -0.0783 -0.0906
 3716SOL     MW14864   1.167   1.842   1.463 -0.2864  0.3185 -0.2922
 3717SOL     OW14865   2.843   0.912   0.659  0.4338 -0.0514 -0.6200
 3717SOL    HW114866   2.884   0.994   0.687 -0.6742 -0.2930  2.0514
 3717SOL    HW214867   2.910   0.845   0.677  0.2296 -0.0415  0.2407
 3717SOL     MW14868   2.857   0.914   0.665  0.2658 -0.0811 -0.1679
 3718SOL     OW14869   1.863   3.741   1.891 -0.0351 -0.0773  0.0230
 3718SOL    HW114870   1.926   3.812   1.879  0.1244 -0.2216 -0.0015
 3718SOL    HW214871   1.894   3.672   1.834 -0.5050  0.0354 -0.3711
 3718SOL     MW14872   1.875   3.741   1.882 -0.0748 -0.0814 -0.0306
 3719SOL     OW14873   0.152   1.596   2.455 -0.4681 -0.0656 -0.3030
 3719SOL    HW114874   0.165   1.502   2.439  1.2072 -0.0559  0.7207
 3719SOL    HW214875   0.080   1.621   2.397 -0.0869 -1.7089 -1.5549
 3719SOL     MW14876   0.145   1.587   2.445 -0.2048 -0.2747 -0.3322
 3720SOL     OW14877   4.056   2.623   5.008 -0.0383  0.2436  0.5605
 3720SOL    HW114878   4.096   2.582   4.931  2.0572  1.7194  0.7934
 3720SOL    HW214879   3.963   2.603   5.000  0.3941 -1.2553 -1.3354
 3720SOL     MW14880   4.049   2.615   4.997  0.2853  0.2406  0.3476
 3721SOL     OW14881   2.205   2.451   1.349  0.5845 -0.1748  0.3335
 3721SOL    HW114882   2.274   2.424   1.289 -0.2246 -0.2540 -0.5911
 3721SOL    HW214883   2.247   2.452   1.435  2.1899  1.4512 -0.4084
 3721SOL     MW14884   2.219   2.448   1.352  0.6864  0.0232  0.1202
 3722SOL     OW14885   3.129   2.510   0.480 -0.4726 -0.2025 -0.1885
 3722SOL    HW114886   3.138   2.602   0.505 -0.3776 -0.1966 -0.2444
 3722SOL    HW214887   3.039   2.487   0.505 -0.4288 -0.1540  0.0165
 3722SOL     MW14888   3.118   2.519   0.487 -0.4548 -0.1955 -0.1694
 3723SOL     OW14889   5.007   2.805   1.750 -0.7042 -0.0784  1.3549
 3723SOL    HW114890   5.006   2.719   1.793  1.0406 -0.4821  0.6801
 3723SOL    HW214891   5.076   2.853   1.796  0.2563 -0.0472 -0.0671
 3723SOL     MW14892   5.015   2.800   1.762 -0.3579 -0.1261  1.0865
 3724SOL     OW14893   3.030   2.796   2.040  0.7378  0.2766  0.1615
 3724SOL    HW114894   3.022   2.719   2.096  0.2714  2.1984  2.9490
 3724SOL    HW214895   2.940   2.814   2.012  0.4005  1.2453  1.7212
 3724SOL     MW14896   3.017   2.789   2.043  0.6349  0.6467  0.7180
 3725SOL     OW14897   3.425   0.200   0.173 -0.0485  0.2791  0.6586
 3725SOL    HW114898   3.407   0.107   0.167 -0.7471  0.5057 -1.4877
 3725SOL    HW214899   3.351   0.242   0.129 -0.2425  1.9159  2.4237
 3725SOL     MW14900   3.413   0.194   0.167 -0.1628  0.5177  0.6098
 3726SOL     OW14901   1.439   1.029   2.423  0.3563 -0.2391 -0.5144
 3726SOL    HW114902   1.385   0.972   2.477  1.1795 -1.5179 -0.9868
 3726SOL    HW214903   1.393   1.033   2.339  0.1385  0.0675 -0.3842
 3726SOL     MW14904   1.426   1.022   2.419  0.4338 -0.3636 -0.5582
 3727SOL     OW14905   3.020   1.133   3.854 -0.4114  0.0387 -0.6586
 3727SOL    HW114906   3.007   1.120   3.760  0.1504  0.2138 -0.7642
 3727SOL    HW214907   2.949   1.192   3.879 -0.6781 -0.1619 -0.9340
 3727SOL     MW14908   3.009   1.139   3.845 -0.3736  0.0354 -0.7073
 3728SOL     OW14909   3.657   0.972   1.972 -0.0007  0.0783 -0.3372
 3728SOL    HW114910   3.744   1.011   1.973  0.4513 -0.7854  2.5407
 3728SOL    HW214911   3.669   0.885   2.010 -2.2325  0.2706  0.9829
 3728SOL     MW14912   3.670   0.966   1.977 -0.2285 -0.0077  0.2002
 3729SOL     OW14913   1.484   1.465   1.435  0.0738  0.7093 -0.5696
 3729SOL    HW114914   1.474   1.406   1.510 -0.0821  3.0323  1.3171
 3729SOL    HW214915   1.558   1.428   1.386 -0.0966 -1.1080  0.4613
 3729SOL     MW14916   1.492   1.452   1.438  0.0320  0.7741 -0.1961
 3730SOL     OW14917   0.610   1.202   1.210  0.5085  0.5426 -0.2909
 3730SOL    HW114918   0.529   1.170   1.250  2.3170  0.0907  3.4203
 3730SOL    HW214919   0.606   1.297   1.222 -0.3891  0.7841 -2.1762
 3730SOL     MW14920   0.599   1.210   1.217  0.6251  0.5157 -0.0572
 3731SOL     OW14921   3.612   2.250   1.719  0.1799 -0.6529  0.6195
 3731SOL    HW114922   3.563   2.179   1.758  0.3387 -0.1772  1.7060
 3731SOL    HW214923   3.588   2.327   1.770  1.4312 -0.2686  0.6593
 3731SOL     MW14924   3.603   2.251   1.730  0.3604 -0.5428  0.7637
 3732SOL     OW14925   4.487   4.036   5.339  0.5375 -0.1807  0.5015
 3732SOL    HW114926   4.407   3.984   5.343 -0.4548  0.5790 -3.9452
 3732SOL    HW214927   4.542   3.992   5.274  1.2400  2.2163 -0.6927
 3732SOL     MW14928   4.484   4.024   5.331  0.5004  0.2234 -0.2206
 3733SOL     OW14929   3.940   4.108   2.616 -0.9923  0.3006 -0.3390
 3733SOL    HW114930   3.967   4.128   2.705 -2.3710  0.6469  0.0192
 3733SOL    HW214931   3.992   4.168   2.562 -0.7531  0.6680  0.2865
 3733SOL     MW14932   3.950   4.118   2.620 -1.1382  0.3919 -0.2131
 3734SOL     OW14933   1.284   2.321   3.456 -0.2728  0.2093  0.2482
 3734SOL    HW114934   1.352   2.356   3.514  0.2846  0.4698 -0.5541
 3734SOL    HW214935   1.319   2.331   3.368 -1.1348 -0.1406 -0.1500
 3734SOL     MW14936   1.297   2.326   3.452 -0.3118  0.1978  0.0945
 3735SOL     OW14937   0.714   2.117   5.399  0.0895  0.2399 -0.4223
 3735SOL    HW114938   0.634   2.104   5.449  0.6106  1.3640  0.7795
 3735SOL    HW214939   0.757   2.032   5.398 -0.5263 -0.0798  0.0030
 3735SOL     MW14940   0.709   2.105   5.406  0.0774  0.3428 -0.2140
 3736SOL     OW14941   0.060   4.288   4.782 -0.3756 -0.3942  0.2690
 3736SOL    HW114942   0.057   4.205   4.735  1.7923  0.7675 -2.2381
 3736SOL    HW214943   0.144   4.287   4.827 -0.1175  0.5568 -0.1469
 3736SOL     MW14944   0.071   4.278   4.782 -0.0650 -0.1237 -0.1052
 3737SOL     OW14945   3.432   2.732   3.206 -0.3816  0.0851 -0.1749
 3737SOL    HW114946   3.389   2.818   3.203 -0.3708  0.0866 -0.2840
 3737SOL    HW214947   3.386   2.680   3.140 -0.6033 -0.0943  0.1162
 3737SOL     MW14948   3.420   2.736   3.197 -0.4086  0.0623 -0.1516
 3738SOL     OW14949   3.035   1.747   2.866  0.3124 -0.1923 -0.5973
 3738SOL    HW114950   3.050   1.717   2.956 -0.4982 -1.4390 -0.8669
 3738SOL    HW214951   3.062   1.674   2.811  1.9619  0.9898 -1.4676
 3738SOL     MW14952   3.040   1.734   2.871  0.4198 -0.2006 -0.7432
 3739SOL     OW14953   5.028   3.626   2.838 -0.0170  0.2512  0.0069
 3739SOL    HW114954   4.952   3.678   2.814 -1.7586 -1.9854  0.2595
 3739SOL    HW214955   4.992   3.554   2.890  1.8930 -2.2503 -1.8484
 3739SOL     MW14956   5.014   3.623   2.841  0.0046 -0.3553 -0.1983
 3740SOL     OW14957   5.215   3.603   3.292  0.1007 -0.1416  0.0336
 3740SOL    HW114958   5.217   3.513   3.258 -0.2332  0.6002 -2.1204
 3740SOL    HW214959   5.286   3.647   3.246  2.2857  0.0501  3.3163
 3740SOL     MW14960   5.224   3.597   3.281  0.3376 -0.0221  0.1780
 3741SOL     OW14961   4.772   3.758   4.464 -0.3073  0.4966 -0.2880
 3741SOL    HW114962   4.824   3.758   4.383  0.1627 -0.3309  0.0016
 3741SOL    HW214963   4.695   3.811   4.442  0.2178  0.9946 -1.0072
 3741SOL     MW14964   4.769   3.765   4.451 -0.1800  0.4544 -0.3430
 3742SOL     OW14965   0.077   3.694   4.318 -0.0590 -0.3987  0.2967
 3742SOL    HW114966   0.121   3.778   4.330 -0.4158 -0.1427 -0.1617
 3742SOL    HW214967   0.054   3.666   4.407  0.8909 -0.4692  0.5293
 3742SOL     MW14968   0.080   3.701   4.331  0.0169 -0.3749  0.2678
 3743SOL     OW14969   4.566   2.150   4.146  0.4725 -0.3528 -0.5032
 3743SOL    HW114970   4.618   2.163   4.067  2.2594  1.2055  0.8397
 3743SOL    HW214971   4.484   2.195   4.127  0.3423 -1.1076 -1.9172
 3743SOL     MW14972   4.562   2.157   4.133  0.6846 -0.2500 -0.5123
 3744SOL     OW14973   4.000   3.523   0.805 -0.2708 -0.1150  0.4278
 3744SOL    HW114974   3.936   3.503   0.872  0.8233  0.9350  1.8703
 3744SOL    HW214975   4.085   3.515   0.849  0.4333  2.2084 -0.3070
 3744SOL     MW14976   4.003   3.520   0.819 -0.0406  0.3169  0.5184
 3745SOL     OW14977   3.969   4.413   1.692 -0.1019  0.3336  0.9353
 3745SOL    HW114978   3.912   4.467   1.637  0.7600  1.0517  0.7316
 3745SOL    HW214979   3.957   4.324   1.659 -0.2697  0.6334  0.1815
 3745SOL     MW14980   3.960   4.408   1.681 -0.0130  0.4639  0.8127
 3746SOL     OW14981   3.430   5.019   1.690  0.0650  0.0783  0.2544
 3746SOL    HW114982   3.489   4.945   1.682  0.1279  0.2746 -1.4744
 3746SOL    HW214983   3.417   5.030   1.784  0.5274 -1.7328  0.5587
 3746SOL     MW14984   3.436   5.011   1.701  0.1322 -0.1284  0.0720
 3747SOL     OW14985   1.226   3.904   1.623  0.1299 -0.5295 -0.0221
 3747SOL    HW114986   1.319   3.908   1.645 -0.2684  1.3107  1.5671
 3747SOL    HW214987   1.201   3.814   1.641  0.9428 -0.3093  2.6910
 3747SOL     MW14988   1.235   3.893   1.628  0.1829 -0.2658  0.5286
 3748SOL     OW14989   3.678   3.619   5.437  0.7142  0.0749 -0.3808
 3748SOL    HW114990   3.582   3.612   5.434  0.1102  2.6079  4.1472
 3748SOL    HW214991   3.704   3.558   5.505  2.1101  0.6545 -0.3722
 3748SOL     MW14992   3.669   3.610   5.445  0.8156  0.4734  0.1999
 3749SOL     OW14993   0.937   0.353   1.786  0.2316 -0.3082 -0.2625
 3749SOL    HW114994   1.002   0.352   1.856  0.3134 -0.2401 -0.3375
 3749SOL    HW214995   0.854   0.337   1.831  0.4468 -1.6883 -0.3263
 3749SOL     MW14996   0.935   0.351   1.801  0.2696 -0.4761 -0.2802
 3750SOL     OW14997   4.679   3.245   3.278  0.0832 -0.2893 -0.5244
 3750SOL    HW114998   4.631   3.210   3.202  0.8666  0.6713 -1.4998
 3750SOL    HW214999   4.616   3.301   3.323 -0.5421 -1.2570 -0.1622
 3750SOL     MW15000   4.665   3.247   3.274  0.1034 -0.2902 -0.6029
 3751SOL     OW15001   1.532   0.135   2.842 -0.0265 -0.0466  0.8091
 3751SOL    HW115002   1.595   0.204   2.864 -1.6432  3.3586 -3.6877
 3751SOL    HW215003   1.577   0.082   2.777 -0.1397 -0.8356  1.3609
 3751SOL     MW15004   1.546   0.137   2.837 -0.2479  0.2883  0.3041
 3752SOL     OW15005   1.252   3.542   0.620  0.6201  0.1565 -0.0475
 3752SOL    HW115006   1.207   3.625   0.600  1.3359  0.2943 -1.1082
 3752SOL    HW215007   1.196   3.475   0.581 -0.3190  0.0553  1.3929
 3752SOL     MW15008   1.239   3.544   0.613  0.5915  0.1612  0.0011
 3753SOL     OW15009   0.571   2.566   2.019 -0.3002 -0.0943 -0.1905
 3753SOL    HW115010   0.622   2.524   1.949 -0.8220 -0.8576 -0.1184
 3753SOL    HW215011   0.633   2.574   2.091 -0.3130 -1.1727 -0.0460
 3753SOL     MW15012   0.586   2.562   2.019 -0.3686 -0.3301 -0.1628
 3754SOL     OW15013   1.186   4.824   2.908  0.3891 -0.1369  0.1508
 3754SOL    HW115014   1.103   4.870   2.893  0.8117  0.6235  0.0564
 3754SOL    HW215015   1.207   4.785   2.823  0.2348 -0.1394  0.1130
 3754SOL     MW15016   1.178   4.825   2.895  0.4234 -0.0399  0.1339
 3755SOL     OW15017   4.035   3.684   2.829  0.4371 -0.4515  0.3111
 3755SOL    HW115018   4.087   3.760   2.804 -1.5989  0.6022 -0.9925
 3755SOL    HW215019   4.023   3.636   2.747 -0.6117 -0.6628  0.5687
 3755SOL     MW15020   4.040   3.687   2.815  0.0422 -0.3436  0.1772
 3756SOL     OW15021   0.067   0.169   3.825  0.1462  0.0410 -0.5501
 3756SOL    HW115022   0.159   0.183   3.850  0.2513  0.0571 -0.9469
 3756SOL    HW215023   0.047   0.242   3.766 -0.4113  0.5857  0.2957
 3756SOL     MW15024   0.076   0.180   3.821  0.0883  0.1128 -0.4926
 3757SOL     OW15025   1.281   3.886   0.736 -0.5913 -0.2917 -0.1217
 3757SOL    HW115026   1.360   3.888   0.682 -0.5626 -1.0021 -0.1127
 3757SOL    HW215027   1.294   3.955   0.800  0.1563 -0.5955  0.0588
 3757SOL     MW15028   1.292   3.895   0.737 -0.4919 -0.4215 -0.0974
 3758SOL     OW15029   0.773   2.728   3.885 -0.2773  0.2830  0.4376
 3758SOL    HW115030   0.746   2.645   3.846 -0.3424  0.9506 -1.0014
 3758SOL    HW215031   0.862   2.742   3.854  0.3630 -0.0144  2.0119
 3758SOL     MW15032   0.780   2.719   3.876 -0.2037  0.3304  0.4549
 3759SOL     OW15033   2.710   1.551   5.268  0.6762 -0.1353 -0.3481
 3759SOL    HW115034   2.650   1.609   5.313  0.0529 -0.7816 -0.3214
 3759SOL    HW215035   2.714   1.584   5.178  0.8439  0.3349 -0.1677
 3759SOL     MW15036   2.703   1.562   5.262  0.6179 -0.1578 -0.3216
 3760SOL     OW15037   5.007   2.227   3.081  0.0990 -0.1248 -0.1702
 3760SOL    HW115038   4.966   2.158   3.133  0.4807  0.4490  0.9136
 3760SOL    HW215039   4.933   2.275   3.043 -0.1897 -0.3335  0.1231
 3760SOL     MW15040   4.992   2.225   3.083  0.1109 -0.0781  0.0061
 3761SOL     OW15041   2.221   0.474   4.560  0.2565  0.3934 -0.0623
 3761SOL    HW115042   2.299   0.420   4.547  1.4030  2.1427 -0.8520
 3761SOL    HW215043   2.252   0.548   4.612 -1.1163  0.6242  0.4633
 3761SOL     MW15044   2.235   0.477   4.565  0.2275  0.6469 -0.0961
 3762SOL     OW15045   5.233  -0.007   3.133  0.5917  0.0172 -0.1538
 3762SOL    HW115046   5.174   0.040   3.075 -0.3439  0.2895  0.9910
 3762SOL    HW215047   5.309  -0.027   3.079 -0.8716 -1.0873 -1.9088
 3762SOL     MW15048   5.235  -0.004   3.119  0.2846 -0.0893 -0.2319
 3763SOL     OW15049   2.019   4.693   4.526 -0.0014 -0.1392 -0.1577
 3763SOL    HW115050   1.976   4.712   4.609  1.5516  0.1714  0.6014
 3763SOL    HW215051   2.070   4.614   4.543  0.9433  0.3715 -0.5812
 3763SOL     MW15052   2.020   4.685   4.539  0.3183 -0.0341 -0.1147
 3764SOL     OW15053   1.630   0.561   3.790  0.3911 -0.1422 -0.3900
 3764SOL    HW115054   1.622   0.543   3.883  1.6174 -0.0977 -0.2652
 3764SOL    HW215055   1.545   0.536   3.754 -0.6434  1.2592  0.9370
 3764SOL     MW15056   1.618   0.556   3.797  0.4157  0.0429 -0.2041
 3765SOL     OW15057   5.031   2.700   0.572 -0.0809  0.2563  0.5545
 3765SOL    HW115058   5.007   2.610   0.549 -0.0392  0.3551  0.1153
 3765SOL    HW215059   4.994   2.713   0.659 -0.6169  0.0135  0.3698
 3765SOL     MW15060   5.023   2.690   0.580 -0.1442  0.2379  0.4746
 3766SOL     OW15061   2.596   5.303   5.291  0.0702 -0.0635  0.3285
 3766SOL    HW115062   2.614   5.233   5.354  1.7471  0.5385  0.5886
 3766SOL    HW215063   2.658   5.373   5.315  0.5004  0.3333 -1.7551
 3766SOL     MW15064   2.606   5.303   5.302  0.3400  0.0643  0.0951
 3767SOL     OW15065   0.229   2.872   1.037  0.0128  0.1417  0.3457
 3767SOL    HW115066   0.190   2.874   0.949 -1.4091  0.1173  0.9455
 3767SOL    HW215067   0.232   2.779   1.059  1.2879  0.0755 -0.0507
 3767SOL     MW15068   0.224   2.860   1.029 -0.0060  0.1301  0.3718
 3768SOL     OW15069   3.227   3.024   2.597 -0.3608  0.3680 -0.0146
 3768SOL    HW115070   3.137   3.000   2.576  0.2914 -1.1513 -1.2398
 3768SOL    HW215071   3.251   3.088   2.531 -0.1937 -0.0627 -0.3766
 3768SOL     MW15072   3.218   3.029   2.586 -0.2559  0.1184 -0.2178
 3769SOL     OW15073   4.945   4.835   4.898 -0.3642 -0.1503 -0.5615
 3769SOL    HW115074   4.930   4.775   4.971  0.7588  1.5170  1.1433
 3769SOL    HW215075   4.874   4.818   4.838 -0.6323 -2.4746  0.3155
 3769SOL     MW15076   4.934   4.825   4.900 -0.2548 -0.2344 -0.2310
 3770SOL     OW15077   2.246   3.467   1.826 -0.3424  0.2088  0.6134
 3770SOL    HW115078   2.301   3.416   1.885 -0.3658 -1.0749 -0.4228
 3770SOL    HW215079   2.185   3.403   1.789  0.0460  0.8368 -1.2303
 3770SOL     MW15080   2.245   3.452   1.829 -0.2957  0.1249  0.2448
 3771SOL     OW15081   2.223   5.254   4.747  0.5067 -0.3224 -0.0074
 3771SOL    HW115082   2.267   5.336   4.725  0.1014  0.1621  0.9433
 3771SOL    HW215083   2.226   5.203   4.666  0.4694  0.7670 -0.7189
 3771SOL     MW15084   2.229   5.258   4.734  0.4501 -0.1209  0.0232
 3772SOL     OW15085   3.930   0.049   1.759  0.2564 -0.2533  0.1839
 3772SOL    HW115086   3.857   0.040   1.819  0.7600  1.6943  1.1748
 3772SOL    HW215087   4.005   0.071   1.814  1.1290 -0.1353 -0.9896
 3772SOL     MW15088   3.930   0.051   1.774  0.4325  0.0111  0.1605
 3773SOL     OW15089   5.062   3.140   4.352  0.0215  0.5883  0.3000
 3773SOL    HW115090   5.118   3.079   4.304  2.4202  0.7861  2.5820
 3773SOL    HW215091   5.041   3.209   4.289  1.7755  0.1049 -0.8758
 3773SOL     MW15092   5.067   3.141   4.338  0.5531  0.5517  0.4416
 3774SOL     OW15093   4.994   1.359   5.060 -0.1540 -0.1495 -0.6208
 3774SOL    HW115094   4.924   1.397   5.113  0.6968  1.5878 -0.6734
 3774SOL    HW215095   4.979   1.396   4.972  1.1108  0.6724 -0.5117
 3774SOL     MW15096   4.983   1.369   5.055  0.1168  0.1781 -0.6136
 3775SOL     OW15097   1.130   0.161   5.267 -0.1843  0.5214  0.3560
 3775SOL    HW115098   1.048   0.200   5.237  0.2137  0.9683 -0.1688
 3775SOL    HW215099   1.188   0.165   5.191  1.0629  2.2943  1.3238
 3775SOL     MW15100   1.127   0.167   5.254  0.0263  0.8056  0.4127
 3776SOL     OW15101   0.409   2.534   0.668  0.0319  0.2686 -0.6610
 3776SOL    HW115102   0.330   2.535   0.613 -1.7469 -0.7364  1.7010
 3776SOL    HW215103   0.412   2.621   0.707 -0.2666  0.1351 -0.3286
 3776SOL     MW15104   0.399   2.545   0.666 -0.2340  0.1228 -0.3161
 3777SOL     OW15105   3.951   3.239   4.159 -0.4469 -0.2816 -0.3447
 3777SOL    HW115106   3.881   3.259   4.222 -0.4121  0.5455 -0.5598
 3777SOL    HW215107   3.913   3.171   4.103 -1.2038  0.4008 -0.6734
 3777SOL     MW15108   3.937   3.233   4.160 -0.5393 -0.0883 -0.4143
 3778SOL     OW15109   5.331   4.859   5.419  0.4151  0.5895  0.7735
 3778SOL    HW115110   5.357   4.767   5.417  0.4940  0.6151  0.6050
 3778SOL    HW215111   5.292   4.871   5.506  1.7773  0.7627  1.3915
 3778SOL     MW15112   5.330   4.849   5.430  0.5995  0.6150  0.8311
 3779SOL     OW15113   0.503   3.415   4.001  0.3320 -0.4703 -0.3787
 3779SOL    HW115114   0.504   3.464   3.919  1.7927 -1.3156 -0.8965
 3779SOL    HW215115   0.595   3.391   4.016  0.1539 -0.1346  1.6311
 3779SOL     MW15116   0.515   3.418   3.992  0.4962 -0.5355 -0.1877
 3780SOL     OW15117   3.989   0.118   2.625  0.2554  0.1863  0.0488
 3780SOL    HW115118   3.897   0.134   2.646  0.4287  0.5947  0.5212
 3780SOL    HW215119   4.033   0.112   2.710  0.9395  1.6892 -0.1501
 3780SOL     MW15120   3.983   0.119   2.638  0.3652  0.4310  0.0838
 3781SOL     OW15121   2.965   3.110   4.568 -0.3614  0.0175  0.0675
 3781SOL    HW115122   3.010   3.162   4.501  0.8123 -0.8327  0.1734
 3781SOL    HW215123   2.875   3.102   4.535  0.1774 -0.3598 -1.4182
 3781SOL     MW15124   2.959   3.116   4.555 -0.1422 -0.1396 -0.1092
 3782SOL     OW15125   0.841   4.458   0.627  0.3623  0.0264 -0.1027
 3782SOL    HW115126   0.759   4.462   0.577 -1.5099  1.6763  2.7522
 3782SOL    HW215127   0.822   4.398   0.699  1.7368  0.2627  0.4840
 3782SOL     MW15128   0.828   4.451   0.630  0.2986  0.2679  0.3379
 3783SOL     OW15129   4.852   5.362   5.348  0.1718  0.1756  0.7142
 3783SOL    HW115130   4.914   5.298   5.311 -0.7180 -0.1880 -0.2027
 3783SOL    HW215131   4.874   5.365   5.441  1.0328 -0.5602  0.5522
 3783SOL     MW15132   4.863   5.354   5.355  0.1681  0.0348  0.5761
 3784SOL     OW15133   1.873   1.003   1.031 -0.0777 -0.2876  0.8401
 3784SOL    HW115134   1.932   1.015   0.956 -0.4323  0.7892  0.7115
 3784SOL    HW215135   1.821   0.926   1.009 -0.8189  0.5447 -0.4779
 3784SOL     MW15136   1.874   0.995   1.018 -0.2180 -0.0432  0.6549
 3785SOL     OW15137   0.210   1.821   2.719 -0.0254 -0.4200 -0.8770
 3785SOL    HW115138   0.200   1.726   2.727  1.0046 -0.5535 -0.9538
 3785SOL    HW215139   0.259   1.833   2.637  2.5185 -0.0624  0.5742
 3785SOL     MW15140   0.215   1.810   2.709  0.4321 -0.3913 -0.7011
 3786SOL     OW15141   2.603   0.995   3.962  0.1420 -0.1752 -0.1573
 3786SOL    HW115142   2.611   0.920   3.902 -1.3049 -0.6587  0.2132
 3786SOL    HW215143   2.679   0.987   4.019  0.1324 -1.2565 -0.2635
 3786SOL     MW15144   2.614   0.984   3.961 -0.0445 -0.3755 -0.1235
 3787SOL     OW15145   1.892   5.156   0.155  0.0782  0.0879  0.3490
 3787SOL    HW115146   1.799   5.179   0.164 -0.2836 -0.6943 -1.1023
 3787SOL    HW215147   1.897   5.065   0.183 -0.2395 -0.9132 -2.5174
 3787SOL     MW15148   1.880   5.147   0.160 -0.0088 -0.1404 -0.2037
 3788SOL     OW15149   0.994   5.352   4.105 -0.3969  0.2116  0.0716
 3788SOL    HW115150   0.931   5.399   4.050 -0.6046 -0.3112 -0.1455
 3788SOL    HW215151   0.949   5.270   4.127  1.3270 -1.5881 -2.5829
 3788SOL     MW15152   0.980   5.348   4.101 -0.2028 -0.0857 -0.2960
 3789SOL     OW15153   3.775   5.258   0.486  0.1222 -0.4023 -0.0855
 3789SOL    HW115154   3.747   5.258   0.395 -1.9457  1.5605  0.4606
 3789SOL    HW215155   3.835   5.332   0.494  1.0396 -1.1351 -0.0187
 3789SOL     MW15156   3.779   5.267   0.476 -0.0251 -0.2449 -0.0071
 3790SOL     OW15157   2.867   4.606   0.670 -0.3582  0.3310 -0.1320
 3790SOL    HW115158   2.829   4.537   0.724  0.8463 -0.5938 -0.4147
 3790SOL    HW215159   2.797   4.669   0.658 -0.8365  0.2832  2.0256
 3790SOL     MW15160   2.853   4.605   0.675 -0.2653  0.2065  0.1080
 3791SOL     OW15161   1.868   1.114   1.684  0.0864  0.0062 -0.6790
 3791SOL    HW115162   1.810   1.172   1.734 -0.1035 -0.5469 -0.2437
 3791SOL    HW215163   1.825   1.103   1.600  1.0295  1.9678 -1.4787
 3791SOL     MW15164   1.855   1.120   1.680  0.1828  0.1865 -0.7256
 3792SOL     OW15165   4.708   0.251   1.746 -0.0089 -0.2035 -0.4417
 3792SOL    HW115166   4.771   0.255   1.674 -0.9370  0.5806 -1.2331
 3792SOL    HW215167   4.644   0.185   1.717  0.1937 -0.6687  0.1557
 3792SOL     MW15168   4.708   0.243   1.733 -0.1018 -0.1627 -0.4665
 3793SOL     OW15169   4.587   1.078   2.815 -0.4408 -0.3871 -0.4920
 3793SOL    HW115170   4.645   1.006   2.839 -0.2870 -0.2344 -0.4091
 3793SOL    HW215171   4.643   1.141   2.771 -0.2379  0.4408  0.8982
 3793SOL     MW15172   4.601   1.077   2.813 -0.3951 -0.2616 -0.3034
 3794SOL     OW15173   2.565   2.986   1.251 -0.0997 -0.2974 -0.5912
 3794SOL    HW115174   2.475   2.979   1.284  0.3842  0.6888  1.0124
 3794SOL    HW215175   2.563   3.061   1.193 -0.5057 -0.8419 -1.3019
 3794SOL     MW15176   2.553   2.994   1.248 -0.0897 -0.2409 -0.4769
 3795SOL     OW15177   2.118   4.700   2.326  0.2911 -0.0173  0.1155
 3795SOL    HW115178   2.073   4.684   2.409 -0.7771  1.9286 -0.0476
 3795SOL    HW215179   2.071   4.646   2.262 -0.3243  0.2205  0.3649
 3795SOL     MW15180   2.106   4.691   2.329  0.0756  0.2622  0.1266
 3796SOL     OW15181   1.560   4.400   1.060  0.0236 -0.0965  0.5510
 3796SOL    HW115182   1.506   4.462   1.109  0.0194  0.2511  0.1128
 3796SOL    HW215183   1.650   4.419   1.087  0.1875  1.2852 -0.8644
 3796SOL     MW15184   1.565   4.410   1.070  0.0440  0.1249  0.3137
 3797SOL     OW15185   2.082   4.840   5.147  0.0083 -0.1554 -0.0835
 3797SOL    HW115186   2.082   4.853   5.052 -2.5446 -0.1179 -0.1614
 3797SOL    HW215187   2.005   4.888   5.177  1.1003  0.3568  2.1219
 3797SOL     MW15188   2.072   4.848   5.139 -0.1787 -0.0850  0.1889
 3798SOL     OW15189   2.260   4.521   5.399 -0.2691  0.5882 -0.1160
 3798SOL    HW115190   2.339   4.554   5.443 -0.1111 -1.8359  1.5984
 3798SOL    HW215191   2.210   4.478   5.469 -1.0075 -1.6844 -1.9207
 3798SOL     MW15192   2.264   4.520   5.414 -0.3434 -0.0130 -0.1276
 3799SOL     OW15193   4.683   1.735   3.541  0.1862  0.5098 -0.4826
 3799SOL    HW115194   4.592   1.722   3.515  0.4894 -0.1240 -1.2556
 3799SOL    HW215195   4.706   1.822   3.508  0.2681  0.1095 -1.5157
 3799SOL     MW15196   4.675   1.744   3.533  0.2355  0.3774 -0.7138
 3800SOL     OW15197   5.363   2.526   1.144 -0.4922 -0.3887 -0.2934
 3800SOL    HW115198   5.420   2.500   1.217 -0.9145 -1.6124 -0.3780
 3800SOL    HW215199   5.290   2.571   1.186 -0.0721  0.1128 -0.0849
 3800SOL     MW15200   5.361   2.528   1.159 -0.4925 -0.4811 -0.2775
 3801SOL     OW15201   3.692   3.606   2.311  0.0444 -0.4503 -0.4259
 3801SOL    HW115202   3.616   3.567   2.354  0.9689 -0.9198  0.8032
 3801SOL    HW215203   3.679   3.701   2.321  0.6534 -0.5598  1.6332
 3801SOL     MW15204   3.681   3.613   2.318  0.2407 -0.5244 -0.0050
 3802SOL     OW15205   0.110   2.502   2.534  0.1766 -0.3185 -0.4292
 3802SOL    HW115206   0.073   2.586   2.561  1.6047  0.5945 -1.1928
 3802SOL    HW215207   0.202   2.507   2.559  1.0423 -0.3343 -3.2570
 3802SOL     MW15208   0.117   2.514   2.540  0.4703 -0.2037 -0.8889
 3803SOL     OW15209   4.695   1.989   3.485 -0.4426  0.3379  0.2963
 3803SOL    HW115210   4.705   2.061   3.424 -0.9629 -0.9105 -1.3262
 3803SOL    HW215211   4.610   2.004   3.527 -0.2661  0.9873  0.4241
 3803SOL     MW15212   4.686   2.000   3.483 -0.4866  0.2613  0.1050
 3804SOL     OW15213   1.106   0.510   0.754  0.2182 -0.1328  0.1273
 3804SOL    HW115214   1.192   0.499   0.794 -0.3592 -1.1527  1.1719
 3804SOL    HW215215   1.045   0.508   0.828 -0.8085 -0.9848 -0.7056
 3804SOL     MW15216   1.109   0.508   0.769  0.0129 -0.3725  0.1544
 3805SOL     OW15217   3.133   1.773   4.961  0.3195 -0.0675  0.1600
 3805SOL    HW115218   3.162   1.843   4.903 -0.3531  0.7936  0.8393
 3805SOL    HW215219   3.098   1.818   5.038  0.4814 -1.1681  0.8991
 3805SOL     MW15220   3.132   1.788   4.964  0.2541 -0.0982  0.3416
 3806SOL     OW15221   0.726   3.843   3.536  0.0150 -0.3592 -0.5858
 3806SOL    HW115222   0.662   3.834   3.607  0.5512  0.1331 -0.0363
 3806SOL    HW215223   0.739   3.754   3.505  2.3287 -1.1236  2.1968
 3806SOL     MW15224   0.719   3.830   3.541  0.3798 -0.3940 -0.1593
 3807SOL     OW15225   0.406   3.184   3.876  0.4085 -0.4644  0.9538
 3807SOL    HW115226   0.325   3.199   3.828  1.0471 -1.5212 -0.5257
 3807SOL    HW215227   0.417   3.262   3.930 -0.5690  0.5844 -0.3080
 3807SOL     MW15228   0.397   3.196   3.877  0.3651 -0.4654  0.6029
 3808SOL     OW15229   1.552   4.725   4.401  0.1540 -0.3601 -0.0136
 3808SOL    HW115230   1.621   4.786   4.375  0.5158 -0.3104  1.0303
 3808SOL    HW215231   1.555   4.656   4.335 -0.4121  0.8305 -1.3598
 3808SOL     MW15232   1.561   4.724   4.389  0.1278 -0.2013 -0.0523
 3809SOL     OW15233   2.857   0.944   0.992  0.5675  0.0777 -0.3118
 3809SOL    HW115234   2.884   0.871   0.937  2.0009  1.6084 -1.7696
 3809SOL    HW215235   2.845   0.905   1.079  2.6576 -1.6577 -0.7127
 3809SOL     MW15236   2.859   0.930   0.996  1.0185  0.0515 -0.5498
 3810SOL     OW15237   0.799   5.006   1.128  0.0756 -0.7489 -0.3072
 3810SOL    HW115238   0.885   5.026   1.091 -0.0533  0.0715 -0.1863
 3810SOL    HW215239   0.799   5.051   1.212  0.0792 -1.9732  0.3597
 3810SOL     MW15240   0.810   5.014   1.134  0.0596 -0.8006 -0.2064
 3811SOL     OW15241   3.177   4.634   3.683 -0.1175  0.6470 -0.0938
 3811SOL    HW115242   3.198   4.710   3.630 -1.9309 -0.4164 -2.5385
 3811SOL    HW215243   3.096   4.658   3.729 -0.8051  0.1821 -1.0249
 3811SOL     MW15244   3.169   4.646   3.682 -0.4376  0.4514 -0.5260
 3812SOL     OW15245   4.078   4.208   1.338  0.3504  0.3623  0.6320
 3812SOL    HW115246   4.094   4.301   1.324 -0.4059  0.4512  0.2742
 3812SOL    HW215247   4.020   4.183   1.266 -1.9028  0.3236  2.3345
 3812SOL     MW15248   4.073   4.217   1.327 -0.0349  0.3687  0.8041
 3813SOL     OW15249   1.769   0.756   0.928 -0.1834 -0.1914 -0.2845
 3813SOL    HW115250   1.756   0.808   0.849  0.1841  1.3980  0.6657
 3813SOL    HW215251   1.681   0.741   0.962 -0.3661 -1.1826 -1.1674
 3813SOL     MW15252   1.756   0.761   0.922 -0.1598 -0.1148 -0.2759
 3814SOL     OW15253   0.775   3.956   1.009  0.6639  0.1243  0.3490
 3814SOL    HW115254   0.680   3.943   1.006  0.9787 -2.4079 -2.3647
 3814SOL    HW215255   0.803   3.905   1.086 -0.0141 -0.4850  0.2043
 3814SOL     MW15256   0.767   3.948   1.019  0.6174 -0.2779 -0.0169
 3815SOL     OW15257   3.163   3.937   4.106 -0.4685 -0.2301 -0.0313
 3815SOL    HW115258   3.081   3.889   4.115 -0.8216  0.6246  1.7358
 3815SOL    HW215259   3.172   3.952   4.012 -1.3996 -1.8983 -0.4172
 3815SOL     MW15260   3.154   3.933   4.095 -0.6329 -0.3343  0.1455
 3816SOL     OW15261   2.726   0.615   5.069 -0.7950 -0.0724  0.1986
 3816SOL    HW115262   2.661   0.566   5.120 -1.0178 -0.6193 -0.5951
 3816SOL    HW215263   2.676   0.651   4.996 -0.4663  0.6653  0.3232
 3816SOL     MW15264   2.711   0.613   5.066 -0.7814 -0.0480  0.1129
 3817SOL     OW15265   4.129   0.341   1.298  0.1701 -0.0520  0.2234
 3817SOL    HW115266   4.129   0.303   1.386 -0.3466 -0.0859  0.2148
 3817SOL    HW215267   4.041   0.377   1.287  0.5376  0.8303  0.0880
 3817SOL     MW15268   4.118   0.340   1.308  0.1510  0.0566  0.2050
 3818SOL     OW15269   4.717   2.108   0.400 -0.4973  0.6458 -0.4431
 3818SOL    HW115270   4.799   2.109   0.450 -0.1679  1.2999 -0.9804
 3818SOL    HW215271   4.735   2.162   0.323 -2.0316  2.4822  0.4090
 3818SOL     MW15272   4.730   2.115   0.397 -0.6515  0.9646 -0.4028
 3819SOL     OW15273   2.771   2.094   4.089 -0.2085  0.1196  0.5446
 3819SOL    HW115274   2.809   2.167   4.137  0.8872 -0.3699  0.4436
 3819SOL    HW215275   2.836   2.024   4.095 -0.7211 -0.4573 -0.3505
 3819SOL     MW15276   2.784   2.095   4.096 -0.1338 -0.0169  0.4171
 3820SOL     OW15277   2.848   0.216   0.476 -0.4534 -0.2491  0.1745
 3820SOL    HW115278   2.752   0.226   0.477 -0.2695  2.4829 -0.3703
 3820SOL    HW215279   2.877   0.263   0.554  0.4092 -2.7250  1.4272
 3820SOL     MW15280   2.839   0.223   0.486 -0.3195 -0.2163  0.2651
 3821SOL     OW15281   3.265   5.061   1.306 -0.4454 -0.0114  0.0948
 3821SOL    HW115282   3.206   5.136   1.313 -0.3355  0.0426  0.4279
 3821SOL    HW215283   3.267   5.042   1.212  1.7452  2.1634 -0.3978
 3821SOL     MW15284   3.258   5.068   1.295 -0.1509  0.2739  0.0744
 3822SOL     OW15285   1.654   4.118   3.825 -0.3323 -0.2039 -0.4049
 3822SOL    HW115286   1.560   4.127   3.805 -0.2826 -0.2595 -0.6649
 3822SOL    HW215287   1.658   4.048   3.889 -0.5998  0.6871  0.6219
 3822SOL     MW15288   1.642   4.110   3.831 -0.3602 -0.0970 -0.3067
 3823SOL     OW15289   0.653   4.296   2.710 -0.3889  0.0853  0.1202
 3823SOL    HW115290   0.649   4.358   2.637  0.1402 -0.5845 -0.4978
 3823SOL    HW215291   0.714   4.335   2.772 -1.5480  1.1022  0.6447
 3823SOL     MW15292   0.661   4.309   2.708 -0.4695  0.1298  0.1082
 3824SOL     OW15293   1.517   3.021   4.258  0.2236  0.4308 -0.3115
 3824SOL    HW115294   1.564   3.002   4.177 -0.2295  0.5562 -0.6106
 3824SOL    HW215295   1.496   3.114   4.252 -2.0052 -0.0639 -1.2590
 3824SOL     MW15296   1.520   3.030   4.247 -0.1197  0.3835 -0.4711
 3825SOL     OW15297   4.921   5.147   4.372  0.6109 -0.4045 -0.1008
 3825SOL    HW115298   4.869   5.223   4.347  0.6334 -0.2747  0.2393
 3825SOL    HW215299   5.005   5.184   4.400  1.0323 -0.6399 -1.0192
 3825SOL     MW15300   4.925   5.162   4.372  0.6677 -0.4180 -0.1748
 3826SOL     OW15301   3.134   4.875   3.985 -0.3131 -0.0087 -0.0502
 3826SOL    HW115302   3.191   4.950   4.002 -0.5979  0.4703 -1.1632
 3826SOL    HW215303   3.100   4.851   4.071  1.0884  0.0634  0.5655
 3826SOL     MW15304   3.137   4.881   3.998 -0.1701  0.0618 -0.1139
 3827SOL     OW15305   4.818   3.188   0.461  0.4164  0.4988 -0.5809
 3827SOL    HW115306   4.895   3.183   0.516 -0.0796 -1.3160  0.0133
 3827SOL    HW215307   4.810   3.101   0.421 -0.6559  1.0012 -1.5471
 3827SOL     MW15308   4.827   3.176   0.463  0.2157  0.3308 -0.6285
 3828SOL     OW15309   3.767   5.363   2.441 -0.7145 -0.2493  0.5815
 3828SOL    HW115310   3.804   5.299   2.501 -0.0565 -0.6701 -0.2399
 3828SOL    HW215311   3.831   5.434   2.439  0.1522 -1.0061 -0.8909
 3828SOL     MW15312   3.780   5.364   2.448 -0.5193 -0.4001  0.2879
 3829SOL     OW15313   1.047   4.948   2.402  0.3050 -0.0732 -0.3205
 3829SOL    HW115314   1.066   4.859   2.430  0.3564  0.2471  0.7107
 3829SOL    HW215315   1.133   4.991   2.397  0.1737  0.3946  0.9268
 3829SOL     MW15316   1.061   4.942   2.405  0.2947  0.0277 -0.0288
 3830SOL     OW15317   2.966   0.997   0.309 -0.3649  0.2101 -0.1581
 3830SOL    HW115318   2.888   0.944   0.326  0.1378 -1.0055 -1.4586
 3830SOL    HW215319   2.940   1.055   0.238 -0.5050  0.8101  0.3732
 3830SOL     MW15320   2.953   0.998   0.302 -0.3185  0.1313 -0.2565
 3831SOL     OW15321   5.317   1.988   4.178 -0.6593 -0.0631  0.0177
 3831SOL    HW115322   5.248   2.011   4.116 -1.1560 -1.5694 -0.0313
 3831SOL    HW215323   5.302   2.044   4.254 -0.1551  1.6848 -1.1166
 3831SOL     MW15324   5.306   1.998   4.180 -0.6583 -0.0322 -0.1338
 3832SOL     OW15325   2.260   0.729   0.467 -0.2528 -0.4014 -0.6862
 3832SOL    HW115326   2.226   0.742   0.555 -0.1861 -3.0526 -0.1954
 3832SOL    HW215327   2.327   0.661   0.476 -0.4570 -0.9688 -2.8094
 3832SOL     MW15328   2.264   0.722   0.479 -0.2704 -0.8134 -0.8952
 3833SOL     OW15329   5.027   5.451   1.755  0.5090 -0.5828 -0.2212
 3833SOL    HW115330   5.025   5.356   1.767 -1.4474 -0.5066  0.3159
 3833SOL    HW215331   4.991   5.464   1.667 -0.4079 -0.2945  0.1846
 3833SOL     MW15332   5.022   5.440   1.745  0.1412 -0.5362 -0.1005
 3834SOL     OW15333   5.094   4.871   4.656 -0.4213  0.1261  0.4826
 3834SOL    HW115334   5.016   4.904   4.612 -0.0536  2.0543  1.1892
 3834SOL    HW215335   5.064   4.847   4.744 -0.3651  0.1527  0.5095
 3834SOL     MW15336   5.080   4.872   4.662 -0.3671  0.3763  0.5765
 3835SOL     OW15337   0.892   1.724   1.749 -0.3301 -0.6807  0.2735
 3835SOL    HW115338   0.918   1.796   1.807 -0.6074 -1.0233  0.8286
 3835SOL    HW215339   0.965   1.662   1.754 -0.9241 -1.3275  1.3051
 3835SOL     MW15340   0.905   1.726   1.757 -0.4416 -0.8073  0.4766
 3836SOL     OW15341   2.966   0.165   1.462 -0.4403  0.6232 -0.2022
 3836SOL    HW115342   2.887   0.125   1.426  0.9975  0.0179 -3.0811
 3836SOL    HW215343   2.990   0.231   1.397  1.5593  0.5503  0.3980
 3836SOL     MW15344   2.959   0.168   1.449 -0.0003  0.5364 -0.4939
 3837SOL     OW15345   0.634   4.009   2.813 -0.1288 -0.1213 -0.3570
 3837SOL    HW115346   0.681   4.092   2.813  0.8391 -0.5241  2.7181
 3837SOL    HW215347   0.701   3.943   2.802 -0.4891 -0.5711  0.0798
 3837SOL     MW15348   0.648   4.011   2.812 -0.0510 -0.2304  0.0925
 3838SOL     OW15349   1.736   1.342   4.267  0.1392 -0.2066  0.1257
 3838SOL    HW115350   1.758   1.250   4.259  1.6349  0.1988 -1.0794
 3838SOL    HW215351   1.648   1.349   4.231  0.9204 -0.8557 -2.0867
 3838SOL     MW15352   1.728   1.331   4.261  0.4306 -0.2378 -0.3118
 3839SOL     OW15353   3.275   3.367   1.452 -0.2397 -0.1183 -0.2035
 3839SOL    HW115354   3.202   3.422   1.479 -0.6386 -0.0288 -1.4227
 3839SOL    HW215355   3.349   3.427   1.443 -0.5062  0.1091 -0.8803
 3839SOL     MW15356   3.275   3.382   1.455 -0.3249 -0.0777 -0.4462
 3840SOL     OW15357   4.451   2.654   4.337 -0.3194  0.0722 -0.2099
 3840SOL    HW115358   4.528   2.630   4.285 -0.5563 -0.5575 -0.2735
 3840SOL    HW215359   4.427   2.741   4.305  0.8631  0.6444  0.3857
 3840SOL     MW15360   4.458   2.662   4.327 -0.1984  0.0648 -0.1418
 3841SOL     OW15361   1.177   1.681   0.966 -0.0250  0.0213  0.3469
 3841SOL    HW115362   1.105   1.732   0.928  0.2934  0.1342 -0.1174
 3841SOL    HW215363   1.249   1.743   0.974  1.5414 -0.9950 -3.4609
 3841SOL     MW15364   1.177   1.696   0.962  0.2163 -0.0944 -0.2000
 3842SOL     OW15365   3.604   4.804   1.619 -0.6483 -0.2809 -0.2232
 3842SOL    HW115366   3.547   4.808   1.542  0.0532  0.5290 -0.7196
 3842SOL    HW215367   3.686   4.844   1.591  0.0839 -1.1664  0.5665
 3842SOL     MW15368   3.607   4.810   1.606 -0.4647 -0.2906 -0.1856
 3843SOL     OW15369   0.543   0.934   0.303  0.2422 -0.1529  0.4792
 3843SOL    HW115370   0.522   1.021   0.269 -0.9686 -0.3107  0.7658
 3843SOL    HW215371   0.600   0.895   0.237  0.3256  0.6373  0.0726
 3843SOL     MW15372   0.548   0.940   0.290  0.0979 -0.0720  0.4638
 3844SOL     OW15373   1.540   1.218   3.028  0.3022  0.2750 -0.2125
 3844SOL    HW115374   1.449   1.235   3.004 -0.1382  0.1471  1.2371
 3844SOL    HW215375   1.546   1.249   3.119  2.3239  2.4901 -0.9788
 3844SOL     MW15376   1.529   1.224   3.037  0.5046  0.5422 -0.1251
 3845SOL     OW15377   3.238   1.177   2.442 -0.1558 -0.2576  0.0369
 3845SOL    HW115378   3.227   1.108   2.507 -1.2743 -0.3843 -0.2623
 3845SOL    HW215379   3.211   1.137   2.359 -0.0484  0.3072 -0.2793
 3845SOL     MW15380   3.233   1.163   2.439 -0.2852 -0.2016 -0.0419
 3846SOL     OW15381   2.285   4.886   5.302 -0.1124 -0.0654 -0.4148
 3846SOL    HW115382   2.276   4.975   5.338 -0.4098 -0.3130  0.1438
 3846SOL    HW215383   2.212   4.878   5.240  0.0352  0.1487 -0.6201
 3846SOL     MW15384   2.274   4.897   5.299 -0.1316 -0.0697 -0.3696
 3847SOL     OW15385   4.166   2.140   5.016 -0.1313 -0.2134  0.2571
 3847SOL    HW115386   4.157   2.089   4.936  0.4001  0.7267 -0.4170
 3847SOL    HW215387   4.120   2.222   4.998 -1.4241 -0.6164  1.5077
 3847SOL     MW15388   4.159   2.144   5.004 -0.2288 -0.1446  0.3309
 3848SOL     OW15389   1.580   1.533   0.890  0.6432 -0.0416 -0.3898
 3848SOL    HW115390   1.506   1.540   0.829  0.8439  0.9251 -0.5373
 3848SOL    HW215391   1.571   1.610   0.947  0.8609 -0.5612  0.3525
 3848SOL     MW15392   1.569   1.544   0.890  0.6968  0.0157 -0.3136
 3849SOL     OW15393   1.975   0.611   4.764 -0.1854 -0.2304 -0.1162
 3849SOL    HW115394   2.023   0.529   4.773 -0.2086 -0.1289  1.3017
 3849SOL    HW215395   2.035   0.677   4.799  0.1432  0.5100 -1.9591
 3849SOL     MW15396   1.989   0.609   4.770 -0.1463 -0.1226 -0.1706
 3850SOL     OW15397   1.865   5.418   1.468  0.2381 -0.1879 -0.2630
 3850SOL    HW115398   1.834   5.429   1.558  0.2179  0.9407 -0.3934
 3850SOL    HW215399   1.941   5.360   1.475  1.0671  0.9596  0.6597
 3850SOL     MW15400   1.871   5.412   1.480  0.3417  0.1035 -0.1616
 3851SOL     OW15401   3.187   0.557   0.246  0.1528 -0.2748 -0.4314
 3851SOL    HW115402   3.254   0.587   0.185  1.7055 -2.8210 -0.1374
 3851SOL    HW215403   3.179   0.628   0.310  2.8542  0.0342 -0.3014
 3851SOL     MW15404   3.195   0.570   0.246  0.6973 -0.5612 -0.3771
 3852SOL     OW15405   3.293   0.523   2.372 -0.2908  0.2631  0.2545
 3852SOL    HW115406   3.276   0.608   2.413 -0.1561 -0.4102  1.7722
 3852SOL    HW215407   3.378   0.495   2.407 -0.5974 -0.7536  0.2384
 3852SOL     MW15408   3.301   0.530   2.382 -0.3128  0.0468  0.4467
 3853SOL     OW15409   2.158   5.039   3.297 -0.3222 -0.5016  0.1191
 3853SOL    HW115410   2.221   5.052   3.226 -1.6721  1.7007 -0.8087
 3853SOL    HW215411   2.078   5.008   3.253 -1.3443  1.3933  0.5000
 3853SOL     MW15412   2.156   5.037   3.282 -0.6259  0.0228  0.0491
 3854SOL     OW15413   3.748   4.015   0.657 -0.0358 -0.2039  0.1977
 3854SOL    HW115414   3.683   3.976   0.598  0.4340 -0.4407 -0.1717
 3854SOL    HW215415   3.829   3.969   0.636  0.7580  1.6126 -0.9040
 3854SOL     MW15416   3.750   4.004   0.647  0.1260 -0.0017  0.0094
 3855SOL     OW15417   3.431   4.825   1.429 -0.2270  0.6791  0.4008
 3855SOL    HW115418   3.385   4.746   1.459 -1.2803  1.3155  0.5272
 3855SOL    HW215419   3.362   4.878   1.388  1.0885 -0.2321 -3.4670
 3855SOL     MW15420   3.416   4.822   1.427 -0.1934  0.6439 -0.0782
 3856SOL     OW15421   4.378   2.168   5.427 -0.1452 -0.0580  0.0083
 3856SOL    HW115422   4.312   2.121   5.478 -1.0792  0.1310 -0.9894
 3856SOL    HW215423   4.362   2.142   5.337  0.8072  0.4230 -0.3188
 3856SOL     MW15424   4.368   2.159   5.422 -0.1428  0.0278 -0.1613
 3857SOL     OW15425   4.789   2.490   3.257 -0.3039 -0.3067  0.3419
 3857SOL    HW115426   4.754   2.401   3.256 -0.3431 -0.3045  0.8788
 3857SOL    HW215427   4.876   2.480   3.296 -0.5821 -0.0209  1.0538
 3857SOL     MW15428   4.796   2.477   3.262 -0.3445 -0.2698  0.5018
 3858SOL     OW15429   0.440   4.328   4.609  0.2732 -0.3486  0.1957
 3858SOL    HW115430   0.380   4.388   4.564  1.0546  0.8358  0.6804
 3858SOL    HW215431   0.480   4.277   4.539 -0.5790 -0.4939 -0.2086
 3858SOL     MW15432   0.437   4.329   4.594  0.2641 -0.2156  0.2060
 3859SOL     OW15433   3.525   1.875   5.076 -0.4509  0.2079 -0.1059
 3859SOL    HW115434   3.616   1.901   5.090  0.1490 -2.2457  1.1452
 3859SOL    HW215435   3.479   1.910   5.152  0.0664 -1.0651  0.8232
 3859SOL     MW15436   3.531   1.883   5.088 -0.3079 -0.2691  0.1731
 3860SOL     OW15437   4.660   3.838   5.193 -0.1423  0.1496  0.4570
 3860SOL    HW115438   4.743   3.885   5.180 -0.4631  1.0836  1.5926
 3860SOL    HW215439   4.650   3.785   5.114  2.8019 -2.0018  1.3575
 3860SOL     MW15440   4.669   3.837   5.181  0.1935 -0.0062  0.7177
 3861SOL     OW15441   1.220   3.420   4.926  0.4601  0.0032  0.1289
 3861SOL    HW115442   1.313   3.398   4.932  0.6332  0.9286  1.0522
 3861SOL    HW215443   1.207   3.489   4.991 -0.7824  0.2092 -0.3104
 3861SOL     MW15444   1.230   3.426   4.935  0.3232  0.1480  0.1909
 3862SOL     OW15445   2.256   5.220   1.850  0.1438 -0.5514  0.1109
 3862SOL    HW115446   2.203   5.299   1.847 -0.2742 -0.8433 -0.4444
 3862SOL    HW215447   2.298   5.215   1.763  0.1359 -0.9541  0.1259
 3862SOL     MW15448   2.255   5.229   1.838  0.0893 -0.6403  0.0418
 3863SOL     OW15449   5.393   3.875   2.597 -0.2594 -0.1349 -0.4303
 3863SOL    HW115450   5.350   3.909   2.519 -0.2952 -1.3435 -0.9568
 3863SOL    HW215451   5.410   3.952   2.651 -0.3680  0.6924 -1.5603
 3863SOL     MW15452   5.389   3.889   2.594 -0.2779 -0.1837 -0.6424
 3864SOL     OW15453   0.697   1.528   4.100  0.7204 -0.1947 -1.1350
 3864SOL    HW115454   0.672   1.581   4.025 -0.6648  0.2493 -0.3867
 3864SOL    HW215455   0.716   1.591   4.169  0.1395 -0.6251 -0.5687
 3864SOL     MW15456   0.696   1.543   4.099  0.4687 -0.1929 -0.9667
 3865SOL     OW15457   0.966   2.477   2.657  0.2712 -0.1968  0.1980
 3865SOL    HW115458   0.890   2.505   2.708  0.5782  0.6569  0.2032
 3865SOL    HW215459   0.939   2.394   2.618 -0.1922 -0.5455  1.2355
 3865SOL     MW15460   0.953   2.470   2.659  0.2512 -0.1321  0.3315
 3866SOL     OW15461   1.386   0.636   4.040  0.2189  0.1883  0.2166
 3866SOL    HW115462   1.323   0.630   4.113  0.4716 -1.0484  0.3513
 3866SOL    HW215463   1.462   0.587   4.070  0.8815  0.8670 -0.3348
 3866SOL     MW15464   1.387   0.629   4.053  0.3361  0.1169  0.1633
 3867SOL     OW15465   3.131   3.044   1.987 -0.1717  0.1599 -0.1355
 3867SOL    HW115466   3.194   3.056   2.058 -0.3209  0.9514 -0.1258
 3867SOL    HW215467   3.089   2.960   2.006  0.8093 -0.3282 -0.0928
 3867SOL     MW15468   3.133   3.035   1.998 -0.0652  0.1987 -0.1288
 3868SOL     OW15469   4.521   1.713   1.506 -0.0045  0.4991  0.6986
 3868SOL    HW115470   4.432   1.729   1.537 -0.0947  1.4527 -0.0112
 3868SOL    HW215471   4.573   1.785   1.542  0.0626  1.1047 -0.5394
 3868SOL     MW15472   4.517   1.724   1.514 -0.0075  0.6987  0.4493
 3869SOL     OW15473   3.071   3.268   2.940  0.0261  0.1875 -0.0429
 3869SOL    HW115474   3.125   3.343   2.914 -0.8534  0.9488  0.2876
 3869SOL    HW215475   3.125   3.192   2.918  0.8170  0.8997 -0.6625
 3869SOL     MW15476   3.085   3.268   2.934  0.0148  0.3762 -0.0799
 3870SOL     OW15477   4.141   3.137   1.220  0.1762  0.0808 -0.3627
 3870SOL    HW115478   4.152   3.041   1.223 -1.7331 -0.1794 -0.8992
 3870SOL    HW215479   4.137   3.157   1.127  2.8662  1.0440 -0.3716
 3870SOL     MW15480   4.142   3.127   1.209  0.2761  0.1708 -0.4326
 3871SOL     OW15481   2.232   1.126   2.349 -0.0501  0.3554  0.5043
 3871SOL    HW115482   2.200   1.091   2.432 -0.5483  2.3365  1.2024
 3871SOL    HW215483   2.272   1.210   2.372 -0.4753  1.1041 -1.3082
 3871SOL     MW15484   2.233   1.132   2.362 -0.1683  0.7048  0.3616
 3872SOL     OW15485   1.708   2.043   3.728  0.1877  0.3978  0.1004
 3872SOL    HW115486   1.767   1.969   3.739  0.3625  0.4143 -0.6763
 3872SOL    HW215487   1.628   2.006   3.691  0.2302  0.5750 -0.1725
 3872SOL     MW15488   1.705   2.029   3.725  0.2155  0.4226 -0.0340
 3873SOL     OW15489   2.475   2.384   2.390  0.6304  0.6948 -0.3272
 3873SOL    HW115490   2.564   2.384   2.355  0.3584  1.8940 -1.0759
 3873SOL    HW215491   2.484   2.421   2.478  0.8767  0.7198 -0.3611
 3873SOL     MW15492   2.488   2.388   2.397  0.6271  0.8515 -0.4274
 3874SOL     OW15493   1.727   2.955   1.654 -0.3709 -0.0222 -0.5339
 3874SOL    HW115494   1.641   2.989   1.626  0.5007  1.3154 -1.7075
 3874SOL    HW215495   1.730   2.867   1.616 -1.3457 -0.2277 -0.1863
 3874SOL     MW15496   1.716   2.948   1.645 -0.3841  0.1228 -0.6396
 3875SOL     OW15497   4.575   4.255   1.786 -0.0369  0.2898  0.0354
 3875SOL    HW115498   4.628   4.215   1.855 -1.2074 -1.9030 -0.2528
 3875SOL    HW215499   4.595   4.206   1.707 -2.3193 -0.5521 -0.1142
 3875SOL     MW15500   4.584   4.244   1.785 -0.4789 -0.0987 -0.0207
 3876SOL     OW15501   4.620   2.666   4.565 -0.0065  0.5074  0.0231
 3876SOL    HW115502   4.658   2.599   4.620  0.4192  0.9901  0.3229
 3876SOL    HW215503   4.564   2.618   4.503  1.5113 -0.2622 -0.8022
 3876SOL     MW15504   4.617   2.651   4.564  0.2423  0.4707 -0.0442
 3877SOL     OW15505   3.929   1.370   5.312 -0.4217  0.2295  0.0209
 3877SOL    HW115506   3.873   1.372   5.390 -0.4330  1.3603 -0.0005
 3877SOL    HW215507   3.980   1.290   5.321 -2.9109 -1.5662 -0.5960
 3877SOL     MW15508   3.928   1.360   5.323 -0.7418  0.1444 -0.0608
 3878SOL     OW15509   0.761   1.055   1.783  0.6808  0.3149  0.1202
 3878SOL    HW115510   0.784   1.069   1.691  0.5270  1.5433  0.2454
 3878SOL    HW215511   0.678   1.008   1.781  0.5624  0.5433 -0.3744
 3878SOL     MW15512   0.754   1.051   1.771  0.6459  0.5014  0.0729
 3879SOL     OW15513   2.642   5.228   2.472 -0.1244  0.2188  0.0534
 3879SOL    HW115514   2.660   5.287   2.399  0.3142  0.8758  0.6694
 3879SOL    HW215515   2.722   5.176   2.481  0.4515  1.2188  1.0320
 3879SOL     MW15516   2.655   5.229   2.464  0.0055  0.4309  0.2575
 3880SOL     OW15517   1.899   0.103   4.047 -0.1993 -0.5777 -0.6541
 3880SOL    HW115518   1.822   0.143   4.006 -0.4370 -0.0409  0.2787
 3880SOL    HW215519   1.874   0.091   4.139  0.8406 -0.3644 -0.3263
 3880SOL     MW15520   1.886   0.107   4.054 -0.0966 -0.4817 -0.4928
 3881SOL     OW15521   4.044   3.802   0.841 -0.5764 -0.0678 -0.4098
 3881SOL    HW115522   3.983   3.730   0.821  2.0478 -3.4170  2.2652
 3881SOL    HW215523   4.129   3.771   0.809  0.8150  1.4173  1.5753
 3881SOL     MW15524   4.047   3.789   0.834 -0.0623 -0.3064  0.1867
 3882SOL     OW15525   1.238   1.007   3.394  0.3629  0.2949 -0.0373
 3882SOL    HW115526   1.224   0.949   3.469 -0.0234  0.1736 -0.2002
 3882SOL    HW215527   1.260   1.092   3.434 -0.7058  0.4598  0.2465
 3882SOL     MW15528   1.239   1.011   3.409  0.1766  0.3005 -0.0219
 3883SOL     OW15529   4.629   4.288   0.257  0.2941 -0.3439 -0.3405
 3883SOL    HW115530   4.560   4.266   0.320 -0.3440  1.7165 -0.2517
 3883SOL    HW215531   4.703   4.316   0.312 -0.1916  1.2520 -0.4444
 3883SOL     MW15532   4.630   4.289   0.272  0.1503  0.1241 -0.3424
 3884SOL     OW15533   1.574   2.452   0.801  0.0683  0.5021 -0.5521
 3884SOL    HW115534   1.608   2.487   0.718  0.6460 -0.8676 -0.9111
 3884SOL    HW215535   1.523   2.375   0.775 -0.6805  0.7000  0.2863
 3884SOL     MW15536   1.572   2.447   0.787  0.0464  0.3521 -0.4907
 3885SOL     OW15537   1.472   4.730   3.761  0.1106  0.0373  0.2083
 3885SOL    HW115538   1.381   4.700   3.755  0.0740  0.3647 -1.1855
 3885SOL    HW215539   1.484   4.749   3.854 -2.1950  2.8404  0.0688
 3885SOL     MW15540   1.462   4.728   3.772 -0.1892  0.4381  0.0120
 3886SOL     OW15541   2.211   1.753   3.573  0.0681 -0.2411 -0.2257
 3886SOL    HW115542   2.246   1.678   3.622 -1.0126 -0.7404 -0.1851
 3886SOL    HW215543   2.269   1.761   3.497  1.2898  0.0497  0.7038
 3886SOL     MW15544   2.223   1.744   3.570  0.0861 -0.2678 -0.1015
 3887SOL     OW15545   0.027   4.214   1.739  0.0107  0.0635 -0.3583
 3887SOL    HW115546   0.086   4.286   1.717  1.0897 -0.8416 -0.5207
 3887SOL    HW215547  -0.054   4.257   1.766  0.5428  1.3266 -0.6884
 3887SOL     MW15548   0.024   4.229   1.739  0.2169  0.1093 -0.4213
 3888SOL     OW15549   0.888   2.079   4.211  0.2296 -0.2256 -0.1073
 3888SOL    HW115550   0.839   2.020   4.153 -1.0870 -0.0280  0.7541
 3888SOL    HW215551   0.869   2.048   4.299  0.3885  0.8240  0.3193
 3888SOL     MW15552   0.879   2.068   4.214  0.0814 -0.0659  0.0576
 3889SOL     OW15553   0.828   1.065   1.508 -0.1405 -0.7133 -0.3202
 3889SOL    HW115554   0.910   1.016   1.510  0.5410  0.3722 -0.8651
 3889SOL    HW215555   0.849   1.145   1.460 -1.5831 -0.5235 -0.6768
 3889SOL     MW15556   0.841   1.069   1.502 -0.2379 -0.5500 -0.4356
 3890SOL     OW15557   1.181   1.377   0.470  0.1418  0.0146 -0.7316
 3890SOL    HW115558   1.235   1.327   0.533  0.4002 -1.4630 -2.0691
 3890SOL    HW215559   1.116   1.420   0.525  1.1431 -0.1788  0.6917
 3890SOL     MW15560   1.180   1.376   0.485  0.3030 -0.1993 -0.7206
 3891SOL     OW15561   1.066   1.244   4.050  0.1318  0.2792  0.1236
 3891SOL    HW115562   1.083   1.187   3.975 -1.6984  0.7065 -0.6834
 3891SOL    HW215563   0.976   1.222   4.076  0.6594  0.3125  2.0586
 3891SOL     MW15564   1.056   1.234   4.043 -0.0350  0.3382  0.2680
 3892SOL     OW15565   4.642   4.053   0.110 -0.0381 -0.0318  0.3421
 3892SOL    HW115566   4.610   4.069   0.021  0.9515 -0.2456 -0.0644
 3892SOL    HW215567   4.638   4.139   0.152  1.5453  0.5749 -0.6194
 3892SOL     MW15568   4.638   4.066   0.104  0.2912  0.0185  0.1670
 3893SOL     OW15569   4.140   1.577   0.672 -0.1069  0.4749  0.5301
 3893SOL    HW115570   4.219   1.613   0.712  0.2278  0.6744 -0.3068
 3893SOL    HW215571   4.148   1.597   0.579 -1.7029  1.5318  0.5862
 3893SOL     MW15572   4.151   1.584   0.665 -0.2683  0.6357  0.4301
 3894SOL     OW15573   5.325   4.130   0.336  0.1282 -0.5159  0.2922
 3894SOL    HW115574   5.230   4.126   0.346  0.1242  0.6938  0.8627
 3894SOL    HW215575   5.357   4.054   0.385 -0.5274 -0.7792  0.3238
 3894SOL     MW15576   5.317   4.119   0.344  0.0437 -0.3948  0.3693
 3895SOL     OW15577   3.428   3.516   1.085  0.0145  0.0707 -0.5260
 3895SOL    HW115578   3.493   3.518   1.155 -1.4732  2.0078  0.9177
 3895SOL    HW215579   3.370   3.444   1.109 -0.1823  0.3808 -0.0682
 3895SOL     MW15580   3.429   3.507   1.097 -0.2011  0.3584 -0.2826
 3896SOL     OW15581   2.340   4.950   3.864  0.1358  0.3075  0.4853
 3896SOL    HW115582   2.308   4.980   3.949 -0.2766 -0.4773  0.6166
 3896SOL    HW215583   2.289   4.871   3.845 -1.3491  1.6532 -1.5222
 3896SOL     MW15584   2.330   4.944   3.872 -0.1071  0.3793  0.2451
 3897SOL     OW15585   4.289   0.213   4.879 -0.5138  0.2440  0.5262
 3897SOL    HW115586   4.327   0.157   4.811 -1.9872  0.3445 -0.4297
 3897SOL    HW215587   4.346   0.290   4.882 -0.3718  0.1958 -0.5498
 3897SOL     MW15588   4.301   0.216   4.870 -0.6843  0.2507  0.2661
 3898SOL     OW15589   2.076   4.345   2.852 -0.2302 -0.3929  0.2061
 3898SOL    HW115590   2.128   4.365   2.774  1.1415  1.2528  1.4665
 3898SOL    HW215591   2.115   4.398   2.921 -1.2854 -1.9358  2.0854
 3898SOL     MW15592   2.088   4.355   2.851 -0.1897 -0.3797  0.6081
 3899SOL     OW15593   0.863   2.868   2.220  0.3022 -0.0066  0.0970
 3899SOL    HW115594   0.868   2.944   2.279 -0.7790 -0.4858  0.8486
 3899SOL    HW215595   0.845   2.906   2.134 -2.2923  0.5630  0.7790
 3899SOL     MW15596   0.861   2.883   2.217 -0.1684  0.0050  0.2805
 3900SOL     OW15597   4.895   1.347   3.762 -0.0359 -0.7503 -0.3017
 3900SOL    HW115598   4.859   1.369   3.848 -0.2164  1.4921 -0.8681
 3900SOL    HW215599   4.916   1.432   3.723  2.3223 -1.7968 -1.5205
 3900SOL     MW15600   4.893   1.361   3.768  0.2429 -0.5972 -0.5302
 3901SOL     OW15601   4.542   3.574   5.070 -0.1216  0.3535 -0.0174
 3901SOL    HW115602   4.605   3.503   5.083 -0.4283  0.2705  1.1149
 3901SOL    HW215603   4.482   3.568   5.145 -1.3990  0.5223 -0.9777
 3901SOL     MW15604   4.542   3.564   5.081 -0.3244  0.3645  0.0046
 3902SOL     OW15605   1.533   4.795   2.671 -0.6642  0.4114  0.6174
 3902SOL    HW115606   1.520   4.885   2.700 -0.2022  0.4003  0.8727
 3902SOL    HW215607   1.594   4.758   2.735 -0.0888  0.2076 -0.0463
 3902SOL     MW15608   1.539   4.801   2.683 -0.5314  0.3839  0.5651
 3903SOL     OW15609   4.834   0.666   0.564 -0.1101  0.6642  0.2716
 3903SOL    HW115610   4.836   0.570   0.568  0.2955  0.5761 -1.2422
 3903SOL    HW215611   4.917   0.693   0.604  0.9318  0.2284 -1.4750
 3903SOL     MW15612   4.845   0.657   0.569  0.0752  0.5972 -0.1458
 3904SOL     OW15613   0.529   4.397   4.906 -0.5093 -0.3077  0.2176
 3904SOL    HW115614   0.566   4.415   4.820 -2.5635 -2.6336 -1.3093
 3904SOL    HW215615   0.581   4.325   4.941 -0.7917 -0.5818  0.0814
 3904SOL     MW15616   0.540   4.390   4.900 -0.8085 -0.6405  0.0047
 3905SOL     OW15617   1.036   3.453   4.185  0.3833 -0.5281 -0.4168
 3905SOL    HW115618   1.069   3.363   4.184 -0.3889 -0.8164 -2.5448
 3905SOL    HW215619   0.943   3.445   4.168  0.0513  0.6325  0.6900
 3905SOL     MW15620   1.029   3.440   4.183  0.2420 -0.4164 -0.5475
 3906SOL     OW15621   1.258   0.815   2.859  0.1073 -0.4605 -0.0756
 3906SOL    HW115622   1.324   0.862   2.909 -0.5007 -0.0296  0.3291
 3906SOL    HW215623   1.280   0.722   2.871  0.4461 -0.3319  0.3103
 3906SOL     MW15624   1.269   0.809   2.867  0.0729 -0.3889  0.0256
 3907SOL     OW15625   2.911   2.126   3.279 -0.1227 -0.1144  0.7423
 3907SOL    HW115626   2.890   2.138   3.372  0.3458  0.5534  0.7646
 3907SOL    HW215627   3.004   2.147   3.272 -0.0493 -0.6044  0.1984
 3907SOL     MW15628   2.920   2.130   3.290 -0.0533 -0.0917  0.6755
 3908SOL     OW15629   3.483   2.494   0.853  0.4033  0.3488 -0.1527
 3908SOL    HW115630   3.422   2.433   0.896  0.2734  0.6252  0.0566
 3908SOL    HW215631   3.561   2.442   0.838  0.6740  0.3971  0.9589
 3908SOL     MW15632   3.485   2.479   0.857  0.4213  0.3904  0.0164
 3909SOL     OW15633   0.051   2.230   2.503  0.4888  0.1232  0.3403
 3909SOL    HW115634   0.066   2.323   2.522 -0.7325  0.5166 -0.5302
 3909SOL    HW215635   0.004   2.230   2.420  1.0702 -1.3171 -0.0140
 3909SOL     MW15636   0.047   2.242   2.495  0.4069 -0.0108  0.1835
 3910SOL     OW15637   4.544   5.296   4.204  0.3714  0.1906  0.4947
 3910SOL    HW115638   4.545   5.369   4.142 -1.0191  0.6574  0.9749
 3910SOL    HW215639   4.574   5.221   4.153  0.6659  0.8579 -0.3364
 3910SOL     MW15640   4.548   5.296   4.190  0.2311  0.3358  0.4498
 3911SOL     OW15641   5.252   3.771   5.461 -0.4097 -0.3977  0.1424
 3911SOL    HW115642   5.163   3.803   5.447 -0.1168 -0.1352 -1.3640
 3911SOL    HW215643   5.300   3.846   5.494 -0.4394 -0.1305 -0.4037
 3911SOL     MW15644   5.247   3.784   5.463 -0.3760 -0.3299 -0.1204
 3912SOL     OW15645   3.171   4.946   4.572 -0.3553  0.1119  0.3968
 3912SOL    HW115646   3.198   4.975   4.660  1.9381 -2.6947  0.7546
 3912SOL    HW215647   3.107   4.878   4.588 -0.4185  0.0446 -0.1434
 3912SOL     MW15648   3.166   4.941   4.586 -0.0698 -0.2560  0.3735
 3913SOL     OW15649   1.902   5.105   4.334  0.7664 -0.7595 -0.5646
 3913SOL    HW115650   1.889   5.179   4.394 -0.0655  0.1844 -1.8814
 3913SOL    HW215651   1.927   5.145   4.251  0.5348 -1.9752 -1.2463
 3913SOL     MW15652   1.904   5.120   4.331  0.6303 -0.7943 -0.8204
 3914SOL     OW15653   4.435   1.661   3.487 -0.0160  0.1502  0.7384
 3914SOL    HW115654   4.436   1.577   3.533 -2.3356  0.4409  1.4180
 3914SOL    HW215655   4.439   1.637   3.394 -0.2655 -0.6856  0.9349
 3914SOL     MW15656   4.436   1.647   3.481 -0.3449  0.0804  0.8505
 3915SOL     OW15657   2.135   0.399   5.142  0.0463  0.2798  0.0720
 3915SOL    HW115658   2.130   0.464   5.212  0.0505  1.0616 -0.6373
 3915SOL    HW215659   2.219   0.415   5.100 -0.4504  0.5796 -0.8307
 3915SOL     MW15660   2.145   0.409   5.146 -0.0167  0.4182 -0.1344
 3916SOL     OW15661   1.358   2.344   0.113  0.2363 -0.1861 -0.0933
 3916SOL    HW115662   1.353   2.323   0.020 -0.2297 -2.0649  0.3193
 3916SOL    HW215663   1.290   2.410   0.126 -0.2829 -0.5319 -0.9374
 3916SOL     MW15664   1.349   2.350   0.103  0.1102 -0.4709 -0.1485
 3917SOL     OW15665   3.331   1.453   1.251  0.3642 -0.2305 -0.0755
 3917SOL    HW115666   3.368   1.458   1.163 -2.3694  2.0509 -1.2654
 3917SOL    HW215667   3.379   1.518   1.302  1.0890 -0.6472 -0.2101
 3917SOL     MW15668   3.342   1.462   1.246  0.1070  0.0082 -0.2451
 3918SOL     OW15669   2.725   5.468   4.116 -0.0230 -0.6346 -0.1305
 3918SOL    HW115670   2.731   5.449   4.210 -2.1625  0.2526  0.2332
 3918SOL    HW215671   2.798   5.527   4.099 -1.5717  2.0696  1.8036
 3918SOL     MW15672   2.735   5.473   4.126 -0.4951 -0.1749  0.1636
 3919SOL     OW15673   3.003   3.844   2.463 -0.5635 -0.3924  0.3766
 3919SOL    HW115674   3.090   3.805   2.456 -1.0702 -1.3888 -0.8009
 3919SOL    HW215675   3.007   3.900   2.541  1.8432  1.5400 -1.0398
 3919SOL     MW15676   3.014   3.846   2.472 -0.3202 -0.2726  0.0446
 3920SOL     OW15677   4.723   5.284   0.343 -0.0179  0.1424 -0.1460
 3920SOL    HW115678   4.672   5.282   0.424 -0.7191  0.0496 -0.5850
 3920SOL    HW215679   4.705   5.369   0.305  0.9298  0.4991  0.1761
 3920SOL     MW15680   4.714   5.294   0.349  0.0136  0.1762 -0.1610
 3921SOL     OW15681   4.159   4.102   4.430  0.8023 -0.2554 -0.8371
 3921SOL    HW115682   4.067   4.126   4.433  1.1709  1.2444 -0.3466
 3921SOL    HW215683   4.168   4.032   4.496  0.1345  0.0300 -0.4265
 3921SOL     MW15684   4.149   4.096   4.439  0.7640 -0.0269 -0.7218
 3922SOL     OW15685   0.034   4.415   4.518 -0.0309  0.1129  0.2640
 3922SOL    HW115686   0.050   4.439   4.610  0.9183  2.7861 -0.4893
 3922SOL    HW215687   0.116   4.377   4.489 -0.5978 -1.5031  0.6944
 3922SOL     MW15688   0.046   4.413   4.526  0.0180  0.2482  0.2227
 3923SOL     OW15689   0.242   3.828   0.304  0.1427  0.0096  0.4142
 3923SOL    HW115690   0.336   3.815   0.289  0.0264 -0.8959  0.3704
 3923SOL    HW215691   0.200   3.764   0.247 -0.5079  0.4728  0.3646
 3923SOL     MW15692   0.248   3.818   0.295  0.0446 -0.0470  0.4022
 3924SOL     OW15693   1.820   3.818   1.354 -0.2331 -0.0564 -0.1122
 3924SOL    HW115694   1.820   3.818   1.258 -2.8792  1.6240 -0.2082
 3924SOL    HW215695   1.785   3.733   1.378  0.7037 -0.5956 -0.5980
 3924SOL     MW15696   1.815   3.807   1.345 -0.4519  0.0897 -0.1867
 3925SOL     OW15697   4.337   4.655   2.614 -0.0438  0.0922  0.2214
 3925SOL    HW115698   4.371   4.638   2.526  0.8167  1.5062  0.2503
 3925SOL    HW215699   4.414   4.657   2.670 -0.7183 -2.8747  1.4593
 3925SOL     MW15700   4.351   4.653   2.610 -0.0200 -0.1066  0.3835
 3926SOL     OW15701   0.222   3.161   2.599  0.2312  0.5914  0.6100
 3926SOL    HW115702   0.248   3.165   2.506 -1.0096 -1.5465  0.1118
 3926SOL    HW215703   0.282   3.097   2.637 -0.2767  0.2937  0.9075
 3926SOL     MW15704   0.233   3.153   2.592  0.0073  0.2796  0.5843
 3927SOL     OW15705   4.105   3.926   1.091 -0.0514 -0.1896  0.6575
 3927SOL    HW115706   4.135   4.013   1.067  2.2341 -0.4294  2.2549
 3927SOL    HW215707   4.095   3.880   1.008  0.9978  0.9418 -0.1281
 3927SOL     MW15708   4.108   3.931   1.078  0.3755 -0.0754  0.7614
 3928SOL     OW15709   3.402   3.808   2.893 -0.1994  0.3912  0.2317
 3928SOL    HW115710   3.453   3.739   2.935 -0.6561 -0.0388  0.0908
 3928SOL    HW215711   3.321   3.765   2.867 -0.2349  0.8342 -0.4139
 3928SOL     MW15712   3.398   3.794   2.895 -0.2624  0.3929  0.1310
 3929SOL     OW15713   3.873   1.848   2.350 -0.0316 -0.1379 -0.0698
 3929SOL    HW115714   3.935   1.801   2.295  1.7110  0.6646  1.1153
 3929SOL    HW215715   3.863   1.794   2.428  0.5363  0.5491  0.4895
 3929SOL     MW15716   3.880   1.835   2.353  0.2642  0.0528  0.1535
 3930SOL     OW15717   4.161   1.361   4.071 -0.0587  0.4505  0.3267
 3930SOL    HW115718   4.175   1.413   3.991  1.1606 -0.3728 -0.0309
 3930SOL    HW215719   4.241   1.373   4.122  0.9025 -2.1305 -0.4117
 3930SOL     MW15720   4.173   1.369   4.067  0.2204  0.0147  0.1864
 3931SOL     OW15721   2.328   4.031   4.715 -0.3649 -0.0420  0.1167
 3931SOL    HW115722   2.396   3.995   4.773  2.2078  2.3961 -1.1662
 3931SOL    HW215723   2.264   4.070   4.775  0.3626 -0.6781  1.3514
 3931SOL     MW15724   2.329   4.031   4.730  0.0575  0.1887  0.1105
 3932SOL     OW15725   4.210   0.444   4.078 -0.7201  0.2393  0.0385
 3932SOL    HW115726   4.159   0.417   4.002 -0.3695  1.0612 -0.5016
 3932SOL    HW215727   4.170   0.526   4.107  0.2408  0.8668 -0.3604
 3932SOL     MW15728   4.199   0.451   4.072 -0.5522  0.4248 -0.0817
 3933SOL     OW15729   1.320   2.229   0.995 -0.3034 -0.3316  0.0389
 3933SOL    HW115730   1.346   2.166   1.061 -0.4022 -0.5512 -0.1321
 3933SOL    HW215731   1.391   2.293   0.993 -0.1419 -0.5098  0.1164
 3933SOL     MW15732   1.333   2.229   1.003 -0.2954 -0.3825  0.0270
 3934SOL     OW15733   2.693   0.173   4.963 -0.2878  0.4666 -0.5104
 3934SOL    HW115734   2.769   0.194   5.018 -0.9254  2.7752 -0.3844
 3934SOL    HW215735   2.618   0.188   5.020 -0.8835 -0.1946 -1.1131
 3934SOL     MW15736   2.693   0.178   4.977 -0.4457  0.6775 -0.5714
 3935SOL     OW15737   3.659   3.656   3.933 -0.1968  0.0792  0.0117
 3935SOL    HW115738   3.747   3.675   3.963 -0.5047  0.1323  0.9183
 3935SOL    HW215739   3.640   3.568   3.967  0.5630 -1.2063 -2.6455
 3935SOL     MW15740   3.668   3.647   3.942 -0.1389 -0.0786 -0.2124
 3936SOL     OW15741   5.053   3.969   3.361 -0.2213  0.5468 -0.3345
 3936SOL    HW115742   5.070   3.909   3.288 -0.9468  0.4644 -0.4390
 3936SOL    HW215743   5.120   4.038   3.350  1.4060 -0.8350  0.5020
 3936SOL     MW15744   5.064   3.970   3.350 -0.1058  0.3594 -0.2408
 3937SOL     OW15745   1.384   5.030   4.136  0.5569 -0.3964 -0.3771
 3937SOL    HW115746   1.391   5.056   4.044  1.1100 -0.2325 -0.2973
 3937SOL    HW215747   1.391   5.113   4.185 -1.6636 -0.2534 -0.2340
 3937SOL     MW15748   1.386   5.044   4.130  0.3435 -0.3571 -0.3486
 3938SOL     OW15749   4.990   4.318   1.405  0.2815  0.3973 -0.1522
 3938SOL    HW115750   5.026   4.236   1.440  0.4282  0.4659 -0.1415
 3938SOL    HW215751   4.927   4.346   1.471 -0.8185 -0.4436 -0.8153
 3938SOL     MW15752   4.987   4.311   1.418  0.1594  0.2985 -0.2357
 3939SOL     OW15753   1.625   0.482   4.070 -0.6236 -0.1583 -0.0438
 3939SOL    HW115754   1.691   0.515   4.131 -3.3320  0.6616  2.6907
 3939SOL    HW215755   1.645   0.389   4.060  1.7296  0.3311 -0.4843
 3939SOL     MW15756   1.636   0.475   4.076 -0.6690  0.0093  0.2499
 3940SOL     OW15757   0.865   3.900   0.405  0.6883 -0.2771 -0.4889
 3940SOL    HW115758   0.921   3.851   0.464 -0.3650 -0.3641  0.4660
 3940SOL    HW215759   0.849   3.840   0.332 -1.1094 -1.6903  0.9585
 3940SOL     MW15760   0.870   3.886   0.403  0.3233 -0.4691 -0.1814
 3941SOL     OW15761   0.229   1.666   2.125  0.0195 -0.2939  0.2991
 3941SOL    HW115762   0.282   1.590   2.147 -0.2543 -1.0777 -1.5415
 3941SOL    HW215763   0.139   1.633   2.119 -0.0990  0.1522 -0.5693
 3941SOL     MW15764   0.224   1.652   2.127 -0.0307 -0.3371 -0.0477
 3942SOL     OW15765   2.538   4.562   1.660 -0.1202  0.4752  0.2940
 3942SOL    HW115766   2.539   4.544   1.754 -1.6068 -0.5055  0.1457
 3942SOL    HW215767   2.624   4.532   1.630 -0.5179 -1.5005  0.9754
 3942SOL     MW15768   2.549   4.556   1.668 -0.3614  0.0967  0.3623
 3943SOL     OW15769   3.838   2.111   3.590 -0.2090  0.4745 -0.1896
 3943SOL    HW115770   3.855   2.018   3.578  1.1348  0.9242 -2.2709
 3943SOL    HW215771   3.764   2.130   3.532 -1.2021  0.5318  1.0490
 3943SOL     MW15772   3.831   2.102   3.581 -0.1641  0.5394 -0.2975
 3944SOL     OW15773   2.183   0.039   2.566  0.2087 -0.0685 -0.0610
 3944SOL    HW115774   2.163   0.127   2.599 -0.0674 -0.4925  0.9111
 3944SOL    HW215775   2.165   0.045   2.472  1.0245  1.1573 -0.1680
 3944SOL     MW15776   2.178   0.051   2.558  0.2778  0.0341  0.0497
 3945SOL     OW15777   4.643   4.362   0.867 -0.2823  0.1849  0.0479
 3945SOL    HW115778   4.705   4.329   0.802  0.5223  0.0745  0.8448
 3945SOL    HW215779   4.661   4.456   0.871  0.2830  0.0592  0.7211
 3945SOL     MW15780   4.654   4.370   0.860 -0.1069  0.1546  0.2361
 3946SOL     OW15781   3.401   1.698   1.879 -0.6923 -0.1797 -0.1277
 3946SOL    HW115782   3.399   1.733   1.790 -0.3680  0.2512  0.0310
 3946SOL    HW215783   3.453   1.761   1.929  0.9699 -1.4987 -0.0899
 3946SOL     MW15784   3.407   1.710   1.874 -0.4380 -0.2934 -0.1025
 3947SOL     OW15785   0.255   1.210   0.516 -0.6210  0.2201  0.4084
 3947SOL    HW115786   0.212   1.128   0.539 -0.1559  0.1608  1.0718
 3947SOL    HW215787   0.227   1.226   0.426 -0.1053 -1.0595 -0.0084
 3947SOL     MW15788   0.246   1.202   0.507 -0.4954  0.0487  0.4400
 3948SOL     OW15789   1.542   0.380   1.943 -0.1547  0.1573 -0.5783
 3948SOL    HW115790   1.519   0.308   2.002  0.6319 -0.0224 -0.4869
 3948SOL    HW215791   1.637   0.380   1.941 -0.1669  0.5478 -1.3848
 3948SOL     MW15792   1.551   0.371   1.951 -0.0556  0.1843 -0.6699
 3949SOL     OW15793   0.637   4.858   0.296 -0.0104  0.4313  0.1019
 3949SOL    HW115794   0.605   4.823   0.213  0.7888  0.0039 -0.0371
 3949SOL    HW215795   0.634   4.953   0.285 -0.5243  0.3853 -0.1728
 3949SOL     MW15796   0.632   4.865   0.284  0.0261  0.3707  0.0489
 3950SOL     OW15797   4.547   5.399   1.254 -0.0585  0.1146  0.0042
 3950SOL    HW115798   4.641   5.391   1.239 -0.0967 -1.8746  0.4300
 3950SOL    HW215799   4.513   5.311   1.238 -1.7596  0.6475  0.4476
 3950SOL     MW15800   4.555   5.386   1.250 -0.2812 -0.0718  0.1155
 3951SOL     OW15801   3.657   4.211   1.476 -0.7246  0.1187  0.0636
 3951SOL    HW115802   3.624   4.132   1.519  0.4159  1.0487  2.9370
 3951SOL    HW215803   3.751   4.209   1.494 -0.6080  1.8614 -0.2464
 3951SOL     MW15804   3.665   4.201   1.484 -0.5636  0.4608  0.3917
 3952SOL     OW15805   2.627   1.828   2.180 -0.0944 -0.4354  0.1338
 3952SOL    HW115806   2.623   1.924   2.183  0.8392 -0.2634 -2.2118
 3952SOL    HW215807   2.700   1.805   2.238  1.0442  0.4606 -0.8982
 3952SOL     MW15808   2.636   1.837   2.188  0.1709 -0.2987 -0.2986
 3953SOL     OW15809   2.187   3.665   2.262 -0.1866 -0.1140 -0.5104
 3953SOL    HW115810   2.162   3.695   2.350  0.5505 -1.5359  0.2079
 3953SOL    HW215811   2.104   3.638   2.222 -0.4192 -0.3422  0.1085
 3953SOL     MW15812   2.173   3.665   2.268 -0.1220 -0.3252 -0.3392
 3954SOL     OW15813   5.053   4.810   2.093  0.8030  0.7211  0.0361
 3954SOL    HW115814   4.983   4.845   2.148  0.6687  0.3710  0.0918
 3954SOL    HW215815   5.129   4.864   2.113  0.7312  0.6576  0.4982
 3954SOL     MW15816   5.054   4.821   2.103  0.7766  0.6681  0.1024
 3955SOL     OW15817   3.669   5.348   4.317 -0.1180 -0.4186  0.3892
 3955SOL    HW115818   3.620   5.286   4.264  0.6350  0.5179 -1.4883
 3955SOL    HW215819   3.613   5.426   4.321 -0.6604 -0.8360  1.9783
 3955SOL     MW15820   3.656   5.350   4.311 -0.0911 -0.3521  0.3523
 3956SOL     OW15821   1.692   4.964   3.975  0.0103  0.0322  0.5200
 3956SOL    HW115822   1.758   5.011   3.924 -0.2621 -0.2791 -0.1331
 3956SOL    HW215823   1.609   5.004   3.949 -0.1124 -0.0056  0.8607
 3956SOL     MW15824   1.690   4.975   3.965 -0.0403 -0.0125  0.4800
 3957SOL     OW15825   4.718   3.993   4.305  0.5345  0.0896 -0.6383
 3957SOL    HW115826   4.726   4.087   4.322  2.6044 -0.2096  0.2945
 3957SOL    HW215827   4.807   3.959   4.316 -0.0983 -1.9294 -1.3685
 3957SOL     MW15828   4.731   4.001   4.308  0.7185 -0.2072 -0.6123
 3958SOL     OW15829   2.932   2.811   4.833  0.1723 -0.0561  0.3424
 3958SOL    HW115830   2.990   2.738   4.857  0.9117  0.7976  1.2023
 3958SOL    HW215831   2.894   2.840   4.916 -3.3710 -2.0502 -0.3632
 3958SOL     MW15832   2.935   2.805   4.846 -0.1867 -0.2021  0.3621
 3959SOL     OW15833   3.451   4.909   4.799  0.3701  0.0643  0.6557
 3959SOL    HW115834   3.514   4.908   4.727  0.5120 -0.2836  0.7832
 3959SOL    HW215835   3.392   4.836   4.780  0.5686 -0.1962  1.0315
 3959SOL     MW15836   3.451   4.900   4.787  0.4137 -0.0136  0.7201
 3960SOL     OW15837   1.408   3.526   4.032 -0.6828  0.4675  0.4455
 3960SOL    HW115838   1.316   3.533   4.007 -0.2881 -0.3828 -1.4311
 3960SOL    HW215839   1.451   3.491   3.954  0.9004 -1.1068  1.9328
 3960SOL     MW15840   1.402   3.522   4.019 -0.4296  0.1571  0.3957
 3961SOL     OW15841   3.814   0.616   4.311 -0.2288 -0.6903  0.2195
 3961SOL    HW115842   3.771   0.700   4.324 -1.2374 -1.2805  0.8118
 3961SOL    HW215843   3.863   0.601   4.391  0.7035 -0.2440 -0.2602
 3961SOL     MW15844   3.814   0.625   4.323 -0.2386 -0.7087  0.2339
 3962SOL     OW15845   0.043   1.855   3.640  0.4076  0.1903 -0.1644
 3962SOL    HW115846   0.110   1.793   3.670  2.7456  1.4519 -2.3504
 3962SOL    HW215847   0.089   1.938   3.631 -2.1185  1.8032  0.5844
 3962SOL     MW15848   0.057   1.858   3.643  0.3835  0.5583 -0.3484
 3963SOL     OW15849   2.743   5.141   1.743 -0.1063 -0.2539 -0.5016
 3963SOL    HW115850   2.655   5.104   1.751 -0.0493 -0.1592  0.6684
 3963SOL    HW215851   2.791   5.104   1.816  1.1946 -1.2718 -1.8323
 3963SOL     MW15852   2.738   5.132   1.753  0.0675 -0.3721 -0.5221
 3964SOL     OW15853   4.861   2.996   1.928 -0.0095 -0.5961  0.0323
 3964SOL    HW115854   4.817   2.935   1.987 -0.3721 -0.8462 -0.4827
 3964SOL    HW215855   4.903   2.939   1.863  0.3049 -0.3212 -0.0101
 3964SOL     MW15856   4.861   2.981   1.927 -0.0157 -0.5929 -0.0391
 3965SOL     OW15857   1.654   4.124   4.701 -0.8510  0.5589  0.5762
 3965SOL    HW115858   1.675   4.105   4.792 -1.5500  0.3960  0.7107
 3965SOL    HW215859   1.632   4.038   4.663 -0.8557  0.6659  0.3344
 3965SOL     MW15860   1.654   4.110   4.708 -0.9411  0.5517  0.5624
 3966SOL     OW15861   5.369   0.278   2.762 -0.3959 -0.5737  0.6372
 3966SOL    HW115862   5.401   0.263   2.851  0.6965 -0.4063  0.2915
 3966SOL    HW215863   5.394   0.199   2.714  2.2203  0.7238 -0.3392
 3966SOL     MW15864   5.376   0.266   2.768  0.0788 -0.3862  0.4679
 3967SOL     OW15865   5.196   1.841   3.264 -0.1099  0.4064  0.2444
 3967SOL    HW115866   5.242   1.760   3.240  1.9582  1.3834  0.7057
 3967SOL    HW215867   5.118   1.841   3.209  1.6295 -0.2039 -2.4070
 3967SOL     MW15868   5.192   1.830   3.254  0.3775  0.4534 -0.0359
 3968SOL     OW15869   2.775   2.609   4.076 -0.4151 -0.4860 -0.0701
 3968SOL    HW115870   2.836   2.682   4.089 -0.6591 -0.6571  2.7025
 3968SOL    HW215871   2.818   2.553   4.011  1.5090  0.3240  0.4265
 3968SOL     MW15872   2.788   2.611   4.069 -0.2000 -0.4042  0.3484
 3969SOL     OW15873   2.371   0.594   1.350 -0.2932  0.5098  0.0538
 3969SOL    HW115874   2.436   0.661   1.328 -0.9581  1.4567  0.8697
 3969SOL    HW215875   2.342   0.618   1.438  0.5514 -1.7557  1.0160
 3969SOL     MW15876   2.376   0.606   1.358 -0.2702  0.3410  0.2814
 3970SOL     OW15877   1.632   5.380   4.205 -0.1168 -0.2526 -0.3774
 3970SOL    HW115878   1.647   5.464   4.248  1.0669 -0.8934  0.5214
 3970SOL    HW215879   1.595   5.403   4.119  1.9332  1.2856 -0.9150
 3970SOL     MW15880   1.629   5.393   4.199  0.2971 -0.1377 -0.3312
 3971SOL     OW15881   4.840   4.517   3.970 -0.3124 -0.0411 -0.2199
 3971SOL    HW115882   4.777   4.585   3.996 -1.1612 -1.1709  0.7629
 3971SOL    HW215883   4.907   4.520   4.037  0.4012  0.7380 -0.9338
 3971SOL     MW15884   4.840   4.526   3.982 -0.3297 -0.0860 -0.1855
 3972SOL     OW15885   5.041   5.156   5.280 -0.2147 -0.0797  0.3132
 3972SOL    HW115886   5.125   5.202   5.269 -0.3348  0.3306  1.0705
 3972SOL    HW215887   5.011   5.140   5.190  0.2384  0.5778  0.0339
 3972SOL     MW15888   5.048   5.160   5.267 -0.1721  0.0570  0.3744
 3973SOL     OW15889   5.097   0.230   1.370 -0.1006  0.4699 -0.5843
 3973SOL    HW115890   5.183   0.200   1.341 -0.3410 -2.0922  1.0215
 3973SOL    HW215891   5.113   0.271   1.454 -0.3086  1.0237 -0.8143
 3973SOL     MW15892   5.110   0.231   1.377 -0.1580  0.2128 -0.4082
 3974SOL     OW15893   0.514   0.092   4.115  0.2304 -0.3887  0.7412
 3974SOL    HW115894   0.432   0.110   4.160  0.5774  1.8948  0.6109
 3974SOL    HW215895   0.490   0.087   4.023 -0.0062 -1.6171  0.8612
 3974SOL     MW15896   0.501   0.094   4.109  0.2445 -0.2536  0.7399
 3975SOL     OW15897   2.511   0.871   0.329  0.1705 -0.4865 -0.7054
 3975SOL    HW115898   2.448   0.805   0.301 -1.6923  0.6453  0.5841
 3975SOL    HW215899   2.528   0.922   0.250 -0.3386 -0.9826 -1.1457
 3975SOL     MW15900   2.505   0.869   0.315 -0.1332 -0.4051 -0.5967
 3976SOL     OW15901   1.553   3.348   2.363 -0.0579 -0.2972 -0.3921
 3976SOL    HW115902   1.647   3.358   2.383  0.2158 -0.3621 -1.5733
 3976SOL    HW215903   1.546   3.374   2.272 -1.0289 -1.2824 -0.6069
 3976SOL     MW15904   1.564   3.352   2.354 -0.1472 -0.4316 -0.5708
 3977SOL     OW15905   1.710   1.843   1.541 -0.2554  0.1839  0.0910
 3977SOL    HW115906   1.673   1.769   1.589 -1.1183  1.8455  2.1387
 3977SOL    HW215907   1.635   1.892   1.509  0.3070 -0.0935 -1.7881
 3977SOL     MW15908   1.696   1.840   1.543 -0.2939  0.3611  0.1126
 3978SOL     OW15909   4.116   1.451   3.791 -0.0847 -0.0451  0.3656
 3978SOL    HW115910   4.177   1.517   3.824  1.0582 -1.4349  1.1440
 3978SOL    HW215911   4.123   1.456   3.696 -1.1624  1.9596  0.3438
 3978SOL     MW15912   4.125   1.460   3.783 -0.0763  0.0336  0.4625
 3979SOL     OW15913   4.758   4.164   4.704 -0.8407 -0.3665 -0.1608
 3979SOL    HW115914   4.717   4.210   4.630 -1.5290  0.0921  0.5018
 3979SOL    HW215915   4.690   4.108   4.739 -0.3417 -1.0253 -0.2255
 3979SOL     MW15916   4.744   4.163   4.699 -0.8649 -0.3922 -0.0842
 3980SOL     OW15917   2.412   4.396   2.176  0.6959 -0.0615  0.7742
 3980SOL    HW115918   2.443   4.306   2.160  0.7904  0.4200 -2.2762
 3980SOL    HW215919   2.433   4.443   2.096 -2.0529  1.9648  1.1079
 3980SOL     MW15920   2.419   4.390   2.164  0.3561  0.2595  0.4264
 3981SOL     OW15921   5.083   1.479   3.515  0.1185  0.0952 -0.3114
 3981SOL    HW115922   5.117   1.567   3.532  0.5413 -0.1277  0.0246
 3981SOL    HW215923   5.001   1.494   3.469 -0.4799  0.7101  0.8991
 3981SOL     MW15924   5.077   1.492   3.511  0.0960  0.1454 -0.1134
 3982SOL     OW15925   2.468   3.189   0.756 -0.5694  0.1804 -0.1706
 3982SOL    HW115926   2.478   3.106   0.709  1.0745  1.3179 -2.0235
 3982SOL    HW215927   2.544   3.240   0.729 -0.6642  1.7130  2.2047
 3982SOL     MW15928   2.479   3.185   0.746 -0.3711  0.5222 -0.1037
 3983SOL     OW15929   0.513   3.253   2.457 -0.2856 -0.0601 -0.0790
 3983SOL    HW115930   0.534   3.165   2.488 -2.1598 -0.3997  0.3195
 3983SOL    HW215931   0.541   3.311   2.528  1.7681 -0.1899 -0.6971
 3983SOL     MW15932   0.519   3.249   2.470 -0.2626 -0.1202 -0.1071
 3984SOL     OW15933   3.638   4.950   0.292 -0.1294 -0.1516 -0.1098
 3984SOL    HW115934   3.667   4.869   0.248 -1.3578 -0.5548 -0.2290
 3984SOL    HW215935   3.561   4.977   0.242 -1.3513 -0.4159  1.5738
 3984SOL     MW15936   3.632   4.943   0.280 -0.4431 -0.2371  0.0905
 3985SOL     OW15937   4.457   0.723   1.415  0.0771  0.1904 -0.1534
 3985SOL    HW115938   4.478   0.711   1.322  2.1074 -0.8666  0.3860
 3985SOL    HW215939   4.518   0.666   1.461 -3.0295 -1.8587  1.7394
 3985SOL     MW15940   4.467   0.714   1.409 -0.0607 -0.2072  0.1580
 3986SOL     OW15941   2.378   0.930   1.471  0.1582  0.2035  0.2831
 3986SOL    HW115942   2.319   0.879   1.526  0.0823 -0.6263 -0.5437
 3986SOL    HW215943   2.337   1.016   1.466 -1.6715 -0.6652 -1.2292
 3986SOL     MW15944   2.365   0.934   1.477 -0.0858 -0.0139 -0.0163
 3987SOL     OW15945   2.241   2.637   0.654 -0.0072  0.0719  0.0008
 3987SOL    HW115946   2.273   2.583   0.581 -0.5210  1.4640 -1.3090
 3987SOL    HW215947   2.162   2.678   0.619 -0.2572  0.7849  1.3671
 3987SOL     MW15948   2.235   2.635   0.640 -0.1050  0.3413  0.0080
 3988SOL     OW15949   2.019   1.637   2.146 -0.0701 -0.0871 -0.4885
 3988SOL    HW115950   2.015   1.667   2.237 -1.7796  0.2442 -0.6258
 3988SOL    HW215951   1.955   1.692   2.100 -1.5477 -2.2617 -1.2417
 3988SOL     MW15952   2.010   1.647   2.152 -0.4781 -0.3231 -0.6025
 3989SOL     OW15953   4.786   1.501   0.435  1.0079 -0.0656 -1.0334
 3989SOL    HW115954   4.853   1.568   0.452  0.7194  0.1930 -0.9182
 3989SOL    HW215955   4.737   1.495   0.517  2.3540 -1.9349 -0.2855
 3989SOL     MW15956   4.789   1.509   0.448  1.1433 -0.2718 -0.9229
 3990SOL     OW15957   2.847   4.524   0.939  0.4944 -0.3337 -0.3051
 3990SOL    HW115958   2.836   4.619   0.943  0.8404 -0.3247  1.5370
 3990SOL    HW215959   2.936   4.508   0.970 -0.0779 -1.3167  0.9557
 3990SOL     MW15960   2.857   4.534   0.944  0.4655 -0.4584  0.0921
 3991SOL     OW15961   5.458   1.386   0.148 -0.1335  0.3395  0.2974
 3991SOL    HW115962   5.399   1.338   0.090  0.2547 -0.1129  0.2724
 3991SOL    HW215963   5.412   1.388   0.232  0.3754 -1.1536  0.6307
 3991SOL     MW15964   5.444   1.380   0.152 -0.0187  0.0905  0.3369
 3992SOL     OW15965   3.983   4.200   3.949 -0.5345  0.9042  0.0667
 3992SOL    HW115966   3.977   4.241   4.035 -0.1660  1.7439 -0.2963
 3992SOL    HW215967   3.906   4.143   3.945 -0.6177  0.9342  0.9039
 3992SOL     MW15968   3.972   4.198   3.960 -0.4979  1.0155  0.1274
 3993SOL     OW15969   4.249   1.072   3.114  0.2038  0.0298 -0.1648
 3993SOL    HW115970   4.335   1.113   3.121 -0.0111  0.5781 -0.6287
 3993SOL    HW215971   4.229   1.076   3.020 -0.0198 -0.7347 -0.1555
 3993SOL     MW15972   4.257   1.078   3.103  0.1477  0.0021 -0.2230
 3994SOL     OW15973   3.991   2.296   4.871 -0.0003 -0.3670 -0.2023
 3994SOL    HW115974   4.060   2.352   4.836 -1.5613  1.0553 -1.1395
 3994SOL    HW215975   3.962   2.244   4.796  0.4520 -1.4178  0.3308
 3994SOL     MW15976   3.996   2.296   4.857 -0.1422 -0.3194 -0.2540
 3995SOL     OW15977   3.041   3.530   1.475 -0.1417 -0.1165 -0.1282
 3995SOL    HW115978   3.001   3.534   1.562  0.7278 -1.7507  0.3882
 3995SOL    HW215979   2.968   3.507   1.417 -0.4481 -0.5074  0.3968
 3995SOL     MW15980   3.026   3.527   1.479 -0.0696 -0.3757  0.0051
 3996SOL     OW15981   5.422   0.827   0.289  0.0918 -0.5971 -0.1951
 3996SOL    HW115982   5.440   0.739   0.320 -2.2489 -1.3522 -0.8521
 3996SOL    HW215983   5.367   0.866   0.357  1.0352  0.3596  0.0507
 3996SOL     MW15984   5.417   0.821   0.302 -0.0871 -0.5713 -0.2477
 3997SOL     OW15985   3.063   2.408   0.919  0.4862  0.3580  0.6819
 3997SOL    HW115986   3.048   2.500   0.897 -1.4921  0.0407  0.5267
 3997SOL    HW215987   3.025   2.397   1.006 -0.2313 -0.5279  0.2695
 3997SOL     MW15988   3.056   2.418   0.927  0.1411  0.2039  0.6092
 3998SOL     OW15989   1.558   4.135   1.077 -0.1558  0.1929 -0.1928
 3998SOL    HW115990   1.527   4.115   1.166 -0.5498 -0.6615 -0.5080
 3998SOL    HW215991   1.530   4.225   1.062 -1.6949 -0.2382 -0.1094
 3998SOL     MW15992   1.551   4.144   1.087 -0.4033  0.0283 -0.2225
 3999SOL     OW15993   2.770   2.631   0.917 -0.1790 -0.0111 -0.4161
 3999SOL    HW115994   2.743   2.704   0.972  0.5070 -0.9969  1.3250
 3999SOL    HW215995   2.709   2.560   0.940  0.3819 -0.5618 -0.6001
 3999SOL     MW15996   2.759   2.631   0.927 -0.0193 -0.2078 -0.2168
 4000SOL     OW15997   0.437   3.332   3.337  0.0794  0.2737 -0.4471
 4000SOL    HW115998   0.483   3.380   3.268 -0.3356  0.9045 -0.2936
 4000SOL    HW215999   0.483   3.356   3.417  0.0699  0.1649 -0.4093
 4000SOL     MW16000   0.449   3.342   3.338  0.0250  0.3405 -0.4226
 4001SOL     OW16001   3.317   0.220   4.511  0.1351 -0.2323  0.3129
 4001SOL    HW116002   3.274   0.226   4.596  1.1282  1.2433  0.7517
 4001SOL    HW216003   3.317   0.310   4.478  1.4399 -0.4619 -0.3675
 4001SOL     MW16004   3.312   0.232   4.518  0.4293 -0.0728  0.2820
 4002SOL     OW16005   1.879   5.087   1.953  0.6032  0.1534 -0.2900
 4002SOL    HW116006   1.928   5.102   1.872 -0.9473 -0.1719 -1.3355
 4002SOL    HW216007   1.898   5.163   2.007 -0.2266  1.6337 -1.9747
 4002SOL     MW16008   1.888   5.099   1.949  0.2985  0.3013 -0.6395
 4003SOL     OW16009   2.855   3.235   3.436 -0.1292 -0.2056  0.0740
 4003SOL    HW116010   2.804   3.300   3.484  0.2837  1.1110 -1.1918
 4003SOL    HW216011   2.942   3.238   3.476 -0.7861 -1.9557  1.7769
 4003SOL     MW16012   2.860   3.244   3.447 -0.1604 -0.2611  0.1300
 4004SOL     OW16013   4.565   3.205   2.378 -0.1961  0.2329 -0.5791
 4004SOL    HW116014   4.476   3.197   2.344 -0.5215 -0.1019  0.3222
 4004SOL    HW216015   4.555   3.208   2.473  0.8239 -0.9762 -0.3950
 4004SOL     MW16016   4.553   3.205   2.386 -0.1072  0.0353 -0.4401
 4005SOL     OW16017   4.329   1.227   3.628 -0.6933 -0.1005  0.0276
 4005SOL    HW116018   4.346   1.209   3.721 -0.3384 -0.3112 -0.0748
 4005SOL    HW216019   4.235   1.216   3.618 -0.8935  0.9571  0.5874
 4005SOL     MW16020   4.319   1.224   3.639 -0.6735  0.0080  0.0862
 4006SOL     OW16021   4.793   3.712   2.363 -0.3138  0.9332 -0.0980
 4006SOL    HW116022   4.709   3.754   2.379 -1.3293 -0.8753 -0.3735
 4006SOL    HW216023   4.793   3.635   2.420  1.4775  1.2636  0.4235
 4006SOL     MW16024   4.782   3.707   2.372 -0.2145  0.7440 -0.0665
 4007SOL     OW16025   0.767   3.067   3.380 -0.6706  0.0353  0.2928
 4007SOL    HW116026   0.673   3.074   3.394 -0.5773  1.0403  0.4406
 4007SOL    HW216027   0.804   3.147   3.418 -0.0086  0.8840 -1.9519
 4007SOL     MW16028   0.760   3.078   3.386 -0.5739  0.2726  0.0244
 4008SOL     OW16029   1.953   1.174   0.415 -0.2579 -0.4762  0.1143
 4008SOL    HW116030   2.040   1.173   0.375 -0.9319 -1.0074 -1.3866
 4008SOL    HW216031   1.921   1.263   0.399 -0.6312 -0.7648 -0.7948
 4008SOL     MW16032   1.960   1.185   0.408 -0.3919 -0.5811 -0.1942
 4009SOL     OW16033   4.383   3.087   1.832  0.6260  0.2141  0.1880
 4009SOL    HW116034   4.302   3.089   1.782  0.7609 -1.0996 -0.1095
 4009SOL    HW216035   4.401   3.179   1.853 -0.8303  0.5335  0.1000
 4009SOL     MW16036   4.375   3.099   1.828  0.4568  0.0868  0.1387
 4010SOL     OW16037   3.519   2.296   4.947  0.1812 -0.3514  0.1539
 4010SOL    HW116038   3.492   2.208   4.922  1.1396 -0.4905 -0.4378
 4010SOL    HW216039   3.615   2.290   4.955  0.1362  0.2962  1.4739
 4010SOL     MW16040   3.528   2.284   4.945  0.2981 -0.2863  0.2471
 4011SOL     OW16041   4.859   5.319   2.063  0.0459  0.5064 -0.5204
 4011SOL    HW116042   4.853   5.402   2.016  1.6508  0.5595 -0.6850
 4011SOL    HW216043   4.912   5.339   2.141  0.4616 -0.3499 -0.5660
 4011SOL     MW16044   4.865   5.332   2.067  0.3046  0.4036 -0.5473
 4012SOL     OW16045   0.216   3.066   5.263 -0.5298  0.3932 -0.1637
 4012SOL    HW116046   0.187   3.022   5.183 -1.2356  2.5109 -1.1496
 4012SOL    HW216047   0.245   3.152   5.234  0.7935  0.6373  1.6813
 4012SOL     MW16048   0.216   3.071   5.249 -0.4508  0.6956 -0.0537
 4013SOL     OW16049   3.000   0.182   4.431 -0.0803 -0.0805  0.3853
 4013SOL    HW116050   3.062   0.118   4.395 -0.1158  0.6096 -0.9731
 4013SOL    HW216051   2.973   0.234   4.356 -1.5638  0.2757  1.1330
 4013SOL     MW16052   3.005   0.180   4.417 -0.2748  0.0534  0.3071
 4014SOL     OW16053   1.391   3.381   3.038 -0.0150  0.1685 -0.1716
 4014SOL    HW116054   1.302   3.411   3.054 -0.4620 -0.6954 -0.9248
 4014SOL    HW216055   1.411   3.325   3.112 -0.5952 -0.6682 -0.6335
 4014SOL     MW16056   1.382   3.378   3.049 -0.1465 -0.0492 -0.3272
 4015SOL     OW16057   3.200   2.465   1.644  0.1026  0.7154 -0.2123
 4015SOL    HW116058   3.281   2.414   1.640  0.1960  0.7739  0.7053
 4015SOL    HW216059   3.215   2.528   1.715 -0.4431  1.2705 -0.5709
 4015SOL     MW16060   3.212   2.467   1.653  0.0447  0.7940 -0.1408
 4016SOL     OW16061   2.595   5.324   1.452  0.1742 -0.0601 -0.1035
 4016SOL    HW116062   2.573   5.281   1.370 -1.2407 -1.0288  0.7257
 4016SOL    HW216063   2.675   5.281   1.482 -0.0370 -0.6366 -0.3503
 4016SOL     MW16064   2.602   5.313   1.446 -0.0339 -0.2579 -0.0289
 4017SOL     OW16065   2.346   3.278   3.731  0.2260  0.1098 -0.2266
 4017SOL    HW116066   2.343   3.371   3.708  0.2368  0.3475  0.6955
 4017SOL    HW216067   2.393   3.237   3.659  0.8492  0.9274 -0.3055
 4017SOL     MW16068   2.351   3.285   3.719  0.3071  0.2449 -0.1187
 4018SOL     OW16069   3.798   0.156   4.902 -0.0103 -0.0908 -0.6817
 4018SOL    HW116070   3.782   0.221   4.832  0.2410 -0.1406 -0.7848
 4018SOL    HW216071   3.892   0.160   4.917  0.0820 -0.8047 -1.0499
 4018SOL     MW16072   3.808   0.165   4.895  0.0337 -0.1886 -0.7420
 4019SOL     OW16073   3.954   4.673   0.645 -0.2539 -0.2266  0.4179
 4019SOL    HW116074   3.998   4.720   0.575  0.1239  0.5574  1.1622
 4019SOL    HW216075   3.861   4.687   0.629 -0.1682 -0.0883  0.0438
 4019SOL     MW16076   3.948   4.681   0.634 -0.1946 -0.1085  0.4653
 4020SOL     OW16077   1.515   1.665   2.226 -0.0958  0.1725 -0.0353
 4020SOL    HW116078   1.600   1.654   2.183 -0.5009 -0.3023 -0.7387
 4020SOL    HW216079   1.537   1.688   2.316  0.8189 -1.9271  0.3573
 4020SOL     MW16080   1.529   1.666   2.232 -0.0306 -0.1570 -0.0751
 4021SOL     OW16081   0.388   2.523   5.446 -0.0279 -0.3759 -0.1311
 4021SOL    HW116082   0.351   2.564   5.368  1.5803  0.8883 -0.2601
 4021SOL    HW216083   0.331   2.447   5.461 -1.4792  0.3821 -1.4350
 4021SOL     MW16084   0.376   2.519   5.438 -0.0078 -0.1171 -0.3145
 4022SOL     OW16085   3.534   3.970   3.539 -0.1699 -0.4908  0.0690
 4022SOL    HW116086   3.524   3.982   3.444  0.0550 -0.9372 -0.0146
 4022SOL    HW216087   3.528   3.876   3.552 -1.1514 -0.3692  0.6204
 4022SOL     MW16088   3.532   3.960   3.528 -0.2668 -0.5324  0.1289
 4023SOL     OW16089   5.302   3.536   2.819  0.1641 -0.6509 -0.2092
 4023SOL    HW116090   5.210   3.562   2.824  0.9652  2.7472 -0.7896
 4023SOL    HW216091   5.318   3.522   2.725  0.4054 -0.6391 -0.1705
 4023SOL     MW16092   5.292   3.537   2.808  0.2975 -0.2144 -0.2786
 4024SOL     OW16093   1.490   5.097   4.501  0.4190 -0.0680  0.0242
 4024SOL    HW116094   1.530   5.011   4.490  0.8874  0.3715 -2.2342
 4024SOL    HW216095   1.556   5.148   4.547  1.5208 -0.0613 -1.4651
 4024SOL     MW16096   1.503   5.093   4.505  0.6200 -0.0109 -0.4555
 4025SOL     OW16097   1.390   2.621   5.304  0.2911 -0.4073 -0.1657
 4025SOL    HW116098   1.458   2.592   5.365 -1.1617 -2.6618  0.5180
 4025SOL    HW216099   1.377   2.546   5.245  0.2039  0.9637 -1.9635
 4025SOL     MW16100   1.397   2.607   5.304  0.0940 -0.5204 -0.3083
 4026SOL     OW16101   1.484   1.462   0.002  0.0438  0.0056  0.3434
 4026SOL    HW116102   1.490   1.398   0.073  0.7922 -0.9241 -0.5353
 4026SOL    HW216103   1.502   1.546   0.045 -0.5403 -0.4105  1.4323
 4026SOL     MW16104   1.487   1.465   0.017  0.0648 -0.1667  0.3703
 4027SOL     OW16105   1.359   3.782   2.335  0.4367 -0.0172  0.1885
 4027SOL    HW116106   1.341   3.806   2.244 -0.6812  2.4588  0.9729
 4027SOL    HW216107   1.285   3.727   2.360 -1.7277  2.8819  0.7711
 4027SOL     MW16108   1.347   3.778   2.326  0.0165  0.6709  0.3635
 4028SOL     OW16109   1.862   3.202   0.071 -0.0963 -0.6763 -0.0039
 4028SOL    HW116110   1.790   3.146   0.099  0.8856 -1.3903  1.1598
 4028SOL    HW216111   1.859   3.276   0.131 -1.6778  0.8574 -1.8153
 4028SOL     MW16112   1.852   3.204   0.082 -0.1730 -0.5713 -0.0868
 4029SOL     OW16113   5.423   0.999   3.707  0.0871 -0.7592 -0.0721
 4029SOL    HW116114   5.373   1.049   3.772 -0.1296 -0.0045 -0.8123
 4029SOL    HW216115   5.467   0.931   3.759 -0.2662 -0.3174  0.8352
 4029SOL     MW16116   5.423   0.996   3.722  0.0142 -0.6060 -0.0507
 4030SOL     OW16117   3.503   4.524   2.945  0.0010 -0.1690 -0.1691
 4030SOL    HW116118   3.428   4.478   2.909 -1.1327  1.0667  0.5464
 4030SOL    HW216119   3.470   4.569   3.022  1.5616  0.1148  0.3800
 4030SOL     MW16120   3.489   4.524   2.950  0.0557  0.0255 -0.0072
 4031SOL     OW16121   5.352   0.686   2.862  0.1659  0.2651  0.5020
 4031SOL    HW116122   5.437   0.656   2.830 -0.6540 -0.9542 -0.6780
 4031SOL    HW216123   5.332   0.627   2.935  0.8737  1.3618  1.6015
 4031SOL     MW16124   5.360   0.674   2.867  0.1516  0.2494  0.4917
 4032SOL     OW16125   0.567   1.706   0.072 -0.0561  0.1902 -0.0216
 4032SOL    HW116126   0.567   1.741  -0.017  1.1435 -0.9931 -0.5072
 4032SOL    HW216127   0.619   1.627   0.067 -0.0111  0.0771  1.7385
 4032SOL     MW16128   0.573   1.701   0.060  0.1032  0.0242  0.1415
 4033SOL     OW16129   2.742   1.320   1.588  0.5150 -0.2886  0.5042
 4033SOL    HW116130   2.798   1.386   1.547  0.3756 -0.3276  0.2550
 4033SOL    HW216131   2.794   1.289   1.662  1.8741 -2.0750 -1.1143
 4033SOL     MW16132   2.756   1.325   1.593  0.6711 -0.5223  0.2651
 4034SOL     OW16133   3.544   0.639   2.800  0.5433  0.3457 -0.7064
 4034SOL    HW116134   3.480   0.649   2.730 -0.6827 -3.7680 -0.4535
 4034SOL    HW216135   3.617   0.592   2.759  1.1123  0.4381  0.1621
 4034SOL     MW16136   3.545   0.634   2.786  0.4592 -0.1690 -0.5628
 4035SOL     OW16137   4.350   4.872   0.399 -0.7743  0.2039  0.2483
 4035SOL    HW116138   4.360   4.929   0.323 -1.9718  0.4097  0.2254
 4035SOL    HW216139   4.427   4.816   0.398  0.8163  2.2764  0.6675
 4035SOL     MW16140   4.361   4.872   0.390 -0.7240  0.4956  0.2990
 4036SOL     OW16141   1.878   0.423   1.690  0.4344  1.0084  0.1582
 4036SOL    HW116142   1.859   0.515   1.670 -0.5012  0.9231  0.6047
 4036SOL    HW216143   1.870   0.379   1.605 -0.4124  1.1348  0.1681
 4036SOL     MW16144   1.875   0.429   1.676  0.2062  1.0136  0.2166
 4037SOL     OW16145   1.428   1.753   5.077 -0.2724 -0.0880 -0.0906
 4037SOL    HW116146   1.430   1.767   5.171  0.4797 -0.1619 -0.0968
 4037SOL    HW216147   1.460   1.835   5.039 -1.3388  0.2442 -0.3206
 4037SOL     MW16148   1.432   1.765   5.084 -0.3126 -0.0549 -0.1209
 4038SOL     OW16149   2.938   0.393   1.764  0.0243  0.1436  0.7497
 4038SOL    HW116150   2.977   0.354   1.842 -0.1845  0.5155  1.0457
 4038SOL    HW216151   2.912   0.481   1.792 -1.6772 -0.3348  0.7759
 4038SOL     MW16152   2.940   0.399   1.777 -0.2202  0.1300  0.7909
 4039SOL     OW16153   1.984   4.496   2.211  0.3896  0.2992 -0.3560
 4039SOL    HW116154   2.001   4.426   2.274  0.8007 -0.6761 -1.5018
 4039SOL    HW216155   1.889   4.502   2.207  0.3520  0.8749  0.8636
 4039SOL     MW16156   1.974   4.488   2.219  0.4374  0.2480 -0.3465
 4040SOL     OW16157   2.919   3.232   1.384  0.8220 -0.0450  0.2356
 4040SOL    HW116158   2.891   3.304   1.328  2.9886 -1.1300 -2.4441
 4040SOL    HW216159   2.847   3.169   1.380  1.4058 -0.6350 -2.4580
 4040SOL     MW16160   2.906   3.233   1.377  1.1741 -0.2594 -0.4523
 4041SOL     OW16161   2.146   2.485   2.095  0.0397 -0.1284 -0.1115
 4041SOL    HW116162   2.161   2.451   2.184 -0.1471 -0.4350 -0.1969
 4041SOL    HW216163   2.060   2.527   2.100 -0.4397 -1.0591 -0.4145
 4041SOL     MW16164   2.137   2.486   2.107 -0.0456 -0.2868 -0.1612
 4042SOL     OW16165   1.689   4.871   1.238  0.1271 -0.2631  0.2925
 4042SOL    HW116166   1.607   4.900   1.278  0.1893  1.3255 -0.6116
 4042SOL    HW216167   1.745   4.848   1.312 -0.9040 -0.7288  0.9465
 4042SOL     MW16168   1.686   4.872   1.253  0.0031 -0.1193  0.2605
 4043SOL     OW16169   0.879   3.370   2.711 -0.1263  0.3285 -0.1428
 4043SOL    HW116170   0.791   3.389   2.678  0.1782 -1.6033 -2.3439
 4043SOL    HW216171   0.924   3.329   2.637  2.4897  0.7956  1.0770
 4043SOL     MW16172   0.873   3.367   2.697  0.2476  0.1410 -0.2684
 4044SOL     OW16173   0.696   4.731   3.903  0.0928 -0.6832  0.0892
 4044SOL    HW116174   0.654   4.750   3.986  0.0548 -1.5188  0.2768
 4044SOL    HW216175   0.634   4.759   3.837  0.1409  0.0262  0.3352
 4044SOL     MW16176   0.683   4.737   3.905  0.0941 -0.6994  0.1447
 4045SOL     OW16177   0.914   0.977   0.337  0.2067  0.2744  0.5022
 4045SOL    HW116178   0.867   1.058   0.318  2.4404  1.4145 -0.4680
 4045SOL    HW216179   1.005   1.004   0.351  1.0083 -2.0355  0.2426
 4045SOL     MW16180   0.920   0.990   0.336  0.5953  0.1247  0.3447
 4046SOL     OW16181   2.677   4.050   1.915 -0.1800 -0.0608  0.1224
 4046SOL    HW116182   2.702   3.969   1.960  0.6716 -0.1709 -0.5193
 4046SOL    HW216183   2.607   4.023   1.856  0.9460 -0.6353 -1.0184
 4046SOL     MW16184   2.672   4.036   1.913  0.0731 -0.1484 -0.1058
 4047SOL     OW16185   2.141   0.369   2.835 -0.1942  0.2389  0.5076
 4047SOL    HW116186   2.111   0.324   2.756 -0.1694  0.5255  0.3317
 4047SOL    HW216187   2.162   0.457   2.805 -0.4499  0.4319  0.8897
 4047SOL     MW16188   2.140   0.374   2.821 -0.2238  0.3003  0.5340
 4048SOL     OW16189   0.599   3.018   2.560 -0.0426 -0.0039 -0.1353
 4048SOL    HW116190   0.593   3.002   2.654 -0.9342  0.7507 -0.0531
 4048SOL    HW216191   0.575   2.934   2.520 -0.5623 -0.0760  0.3139
 4048SOL     MW16192   0.595   3.005   2.567 -0.2232  0.0835 -0.0673
 4049SOL     OW16193   4.891   0.263   3.551  0.4985 -0.2143  0.2244
 4049SOL    HW116194   4.867   0.344   3.596 -0.8524  0.6083 -1.7887
 4049SOL    HW216195   4.977   0.281   3.514  0.0290  0.5413 -0.5755
 4049SOL     MW16196   4.899   0.276   3.552  0.2655 -0.0123 -0.1357
 4050SOL     OW16197   3.030   1.643   4.732  0.3334  0.2469 -0.1570
 4050SOL    HW116198   3.076   1.680   4.807 -0.3235  0.0472  0.3609
 4050SOL    HW216199   2.979   1.715   4.697 -0.9282 -0.1102  0.8378
 4050SOL     MW16200   3.029   1.657   4.737  0.0878  0.1756  0.0367
 4051SOL     OW16201   5.158   2.411   0.249 -0.1286 -0.3931  0.1804
 4051SOL    HW116202   5.105   2.332   0.262  0.1057 -0.3715  1.3457
 4051SOL    HW216203   5.152   2.427   0.155 -0.1890 -1.7881 -0.0866
 4051SOL     MW16204   5.150   2.403   0.239 -0.1063 -0.5689  0.2954
 4052SOL     OW16205   1.577   2.257   1.520 -0.1875  0.1111  0.0292
 4052SOL    HW116206   1.638   2.262   1.594  0.2941 -1.8874 -0.1647
 4052SOL    HW216207   1.519   2.332   1.531  3.6181  3.5257 -1.0206
 4052SOL     MW16208   1.577   2.267   1.531  0.3613  0.2924 -0.1300
 4053SOL     OW16209   3.942   3.544   3.215  0.1144 -0.2290  0.2506
 4053SOL    HW116210   4.013   3.579   3.269  2.4197  0.7577 -3.0907
 4053SOL    HW216211   3.892   3.620   3.188 -0.3536 -0.5756  0.1257
 4053SOL     MW16212   3.945   3.558   3.219  0.3496 -0.1470 -0.1931
 4054SOL     OW16213   2.573   4.613   4.639 -0.2259 -0.3644  0.4481
 4054SOL    HW116214   2.610   4.590   4.724 -0.6976 -1.9113  0.2701
 4054SOL    HW216215   2.585   4.534   4.585 -2.4340 -0.4257 -0.0499
 4054SOL     MW16216   2.579   4.600   4.643 -0.5689 -0.5703  0.3616
 4055SOL     OW16217   4.548   4.829   3.029 -0.1463 -0.0986 -0.5366
 4055SOL    HW116218   4.552   4.734   3.031  1.1276 -0.1012 -1.8708
 4055SOL    HW216219   4.570   4.856   3.118  3.8291 -1.0051 -1.0841
 4055SOL     MW16220   4.551   4.820   3.041  0.5257 -0.2150 -0.7775
 4056SOL     OW16221   3.204   2.140   1.812 -0.0454 -0.2520  0.3581
 4056SOL    HW116222   3.283   2.088   1.800 -0.1403 -0.2102 -0.5404
 4056SOL    HW216223   3.160   2.136   1.728 -1.7311 -1.4473  1.2534
 4056SOL     MW16224   3.209   2.133   1.800 -0.2733 -0.3997  0.3577
 4057SOL     OW16225   3.053   2.657   0.840  0.1395 -0.0686 -0.4060
 4057SOL    HW116226   2.957   2.650   0.844  0.0811 -1.4714 -2.4665
 4057SOL    HW216227   3.069   2.714   0.765  0.9831  2.7362  1.7429
 4057SOL     MW16228   3.043   2.663   0.831  0.2400  0.1108 -0.3947
 4058SOL     OW16229   3.406   1.481   2.754 -0.0353  0.3913 -0.3085
 4058SOL    HW116230   3.348   1.484   2.831 -1.4953 -0.9355 -1.2934
 4058SOL    HW216231   3.359   1.530   2.687  0.2963 -0.1356 -0.9270
 4058SOL     MW16232   3.393   1.487   2.755 -0.1797  0.1540 -0.5138
 4059SOL     OW16233   0.664   0.582   1.484 -0.4363  0.2293 -0.3511
 4059SOL    HW116234   0.591   0.640   1.507  0.5959  2.1601 -1.6830
 4059SOL    HW216235   0.736   0.610   1.540 -0.4751 -1.2041  0.4661
 4059SOL     MW16236   0.664   0.593   1.494 -0.3092  0.2929 -0.4170
 4060SOL     OW16237   0.045   0.407   5.294 -0.3117 -0.3454  0.7838
 4060SOL    HW116238   0.126   0.457   5.281 -0.0962 -0.8890 -0.0543
 4060SOL    HW216239   0.003   0.449   5.369  0.0044  0.9293  0.2905
 4060SOL     MW16240   0.050   0.419   5.302 -0.2436 -0.2518  0.6134
 4061SOL     OW16241   4.856   4.536   4.672 -0.4495  0.0752  0.3572
 4061SOL    HW116242   4.895   4.538   4.585 -1.1535  0.4930  0.0374
 4061SOL    HW216243   4.782   4.596   4.666 -0.2287  0.4695  1.3815
 4061SOL     MW16244   4.851   4.544   4.660 -0.5113  0.1791  0.4474
 4062SOL     OW16245   2.780   3.780   5.171  0.1165 -0.0698  0.2601
 4062SOL    HW116246   2.862   3.828   5.159  0.1672 -0.4761 -1.2285
 4062SOL    HW216247   2.719   3.820   5.109 -0.7959  0.1802  1.3071
 4062SOL     MW16248   2.783   3.791   5.161  0.0062 -0.0898  0.2036
 4063SOL     OW16249   0.056   5.127   1.360 -0.5085 -0.0042  0.1253
 4063SOL    HW116250  -0.019   5.169   1.403 -0.8326 -0.7925  0.3423
 4063SOL    HW216251   0.041   5.142   1.267  1.3489  3.6922  0.2657
 4063SOL     MW16252   0.044   5.134   1.354 -0.3122  0.3680  0.1711
 4064SOL     OW16253   1.359   5.429   5.351 -0.3498 -0.1626 -0.3347
 4064SOL    HW116254   1.396   5.502   5.401 -0.9245  1.0115 -1.5523
 4064SOL    HW216255   1.298   5.471   5.290 -0.5559 -1.6554 -1.1930
 4064SOL     MW16256   1.356   5.444   5.350 -0.4497 -0.2034 -0.6005
 4065SOL     OW16257   3.141   1.585   0.629  0.0347  0.4440 -0.2978
 4065SOL    HW116258   3.096   1.568   0.712 -0.6009  1.2395 -0.4577
 4065SOL    HW216259   3.142   1.681   0.622  0.3817  0.3916 -1.0435
 4065SOL     MW16260   3.135   1.595   0.639 -0.0023  0.5391 -0.4137
 4066SOL     OW16261   1.599   4.697   1.593 -0.2229  0.0543 -0.2821
 4066SOL    HW116262   1.595   4.617   1.645 -1.9824 -0.0612 -0.5518
 4066SOL    HW216263   1.613   4.766   1.658  1.0335 -0.4078 -0.0248
 4066SOL     MW16264   1.600   4.696   1.608 -0.2873 -0.0196 -0.2837
 4067SOL     OW16265   2.300   4.783   1.802  0.3294  0.5026  0.4658
 4067SOL    HW116266   2.388   4.758   1.775  1.0849  2.0736  1.2834
 4067SOL    HW216267   2.268   4.708   1.852  0.5787 -0.6994 -1.1224
 4067SOL     MW16268   2.307   4.770   1.805  0.4580  0.5498  0.3672
 4068SOL     OW16269   5.073   4.735   0.335 -0.5379 -0.7879  0.2931
 4068SOL    HW116270   5.080   4.641   0.323 -0.2659 -0.7455  0.0825
 4068SOL    HW216271   5.111   4.752   0.421 -0.0840 -0.8157  0.1050
 4068SOL     MW16272   5.079   4.725   0.344 -0.4449 -0.7860  0.2421
 4069SOL     OW16273   0.107   0.441   1.732 -0.5653 -0.2921 -0.0816
 4069SOL    HW116274   0.118   0.361   1.682  0.1162 -0.0180 -0.3838
 4069SOL    HW216275   0.180   0.497   1.705  0.6710 -0.6570  2.2520
 4069SOL     MW16276   0.118   0.438   1.723 -0.3198 -0.3038  0.1784
 4070SOL     OW16277   3.387   4.168   4.299 -0.0045 -0.4723  0.2014
 4070SOL    HW116278   3.304   4.191   4.258 -0.0585 -0.6096  0.2343
 4070SOL    HW216279   3.370   4.086   4.344  0.6686 -1.5229 -1.3782
 4070SOL     MW16280   3.374   4.161   4.300  0.0748 -0.6244  0.0034
 4071SOL     OW16281   2.223   4.182   4.302  0.3177  0.0616 -0.2759
 4071SOL    HW116282   2.269   4.265   4.294 -0.1377  0.2136 -1.4322
 4071SOL    HW216283   2.203   4.156   4.212 -1.6701 -0.1082  0.1736
 4071SOL     MW16284   2.226   4.189   4.290  0.0049  0.0593 -0.3664
 4072SOL     OW16285   1.948   4.632   2.909  0.4485  0.3687  0.1209
 4072SOL    HW116286   2.002   4.709   2.929  0.4364  0.7097 -1.0767
 4072SOL    HW216287   1.998   4.585   2.842 -1.0628  1.1078 -1.6041
 4072SOL     MW16288   1.962   4.636   2.903  0.2535  0.5070 -0.2532
 4073SOL     OW16289   5.267   1.572   4.242  0.1441  0.3312  0.1098
 4073SOL    HW116290   5.248   1.600   4.153  1.5949 -0.2052 -0.3901
 4073SOL    HW216291   5.361   1.558   4.244 -0.0625 -1.1803  1.2827
 4073SOL     MW16292   5.276   1.574   4.231  0.3034  0.0691  0.1960
 4074SOL     OW16293   4.436   0.662   2.941  0.3684 -0.0059  0.0335
 4074SOL    HW116294   4.502   0.598   2.966 -0.6975 -1.9363 -1.8411
 4074SOL    HW216295   4.398   0.691   3.024  1.1174 -1.5367  0.9441
 4074SOL     MW16296   4.440   0.658   2.955  0.3278 -0.4490 -0.0899
 4075SOL     OW16297   2.923   1.425   5.410  0.5233 -0.1336  0.3944
 4075SOL    HW116298   2.977   1.415   5.332  2.1754  0.5356  1.4031
 4075SOL    HW216299   2.855   1.487   5.385  0.7016 -0.3518 -0.6681
 4075SOL     MW16300   2.921   1.431   5.397  0.7576 -0.0759  0.3875
 4076SOL     OW16301   4.494   5.196   5.218  0.3635  0.4838 -0.1611
 4076SOL    HW116302   4.403   5.168   5.228  0.3396  0.7840  0.4954
 4076SOL    HW216303   4.487   5.284   5.179  0.4095  0.0554 -1.1678
 4076SOL     MW16304   4.481   5.204   5.214  0.3663  0.4674 -0.2059
 4077SOL     OW16305   4.190   0.651   0.199  0.0997  0.0407  0.9577
 4077SOL    HW116306   4.115   0.672   0.143  1.0644 -1.3920 -1.0000
 4077SOL    HW216307   4.182   0.557   0.216  0.9902  0.0362  1.4306
 4077SOL     MW16308   4.179   0.642   0.194  0.3372 -0.1433  0.7677
 4078SOL     OW16309   3.278   2.950   3.197 -0.4023  0.3562 -0.1867
 4078SOL    HW116310   3.312   2.969   3.285 -1.0599 -0.1342  0.1834
 4078SOL    HW216311   3.189   2.918   3.212 -0.5270  0.2828 -1.0374
 4078SOL     MW16312   3.271   2.948   3.210 -0.5024  0.2840 -0.2482
 4079SOL     OW16313   2.129   4.048   1.671 -0.4480 -0.6564 -0.1524
 4079SOL    HW116314   2.100   4.026   1.582  1.0223 -0.1591 -0.7828
 4079SOL    HW216315   2.048   4.063   1.720 -1.3044  1.9391 -2.1316
 4079SOL     MW16316   2.115   4.047   1.666 -0.3694 -0.2605 -0.4865
 4080SOL     OW16317   2.583   2.357   5.456  0.1008 -0.1941 -0.2286
 4080SOL    HW116318   2.674   2.329   5.470 -0.0766  0.1003  1.7704
 4080SOL    HW216319   2.589   2.450   5.435  0.3732 -0.6455 -2.4089
 4080SOL     MW16320   2.595   2.365   5.455  0.1129 -0.2142 -0.2518
 4081SOL     OW16321   5.158   0.773   4.193 -0.1617 -0.0539 -0.0892
 4081SOL    HW116322   5.089   0.756   4.129  0.8789  0.0878 -1.2898
 4081SOL    HW216323   5.222   0.825   4.146  0.7596 -0.1567  1.0070
 4081SOL     MW16324   5.157   0.777   4.179  0.0894 -0.0489 -0.1026
 4082SOL     OW16325   1.338   3.227   1.237 -0.2474 -0.4106  0.1537
 4082SOL    HW116326   1.254   3.218   1.282  0.8121 -0.7746  2.1310
 4082SOL    HW216327   1.378   3.141   1.243  0.5251 -0.0916 -0.2936
 4082SOL     MW16328   1.332   3.215   1.243 -0.0129 -0.4164  0.3496
 4083SOL     OW16329   3.488   4.323   1.040 -0.0715  0.9408 -0.3550
 4083SOL    HW116330   3.468   4.395   1.100 -0.6919  0.2337  0.3046
 4083SOL    HW216331   3.418   4.325   0.975  0.3225  1.3920 -0.7702
 4083SOL     MW16332   3.477   4.332   1.039 -0.1005  0.9080 -0.3237
 4084SOL     OW16333   5.354   3.173   3.556 -0.1472 -0.5487 -0.5081
 4084SOL    HW116334   5.429   3.160   3.498  0.1634  0.3371 -0.3073
 4084SOL    HW216335   5.279   3.176   3.496  0.3289  2.0825 -1.0991
 4084SOL     MW16336   5.354   3.171   3.541 -0.0465 -0.0985 -0.5581
 4085SOL     OW16337   3.927   5.436   4.383  0.0910 -0.1129  0.1581
 4085SOL    HW116338   3.877   5.425   4.464 -2.5567 -1.4787 -1.4919
 4085SOL    HW216339   3.866   5.409   4.314  2.3535  0.5801 -2.2796
 4085SOL     MW16340   3.912   5.431   4.384  0.0417 -0.1990 -0.3652
 4086SOL     OW16341   1.080   5.452   1.193 -0.3214 -0.0272  0.7300
 4086SOL    HW116342   1.023   5.387   1.235  0.8307 -1.4030  0.2511
 4086SOL    HW216343   1.122   5.498   1.265 -1.7196  0.7476  1.0827
 4086SOL     MW16344   1.078   5.449   1.207 -0.3529 -0.1041  0.7138
 4087SOL     OW16345   1.874   0.886   3.832 -0.6037 -0.4941  0.5364
 4087SOL    HW116346   1.936   0.900   3.761  0.1305 -0.1001  1.2289
 4087SOL    HW216347   1.896   0.954   3.896 -1.2916 -0.7962  1.1074
 4087SOL     MW16348   1.885   0.896   3.831 -0.5977 -0.4824  0.6981
 4088SOL     OW16349   3.172   0.246   4.736 -0.9447  0.1356  0.2590
 4088SOL    HW116350   3.211   0.284   4.814  1.3724  0.0760 -0.7970
 4088SOL    HW216351   3.077   0.256   4.749 -0.5736  1.3590  2.4153
 4088SOL     MW16352   3.165   0.252   4.747 -0.6005  0.2846  0.3998
 4089SOL     OW16353   1.560   0.535   4.860  0.5032 -0.3077 -0.3086
 4089SOL    HW116354   1.627   0.599   4.837  0.9383 -0.8196 -0.4858
 4089SOL    HW216355   1.596   0.451   4.831 -0.6081 -0.4835 -1.2673
 4089SOL     MW16356   1.573   0.533   4.853  0.4166 -0.3958 -0.4540
 4090SOL     OW16357   5.026   1.460   2.422  0.2742  0.2258  0.2177
 4090SOL    HW116358   4.957   1.519   2.452  1.4209  1.1198  1.1857
 4090SOL    HW216359   5.019   1.384   2.481 -0.3782 -0.0408 -0.1979
 4090SOL     MW16360   5.016   1.458   2.434  0.3374  0.3061  0.2884
 4091SOL     OW16361   4.558   1.121   1.356  0.0117  0.4691 -0.0623
 4091SOL    HW116362   4.650   1.131   1.332  0.0891 -1.9691 -1.1461
 4091SOL    HW216363   4.560   1.066   1.434 -0.4989  0.2116 -0.2252
 4091SOL     MW16364   4.570   1.115   1.363 -0.0438  0.1240 -0.2219
 4092SOL     OW16365   4.405   1.379   4.265  0.6227 -0.2757 -0.6688
 4092SOL    HW116366   4.480   1.324   4.291  0.7675 -0.8419 -2.1972
 4092SOL    HW216367   4.429   1.467   4.293  1.5919 -0.5514 -0.5943
 4092SOL     MW16368   4.418   1.383   4.272  0.7653 -0.3834 -0.8549
 4093SOL     OW16369   3.546   2.493   4.586  0.2262 -0.4277  0.4291
 4093SOL    HW116370   3.510   2.542   4.512  0.2771 -0.5932  0.2917
 4093SOL    HW216371   3.537   2.552   4.661  0.5094 -0.1163  0.2211
 4093SOL     MW16372   3.540   2.507   4.586  0.2690 -0.4090  0.3849
 4094SOL     OW16373   0.512   1.880   1.249  0.0590 -0.1369 -0.1275
 4094SOL    HW116374   0.444   1.897   1.315  1.1106 -0.1760  1.0011
 4094SOL    HW216375   0.464   1.849   1.173 -1.2026 -0.0937  0.6182
 4094SOL     MW16376   0.497   1.878   1.248  0.0321 -0.1364  0.1124
 4095SOL     OW16377   1.903   2.687   0.808 -0.0115  0.2613  0.3148
 4095SOL    HW116378   1.857   2.640   0.738  1.7527  0.4499 -1.0472
 4095SOL    HW216379   1.962   2.746   0.762 -1.6544  3.4152  1.9686
 4095SOL     MW16380   1.904   2.688   0.793  0.0040  0.6892  0.3521
 4096SOL     OW16381   5.430   3.065   4.347 -0.5927 -0.0669 -0.0981
 4096SOL    HW116382   5.430   3.058   4.443 -0.3765  0.9102 -0.0212
 4096SOL    HW216383   5.505   3.013   4.319 -0.0873  0.4218  0.3311
 4096SOL     MW16384   5.440   3.057   4.356 -0.5004  0.1208 -0.0333
 4097SOL     OW16385   2.643   5.107   3.812  0.2384 -0.7387 -0.0596
 4097SOL    HW116386   2.602   5.028   3.849  0.5239 -0.6581  0.4350
 4097SOL    HW216387   2.715   5.074   3.758  0.6671 -0.7979  0.5413
 4097SOL     MW16388   2.647   5.092   3.810  0.3298 -0.7360  0.0807
 4098SOL     OW16389   5.103   0.198   0.225 -0.0857  0.1634 -0.4658
 4098SOL    HW116390   5.040   0.150   0.279 -0.4014  0.3866 -0.6341
 4098SOL    HW216391   5.188   0.161   0.249 -0.2174  0.3172  0.2416
 4098SOL     MW16392   5.106   0.187   0.235 -0.1429  0.2117 -0.3968
 4099SOL     OW16393   1.259   4.054   0.315 -0.4187 -0.2879 -0.4931
 4099SOL    HW116394   1.254   3.960   0.297  3.3323 -0.6658 -0.3795
 4099SOL    HW216395   1.328   4.086   0.257  0.4307  1.7866  1.5009
 4099SOL     MW16396   1.267   4.046   0.306  0.1702 -0.0707 -0.2233
 4100SOL     OW16397   3.525   2.783   5.414 -0.1992  0.4353 -0.0721
 4100SOL    HW116398   3.437   2.809   5.385  0.2440  1.1520 -0.8273
 4100SOL    HW216399   3.558   2.860   5.462  0.8468  1.0579 -1.6945
 4100SOL     MW16400   3.518   2.796   5.417 -0.0085  0.6067 -0.3764
 4101SOL     OW16401   3.726   2.102   2.446 -0.3937  0.1569 -0.3771
 4101SOL    HW116402   3.731   2.011   2.476 -0.4988  0.7180  1.4382
 4101SOL    HW216403   3.743   2.097   2.352  1.2257 -1.5736 -0.0488
 4101SOL     MW16404   3.729   2.090   2.438 -0.1999  0.0072 -0.1027
 4102SOL     OW16405   0.775   3.578   3.507 -0.1125 -0.0110  0.6827
 4102SOL    HW116406   0.707   3.511   3.504  0.3732 -0.5413  1.0532
 4102SOL    HW216407   0.847   3.536   3.556 -0.0808  1.0363  1.5651
 4102SOL     MW16408   0.776   3.564   3.513 -0.0463  0.0552  0.8431
 4103SOL     OW16409   0.586   1.609   3.414  0.2586  0.0240 -0.1596
 4103SOL    HW116410   0.557   1.578   3.500  1.5909 -0.9830 -0.0420
 4103SOL    HW216411   0.506   1.643   3.373 -0.8640 -1.5326  0.6048
 4103SOL     MW16412   0.572   1.609   3.419  0.2855 -0.3041 -0.0467
 4104SOL     OW16413   3.408   0.854   3.571  0.1707 -0.6019 -0.0941
 4104SOL    HW116414   3.384   0.944   3.592  1.4235 -0.6849  1.9653
 4104SOL    HW216415   3.467   0.861   3.496 -1.3170  0.0680 -1.2563
 4104SOL     MW16416   3.413   0.866   3.564  0.1406 -0.5268  0.0208
 4105SOL     OW16417   0.900   5.117   4.419 -0.4457 -0.0520  0.0583
 4105SOL    HW116418   0.889   5.106   4.324 -2.8846  0.1424  0.2610
 4105SOL    HW216419   0.879   5.031   4.455  1.5385 -0.4393  0.4248
 4105SOL     MW16420   0.896   5.105   4.411 -0.5039 -0.0767  0.1312
 4106SOL     OW16421   0.612   3.229   0.999 -0.1588 -0.0718 -0.0460
 4106SOL    HW116422   0.539   3.291   1.005  0.4324  0.5267  1.5955
 4106SOL    HW216423   0.580   3.149   1.039  0.0000  0.1386  0.5223
 4106SOL     MW16424   0.599   3.227   1.005 -0.0628  0.0317  0.2369
 4107SOL     OW16425   4.723   1.192   3.595  0.4553 -0.4299 -0.1773
 4107SOL    HW116426   4.661   1.262   3.573  1.9669  0.7745 -0.7844
 4107SOL    HW216427   4.765   1.222   3.676  0.0952 -1.3502  0.3598
 4107SOL     MW16428   4.720   1.205   3.603  0.6027 -0.3935 -0.1862
 4108SOL     OW16429   2.196   1.756   2.387 -0.0220  0.0240  0.2636
 4108SOL    HW116430   2.248   1.715   2.456 -0.0509 -1.2272 -0.4336
 4108SOL    HW216431   2.248   1.745   2.308  0.3512  2.0964  0.1659
 4108SOL     MW16432   2.209   1.749   2.386  0.0221  0.1292  0.1618
 4109SOL     OW16433   5.210   0.843   1.937  0.0956  0.3654 -0.1593
 4109SOL    HW116434   5.222   0.759   1.981 -0.8391  1.5720  2.5734
 4109SOL    HW216435   5.242   0.827   1.848  1.2034 -2.4820  0.6229
 4109SOL     MW16436   5.216   0.830   1.931  0.1177  0.1553  0.2906
 4110SOL     OW16437   2.329   4.531   2.419  0.0844  0.3124  0.1154
 4110SOL    HW116438   2.245   4.574   2.402 -0.8740 -1.7966 -0.8592
 4110SOL    HW216439   2.356   4.496   2.335  1.2741 -0.1929  0.6828
 4110SOL     MW16440   2.322   4.532   2.406  0.1140 -0.0223  0.0633
 4111SOL     OW16441   1.400   4.876   3.298 -0.1464 -0.2625 -0.4374
 4111SOL    HW116442   1.408   4.922   3.215  0.6576 -0.2775 -0.3782
 4111SOL    HW216443   1.315   4.903   3.333  0.1144  0.8271 -0.6113
 4111SOL     MW16444   1.391   4.885   3.292 -0.0101 -0.1250 -0.4521
 4112SOL     OW16445   2.879   5.025   5.443 -0.1301  0.4036 -0.0903
 4112SOL    HW116446   2.896   5.050   5.353 -0.1291  3.0151  0.5631
 4112SOL    HW216447   2.788   5.050   5.459 -0.5684 -1.2969  0.2746
 4112SOL     MW16448   2.870   5.031   5.434 -0.1861  0.5202  0.0400
 4113SOL     OW16449   3.911   4.801   3.941 -0.5708  0.0631 -0.4718
 4113SOL    HW116450   3.894   4.709   3.920  0.6985 -0.2848 -0.1171
 4113SOL    HW216451   3.996   4.799   3.986  0.7260  1.6793 -2.6688
 4113SOL     MW16452   3.920   4.789   3.944 -0.2423  0.2254 -0.7076
 4114SOL     OW16453   2.328   0.013   4.687 -0.2523 -0.5593 -0.4297
 4114SOL    HW116454   2.299   0.051   4.604  0.3159 -1.9940 -1.3048
 4114SOL    HW216455   2.398   0.071   4.716 -0.6591  0.1266 -0.7737
 4114SOL     MW16456   2.333   0.025   4.680 -0.2317 -0.6552 -0.5857
 4115SOL     OW16457   4.836   1.891   1.332 -0.4791  0.2029 -0.5751
 4115SOL    HW116458   4.788   1.810   1.314 -0.2540  0.5293 -2.9277
 4115SOL    HW216459   4.768   1.957   1.346 -0.6591 -0.2758  1.0516
 4115SOL     MW16460   4.821   1.889   1.332 -0.4734  0.1834 -0.6680
 4116SOL     OW16461   1.850   5.274   4.095  0.2291  0.6394  0.0796
 4116SOL    HW116462   1.791   5.332   4.143  0.3037  0.9221 -0.1649
 4116SOL    HW216463   1.826   5.287   4.003  0.6213  0.7011 -0.0154
 4116SOL     MW16464   1.839   5.283   4.089  0.2889  0.6835  0.0361
 4117SOL     OW16465   5.327   3.782   1.889 -0.1480 -0.4036  0.0735
 4117SOL    HW116466   5.388   3.791   1.816  1.6706  0.7461  1.6473
 4117SOL    HW216467   5.354   3.701   1.933  0.6225  0.3606  1.0562
 4117SOL     MW16468   5.338   3.772   1.885  0.1834 -0.1586  0.4008
 4118SOL     OW16469   1.143   4.853   3.349 -0.0028 -0.0032 -0.5115
 4118SOL    HW116470   1.142   4.757   3.349 -0.8400 -0.0050 -0.0150
 4118SOL    HW216471   1.062   4.878   3.306  0.0687  0.4778 -0.3686
 4118SOL     MW16472   1.133   4.844   3.344 -0.1008  0.0581 -0.4297
 4119SOL     OW16473   1.313   1.055   1.557 -0.6194 -0.4608  0.1925
 4119SOL    HW116474   1.368   1.004   1.617 -1.1599 -1.2093  0.0640
 4119SOL    HW216475   1.242   1.088   1.612 -0.6971 -0.4985  0.1144
 4119SOL     MW16476   1.311   1.053   1.572 -0.6986 -0.5614  0.1661
 4120SOL     OW16477   1.181   1.892   4.573 -0.1511  0.0675 -0.9690
 4120SOL    HW116478   1.247   1.909   4.505  0.8759  1.5876  0.3330
 4120SOL    HW216479   1.097   1.904   4.528  0.5046  1.6068 -1.8892
 4120SOL     MW16480   1.179   1.896   4.558  0.0643  0.4591 -0.9201
 4121SOL     OW16481   2.799   4.783   0.964  0.3740  0.1964 -0.3823
 4121SOL    HW116482   2.753   4.847   1.019 -1.0041  0.0976 -1.3622
 4121SOL    HW216483   2.889   4.814   0.963  0.7131 -0.3342  2.6696
 4121SOL     MW16484   2.804   4.796   0.971  0.2410  0.1158 -0.1170
 4122SOL     OW16485   3.795   4.653   3.617 -0.1318  0.0779  0.1197
 4122SOL    HW116486   3.751   4.631   3.700  0.1546  1.1777  0.5858
 4122SOL    HW216487   3.823   4.569   3.581  0.8556 -0.3401  1.7724
 4122SOL     MW16488   3.793   4.640   3.623  0.0313  0.1652  0.3909
 4123SOL     OW16489   4.962   3.598   3.555  0.2094 -0.5283  0.3842
 4123SOL    HW116490   4.985   3.679   3.600  0.8645 -1.0022  0.9198
 4123SOL    HW216491   4.931   3.626   3.469 -0.3364  0.3383  0.8520
 4123SOL     MW16492   4.961   3.612   3.550  0.2234 -0.4780  0.5126
 4124SOL     OW16493   2.619   0.618   4.088  0.4557  0.0671  0.0716
 4124SOL    HW116494   2.713   0.632   4.098  0.5406 -0.1556 -0.3619
 4124SOL    HW216495   2.613   0.535   4.040  0.0729  0.7661 -1.1190
 4124SOL     MW16496   2.631   0.609   4.083  0.4176  0.1281 -0.1363
 4125SOL     OW16497   3.349   4.577   4.049 -0.0537 -0.1139 -0.8140
 4125SOL    HW116498   3.420   4.594   4.111  0.0179  0.2801 -1.0021
 4125SOL    HW216499   3.375   4.624   3.970 -1.0257  0.9171 -0.5494
 4125SOL     MW16500   3.362   4.585   4.047 -0.1690  0.0685 -0.8042
 4126SOL     OW16501   0.858   0.394   1.165 -0.2517 -0.4273 -0.2089
 4126SOL    HW116502   0.871   0.411   1.258  0.3771  0.8191 -0.5012
 4126SOL    HW216503   0.873   0.300   1.155  1.1633 -0.3217  0.7201
 4126SOL     MW16504   0.862   0.384   1.175  0.0099 -0.2543 -0.1274
 4127SOL     OW16505   4.293   4.931   2.542 -0.4727 -0.0892 -0.2932
 4127SOL    HW116506   4.296   4.852   2.596  0.4778 -0.6481 -1.1250
 4127SOL    HW216507   4.374   4.977   2.561 -0.8205  0.4730 -0.1415
 4127SOL     MW16508   4.304   4.927   2.551 -0.3955 -0.0888 -0.3803
 4128SOL     OW16509   3.358   1.607   4.023 -0.1726 -0.1247 -0.3407
 4128SOL    HW116510   3.286   1.564   3.977  0.4907 -1.5686 -0.1149
 4128SOL    HW216511   3.435   1.553   4.000  0.4862  0.2401  0.9473
 4128SOL     MW16512   3.359   1.594   4.014 -0.0033 -0.2628 -0.1469
 4129SOL     OW16513   3.024   1.068   3.576 -0.2963 -0.2654  0.1707
 4129SOL    HW116514   3.076   0.994   3.544  0.1185 -0.4783  1.2902
 4129SOL    HW216515   2.933   1.045   3.554 -0.2961 -1.6426  1.4668
 4129SOL     MW16516   3.019   1.056   3.569 -0.2432 -0.4689  0.4799
 4130SOL     OW16517   3.306   4.359   2.853  0.2466 -0.0135 -0.2247
 4130SOL    HW116518   3.262   4.399   2.778  1.0911 -0.4288 -0.9606
 4130SOL    HW216519   3.311   4.266   2.830 -0.1677 -0.2733  0.6971
 4130SOL     MW16520   3.301   4.352   2.840  0.3017 -0.0999 -0.2009
 4131SOL     OW16521   3.879   1.552   1.269 -0.0188 -0.1097  0.0316
 4131SOL    HW116522   3.933   1.478   1.296 -0.9027 -0.7024  0.1919
 4131SOL    HW216523   3.934   1.599   1.206  0.5615 -0.8830 -0.0557
 4131SOL     MW16524   3.893   1.549   1.264 -0.0576 -0.2846  0.0410
 4132SOL     OW16525   3.882   2.777   3.850 -0.0822  0.3001 -0.6146
 4132SOL    HW116526   3.899   2.869   3.868  0.2196  0.5504 -2.0337
 4132SOL    HW216527   3.794   2.761   3.884 -0.1419  1.1025 -0.3753
 4132SOL     MW16528   3.873   2.787   3.857 -0.0512  0.4349 -0.7656
 4133SOL     OW16529   5.401   4.023   2.817 -0.4164 -0.3429  0.1752
 4133SOL    HW116530   5.446   4.029   2.901 -0.5535 -0.7076  0.2768
 4133SOL    HW216531   5.310   4.045   2.836 -0.1197  1.3477 -0.2001
 4133SOL     MW16532   5.395   4.027   2.830 -0.3959 -0.1731  0.1401
 4134SOL     OW16533   5.114   4.046   3.802 -0.1081  0.4772 -0.2755
 4134SOL    HW116534   5.133   3.971   3.746 -2.9234  0.4230 -1.3079
 4134SOL    HW216535   5.166   4.117   3.765  0.5555 -0.3328 -0.9444
 4134SOL     MW16536   5.123   4.046   3.790 -0.3836  0.3666 -0.4933
 4135SOL     OW16537   2.280   3.578   0.116 -0.1006  0.8576  0.0850
 4135SOL    HW116538   2.252   3.665   0.146  2.1882  1.3299  1.0760
 4135SOL    HW216539   2.215   3.518   0.152 -1.1769  2.0424  0.2187
 4135SOL     MW16540   2.268   3.582   0.124  0.0546  1.0698  0.2290
 4136SOL     OW16541   0.927   3.141   1.014  0.0036 -0.2943  0.0739
 4136SOL    HW116542   0.880   3.190   1.081 -0.2414 -0.7350  0.2345
 4136SOL    HW216543   1.003   3.106   1.060  2.7571  3.6089 -1.0366
 4136SOL     MW16544   0.931   3.142   1.028  0.3247  0.1489 -0.0477
 4137SOL     OW16545   1.408   3.298   4.235 -0.5183  0.0813  0.2792
 4137SOL    HW116546   1.373   3.378   4.276  0.9753  2.1428 -2.1772
 4137SOL    HW216547   1.422   3.322   4.144  2.1191 -2.3055 -0.0822
 4137SOL     MW16548   1.405   3.312   4.229  0.0105  0.0396 -0.0815
 4138SOL     OW16549   4.079   1.634   1.686 -0.3501  0.0457 -0.1616
 4138SOL    HW116550   4.103   1.541   1.688 -0.8303 -0.1024  2.6290
 4138SOL    HW216551   4.017   1.641   1.613 -0.5507 -1.8923 -0.2354
 4138SOL     MW16552   4.074   1.623   1.677 -0.4373 -0.2214  0.1862
 4139SOL     OW16553   3.912   1.832   1.805 -0.1407  0.3780 -0.0833
 4139SOL    HW116554   3.951   1.886   1.737  2.0257 -0.0435  0.7449
 4139SOL    HW216555   3.951   1.746   1.793  2.1588  0.8268  3.0047
 4139SOL     MW16556   3.922   1.828   1.795  0.4310  0.3815  0.4180
 4140SOL     OW16557   2.648   3.400   1.798 -0.1977  0.4588  0.1568
 4140SOL    HW116558   2.738   3.392   1.765 -0.4551  1.8181 -0.9720
 4140SOL    HW216559   2.647   3.483   1.844 -0.9690  0.6290 -0.1607
 4140SOL     MW16560   2.659   3.409   1.800 -0.3294  0.6546 -0.0283
 4141SOL     OW16561   4.400   0.056   4.662 -0.2717  0.2223  0.3031
 4141SOL    HW116562   4.337   0.009   4.608 -0.2658 -1.2328  1.4945
 4141SOL    HW216563   4.464  -0.011   4.686  1.3895  1.5149 -0.3369
 4141SOL     MW16564   4.400   0.041   4.658 -0.0583  0.2015  0.3737
 4142SOL     OW16565   5.401   3.603   2.089 -0.0964  0.3605 -0.5557
 4142SOL    HW116566   5.461   3.611   2.163 -0.8006 -0.3660  0.1147
 4142SOL    HW216567   5.315   3.626   2.124 -0.3559  0.5376 -1.2825
 4142SOL     MW16568   5.398   3.607   2.103 -0.2198  0.2902 -0.5630
 4143SOL     OW16569   0.138   0.612   4.454 -0.3954 -0.2725 -0.0458
 4143SOL    HW116570   0.070   0.561   4.499  0.9055 -1.9160  0.1401
 4143SOL    HW216571   0.197   0.546   4.418 -0.2874  1.0330 -2.4625
 4143SOL     MW16572   0.137   0.597   4.455 -0.2151 -0.3157 -0.3314
 4144SOL     OW16573   2.907   4.258   2.989 -0.4383  0.6153 -0.9188
 4144SOL    HW116574   2.985   4.273   3.042  0.8187  0.4453 -2.6346
 4144SOL    HW216575   2.893   4.164   2.991  0.3456  0.4712 -1.8629
 4144SOL     MW16576   2.915   4.248   2.996 -0.1770  0.5751 -1.2593
 4145SOL     OW16577   2.204   4.797   0.075  0.4508  0.4286 -0.2295
 4145SOL    HW116578   2.109   4.792   0.063  0.6036  0.2974 -1.4814
 4145SOL    HW216579   2.238   4.815  -0.012  1.4756  2.1509  0.4721
 4145SOL     MW16580   2.196   4.799   0.062  0.6016  0.6323 -0.3000
 4146SOL     OW16581   3.562   3.545   2.552 -0.2921 -0.4589 -0.4782
 4146SOL    HW116582   3.578   3.629   2.595  0.5842 -1.5400  1.4192
 4146SOL    HW216583   3.621   3.483   2.596 -1.3520 -2.2085 -1.3876
 4146SOL     MW16584   3.572   3.548   2.563 -0.3156 -0.8212 -0.3517
 4147SOL     OW16585   3.488   0.601   4.783  0.3615 -0.3968  0.3136
 4147SOL    HW116586   3.462   0.546   4.857 -0.0550 -0.9843 -0.2621
 4147SOL    HW216587   3.525   0.679   4.824 -3.2486  1.0117  1.2349
 4147SOL     MW16588   3.490   0.604   4.798 -0.1540 -0.2917  0.3578
 4148SOL     OW16589   1.679   2.955   2.843  0.1790 -0.1758 -0.1046
 4148SOL    HW116590   1.726   2.902   2.907 -0.4221  0.2739  0.7264
 4148SOL    HW216591   1.622   2.893   2.798 -0.6422 -0.2444  0.9731
 4148SOL     MW16592   1.678   2.940   2.846 -0.0030 -0.1270  0.1397
 4149SOL     OW16593   3.553   2.178   3.251  0.3419 -0.1695 -0.2409
 4149SOL    HW116594   3.567   2.126   3.172 -0.2858  0.8271 -1.0280
 4149SOL    HW216595   3.598   2.129   3.320 -1.1120 -2.3324 -0.7210
 4149SOL     MW16596   3.561   2.165   3.250  0.0755 -0.3188 -0.4031
 4150SOL     OW16597   1.986   1.050   1.348  0.3396 -0.3928 -0.3195
 4150SOL    HW116598   1.995   1.074   1.255  1.8049  0.5415  0.0320
 4150SOL    HW216599   2.065   1.083   1.389  0.0111 -1.3579  1.1771
 4150SOL     MW16600   1.997   1.057   1.341  0.4851 -0.3967 -0.0829
 4151SOL     OW16601   4.693   4.311   3.712 -0.7981  0.0688  0.0170
 4151SOL    HW116602   4.751   4.355   3.775 -1.4083  2.7392 -1.1763
 4151SOL    HW216603   4.661   4.234   3.759 -0.0315  1.1239  2.4105
 4151SOL     MW16604   4.697   4.306   3.726 -0.7780  0.5457  0.1707
 4152SOL     OW16605   3.896   2.594   2.997 -0.3749 -0.1776  0.0132
 4152SOL    HW116606   3.990   2.589   2.985 -0.2261 -1.4150  1.4900
 4152SOL    HW216607   3.869   2.506   3.023 -1.5588  0.6779  1.9676
 4152SOL     MW16608   3.904   2.582   2.999 -0.5074 -0.2265  0.4525
 4153SOL     OW16609   0.960   0.251   3.396  0.1198 -0.2270 -0.1147
 4153SOL    HW116610   0.865   0.239   3.405 -0.0009  0.5577 -0.2451
 4153SOL    HW216611   0.974   0.261   3.302  0.3483 -0.4799 -0.1063
 4153SOL     MW16612   0.949   0.251   3.385  0.1336 -0.1589 -0.1303
 4154SOL     OW16613   0.087   4.028   4.633 -0.2355  0.2024 -0.1694
 4154SOL    HW116614   0.097   4.008   4.540  2.8216  0.4497  0.0149
 4154SOL    HW216615   0.176   4.032   4.667 -1.2191  0.9711  2.6252
 4154SOL     MW16616   0.099   4.026   4.626  0.0299  0.3325  0.2119
 4155SOL     OW16617   2.063   2.102   1.535  0.5097 -0.2453  0.7481
 4155SOL    HW116618   2.149   2.119   1.573  0.3884  0.4530  0.7277
 4155SOL    HW216619   2.022   2.039   1.595  1.1564 -0.8403  0.5758
 4155SOL     MW16620   2.069   2.096   1.548  0.5769 -0.2321  0.7234
 4156SOL     OW16621   0.798   2.926   5.390  0.0354  0.1484 -0.0620
 4156SOL    HW116622   0.828   2.835   5.387  0.1778  0.2018 -2.3892
 4156SOL    HW216623   0.878   2.977   5.375  0.2897  0.8354  3.0027
 4156SOL     MW16624   0.812   2.921   5.388  0.0862  0.2432  0.0324
 4157SOL     OW16625   0.818   1.552   4.436  0.1570  0.0243  0.0595
 4157SOL    HW116626   0.890   1.526   4.494 -0.9900 -3.5870  0.1199
 4157SOL    HW216627   0.740   1.550   4.491 -0.3853  1.1350 -0.6209
 4157SOL     MW16628   0.818   1.548   4.450 -0.0592 -0.2958 -0.0199
 4158SOL     OW16629   4.796   3.820   0.175 -0.1178  0.3792  0.0467
 4158SOL    HW116630   4.776   3.753   0.109  0.3223 -1.9401  2.1399
 4158SOL    HW216631   4.731   3.889   0.159 -1.3754 -1.0729 -1.4504
 4158SOL     MW16632   4.785   3.820   0.164 -0.2224 -0.1036  0.1230
 4159SOL     OW16633   4.301   4.576   1.069  0.1492 -0.5566  0.0179
 4159SOL    HW116634   4.216   4.571   1.026  0.5399 -1.4353 -0.6718
 4159SOL    HW216635   4.303   4.499   1.126  0.6460 -0.7638 -0.2791
 4159SOL     MW16636   4.290   4.566   1.071  0.2628 -0.6956 -0.1084
 4160SOL     OW16637   4.644   5.040   3.744 -0.3479 -0.2452 -0.2798
 4160SOL    HW116638   4.553   5.046   3.713 -0.7366 -1.3848  0.5798
 4160SOL    HW216639   4.667   4.948   3.732  0.9141  0.1463 -1.0281
 4160SOL     MW16640   4.635   5.029   3.738 -0.2361 -0.3409 -0.2655
 4161SOL     OW16641   0.862   3.060   2.438 -0.0782 -0.0042 -0.8090
 4161SOL    HW116642   0.906   2.996   2.493 -1.7140 -0.4775  0.0395
 4161SOL    HW216643   0.768   3.043   2.453 -0.5494  1.4344 -1.9159
 4161SOL     MW16644   0.855   3.050   2.447 -0.3479  0.1193 -0.8421
 4162SOL     OW16645   0.105   4.160   3.750 -0.0060 -0.1966  0.1394
 4162SOL    HW116646   0.063   4.245   3.734 -0.1748 -0.0744  1.1429
 4162SOL    HW216647   0.131   4.129   3.664 -1.0474  0.3079 -0.3729
 4162SOL     MW16648   0.103   4.167   3.737 -0.1610 -0.1164  0.2023
 4163SOL     OW16649   5.244   1.957   1.893  0.3896 -0.0195 -0.2701
 4163SOL    HW116650   5.324   1.929   1.937  0.2467 -0.1046 -0.0624
 4163SOL    HW216651   5.210   1.878   1.852  0.2101 -0.0676 -0.0360
 4163SOL     MW16652   5.250   1.944   1.894  0.3483 -0.0366 -0.2136
 4164SOL     OW16653   3.185   3.695   4.427  0.1063  0.3498  0.2347
 4164SOL    HW116654   3.218   3.660   4.510  0.8243 -0.2701 -0.2880
 4164SOL    HW216655   3.255   3.675   4.364 -1.0567 -0.5532 -0.8228
 4164SOL     MW16656   3.198   3.688   4.430  0.0493  0.1548  0.0324
 4165SOL     OW16657   0.636   2.153   2.565 -0.0460  0.2942 -0.2231
 4165SOL    HW116658   0.607   2.171   2.475 -0.4310  0.3609 -0.0897
 4165SOL    HW216659   0.630   2.058   2.573  0.9446  0.1957 -0.5819
 4165SOL     MW16660   0.631   2.143   2.554  0.0315  0.2901 -0.2519
 4166SOL     OW16661   3.072   1.495   2.773  0.2999 -0.1310 -0.5220
 4166SOL    HW116662   3.104   1.451   2.695  0.5633  0.9647 -1.0568
 4166SOL    HW216663   3.011   1.433   2.813 -0.8342 -0.2421 -2.3015
 4166SOL     MW16664   3.068   1.481   2.768  0.1885 -0.0050 -0.8182
 4167SOL     OW16665   1.120   4.278   3.578 -0.5514 -0.1609  0.2704
 4167SOL    HW116666   1.024   4.275   3.579 -0.6194  1.0148 -0.2311
 4167SOL    HW216667   1.145   4.210   3.516 -1.0711 -0.4195  0.3381
 4167SOL     MW16668   1.111   4.269   3.570 -0.6266 -0.0435  0.2149
 4168SOL     OW16669   3.989   2.286   4.445 -0.4836 -0.1668 -0.4440
 4168SOL    HW116670   3.918   2.348   4.462 -0.4497 -0.1424 -0.3927
 4168SOL    HW216671   4.059   2.312   4.504 -1.1192 -1.3289  0.8882
 4168SOL     MW16672   3.989   2.297   4.455 -0.5606 -0.3124 -0.2669
 4169SOL     OW16673   5.052   0.672   4.767 -0.0119  0.1217  0.2286
 4169SOL    HW116674   4.966   0.633   4.778 -0.6319  1.1420 -0.8078
 4169SOL    HW216675   5.077   0.702   4.854  0.4582 -2.4031  1.0712
 4169SOL     MW16676   5.044   0.671   4.779 -0.0311 -0.0709  0.2038
 4170SOL     OW16677   1.307   2.481   0.372  0.2878 -0.1962  0.0623
 4170SOL    HW116678   1.397   2.449   0.371  0.7092  0.7898  2.0226
 4170SOL    HW216679   1.254   2.403   0.389  0.8875 -0.5654  0.2813
 4170SOL     MW16680   1.312   2.467   0.374  0.4185 -0.1172  0.3412
 4171SOL     OW16681   0.456   2.280   5.059 -0.1908 -0.1690 -0.3881
 4171SOL    HW116682   0.486   2.320   5.141  1.9499 -2.0986 -0.1169
 4171SOL    HW216683   0.365   2.258   5.075  0.2974 -0.9413  1.7242
 4171SOL     MW16684   0.448   2.282   5.072  0.1458 -0.5149 -0.0830
 4172SOL     OW16685   1.146   0.343   2.482  0.0007 -0.2251 -0.2074
 4172SOL    HW116686   1.145   0.436   2.459  2.3608 -0.5464 -2.0311
 4172SOL    HW216687   1.054   0.317   2.484 -0.6657  1.9899 -0.3226
 4172SOL     MW16688   1.134   0.351   2.479  0.2175  0.0173 -0.4556
 4173SOL     OW16689   4.734   1.060   0.385 -0.6686 -0.2175 -0.0782
 4173SOL    HW116690   4.799   1.044   0.316 -0.8037 -3.3628  0.3452
 4173SOL    HW216691   4.671   0.988   0.376 -2.3740  0.9891  1.4572
 4173SOL     MW16692   4.734   1.048   0.375 -0.9042 -0.4657  0.1726
 4174SOL     OW16693   5.112   1.205   3.794 -0.0036  0.5685  0.0747
 4174SOL    HW116694   5.159   1.241   3.869 -1.0272  0.7343  0.6592
 4174SOL    HW216695   5.037   1.264   3.782 -0.0237  0.3555 -0.8699
 4174SOL     MW16696   5.108   1.217   3.802 -0.1372  0.5625  0.0286
 4175SOL     OW16697   1.912   2.769   4.094  0.2309 -0.0708 -0.4753
 4175SOL    HW116698   1.985   2.709   4.079 -0.9095 -1.1633 -2.0384
 4175SOL    HW216699   1.905   2.775   4.189  1.8055 -0.6041 -0.2940
 4175SOL     MW16700   1.921   2.762   4.104  0.2865 -0.2790 -0.6522
 4176SOL     OW16701   0.800   4.294   0.850  0.2999  0.1611  0.1998
 4176SOL    HW116702   0.869   4.232   0.827  0.7805  0.9906 -0.6922
 4176SOL    HW216703   0.718   4.244   0.838  0.7213 -0.9780  1.7506
 4176SOL     MW16704   0.798   4.280   0.845  0.4154  0.1214  0.2841
 4177SOL     OW16705   2.338   3.568   1.571  0.4894 -0.4059  0.0357
 4177SOL    HW116706   2.266   3.628   1.591  0.4752 -0.8525  1.3854
 4177SOL    HW216707   2.343   3.510   1.647  2.9080  0.2139  0.4295
 4177SOL     MW16708   2.329   3.569   1.583  0.7972 -0.3837  0.2589
 4178SOL     OW16709   4.806   1.410   4.012  0.4762 -0.3238 -0.7851
 4178SOL    HW116710   4.860   1.368   4.079 -1.2426 -1.0874  0.1762
 4178SOL    HW216711   4.809   1.503   4.034 -1.0412 -0.6794  1.1679
 4178SOL     MW16712   4.813   1.417   4.023  0.0620 -0.4670 -0.4120
 4179SOL     OW16713   0.335   1.353   0.865 -0.0403  0.2893 -0.3257
 4179SOL    HW116714   0.430   1.361   0.878 -0.3215  1.2671  1.4446
 4179SOL    HW216715   0.321   1.259   0.853  1.1053  0.0723 -0.1387
 4179SOL     MW16716   0.345   1.342   0.865  0.0703  0.3867 -0.0751
 4180SOL     OW16717   4.530   5.259   2.807 -0.8004  0.1668  0.3749
 4180SOL    HW116718   4.489   5.339   2.775 -0.0488  1.1409  1.7506
 4180SOL    HW216719   4.469   5.226   2.874  1.0621  2.3043  3.3516
 4180SOL     MW16720   4.517   5.265   2.812 -0.4658  0.5651  0.9321
 4181SOL     OW16721   0.848   5.062   5.058  0.1626  0.3817 -0.2255
 4181SOL    HW116722   0.915   5.029   5.118 -1.2593 -0.8949  0.7287
 4181SOL    HW216723   0.873   5.153   5.042  1.3377  0.3521  1.2104
 4181SOL     MW16724   0.860   5.069   5.064  0.1310  0.2145  0.0805
 4182SOL     OW16725   3.844   1.638   1.521  0.6469 -0.0221  0.1846
 4182SOL    HW116726   3.833   1.611   1.430 -3.2853  0.8751  0.2440
 4182SOL    HW216727   3.799   1.722   1.528  2.2082  0.7375  2.6825
 4182SOL     MW16728   3.837   1.645   1.510  0.3434  0.1900  0.5119
 4183SOL     OW16729   3.604   3.893   4.514  0.3801  0.2617  0.0894
 4183SOL    HW116730   3.622   3.897   4.608 -1.1214 -0.4638  0.4390
 4183SOL    HW216731   3.631   3.805   4.489 -1.3669 -0.4097  0.3772
 4183SOL     MW16732   3.610   3.882   4.523 -0.0358  0.0829  0.1710
 4184SOL     OW16733   4.185   2.893   0.197 -0.4244 -0.6967 -0.0155
 4184SOL    HW116734   4.198   2.982   0.166 -1.0508 -0.5272  0.1906
 4184SOL    HW216735   4.189   2.838   0.119  0.8338 -0.5941 -0.0424
 4184SOL     MW16736   4.187   2.897   0.183 -0.3435 -0.6619  0.0075
 4185SOL     OW16737   2.634   2.128   5.112 -0.0932  0.9019 -0.4033
 4185SOL    HW116738   2.572   2.063   5.147 -0.4517  1.7118  0.5290
 4185SOL    HW216739   2.698   2.139   5.183  0.7352  0.5824 -1.0898
 4185SOL     MW16740   2.634   2.121   5.126 -0.0331  0.9646 -0.3719
 4186SOL     OW16741   4.087   2.742   2.753  0.3675  0.0429  0.5839
 4186SOL    HW116742   4.148   2.813   2.733 -1.8025  2.3123  1.4883
 4186SOL    HW216743   4.019   2.750   2.686 -0.0141 -1.0745  0.8190
 4186SOL     MW16744   4.086   2.752   2.742  0.0409  0.1903  0.7298
 4187SOL     OW16745   0.821   3.001   1.964 -0.0777 -0.3634 -0.0645
 4187SOL    HW116746   0.885   3.062   1.928 -0.0808  0.6679  1.5968
 4187SOL    HW216747   0.751   2.999   1.898 -0.0139  1.3419 -0.2247
 4187SOL     MW16748   0.820   3.008   1.951 -0.0699 -0.0130  0.1276
 4188SOL     OW16749   5.258   2.987   0.074 -0.3150  0.0558  0.5133
 4188SOL    HW116750   5.335   2.930   0.078 -0.5485 -0.3104 -0.2383
 4188SOL    HW216751   5.279   3.050   0.005 -1.0987 -0.6397 -0.3655
 4188SOL     MW16752   5.271   2.988   0.066 -0.4452 -0.0801  0.3046
 4189SOL     OW16753   0.607   0.844   2.869 -1.1236  0.1036  0.0121
 4189SOL    HW116754   0.633   0.832   2.960  1.0944 -1.0360 -0.7008
 4189SOL    HW216755   0.572   0.759   2.843  1.8164 -0.8899 -1.1808
 4189SOL     MW16756   0.606   0.832   2.877 -0.4633 -0.1695 -0.2319
 4190SOL     OW16757   3.007   2.101   1.622  0.5794 -0.0279 -0.2859
 4190SOL    HW116758   2.960   2.081   1.703 -0.6043  0.8264 -0.7342
 4190SOL    HW216759   3.003   2.020   1.572 -1.7938  0.4367 -0.9529
 4190SOL     MW16760   3.001   2.088   1.626  0.1241  0.1410 -0.4286
 4191SOL     OW16761   5.483   0.241   2.234 -0.0383  0.1538 -0.2281
 4191SOL    HW116762   5.412   0.180   2.250 -0.9740  1.5800  1.4191
 4191SOL    HW216763   5.463   0.278   2.148  0.1663 -1.3000 -0.9313
 4191SOL     MW16764   5.471   0.238   2.225 -0.1319  0.1502 -0.1073
 4192SOL     OW16765   4.981   3.883   5.461 -0.1214  0.3084  0.2996
 4192SOL    HW116766   4.912   3.878   5.528 -2.2285  1.4054 -1.6465
 4192SOL    HW216767   4.968   3.804   5.408  1.1649 -0.2683  0.8095
 4192SOL     MW16768   4.971   3.872   5.463 -0.2265  0.3750  0.1157
 4193SOL     OW16769   1.271   1.527   3.014  0.2921  0.0508  0.4415
 4193SOL    HW116770   1.290   1.437   3.041  2.0100  0.4807  0.8299
 4193SOL    HW216771   1.324   1.581   3.073 -2.0192  1.4361  1.3386
 4193SOL     MW16772   1.280   1.523   3.025  0.2161  0.2832  0.6060
 4194SOL     OW16773   1.354   4.747   1.446 -0.3946  0.6821 -0.1462
 4194SOL    HW116774   1.322   4.667   1.405  0.7647 -0.1723  0.5467
 4194SOL    HW216775   1.442   4.724   1.477  0.6382  2.6947 -1.3539
 4194SOL     MW16776   1.361   4.734   1.444 -0.1140  0.8304 -0.2121
 4195SOL     OW16777   1.980   1.800   0.916 -0.2660  0.6026 -0.1031
 4195SOL    HW116778   1.911   1.759   0.968  0.3765 -0.4231 -0.0465
 4195SOL    HW216779   1.933   1.862   0.859 -1.3527 -0.7901 -0.7767
 4195SOL     MW16780   1.965   1.803   0.915 -0.3228  0.2930 -0.1821
 4196SOL     OW16781   4.183   3.559   0.178  0.4440 -0.3293 -0.1065
 4196SOL    HW116782   4.229   3.644   0.174  0.3227 -0.2585 -0.0170
 4196SOL    HW216783   4.139   3.552   0.093 -1.8643  1.0157  0.8713
 4196SOL     MW16784   4.184   3.569   0.167  0.1330 -0.1480  0.0302
 4197SOL     OW16785   5.230   2.854   3.720  0.0620 -0.3151 -0.2956
 4197SOL    HW116786   5.164   2.835   3.654  0.7052 -0.4617 -0.9084
 4197SOL    HW216787   5.180   2.873   3.800 -0.7137 -0.2507 -0.7923
 4197SOL     MW16788   5.215   2.854   3.722  0.0451 -0.3256 -0.4376
 4198SOL     OW16789   5.145   4.726   3.723 -0.4659 -0.0636 -0.1428
 4198SOL    HW116790   5.070   4.670   3.738 -0.1207 -0.3278  0.6565
 4198SOL    HW216791   5.161   4.721   3.629 -0.6864 -0.9851 -0.1328
 4198SOL     MW16792   5.138   4.718   3.713 -0.4499 -0.2154 -0.0392
 4199SOL     OW16793   2.128   3.415   0.267  0.5090  0.1231  0.1882
 4199SOL    HW116794   2.132   3.423   0.362 -1.2261  0.6525  0.2503
 4199SOL    HW216795   2.145   3.322   0.250 -1.0065 -0.3641  1.1752
 4199SOL     MW16796   2.131   3.404   0.277  0.0929  0.1285  0.3225
 4200SOL     OW16797   1.293   2.751   0.204  0.2291 -0.9288 -0.1944
 4200SOL    HW116798   1.279   2.657   0.216  0.5894 -1.2063 -1.7544
 4200SOL    HW216799   1.386   2.764   0.223 -0.1966 -0.5389  1.8345
 4200SOL     MW16800   1.303   2.740   0.208  0.2207 -0.9144 -0.1344
 4201SOL     OW16801   0.903   0.841   1.819  0.3102 -0.6298 -0.1055
 4201SOL    HW116802   0.874   0.759   1.779  1.2514 -0.7156 -0.6517
 4201SOL    HW216803   0.832   0.903   1.801  0.7276 -0.6539 -2.0058
 4201SOL     MW16804   0.890   0.838   1.811  0.4842 -0.6439 -0.4187
 4202SOL     OW16805   1.345   5.455   2.611  0.4270 -0.1154 -0.2741
 4202SOL    HW116806   1.328   5.496   2.526  3.0253 -1.3128 -1.4691
 4202SOL    HW216807   1.261   5.418   2.637 -0.9736  2.2059 -1.1658
 4202SOL     MW16808   1.332   5.456   2.604  0.5803  0.0285 -0.5412
 4203SOL     OW16809   2.506   5.041   4.398  0.5438  0.4459  0.6589
 4203SOL    HW116810   2.601   5.032   4.396  0.8032  2.8016  0.5246
 4203SOL    HW216811   2.485   5.103   4.329 -1.2549 -0.8669 -0.0815
 4203SOL     MW16812   2.515   5.048   4.389  0.3468  0.5794  0.5469
 4204SOL     OW16813   2.535   5.002   3.505  0.6475 -0.6623 -0.2685
 4204SOL    HW116814   2.626   4.975   3.513  0.6673 -0.5714 -0.1850
 4204SOL    HW216815   2.539   5.094   3.480  0.5809 -0.4818  0.3516
 4204SOL     MW16816   2.547   5.010   3.503  0.6415 -0.6276 -0.1784
 4205SOL     OW16817   2.319   2.874   2.215  0.0407  0.1246  0.6947
 4205SOL    HW116818   2.333   2.881   2.310  0.3722  1.0479  0.5904
 4205SOL    HW216819   2.234   2.917   2.201 -0.5657 -1.0305  0.7018
 4205SOL     MW16820   2.310   2.881   2.226  0.0055  0.0949  0.6822
 4206SOL     OW16821   1.750   2.871   0.945 -0.0073  0.0522  0.2808
 4206SOL    HW116822   1.806   2.943   0.972  0.7440 -0.2687 -0.3812
 4206SOL    HW216823   1.807   2.815   0.893 -0.9726 -0.2327 -0.4911
 4206SOL     MW16824   1.765   2.873   0.942 -0.0347 -0.0253  0.0973
 4207SOL     OW16825   2.075   5.216   3.500  0.3120 -0.4642 -0.0686
 4207SOL    HW116826   2.114   5.165   3.429 -0.0815  0.7821 -1.2292
 4207SOL    HW216827   1.993   5.169   3.520  0.0707 -0.4482 -0.9508
 4207SOL     MW16828   2.069   5.203   3.493  0.2307 -0.3026 -0.3301
 4208SOL     OW16829   4.097   0.129   3.310  0.4629 -0.2711  0.0812
 4208SOL    HW116830   4.103   0.206   3.254 -0.4635  0.1152  0.5087
 4208SOL    HW216831   4.100   0.163   3.399  0.1106 -0.7374  0.2750
 4208SOL     MW16832   4.098   0.143   3.314  0.2992 -0.2814  0.1608
 4209SOL     OW16833   4.187   1.679   5.135 -0.3020 -0.2586 -0.3871
 4209SOL    HW116834   4.136   1.721   5.067  1.1356 -1.4218 -2.2737
 4209SOL    HW216835   4.254   1.744   5.158  0.5475 -0.6487 -1.6859
 4209SOL     MW16836   4.189   1.693   5.129 -0.0092 -0.4575 -0.7948
 4210SOL     OW16837   0.850   0.686   0.648 -0.3049  0.0551 -0.1045
 4210SOL    HW116838   0.859   0.779   0.626 -0.4089  0.1653  0.3012
 4210SOL    HW216839   0.936   0.648   0.626 -0.0019  0.4038  0.4451
 4210SOL     MW16840   0.862   0.693   0.643 -0.2795  0.1139  0.0178
 4211SOL     OW16841   3.846   1.032   1.620  0.3960 -0.0612  0.1432
 4211SOL    HW116842   3.882   0.967   1.679 -0.3510 -1.6990 -1.0943
 4211SOL    HW216843   3.917   1.053   1.559  0.4068 -0.3159  0.0697
 4211SOL     MW16844   3.859   1.027   1.619  0.3018 -0.3035 -0.0247
 4212SOL     OW16845   1.175   0.717   4.223  0.0564 -0.0609  0.2433
 4212SOL    HW116846   1.210   0.708   4.312 -0.4810 -0.0615  0.4602
 4212SOL    HW216847   1.169   0.812   4.210  1.4480 -0.0215 -0.3306
 4212SOL     MW16848   1.179   0.728   4.233  0.1658 -0.0559  0.1976
 4213SOL     OW16849   4.155   4.781   3.494 -0.1966 -0.1738 -0.0967
 4213SOL    HW116850   4.113   4.702   3.461 -3.7831  1.5469 -0.1481
 4213SOL    HW216851   4.100   4.808   3.567  1.0130  2.1452  0.0331
 4213SOL     MW16852   4.142   4.774   3.499 -0.5008  0.3433 -0.0867
 4214SOL     OW16853   1.340   2.757   1.697  0.2659  0.1596 -0.3425
 4214SOL    HW116854   1.424   2.754   1.743  1.6884  2.0129 -2.5801
 4214SOL    HW216855   1.288   2.820   1.747  0.4263 -0.5121  0.6931
 4214SOL     MW16856   1.344   2.765   1.709  0.4685  0.3109 -0.4964
 4215SOL     OW16857   2.962   5.063   3.058 -0.1494  0.5521 -0.3743
 4215SOL    HW116858   3.040   5.083   3.109 -0.4783  1.5305 -0.2363
 4215SOL    HW216859   2.913   5.001   3.113  0.7289 -0.4286 -0.6666
 4215SOL     MW16860   2.965   5.057   3.072 -0.0791  0.5518 -0.3941
 4216SOL     OW16861   5.067   4.047   0.632  0.3629 -0.5011 -0.5107
 4216SOL    HW116862   4.976   4.057   0.662  0.2250 -0.5043 -0.9254
 4216SOL    HW216863   5.104   4.135   0.640  0.3904 -0.5472 -0.1249
 4216SOL     MW16864   5.060   4.059   0.637  0.3488 -0.5074 -0.5144
 4217SOL     OW16865   2.125   0.176   4.969  0.0532  0.3600  0.3678
 4217SOL    HW116866   2.030   0.173   4.957  0.0225  0.3155  0.6124
 4217SOL    HW216867   2.137   0.227   5.049  0.2005 -0.2942  0.7663
 4217SOL     MW16868   2.115   0.183   4.978  0.0682  0.2706  0.4501
 4218SOL     OW16869   2.289   2.782   4.481  0.4268  0.1308 -0.3139
 4218SOL    HW116870   2.301   2.691   4.452  0.3743  0.0224  0.0014
 4218SOL    HW216871   2.310   2.834   4.404  1.6132 -0.1080 -0.1777
 4218SOL     MW16872   2.293   2.777   4.468  0.5719  0.0863 -0.2561
 4219SOL     OW16873   0.218   3.112   0.065 -0.6883 -0.1560 -0.4292
 4219SOL    HW116874   0.224   3.093  -0.029  0.2892 -0.4972 -0.3074
 4219SOL    HW216875   0.231   3.027   0.107 -2.1617 -0.1881  0.0050
 4219SOL     MW16876   0.220   3.099   0.058 -0.7518 -0.2038 -0.3580
 4220SOL     OW16877   0.985   0.784   2.860  0.0770 -0.1280  0.5513
 4220SOL    HW116878   0.948   0.865   2.895 -1.0698  0.0575 -0.9336
 4220SOL    HW216879   1.078   0.801   2.852 -0.1248  0.9944  0.4341
 4220SOL     MW16880   0.992   0.797   2.863 -0.0956  0.0394  0.3462
 4221SOL     OW16881   1.589   4.813   3.506 -0.2595  0.1167  0.0608
 4221SOL    HW116882   1.552   4.790   3.591  0.8782  1.1714  0.8745
 4221SOL    HW216883   1.515   4.846   3.455 -1.2520 -1.9457  0.0644
 4221SOL     MW16884   1.575   4.814   3.510 -0.2409 -0.0123  0.1654
 4222SOL     OW16885   2.571   2.567   4.247  0.4704  0.8261 -0.1210
 4222SOL    HW116886   2.511   2.534   4.180  1.7820 -0.2088 -0.8344
 4222SOL    HW216887   2.649   2.595   4.199  1.8239 -0.7901  0.9775
 4222SOL     MW16888   2.573   2.566   4.233  0.8115  0.4867 -0.0717
 4223SOL     OW16889   5.141   2.724   2.546 -0.3169  0.3893  0.2796
 4223SOL    HW116890   5.122   2.775   2.468 -0.8599  1.3446  1.0118
 4223SOL    HW216891   5.236   2.730   2.556 -0.1953 -0.0889 -0.5269
 4223SOL     MW16892   5.151   2.731   2.537 -0.3709  0.4504  0.2701
 4224SOL     OW16893   3.079   0.165   3.530  0.7418 -0.1514  0.3584
 4224SOL    HW116894   2.991   0.174   3.493  0.8764 -0.9173 -0.1794
 4224SOL    HW216895   3.090   0.242   3.584  0.7147  1.2601 -1.5575
 4224SOL     MW16896   3.069   0.176   3.532  0.7555 -0.0687  0.0443
 4225SOL     OW16897   0.186   4.671   5.461  0.0428 -0.4719  0.0214
 4225SOL    HW116898   0.108   4.616   5.467 -0.1751 -0.3620 -1.3378
 4225SOL    HW216899   0.159   4.755   5.497  0.1771 -1.0426  1.4963
 4225SOL     MW16900   0.172   4.674   5.466  0.0321 -0.5309  0.0362
 4226SOL     OW16901   1.522   0.060   1.150 -0.1816  0.3470 -0.0136
 4226SOL    HW116902   1.553   0.001   1.219 -0.0918  1.5829  1.0495
 4226SOL    HW216903   1.482   0.134   1.197 -0.2705  1.1522 -1.2854
 4226SOL     MW16904   1.521   0.062   1.165 -0.1815  0.6083 -0.0403
 4227SOL     OW16905   0.675   4.765   4.933 -0.2083 -0.0281  0.3170
 4227SOL    HW116906   0.674   4.695   4.998  0.4805  1.0705  1.5471
 4227SOL    HW216907   0.667   4.719   4.849 -0.2381 -1.5400  1.1074
 4227SOL     MW16908   0.674   4.750   4.930 -0.1240 -0.0810  0.5757
 4228SOL     OW16909   3.456   1.466   4.789 -0.1368  0.5596 -0.0946
 4228SOL    HW116910   3.453   1.460   4.693 -0.4788  1.4265 -0.1453
 4228SOL    HW216911   3.537   1.515   4.806  0.0575  0.1832  0.0786
 4228SOL     MW16912   3.466   1.472   4.779 -0.1557  0.6224 -0.0789
 4229SOL     OW16913   2.206   3.170   0.193  0.6608  0.3748  0.1370
 4229SOL    HW116914   2.160   3.170   0.109  2.3565 -1.5711 -0.8760
 4229SOL    HW216915   2.144   3.128   0.253  0.3789 -0.5736 -0.7770
 4229SOL     MW16916   2.192   3.165   0.190  0.8418  0.0043 -0.1097
 4230SOL     OW16917   0.169   2.150   3.116 -0.0497 -0.1433  0.3887
 4230SOL    HW116918   0.248   2.166   3.066  0.0592 -1.5444  0.0616
 4230SOL    HW216919   0.169   2.055   3.132 -1.7811 -0.2258  0.1600
 4230SOL     MW16920   0.179   2.140   3.112 -0.2574 -0.3332  0.3175
 4231SOL     OW16921   2.274   4.550   0.246 -0.1065  0.3174  0.1510
 4231SOL    HW116922   2.226   4.629   0.219  1.8298  0.6783 -2.6491
 4231SOL    HW216923   2.222   4.477   0.212 -0.4730  0.5219  0.2670
 4231SOL     MW16924   2.261   4.551   0.238  0.0944  0.3898 -0.1926
 4232SOL     OW16925   1.888   3.220   2.872  0.1304 -0.0508 -0.4534
 4232SOL    HW116926   1.879   3.159   2.799 -2.4921  0.3841 -0.6154
 4232SOL    HW216927   1.817   3.284   2.859  0.7336  1.1247  1.4684
 4232SOL     MW16928   1.878   3.221   2.861 -0.1281  0.1554 -0.2281
 4233SOL     OW16929   2.620   4.366   0.968  0.4589  0.2247  0.0963
 4233SOL    HW116930   2.658   4.305   1.031  0.2877 -1.7509 -1.6146
 4233SOL    HW216931   2.690   4.429   0.951  1.5498 -0.9369  0.0830
 4233SOL     MW16932   2.634   4.366   0.974  0.5766 -0.1769 -0.1244
 4234SOL     OW16933   3.699   0.182   1.271 -0.0144  0.2990  0.1497
 4234SOL    HW116934   3.742   0.230   1.201 -1.3465 -1.5493 -2.0867
 4234SOL    HW216935   3.744   0.098   1.274 -0.6745 -0.0495  0.7756
 4234SOL     MW16936   3.710   0.177   1.263 -0.2694  0.0178 -0.0565
 4235SOL     OW16937   1.278   0.865   0.727  0.2875 -0.3200 -0.0428
 4235SOL    HW116938   1.328   0.922   0.668 -0.1727  0.7908  0.6132
 4235SOL    HW216939   1.226   0.810   0.668  1.4789 -0.7752 -0.7106
 4235SOL     MW16940   1.278   0.865   0.712  0.3811 -0.2361 -0.0443
 4236SOL     OW16941   1.930   0.806   5.150 -0.1064  0.6687  0.2379
 4236SOL    HW116942   1.855   0.755   5.121  1.9505 -1.6877 -1.3919
 4236SOL    HW216943   1.909   0.831   5.240 -2.6230 -0.2707 -0.0141
 4236SOL     MW16944   1.918   0.803   5.158 -0.1652  0.2468 -0.0030
 4237SOL     OW16945   2.952   2.811   1.456 -0.2571  0.6445 -0.1178
 4237SOL    HW116946   2.969   2.795   1.549  1.0781  3.2978  0.1748
 4237SOL    HW216947   2.981   2.731   1.412 -1.0178 -0.7106  1.7003
 4237SOL     MW16948   2.958   2.799   1.462 -0.1835  0.8107  0.1524
 4238SOL     OW16949   1.717   2.444   2.128  0.3843  0.6967  0.1032
 4238SOL    HW116950   1.630   2.446   2.167  0.4168  2.3277  0.1467
 4238SOL    HW216951   1.713   2.373   2.064 -0.9633  0.7347  0.1306
 4238SOL     MW16952   1.705   2.435   2.125  0.2160  0.9104  0.1123
 4239SOL     OW16953   5.464   3.759   2.893  0.0120 -0.0278  0.2404
 4239SOL    HW116954   5.444   3.821   2.823  1.3341  1.1014  0.8056
 4239SOL    HW216955   5.409   3.683   2.874 -2.4941  1.6772  0.1028
 4239SOL     MW16956   5.454   3.757   2.882 -0.1396  0.3350  0.2951
 4240SOL     OW16957   4.897   4.641   0.706 -0.0967  0.0867 -0.2661
 4240SOL    HW116958   4.913   4.733   0.726 -1.2382 -0.1007  1.7159
 4240SOL    HW216959   4.869   4.641   0.615  0.7668  1.5746 -0.5758
 4240SOL     MW16960   4.896   4.653   0.697 -0.1323  0.2532 -0.0520
 4241SOL     OW16961   1.000   5.395   5.347  0.0310  0.2243 -0.0964
 4241SOL    HW116962   1.064   5.458   5.315  0.8034 -0.1340  0.7021
 4241SOL    HW216963   1.050   5.314   5.361 -0.7707 -0.3207 -0.2993
 4241SOL     MW16964   1.015   5.392   5.345  0.0272  0.1087 -0.0201
 4242SOL     OW16965   1.703   4.999   5.407 -0.5143  0.3225 -0.2360
 4242SOL    HW116966   1.657   5.065   5.458 -0.1060 -0.3099  1.0019
 4242SOL    HW216967   1.648   4.921   5.412  0.3955 -0.2812  0.8098
 4242SOL     MW16968   1.690   4.997   5.414 -0.3456  0.1643  0.0563
 4243SOL     OW16969   5.287   3.420   4.179  0.2704  0.0876 -0.0552
 4243SOL    HW116970   5.283   3.422   4.084  1.9729 -2.0265 -0.2497
 4243SOL    HW216971   5.203   3.382   4.206  0.8491 -1.9619 -0.9476
 4243SOL     MW16972   5.275   3.415   4.171  0.5624 -0.4454 -0.1944
 4244SOL     OW16973   3.820   2.753   0.285 -0.2164 -0.0565 -0.2520
 4244SOL    HW116974   3.902   2.715   0.318  1.2264  0.7817 -2.6163
 4244SOL    HW216975   3.838   2.771   0.193 -3.0732  0.2507 -0.8268
 4244SOL     MW16976   3.833   2.750   0.277 -0.3974  0.0901 -0.6282
 4245SOL     OW16977   2.034   2.369   0.703  0.8895  0.1350  0.1517
 4245SOL    HW116978   1.968   2.335   0.764  1.6317 -0.7405  0.4793
 4245SOL    HW216979   2.109   2.390   0.758  1.2975  0.0540 -0.3686
 4245SOL     MW16980   2.035   2.367   0.718  1.0367  0.0126  0.1271
 4246SOL     OW16981   3.156   0.924   4.494  0.2362 -0.2338 -0.2180
 4246SOL    HW116982   3.172   0.836   4.528 -0.6946 -0.2729  0.1538
 4246SOL    HW216983   3.065   0.943   4.519  1.4914  2.3448  3.1781
 4246SOL     MW16984   3.146   0.915   4.502  0.2777  0.0913  0.2643
 4247SOL     OW16985   2.252   2.174   0.163 -0.1319 -0.1418  0.2335
 4247SOL    HW116986   2.239   2.260   0.122  1.1489 -0.2584 -0.4483
 4247SOL    HW216987   2.342   2.176   0.194  0.0536 -1.4276 -0.2089
 4247SOL     MW16988   2.262   2.186   0.162  0.0558 -0.3213  0.0896
 4248SOL     OW16989   2.589   1.930   2.980  0.4977  0.1290 -0.5109
 4248SOL    HW116990   2.645   1.863   2.941  0.2676  1.1581 -2.7613
 4248SOL    HW216991   2.647   2.004   2.996  1.0227 -0.8790  3.1215
 4248SOL     MW16992   2.603   1.931   2.977  0.5355  0.1317 -0.3340
 4249SOL     OW16993   5.238   2.079   2.210 -0.2848 -0.0014 -0.4544
 4249SOL    HW116994   5.212   1.993   2.177 -0.0598  0.3372 -1.5490
 4249SOL    HW216995   5.230   2.072   2.306 -0.5147 -1.1486 -0.5506
 4249SOL     MW16996   5.234   2.067   2.218 -0.2854 -0.1049 -0.6068
 4250SOL     OW16997   5.308   1.091   0.177  0.4495  0.1085  0.2678
 4250SOL    HW116998   5.272   1.003   0.165  1.8871 -0.5667  0.5867
 4250SOL    HW216999   5.400   1.083   0.150  0.2265  1.9305 -1.2545
 4250SOL     MW17000   5.315   1.079   0.172  0.6050  0.2553  0.1137
 4251SOL     OW17001   2.548   1.121   2.386  0.2551 -0.0714 -0.5125
 4251SOL    HW117002   2.536   1.131   2.292 -1.2444 -0.7077 -0.4297
 4251SOL    HW217003   2.509   1.200   2.424  0.8155  0.1632 -0.4222
 4251SOL     MW17004   2.541   1.132   2.379  0.1349 -0.1229 -0.4904
 4252SOL     OW17005   5.370   3.021   4.614  0.3051 -0.0547  0.1201
 4252SOL    HW117006   5.450   2.969   4.603 -0.6423 -1.8123  1.0761
 4252SOL    HW217007   5.300   2.956   4.612 -1.2569  1.5555 -2.0548
 4252SOL     MW17008   5.371   3.006   4.612 -0.0161 -0.0736 -0.0359
 4253SOL     OW17009   1.847   5.014   5.171  0.8056 -0.0217 -0.4314
 4253SOL    HW117010   1.856   5.101   5.133  0.5895 -0.2661 -1.0675
 4253SOL    HW217011   1.791   5.026   5.247 -0.9567  0.1145 -1.6779
 4253SOL     MW17012   1.841   5.027   5.176  0.5523 -0.0356 -0.6724
 4254SOL     OW17013   0.351   0.300   3.193 -0.0473 -0.4395  0.0310
 4254SOL    HW117014   0.333   0.206   3.181 -1.3434 -0.2353  0.2493
 4254SOL    HW217015   0.267   0.343   3.176  0.3301  0.6182  0.7351
 4254SOL     MW17016   0.338   0.293   3.189 -0.1649 -0.2779  0.1491
 4255SOL     OW17017   1.695   4.703   2.875 -0.3206 -0.0028 -0.5909
 4255SOL    HW117018   1.790   4.699   2.877 -0.3142  0.0512  1.6373
 4255SOL    HW217019   1.667   4.664   2.958 -2.2478 -0.0051 -1.1757
 4255SOL     MW17020   1.703   4.697   2.886 -0.5665  0.0038 -0.3805
 4256SOL     OW17021   0.422   2.097   0.610 -0.0848 -0.3707  0.0388
 4256SOL    HW117022   0.502   2.150   0.604  0.2244 -0.7386  0.6766
 4256SOL    HW217023   0.351   2.159   0.598  0.2988 -0.0031 -0.3672
 4256SOL     MW17024   0.423   2.112   0.608  0.0039 -0.3708  0.0685
 4257SOL     OW17025   1.091   1.248   5.443 -0.1606  0.1524  0.4087
 4257SOL    HW117026   1.150   1.319   5.415  1.9733 -0.6734  2.4452
 4257SOL    HW217027   1.081   1.262   5.537 -0.7483 -1.5060  0.6188
 4257SOL     MW17028   1.098   1.259   5.452  0.0374 -0.1656  0.6963
 4258SOL     OW17029   5.057   1.244   0.684  0.0279  0.0355  0.1621
 4258SOL    HW117030   5.054   1.253   0.589  1.3018 -2.4151 -0.2137
 4258SOL    HW217031   5.141   1.284   0.709 -0.0537  0.1960  0.1775
 4258SOL     MW17032   5.068   1.250   0.675  0.1805 -0.2576  0.1160
 4259SOL     OW17033   0.408   3.926   3.632  0.4455 -0.3010  0.7156
 4259SOL    HW117034   0.348   3.877   3.576 -0.4049 -0.1174  1.4541
 4259SOL    HW217035   0.420   4.009   3.586  1.7306 -1.0738 -0.4356
 4259SOL     MW17036   0.402   3.930   3.619  0.5012 -0.3765  0.6628
 4260SOL     OW17037   4.702   2.523   4.765  0.4262  0.7440  0.1451
 4260SOL    HW117038   4.791   2.543   4.794  0.7591 -1.6753  1.0120
 4260SOL    HW217039   4.648   2.532   4.843  0.1805  0.6060 -0.0061
 4260SOL     MW17040   4.707   2.527   4.778  0.4374  0.4167  0.2367
 4261SOL     OW17041   0.612   3.455   2.659  0.0836  0.4387 -0.1581
 4261SOL    HW117042   0.539   3.482   2.715  1.2773  2.0422  0.7063
 4261SOL    HW217043   0.641   3.536   2.617  0.0621 -0.5107 -2.1304
 4261SOL     MW17044   0.606   3.469   2.661  0.2337  0.5224 -0.2999
 4262SOL     OW17045   0.227   1.514   3.510 -0.0162  0.4915  0.3006
 4262SOL    HW117046   0.213   1.419   3.510  0.8845  0.3494  0.6508
 4262SOL    HW217047   0.298   1.528   3.572 -0.3342  1.4339  0.4648
 4262SOL     MW17048   0.235   1.503   3.518  0.0584  0.5940  0.3665
 4263SOL     OW17049   3.088   1.416   1.378 -0.1599  0.5314 -0.4868
 4263SOL    HW117050   3.163   1.458   1.337 -0.1496  0.6147 -0.3845
 4263SOL    HW217051   3.093   1.325   1.351 -0.1490  0.5837 -0.6634
 4263SOL     MW17052   3.098   1.410   1.369 -0.1572  0.5488 -0.4963
 4264SOL     OW17053   3.119   0.036   2.109 -0.3237  0.5920  0.3565
 4264SOL    HW117054   3.214   0.026   2.100 -0.4847  0.5662 -1.7406
 4264SOL    HW217055   3.100   0.123   2.074 -1.1079  0.4891  0.5075
 4264SOL     MW17056   3.129   0.046   2.103 -0.4447  0.5755  0.1074
 4265SOL     OW17057   5.404   5.452   0.607 -0.0208  0.0077 -0.5702
 4265SOL    HW117058   5.351   5.422   0.533  0.1461  1.9470 -1.5282
 4265SOL    HW217059   5.450   5.373   0.636 -0.8962 -1.0241 -1.8381
 4265SOL     MW17060   5.403   5.438   0.601 -0.1115  0.1239 -0.8552
 4266SOL     OW17061   4.925   1.688   0.547  0.1310 -0.0866  0.4791
 4266SOL    HW117062   4.889   1.734   0.623 -0.1666  2.1019 -0.8829
 4266SOL    HW217063   4.908   1.747   0.473  0.4480 -2.0921 -1.3014
 4266SOL     MW17064   4.918   1.702   0.547  0.1335 -0.0632  0.0768
 4267SOL     OW17065   1.471   2.415   3.666  0.0545  0.0860  0.1577
 4267SOL    HW117066   1.435   2.499   3.696  2.5573  0.5107  2.3404
 4267SOL    HW217067   1.556   2.437   3.628 -1.5506 -0.9049 -4.6679
 4267SOL     MW17068   1.477   2.429   3.665  0.1695  0.0135 -0.1806
 4268SOL     OW17069   2.581   4.277   4.130  0.5875 -0.1824  0.4124
 4268SOL    HW117070   2.532   4.302   4.052  1.3132  0.5165  0.1659
 4268SOL    HW217071   2.528   4.309   4.203  0.0494 -0.5765  0.1919
 4268SOL     MW17072   2.568   4.285   4.130  0.6115 -0.1434  0.3526
 4269SOL     OW17073   3.139   3.775   1.472  0.1657  0.3227  0.5882
 4269SOL    HW117074   3.107   3.685   1.468  1.7740 -0.4390  2.6643
 4269SOL    HW217075   3.083   3.817   1.537  0.6363  0.2405  1.0505
 4269SOL     MW17076   3.128   3.769   1.480  0.4318  0.2146  0.9132
 4270SOL     OW17077   0.394   2.512   2.587 -0.5434 -0.1006 -0.0850
 4270SOL    HW117078   0.444   2.505   2.507  0.1362  1.1079  0.2096
 4270SOL    HW217079   0.427   2.443   2.644 -0.7975 -0.7422 -0.7147
 4270SOL     MW17080   0.404   2.503   2.584 -0.4889 -0.0280 -0.1279
 4271SOL     OW17081   2.630   0.734   4.845  0.0661 -0.0446  0.3205
 4271SOL    HW117082   2.704   0.691   4.803 -1.3076 -1.6267 -0.5948
 4271SOL    HW217083   2.553   0.700   4.800 -1.3692  0.0710  2.5133
 4271SOL     MW17084   2.630   0.724   4.834 -0.2935 -0.2323  0.4841
 4272SOL     OW17085   4.768   3.227   1.805  0.3455  0.3744 -0.4626
 4272SOL    HW117086   4.692   3.194   1.756  0.0215  0.7592 -0.2307
 4272SOL    HW217087   4.816   3.149   1.830 -2.4886 -0.3934  3.5917
 4272SOL     MW17088   4.764   3.213   1.802 -0.0588  0.3254  0.0861
 4273SOL     OW17089   1.433   1.313   3.886 -0.0164 -0.7150 -0.0750
 4273SOL    HW117090   1.425   1.220   3.864  0.9308 -0.5235 -1.3735
 4273SOL    HW217091   1.343   1.343   3.895 -0.3343 -1.7702  0.4765
 4273SOL     MW17092   1.420   1.305   3.884  0.0642 -0.8255 -0.1706
 4274SOL     OW17093   0.533   0.472   5.158 -0.5037 -0.3471  0.4402
 4274SOL    HW117094   0.557   0.452   5.249  0.3504 -1.4405 -0.0020
 4274SOL    HW217095   0.575   0.556   5.141  0.2886 -0.6773  0.7115
 4274SOL     MW17096   0.541   0.480   5.168 -0.2929 -0.5294  0.4184
 4275SOL     OW17097   4.132   0.259   0.927 -0.2305  0.6969  0.3687
 4275SOL    HW117098   4.186   0.188   0.891 -1.5705 -1.0239  1.6023
 4275SOL    HW217099   4.081   0.291   0.853 -1.3203 -1.2643  0.2167
 4275SOL     MW17100   4.133   0.254   0.913 -0.5416  0.2256  0.5072
 4276SOL     OW17101   2.951   3.695   0.412  0.7479 -0.1582  0.2277
 4276SOL    HW117102   2.869   3.648   0.401 -0.0618  1.3337 -0.3879
 4276SOL    HW217103   2.971   3.730   0.325  1.0306  1.0626  0.7598
 4276SOL     MW17104   2.943   3.694   0.400  0.6805  0.1891  0.2170
 4277SOL     OW17105   2.738   3.808   2.048  0.0931  0.1131  0.0261
 4277SOL    HW117106   2.736   3.860   2.128 -0.4446  2.0239 -1.1551
 4277SOL    HW217107   2.826   3.822   2.013  0.5455 -1.2282  0.5569
 4277SOL     MW17108   2.749   3.816   2.054  0.0822  0.1860 -0.0571
 4278SOL     OW17109   4.691   1.569   2.837 -0.2588  0.2081  0.0036
 4278SOL    HW117110   4.736   1.631   2.779 -0.6150  1.0429  0.5962
 4278SOL    HW217111   4.616   1.538   2.786 -1.0479  1.5672  0.2871
 4278SOL     MW17112   4.687   1.573   2.823 -0.4054  0.4889  0.1157
 4279SOL     OW17113   1.806   3.418   2.446  0.0094 -0.4311  0.3580
 4279SOL    HW117114   1.857   3.337   2.442  0.5949 -0.1199  1.2337
 4279SOL    HW217115   1.842   3.465   2.521  0.1677  0.9729 -0.5536
 4279SOL     MW17116   1.818   3.414   2.455  0.1046 -0.2115  0.3534
 4280SOL     OW17117   1.075   1.612   2.812 -0.0246  0.5228  0.1734
 4280SOL    HW117118   1.000   1.646   2.861 -1.1224 -2.1105  0.4362
 4280SOL    HW217119   1.137   1.584   2.879 -0.0442  0.0586 -0.0039
 4280SOL     MW17120   1.073   1.613   2.827 -0.1677  0.1262  0.1843
 4281SOL     OW17121   4.053   5.108   0.545  0.1376 -0.1747 -0.0437
 4281SOL    HW117122   4.005   5.068   0.472  0.3936  0.9211 -0.8293
 4281SOL    HW217123   3.987   5.160   0.591  0.3318  0.5288 -0.5369
 4281SOL     MW17124   4.038   5.109   0.541  0.1952  0.0556 -0.2074
 4282SOL     OW17125   4.990   4.170   2.560  0.3295 -0.3523  0.3155
 4282SOL    HW117126   4.925   4.105   2.533 -2.8602  3.2209 -1.6889
 4282SOL    HW217127   5.039   4.189   2.479  0.2168  0.7049  0.4853
 4282SOL     MW17128   4.988   4.164   2.546 -0.0933  0.2404  0.0807
 4283SOL     OW17129   3.593   3.951   0.903  0.1736  0.1010 -0.4903
 4283SOL    HW117130   3.623   3.861   0.910  2.3254  0.8500  0.7228
 4283SOL    HW217131   3.633   3.984   0.822  1.1478  0.5647  0.1685
 4283SOL     MW17132   3.602   3.944   0.893  0.5738  0.2562 -0.2506
 4284SOL     OW17133   1.072   2.441   0.141  0.3105 -0.0066 -0.1821
 4284SOL    HW117134   1.038   2.509   0.199  1.0919  0.3841 -0.1650
 4284SOL    HW217135   0.995   2.391   0.114 -0.3970  1.3843 -0.8403
 4284SOL     MW17136   1.058   2.443   0.145  0.3199  0.2215 -0.2642
 4285SOL     OW17137   1.173   5.448   4.298  0.4804 -0.1136  0.3448
 4285SOL    HW117138   1.261   5.414   4.282  0.2517 -0.0868 -1.1306
 4285SOL    HW217139   1.116   5.397   4.240 -0.4212  0.1794  0.9395
 4285SOL     MW17140   1.177   5.437   4.288  0.3357 -0.0727  0.2321
 4286SOL     OW17141   1.835   5.076   1.561 -0.1865  0.2162  0.6371
 4286SOL    HW117142   1.925   5.076   1.591  0.7528  1.3827 -1.8842
 4286SOL    HW217143   1.834   5.138   1.488 -3.0415  0.2417  0.5870
 4286SOL     MW17144   1.846   5.084   1.555 -0.4317  0.3688  0.3079
 4287SOL     OW17145   4.066   3.472   0.543  0.6647  0.6670  0.0928
 4287SOL    HW117146   4.145   3.524   0.533  0.9617 -0.0837 -1.6653
 4287SOL    HW217147   4.026   3.506   0.624  1.8041  2.3039  0.0215
 4287SOL     MW17148   4.071   3.483   0.552  0.8486  0.7804 -0.1414
 4288SOL     OW17149   5.446   3.489   2.552  0.3427  0.3118 -0.2467
 4288SOL    HW117150   5.505   3.564   2.548  3.2565 -1.8190 -0.8930
 4288SOL    HW217151   5.469   3.435   2.476 -2.7802 -0.5357 -0.7648
 4288SOL     MW17152   5.456   3.492   2.542  0.3160 -0.0694 -0.3958
 4289SOL     OW17153   1.367   3.912   3.826  0.1126 -0.9245  0.6573
 4289SOL    HW117154   1.377   3.896   3.920  1.1040  0.9324  0.9135
 4289SOL    HW217155   1.457   3.919   3.793 -0.2350 -0.6005 -0.2578
 4289SOL     MW17156   1.380   3.911   3.833  0.1950 -0.6453  0.5730
 4290SOL     OW17157   1.269   2.025   1.257 -0.3001 -0.5499 -0.1466
 4290SOL    HW117158   1.187   1.991   1.221  0.2621 -0.3306 -1.7388
 4290SOL    HW217159   1.245   2.110   1.294 -0.4186  0.7482 -2.9248
 4290SOL     MW17160   1.256   2.032   1.257 -0.2433 -0.3556 -0.7060
 4291SOL     OW17161   1.331   2.084   3.128  0.0504 -0.2478  0.4483
 4291SOL    HW117162   1.260   2.145   3.105 -0.1348 -0.7598 -0.3892
 4291SOL    HW217163   1.312   2.058   3.218 -0.9960 -0.5832  0.1515
 4291SOL     MW17164   1.320   2.088   3.136 -0.1072 -0.3563  0.3031
 4292SOL     OW17165   0.984   5.217   3.809 -0.3664  0.6663 -0.1004
 4292SOL    HW117166   0.960   5.124   3.806  0.8483  0.3467 -0.7319
 4292SOL    HW217167   0.905   5.263   3.782 -0.6744 -0.2565 -0.8264
 4292SOL     MW17168   0.971   5.211   3.805 -0.2503  0.5072 -0.2742
 4293SOL     OW17169   0.552   5.102   2.299 -0.3118  0.0635 -0.1830
 4293SOL    HW117170   0.576   5.102   2.391  1.1652 -0.3533 -0.5436
 4293SOL    HW217171   0.550   5.010   2.274 -0.2942  0.1902 -0.6675
 4293SOL     MW17172   0.555   5.090   2.307 -0.1204  0.0264 -0.2912
 4294SOL     OW17173   4.201   3.860   4.103 -0.2756 -0.2047 -0.2654
 4294SOL    HW117174   4.284   3.863   4.150  0.7372 -0.5870 -1.9495
 4294SOL    HW217175   4.135   3.850   4.171  1.2404 -2.5438  0.9876
 4294SOL     MW17176   4.203   3.859   4.117  0.0481 -0.5531 -0.3206
 4295SOL     OW17177   3.539   2.396   1.273  0.6186 -0.3936  0.6436
 4295SOL    HW117178   3.491   2.343   1.210  2.5614 -1.4751  0.0088
 4295SOL    HW217179   3.487   2.391   1.354 -0.9792 -0.4264 -0.3471
 4295SOL     MW17180   3.527   2.389   1.276  0.6628 -0.5363  0.4355
 4296SOL     OW17181   0.320   3.474   1.754  0.5422  0.3450 -0.2909
 4296SOL    HW117182   0.293   3.529   1.828  0.8826 -1.0444  0.9142
 4296SOL    HW217183   0.243   3.471   1.698  0.0172  0.8249  0.3782
 4296SOL     MW17184   0.307   3.481   1.757  0.5186  0.2286 -0.0510
 4297SOL     OW17185   4.428   2.384   4.351  0.4014 -0.0155  0.3036
 4297SOL    HW117186   4.352   2.397   4.409 -0.2607  0.1236 -0.5678
 4297SOL    HW217187   4.454   2.473   4.327  1.3814 -0.0276  1.2560
 4297SOL     MW17188   4.421   2.397   4.356  0.4421  0.0008  0.3140
 4298SOL     OW17189   5.377   3.568   1.359  0.6307  0.4695  0.5384
 4298SOL    HW117190   5.435   3.492   1.363  0.6633  0.4388 -0.2053
 4298SOL    HW217191   5.313   3.554   1.428  0.0091 -0.7690 -0.2535
 4298SOL     MW17192   5.376   3.557   1.368  0.5553  0.3071  0.3418
 4299SOL     OW17193   4.517   2.201   2.036  0.1974  0.1891  0.0554
 4299SOL    HW117194   4.481   2.176   2.121 -1.3144 -1.2560 -0.9381
 4299SOL    HW217195   4.606   2.230   2.055 -0.5565  1.2307  2.2786
 4299SOL     MW17196   4.524   2.201   2.049 -0.0926  0.1374  0.2128
 4300SOL     OW17197   5.445   4.194   2.591  0.0426 -0.3791  0.1808
 4300SOL    HW117198   5.488   4.146   2.520 -0.9613  0.2436 -0.8708
 4300SOL    HW217199   5.452   4.135   2.666  2.7108 -0.3048  0.0951
 4300SOL     MW17200   5.452   4.180   2.591  0.2556 -0.2899  0.0352
 4301SOL     OW17201   1.878   1.464   1.495  0.6013 -0.6783  0.2901
 4301SOL    HW117202   1.882   1.554   1.461 -1.7235 -0.8433 -0.5805
 4301SOL    HW217203   1.866   1.475   1.589 -0.6872 -0.0216  0.0684
 4301SOL     MW17204   1.877   1.477   1.503  0.1387 -0.6154  0.1503
 4302SOL     OW17205   2.864   5.458   0.635  0.1493  0.0564 -0.0327
 4302SOL    HW117206   2.855   5.536   0.579 -0.9541 -0.7312 -1.0106
 4302SOL    HW217207   2.958   5.446   0.645  0.3511  0.8066 -0.8953
 4302SOL     MW17208   2.875   5.467   0.629  0.0339  0.0516 -0.2683
 4303SOL     OW17209   3.401   1.812   1.597 -0.5888 -0.1398 -0.4168
 4303SOL    HW117210   3.361   1.857   1.523  1.1502 -0.8366 -1.8602
 4303SOL    HW217211   3.408   1.721   1.569  1.1708 -0.1967  0.0674
 4303SOL     MW17212   3.397   1.806   1.584 -0.1409 -0.2363 -0.5396
 4304SOL     OW17213   3.533   5.323   1.957 -0.1249 -0.7780  0.1019
 4304SOL    HW117214   3.603   5.304   2.020  0.5934 -0.4358 -0.5673
 4304SOL    HW217215   3.502   5.237   1.929  0.8798 -0.9596 -0.5000
 4304SOL     MW17216   3.538   5.310   1.962  0.0956 -0.7574 -0.0608
 4305SOL     OW17217   5.093   1.817   2.703  0.0024  0.4985 -0.3489
 4305SOL    HW117218   5.106   1.737   2.653 -2.0316  0.0961 -0.3417
 4305SOL    HW217219   5.107   1.887   2.640  0.6798  0.0968 -0.6499
 4305SOL     MW17220   5.096   1.816   2.688 -0.1713  0.3956 -0.3865
 4306SOL     OW17221   0.505   4.640   0.731 -0.5243 -0.0765  0.1227
 4306SOL    HW117222   0.598   4.660   0.747 -0.3418 -0.0653 -0.9043
 4306SOL    HW217223   0.504   4.546   0.715 -0.9507 -0.3996  1.8515
 4306SOL     MW17224   0.517   4.631   0.731 -0.5555 -0.1164  0.2125
 4307SOL     OW17225   2.207   4.500   4.488  0.2351  0.3655  0.3663
 4307SOL    HW117226   2.231   4.579   4.536 -1.1062  0.7112  0.5015
 4307SOL    HW217227   2.243   4.428   4.540  1.4886  0.8575  0.2256
 4307SOL     MW17228   2.215   4.501   4.501  0.2239  0.4727  0.3656
 4308SOL     OW17229   0.870   4.460   2.808  0.0338  0.0407 -0.3579
 4308SOL    HW117230   0.894   4.386   2.863  0.2297 -1.2526 -2.0969
 4308SOL    HW217231   0.859   4.533   2.869  1.1583 -1.0844  1.2599
 4308SOL     MW17232   0.871   4.460   2.823  0.2029 -0.2688 -0.3734
 4309SOL     OW17233   3.309   4.449   5.304  0.6826 -0.4030  0.0929
 4309SOL    HW117234   3.337   4.540   5.321 -0.6626 -0.0628  0.5815
 4309SOL    HW217235   3.354   4.398   5.372  0.6112  0.0478  0.4889
 4309SOL     MW17236   3.319   4.454   5.315  0.5013 -0.3018  0.2062
 4310SOL     OW17237   0.596   3.389   3.565  0.1943  0.6982 -0.0156
 4310SOL    HW117238   0.541   3.446   3.619 -1.0261 -0.3291 -0.1377
 4310SOL    HW217239   0.598   3.306   3.611 -0.0533  0.1089 -1.0319
 4310SOL     MW17240   0.589   3.386   3.578  0.0063  0.4913 -0.1614
 4311SOL     OW17241   5.174   3.476   2.443 -0.0235  0.8039 -0.1738
 4311SOL    HW117242   5.247   3.494   2.502 -0.0606 -1.4944  0.6430
 4311SOL    HW217243   5.113   3.423   2.494 -1.0055  0.4092 -1.6746
 4311SOL     MW17244   5.175   3.472   2.457 -0.1540  0.4591 -0.2614
 4312SOL     OW17245   1.131   5.245   4.509 -0.0831  0.0520 -0.5331
 4312SOL    HW117246   1.047   5.199   4.507 -1.1329  1.7473  0.8228
 4312SOL    HW217247   1.121   5.316   4.445 -0.4203  1.3371  0.8883
 4312SOL     MW17248   1.119   5.248   4.501 -0.2607  0.4335 -0.1776
 4313SOL     OW17249   3.311   2.277   0.912 -0.0156  0.0568  0.1917
 4313SOL    HW117250   3.316   2.225   0.831 -0.3712  1.4796 -0.7751
 4313SOL    HW217251   3.233   2.330   0.901 -2.2947 -2.3124  3.1139
 4313SOL     MW17252   3.302   2.277   0.900 -0.3529 -0.0644  0.4420
 4314SOL     OW17253   0.100   1.760   0.341  0.1695 -0.0603  0.0394
 4314SOL    HW117254   0.117   1.677   0.298 -1.5097 -0.2343 -0.3642
 4314SOL    HW217255   0.091   1.823   0.270 -0.1021  0.1553  0.2607
 4314SOL     MW17256   0.101   1.758   0.327 -0.0802 -0.0550  0.0160
 4315SOL     OW17257   2.782   2.958   2.334  0.1517 -0.8033 -0.8926
 4315SOL    HW117258   2.793   2.938   2.241 -2.5446 -0.1175 -1.4499
 4315SOL    HW217259   2.741   3.045   2.335  0.6969 -0.5284  0.9695
 4315SOL     MW17260   2.778   2.967   2.322 -0.1237 -0.6803 -0.7256
 4316SOL     OW17261   3.427   1.506   0.126  0.4699  0.4307 -0.8986
 4316SOL    HW117262   3.339   1.519   0.161 -0.1782  1.6593 -2.8307
 4316SOL    HW217263   3.485   1.519   0.201 -0.7857  3.7484 -0.3369
 4316SOL     MW17264   3.423   1.509   0.140  0.2262  1.0127 -1.0740
 4317SOL     OW17265   1.853   4.272   1.425  0.6426 -0.3165  0.2022
 4317SOL    HW117266   1.782   4.325   1.389  1.9703  2.3927  1.2567
 4317SOL    HW217267   1.896   4.234   1.349 -0.0147  0.6231 -0.6662
 4317SOL     MW17268   1.849   4.274   1.411  0.7285  0.1506  0.2260
 4318SOL     OW17269   3.487   2.986   0.707 -0.2563 -0.0528  0.5174
 4318SOL    HW117270   3.493   2.918   0.773  1.1085  0.2157  0.6833
 4318SOL    HW217271   3.525   3.064   0.748 -1.6281  0.7935  0.2706
 4318SOL     MW17272   3.492   2.988   0.720 -0.2572  0.0899  0.5071
 4319SOL     OW17273   5.398   5.363   2.091  0.0646 -0.1075 -0.0316
 4319SOL    HW117274   5.307   5.336   2.088  0.0232 -0.0299  0.5190
 4319SOL    HW217275   5.439   5.306   2.156  0.2792  0.2456  0.1476
 4319SOL     MW17276   5.392   5.353   2.099  0.0868 -0.0524  0.0618
 4320SOL     OW17277   2.590   2.967   1.858  0.5319  0.1732  0.0871
 4320SOL    HW117278   2.597   2.873   1.875 -0.1854  0.2215  0.7298
 4320SOL    HW217279   2.547   2.974   1.773  1.2326 -0.0718 -0.2977
 4320SOL     MW17280   2.586   2.956   1.850  0.5298  0.1480  0.1201
 4321SOL     OW17281   1.494   4.426   3.430 -0.2063 -0.3229 -0.4078
 4321SOL    HW117282   1.500   4.463   3.518 -0.1840  1.0552 -0.9667
 4321SOL    HW217283   1.583   4.427   3.397 -0.3126 -0.2070 -0.6942
 4321SOL     MW17284   1.506   4.431   3.437 -0.2170 -0.1316 -0.5160
 4322SOL     OW17285   2.411   1.841   1.370 -0.9639 -0.2382  0.2394
 4322SOL    HW117286   2.368   1.795   1.443  0.0797  0.3024  1.2170
 4322SOL    HW217287   2.367   1.925   1.365 -3.0233 -1.3048 -1.6897
 4322SOL     MW17288   2.399   1.846   1.378 -1.0939 -0.3055  0.1176
 4323SOL     OW17289   1.380   0.458   5.051 -0.5161  0.2102 -0.4227
 4323SOL    HW117290   1.442   0.498   4.990 -1.0234 -0.1781 -1.2209
 4323SOL    HW217291   1.303   0.516   5.049 -0.5058  0.2374 -0.0885
 4323SOL     MW17292   1.378   0.470   5.043 -0.5797  0.1640 -0.4821
 4324SOL     OW17293   3.430   1.435   4.524 -0.3352 -0.0398  0.3223
 4324SOL    HW117294   3.338   1.412   4.520 -0.2161 -0.7567  1.2514
 4324SOL    HW217295   3.475   1.358   4.488 -0.1362  0.7612 -1.2080
 4324SOL     MW17296   3.424   1.422   4.519 -0.2945 -0.0290  0.2454
 4325SOL     OW17297   4.283   1.900   4.902 -0.1027 -0.0366 -0.3508
 4325SOL    HW117298   4.350   1.838   4.930 -0.7536 -0.2517  0.7872
 4325SOL    HW217299   4.210   1.845   4.873 -0.8443  0.1628  1.0578
 4325SOL     MW17300   4.283   1.885   4.902 -0.2810 -0.0386 -0.0248
 4326SOL     OW17301   1.283   4.025   4.920 -0.5053  0.1377  0.4859
 4326SOL    HW117302   1.306   4.110   4.958  0.2784 -0.2256  0.8492
 4326SOL    HW217303   1.265   4.044   4.828  0.0720  0.6476  0.4686
 4326SOL     MW17304   1.284   4.038   4.913 -0.3311  0.1564  0.5302
 4327SOL     OW17305   2.042   2.638   1.243  1.0048  0.0748 -0.4913
 4327SOL    HW117306   2.104   2.582   1.290 -0.4798 -1.6503 -0.4956
 4327SOL    HW217307   2.023   2.590   1.162 -0.4848  0.4397 -0.3854
 4327SOL     MW17308   2.048   2.625   1.239  0.6240 -0.0993 -0.4783
 4328SOL     OW17309   2.509   1.094   2.097  0.4277 -0.7146 -0.2799
 4328SOL    HW117310   2.585   1.079   2.041  0.4531  0.8582 -0.7080
 4328SOL    HW217311   2.450   1.147   2.044  0.5277  0.9777  1.2236
 4328SOL     MW17312   2.511   1.099   2.083  0.4438 -0.2966 -0.1423
 4329SOL     OW17313   0.440   2.833   4.333  0.5006 -0.1045 -0.5046
 4329SOL    HW117314   0.471   2.774   4.264  1.5892 -0.8158  0.5502
 4329SOL    HW217315   0.352   2.859   4.304  0.5078 -1.2128 -1.6415
 4329SOL     MW17316   0.433   2.829   4.321  0.6409 -0.3374 -0.5151
 4330SOL     OW17317   1.219   0.798   3.599 -0.6592 -0.0809 -0.1521
 4330SOL    HW117318   1.145   0.753   3.557 -0.7785 -0.4582  0.4470
 4330SOL    HW217319   1.212   0.773   3.692 -0.0102  0.2017 -0.0259
 4330SOL     MW17320   1.209   0.789   3.606 -0.5914 -0.0930 -0.0592
 4331SOL     OW17321   4.414   3.961   0.204 -0.1719  0.5044  0.0191
 4331SOL    HW117322   4.504   3.991   0.188  0.1117 -1.2150 -2.0005
 4331SOL    HW217323   4.360   4.027   0.161  0.3555 -0.6722 -2.6060
 4331SOL     MW17324   4.419   3.974   0.197 -0.0681  0.1337 -0.5755
 4332SOL     OW17325   3.033   0.161   2.957 -0.2273  0.2341  0.0013
 4332SOL    HW117326   3.036   0.152   3.052  1.3130  1.0035  0.0608
 4332SOL    HW217327   3.110   0.215   2.935 -0.5069  0.0192 -1.6826
 4332SOL     MW17328   3.043   0.167   2.966 -0.0659  0.3051 -0.2066
 4333SOL     OW17329   2.181   3.590   3.022  0.0809  0.1894 -0.3570
 4333SOL    HW117330   2.272   3.561   3.028 -0.3371 -2.2628 -3.1921
 4333SOL    HW217331   2.186   3.675   2.978  1.0202  0.4308  0.1916
 4333SOL     MW17332   2.193   3.597   3.017  0.1476 -0.0936 -0.6497
 4334SOL     OW17333   1.006   3.114   5.328  0.0130  0.4156 -0.1330
 4334SOL    HW117334   0.958   3.134   5.247 -0.8247  1.6415  0.6370
 4334SOL    HW217335   1.083   3.065   5.298 -1.7399 -1.7545 -1.4053
 4334SOL     MW17336   1.010   3.110   5.314 -0.3186  0.2947 -0.1973
 4335SOL     OW17337   3.368   3.336   1.989 -0.2710 -0.0730 -0.3136
 4335SOL    HW117338   3.397   3.246   1.973 -0.2201 -0.3566  1.2339
 4335SOL    HW217339   3.444   3.380   2.027  0.3029  1.1843 -2.6894
 4335SOL     MW17340   3.382   3.330   1.992 -0.1910  0.0516 -0.4196
 4336SOL     OW17341   0.994   1.657   4.253 -0.1029 -0.0102  0.4459
 4336SOL    HW117342   1.024   1.746   4.272  1.6498 -0.6366  0.7962
 4336SOL    HW217343   0.927   1.640   4.319 -1.2408  1.4045 -0.2871
 4336SOL     MW17344   0.989   1.667   4.263 -0.0242  0.0907  0.3969
 4337SOL     OW17345   3.925   1.864   3.571  0.6792  0.1615 -0.8441
 4337SOL    HW117346   4.011   1.824   3.571 -0.1103 -1.6766 -1.9262
 4337SOL    HW217347   3.870   1.805   3.623  0.4629  2.4265  1.7561
 4337SOL     MW17348   3.929   1.852   3.578  0.5504  0.2162 -0.6498
 4338SOL     OW17349   0.607   3.918   3.294 -0.9651  0.6860 -0.0199
 4338SOL    HW117350   0.637   3.875   3.374 -3.0388  1.8525  1.4991
 4338SOL    HW217351   0.559   3.849   3.247  2.6710 -0.8498 -1.8876
 4338SOL     MW17352   0.605   3.903   3.298 -0.7651  0.6388 -0.0646
 4339SOL     OW17353   5.177   2.861   4.884 -0.2863 -0.4901  0.0724
 4339SOL    HW117354   5.179   2.944   4.932 -0.1218 -0.5672  0.1954
 4339SOL    HW217355   5.227   2.800   4.937  0.7095 -0.3327 -0.6497
 4339SOL     MW17356   5.183   2.864   4.897 -0.1377 -0.4799 -0.0043
 4340SOL     OW17357   1.481   2.012   1.860 -0.2406 -0.3259 -0.3417
 4340SOL    HW117358   1.420   1.979   1.794 -0.5798 -0.0039 -0.1937
 4340SOL    HW217359   1.465   1.957   1.937 -0.4106 -0.1836 -0.2743
 4340SOL     MW17360   1.471   2.000   1.862 -0.3058 -0.2665 -0.3141
 4341SOL     OW17361   4.239   4.894   3.850  0.2842 -0.2609 -0.3466
 4341SOL    HW117362   4.288   4.907   3.931 -0.5405  0.9658 -0.0047
 4341SOL    HW217363   4.237   4.800   3.838 -1.8346 -0.7356  2.5369
 4341SOL     MW17364   4.245   4.884   3.859 -0.0926 -0.1646  0.0663
 4342SOL     OW17365   3.577   4.927   5.089 -0.0919 -0.5865  0.7404
 4342SOL    HW117366   3.547   4.943   4.999 -2.2501 -1.4074  1.2415
 4342SOL    HW217367   3.646   4.862   5.081 -0.5247 -0.9377 -0.3236
 4342SOL     MW17368   3.582   4.921   5.076 -0.4236 -0.7365  0.6684
 4343SOL     OW17369   2.892   4.009   4.543  0.0331  0.3966 -0.3473
 4343SOL    HW117370   2.969   3.964   4.577 -1.4096 -0.5131  1.9820
 4343SOL    HW217371   2.834   3.939   4.514 -1.7362  0.7052  2.1822
 4343SOL     MW17372   2.895   3.994   4.544 -0.3781  0.3197  0.2747
 4344SOL     OW17373   3.727   3.181   3.209 -0.0216  0.4618 -0.2383
 4344SOL    HW117374   3.726   3.261   3.261 -0.4778  0.8195 -0.7914
 4344SOL    HW217375   3.816   3.177   3.172 -0.0687  0.8237 -0.3891
 4344SOL     MW17376   3.739   3.191   3.211 -0.0860  0.5539 -0.3285
 4345SOL     OW17377   3.574   1.866   4.561 -0.2432 -0.1013 -0.0717
 4345SOL    HW117378   3.564   1.960   4.576 -3.1399 -0.1751 -0.9976
 4345SOL    HW217379   3.486   1.830   4.570  0.8006 -2.7994  0.4201
 4345SOL     MW17380   3.562   1.874   4.564 -0.4804 -0.4561 -0.1273
 4346SOL     OW17381   2.864   2.176   2.051 -0.1044 -0.2448  0.4246
 4346SOL    HW117382   2.870   2.124   1.971  0.6054 -0.3072  0.5156
 4346SOL    HW217383   2.785   2.144   2.095  0.1285 -0.9910  0.3074
 4346SOL     MW17384   2.854   2.165   2.046  0.0163 -0.3483  0.4212
 4347SOL     OW17385   2.200   4.661   3.285 -0.3642 -1.0841  0.3400
 4347SOL    HW117386   2.220   4.641   3.377  1.6223  1.4405  0.5893
 4347SOL    HW217387   2.266   4.727   3.261 -2.9673  0.9253 -1.8325
 4347SOL     MW17388   2.211   4.667   3.294 -0.4432 -0.5037  0.0938
 4348SOL     OW17389   3.718   4.724   0.140 -0.2485 -0.5832 -0.1790
 4348SOL    HW117390   3.774   4.769   0.076 -0.4260  2.0766  1.3749
 4348SOL    HW217391   3.639   4.700   0.091  0.6371 -0.8868 -1.4946
 4348SOL     MW17392   3.715   4.727   0.125 -0.1579 -0.2816 -0.1485
 4349SOL     OW17393   2.240   3.582   4.538  0.3622 -0.0401  0.3171
 4349SOL    HW117394   2.159   3.533   4.551 -0.6657  1.8942  1.8156
 4349SOL    HW217395   2.299   3.547   4.605 -0.3578  0.6819  1.3703
 4349SOL     MW17396   2.237   3.571   4.548  0.1384  0.2999  0.6437
 4350SOL     OW17397   0.281   1.964   0.808  0.5278  0.2057 -0.3841
 4350SOL    HW117398   0.240   2.039   0.851 -1.1419 -0.0555 -1.4147
 4350SOL    HW217399   0.331   2.001   0.736  1.9520  0.5039  0.7096
 4350SOL     MW17400   0.282   1.978   0.804  0.4964  0.2104 -0.3760
 4351SOL     OW17401   3.657   4.577   4.495 -0.5592 -0.5182 -0.4706
 4351SOL    HW117402   3.625   4.664   4.519 -1.4472 -1.0750  0.4547
 4351SOL    HW217403   3.581   4.520   4.506  0.1022 -1.4641 -0.7124
 4351SOL     MW17404   3.643   4.581   4.500 -0.5882 -0.7105 -0.3831
 4352SOL     OW17405   1.736   4.075   0.475 -0.4224 -0.7844  0.2044
 4352SOL    HW117406   1.769   4.008   0.534 -1.4621 -0.4226  1.2257
 4352SOL    HW217407   1.654   4.105   0.515 -0.0998  0.9351 -0.3223
 4352SOL     MW17408   1.730   4.070   0.488 -0.5142 -0.5179  0.2677
 4353SOL     OW17409   2.536   1.610   4.024 -0.7887 -0.0637  0.1327
 4353SOL    HW117410   2.625   1.642   4.007 -0.0468 -2.3372 -0.6017
 4353SOL    HW217411   2.480   1.673   3.978  0.4590  1.0342  0.0281
 4353SOL     MW17412   2.540   1.622   4.016 -0.5340 -0.2142  0.0253
 4354SOL     OW17413   0.536   0.952   2.432 -0.0716  0.3882  0.4553
 4354SOL    HW117414   0.603   0.922   2.493  0.0788 -1.9773 -0.7520
 4354SOL    HW217415   0.583   0.973   2.352 -0.4574  1.8692  0.5783
 4354SOL     MW17416   0.550   0.951   2.430 -0.1017  0.2750  0.3165
 4355SOL     OW17417   3.614   0.744   4.522 -0.0750 -0.4755  0.6645
 4355SOL    HW117418   3.621   0.766   4.615  2.5185 -0.4994  0.5586
 4355SOL    HW217419   3.555   0.810   4.486 -2.5751 -1.5178  2.5746
 4355SOL     MW17420   3.608   0.755   4.529 -0.0630 -0.6120  0.8955
 4356SOL     OW17421   0.233   3.273   4.193 -0.1390  0.0410 -0.0485
 4356SOL    HW117422   0.145   3.298   4.223  0.6770  1.4403  1.3398
 4356SOL    HW217423   0.251   3.333   4.121 -1.4876 -2.3143 -2.5301
 4356SOL     MW17424   0.224   3.284   4.187 -0.2072 -0.0814 -0.1885
 4357SOL     OW17425   2.666   4.364   2.643  0.5517  0.6274  0.4134
 4357SOL    HW117426   2.664   4.384   2.549  0.6117 -1.3936 -0.0657
 4357SOL    HW217427   2.695   4.445   2.684  2.1897  1.0737 -1.4758
 4357SOL     MW17428   2.669   4.377   2.636  0.7691  0.4258  0.1102
 4358SOL     OW17429   0.558   3.666   4.827 -0.0129 -0.0976  0.0108
 4358SOL    HW117430   0.594   3.703   4.908  1.7711 -2.0156  0.1946
 4358SOL    HW217431   0.631   3.666   4.766 -1.1354  0.6065 -1.3996
 4358SOL     MW17432   0.572   3.671   4.830  0.0718 -0.2530 -0.1462
 4359SOL     OW17433   3.310   2.537   5.238 -0.0671 -0.2465  0.3439
 4359SOL    HW117434   3.273   2.502   5.319  0.4848 -0.2369  0.5996
 4359SOL    HW217435   3.238   2.587   5.199 -0.4958 -0.6894  0.5620
 4359SOL     MW17436   3.296   2.539   5.244 -0.0513 -0.3020  0.4045
 4360SOL     OW17437   4.244   4.117   0.985  0.0791 -0.2600 -0.2455
 4360SOL    HW117438   4.281   4.119   1.073 -1.0456  1.1398  0.2293
 4360SOL    HW217439   4.255   4.207   0.952  1.9335 -1.1152 -2.1936
 4360SOL     MW17440   4.250   4.129   0.992  0.1725 -0.1903 -0.4341
 4361SOL     OW17441   2.145   2.829   2.961  0.8056  0.7587 -0.0227
 4361SOL    HW117442   2.130   2.772   3.036 -1.7948  0.2589 -0.8278
 4361SOL    HW217443   2.062   2.874   2.948  0.7009 -0.0867 -3.2951
 4361SOL     MW17444   2.133   2.827   2.969  0.4593  0.5865 -0.5447
 4362SOL     OW17445   1.215   5.160   3.325  0.0491 -0.3405 -0.6889
 4362SOL    HW117446   1.220   5.128   3.234  1.7556 -1.2553 -0.3306
 4362SOL    HW217447   1.282   5.109   3.371 -0.5907  0.3182  1.0293
 4362SOL     MW17448   1.224   5.149   3.319  0.1857 -0.3733 -0.4230
 4363SOL     OW17449   1.007   3.462   1.314 -0.0251 -0.8187 -0.7331
 4363SOL    HW117450   0.939   3.416   1.362 -1.1501  0.7205 -0.7885
 4363SOL    HW217451   0.990   3.442   1.222 -1.1998  0.5310 -0.8428
 4363SOL     MW17452   0.996   3.454   1.309 -0.3195 -0.4489 -0.7542
 4364SOL     OW17453   1.206   2.852   2.116 -0.3550 -0.2827 -0.3045
 4364SOL    HW117454   1.204   2.887   2.027 -1.3286 -1.1849 -0.6703
 4364SOL    HW217455   1.131   2.892   2.160  1.3914  1.9408  0.8874
 4364SOL     MW17456   1.196   2.861   2.110 -0.2561 -0.1136 -0.1987
 4365SOL     OW17457   2.872   4.215   2.718  0.0410 -0.3863 -0.0158
 4365SOL    HW117458   2.801   4.258   2.670  0.4492 -0.9166 -1.1352
 4365SOL    HW217459   2.864   4.247   2.807 -0.2530  1.2603 -0.6003
 4365SOL     MW17460   2.862   4.224   2.723  0.0556 -0.2434 -0.2339
 4366SOL     OW17461   5.175   3.226   4.580 -0.0768 -0.0441 -0.2391
 4366SOL    HW117462   5.135   3.205   4.496 -1.1433 -1.9365  0.6484
 4366SOL    HW217463   5.252   3.169   4.585 -1.2032 -1.5873  0.8705
 4366SOL     MW17464   5.180   3.216   4.570 -0.3575 -0.4839  0.0166
 4367SOL     OW17465   4.648   3.477   4.482  0.3543 -0.1083  0.3267
 4367SOL    HW117466   4.635   3.465   4.388 -1.8856 -0.3807  0.6249
 4367SOL    HW217467   4.692   3.562   4.489  0.0474  0.1870 -0.9438
 4367SOL     MW17468   4.652   3.487   4.471  0.0283 -0.1054  0.2022
 4368SOL     OW17469   4.682   4.674   4.141  0.8018  0.4505  0.2873
 4368SOL    HW117470   4.643   4.677   4.228  1.5131  0.4315  0.6144
 4368SOL    HW217471   4.727   4.758   4.132 -1.1135  1.4145 -0.9582
 4368SOL     MW17472   4.683   4.685   4.151  0.6477  0.5714  0.1697
 4369SOL     OW17473   0.483   0.794   1.545 -0.1187  0.5604  0.3816
 4369SOL    HW117474   0.539   0.820   1.473 -0.8810  0.7101 -0.1704
 4369SOL    HW217475   0.508   0.851   1.618 -0.9835  2.1022 -0.4721
 4369SOL     MW17476   0.493   0.805   1.545 -0.3270  0.7770  0.2017
 4370SOL     OW17477   5.042   4.871   2.544  0.3886 -0.3326 -0.2679
 4370SOL    HW117478   5.004   4.828   2.621  0.7970 -1.5089 -0.7049
 4370SOL    HW217479   4.973   4.867   2.478  0.1734  0.3408 -0.0920
 4370SOL     MW17480   5.028   4.865   2.546  0.4133 -0.3969 -0.3013
 4371SOL     OW17481   0.884   2.467   4.125 -0.2840 -0.0088  0.0601
 4371SOL    HW117482   0.815   2.425   4.074 -0.4707  0.0358  0.2778
 4371SOL    HW217483   0.861   2.451   4.216 -1.8257  2.7996  0.2738
 4371SOL     MW17484   0.872   2.460   4.130 -0.5053  0.3564  0.1153
 4372SOL     OW17485   5.167   1.586   0.514 -0.3989 -0.2425  0.1176
 4372SOL    HW117486   5.081   1.627   0.518 -1.4062 -2.1724 -0.6844
 4372SOL    HW217487   5.228   1.660   0.509 -1.7528  1.2541  3.2321
 4372SOL     MW17488   5.164   1.601   0.514 -0.7012 -0.2980  0.4137
 4373SOL     OW17489   3.005   3.649   3.175 -0.0265 -0.3305 -0.7812
 4373SOL    HW117490   3.032   3.738   3.152  0.5875  0.0120  1.0688
 4373SOL    HW217491   2.929   3.661   3.231 -0.0212 -0.9741 -0.6338
 4373SOL     MW17492   2.999   3.662   3.179  0.0528 -0.3690 -0.5255
 4374SOL     OW17493   3.520   0.459   5.412  0.1397 -0.3318 -0.3529
 4374SOL    HW117494   3.504   0.508   5.331 -0.0162 -0.9863 -0.7186
 4374SOL    HW217495   3.611   0.479   5.435  0.0750  0.1369 -0.4952
 4374SOL     MW17496   3.529   0.468   5.404  0.1115 -0.3556 -0.4179
 4375SOL     OW17497   0.477   2.709   4.599 -0.0520 -0.4415  0.2240
 4375SOL    HW117498   0.446   2.742   4.515 -0.2191  0.0652  0.4833
 4375SOL    HW217499   0.409   2.648   4.628  0.9765 -2.2783 -0.9976
 4375SOL     MW17500   0.465   2.706   4.592  0.0583 -0.6117  0.1008
 4376SOL     OW17501   0.267   1.000   4.667  0.0060 -0.3322  0.7303
 4376SOL    HW117502   0.208   1.015   4.593  0.7646  2.0909  0.5274
 4376SOL    HW217503   0.284   0.905   4.665 -0.1182 -0.3895 -2.1075
 4376SOL     MW17504   0.261   0.989   4.657  0.0872 -0.0293  0.3410
 4377SOL     OW17505   4.098   4.755   5.015  0.1022  0.1660 -0.5176
 4377SOL    HW117506   4.036   4.773   4.944 -0.9481  1.1166  0.6135
 4377SOL    HW217507   4.179   4.797   4.986 -0.9758  2.6594 -0.1301
 4377SOL     MW17508   4.101   4.762   5.002 -0.1702  0.6069 -0.3232
 4378SOL     OW17509   3.269   2.886   5.379  0.3105 -0.2691  0.0355
 4378SOL    HW117510   3.268   2.968   5.429  0.7920 -0.9509  1.2124
 4378SOL    HW217511   3.185   2.845   5.399  0.9846 -1.1020  1.2948
 4378SOL     MW17512   3.258   2.891   5.388  0.4584 -0.4630  0.3473
 4379SOL     OW17513   5.102   1.229   2.554  0.2326  0.0908 -0.1493
 4379SOL    HW117514   5.197   1.224   2.549  0.3732  2.4113 -0.5982
 4379SOL    HW217515   5.080   1.189   2.638  1.5666 -0.7013 -0.1584
 4379SOL     MW17516   5.111   1.223   2.564  0.4213  0.2865 -0.2079
 4380SOL     OW17517   0.697   5.038   5.301  0.4133 -0.2820  0.5730
 4380SOL    HW117518   0.755   5.049   5.226  0.4874 -0.6187  0.5786
 4380SOL    HW217519   0.681   5.127   5.333  0.2711 -0.1241  0.0764
 4380SOL     MW17520   0.702   5.051   5.296  0.4046 -0.3049  0.5102
 4381SOL     OW17521   2.281   4.506   0.511  0.1646  1.0122  0.2722
 4381SOL    HW117522   2.274   4.533   0.419 -0.9335 -0.3358 -0.0814
 4381SOL    HW217523   2.250   4.415   0.511  3.4789 -0.2749  1.3855
 4381SOL     MW17524   2.276   4.498   0.499  0.4483  0.6749  0.3694
 4382SOL     OW17525   0.282   3.042   3.592  0.3275  0.2654  0.1222
 4382SOL    HW117526   0.284   2.977   3.662  0.9615  0.7611  0.5893
 4382SOL    HW217527   0.205   3.020   3.540 -2.0959  1.7221  2.7705
 4382SOL     MW17528   0.273   3.031   3.594  0.0984  0.5153  0.5210
 4383SOL     OW17529   3.309   3.504   2.625 -0.2189  0.1207 -0.3853
 4383SOL    HW117530   3.282   3.592   2.597  1.0006  0.8987  0.7942
 4383SOL    HW217531   3.400   3.496   2.596  0.1044 -0.2240  0.6932
 4383SOL     MW17532   3.317   3.514   2.617 -0.0214  0.1762 -0.0963
 4384SOL     OW17533   1.926   3.925   4.037 -0.2060  0.1485  0.1375
 4384SOL    HW117534   2.009   3.970   4.051 -0.8650  2.6448 -2.8843
 4384SOL    HW217535   1.938   3.840   4.079  3.7220  0.5332  0.2004
 4384SOL     MW17536   1.938   3.920   4.044  0.2124  0.5173 -0.2413
 4385SOL     OW17537   0.078   4.475   1.563 -0.0806  0.4174  0.0758
 4385SOL    HW117538   0.115   4.543   1.506 -2.1344  0.5827 -1.1666
 4385SOL    HW217539   0.136   4.474   1.640  2.8303  0.1677 -1.9446
 4385SOL     MW17540   0.090   4.484   1.566  0.0291  0.4066 -0.3418
 4386SOL     OW17541   4.632   1.552   4.563 -0.5560  0.1543 -0.1150
 4386SOL    HW117542   4.612   1.574   4.472 -0.8057 -0.7132 -0.2843
 4386SOL    HW217543   4.705   1.491   4.558 -1.0427 -0.4759  0.2069
 4386SOL     MW17544   4.639   1.547   4.551 -0.6502 -0.0374 -0.0955
 4387SOL     OW17545   0.173   3.506   4.011 -0.5155 -0.2875  0.6499
 4387SOL    HW117546   0.169   3.583   3.953 -1.7765 -0.7192  0.1422
 4387SOL    HW217547   0.242   3.528   4.073 -0.2024  0.8628 -0.0582
 4387SOL     MW17548   0.181   3.519   4.011 -0.6368 -0.1955  0.4943
 4388SOL     OW17549   3.199   1.418   0.263 -0.0160  0.4233  0.2031
 4388SOL    HW117550   3.245   1.337   0.280  0.6402  1.2749  2.8754
 4388SOL    HW217551   3.120   1.413   0.317 -0.2949  1.2738 -0.1041
 4388SOL     MW17552   3.194   1.407   0.272  0.0323  0.6412  0.5059
 4389SOL     OW17553   1.113   0.938   1.942  0.0684  0.3907 -0.3088
 4389SOL    HW117554   1.139   1.021   1.903  0.7201  0.4012  0.1390
 4389SOL    HW217555   1.030   0.916   1.899  0.7290  0.4417 -1.6351
 4389SOL     MW17556   1.106   0.946   1.932  0.2364  0.3985 -0.4212
 4390SOL     OW17557   4.964   0.178   3.859 -0.1016 -0.5090 -0.0779
 4390SOL    HW117558   4.919   0.248   3.906 -0.7012  0.2917 -1.7328
 4390SOL    HW217559   4.904   0.104   3.863 -0.3666 -0.2904  0.0151
 4390SOL     MW17560   4.951   0.178   3.865 -0.2123 -0.3785 -0.2778
 4391SOL     OW17561   5.039   2.173   0.316  0.2743  0.0728 -0.5649
 4391SOL    HW117562   4.955   2.219   0.312 -1.5267 -2.9566 -0.8414
 4391SOL    HW217563   5.060   2.169   0.409 -1.3452 -1.4030 -0.2088
 4391SOL     MW17564   5.031   2.179   0.327 -0.1635 -0.5039 -0.5547
 4392SOL     OW17565   4.223   3.857   0.384  0.7115  0.2324 -0.0562
 4392SOL    HW117566   4.258   3.913   0.315  1.6012 -1.0007 -0.6427
 4392SOL    HW217567   4.194   3.918   0.452 -1.1362  1.5482 -1.8981
 4392SOL     MW17568   4.224   3.872   0.384  0.5889  0.2430 -0.3671
 4393SOL     OW17569   0.646   1.202   2.022 -0.2490 -0.2124 -0.0218
 4393SOL    HW117570   0.552   1.187   2.036 -0.3586 -0.0025 -0.5247
 4393SOL    HW217571   0.662   1.171   1.933 -0.5932  3.0918 -1.3646
 4393SOL     MW17572   0.636   1.196   2.013 -0.3071  0.2374 -0.2581
 4394SOL     OW17573   4.086   4.780   0.400 -0.7220  0.2077 -0.5862
 4394SOL    HW117574   4.177   4.798   0.424 -1.1848 -0.6611  2.2069
 4394SOL    HW217575   4.092   4.713   0.332  0.7444 -0.0380 -0.2423
 4394SOL     MW17576   4.098   4.773   0.394 -0.5935  0.0650 -0.1846
 4395SOL     OW17577   1.645   0.278   4.807  0.3675 -0.2122  0.6363
 4395SOL    HW117578   1.658   0.218   4.733  0.0004 -0.4392  0.7508
 4395SOL    HW217579   1.716   0.259   4.867  0.6508 -0.0486  0.3538
 4395SOL     MW17580   1.656   0.268   4.805  0.3568 -0.2203  0.6148
 4396SOL     OW17581   5.330   5.229  -0.024  0.1898  0.1563 -0.1312
 4396SOL    HW117582   5.266   5.187   0.033 -0.9978 -0.5143 -1.8921
 4396SOL    HW217583   5.415   5.201   0.011 -0.5067 -0.5930  1.0135
 4396SOL     MW17584   5.333   5.220  -0.012 -0.0514 -0.0255 -0.2101
 4397SOL     OW17585   5.098   3.708   5.056 -0.3340  0.0595 -0.5631
 4397SOL    HW117586   5.133   3.791   5.088 -1.6212  0.8137 -1.0612
 4397SOL    HW217587   5.022   3.690   5.112 -0.5877 -0.3328 -1.0161
 4397SOL     MW17588   5.093   3.716   5.067 -0.5312  0.1058 -0.6848
 4398SOL     OW17589   1.499   4.231   2.726 -0.5032 -0.1767  0.4391
 4398SOL    HW117590   1.495   4.172   2.651 -2.7755  0.4623 -0.0188
 4398SOL    HW217591   1.592   4.233   2.750  0.1126 -1.3140 -1.5914
 4398SOL     MW17592   1.510   4.224   2.720 -0.7152 -0.2405  0.1206
 4399SOL     OW17593   1.911   1.978   4.847  0.6304 -0.2707  0.0269
 4399SOL    HW117594   1.982   2.004   4.789  1.1612 -0.3060  0.6444
 4399SOL    HW217595   1.855   1.922   4.793 -1.1084  2.8246 -1.6577
 4399SOL     MW17596   1.913   1.974   4.833  0.4758  0.1210 -0.1097
 4400SOL     OW17597   1.152   5.305   2.981 -0.0066 -0.2094 -0.3282
 4400SOL    HW117598   1.240   5.343   2.972 -0.5886  0.9029 -1.6846
 4400SOL    HW217599   1.168   5.212   2.994  1.3922  0.0247 -0.1627
 4400SOL     MW17600   1.166   5.298   2.981  0.0980 -0.0370 -0.4806
 4401SOL     OW17601   4.511   2.596   3.276  0.0548 -0.3378  0.2287
 4401SOL    HW117602   4.595   2.559   3.301  0.1076  0.7502  1.7670
 4401SOL    HW217603   4.532   2.683   3.243 -0.3257 -0.6693 -0.9465
 4401SOL     MW17604   4.524   2.602   3.275  0.0128 -0.2410  0.2752
 4402SOL     OW17605   4.092   2.684   0.341 -0.2401  0.3258  0.2149
 4402SOL    HW117606   4.136   2.754   0.292  0.9937 -0.7608 -0.3035
 4402SOL    HW217607   4.110   2.605   0.290 -0.4213 -0.5855  1.5213
 4402SOL     MW17608   4.100   2.683   0.328 -0.1053  0.0700  0.3158
 4403SOL     OW17609   0.752   3.665   2.567 -0.1691 -0.3949  1.0905
 4403SOL    HW117610   0.803   3.721   2.625 -0.7913  1.1505  0.2189
 4403SOL    HW217611   0.800   3.666   2.484 -1.6625  1.3147  0.1693
 4403SOL     MW17612   0.765   3.673   2.564 -0.4399  0.0218  0.8610
 4404SOL     OW17613   2.805   0.957   2.698 -0.1748 -0.4528 -0.6205
 4404SOL    HW117614   2.848   0.901   2.762  0.2061  0.2304 -0.2633
 4404SOL    HW217615   2.716   0.923   2.692  0.0823 -1.1649 -0.5061
 4404SOL     MW17616   2.800   0.945   2.706 -0.0931 -0.4565 -0.5602
 4405SOL     OW17617   2.637   4.432   3.691  0.4063 -0.1792  0.4634
 4405SOL    HW117618   2.600   4.360   3.640  2.1226 -1.8482  1.4751
 4405SOL    HW217619   2.597   4.423   3.777  1.6896 -0.8699  1.0193
 4405SOL     MW17620   2.627   4.422   3.696  0.7903 -0.4812  0.6641
 4406SOL     OW17621   4.758   2.927   1.190  0.2681 -0.0269  0.3221
 4406SOL    HW117622   4.760   2.986   1.265 -1.7390  0.1735  0.2592
 4406SOL    HW217623   4.768   2.840   1.228  2.5687  0.2480  0.4753
 4406SOL     MW17624   4.760   2.924   1.204  0.3056  0.0339  0.3337
 4407SOL     OW17625   1.110   0.951   4.546 -0.1403 -0.2742  0.3057
 4407SOL    HW117626   1.122   0.954   4.640 -0.5845  2.4943  0.3464
 4407SOL    HW217627   1.026   0.906   4.534 -1.7111  2.1149  1.5029
 4407SOL     MW17628   1.101   0.945   4.556 -0.3982  0.3860  0.4641
 4408SOL     OW17629   1.952   5.076   3.950 -0.7639  0.1571  0.4562
 4408SOL    HW117630   2.041   5.100   3.926 -0.7697 -1.5862 -1.5907
 4408SOL    HW217631   1.921   5.149   4.003  1.2582  1.6338 -0.2728
 4408SOL     MW17632   1.959   5.089   3.954 -0.5058  0.1229  0.1008
 4409SOL     OW17633   0.416   4.858   4.666  0.1342  0.1023 -0.2669
 4409SOL    HW117634   0.334   4.898   4.697  0.8885  1.7676 -0.3225
 4409SOL    HW217635   0.410   4.767   4.694 -2.2056 -0.0983 -1.1686
 4409SOL     MW17636   0.405   4.851   4.674 -0.0688  0.2898 -0.3894
 4410SOL     OW17637   1.104   1.090   0.861 -0.2866  0.0400  0.4324
 4410SOL    HW117638   1.156   1.100   0.941 -0.3206 -0.6107  0.5445
 4410SOL    HW217639   1.154   1.028   0.808  0.2263  1.1949 -0.4779
 4410SOL     MW17640   1.117   1.083   0.865 -0.2253  0.1046  0.3303
 4411SOL     OW17641   0.874   2.264   5.197 -1.0275 -0.3946  0.0363
 4411SOL    HW117642   0.822   2.226   5.267 -1.3021 -0.0250  0.0326
 4411SOL    HW217643   0.962   2.227   5.210 -1.2816 -0.9997  0.0496
 4411SOL     MW17644   0.879   2.254   5.208 -1.0952 -0.4247  0.0375
 4412SOL     OW17645   5.216   2.271   1.322 -0.5839 -0.4783 -0.0641
 4412SOL    HW117646   5.226   2.249   1.229  0.8335  0.1606 -0.0975
 4412SOL    HW217647   5.249   2.193   1.368 -0.9522 -0.6564 -0.1017
 4412SOL     MW17648   5.222   2.258   1.316 -0.4496 -0.4193 -0.0732
 4413SOL     OW17649   0.378   2.835   3.746 -0.0147  0.3789 -0.2718
 4413SOL    HW117650   0.387   2.831   3.841  0.3432  1.8545 -0.2136
 4413SOL    HW217651   0.467   2.840   3.713 -0.1335 -0.2270 -0.7043
 4413SOL     MW17652   0.390   2.835   3.754  0.0159  0.4902 -0.3197
 4414SOL     OW17653   1.959   4.367   3.545 -0.2554 -0.1239  0.3951
 4414SOL    HW117654   1.981   4.458   3.566 -0.6577  0.1525 -0.3622
 4414SOL    HW217655   2.026   4.340   3.482 -0.0097 -0.4322  0.7775
 4414SOL     MW17656   1.971   4.375   3.540 -0.2754 -0.1280  0.3471
 4415SOL     OW17657   2.755   4.010   0.181 -0.3006 -0.2533  0.2141
 4415SOL    HW117658   2.812   4.087   0.182  0.7646 -1.0292  0.9941
 4415SOL    HW217659   2.695   4.026   0.108  1.1031  0.4532 -0.8342
 4415SOL     MW17660   2.754   4.022   0.172  0.0154 -0.2622  0.1797
 4416SOL     OW17661   5.308   1.605   3.214 -0.0710 -0.4317  0.0627
 4416SOL    HW117662   5.354   1.594   3.131  1.5618 -0.7748  0.9677
 4416SOL    HW217663   5.350   1.543   3.273 -1.2204 -0.2135  1.1541
 4416SOL     MW17664   5.319   1.596   3.211 -0.0091 -0.4477  0.3183
 4417SOL     OW17665   0.730   4.622   3.032  0.0292  0.2576  0.2491
 4417SOL    HW117666   0.687   4.537   3.030  0.5447 -0.0892 -3.7602
 4417SOL    HW217667   0.681   4.676   2.970  2.7630  1.1329 -1.3235
 4417SOL     MW17668   0.718   4.618   3.024  0.4452  0.3253 -0.4654
 4418SOL     OW17669   0.031   4.019   3.985 -0.3300 -0.0964 -0.1417
 4418SOL    HW117670   0.078   4.068   3.917  0.5038  0.2814  0.6743
 4418SOL    HW217671  -0.016   4.086   4.034  0.5877 -0.1028  0.8042
 4418SOL     MW17672   0.031   4.034   3.982 -0.1058 -0.0489  0.0839
 4419SOL     OW17673   3.927   3.862   1.531 -0.5085  0.4425 -0.1826
 4419SOL    HW117674   3.866   3.789   1.536 -0.0216 -0.1264 -1.9123
 4419SOL    HW217675   3.923   3.892   1.440  0.1501  1.8465  0.2083
 4419SOL     MW17676   3.919   3.857   1.520 -0.3619  0.5494 -0.3540
 4420SOL     OW17677   2.685   3.632   0.848  0.0060  0.0514 -0.2042
 4420SOL    HW117678   2.659   3.676   0.929 -2.9702  0.0404 -1.0555
 4420SOL    HW217679   2.716   3.702   0.791 -4.0253  1.2025 -1.2937
 4420SOL     MW17680   2.686   3.646   0.851 -0.8911  0.1973 -0.4527
 4421SOL     OW17681   5.015   4.148   1.820 -0.4240  0.1459  0.1683
 4421SOL    HW117682   5.083   4.134   1.754 -0.2735  1.7943 -0.0856
 4421SOL    HW217683   5.057   4.126   1.903  0.6120  1.5768  0.0676
 4421SOL     MW17684   5.029   4.144   1.822 -0.2721  0.5401  0.1229
 4422SOL     OW17685   1.794   1.104   4.009  0.3855 -0.3621 -0.2880
 4422SOL    HW117686   1.761   1.187   3.976  2.5634  0.5565 -0.3543
 4422SOL    HW217687   1.811   1.120   4.102  1.3990 -0.4948 -0.4348
 4422SOL     MW17688   1.792   1.117   4.017  0.7940 -0.2615 -0.3152
 4423SOL     OW17689   4.306   0.103   0.592  0.7842  0.3786 -0.6875
 4423SOL    HW117690   4.359   0.138   0.520 -0.4637 -0.2093 -1.9413
 4423SOL    HW217691   4.254   0.033   0.552  1.7271 -1.5808  1.2921
 4423SOL     MW17692   4.306   0.098   0.578  0.7452  0.0526 -0.5946
 4424SOL     OW17693   1.654   3.681   5.297  0.1942 -0.5651 -0.0784
 4424SOL    HW117694   1.690   3.607   5.249 -0.4080 -0.1378 -1.2339
 4424SOL    HW217695   1.559   3.671   5.290  0.0969  0.5220 -0.6187
 4424SOL     MW17696   1.647   3.671   5.290  0.1047 -0.3713 -0.2954
 4425SOL     OW17697   0.900   4.213   3.291  0.4372 -0.5043  0.2490
 4425SOL    HW117698   0.879   4.299   3.328  0.8772  0.1201 -0.9257
 4425SOL    HW217699   0.905   4.155   3.368 -0.3817  0.3915  1.0124
 4425SOL     MW17700   0.898   4.216   3.306  0.3887 -0.3097  0.1964
 4426SOL     OW17701   2.845   3.377   0.336 -0.6429 -0.0945  0.0171
 4426SOL    HW117702   2.803   3.414   0.258 -2.5205  0.5312  1.2775
 4426SOL    HW217703   2.780   3.319   0.374  0.8976 -1.7782  0.1976
 4426SOL     MW17704   2.832   3.374   0.331 -0.6861 -0.2299  0.2015
 4427SOL     OW17705  -0.006   3.460   0.055  0.0258 -0.2941  0.3366
 4427SOL    HW117706   0.040   3.427  -0.022  0.5627 -1.6467  1.2058
 4427SOL    HW217707   0.008   3.393   0.122 -2.3372 -0.2379  0.9620
 4427SOL     MW17708   0.002   3.447   0.054 -0.2079 -0.4601  0.5279
 4428SOL     OW17709   0.821   5.141   4.132  0.1349 -0.4968 -0.3528
 4428SOL    HW117710   0.841   5.090   4.053 -1.1317 -0.8853 -0.4436
 4428SOL    HW217711   0.729   5.122   4.150  0.5101 -0.8044  1.5076
 4428SOL     MW17712   0.812   5.132   4.124  0.0208 -0.5859 -0.1263
 4429SOL     OW17713   3.239   5.359   1.148  0.1899  0.2789  0.0373
 4429SOL    HW117714   3.147   5.347   1.125  0.2523 -2.0680  0.6880
 4429SOL    HW217715   3.237   5.391   1.238 -0.0526 -1.3736  0.6659
 4429SOL     MW17716   3.227   5.362   1.157  0.1669 -0.2331  0.2011
 4430SOL     OW17717   4.984   2.494   4.200 -0.4799  0.1043  0.2771
 4430SOL    HW117718   4.924   2.469   4.130 -0.8907  0.6100  0.4459
 4430SOL    HW217719   5.069   2.460   4.172 -0.7645 -0.2543 -0.1592
 4430SOL     MW17720   4.987   2.486   4.188 -0.5689  0.1231  0.2429
 4431SOL     OW17721   5.016   3.860   2.380 -0.0256  0.4522  0.3979
 4431SOL    HW117722   5.039   3.827   2.467  0.9293  0.0769  0.0082
 4431SOL    HW217723   4.962   3.791   2.342  1.3196 -0.3495 -0.1154
 4431SOL     MW17724   5.012   3.847   2.387  0.2688  0.3015  0.2823
 4432SOL     OW17725   4.474   2.214   2.330 -0.0909  0.4188 -0.0033
 4432SOL    HW117726   4.384   2.200   2.358  0.2437  0.2434  1.0417
 4432SOL    HW217727   4.526   2.200   2.409  1.1170 -2.4263 -1.1404
 4432SOL     MW17728   4.469   2.210   2.343  0.1065  0.0321 -0.0151
 4433SOL     OW17729   0.684   0.560   4.848 -0.3385 -0.0006 -0.8438
 4433SOL    HW117730   0.668   0.566   4.754 -1.8271  0.4632 -0.5985
 4433SOL    HW217731   0.596   0.557   4.887  0.1718 -3.3696  0.3642
 4433SOL     MW17732   0.670   0.561   4.841 -0.4637 -0.3725 -0.6578
 4434SOL     OW17733   4.899   2.325   4.659  0.3209 -0.1360  0.1573
 4434SOL    HW117734   4.807   2.331   4.635  0.3095  1.3490  0.4814
 4434SOL    HW217735   4.940   2.274   4.588 -0.6341 -0.3269 -0.2646
 4434SOL     MW17736   4.893   2.319   4.647  0.1972  0.0297  0.1448
 4435SOL     OW17737   4.446   0.769   4.718  0.1734 -0.3611  0.2560
 4435SOL    HW117738   4.413   0.683   4.690 -3.0015  1.0964 -0.9000
 4435SOL    HW217739   4.419   0.829   4.649  0.5328  1.8873  1.9728
 4435SOL     MW17740   4.438   0.765   4.706 -0.1870  0.1133  0.3278
 4436SOL     OW17741   3.401   3.639   1.764  0.1986 -0.4444  0.5483
 4436SOL    HW117742   3.359   3.554   1.770 -0.8705 -0.0972 -1.3101
 4436SOL    HW217743   3.467   3.639   1.834  1.2103 -3.3261 -0.2890
 4436SOL     MW17744   3.404   3.628   1.773  0.1912 -0.7688  0.2032
 4437SOL     OW17745   3.918   4.259   2.068 -0.2621  0.4713 -0.1708
 4437SOL    HW117746   4.008   4.291   2.073 -0.0657  0.0868 -1.0762
 4437SOL    HW217747   3.871   4.327   2.020 -0.6885  1.1267  1.1264
 4437SOL     MW17748   3.924   4.272   2.063 -0.2915  0.5060 -0.1207
 4438SOL     OW17749   1.590   4.566   4.184 -0.1589  0.1040 -0.4477
 4438SOL    HW117750   1.677   4.556   4.145 -0.6308 -1.3081 -1.1882
 4438SOL    HW217751   1.551   4.640   4.137  1.0459  1.5563  0.7208
 4438SOL     MW17752   1.596   4.574   4.173 -0.0651  0.1091 -0.3929
 4439SOL     OW17753   2.362   5.429   3.266 -0.0870 -0.0438  0.1298
 4439SOL    HW117754   2.275   5.428   3.305 -0.3270 -2.2311 -0.3157
 4439SOL    HW217755   2.346   5.423   3.172  0.4982 -1.2352  0.0766
 4439SOL     MW17756   2.349   5.428   3.259 -0.0428 -0.4763  0.0659
 4440SOL     OW17757   1.120   1.057   3.814  0.1916  0.3037 -0.5761
 4440SOL    HW117758   1.198   1.018   3.777 -0.9153 -1.6380 -0.9999
 4440SOL    HW217759   1.051   0.993   3.798 -1.3051  1.5333  0.6040
 4440SOL     MW17760   1.121   1.044   3.807 -0.1417  0.2125 -0.4793
 4441SOL     OW17761   1.863   0.208   1.476  0.1203 -0.0341 -0.4747
 4441SOL    HW117762   1.846   0.117   1.451 -0.0571  0.1187 -0.9231
 4441SOL    HW217763   1.957   0.218   1.463  0.4218 -0.5933  1.0630
 4441SOL     MW17764   1.873   0.198   1.471  0.1362 -0.0861 -0.3353
 4442SOL     OW17765   1.555   5.361   3.438  0.3940  0.5670 -0.3800
 4442SOL    HW117766   1.520   5.277   3.468 -2.7547  1.8288 -0.1499
 4442SOL    HW217767   1.600   5.397   3.514  0.1305 -0.0908  0.0963
 4442SOL     MW17768   1.556   5.355   3.451 -0.0428  0.6443 -0.2896
 4443SOL     OW17769   1.779   1.146   3.240  0.0262 -0.1937  0.3278
 4443SOL    HW117770   1.847   1.198   3.283 -0.9364  0.7007  0.8138
 4443SOL    HW217771   1.765   1.071   3.298  1.9291 -1.4638 -0.7277
 4443SOL     MW17772   1.786   1.143   3.253  0.1466 -0.2418  0.2549
 4444SOL     OW17773   2.875   2.319   4.734  0.2225 -0.0116  0.5953
 4444SOL    HW117774   2.839   2.399   4.696 -0.9968 -0.4179  0.8763
 4444SOL    HW217775   2.850   2.249   4.673 -0.1414 -0.4102  1.1925
 4444SOL     MW17776   2.867   2.320   4.721  0.0198 -0.1146  0.7077
 4445SOL     OW17777   3.780   4.009   2.404 -0.1831  0.5137  0.3954
 4445SOL    HW117778   3.833   4.010   2.324 -1.6170 -0.5430 -0.6244
 4445SOL    HW217779   3.841   4.033   2.473  0.8771  2.5770 -1.1247
 4445SOL     MW17780   3.795   4.012   2.402 -0.2309  0.6426  0.0702
 4446SOL     OW17781   0.744   2.942   4.053  0.5040 -0.6594 -0.0391
 4446SOL    HW117782   0.657   2.982   4.056  1.1407  0.7149  1.0307
 4446SOL    HW217783   0.731   2.860   4.005 -1.4253 -0.6311  0.3661
 4446SOL     MW17784   0.732   2.937   4.047  0.3385 -0.4799  0.1497
 4447SOL     OW17785   1.066   3.026   3.001  0.0710 -0.0326 -0.3284
 4447SOL    HW117786   1.033   2.952   2.950  0.5309 -1.2075  0.9800
 4447SOL    HW217787   1.161   3.020   2.992  0.0949  0.5977 -0.4748
 4447SOL     MW17788   1.074   3.015   2.994  0.1329 -0.1023 -0.1797
 4448SOL     OW17789   4.464   3.177   1.200 -1.1328  0.2686  0.6920
 4448SOL    HW117790   4.432   3.088   1.209  0.1581 -0.2163  0.7593
 4448SOL    HW217791   4.484   3.185   1.106  0.8615 -0.3238  1.0071
 4448SOL     MW17792   4.463   3.167   1.189 -0.7122  0.1307  0.7410
 4449SOL     OW17793   2.357   3.427   3.271  0.0407 -0.2881 -0.1527
 4449SOL    HW117794   2.300   3.444   3.346 -1.4772 -1.0356 -1.0883
 4449SOL    HW217795   2.430   3.375   3.307 -0.1344  0.2175  0.9654
 4449SOL     MW17796   2.359   3.422   3.285 -0.1760 -0.3190 -0.1294
 4450SOL     OW17797   1.637   2.170   5.167  0.8835  0.8196  0.3919
 4450SOL    HW117798   1.726   2.148   5.194  0.2229 -1.3740  0.9774
 4450SOL    HW217799   1.639   2.165   5.072  1.4301  0.9954  0.3910
 4450SOL     MW17800   1.649   2.166   5.159  0.8689  0.5613  0.4667
 4451SOL     OW17801   3.909   0.037   0.802 -0.6254 -0.4188  0.3354
 4451SOL    HW117802   3.934   0.060   0.891 -1.5322 -0.7260  0.6730
 4451SOL    HW217803   3.899   0.122   0.758 -0.6141 -0.2553  0.6443
 4451SOL     MW17804   3.911   0.051   0.807 -0.7401 -0.4372  0.4181
 4452SOL     OW17805   3.685   0.038   5.130 -0.4416 -0.2454  0.1709
 4452SOL    HW117806   3.741   0.070   5.059  0.6652  0.6428  1.3970
 4452SOL    HW217807   3.687   0.108   5.195 -2.1672 -0.6474  0.7120
 4452SOL     MW17808   3.692   0.051   5.129 -0.5208 -0.1832  0.3971
 4453SOL     OW17809   0.789   1.373   3.806 -0.1696 -0.2948 -0.1904
 4453SOL    HW117810   0.864   1.321   3.777  1.8736  1.6821  1.2400
 4453SOL    HW217811   0.767   1.338   3.893  1.3434  1.2250  0.8672
 4453SOL     MW17812   0.795   1.362   3.814  0.2857  0.1528  0.1281
 4454SOL     OW17813   0.259   2.157   3.381 -0.2599  0.0116 -0.1268
 4454SOL    HW117814   0.224   2.155   3.291 -2.0316  2.9767  0.3649
 4454SOL    HW217815   0.282   2.249   3.396  1.4100 -0.6706  2.0042
 4454SOL     MW17816   0.257   2.168   3.371 -0.2729  0.3039  0.2089
 4455SOL     OW17817   1.061   4.889   2.090  0.1271 -0.0271 -0.0320
 4455SOL    HW117818   1.004   4.868   2.163  1.5455  1.1202  1.4932
 4455SOL    HW217819   1.020   4.966   2.049  0.6590  0.9258  1.1854
 4455SOL     MW17820   1.048   4.897   2.094  0.3768  0.2418  0.3191
 4456SOL     OW17821   1.675   2.621   4.282 -0.8089  0.7652  0.1774
 4456SOL    HW117822   1.752   2.580   4.321  0.0471  0.5197 -1.6692
 4456SOL    HW217823   1.607   2.614   4.350  0.3926 -0.2472  1.3272
 4456SOL     MW17824   1.676   2.615   4.296 -0.5455  0.6042  0.0882
 4457SOL     OW17825   1.219   3.428   0.899  0.4319 -0.1894  0.2474
 4457SOL    HW117826   1.242   3.474   0.819 -1.5172  0.2761 -0.0900
 4457SOL    HW217827   1.126   3.407   0.889  0.5714 -1.6632  1.6428
 4457SOL     MW17828   1.210   3.431   0.888  0.2003 -0.3185  0.3828
 4458SOL     OW17829   2.967   4.504   3.960 -0.6229  0.2964 -0.3342
 4458SOL    HW117830   3.051   4.464   3.938 -1.1770 -1.3845  0.4965
 4458SOL    HW217831   2.968   4.514   4.055 -1.7822 -0.7854 -0.1789
 4458SOL     MW17832   2.978   4.500   3.969 -0.8422 -0.0572 -0.2080
 4459SOL     OW17833   0.061   3.251   0.248 -0.0772  0.1167 -0.6401
 4459SOL    HW117834   0.101   3.198   0.179 -2.2695  0.1054 -2.0261
 4459SOL    HW217835  -0.017   3.201   0.274 -0.4023  1.1131  0.3662
 4459SOL     MW17836   0.056   3.238   0.243 -0.3994  0.2428 -0.6887
 4460SOL     OW17837   1.864   1.600   3.317  0.1226 -0.2911 -0.2568
 4460SOL    HW117838   1.875   1.546   3.395  1.8233 -0.8892 -0.8391
 4460SOL    HW217839   1.857   1.690   3.349  2.8185 -0.2927  0.5725
 4460SOL     MW17840   1.865   1.604   3.331  0.6854 -0.3678 -0.2252
 4461SOL     OW17841   4.326   2.069   3.809  0.0099  0.3016 -0.2894
 4461SOL    HW117842   4.297   2.027   3.890  0.3151  0.1587 -0.2547
 4461SOL    HW217843   4.245   2.086   3.761 -0.0623 -1.6339 -0.9591
 4461SOL     MW17844   4.312   2.066   3.813  0.0397  0.0355 -0.3706
 4462SOL     OW17845   3.843   2.443   2.756  0.3300 -0.6094 -0.0473
 4462SOL    HW117846   3.883   2.520   2.795  0.5580 -1.3347  1.2059
 4462SOL    HW217847   3.762   2.429   2.805  0.7890 -1.7390  0.4186
 4462SOL     MW17848   3.838   2.451   2.767  0.4179 -0.8469  0.1728
 4463SOL     OW17849   3.077   4.184   3.677 -0.2052  0.3342  0.2185
 4463SOL    HW117850   3.134   4.250   3.637  0.9900 -0.1914  0.9886
 4463SOL    HW217851   3.003   4.234   3.713  0.1018  1.1103 -0.2055
 4463SOL     MW17852   3.075   4.199   3.677 -0.0129  0.3663  0.2628
 4464SOL     OW17853   4.115   1.822   5.470  0.0315 -0.1631 -0.0266
 4464SOL    HW117854   4.119   1.742   5.418  1.3960  0.0457 -0.2818
 4464SOL    HW217855   4.079   1.795   5.554  1.1044 -1.1998  0.1291
 4464SOL     MW17856   4.111   1.808   5.474  0.3435 -0.2691 -0.0394
 4465SOL     OW17857   3.027   4.153   0.300  0.1839  0.3117  0.1318
 4465SOL    HW117858   2.988   4.240   0.308 -0.4496  0.0531 -0.0476
 4465SOL    HW217859   3.076   4.140   0.381  0.1832  0.7843  0.2103
 4465SOL     MW17860   3.028   4.163   0.311  0.1027  0.3391  0.1189
 4466SOL     OW17861   1.154   0.410   1.938  0.8083  0.0451  0.1012
 4466SOL    HW117862   1.118   0.497   1.957  0.3549 -0.1777  0.2720
 4466SOL    HW217863   1.174   0.373   2.024  0.5958 -0.1923  0.0476
 4466SOL     MW17864   1.152   0.416   1.951  0.7231 -0.0138  0.1162
 4467SOL     OW17865   0.998   2.525   2.104 -0.0263 -0.3622 -0.4324
 4467SOL    HW117866   1.047   2.594   2.148  0.4286  0.1550 -1.7055
 4467SOL    HW217867   1.036   2.444   2.138  0.7648  0.0254 -0.3598
 4467SOL     MW17868   1.009   2.523   2.114  0.1332 -0.2464 -0.5861
 4468SOL     OW17869   1.806   0.355   1.940  0.4695  0.3622 -0.3933
 4468SOL    HW117870   1.864   0.397   2.005  0.9836 -0.5358 -0.2544
 4468SOL    HW217871   1.843   0.380   1.856  0.7195  0.2739 -0.3124
 4468SOL     MW17872   1.819   0.364   1.938  0.5673  0.2360 -0.3652
 4469SOL     OW17873   3.963   2.452   5.389 -0.1055 -0.3118 -0.0278
 4469SOL    HW117874   3.901   2.520   5.362 -1.0900 -1.5667 -1.0533
 4469SOL    HW217875   3.930   2.423   5.474 -1.7432 -1.8446 -1.1239
 4469SOL     MW17876   3.951   2.457   5.397 -0.4412 -0.6687 -0.2994
 4470SOL     OW17877   2.119   3.921   2.495 -0.3900 -0.1940 -0.6412
 4470SOL    HW117878   2.172   3.986   2.449  1.9738 -1.0027  0.7369
 4470SOL    HW217879   2.071   3.972   2.561  0.0064  0.3954 -0.7995
 4470SOL     MW17880   2.120   3.936   2.498 -0.0367 -0.2221 -0.4851
 4471SOL     OW17881   3.380   1.124   3.223  0.2106 -0.4779  0.3368
 4471SOL    HW117882   3.314   1.176   3.268 -0.9157 -1.1174 -0.4917
 4471SOL    HW217883   3.450   1.185   3.203 -0.1479  0.2353  1.2006
 4471SOL     MW17884   3.380   1.138   3.226  0.0205 -0.4685  0.3413
 4472SOL     OW17885   1.109   5.313   1.511 -0.7093  0.0954  0.1397
 4472SOL    HW117886   1.059   5.282   1.436 -2.9003  0.6347  1.3053
 4472SOL    HW217887   1.151   5.393   1.480 -0.8235 -0.1704 -0.7522
 4472SOL     MW17888   1.108   5.319   1.497 -1.0044  0.1304  0.1748
 4473SOL     OW17889   1.994   0.985   0.779  0.1972  0.6174  0.1829
 4473SOL    HW117890   2.011   1.053   0.713 -0.6038  1.7558  1.1201
 4473SOL    HW217891   1.919   0.936   0.744 -2.3058  3.2000  1.6365
 4473SOL     MW17892   1.987   0.987   0.766 -0.2257  1.0937  0.4889
 4474SOL     OW17893   0.139   2.764   0.568  0.2772 -0.6751 -0.0764
 4474SOL    HW117894   0.174   2.818   0.497  1.8533  1.9878  2.5169
 4474SOL    HW217895   0.045   2.759   0.550  0.2636  1.9401 -1.1136
 4474SOL     MW17896   0.131   2.770   0.556  0.4772  0.0006  0.1228
 4475SOL     OW17897   3.407   3.566   3.023 -0.2330 -0.9154 -0.1741
 4475SOL    HW117898   3.414   3.614   3.105 -0.4588 -2.5134  0.8276
 4475SOL    HW217899   3.496   3.537   3.004  0.1203  0.8439 -1.4189
 4475SOL     MW17900   3.419   3.568   3.031 -0.2167 -0.8947 -0.2052
 4476SOL     OW17901   0.336   2.647   1.185  0.8801  0.4296 -0.4329
 4476SOL    HW117902   0.429   2.626   1.184  0.3827 -2.2587  0.8596
 4476SOL    HW217903   0.292   2.563   1.173 -1.3866  1.4315  0.2811
 4476SOL     MW17904   0.342   2.633   1.183  0.5262  0.2137 -0.1761
 4477SOL     OW17905   0.674   2.611   4.413 -0.1579  0.2438 -0.1398
 4477SOL    HW117906   0.597   2.626   4.467  0.1467  1.4557  0.0110
 4477SOL    HW217907   0.746   2.649   4.464  0.2796  0.5568 -0.9644
 4477SOL     MW17908   0.674   2.618   4.427 -0.0629  0.4390 -0.2261
 4478SOL     OW17909   0.376   1.948   5.334  0.3330  0.4862  0.3012
 4478SOL    HW117910   0.423   1.985   5.259  0.5000 -0.0826  0.1237
 4478SOL    HW217911   0.409   1.998   5.409 -1.6904  2.8327 -0.2543
 4478SOL     MW17912   0.386   1.959   5.334  0.0953  0.7138  0.2073
 4479SOL     OW17913   2.895   2.981   0.031 -0.1528 -0.2306  0.0364
 4479SOL    HW117914   2.917   2.994   0.124 -2.0168  0.6683  0.4047
 4479SOL    HW217915   2.889   2.886   0.021  2.4541 -0.5022  0.1750
 4479SOL     MW17916   2.897   2.971   0.042 -0.0577 -0.1503  0.1013
 4480SOL     OW17917   3.151   3.766   2.853 -0.3006 -0.7044 -0.2668
 4480SOL    HW117918   3.126   3.803   2.769 -0.1379  0.4584  0.1792
 4480SOL    HW217919   3.096   3.688   2.863 -1.7196  0.2419 -0.5685
 4480SOL     MW17920   3.141   3.760   2.844 -0.4614 -0.4344 -0.2483
 4481SOL     OW17921   1.864   2.373   4.526  0.4753  0.8524 -0.5686
 4481SOL    HW117922   1.849   2.466   4.508 -0.5223  0.7615 -0.2929
 4481SOL    HW217923   1.933   2.372   4.592 -0.1654  1.4484  0.1282
 4481SOL     MW17924   1.871   2.385   4.532  0.2656  0.9170 -0.4441
 4482SOL     OW17925   1.237   4.410   1.796 -0.4472  0.6148 -0.6752
 4482SOL    HW117926   1.217   4.359   1.717 -1.2870  1.0715 -0.7643
 4482SOL    HW217927   1.248   4.344   1.865  0.1786  0.2189 -1.1368
 4482SOL     MW17928   1.236   4.395   1.795 -0.4746  0.6226 -0.7457
 4483SOL     OW17929   2.144   2.626   4.779  0.0661 -0.4798  0.3115
 4483SOL    HW117930   2.054   2.651   4.755  0.3580  0.3306  0.0103
 4483SOL    HW217931   2.183   2.595   4.698 -0.2203 -1.7658  0.6383
 4483SOL     MW17932   2.137   2.626   4.766  0.0668 -0.5407  0.3148
 4484SOL     OW17933   1.636   1.074   5.443 -0.3701 -0.2702 -0.0456
 4484SOL    HW117934   1.655   1.161   5.477  1.1146  0.1889 -1.8776
 4484SOL    HW217935   1.589   1.030   5.514 -0.1958  1.6426  1.3254
 4484SOL     MW17936   1.633   1.079   5.456 -0.1577  0.0334 -0.1046
 4485SOL     OW17937   3.700   4.296   2.668 -0.5487 -0.4282 -0.4981
 4485SOL    HW117938   3.693   4.259   2.756  0.6344  2.0974  0.7910
 4485SOL    HW217939   3.751   4.232   2.619 -0.8150 -1.6891  0.8050
 4485SOL     MW17940   3.706   4.283   2.673 -0.4313 -0.2663 -0.1663
 4486SOL     OW17941   2.806   4.981   1.161  0.4351  0.0322  0.6997
 4486SOL    HW117942   2.778   5.062   1.118  0.9144 -0.3406 -0.3491
 4486SOL    HW217943   2.771   4.988   1.249 -1.1215  0.5556  0.0853
 4486SOL     MW17944   2.798   4.992   1.166  0.2972  0.0515  0.4868
 4487SOL     OW17945   3.689   1.751   2.181 -0.6977 -0.1707  0.0210
 4487SOL    HW117946   3.657   1.673   2.226 -0.0226  0.2860  1.3796
 4487SOL    HW217947   3.747   1.793   2.245  2.1529 -0.6456 -2.0689
 4487SOL     MW17948   3.692   1.747   2.195 -0.2464 -0.1730 -0.0726
 4488SOL     OW17949   1.647   3.888   1.984  0.1885 -0.3947 -0.2730
 4488SOL    HW117950   1.654   3.858   2.075  1.8042  2.4290  0.6849
 4488SOL    HW217951   1.722   3.849   1.940  0.5614 -0.1752  0.1592
 4488SOL     MW17952   1.658   3.879   1.990  0.4431 -0.0051 -0.0951
 4489SOL     OW17953   4.161   5.172   1.171 -0.5564  0.3338 -0.8983
 4489SOL    HW117954   4.132   5.216   1.251 -1.9835 -2.8426  0.5111
 4489SOL    HW217955   4.255   5.159   1.184 -0.8044 -0.3328  0.4271
 4489SOL     MW17956   4.169   5.176   1.183 -0.7708 -0.1582 -0.5482
 4490SOL     OW17957   1.094   5.375   3.533  0.5816 -0.3532  0.2910
 4490SOL    HW117958   1.142   5.304   3.576  0.4152 -1.3732 -1.1220
 4490SOL    HW217959   1.157   5.412   3.471  0.2635 -0.1263  0.1042
 4490SOL     MW17960   1.108   5.370   3.531  0.5196 -0.4547  0.0862
 4491SOL     OW17961   4.904   4.583   3.728  0.0196 -0.4149  0.1125
 4491SOL    HW117962   4.841   4.649   3.699  0.3945 -0.2552 -0.3387
 4491SOL    HW217963   4.883   4.569   3.821 -1.1586 -0.9089 -0.2119
 4491SOL     MW17964   4.893   4.590   3.736 -0.0832 -0.4577  0.0132
 4492SOL     OW17965   4.611   1.665   3.069  0.1988 -0.6015  0.3988
 4492SOL    HW117966   4.618   1.623   2.984  0.4710 -0.0931  0.1627
 4492SOL    HW217967   4.579   1.753   3.050 -1.1535 -0.9529  0.9627
 4492SOL     MW17968   4.608   1.671   3.056  0.0605 -0.5814  0.4408
 4493SOL     OW17969   3.981   3.805   4.238 -0.5868  0.2084 -0.2260
 4493SOL    HW117970   3.939   3.781   4.155 -1.8877 -0.1956  0.5169
 4493SOL    HW217971   3.924   3.873   4.274 -0.4903 -0.2013  0.7191
 4493SOL     MW17972   3.968   3.811   4.232 -0.7410  0.1043 -0.0099
 4494SOL     OW17973   3.890   0.938   4.231  0.0676  0.0834 -0.4011
 4494SOL    HW117974   3.939   0.870   4.184  0.5590 -0.8727  1.3988
 4494SOL    HW217975   3.939   0.950   4.313 -1.0758  1.2545  0.1439
 4494SOL     MW17976   3.903   0.931   4.236 -0.0159  0.1109 -0.1009
 4495SOL     OW17977   3.603   1.124   1.745  0.0412  0.2832  0.2660
 4495SOL    HW117978   3.589   1.061   1.816 -0.6299  0.5500  0.3773
 4495SOL    HW217979   3.687   1.098   1.707 -0.4422 -0.9911 -0.0076
 4495SOL     MW17980   3.612   1.112   1.749 -0.1066  0.1542  0.2453
 4496SOL     OW17981   4.708   3.683   5.420  0.4110 -0.2822  0.0993
 4496SOL    HW117982   4.653   3.606   5.430 -1.5673  1.1667  1.0237
 4496SOL    HW217983   4.666   3.734   5.351 -0.3603  1.5660  1.8477
 4496SOL     MW17984   4.696   3.680   5.412  0.0590  0.1399  0.4414
 4497SOL     OW17985   4.195   1.472   3.127  0.1791  0.6104  0.4077
 4497SOL    HW117986   4.200   1.545   3.066  0.6131  0.8784  0.7548
 4497SOL    HW217987   4.137   1.409   3.084  0.1397  0.9724 -0.0856
 4497SOL     MW17988   4.188   1.473   3.114  0.2296  0.6911  0.3890
 4498SOL     OW17989   3.934   2.516   1.489  0.0980  0.1453  0.1269
 4498SOL    HW117990   3.863   2.550   1.434  0.3615  0.9007  0.2442
 4498SOL    HW217991   3.994   2.474   1.427 -0.4595 -0.5220  0.0305
 4498SOL     MW17992   3.933   2.515   1.474  0.0603  0.1566  0.1296
 4499SOL     OW17993   1.816   5.128   0.755  0.1061  0.2762 -0.1651
 4499SOL    HW117994   1.770   5.070   0.695 -0.9758 -1.0038  1.7810
 4499SOL    HW217995   1.838   5.073   0.830  0.1590  2.0798  1.2287
 4499SOL     MW17996   1.813   5.114   0.757 -0.0256  0.3432  0.2625
 4500SOL     OW17997   2.803   1.769   3.924  0.2319 -0.0896 -0.3890
 4500SOL    HW117998   2.874   1.774   3.860 -0.4494  1.3320 -1.0528
 4500SOL    HW217999   2.724   1.792   3.876 -0.4046  0.2946  0.7854
 4500SOL     MW18000   2.802   1.772   3.910  0.0632  0.1416 -0.3236
 4501SOL     OW18001   1.622   2.003   0.604 -0.2888 -0.4520  0.1464
 4501SOL    HW118002   1.640   1.909   0.593 -0.8474 -0.5240 -0.1837
 4501SOL    HW218003   1.539   2.006   0.651 -0.1680 -0.1189  0.3383
 4501SOL     MW18004   1.614   1.991   0.609 -0.3449 -0.4186  0.1287
 4502SOL     OW18005   2.872   3.451   3.034 -1.0817  0.0320 -0.6609
 4502SOL    HW118006   2.909   3.523   3.084 -2.1481  0.0527  0.1338
 4502SOL    HW218007   2.947   3.396   3.011 -0.3556  0.9988 -0.6349
 4502SOL     MW18008   2.886   3.453   3.037 -1.1252  0.1584 -0.5559
 4503SOL     OW18009   1.517   2.036   5.348 -0.1276 -0.0349 -0.1236
 4503SOL    HW118010   1.561   2.060   5.430 -2.2757 -0.9127  1.3918
 4503SOL    HW218011   1.565   2.084   5.280  3.1163 -0.9378  1.3322
 4503SOL     MW18012   1.529   2.045   5.350  0.0127 -0.2629  0.2568
 4504SOL     OW18013   2.744   3.334   4.181 -0.7270 -0.1541  0.2490
 4504SOL    HW118014   2.772   3.244   4.195 -0.9291 -0.1932  0.4210
 4504SOL    HW218015   2.654   3.336   4.214 -0.8322  0.0311 -0.0510
 4504SOL     MW18016   2.736   3.323   4.187 -0.7663 -0.1354  0.2326
 4505SOL     OW18017   2.628   1.317   5.079 -0.5794  0.2757 -0.2397
 4505SOL    HW118018   2.625   1.291   4.987  0.9018 -1.9142  0.2338
 4505SOL    HW218019   2.716   1.351   5.091 -0.3626 -0.5300  0.5777
 4505SOL     MW18020   2.638   1.318   5.069 -0.3620 -0.1078 -0.0745
 4506SOL     OW18021   2.227   1.389   0.187 -0.0920 -0.5358  0.3803
 4506SOL    HW118022   2.316   1.422   0.179 -0.6337  0.8643 -0.2058
 4506SOL    HW218023   2.201   1.366   0.098 -0.4956 -0.4219  0.4658
 4506SOL     MW18024   2.235   1.391   0.175 -0.2130 -0.3420  0.3162
 4507SOL     OW18025   1.851   4.839   3.454  0.2291  0.4962  0.1061
 4507SOL    HW118026   1.859   4.931   3.426  1.3205  1.0230  1.9528
 4507SOL    HW218027   1.757   4.823   3.457  0.0167  1.6031 -0.1576
 4507SOL     MW18028   1.840   4.849   3.451  0.3416  0.7054  0.3087
 4508SOL     OW18029   3.681   2.788   1.698  0.3672 -0.2344  0.1353
 4508SOL    HW118030   3.663   2.758   1.788  0.1383 -1.0543 -0.1715
 4508SOL    HW218031   3.625   2.865   1.687  0.4550 -0.0822  0.7239
 4508SOL     MW18032   3.671   2.794   1.708  0.3491 -0.3199  0.1714
 4509SOL     OW18033   4.794   4.033   3.391  0.5619  0.2686  0.3103
 4509SOL    HW118034   4.880   4.020   3.352  0.2783  0.3371 -0.3506
 4509SOL    HW218035   4.812   4.043   3.485  1.0395 -2.1305  0.5340
 4509SOL     MW18036   4.807   4.033   3.398  0.5868 -0.0298  0.2544
 4510SOL     OW18037   5.382   1.066   2.063 -0.2931  0.4435 -0.2394
 4510SOL    HW118038   5.334   0.998   2.015  0.2872  0.3507 -0.7052
 4510SOL    HW218039   5.388   1.033   2.152 -0.1687 -0.0416 -0.4247
 4510SOL     MW18040   5.377   1.053   2.068 -0.2029  0.3695 -0.3227
 4511SOL     OW18041   2.382   1.048   1.754 -0.3487  0.1577  0.6277
 4511SOL    HW118042   2.450   1.112   1.775  0.0018 -0.9566  3.3308
 4511SOL    HW218043   2.400   0.974   1.813 -3.6163 -0.3613  1.1770
 4511SOL     MW18044   2.393   1.046   1.765 -0.7221 -0.0514  1.0441
 4512SOL     OW18045   0.873   0.984   4.152 -0.0536  0.1707  0.4295
 4512SOL    HW118046   0.968   0.981   4.157 -0.0934 -0.1799  1.0857
 4512SOL    HW218047   0.845   1.004   4.241 -0.6312 -0.7808  0.4790
 4512SOL     MW18048   0.881   0.986   4.164 -0.1326  0.0040  0.5199
 4513SOL     OW18049   5.213   5.163   2.589 -0.0461  0.1699  0.2639
 4513SOL    HW118050   5.154   5.089   2.606 -0.2181  0.1991 -0.2181
 4513SOL    HW218051   5.293   5.140   2.636 -0.2276 -0.1491  0.4226
 4513SOL     MW18052   5.216   5.151   2.597 -0.0913  0.1328  0.2225
 4514SOL     OW18053   0.500   3.030   4.097  0.5236 -0.2217  0.2807
 4514SOL    HW118054   0.471   3.087   4.026  1.0838 -1.0329 -0.6291
 4514SOL    HW218055   0.462   3.068   4.176  0.1307  0.8694 -0.4160
 4514SOL     MW18056   0.491   3.042   4.098  0.5450 -0.1859  0.0751
 4515SOL     OW18057   2.231   2.960   1.052 -0.6972  0.2289  0.0840
 4515SOL    HW118058   2.297   3.028   1.036 -0.9023  0.4021 -0.0440
 4515SOL    HW218059   2.279   2.878   1.046 -0.9551  0.1920 -2.6735
 4515SOL     MW18060   2.246   2.959   1.049 -0.7565  0.2464 -0.2854
 4516SOL     OW18061   1.938   3.177   2.436  0.2908  0.3037 -0.1029
 4516SOL    HW118062   2.032   3.193   2.441  0.5903 -1.2614 -0.0549
 4516SOL    HW218063   1.918   3.127   2.515 -0.5671  0.5633 -0.1482
 4516SOL     MW18064   1.947   3.173   2.446  0.2194  0.1366 -0.1026
 4517SOL     OW18065   2.787   4.293   1.870  0.3552  0.3446 -0.3132
 4517SOL    HW118066   2.746   4.211   1.897  1.6174 -0.3028 -0.2983
 4517SOL    HW218067   2.822   4.276   1.783 -0.1881  1.1671 -0.7001
 4517SOL     MW18068   2.786   4.281   1.862  0.4473  0.3670 -0.3608
 4518SOL     OW18069   4.994   0.786   3.349 -0.0859  0.2710  0.2314
 4518SOL    HW118070   5.025   0.730   3.420  1.2453  0.2095 -0.3679
 4518SOL    HW218071   4.944   0.855   3.393 -0.3965 -0.4904  1.1080
 4518SOL     MW18072   4.992   0.787   3.364  0.0448  0.1657  0.2669
 4519SOL     OW18073   3.656   1.350   2.885 -0.2040 -0.0266  0.5705
 4519SOL    HW118074   3.642   1.269   2.836  1.4688  0.2900 -0.4853
 4519SOL    HW218075   3.578   1.403   2.865  0.0876 -0.2071 -1.1644
 4519SOL     MW18076   3.644   1.346   2.876  0.0475 -0.0092  0.2132
 4520SOL     OW18077   4.514   4.728   0.001 -0.0481  0.3744 -0.9456
 4520SOL    HW118078   4.424   4.751   0.023  0.1919  0.0190  0.5183
 4520SOL    HW218079   4.519   4.634   0.018  0.4472  0.2740 -1.5979
 4520SOL     MW18080   4.503   4.719   0.006  0.0460  0.3160 -0.8417
 4521SOL     OW18081   3.559   0.253   0.903 -0.5626  0.5972 -0.4217
 4521SOL    HW118082   3.560   0.332   0.957 -0.2017 -0.5876  1.3807
 4521SOL    HW218083   3.641   0.208   0.923 -2.7651 -2.6613  2.5060
 4521SOL     MW18084   3.569   0.257   0.913 -0.7983  0.0284  0.1838
 4522SOL     OW18085   2.176   3.755   1.668  0.2606  0.0727  0.0578
 4522SOL    HW118086   2.248   3.746   1.730  0.9257 -0.6223 -0.7925
 4522SOL    HW218087   2.155   3.849   1.669  0.9537  0.2296  0.5507
 4522SOL     MW18088   2.182   3.766   1.676  0.4344  0.0038  0.0120
 4523SOL     OW18089   2.518   1.105   5.232 -0.3433 -0.0665 -0.2265
 4523SOL    HW118090   2.442   1.157   5.204  0.1880  0.0111 -1.6081
 4523SOL    HW218091   2.593   1.161   5.214  0.1641 -0.9101 -0.7909
 4523SOL     MW18092   2.518   1.119   5.226 -0.2103 -0.1646 -0.4756
 4524SOL     OW18093   1.127   0.692   1.606 -0.5777 -0.3292 -0.2421
 4524SOL    HW118094   1.087   0.757   1.549 -1.5187 -0.3588  0.3602
 4524SOL    HW218095   1.189   0.646   1.550 -0.6622  0.3832 -0.9449
 4524SOL     MW18096   1.130   0.695   1.592 -0.7090 -0.2418 -0.2550
 4525SOL     OW18097   2.949   4.761   5.441  0.7944 -0.4706 -0.1051
 4525SOL    HW118098   2.934   4.855   5.454  1.8498 -0.5147  1.6706
 4525SOL    HW218099   2.938   4.723   5.528  0.8162 -1.9446 -0.7324
 4525SOL     MW18100   2.946   4.768   5.454  0.9323 -0.6650  0.0419
 4526SOL     OW18101   2.540   5.214   0.691  0.3630  0.2551  0.5582
 4526SOL    HW118102   2.454   5.196   0.730  1.4043 -1.3559  2.2751
 4526SOL    HW218103   2.565   5.299   0.727  0.0187  0.1630  1.0309
 4526SOL     MW18104   2.532   5.223   0.701  0.4522  0.0370  0.8385
 4527SOL     OW18105   2.603   2.744   4.457  0.1775 -0.3998 -0.5293
 4527SOL    HW118106   2.575   2.694   4.533 -1.3519 -0.1447 -0.8890
 4527SOL    HW218107   2.576   2.691   4.382  0.7758 -0.1824 -0.9106
 4527SOL     MW18108   2.596   2.731   4.457  0.0583 -0.3393 -0.6242
 4528SOL     OW18109   4.775   4.386   4.894 -0.1574 -0.4594  0.5611
 4528SOL    HW118110   4.755   4.315   4.833 -0.9568  0.2290  0.0057
 4528SOL    HW218111   4.818   4.452   4.839 -0.9352  0.1887  0.7333
 4528SOL     MW18112   4.778   4.385   4.879 -0.3593 -0.2883  0.5121
 4529SOL     OW18113   1.808   0.468   0.700  0.1247 -0.4273 -0.2751
 4529SOL    HW118114   1.774   0.379   0.709  0.3397 -0.5313 -0.4929
 4529SOL    HW218115   1.854   0.484   0.783  0.6026 -0.7432 -0.4725
 4529SOL     MW18116   1.810   0.459   0.712  0.2134 -0.4810 -0.3283
 4530SOL     OW18117   1.009   3.042   0.162 -0.1249 -0.3407  0.4976
 4530SOL    HW118118   1.035   3.011   0.075 -1.3303 -1.4421  0.4919
 4530SOL    HW218119   0.996   3.136   0.151 -0.7749 -0.5412 -0.6748
 4530SOL     MW18120   1.011   3.050   0.149 -0.3624 -0.5074  0.3468
 4531SOL     OW18121   0.842   1.630   2.161  0.2855 -0.4624 -0.6690
 4531SOL    HW118122   0.770   1.569   2.142  1.2726 -2.1707  0.7730
 4531SOL    HW218123   0.918   1.589   2.121  0.5736  1.1403 -1.8445
 4531SOL     MW18124   0.842   1.617   2.153  0.4488 -0.4759 -0.6349
 4532SOL     OW18125   3.780   0.515   0.930 -0.3398  0.5433  0.2621
 4532SOL    HW118126   3.693   0.511   0.970  1.2205  0.7605  4.1316
 4532SOL    HW218127   3.811   0.604   0.947  1.2291  0.0058  0.4463
 4532SOL     MW18128   3.773   0.526   0.937  0.0608  0.5023  0.7810
 4533SOL     OW18129   2.412   1.989   2.386 -0.1197 -0.4698 -0.4377
 4533SOL    HW118130   2.321   1.960   2.390 -0.0963 -0.6823 -1.3102
 4533SOL    HW218131   2.412   2.062   2.324  0.0907  0.3940  0.5503
 4533SOL     MW18132   2.401   1.995   2.378 -0.0898 -0.3865 -0.4229
 4534SOL     OW18133   4.984   2.398   1.234 -0.5856 -0.2542 -0.1845
 4534SOL    HW118134   5.047   2.339   1.277 -0.5108  1.5279  2.4214
 4534SOL    HW218135   4.899   2.371   1.268 -0.7473  0.0253 -0.3664
 4534SOL     MW18136   4.981   2.387   1.244 -0.5967  0.0097  0.1258
 4535SOL     OW18137   4.324  -0.001   3.307 -0.5046  0.0882 -0.6289
 4535SOL    HW118138   4.239   0.041   3.312 -1.1656 -1.3341  0.8687
 4535SOL    HW218139   4.371   0.030   3.385  0.2593  0.6379 -1.2902
 4535SOL     MW18140   4.319   0.008   3.318 -0.4914 -0.0235 -0.5218
 4536SOL     OW18141   5.293   0.681   0.728  0.3543  0.3487 -0.2165
 4536SOL    HW118142   5.267   0.644   0.643  0.1301  1.4242 -0.6386
 4536SOL    HW218143   5.290   0.607   0.789  1.1221 -0.5795 -1.2617
 4536SOL     MW18144   5.289   0.667   0.725  0.4239  0.3675 -0.4043
 4537SOL     OW18145   0.034   4.863   1.733  0.1101 -0.6425 -0.0334
 4537SOL    HW118146   0.019   4.796   1.800 -1.0531 -0.3164  0.0598
 4537SOL    HW218147  -0.038   4.851   1.671 -1.3386  1.7712  1.0431
 4537SOL     MW18148   0.023   4.853   1.734 -0.2243 -0.2918  0.1163
 4538SOL     OW18149   4.065   5.249   1.405 -0.1057 -0.6856  0.2288
 4538SOL    HW118150   4.083   5.322   1.464  0.1381 -0.1304 -0.5146
 4538SOL    HW218151   3.986   5.208   1.440 -2.0935  1.8282 -1.0484
 4538SOL     MW18152   4.057   5.253   1.417 -0.3289 -0.2927 -0.0299
 4539SOL     OW18153   5.010   0.966   0.468 -0.5331  0.0076  0.1563
 4539SOL    HW118154   5.015   0.939   0.560 -0.4430  0.2379  0.2177
 4539SOL    HW218155   4.948   1.038   0.467  0.4562  0.8910  0.2399
 4539SOL     MW18156   5.003   0.972   0.479 -0.3949  0.1502  0.1749
 4540SOL     OW18157   1.944   2.309   1.333 -0.0351  0.2089  0.3246
 4540SOL    HW118158   2.026   2.350   1.310 -0.3611  0.9435  0.4495
 4540SOL    HW218159   1.958   2.275   1.422 -0.0521  0.8448  0.5728
 4540SOL     MW18160   1.956   2.310   1.342 -0.0790  0.3843  0.3723
 4541SOL     OW18161   0.960   3.349   4.932 -0.1142  0.4466  0.0295
 4541SOL    HW118162   1.052   3.373   4.923 -0.5558  1.7882 -1.4607
 4541SOL    HW218163   0.945   3.284   4.864 -0.1290 -0.2483  0.6893
 4541SOL     MW18164   0.970   3.344   4.922 -0.1727  0.5294 -0.0768
 4542SOL     OW18165   1.904   4.840   1.415  0.1746  0.1423 -0.0496
 4542SOL    HW118166   1.878   4.930   1.432 -0.8362  0.0086 -0.7673
 4542SOL    HW218167   1.920   4.802   1.502  1.7307  1.3030  0.2126
 4542SOL     MW18168   1.903   4.847   1.428  0.2444  0.2738 -0.1079
 4543SOL     OW18169   0.485   4.863   4.045  0.2921 -0.0736 -0.2975
 4543SOL    HW118170   0.476   4.924   3.972  0.6842  0.4666  0.0991
 4543SOL    HW218171   0.519   4.916   4.117 -1.3081 -0.2964  0.6843
 4543SOL     MW18172   0.488   4.877   4.045  0.1375 -0.0330 -0.1210
 4544SOL     OW18173   0.207   4.569   2.465 -0.0963 -0.1385 -0.2547
 4544SOL    HW118174   0.220   4.533   2.553  1.2626  2.0166  0.5168
 4544SOL    HW218175   0.274   4.528   2.411  0.1810 -0.2045  0.1359
 4544SOL     MW18176   0.217   4.559   2.469  0.1132  0.1289 -0.1059
 4545SOL     OW18177   2.621   1.043   4.404 -0.1934  0.0971 -0.6181
 4545SOL    HW118178   2.648   1.084   4.322  1.5921  0.1584 -0.0350
 4545SOL    HW218179   2.539   0.999   4.382 -0.5530  1.3879 -2.0319
 4545SOL     MW18180   2.614   1.042   4.391 -0.0109  0.2702 -0.7245
 4546SOL     OW18181   4.094   5.208   0.249 -0.0683 -0.4227 -0.1430
 4546SOL    HW118182   4.021   5.155   0.281 -1.0267  1.5974  1.2552
 4546SOL    HW218183   4.063   5.244   0.166 -0.9075  0.7723  0.6505
 4546SOL     MW18184   4.081   5.206   0.242 -0.2984 -0.0111  0.1375
 4547SOL     OW18185   0.664   2.482   0.260 -0.1986 -0.0572  0.4680
 4547SOL    HW118186   0.581   2.529   0.253 -1.2639 -1.9097  0.1479
 4547SOL    HW218187   0.690   2.493   0.352 -0.5219  0.9310  0.4570
 4547SOL     MW18188   0.657   2.490   0.271 -0.3763 -0.1678  0.4256
 4548SOL     OW18189   2.644   3.209   2.437 -0.0306 -0.0723  0.4602
 4548SOL    HW118190   2.592   3.266   2.493  1.7053  0.0617  2.0533
 4548SOL    HW218191   2.692   3.269   2.379  2.3886  0.2765  2.6558
 4548SOL     MW18192   2.644   3.224   2.437  0.5013 -0.0105  0.9452
 4549SOL     OW18193   2.818   0.617   3.370  0.3113  0.4206 -0.6655
 4549SOL    HW118194   2.829   0.643   3.279 -1.1536  2.5729 -0.2968
 4549SOL    HW218195   2.730   0.580   3.374 -0.1860  1.6145  0.0927
 4549SOL     MW18196   2.808   0.616   3.359  0.0601  0.8489 -0.5212
 4550SOL     OW18197   4.522   0.899   0.917 -0.2272  0.2637 -0.5944
 4550SOL    HW118198   4.551   0.844   0.844 -0.6747 -0.2634 -0.3823
 4550SOL    HW218199   4.594   0.961   0.930 -0.6189  1.1348 -2.2217
 4550SOL     MW18200   4.535   0.900   0.909 -0.3347  0.3077 -0.7756
 4551SOL     OW18201   1.428   5.436   1.592 -0.0968 -0.6254  0.0933
 4551SOL    HW118202   1.457   5.514   1.638  0.0472 -1.1083  0.8511
 4551SOL    HW218203   1.386   5.468   1.512  1.5261  0.1503 -0.5047
 4551SOL     MW18204   1.427   5.450   1.587  0.1294 -0.5879  0.1137
 4552SOL     OW18205   2.034   2.952   4.966 -0.1140 -0.1498 -0.5061
 4552SOL    HW118206   2.126   2.926   4.959  0.2343  0.5108  1.1115
 4552SOL    HW218207   2.000   2.945   4.877  1.8245  0.7740 -1.3810
 4552SOL     MW18208   2.042   2.948   4.954  0.1787  0.0530 -0.4110
 4553SOL     OW18209   0.082   3.350   5.293 -0.1625 -0.2041 -0.0301
 4553SOL    HW118210   0.022   3.415   5.257  0.7252  1.1191  0.7944
 4553SOL    HW218211   0.028   3.272   5.305 -1.6466  0.8552  0.4344
 4553SOL     MW18212   0.068   3.348   5.290 -0.2388  0.1009  0.1349
 4554SOL     OW18213   1.546   5.423   2.392 -0.1728  0.0799 -0.1304
 4554SOL    HW118214   1.596   5.348   2.425 -0.4263  0.5721  1.4986
 4554SOL    HW218215   1.472   5.429   2.453  0.1856  2.0268  0.1621
 4554SOL     MW18216   1.543   5.414   2.404 -0.1594  0.3921  0.1156
 4555SOL     OW18217   5.135   3.017   0.488 -0.3807  0.1276 -0.3186
 4555SOL    HW118218   5.152   2.924   0.481  2.1508  0.4773  0.4056
 4555SOL    HW218219   5.176   3.056   0.411 -0.1950  0.7752  0.0922
 4555SOL     MW18220   5.142   3.010   0.478 -0.0328  0.2553 -0.1733
 4556SOL     OW18221   1.586   4.952   3.009 -0.4128 -0.4761 -0.3198
 4556SOL    HW118222   1.624   4.875   2.968 -0.9369 -0.3402 -1.0837
 4556SOL    HW218223   1.658   4.992   3.057  0.0495 -1.0126 -0.5602
 4556SOL     MW18224   1.600   4.947   3.010 -0.4207 -0.5273 -0.4484
 4557SOL     OW18225   2.407   0.185   1.510 -0.2428  0.2266  0.1564
 4557SOL    HW118226   2.434   0.217   1.596 -1.0334 -0.3018  0.6107
 4557SOL    HW218227   2.441   0.251   1.449 -1.5807  1.8218  1.0385
 4557SOL     MW18228   2.415   0.198   1.513 -0.5153  0.3631  0.3275
 4558SOL     OW18229   5.277   2.051   1.446 -0.5706 -0.0276  0.4207
 4558SOL    HW118230   5.301   1.965   1.412 -0.0999 -0.1887  1.1507
 4558SOL    HW218231   5.326   2.060   1.527 -0.1876  1.1666  0.0785
 4558SOL     MW18232   5.286   2.041   1.452 -0.4614  0.1046  0.4703
 4559SOL     OW18233   3.097   1.456   5.216 -0.5722  0.4147  0.3270
 4559SOL    HW118234   3.169   1.450   5.154 -2.3653  0.3152 -1.8896
 4559SOL    HW218235   3.096   1.547   5.246 -0.2118  0.6832 -0.4803
 4559SOL     MW18236   3.106   1.467   5.212 -0.7556  0.4364 -0.0601
 4560SOL     OW18237   4.628   3.319   2.664 -0.9766  0.0270  0.5099
 4560SOL    HW118238   4.695   3.383   2.642 -0.9495 -0.2376 -0.1755
 4560SOL    HW218239   4.675   3.236   2.675 -0.9768  0.1536  1.6391
 4560SOL     MW18240   4.642   3.316   2.663 -0.9732  0.0093  0.5667
 4561SOL     OW18241   1.160   1.745   5.365 -0.2509  0.0626 -0.5003
 4561SOL    HW118242   1.161   1.651   5.347  0.6455  0.4337 -2.7170
 4561SOL    HW218243   1.095   1.781   5.305  1.3331  1.1430 -1.6715
 4561SOL     MW18244   1.152   1.738   5.355  0.0666  0.2484 -0.9340
 4562SOL     OW18245   4.245   5.140   4.767 -0.5479  0.3874  0.9032
 4562SOL    HW118246   4.179   5.099   4.712  0.4758  0.8228 -0.7158
 4562SOL    HW218247   4.286   5.067   4.814 -1.2502 -0.0127  0.9059
 4562SOL     MW18248   4.242   5.126   4.766 -0.5067  0.3919  0.6963
 4563SOL     OW18249   2.535   3.028   2.107 -0.4962  0.1642 -0.2474
 4563SOL    HW118250   2.524   3.012   2.013 -0.7755 -0.6620 -0.0729
 4563SOL    HW218251   2.473   2.969   2.150 -0.9114  1.0655  0.4371
 4563SOL     MW18252   2.526   3.019   2.101 -0.5851  0.1738 -0.1374
 4564SOL     OW18253   5.145   5.019   3.731  0.0364 -0.0692  0.3145
 4564SOL    HW118254   5.129   4.926   3.712 -0.7053 -0.2390  1.6450
 4564SOL    HW218255   5.090   5.066   3.669 -0.0644 -0.5372  0.0413
 4564SOL     MW18256   5.136   5.013   3.721 -0.0714 -0.1509  0.4498
 4565SOL     OW18257   5.290   1.030   4.543  0.3907  0.1079 -0.1321
 4565SOL    HW118258   5.223   0.986   4.491  0.1663  0.4002 -0.0976
 4565SOL    HW218259   5.302   0.973   4.619 -0.7645  0.6738  0.5134
 4565SOL     MW18260   5.283   1.017   4.546  0.2141  0.2177 -0.0450
 4566SOL     OW18261   0.548   2.647   4.165  0.3154  0.4452 -0.1394
 4566SOL    HW118262   0.595   2.623   4.245 -2.6979  0.2916  1.7679
 4566SOL    HW218263   0.560   2.573   4.106  0.1811 -0.8464  1.3869
 4566SOL     MW18264   0.555   2.634   4.168 -0.0875  0.2602  0.3001
 4567SOL     OW18265   1.401   0.498   1.154 -0.1429 -0.1617  0.2139
 4567SOL    HW118266   1.307   0.504   1.138 -0.4863  0.1248  2.0322
 4567SOL    HW218267   1.439   0.474   1.070 -1.8216 -0.1102 -0.5980
 4567SOL     MW18268   1.394   0.496   1.141 -0.4018 -0.1184  0.3427
 4568SOL     OW18269   2.247   1.163   0.340 -0.1702 -0.2433  0.1187
 4568SOL    HW118270   2.241   1.236   0.278 -0.2152 -0.2183  0.1516
 4568SOL    HW218271   2.301   1.197   0.412 -0.8028  0.0130  0.4839
 4568SOL     MW18272   2.253   1.177   0.341 -0.2570 -0.2073  0.1697
 4569SOL     OW18273   2.931   0.747   2.839 -0.0516  0.1100 -0.2344
 4569SOL    HW118274   2.925   0.772   2.932  0.9862  0.1801 -0.1696
 4569SOL    HW218275   2.983   0.666   2.840 -0.7818 -0.3703 -0.6880
 4569SOL     MW18276   2.937   0.740   2.851 -0.0122  0.0575 -0.2841
 4570SOL     OW18277   4.719   1.330   1.029 -0.2422  0.1348  0.8472
 4570SOL    HW118278   4.627   1.307   1.042 -0.3476  1.0147  1.8625
 4570SOL    HW218279   4.744   1.372   1.112  0.7248  0.9994  0.1339
 4570SOL     MW18280   4.710   1.333   1.041 -0.1319  0.3581  0.8859
 4571SOL     OW18281   1.476   3.082   1.573  0.9170 -0.1144  0.3970
 4571SOL    HW118282   1.445   3.007   1.523  1.0731  0.6488 -0.8892
 4571SOL    HW218283   1.397   3.116   1.616  0.6102 -0.2579 -0.0467
 4571SOL     MW18284   1.462   3.077   1.572  0.8977 -0.0351  0.1755
 4572SOL     OW18285   2.571   0.792   2.737 -0.0004  0.0886  0.2519
 4572SOL    HW118286   2.599   0.730   2.670 -1.4200 -0.2010 -0.1193
 4572SOL    HW218287   2.517   0.855   2.688 -0.0836  0.5456  0.9315
 4572SOL     MW18288   2.567   0.792   2.722 -0.1928  0.1100  0.2914
 4573SOL     OW18289   2.160   3.799   4.668 -0.1202  0.1660 -0.3866
 4573SOL    HW118290   2.201   3.721   4.629  1.4578  0.6436  0.2285
 4573SOL    HW218291   2.230   3.865   4.668 -1.6264  1.8435 -1.5569
 4573SOL     MW18292   2.174   3.797   4.663 -0.1110  0.4419 -0.4576
 4574SOL     OW18293   1.435   1.279   0.218 -0.3680 -0.2100 -0.7470
 4574SOL    HW118294   1.360   1.338   0.226 -0.4718 -0.2810 -1.2192
 4574SOL    HW218295   1.399   1.200   0.178 -0.5388 -1.1651  1.1637
 4574SOL     MW18296   1.421   1.277   0.214 -0.4032 -0.3413 -0.5628
 4575SOL     OW18297   0.554   1.622   4.543  0.2758  0.3504  0.0935
 4575SOL    HW118298   0.557   1.716   4.525  1.4581  0.2069 -0.5445
 4575SOL    HW218299   0.501   1.614   4.623  1.4496  1.6869  1.0433
 4575SOL     MW18300   0.548   1.633   4.551  0.5774  0.5031  0.1334
 4576SOL     OW18301   4.025   0.304   3.105  0.5017  0.3832  0.2587
 4576SOL    HW118302   3.958   0.314   3.173 -0.6660  1.4749 -1.0022
 4576SOL    HW218303   4.064   0.391   3.098 -0.9401  0.9294 -1.9702
 4576SOL     MW18304   4.021   0.316   3.113  0.1677  0.5928 -0.1880
 4577SOL     OW18305   1.274   0.891   2.599  0.2466 -0.1602 -0.5268
 4577SOL    HW118306   1.295   0.861   2.687  0.0264  0.3505 -0.2975
 4577SOL    HW218307   1.189   0.851   2.579  1.4744 -2.4348 -1.5544
 4577SOL     MW18308   1.266   0.882   2.608  0.3756 -0.3860 -0.6290
 4578SOL     OW18309   0.682   0.038   0.981  0.7711 -1.2429 -0.1581
 4578SOL    HW118310   0.748   0.103   0.960 -0.9759  1.6000  2.2054
 4578SOL    HW218311   0.624   0.036   0.905 -0.1775  1.5832  0.3556
 4578SOL     MW18312   0.683   0.046   0.969  0.4260 -0.5172  0.2102
 4579SOL     OW18313   4.769   0.299   0.112 -0.0003 -0.0550 -0.3340
 4579SOL    HW118314   4.752   0.269   0.023  2.4199 -0.5799 -0.6858
 4579SOL    HW218315   4.716   0.378   0.121  0.9182  0.9684 -2.8618
 4579SOL     MW18316   4.760   0.306   0.102  0.4271  0.0088 -0.7026
 4580SOL     OW18317   1.402   4.836   0.221 -0.4207 -0.0455 -0.1806
 4580SOL    HW118318   1.359   4.783   0.288 -1.0941  1.2071  0.4007
 4580SOL    HW218319   1.337   4.844   0.151 -0.9981  1.4588  0.4969
 4580SOL     MW18320   1.388   4.830   0.220 -0.5809  0.3074 -0.0194
 4581SOL     OW18321   4.139   1.437   2.514  0.0523  0.4807  0.0950
 4581SOL    HW118322   4.081   1.390   2.453 -0.0074 -0.0090  0.5204
 4581SOL    HW218323   4.227   1.415   2.484  0.0237  0.2046  0.2091
 4581SOL     MW18324   4.143   1.428   2.502  0.0410  0.3827  0.1641
 4582SOL     OW18325   0.216   4.353   4.216 -0.0182  0.0364  0.1775
 4582SOL    HW118326   0.193   4.429   4.162  0.2608  0.2897  0.4102
 4582SOL    HW218327   0.136   4.300   4.218 -0.1219  0.1715 -0.2380
 4582SOL     MW18328   0.203   4.356   4.209  0.0042  0.0861  0.1541
 4583SOL     OW18329   4.095   4.518   3.024  0.3864  0.0303  0.1774
 4583SOL    HW118330   4.007   4.522   2.987 -0.2362 -0.1298  1.5630
 4583SOL    HW218331   4.107   4.603   3.066  0.3439 -0.4173  1.1297
 4583SOL     MW18332   4.085   4.529   3.025  0.3013 -0.0475  0.4767
 4584SOL     OW18333   5.216   1.879   2.942 -0.1747  0.0622  0.0152
 4584SOL    HW118334   5.295   1.825   2.939 -0.2281 -0.0452  0.4304
 4584SOL    HW218335   5.167   1.854   2.865 -1.1185 -1.9327  1.1859
 4584SOL     MW18336   5.220   1.869   2.932 -0.3024 -0.2069  0.2182
 4585SOL     OW18337   3.299   3.109   1.542  0.1129  0.4877 -0.5110
 4585SOL    HW118338   3.282   3.046   1.472  1.4924 -0.6966  0.1515
 4585SOL    HW218339   3.290   3.195   1.501  0.7799 -0.1764 -2.1179
 4585SOL     MW18340   3.295   3.112   1.528  0.3749  0.2511 -0.6319
 4586SOL     OW18341   1.405   5.263   4.287  0.0358 -0.3050  0.3170
 4586SOL    HW118342   1.489   5.296   4.257 -0.9888  0.6587 -1.6876
 4586SOL    HW218343   1.425   5.211   4.365  2.0933  2.8321  2.1020
 4586SOL     MW18344   1.418   5.261   4.293  0.1680  0.2200  0.2889
 4587SOL     OW18345   3.866   3.255   0.570  0.1410  0.4319  0.1460
 4587SOL    HW118346   3.937   3.318   0.557  1.2078 -0.9074 -0.8296
 4587SOL    HW218347   3.882   3.188   0.504 -1.8767 -0.0717  0.1102
 4587SOL     MW18348   3.877   3.255   0.560  0.0193  0.1959  0.0165
 4588SOL     OW18349   1.837   1.998   0.797 -0.0571 -0.3445  0.2630
 4588SOL    HW118350   1.821   2.041   0.881 -0.1312 -0.7185  0.4429
 4588SOL    HW218351   1.768   2.032   0.739 -0.9821 -1.2698  0.7843
 4588SOL     MW18352   1.826   2.008   0.800 -0.1850 -0.5108  0.3528
 4589SOL     OW18353   1.954   4.574   3.198 -0.1912 -0.3643  0.4219
 4589SOL    HW118354   1.968   4.583   3.103  1.7540 -0.6137  0.6423
 4589SOL    HW218355   2.025   4.625   3.237 -0.1325 -1.4120  1.7412
 4589SOL     MW18356   1.965   4.582   3.191  0.0654 -0.5303  0.6190
 4590SOL     OW18357   5.231   4.172   1.076 -0.6038 -0.1091  0.6193
 4590SOL    HW118358   5.230   4.263   1.047 -2.5324  0.0828  1.1819
 4590SOL    HW218359   5.179   4.125   1.010  1.8291 -1.1946 -0.6645
 4590SOL     MW18360   5.224   4.178   1.064 -0.5393 -0.2235  0.5269
 4591SOL     OW18361   1.841   0.727   3.341 -0.2420  0.1432  0.4663
 4591SOL    HW118362   1.786   0.678   3.280 -0.8433  0.3840  0.8087
 4591SOL    HW218363   1.784   0.796   3.374  0.4995  0.8889  0.2274
 4591SOL     MW18364   1.827   0.729   3.337 -0.2241  0.2695  0.4795
 4592SOL     OW18365   2.796   3.284   4.974  0.1392 -0.3974 -0.3134
 4592SOL    HW118366   2.821   3.376   4.975 -1.0308 -0.0301 -1.8419
 4592SOL    HW218367   2.795   3.258   5.067  1.4900  0.8175  0.0643
 4592SOL     MW18368   2.799   3.292   4.986  0.1624 -0.1949 -0.4607
 4593SOL     OW18369   4.839   4.713   1.080  0.0296  0.3156  0.1339
 4593SOL    HW118370   4.836   4.741   1.172 -0.3160 -1.5114  0.7198
 4593SOL    HW218371   4.932   4.695   1.064  0.1562  1.0587 -0.0441
 4593SOL     MW18372   4.850   4.715   1.090  0.0016  0.1769  0.1862
 4594SOL     OW18373   0.303   1.822   1.425  0.1158 -0.6205  0.0927
 4594SOL    HW118374   0.322   1.753   1.489 -1.6455 -1.7857 -0.5619
 4594SOL    HW218375   0.256   1.889   1.474  0.7361 -0.4532  0.4694
 4594SOL     MW18376   0.300   1.821   1.439 -0.0303 -0.7482  0.0571
 4595SOL     OW18377   0.579   2.435   3.289  0.3087 -0.0621 -0.0029
 4595SOL    HW118378   0.608   2.356   3.334  0.2742 -1.4539 -2.3021
 4595SOL    HW218379   0.493   2.455   3.328  0.0854 -1.4437  0.2521
 4595SOL     MW18380   0.571   2.427   3.300  0.2757 -0.4171 -0.2645
 4596SOL     OW18381   4.563   2.509   1.311 -0.2180 -0.1958 -0.1689
 4596SOL    HW118382   4.492   2.527   1.249 -0.7307  0.5239  0.6054
 4596SOL    HW218383   4.527   2.534   1.396 -0.2898 -3.1060  0.7605
 4596SOL     MW18384   4.549   2.515   1.314 -0.2928 -0.4762  0.0492
 4597SOL     OW18385   3.593   0.810   1.339  0.5570  0.3316  0.8070
 4597SOL    HW118386   3.604   0.716   1.323 -0.9654 -0.2725  2.8530
 4597SOL    HW218387   3.504   0.829   1.307  0.2887  0.7210  1.7712
 4597SOL     MW18388   3.583   0.801   1.333  0.3277  0.3041  1.1923
 4598SOL     OW18389   2.876   0.672   0.877 -0.1484 -0.5778 -0.4444
 4598SOL    HW118390   2.782   0.656   0.882 -0.2684  0.3873  1.6190
 4598SOL    HW218391   2.914   0.613   0.942  0.4048  0.6117  0.3450
 4598SOL     MW18392   2.869   0.663   0.886 -0.0930 -0.3020 -0.0792
 4599SOL     OW18393   0.897   2.634   0.979  0.3385 -0.1262  0.2318
 4599SOL    HW118394   0.960   2.706   0.975 -0.5958  0.7050 -0.0109
 4599SOL    HW218395   0.864   2.625   0.889 -0.9450  0.4428  0.6222
 4599SOL     MW18396   0.900   2.642   0.967  0.0546  0.0531  0.2507
 4600SOL     OW18397   3.103   3.250   3.546  0.4637 -0.2541  0.0224
 4600SOL    HW118398   3.168   3.302   3.499  1.4280 -0.5922  0.9526
 4600SOL    HW218399   3.076   3.305   3.619  0.0404 -0.3044 -0.0912
 4600SOL     MW18400   3.107   3.264   3.549  0.5330 -0.3038  0.1270
 4601SOL     OW18401   4.485   4.474   4.403  0.2698 -0.2108 -0.3139
 4601SOL    HW118402   4.482   4.547   4.465  0.2479 -1.2369  0.9362
 4601SOL    HW218403   4.406   4.424   4.421 -0.3532  0.0806 -2.0041
 4601SOL     MW18404   4.474   4.477   4.413  0.1873 -0.3048 -0.3702
 4602SOL     OW18405   4.116   0.605   3.057  0.4547 -0.2570  0.0444
 4602SOL    HW118406   4.193   0.645   3.096 -0.9486  1.4450  1.2370
 4602SOL    HW218407   4.102   0.653   2.975 -0.2367  0.5740  0.6298
 4602SOL     MW18408   4.124   0.616   3.051  0.1865  0.0672  0.2720
 4603SOL     OW18409   4.249   5.266   1.757  0.1430  0.2174  0.0073
 4603SOL    HW118410   4.336   5.276   1.795  0.4422  1.5197 -0.9669
 4603SOL    HW218411   4.189   5.269   1.831  0.7935  1.4975  0.4976
 4603SOL     MW18412   4.252   5.267   1.771  0.2646  0.5480 -0.0546
 4604SOL     OW18413   4.097   1.094   2.801  0.2973 -0.2576  0.2472
 4604SOL    HW118414   4.035   1.099   2.728  0.4128  2.0412  0.2341
 4604SOL    HW218415   4.176   1.056   2.763 -0.2586 -0.8662 -0.3363
 4604SOL     MW18416   4.099   1.090   2.787  0.2409 -0.0412  0.1708
 4605SOL     OW18417   1.601   3.519   3.130 -0.1577 -0.3305 -0.5381
 4605SOL    HW118418   1.587   3.612   3.148 -0.8955 -0.3290 -1.0814
 4605SOL    HW218419   1.518   3.488   3.095 -0.5082 -1.6330  1.3080
 4605SOL     MW18420   1.589   3.527   3.127 -0.2970 -0.4970 -0.3713
 4606SOL     OW18421   2.476   1.442   2.220  0.0005  0.0638 -0.4157
 4606SOL    HW118422   2.417   1.516   2.205 -0.3394 -0.1007  0.0650
 4606SOL    HW218423   2.474   1.393   2.138 -0.4935  0.0895 -0.4227
 4606SOL     MW18424   2.468   1.445   2.208 -0.1063  0.0460 -0.3551
 4607SOL     OW18425   1.009   4.390   1.974 -0.3430 -0.2641  0.1185
 4607SOL    HW118426   1.054   4.325   2.028 -1.1484 -0.1677  0.9273
 4607SOL    HW218427   1.075   4.419   1.911 -0.1114 -2.2628 -0.6203
 4607SOL     MW18428   1.023   4.385   1.973 -0.4165 -0.5076  0.1274
 4608SOL     OW18429   4.881   1.671   3.166 -0.0436  0.0505  0.0548
 4608SOL    HW118430   4.791   1.685   3.135 -0.2528 -0.8894  0.2125
 4608SOL    HW218431   4.871   1.628   3.250  0.5570  0.1054  0.1581
 4608SOL     MW18432   4.868   1.668   3.173  0.0065 -0.0628  0.0882
 4609SOL     OW18433   0.120   4.077   5.271  0.0109  0.1663  0.0041
 4609SOL    HW118434   0.164   4.010   5.322 -2.5598 -1.6779  0.0101
 4609SOL    HW218435   0.094   4.033   5.189 -1.2544  1.2725 -0.2388
 4609SOL     MW18436   0.122   4.063   5.267 -0.4802  0.0718 -0.0263
 4610SOL     OW18437   2.635   1.302   2.905 -0.1085 -0.3071  0.5881
 4610SOL    HW118438   2.633   1.237   2.974 -0.9711 -0.6975  0.2105
 4610SOL    HW218439   2.711   1.279   2.852  0.5093 -0.0552  1.3431
 4610SOL     MW18440   2.645   1.291   2.907 -0.1399 -0.3248  0.6364
 4611SOL     OW18441   1.379   3.439   1.507  0.1064  0.2743  0.4044
 4611SOL    HW118442   1.316   3.383   1.461 -1.7505  0.9518  1.9753
 4611SOL    HW218443   1.396   3.511   1.445 -0.4348 -0.0678 -0.1580
 4611SOL     MW18444   1.373   3.441   1.493 -0.2006  0.3173  0.5335
 4612SOL     OW18445   0.977   1.222   3.641 -0.3370  0.2216  0.0005
 4612SOL    HW118446   1.016   1.145   3.683 -1.6179 -0.5826 -0.2047
 4612SOL    HW218447   1.031   1.237   3.563 -0.8231 -1.3130 -0.6777
 4612SOL     MW18448   0.989   1.214   3.636 -0.5632 -0.0778 -0.1126
 4613SOL     OW18449   4.138   2.368   1.350 -0.6572  0.1175  0.0851
 4613SOL    HW118450   4.217   2.416   1.376 -2.0483  1.6417  1.8363
 4613SOL    HW218451   4.161   2.325   1.268  1.4332  1.9598 -0.3879
 4613SOL     MW18452   4.151   2.369   1.343 -0.5677  0.5485  0.2487
 4614SOL     OW18453   0.473   5.113   1.851 -0.2337  0.5554 -0.0263
 4614SOL    HW118454   0.391   5.146   1.815  0.3934  0.9640 -1.1621
 4614SOL    HW218455   0.541   5.163   1.805  0.7351 -1.6646 -1.1733
 4614SOL     MW18456   0.472   5.124   1.840 -0.0294  0.3235 -0.3185
 4615SOL     OW18457   1.425   2.968   2.688  0.1243  0.5038  0.2531
 4615SOL    HW118458   1.489   3.018   2.637  0.8018  0.1441  0.7334
 4615SOL    HW218459   1.379   2.915   2.623 -0.7655  1.8817 -0.3005
 4615SOL     MW18460   1.427   2.968   2.673  0.0971  0.6341  0.2437
 4616SOL     OW18461   1.996   5.437   3.806 -0.0179 -0.0139  0.0291
 4616SOL    HW118462   2.042   5.354   3.816 -1.0051 -0.5536  0.2621
 4616SOL    HW218463   1.976   5.464   3.896 -1.2686 -0.4507 -0.0949
 4616SOL     MW18464   1.999   5.430   3.819 -0.3044 -0.1389  0.0430
 4617SOL     OW18465   5.091   1.528   1.400 -0.4516 -0.0056  0.6626
 4617SOL    HW118466   5.176   1.486   1.417 -0.7467 -1.9437 -2.0100
 4617SOL    HW218467   5.045   1.524   1.484  2.3605  1.9765  2.4597
 4617SOL     MW18468   5.096   1.522   1.413 -0.1294  0.0001  0.5505
 4618SOL     OW18469   5.448   3.236   1.418  0.3462 -0.3821 -0.5834
 4618SOL    HW118470   5.486   3.293   1.485  1.0077 -0.6257 -0.7480
 4618SOL    HW218471   5.492   3.152   1.430 -0.6161 -0.8647 -0.3470
 4618SOL     MW18472   5.458   3.232   1.428  0.3077 -0.4751 -0.5742
 4619SOL     OW18473   0.330   2.929   2.722  0.3919  0.3869  0.1117
 4619SOL    HW118474   0.303   2.944   2.813 -0.3750 -1.2449  0.1825
 4619SOL    HW218475   0.395   2.859   2.727 -0.1942 -0.2252 -0.6464
 4619SOL     MW18476   0.335   2.922   2.735  0.2187  0.0997  0.0237
 4620SOL     OW18477   0.768   5.295   2.644 -0.2339 -0.1486  0.2972
 4620SOL    HW118478   0.706   5.228   2.617 -1.2311  1.0884 -0.6342
 4620SOL    HW218479   0.853   5.252   2.641 -0.9768 -1.7802  1.2188
 4620SOL     MW18480   0.771   5.281   2.641 -0.4566 -0.1991  0.2959
 4621SOL     OW18481   3.031   0.858   4.242  0.1080 -0.3848  0.2238
 4621SOL    HW118482   3.075   0.779   4.212 -1.0761 -0.9661 -0.0367
 4621SOL    HW218483   3.093   0.898   4.303  0.4951 -1.8222  0.8142
 4621SOL     MW18484   3.044   0.853   4.246  0.0060 -0.6433  0.2660
 4622SOL     OW18485   4.603   3.104   0.020  0.4551  0.1024 -0.5735
 4622SOL    HW118486   4.689   3.066   0.037 -0.0129 -1.1313 -0.8893
 4622SOL    HW218487   4.547   3.070   0.089  0.4458  1.8122  0.3184
 4622SOL     MW18488   4.606   3.095   0.031  0.3940  0.1634 -0.4998
 4623SOL     OW18489   2.336   2.279   2.780  0.2015  0.2252  0.4416
 4623SOL    HW118490   2.383   2.206   2.739  1.9273  1.1660  0.6246
 4623SOL    HW218491   2.294   2.241   2.857 -0.3285 -0.8952 -0.3702
 4623SOL     MW18492   2.337   2.265   2.784  0.3545  0.2022  0.3611
 4624SOL     OW18493   1.106   2.921   1.509  0.1920  0.1275  0.0881
 4624SOL    HW118494   1.040   2.898   1.444 -0.8888 -1.0506  1.5178
 4624SOL    HW218495   1.187   2.881   1.477  0.0536  0.9222 -1.3028
 4624SOL     MW18496   1.108   2.913   1.497  0.0359  0.0784  0.0930
 4625SOL     OW18497   3.692   1.494   2.580 -0.6756  0.3636  0.0577
 4625SOL    HW118498   3.678   1.419   2.637 -0.1930  0.2017 -0.0398
 4625SOL    HW218499   3.655   1.568   2.629  0.9237  0.4641  1.1668
 4625SOL     MW18500   3.685   1.494   2.593 -0.4091  0.3557  0.1872
 4626SOL     OW18501   3.034   4.890   2.208  0.4257  0.1731  0.0662
 4626SOL    HW118502   3.082   4.854   2.283  1.5324  0.8440 -0.3045
 4626SOL    HW218503   2.941   4.881   2.233  0.7640  0.2275  1.4315
 4626SOL     MW18504   3.028   4.884   2.221  0.6107  0.2659  0.1935
 4627SOL     OW18505   3.225   0.814   4.022  0.0557  0.5205  0.1498
 4627SOL    HW118506   3.245   0.900   3.986 -0.9602  0.8546  0.3564
 4627SOL    HW218507   3.231   0.754   3.948 -1.7492  1.1594 -0.5638
 4627SOL     MW18508   3.228   0.817   4.008 -0.3054  0.6451  0.0849
 4628SOL     OW18509   5.096   4.642   1.004 -0.7790  0.2904  0.2242
 4628SOL    HW118510   5.085   4.564   0.949  0.8849  0.0763  0.1603
 4628SOL    HW218511   5.177   4.626   1.053 -0.0089  2.2801 -0.3127
 4628SOL     MW18512   5.105   4.630   1.003 -0.4674  0.5177  0.1473
 4629SOL     OW18513   3.593   0.535   2.415 -0.1427  0.0720  0.1617
 4629SOL    HW118514   3.573   0.519   2.323  2.4508 -0.2703 -0.4220
 4629SOL    HW218515   3.611   0.449   2.451  1.0232  0.3918  0.3896
 4629SOL     MW18516   3.593   0.522   2.408  0.3386  0.0691  0.1162
 4630SOL     OW18517   3.065   4.784   4.845  0.3338 -0.8557  0.3200
 4630SOL    HW118518   3.132   4.731   4.800 -0.6097 -2.0227  0.2197
 4630SOL    HW218519   2.994   4.791   4.781  1.4444  2.9713 -0.7804
 4630SOL     MW18520   3.064   4.778   4.831  0.3552 -0.5152  0.1663
 4631SOL     OW18521   2.852   4.202   4.730  0.2589  0.1555 -0.6066
 4631SOL    HW118522   2.779   4.183   4.788  1.3412  0.2774  0.8459
 4631SOL    HW218523   2.850   4.132   4.665  0.2097 -1.1842  0.7855
 4631SOL     MW18524   2.843   4.191   4.729  0.3911 -0.0004 -0.2424
 4632SOL     OW18525   3.281   4.914   3.287 -0.4372 -0.0305 -0.1909
 4632SOL    HW118526   3.215   4.862   3.332 -1.8887  1.6463 -0.3062
 4632SOL    HW218527   3.334   4.952   3.356  1.2680 -2.3118 -0.1098
 4632SOL     MW18528   3.280   4.912   3.301 -0.4047 -0.1079 -0.1952
 4633SOL     OW18529   4.697   0.075   4.979  0.2154  0.0866 -0.6725
 4633SOL    HW118530   4.765   0.071   5.046 -0.7345 -1.6442  0.2450
 4633SOL    HW218531   4.689   0.168   4.959  2.5096  0.3745 -0.4815
 4633SOL     MW18532   4.704   0.086   4.985  0.3875 -0.0981 -0.5306
 4634SOL     OW18533   4.879   4.869   2.299  0.2613 -0.3727  0.7441
 4634SOL    HW118534   4.874   4.964   2.311  0.0346 -0.4695  1.4917
 4634SOL    HW218535   4.790   4.842   2.277  0.4427 -0.3448 -0.0357
 4634SOL     MW18536   4.867   4.878   2.298  0.2555 -0.3815  0.7399
 4635SOL     OW18537   2.187   4.240   0.522  0.0090  0.3263 -0.0419
 4635SOL    HW118538   2.147   4.233   0.609 -0.2332  1.5968 -0.0237
 4635SOL    HW218539   2.279   4.220   0.537 -0.2415 -0.6722  0.2739
 4635SOL     MW18540   2.193   4.237   0.535 -0.0541  0.3612  0.0009
 4636SOL     OW18541   1.655   3.451   0.008 -0.6391 -0.3068 -0.3334
 4636SOL    HW118542   1.639   3.545   0.007 -2.8270 -0.6230  0.4399
 4636SOL    HW218543   1.708   3.436   0.086 -2.2244  0.0468  0.8405
 4636SOL     MW18544   1.660   3.461   0.018 -1.1221 -0.3020 -0.0841
 4637SOL     OW18545   3.480   4.669   1.927 -0.2491  0.1916 -0.5176
 4637SOL    HW118546   3.392   4.652   1.892 -0.2929 -1.8027  0.4498
 4637SOL    HW218547   3.539   4.633   1.861 -0.2459 -0.8516  0.0454
 4637SOL     MW18548   3.476   4.662   1.914 -0.2543 -0.1972 -0.3217
 4638SOL     OW18549   0.601   0.618   3.748 -0.2146 -0.1863 -0.5882
 4638SOL    HW118550   0.662   0.593   3.818  0.1661 -0.7778 -1.1325
 4638SOL    HW218551   0.515   0.593   3.782  0.0319 -1.0886 -0.6002
 4638SOL     MW18552   0.598   0.612   3.762 -0.1343 -0.3775 -0.6595
 4639SOL     OW18553   2.091   0.591   3.601 -0.0588  0.3577 -0.3282
 4639SOL    HW118554   2.030   0.595   3.674  1.1595  0.1647  0.7259
 4639SOL    HW218555   2.040   0.551   3.530 -0.8546 -0.7551  0.8301
 4639SOL     MW18556   2.076   0.586   3.601 -0.0047  0.1906 -0.0450
 4640SOL     OW18557   5.109   2.028   3.980  0.0555 -0.0443 -0.3853
 4640SOL    HW118558   5.152   1.976   3.912  0.2595  0.9452 -1.0436
 4640SOL    HW218559   5.080   2.107   3.935  0.4836  0.7848  0.7409
 4640SOL     MW18560   5.111   2.031   3.966  0.1364  0.1885 -0.3254
 4641SOL     OW18561   0.640   1.447   2.159  0.1976  0.0019  0.0214
 4641SOL    HW118562   0.679   1.367   2.123  0.9918  0.5561 -0.3694
 4641SOL    HW218563   0.546   1.428   2.162  0.3524 -0.8698 -0.2499
 4641SOL     MW18564   0.633   1.434   2.155  0.3191 -0.0388 -0.0634
 4642SOL     OW18565   0.901   1.538   3.054 -0.2017 -0.2195  0.4674
 4642SOL    HW118566   0.807   1.554   3.059  0.0520  1.8557 -0.3240
 4642SOL    HW218567   0.940   1.610   3.103  1.0024 -1.1342  0.9082
 4642SOL     MW18568   0.894   1.549   3.061 -0.0151 -0.0709  0.4225
 4643SOL     OW18569   4.722   0.689   4.377  0.4536  0.3002  0.3074
 4643SOL    HW118570   4.775   0.613   4.402  0.0548 -0.0686  0.0399
 4643SOL    HW218571   4.650   0.652   4.326  1.2538  1.0118 -1.4423
 4643SOL     MW18572   4.720   0.675   4.373  0.5050  0.3440  0.0492
 4644SOL     OW18573   2.168   3.018   3.615  0.8339 -0.0357 -0.1901
 4644SOL    HW118574   2.239   3.012   3.680  0.0689  1.3246  0.8200
 4644SOL    HW218575   2.088   3.024   3.667  0.1491  0.6119 -1.2769
 4644SOL     MW18576   2.167   3.018   3.630  0.6483  0.2214 -0.1999
 4645SOL     OW18577   3.125   3.569   0.842 -0.1538 -0.4642 -0.2389
 4645SOL    HW118578   3.130   3.579   0.937 -0.9857  0.8278 -0.3185
 4645SOL    HW218579   3.066   3.495   0.829  0.0710 -0.7314  0.2436
 4645SOL     MW18580   3.118   3.560   0.852 -0.2315 -0.3330 -0.1873
 4646SOL     OW18581   3.023   5.435   2.342 -0.5880 -0.1181 -0.3608
 4646SOL    HW118582   3.051   5.470   2.257  0.8137 -0.2175  0.0318
 4646SOL    HW218583   3.102   5.438   2.396 -0.9019 -2.0737  0.2889
 4646SOL     MW18584   3.037   5.440   2.338 -0.4487 -0.3811 -0.2274
 4647SOL     OW18585   2.155   3.899   5.309 -0.2128 -0.4357  0.1018
 4647SOL    HW118586   2.127   3.990   5.315 -1.1421 -0.6570 -0.6482
 4647SOL    HW218587   2.242   3.902   5.269  0.8961  0.2587  2.3793
 4647SOL     MW18588   2.162   3.911   5.305 -0.1898 -0.3751  0.2973
 4648SOL     OW18589   3.115   1.665   0.090 -0.4338 -0.1929  0.3792
 4648SOL    HW118590   3.046   1.622   0.141  0.3573 -0.9324  0.8382
 4648SOL    HW218591   3.081   1.664   0.000  0.0196 -2.8568  0.1415
 4648SOL     MW18592   3.102   1.659   0.085 -0.2745 -0.6286  0.4075
 4649SOL     OW18593   0.404   0.552   4.888 -0.1603  0.1292  0.4175
 4649SOL    HW118594   0.393   0.470   4.839  1.1674 -0.3485  0.8573
 4649SOL    HW218595   0.363   0.535   4.973  1.7565 -0.7954  1.2039
 4649SOL     MW18596   0.397   0.539   4.892  0.2550 -0.0503  0.5744
 4650SOL     OW18597   5.144   4.464   0.365  0.0534  0.0242  0.2307
 4650SOL    HW118598   5.126   4.379   0.324 -0.0005 -0.0272  0.3586
 4650SOL    HW218599   5.238   4.478   0.350  0.1033 -0.1474  0.3735
 4650SOL     MW18600   5.154   4.455   0.358  0.0529 -0.0044  0.2654
 4651SOL     OW18601   0.597   4.363   3.074  0.4137  0.1124  0.0240
 4651SOL    HW118602   0.604   4.376   3.169  0.7676  0.4522 -0.0462
 4651SOL    HW218603   0.538   4.288   3.065 -0.1470  0.4830  0.4922
 4651SOL     MW18604   0.590   4.355   3.085  0.3872  0.2033  0.0750
 4652SOL     OW18605   0.930   1.352   2.140 -0.3928  0.1868  0.3093
 4652SOL    HW118606   0.948   1.260   2.157 -1.4483  0.1641  1.4849
 4652SOL    HW218607   0.940   1.395   2.226  0.0906  1.1718 -0.2161
 4652SOL     MW18608   0.933   1.346   2.153 -0.4660  0.3100  0.3925
 4653SOL     OW18609   2.803   3.125   2.936  0.1515  0.5504  0.4115
 4653SOL    HW118610   2.821   3.144   2.844 -0.3663  2.1332  0.6069
 4653SOL    HW218611   2.878   3.161   2.984  1.0681 -1.4019  0.5771
 4653SOL     MW18612   2.815   3.132   2.930  0.2026  0.5031  0.4577
 4654SOL     OW18613   0.601   0.601   0.285 -0.3068  0.0763 -0.7348
 4654SOL    HW118614   0.599   0.624   0.378  2.2033 -2.4991  0.1236
 4654SOL    HW218615   0.513   0.619   0.254 -1.2771  0.9315  2.1663
 4654SOL     MW18616   0.590   0.606   0.293 -0.1097 -0.1439 -0.2535
 4655SOL     OW18617   4.613   2.194   5.137  0.2261 -0.2624  0.6829
 4655SOL    HW118618   4.521   2.170   5.150 -0.2589  1.2591  0.3781
 4655SOL    HW218619   4.612   2.251   5.061  0.9321  2.2444  2.4061
 4655SOL     MW18620   4.601   2.199   5.129  0.2544  0.2533  0.8644
 4656SOL     OW18621   3.504   1.259   2.377  0.1562  0.2134  0.2336
 4656SOL    HW118622   3.497   1.230   2.285 -0.1959  0.4921  0.1753
 4656SOL    HW218623   3.418   1.243   2.414 -0.1028  1.3772  0.1500
 4656SOL     MW18624   3.492   1.253   2.370  0.0780  0.3980  0.2154
 4657SOL     OW18625   2.622   4.410   2.343  0.0853  0.4393 -0.4151
 4657SOL    HW118626   2.541   4.397   2.292 -0.6569 -0.3382  0.8988
 4657SOL    HW218627   2.678   4.461   2.285 -1.5178  1.4047 -1.2113
 4657SOL     MW18628   2.619   4.415   2.329 -0.2149  0.4633 -0.3489
 4658SOL     OW18629   0.614   4.809   2.878 -0.5157  0.5097  0.1579
 4658SOL    HW118630   0.672   4.885   2.886  0.0680 -0.0304  1.4480
 4658SOL    HW218631   0.534   4.835   2.925 -0.6564  0.6364 -0.1504
 4658SOL     MW18632   0.611   4.822   2.885 -0.4590  0.4568  0.2836
 4659SOL     OW18633   5.038   0.800   0.695 -0.3402  0.0276  0.0051
 4659SOL    HW118634   5.131   0.783   0.710 -0.4498 -0.8992 -0.2920
 4659SOL    HW218635   5.009   0.844   0.774  0.7527  2.0525 -0.6490
 4659SOL     MW18636   5.046   0.803   0.707 -0.2144  0.1682 -0.1167
 4660SOL     OW18637   0.373   4.626   4.857 -0.3513 -0.7418 -0.2083
 4660SOL    HW118638   0.421   4.552   4.894 -0.1774 -0.0104  1.1063
 4660SOL    HW218639   0.295   4.634   4.912 -0.8252 -0.5067 -0.9020
 4660SOL     MW18640   0.369   4.618   4.869 -0.3897 -0.6181 -0.1288
 4661SOL     OW18641   3.978   1.271   4.890 -0.0039 -0.1571  0.3452
 4661SOL    HW118642   3.940   1.192   4.852 -1.2283 -0.4567  2.0573
 4661SOL    HW218643   3.938   1.277   4.977  1.4042  1.3826  0.9387
 4661SOL     MW18644   3.968   1.262   4.897  0.0196  0.0017  0.6404
 4662SOL     OW18645   2.253   2.386   4.634  0.2290 -0.4696  0.1119
 4662SOL    HW118646   2.292   2.300   4.620  2.6889  0.5443  0.1572
 4662SOL    HW218647   2.226   2.416   4.547  2.9705  0.2385 -0.6005
 4662SOL     MW18648   2.255   2.379   4.621  0.8949 -0.2492  0.0265
 4663SOL     OW18649   2.682   2.848   2.906  0.1449  0.2087 -0.4097
 4663SOL    HW118650   2.638   2.772   2.867  1.6011 -1.1449  0.4330
 4663SOL    HW218651   2.662   2.921   2.848  0.9404 -1.3836 -2.8337
 4663SOL     MW18652   2.674   2.847   2.894  0.4331 -0.1684 -0.6121
 4664SOL     OW18653   1.964   3.160   0.564 -0.1359  0.5726  0.5453
 4664SOL    HW118654   1.992   3.251   0.571  0.2084  0.4677  0.5203
 4664SOL    HW218655   1.996   3.132   0.479 -1.7079  0.9364 -0.2099
 4664SOL     MW18656   1.972   3.168   0.554 -0.2930  0.6057  0.4454
 4665SOL     OW18657   5.307   2.570   4.411  0.2765  0.1667 -0.0283
 4665SOL    HW118658   5.215   2.547   4.424  0.2998  0.2399  0.2813
 4665SOL    HW218659   5.333   2.613   4.492  0.3751  0.8339 -0.4045
 4665SOL     MW18660   5.299   2.573   4.423  0.2921  0.2615 -0.0368
 4666SOL     OW18661   1.185   0.267   0.460 -0.1063 -0.0438 -0.3111
 4666SOL    HW118662   1.195   0.357   0.428  0.4884  0.0196  0.0477
 4666SOL    HW218663   1.109   0.270   0.518  0.0447  0.2713 -0.1301
 4666SOL     MW18664   1.176   0.279   0.463 -0.0109  0.0047 -0.2420
 4667SOL     OW18665   2.162   4.358   1.962 -0.3069 -0.6475  0.1344
 4667SOL    HW118666   2.139   4.277   2.009 -0.5329 -2.0197 -2.1657
 4667SOL    HW218667   2.084   4.377   1.910  0.7392 -0.5781 -1.4623
 4667SOL     MW18668   2.149   4.350   1.962 -0.2019 -0.8142 -0.3644
 4668SOL     OW18669   4.278   4.493   0.437 -0.2194 -0.6741  0.8188
 4668SOL    HW118670   4.204   4.467   0.492 -0.2873 -2.3545  0.0070
 4668SOL    HW218671   4.332   4.548   0.493 -1.3877 -0.5314  1.8521
 4668SOL     MW18672   4.275   4.497   0.451 -0.3776 -0.8709  0.8472
 4669SOL     OW18673   1.360   2.808   0.672 -0.0899  0.1676 -0.3463
 4669SOL    HW118674   1.387   2.769   0.756 -0.6675  0.1070 -0.1879
 4669SOL    HW218675   1.321   2.892   0.696  0.0991  0.3281 -0.5921
 4669SOL     MW18676   1.359   2.814   0.686 -0.1396  0.1804 -0.3575
 4670SOL     OW18677   3.538   2.754   0.360 -0.1817 -0.2726 -0.0189
 4670SOL    HW118678   3.550   2.827   0.420  1.0666 -0.9341  0.5816
 4670SOL    HW218679   3.620   2.750   0.310 -0.3239 -1.1043 -0.2049
 4670SOL     MW18680   3.550   2.763   0.361 -0.0401 -0.4638  0.0341
 4671SOL     OW18681   1.505   0.147   5.480  0.0543  0.2124 -0.9405
 4671SOL    HW118682   1.503   0.212   5.550 -0.1459  0.6279 -1.3303
 4671SOL    HW218683   1.515   0.198   5.400 -1.0249 -0.1656 -1.3367
 4671SOL     MW18684   1.506   0.162   5.479 -0.1095  0.2172 -1.0411
 4672SOL     OW18685   5.140   4.062   2.064  0.0903  0.0197  0.7029
 4672SOL    HW118686   5.101   4.101   2.142  0.2930  0.5330  0.5535
 4672SOL    HW218687   5.094   3.979   2.052  1.4571 -1.0835  2.5840
 4672SOL     MW18688   5.129   4.056   2.072  0.2912 -0.0558  0.9246
 4673SOL     OW18689   0.354   5.361   0.023 -0.0568  0.5015 -0.1663
 4673SOL    HW118690   0.369   5.418  -0.052 -2.6321 -1.0997 -2.0774
 4673SOL    HW218691   0.258   5.356   0.031 -0.0446 -3.5149 -0.2013
 4673SOL     MW18692   0.343   5.367   0.014 -0.3849 -0.2176 -0.4154
 4674SOL     OW18693   1.884   2.293   0.935  0.0925  0.3368  0.0379
 4674SOL    HW118694   1.865   2.231   1.005 -0.5317  0.7557  0.2459
 4674SOL    HW218695   1.928   2.366   0.978 -0.0709  0.4854 -0.0444
 4674SOL     MW18696   1.888   2.294   0.949 -0.0083  0.4095  0.0540
 4675SOL     OW18697   0.083   0.826   4.279  0.4345 -0.3346  0.3103
 4675SOL    HW118698   0.082   0.760   4.349 -0.3822 -1.6734 -0.9132
 4675SOL    HW218699   0.109   0.778   4.201 -3.2676 -0.0178 -1.3274
 4675SOL     MW18700   0.086   0.811   4.278 -0.1440 -0.4654 -0.0559
 4676SOL     OW18701   4.473   1.034   3.496  0.1098  0.0148  0.1536
 4676SOL    HW118702   4.397   1.086   3.522 -0.1622 -0.3811  0.1622
 4676SOL    HW218703   4.533   1.041   3.570 -0.5602 -0.9084  0.8203
 4676SOL     MW18704   4.471   1.041   3.509 -0.0108 -0.1540  0.2401
 4677SOL     OW18705   4.963   0.604   5.131  0.0689  0.2506 -0.3669
 4677SOL    HW118706   4.899   0.588   5.201 -0.2417 -1.1289 -0.9283
 4677SOL    HW218707   4.922   0.566   5.053  1.4335 -0.3853 -0.7950
 4677SOL     MW18708   4.949   0.597   5.130  0.2038 -0.0074 -0.4936
 4678SOL     OW18709   4.223   3.192   4.181 -0.0666 -0.5717  0.0454
 4678SOL    HW118710   4.238   3.118   4.240 -0.8888  0.6377  1.8490
 4678SOL    HW218711   4.128   3.194   4.169 -0.1366  0.7004  0.7263
 4678SOL     MW18712   4.213   3.182   4.187 -0.1808 -0.2540  0.3634
 4679SOL     OW18713   3.150   4.745   2.468  0.6072  0.3020 -0.3216
 4679SOL    HW118714   3.134   4.697   2.550  0.0560  0.0330 -0.5825
 4679SOL    HW218715   3.186   4.680   2.409  0.1435  0.2745 -0.5793
 4679SOL     MW18716   3.153   4.731   2.471  0.4773  0.2641 -0.3880
 4680SOL     OW18717   3.720   5.302   0.226  0.1922  0.0117 -0.1169
 4680SOL    HW118718   3.670   5.377   0.193 -0.5560 -0.4337 -0.0317
 4680SOL    HW218719   3.718   5.239   0.154  1.6914  0.4444 -0.5816
 4680SOL     MW18720   3.713   5.304   0.213  0.2883  0.0101 -0.1655
 4681SOL     OW18721   2.147   1.661   3.892  0.9082  0.1653 -0.0154
 4681SOL    HW118722   2.117   1.655   3.801  1.0067  1.4608 -0.1511
 4681SOL    HW218723   2.221   1.722   3.889 -0.0987  1.5199  1.1385
 4681SOL     MW18724   2.153   1.668   3.880  0.7919  0.5046  0.1150
 4682SOL     OW18725   1.696   0.640   5.158  0.1493 -0.2685  0.4895
 4682SOL    HW118726   1.724   0.638   5.250  2.8693  1.4999 -0.1627
 4682SOL    HW218727   1.751   0.574   5.116 -0.9678 -0.9553  0.0921
 4682SOL     MW18728   1.707   0.631   5.165  0.3545 -0.1300  0.3552
 4683SOL     OW18729   2.452   4.260   4.710  0.0142 -0.4792 -0.4200
 4683SOL    HW118730   2.520   4.245   4.775  0.1755 -1.8987 -0.8704
 4683SOL    HW218731   2.421   4.172   4.688 -1.4000  0.0911 -0.8192
 4683SOL     MW18732   2.457   4.247   4.715 -0.1462 -0.5879 -0.5288
 4684SOL     OW18733   1.046   4.153   0.816 -0.0125 -0.4756 -0.1914
 4684SOL    HW118734   1.092   4.102   0.882 -0.5318 -0.3298  0.2872
 4684SOL    HW218735   1.114   4.207   0.776  0.2837 -0.4777  0.3055
 4684SOL     MW18736   1.061   4.154   0.819 -0.0411 -0.4572 -0.0665
 4685SOL     OW18737   3.099   2.578   1.360  0.1271  0.8368  0.1096
 4685SOL    HW118738   3.153   2.532   1.424  0.8075  0.6841 -0.5592
 4685SOL    HW218739   3.160   2.635   1.313 -0.6583  2.2640  0.7630
 4685SOL     MW18740   3.114   2.579   1.362  0.1136  0.9999  0.1077
 4686SOL     OW18741   0.135   3.368   4.589 -0.3412 -0.0710  0.0100
 4686SOL    HW118742   0.085   3.376   4.508 -0.1613 -0.8777 -0.1874
 4686SOL    HW218743   0.211   3.425   4.577  0.1786 -0.9054 -0.7791
 4686SOL     MW18744   0.138   3.376   4.577 -0.2516 -0.2811 -0.1163
 4687SOL     OW18745   1.958   5.307   4.552 -0.1951  0.1545 -0.4185
 4687SOL    HW118746   1.984   5.371   4.618 -0.3377  0.7693 -0.9481
 4687SOL    HW218747   1.949   5.224   4.601  1.6518  0.1427 -0.0076
 4687SOL     MW18748   1.960   5.304   4.567  0.0231  0.2317 -0.4337
 4688SOL     OW18749   4.594   0.715   0.729 -0.0198  0.7158  0.3125
 4688SOL    HW118750   4.641   0.662   0.792 -0.1949 -0.7774 -0.7638
 4688SOL    HW218751   4.648   0.712   0.650 -0.5606  1.2788 -0.0913
 4688SOL     MW18752   4.607   0.708   0.727 -0.1114  0.5967  0.1230
 4689SOL     OW18753   1.886   2.375   5.438  0.1741 -0.4082 -0.0904
 4689SOL    HW118754   1.976   2.356   5.414  0.3713  0.4253 -0.0440
 4689SOL    HW218755   1.891   2.410   5.527 -0.1085  0.3432 -0.3617
 4689SOL     MW18756   1.898   2.377   5.446  0.1632 -0.2053 -0.1192
 4690SOL     OW18757   1.060   1.956   3.504  0.4931 -0.1498  0.2768
 4690SOL    HW118758   1.142   1.989   3.542  0.2334 -0.4602  1.1279
 4690SOL    HW218759   1.088   1.903   3.429  1.0010  0.6887 -0.1508
 4690SOL     MW18760   1.074   1.953   3.499  0.5248 -0.0822  0.3310
 4691SOL     OW18761   1.762   1.394   4.533  0.4418 -0.5860 -0.7780
 4691SOL    HW118762   1.717   1.429   4.457  2.1189  1.8332 -0.7567
 4691SOL    HW218763   1.704   1.413   4.607 -0.2328 -1.0387 -1.1835
 4691SOL     MW18764   1.749   1.401   4.533  0.5701 -0.3343 -0.8272
 4692SOL     OW18765   2.555   3.739   1.454  0.3203  0.0767  0.2119
 4692SOL    HW118766   2.499   3.808   1.417  1.2054  0.2989 -0.7794
 4692SOL    HW218767   2.512   3.714   1.536 -1.3099  0.1296 -0.5763
 4692SOL     MW18768   2.542   3.744   1.459  0.2249  0.1119 -0.0159
 4693SOL     OW18769   0.269   2.868   0.353 -0.4758  0.5698 -0.1906
 4693SOL    HW118770   0.327   2.796   0.331  0.4652  1.5393 -0.9564
 4693SOL    HW218771   0.200   2.865   0.286 -0.5837  0.2372 -0.0674
 4693SOL     MW18772   0.267   2.858   0.341 -0.3692  0.6514 -0.2728
 4694SOL     OW18773   0.103   5.321   2.560  0.4138  0.2421  0.5225
 4694SOL    HW118774   0.046   5.274   2.621  1.4940 -1.4953  0.2228
 4694SOL    HW218775   0.095   5.273   2.478  1.4954  0.6297  0.1831
 4694SOL     MW18776   0.094   5.309   2.557  0.6905  0.0693  0.4407
 4695SOL     OW18777   3.814   4.572   4.712  0.3175 -0.1339 -0.1582
 4695SOL    HW118778   3.758   4.594   4.638  0.5135  1.9531  0.2507
 4695SOL    HW218779   3.857   4.655   4.735  0.4611 -0.7719  2.1092
 4695SOL     MW18780   3.812   4.586   4.706  0.3609  0.0515  0.1844
 4696SOL     OW18781   1.899   0.612   3.819  0.1116 -0.5171  0.5241
 4696SOL    HW118782   1.877   0.704   3.831 -0.5547 -0.9041  2.5583
 4696SOL    HW218783   1.814   0.568   3.815  0.3975 -1.0079 -1.2654
 4696SOL     MW18784   1.885   0.618   3.820  0.0629 -0.6295  0.5555
 4697SOL     OW18785   1.003   4.083   1.703 -0.0666 -0.1583 -0.1532
 4697SOL    HW118786   1.042   3.997   1.689  0.5252  0.2298 -1.0120
 4697SOL    HW218787   1.068   4.144   1.668 -0.4240  0.6477  0.5582
 4697SOL     MW18788   1.016   4.080   1.697 -0.0366 -0.0055 -0.1721
 4698SOL     OW18789   1.631   3.870   0.690  0.0700  0.1854  0.1064
 4698SOL    HW118790   1.604   3.955   0.724 -0.8077 -0.0643  0.0733
 4698SOL    HW218791   1.596   3.868   0.600  1.1831  0.2934 -0.3424
 4698SOL     MW18792   1.623   3.880   0.683  0.1001  0.1673  0.0447
 4699SOL     OW18793   2.036   2.975   4.660  0.1608 -0.0134  0.4891
 4699SOL    HW118794   2.076   2.954   4.575  1.0825 -1.1320  1.1695
 4699SOL    HW218795   1.950   3.011   4.638  0.1449 -0.8317 -0.8976
 4699SOL     MW18796   2.030   2.977   4.646  0.2767 -0.2614  0.3987
 4700SOL     OW18797   3.222   1.250   4.222  0.0499  0.2066  0.1645
 4700SOL    HW118798   3.263   1.213   4.300  0.5832  0.3291 -0.0521
 4700SOL    HW218799   3.143   1.293   4.254  0.8841  1.3092  0.8183
 4700SOL     MW18800   3.217   1.251   4.236  0.2250  0.3635  0.2205
 4701SOL     OW18801   1.406   1.747   2.618 -0.2757  0.3684 -0.2388
 4701SOL    HW118802   1.422   1.662   2.659 -1.4470 -0.3819 -1.2747
 4701SOL    HW218803   1.477   1.757   2.555 -0.9241 -0.5442 -1.1472
 4701SOL     MW18804   1.417   1.737   2.615 -0.5087  0.1556 -0.4877
 4702SOL     OW18805   5.230   3.454   4.701 -0.0364  0.2302 -0.0141
 4702SOL    HW118806   5.269   3.417   4.780  1.7231  0.4065 -0.7557
 4702SOL    HW218807   5.206   3.378   4.648  0.3138  0.1116 -0.0078
 4702SOL     MW18808   5.232   3.440   4.704  0.2337  0.2376 -0.1083
 4703SOL     OW18809   4.110   1.346   4.443  0.3538 -0.7295  0.0094
 4703SOL    HW118810   4.166   1.282   4.487  1.8630 -0.0647 -0.8391
 4703SOL    HW218811   4.110   1.318   4.352 -1.7198 -1.3797  0.1587
 4703SOL     MW18812   4.117   1.334   4.437  0.2815 -0.7277 -0.0801
 4704SOL     OW18813   0.462   2.243   4.683 -0.4079  0.6209 -0.2455
 4704SOL    HW118814   0.506   2.173   4.730  0.6961 -0.2735 -2.4594
 4704SOL    HW218815   0.478   2.321   4.736  2.6423  0.0753 -0.1745
 4704SOL     MW18816   0.470   2.244   4.696  0.1239  0.4365 -0.5198
 4705SOL     OW18817   5.192   1.734   1.214 -0.3981  0.0173 -0.1046
 4705SOL    HW118818   5.215   1.684   1.136  0.5854  0.0385  0.1647
 4705SOL    HW218819   5.155   1.668   1.274  0.0912 -0.2387 -0.0791
 4705SOL     MW18820   5.190   1.719   1.212 -0.2096 -0.0127 -0.0668
 4706SOL     OW18821   0.864   2.621   3.000 -0.1353  0.0716 -0.3455
 4706SOL    HW118822   0.958   2.610   2.982  0.0444 -4.3686  1.8151
 4706SOL    HW218823   0.861   2.638   3.095 -1.5550  1.5780 -0.6224
 4706SOL     MW18824   0.876   2.622   3.010 -0.2940 -0.3040 -0.1044
 4707SOL     OW18825   4.504   0.378   2.002 -0.2474 -0.3573 -0.9275
 4707SOL    HW118826   4.416   0.415   2.001 -0.0922  0.5417  3.1429
 4707SOL    HW218827   4.490   0.284   2.014 -0.8240  0.0162  2.1122
 4707SOL     MW18828   4.491   0.370   2.003 -0.3013 -0.1944 -0.0173
 4708SOL     OW18829   4.950   2.903   2.758 -0.3043 -0.1766  0.2158
 4708SOL    HW118830   4.953   2.826   2.701 -0.4136  0.2706 -0.4145
 4708SOL    HW218831   4.869   2.948   2.732 -0.6371 -0.2363  1.1020
 4708SOL     MW18832   4.940   2.899   2.747 -0.3609 -0.1270  0.2486
 4709SOL     OW18833   4.922   1.497   1.603  0.2784  0.1016  0.0959
 4709SOL    HW118834   4.828   1.514   1.617  0.8661  2.3813  1.8797
 4709SOL    HW218835   4.937   1.412   1.644 -1.1617 -0.8071 -1.1379
 4709SOL     MW18836   4.912   1.488   1.610  0.1692  0.2771  0.1663
 4710SOL     OW18837   0.540   4.136   4.429  0.4158  0.0253 -0.3046
 4710SOL    HW118838   0.630   4.147   4.460  0.5800  2.3393 -1.4557
 4710SOL    HW218839   0.524   4.211   4.373 -2.0769 -0.6259 -0.5778
 4710SOL     MW18840   0.549   4.147   4.426  0.1178  0.2381 -0.4869
 4711SOL     OW18841   2.803   1.716   1.983 -0.3653  0.0714  0.0340
 4711SOL    HW118842   2.745   1.781   2.023  0.8024 -0.4278  2.7744
 4711SOL    HW218843   2.891   1.741   2.013  0.1919 -2.2810  0.5465
 4711SOL     MW18844   2.807   1.728   1.992 -0.1445 -0.2937  0.4504
 4712SOL     OW18845   2.184   1.886   2.689 -0.1584  0.2378 -0.0128
 4712SOL    HW118846   2.122   1.949   2.726 -0.8825 -0.2577 -0.3493
 4712SOL    HW218847   2.176   1.809   2.745  1.1736  0.6465  0.7672
 4712SOL     MW18848   2.175   1.884   2.701 -0.0806  0.2267  0.0440
 4713SOL     OW18849   4.599   1.190   4.351  0.4102  0.0804 -0.4662
 4713SOL    HW118850   4.660   1.156   4.285  0.6432 -1.0499  0.2991
 4713SOL    HW218851   4.655   1.230   4.417  0.2609  0.0673 -0.3319
 4713SOL     MW18852   4.614   1.191   4.351  0.4209 -0.0660 -0.3511
 4714SOL     OW18853   3.263   3.746   2.490 -0.3715  0.2980 -0.1386
 4714SOL    HW118854   3.307   3.692   2.424 -2.3789 -0.4197 -0.9672
 4714SOL    HW218855   3.312   3.828   2.491  1.4490 -0.7367 -0.4035
 4714SOL     MW18856   3.275   3.749   2.482 -0.3954  0.0737 -0.2786
 4715SOL     OW18857   3.308   0.253   1.807 -0.2672 -0.1298 -0.1903
 4715SOL    HW118858   3.307   0.330   1.749  1.3362  0.1901  0.1619
 4715SOL    HW218859   3.281   0.180   1.751 -1.6918  0.6375 -0.5634
 4715SOL     MW18860   3.304   0.254   1.792 -0.2443  0.0094 -0.1930
 4716SOL     OW18861   1.829   0.029   1.983 -0.1593  0.1940 -0.1443
 4716SOL    HW118862   1.842   0.123   1.989 -0.2889  0.1772  0.4507
 4716SOL    HW218863   1.751   0.012   2.035 -0.5646 -0.1567 -0.8403
 4716SOL     MW18864   1.821   0.039   1.990 -0.2278  0.1469 -0.1572
 4717SOL     OW18865   0.837   0.643   2.673 -0.1630 -0.0362  0.4521
 4717SOL    HW118866   0.874   0.706   2.734  0.1268 -0.2748  0.5238
 4717SOL    HW218867   0.785   0.696   2.612 -0.3719  0.2120  0.8414
 4717SOL     MW18868   0.835   0.657   2.673 -0.1526 -0.0350  0.5111
 4718SOL     OW18869   0.494   1.052   4.531 -0.3112 -0.3611  0.2186
 4718SOL    HW118870   0.489   1.137   4.488  2.2096  0.6617  1.7046
 4718SOL    HW218871   0.418   1.049   4.589 -0.5773  0.7871 -0.0528
 4718SOL     MW18872   0.484   1.062   4.533 -0.0226 -0.0832  0.3741
 4719SOL     OW18873   2.368   0.429   4.986  0.1876 -0.3064  0.0569
 4719SOL    HW118874   2.403   0.344   5.010  2.0258  0.1996 -0.6289
 4719SOL    HW218875   2.400   0.489   5.054 -1.0236 -0.1410  0.4930
 4719SOL     MW18876   2.377   0.426   4.997  0.2679 -0.2204  0.0249
 4720SOL     OW18877   1.226   4.375   1.136  0.1356  0.3531 -0.7209
 4720SOL    HW118878   1.255   4.313   1.069  1.0809 -0.4697  0.4000
 4720SOL    HW218879   1.163   4.432   1.091  0.1792 -0.6359 -2.0940
 4720SOL     MW18880   1.222   4.375   1.122  0.2622  0.1212 -0.7532
 4721SOL     OW18881   1.596   2.561   5.458  0.3598 -0.3926 -0.7904
 4721SOL    HW118882   1.667   2.620   5.485 -0.2500 -0.1510  0.3342
 4721SOL    HW218883   1.631   2.515   5.382  0.8819  1.3420 -1.6398
 4721SOL     MW18884   1.610   2.563   5.452  0.3486 -0.1396 -0.7552
 4722SOL     OW18885   2.862   0.814   3.565  0.1121 -0.3014  0.0448
 4722SOL    HW118886   2.851   0.753   3.492  1.1332  0.6687 -0.9615
 4722SOL    HW218887   2.957   0.815   3.581 -0.0787 -0.3362  1.2571
 4722SOL     MW18888   2.873   0.806   3.558  0.2184 -0.1817  0.0712
 4723SOL     OW18889   3.236   2.529   4.191  0.9736 -0.3683 -0.2977
 4723SOL    HW118890   3.161   2.503   4.246  1.0146 -2.2704 -1.0586
 4723SOL    HW218891   3.197   2.550   4.106  1.0759  1.0881 -0.0087
 4723SOL     MW18892   3.221   2.528   4.187  0.9919 -0.4254 -0.3581
 4724SOL     OW18893   0.951   1.363   2.402  0.1190 -0.4525  0.0693
 4724SOL    HW118894   0.962   1.270   2.381 -1.8832 -0.8685  0.6582
 4724SOL    HW218895   0.857   1.373   2.418  0.0907  1.9424 -1.1592
 4724SOL     MW18896   0.941   1.352   2.402 -0.1409 -0.1992 -0.0126
 4725SOL     OW18897   4.988   1.469   4.798  0.1977 -0.4328  0.1975
 4725SOL    HW118898   5.071   1.489   4.754  1.7316 -0.8850  2.6831
 4725SOL    HW218899   4.939   1.551   4.795  1.8557  0.6426  0.8487
 4725SOL     MW18900   4.993   1.482   4.792  0.6063 -0.3530  0.5991
 4726SOL     OW18901   2.493   3.384   2.579  0.3967  0.6259  0.0435
 4726SOL    HW118902   2.567   3.440   2.600  1.0411  0.4546 -1.5948
 4726SOL    HW218903   2.431   3.441   2.533  0.1293  0.4428  0.1683
 4726SOL     MW18904   2.494   3.398   2.576  0.4449  0.5805 -0.1503
 4727SOL     OW18905   3.553   0.505   4.404 -0.0514  0.7766 -0.1457
 4727SOL    HW118906   3.635   0.481   4.361  0.0363  1.5703 -0.4387
 4727SOL    HW218907   3.576   0.580   4.459 -0.6071  1.1042 -0.3470
 4727SOL     MW18908   3.566   0.512   4.406 -0.1113  0.9202 -0.2089
 4728SOL     OW18909   1.155   2.809   0.926 -0.1072 -0.0322 -0.3225
 4728SOL    HW118910   1.090   2.810   0.857 -0.3256 -0.4441 -0.1277
 4728SOL    HW218911   1.214   2.737   0.902 -0.3735 -0.3911  0.0879
 4728SOL     MW18912   1.154   2.800   0.914 -0.1693 -0.1309 -0.2450
 4729SOL     OW18913   2.637   2.812   3.509  0.0615 -0.2641 -0.3487
 4729SOL    HW118914   2.570   2.848   3.451 -1.5584 -1.6000  0.5911
 4729SOL    HW218915   2.677   2.740   3.459  0.0449 -0.1597 -0.5127
 4729SOL     MW18916   2.634   2.807   3.495 -0.1480 -0.4218 -0.2494
 4730SOL     OW18917   2.149   1.355   1.855  0.0772 -0.4055  0.5473
 4730SOL    HW118918   2.112   1.318   1.775 -0.9116 -0.8759  1.1966
 4730SOL    HW218919   2.078   1.346   1.920  1.0228 -0.4968  1.5949
 4730SOL     MW18920   2.135   1.349   1.853  0.0717 -0.4774  0.7645
 4731SOL     OW18921   2.143   4.108   4.053  0.2591 -0.4661  0.3175
 4731SOL    HW118922   2.211   4.068   3.999 -0.0579 -0.8977  0.2322
 4731SOL    HW218923   2.118   4.187   4.006  1.2246  0.1093  0.7229
 4731SOL     MW18924   2.149   4.113   4.040  0.3421 -0.4477  0.3585
 4732SOL     OW18925   3.565   5.439   0.487 -0.5236 -0.1498  0.0346
 4732SOL    HW118926   3.650   5.397   0.476 -0.0869  0.4956  0.8453
 4732SOL    HW218927   3.583   5.532   0.482 -1.4292 -0.0122 -1.3596
 4732SOL     MW18928   3.578   5.445   0.485 -0.5836 -0.0495 -0.0401
 4733SOL     OW18929   4.484   4.349   1.144  0.0586  0.5923  0.3213
 4733SOL    HW118930   4.536   4.329   1.066 -1.5968  1.0846 -0.9743
 4733SOL    HW218931   4.447   4.265   1.171  0.7252  0.4020  0.6867
 4733SOL     MW18932   4.486   4.336   1.138 -0.0680  0.6310  0.2022
 4734SOL     OW18933   1.445   0.181   1.742 -0.5137 -0.0997  0.1549
 4734SOL    HW118934   1.470   0.222   1.824  1.6177  2.0981 -1.4325
 4734SOL    HW218935   1.371   0.233   1.710  0.7482  1.1815 -0.7917
 4734SOL     MW18936   1.439   0.193   1.748 -0.0793  0.3456 -0.1694
 4735SOL     OW18937   1.877   2.417   4.944 -0.2901 -0.0832 -0.3546
 4735SOL    HW118938   1.860   2.492   4.887  0.2983  0.2879 -0.0420
 4735SOL    HW218939   1.808   2.354   4.921 -1.5729  1.0472  0.2784
 4735SOL     MW18940   1.866   2.419   4.934 -0.3790  0.1090 -0.2335
 4736SOL     OW18941   3.577   4.043   3.276  0.3380 -0.1053  0.0410
 4736SOL    HW118942   3.627   4.009   3.201  1.2341 -0.7795  0.9116
 4736SOL    HW218943   3.567   4.136   3.258 -1.2371 -0.5854 -1.8947
 4736SOL     MW18944   3.582   4.050   3.264  0.2511 -0.2531 -0.0954
 4737SOL     OW18945   1.119   2.291   0.516  0.1200  0.3243 -0.1860
 4737SOL    HW118946   1.036   2.277   0.471  0.1832  1.2022 -0.5822
 4737SOL    HW218947   1.162   2.205   0.514 -0.5002  0.0158 -0.5224
 4737SOL     MW18948   1.114   2.278   0.510  0.0487  0.3972 -0.2797
 4738SOL     OW18949   3.230   0.071   5.318  0.1028 -0.1698 -0.2104
 4738SOL    HW118950   3.277   0.152   5.339  0.3610 -0.6726  1.2492
 4738SOL    HW218951   3.203   0.082   5.226  3.1511  0.0597 -1.1759
 4738SOL     MW18952   3.232   0.083   5.309  0.5261 -0.2048 -0.1472
 4739SOL     OW18953   1.863   0.203   4.966 -0.1277  0.2696  0.3526
 4739SOL    HW118954   1.830   0.164   5.047 -1.0051  0.0298 -0.1033
 4739SOL    HW218955   1.858   0.298   4.981  1.2464  0.2465  1.1609
 4739SOL     MW18956   1.858   0.210   4.978 -0.0641  0.2359  0.3977
 4740SOL     OW18957   2.886   1.757   3.453  0.7398  0.4095  0.3148
 4740SOL    HW118958   2.922   1.767   3.541  2.3657 -1.0323 -0.1134
 4740SOL    HW218959   2.791   1.750   3.467  0.8615  1.2498  1.8262
 4740SOL     MW18960   2.878   1.757   3.466  0.9635  0.3325  0.4535
 4741SOL     OW18961   3.755   2.215   1.321  0.2158 -0.1490  0.5761
 4741SOL    HW118962   3.666   2.249   1.315 -0.3983 -1.8217 -0.4285
 4741SOL    HW218963   3.765   2.160   1.243  1.4851 -1.4618  1.6096
 4741SOL     MW18964   3.745   2.213   1.310  0.2997 -0.5312  0.5798
 4742SOL     OW18965   2.347   1.026   3.654  0.4074  0.1688  0.2983
 4742SOL    HW118966   2.427   0.990   3.616  2.5582  2.6998  2.0822
 4742SOL    HW218967   2.339   1.113   3.613 -1.3780  0.0127  0.2609
 4742SOL     MW18968   2.356   1.033   3.644  0.4542  0.4728  0.5219
 4743SOL     OW18969   5.216   3.013   2.140  0.1910 -0.4721 -0.3039
 4743SOL    HW118970   5.148   2.976   2.196  0.8625 -0.3817  0.5925
 4743SOL    HW218971   5.298   2.997   2.188  0.7223  0.1051 -1.0001
 4743SOL     MW18972   5.218   3.006   2.153  0.3450 -0.3866 -0.2783
 4744SOL     OW18973   3.321   2.812   3.718  0.0112 -0.2121  0.0744
 4744SOL    HW118974   3.233   2.788   3.687  0.2262  1.4649 -2.0544
 4744SOL    HW218975   3.311   2.900   3.754  1.0946  0.7660 -1.8742
 4744SOL     MW18976   3.308   2.820   3.719  0.1774  0.1278 -0.4476
 4745SOL     OW18977   1.073   3.183   3.269  0.0805 -0.6682 -0.7775
 4745SOL    HW118978   1.036   3.095   3.261  0.1566 -0.6733 -1.0842
 4745SOL    HW218979   1.056   3.208   3.360  1.3328 -1.5671 -0.2681
 4745SOL     MW18980   1.066   3.175   3.280  0.2506 -0.7839 -0.7516
 4746SOL     OW18981   1.885   4.713   1.910  0.1527  0.1348 -0.0456
 4746SOL    HW118982   1.893   4.721   2.005 -1.7271  0.4071  0.1419
 4746SOL    HW218983   1.799   4.752   1.890 -0.6749 -2.2178 -1.5230
 4746SOL     MW18984   1.875   4.719   1.920 -0.1939 -0.1315 -0.2107
 4747SOL     OW18985   4.668   0.336   4.940 -0.1889 -0.1332 -0.5828
 4747SOL    HW118986   4.624   0.344   4.855  0.4811 -1.3733 -1.0793
 4747SOL    HW218987   4.739   0.400   4.936 -0.6862  0.4251 -0.6004
 4747SOL     MW18988   4.672   0.345   4.929 -0.1668 -0.2204 -0.6486
 4748SOL     OW18989   1.454   1.301   0.919 -0.0143 -0.3690 -0.5515
 4748SOL    HW118990   1.493   1.386   0.897 -2.2243  0.6161 -0.9878
 4748SOL    HW218991   1.527   1.247   0.947  1.7704  1.0283 -2.2374
 4748SOL     MW18992   1.468   1.305   0.920 -0.0688 -0.0640 -0.8232
 4749SOL     OW18993   0.594   4.273   1.932 -0.5694  0.1106  0.4610
 4749SOL    HW118994   0.668   4.311   1.884 -0.6120 -0.6222 -0.1919
 4749SOL    HW218995   0.614   4.291   2.024  0.3154  0.1161  0.2769
 4749SOL     MW18996   0.606   4.280   1.938 -0.4616  0.0175  0.3539
 4750SOL     OW18997   2.763   0.843   0.404  0.2751 -0.5343 -0.0341
 4750SOL    HW118998   2.672   0.831   0.378  0.0683  1.0101 -0.1237
 4750SOL    HW218999   2.760   0.863   0.497  0.2614  1.7867 -0.4698
 4750SOL     MW19000   2.751   0.844   0.412  0.2469 -0.0395 -0.1013
 4751SOL     OW19001   2.544   3.411   1.108  0.2538 -0.3670  0.0354
 4751SOL    HW119002   2.489   3.474   1.063 -1.0731 -0.9694  0.7757
 4751SOL    HW219003   2.573   3.457   1.187  0.4321 -0.2221 -0.1118
 4751SOL     MW19004   2.541   3.425   1.112  0.1068 -0.4255  0.1113
 4752SOL     OW19005   0.549   1.622   1.389  0.0842  0.0297 -0.1837
 4752SOL    HW119006   0.506   1.633   1.474  0.6246 -2.5199  0.4963
 4752SOL    HW219007   0.524   1.700   1.339 -1.1396  1.0649  1.9175
 4752SOL     MW19008   0.540   1.634   1.394 -0.0033 -0.1642  0.1724
 4753SOL     OW19009   0.914   2.196   2.552 -0.2586 -0.2451  0.4877
 4753SOL    HW119010   0.926   2.118   2.606  0.0511 -2.0132 -1.9830
 4753SOL    HW219011   0.826   2.187   2.515  0.1282  0.0587 -0.5655
 4753SOL     MW19012   0.904   2.185   2.554 -0.1694 -0.4326  0.0366
 4754SOL     OW19013   5.100   5.301   0.821  0.1524  0.3863 -0.2366
 4754SOL    HW119014   5.076   5.242   0.750 -0.0854  1.0830 -0.7419
 4754SOL    HW219015   5.078   5.389   0.789 -3.4621  0.5121  2.0351
 4754SOL     MW19016   5.094   5.305   0.808 -0.3408  0.4916 -0.0105
 4755SOL     OW19017   0.915   2.997   4.267 -0.4985  0.1967 -0.0286
 4755SOL    HW119018   0.855   2.978   4.195 -0.9604  0.4643  0.2756
 4755SOL    HW219019   0.940   3.088   4.253 -0.7540  0.3142  0.2601
 4755SOL     MW19020   0.911   3.006   4.256 -0.5904  0.2460  0.0473
 4756SOL     OW19021   3.506   3.670   3.590 -0.9656  0.1413 -0.0659
 4756SOL    HW119022   3.497   3.579   3.561  0.1711 -0.3573  1.0338
 4756SOL    HW219023   3.437   3.681   3.655 -0.6613 -0.1606  0.3106
 4756SOL     MW19024   3.496   3.660   3.594 -0.7811  0.0388  0.1231
 4757SOL     OW19025   2.992   2.056   2.844  0.4341 -0.1509 -0.4386
 4757SOL    HW119026   3.079   2.091   2.826  0.4821  0.2369  0.5169
 4757SOL    HW219027   3.006   1.963   2.858  0.8134  0.0425  0.4994
 4757SOL     MW19028   3.005   2.049   2.843  0.4888 -0.0765 -0.1962
 4758SOL     OW19029   2.530   4.528   5.463 -0.0908  0.4848  0.1814
 4758SOL    HW119030   2.558   4.526   5.555 -1.7244 -0.3528  0.7121
 4758SOL    HW219031   2.575   4.454   5.423 -0.4851 -0.0443  0.6921
 4758SOL     MW19032   2.539   4.518   5.470 -0.3504  0.3098  0.3147
 4759SOL     OW19033   0.831   4.672   3.559 -0.0361 -0.5666 -0.2505
 4759SOL    HW119034   0.870   4.629   3.635 -1.4074 -0.9553  0.2543
 4759SOL    HW219035   0.861   4.619   3.485  0.3279 -0.8986  0.1262
 4759SOL     MW19036   0.840   4.660   3.559 -0.1650 -0.6589 -0.1376
 4760SOL     OW19037   1.007   4.668   2.412  0.0916 -0.3000 -0.2668
 4760SOL    HW119038   1.042   4.605   2.475 -0.2802  0.4251  0.6979
 4760SOL    HW219039   1.044   4.642   2.328 -0.6620 -2.2571 -0.0309
 4760SOL     MW19040   1.017   4.657   2.410 -0.0524 -0.4577 -0.1131
 4761SOL     OW19041   4.040   2.812   0.864  0.2343  0.5801 -0.1844
 4761SOL    HW119042   4.068   2.858   0.785 -0.7548  0.7334 -0.4667
 4761SOL    HW219043   4.119   2.802   0.916  1.3004 -1.2048 -2.0208
 4761SOL     MW19044   4.054   2.816   0.860  0.2441  0.3712 -0.4556
 4762SOL     OW19045   2.646   0.307   4.315  0.5649  0.4044 -0.3479
 4762SOL    HW119046   2.682   0.255   4.387  0.6929  0.9410 -0.0209
 4762SOL    HW219047   2.714   0.305   4.248 -0.0878 -1.2233 -1.0296
 4762SOL     MW19048   2.659   0.300   4.316  0.4977  0.2648 -0.3933
 4763SOL     OW19049   0.997   3.347   0.100 -0.1023 -0.1707  0.3481
 4763SOL    HW119050   0.930   3.356   0.032 -0.3106  2.2060  0.8015
 4763SOL    HW219051   0.967   3.402   0.172  1.8324  0.1240  0.9901
 4763SOL     MW19052   0.985   3.355   0.101  0.1187  0.1713  0.4883
 4764SOL     OW19053   4.333   0.442   0.611 -0.1579  0.3998  0.5226
 4764SOL    HW119054   4.297   0.521   0.653  0.6086 -0.0682  2.1484
 4764SOL    HW219055   4.347   0.381   0.683 -1.0867 -1.4071 -0.7510
 4764SOL     MW19056   4.330   0.445   0.625 -0.1787  0.1086  0.5677
 4765SOL     OW19057   4.567   4.038   4.841  0.0485 -0.3349 -0.0454
 4765SOL    HW119058   4.561   4.066   4.932  1.6944 -1.1417  0.3495
 4765SOL    HW219059   4.564   3.942   4.845 -1.0489 -0.3464 -0.9514
 4765SOL     MW19060   4.566   4.029   4.853  0.1187 -0.4396 -0.1109
 4766SOL     OW19061   5.285   3.161   0.291  0.3507  0.1874 -0.0585
 4766SOL    HW119062   5.272   3.099   0.219  0.2611 -1.1033  1.0340
 4766SOL    HW219063   5.214   3.225   0.280 -1.1061 -1.3104  0.2224
 4766SOL     MW19064   5.274   3.161   0.280  0.1527 -0.1695  0.1173
 4767SOL     OW19065   5.379   1.942   5.314  0.1932 -0.0434 -0.4855
 4767SOL    HW119066   5.286   1.921   5.315  0.2908 -0.5943 -1.6877
 4767SOL    HW219067   5.385   2.028   5.356 -0.7981 -0.2040 -0.0066
 4767SOL     MW19068   5.368   1.951   5.319  0.0788 -0.1345 -0.5781
 4768SOL     OW19069   2.952   0.630   1.452  0.2494  0.0087  0.6988
 4768SOL    HW119070   2.941   0.686   1.375 -1.3813 -0.2272  0.7128
 4768SOL    HW219071   2.973   0.690   1.523  0.9282  0.3215  0.2430
 4768SOL     MW19072   2.953   0.645   1.451  0.1275  0.0185  0.6422
 4769SOL     OW19073   4.233   5.374   4.919 -0.3714 -0.3522  0.0199
 4769SOL    HW119074   4.203   5.440   4.857  1.5258 -0.7672 -1.4093
 4769SOL    HW219075   4.225   5.291   4.873 -0.3791 -0.8577  0.8968
 4769SOL     MW19076   4.228   5.372   4.905 -0.1296 -0.4700 -0.0508
 4770SOL     OW19077   1.230   0.600   3.801 -0.3183 -0.0310  0.6267
 4770SOL    HW119078   1.294   0.614   3.870 -0.5252  2.5568  0.3613
 4770SOL    HW219079   1.276   0.545   3.737  0.6647 -0.5110  1.7024
 4770SOL     MW19080   1.244   0.594   3.801 -0.2190  0.2388  0.7304
 4771SOL     OW19081   3.083   2.194   5.105 -0.3732 -0.1257  0.1205
 4771SOL    HW119082   3.050   2.138   5.034 -0.9561  1.4813 -0.9325
 4771SOL    HW219083   3.176   2.172   5.111 -0.4875 -0.8594 -0.5998
 4771SOL     MW19084   3.091   2.184   5.096 -0.4624 -0.0139 -0.1065
 4772SOL     OW19085   2.253   5.070   4.549  0.1405  0.0058 -0.5262
 4772SOL    HW119086   2.341   5.053   4.516 -0.1900 -0.8695 -0.9898
 4772SOL    HW219087   2.195   5.027   4.486 -0.7620  2.5511 -1.5477
 4772SOL     MW19088   2.257   5.062   4.536 -0.0173  0.2196 -0.7163
 4773SOL     OW19089   5.156   2.852   4.606  0.2416 -0.1062 -0.0694
 4773SOL    HW119090   5.152   2.847   4.702 -0.1435 -1.6847 -0.1257
 4773SOL    HW219091   5.071   2.818   4.577 -0.1866  1.6541 -0.9720
 4773SOL     MW19092   5.144   2.847   4.615  0.1375 -0.0830 -0.1922
 4774SOL     OW19093   0.433   0.103   3.847 -0.2642 -0.2713  0.0468
 4774SOL    HW119094   0.527   0.110   3.830 -0.5284  0.9787 -1.1387
 4774SOL    HW219095   0.408   0.020   3.807  0.2878 -0.5161  0.1904
 4774SOL     MW19096   0.442   0.093   3.840 -0.2274 -0.1426 -0.0865
 4775SOL     OW19097   1.565   3.880   0.417 -0.3555 -0.3766  0.5867
 4775SOL    HW119098   1.592   3.826   0.342  0.0927  0.2003  0.3265
 4775SOL    HW219099   1.617   3.960   0.409  0.3082 -0.6389  1.9930
 4775SOL     MW19100   1.575   3.883   0.406 -0.2132 -0.3363  0.7334
 4776SOL     OW19101   1.795   4.090   4.197 -0.0425  0.4256  0.0855
 4776SOL    HW119102   1.844   4.101   4.279 -0.7793 -0.2141  0.6232
 4776SOL    HW219103   1.856   4.043   4.139  0.1045 -0.0703  0.6378
 4776SOL     MW19104   1.809   4.085   4.200 -0.1180  0.2802  0.2250
 4777SOL     OW19105   2.899   3.278   1.685 -0.1272 -0.1990  0.5841
 4777SOL    HW119106   2.906   3.276   1.590  1.7342 -0.0554  0.6751
 4777SOL    HW219107   2.942   3.198   1.715 -1.8711 -0.9252  1.2982
 4777SOL     MW19108   2.905   3.268   1.677 -0.1121 -0.2736  0.6872
 4778SOL     OW19109   1.893   2.809   5.370 -0.4736  0.5431 -0.3231
 4778SOL    HW119110   1.970   2.769   5.328 -0.9433 -0.2637 -0.4481
 4778SOL    HW219111   1.838   2.836   5.297 -0.1684  1.4423 -0.2387
 4778SOL     MW19112   1.896   2.807   5.355 -0.4947  0.5549 -0.3283
 4779SOL     OW19113   1.119   2.998   1.140  0.0412  0.1936  0.3326
 4779SOL    HW119114   1.049   2.973   1.200 -0.2851 -0.6562 -0.3742
 4779SOL    HW219115   1.134   2.919   1.087 -0.3561  1.1995 -1.3612
 4779SOL     MW19116   1.112   2.985   1.141 -0.0515  0.2136  0.0253
 4780SOL     OW19117   3.392   4.282   2.412 -0.0081  0.1416  0.0747
 4780SOL    HW119118   3.475   4.267   2.365 -0.2660  0.5327 -0.5174
 4780SOL    HW219119   3.419   4.304   2.501  0.4773 -0.8917  0.1947
 4780SOL     MW19120   3.406   4.283   2.417  0.0210  0.0594  0.0143
 4781SOL     OW19121   3.278   3.851   0.497 -0.3729  0.2017  0.2928
 4781SOL    HW119122   3.254   3.827   0.407  1.4748 -0.8838  0.0554
 4781SOL    HW219123   3.204   3.819   0.550 -0.7649 -0.5590 -0.6743
 4781SOL     MW19124   3.265   3.844   0.492 -0.1865 -0.0347  0.1386
 4782SOL     OW19125   1.291   0.100   5.083  0.3137  0.0758  0.6186
 4782SOL    HW119126   1.371   0.112   5.032 -0.3386 -0.4086 -0.5680
 4782SOL    HW219127   1.268   0.008   5.069 -2.3929  0.9887 -2.1228
 4782SOL     MW19128   1.298   0.090   5.074 -0.1163  0.1306  0.1158
 4783SOL     OW19129   4.415   3.377   0.508 -0.4808  0.2587 -0.1259
 4783SOL    HW119130   4.395   3.468   0.532  1.8792  1.2138 -1.4609
 4783SOL    HW219131   4.509   3.369   0.524 -0.1725 -1.1903 -2.3215
 4783SOL     MW19132   4.424   3.388   0.513 -0.1392  0.1955 -0.5778
 4784SOL     OW19133   0.107   3.718   2.260 -0.1750  0.6789  0.8008
 4784SOL    HW119134   0.199   3.736   2.244  0.0421 -0.5477  0.5860
 4784SOL    HW219135   0.099   3.709   2.355  0.0550  0.1824  0.7768
 4784SOL     MW19136   0.118   3.719   2.270 -0.1178  0.4583  0.7702
 4785SOL     OW19137   4.895   2.936   5.257 -0.1444  0.0296  0.0029
 4785SOL    HW119138   4.888   2.917   5.351 -1.2188 -1.8519 -0.4097
 4785SOL    HW219139   4.965   3.001   5.251  0.3429 -0.2360  2.0485
 4785SOL     MW19140   4.903   2.942   5.269 -0.2195 -0.2453  0.2120
 4786SOL     OW19141   1.893   0.273   3.616  0.4144  0.1384 -0.4810
 4786SOL    HW119142   1.920   0.327   3.542  1.6541  0.2592  0.0445
 4786SOL    HW219143   1.968   0.274   3.675  0.6590 -2.4569 -0.6230
 4786SOL     MW19144   1.906   0.280   3.614  0.6044 -0.1784 -0.4319
 4787SOL     OW19145   2.015   0.735   4.503  0.1506  0.3601  0.3949
 4787SOL    HW119146   2.061   0.688   4.434  1.0760  0.7377  0.7427
 4787SOL    HW219147   2.002   0.671   4.573  1.8707  0.7201  1.0842
 4787SOL     MW19148   2.019   0.721   4.503  0.4893  0.4545  0.5277
 4788SOL     OW19149   1.489   1.951   3.608 -0.1156  0.1686  1.1620
 4788SOL    HW119150   1.496   1.872   3.661  0.5086  0.9961  2.3789
 4788SOL    HW219151   1.405   1.990   3.634  0.1850  0.5678  1.5546
 4788SOL     MW19152   1.479   1.946   3.619  0.0028  0.3256  1.3680
 4789SOL     OW19153   5.428   2.291   1.912  0.1263  0.0319 -0.4003
 4789SOL    HW119154   5.342   2.301   1.953  0.1904  0.0298 -0.2662
 4789SOL    HW219155   5.419   2.211   1.859  0.0935 -0.0542 -0.2660
 4789SOL     MW19156   5.416   2.282   1.911  0.1303  0.0206 -0.3659
 4790SOL     OW19157   3.482   2.770   0.880  0.1888 -0.0371  0.2594
 4790SOL    HW119158   3.547   2.782   0.950  0.7782  0.8677 -0.4206
 4790SOL    HW219159   3.487   2.676   0.860 -0.6928 -0.5228  2.0634
 4790SOL     MW19160   3.491   2.759   0.886  0.1514  0.0165  0.4033
 4791SOL     OW19161   5.278   0.515   3.040 -0.0228  0.3305 -1.4960
 4791SOL    HW119162   5.186   0.493   3.034 -0.2759  0.8718 -0.0713
 4791SOL    HW219163   5.323   0.431   3.049 -0.6069  0.1546  0.0845
 4791SOL     MW19164   5.272   0.502   3.040 -0.1300  0.3772 -1.1113
 4792SOL     OW19165   3.987   0.639   1.567  0.4336  0.3997 -0.6054
 4792SOL    HW119166   3.981   0.553   1.609 -0.7866  1.1971  0.9541
 4792SOL    HW219167   4.081   0.657   1.563  0.6406 -0.2703  0.6422
 4792SOL     MW19168   3.998   0.630   1.572  0.3039  0.4160 -0.2460
 4793SOL     OW19169   4.268   0.739   5.066  0.5656  0.0081 -1.0775
 4793SOL    HW119170   4.218   0.811   5.027 -1.7711 -0.4862  0.7894
 4793SOL    HW219171   4.305   0.777   5.145 -1.3499 -0.9235  0.3544
 4793SOL     MW19172   4.266   0.753   5.071  0.0213 -0.1744 -0.6552
 4794SOL     OW19173   1.378   4.432   2.840 -0.9921  0.5705  0.6150
 4794SOL    HW119174   1.408   4.363   2.781 -1.5781 -0.3769  1.3979
 4794SOL    HW219175   1.363   4.508   2.783 -1.6020 -0.3349 -0.4644
 4794SOL     MW19176   1.380   4.433   2.825 -1.1452  0.3334  0.5770
 4795SOL     OW19177   1.805   0.625   5.405  0.2308  0.1184 -0.4085
 4795SOL    HW119178   1.821   0.713   5.440  0.7298 -0.0996 -0.0842
 4795SOL    HW219179   1.892   0.585   5.402  0.1537 -0.0005 -1.5412
 4795SOL     MW19180   1.818   0.631   5.409  0.2848  0.0752 -0.5120
 4796SOL     OW19181   3.761   1.449   0.767 -0.2328  0.3943 -0.7291
 4796SOL    HW119182   3.744   1.414   0.855 -2.4744  0.8751 -0.9077
 4796SOL    HW219183   3.818   1.524   0.782 -0.3140  0.2771  0.2870
 4796SOL     MW19184   3.766   1.454   0.780 -0.5301  0.4409 -0.6219
 4797SOL     OW19185   1.318   3.278   2.803  0.5772 -0.5894  0.1091
 4797SOL    HW119186   1.373   3.301   2.877 -0.2655 -2.3691  1.3641
 4797SOL    HW219187   1.231   3.262   2.840 -0.5969  1.0926 -1.6669
 4797SOL     MW19188   1.314   3.279   2.817  0.3190 -0.6019  0.0424
 4798SOL     OW19189   3.114   2.703   2.874  0.1696 -0.5619  0.5323
 4798SOL    HW119190   3.050   2.632   2.876 -0.4788 -0.0551 -0.8910
 4798SOL    HW219191   3.064   2.780   2.901  0.9131 -0.6443  2.2504
 4798SOL     MW19192   3.099   2.704   2.878  0.1818 -0.5076  0.5701
 4799SOL     OW19193   0.216   4.940   0.491 -0.3217  0.1549 -0.2253
 4799SOL    HW119194   0.302   4.896   0.496 -0.0663  0.4632 -1.5118
 4799SOL    HW219195   0.229   5.022   0.537 -0.1049 -0.0785  0.1345
 4799SOL     MW19196   0.229   4.945   0.497 -0.2612  0.1645 -0.3439
 4800SOL     OW19197   1.951   0.622   3.067  0.6387  0.3367  0.3077
 4800SOL    HW119198   2.028   0.679   3.067  0.2677  0.8595 -0.6413
 4800SOL    HW219199   1.883   0.674   3.024 -0.0755 -0.3499  0.5829
 4800SOL     MW19200   1.952   0.636   3.062  0.4998  0.3157  0.2214
 4801SOL     OW19201   0.052   3.345   2.339 -0.0518  0.2137  0.1919
 4801SOL    HW119202   0.023   3.357   2.249  1.6530  0.1274 -0.3988
 4801SOL    HW219203   0.034   3.252   2.357  1.1435 -0.1986 -0.6555
 4801SOL     MW19204   0.046   3.334   2.330  0.3195  0.1499  0.0078
 4802SOL     OW19205   2.497   0.110   3.994  0.2360  0.3794  0.0400
 4802SOL    HW119206   2.571   0.068   4.037  0.1448  0.4460  0.2608
 4802SOL    HW219207   2.462   0.042   3.935  0.2490  0.2316  0.2023
 4802SOL     MW19208   2.502   0.096   3.992  0.2260  0.3690  0.0890
 4803SOL     OW19209   3.067   4.800   0.690 -0.1194  0.0973  0.4356
 4803SOL    HW119210   2.998   4.734   0.687  0.2838 -0.3484  0.8623
 4803SOL    HW219211   3.031   4.875   0.642 -1.0318 -0.0045  0.9428
 4803SOL     MW19212   3.054   4.801   0.683 -0.1846  0.0272  0.5552
 4804SOL     OW19213   0.207   1.249   5.039  0.7880 -0.1201 -0.2499
 4804SOL    HW119214   0.142   1.319   5.049  1.4641  0.3913  0.6253
 4804SOL    HW219215   0.180   1.182   5.102  0.7370 -0.1921 -0.3483
 4804SOL     MW19216   0.195   1.249   5.048  0.8680 -0.0638 -0.1505
 4805SOL     OW19217   2.340   2.137   4.635 -0.1796  0.5910  0.3192
 4805SOL    HW119218   2.306   2.048   4.622 -2.1512  0.7023  3.5001
 4805SOL    HW219219   2.398   2.130   4.711  0.1582  1.9268  0.2101
 4805SOL     MW19220   2.343   2.125   4.643 -0.3888  0.7763  0.7124
 4806SOL     OW19221   0.784   0.770   2.065  0.1305 -0.0614 -0.1358
 4806SOL    HW119222   0.721   0.705   2.035  0.0695  0.0412 -0.2325
 4806SOL    HW219223   0.829   0.799   1.985  0.4548 -0.2954 -0.0381
 4806SOL     MW19224   0.781   0.765   2.051  0.1642 -0.0782 -0.1356
 4807SOL     OW19225   3.109   1.575   3.857  0.2400  0.3686 -0.0166
 4807SOL    HW119226   3.064   1.550   3.938  0.8436 -1.8371 -0.2917
 4807SOL    HW219227   3.112   1.494   3.805  1.0009  1.4196 -1.7050
 4807SOL     MW19228   3.104   1.561   3.861  0.4147  0.2208 -0.2680
 4808SOL     OW19229   1.444   1.778   5.358  0.4057 -0.0428  0.1451
 4808SOL    HW119230   1.458   1.870   5.334  0.1736  0.1450  0.7196
 4808SOL    HW219231   1.349   1.767   5.357  0.4671 -0.5520 -0.9193
 4808SOL     MW19232   1.434   1.788   5.355  0.3839 -0.0839  0.0824
 4809SOL     OW19233   4.164   4.581   0.206  0.6068 -0.4914  0.2985
 4809SOL    HW119234   4.196   4.538   0.285  0.2094 -1.7113 -0.1793
 4809SOL    HW219235   4.085   4.532   0.181 -0.8271  1.4999  0.6079
 4809SOL     MW19236   4.158   4.569   0.213  0.3724 -0.3926  0.2769
 4810SOL     OW19237   0.447   3.419   4.899 -0.1865 -0.0177 -0.2568
 4810SOL    HW119238   0.527   3.408   4.950 -0.6841 -0.1321  0.5096
 4810SOL    HW219239   0.464   3.496   4.844 -0.0072  0.7251  0.7987
 4810SOL     MW19240   0.459   3.428   4.898 -0.2273  0.0627 -0.0236
 4811SOL     OW19241   5.365   1.173   4.325  0.4102  0.3378  0.1979
 4811SOL    HW119242   5.313   1.249   4.298 -0.2110  0.1055  0.7006
 4811SOL    HW219243   5.319   1.140   4.402  0.5475 -0.6876 -0.1529
 4811SOL     MW19244   5.352   1.179   4.331  0.3483  0.1768  0.2174
 4812SOL     OW19245   1.494   3.428   3.784 -0.3193 -0.3797 -0.1503
 4812SOL    HW119246   1.437   3.358   3.753 -0.3760  0.3101 -1.6893
 4812SOL    HW219247   1.582   3.391   3.780 -0.4146 -0.5942 -0.3010
 4812SOL     MW19248   1.498   3.415   3.779 -0.3387 -0.3189 -0.3666
 4813SOL     OW19249   1.977   1.462   2.695  0.0663 -0.0587  0.4598
 4813SOL    HW119250   2.051   1.492   2.749  1.5325 -0.8693 -1.0089
 4813SOL    HW219251   1.996   1.370   2.678 -1.7224 -0.5000  0.6859
 4813SOL     MW19252   1.989   1.454   2.700  0.0250 -0.2190  0.3008
 4814SOL     OW19253   1.876   2.639   4.467  0.2336 -0.1340  0.0632
 4814SOL    HW119254   1.924   2.715   4.435 -0.1180  0.3284  0.5910
 4814SOL    HW219255   1.800   2.677   4.512  0.3216 -0.7817  0.7728
 4814SOL     MW19256   1.872   2.654   4.469  0.1999 -0.1577  0.2216
 4815SOL     OW19257   1.772   1.679   5.220 -0.1984  0.0996 -0.1374
 4815SOL    HW119258   1.782   1.754   5.161  0.2075 -0.3628 -0.6671
 4815SOL    HW219259   1.680   1.681   5.246 -0.9883 -0.9825 -2.5744
 4815SOL     MW19260   1.761   1.689   5.216 -0.2475 -0.0981 -0.5171
 4816SOL     OW19261   1.238   3.170   1.740 -0.1008  0.1699 -0.0323
 4816SOL    HW119262   1.187   3.245   1.707  0.6249  0.6749 -0.0413
 4816SOL    HW219263   1.278   3.202   1.821  0.4585 -0.1037 -0.1959
 4816SOL     MW19264   1.237   3.184   1.746  0.0637  0.1995 -0.0544
 4817SOL     OW19265   2.131   0.324   1.685 -0.9701 -0.3114 -0.5823
 4817SOL    HW119266   2.151   0.312   1.592  0.3062  2.3643 -0.7610
 4817SOL    HW219267   2.046   0.367   1.687 -0.8490 -0.0707 -0.5425
 4817SOL     MW19268   2.123   0.328   1.673 -0.7912  0.0620 -0.6001
 4818SOL     OW19269   3.664   0.552   1.289 -0.0877 -0.2181 -0.4796
 4818SOL    HW119270   3.758   0.568   1.278 -0.3167  2.2024  0.4605
 4818SOL    HW219271   3.659   0.487   1.359  0.9132  1.0564  0.8500
 4818SOL     MW19272   3.676   0.546   1.296  0.0111  0.2549 -0.1890
 4819SOL     OW19273   0.216   4.138   3.237  0.2368  0.3444  0.2929
 4819SOL    HW119274   0.290   4.142   3.178  0.6119  1.4241  0.8083
 4819SOL    HW219275   0.240   4.071   3.302 -0.0442 -0.6144 -0.5699
 4819SOL     MW19276   0.228   4.130   3.238  0.2488  0.3599  0.2484
 4820SOL     OW19277   0.837   3.580   0.970  0.4901  0.3051  0.0140
 4820SOL    HW119278   0.781   3.629   1.030  2.4348  1.6109  0.8707
 4820SOL    HW219279   0.818   3.616   0.883 -0.0519  0.6462  0.2742
 4820SOL     MW19280   0.827   3.590   0.966  0.6696  0.5159  0.1570
 4821SOL     OW19281   3.949   1.749   2.811 -0.2804 -0.8512  0.2654
 4821SOL    HW119282   3.948   1.837   2.775  0.5661 -0.5193  1.0205
 4821SOL    HW219283   3.932   1.692   2.736  0.2843 -0.1243 -0.4281
 4821SOL     MW19284   3.946   1.753   2.797 -0.0997 -0.7157  0.2733
 4822SOL     OW19285   4.516   1.126   3.214  0.2592  0.4048  0.2943
 4822SOL    HW119286   4.582   1.195   3.216 -1.4267  2.0935  0.2421
 4822SOL    HW219287   4.510   1.097   3.305 -0.0008  1.3339  0.5854
 4822SOL     MW19288   4.524   1.131   3.226  0.0101  0.7399  0.3249
 4823SOL     OW19289   1.915   2.014   0.053  0.1914  0.0939 -0.1969
 4823SOL    HW119290   1.830   2.058   0.066 -0.1543 -0.5610 -0.1743
 4823SOL    HW219291   1.892   1.930   0.015  0.8456 -0.0741 -0.2281
 4823SOL     MW19292   1.901   2.009   0.050  0.2309 -0.0115 -0.1980
 4824SOL     OW19293   5.201   2.917   4.317  0.4791 -0.0037 -0.1927
 4824SOL    HW119294   5.278   2.975   4.318  0.5685 -0.1008  1.5436
 4824SOL    HW219295   5.176   2.909   4.409 -1.6436  0.0390 -0.7134
 4824SOL     MW19296   5.208   2.924   4.329  0.2188 -0.0106 -0.0371
 4825SOL     OW19297   5.319   3.850   3.901  0.4356  0.7710 -0.1962
 4825SOL    HW119298   5.348   3.789   3.969 -0.2357  0.6492 -0.0124
 4825SOL    HW219299   5.380   3.923   3.907  1.7573 -0.2386 -0.9597
 4825SOL     MW19300   5.330   3.851   3.911  0.5189  0.6262 -0.2704
 4826SOL     OW19301   0.720   1.131   3.506  0.1013 -0.1735  0.2027
 4826SOL    HW119302   0.758   1.050   3.473  1.5527  0.8198 -0.6983
 4826SOL    HW219303   0.739   1.130   3.600  0.1199 -0.8662  0.1956
 4826SOL     MW19304   0.727   1.120   3.514  0.2895 -0.1350  0.0865
 4827SOL     OW19305   1.578   4.664   5.462 -0.7978 -0.0470 -0.3627
 4827SOL    HW119306   1.601   4.720   5.536 -0.3705 -0.8722  0.1393
 4827SOL    HW219307   1.657   4.663   5.407 -0.6475 -0.5093 -0.1428
 4827SOL     MW19308   1.591   4.671   5.464 -0.7239 -0.2118 -0.2703
 4828SOL     OW19309   2.093   2.320   3.839  0.1489  0.2026  0.2431
 4828SOL    HW119310   2.118   2.386   3.903 -0.7520 -0.3729  1.2307
 4828SOL    HW219311   2.016   2.356   3.795  0.0022  0.0612  0.3816
 4828SOL     MW19312   2.086   2.333   3.841  0.0148  0.1108  0.3873
 4829SOL     OW19313   0.861   0.774   5.412 -0.2359  0.1820 -0.6929
 4829SOL    HW119314   0.909   0.707   5.363 -0.5033 -0.4422 -0.1279
 4829SOL    HW219315   0.907   0.780   5.496  0.2553  1.2823 -1.0375
 4829SOL     MW19316   0.873   0.766   5.417 -0.2073  0.2430 -0.6647
 4830SOL     OW19317   1.841   3.447   4.179 -0.1931 -0.2036  0.3413
 4830SOL    HW119318   1.758   3.485   4.208 -0.3427 -0.8609  0.7810
 4830SOL    HW219319   1.840   3.358   4.213  0.2947 -0.5084 -0.4226
 4830SOL     MW19320   1.830   3.441   4.187 -0.1498 -0.3268  0.2998
 4831SOL     OW19321   3.830   0.346   2.026 -0.3018 -0.5515 -0.4155
 4831SOL    HW119322   3.916   0.388   2.028 -0.1530 -0.8920  0.7310
 4831SOL    HW219323   3.845   0.259   2.063 -1.0189 -0.8642 -0.8351
 4831SOL     MW19324   3.843   0.340   2.031 -0.3746 -0.6351 -0.3225
 4832SOL     OW19325   4.847   2.932   0.378  0.3482  0.0229 -0.3463
 4832SOL    HW119326   4.901   2.855   0.397  1.3261  1.2492  2.1722
 4832SOL    HW219327   4.757   2.897   0.376  0.6319 -1.0242  2.1198
 4832SOL     MW19328   4.842   2.918   0.380  0.5097  0.0459  0.2918
 4833SOL     OW19329   2.010   1.884   1.192 -0.1591 -0.1673 -0.0137
 4833SOL    HW119330   2.000   1.880   1.097 -0.7004  1.2138 -0.0351
 4833SOL    HW219331   2.091   1.934   1.206 -0.9396  1.0816  0.2299
 4833SOL     MW19332   2.019   1.890   1.182 -0.3283  0.1694  0.0148
 4834SOL     OW19333   0.807   0.728   4.090 -0.0544  0.8656 -0.3304
 4834SOL    HW119334   0.839   0.693   4.174  0.3172  0.7276 -0.5265
 4834SOL    HW219335   0.824   0.822   4.096 -2.3779  1.2878  0.7934
 4834SOL     MW19336   0.813   0.735   4.102 -0.3043  0.9020 -0.2116
 4835SOL     OW19337   4.648   0.526   1.807  0.2917  0.1984  0.2586
 4835SOL    HW119338   4.571   0.580   1.825 -0.7184 -1.3242  0.7165
 4835SOL    HW219339   4.629   0.442   1.849  1.9780 -0.4008 -0.0860
 4835SOL     MW19340   4.636   0.522   1.815  0.3783 -0.0732  0.2731
 4836SOL     OW19341   1.469   3.642   4.740  0.3363  0.1919 -0.0293
 4836SOL    HW119342   1.418   3.575   4.695 -0.0672  0.3699  0.1596
 4836SOL    HW219343   1.555   3.602   4.754 -0.3219 -0.8046  1.3343
 4836SOL     MW19344   1.474   3.628   4.736  0.2004  0.0872  0.1695
 4837SOL     OW19345   2.487   3.953   2.348 -0.2529  0.6161 -0.3510
 4837SOL    HW119346   2.558   3.925   2.406  0.4534  0.5574 -1.2188
 4837SOL    HW219347   2.461   3.874   2.301 -0.8323  0.6611 -0.1224
 4837SOL     MW19348   2.493   3.939   2.350 -0.2367  0.6144 -0.4328
 4838SOL     OW19349   1.368   1.759   0.364  0.2722 -0.7075 -0.6384
 4838SOL    HW119350   1.372   1.665   0.347  0.5849 -0.5656 -1.3747
 4838SOL    HW219351   1.274   1.780   0.363  0.1173 -1.2368  0.8528
 4838SOL     MW19352   1.356   1.750   0.362  0.2924 -0.7571 -0.5417
 4839SOL     OW19353   4.472   4.451   3.649 -0.1970  0.2461 -0.4281
 4839SOL    HW119354   4.554   4.422   3.689  0.6751  1.2133 -1.4560
 4839SOL    HW219355   4.408   4.386   3.676  1.1237 -1.1117 -0.4328
 4839SOL     MW19356   4.474   4.439   3.657  0.0837  0.1961 -0.5603
 4840SOL     OW19357   2.114   1.129   3.974  0.0161  0.6382 -0.1136
 4840SOL    HW119358   2.072   1.096   4.053  0.8165 -1.9026 -0.6497
 4840SOL    HW219359   2.205   1.100   3.981  0.2328  0.8152 -1.7307
 4840SOL     MW19360   2.121   1.121   3.985  0.1463  0.3356 -0.3892
 4841SOL     OW19361   0.284   0.743   4.081  0.4363 -0.1621 -0.1743
 4841SOL    HW119362   0.284   0.831   4.046  0.5641 -0.2059 -0.2825
 4841SOL    HW219363   0.373   0.730   4.116  0.6484 -0.5163 -0.8309
 4841SOL     MW19364   0.295   0.752   4.081  0.4798 -0.2130 -0.2722
 4842SOL     OW19365   1.622   5.146   2.418 -0.3451 -0.1833 -0.7378
 4842SOL    HW119366   1.711   5.161   2.450 -1.4715  1.2803  2.0490
 4842SOL    HW219367   1.584   5.084   2.480 -1.8690  0.7397 -0.7037
 4842SOL     MW19368   1.629   5.140   2.430 -0.6844  0.1222 -0.3767
 4843SOL     OW19369   2.732   3.085   4.451  0.1579  0.7952 -0.1611
 4843SOL    HW119370   2.691   3.017   4.504 -0.3356  0.0762 -1.4220
 4843SOL    HW219371   2.682   3.165   4.470 -0.4758  0.3853 -0.0984
 4843SOL     MW19372   2.721   3.087   4.460  0.0136  0.6507 -0.3145
 4844SOL     OW19373   0.796   0.345   2.968  0.2104  0.3051 -1.0776
 4844SOL    HW119374   0.867   0.296   3.009 -0.3728 -0.9989 -1.5628
 4844SOL    HW219375   0.792   0.312   2.878  0.6934  2.2668 -1.8605
 4844SOL     MW19376   0.804   0.334   2.962  0.1976  0.3893 -1.2399
 4845SOL     OW19377   4.929   1.121   2.909 -0.1020  0.1264  0.1256
 4845SOL    HW119378   4.941   1.099   3.002 -1.0954 -1.6832 -0.1276
 4845SOL    HW219379   4.869   1.196   2.910 -1.4645 -0.9204  0.9442
 4845SOL     MW19380   4.923   1.128   2.921 -0.4036 -0.2393  0.1980
 4846SOL     OW19381   0.311   3.157   0.732  0.2286  0.1406 -0.2447
 4846SOL    HW119382   0.257   3.081   0.753  1.4897 -0.8634 -0.5304
 4846SOL    HW219383   0.400   3.124   0.733  0.7178  1.3051 -1.7443
 4846SOL     MW19384   0.315   3.143   0.735  0.4527  0.1611 -0.4733
 4847SOL     OW19385   5.443   4.354   5.276 -0.0805 -0.3077  0.1194
 4847SOL    HW119386   5.383   4.383   5.207  0.9741  0.0763 -0.6590
 4847SOL    HW219387   5.531   4.371   5.240  0.4997 -1.1578  1.1010
 4847SOL     MW19388   5.447   4.360   5.262  0.1288 -0.3673  0.1454
 4848SOL     OW19389   3.441   0.106   3.648 -0.6898  0.4404  0.2980
 4848SOL    HW119390   3.407   0.126   3.736  0.0835  0.6379  0.5637
 4848SOL    HW219391   3.386   0.157   3.589 -0.7034  0.9418  0.7352
 4848SOL     MW19392   3.429   0.115   3.652 -0.5925  0.5299  0.3880
 4849SOL     OW19393   2.461   4.871   5.106  0.0712 -0.0129  0.1733
 4849SOL    HW119394   2.430   4.883   5.196 -1.3998 -0.2336 -0.2810
 4849SOL    HW219395   2.415   4.938   5.056  1.2955  0.4637 -0.3473
 4849SOL     MW19396   2.451   4.882   5.111  0.0396  0.0199  0.0485
 4850SOL     OW19397   0.107   1.003   0.180  0.1228 -0.2395 -0.7052
 4850SOL    HW119398   0.058   0.936   0.228  0.9150  0.3706  1.0579
 4850SOL    HW219399   0.094   0.981   0.088  0.4394 -2.8969 -0.2029
 4850SOL     MW19400   0.099   0.991   0.175  0.2647 -0.5016 -0.4152
 4851SOL     OW19401   4.529   2.807   3.930  0.5131 -0.0066 -0.2288
 4851SOL    HW119402   4.447   2.827   3.884  0.4780  0.8138  0.1785
 4851SOL    HW219403   4.592   2.790   3.860  0.3191  0.6642 -0.5720
 4851SOL     MW19404   4.526   2.808   3.915  0.4837  0.1843 -0.2206
 4852SOL     OW19405   4.683   4.309   5.314 -0.6432 -0.1890  0.1750
 4852SOL    HW119406   4.624   4.235   5.308 -1.1796  0.3647 -2.5230
 4852SOL    HW219407   4.629   4.381   5.347 -0.4151 -0.6622  1.6369
 4852SOL     MW19408   4.669   4.309   5.317 -0.6827 -0.1787  0.0168
 4853SOL     OW19409   3.248   4.666   1.801 -0.2479 -0.1942  0.1672
 4853SOL    HW119410   3.188   4.728   1.843 -1.2024 -1.8178  1.3403
 4853SOL    HW219411   3.237   4.681   1.707 -0.8185  1.0367  0.4046
 4853SOL     MW19412   3.239   4.676   1.795 -0.4431 -0.2445  0.3477
 4854SOL     OW19413   2.845   3.507   1.283 -0.5727 -0.4143 -0.4895
 4854SOL    HW119414   2.759   3.505   1.325 -0.6093  0.2656 -0.5228
 4854SOL    HW219415   2.862   3.600   1.267  0.3996 -0.4927 -0.0134
 4854SOL     MW19416   2.837   3.518   1.286 -0.4529 -0.3373 -0.4328
 4855SOL     OW19417   2.130   5.078   2.850 -0.6626  0.0155 -0.0758
 4855SOL    HW119418   2.203   5.130   2.816 -0.5709  0.5522  0.9220
 4855SOL    HW219419   2.082   5.139   2.906 -1.9340 -0.3059 -0.7863
 4855SOL     MW19420   2.133   5.093   2.853 -0.8136  0.0430 -0.0390
 4856SOL     OW19421   3.349   2.716   0.148  0.5633 -0.1956  0.3096
 4856SOL    HW119422   3.411   2.746   0.082 -1.2135  0.6651 -1.0847
 4856SOL    HW219423   3.380   2.755   0.230  0.5045  2.3635 -0.7774
 4856SOL     MW19424   3.361   2.725   0.150  0.3283  0.2422 -0.0080
 4857SOL     OW19425   4.608   3.750   4.837  0.1571 -0.1598 -0.0311
 4857SOL    HW119426   4.686   3.728   4.786  0.3666  1.4298 -0.4490
 4857SOL    HW219427   4.616   3.699   4.917  0.8815 -1.1132 -0.6865
 4857SOL     MW19428   4.619   3.740   4.840  0.2766 -0.0784 -0.1685
 4858SOL     OW19429   3.937   3.492   2.261 -0.2730 -0.1842  0.1396
 4858SOL    HW119430   3.879   3.549   2.311 -1.0035 -0.1021 -0.7708
 4858SOL    HW219431   3.883   3.415   2.243  0.4428 -0.8172  0.6633
 4858SOL     MW19432   3.922   3.489   2.265 -0.2749 -0.2547  0.0901
 4859SOL     OW19433   2.264   3.694   4.108  0.0863  0.2639 -0.1091
 4859SOL    HW119434   2.174   3.700   4.141  0.4500 -0.8392  1.1755
 4859SOL    HW219435   2.319   3.713   4.184  0.9570 -0.1313 -0.6193
 4859SOL     MW19436   2.260   3.697   4.122  0.2443  0.0721 -0.0100
 4860SOL     OW19437   2.054   3.661   0.662  0.5501 -0.1006  0.7544
 4860SOL    HW119438   2.060   3.674   0.756 -1.7066  0.1493  0.9306
 4860SOL    HW219439   2.035   3.748   0.626  1.7260 -0.1318  0.0132
 4860SOL     MW19440   2.052   3.673   0.669  0.4118 -0.0726  0.6821
 4861SOL     OW19441   2.484   4.115   1.546  0.5672 -0.3485  0.0257
 4861SOL    HW119442   2.437   4.198   1.539  0.9141  0.0389  1.7956
 4861SOL    HW219443   2.448   4.074   1.624  1.2732 -1.3016 -0.1358
 4861SOL     MW19444   2.473   4.121   1.555  0.7020 -0.4209  0.2316
 4862SOL     OW19445   0.513   4.309   0.353 -0.2147  0.2130 -0.8512
 4862SOL    HW119446   0.490   4.314   0.446 -1.1928  1.1493 -1.1243
 4862SOL    HW219447   0.430   4.317   0.307 -0.0288 -2.4840 -1.8229
 4862SOL     MW19448   0.500   4.311   0.359 -0.3161 -0.0124 -1.0106
 4863SOL     OW19449   1.440   0.759   0.260 -0.5068 -0.5329 -0.3344
 4863SOL    HW119450   1.495   0.776   0.336 -0.1728 -1.1427 -0.4359
 4863SOL    HW219451   1.494   0.707   0.201 -0.1561  1.3489 -1.7720
 4863SOL     MW19452   1.454   0.754   0.262 -0.4192 -0.3700 -0.5314
 4864SOL     OW19453   2.145   2.420   0.030 -0.1971  0.1502  0.0938
 4864SOL    HW119454   2.111   2.436   0.118 -0.1818 -0.3470  0.1943
 4864SOL    HW219455   2.196   2.498   0.009  0.5387 -0.1078  0.8912
 4864SOL     MW19456   2.147   2.432   0.038 -0.1009  0.0535  0.2087
 4865SOL     OW19457   2.688   3.647   3.022  0.0178 -0.6896  0.1010
 4865SOL    HW119458   2.749   3.574   3.038  1.4052  0.2519 -0.7054
 4865SOL    HW219459   2.716   3.684   2.938 -1.9172 -0.4355 -0.4855
 4865SOL     MW19460   2.699   3.642   3.013 -0.0523 -0.5366 -0.0773
 4866SOL     OW19461   1.168   3.568   2.440  0.0502 -0.5525 -0.0161
 4866SOL    HW119462   1.212   3.484   2.456 -0.5742 -0.9197 -0.1686
 4866SOL    HW219463   1.118   3.584   2.521  2.0221  0.8795  0.9874
 4866SOL     MW19464   1.167   3.559   2.453  0.2227 -0.4161  0.0928
 4867SOL     OW19465   3.522   0.491   4.078 -0.5841 -0.3945 -0.2092
 4867SOL    HW119466   3.585   0.433   4.121 -1.3297 -1.1869 -0.1808
 4867SOL    HW219467   3.553   0.497   3.988  0.4902  0.5814  0.1910
 4867SOL     MW19468   3.534   0.485   4.072 -0.5420 -0.3710 -0.1543
 4868SOL     OW19469   4.226   2.357   4.536  0.4146  0.3902 -0.0411
 4868SOL    HW119470   4.238   2.278   4.589 -2.1007 -0.0198  0.0436
 4868SOL    HW219471   4.227   2.429   4.600 -0.1934  0.1324  0.2648
 4868SOL     MW19472   4.227   2.356   4.551  0.0148  0.3047  0.0089
 4869SOL     OW19473   2.483   0.117   0.297 -0.0941  0.5300 -0.2364
 4869SOL    HW119474   2.533   0.171   0.358 -1.5032  0.8157  0.7096
 4869SOL    HW219475   2.541   0.043   0.277  0.3696  0.3559  1.5584
 4869SOL     MW19476   2.497   0.114   0.302 -0.2152  0.5443  0.1144
 4870SOL     OW19477   5.028   2.190   4.454 -0.0762  0.1207 -0.6328
 4870SOL    HW119478   4.970   2.176   4.380 -0.2366 -2.5615 -0.0969
 4870SOL    HW219479   5.116   2.188   4.416 -0.1303 -1.8359 -0.7447
 4870SOL     MW19480   5.032   2.188   4.440 -0.1037 -0.4731 -0.5786
 4871SOL     OW19481   4.410   4.913   2.096  0.0001  0.9724  0.3435
 4871SOL    HW119482   4.434   5.002   2.125  0.9269  0.3599  1.5737
 4871SOL    HW219483   4.375   4.872   2.175  0.2464  0.0279 -0.0319
 4871SOL     MW19484   4.409   4.919   2.110  0.1503  0.7731  0.4529
 4872SOL     OW19485   0.657   5.146   0.244 -0.2003  0.7132 -0.1085
 4872SOL    HW119486   0.604   5.182   0.315  0.3334  0.9812  0.1621
 4872SOL    HW219487   0.746   5.176   0.264  0.3536 -1.1479  0.3976
 4872SOL     MW19488   0.662   5.154   0.256 -0.0611  0.5092 -0.0091
 4873SOL     OW19489   2.517   3.738   4.766 -0.4180  0.3554  0.2084
 4873SOL    HW119490   2.477   3.652   4.758 -1.7709  1.0353 -0.8810
 4873SOL    HW219491   2.574   3.746   4.689 -0.7890  0.6521 -0.0440
 4873SOL     MW19492   2.519   3.728   4.755 -0.6387  0.4804  0.0367
 4874SOL     OW19493   4.829   1.432   0.023  0.3634  0.2712  0.2710
 4874SOL    HW119494   4.762   1.472   0.078  0.7969  0.9757  0.3103
 4874SOL    HW219495   4.907   1.430   0.078  0.5341  0.0346  0.0236
 4874SOL     MW19496   4.831   1.437   0.037  0.4408  0.3311  0.2443
 4875SOL     OW19497   1.287   1.240   2.958 -0.3123  0.2850 -0.2328
 4875SOL    HW119498   1.272   1.253   2.864 -0.2116  0.1147 -0.2721
 4875SOL    HW219499   1.199   1.245   2.996 -0.3878  0.0448 -0.3737
 4875SOL     MW19500   1.274   1.242   2.951 -0.3091  0.2325 -0.2559
 4876SOL     OW19501   1.176   4.852   1.611 -0.1162 -0.2394 -0.0115
 4876SOL    HW119502   1.249   4.818   1.559  1.1114  0.8933  0.8975
 4876SOL    HW219503   1.171   4.793   1.687 -0.4161 -0.5520 -0.2720
 4876SOL     MW19504   1.185   4.840   1.614  0.0026 -0.1344  0.0715
 4877SOL     OW19505   5.282   5.107   1.680  0.3296  0.3180  0.2007
 4877SOL    HW119506   5.195   5.100   1.719  0.4871  0.9941  0.7079
 4877SOL    HW219507   5.304   5.018   1.652 -0.6865  0.2058 -0.3098
 4877SOL     MW19508   5.274   5.095   1.681  0.2197  0.3902  0.2003
 4878SOL     OW19509   4.236   2.438   3.279  0.4213 -0.1900 -0.3139
 4878SOL    HW119510   4.235   2.363   3.339 -2.0674  0.7884  1.0053
 4878SOL    HW219511   4.325   2.473   3.286  0.1803  0.0967  3.1932
 4878SOL     MW19512   4.248   2.433   3.288  0.0719 -0.0280  0.3039
 4879SOL     OW19513   1.113   1.545   1.185  0.3821 -0.1045  0.2149
 4879SOL    HW119514   1.026   1.582   1.195  0.0525 -0.7190 -0.2989
 4879SOL    HW219515   1.151   1.593   1.111  0.5437  0.2748  0.5416
 4879SOL     MW19516   1.107   1.556   1.177  0.3606 -0.1346  0.1909
 4880SOL     OW19517   1.200   5.458   3.964  0.3563 -0.1113 -0.3523
 4880SOL    HW119518   1.122   5.405   3.985  0.2940  0.7069  1.8046
 4880SOL    HW219519   1.170   5.518   3.897 -1.2133  0.7875  1.0601
 4880SOL     MW19520   1.186   5.459   3.958  0.1474  0.1085  0.1046
 4881SOL     OW19521   1.222   5.316   2.100 -0.0860  0.3804 -0.3463
 4881SOL    HW119522   1.299   5.260   2.107  0.7742  1.6121  0.2633
 4881SOL    HW219523   1.207   5.324   2.006 -0.0459 -0.6167 -0.4508
 4881SOL     MW19524   1.230   5.310   2.089  0.0293  0.4104 -0.2816
 4882SOL     OW19525   5.301   0.035   2.322  0.1754  0.0475  0.3520
 4882SOL    HW119526   5.381  -0.002   2.283 -0.3604 -1.1367  0.3528
 4882SOL    HW219527   5.316   0.031   2.416 -0.0856 -0.6303  0.3648
 4882SOL     MW19528   5.313   0.030   2.329  0.0734 -0.1909  0.3537
 4883SOL     OW19529   4.252   0.123   4.341 -0.3582  0.2102 -0.1497
 4883SOL    HW119530   4.210   0.117   4.427  2.6833 -1.2413  1.4135
 4883SOL    HW219531   4.257   0.033   4.310 -0.0920  0.5529 -1.1603
 4883SOL     MW19532   4.247   0.111   4.348  0.0652  0.0683 -0.0790
 4884SOL     OW19533   1.681   5.250   4.658  0.1392 -0.6963 -0.2367
 4884SOL    HW119534   1.757   5.193   4.665 -0.2587 -1.5061 -2.0217
 4884SOL    HW219535   1.652   5.263   4.749  2.1239 -0.7002  0.4470
 4884SOL     MW19536   1.687   5.245   4.671  0.3423 -0.8004 -0.3777
 4885SOL     OW19537   1.310   3.474   4.607 -0.0636  0.5720 -0.0278
 4885SOL    HW119538   1.296   3.489   4.513 -1.7985 -2.5879 -0.4036
 4885SOL    HW219539   1.232   3.510   4.649 -0.4178 -0.1283 -0.0749
 4885SOL     MW19540   1.298   3.481   4.600 -0.3310  0.0778 -0.0819
 4886SOL     OW19541   1.433   0.204   2.149 -0.1672  0.1848 -0.4068
 4886SOL    HW119542   1.491   0.129   2.138  0.8655  0.6133  1.4694
 4886SOL    HW219543   1.386   0.186   2.230 -0.5622  1.1415 -0.4083
 4886SOL     MW19544   1.435   0.192   2.158 -0.0856  0.3621 -0.1668
 4887SOL     OW19545   1.524   1.349   5.230  0.4355 -0.0303 -0.3664
 4887SOL    HW119546   1.526   1.392   5.315  1.8416  1.1876 -0.9726
 4887SOL    HW219547   1.480   1.411   5.172  2.6539  0.7833 -1.2937
 4887SOL     MW19548   1.519   1.363   5.233  0.8995  0.2297 -0.5627
 4888SOL     OW19549   2.755   0.809   5.252 -0.1980 -0.0119 -0.2867
 4888SOL    HW119550   2.738   0.754   5.176 -0.5779 -1.6355  0.9076
 4888SOL    HW219551   2.670   0.848   5.273  0.0635  1.0430 -1.1126
 4888SOL     MW19552   2.742   0.807   5.245 -0.2132 -0.0847 -0.2395
 4889SOL     OW19553   0.763   2.609   2.223  0.0293  0.1640  0.1722
 4889SOL    HW119554   0.835   2.570   2.172 -1.2934 -1.1721 -0.7330
 4889SOL    HW219555   0.794   2.697   2.243  1.7317 -0.2134 -0.6027
 4889SOL     MW19556   0.777   2.615   2.219  0.0779 -0.0554 -0.0429
 4890SOL     OW19557   2.341   0.516   1.778 -0.4253 -0.1602 -0.4760
 4890SOL    HW119558   2.367   0.488   1.865  3.2332  0.5185 -1.2040
 4890SOL    HW219559   2.281   0.448   1.747 -0.5308 -1.2346  1.9053
 4890SOL     MW19560   2.336   0.504   1.785  0.0295 -0.2108 -0.2643
 4891SOL     OW19561   3.848   0.965   0.006 -0.3895  0.0327  0.2252
 4891SOL    HW119562   3.818   1.018   0.080  0.0255  1.5863 -0.6711
 4891SOL    HW219563   3.776   0.969  -0.057  0.2060  0.7522 -0.4334
 4891SOL     MW19564   3.835   0.972   0.008 -0.2602  0.3237  0.0261
 4892SOL     OW19565   5.046   2.899   2.325  0.4199 -0.3677 -0.0742
 4892SOL    HW119566   5.007   2.975   2.367 -0.2751 -0.4051 -0.6256
 4892SOL    HW219567   4.971   2.848   2.294  0.8952 -0.7823 -0.5657
 4892SOL     MW19568   5.032   2.902   2.327  0.3918 -0.4255 -0.2077
 4893SOL     OW19569   0.098   2.635   4.926 -0.0210 -0.0427  0.1458
 4893SOL    HW119570   0.012   2.613   4.962  0.6389 -0.1785  1.7396
 4893SOL    HW219571   0.118   2.720   4.963 -0.0105  0.6023 -1.2796
 4893SOL     MW19572   0.089   2.643   4.935  0.0648  0.0225  0.1674
 4894SOL     OW19573   0.965   1.253   3.294 -0.4375 -0.8172  0.1478
 4894SOL    HW119574   0.945   1.344   3.315  1.2448 -0.8284  2.1646
 4894SOL    HW219575   0.880   1.213   3.275 -1.1924  1.1704 -0.9356
 4894SOL     MW19576   0.952   1.260   3.294 -0.3188 -0.5642  0.2673
 4895SOL     OW19577   0.687   0.124   3.748 -0.1754 -0.3253 -0.3193
 4895SOL    HW119578   0.754   0.176   3.793 -0.7011 -0.9239  1.2204
 4895SOL    HW219579   0.718   0.034   3.757 -0.0344 -0.4215 -1.6410
 4895SOL     MW19580   0.700   0.119   3.755 -0.2247 -0.4142 -0.2914
 4896SOL     OW19581   5.354   2.067   5.071  0.0920 -0.0098 -0.4848
 4896SOL    HW119582   5.292   2.025   5.012 -2.6825  1.5839  1.0817
 4896SOL    HW219583   5.351   2.015   5.151 -1.2621  1.4667  0.4890
 4896SOL     MW19584   5.346   2.055   5.074 -0.4365  0.3832 -0.1596
 4897SOL     OW19585   4.081   0.792   0.404 -0.4449  0.0391  0.0161
 4897SOL    HW119586   4.135   0.756   0.333 -0.6094 -2.2222  0.9436
 4897SOL    HW219587   4.031   0.862   0.362  0.4438 -0.3295 -1.7862
 4897SOL     MW19588   4.081   0.796   0.389 -0.3522 -0.2975 -0.0959
 4898SOL     OW19589   2.580   2.371   0.357 -0.6915  0.0822 -0.0236
 4898SOL    HW119590   2.599   2.412   0.272 -2.2447 -0.0898 -0.4816
 4898SOL    HW219591   2.529   2.293   0.334  0.1764 -0.8075  0.9901
 4898SOL     MW19592   2.576   2.366   0.343 -0.7793 -0.0537  0.0475
 4899SOL     OW19593   4.590   4.858   3.292 -0.0064  0.2150  0.2115
 4899SOL    HW119594   4.629   4.773   3.313  0.8315  0.4193 -0.4780
 4899SOL    HW219595   4.665   4.916   3.279 -0.5555  1.3750  1.8236
 4899SOL     MW19596   4.605   4.855   3.293  0.0306  0.3896  0.3296
 4900SOL     OW19597   2.193   3.687   0.404  0.2446 -0.1642  0.3135
 4900SOL    HW119598   2.101   3.708   0.418 -0.1149 -0.0807 -1.7896
 4900SOL    HW219599   2.208   3.607   0.454 -0.8191  0.1151  1.1056
 4900SOL     MW19600   2.183   3.680   0.412  0.0624 -0.1178  0.1457
 4901SOL     OW19601   0.136   3.706   2.558  0.0592 -0.4658 -0.5416
 4901SOL    HW119602   0.223   3.744   2.572 -1.0464  1.6136  1.3291
 4901SOL    HW219603   0.076   3.775   2.583 -2.1500 -2.9401  1.5179
 4901SOL     MW19604   0.140   3.720   2.563 -0.3651 -0.5164 -0.0385
 4902SOL     OW19605   1.187   1.895   2.895  0.5120  0.1970  0.0663
 4902SOL    HW119606   1.134   1.937   2.963  0.2474  0.8895 -0.5694
 4902SOL    HW219607   1.144   1.811   2.881  1.4990 -0.6915  1.9120
 4902SOL     MW19608   1.175   1.889   2.902  0.6045  0.1719  0.2212
 4903SOL     OW19609   4.069   3.150   1.813 -0.0417 -0.3235  0.4050
 4903SOL    HW119610   4.003   3.118   1.752 -1.0001 -0.1381  1.3209
 4903SOL    HW219611   4.031   3.230   1.850  1.2165  0.4678  0.0658
 4903SOL     MW19612   4.056   3.156   1.810 -0.0033 -0.1985  0.4788
 4904SOL     OW19613   0.906   5.440   2.321 -0.1401  0.0248 -0.0702
 4904SOL    HW119614   0.851   5.455   2.398 -0.7801 -1.0090 -0.3057
 4904SOL    HW219615   0.864   5.367   2.275  0.2053  0.6460 -1.4274
 4904SOL     MW19616   0.893   5.432   2.325 -0.1778 -0.0280 -0.2741
 4905SOL     OW19617   1.119   1.560   1.679  0.0868 -0.0820  0.0043
 4905SOL    HW119618   1.068   1.480   1.676 -0.6281  0.3483  0.4738
 4905SOL    HW219619   1.166   1.562   1.595 -0.4234 -0.6373 -0.2992
 4905SOL     MW19620   1.119   1.550   1.668 -0.0700 -0.0980  0.0255
 4906SOL     OW19621   3.920   5.014   0.323 -0.2666  0.0825 -0.2628
 4906SOL    HW119622   3.969   4.932   0.329 -0.8072 -0.2181  0.1025
 4906SOL    HW219623   3.838   4.990   0.280 -0.5899  0.3571  0.1949
 4906SOL     MW19624   3.916   5.001   0.318 -0.3772  0.0792 -0.1575
 4907SOL     OW19625   3.733   2.052   1.943  0.0201 -0.4381 -0.5825
 4907SOL    HW119626   3.651   2.005   1.952  0.2681 -0.7417  0.1755
 4907SOL    HW219627   3.797   1.985   1.918  0.4485 -0.5994  0.8496
 4907SOL     MW19628   3.731   2.037   1.941  0.1067 -0.4976 -0.3022
 4908SOL     OW19629   3.240   1.839   4.174  0.0764 -0.3089  0.5208
 4908SOL    HW119630   3.289   1.759   4.154  0.8035  0.2469  0.0189
 4908SOL    HW219631   3.300   1.910   4.150 -0.5477  0.3852  0.9876
 4908SOL     MW19632   3.254   1.838   4.168  0.0896 -0.1489  0.5163
 4909SOL     OW19633   3.254   1.274   0.732 -0.4126 -0.8214 -1.0388
 4909SOL    HW119634   3.282   1.364   0.720 -1.3385 -0.1867  1.0806
 4909SOL    HW219635   3.336   1.224   0.737  0.2650  0.3425  0.5725
 4909SOL     MW19636   3.268   1.279   0.731 -0.4444 -0.5912 -0.5612
 4910SOL     OW19637   1.574   2.635   2.941  0.3010 -0.3157  0.1715
 4910SOL    HW119638   1.645   2.576   2.969  0.7339  0.2954  0.3742
 4910SOL    HW219639   1.580   2.636   2.846 -0.6432 -1.7425  0.0595
 4910SOL     MW19640   1.584   2.627   2.933  0.2355 -0.4201  0.1831
 4911SOL     OW19641   3.887   5.443   3.265  0.7617 -0.5219 -0.0303
 4911SOL    HW119642   3.961   5.503   3.280  1.0099 -0.6733 -0.6175
 4911SOL    HW219643   3.865   5.456   3.172 -0.5579  0.2046  0.3651
 4911SOL     MW19644   3.894   5.452   3.255  0.6245 -0.4483 -0.0549
 4912SOL     OW19645   3.863   3.433   5.096 -0.0903  0.0357 -0.4567
 4912SOL    HW119646   3.814   3.377   5.157  0.7287  1.5293  1.6607
 4912SOL    HW219647   3.872   3.516   5.141  2.9680  0.3608 -1.4559
 4912SOL     MW19648   3.858   3.436   5.109  0.4061  0.2685 -0.3135
 4913SOL     OW19649   0.069   0.046   1.059 -0.0699 -0.4047 -0.0156
 4913SOL    HW119650  -0.000  -0.020   1.058 -0.5193  0.0300  1.1070
 4913SOL    HW219651   0.033   0.121   1.013 -0.6166  0.0643  1.1423
 4913SOL     MW19652   0.056   0.047   1.053 -0.1974 -0.2890  0.2763
 4914SOL     OW19653   0.645   3.016   4.425  0.1910  0.1769  0.2081
 4914SOL    HW119654   0.580   2.977   4.366  0.5802 -1.1479  0.6211
 4914SOL    HW219655   0.729   2.997   4.385  0.3681  1.2975  0.0227
 4914SOL     MW19656   0.647   3.009   4.413  0.2635  0.1508  0.2372
 4915SOL     OW19657   2.521   1.983   3.346 -0.1653  0.0241 -1.1190
 4915SOL    HW119658   2.489   2.046   3.281  0.9262  0.2160 -1.4892
 4915SOL    HW219659   2.584   2.031   3.398 -0.0369 -0.5022 -0.7758
 4915SOL     MW19660   2.525   1.997   3.344 -0.0091 -0.0187 -1.1224
 4916SOL     OW19661   2.315   5.137   5.395  0.0522 -0.1926 -0.0673
 4916SOL    HW119662   2.329   5.191   5.317  1.5951 -2.0928 -1.2022
 4916SOL    HW219663   2.219   5.133   5.404 -0.1207  1.8498 -0.5017
 4916SOL     MW19664   2.304   5.144   5.386  0.2276 -0.1744 -0.2682
 4917SOL     OW19665   2.230   3.245   3.103  0.2814 -0.1025  0.3266
 4917SOL    HW119666   2.277   3.310   3.154  0.7865 -0.4941  0.3700
 4917SOL    HW219667   2.161   3.213   3.161 -0.3664  0.8293  0.0909
 4917SOL     MW19668   2.227   3.249   3.117  0.2631 -0.0333  0.3020
 4918SOL     OW19669   3.567   3.829   0.517  0.5595  0.4084 -0.0155
 4918SOL    HW119670   3.479   3.866   0.515  0.8887  1.2666  0.6126
 4918SOL    HW219671   3.560   3.752   0.573  0.3219  0.7977  0.4991
 4918SOL     MW19672   3.555   3.824   0.524  0.5712  0.5681  0.1308
 4919SOL     OW19673   1.012   0.590   5.270  0.2149  0.5158 -0.1631
 4919SOL    HW119674   1.009   0.652   5.197  0.5394 -0.9855 -1.4970
 4919SOL    HW219675   1.104   0.587   5.296  0.0195  1.4646  0.7222
 4919SOL     MW19676   1.023   0.598   5.264  0.2314  0.4451 -0.2205
 4920SOL     OW19677   4.706   1.942   5.090 -0.2136  0.6138 -0.8128
 4920SOL    HW119678   4.678   2.032   5.107  0.7295  0.7720 -0.0304
 4920SOL    HW219679   4.797   1.950   5.063 -0.5383  0.0055 -2.1769
 4920SOL     MW19680   4.714   1.955   5.089 -0.1344  0.5562 -0.8872
 4921SOL     OW19681   2.774   2.611   3.343 -0.2339 -0.4557  0.1279
 4921SOL    HW119682   2.788   2.648   3.255  0.2861  0.5418  0.6137
 4921SOL    HW219683   2.862   2.598   3.378 -0.4158 -1.9888  0.0625
 4921SOL     MW19684   2.787   2.614   3.336 -0.1906 -0.5243  0.1817
 4922SOL     OW19685   3.273   1.792   0.927 -0.1846  0.3117 -0.0921
 4922SOL    HW119686   3.229   1.818   0.846 -1.0489  0.6555  0.4754
 4922SOL    HW219687   3.240   1.705   0.945  1.0900 -0.3614 -0.8478
 4922SOL     MW19688   3.263   1.785   0.919 -0.1321  0.2695 -0.1162
 4923SOL     OW19689   0.316   3.808   4.615 -0.7634  0.2335  0.5788
 4923SOL    HW119690   0.273   3.756   4.684  0.1400  0.0421  1.0050
 4923SOL    HW219691   0.371   3.870   4.663 -0.0356  0.0156  0.0371
 4923SOL     MW19692   0.317   3.809   4.630 -0.5546  0.1811  0.5640
 4924SOL     OW19693   1.329   1.417   4.526  0.1911 -0.3130 -0.7184
 4924SOL    HW119694   1.268   1.404   4.452 -1.2263 -0.7271  0.4774
 4924SOL    HW219695   1.378   1.335   4.530 -0.3524 -0.6384 -0.6456
 4924SOL     MW19696   1.327   1.405   4.517 -0.0599 -0.4077 -0.5560
 4925SOL     OW19697   4.295   1.092   5.231  0.2937  0.6014  0.6883
 4925SOL    HW119698   4.293   1.158   5.161 -0.3157  1.6930  1.6921
 4925SOL    HW219699   4.205   1.088   5.263  0.7211  0.7478  1.9576
 4925SOL     MW19700   4.284   1.100   5.226  0.2704  0.7599  0.9793
 4926SOL     OW19701   0.905   4.943   3.934  0.5311  0.0875  0.4668
 4926SOL    HW119702   0.816   4.911   3.918  0.9165 -0.9790  0.3927
 4926SOL    HW219703   0.960   4.894   3.872  0.9701  2.0054 -0.7454
 4926SOL     MW19704   0.901   4.933   3.924  0.6366  0.1965  0.3021
 4927SOL     OW19705   1.555   0.657   1.876 -0.0515  0.4691 -0.3434
 4927SOL    HW119706   1.471   0.697   1.901 -0.2940 -0.9429  1.2490
 4927SOL    HW219707   1.539   0.563   1.877  2.0266  0.0390  2.0091
 4927SOL     MW19708   1.542   0.650   1.879  0.1835  0.2333  0.1616
 4928SOL     OW19709   1.725   1.089   1.436  0.3577  0.2126  0.2286
 4928SOL    HW119710   1.808   1.067   1.393  0.5804 -1.3509  1.3789
 4928SOL    HW219711   1.694   1.167   1.390  1.6223 -0.1652 -1.3362
 4928SOL     MW19712   1.732   1.096   1.425  0.5481 -0.0360  0.1755
 4929SOL     OW19713   2.979   1.214   4.668 -0.4645 -0.9117 -0.0720
 4929SOL    HW119714   2.895   1.262   4.667  0.1176  0.1516  0.6180
 4929SOL    HW219715   2.972   1.155   4.593 -1.5034 -0.2509 -0.5385
 4929SOL     MW19716   2.967   1.213   4.658 -0.5230 -0.6910 -0.0434
 4930SOL     OW19717   4.187   0.648   0.688  0.0117  0.1647  0.2344
 4930SOL    HW119718   4.099   0.684   0.675 -0.8339 -1.3972  1.2428
 4930SOL    HW219719   4.215   0.682   0.773 -0.2657 -0.5109  0.6065
 4930SOL     MW19720   4.179   0.657   0.697 -0.1321 -0.1217  0.4111
 4931SOL     OW19721   5.187   1.815   4.388 -0.3460 -0.0559  0.8048
 4931SOL    HW119722   5.263   1.857   4.347 -0.5939  0.0299  0.4231
 4931SOL    HW219723   5.182   1.729   4.346  0.2051 -0.5016  1.6382
 4931SOL     MW19724   5.196   1.810   4.377 -0.3072 -0.1020  0.8626
 4932SOL     OW19725   5.255   2.761   0.366  0.1077 -0.0039 -0.5740
 4932SOL    HW119726   5.168   2.726   0.385  1.1709 -1.8280  1.2876
 4932SOL    HW219727   5.260   2.763   0.270 -1.9747  0.2283 -0.7217
 4932SOL     MW19728   5.245   2.757   0.356 -0.0228 -0.2077 -0.3546
 4933SOL     OW19729   1.081   3.939   2.396 -0.2484  0.1809 -0.0831
 4933SOL    HW119730   1.177   3.938   2.401 -0.2810 -0.5803  0.8183
 4933SOL    HW219731   1.055   4.019   2.441 -0.0584 -0.3385  1.0078
 4933SOL     MW19732   1.090   3.949   2.403 -0.2283  0.0170  0.1720
 4934SOL     OW19733   5.203   2.148   1.085  0.1832 -0.7942 -0.5901
 4934SOL    HW119734   5.276   2.183   1.034  0.7770 -1.9580 -0.5870
 4934SOL    HW219735   5.173   2.072   1.034  0.1242 -1.3612  0.2725
 4934SOL     MW19736   5.209   2.143   1.072  0.2517 -1.0158 -0.4793
 4935SOL     OW19737   2.884   0.953   4.544 -0.1016 -0.2020  0.3960
 4935SOL    HW119738   2.840   0.917   4.467 -0.5857  2.1651 -0.5316
 4935SOL    HW219739   2.817   0.954   4.612 -0.8797  1.2598 -0.3421
 4935SOL     MW19740   2.870   0.949   4.543 -0.2632  0.2881  0.1827
 4936SOL     OW19741   2.290   4.011   0.787  0.1001  0.0087 -0.4161
 4936SOL    HW119742   2.308   3.940   0.725 -1.7903  0.7144 -1.8723
 4936SOL    HW219743   2.377   4.041   0.815  0.9865 -1.1364 -1.7900
 4936SOL     MW19744   2.304   4.005   0.783 -0.0284 -0.0475 -0.7783
 4937SOL     OW19745   2.882   3.535   4.959 -0.7150 -0.3214  0.2380
 4937SOL    HW119746   2.967   3.509   4.995 -0.7529 -0.0508  0.5318
 4937SOL    HW219747   2.828   3.553   5.037 -1.1785 -0.9307  0.0612
 4937SOL     MW19748   2.886   3.534   4.974 -0.7792 -0.3648  0.2530
 4938SOL     OW19749   4.650   0.252   4.234  0.4028 -0.5179  0.4150
 4938SOL    HW119750   4.616   0.193   4.168  1.5619 -0.3947 -0.3141
 4938SOL    HW219751   4.629   0.210   4.318  0.7309 -1.6839 -0.0769
 4938SOL     MW19752   4.643   0.239   4.236  0.5932 -0.6514  0.2587
 4939SOL     OW19753   3.259   3.698   4.962 -0.4624  0.1658 -0.0084
 4939SOL    HW119754   3.265   3.686   4.868 -0.8417 -0.4329  0.0373
 4939SOL    HW219755   3.206   3.625   4.993  0.3563 -0.1212  0.7818
 4939SOL     MW19756   3.253   3.687   4.954 -0.4062  0.0524  0.0986
 4940SOL     OW19757   0.040   5.008   1.985  0.0438 -0.2832 -0.4051
 4940SOL    HW119758   0.032   4.938   1.921 -1.4324  0.1632 -0.7436
 4940SOL    HW219759   0.041   5.089   1.933 -1.3918  0.0972  0.1012
 4940SOL     MW19760   0.039   5.010   1.970 -0.3290 -0.1774 -0.3836
 4941SOL     OW19761   0.098   4.809   3.933  0.6600 -0.2189  0.2271
 4941SOL    HW119762   0.023   4.845   3.886  0.0534 -0.8373  0.6921
 4941SOL    HW219763   0.133   4.882   3.984  1.0735  0.3546 -0.8451
 4941SOL     MW19764   0.093   4.823   3.934  0.6353 -0.2246  0.1494
 4942SOL     OW19765   4.399   0.689   3.725 -0.4750  0.2675 -0.2853
 4942SOL    HW119766   4.456   0.680   3.801  1.7854  0.6577 -1.8233
 4942SOL    HW219767   4.324   0.738   3.757  1.0129  1.5646  1.4247
 4942SOL     MW19768   4.397   0.694   3.739  0.0049  0.4835 -0.2633
 4943SOL     OW19769   0.290   0.724   4.653  0.4225 -0.1983  0.3128
 4943SOL    HW119770   0.211   0.679   4.621  1.6911 -2.4428  0.1021
 4943SOL    HW219771   0.310   0.680   4.736  1.1652  0.6715  0.6042
 4943SOL     MW19772   0.282   0.712   4.659  0.6800 -0.3743  0.3231
 4944SOL     OW19773   0.492   3.467   5.350 -0.0541 -0.3069  0.1333
 4944SOL    HW119774   0.578   3.455   5.390  0.7642  0.9089 -1.2094
 4944SOL    HW219775   0.485   3.397   5.285 -0.0120 -0.2958  0.1171
 4944SOL     MW19776   0.502   3.457   5.347  0.0560 -0.1498 -0.0407
 4945SOL     OW19777   3.208   0.466   3.284 -0.1133 -0.0006  0.4666
 4945SOL    HW119778   3.178   0.556   3.270 -1.1157 -0.3480  0.2622
 4945SOL    HW219779   3.298   0.475   3.314 -0.2441  1.0767  0.5848
 4945SOL     MW19780   3.215   0.479   3.286 -0.2584  0.0928  0.4556
 4946SOL     OW19781   3.749   2.254   4.116  0.1560  0.5985  0.2483
 4946SOL    HW119782   3.827   2.309   4.110  1.6839 -1.4744  0.5304
 4946SOL    HW219783   3.709   2.261   4.029 -0.3452  2.9990  0.5975
 4946SOL     MW19784   3.754   2.262   4.104  0.2874  0.6405  0.3291
 4947SOL     OW19785   2.857   3.489   1.988 -0.2055 -0.1377  0.4513
 4947SOL    HW119786   2.944   3.481   2.028 -0.2404 -0.4813  0.4600
 4947SOL    HW219787   2.811   3.550   2.045  0.4146  0.9723 -0.2167
 4947SOL     MW19788   2.862   3.496   2.000 -0.1306 -0.0396  0.3669
 4948SOL     OW19789   5.386   1.751   0.526  0.1397  0.1715  0.1892
 4948SOL    HW119790   5.422   1.740   0.614 -0.3725 -1.2210  0.2423
 4948SOL    HW219791   5.461   1.743   0.468  0.2311 -0.6874  0.4106
 4948SOL     MW19792   5.400   1.749   0.530  0.0858 -0.1167  0.2243
 4949SOL     OW19793   2.215   3.381   2.378 -0.0469  0.2092 -0.0243
 4949SOL    HW119794   2.225   3.475   2.368  2.5834  0.0232  0.1745
 4949SOL    HW219795   2.283   3.343   2.322  1.1278 -1.4206  2.2919
 4949SOL     MW19796   2.225   3.388   2.370  0.4402 -0.0232  0.2977
 4950SOL     OW19797   4.081   2.118   1.960 -0.3664  0.0313 -0.2931
 4950SOL    HW119798   4.155   2.178   1.956  1.0302 -1.6902 -1.7919
 4950SOL    HW219799   4.019   2.151   1.895 -0.2884  0.6605 -0.0551
 4950SOL     MW19800   4.082   2.130   1.951 -0.1776 -0.1085 -0.4545
 4951SOL     OW19801   1.722   1.380   2.898  0.3147  0.1266  0.5557
 4951SOL    HW119802   1.669   1.435   2.955  1.4471  0.6596  1.1475
 4951SOL    HW219803   1.693   1.291   2.915 -0.2212  0.3890  1.0304
 4951SOL     MW19804   1.712   1.376   2.907  0.3911  0.2284  0.6923
 4952SOL     OW19805   0.473   2.439   3.993 -0.1978 -0.4668  0.1692
 4952SOL    HW119806   0.378   2.455   3.989  0.0220  1.2789  0.7777
 4952SOL    HW219807   0.482   2.345   3.980 -1.9273 -0.5122 -1.1967
 4952SOL     MW19808   0.462   2.429   3.991 -0.3911 -0.2492  0.0722
 4953SOL     OW19809   1.598   0.979   4.697 -0.1076 -0.2851  0.5424
 4953SOL    HW119810   1.662   0.997   4.628 -0.2454 -0.9555  0.2323
 4953SOL    HW219811   1.640   0.913   4.752  0.1384  0.4894  1.3051
 4953SOL     MW19812   1.611   0.973   4.695 -0.0938 -0.2718  0.6003
 4954SOL     OW19813   3.814   5.452   4.639 -0.2632 -0.5369 -0.1298
 4954SOL    HW119814   3.894   5.481   4.683 -0.4834  0.6563 -0.4829
 4954SOL    HW219815   3.745   5.464   4.705 -0.4662  0.4793 -0.5054
 4954SOL     MW19816   3.815   5.457   4.653 -0.3174 -0.2541 -0.2230
 4955SOL     OW19817   1.983   2.448   3.567  0.4564  0.1666 -0.4120
 4955SOL    HW119818   1.915   2.413   3.625 -0.2450 -0.6418 -1.6492
 4955SOL    HW219819   2.026   2.370   3.532  1.8717  0.6673  0.1490
 4955SOL     MW19820   1.980   2.433   3.570  0.5478  0.1272 -0.4986
 4956SOL     OW19821   4.795   2.833   3.469  0.2874  0.0876 -0.4613
 4956SOL    HW119822   4.766   2.922   3.488  0.5361  0.1334 -0.2932
 4956SOL    HW219823   4.768   2.782   3.546  1.7159  0.3641  0.2595
 4956SOL     MW19824   4.788   2.837   3.481  0.5021  0.1288 -0.3475
 4957SOL     OW19825   3.474   2.586   4.313 -0.1937  0.5138 -0.4803
 4957SOL    HW119826   3.537   2.541   4.257  1.2540  1.2690  0.4825
 4957SOL    HW219827   3.389   2.566   4.274  0.6687 -0.0107 -2.1883
 4957SOL     MW19828   3.471   2.577   4.301  0.1020  0.5433 -0.5757
 4958SOL     OW19829   3.465   4.640   4.939  0.2459  1.0468 -0.0834
 4958SOL    HW119830   3.486   4.554   4.973 -2.4279 -0.4159 -1.7885
 4958SOL    HW219831   3.420   4.684   5.011 -0.0469  0.2830  0.2104
 4958SOL     MW19832   3.462   4.635   4.953 -0.1338  0.7618 -0.2640
 4959SOL     OW19833   1.693   5.171   1.778 -0.4820  0.0031  0.2170
 4959SOL    HW119834   1.734   5.142   1.696 -0.2521 -0.2675  0.4276
 4959SOL    HW219835   1.759   5.155   1.845 -0.7012  0.1505  0.4663
 4959SOL     MW19836   1.706   5.165   1.776 -0.4806 -0.0127  0.2759
 4960SOL     OW19837   3.076   0.221   1.051 -0.0480 -0.1097  0.0405
 4960SOL    HW119838   3.012   0.157   1.081 -1.3215  0.5313 -1.2280
 4960SOL    HW219839   3.158   0.172   1.045 -0.6900 -1.2645  0.4353
 4960SOL     MW19840   3.078   0.207   1.054 -0.2932 -0.1755 -0.0714
 4961SOL     OW19841   0.087   2.390   4.565 -0.2975 -0.0151  0.2114
 4961SOL    HW119842   0.050   2.391   4.477  1.6940  1.9318 -0.7018
 4961SOL    HW219843   0.022   2.437   4.619 -1.1474 -0.4918 -0.3722
 4961SOL     MW19844   0.074   2.396   4.561 -0.1513  0.1731  0.0198
 4962SOL     OW19845   2.667   3.380   3.614 -0.3462  0.1957 -0.2366
 4962SOL    HW119846   2.582   3.423   3.615 -0.3861  0.1067  0.4269
 4962SOL    HW219847   2.700   3.389   3.704  0.2596  0.0689 -0.4402
 4962SOL     MW19848   2.661   3.387   3.626 -0.2737  0.1680 -0.1777
 4963SOL     OW19849   2.584   3.488   2.193 -0.2839 -0.7522  0.3822
 4963SOL    HW119850   2.532   3.545   2.250 -0.6916 -1.6702  0.9561
 4963SOL    HW219851   2.520   3.432   2.150 -0.1901  1.2022 -2.5633
 4963SOL     MW19852   2.569   3.488   2.195 -0.3241 -0.6195  0.0786
 4964SOL     OW19853   4.355   4.704   4.264 -0.5542 -0.1623  0.4911
 4964SOL    HW119854   4.295   4.648   4.214 -0.1634 -0.5871  0.5014
 4964SOL    HW219855   4.423   4.646   4.295  0.0683  0.3778  0.1783
 4964SOL     MW19856   4.356   4.690   4.261 -0.4245 -0.1475  0.4524
 4965SOL     OW19857   4.871   0.080   5.172 -0.5812  0.0081  0.3833
 4965SOL    HW119858   4.872   0.008   5.236 -1.4484 -1.1009 -0.8099
 4965SOL    HW219859   4.938   0.140   5.204  0.9699 -1.8509  0.8196
 4965SOL     MW19860   4.880   0.078   5.185 -0.4937 -0.3718  0.2864
 4966SOL     OW19861   3.214   3.240   4.950 -0.2880  0.2748 -0.1929
 4966SOL    HW119862   3.205   3.190   5.031  1.4049  0.3905  0.1097
 4966SOL    HW219863   3.137   3.217   4.899  0.0129 -2.0185  0.2728
 4966SOL     MW19864   3.203   3.231   4.954 -0.0328 -0.0040 -0.0946
 4967SOL     OW19865   1.566   3.496   2.137 -0.0212  0.1724 -0.1713
 4967SOL    HW119866   1.608   3.510   2.051 -0.6193 -0.1066 -0.5120
 4967SOL    HW219867   1.512   3.574   2.149  0.8935  0.7330  0.4612
 4967SOL     MW19868   1.565   3.508   2.127  0.0194  0.2085 -0.1339
 4968SOL     OW19869   4.280   3.221   0.687  0.3921  0.2676 -0.2235
 4968SOL    HW119870   4.191   3.233   0.653  0.1936 -2.2248 -0.7392
 4968SOL    HW219871   4.336   3.266   0.624 -0.3655  0.1643 -0.9910
 4968SOL     MW19872   4.276   3.228   0.675  0.2697 -0.0647 -0.3878
 4969SOL     OW19873   1.961   3.967   2.224 -0.0018  0.0256  0.5167
 4969SOL    HW119874   1.981   3.962   2.318 -1.4116  0.1681  0.8457
 4969SOL    HW219875   1.920   3.883   2.204  2.1440 -0.8489 -0.4705
 4969SOL     MW19876   1.958   3.956   2.234  0.0924 -0.0681  0.4325
 4970SOL     OW19877   4.893   0.197   1.076 -0.0703 -0.2972 -0.2331
 4970SOL    HW119878   4.884   0.275   1.131  1.5259 -0.7823  0.7566
 4970SOL    HW219879   4.911   0.232   0.988  0.0835  0.4547  0.0913
 4970SOL     MW19880   4.894   0.212   1.072  0.1537 -0.2631 -0.0649
 4971SOL     OW19881   4.297   3.219   3.479  0.3044 -0.4506 -0.1501
 4971SOL    HW119882   4.210   3.182   3.464 -0.0947  0.5612 -0.3765
 4971SOL    HW219883   4.313   3.274   3.402  0.4262  0.7040  0.6909
 4971SOL     MW19884   4.288   3.221   3.467  0.2689 -0.1733 -0.0714
 4972SOL     OW19885   3.203   0.435   1.573  0.2783  0.1378 -0.5500
 4972SOL    HW119886   3.117   0.441   1.615  0.5542 -0.3836  0.1033
 4972SOL    HW219887   3.185   0.399   1.486 -0.3435  1.5829 -1.0563
 4972SOL     MW19888   3.190   0.432   1.567  0.2340  0.2560 -0.5312
 4973SOL     OW19889   4.942   4.649   3.174 -0.3576  0.0405  0.2577
 4973SOL    HW119890   5.009   4.705   3.135  0.3383 -0.0734  1.2351
 4973SOL    HW219891   4.930   4.579   3.110 -0.2439  0.5751 -0.3640
 4973SOL     MW19892   4.949   4.647   3.161 -0.2540  0.0944  0.3032
 4974SOL     OW19893   4.002   5.143   3.650 -0.6573  0.0894  0.2023
 4974SOL    HW119894   4.010   5.152   3.745  1.7859 -0.3369  0.0844
 4974SOL    HW219895   4.013   5.050   3.633 -2.2818 -0.0272 -0.4536
 4974SOL     MW19896   4.004   5.132   3.660 -0.5525  0.0199  0.1033
 4975SOL     OW19897   3.700   5.230   1.696 -0.6921 -0.0538  0.5328
 4975SOL    HW119898   3.731   5.317   1.721 -0.2223 -0.0707  0.0262
 4975SOL    HW219899   3.625   5.247   1.639 -0.0633  0.0524 -0.2878
 4975SOL     MW19900   3.694   5.243   1.692 -0.5515 -0.0424  0.3629
 4976SOL     OW19901   5.062   2.792   3.521 -0.8840 -0.4432  0.3048
 4976SOL    HW119902   4.968   2.796   3.504 -0.7214  0.2428 -0.4912
 4976SOL    HW219903   5.102   2.799   3.434 -0.0585  1.1244  0.7789
 4976SOL     MW19904   5.055   2.793   3.508 -0.7575 -0.1547  0.2636
 4977SOL     OW19905   0.566   0.720   5.069  0.1059  0.1291  0.3968
 4977SOL    HW119906   0.648   0.753   5.031  0.5232 -1.2678  0.0001
 4977SOL    HW219907   0.498   0.779   5.036  0.4447 -1.0050 -2.6033
 4977SOL     MW19908   0.568   0.732   5.060  0.2027 -0.1949 -0.0381
 4978SOL     OW19909   2.156   5.338   0.441 -0.2212 -0.5578  0.1152
 4978SOL    HW119910   2.113   5.272   0.495  1.0206 -0.5286  1.1953
 4978SOL    HW219911   2.087   5.400   0.419 -0.7783 -0.5726  1.7060
 4978SOL     MW19912   2.142   5.338   0.445 -0.1336 -0.5559  0.4571
 4979SOL     OW19913   1.096   2.548   4.740 -0.0400 -0.4535  0.8163
 4979SOL    HW119914   1.097   2.530   4.646  1.7352 -0.6611  0.8588
 4979SOL    HW219915   1.008   2.583   4.756 -0.1722  0.1588 -1.0218
 4979SOL     MW19916   1.085   2.550   4.730  0.1703 -0.4017  0.5865
 4980SOL     OW19917   3.569   1.229   3.468 -0.3131  0.2533 -0.4979
 4980SOL    HW119918   3.512   1.154   3.454  1.2339 -1.0220 -0.3242
 4980SOL    HW219919   3.625   1.231   3.391  0.1199  0.8078 -0.1774
 4980SOL     MW19920   3.569   1.220   3.456 -0.0596  0.1610 -0.4346
 4981SOL     OW19921   1.290   1.284   2.677  0.1643  0.0064  0.0069
 4981SOL    HW119922   1.381   1.256   2.689  0.0890  1.0054  4.1329
 4981SOL    HW219923   1.241   1.202   2.668  1.1804 -0.6846  0.6137
 4981SOL     MW19924   1.295   1.270   2.677  0.2848  0.0458  0.6127
 4982SOL     OW19925   3.522   0.815   2.430 -0.0955 -0.2080  0.2492
 4982SOL    HW119926   3.494   0.821   2.339 -2.7121  0.8766  1.0391
 4982SOL    HW219927   3.535   0.721   2.445 -0.1341 -0.4453 -1.0632
 4982SOL     MW19928   3.520   0.804   2.420 -0.4354 -0.0996  0.1823
 4983SOL     OW19929   1.794   4.581   4.427  0.2892  0.3208  0.5070
 4983SOL    HW119930   1.714   4.620   4.462  0.4738  0.7849  0.4120
 4983SOL    HW219931   1.865   4.621   4.478  0.6050  1.4614 -0.7842
 4983SOL     MW19932   1.793   4.591   4.438  0.3533  0.5262  0.3296
 4984SOL     OW19933   1.628   1.722   2.460  0.6206 -0.4326  0.0457
 4984SOL    HW119934   1.675   1.675   2.529  0.5289 -1.6962 -0.7326
 4984SOL    HW219935   1.667   1.810   2.460  1.8667 -0.9668  0.4875
 4984SOL     MW19936   1.639   1.728   2.469  0.7684 -0.6628  0.0026
 4985SOL     OW19937   3.226   4.719   5.368  0.1217  0.0254 -0.2416
 4985SOL    HW119938   3.225   4.735   5.274 -1.6076  1.0641 -0.0804
 4985SOL    HW219939   3.134   4.719   5.393  0.3691 -2.6620  1.0823
 4985SOL     MW19940   3.214   4.721   5.359 -0.0680 -0.1857 -0.0515
 4986SOL     OW19941   2.853   1.998   1.821 -0.1058 -0.2891  0.0728
 4986SOL    HW119942   2.846   1.915   1.774 -1.7977  0.1850 -0.6208
 4986SOL    HW219943   2.762   2.028   1.828  0.4160  1.1541  0.9299
 4986SOL     MW19944   2.840   1.991   1.816 -0.2556 -0.0436  0.0937
 4987SOL     OW19945   4.815   1.607   2.458  0.2546 -0.3300  0.0487
 4987SOL    HW119946   4.803   1.656   2.539  1.5521  0.6048 -0.2825
 4987SOL    HW219947   4.726   1.584   2.430 -0.3885  1.4246  0.5025
 4987SOL     MW19948   4.802   1.611   2.465  0.3384  0.0142  0.0644
 4988SOL     OW19949   3.960   3.520   2.609  0.3129 -0.2439  0.1921
 4988SOL    HW119950   3.945   3.589   2.545  0.3327 -0.4684 -0.0557
 4988SOL    HW219951   4.031   3.468   2.572 -0.7615 -1.3432 -0.4081
 4988SOL     MW19952   3.967   3.522   2.596  0.1779 -0.4134  0.0836
 4989SOL     OW19953   0.572   2.423   5.284 -0.0949 -0.6095 -0.5509
 4989SOL    HW119954   0.640   2.488   5.269 -0.2081 -0.4487 -0.3735
 4989SOL    HW219955   0.510   2.466   5.343 -0.4307 -0.6969 -0.8349
 4989SOL     MW19956   0.573   2.437   5.289 -0.1524 -0.6001 -0.5645
 4990SOL     OW19957   0.067   2.185   3.590 -0.4362 -0.2108 -0.0351
 4990SOL    HW119958   0.118   2.164   3.512  0.7543  0.5022  0.5129
 4990SOL    HW219959   0.085   2.278   3.606 -1.0834 -0.2107  0.7827
 4990SOL     MW19960   0.076   2.194   3.582 -0.3667 -0.1195  0.1398
 4991SOL     OW19961   1.236   3.065   2.508 -0.7141 -0.0985 -0.0025
 4991SOL    HW119962   1.302   3.067   2.576 -0.9235  0.2975  0.1926
 4991SOL    HW219963   1.281   3.097   2.430 -0.9980  1.4134  0.4258
 4991SOL     MW19964   1.250   3.070   2.506 -0.7773  0.1457  0.0773
 4992SOL     OW19965   2.376   2.481   3.480  0.3689  0.3429 -0.3872
 4992SOL    HW119966   2.365   2.403   3.534 -0.8308  0.7079 -0.0668
 4992SOL    HW219967   2.463   2.472   3.442  0.1689 -1.2543 -0.5363
 4992SOL     MW19968   2.386   2.470   3.482  0.1897  0.1851 -0.3653
 4993SOL     OW19969   2.602   4.393   0.693 -0.0698 -0.2674  0.0926
 4993SOL    HW119970   2.535   4.447   0.652  1.9954  2.1275 -0.3761
 4993SOL    HW219971   2.575   4.387   0.785 -1.7357 -0.7968 -0.3952
 4993SOL     MW19972   2.590   4.399   0.700 -0.0186 -0.0286 -0.0298
 4994SOL     OW19973   3.566   2.105   4.274 -0.0205 -0.1222  0.5318
 4994SOL    HW119974   3.567   2.128   4.367 -2.1667  0.3447  0.5045
 4994SOL    HW219975   3.620   2.171   4.231 -0.0449  0.4214  1.3202
 4994SOL     MW19976   3.573   2.116   4.280 -0.2984  0.0071  0.6292
 4995SOL     OW19977   3.212   4.360   3.920  0.7543  0.3417 -0.3243
 4995SOL    HW119978   3.253   4.436   3.962  1.3796  0.3473 -0.9267
 4995SOL    HW219979   3.178   4.308   3.993 -0.8848  1.8342  0.0577
 4995SOL     MW19980   3.213   4.363   3.935  0.6245  0.5335 -0.3525
 4996SOL     OW19981   0.067   5.207   2.292  0.0325  0.7092  0.0380
 4996SOL    HW119982   0.050   5.116   2.318 -2.0311  0.7844 -0.8548
 4996SOL    HW219983   0.147   5.202   2.240 -0.9244 -0.9224 -1.4029
 4996SOL     MW19984   0.075   5.195   2.289 -0.3542  0.5100 -0.2608
 4997SOL     OW19985   0.547   1.285   3.730  0.7260 -0.0660 -0.1021
 4997SOL    HW119986   0.515   1.281   3.820  1.2213 -1.0107  0.0464
 4997SOL    HW219987   0.637   1.319   3.738  1.5588 -2.1558  0.0049
 4997SOL     MW19988   0.555   1.289   3.742  0.8960 -0.4545 -0.0694
 4998SOL     OW19989   1.159   0.235   4.200  0.1323  0.1307  0.5822
 4998SOL    HW119990   1.076   0.247   4.155  0.3122  1.1825  0.5068
 4998SOL    HW219991   1.169   0.140   4.207 -0.9560 -0.0099  0.3855
 4998SOL     MW19992   1.150   0.225   4.195  0.0160  0.2474  0.5474
 4999SOL     OW19993   5.216   1.547   1.027 -0.3513 -0.0524 -0.1630
 4999SOL    HW119994   5.224   1.486   1.100  0.1449  1.0419  0.7298
 4999SOL    HW219995   5.210   1.491   0.949 -0.9879 -1.2414  0.7100
 4999SOL     MW19996   5.216   1.532   1.026 -0.3692 -0.0645  0.0631
 5000SOL     OW19997   3.069   1.905   0.197  0.6210  0.1668 -0.1308
 5000SOL    HW119998   3.091   1.968   0.128  0.4315 -0.9516 -1.2661
 5000SOL    HW219999   3.113   1.824   0.170 -0.6785 -0.7026  0.2621
 5000SOL     MW20000   3.077   1.903   0.184  0.4304 -0.0877 -0.2259
 5001SOL     OW20001   0.843   3.585   4.963 -0.4299  0.1468 -0.2453
 5001SOL    HW120002   0.849   3.587   5.058  1.0654  0.3098 -0.3236
 5001SOL    HW220003   0.883   3.502   4.937 -0.1669  0.4266 -0.7650
 5001SOL     MW20004   0.849   3.575   4.972 -0.2048  0.2035 -0.3219
 5002SOL     OW20005   5.107   5.475   5.019  0.1548 -0.6865  0.1847
 5002SOL    HW120006   5.152   5.443   5.097 -0.1649  0.2303  0.7640
 5002SOL    HW220007   5.020   5.499   5.050  0.1853  0.1566 -0.3441
 5002SOL     MW20008   5.102   5.474   5.033  0.1178 -0.4612  0.1911
 5003SOL     OW20009   2.472   0.799   4.517 -0.1588  0.3578  0.1380
 5003SOL    HW120010   2.406   0.742   4.556  0.0894  0.2436  0.3915
 5003SOL    HW220011   2.541   0.740   4.487 -1.0292  0.2928 -1.8641
 5003SOL     MW20012   2.473   0.784   4.518 -0.2384  0.3348 -0.0859
 5004SOL     OW20013   1.370   2.642   0.883  0.0080  0.1838  0.3599
 5004SOL    HW120014   1.447   2.587   0.869  1.2346  1.7094  0.7239
 5004SOL    HW220015   1.398   2.704   0.952 -1.8108  0.3057  1.0347
 5004SOL     MW20016   1.384   2.643   0.890 -0.0678  0.3947  0.4929
 5005SOL     OW20017   0.927   4.400   5.322  0.3105 -0.1672  0.2428
 5005SOL    HW120018   0.977   4.345   5.262  0.1554  1.6647 -1.6362
 5005SOL    HW220019   0.991   4.425   5.389  1.0948 -0.3699 -0.4060
 5005SOL     MW20020   0.942   4.396   5.323  0.3910  0.0414 -0.0808
 5006SOL     OW20021   5.282   4.809   2.796 -0.0753  0.4519 -0.6377
 5006SOL    HW120022   5.370   4.807   2.832 -0.2523 -0.5505 -0.2285
 5006SOL    HW220023   5.294   4.810   2.701  0.3729  0.7054 -0.5779
 5006SOL     MW20024   5.295   4.809   2.789 -0.0406  0.3560 -0.5776
 5007SOL     OW20025   2.317   4.904   2.235 -0.3619  0.1609 -0.1322
 5007SOL    HW120026   2.289   4.964   2.167 -1.9978 -0.0270  0.3103
 5007SOL    HW220027   2.364   4.835   2.189 -0.5490  0.5614 -0.9394
 5007SOL     MW20028   2.319   4.903   2.221 -0.5953  0.1881 -0.1789
 5008SOL     OW20029   2.633   4.359   4.495  0.0966 -0.0887  0.7670
 5008SOL    HW120030   2.722   4.342   4.466 -0.0972  0.8949 -0.4973
 5008SOL    HW220031   2.609   4.282   4.547  0.5228 -1.9721 -1.6365
 5008SOL     MW20032   2.641   4.347   4.498  0.1263 -0.2039  0.2975
 5009SOL     OW20033   4.873   4.054   3.654  0.1672  0.2308 -0.1566
 5009SOL    HW120034   4.808   4.064   3.723 -0.8068  0.7220 -1.1031
 5009SOL    HW220035   4.954   4.085   3.693 -0.8377  2.8490  0.0601
 5009SOL     MW20036   4.875   4.060   3.668 -0.0861  0.6288 -0.2500
 5010SOL     OW20037   0.345   3.545   4.494  0.0104 -0.6175 -0.2181
 5010SOL    HW120038   0.317   3.546   4.403  0.5839 -0.4915 -0.3985
 5010SOL    HW220039   0.327   3.634   4.525  1.7397 -0.0193 -0.8240
 5010SOL     MW20040   0.339   3.557   4.487  0.3052 -0.5248 -0.3188
 5011SOL     OW20041   4.034   2.030   1.657 -0.1919 -0.2459  0.2224
 5011SOL    HW120042   3.967   2.090   1.624  0.2573 -0.1115 -0.4751
 5011SOL    HW220043   4.116   2.079   1.651 -0.0062 -0.4699  0.9013
 5011SOL     MW20044   4.036   2.044   1.652 -0.1106 -0.2573  0.2200
 5012SOL     OW20045   4.660   1.540   0.199  0.3445  0.0183 -0.2319
 5012SOL    HW120046   4.567   1.550   0.219  0.4813  0.3627  0.2404
 5012SOL    HW220047   4.703   1.528   0.284  0.7345 -0.1047 -0.4417
 5012SOL     MW20048   4.654   1.540   0.212  0.4120  0.0466 -0.1983
 5013SOL     OW20049   4.041   3.088   3.384  0.5106  0.2489 -0.1307
 5013SOL    HW120050   4.098   3.011   3.386 -0.0788 -0.2387 -1.3900
 5013SOL    HW220051   4.033   3.110   3.291 -1.4191  0.2423 -0.0130
 5013SOL     MW20052   4.047   3.081   3.372  0.1881  0.1857 -0.2768
 5014SOL     OW20053   3.182   0.040   0.340  0.5529 -0.4859 -0.3815
 5014SOL    HW120054   3.255  -0.015   0.311  2.7703  1.8151  0.4834
 5014SOL    HW220055   3.135  -0.015   0.403  2.3006 -1.6435 -0.0024
 5014SOL     MW20056   3.185   0.026   0.344  1.0605 -0.3395 -0.2223
 5015SOL     OW20057   2.021   5.348   5.169  0.1965 -0.1431 -0.2984
 5015SOL    HW120058   2.076   5.300   5.231  2.2265  0.4337 -1.5432
 5015SOL    HW220059   1.938   5.360   5.214  1.2353 -0.6486  1.8765
 5015SOL     MW20060   2.017   5.343   5.183  0.5893 -0.1340 -0.1793
 5016SOL     OW20061   4.852   5.059   1.951  0.1583 -0.0126  0.0450
 5016SOL    HW120062   4.781   5.055   1.887  1.9627  1.1006 -2.1346
 5016SOL    HW220063   4.855   5.151   1.977  2.0995  0.4277 -1.5250
 5016SOL     MW20064   4.843   5.070   1.946  0.6378  0.1863 -0.4350
 5017SOL     OW20065   2.341   4.887   0.910 -0.7109  0.3888 -0.1747
 5017SOL    HW120066   2.259   4.856   0.949 -1.4824  1.2834 -1.0322
 5017SOL    HW220067   2.392   4.807   0.894 -1.2893 -0.1498  0.6307
 5017SOL     MW20068   2.337   4.872   0.913 -0.8837  0.4344 -0.1814
 5018SOL     OW20069   1.363   0.908   5.403 -0.5750  0.5640  0.5324
 5018SOL    HW120070   1.267   0.906   5.396 -0.4924 -0.1349 -0.4253
 5018SOL    HW220071   1.393   0.831   5.356  0.4262  0.2138  1.7017
 5018SOL     MW20072   1.355   0.898   5.396 -0.4362  0.4297  0.5595
 5019SOL     OW20073   0.882   0.590   3.042  0.5472 -0.2508  0.4993
 5019SOL    HW120074   0.849   0.505   3.014  0.0132  0.2017 -0.3068
 5019SOL    HW220075   0.908   0.633   2.961  0.4407  0.5031  0.8565
 5019SOL     MW20076   0.881   0.585   3.028  0.4652 -0.0964  0.4418
 5020SOL     OW20077   4.402   3.987   0.800 -0.2183  0.5657 -0.3344
 5020SOL    HW120078   4.365   4.035   0.874 -2.6322 -0.7821 -0.5637
 5020SOL    HW220079   4.349   4.014   0.725 -1.2564 -1.8472 -0.5849
 5020SOL     MW20080   4.390   3.996   0.800 -0.6602  0.0843 -0.3958
 5021SOL     OW20081   2.920   2.902   0.465 -0.1874  0.1329 -0.0217
 5021SOL    HW120082   2.855   2.943   0.523 -0.5066  1.0324 -0.9786
 5021SOL    HW220083   2.870   2.837   0.416 -0.3469  0.7043 -0.6336
 5021SOL     MW20084   2.905   2.899   0.466 -0.2487  0.3212 -0.2225
 5022SOL     OW20085   0.924   0.627   4.779 -0.1355 -0.0198  0.2573
 5022SOL    HW120086   0.845   0.588   4.815  0.4392 -0.0912  1.5073
 5022SOL    HW220087   0.930   0.593   4.690 -1.9519  0.6593 -0.1450
 5022SOL     MW20088   0.915   0.618   4.772 -0.2945  0.0580  0.3658
 5023SOL     OW20089   5.382   0.395   4.918  0.0030  0.0767 -0.0601
 5023SOL    HW120090   5.394   0.300   4.919  0.1162 -0.0112 -2.6035
 5023SOL    HW220091   5.328   0.414   4.995  1.0714 -1.8422  1.2443
 5023SOL     MW20092   5.377   0.385   4.928  0.1542 -0.1802 -0.2187
 5024SOL     OW20093   1.180   2.320   3.080 -0.0962 -0.0588 -0.3703
 5024SOL    HW120094   1.101   2.326   3.133 -0.5887  0.3234 -1.1297
 5024SOL    HW220095   1.177   2.398   3.024 -0.3160 -1.1429 -1.9439
 5024SOL     MW20096   1.170   2.331   3.079 -0.1874 -0.1486 -0.6690
 5025SOL     OW20097   3.188   3.373   4.660  0.1345  0.3390  0.0475
 5025SOL    HW120098   3.253   3.307   4.684  0.4148  0.0510 -1.4549
 5025SOL    HW220099   3.109   3.346   4.706  0.5651 -0.3709  0.3902
 5025SOL     MW20100   3.186   3.361   4.669  0.2255  0.2112 -0.1010
 5026SOL     OW20101   0.564   3.702   0.558  0.1920 -0.3163  0.1604
 5026SOL    HW120102   0.515   3.683   0.638  0.4533 -0.0764  0.3785
 5026SOL    HW220103   0.579   3.796   0.561  0.3560 -0.3346 -0.0838
 5026SOL     MW20104   0.559   3.711   0.569  0.2464 -0.2879  0.1571
 5027SOL     OW20105   1.174   4.989   0.025  0.2382 -0.3197 -0.6726
 5027SOL    HW120106   1.234   5.063   0.035  1.2273 -0.9397 -1.7667
 5027SOL    HW220107   1.145   4.969   0.114  3.2700 -1.2991  0.1957
 5027SOL     MW20108   1.178   4.996   0.038  0.7529 -0.5245 -0.7015
 5028SOL     OW20109   1.431   4.039   2.549 -0.7075 -0.1682  0.4564
 5028SOL    HW120110   1.390   3.977   2.609 -1.0238 -0.0968  0.3133
 5028SOL    HW220111   1.504   3.990   2.511  0.1288  0.1156  1.6632
 5028SOL     MW20112   1.435   4.025   2.552 -0.6409 -0.1228  0.5926
 5029SOL     OW20113   2.778   1.750   0.524 -0.0997 -0.1386  0.1061
 5029SOL    HW120114   2.852   1.810   0.513  1.8354 -2.5440 -1.2550
 5029SOL    HW220115   2.729   1.756   0.442 -1.6132  1.5932  1.0807
 5029SOL     MW20116   2.782   1.758   0.512 -0.0457 -0.2248  0.0566
 5030SOL     OW20117   4.123   0.279   4.641 -0.0294 -0.5067  0.5073
 5030SOL    HW120118   4.186   0.323   4.698 -0.2526 -0.1549  0.4838
 5030SOL    HW220119   4.070   0.350   4.604 -1.8855 -0.9117  2.2019
 5030SOL     MW20120   4.124   0.294   4.643 -0.2956 -0.5135  0.7212
 5031SOL     OW20121   5.200   3.214   2.371 -0.0040 -0.0920  0.3993
 5031SOL    HW120122   5.233   3.190   2.284  0.7346 -0.4638  0.7737
 5031SOL    HW220123   5.197   3.309   2.370 -0.6122 -0.1051 -0.2526
 5031SOL     MW20124   5.204   3.223   2.360  0.0127 -0.1413  0.3638
 5032SOL     OW20125   4.801   1.658   4.137  0.2224 -0.4606 -0.0044
 5032SOL    HW120126   4.841   1.666   4.223  0.1642  1.1985 -0.0945
 5032SOL    HW220127   4.817   1.743   4.095 -2.3573 -0.1196 -0.4841
 5032SOL     MW20128   4.808   1.670   4.143 -0.1153 -0.2045 -0.0773
 5033SOL     OW20129   5.389   4.542   0.312  0.3502 -0.1624 -0.4022
 5033SOL    HW120130   5.425   4.627   0.338 -0.9439  0.0886  0.6546
 5033SOL    HW220131   5.380   4.549   0.217 -1.3652  1.5815 -0.1615
 5033SOL     MW20132   5.393   4.554   0.303 -0.0350  0.0930 -0.2361
 5034SOL     OW20133   4.905   0.787   2.263 -0.5875  0.0549 -0.2580
 5034SOL    HW120134   4.908   0.702   2.218  1.6683 -0.6050  0.9196
 5034SOL    HW220135   4.977   0.781   2.326 -1.6724  2.1001  1.2561
 5034SOL     MW20136   4.915   0.775   2.266 -0.4376  0.2322  0.0866
 5035SOL     OW20137   1.818   1.237   0.794  0.2983  0.0025 -0.3059
 5035SOL    HW120138   1.895   1.279   0.758  1.7208 -2.4827 -0.3651
 5035SOL    HW220139   1.851   1.183   0.866 -0.7887 -3.4050 -2.1360
 5035SOL     MW20140   1.832   1.235   0.798  0.3413 -0.7518 -0.5477
 5036SOL     OW20141   2.451   4.971   2.905  0.1628  0.1246 -0.0085
 5036SOL    HW120142   2.443   4.878   2.926  0.3635  0.0397 -0.3115
 5036SOL    HW220143   2.380   4.988   2.844 -0.6282  0.4474  0.9646
 5036SOL     MW20144   2.441   4.961   2.900  0.0872  0.1551  0.0773
 5037SOL     OW20145   4.159   4.747   3.154  0.3479  0.0705 -0.1275
 5037SOL    HW120146   4.159   4.751   3.250  1.0342 -1.1465 -0.0556
 5037SOL    HW220147   4.077   4.788   3.128  0.9352  1.9931  0.8812
 5037SOL     MW20148   4.149   4.753   3.163  0.5109  0.1608  0.0108
 5038SOL     OW20149   1.735   4.577   0.335  0.2824  0.4769 -0.0286
 5038SOL    HW120150   1.807   4.548   0.279  0.3103 -0.2891  0.3882
 5038SOL    HW220151   1.775   4.588   0.421 -0.2692 -0.8505  0.4192
 5038SOL     MW20152   1.749   4.575   0.339  0.2153  0.2089  0.0821
 5039SOL     OW20153   1.829   4.032   1.013  0.3193  0.5076 -0.2092
 5039SOL    HW120154   1.812   3.941   1.038  0.3366  0.6086  0.1660
 5039SOL    HW220155   1.746   4.077   1.028  1.3108  1.4176  3.4368
 5039SOL     MW20156   1.816   4.026   1.018  0.4484  0.6370  0.3055
 5040SOL     OW20157   3.433   0.484   3.456 -0.2815  0.1440  0.1525
 5040SOL    HW120158   3.406   0.392   3.460 -1.3539  0.3894 -0.8683
 5040SOL    HW220159   3.527   0.480   3.434 -0.5395 -0.7168 -0.9010
 5040SOL     MW20160   3.442   0.472   3.454 -0.4518  0.0652 -0.1130
 5041SOL     OW20161   0.601   0.434   5.429 -0.1310 -0.3443  0.3238
 5041SOL    HW120162   0.611   0.516   5.477  0.5523 -0.1892 -0.0769
 5041SOL    HW220163   0.663   0.375   5.471 -1.4112 -1.0199  1.3559
 5041SOL     MW20164   0.610   0.437   5.440 -0.2074 -0.4109  0.4046
 5042SOL     OW20165   2.253   2.167   0.478 -0.1489 -0.0396  0.1729
 5042SOL    HW120166   2.179   2.122   0.519 -0.3915  1.2898  1.2640
 5042SOL    HW220167   2.316   2.097   0.461 -0.7337 -0.8886  1.2988
 5042SOL     MW20168   2.252   2.152   0.481 -0.2548  0.0219  0.4567
 5043SOL     OW20169   3.102   4.551   2.685  0.0217  0.1369  0.1156
 5043SOL    HW120170   3.106   4.477   2.625 -1.2898 -0.4109  0.6661
 5043SOL    HW220171   3.008   4.567   2.698  0.2570  0.2737  1.9589
 5043SOL     MW20172   3.090   4.544   2.679 -0.1160  0.0843  0.4220
 5044SOL     OW20173   4.607   3.449   4.203  0.3526  0.0435 -0.4834
 5044SOL    HW120174   4.633   3.362   4.173 -0.1096 -0.4077  0.3937
 5044SOL    HW220175   4.516   3.438   4.233  0.5836  0.6137  0.4607
 5044SOL     MW20176   4.598   3.437   4.203  0.3230  0.0587 -0.2503
 5045SOL     OW20177   4.403   0.998   1.161  0.5116  0.2217 -0.1697
 5045SOL    HW120178   4.471   1.008   1.227  1.0426  0.4866 -0.7494
 5045SOL    HW220179   4.445   0.950   1.090 -0.6329 -1.9140  0.5232
 5045SOL     MW20180   4.417   0.993   1.160  0.4330 -0.0178 -0.1552
 5046SOL     OW20181   2.516   1.960   4.164  0.1762  0.5658  0.1870
 5046SOL    HW120182   2.608   1.987   4.158  0.3270  0.1977  0.7093
 5046SOL    HW220183   2.502   1.945   4.258  0.4192 -2.2126 -0.1315
 5046SOL     MW20184   2.526   1.962   4.175  0.2266  0.1630  0.2131
 5047SOL     OW20185   1.630   5.232   5.168  0.1324  0.2024 -0.0790
 5047SOL    HW120186   1.613   5.282   5.088 -1.1485 -0.7963 -0.4770
 5047SOL    HW220187   1.553   5.250   5.223  1.2192  1.2581  1.1616
 5047SOL     MW20188   1.618   5.241   5.164  0.1075  0.2097  0.0288
 5048SOL     OW20189   5.079   4.065   1.475  0.0591  0.0215 -0.0462
 5048SOL    HW120190   5.170   4.068   1.505  0.2674 -0.7009 -0.5792
 5048SOL    HW220191   5.035   4.010   1.539 -0.3925  1.6870  1.1474
 5048SOL     MW20192   5.085   4.058   1.487  0.0280  0.1422  0.0384
 5049SOL     OW20193   1.793   3.199   4.251 -0.1453  0.3493  0.0554
 5049SOL    HW120194   1.880   3.176   4.285  0.0425  1.7988  0.6416
 5049SOL    HW220195   1.744   3.227   4.328 -0.5173  1.3197 -0.5144
 5049SOL     MW20196   1.798   3.199   4.265 -0.1689  0.6591  0.0575
 5050SOL     OW20197   2.543   2.138   0.701 -0.4045  0.0837 -0.1521
 5050SOL    HW120198   2.606   2.088   0.648 -0.9929 -0.9499  0.0845
 5050SOL    HW220199   2.566   2.229   0.687 -0.2085 -0.1933 -1.7667
 5050SOL     MW20200   2.554   2.143   0.693 -0.4547 -0.0841 -0.3285
 5051SOL     OW20201   1.121   4.382   0.459  0.3875 -0.5639 -0.0768
 5051SOL    HW120202   1.090   4.291   0.461  0.1281 -0.4853 -0.4213
 5051SOL    HW220203   1.048   4.431   0.421  1.0244 -0.4128 -1.1460
 5051SOL     MW20204   1.107   4.376   0.454  0.4359 -0.5345 -0.2577
 5052SOL     OW20205   3.661   2.775   2.740  0.1398 -0.2970  0.0988
 5052SOL    HW120206   3.691   2.837   2.807 -1.0833  0.3129  0.1004
 5052SOL    HW220207   3.660   2.690   2.785  0.6017 -0.1113  0.4684
 5052SOL     MW20208   3.665   2.772   2.755  0.0424 -0.1952  0.1463
 5053SOL     OW20209   5.399   1.339   3.298  0.3501 -0.2854  0.4369
 5053SOL    HW120210   5.327   1.283   3.271  0.4962  0.2031 -1.0328
 5053SOL    HW220211   5.425   1.305   3.384  0.0363 -2.0712 -0.1337
 5053SOL     MW20212   5.393   1.327   3.306  0.3287 -0.4514  0.1757
 5054SOL     OW20213   4.587   5.221   0.573  0.2301 -0.2387  0.0783
 5054SOL    HW120214   4.609   5.131   0.598 -0.6921 -0.2313  0.9945
 5054SOL    HW220215   4.493   5.219   0.555  0.3338  0.4034 -0.5645
 5054SOL     MW20216   4.578   5.209   0.574  0.1253 -0.1555  0.1133
 5055SOL     OW20217   5.133   5.383   1.284  0.5168  0.0780 -0.0552
 5055SOL    HW120218   5.073   5.314   1.258  0.6635 -0.2348  0.4214
 5055SOL    HW220219   5.202   5.338   1.334  0.2742  0.6381  0.8146
 5055SOL     MW20220   5.134   5.368   1.287  0.5045  0.1096  0.1172
 5056SOL     OW20221   2.145   1.186   1.626 -0.5397 -0.8182  0.2292
 5056SOL    HW120222   2.055   1.180   1.659 -0.4778  1.8646  1.1478
 5056SOL    HW220223   2.199   1.148   1.696 -0.5783  3.0762  2.6723
 5056SOL     MW20224   2.140   1.180   1.640 -0.5367  0.0237  0.6595
 5057SOL     OW20225   2.417   2.429   4.040 -0.2174  0.1230  0.0573
 5057SOL    HW120226   2.487   2.422   3.975  0.0760  0.1129  0.3755
 5057SOL    HW220227   2.396   2.339   4.063  0.0434  0.1446  0.3720
 5057SOL     MW20228   2.423   2.417   4.035 -0.1464  0.1245  0.1383
 5058SOL     OW20229   4.588   2.012   2.514  0.1026  0.7290  0.3083
 5058SOL    HW120230   4.651   1.988   2.582  1.1275  0.5369 -0.6949
 5058SOL    HW220231   4.503   2.012   2.560  0.0245 -4.0590  0.6776
 5058SOL     MW20232   4.585   2.009   2.529  0.2238  0.0915  0.2272
 5059SOL     OW20233   0.112   3.413   1.248  0.4262  0.3832 -0.1893
 5059SOL    HW120234   0.141   3.323   1.232  0.6047  0.2923  0.5972
 5059SOL    HW220235   0.098   3.449   1.160  2.3111  0.2253 -0.5991
 5059SOL     MW20236   0.114   3.406   1.235  0.6903  0.3514 -0.1411
 5060SOL     OW20237   2.363   2.300   1.191  0.1244  0.4300 -0.2922
 5060SOL    HW120238   2.439   2.349   1.223 -0.0693  0.8779 -0.5094
 5060SOL    HW220239   2.329   2.354   1.119  1.6390 -1.4111 -2.5373
 5060SOL     MW20240   2.368   2.314   1.185  0.2935  0.2516 -0.6074
 5061SOL     OW20241   3.984   2.441   4.040 -0.5484 -0.5455 -0.3765
 5061SOL    HW120242   4.012   2.427   3.950  0.9317  0.3522 -0.0906
 5061SOL    HW220243   4.024   2.370   4.090 -1.4354 -1.0919 -0.4112
 5061SOL     MW20244   3.992   2.430   4.035 -0.4724 -0.5006 -0.3444
 5062SOL     OW20245   0.758   0.484   3.949 -0.4654 -0.1500  0.1104
 5062SOL    HW120246   0.771   0.560   4.006 -0.5285 -1.2910  1.7240
 5062SOL    HW220247   0.809   0.414   3.990 -1.1235 -1.2158 -0.8205
 5062SOL     MW20248   0.766   0.485   3.962 -0.5578 -0.4325  0.1978
 5063SOL     OW20249   0.669   1.994   1.439  0.5816  0.2298  0.7633
 5063SOL    HW120250   0.739   1.931   1.457 -0.9835 -1.2343  2.1005
 5063SOL    HW220251   0.612   1.949   1.377  1.0535  1.6167 -0.7391
 5063SOL     MW20252   0.671   1.980   1.434  0.4417  0.2200  0.7422
 5064SOL     OW20253   5.100   2.017   2.517  0.4121 -0.2811 -0.2479
 5064SOL    HW120254   5.133   2.089   2.571 -0.1939 -0.3435  0.2192
 5064SOL    HW220255   5.023   2.055   2.473  0.2329 -0.5735 -0.1845
 5064SOL     MW20256   5.094   2.031   2.518  0.3116 -0.3265 -0.1800
 5065SOL     OW20257   1.170   4.345   4.729 -0.6751 -0.1708  0.4061
 5065SOL    HW120258   1.197   4.271   4.676  0.6406  0.8814 -0.4798
 5065SOL    HW220259   1.209   4.421   4.685 -0.1299  0.8179  2.4697
 5065SOL     MW20260   1.178   4.345   4.717 -0.4369  0.0905  0.5569
 5066SOL     OW20261   2.039   5.062   1.732 -0.0558 -0.3526  0.4108
 5066SOL    HW120262   2.050   4.967   1.740 -1.3233 -0.4278  1.7450
 5066SOL    HW220263   2.123   5.093   1.698  0.2935 -1.9668 -0.2994
 5066SOL     MW20264   2.051   5.054   1.729 -0.1734 -0.5689  0.4907
 5067SOL     OW20265   3.749   4.461   3.332  0.1710  0.0086 -0.3581
 5067SOL    HW120266   3.708   4.397   3.273 -0.7847  1.7034 -1.6395
 5067SOL    HW220267   3.682   4.528   3.343  1.4320  1.1959  0.2554
 5067SOL     MW20268   3.735   4.461   3.326  0.2101  0.3776 -0.4436
 5068SOL     OW20269   4.284   4.210   1.741 -0.2074 -0.5555  0.4317
 5068SOL    HW120270   4.269   4.115   1.737 -0.2408 -0.5650  0.7172
 5068SOL    HW220271   4.379   4.219   1.745 -0.1999 -0.5719  0.3061
 5068SOL     MW20272   4.294   4.199   1.741 -0.2107 -0.5588  0.4522
 5069SOL     OW20273   0.051   1.043   3.430 -0.1448  0.1971 -0.8339
 5069SOL    HW120274   0.027   1.015   3.519 -0.4528 -0.3026 -1.0726
 5069SOL    HW220275   0.126   0.988   3.408  1.1960  1.6765 -0.1337
 5069SOL     MW20276   0.058   1.032   3.439 -0.0125  0.3225 -0.7748
 5070SOL     OW20277   2.996   2.918   2.497 -0.1579 -0.2645  0.0472
 5070SOL    HW120278   2.913   2.927   2.451 -0.2682 -0.2020  0.2585
 5070SOL    HW220279   3.017   2.825   2.491 -1.1439 -0.6111  1.5525
 5070SOL     MW20280   2.988   2.907   2.490 -0.2983 -0.3009  0.2669
 5071SOL     OW20281   3.921   0.175   0.312  0.0711  0.6274 -0.3288
 5071SOL    HW120282   3.973   0.243   0.356 -1.3573  0.6296  1.4935
 5071SOL    HW220283   3.915   0.104   0.376 -0.1997 -0.3512 -1.4097
 5071SOL     MW20284   3.927   0.175   0.326 -0.1464  0.5024 -0.2339
 5072SOL     OW20285   3.887   3.677   5.234  0.4626 -0.3075 -0.3934
 5072SOL    HW120286   3.807   3.679   5.287  0.2977 -1.2616 -0.5839
 5072SOL    HW220287   3.958   3.689   5.296  0.2128 -0.3145 -0.1053
 5072SOL     MW20288   3.885   3.679   5.248  0.4095 -0.4305 -0.3809
 5073SOL     OW20289   3.074   0.032   3.198  0.2768 -0.8511 -0.5437
 5073SOL    HW120290   3.045  -0.040   3.254  0.8102 -0.4498  0.2763
 5073SOL    HW220291   3.170   0.026   3.199  0.3952  0.6009  0.5725
 5073SOL     MW20292   3.083   0.022   3.205  0.3602 -0.6139 -0.2959
 5074SOL     OW20293   4.384   1.099   2.289  0.0657  0.1701 -0.3879
 5074SOL    HW120294   4.474   1.108   2.321 -0.6439 -0.1857  1.9079
 5074SOL    HW220295   4.383   1.014   2.244  0.0891 -1.7505  2.8859
 5074SOL     MW20296   4.395   1.089   2.288 -0.0222 -0.1213  0.3251
 5075SOL     OW20297   2.191   1.027   1.133 -0.2329 -0.6620  0.0403
 5075SOL    HW120298   2.204   0.932   1.132 -0.6735 -0.7347  0.6422
 5075SOL    HW220299   2.253   1.059   1.198  1.0682 -0.3380 -1.2990
 5075SOL     MW20300   2.201   1.019   1.141 -0.1227 -0.6298 -0.0541
 5076SOL     OW20301   2.612   1.850   1.123  0.7376 -0.1643  0.0575
 5076SOL    HW120302   2.557   1.781   1.087  0.7413 -0.8050  1.2186
 5076SOL    HW220303   2.559   1.930   1.116 -0.5434 -0.8263  1.5003
 5076SOL     MW20304   2.598   1.851   1.118  0.5741 -0.3311  0.3908
 5077SOL     OW20305   1.632   2.679   4.618 -0.1524 -0.3023  0.1147
 5077SOL    HW120306   1.575   2.754   4.606 -0.9726 -1.0750 -1.0610
 5077SOL    HW220307   1.574   2.610   4.650  0.7987 -0.1573  2.3676
 5077SOL     MW20308   1.617   2.680   4.621 -0.1356 -0.3827  0.2526
 5078SOL     OW20309   4.865   2.865   4.772  0.1347 -0.0530  0.5735
 5078SOL    HW120310   4.774   2.888   4.754  0.4606  1.9056  1.1791
 5078SOL    HW220311   4.864   2.832   4.862 -0.1018 -0.9225  0.2582
 5078SOL     MW20312   4.853   2.864   4.781  0.1461  0.0864  0.6107
 5079SOL     OW20313   4.370   4.188   2.162  0.7594 -0.0099  0.3997
 5079SOL    HW120314   4.353   4.144   2.245  0.0555  0.3977  0.4776
 5079SOL    HW220315   4.451   4.236   2.178  0.0121  1.0254  1.2586
 5079SOL     MW20316   4.378   4.189   2.175  0.5736  0.1748  0.5196
 5080SOL     OW20317   1.090   0.321   4.932  0.1011  0.0798 -0.0782
 5080SOL    HW120318   1.176   0.280   4.944  0.3437  0.1168 -1.4331
 5080SOL    HW220319   1.110   0.411   4.906 -0.2689 -0.3152 -1.8629
 5080SOL     MW20320   1.104   0.327   4.930  0.0848  0.0340 -0.4801
 5081SOL     OW20321   1.962   0.329   4.351 -0.3767  0.2161  0.1151
 5081SOL    HW120322   2.055   0.327   4.327 -0.5139 -1.5501 -0.4007
 5081SOL    HW220323   1.932   0.416   4.325  1.3113  1.1253  1.0453
 5081SOL     MW20324   1.970   0.339   4.345 -0.1782  0.1064  0.1682
 5082SOL     OW20325   3.399   4.733   3.095  0.5576  0.1066 -0.5825
 5082SOL    HW120326   3.358   4.795   3.156 -1.5792  0.1296 -1.9637
 5082SOL    HW220327   3.338   4.726   3.023  1.4354 -2.5415 -1.1687
 5082SOL     MW20328   3.386   4.740   3.094  0.3965 -0.2294 -0.8344
 5083SOL     OW20329   3.075   4.498   0.506 -0.1784 -0.2523 -0.4689
 5083SOL    HW120330   3.159   4.513   0.551 -0.3289  0.5782 -0.4519
 5083SOL    HW220331   3.009   4.513   0.573 -0.3523 -0.4681 -0.5938
 5083SOL     MW20332   3.078   4.502   0.520 -0.2199 -0.1736 -0.4827
 5084SOL     OW20333   2.727   1.128   3.739 -0.2464 -0.0711 -0.6088
 5084SOL    HW120334   2.702   1.090   3.823 -2.2341  1.3227 -0.4950
 5084SOL    HW220335   2.689   1.216   3.741  0.8353  0.4774 -2.4230
 5084SOL     MW20336   2.719   1.135   3.750 -0.3624  0.1775 -0.8265
 5085SOL     OW20337   3.221   1.902   3.256 -0.2306 -0.0413  0.1870
 5085SOL    HW120338   3.237   1.996   3.248 -0.2260 -0.0144  0.4991
 5085SOL    HW220339   3.137   1.888   3.212 -1.0009  0.3651  1.4783
 5085SOL     MW20340   3.212   1.912   3.249 -0.3286  0.0142  0.3922
 5086SOL     OW20341   0.875   0.598   1.688 -0.9218 -0.0558 -0.1178
 5086SOL    HW120342   0.960   0.622   1.652 -0.5854 -0.5734  0.3064
 5086SOL    HW220343   0.891   0.514   1.733 -1.5839 -0.0070  0.2205
 5086SOL     MW20344   0.888   0.590   1.689 -0.9635 -0.1158 -0.0202
 5087SOL     OW20345   1.489   0.961   1.729 -0.3154 -0.5340  0.1420
 5087SOL    HW120346   1.528   1.019   1.795  1.2158 -0.7504 -0.5202
 5087SOL    HW220347   1.439   0.897   1.780 -0.2892  0.1237  1.0117
 5087SOL     MW20348   1.488   0.960   1.744 -0.1160 -0.4775  0.1685
 5088SOL     OW20349   1.232   4.741   5.026  0.0139  0.2461  0.2026
 5088SOL    HW120350   1.280   4.751   5.108 -1.2744  0.6809  0.9181
 5088SOL    HW220351   1.160   4.682   5.047  0.8898 -1.4459 -1.1765
 5088SOL     MW20352   1.229   4.734   5.039 -0.0389  0.0852  0.1177
 5089SOL     OW20353   2.467   1.730   0.100 -0.0457 -0.1985  0.1434
 5089SOL    HW120354   2.530   1.737   0.172 -0.1352 -0.7730  0.2829
 5089SOL    HW220355   2.388   1.773   0.134 -0.5161 -1.5961  0.8990
 5089SOL     MW20356   2.465   1.737   0.114 -0.1173 -0.4510  0.2580
 5090SOL     OW20357   4.402   3.580   5.338  1.1083 -0.0042  0.2192
 5090SOL    HW120358   4.377   3.652   5.396 -1.3208 -0.5996  0.0260
 5090SOL    HW220359   4.423   3.507   5.397  0.4184 -0.0665  0.3989
 5090SOL     MW20360   4.402   3.580   5.353  0.7090 -0.0883  0.2175
 5091SOL     OW20361   3.708   1.348   2.203 -0.1764  0.5111  0.0407
 5091SOL    HW120362   3.751   1.264   2.219  2.1716  1.6763  0.3376
 5091SOL    HW220363   3.671   1.373   2.287 -2.8916 -1.1781 -0.5421
 5091SOL     MW20364   3.708   1.341   2.216 -0.2234  0.4441  0.0041
 5092SOL     OW20365   3.608   2.429   3.128 -0.0014  0.6770 -0.2403
 5092SOL    HW120366   3.575   2.358   3.182  1.4288 -1.4214 -1.9346
 5092SOL    HW220367   3.634   2.497   3.190  0.2932 -1.0491  1.6166
 5092SOL     MW20368   3.607   2.429   3.143  0.2194  0.1874 -0.2195
 5093SOL     OW20369   1.605   0.596   2.950 -0.4452  0.3909 -0.2024
 5093SOL    HW120370   1.622   0.606   3.043 -1.2073  1.3586 -0.1613
 5093SOL    HW220371   1.625   0.504   2.932  4.5369  1.1889 -0.1371
 5093SOL     MW20372   1.610   0.585   2.959  0.0950  0.6169 -0.1887
 5094SOL     OW20373   3.279   0.219   3.860  0.2860 -0.0708 -0.4770
 5094SOL    HW120374   3.269   0.125   3.875  1.4038 -0.1847 -0.3419
 5094SOL    HW220375   3.195   0.247   3.824 -0.8161 -0.6983  1.4721
 5094SOL     MW20376   3.267   0.211   3.857  0.2880 -0.1657 -0.2102
 5095SOL     OW20377   0.162   2.392   5.491 -0.4332  0.1784  0.1071
 5095SOL    HW120378   0.114   2.409   5.409 -1.5063  0.5908  0.7947
 5095SOL    HW220379   0.157   2.297   5.503 -1.9882  0.2927  0.6642
 5095SOL     MW20380   0.155   2.382   5.482 -0.7696  0.2458  0.2665
 5096SOL     OW20381   2.500   2.946   1.576  0.3852  0.2086  0.0037
 5096SOL    HW120382   2.434   3.015   1.571  1.6417  1.6484  1.6398
 5096SOL    HW220383   2.565   2.971   1.510  0.3515  0.0211 -0.1009
 5096SOL     MW20384   2.500   2.958   1.566  0.5417  0.3689  0.1998
 5097SOL     OW20385   4.608   2.606   4.112  0.3872  0.3177 -0.0897
 5097SOL    HW120386   4.694   2.573   4.086  0.4836  1.5209 -1.4395
 5097SOL    HW220387   4.598   2.687   4.062 -1.3575  0.4166  0.3689
 5097SOL     MW20388   4.618   2.612   4.102  0.1762  0.4844 -0.2038
 5098SOL     OW20389   5.061   1.771   3.812  0.5280  0.0626 -0.0679
 5098SOL    HW120390   5.107   1.841   3.768  0.4531  0.3968  0.3741
 5098SOL    HW220391   5.125   1.736   3.875  0.3086  0.2627  0.2670
 5098SOL     MW20392   5.075   1.775   3.815  0.4903  0.1310  0.0316
 5099SOL     OW20393   4.247   0.752   1.590  0.2573 -0.8968  0.0021
 5099SOL    HW120394   4.317   0.747   1.525 -0.9755 -2.7202 -1.2782
 5099SOL    HW220395   4.235   0.846   1.606 -0.0736 -0.3082 -3.1756
 5099SOL     MW20396   4.254   0.763   1.584  0.0571 -1.0548 -0.5686
 5100SOL     OW20397   3.413   3.606   4.296  0.2217 -0.1453 -0.3042
 5100SOL    HW120398   3.378   3.635   4.212 -2.0260 -0.3281  0.4891
 5100SOL    HW220399   3.429   3.512   4.284 -0.5322 -0.2662 -0.4187
 5100SOL     MW20400   3.410   3.597   4.284 -0.1626 -0.1842 -0.2173
 5101SOL     OW20401   2.029   1.973   2.448  0.3232 -0.2852  0.1677
 5101SOL    HW120402   2.077   1.894   2.472 -0.1115 -0.9240 -0.9855
 5101SOL    HW220403   2.077   2.044   2.491  0.5895 -1.1769  1.4028
 5101SOL     MW20404   2.042   1.972   2.457  0.3016 -0.4811  0.1782
 5102SOL     OW20405   1.535   2.029   1.351  0.2495  0.3044 -0.4191
 5102SOL    HW120406   1.544   2.102   1.413  1.5408  0.7811 -1.1255
 5102SOL    HW220407   1.441   2.025   1.333 -0.3486 -0.5913  2.3932
 5102SOL     MW20408   1.524   2.038   1.357  0.3383  0.2508 -0.1495
 5103SOL     OW20409   3.183   4.407   1.840  0.1277 -0.1147 -0.4082
 5103SOL    HW120410   3.189   4.369   1.752 -0.1515  0.8029 -0.8276
 5103SOL    HW220411   3.197   4.500   1.828  2.3821 -0.2141  0.8082
 5103SOL     MW20412   3.185   4.414   1.827  0.3805 -0.0099 -0.3061
 5104SOL     OW20413   5.501   3.318   4.336 -0.1171 -0.3068 -0.6808
 5104SOL    HW120414   5.478   3.227   4.357 -1.3622  0.0619 -0.3798
 5104SOL    HW220415   5.431   3.348   4.279  0.9021  0.1240 -1.7588
 5104SOL     MW20416   5.489   3.310   4.331 -0.1460 -0.2045 -0.7803
 5105SOL     OW20417   5.479   1.452   5.043 -0.3922 -0.1324 -0.1468
 5105SOL    HW120418   5.395   1.414   5.019 -0.9247  1.4289 -0.9486
 5105SOL    HW220419   5.457   1.525   5.101  0.4692 -0.1812  0.2677
 5105SOL     MW20420   5.466   1.457   5.047 -0.3501  0.0612 -0.1964
 5106SOL     OW20421   4.726   1.131   1.646 -0.5393  0.0044  0.4067
 5106SOL    HW120422   4.653   1.074   1.621 -0.1858  0.4185 -1.7106
 5106SOL    HW220423   4.734   1.119   1.741 -1.6572 -2.0453  0.2888
 5106SOL     MW20424   4.718   1.122   1.655 -0.6372 -0.2050  0.1205
 5107SOL     OW20425   2.131   1.398   3.699  0.2080 -0.1192 -0.4266
 5107SOL    HW120426   2.187   1.359   3.633 -0.6088 -0.5504 -0.8760
 5107SOL    HW220427   2.092   1.323   3.745  0.8687  0.1686  0.6429
 5107SOL     MW20428   2.133   1.383   3.697  0.1880 -0.1375 -0.3472
 5108SOL     OW20429   3.671   1.130   4.025 -0.2784  0.4448  0.2490
 5108SOL    HW120430   3.683   1.109   4.117 -1.0301 -0.2180  0.2103
 5108SOL    HW220431   3.576   1.136   4.014 -0.2685 -0.7120 -0.7274
 5108SOL     MW20432   3.661   1.128   4.035 -0.3734  0.2118  0.1190
 5109SOL     OW20433   5.225   0.344   5.144 -0.0363  0.2208  0.3391
 5109SOL    HW120434   5.252   0.426   5.186 -3.7728  1.0255  1.5970
 5109SOL    HW220435   5.203   0.286   5.217 -0.8058 -0.5870 -0.5084
 5109SOL     MW20436   5.225   0.347   5.159 -0.6132  0.2204  0.3917
 5110SOL     OW20437   3.960   5.011   2.367 -0.0310  0.0999 -0.1660
 5110SOL    HW120438   4.005   5.040   2.446  0.4614  0.3701 -0.5360
 5110SOL    HW220439   3.912   4.932   2.393 -0.5795  0.6843  0.6074
 5110SOL     MW20440   3.959   5.004   2.380 -0.0382  0.2093 -0.1144
 5111SOL     OW20441   0.242   3.116   4.535  0.0213 -0.5748  0.3435
 5111SOL    HW120442   0.305   3.114   4.464 -0.9962  0.0940 -0.6206
 5111SOL    HW220443   0.211   3.207   4.538 -1.5359 -1.0600  0.1676
 5111SOL     MW20444   0.246   3.127   4.526 -0.3083 -0.5513  0.1975
 5112SOL     OW20445   2.812   1.183   2.547  0.0597  0.3703 -0.0768
 5112SOL    HW120446   2.830   1.111   2.608 -1.1289  0.6785  0.6573
 5112SOL    HW220447   2.726   1.163   2.511 -1.0633  2.2381  1.3928
 5112SOL     MW20448   2.804   1.171   2.550 -0.2362  0.6489  0.2053
 5113SOL     OW20449   3.121   4.718   3.407  0.6817 -0.1672 -0.5084
 5113SOL    HW120450   3.031   4.726   3.437  0.7774  1.2227 -0.4859
 5113SOL    HW220451   3.117   4.660   3.331 -0.3400  0.3871 -0.9016
 5113SOL     MW20452   3.109   4.712   3.401  0.5631  0.0817 -0.5559
 5114SOL     OW20453   2.487   1.843   4.816  0.0295  0.4713  0.0588
 5114SOL    HW120454   2.560   1.864   4.874  0.5972 -0.0686 -0.4431
 5114SOL    HW220455   2.458   1.757   4.844  0.1633  0.3040 -0.3132
 5114SOL     MW20456   2.493   1.835   4.827  0.1193  0.3808 -0.0531
 5115SOL     OW20457   2.056   2.319   4.353  0.4092  0.0667  0.4068
 5115SOL    HW120458   2.085   2.228   4.342  1.0694  0.3165  0.0409
 5115SOL    HW220459   1.975   2.312   4.404 -0.2142 -0.8103 -0.6666
 5115SOL     MW20460   2.049   2.306   4.358  0.4139 -0.0136  0.2226
 5116SOL     OW20461   3.973   4.084   0.188 -0.4837 -0.1782  0.3591
 5116SOL    HW120462   4.001   4.019   0.252 -0.9020  0.1560  0.8946
 5116SOL    HW220463   3.948   4.160   0.241 -0.3206  0.2974 -0.2366
 5116SOL     MW20464   3.973   4.085   0.203 -0.5164 -0.0745  0.3514
 5117SOL     OW20465   0.423   1.244   3.409 -0.0772  0.2798 -0.1493
 5117SOL    HW120466   0.443   1.168   3.354  0.2334 -0.5009  1.0225
 5117SOL    HW220467   0.483   1.237   3.483 -2.6162 -0.5122  1.9723
 5117SOL     MW20468   0.433   1.233   3.411 -0.3624  0.0785  0.2723
 5118SOL     OW20469   0.159   1.985   1.595  0.5864 -0.0269  0.4529
 5118SOL    HW120470   0.110   1.903   1.599  0.5412 -0.0511 -0.4396
 5118SOL    HW220471   0.186   2.001   1.686  0.4463 -0.9304  0.6633
 5118SOL     MW20472   0.156   1.976   1.607  0.5626 -0.1456  0.3656
 5119SOL     OW20473   0.024   3.437   4.820 -0.2691  0.0359  0.1155
 5119SOL    HW120474   0.028   3.455   4.726 -2.0398 -0.5157 -0.0954
 5119SOL    HW220475   0.094   3.374   4.835 -0.6835 -0.7379 -1.0617
 5119SOL     MW20476   0.034   3.431   4.810 -0.5488 -0.1337 -0.0622
 5120SOL     OW20477   1.902   4.917   0.921  0.6147 -0.2417  0.2686
 5120SOL    HW120478   1.828   4.871   0.959 -0.8856  0.1672 -1.9719
 5120SOL    HW220479   1.926   4.866   0.844  0.6777  1.2281 -0.7277
 5120SOL     MW20480   1.896   4.905   0.916  0.4307 -0.0012 -0.1457
 5121SOL     OW20481   5.035   0.933   3.764  0.2653 -0.3762 -0.3131
 5121SOL    HW120482   5.102   0.901   3.704 -0.5379 -1.7993 -0.4804
 5121SOL    HW220483   5.067   1.019   3.792  1.7134 -0.6446 -1.0720
 5121SOL     MW20484   5.048   0.940   3.760  0.3478 -0.5928 -0.4317
 5122SOL     OW20485   0.722   2.561   2.769  0.4377 -0.0227 -0.7931
 5122SOL    HW120486   0.741   2.558   2.863 -0.0950  0.2513 -0.6741
 5122SOL    HW220487   0.677   2.479   2.751  0.8202 -0.2177 -0.8759
 5122SOL     MW20488   0.719   2.551   2.779  0.4185 -0.0126 -0.7885
 5123SOL     OW20489   3.430   3.751   1.522  0.0828 -0.1001 -0.6613
 5123SOL    HW120490   3.434   3.728   1.615  0.3033  1.9969 -0.1176
 5123SOL    HW220491   3.336   3.751   1.502  0.0299 -0.4566 -0.4262
 5123SOL     MW20492   3.418   3.748   1.531  0.1043  0.1227 -0.5616
 5124SOL     OW20493   4.539   4.297   3.089  0.2330 -0.7140 -0.0647
 5124SOL    HW120494   4.593   4.238   3.037 -0.3204 -0.9932 -0.3297
 5124SOL    HW220495   4.505   4.242   3.160  1.0968 -0.3046  0.6809
 5124SOL     MW20496   4.542   4.282   3.092  0.2727 -0.6973 -0.0032
 5125SOL     OW20497   1.012   0.670   3.525 -0.4252 -0.0605  0.5182
 5125SOL    HW120498   0.968   0.592   3.557  1.5951 -1.8893 -0.8548
 5125SOL    HW220499   1.005   0.665   3.429  0.0198  1.2669  0.3830
 5125SOL     MW20500   1.006   0.660   3.517 -0.1096 -0.1247  0.3251
 5126SOL     OW20501   1.570   2.189   2.748 -0.4958 -0.8683 -0.1023
 5126SOL    HW120502   1.566   2.094   2.764  1.1236 -0.6147  2.3530
 5126SOL    HW220503   1.647   2.200   2.693 -0.2373 -0.9377  0.2384
 5126SOL     MW20504   1.579   2.178   2.743 -0.2554 -0.8447  0.2556
 5127SOL     OW20505   5.090   3.146   1.222 -0.4580 -0.7787  0.6412
 5127SOL    HW120506   5.102   3.166   1.315  0.3885 -0.4050  0.4640
 5127SOL    HW220507   5.132   3.061   1.210  2.6906  0.7144 -0.0641
 5127SOL     MW20508   5.097   3.138   1.232  0.0535 -0.5398  0.5282
 5128SOL     OW20509   1.648   5.361   3.867 -0.2941  0.2976 -0.3483
 5128SOL    HW120510   1.598   5.440   3.887 -0.7238 -0.1397  0.3513
 5128SOL    HW220511   1.684   5.377   3.780 -0.8806  1.0052 -0.4725
 5128SOL     MW20512   1.646   5.373   3.859 -0.4242  0.3322 -0.2747
 5129SOL     OW20513   2.536   4.245   3.503  0.0783  0.1788 -0.2122
 5129SOL    HW120514   2.460   4.303   3.512 -0.0629 -0.2754  2.0172
 5129SOL    HW220515   2.520   4.198   3.421 -2.0503  0.1311  0.1654
 5129SOL     MW20516   2.524   4.246   3.494 -0.2123  0.1146  0.1215
 5130SOL     OW20517   3.195   4.496   1.267 -0.1168 -0.0630  0.0467
 5130SOL    HW120518   3.284   4.524   1.245  0.1206 -0.0807  0.9793
 5130SOL    HW220519   3.206   4.411   1.310 -0.4880  0.4706  1.2209
 5130SOL     MW20520   3.208   4.489   1.269 -0.1340  0.0030  0.3164
 5131SOL     OW20521   5.245   4.469   2.320 -0.3019  0.7723 -0.7484
 5131SOL    HW120522   5.288   4.478   2.406 -0.8794  1.2093 -0.5029
 5131SOL    HW220523   5.303   4.410   2.271  0.8548  1.7399 -0.5999
 5131SOL     MW20524   5.258   4.463   2.325 -0.2278  0.9521 -0.6979
 5132SOL     OW20525   5.156   4.753   4.392 -0.6502 -0.6270 -0.4593
 5132SOL    HW120526   5.147   4.814   4.466  1.0720 -0.3971 -0.3947
 5132SOL    HW220527   5.107   4.794   4.321  1.7321  1.7546 -0.9164
 5132SOL     MW20528   5.149   4.766   4.392 -0.1248 -0.2927 -0.5095
 5133SOL     OW20529   1.760   4.527   3.362  0.0677  0.0108 -0.1858
 5133SOL    HW120530   1.837   4.535   3.306  0.2484 -2.2063 -0.3719
 5133SOL    HW220531   1.795   4.529   3.451  0.2254 -0.0043 -0.2473
 5133SOL     MW20532   1.774   4.528   3.366  0.1111 -0.2750 -0.2175
 5134SOL     OW20533   2.096   3.214   4.029 -0.1760  0.0891 -0.6829
 5134SOL    HW120534   2.077   3.131   3.986  0.8058  0.4193 -1.7822
 5134SOL    HW220535   2.063   3.281   3.969  0.7912  0.5451 -0.7192
 5134SOL     MW20536   2.089   3.212   4.016  0.0735  0.1898 -0.8282
 5135SOL     OW20537   3.205   3.481   2.864  0.1187  0.0756 -0.2768
 5135SOL    HW120538   3.275   3.516   2.919 -0.5197  1.2366 -0.1719
 5135SOL    HW220539   3.241   3.483   2.775  0.6524 -0.5134 -0.0839
 5135SOL     MW20540   3.219   3.486   2.860  0.1053  0.1488 -0.2386
 5136SOL     OW20541   2.487   2.094   1.052 -0.0470 -0.2928  0.4739
 5136SOL    HW120542   2.433   2.086   0.973  0.1772 -1.8037  0.4525
 5136SOL    HW220543   2.441   2.159   1.105 -1.0410 -0.3928 -0.2301
 5136SOL     MW20544   2.474   2.102   1.048 -0.1456 -0.4990  0.3811
 5137SOL     OW20545   2.332   2.478   1.590  0.0598 -0.1756  0.1881
 5137SOL    HW120546   2.404   2.423   1.621  0.1603 -0.2007 -0.0911
 5137SOL    HW220547   2.272   2.483   1.665  0.9993  0.9868  0.8976
 5137SOL     MW20548   2.333   2.471   1.603  0.1929 -0.0300  0.2432
 5138SOL     OW20549   2.856   4.064   0.740 -0.1978 -0.1586  0.5003
 5138SOL    HW120550   2.931   4.122   0.755  0.7210 -1.2004  0.0808
 5138SOL    HW220551   2.782   4.110   0.780  0.0276  2.3254 -1.6903
 5138SOL     MW20552   2.856   4.077   0.747 -0.0513  0.0260  0.1662
 5139SOL     OW20553   4.439   2.465   3.932  0.4149 -0.1447  0.2383
 5139SOL    HW120554   4.500   2.518   3.983 -0.5028  1.1775  0.0238
 5139SOL    HW220555   4.494   2.409   3.877  1.4147  0.8090  0.2558
 5139SOL     MW20556   4.454   2.464   3.932  0.4254  0.1466  0.2131
 5140SOL     OW20557   4.438   0.109   1.929 -0.0559 -0.0004  0.4409
 5140SOL    HW120558   4.450   0.113   1.834  0.5386 -4.0729  0.1679
 5140SOL    HW220559   4.346   0.083   1.941 -0.5120  1.7719  1.1221
 5140SOL     MW20560   4.427   0.106   1.918 -0.0382 -0.2948  0.4932
 5141SOL     OW20561   0.256   2.020   4.137  0.4485 -0.1175 -0.0924
 5141SOL    HW120562   0.272   2.115   4.139  2.6976 -0.4504  1.6777
 5141SOL    HW220563   0.240   1.997   4.228 -2.1639 -1.2087 -0.7422
 5141SOL     MW20564   0.256   2.029   4.149  0.4020 -0.2998  0.0510
 5142SOL     OW20565   4.883   0.902   4.719  0.1129  0.0560  0.2147
 5142SOL    HW120566   4.832   0.823   4.699  0.0204  0.3546 -0.8271
 5142SOL    HW220567   4.818   0.965   4.750  0.0334  0.0222  0.1218
 5142SOL     MW20568   4.868   0.900   4.720  0.0909  0.0899  0.0695
 5143SOL     OW20569   1.504   4.282   5.267 -0.4166 -0.2408  0.4303
 5143SOL    HW120570   1.483   4.195   5.233 -1.3487  0.2511 -0.2881
 5143SOL    HW220571   1.445   4.294   5.341  0.4888 -0.6501  1.2506
 5143SOL     MW20572   1.494   4.272   5.273 -0.4200 -0.2303  0.4433
 5144SOL     OW20573   2.802   1.500   4.872 -0.2765  0.2528  0.5172
 5144SOL    HW120574   2.854   1.442   4.928 -0.2853 -2.2915 -1.9140
 5144SOL    HW220575   2.866   1.550   4.823 -0.2007  0.0508  0.4098
 5144SOL     MW20576   2.817   1.499   4.873 -0.2680 -0.0987  0.1922
 5145SOL     OW20577   5.206   5.392   4.047  0.4148 -0.2150 -0.0503
 5145SOL    HW120578   5.287   5.345   4.067  0.6558  0.2421  0.0556
 5145SOL    HW220579   5.228   5.446   3.971  0.8287  1.4921  1.2306
 5145SOL     MW20580   5.219   5.393   4.040  0.4987  0.0621  0.1272
 5146SOL     OW20581   4.648   5.234   2.375 -0.0864  0.0672  0.7183
 5146SOL    HW120582   4.735   5.198   2.361 -0.5671 -1.1465  0.7450
 5146SOL    HW220583   4.626   5.209   2.465 -0.8924 -0.5720  0.3481
 5146SOL     MW20584   4.656   5.226   2.385 -0.2512 -0.1700  0.6743
 5147SOL     OW20585   4.351   3.352   2.699  0.0805  0.9189 -0.3030
 5147SOL    HW120586   4.317   3.294   2.630 -0.3206  0.0824  0.5799
 5147SOL    HW220587   4.446   3.339   2.697 -0.1166 -1.1477  1.0387
 5147SOL     MW20588   4.359   3.343   2.690  0.0039  0.5473 -0.0182
 5148SOL     OW20589   5.063   0.714   1.472  0.1966 -0.5218 -0.2807
 5148SOL    HW120590   4.975   0.677   1.468 -0.0967  0.2584 -2.0275
 5148SOL    HW220591   5.063   0.768   1.552 -1.5275  0.8813 -1.1534
 5148SOL     MW20592   5.052   0.716   1.482 -0.0617 -0.2423 -0.6160
 5149SOL     OW20593   2.350   3.136   4.391  0.2596  0.4698  0.3816
 5149SOL    HW120594   2.423   3.181   4.348 -1.3760  2.9007 -0.0488
 5149SOL    HW220595   2.366   3.147   4.485  0.2500  1.3512  0.2844
 5149SOL     MW20596   2.362   3.143   4.397  0.0490  0.8939  0.3141
 5150SOL     OW20597   4.608   3.911   3.152  0.2059 -0.2032 -0.0841
 5150SOL    HW120598   4.621   3.883   3.243 -0.0824 -4.6941 -1.2057
 5150SOL    HW220599   4.516   3.892   3.134  0.4866 -0.2547 -1.5764
 5150SOL     MW20600   4.598   3.905   3.161  0.2049 -0.7847 -0.4187
 5151SOL     OW20601   3.634   4.558   1.754  0.2089 -0.2835  0.2136
 5151SOL    HW120602   3.647   4.629   1.691  1.0995 -2.0617 -1.7258
 5151SOL    HW220603   3.722   4.529   1.777 -0.1214 -1.7607 -0.2631
 5151SOL     MW20604   3.647   4.563   1.749  0.2806 -0.7002 -0.0957
 5152SOL     OW20605  -0.001   0.743   2.477 -0.5371 -0.2381 -0.5704
 5152SOL    HW120606   0.007   0.799   2.554 -1.6891  0.3000 -0.8362
 5152SOL    HW220607   0.076   0.685   2.482 -0.3751  0.0662  0.7478
 5152SOL     MW20608   0.010   0.742   2.488 -0.6638 -0.1303 -0.4357
 5153SOL     OW20609   3.504   1.213   4.937  0.7384  0.2303  0.1847
 5153SOL    HW120610   3.479   1.273   4.867  0.1928 -0.2852 -0.0607
 5153SOL    HW220611   3.508   1.268   5.016 -2.3212  0.1409  0.4895
 5153SOL     MW20612   3.501   1.228   4.939  0.2769  0.1529  0.1923
 5154SOL     OW20613   1.124   2.363   3.932  0.2646  0.1983  0.2143
 5154SOL    HW120614   1.206   2.332   3.893  0.3054 -1.2305  1.3465
 5154SOL    HW220615   1.063   2.368   3.858  1.0868  0.3202 -0.4825
 5154SOL     MW20616   1.127   2.360   3.917  0.3750  0.0310  0.2700
 5155SOL     OW20617   2.322   4.968   0.245 -0.4241 -0.2306 -0.0957
 5155SOL    HW120618   2.312   4.908   0.171  0.7897 -1.0508  0.3732
 5155SOL    HW220619   2.234   4.976   0.281 -0.8405 -0.6782 -0.9645
 5155SOL     MW20620   2.309   4.962   0.240 -0.3220 -0.3929 -0.1469
 5156SOL     OW20621   2.773   5.344   2.870  0.4374 -0.0667  0.0092
 5156SOL    HW120622   2.858   5.375   2.840 -0.1786  1.5619 -0.2189
 5156SOL    HW220623   2.713   5.370   2.800 -0.1397 -2.0065 -0.2617
 5156SOL     MW20624   2.776   5.351   2.857  0.2847 -0.1065 -0.0547
 5157SOL     OW20625   3.941   3.017   3.954 -0.3193  0.1907 -0.0716
 5157SOL    HW120626   3.925   2.965   4.033 -0.1324 -0.3841 -0.4110
 5157SOL    HW220627   4.035   3.032   3.954 -0.3905  0.6644  0.1040
 5157SOL     MW20628   3.951   3.013   3.964 -0.3045  0.1778 -0.0926
 5158SOL     OW20629   2.128   0.866   3.053  0.3504  0.2645 -0.0523
 5158SOL    HW120630   2.193   0.935   3.042  0.8807 -0.2881 -0.4436
 5158SOL    HW220631   2.044   0.910   3.035  0.8049  0.4574 -1.9709
 5158SOL     MW20632   2.125   0.881   3.049  0.4764  0.2185 -0.3480
 5159SOL     OW20633   2.022   4.938   4.885  0.2940  0.5605  0.4329
 5159SOL    HW120634   1.990   4.858   4.845 -0.8675  1.3396 -0.2551
 5159SOL    HW220635   2.108   4.952   4.845  1.5116 -1.4439  2.1509
 5159SOL     MW20636   2.029   4.930   4.875  0.3012  0.4036  0.5648
 5160SOL     OW20637   2.333   4.990   2.665 -0.6725 -0.2647  0.0459
 5160SOL    HW120638   2.390   4.932   2.614 -1.7515  0.3656 -1.9729
 5160SOL    HW220639   2.256   4.937   2.684  0.1197 -0.8161  1.9797
 5160SOL     MW20640   2.331   4.976   2.661 -0.7092 -0.2546  0.0350
 5161SOL     OW20641   1.044   3.371   5.253 -0.0268 -0.1609 -0.4696
 5161SOL    HW120642   1.044   3.296   5.313 -0.7353 -0.4724 -0.8494
 5161SOL    HW220643   1.137   3.396   5.246  0.3524 -1.6815 -1.1914
 5161SOL     MW20644   1.056   3.365   5.260 -0.0689 -0.3954 -0.6106
 5162SOL     OW20645   2.608   4.631   1.174  0.2504 -0.0869  0.0061
 5162SOL    HW120646   2.670   4.563   1.149  0.6458 -0.2656  1.3723
 5162SOL    HW220647   2.662   4.707   1.197 -0.2066  0.9616 -2.1271
 5162SOL     MW20648   2.623   4.632   1.174  0.2425  0.0244 -0.0921
 5163SOL     OW20649   2.795   3.567   3.335 -0.3390 -0.0940  0.0624
 5163SOL    HW120650   2.820   3.562   3.427  0.7490  0.5842 -0.1746
 5163SOL    HW220651   2.820   3.483   3.298  1.9345  0.6441 -0.2175
 5163SOL     MW20652   2.801   3.556   3.342  0.0913  0.0873 -0.0038
 5164SOL     OW20653   3.486   2.824   5.009 -0.2416  0.4217  0.0145
 5164SOL    HW120654   3.531   2.899   5.046  0.7255  0.0176 -0.3010
 5164SOL    HW220655   3.393   2.845   5.017  0.0121  1.8260 -0.4472
 5164SOL     MW20656   3.480   2.836   5.015 -0.0853  0.5498 -0.0850
 5165SOL     OW20657   2.805   5.430   0.131 -0.1851  0.4524 -0.0604
 5165SOL    HW120658   2.793   5.368   0.203 -0.3967 -1.0691 -1.3379
 5165SOL    HW220659   2.888   5.474   0.150 -1.0586  1.3550  1.9633
 5165SOL     MW20660   2.814   5.428   0.142 -0.3240  0.3732  0.0351
 5166SOL     OW20661   2.104   3.471   2.062 -0.1029  0.0289 -0.0257
 5166SOL    HW120662   2.098   3.376   2.069  1.5079 -0.1711 -1.0221
 5166SOL    HW220663   2.139   3.487   1.975  0.1266  1.5200  0.3143
 5166SOL     MW20664   2.107   3.461   2.052  0.1327  0.1942 -0.1097
 5167SOL     OW20665   2.522   2.011   0.007 -0.1679 -0.0087  0.0660
 5167SOL    HW120666   2.537   1.920   0.032 -0.9444  0.6083  3.1595
 5167SOL    HW220667   2.434   2.010  -0.032  0.7569 -0.8739 -2.1728
 5167SOL     MW20668   2.512   1.999   0.005 -0.1489 -0.0404  0.1755
 5168SOL     OW20669  -0.012   1.515   2.946  0.1220  0.0887  0.1879
 5168SOL    HW120670   0.012   1.443   3.005  1.1917 -0.3013 -0.6985
 5168SOL    HW220671   0.058   1.517   2.881 -1.4004  0.0462 -1.5057
 5168SOL     MW20672   0.000   1.506   2.945  0.0640  0.0334 -0.1424
 5169SOL     OW20673   4.287   3.295   4.436 -0.1897 -0.2205  0.6662
 5169SOL    HW120674   4.223   3.234   4.472  0.1518 -0.3186  1.1146
 5169SOL    HW220675   4.288   3.276   4.342 -0.2361 -0.7697  0.7700
 5169SOL     MW20676   4.279   3.285   4.428 -0.1519 -0.3033  0.7369
 5170SOL     OW20677   1.638   1.134   0.583 -0.4931  0.0571 -0.5041
 5170SOL    HW120678   1.654   1.181   0.501  1.0920  0.6555  0.0987
 5170SOL    HW220679   1.684   1.186   0.650 -2.1714 -0.1200  0.8757
 5170SOL     MW20680   1.646   1.147   0.581 -0.5050  0.1111 -0.2503
 5171SOL     OW20681   5.077   5.305   4.747  0.0219  0.1972 -0.6350
 5171SOL    HW120682   5.001   5.269   4.793 -0.6516  1.9290 -0.3258
 5171SOL    HW220683   5.124   5.356   4.814 -1.5546  3.6570 -1.9391
 5171SOL     MW20684   5.073   5.307   4.762 -0.2661  0.8618 -0.7624
 5172SOL     OW20685   2.581   1.467   0.844 -0.2434 -0.2526 -0.1519
 5172SOL    HW120686   2.632   1.470   0.764 -0.8047 -1.2668 -0.5638
 5172SOL    HW220687   2.582   1.557   0.877 -1.5602  0.6148 -2.2933
 5172SOL     MW20688   2.588   1.479   0.838 -0.4838 -0.2714 -0.4788
 5173SOL     OW20689   0.072   0.532   2.777 -1.0225 -0.0026  0.2307
 5173SOL    HW120690   0.017   0.454   2.785 -0.4547 -0.4880 -0.4802
 5173SOL    HW220691   0.113   0.524   2.691  0.4952  0.1190  0.9040
 5173SOL     MW20692   0.071   0.521   2.767 -0.7555 -0.0491  0.2259
 5174SOL     OW20693   5.322   4.986   0.781  0.1190 -0.7946  0.1240
 5174SOL    HW120694   5.256   4.983   0.850  1.2184 -0.2765  1.2402
 5174SOL    HW220695   5.357   4.896   0.777  1.2681 -0.4492  1.5131
 5174SOL     MW20696   5.318   4.974   0.789  0.4068 -0.6841  0.4447
 5175SOL     OW20697   4.672   4.688   1.751  0.1501  0.3235 -0.0036
 5175SOL    HW120698   4.598   4.730   1.709  0.2861 -1.5224 -2.2532
 5175SOL    HW220699   4.633   4.637   1.822 -0.2266  2.3690  1.3623
 5175SOL     MW20700   4.658   4.687   1.755  0.1193  0.3491 -0.1167
 5176SOL     OW20701   0.849   3.771   3.028  0.0907 -0.3565  0.5836
 5176SOL    HW120702   0.849   3.860   3.062  3.6051 -0.4102  1.1152
 5176SOL    HW220703   0.829   3.716   3.103  1.5889 -0.1325  1.1925
 5176SOL     MW20704   0.847   3.775   3.042  0.7324 -0.3347  0.7296
 5177SOL     OW20705   3.500   5.192   1.293 -0.3850  0.3376 -0.0762
 5177SOL    HW120706   3.473   5.272   1.247 -1.2219  1.5631  2.3846
 5177SOL    HW220707   3.420   5.140   1.300 -0.0052 -0.4066 -0.9785
 5177SOL     MW20708   3.487   5.196   1.288 -0.4436  0.3992  0.1233
 5178SOL     OW20709   1.245   0.396   4.443 -0.1142 -0.2787 -0.0219
 5178SOL    HW120710   1.212   0.338   4.374 -2.1965 -0.0020  0.6865
 5178SOL    HW220711   1.319   0.441   4.402 -0.1985 -1.3887 -1.4912
 5178SOL     MW20712   1.250   0.394   4.429 -0.3916 -0.3853 -0.1193
 5179SOL     OW20713   4.654   1.124   2.343 -0.0093 -0.1170 -0.0552
 5179SOL    HW120714   4.676   1.185   2.273 -0.0589  1.6822  1.3983
 5179SOL    HW220715   4.724   1.135   2.407 -1.6588  0.8805  1.7034
 5179SOL     MW20716   4.666   1.133   2.342 -0.2268  0.2410  0.3560
 5180SOL     OW20717   2.875   0.106   2.539 -0.1896  0.2237  0.4526
 5180SOL    HW120718   2.924   0.075   2.463 -1.1167  0.4111 -0.2376
 5180SOL    HW220719   2.920   0.187   2.564 -1.3178  1.5129 -1.4423
 5180SOL     MW20720   2.887   0.112   2.533 -0.4527  0.4127  0.1216
 5181SOL     OW20721   2.376   3.546   3.710  0.3201 -0.1293 -0.3561
 5181SOL    HW120722   2.300   3.584   3.754  1.3114  2.5474 -0.7662
 5181SOL    HW220723   2.413   3.618   3.658  1.4092 -2.1297 -2.5764
 5181SOL     MW20724   2.371   3.560   3.709  0.5864 -0.0427 -0.6929
 5182SOL     OW20725   3.330   0.116   1.006 -0.4037 -0.0206 -0.4273
 5182SOL    HW120726   3.332   0.037   1.061 -0.1474  0.6368  0.5274
 5182SOL    HW220727   3.422   0.143   0.999 -0.7053  2.1195  2.1561
 5182SOL     MW20728   3.342   0.109   1.012 -0.4095  0.3375  0.0257
 5183SOL     OW20729   2.625   1.412   0.400  0.5651 -0.2243  0.8736
 5183SOL    HW120730   2.577   1.425   0.318 -0.0118 -0.1734  1.2133
 5183SOL    HW220731   2.657   1.322   0.395 -0.2942 -0.5518  1.0043
 5183SOL     MW20732   2.623   1.402   0.389  0.3813 -0.2597  0.9338
 5184SOL     OW20733   3.225   2.061   0.025  0.0022 -0.3236  0.1955
 5184SOL    HW120734   3.294   2.118   0.059 -2.0671  3.4529 -1.3964
 5184SOL    HW220735   3.258   2.031  -0.060  0.7559 -0.8901  0.6690
 5184SOL     MW20736   3.238   2.064   0.019 -0.1662  0.0873  0.0523
 5185SOL     OW20737   2.862   3.980   2.985 -1.0454 -0.1520 -0.5195
 5185SOL    HW120738   2.809   3.947   3.058 -0.1097  1.0401  0.7789
 5185SOL    HW220739   2.946   3.936   2.995 -1.3602 -1.0928 -1.8112
 5185SOL     MW20740   2.866   3.970   2.996 -0.9659 -0.1198 -0.5186
 5186SOL     OW20741   3.966   4.224   3.321  0.3689  0.0315  0.2511
 5186SOL    HW120742   4.050   4.261   3.296  0.5142  1.5307  2.6332
 5186SOL    HW220743   3.956   4.246   3.414 -1.4942 -2.3350  0.7367
 5186SOL     MW20744   3.975   4.231   3.330  0.1490 -0.0795  0.6182
 5187SOL     OW20745   1.116   4.506   1.368  0.3274 -0.4246 -0.1841
 5187SOL    HW120746   1.026   4.527   1.347  0.0408 -0.9694  0.4439
 5187SOL    HW220747   1.155   4.480   1.285 -0.5149 -1.6250 -0.2292
 5187SOL     MW20748   1.110   4.505   1.355  0.1829 -0.6480 -0.1095
 5188SOL     OW20749   4.857   3.968   1.075  0.5279  0.4485 -0.3469
 5188SOL    HW120750   4.825   4.025   1.145  1.9196 -1.0147  1.5919
 5188SOL    HW220751   4.946   3.945   1.102  0.9972 -0.4234 -2.4677
 5188SOL     MW20752   4.864   3.972   1.088  0.7661  0.1496 -0.3702
 5189SOL     OW20753   0.790   1.230   4.085 -0.0423 -0.0575  0.1317
 5189SOL    HW120754   0.756   1.270   4.166  1.5181  0.8935  0.3475
 5189SOL    HW220755   0.799   1.137   4.107  1.0019  0.2896  1.3090
 5189SOL     MW20756   0.787   1.223   4.098  0.2911  0.1087  0.3101
 5190SOL     OW20757   2.362   0.771   3.378 -0.3420 -0.5082 -0.2317
 5190SOL    HW120758   2.404   0.845   3.423  1.6187  0.1643 -2.8895
 5190SOL    HW220759   2.271   0.799   3.367 -0.4093  0.1150  1.4839
 5190SOL     MW20760   2.356   0.784   3.382 -0.0996 -0.3423 -0.3523
 5191SOL     OW20761   0.228   0.572   2.546 -0.3491  0.2694  0.3256
 5191SOL    HW120762   0.314   0.564   2.587 -1.0122  0.8237  1.9057
 5191SOL    HW220763   0.226   0.503   2.480  1.1621  0.0157  0.5245
 5191SOL     MW20764   0.239   0.562   2.542 -0.2405  0.3079  0.5533
 5192SOL     OW20765   2.673   3.195   0.423 -0.0402  0.3794 -0.8515
 5192SOL    HW120766   2.693   3.129   0.490  1.7964  0.6515 -1.0759
 5192SOL    HW220767   2.594   3.161   0.380 -0.3630 -0.5828  0.4219
 5192SOL     MW20768   2.665   3.182   0.426  0.1536  0.2911 -0.7172
 5193SOL     OW20769   2.163   3.594   3.883 -0.4591  0.0098 -0.5813
 5193SOL    HW120770   2.090   3.537   3.907 -1.7742  0.8664 -2.2810
 5193SOL    HW220771   2.195   3.629   3.966 -0.8708 -1.6875  0.3302
 5193SOL     MW20772   2.157   3.592   3.897 -0.6802 -0.0978 -0.6822
 5194SOL     OW20773   2.243   0.778  -0.004 -0.3416 -0.2064 -0.5097
 5194SOL    HW120774   2.236   0.808   0.087  1.0543  0.1926 -0.5056
 5194SOL    HW220775   2.222   0.856  -0.056  1.8058  0.4707 -0.4929
 5194SOL     MW20776   2.239   0.792   0.001  0.1120 -0.0687 -0.5070
 5195SOL     OW20777   4.740   2.140   3.943 -0.1524 -0.9703  0.2097
 5195SOL    HW120778   4.759   2.056   3.986 -1.4545 -0.6011  1.6463
 5195SOL    HW220779   4.818   2.160   3.892  0.5892 -2.5668  0.6529
 5195SOL     MW20780   4.752   2.132   3.942 -0.2241 -1.1274  0.4503
 5196SOL     OW20781   2.927   3.780   4.833  0.5794  0.5313  0.3298
 5196SOL    HW120782   3.005   3.792   4.779  0.8985  1.1383  0.9062
 5196SOL    HW220783   2.946   3.700   4.883  1.5709  1.5352  1.6506
 5196SOL     MW20784   2.940   3.771   4.833  0.7472  0.7375  0.5727
 5197SOL     OW20785   2.530   3.615   5.461  0.1758 -0.6953 -0.3855
 5197SOL    HW120786   2.537   3.708   5.438  0.3480 -0.9801 -1.5259
 5197SOL    HW220787   2.454   3.611   5.519  0.4734  0.2300  0.0823
 5197SOL     MW20788   2.521   3.626   5.465  0.2359 -0.6133 -0.4716
 5198SOL     OW20789   3.760   1.079   2.203  0.0132 -0.3719  0.1926
 5198SOL    HW120790   3.811   0.999   2.210 -1.1560 -1.3923 -1.7974
 5198SOL    HW220791   3.705   1.065   2.125 -0.3966  2.2685 -0.0789
 5198SOL     MW20792   3.759   1.067   2.194 -0.1889 -0.1645 -0.0969
 5199SOL     OW20793   5.102   4.483   4.808 -0.4269  0.2475 -0.0953
 5199SOL    HW120794   5.169   4.478   4.740  0.3006 -1.1807  0.6901
 5199SOL    HW220795   5.022   4.506   4.761 -0.2417 -1.9821 -1.6747
 5199SOL     MW20796   5.101   4.485   4.793 -0.3101 -0.2208 -0.1969
 5200SOL     OW20797   3.584   2.999   0.093 -0.0951  0.0615  0.0450
 5200SOL    HW120798   3.518   3.035   0.153 -0.8949  0.1545 -0.8661
 5200SOL    HW220799   3.656   3.062   0.098 -0.4147  0.4103  0.4337
 5200SOL     MW20800   3.584   3.012   0.102 -0.2384  0.1180 -0.0218
 5201SOL     OW20801   2.898   0.658   3.982 -0.0793  0.0544 -0.1802
 5201SOL    HW120802   2.907   0.632   3.890 -0.7753  0.1446 -0.2853
 5201SOL    HW220803   2.898   0.753   3.980 -0.9690  0.0647 -0.1982
 5201SOL     MW20804   2.899   0.666   3.970 -0.2822  0.0673 -0.1960
 5202SOL     OW20805   4.801   1.345   0.752 -0.4323  0.2070 -0.2089
 5202SOL    HW120806   4.754   1.361   0.834 -1.0044 -0.6017 -0.3715
 5202SOL    HW220807   4.894   1.350   0.777 -0.5530 -1.7619  0.8815
 5202SOL     MW20808   4.807   1.348   0.766 -0.5210 -0.1485 -0.0901
 5203SOL     OW20809   4.425   0.728   1.828  0.0910 -0.3021 -0.3845
 5203SOL    HW120810   4.443   0.811   1.873  1.1300 -0.8665  0.2919
 5203SOL    HW220811   4.374   0.753   1.751 -0.1006  0.9006  0.1098
 5203SOL     MW20812   4.421   0.742   1.824  0.1995 -0.2204 -0.2347
 5204SOL     OW20813   2.808   2.952   2.075 -0.4221  0.1989  0.6465
 5204SOL    HW120814   2.715   2.964   2.053 -0.4928  0.5647  1.1286
 5204SOL    HW220815   2.849   3.036   2.054 -0.1271 -0.0727  0.1049
 5204SOL     MW20816   2.801   2.964   2.069 -0.3934  0.2110  0.6389
 5205SOL     OW20817   1.470   4.574   0.642 -0.5834  0.1485  0.3781
 5205SOL    HW120818   1.408   4.622   0.697  1.4765  1.2198  1.9039
 5205SOL    HW220819   1.506   4.506   0.699  0.1715  0.0193 -0.2356
 5205SOL     MW20820   1.467   4.572   0.656 -0.2231  0.2691  0.4948
 5206SOL     OW20821   1.013   4.109   2.799  0.0174  0.2561 -0.0000
 5206SOL    HW120822   1.065   4.061   2.863 -0.1454 -0.1372 -0.1630
 5206SOL    HW220823   0.945   4.152   2.851 -0.4286 -0.4789  0.0379
 5206SOL     MW20824   1.011   4.108   2.814 -0.0605  0.1117 -0.0160
 5207SOL     OW20825   1.767   1.628   4.079 -0.0595  0.1286 -0.6209
 5207SOL    HW120826   1.681   1.632   4.121 -0.1985  0.4208 -0.9322
 5207SOL    HW220827   1.766   1.547   4.028  0.2380 -0.4098  0.2126
 5207SOL     MW20828   1.756   1.618   4.078 -0.0392  0.0971 -0.5540
 5208SOL     OW20829  -0.003   1.169   1.078  0.0111  0.0498 -0.0456
 5208SOL    HW120830   0.007   1.114   1.156  0.2047 -0.8575 -0.6939
 5208SOL    HW220831   0.060   1.134   1.015 -1.8478 -0.8796 -1.5025
 5208SOL     MW20832   0.006   1.158   1.080 -0.2021 -0.1853 -0.3151
 5209SOL     OW20833   2.187   0.904   0.268  0.4494 -0.2651 -0.5439
 5209SOL    HW120834   2.236   0.856   0.336 -1.6786 -0.8875  0.6399
 5209SOL    HW220835   2.204   0.996   0.287 -0.6475 -0.3933  1.3510
 5209SOL     MW20836   2.196   0.910   0.279  0.0365 -0.3612 -0.1498
 5210SOL     OW20837   1.799   3.778   1.088 -0.4810  0.2248 -0.5766
 5210SOL    HW120838   1.717   3.749   1.048 -0.4054 -0.0943 -0.5014
 5210SOL    HW220839   1.867   3.729   1.042 -0.1974  1.5976 -1.6951
 5210SOL     MW20840   1.797   3.768   1.077 -0.4350  0.3597 -0.7102
 5211SOL     OW20841   2.315   1.275   3.546 -0.2240 -0.1342 -0.3235
 5211SOL    HW120842   2.300   1.260   3.453  1.8102 -1.4384 -0.5070
 5211SOL    HW220843   2.385   1.340   3.549 -0.9617  0.6532  0.3347
 5211SOL     MW20844   2.322   1.282   3.535 -0.0581 -0.2004 -0.2627
 5212SOL     OW20845   2.419   1.879   1.760 -0.0974 -0.6568 -0.3640
 5212SOL    HW120846   2.482   1.809   1.739  0.8901 -0.3339  1.3316
 5212SOL    HW220847   2.356   1.837   1.819  1.2391  0.1236  1.7261
 5212SOL     MW20848   2.419   1.865   1.764  0.2001 -0.5155  0.1206
 5213SOL     OW20849   1.382   1.673   1.821  0.1465  0.1588 -0.1393
 5213SOL    HW120850   1.316   1.735   1.791  0.8414  1.3843  0.8160
 5213SOL    HW220851   1.332   1.600   1.856 -0.7429  1.4673  1.4211
 5213SOL     MW20852   1.367   1.671   1.821  0.1216  0.4832  0.1827
 5214SOL     OW20853   0.622   2.282   1.126  0.6831  0.0962  0.3402
 5214SOL    HW120854   0.676   2.242   1.194  0.3355 -1.6704 -0.3739
 5214SOL    HW220855   0.622   2.219   1.055  0.9675  1.8537 -1.3172
 5214SOL     MW20856   0.629   2.269   1.126  0.6750  0.0951  0.0366
 5215SOL     OW20857   5.302   2.689   5.029  0.1199 -0.0556  0.1412
 5215SOL    HW120858   5.288   2.692   5.124  0.6674  1.8408  0.1917
 5215SOL    HW220859   5.273   2.601   5.004  1.6600 -1.3096  2.3339
 5215SOL     MW20860   5.296   2.678   5.038  0.3871  0.0267  0.4284
 5216SOL     OW20861   4.201   1.414   2.773  0.3769 -0.3923 -0.3482
 5216SOL    HW120862   4.153   1.349   2.824  0.9688 -0.7540 -0.2363
 5216SOL    HW220863   4.173   1.399   2.683  0.8847 -1.1490 -0.3900
 5216SOL     MW20864   4.191   1.404   2.768  0.5177 -0.5355 -0.3392
 5217SOL     OW20865   5.154   4.561   1.448 -0.5824 -0.2971  0.3471
 5217SOL    HW120866   5.111   4.586   1.531  0.0952 -1.4884  1.0879
 5217SOL    HW220867   5.109   4.480   1.422 -0.3991 -0.2397 -0.1529
 5217SOL     MW20868   5.143   4.554   1.456 -0.4722 -0.4423  0.3779
 5218SOL     OW20869   1.306   0.751   2.353 -1.0562  0.0854 -0.1696
 5218SOL    HW120870   1.239   0.682   2.351 -0.3212 -0.6897  0.9954
 5218SOL    HW220871   1.285   0.803   2.431 -0.7678  0.3216 -0.2485
 5218SOL     MW20872   1.295   0.749   2.363 -0.9252  0.0164 -0.0306
 5219SOL     OW20873   1.797   2.808   3.693  0.2975  0.1193  0.0328
 5219SOL    HW120874   1.873   2.772   3.649  0.4011 -1.5204  1.4671
 5219SOL    HW220875   1.725   2.796   3.631  0.7372 -0.6422 -0.3384
 5219SOL     MW20876   1.797   2.802   3.680  0.3671 -0.1881  0.1689
 5220SOL     OW20877   0.073   4.456   2.905  0.0435  0.0566  0.4325
 5220SOL    HW120878   0.113   4.520   2.964  0.7543  0.3533 -0.3470
 5220SOL    HW220879  -0.015   4.489   2.890  0.5815  1.1674 -0.3913
 5220SOL     MW20880   0.067   4.468   2.911  0.2033  0.2368  0.2273
 5221SOL     OW20881   3.981   4.562   3.393 -0.7339 -0.7478 -0.1873
 5221SOL    HW120882   4.040   4.499   3.352 -2.0207 -2.5816  0.6465
 5221SOL    HW220883   3.894   4.538   3.362 -1.4007 -0.2684  1.2076
 5221SOL     MW20884   3.978   4.551   3.384 -0.9840 -0.9212  0.0980
 5222SOL     OW20885   1.460   5.115   3.864  0.0388 -0.5869  0.0938
 5222SOL    HW120886   1.381   5.130   3.811 -0.1511  1.6989  0.9069
 5222SOL    HW220887   1.509   5.197   3.857  2.7848 -2.2020 -0.9984
 5222SOL     MW20888   1.456   5.127   3.856  0.3660 -0.5010  0.0581
 5223SOL     OW20889   0.295   4.183   2.279  0.2291  1.0332 -0.6813
 5223SOL    HW120890   0.292   4.181   2.184  1.8295 -1.9602 -0.7903
 5223SOL    HW220891   0.375   4.134   2.302 -0.7784  0.5196  2.1750
 5223SOL     MW20892   0.305   4.176   2.270  0.3050  0.5843 -0.3296
 5224SOL     OW20893   3.191   1.216   3.401  0.1573  0.3588  0.2519
 5224SOL    HW120894   3.102   1.189   3.377  0.1718  0.7244 -0.2330
 5224SOL    HW220895   3.206   1.174   3.486 -0.3484  0.0128  0.1810
 5224SOL     MW20896   3.181   1.207   3.409  0.0944  0.3613  0.1808
 5225SOL     OW20897   2.413   0.752   4.217  0.0272  0.1605 -0.8772
 5225SOL    HW120898   2.498   0.708   4.216  1.1331  2.1826 -1.1743
 5225SOL    HW220899   2.352   0.686   4.250  2.2442 -0.3928  2.6315
 5225SOL     MW20900   2.416   0.738   4.221  0.4526  0.3485 -0.4661
 5226SOL     OW20901   5.409   0.057   2.578 -0.1044  0.2757 -0.3615
 5226SOL    HW120902   5.342   0.010   2.629  0.6801 -1.2925 -0.7360
 5226SOL    HW220903   5.482  -0.004   2.571  0.3749  0.9910 -2.1723
 5226SOL     MW20904   5.410   0.043   2.584  0.0574  0.1665 -0.6412
 5227SOL     OW20905   5.250   3.596   1.606 -0.2380 -0.1659 -0.2549
 5227SOL    HW120906   5.322   3.654   1.632 -0.4700 -0.2363  0.5798
 5227SOL    HW220907   5.181   3.656   1.577 -0.6256  0.0077  0.9898
 5227SOL     MW20908   5.251   3.611   1.605 -0.3173 -0.1527  0.0113
 5228SOL     OW20909   1.802   1.888   5.080  0.3688  0.1060 -0.3641
 5228SOL    HW120910   1.851   1.946   5.139  0.7709 -0.8486  0.2687
 5228SOL    HW220911   1.843   1.900   4.995  1.6591 -0.6093  0.1401
 5228SOL     MW20912   1.813   1.897   5.077  0.5854 -0.1078 -0.2185
 5229SOL     OW20913   2.906   3.589   2.792 -0.2390  0.0438 -0.1194
 5229SOL    HW120914   2.884   3.530   2.864  0.6685 -1.1861 -0.8123
 5229SOL    HW220915   2.844   3.567   2.722  0.3288 -0.3754 -0.5084
 5229SOL     MW20916   2.895   3.579   2.792 -0.0502 -0.1673 -0.2579
 5230SOL     OW20917   3.537   0.888   0.979 -0.1671  0.2940  0.0550
 5230SOL    HW120918   3.499   0.891   1.067 -0.4731  1.9854 -0.1021
 5230SOL    HW220919   3.462   0.901   0.920  0.1916  0.2786 -0.4101
 5230SOL     MW20920   3.522   0.890   0.983 -0.1603  0.5085 -0.0246
 5231SOL     OW20921   4.716   1.484   2.114 -0.7830 -0.0817 -0.6245
 5231SOL    HW120922   4.810   1.468   2.120 -0.7052 -0.0074 -1.5219
 5231SOL    HW220923   4.676   1.397   2.120 -0.7661  0.0134  1.3683
 5231SOL     MW20924   4.723   1.471   2.115 -0.7709 -0.0600 -0.4843
 5232SOL     OW20925   4.886   0.478   1.680  0.0504 -0.0566  0.3695
 5232SOL    HW120926   4.882   0.519   1.593 -1.0051 -1.6592 -0.3877
 5232SOL    HW220927   4.809   0.511   1.726 -0.5720 -0.8319 -0.0927
 5232SOL     MW20928   4.875   0.488   1.675 -0.1644 -0.3610  0.2134
 5233SOL     OW20929   5.394   4.548   5.479 -0.8983  0.4500  0.0108
 5233SOL    HW120930   5.435   4.476   5.431  0.8376  2.3148 -1.4513
 5233SOL    HW220931   5.300   4.532   5.470 -0.5786 -1.7431 -0.0134
 5233SOL     MW20932   5.387   4.537   5.472 -0.6352  0.4079 -0.1795
 5234SOL     OW20933   3.133   3.759   3.553 -0.0725 -0.3814 -0.1425
 5234SOL    HW120934   3.052   3.713   3.577 -0.2658 -0.2263 -0.4817
 5234SOL    HW220935   3.197   3.732   3.619 -0.9406  1.0950  1.3767
 5234SOL     MW20936   3.131   3.750   3.564 -0.2084 -0.1726  0.0085
 5235SOL     OW20937   3.637   2.536   0.004  0.3768 -0.1795 -0.6671
 5235SOL    HW120938   3.600   2.619  -0.027  2.7198  1.4392  0.6118
 5235SOL    HW220939   3.585   2.514   0.082 -1.2889 -0.8493 -1.8956
 5235SOL     MW20940   3.625   2.544   0.010  0.4635 -0.0580 -0.6607
 5236SOL     OW20941   3.354   3.191   4.403 -0.5629  0.2138 -0.2256
 5236SOL    HW120942   3.267   3.222   4.425 -1.3002 -1.4710 -0.6084
 5236SOL    HW220943   3.397   3.177   4.487 -0.9219  0.3567 -0.0164
 5236SOL     MW20944   3.349   3.193   4.416 -0.7032  0.0164 -0.2478
 5237SOL     OW20945   3.302   5.493   2.490  0.2651 -0.6194  0.2541
 5237SOL    HW120946   3.337   5.422   2.544 -0.1966 -1.4544 -0.5160
 5237SOL    HW220947   3.369   5.508   2.424 -0.8562 -2.4028 -1.3859
 5237SOL     MW20948   3.315   5.486   2.489  0.0624 -0.9545 -0.0545
 5238SOL     OW20949   0.257   0.079   2.221 -0.4339 -0.2884  0.4296
 5238SOL    HW120950   0.178   0.121   2.189 -0.4259 -1.1748 -0.8682
 5238SOL    HW220951   0.233  -0.013   2.233  0.5269 -0.6944 -0.5625
 5238SOL     MW20952   0.244   0.073   2.218 -0.3099 -0.4538  0.1365
 5239SOL     OW20953   2.738   4.126   1.453  0.5158  0.1416  0.1005
 5239SOL    HW120954   2.655   4.132   1.500 -0.0195  0.5022 -0.8742
 5239SOL    HW220955   2.743   4.035   1.425  1.3500 -0.3539  1.7409
 5239SOL     MW20956   2.728   4.115   1.455  0.5541  0.1243  0.1857
 5240SOL     OW20957   1.506   4.119   0.733 -0.3446  0.0675 -0.0410
 5240SOL    HW120958   1.525   4.205   0.771 -1.5126  0.0839  0.5818
 5240SOL    HW220959   1.472   4.138   0.646  1.2760  0.0985 -0.6988
 5240SOL     MW20960   1.504   4.132   0.727 -0.2867  0.0736 -0.0455
 5241SOL     OW20961   3.727   4.030   1.833 -0.5801  0.3281  0.5284
 5241SOL    HW120962   3.667   4.009   1.762 -1.5659  2.6036  0.5920
 5241SOL    HW220963   3.675   4.083   1.893  0.9673  0.7341  1.5752
 5241SOL     MW20964   3.713   4.034   1.832 -0.5082  0.6713  0.6706
 5242SOL     OW20965   2.362   2.853   5.177 -0.4181  0.7662 -0.1793
 5242SOL    HW120966   2.327   2.845   5.088 -1.3507 -0.4230  0.2799
 5242SOL    HW220967   2.371   2.947   5.190 -0.1370  0.9630 -1.5727
 5242SOL     MW20968   2.359   2.864   5.167 -0.5015  0.6392 -0.2989
 5243SOL     OW20969   1.905   2.641   2.049 -0.4395  0.6759  0.1036
 5243SOL    HW120970   1.837   2.577   2.069 -1.0322  1.3173  0.1712
 5243SOL    HW220971   1.861   2.708   1.997  0.1491  1.0794  0.1119
 5243SOL     MW20972   1.891   2.641   2.045 -0.4400  0.8096  0.1133
 5244SOL     OW20973   4.245   5.350   4.582  0.4224  0.1540  0.5807
 5244SOL    HW120974   4.208   5.306   4.504 -0.6740 -0.0004  1.1666
 5244SOL    HW220975   4.259   5.279   4.644  1.1538  0.2996  0.5815
 5244SOL     MW20976   4.242   5.335   4.580  0.3757  0.1529  0.6558
 5245SOL     OW20977   3.315   3.736   3.774 -0.3721  0.2054 -0.6375
 5245SOL    HW120978   3.308   3.704   3.864  0.5951 -0.9218 -0.9361
 5245SOL    HW220979   3.314   3.832   3.783  0.3502  0.1192  0.6339
 5245SOL     MW20980   3.314   3.744   3.787 -0.1558  0.0501 -0.5130
 5246SOL     OW20981   2.709   4.439   2.967 -0.0451 -0.4025  0.3032
 5246SOL    HW120982   2.626   4.396   2.989 -0.4920 -0.1938 -0.9391
 5246SOL    HW220983   2.775   4.372   2.986 -0.6943 -1.5172 -1.1715
 5246SOL     MW20984   2.707   4.425   2.972 -0.1854 -0.5185 -0.0446
 5247SOL     OW20985   2.361   5.130   5.011 -0.7029 -0.3334  0.4584
 5247SOL    HW120986   2.303   5.159   4.941  0.0215  1.8608  0.6684
 5247SOL    HW220987   2.345   5.192   5.082 -0.3143 -1.5753  1.6745
 5247SOL     MW20988   2.352   5.142   5.011 -0.5604 -0.2115  0.6409
 5248SOL     OW20989   0.895   1.765   1.477  0.5537  0.1029 -0.2363
 5248SOL    HW120990   0.873   1.738   1.566  1.2377  2.8277  0.8725
 5248SOL    HW220991   0.990   1.781   1.480  0.3372  1.7328 -0.9469
 5248SOL     MW20992   0.905   1.763   1.489  0.6136  0.6604 -0.1854
 5249SOL     OW20993   0.659   1.576   3.057  0.0424  0.2267 -0.2769
 5249SOL    HW120994   0.647   1.515   2.985  0.6614  1.2176 -1.2521
 5249SOL    HW220995   0.638   1.525   3.136  0.8068 -1.3027 -1.0264
 5249SOL     MW20996   0.655   1.562   3.058  0.2195  0.1578 -0.4977
 5250SOL     OW20997   2.929   5.106   3.658  0.5852  0.0114 -0.4232
 5250SOL    HW120998   3.005   5.049   3.674 -0.5734 -1.1682  1.1869
 5250SOL    HW220999   2.967   5.191   3.639  2.3406 -0.3344  1.2034
 5250SOL     MW21000   2.944   5.109   3.657  0.6616 -0.1838 -0.0088
 5251SOL     OW21001   1.467   4.987   0.460 -0.1298  0.1252  0.1675
 5251SOL    HW121002   1.406   5.059   0.448  0.5847  0.4570 -1.8640
 5251SOL    HW221003   1.471   4.944   0.375  0.7935 -1.2395  0.8559
 5251SOL     MW21004   1.460   4.991   0.448  0.0799 -0.0070 -0.0044
 5252SOL     OW21005   1.006   1.608   2.531  0.4785  0.1882  0.1321
 5252SOL    HW121006   1.014   1.593   2.625 -0.6647 -1.1125  0.0499
 5252SOL    HW221007   1.000   1.521   2.493  1.2127  0.6903 -1.1957
 5252SOL     MW21008   1.006   1.595   2.539  0.4262  0.0860 -0.0484
 5253SOL     OW21009   0.566   4.870   4.450 -0.0104  0.0390 -0.5969
 5253SOL    HW121010   0.533   4.797   4.398  0.7585 -0.5120 -0.3281
 5253SOL    HW221011   0.505   4.877   4.524 -1.4012  1.1385 -1.7802
 5253SOL     MW21012   0.554   4.862   4.453 -0.0900  0.1092 -0.7140
 5254SOL     OW21013   1.739   0.883   0.693 -0.5705 -0.2403 -0.0998
 5254SOL    HW121014   1.701   0.958   0.647 -0.9957 -1.9910 -2.8843
 5254SOL    HW221015   1.716   0.808   0.638 -0.1084 -2.4277  2.5094
 5254SOL     MW21016   1.732   0.883   0.680 -0.5658 -0.7444 -0.1222
 5255SOL     OW21017   0.057   0.897   5.414  0.4507 -0.2000  0.5138
 5255SOL    HW121018   0.078   0.953   5.340 -0.5414 -1.6763 -0.9487
 5255SOL    HW221019   0.132   0.837   5.421  0.0321 -0.8043 -0.0628
 5255SOL     MW21020   0.069   0.896   5.406  0.2701 -0.4663  0.2528
 5256SOL     OW21021   3.861   0.648   3.640  0.0400 -0.8900 -0.6103
 5256SOL    HW121022   3.824   0.653   3.729 -1.3210  0.5858 -1.2082
 5256SOL    HW221023   3.879   0.739   3.617  0.3357 -1.2518 -1.8611
 5256SOL     MW21024   3.858   0.660   3.649 -0.0964 -0.7474 -0.8469
 5257SOL     OW21025   2.054   0.318   2.572  0.4504 -0.2092 -0.6220
 5257SOL    HW121026   2.119   0.362   2.517  0.3699 -0.4428 -0.9058
 5257SOL    HW221027   1.976   0.312   2.516  0.4502 -0.6814 -0.5712
 5257SOL     MW21028   2.052   0.323   2.558  0.4400 -0.2995 -0.6518
 5258SOL     OW21029   4.217   3.173   2.538  0.4376  0.2850  0.4814
 5258SOL    HW121030   4.235   3.158   2.445  1.5568 -1.5999  0.9436
 5258SOL    HW221031   4.130   3.214   2.539  0.4674  0.4853 -1.3866
 5258SOL     MW21032   4.208   3.176   2.526  0.5847  0.0694  0.3015
 5259SOL     OW21033   5.151   2.635   1.264 -0.0809  0.1314 -0.2065
 5259SOL    HW121034   5.096   2.574   1.216 -0.0620 -0.7253  0.8249
 5259SOL    HW221035   5.154   2.600   1.353  0.9908  0.9277  0.0949
 5259SOL     MW21036   5.145   2.623   1.269  0.0587  0.1236 -0.0359
 5260SOL     OW21037   1.597   3.108   2.504  0.0831  0.6860 -0.5285
 5260SOL    HW121038   1.562   3.168   2.438  1.4666 -0.0215 -1.9655
 5260SOL    HW221039   1.667   3.157   2.547  0.2592  0.6047 -0.7184
 5260SOL     MW21040   1.602   3.122   2.501  0.2828  0.5850 -0.7368
 5261SOL     OW21041   5.402   0.099   4.933 -0.4027 -0.1397  0.2326
 5261SOL    HW121042   5.314   0.061   4.942 -0.3346 -0.2995  0.2276
 5261SOL    HW221043   5.447   0.041   4.871  0.2496 -1.0342  1.4929
 5261SOL     MW21044   5.397   0.087   4.926 -0.3105 -0.2746  0.3933
 5262SOL     OW21045   5.225   3.166   1.776 -0.7161 -0.2891  0.1909
 5262SOL    HW121046   5.199   3.173   1.684 -0.3074 -0.5545  0.0523
 5262SOL    HW221047   5.237   3.257   1.804 -0.1505 -0.2271 -0.2257
 5262SOL     MW21048   5.223   3.179   1.768 -0.5914 -0.3151  0.1198
 5263SOL     OW21049   1.268   3.806   4.337  0.1702  0.3530 -0.1161
 5263SOL    HW121050   1.304   3.879   4.387 -1.6071  1.1325  0.1392
 5263SOL    HW221051   1.228   3.749   4.403 -0.1622  0.1844 -0.4555
 5263SOL     MW21052   1.267   3.808   4.352 -0.0998  0.4312 -0.1268
 5264SOL     OW21053   3.535   0.752   1.586  0.5174  0.4711 -0.0738
 5264SOL    HW121054   3.609   0.743   1.646  0.6873 -1.2461 -0.4992
 5264SOL    HW221055   3.574   0.776   1.502  0.7896 -1.6985 -0.6310
 5264SOL     MW21056   3.549   0.754   1.583  0.5740 -0.0264 -0.1995
 5265SOL     OW21057   2.495   1.472   0.166 -0.4531  0.1140 -0.1136
 5265SOL    HW121058   2.518   1.415   0.093 -1.9059 -0.2825 -0.2979
 5265SOL    HW221059   2.480   1.558   0.127 -0.9927 -0.0426 -0.2651
 5265SOL     MW21060   2.496   1.475   0.152 -0.7081  0.0432 -0.1565
 5266SOL     OW21061   2.872   2.298   0.383 -0.0088  0.0458  0.2941
 5266SOL    HW121062   2.903   2.287   0.293 -0.4352  0.0078  0.1503
 5266SOL    HW221063   2.779   2.315   0.374 -0.3730 -1.5319  0.8214
 5266SOL     MW21064   2.864   2.299   0.370 -0.1100 -0.1611  0.3432
 5267SOL     OW21065   3.476   1.918   2.716  0.1308 -0.1421  0.5641
 5267SOL    HW121066   3.429   1.874   2.787  0.8670 -0.7476  0.6980
 5267SOL    HW221067   3.408   1.956   2.661 -0.4501  0.9074  1.9391
 5267SOL     MW21068   3.462   1.917   2.718  0.1507 -0.0852  0.7572
 5268SOL     OW21069   0.110   2.708   3.750  0.2029 -0.2328  0.1229
 5268SOL    HW121070   0.202   2.733   3.743 -0.0629  0.9037  0.5358
 5268SOL    HW221071   0.066   2.760   3.683 -0.3995  0.6793  1.1853
 5268SOL     MW21072   0.116   2.718   3.741  0.0918  0.0294  0.3117
 5269SOL     OW21073   1.544   1.694   0.117 -0.1687  0.4577 -0.0322
 5269SOL    HW121074   1.504   1.736   0.041 -0.5552  0.8316  0.3720
 5269SOL    HW221075   1.519   1.749   0.191  1.3420  0.8658  0.2055
 5269SOL     MW21076   1.536   1.706   0.116 -0.0248  0.5578  0.0500
 5270SOL     OW21077   4.598   3.753   1.331  0.4384 -0.6100 -0.8241
 5270SOL    HW121078   4.637   3.711   1.255 -0.4801 -1.5265 -0.8159
 5270SOL    HW221079   4.599   3.685   1.399  1.4597  0.2587  0.0831
 5270SOL     MW21080   4.603   3.739   1.330  0.4516 -0.6161 -0.7069
 5271SOL     OW21081   2.338   4.346   1.562  0.3228  0.4061 -0.0793
 5271SOL    HW121082   2.360   4.413   1.497 -0.4382 -0.7501 -1.5813
 5271SOL    HW221083   2.249   4.368   1.589  0.1683  0.1582 -0.3815
 5271SOL     MW21084   2.330   4.357   1.557  0.2056  0.2264 -0.3103
 5272SOL     OW21085   3.717   4.885   2.020 -0.5010 -0.5971  0.4330
 5272SOL    HW121086   3.730   4.947   1.948 -0.8924 -0.7222  0.2532
 5272SOL    HW221087   3.646   4.828   1.990 -0.6137 -0.6968  0.8864
 5272SOL     MW21088   3.710   4.886   2.007 -0.5655 -0.6259  0.4680
 5273SOL     OW21089   3.431   1.790   0.528  0.4798  0.0558 -0.1053
 5273SOL    HW121090   3.454   1.878   0.497 -3.2992  0.8410 -1.3039
 5273SOL    HW221091   3.451   1.732   0.454  0.9497  0.2808 -0.1550
 5273SOL     MW21092   3.436   1.794   0.514  0.0562  0.1851 -0.2651
 5274SOL     OW21093   2.146   3.931   0.998  0.3107 -0.0762 -0.3511
 5274SOL    HW121094   2.207   3.944   0.925  0.9868 -2.2461 -0.2552
 5274SOL    HW221095   2.189   3.865   1.053 -0.4813  1.0369  1.6988
 5274SOL     MW21096   2.160   3.924   0.996  0.2959 -0.2115 -0.0764
 5275SOL     OW21097   0.042   3.142   3.021  0.3569 -0.7399 -0.2406
 5275SOL    HW121098   0.099   3.080   2.975  0.6406 -0.9376  0.3651
 5275SOL    HW221099   0.101   3.189   3.080  0.2518  0.5345 -1.1235
 5275SOL     MW21100   0.057   3.140   3.023  0.3798 -0.6021 -0.2761
 5276SOL     OW21101   5.229   2.327   5.205 -0.7287 -0.0551  0.3695
 5276SOL    HW121102   5.156   2.365   5.157 -0.7772  0.0544  0.5287
 5276SOL    HW221103   5.210   2.233   5.207  0.4650 -0.4037 -1.8766
 5276SOL     MW21104   5.217   2.320   5.199 -0.5821 -0.0857  0.1023
 5277SOL     OW21105   0.731   5.354   4.392  0.1829  0.5777  0.4724
 5277SOL    HW121106   0.716   5.361   4.486 -0.5174 -0.7900  0.4776
 5277SOL    HW221107   0.768   5.267   4.379 -0.2469  0.5391 -0.5877
 5277SOL     MW21108   0.734   5.344   4.402  0.0382  0.3977  0.3374
 5278SOL     OW21109   1.545   2.831   0.227 -0.6494 -0.3266 -0.2143
 5278SOL    HW121110   1.628   2.792   0.200 -0.7266  0.1669 -1.1936
 5278SOL    HW221111   1.553   2.843   0.322  1.1899  1.5372 -0.5398
 5278SOL     MW21112   1.556   2.828   0.236 -0.4238 -0.0249 -0.3813
 5279SOL     OW21113   0.065   5.322   3.318  0.4334 -0.2304  0.2750
 5279SOL    HW121114   0.069   5.313   3.223  0.4574  2.5162 -0.0490
 5279SOL    HW221115   0.156   5.319   3.347  0.4682 -0.3893  0.1505
 5279SOL     MW21116   0.077   5.320   3.309  0.4409  0.1008  0.2176
 5280SOL     OW21117   1.975   1.976   4.115  0.9288 -0.7483 -0.2852
 5280SOL    HW121118   1.883   1.994   4.136  1.7857  1.8070  1.8951
 5280SOL    HW221119   1.984   1.881   4.128 -1.0518 -0.8327  1.0935
 5280SOL     MW21120   1.964   1.966   4.120  0.7849 -0.4320  0.1704
 5281SOL     OW21121   1.164   3.973   5.242  0.3429  0.3554  0.0725
 5281SOL    HW121122   1.116   3.943   5.320 -1.2037  1.3414 -0.4613
 5281SOL    HW221123   1.123   4.056   5.219  2.9617  1.7712  0.1192
 5281SOL     MW21124   1.153   3.979   5.249  0.4802  0.6629  0.0101
 5282SOL     OW21125   4.299   2.167   0.580  0.4236  1.1383  0.7177
 5282SOL    HW121126   4.217   2.211   0.556  0.1799  0.3857  0.1166
 5282SOL    HW221127   4.292   2.152   0.674 -0.6382  0.0976  0.5003
 5282SOL     MW21128   4.287   2.170   0.589  0.2565  0.9087  0.6129
 5283SOL     OW21129   2.513   3.755   3.610 -0.0957  0.1350 -0.0492
 5283SOL    HW121130   2.509   3.747   3.515  0.6103 -0.5857 -0.0250
 5283SOL    HW221131   2.496   3.848   3.627 -0.5427  0.2081 -0.8520
 5283SOL     MW21132   2.510   3.766   3.600 -0.0625  0.0521 -0.1489
 5284SOL     OW21133   4.650   5.204   3.368 -0.1146 -0.1259  0.3657
 5284SOL    HW121134   4.629   5.280   3.423  3.3894  2.7081 -1.7153
 5284SOL    HW221135   4.593   5.214   3.292  1.4038  1.5812 -0.6502
 5284SOL     MW21136   4.640   5.215   3.366  0.5283  0.4554 -0.0307
 5285SOL     OW21137   2.473   1.631   1.660 -0.2067  0.6946 -0.0163
 5285SOL    HW121138   2.393   1.637   1.609  0.2053 -0.6681 -0.8553
 5285SOL    HW221139   2.542   1.660   1.600  0.1683 -0.0586  0.0419
 5285SOL     MW21140   2.472   1.636   1.646 -0.1059  0.4238 -0.1163
 5286SOL     OW21141   2.685   5.227   4.624  0.0884  0.2608  0.4276
 5286SOL    HW121142   2.741   5.292   4.667 -1.5017  1.9009  0.1377
 5286SOL    HW221143   2.617   5.207   4.689  0.4935 -1.0584  0.4681
 5286SOL     MW21144   2.683   5.233   4.638 -0.0633  0.3019  0.3957
 5287SOL     OW21145   3.275   3.494   0.190  0.4085  0.2066 -0.4896
 5287SOL    HW121146   3.366   3.464   0.199  0.6068  0.5261 -1.3079
 5287SOL    HW221147   3.236   3.480   0.276  1.0470 -0.5609 -0.3179
 5287SOL     MW21148   3.282   3.489   0.202  0.5156  0.1493 -0.5724
 5288SOL     OW21149   2.251   4.177   3.740  0.4411 -0.0517  0.1185
 5288SOL    HW121150   2.182   4.126   3.696  1.3587  0.4674 -2.0428
 5288SOL    HW221151   2.249   4.262   3.697  2.8231 -0.2203 -0.4661
 5288SOL     MW21152   2.242   4.181   3.729  0.8635 -0.0068 -0.2330
 5289SOL     OW21153   5.080   4.212   2.306  0.0914  0.2492  0.1619
 5289SOL    HW121154   5.157   4.268   2.316  0.5432 -0.5596  1.2597
 5289SOL    HW221155   5.009   4.274   2.287  0.4641  1.2869  1.9386
 5289SOL     MW21156   5.081   4.227   2.305  0.1970  0.2785  0.5299
 5290SOL     OW21157   4.801   5.394   4.286 -0.4717  0.2179  0.0530
 5290SOL    HW121158   4.709   5.384   4.260 -0.7422  3.6896 -0.8383
 5290SOL    HW221159   4.850   5.380   4.205 -0.5232  1.4745 -0.2164
 5290SOL     MW21160   4.795   5.391   4.272 -0.5129  0.8232 -0.0956
 5291SOL     OW21161   4.807   1.318   4.492  0.3435  0.2180  0.4482
 5291SOL    HW121162   4.877   1.334   4.428 -0.2408  1.0708  0.0052
 5291SOL    HW221163   4.850   1.271   4.563  0.9967 -0.8668 -0.6083
 5291SOL     MW21164   4.821   1.314   4.493  0.3523  0.1883  0.2562
 5292SOL     OW21165   2.571   1.350   3.464 -0.5292  0.2433 -0.4270
 5292SOL    HW121166   2.653   1.304   3.483  0.1729  1.4029 -0.5688
 5292SOL    HW221167   2.593   1.410   3.393 -1.5855  0.3423 -0.6834
 5292SOL     MW21168   2.585   1.352   3.458 -0.5746  0.4044 -0.4780
 5293SOL     OW21169   1.772   5.444   1.719 -0.4443  0.1165  0.0570
 5293SOL    HW121170   1.795   5.468   1.809  2.3474 -1.5514 -0.0758
 5293SOL    HW221171   1.747   5.351   1.725 -0.8409  0.1642 -0.7931
 5293SOL     MW21172   1.772   5.435   1.732 -0.1377 -0.0909 -0.0688
 5294SOL     OW21173   4.497   4.683   4.551  0.0911 -0.3097 -0.4781
 5294SOL    HW121174   4.487   4.625   4.626 -0.6686 -1.2876 -1.3138
 5294SOL    HW221175   4.428   4.749   4.562  0.9318  0.4580  0.4497
 5294SOL     MW21176   4.487   4.684   4.562  0.1014 -0.3366 -0.4663
 5295SOL     OW21177   4.776   4.268   4.036 -0.7168  0.5510 -0.6929
 5295SOL    HW121178   4.865   4.236   4.050 -1.0740 -0.3465 -0.4045
 5295SOL    HW221179   4.787   4.358   4.005  0.2915  0.3834 -0.8415
 5295SOL     MW21180   4.789   4.276   4.034 -0.6334  0.4147 -0.6750
 5296SOL     OW21181   0.534   3.331   4.498 -0.1817  0.2184  0.4764
 5296SOL    HW121182   0.557   3.292   4.582 -0.0354  1.6246  1.1265
 5296SOL    HW221183   0.509   3.421   4.519  2.1698  1.3996 -1.2268
 5296SOL     MW21184   0.534   3.338   4.511  0.1381  0.5497  0.3416
 5297SOL     OW21185   4.773   2.558   2.384  0.2047  0.2830 -0.4699
 5297SOL    HW121186   4.681   2.537   2.368  0.6069 -1.8144 -0.3169
 5297SOL    HW221187   4.821   2.486   2.344  1.7101  0.5222  0.8157
 5297SOL     MW21188   4.767   2.546   2.377  0.4489  0.0452 -0.2858
 5298SOL     OW21189   1.685   1.346   1.313 -0.3029  0.1418  0.8066
 5298SOL    HW121190   1.710   1.346   1.220  1.1914 -2.4318  1.1201
 5298SOL    HW221191   1.756   1.392   1.357 -0.2021 -0.0472  0.8417
 5298SOL     MW21192   1.697   1.352   1.306 -0.0987 -0.2118  0.8513
 5299SOL     OW21193   1.746   3.716   4.441  0.6170 -0.3671  0.1511
 5299SOL    HW121194   1.726   3.735   4.349 -0.7489  1.7027  0.7982
 5299SOL    HW221195   1.837   3.743   4.452  0.8382 -0.7673 -0.6036
 5299SOL     MW21196   1.755   3.722   4.430  0.4705 -0.1534  0.1373
 5300SOL     OW21197   1.879   1.487   3.565 -0.1789 -0.5761 -0.1991
 5300SOL    HW121198   1.963   1.458   3.601 -0.9952 -1.0859  1.4074
 5300SOL    HW221199   1.842   1.542   3.634 -1.3355 -0.6546 -0.7421
 5300SOL     MW21200   1.885   1.490   3.578 -0.4315 -0.6514 -0.0630
 5301SOL     OW21201   0.938   2.841   0.723 -0.1737  0.1128 -0.2901
 5301SOL    HW121202   0.905   2.929   0.707 -1.1165 -0.1455  0.1822
 5301SOL    HW221203   0.933   2.798   0.638  1.6068  0.9201 -0.8416
 5301SOL     MW21204   0.933   2.846   0.710 -0.0665  0.1831 -0.3002
 5302SOL     OW21205   4.151   4.716   1.242  0.4683 -0.1143  0.1617
 5302SOL    HW121206   4.101   4.773   1.183 -0.2431 -0.5875  0.2858
 5302SOL    HW221207   4.218   4.676   1.186  1.9498  1.9220  0.3604
 5302SOL     MW21208   4.153   4.718   1.227  0.5668  0.0858  0.2030
 5303SOL     OW21209   4.404   0.355   1.233 -0.4743  0.0540 -0.1164
 5303SOL    HW121210   4.310   0.344   1.251 -0.7738  1.0139 -0.9510
 5303SOL    HW221211   4.430   0.273   1.191 -1.2736  0.2796 -1.0886
 5303SOL     MW21212   4.395   0.343   1.230 -0.6149  0.2058 -0.3477
 5304SOL     OW21213   0.664   2.215   3.423 -0.1582 -0.3604  0.4184
 5304SOL    HW121214   0.662   2.155   3.347  0.5460 -1.0289  0.9079
 5304SOL    HW221215   0.592   2.186   3.478 -0.5494  0.0007  0.1000
 5304SOL     MW21216   0.655   2.203   3.420 -0.1181 -0.3998  0.4403
 5305SOL     OW21217   2.641   3.445   4.586 -0.4337 -0.3448  0.4018
 5305SOL    HW121218   2.668   3.370   4.639 -0.3772  1.9516  4.0063
 5305SOL    HW221219   2.712   3.509   4.597 -2.1087  1.5953  0.6734
 5305SOL     MW21220   2.653   3.444   4.594 -0.6409  0.1975  0.8980
 5306SOL     OW21221   3.674   5.128   5.493 -0.1084  1.0502 -0.1073
 5306SOL    HW121222   3.660   5.123   5.398  1.8602  0.7237 -0.4325
 5306SOL    HW221223   3.587   5.126   5.530 -0.9674  1.8397 -1.9458
 5306SOL     MW21224   3.661   5.127   5.485  0.0337  1.1095 -0.3843
 5307SOL     OW21225   0.632   3.250   5.204  0.2180  0.0702  0.8980
 5307SOL    HW121226   0.608   3.159   5.186 -0.9274  0.6765 -0.8739
 5307SOL    HW221227   0.698   3.244   5.273  0.3027 -2.1150  0.6939
 5307SOL     MW21228   0.637   3.238   5.210  0.0822 -0.1319  0.6450
 5308SOL     OW21229   3.315   5.309   5.400  0.4441 -0.0648  0.5459
 5308SOL    HW121230   3.295   5.398   5.371 -0.5123 -1.5415 -4.2455
 5308SOL    HW221231   3.230   5.264   5.399  1.3066 -1.7764 -0.5643
 5308SOL     MW21232   3.301   5.315   5.396  0.4321 -0.4729 -0.2096
 5309SOL     OW21233   3.897   4.291   0.754 -0.7975 -0.2280 -0.5492
 5309SOL    HW121234   3.843   4.332   0.822  0.2301 -0.5496  0.4826
 5309SOL    HW221235   3.875   4.198   0.759  0.4799 -0.4908  0.4837
 5309SOL     MW21236   3.887   4.284   0.763 -0.5025 -0.3028 -0.2849
 5310SOL     OW21237   0.999   1.293   1.684  0.1315  0.3538  0.1870
 5310SOL    HW121238   0.949   1.334   1.755  0.9891  0.4005  0.7880
 5310SOL    HW221239   0.940   1.295   1.609 -0.7264  0.4946  0.8421
 5310SOL     MW21240   0.985   1.299   1.684  0.1315  0.3778  0.3478
 5311SOL     OW21241   0.274   4.595   0.379 -0.1755  0.0691  0.1445
 5311SOL    HW121242   0.317   4.663   0.431 -1.2978 -0.0655  1.2987
 5311SOL    HW221243   0.284   4.515   0.431  0.8331 -0.6089 -1.0342
 5311SOL     MW21244   0.281   4.593   0.392 -0.1901 -0.0349  0.1414
 5312SOL     OW21245   1.046   1.081   2.173 -1.2068 -0.5521  0.3970
 5312SOL    HW121246   1.055   1.011   2.107  1.2071 -0.4562  0.5275
 5312SOL    HW221247   1.025   1.034   2.254 -0.3991 -1.0790  0.3172
 5312SOL     MW21248   1.044   1.066   2.175 -0.7944 -0.6073  0.4035
 5313SOL     OW21249   4.188   1.677   2.914  0.1916 -0.0531 -0.2656
 5313SOL    HW121250   4.102   1.709   2.887  0.1681 -0.5926 -0.8467
 5313SOL    HW221251   4.198   1.594   2.868  1.2328  0.2316 -0.5668
 5313SOL     MW21252   4.178   1.670   2.905  0.3219 -0.0857 -0.3786
 5314SOL     OW21253   0.565   0.949   0.593  0.2548 -0.2210 -0.3025
 5314SOL    HW121254   0.535   0.951   0.502  0.0782 -0.2106 -0.2455
 5314SOL    HW221255   0.572   0.856   0.615  1.7873 -0.2402 -0.8042
 5314SOL     MW21256   0.562   0.938   0.584  0.4284 -0.2221 -0.3594
 5315SOL     OW21257   4.058   4.640   2.253  0.1020 -0.1283 -0.0524
 5315SOL    HW121258   4.036   4.684   2.171  0.3668 -1.3123 -0.7897
 5315SOL    HW221259   3.989   4.667   2.314 -0.1023  0.7716 -0.6607
 5315SOL     MW21260   4.046   4.649   2.251  0.1098 -0.1646 -0.2247
 5316SOL     OW21261   0.011   2.163   0.461  0.3163 -0.1600 -0.5797
 5316SOL    HW121262  -0.026   2.248   0.437 -1.6723 -0.9932 -0.6166
 5316SOL    HW221263   0.087   2.185   0.515  0.4379  1.6346 -1.4068
 5316SOL     MW21264   0.016   2.177   0.465  0.0773 -0.0370 -0.6903
 5317SOL     OW21265   1.007   1.212   4.508  0.1403 -0.4893  0.1789
 5317SOL    HW121266   1.066   1.256   4.448  0.8242 -0.3418  0.9475
 5317SOL    HW221267   1.021   1.118   4.492 -2.4625 -0.5767 -2.6003
 5317SOL     MW21268   1.016   1.205   4.498 -0.1053 -0.4816 -0.0785
 5318SOL     OW21269   0.831   3.595   3.240 -0.0621  0.0460  0.0905
 5318SOL    HW121270   0.850   3.505   3.214  3.0266  0.0068  1.9245
 5318SOL    HW221271   0.828   3.592   3.336  0.0196  1.8492  0.1881
 5318SOL     MW21272   0.833   3.583   3.249  0.3437  0.2718  0.3378
 5319SOL     OW21273   0.282   4.539   4.587 -0.2152 -0.2570 -0.0270
 5319SOL    HW121274   0.259   4.622   4.544  1.2739 -0.7498 -1.8839
 5319SOL    HW221275   0.292   4.563   4.680  0.9738  1.8487 -0.6287
 5319SOL     MW21276   0.281   4.553   4.594  0.1276 -0.0505 -0.3417
 5320SOL     OW21277   5.113   3.640   0.560  0.1868 -0.1950 -0.1593
 5320SOL    HW121278   5.130   3.546   0.563  0.3622 -0.1522  0.2978
 5320SOL    HW221279   5.061   3.653   0.481  0.7049 -0.5827 -0.5663
 5320SOL     MW21280   5.108   3.630   0.550  0.2756 -0.2392 -0.1529
 5321SOL     OW21281   2.823   0.933   2.270  0.0210 -0.3600  0.0455
 5321SOL    HW121282   2.782   1.002   2.321 -0.3327  0.3784 -1.1991
 5321SOL    HW221283   2.750   0.880   2.238  0.2227 -0.6540  0.0631
 5321SOL     MW21284   2.808   0.935   2.273  0.0015 -0.3031 -0.1115
 5322SOL     OW21285   4.200   4.440   1.342  0.0153 -0.6695  0.3502
 5322SOL    HW121286   4.235   4.435   1.431  4.3074  0.5129 -1.0100
 5322SOL    HW221287   4.160   4.527   1.337 -0.1632 -0.7015  1.0627
 5322SOL     MW21288   4.199   4.451   1.353  0.5418 -0.5222  0.2673
 5323SOL     OW21289   3.608   3.648   0.916 -0.0887  0.0451 -0.3082
 5323SOL    HW121290   3.540   3.597   0.961  0.1939 -0.1843 -0.1323
 5323SOL    HW221291   3.604   3.619   0.825  1.1719 -1.5382  0.0940
 5323SOL     MW21292   3.599   3.637   0.910  0.1088 -0.1869 -0.2342
 5324SOL     OW21293   0.620   4.239   2.186  0.5487 -0.1654 -0.2961
 5324SOL    HW121294   0.684   4.240   2.258  1.1942  2.2083 -0.8228
 5324SOL    HW221295   0.562   4.166   2.207  0.8530  0.2884  2.5238
 5324SOL     MW21296   0.621   4.230   2.198  0.6703  0.1966 -0.0026
 5325SOL     OW21297   1.685   2.737   3.398  0.2327  0.0054  0.2534
 5325SOL    HW121298   1.613   2.770   3.451  0.5025 -1.2106  1.4467
 5325SOL    HW221299   1.741   2.813   3.383 -0.3223  0.5601  0.9292
 5325SOL     MW21300   1.683   2.751   3.403  0.1962 -0.0792  0.4927
 5326SOL     OW21301   5.014   0.731   3.969 -0.1970 -0.1939 -0.2313
 5326SOL    HW121302   5.031   0.802   3.907  0.4634  1.3387  1.6101
 5326SOL    HW221303   4.927   0.699   3.945 -1.9010  3.2408  0.6018
 5326SOL     MW21304   5.005   0.736   3.958 -0.3306  0.4419  0.1111
 5327SOL     OW21305   4.519   1.219   0.316  0.2975  0.2921  0.2834
 5327SOL    HW121306   4.553   1.240   0.228  0.6770 -1.5078 -0.0262
 5327SOL    HW221307   4.585   1.162   0.354 -0.5004 -0.0090  1.2472
 5327SOL     MW21308   4.532   1.215   0.310  0.2440  0.0231  0.3671
 5328SOL     OW21309   0.923   4.519   0.303  0.1922  0.2642  1.2326
 5328SOL    HW121310   0.852   4.484   0.249  0.9983 -1.1353  1.0166
 5328SOL    HW221311   0.884   4.591   0.351 -0.9025  0.6844 -0.2200
 5328SOL     MW21312   0.909   4.524   0.302  0.1553  0.1388  1.0190
 5329SOL     OW21313   0.478   1.907   3.810 -0.5457  0.0589 -0.2971
 5329SOL    HW121314   0.420   1.857   3.753  1.4044  0.7682 -3.0618
 5329SOL    HW221315   0.523   1.968   3.752  2.1960  0.2718  1.8422
 5329SOL     MW21316   0.476   1.908   3.796  0.0549  0.1770 -0.3772
 5330SOL     OW21317   0.411   4.554   0.146 -0.3660 -0.5074  0.4434
 5330SOL    HW121318   0.382   4.589   0.231 -1.9360  1.1725 -0.6987
 5330SOL    HW221319   0.346   4.587   0.084  0.3272 -2.3213 -1.3243
 5330SOL     MW21320   0.399   4.563   0.149 -0.4782 -0.5246  0.0709
 5331SOL     OW21321   1.606   4.436   2.422 -0.5374  0.0370  0.0716
 5331SOL    HW121322   1.643   4.361   2.470  0.5079  0.5832  0.1458
 5331SOL    HW221323   1.648   4.512   2.462 -0.1799  0.5471 -1.2357
 5331SOL     MW21324   1.616   4.436   2.433 -0.3578  0.1722 -0.0863
 5332SOL     OW21325   0.396   2.567   2.950  0.1853  0.4921  0.2700
 5332SOL    HW121326   0.433   2.626   2.884  1.2545  0.7706  1.0861
 5332SOL    HW221327   0.461   2.497   2.958 -0.5159 -0.1785  0.1639
 5332SOL     MW21328   0.409   2.565   2.942  0.2324  0.4419  0.3609
 5333SOL     OW21329   1.206   0.315   5.473  0.1033  0.0735  0.2585
 5333SOL    HW121330   1.193   0.251   5.403 -1.2715 -0.8950  1.3821
 5333SOL    HW221331   1.192   0.400   5.430 -2.1308 -0.5587 -0.3869
 5333SOL     MW21332   1.203   0.318   5.458 -0.3587 -0.1314  0.3197
 5334SOL     OW21333   2.799   4.550   1.589 -0.0172  0.1619  0.0461
 5334SOL    HW121334   2.788   4.610   1.516  2.9943  1.0260  0.1709
 5334SOL    HW221335   2.863   4.593   1.646 -0.3526 -1.6455  1.9123
 5334SOL     MW21336   2.806   4.563   1.587  0.3254  0.0411  0.3010
 5335SOL     OW21337   0.898   3.093   0.626  0.3396 -0.1778  0.0417
 5335SOL    HW121338   0.809   3.122   0.646 -0.6056 -3.3349  0.9705
 5335SOL    HW221339   0.901   3.090   0.530 -0.6214 -0.1817  0.0011
 5335SOL     MW21340   0.887   3.096   0.616  0.0956 -0.5824  0.1554
 5336SOL     OW21341   2.434   1.959   0.433 -0.0536  0.4342 -0.1887
 5336SOL    HW121342   2.369   1.935   0.366  0.9725 -1.3291 -0.6284
 5336SOL    HW221343   2.455   1.876   0.476  1.7774  0.9911  0.0521
 5336SOL     MW21344   2.428   1.945   0.430  0.3121  0.2798 -0.2141
 5337SOL     OW21345   1.018   4.778   4.640  0.3008  0.2914  0.1580
 5337SOL    HW121346   0.999   4.699   4.690  2.6986  0.4546  1.4699
 5337SOL    HW221347   1.006   4.849   4.703  1.1733  0.7027 -0.1271
 5337SOL     MW21348   1.014   4.777   4.655  0.7194  0.3649  0.2894
 5338SOL     OW21349   0.878   2.378   1.032  0.2628 -0.3465  0.1755
 5338SOL    HW121350   0.888   2.473   1.033  0.3970 -0.3448  2.2777
 5338SOL    HW221351   0.784   2.363   1.041  0.3316 -0.3968  0.8772
 5338SOL     MW21352   0.867   2.388   1.033  0.2888 -0.3527  0.5344
 5339SOL     OW21353   1.131   4.634   3.102 -0.2902  0.0054  0.2347
 5339SOL    HW121354   1.214   4.629   3.151  0.4410 -0.0575 -0.9660
 5339SOL    HW221355   1.148   4.697   3.033 -2.3613  2.6558  1.9544
 5339SOL     MW21356   1.144   4.641   3.099 -0.4617  0.3367  0.3011
 5340SOL     OW21357   4.256   3.932   1.760  0.0700 -0.0337  0.3691
 5340SOL    HW121358   4.163   3.952   1.771  0.0754 -0.0013  0.3569
 5340SOL    HW221359   4.260   3.879   1.681  0.2058  1.0384 -0.3683
 5340SOL     MW21360   4.245   3.928   1.752  0.0881  0.1077  0.2732
 5341SOL     OW21361   1.819   2.308   3.747 -0.2498 -0.2028  0.0852
 5341SOL    HW121362   1.806   2.216   3.722 -0.9382 -0.2765  0.6770
 5341SOL    HW221363   1.793   2.312   3.839  1.5703  0.2200  0.6081
 5341SOL     MW21364   1.814   2.296   3.755 -0.1049 -0.1581  0.2279
 5342SOL     OW21365   0.459   3.470   1.408 -0.2392  0.5023  0.3905
 5342SOL    HW121366   0.401   3.516   1.347  0.6888  0.8644 -0.2339
 5342SOL    HW221367   0.509   3.540   1.451  1.3253  0.1062 -0.7091
 5342SOL     MW21368   0.458   3.485   1.406  0.0799  0.4980  0.1698
 5343SOL     OW21369   2.659   0.663   1.125  0.0580 -0.0458  0.3767
 5343SOL    HW121370   2.604   0.734   1.157  0.2324 -0.2951  1.2419
 5343SOL    HW221371   2.607   0.622   1.056  0.2136  1.3114 -0.5992
 5343SOL     MW21372   2.645   0.667   1.120  0.1002  0.0960  0.3626
 5344SOL     OW21373   3.451   2.466   3.950 -0.7662  0.2177  0.0356
 5344SOL    HW121374   3.386   2.397   3.935 -0.0453 -1.4247  3.5581
 5344SOL    HW221375   3.401   2.536   3.992 -0.6074 -0.4645  1.4336
 5344SOL     MW21376   3.436   2.466   3.953 -0.6536 -0.0798  0.6655
 5345SOL     OW21377   3.131   1.714   5.284  0.2097 -0.2819  0.2852
 5345SOL    HW121378   3.103   1.790   5.234  0.6413  0.5375  1.2634
 5345SOL    HW221379   3.222   1.700   5.258  0.7684  0.7841  1.5666
 5345SOL     MW21380   3.139   1.722   5.275  0.3365 -0.0406  0.5745
 5346SOL     OW21381   4.483   0.926   4.966  0.0985 -0.6052  0.7843
 5346SOL    HW121382   4.411   0.973   5.008  0.7771 -1.2664  2.8433
 5346SOL    HW221383   4.441   0.857   4.916 -0.8765  1.6922 -1.7875
 5346SOL     MW21384   4.469   0.923   4.965  0.0606 -0.3957  0.7186
 5347SOL     OW21385   2.615   0.961   3.564 -0.1846  0.4142 -0.4000
 5347SOL    HW121386   2.646   1.033   3.620 -0.7434  0.5117 -0.2096
 5347SOL    HW221387   2.691   0.902   3.556 -0.8594 -1.0577  2.7388
 5347SOL     MW21388   2.629   0.963   3.570 -0.3425  0.2383  0.0262
 5348SOL     OW21389   3.204   3.626   3.339  0.6107  0.6087  0.3682
 5348SOL    HW121390   3.131   3.626   3.277  0.6751  1.6483  0.2790
 5348SOL    HW221391   3.177   3.683   3.410  0.6475 -0.3699  1.2028
 5348SOL     MW21392   3.191   3.633   3.340  0.6236  0.6165  0.4636
 5349SOL     OW21393   0.814   4.473   1.538  0.1418  0.0841  0.4185
 5349SOL    HW121394   0.800   4.380   1.525  0.6139  0.1821 -1.1070
 5349SOL    HW221395   0.743   4.515   1.489  0.0918  0.5137  0.8546
 5349SOL     MW21396   0.803   4.467   1.530  0.1958  0.1516  0.2790
 5350SOL     OW21397   1.654   4.968   2.074  0.3727  0.1966 -0.1737
 5350SOL    HW121398   1.607   4.917   2.008  1.1926  0.3620 -0.9079
 5350SOL    HW221399   1.738   4.989   2.033  0.3311  1.5424  0.3747
 5350SOL     MW21400   1.659   4.964   2.060  0.4723  0.3901 -0.1975
 5351SOL     OW21401   3.414   5.419   0.260  0.0058  0.7989  0.3924
 5351SOL    HW121402   3.461   5.411   0.343 -1.6843  1.6337  1.4956
 5351SOL    HW221403   3.409   5.330   0.227  1.7938  0.6049  0.5152
 5351SOL     MW21404   3.420   5.407   0.267  0.0183  0.8809  0.5494
 5352SOL     OW21405   1.417   3.481   0.304 -0.8793 -0.2514 -0.3404
 5352SOL    HW121406   1.441   3.396   0.267 -0.0621 -0.5000  0.7247
 5352SOL    HW221407   1.469   3.488   0.383 -0.3388  1.6037 -0.8182
 5352SOL     MW21408   1.427   3.471   0.309 -0.7055 -0.0458 -0.2652
 5353SOL     OW21409   1.110   3.919   0.032  0.1142 -0.2258 -0.1990
 5353SOL    HW121410   1.024   3.893   0.064  0.2260  1.3945  1.5870
 5353SOL    HW221411   1.106   4.015   0.029  1.0660 -0.2001 -2.4703
 5353SOL     MW21412   1.099   3.928   0.035  0.2503 -0.0151 -0.2611
 5354SOL     OW21413   0.166   0.219   1.545  0.4280 -0.1078 -0.3633
 5354SOL    HW121414   0.165   0.276   1.468  0.5420 -0.9270 -0.9814
 5354SOL    HW221415   0.110   0.145   1.521 -1.1864  0.5707  1.0925
 5354SOL     MW21416   0.159   0.217   1.533  0.2359 -0.1258 -0.2561
 5355SOL     OW21417   2.614   2.344   3.866 -0.1114 -0.2562 -0.4887
 5355SOL    HW121418   2.589   2.257   3.835 -0.1348 -0.0399 -1.1051
 5355SOL    HW221419   2.580   2.403   3.798 -1.1602  0.3328  0.5212
 5355SOL     MW21420   2.606   2.340   3.853 -0.2486 -0.1531 -0.4383
 5356SOL     OW21421   1.260   4.439   0.240  0.1393 -0.0167  0.0099
 5356SOL    HW121422   1.345   4.431   0.284  0.3910 -0.0427 -0.4634
 5356SOL    HW221423   1.196   4.414   0.306  0.4234  0.9819  0.6812
 5356SOL     MW21424   1.263   4.435   0.254  0.2079  0.1078  0.0352
 5357SOL     OW21425   3.911   4.325   0.314  0.2090 -0.3156 -0.3812
 5357SOL    HW121426   3.945   4.376   0.387 -1.3473 -0.3325  0.3971
 5357SOL    HW221427   3.910   4.387   0.240 -1.6171  0.8506  0.5384
 5357SOL     MW21428   3.915   4.340   0.314 -0.2240 -0.1685 -0.1639
 5358SOL     OW21429   2.217   3.847   0.097  0.2668 -0.1999  0.0500
 5358SOL    HW121430   2.267   3.920   0.132  1.8455 -1.1243 -0.1738
 5358SOL    HW221431   2.218   3.859   0.002  0.7414 -0.6186 -0.0043
 5358SOL     MW21432   2.224   3.858   0.089  0.5297 -0.3719  0.0144
 5359SOL     OW21433   3.762   2.171   2.185  0.3558  0.3422  0.3748
 5359SOL    HW121434   3.767   2.144   2.093  1.4836 -1.6540  0.9531
 5359SOL    HW221435   3.852   2.198   2.206  0.3784 -0.3512  1.1956
 5359SOL     MW21436   3.774   2.171   2.176  0.5031 -0.0021  0.5539
 5360SOL     OW21437   1.842   3.062   2.656  0.1578  0.1303 -0.2802
 5360SOL    HW121438   1.776   3.014   2.707 -0.4116 -0.7686 -1.7924
 5360SOL    HW221439   1.922   3.010   2.665 -0.3001 -0.8064 -1.4084
 5360SOL     MW21440   1.844   3.049   2.664  0.0263 -0.1047 -0.6182
 5361SOL     OW21441   1.281   4.715   0.797 -0.4525 -0.4061 -0.1874
 5361SOL    HW121442   1.292   4.805   0.766  1.7501 -0.5365  0.0398
 5361SOL    HW221443   1.197   4.687   0.760  0.4370  0.5634 -3.2849
 5361SOL     MW21444   1.271   4.723   0.788 -0.0567 -0.2987 -0.5548
 5362SOL     OW21445   0.389   3.137   4.758  0.8369  0.3231 -0.4091
 5362SOL    HW121446   0.396   3.048   4.793 -0.0398  0.5501  0.3751
 5362SOL    HW221447   0.327   3.129   4.685 -0.3807  0.5300  0.5773
 5362SOL     MW21448   0.382   3.124   4.753  0.5688  0.3786 -0.1825
 5363SOL     OW21449   4.463   3.507   2.164  0.5206  0.3713  0.4242
 5363SOL    HW121450   4.551   3.543   2.163  1.0273 -0.8132 -0.3578
 5363SOL    HW221451   4.474   3.415   2.139 -0.9712  0.3017 -0.1234
 5363SOL     MW21452   4.476   3.500   2.161  0.3945  0.2108  0.2540
 5364SOL     OW21453   0.038   3.409   1.612  0.0899 -0.5405  0.1442
 5364SOL    HW121454   0.043   3.505   1.610 -1.0751 -0.4817 -1.1306
 5364SOL    HW221455  -0.025   3.390   1.682  0.1154 -0.3708  0.2139
 5364SOL     MW21456   0.031   3.419   1.621 -0.0559 -0.5112 -0.0100
 5365SOL     OW21457   3.307   3.767   1.140  0.0730 -0.3716 -0.5737
 5365SOL    HW121458   3.275   3.816   1.064  1.5164 -1.6020 -2.0697
 5365SOL    HW221459   3.368   3.703   1.103  1.8018 -0.2162  1.7459
 5365SOL     MW21460   3.311   3.765   1.126  0.4791 -0.5092 -0.4683
 5366SOL     OW21461   0.647   4.413   3.339  0.2798  0.3778 -0.0172
 5366SOL    HW121462   0.586   4.471   3.385  0.0461  0.2555 -0.1690
 5366SOL    HW221463   0.733   4.451   3.354  0.2276  0.2502  0.6721
 5366SOL     MW21464   0.650   4.425   3.347  0.2432  0.3458  0.0516
 5367SOL     OW21465   0.492   5.093   3.042 -0.5503 -0.1981 -0.0561
 5367SOL    HW121466   0.451   5.007   3.055  1.2967 -0.8877  1.7963
 5367SOL    HW221467   0.500   5.128   3.130  1.2934  0.6137 -0.5094
 5367SOL     MW21468   0.488   5.086   3.055 -0.0778 -0.1824  0.1230
 5368SOL     OW21469   4.644   2.474   0.100  0.8304 -0.5210  0.5381
 5368SOL    HW121470   4.662   2.428   0.019  0.9965  1.0111 -0.3300
 5368SOL    HW221471   4.585   2.416   0.148 -0.8946 -0.6413 -1.5480
 5368SOL     MW21472   4.639   2.461   0.096  0.6309 -0.3402  0.1599
 5369SOL     OW21473   2.043   5.155   5.383 -0.0338 -0.1302 -0.3636
 5369SOL    HW121474   1.985   5.086   5.350 -0.7037  0.7611 -1.1150
 5369SOL    HW221475   2.008   5.177   5.469 -0.5839  0.1249 -0.6473
 5369SOL     MW21476   2.031   5.149   5.390 -0.1900  0.0165 -0.4961
 5370SOL     OW21477   5.152   5.246   4.480  0.2731 -0.2527  0.6520
 5370SOL    HW121478   5.203   5.167   4.461 -1.1581 -0.9846 -0.3486
 5370SOL    HW221479   5.121   5.233   4.570  0.8527 -0.3571  0.8426
 5370SOL     MW21480   5.155   5.234   4.489  0.1641 -0.3597  0.5483
 5371SOL     OW21481   1.528   4.137   3.107  0.8128 -0.5560 -0.0301
 5371SOL    HW121482   1.553   4.224   3.076  1.0699 -0.3594  0.6961
 5371SOL    HW221483   1.491   4.093   3.030  1.0299  0.0603 -0.4924
 5371SOL     MW21484   1.526   4.143   3.093  0.8735 -0.4519  0.0037
 5372SOL     OW21485   2.006   2.669   3.190 -0.1262  0.1389  0.4634
 5372SOL    HW121486   2.083   2.613   3.198  0.3137  0.5622 -0.5743
 5372SOL    HW221487   1.932   2.607   3.187  0.3761 -0.4539 -1.0018
 5372SOL     MW21488   2.006   2.654   3.191 -0.0056  0.1172  0.1430
 5373SOL     OW21489   0.735   4.095   4.082 -0.3040 -0.4445  0.4478
 5373SOL    HW121490   0.830   4.098   4.072 -0.2848 -0.7758  0.5225
 5373SOL    HW221491   0.705   4.183   4.060  0.0654 -0.2028  0.8940
 5373SOL     MW21492   0.743   4.107   4.078 -0.2542 -0.4560  0.5144
 5374SOL     OW21493   2.640   3.946   2.591 -0.2346  0.3246  0.2850
 5374SOL    HW121494   2.680   3.901   2.665 -0.5449 -0.1714  0.1607
 5374SOL    HW221495   2.707   4.006   2.559 -0.1575  0.6771  1.0759
 5374SOL     MW21496   2.654   3.948   2.596 -0.2644  0.3062  0.3703
 5375SOL     OW21497   4.079   3.870   2.012 -0.0588  0.6412  0.5259
 5375SOL    HW121498   4.050   3.876   1.921  0.6117  0.4532  0.2932
 5375SOL    HW221499   4.164   3.825   2.007 -0.2851  0.1054  1.2915
 5375SOL     MW21500   4.086   3.865   2.000 -0.0020  0.5486  0.5941
 5376SOL     OW21501   3.636   1.853   4.213  0.0243 -0.1952  0.5060
 5376SOL    HW121502   3.590   1.934   4.235  0.0743 -0.6973  2.7030
 5376SOL    HW221503   3.590   1.784   4.261 -0.7167 -1.7212 -2.1973
 5376SOL     MW21504   3.624   1.855   4.222 -0.0641 -0.4548  0.4412
 5377SOL     OW21505   2.036   2.049   0.296 -0.3123  0.1610 -0.2049
 5377SOL    HW121506   2.114   2.102   0.282  0.4276 -0.6849  0.5686
 5377SOL    HW221507   1.995   2.042   0.210  0.6685  0.3069 -0.6971
 5377SOL     MW21508   2.041   2.055   0.283 -0.0920  0.0714 -0.1689
 5378SOL     OW21509   5.203   1.206   3.520 -0.2851 -0.2237  0.8793
 5378SOL    HW121510   5.179   1.295   3.492  2.3852 -0.2301 -1.8401
 5378SOL    HW221511   5.205   1.212   3.616 -1.2587  2.3255  0.8425
 5378SOL     MW21512   5.200   1.218   3.529 -0.0679  0.1018  0.5265
 5379SOL     OW21513   2.834   4.593   3.179  0.2482 -0.6709 -0.5495
 5379SOL    HW121514   2.784   4.654   3.234  1.1968  0.1548 -0.5599
 5379SOL    HW221515   2.768   4.537   3.138 -0.8483  1.4728 -1.9090
 5379SOL     MW21516   2.819   4.594   3.181  0.2293 -0.2908 -0.7248
 5380SOL     OW21517   4.071   0.483   3.653 -0.0826  0.3623 -0.8895
 5380SOL    HW121518   4.059   0.444   3.740  1.8633  1.8820  0.1299
 5380SOL    HW221519   3.997   0.543   3.644 -0.3921  0.0680 -0.3834
 5380SOL     MW21520   4.060   0.485   3.663  0.1269  0.5192 -0.6942
 5381SOL     OW21521   0.249   4.854   1.525  0.4943 -0.5997 -0.1963
 5381SOL    HW121522   0.178   4.883   1.583  0.4325  0.6938 -0.8763
 5381SOL    HW221523   0.329   4.873   1.573  0.4416  0.3780 -0.4779
 5381SOL     MW21524   0.250   4.860   1.538  0.4797 -0.3089 -0.3194
 5382SOL     OW21525   3.796   3.522   1.348 -0.2444  0.4389  0.2030
 5382SOL    HW121526   3.812   3.435   1.385 -0.3992 -0.0995 -0.9425
 5382SOL    HW221527   3.872   3.539   1.293 -0.5436  0.7126 -0.1315
 5382SOL     MW21528   3.807   3.513   1.346 -0.3025  0.4050  0.0135
 5383SOL     OW21529   4.538   2.359   3.136  0.2544  0.5426  0.0865
 5383SOL    HW121530   4.480   2.359   3.059 -0.1346  1.8216  0.3491
 5383SOL    HW221531   4.528   2.447   3.172  3.5613  1.3921 -0.7609
 5383SOL     MW21532   4.529   2.370   3.131  0.6280  0.8151  0.0116
 5384SOL     OW21533   0.852   1.880   5.415 -0.3222 -0.2239 -0.5741
 5384SOL    HW121534   0.882   1.865   5.505 -0.0258  0.5310 -0.5442
 5384SOL    HW221535   0.860   1.794   5.374  0.4731 -0.3708 -0.1502
 5384SOL     MW21536   0.857   1.867   5.422 -0.1825 -0.1461 -0.5160
 5385SOL     OW21537   2.917   0.769   1.228  0.1261 -0.2116  0.7138
 5385SOL    HW121538   2.978   0.732   1.164 -0.0854  1.1915 -0.3136
 5385SOL    HW221539   2.831   0.739   1.200 -0.0063  0.7265  0.1040
 5385SOL     MW21540   2.914   0.760   1.217  0.0821  0.0881  0.5043
 5386SOL     OW21541   2.774   5.241   0.528  0.0308 -0.0095  0.7195
 5386SOL    HW121542   2.789   5.331   0.555  0.3016 -0.4774  2.2538
 5386SOL    HW221543   2.688   5.218   0.563 -1.2433  0.3990 -1.8640
 5386SOL     MW21544   2.765   5.249   0.536 -0.0977 -0.0171  0.5852
 5387SOL     OW21545   0.457   2.110   3.561  0.4979 -0.2406 -0.5014
 5387SOL    HW121546   0.386   2.109   3.497 -1.2944  0.1021  1.3786
 5387SOL    HW221547   0.435   2.181   3.621  1.6271 -1.0999  1.0051
 5387SOL     MW21548   0.445   2.119   3.561  0.4130 -0.3067 -0.0679
 5388SOL     OW21549   3.009   1.161   0.709 -0.5839 -0.0901  0.0152
 5388SOL    HW121550   3.090   1.211   0.702  0.3885 -1.4864  0.6607
 5388SOL    HW221551   2.942   1.226   0.731  0.4483  1.0251 -0.0223
 5388SOL     MW21552   3.011   1.176   0.711 -0.3273 -0.1261  0.0930
 5389SOL     OW21553   4.355   2.846   0.449  0.5969 -0.4538  0.8449
 5389SOL    HW121554   4.444   2.872   0.426 -0.1770  0.8750 -0.7759
 5389SOL    HW221555   4.347   2.756   0.416  0.7081  0.1247 -0.8412
 5389SOL     MW21556   4.366   2.838   0.442  0.5120 -0.2096  0.4216
 5390SOL     OW21557   1.626   4.531   4.988 -0.2696 -0.2431 -0.5212
 5390SOL    HW121558   1.670   4.616   4.992  0.5987 -0.6671 -0.8183
 5390SOL    HW221559   1.583   4.530   4.903 -2.2129  0.8012  0.3780
 5390SOL     MW21560   1.626   4.542   4.978 -0.4072 -0.1637 -0.4442
 5391SOL     OW21561   2.241   2.540   3.230  0.3211  0.5119 -0.4085
 5391SOL    HW121562   2.284   2.545   3.315 -0.5007  0.7039 -0.0001
 5391SOL    HW221563   2.208   2.450   3.225 -1.1178  0.9913  0.2148
 5391SOL     MW21564   2.243   2.529   3.240  0.0317  0.5978 -0.2765
 5392SOL     OW21565   4.570   2.848   5.044 -0.6117  0.2955  0.0606
 5392SOL    HW121566   4.539   2.828   5.132  0.1934  1.8490  0.7397
 5392SOL    HW221567   4.490   2.855   4.992 -1.0811 -0.9634  0.5631
 5392SOL     MW21568   4.555   2.846   5.049 -0.5687  0.3332  0.2119
 5393SOL     OW21569   0.269   2.189   4.489  0.1528 -0.0947 -0.5851
 5393SOL    HW121570   0.332   2.206   4.559 -1.8325  0.6963  1.1361
 5393SOL    HW221571   0.197   2.251   4.506  0.1037  0.9880 -4.0932
 5393SOL     MW21572   0.268   2.199   4.500 -0.1076  0.1452 -0.8139
 5394SOL     OW21573   1.103   5.359   2.729  0.8733  0.6574 -0.3092
 5394SOL    HW121574   1.067   5.293   2.670  1.7190  0.0040 -0.1106
 5394SOL    HW221575   1.102   5.318   2.815  1.7074  0.7732 -0.2364
 5394SOL     MW21576   1.098   5.345   2.733  1.0883  0.5886 -0.2745
 5395SOL     OW21577   3.718   1.027   3.188  0.1050 -0.5363  0.1631
 5395SOL    HW121578   3.807   1.008   3.159  1.0359  0.3112  2.2468
 5395SOL    HW221579   3.707   1.120   3.173 -0.0160 -0.4264  0.8797
 5395SOL     MW21580   3.728   1.036   3.183  0.2087 -0.4138  0.5216
 5396SOL     OW21581   4.950   2.205   3.806  0.1706  0.3182 -0.4292
 5396SOL    HW121582   4.945   2.159   3.723  0.6475 -0.4117 -0.0621
 5396SOL    HW221583   4.986   2.291   3.785 -1.0837  0.6802 -1.1765
 5396SOL     MW21584   4.954   2.210   3.793  0.0711  0.2711 -0.4778
 5397SOL     OW21585   5.142   1.227   2.073 -0.2862 -0.3564 -0.2193
 5397SOL    HW121586   5.234   1.205   2.088  0.3062  1.0785 -1.4963
 5397SOL    HW221587   5.099   1.142   2.058  0.9512 -0.9911 -0.2863
 5397SOL     MW21588   5.148   1.213   2.073 -0.0519 -0.2539 -0.3913
 5398SOL     OW21589   3.858   5.062   1.845  0.6120 -0.6177  0.4857
 5398SOL    HW121590   3.915   5.017   1.781  2.5087 -0.3500  1.8927
 5398SOL    HW221591   3.800   5.115   1.791  1.4136 -1.2336 -1.0726
 5398SOL     MW21592   3.858   5.063   1.830  0.9574 -0.6623  0.4664
 5399SOL     OW21593   5.308   1.928   3.771 -0.1034 -0.3598  0.5162
 5399SOL    HW121594   5.329   2.021   3.761 -0.6228 -0.2756  0.1829
 5399SOL    HW221595   5.384   1.882   3.735 -0.5754 -0.0607 -0.9052
 5399SOL     MW21596   5.321   1.934   3.765 -0.2303 -0.3107  0.2916
 5400SOL     OW21597   2.439   0.579   5.180  0.0073  0.0139  0.4400
 5400SOL    HW121598   2.470   0.576   5.270 -0.4025  0.4507  0.6033
 5400SOL    HW221599   2.370   0.646   5.181  0.1731  0.2002 -0.2470
 5400SOL     MW21600   2.434   0.587   5.191 -0.0239  0.0937  0.3730
 5401SOL     OW21601   0.506   1.290   4.396  0.4230 -0.3663 -0.0628
 5401SOL    HW121602   0.602   1.299   4.395  0.4388 -0.3150 -2.0828
 5401SOL    HW221603   0.486   1.246   4.314 -1.4523  1.3857 -0.6185
 5401SOL     MW21604   0.516   1.285   4.386  0.1850 -0.1354 -0.3925
 5402SOL     OW21605   5.225   3.830   0.737  0.1097 -0.2183 -0.2190
 5402SOL    HW121606   5.173   3.908   0.717  0.8337  0.4787  0.5559
 5402SOL    HW221607   5.190   3.763   0.678 -2.2444 -0.0364  0.8595
 5402SOL     MW21608   5.214   3.832   0.727 -0.0990 -0.1058  0.0183
 5403SOL     OW21609   4.268   3.465   1.811  0.4029 -0.0453  0.4987
 5403SOL    HW121610   4.181   3.434   1.836  0.8566 -0.4168  1.6566
 5403SOL    HW221611   4.275   3.551   1.853  0.2047  0.4415 -0.4462
 5403SOL     MW21612   4.258   3.472   1.820  0.4356 -0.0305  0.5259
 5404SOL     OW21613   2.896   2.940   5.094  0.2311 -0.0551  0.4539
 5404SOL    HW121614   2.945   3.022   5.103  0.5473 -0.3105  1.1349
 5404SOL    HW221615   2.821   2.950   5.152 -0.2869  0.1451 -0.2312
 5404SOL     MW21616   2.893   2.951   5.102  0.2053 -0.0621  0.4534
 5405SOL     OW21617   4.987   4.370   3.543  0.4741 -0.1415 -0.0372
 5405SOL    HW121618   4.922   4.328   3.487  0.6948  0.4842 -0.7857
 5405SOL    HW221619   4.940   4.444   3.583  0.6901  0.2521 -0.5016
 5405SOL     MW21620   4.972   4.374   3.541  0.5300 -0.0110 -0.1925
 5406SOL     OW21621   0.268   3.156   2.315 -0.5851  0.1657 -0.1403
 5406SOL    HW121622   0.350   3.206   2.313 -0.6475  0.2500 -0.6117
 5406SOL    HW221623   0.200   3.223   2.318 -0.6454  0.0954  0.1163
 5406SOL     MW21624   0.270   3.171   2.315 -0.6008  0.1675 -0.1678
 5407SOL     OW21625   4.998   4.429   1.870 -0.4316  0.0113 -0.1859
 5407SOL    HW121626   5.017   4.449   1.961  1.6830 -1.3168 -0.2634
 5407SOL    HW221627   5.043   4.346   1.854 -0.3814  0.4276 -2.5442
 5407SOL     MW21628   5.006   4.420   1.879 -0.1545 -0.1054 -0.4977
 5408SOL     OW21629   3.491   2.045   0.397  0.2870  0.2662 -0.1497
 5408SOL    HW121630   3.526   2.116   0.450  1.3648 -0.3142 -0.0448
 5408SOL    HW221631   3.400   2.070   0.380 -0.6643 -0.2924  3.3477
 5408SOL     MW21632   3.484   2.057   0.402  0.3032  0.1204  0.3114
 5409SOL     OW21633   0.796   0.338   0.325  0.2775 -0.0671 -0.3703
 5409SOL    HW121634   0.752   0.422   0.316 -2.4991 -1.3423  0.0904
 5409SOL    HW221635   0.796   0.301   0.236  1.5552  0.4304 -0.5851
 5409SOL     MW21636   0.790   0.344   0.312  0.0856 -0.1667 -0.3389
 5410SOL     OW21637   5.199   3.170   1.487  0.0342  0.2526 -0.0842
 5410SOL    HW121638   5.193   3.077   1.510  0.5146  0.4387  0.8885
 5410SOL    HW221639   5.289   3.181   1.457  0.3892  0.6334  1.0366
 5410SOL     MW21640   5.210   3.159   1.486  0.1412  0.3252  0.1838
 5411SOL     OW21641   2.118   3.238   1.764  0.0686 -0.1883  0.4774
 5411SOL    HW121642   2.026   3.248   1.738 -0.2331  1.7081  2.0422
 5411SOL    HW221643   2.161   3.205   1.685 -1.7977 -0.2745 -0.5703
 5411SOL     MW21644   2.112   3.235   1.750 -0.2089  0.0435  0.5436
 5412SOL     OW21645   4.667   4.579   2.135  0.1298  0.3879 -0.0220
 5412SOL    HW121646   4.603   4.537   2.077 -1.1904  0.9060  1.0019
 5412SOL    HW221647   4.682   4.665   2.098  1.8833 -0.4431 -1.4226
 5412SOL     MW21648   4.661   4.584   2.123  0.1853  0.3478 -0.0702
 5413SOL     OW21649   2.737   1.495   2.205  0.4322  0.0339  0.0537
 5413SOL    HW121650   2.641   1.496   2.198  0.3718 -1.3931  0.2785
 5413SOL    HW221651   2.767   1.556   2.138 -0.5607 -1.7595 -2.1600
 5413SOL     MW21652   2.729   1.503   2.195  0.2974 -0.3784 -0.2009
 5414SOL     OW21653   0.120   1.751   0.741 -0.4075 -0.0111 -0.1545
 5414SOL    HW121654   0.161   1.835   0.763  0.6150 -0.7418  0.8241
 5414SOL    HW221655   0.069   1.728   0.819  0.1949 -0.8180  0.0081
 5414SOL     MW21656   0.118   1.759   0.754 -0.1995 -0.2080 -0.0084
 5415SOL     OW21657   4.928   0.581   2.079  0.6156 -1.0853  0.0368
 5415SOL    HW121658   5.002   0.563   2.021 -0.4097 -2.3853 -0.9162
 5415SOL    HW221659   4.866   0.511   2.062 -1.9336  1.2293 -0.9858
 5415SOL     MW21660   4.930   0.570   2.069  0.1580 -0.9554 -0.2161
 5416SOL     OW21661   0.078   3.049   3.393 -0.8141 -0.1021  0.2801
 5416SOL    HW121662   0.114   2.971   3.350  0.9816  0.0233  1.4308
 5416SOL    HW221663   0.109   3.122   3.339  0.8566  0.0091  1.2959
 5416SOL     MW21664   0.087   3.048   3.381 -0.3704 -0.0718  0.5574
 5417SOL     OW21665   4.863   2.203   5.391  0.3875 -0.7263  0.4583
 5417SOL    HW121666   4.821   2.276   5.348 -0.0843 -0.6329  1.0605
 5417SOL    HW221667   4.794   2.162   5.443  1.2567  0.0939  2.3444
 5417SOL     MW21668   4.849   2.207   5.392  0.4384 -0.6093  0.7768
 5418SOL     OW21669   4.602   0.986   3.952 -0.0918 -0.0663  0.2141
 5418SOL    HW121670   4.530   1.045   3.930  1.3579  1.7400  0.1313
 5418SOL    HW221671   4.655   0.982   3.873  0.6147 -0.2858  0.6869
 5418SOL     MW21672   4.599   0.993   3.939  0.1842  0.1368  0.2640
 5419SOL     OW21673   0.919   4.176   0.198 -0.2082  0.5616 -0.1465
 5419SOL    HW121674   0.846   4.238   0.199 -0.3616  0.4013  1.5207
 5419SOL    HW221675   0.935   4.157   0.290 -0.5401 -2.3131 -0.5968
 5419SOL     MW21676   0.912   4.182   0.210 -0.2703  0.1731  0.0093
 5420SOL     OW21677   3.665   4.162   0.334  0.1452 -0.1428  0.3160
 5420SOL    HW121678   3.729   4.232   0.337  0.8306 -0.6814 -0.9931
 5420SOL    HW221679   3.585   4.201   0.371  1.0464  0.7035  1.4240
 5420SOL     MW21680   3.663   4.176   0.339  0.3483 -0.1034  0.2903
 5421SOL     OW21681   4.788   2.205   2.699  0.0826  0.1724 -0.4619
 5421SOL    HW121682   4.857   2.271   2.707  0.8382 -0.3178 -2.3376
 5421SOL    HW221683   4.707   2.255   2.700  0.5420  0.9257  0.1409
 5421SOL     MW21684   4.787   2.220   2.700  0.2381  0.2061 -0.6249
 5422SOL     OW21685   0.580   0.103   3.038 -0.2852  0.6795  0.3223
 5422SOL    HW121686   0.608   0.063   3.120  1.2226  0.5749 -0.2119
 5422SOL    HW221687   0.651   0.084   2.976 -0.6023  2.1691 -0.5608
 5422SOL     MW21688   0.593   0.096   3.041 -0.1327  0.8568  0.1409
 5423SOL     OW21689   1.730   1.824   4.389  0.6083  0.5331  0.0409
 5423SOL    HW121690   1.675   1.896   4.418 -0.8135 -0.3003 -0.5145
 5423SOL    HW221691   1.687   1.790   4.311  0.9414 -1.2741  0.6010
 5423SOL     MW21692   1.718   1.829   4.382  0.4690  0.1951  0.0415
 5424SOL     OW21693   1.852   3.698   3.372  0.0052  0.1194  0.1926
 5424SOL    HW121694   1.872   3.716   3.464 -0.3254  0.9487  0.1079
 5424SOL    HW221695   1.937   3.681   3.332  0.0993 -0.8640  0.7694
 5424SOL     MW21696   1.866   3.698   3.378 -0.0250  0.0997  0.2556
 5425SOL     OW21697   3.780   0.189   4.405 -0.1069 -0.1551  0.2657
 5425SOL    HW121698   3.840   0.116   4.391 -0.3247 -0.1317 -0.8875
 5425SOL    HW221699   3.739   0.171   4.490  0.1147 -1.1750  0.1694
 5425SOL     MW21700   3.782   0.177   4.414 -0.1064 -0.2827  0.1058
 5426SOL     OW21701   4.635   2.292   4.562  0.0650 -0.0112  0.6095
 5426SOL    HW121702   4.596   2.209   4.589 -0.8883  0.4296  0.6069
 5426SOL    HW221703   4.588   2.316   4.482 -0.4025  1.0615  1.1963
 5426SOL     MW21704   4.624   2.284   4.555 -0.1169  0.1825  0.6843
 5427SOL     OW21705   1.357   4.739   1.049  0.0799 -0.0602 -0.2485
 5427SOL    HW121706   1.322   4.823   1.078  1.3696  0.3821  0.1065
 5427SOL    HW221707   1.307   4.718   0.971 -0.1267  1.1514 -0.4684
 5427SOL     MW21708   1.346   4.747   1.043  0.2185  0.1516 -0.2312
 5428SOL     OW21709   3.040   2.773   3.624 -0.8215 -0.2167 -0.2776
 5428SOL    HW121710   2.975   2.703   3.630 -0.4346 -0.5301  0.3901
 5428SOL    HW221711   3.002   2.836   3.562 -0.6803 -1.5503 -1.7737
 5428SOL     MW21712   3.027   2.772   3.617 -0.7539 -0.4275 -0.3836
 5429SOL     OW21713   1.728   1.747   0.542 -0.3453  0.4162 -0.6056
 5429SOL    HW121714   1.805   1.797   0.515 -0.1985  0.9847  0.7352
 5429SOL    HW221715   1.760   1.688   0.610 -0.9669  0.1735 -0.5136
 5429SOL     MW21716   1.742   1.746   0.547 -0.4060  0.4579 -0.4222
 5430SOL     OW21717   1.260   1.580   2.280  0.1986  0.4956 -0.6026
 5430SOL    HW121718   1.252   1.654   2.340  0.1166  0.3145 -0.3859
 5430SOL    HW221719   1.339   1.599   2.229 -0.3736  1.2151 -1.2409
 5430SOL     MW21720   1.269   1.592   2.281  0.1148  0.5645 -0.6565
 5431SOL     OW21721   2.763   3.688   2.416 -0.2422 -0.2048 -0.0635
 5431SOL    HW121722   2.852   3.709   2.441 -0.3305  1.0609 -0.7340
 5431SOL    HW221723   2.744   3.746   2.342 -2.0258  0.4586  0.8357
 5431SOL     MW21724   2.772   3.698   2.410 -0.4818  0.0422 -0.0342
 5432SOL     OW21725   1.727   5.292   1.093 -0.3638  0.0084 -0.2780
 5432SOL    HW121726   1.665   5.277   1.022  0.2742 -1.4384 -0.5753
 5432SOL    HW221727   1.673   5.317   1.167 -1.1647  0.1974 -0.9126
 5432SOL     MW21728   1.713   5.293   1.093 -0.3846 -0.1526 -0.3973
 5433SOL     OW21729   1.620   4.821   0.954  0.3421 -0.9502 -0.3512
 5433SOL    HW121730   1.639   4.817   1.047 -2.3087  1.5884  0.4639
 5433SOL    HW221731   1.526   4.805   0.948  0.0986  0.7629 -2.3210
 5433SOL     MW21732   1.610   4.819   0.965 -0.0284 -0.4059 -0.4990
 5434SOL     OW21733   1.235   3.608   1.664 -0.0244  0.0762  0.3094
 5434SOL    HW121734   1.289   3.615   1.743 -0.5271 -0.3728  0.7078
 5434SOL    HW221735   1.286   3.554   1.604 -0.6351 -1.5930  1.2429
 5434SOL     MW21736   1.249   3.602   1.667 -0.1669 -0.1949  0.4799
 5435SOL     OW21737   0.403   1.788   1.017  0.0961 -0.0535 -0.6407
 5435SOL    HW121738   0.368   1.852   0.955  0.6402 -0.1711 -1.0726
 5435SOL    HW221739   0.326   1.757   1.065  0.0371  2.5078  1.1273
 5435SOL     MW21740   0.389   1.792   1.015  0.1582  0.2593 -0.4696
 5436SOL     OW21741   3.074   0.259   1.990  0.0025  0.1612 -0.0468
 5436SOL    HW121742   3.149   0.260   1.930 -0.5769  0.5079 -0.7842
 5436SOL    HW221743   3.104   0.306   2.067  0.5473  0.2998 -0.3371
 5436SOL     MW21744   3.088   0.265   1.992 -0.0019  0.2233 -0.1784
 5437SOL     OW21745   0.647   4.403   5.385  0.4610 -0.8723 -0.4134
 5437SOL    HW121746   0.742   4.398   5.385  0.5002 -0.2160 -0.5620
 5437SOL    HW221747   0.625   4.451   5.305  0.1452  1.1428  0.8158
 5437SOL     MW21748   0.656   4.408   5.375  0.4256 -0.5303 -0.2750
 5438SOL     OW21749   1.985   5.347   4.868  0.0155 -0.0793 -0.0456
 5438SOL    HW121750   2.069   5.313   4.835 -0.9593 -1.8961 -0.8214
 5438SOL    HW221751   1.993   5.342   4.963  0.9788  0.2958 -0.0955
 5438SOL     MW21752   1.997   5.342   4.876  0.0140 -0.2638 -0.1513
 5439SOL     OW21753   3.471   2.184   1.123 -0.6532 -0.2078  0.7765
 5439SOL    HW121754   3.429   2.239   1.056 -0.1587 -1.4745 -0.6072
 5439SOL    HW221755   3.473   2.097   1.085  0.4257 -0.7956  2.1062
 5439SOL     MW21756   3.466   2.180   1.110 -0.4518 -0.4452  0.7696
 5440SOL     OW21757   0.207   4.410   0.585 -0.3404 -0.3574  0.3514
 5440SOL    HW121758   0.146   4.375   0.520 -0.1518  0.3364 -0.2082
 5440SOL    HW221759   0.152   4.435   0.659 -1.0143  2.0612 -0.8900
 5440SOL     MW21760   0.193   4.408   0.586 -0.4026  0.0410  0.1208
 5441SOL     OW21761   5.222   4.233   3.645 -0.6459 -0.2173  0.1363
 5441SOL    HW121762   5.297   4.285   3.674 -0.2281 -1.0966  0.6338
 5441SOL    HW221763   5.154   4.298   3.629  0.9509  0.9330 -2.8886
 5441SOL     MW21764   5.223   4.248   3.647 -0.3880 -0.1826 -0.1872
 5442SOL     OW21765   2.488   3.458   5.193 -0.6741 -0.3671  0.1380
 5442SOL    HW121766   2.446   3.507   5.264 -0.3332  0.5661 -0.2882
 5442SOL    HW221767   2.582   3.465   5.211 -0.6395 -1.6607  0.5764
 5442SOL     MW21768   2.495   3.465   5.204 -0.6260 -0.4132  0.1395
 5443SOL     OW21769   1.658   0.591   4.510 -0.1610  0.6728 -0.4460
 5443SOL    HW121770   1.719   0.520   4.533 -0.9417  0.6101  1.6067
 5443SOL    HW221771   1.706   0.643   4.445  0.8200 -1.1539 -1.2638
 5443SOL     MW21772   1.672   0.588   4.504 -0.1353  0.4310 -0.2879
 5444SOL     OW21773   1.793   1.076   4.275 -0.1863 -0.2792  0.4563
 5444SOL    HW121774   1.698   1.069   4.286 -0.4390  1.3212 -0.2781
 5444SOL    HW221775   1.827   1.090   4.364 -0.6833 -0.4277  0.6729
 5444SOL     MW21776   1.785   1.077   4.288 -0.2823 -0.0933  0.3900
 5445SOL     OW21777   3.802   2.540   4.959 -0.3265  0.5276 -0.2272
 5445SOL    HW121778   3.732   2.590   5.002 -0.9187  0.3705 -0.9732
 5445SOL    HW221779   3.798   2.453   4.999  0.2945  0.8882  0.6347
 5445SOL     MW21780   3.792   2.535   4.970 -0.3228  0.5537 -0.2124
 5446SOL     OW21781   3.044   0.831   4.867 -0.4136 -0.1221  0.0590
 5446SOL    HW121782   3.091   0.817   4.949 -0.4700 -0.0680  0.1008
 5446SOL    HW221783   3.108   0.808   4.799 -0.3805 -0.2079  0.1183
 5446SOL     MW21784   3.058   0.826   4.869 -0.4166 -0.1262  0.0720
 5447SOL     OW21785   1.059   1.582   4.559  0.6833 -0.0302  0.1938
 5447SOL    HW121786   1.069   1.559   4.651  0.2152 -2.2577 -0.2403
 5447SOL    HW221787   1.116   1.658   4.546  0.1864  0.7822  2.4569
 5447SOL     MW21788   1.068   1.589   4.569  0.5598 -0.2113  0.4279
 5448SOL     OW21789   5.028   1.936   4.592 -0.0976  0.5238  0.3117
 5448SOL    HW121790   5.090   1.900   4.529  0.8677  0.9223  1.0135
 5448SOL    HW221791   4.981   2.004   4.544  0.1200  0.3290 -0.1758
 5448SOL     MW21792   5.030   1.940   4.578  0.0539  0.5498  0.3392
 5449SOL     OW21793   3.741   5.000   4.007 -0.2958  0.2598 -0.5218
 5449SOL    HW121794   3.662   4.964   4.047  0.3540  0.6546  1.2426
 5449SOL    HW221795   3.789   4.924   3.974 -0.9346 -0.0697 -0.6910
 5449SOL     MW21796   3.737   4.986   4.008 -0.2944  0.2681 -0.3176
 5450SOL     OW21797   2.058   4.092   2.927  0.1185  0.6463  0.1823
 5450SOL    HW121798   2.148   4.063   2.913  0.3496 -0.3986  3.1289
 5450SOL    HW221799   2.062   4.187   2.924  2.0838  0.8133  3.3916
 5450SOL     MW21800   2.070   4.100   2.925  0.3997  0.5339  0.9703
 5451SOL     OW21801   2.678   2.888   0.978  0.0184 -0.0346  0.0199
 5451SOL    HW121802   2.661   2.935   1.059 -0.2959  0.1185 -0.1304
 5451SOL    HW221803   2.754   2.932   0.940 -0.8596  1.0053 -0.6025
 5451SOL     MW21804   2.685   2.900   0.983 -0.1342  0.1181 -0.0790
 5452SOL     OW21805   4.563   1.780   0.692  0.6768 -0.3893 -0.1580
 5452SOL    HW121806   4.553   1.831   0.611 -0.3671  1.2892  0.9744
 5452SOL    HW221807   4.577   1.691   0.662 -1.6289 -0.1744 -2.2238
 5452SOL     MW21808   4.564   1.776   0.678  0.2480 -0.1469 -0.2775
 5453SOL     OW21809   1.407   3.908   4.093  0.2479  0.4098  0.2057
 5453SOL    HW121810   1.377   3.846   4.160  2.7898  0.2184  1.2889
 5453SOL    HW221811   1.461   3.971   4.141  0.0934  1.7810 -1.3258
 5453SOL     MW21812   1.410   3.908   4.108  0.5536  0.5608  0.1483
 5454SOL     OW21813   3.205   0.004   1.377 -0.3413 -0.2007 -0.2648
 5454SOL    HW121814   3.251   0.084   1.352 -0.9616  0.7310  1.4077
 5454SOL    HW221815   3.118   0.034   1.403 -0.2279 -1.2345  1.4629
 5454SOL     MW21816   3.200   0.018   1.377 -0.4062 -0.2137  0.1704
 5455SOL     OW21817   3.425   1.241   4.025  0.2329  0.2366 -0.0735
 5455SOL    HW121818   3.477   1.319   4.001  1.9960 -0.1269  2.1911
 5455SOL    HW221819   3.354   1.275   4.078  0.9366  0.3676  0.8182
 5455SOL     MW21820   3.423   1.256   4.029  0.5487  0.2069  0.3306
 5456SOL     OW21821   1.782   4.287   1.984 -0.0644 -0.1382  0.0476
 5456SOL    HW121822   1.712   4.240   1.939 -2.4725  2.5776  0.5856
 5456SOL    HW221823   1.750   4.296   2.074  0.9835  1.1422  0.3170
 5456SOL     MW21824   1.769   4.282   1.990 -0.2385  0.3734  0.1510
 5457SOL     OW21825   0.041   0.328   4.693  0.2617  0.1882 -0.1934
 5457SOL    HW121826  -0.008   0.379   4.629 -1.9202  0.0713  1.2941
 5457SOL    HW221827  -0.004   0.343   4.776  2.1135 -0.8306  1.0721
 5457SOL     MW21828   0.029   0.337   4.695  0.2195  0.0428  0.1590
 5458SOL     OW21829   2.940   1.490   3.510 -0.3367  0.4377 -0.0276
 5458SOL    HW121830   2.951   1.577   3.471 -2.7669  0.4599 -0.8328
 5458SOL    HW221831   2.883   1.504   3.585 -1.8337 -0.5630 -0.9111
 5458SOL     MW21832   2.934   1.503   3.514 -0.8395  0.3125 -0.2438
 5459SOL     OW21833   3.024   0.795   5.427  0.1523  0.3558 -0.3789
 5459SOL    HW121834   2.943   0.795   5.377 -0.3284  0.8788  0.3754
 5459SOL    HW221835   2.996   0.790   5.519  0.7708  3.3927  0.1055
 5459SOL     MW21836   3.010   0.795   5.433  0.1699  0.8115 -0.2203
 5460SOL     OW21837   3.548   1.824   3.657  0.5323 -0.3873  0.0472
 5460SOL    HW121838   3.529   1.889   3.725  1.6483 -1.0023  0.9749
 5460SOL    HW221839   3.627   1.779   3.687  0.6340 -1.1796 -1.3045
 5460SOL     MW21840   3.555   1.826   3.669  0.6882 -0.5675 -0.0071
 5461SOL     OW21841   5.361   0.908   3.238 -0.2564 -0.1256 -0.3389
 5461SOL    HW121842   5.407   0.871   3.162 -0.5851  0.2216 -0.7090
 5461SOL    HW221843   5.422   0.973   3.274 -0.1792 -0.1556 -0.4149
 5461SOL     MW21844   5.375   0.911   3.233 -0.2886 -0.0850 -0.3960
 5462SOL     OW21845   4.366   4.352   0.854 -0.3263 -0.2146  0.3736
 5462SOL    HW121846   4.348   4.409   0.930 -0.1893 -0.2730  0.4497
 5462SOL    HW221847   4.461   4.345   0.852 -0.2783  0.5094 -0.3369
 5462SOL     MW21848   4.375   4.359   0.864 -0.3026 -0.1294  0.2924
 5463SOL     OW21849   1.789   0.057   2.410  0.3949 -0.1881  0.4965
 5463SOL    HW121850   1.700   0.031   2.385 -0.2134  0.8330  1.5327
 5463SOL    HW221851   1.795   0.149   2.384  1.0864 -0.2025  0.6072
 5463SOL     MW21852   1.778   0.065   2.403  0.4055 -0.0592  0.6433
 5464SOL     OW21853   0.115   1.187   1.954  0.0943 -0.1307 -0.0099
 5464SOL    HW121854   0.034   1.156   1.994 -0.3526  0.1748 -0.6507
 5464SOL    HW221855   0.102   1.281   1.943 -0.0877 -0.3049 -1.4958
 5464SOL     MW21856   0.103   1.195   1.957  0.0138 -0.1139 -0.2821
 5465SOL     OW21857   2.168   1.417   1.155  0.3461 -0.0000  0.2586
 5465SOL    HW121858   2.241   1.475   1.173  0.1455  0.3725 -0.1112
 5465SOL    HW221859   2.131   1.395   1.241  2.1485 -1.8541  0.6414
 5465SOL     MW21860   2.172   1.421   1.168  0.5511 -0.1897  0.2602
 5466SOL     OW21861   0.644   2.879   3.672  0.7084  0.1085  0.0442
 5466SOL    HW121862   0.703   2.874   3.596  0.7623 -1.8257  0.1560
 5466SOL    HW221863   0.691   2.834   3.742 -0.2919 -0.1681  0.5592
 5466SOL     MW21864   0.658   2.872   3.671  0.5872 -0.1746  0.1244
 5467SOL     OW21865   4.099   5.129   2.566  0.4680  0.8252  0.1697
 5467SOL    HW121866   4.058   5.138   2.652  0.5979 -0.4608  0.3807
 5467SOL    HW221867   4.175   5.074   2.581  0.2440  0.2145 -0.8358
 5467SOL     MW21868   4.103   5.123   2.579  0.4559  0.5824  0.0680
 5468SOL     OW21869   3.478   5.260   1.549  0.5130 -0.3634 -0.6327
 5468SOL    HW121870   3.460   5.174   1.587  2.8998 -1.2681 -1.3518
 5468SOL    HW221871   3.494   5.243   1.457  1.6958  0.7166 -0.6647
 5468SOL     MW21872   3.478   5.247   1.542  0.9700 -0.3410 -0.7289
 5469SOL     OW21873   0.180   2.718   1.405 -0.2223  0.3602 -0.5172
 5469SOL    HW121874   0.250   2.715   1.340  1.4540 -0.6780  1.2465
 5469SOL    HW221875   0.158   2.811   1.413  1.0017  0.7114 -1.0554
 5469SOL     MW21876   0.186   2.730   1.397  0.1490  0.2722 -0.3603
 5470SOL     OW21877   3.261   1.672   3.647 -0.2306 -0.0785  0.2450
 5470SOL    HW121878   3.227   1.623   3.722  0.8539 -0.0371  0.7803
 5470SOL    HW221879   3.343   1.710   3.679 -0.9779  2.0324 -0.1671
 5470SOL     MW21880   3.267   1.671   3.661 -0.1874  0.1970  0.2608
 5471SOL     OW21881   0.973   2.817   1.724  0.4532  0.1605  0.2622
 5471SOL    HW121882   0.994   2.866   1.645 -1.5809 -1.0310 -1.1147
 5471SOL    HW221883   0.892   2.856   1.756  0.0300 -0.8210  0.4278
 5471SOL     MW21884   0.966   2.828   1.718  0.1387 -0.1177  0.1071
 5472SOL     OW21885   0.486   3.688   3.193 -0.2979 -0.4653 -0.1935
 5472SOL    HW121886   0.459   3.724   3.109 -1.0910 -2.0389 -0.6544
 5472SOL    HW221887   0.538   3.611   3.171 -0.9037 -1.1634  0.7323
 5472SOL     MW21888   0.489   3.683   3.180 -0.4770 -0.7561 -0.1340
 5473SOL     OW21889   2.621   5.456   0.772  0.1087  0.0569  0.0637
 5473SOL    HW121890   2.697   5.462   0.715 -0.6362 -1.2541 -1.1298
 5473SOL    HW221891   2.553   5.506   0.727 -0.4263 -0.8116 -0.1079
 5473SOL     MW21892   2.622   5.463   0.759 -0.0552 -0.2221 -0.1111
 5474SOL     OW21893   1.446   0.254   4.182  0.3364 -0.4585  0.0341
 5474SOL    HW121894   1.351   0.264   4.182  0.4488  0.7543  0.5308
 5474SOL    HW221895   1.467   0.223   4.270  0.5006  0.5432  0.3635
 5474SOL     MW21896   1.437   0.251   4.193  0.3718 -0.1750  0.1399
 5475SOL     OW21897   1.847   0.463   5.033  0.1579  0.5024  0.1412
 5475SOL    HW121898   1.902   0.441   5.108  0.3571 -0.7787 -0.3697
 5475SOL    HW221899   1.904   0.516   4.977  0.2810  0.7357  0.4820
 5475SOL     MW21900   1.861   0.467   5.035  0.1992  0.3683  0.1194
 5476SOL     OW21901   3.940   0.564   0.474 -0.1652 -0.0987 -0.2176
 5476SOL    HW121902   3.996   0.488   0.491 -0.1626  0.0298  0.3741
 5476SOL    HW221903   4.001   0.634   0.453 -0.1651 -0.2420 -0.7180
 5476SOL     MW21904   3.955   0.563   0.474 -0.1648 -0.1006 -0.2059
 5477SOL     OW21905   5.393   2.385   3.310  0.1143  0.4548 -0.5889
 5477SOL    HW121906   5.404   2.290   3.306  1.4333  0.4914  1.2158
 5477SOL    HW221907   5.335   2.405   3.236 -0.0869 -1.7182 -1.0923
 5477SOL     MW21908   5.387   2.375   3.300  0.2574  0.1813 -0.4223
 5478SOL     OW21909   0.806   1.224   1.027  0.0051  0.0714  0.3032
 5478SOL    HW121910   0.759   1.258   0.951 -1.1465  1.4340  1.5576
 5478SOL    HW221911   0.738   1.212   1.093  0.8806 -1.7565  0.9219
 5478SOL     MW21912   0.791   1.227   1.026 -0.0303  0.0118  0.5429
 5479SOL     OW21913   1.153   0.782   0.488  0.4265  0.1673 -0.0092
 5479SOL    HW121914   1.139   0.876   0.472  0.5181  0.2937  0.6234
 5479SOL    HW221915   1.173   0.746   0.402  0.9691  0.8328 -0.1684
 5479SOL     MW21916   1.154   0.790   0.475  0.5077  0.2687  0.0514
 5480SOL     OW21917   0.081   1.031   4.461 -0.0444 -0.2823 -0.0759
 5480SOL    HW121918   0.077   0.949   4.411 -1.6974 -0.8632  0.9160
 5480SOL    HW221919  -0.008   1.044   4.493  0.0004  2.3259 -0.7901
 5480SOL     MW21920   0.069   1.022   4.459 -0.2503 -0.0228 -0.0404
 5481SOL     OW21921   1.135   3.751   5.052  0.5815 -0.0321 -0.1547
 5481SOL    HW121922   1.118   3.763   4.959  2.6879 -0.7887 -0.6880
 5481SOL    HW221923   1.143   3.839   5.087 -2.0785  0.3322 -0.2376
 5481SOL     MW21924   1.134   3.764   5.045  0.5106 -0.0824 -0.2336
 5482SOL     OW21925   2.194   5.197   3.772  0.5317  0.4429  0.0397
 5482SOL    HW121926   2.186   5.225   3.681 -0.4552  1.0839  0.3153
 5482SOL    HW221927   2.251   5.119   3.768 -1.3788 -0.9762 -1.4166
 5482SOL     MW21928   2.200   5.190   3.760  0.1608  0.3433 -0.1114
 5483SOL     OW21929   2.235   1.393   4.923  0.3602 -0.0200  0.1673
 5483SOL    HW121930   2.164   1.357   4.870 -0.7074  1.1595  0.7404
 5483SOL    HW221931   2.237   1.337   5.001 -1.3340  1.0995  1.0831
 5483SOL     MW21932   2.226   1.381   4.927  0.0067  0.2743  0.3579
 5484SOL     OW21933   3.347   2.688   1.203 -0.5166 -0.0668 -0.2286
 5484SOL    HW121934   3.316   2.722   1.119 -0.7308  1.0315  0.2793
 5484SOL    HW221935   3.382   2.601   1.183 -2.6351 -0.7752 -1.0761
 5484SOL     MW21936   3.348   2.681   1.190 -0.8152 -0.0169 -0.2721
 5485SOL     OW21937   3.108   2.328   3.052 -0.1605  0.1979  0.1863
 5485SOL    HW121938   3.023   2.339   3.009  1.1639 -0.2905 -2.8068
 5485SOL    HW221939   3.133   2.417   3.077 -0.6006  0.6737 -0.9571
 5485SOL     MW21940   3.100   2.341   3.050 -0.0473  0.1963 -0.3433
 5486SOL     OW21941   3.444   2.044   4.883  0.1971  0.1984  0.4060
 5486SOL    HW121942   3.480   1.980   4.945  1.1888 -1.2869 -1.6021
 5486SOL    HW221943   3.358   2.008   4.859 -0.0127  0.5637  0.5929
 5486SOL     MW21944   3.437   2.031   4.888  0.2972  0.0550  0.1729
 5487SOL     OW21945   4.653   0.595   0.345 -0.2485 -0.0753 -0.2264
 5487SOL    HW121946   4.597   0.671   0.338  1.2539  1.0673 -0.4697
 5487SOL    HW221947   4.716   0.617   0.413 -0.0777 -1.3041  0.0462
 5487SOL     MW21948   4.654   0.607   0.352 -0.0343 -0.0864 -0.2227
 5488SOL     OW21949   3.814   1.546   3.469 -0.0526 -0.0805  0.3383
 5488SOL    HW121950   3.833   1.471   3.412  3.3587 -0.3664  1.6451
 5488SOL    HW221951   3.827   1.623   3.414  0.7853 -0.4044  0.0710
 5488SOL     MW21952   3.818   1.546   3.455  0.4914 -0.1585  0.4714
 5489SOL     OW21953   1.268   2.294   2.717 -0.3150 -0.1416  0.0599
 5489SOL    HW121954   1.225   2.341   2.788  2.0183  4.0683 -0.9593
 5489SOL    HW221955   1.354   2.270   2.752 -0.5342 -1.5025 -0.2615
 5489SOL     MW21956   1.273   2.297   2.731 -0.0443  0.2231 -0.1117
 5490SOL     OW21957   3.357   4.595   3.476 -0.3084 -0.0494 -0.2151
 5490SOL    HW121958   3.275   4.633   3.443 -1.0491 -0.8554  0.6270
 5490SOL    HW221959   3.330   4.514   3.519  0.8684 -0.0316  0.6054
 5490SOL     MW21960   3.343   4.590   3.477 -0.2526 -0.1503 -0.0022
 5491SOL     OW21961   0.472   2.733   3.223  0.7212  0.3321 -0.2364
 5491SOL    HW121962   0.482   2.669   3.152  0.5014 -0.4824  0.4412
 5491SOL    HW221963   0.472   2.818   3.179 -1.1824 -0.2126 -1.4217
 5491SOL     MW21964   0.473   2.736   3.208  0.4494  0.1581 -0.3014
 5492SOL     OW21965   4.022   3.005   2.223  0.0120 -0.0906 -0.2542
 5492SOL    HW121966   4.011   2.931   2.282 -0.1413  0.0815 -0.0614
 5492SOL    HW221967   3.990   2.974   2.139  1.4130 -0.7482 -0.5626
 5492SOL     MW21968   4.017   2.992   2.220  0.1717 -0.1528 -0.2690
 5493SOL     OW21969   1.949   4.026   2.678  0.1788 -0.6911  0.5587
 5493SOL    HW121970   1.930   4.110   2.638 -1.3357 -1.0815  0.3850
 5493SOL    HW221971   2.009   4.046   2.750  0.4848  0.4140  0.0110
 5493SOL     MW21972   1.955   4.039   2.682  0.0241 -0.5996  0.4663
 5494SOL     OW21973   3.722   1.717   0.024  0.3077  0.6543 -0.0673
 5494SOL    HW121974   3.725   1.769   0.104  0.6209  0.4312  0.0688
 5494SOL    HW221975   3.735   1.627   0.053 -0.4251  0.4740 -0.2835
 5494SOL     MW21976   3.724   1.713   0.038  0.2540  0.6027 -0.0775
 5495SOL     OW21977   4.339   2.927   4.921  0.0741  0.4037  0.1080
 5495SOL    HW121978   4.371   3.015   4.901  1.3805 -0.4981 -2.1617
 5495SOL    HW221979   4.333   2.884   4.835 -0.6563 -1.6822  1.1402
 5495SOL     MW21980   4.342   2.933   4.907  0.1479  0.0213 -0.0504
 5496SOL     OW21981   0.812   4.909   2.247  0.4125  0.5206  0.6902
 5496SOL    HW121982   0.898   4.921   2.288  1.3892 -1.0053 -0.8032
 5496SOL    HW221983   0.780   4.825   2.281 -0.3696  0.9187  0.9843
 5496SOL     MW21984   0.819   4.900   2.257  0.4374  0.3762  0.5367
 5497SOL     OW21985   3.666   1.070   2.524 -0.1185 -0.5114 -0.4884
 5497SOL    HW121986   3.633   0.991   2.482  0.1738 -0.9752  0.1228
 5497SOL    HW221987   3.630   1.142   2.473 -1.1554 -1.0212 -0.5039
 5497SOL     MW21988   3.658   1.069   2.512 -0.2138 -0.6360 -0.4121
 5498SOL     OW21989   1.302   0.775   0.985 -0.0993 -0.8683 -0.1426
 5498SOL    HW121990   1.312   0.809   0.896  0.5380 -0.2382  0.1621
 5498SOL    HW221991   1.391   0.766   1.019 -0.3083 -1.6434  0.2429
 5498SOL     MW21992   1.314   0.778   0.978 -0.0445 -0.8869 -0.0543
 5499SOL     OW21993   2.818   0.697   3.112  0.7276 -0.0752  0.1485
 5499SOL    HW121994   2.820   0.604   3.090  1.4289 -0.5404  2.0213
 5499SOL    HW221995   2.725   0.719   3.119  0.5613 -0.5955 -0.4095
 5499SOL     MW21996   2.807   0.688   3.110  0.7961 -0.2013  0.3168
 5500SOL     OW21997   0.626   3.932   4.256 -0.1130  0.3209 -0.0557
 5500SOL    HW121998   0.671   3.994   4.199 -0.0414  1.6888  1.4217
 5500SOL    HW221999   0.580   3.986   4.320 -1.3377 -1.1185  0.3495
 5500SOL     MW22000   0.626   3.947   4.257 -0.2606  0.3117  0.1853
   5.48000   5.48000   5.48000
