Guyana Rwanda Oman Macau Angola Cameroon Senegal
22000
    1HO4     OW    1   2.740   2.740   2.711
    1HO4    HW1    2   2.822   2.740   2.769
    1HO4    HW2    3   2.658   2.740   2.769
    1HO4     MW    4   2.740   2.740   2.711
    2HO4     OW    5   2.679   1.117   1.604
    2HO4    HW1    6   2.668   1.095   1.701
    2HO4    HW2    7   2.593   1.153   1.567
    2HO4     MW    8   2.679   1.117   1.604
    3HO4     OW    9   2.564   2.060   5.349
    3HO4    HW1   10   2.559   1.987   5.418
    3HO4    HW2   11   2.585   2.019   5.260
    3HO4     MW   12   2.564   2.060   5.349
    4HO4     OW   13   4.642   4.280   1.595
    4HO4    HW1   14   4.720   4.252   1.538
    4HO4    HW2   15   4.644   4.379   1.608
    4HO4     MW   16   4.642   4.280   1.595
    5HO4     OW   17   3.927   2.585   3.142
    5HO4    HW1   18   3.953   2.491   3.118
    5HO4    HW2   19   4.007   2.645   3.132
    5HO4     MW   20   3.927   2.585   3.142
    6HO4     OW   21   2.869   0.335   3.825
    6HO4    HW1   22   2.813   0.276   3.885
    6HO4    HW2   23   2.822   0.345   3.736
    6HO4     MW   24   2.869   0.335   3.825
    7HO4     OW   25   1.360   0.113   2.228
    7HO4    HW1   26   1.392   0.161   2.310
    7HO4    HW2   27   1.389   0.165   2.146
    7HO4     MW   28   1.360   0.113   2.228
    8HO4     OW   29   0.733   5.035   2.104
    8HO4    HW1   30   0.738   4.952   2.160
    8HO4    HW2   31   0.825   5.057   2.069
    8HO4     MW   32   0.733   5.035   2.104
    9HO4     OW   33   0.070   5.073   1.047
    9HO4    HW1   34   0.118   5.136   1.109
    9HO4    HW2   35   0.030   5.125   0.971
    9HO4     MW   36   0.070   5.073   1.047
   10HO4     OW   37   1.133   2.240   5.109
   10HO4    HW1   38   1.049   2.276   5.151
   10HO4    HW2   39   1.179   2.179   5.175
   10HO4     MW   40   1.133   2.240   5.109
   11HO4     OW   41   0.715   2.581   2.668
   11HO4    HW1   42   0.677   2.631   2.589
   11HO4    HW2   43   0.692   2.629   2.752
   11HO4     MW   44   0.715   2.581   2.668
   12HO4     OW   45   2.807   3.296   0.790
   12HO4    HW1   46   2.856   3.349   0.720
   12HO4    HW2   47   2.844   3.318   0.880
   12HO4     MW   48   2.807   3.296   0.790
   13HO4     OW   49   3.435   0.602   1.384
   13HO4    HW1   50   3.477   0.680   1.433
   13HO4    HW2   51   3.412   0.631   1.291
   13HO4     MW   52   3.435   0.602   1.384
   14HO4     OW   53   2.314   4.454   1.197
   14HO4    HW1   54   2.267   4.471   1.284
   14HO4    HW2   55   2.361   4.538   1.167
   14HO4     MW   56   2.314   4.454   1.197
   15HO4     OW   57   3.462   4.660   1.239
   15HO4    HW1   58   3.486   4.753   1.266
   15HO4    HW2   59   3.374   4.661   1.190
   15HO4     MW   60   3.462   4.660   1.239
   16HO4     OW   61   3.099   3.827   0.542
   16HO4    HW1   62   3.012   3.817   0.493
   16HO4    HW2   63   3.088   3.797   0.637
   16HO4     MW   64   3.099   3.827   0.542
   17HO4     OW   65   0.514   1.567   2.161
   17HO4    HW1   66   0.600   1.521   2.138
   17HO4    HW2   67   0.493   1.637   2.091
   17HO4     MW   68   0.514   1.567   2.161
   18HO4     OW   69   3.294   4.909   3.984
   18HO4    HW1   70   3.363   4.871   4.046
   18HO4    HW2   71   3.229   4.837   3.959
   18HO4     MW   72   3.294   4.909   3.984
   19HO4     OW   73   1.652   1.300   4.020
   19HO4    HW1   74   1.635   1.269   3.926
   19HO4    HW2   75   1.642   1.222   4.083
   19HO4     MW   76   1.652   1.300   4.020
   20HO4     OW   77   3.893   2.512   4.517
   20HO4    HW1   78   3.974   2.541   4.465
   20HO4    HW2   79   3.815   2.569   4.490
   20HO4     MW   80   3.893   2.512   4.517
   21HO4     OW   81   1.832   1.513   0.501
   21HO4    HW1   82   1.787   1.537   0.587
   21HO4    HW2   83   1.777   1.547   0.424
   21HO4     MW   84   1.832   1.513   0.501
   22HO4     OW   85   1.385   5.212   0.289
   22HO4    HW1   86   1.406   5.172   0.379
   22HO4    HW2   87   1.356   5.139   0.226
   22HO4     MW   88   1.385   5.212   0.289
   23HO4     OW   89   3.055   4.420   2.114
   23HO4    HW1   90   3.014   4.329   2.123
   23HO4    HW2   91   3.044   4.470   2.201
   23HO4     MW   92   3.055   4.420   2.114
   24HO4     OW   93   4.772   3.986   2.060
   24HO4    HW1   94   4.757   4.000   2.158
   24HO4    HW2   95   4.701   4.034   2.008
   24HO4     MW   96   4.772   3.986   2.060
   25HO4     OW   97   3.671   2.334   3.546
   25HO4    HW1   98   3.707   2.288   3.465
   25HO4    HW2   99   3.733   2.317   3.624
   25HO4     MW  100   3.671   2.334   3.546
   26HO4     OW  101   2.674   4.252   2.263
   26HO4    HW1  102   2.772   4.247   2.239
   26HO4    HW2  103   2.644   4.348   2.260
   26HO4     MW  104   2.674   4.252   2.263
   27HO4     OW  105   5.423   1.530   3.745
   27HO4    HW1  106   5.479   1.566   3.671
   27HO4    HW2  107   5.453   1.569   3.832
   27HO4     MW  108   5.423   1.530   3.745
   28HO4     OW  109   4.015   3.842   0.540
   28HO4    HW1  110   4.079   3.769   0.515
   28HO4    HW2  111   4.024   3.918   0.474
   28HO4     MW  112   4.015   3.842   0.540
   29HO4     OW  113   1.575   1.048   3.939
   29HO4    HW1  114   1.665   1.044   3.984
   29HO4    HW2  115   1.576   0.990   3.857
   29HO4     MW  116   1.575   1.048   3.939
   30HO4     OW  117   3.302   1.572   2.670
   30HO4    HW1  118   3.234   1.646   2.663
   30HO4    HW2  119   3.393   1.608   2.649
   30HO4     MW  120   3.302   1.572   2.670
   31HO4     OW  121   0.551   0.285   1.809
   31HO4    HW1  122   0.544   0.307   1.907
   31HO4    HW2  123   0.630   0.225   1.793
   31HO4     MW  124   0.551   0.285   1.809
   32HO4     OW  125   3.040   2.335   1.551
   32HO4    HW1  126   2.987   2.327   1.636
   32HO4    HW2  127   2.990   2.289   1.476
   32HO4     MW  128   3.040   2.335   1.551
   33HO4     OW  129   3.905   4.144   5.083
   33HO4    HW1  130   3.869   4.058   5.047
   33HO4    HW2  131   3.989   4.168   5.034
   33HO4     MW  132   3.905   4.144   5.083
   34HO4     OW  133   4.070   1.753   0.454
   34HO4    HW1  134   4.062   1.835   0.512
   34HO4    HW2  135   4.093   1.780   0.360
   34HO4     MW  136   4.070   1.753   0.454
   35HO4     OW  137   1.381   2.618   1.705
   35HO4    HW1  138   1.367   2.587   1.800
   35HO4    HW2  139   1.450   2.691   1.703
   35HO4     MW  140   1.381   2.618   1.705
   36HO4     OW  141   5.443   2.836   4.720
   36HO4    HW1  142   5.474   2.762   4.780
   36HO4    HW2  143   5.510   2.910   4.720
   36HO4     MW  144   5.443   2.836   4.720
   37HO4     OW  145   3.916   1.506   2.551
   37HO4    HW1  146   3.853   1.548   2.618
   37HO4    HW2  147   3.937   1.573   2.479
   37HO4     MW  148   3.916   1.506   2.551
   38HO4     OW  149   1.696   0.048   3.814
   38HO4    HW1  150   1.732  -0.003   3.893
   38HO4    HW2  151   1.647  -0.014   3.753
   38HO4     MW  152   1.696   0.048   3.814
   39HO4     OW  153   1.069   3.938   2.849
   39HO4    HW1  154   1.040   3.987   2.766
   39HO4    HW2  155   1.027   3.981   2.929
   39HO4     MW  156   1.069   3.938   2.849
   40HO4     OW  157   4.081   3.124   4.389
   40HO4    HW1  158   4.053   3.139   4.294
   40HO4    HW2  159   4.157   3.186   4.412
   40HO4     MW  160   4.081   3.124   4.389
   41HO4     OW  161   2.469   1.632   5.367
   41HO4    HW1  162   2.429   1.664   5.453
   41HO4    HW2  163   2.544   1.568   5.386
   41HO4     MW  164   2.469   1.632   5.367
   42HO4     OW  165   2.284   0.856   0.920
   42HO4    HW1  166   2.189   0.877   0.946
   42HO4    HW2  167   2.345   0.923   0.962
   42HO4     MW  168   2.284   0.856   0.920
   43HO4     OW  169   4.628   2.747   2.036
   43HO4    HW1  170   4.689   2.827   2.039
   43HO4    HW2  171   4.533   2.777   2.042
   43HO4     MW  172   4.628   2.747   2.036
   44HO4     OW  173   1.636   1.095   3.139
   44HO4    HW1  174   1.541   1.085   3.171
   44HO4    HW2  175   1.672   1.184   3.169
   44HO4     MW  176   1.636   1.095   3.139
   45HO4     OW  177   5.213   3.901   2.472
   45HO4    HW1  178   5.192   3.939   2.382
   45HO4    HW2  179   5.228   3.975   2.538
   45HO4     MW  180   5.213   3.901   2.472
   46HO4     OW  181   4.104   4.625   3.701
   46HO4    HW1  182   4.170   4.626   3.625
   46HO4    HW2  183   4.152   4.601   3.786
   46HO4     MW  184   4.104   4.625   3.701
   47HO4     OW  185   3.061   2.726   3.114
   47HO4    HW1  186   3.073   2.730   3.015
   47HO4    HW2  187   3.028   2.635   3.140
   47HO4     MW  188   3.061   2.726   3.114
   48HO4     OW  189   3.195   0.414   0.664
   48HO4    HW1  190   3.253   0.435   0.744
   48HO4    HW2  191   3.240   0.449   0.581
   48HO4     MW  192   3.195   0.414   0.664
   49HO4     OW  193   2.448   1.289   2.599
   49HO4    HW1  194   2.417   1.269   2.506
   49HO4    HW2  195   2.388   1.243   2.665
   49HO4     MW  196   2.448   1.289   2.599
   50HO4     OW  197   3.718   1.169   5.253
   50HO4    HW1  198   3.684   1.263   5.261
   50HO4    HW2  199   3.797   1.168   5.190
   50HO4     MW  200   3.718   1.169   5.253
   51HO4     OW  201   1.965   1.825   5.345
   51HO4    HW1  202   1.876   1.784   5.365
   51HO4    HW2  203   1.954   1.900   5.280
   51HO4     MW  204   1.965   1.825   5.345
   52HO4     OW  205   3.562   2.536   2.528
   52HO4    HW1  206   3.627   2.461   2.515
   52HO4    HW2  207   3.493   2.510   2.596
   52HO4     MW  208   3.562   2.536   2.528
   53HO4     OW  209   3.658   0.294   4.986
   53HO4    HW1  210   3.636   0.392   4.997
   53HO4    HW2  211   3.757   0.281   4.998
   53HO4     MW  212   3.658   0.294   4.986
   54HO4     OW  213   4.255   3.327   2.971
   54HO4    HW1  214   4.340   3.359   3.012
   54HO4    HW2  215   4.192   3.404   2.959
   54HO4     MW  216   4.255   3.327   2.971
   55HO4     OW  217   2.843   2.086   0.969
   55HO4    HW1  218   2.823   2.009   0.907
   55HO4    HW2  219   2.943   2.097   0.978
   55HO4     MW  220   2.843   2.086   0.969
   56HO4     OW  221   5.349   1.277   1.715
   56HO4    HW1  222   5.394   1.296   1.627
   56HO4    HW2  223   5.264   1.330   1.721
   56HO4     MW  224   5.349   1.277   1.715
   57HO4     OW  225   3.737   3.465   0.705
   57HO4    HW1  226   3.639   3.446   0.696
   57HO4    HW2  227   3.751   3.564   0.708
   57HO4     MW  228   3.737   3.465   0.705
   58HO4     OW  229   0.120   2.216   0.020
   58HO4    HW1  230   0.180   2.233  -0.059
   58HO4    HW2  231   0.101   2.303   0.067
   58HO4     MW  232   0.120   2.216   0.020
   59HO4     OW  233   3.326   2.706   3.913
   59HO4    HW1  234   3.385   2.755   3.848
   59HO4    HW2  235   3.254   2.658   3.862
   59HO4     MW  236   3.326   2.706   3.913
   60HO4     OW  237   1.026   2.289   4.163
   60HO4    HW1  238   0.960   2.245   4.225
   60HO4    HW2  239   0.986   2.298   4.072
   60HO4     MW  240   1.026   2.289   4.163
   61HO4     OW  241   1.517   0.769   2.322
   61HO4    HW1  242   1.498   0.768   2.420
   61HO4    HW2  243   1.611   0.739   2.306
   61HO4     MW  244   1.517   0.769   2.322
   62HO4     OW  245   0.774   2.554   4.030
   62HO4    HW1  246   0.724   2.469   4.049
   62HO4    HW2  247   0.785   2.565   3.931
   62HO4     MW  248   0.774   2.554   4.030
   63HO4     OW  249   3.307   2.510   2.055
   63HO4    HW1  250   3.247   2.530   1.977
   63HO4    HW2  251   3.265   2.548   2.139
   63HO4     MW  252   3.307   2.510   2.055
   64HO4     OW  253   2.351   4.472   3.192
   64HO4    HW1  254   2.290   4.551   3.206
   64HO4    HW2  255   2.441   4.504   3.162
   64HO4     MW  256   2.351   4.472   3.192
   65HO4     OW  257   0.443   2.491   2.971
   65HO4    HW1  258   0.437   2.420   3.041
   65HO4    HW2  259   0.440   2.448   2.880
   65HO4     MW  260   0.443   2.491   2.971
   66HO4     OW  261   1.886   3.277   0.153
   66HO4    HW1  262   1.979   3.280   0.190
   66HO4    HW2  263   1.867   3.362   0.103
   66HO4     MW  264   1.886   3.277   0.153
   67HO4     OW  265   2.452   0.993   2.245
   67HO4    HW1  266   2.530   0.963   2.299
   67HO4    HW2  267   2.383   0.920   2.241
   67HO4     MW  268   2.452   0.993   2.245
   68HO4     OW  269   0.502   3.548   3.123
   68HO4    HW1  270   0.420   3.514   3.169
   68HO4    HW2  271   0.553   3.609   3.185
   68HO4     MW  272   0.502   3.548   3.123
   69HO4     OW  273   0.257   1.375   4.642
   69HO4    HW1  274   0.190   1.415   4.579
   69HO4    HW2  275   0.227   1.390   4.736
   69HO4     MW  276   0.257   1.375   4.642
   70HO4     OW  277   0.468   0.394   0.665
   70HO4    HW1  278   0.524   0.419   0.745
   70HO4    HW2  279   0.424   0.305   0.682
   70HO4     MW  280   0.468   0.394   0.665
   71HO4     OW  281   1.463   3.366   2.988
   71HO4    HW1  282   1.397   3.418   3.043
   71HO4    HW2  283   1.540   3.337   3.045
   71HO4     MW  284   1.463   3.366   2.988
   72HO4     OW  285   1.334   2.967   2.863
   72HO4    HW1  286   1.250   2.912   2.857
   72HO4    HW2  287   1.310   3.060   2.891
   72HO4     MW  288   1.334   2.967   2.863
   73HO4     OW  289   3.438   3.757   4.408
   73HO4    HW1  290   3.446   3.698   4.327
   73HO4    HW2  291   3.447   3.702   4.491
   73HO4     MW  292   3.438   3.757   4.408
   74HO4     OW  293   5.030   1.133   5.062
   74HO4    HW1  294   5.058   1.228   5.044
   74HO4    HW2  295   5.064   1.073   4.989
   74HO4     MW  296   5.030   1.133   5.062
   75HO4     OW  297   1.383   4.269   5.280
   75HO4    HW1  298   1.283   4.262   5.270
   75HO4    HW2  299   1.405   4.338   5.350
   75HO4     MW  300   1.383   4.269   5.280
   76HO4     OW  301   2.667   1.166   0.893
   76HO4    HW1  302   2.631   1.074   0.875
   76HO4    HW2  303   2.622   1.204   0.974
   76HO4     MW  304   2.667   1.166   0.893
   77HO4     OW  305   2.779   0.750   0.123
   77HO4    HW1  306   2.713   0.760   0.048
   77HO4    HW2  307   2.729   0.733   0.208
   77HO4     MW  308   2.779   0.750   0.123
   78HO4     OW  309   2.219   4.062   2.374
   78HO4    HW1  310   2.293   4.114   2.331
   78HO4    HW2  311   2.252   3.970   2.399
   78HO4     MW  312   2.219   4.062   2.374
   79HO4     OW  313   3.724   4.467   2.043
   79HO4    HW1  314   3.665   4.409   1.986
   79HO4    HW2  315   3.668   4.524   2.103
   79HO4     MW  316   3.724   4.467   2.043
   80HO4     OW  317   1.131   2.476   2.612
   80HO4    HW1  318   1.107   2.460   2.516
   80HO4    HW2  319   1.068   2.544   2.651
   80HO4     MW  320   1.131   2.476   2.612
   81HO4     OW  321   0.742   2.064   0.600
   81HO4    HW1  322   0.836   2.077   0.568
   81HO4    HW2  323   0.743   2.023   0.691
   81HO4     MW  324   0.742   2.064   0.600
   82HO4     OW  325   4.191   3.898   1.141
   82HO4    HW1  326   4.241   3.942   1.216
   82HO4    HW2  327   4.256   3.847   1.083
   82HO4     MW  328   4.191   3.898   1.141
   83HO4     OW  329   4.388   2.998   0.191
   83HO4    HW1  330   4.303   3.024   0.144
   83HO4    HW2  331   4.440   2.934   0.134
   83HO4     MW  332   4.388   2.998   0.191
   84HO4     OW  333   0.633   2.842   1.960
   84HO4    HW1  334   0.720   2.811   1.998
   84HO4    HW2  335   0.645   2.931   1.916
   84HO4     MW  336   0.633   2.842   1.960
   85HO4     OW  337   5.119   4.673   2.584
   85HO4    HW1  338   5.073   4.639   2.501
   85HO4    HW2  339   5.071   4.639   2.665
   85HO4     MW  340   5.119   4.673   2.584
   86HO4     OW  341   5.074   5.290   0.634
   86HO4    HW1  342   5.129   5.235   0.697
   86HO4    HW2  343   5.124   5.304   0.548
   86HO4     MW  344   5.074   5.290   0.634
   87HO4     OW  345   2.030   1.091   0.437
   87HO4    HW1  346   2.011   1.097   0.339
   87HO4    HW2  347   1.945   1.103   0.489
   87HO4     MW  348   2.030   1.091   0.437
   88HO4     OW  349   2.073   1.855   0.218
   88HO4    HW1  350   2.030   1.945   0.232
   88HO4    HW2  351   2.161   1.852   0.266
   88HO4     MW  352   2.073   1.855   0.218
   89HO4     OW  353   5.107   4.029   1.214
   89HO4    HW1  354   5.200   4.002   1.242
   89HO4    HW2  355   5.091   3.999   1.119
   89HO4     MW  356   5.107   4.029   1.214
   90HO4     OW  357   0.191   4.853   4.755
   90HO4    HW1  358   0.169   4.859   4.853
   90HO4    HW2  359   0.110   4.880   4.702
   90HO4     MW  360   0.191   4.853   4.755
   91HO4     OW  361   4.603   1.390   4.712
   91HO4    HW1  362   4.522   1.367   4.656
   91HO4    HW2  363   4.654   1.464   4.667
   91HO4     MW  364   4.603   1.390   4.712
   92HO4     OW  365   2.031   2.171   2.482
   92HO4    HW1  366   1.951   2.229   2.463
   92HO4    HW2  367   2.115   2.226   2.475
   92HO4     MW  368   2.031   2.171   2.482
   93HO4     OW  369   2.244   5.481   0.444
   93HO4    HW1  370   2.302   5.411   0.487
   93HO4    HW2  371   2.234   5.462   0.346
   93HO4     MW  372   2.244   5.481   0.444
   94HO4     OW  373   4.531   1.683   2.750
   94HO4    HW1  374   4.488   1.717   2.665
   94HO4    HW2  375   4.466   1.693   2.826
   94HO4     MW  376   4.531   1.683   2.750
   95HO4     OW  377   4.872   2.079   2.100
   95HO4    HW1  378   4.864   2.173   2.067
   95HO4    HW2  379   4.950   2.034   2.054
   95HO4     MW  380   4.872   2.079   2.100
   96HO4     OW  381   1.296   0.332   1.787
   96HO4    HW1  382   1.291   0.269   1.865
   96HO4    HW2  383   1.287   0.281   1.701
   96HO4     MW  384   1.296   0.332   1.787
   97HO4     OW  385   3.778   3.918   0.654
   97HO4    HW1  386   3.683   3.892   0.669
   97HO4    HW2  387   3.832   3.837   0.630
   97HO4     MW  388   3.778   3.918   0.654
   98HO4     OW  389   3.827   3.682   4.038
   98HO4    HW1  390   3.918   3.644   4.020
   98HO4    HW2  391   3.818   3.702   4.137
   98HO4     MW  392   3.827   3.682   4.038
   99HO4     OW  393   1.479   4.053   4.644
   99HO4    HW1  394   1.541   4.059   4.723
   99HO4    HW2  395   1.533   4.063   4.560
   99HO4     MW  396   1.479   4.053   4.644
  100HO4     OW  397   2.171   0.207   1.001
  100HO4    HW1  398   2.151   0.204   1.099
  100HO4    HW2  399   2.093   0.247   0.952
  100HO4     MW  400   2.171   0.207   1.001
  101HO4     OW  401   2.298   4.137   1.730
  101HO4    HW1  402   2.332   4.105   1.641
  101HO4    HW2  403   2.249   4.063   1.776
  101HO4     MW  404   2.298   4.137   1.730
  102HO4     OW  405   5.439   4.904   1.640
  102HO4    HW1  406   5.472   4.856   1.558
  102HO4    HW2  407   5.475   4.858   1.722
  102HO4     MW  408   5.439   4.904   1.640
  103HO4     OW  409   3.878   3.219   3.752
  103HO4    HW1  410   3.849   3.287   3.819
  103HO4    HW2  411   3.798   3.180   3.705
  103HO4     MW  412   3.878   3.219   3.752
  104HO4     OW  413   4.235   0.965   4.886
  104HO4    HW1  414   4.299   0.952   4.962
  104HO4    HW2  415   4.283   1.008   4.809
  104HO4     MW  416   4.235   0.965   4.886
  105HO4     OW  417   3.728   0.631   0.624
  105HO4    HW1  418   3.672   0.655   0.703
  105HO4    HW2  419   3.675   0.647   0.540
  105HO4     MW  420   3.728   0.631   0.624
  106HO4     OW  421   3.875   4.280   3.924
  106HO4    HW1  422   3.887   4.223   3.842
  106HO4    HW2  423   3.778   4.299   3.938
  106HO4     MW  424   3.875   4.280   3.924
  107HO4     OW  425   0.063   0.068   5.001
  107HO4    HW1  426   0.036   0.007   5.076
  107HO4    HW2  427   0.084   0.013   4.919
  107HO4     MW  428   0.063   0.068   5.001
  108HO4     OW  429   2.713   5.448   0.354
  108HO4    HW1  430   2.750   5.405   0.271
  108HO4    HW2  431   2.707   5.380   0.428
  108HO4     MW  432   2.713   5.448   0.354
  109HO4     OW  433   4.380   2.583   4.764
  109HO4    HW1  434   4.295   2.552   4.720
  109HO4    HW2  435   4.367   2.584   4.864
  109HO4     MW  436   4.380   2.583   4.764
  110HO4     OW  437   2.776   4.110   0.885
  110HO4    HW1  438   2.723   4.099   0.969
  110HO4    HW2  439   2.868   4.143   0.909
  110HO4     MW  440   2.776   4.110   0.885
  111HO4     OW  441   4.875   1.640   2.835
  111HO4    HW1  442   4.965   1.641   2.791
  111HO4    HW2  443   4.887   1.633   2.934
  111HO4     MW  444   4.875   1.640   2.835
  112HO4     OW  445   1.527   1.287   2.604
  112HO4    HW1  446   1.624   1.261   2.593
  112HO4    HW2  447   1.508   1.305   2.701
  112HO4     MW  448   1.527   1.287   2.604
  113HO4     OW  449   5.209   4.539   0.728
  113HO4    HW1  450   5.210   4.476   0.649
  113HO4    HW2  451   5.116   4.545   0.764
  113HO4     MW  452   5.209   4.539   0.728
  114HO4     OW  453   4.044   4.069   2.383
  114HO4    HW1  454   3.975   4.102   2.318
  114HO4    HW2  455   4.006   4.075   2.476
  114HO4     MW  456   4.044   4.069   2.383
  115HO4     OW  457   3.353   1.105   5.100
  115HO4    HW1  458   3.433   1.153   5.063
  115HO4    HW2  459   3.308   1.161   5.170
  115HO4     MW  460   3.353   1.105   5.100
  116HO4     OW  461   4.958   2.906   5.009
  116HO4    HW1  462   4.888   2.919   5.079
  116HO4    HW2  463   4.916   2.909   4.918
  116HO4     MW  464   4.958   2.906   5.009
  117HO4     OW  465   5.432   2.656   5.213
  117HO4    HW1  466   5.439   2.659   5.314
  117HO4    HW2  467   5.493   2.726   5.174
  117HO4     MW  468   5.432   2.656   5.213
  118HO4     OW  469   0.851   4.737   2.017
  118HO4    HW1  470   0.812   4.793   2.091
  118HO4    HW2  471   0.807   4.762   1.930
  118HO4     MW  472   0.851   4.737   2.017
  119HO4     OW  473   3.851   3.402   0.508
  119HO4    HW1  474   3.773   3.465   0.513
  119HO4    HW2  475   3.887   3.386   0.601
  119HO4     MW  476   3.851   3.402   0.508
  120HO4     OW  477   5.204   0.048   2.867
  120HO4    HW1  478   5.145  -0.008   2.926
  120HO4    HW2  479   5.148   0.113   2.816
  120HO4     MW  480   5.204   0.048   2.867
  121HO4     OW  481   0.273   2.223   4.325
  121HO4    HW1  482   0.296   2.315   4.360
  121HO4    HW2  483   0.178   2.222   4.293
  121HO4     MW  484   0.273   2.223   4.325
  122HO4     OW  485   1.421   2.413   1.435
  122HO4    HW1  486   1.460   2.350   1.503
  122HO4    HW2  487   1.456   2.389   1.344
  122HO4     MW  488   1.421   2.413   1.435
  123HO4     OW  489   1.041   0.946   5.064
  123HO4    HW1  490   1.102   0.993   5.128
  123HO4    HW2  491   0.987   1.014   5.013
  123HO4     MW  492   1.041   0.946   5.064
  124HO4     OW  493   4.861   1.327   1.283
  124HO4    HW1  494   4.916   1.247   1.261
  124HO4    HW2  495   4.920   1.399   1.321
  124HO4     MW  496   4.861   1.327   1.283
  125HO4     OW  497   0.487   0.399   4.111
  125HO4    HW1  498   0.460   0.306   4.084
  125HO4    HW2  499   0.585   0.412   4.094
  125HO4     MW  500   0.487   0.399   4.111
  126HO4     OW  501   1.677   4.121   1.137
  126HO4    HW1  502   1.743   4.139   1.211
  126HO4    HW2  503   1.719   4.143   1.049
  126HO4     MW  504   1.677   4.121   1.137
  127HO4     OW  505   3.468   3.679   1.322
  127HO4    HW1  506   3.368   3.682   1.320
  127HO4    HW2  507   3.498   3.630   1.404
  127HO4     MW  508   3.468   3.679   1.322
  128HO4     OW  509   3.780   3.463   1.709
  128HO4    HW1  510   3.874   3.497   1.704
  128HO4    HW2  511   3.778   3.378   1.763
  128HO4     MW  512   3.780   3.463   1.709
  129HO4     OW  513   0.190   1.808   0.842
  129HO4    HW1  514   0.186   1.718   0.797
  129HO4    HW2  515   0.149   1.877   0.782
  129HO4     MW  516   0.190   1.808   0.842
  130HO4     OW  517   3.029   1.505   0.395
  130HO4    HW1  518   2.965   1.502   0.472
  130HO4    HW2  519   2.980   1.531   0.312
  130HO4     MW  520   3.029   1.505   0.395
  131HO4     OW  521   1.238   1.818   4.294
  131HO4    HW1  522   1.284   1.894   4.341
  131HO4    HW2  523   1.216   1.846   4.200
  131HO4     MW  524   1.238   1.818   4.294
  132HO4     OW  525   4.818   0.665   2.254
  132HO4    HW1  526   4.880   0.720   2.196
  132HO4    HW2  527   4.751   0.726   2.297
  132HO4     MW  528   4.818   0.665   2.254
  133HO4     OW  529   5.321   4.757   5.063
  133HO4    HW1  530   5.355   4.674   5.017
  133HO4    HW2  531   5.331   4.836   5.002
  133HO4     MW  532   5.321   4.757   5.063
  134HO4     OW  533   3.205   1.537   1.205
  134HO4    HW1  534   3.246   1.621   1.167
  134HO4    HW2  535   3.111   1.527   1.170
  134HO4     MW  536   3.205   1.537   1.205
  135HO4     OW  537   3.623   0.228   3.720
  135HO4    HW1  538   3.634   0.259   3.815
  135HO4    HW2  539   3.609   0.308   3.661
  135HO4     MW  540   3.623   0.228   3.720
  136HO4     OW  541   5.004   0.378   0.162
  136HO4    HW1  542   4.944   0.430   0.099
  136HO4    HW2  543   4.967   0.384   0.255
  136HO4     MW  544   5.004   0.378   0.162
  137HO4     OW  545   0.191   5.490   1.471
  137HO4    HW1  546   0.262   5.420   1.477
  137HO4    HW2  547   0.159   5.497   1.376
  137HO4     MW  548   0.191   5.490   1.471
  138HO4     OW  549   0.116   0.444   2.131
  138HO4    HW1  550   0.117   0.420   2.034
  138HO4    HW2  551   0.196   0.500   2.153
  138HO4     MW  552   0.116   0.444   2.131
  139HO4     OW  553   2.228   2.506   1.441
  139HO4    HW1  554   2.327   2.491   1.430
  139HO4    HW2  555   2.207   2.603   1.428
  139HO4     MW  556   2.228   2.506   1.441
  140HO4     OW  557   3.527   1.766   0.085
  140HO4    HW1  558   3.450   1.747   0.023
  140HO4    HW2  559   3.502   1.740   0.178
  140HO4     MW  560   3.527   1.766   0.085
  141HO4     OW  561   4.778   0.579   2.012
  141HO4    HW1  562   4.748   0.559   2.105
  141HO4    HW2  563   4.706   0.554   1.947
  141HO4     MW  564   4.778   0.579   2.012
  142HO4     OW  565   0.552   1.895   3.326
  142HO4    HW1  566   0.595   1.807   3.349
  142HO4    HW2  567   0.457   1.895   3.358
  142HO4     MW  568   0.552   1.895   3.326
  143HO4     OW  569   1.367   1.865   5.391
  143HO4    HW1  570   1.413   1.898   5.474
  143HO4    HW2  571   1.381   1.932   5.317
  143HO4     MW  572   1.367   1.865   5.391
  144HO4     OW  573   5.106   3.900   3.291
  144HO4    HW1  574   5.196   3.863   3.313
  144HO4    HW2  575   5.053   3.911   3.376
  144HO4     MW  576   5.106   3.900   3.291
  145HO4     OW  577   2.646   3.717   1.432
  145HO4    HW1  578   2.560   3.712   1.484
  145HO4    HW2  579   2.691   3.627   1.433
  145HO4     MW  580   2.646   3.717   1.432
  146HO4     OW  581   3.752   4.754   0.391
  146HO4    HW1  582   3.792   4.710   0.472
  146HO4    HW2  583   3.701   4.836   0.418
  146HO4     MW  584   3.752   4.754   0.391
  147HO4     OW  585   2.244   1.346   4.827
  147HO4    HW1  586   2.166   1.291   4.858
  147HO4    HW2  587   2.265   1.324   4.731
  147HO4     MW  588   2.244   1.346   4.827
  148HO4     OW  589   0.970   0.415   4.878
  148HO4    HW1  590   1.023   0.414   4.963
  148HO4    HW2  591   1.031   0.432   4.800
  148HO4     MW  592   0.970   0.415   4.878
  149HO4     OW  593   0.105   0.138   4.292
  149HO4    HW1  594   0.082   0.151   4.196
  149HO4    HW2  595   0.023   0.111   4.343
  149HO4     MW  596   0.105   0.138   4.292
  150HO4     OW  597   2.737   2.149   1.947
  150HO4    HW1  598   2.675   2.144   1.869
  150HO4    HW2  599   2.685   2.144   2.032
  150HO4     MW  600   2.737   2.149   1.947
  151HO4     OW  601   5.226   4.899   3.389
  151HO4    HW1  602   5.162   4.938   3.456
  151HO4    HW2  603   5.227   4.957   3.307
  151HO4     MW  604   5.226   4.899   3.389
  152HO4     OW  605   1.730   3.672   3.858
  152HO4    HW1  606   1.760   3.600   3.921
  152HO4    HW2  607   1.634   3.694   3.875
  152HO4     MW  608   1.730   3.672   3.858
  153HO4     OW  609   3.757   4.198   0.212
  153HO4    HW1  610   3.709   4.231   0.293
  153HO4    HW2  611   3.710   4.231   0.129
  153HO4     MW  612   3.757   4.198   0.212
  154HO4     OW  613   3.719   2.813   4.375
  154HO4    HW1  614   3.757   2.747   4.309
  154HO4    HW2  615   3.786   2.887   4.390
  154HO4     MW  616   3.719   2.813   4.375
  155HO4     OW  617   1.087   1.046   1.035
  155HO4    HW1  618   0.995   1.084   1.023
  155HO4    HW2  619   1.147   1.078   0.961
  155HO4     MW  620   1.087   1.046   1.035
  156HO4     OW  621   1.554   0.238   3.239
  156HO4    HW1  622   1.525   0.193   3.323
  156HO4    HW2  623   1.536   0.178   3.161
  156HO4     MW  624   1.554   0.238   3.239
  157HO4     OW  625   2.269   4.812   2.689
  157HO4    HW1  626   2.269   4.744   2.763
  157HO4    HW2  627   2.181   4.860   2.687
  157HO4     MW  628   2.269   4.812   2.689
  158HO4     OW  629   0.241   0.480   0.152
  158HO4    HW1  630   0.254   0.539   0.232
  158HO4    HW2  631   0.329   0.467   0.105
  158HO4     MW  632   0.241   0.480   0.152
  159HO4     OW  633   2.366   3.462   0.403
  159HO4    HW1  634   2.450   3.425   0.444
  159HO4    HW2  635   2.379   3.473   0.304
  159HO4     MW  636   2.366   3.462   0.403
  160HO4     OW  637   2.215   0.751   2.545
  160HO4    HW1  638   2.154   0.746   2.465
  160HO4    HW2  639   2.241   0.659   2.574
  160HO4     MW  640   2.215   0.751   2.545
  161HO4     OW  641   5.137   1.934   0.517
  161HO4    HW1  642   5.208   1.865   0.532
  161HO4    HW2  643   5.051   1.904   0.560
  161HO4     MW  644   5.137   1.934   0.517
  162HO4     OW  645   4.397   2.586   3.115
  162HO4    HW1  646   4.491   2.551   3.115
  162HO4    HW2  647   4.398   2.684   3.140
  162HO4     MW  648   4.397   2.586   3.115
  163HO4     OW  649   0.167   2.420   0.542
  163HO4    HW1  650   0.183   2.414   0.641
  163HO4    HW2  651   0.127   2.334   0.509
  163HO4     MW  652   0.167   2.420   0.542
  164HO4     OW  653   1.172   5.221   5.144
  164HO4    HW1  654   1.170   5.159   5.223
  164HO4    HW2  655   1.164   5.168   5.059
  164HO4     MW  656   1.172   5.221   5.144
  165HO4     OW  657   3.644   5.379   5.057
  165HO4    HW1  658   3.591   5.464   5.058
  165HO4    HW2  659   3.597   5.309   5.111
  165HO4     MW  660   3.644   5.379   5.057
  166HO4     OW  661   1.772   4.155   4.866
  166HO4    HW1  662   1.767   4.122   4.961
  166HO4    HW2  663   1.690   4.127   4.816
  166HO4     MW  664   1.772   4.155   4.866
  167HO4     OW  665   5.103   3.006   1.432
  167HO4    HW1  666   5.190   3.025   1.386
  167HO4    HW2  667   5.106   3.043   1.525
  167HO4     MW  668   5.103   3.006   1.432
  168HO4     OW  669   2.867   5.379   2.512
  168HO4    HW1  670   2.946   5.330   2.474
  168HO4    HW2  671   2.829   5.440   2.442
  168HO4     MW  672   2.867   5.379   2.512
  169HO4     OW  673   3.307   3.806   4.837
  169HO4    HW1  674   3.228   3.857   4.803
  169HO4    HW2  675   3.336   3.844   4.925
  169HO4     MW  676   3.307   3.806   4.837
  170HO4     OW  677   1.902   4.003   4.660
  170HO4    HW1  678   1.934   3.945   4.584
  170HO4    HW2  679   1.939   3.968   4.746
  170HO4     MW  680   1.902   4.003   4.660
  171HO4     OW  681   5.020   1.880   0.349
  171HO4    HW1  682   4.942   1.861   0.289
  171HO4    HW2  683   5.035   1.801   0.410
  171HO4     MW  684   5.020   1.880   0.349
  172HO4     OW  685   0.643   4.666   5.186
  172HO4    HW1  686   0.592   4.689   5.103
  172HO4    HW2  687   0.585   4.611   5.247
  172HO4     MW  688   0.643   4.666   5.186
  173HO4     OW  689   1.359   2.864   2.253
  173HO4    HW1  690   1.320   2.900   2.167
  173HO4    HW2  691   1.318   2.912   2.331
  173HO4     MW  692   1.359   2.864   2.253
  174HO4     OW  693   3.776   0.560   4.653
  174HO4    HW1  694   3.829   0.500   4.592
  174HO4    HW2  695   3.817   0.652   4.654
  174HO4     MW  696   3.776   0.560   4.653
  175HO4     OW  697   1.519   1.607   5.335
  175HO4    HW1  698   1.465   1.601   5.251
  175HO4    HW2  699   1.466   1.571   5.412
  175HO4     MW  700   1.519   1.607   5.335
  176HO4     OW  701   4.862   2.561   4.420
  176HO4    HW1  702   4.827   2.551   4.326
  176HO4    HW2  703   4.786   2.589   4.480
  176HO4     MW  704   4.862   2.561   4.420
  177HO4     OW  705   2.299   4.966   4.500
  177HO4    HW1  706   2.293   5.008   4.590
  177HO4    HW2  707   2.354   5.023   4.439
  177HO4     MW  708   2.299   4.966   4.500
  178HO4     OW  709   2.950   3.744   1.902
  178HO4    HW1  710   2.915   3.819   1.845
  178HO4    HW2  711   3.049   3.736   1.889
  178HO4     MW  712   2.950   3.744   1.902
  179HO4     OW  713   1.144   0.883   2.527
  179HO4    HW1  714   1.117   0.793   2.562
  179HO4    HW2  715   1.094   0.955   2.576
  179HO4     MW  716   1.144   0.883   2.527
  180HO4     OW  717   1.884   3.175   2.142
  180HO4    HW1  718   1.785   3.169   2.126
  180HO4    HW2  719   1.910   3.271   2.153
  180HO4     MW  720   1.884   3.175   2.142
  181HO4     OW  721   4.423   1.363   0.404
  181HO4    HW1  722   4.438   1.279   0.457
  181HO4    HW2  723   4.360   1.345   0.329
  181HO4     MW  724   4.423   1.363   0.404
  182HO4     OW  725   4.123   0.804   3.318
  182HO4    HW1  726   4.068   0.751   3.253
  182HO4    HW2  727   4.202   0.750   3.348
  182HO4     MW  728   4.123   0.804   3.318
  183HO4     OW  729   5.444   4.483   2.514
  183HO4    HW1  730   5.367   4.473   2.579
  183HO4    HW2  731   5.408   4.505   2.423
  183HO4     MW  732   5.444   4.483   2.514
  184HO4     OW  733   4.876   3.054   1.133
  184HO4    HW1  734   4.818   3.102   1.200
  184HO4    HW2  735   4.951   3.009   1.181
  184HO4     MW  736   4.876   3.054   1.133
  185HO4     OW  737   1.418   4.527   3.558
  185HO4    HW1  738   1.436   4.462   3.633
  185HO4    HW2  739   1.367   4.481   3.485
  185HO4     MW  740   1.418   4.527   3.558
  186HO4     OW  741   0.247   4.502   4.943
  186HO4    HW1  742   0.190   4.433   4.988
  186HO4    HW2  743   0.320   4.531   5.006
  186HO4     MW  744   0.247   4.502   4.943
  187HO4     OW  745   4.825   5.119   4.680
  187HO4    HW1  746   4.780   5.115   4.770
  187HO4    HW2  747   4.895   5.191   4.682
  187HO4     MW  748   4.825   5.119   4.680
  188HO4     OW  749   2.003   3.549   4.996
  188HO4    HW1  750   1.988   3.598   4.909
  188HO4    HW2  751   1.980   3.610   5.073
  188HO4     MW  752   2.003   3.549   4.996
  189HO4     OW  753   3.037   1.628   3.071
  189HO4    HW1  754   3.016   1.531   3.088
  189HO4    HW2  755   2.979   1.686   3.128
  189HO4     MW  756   3.037   1.628   3.071
  190HO4     OW  757   3.938   2.862   0.649
  190HO4    HW1  758   3.958   2.771   0.687
  190HO4    HW2  759   3.896   2.852   0.559
  190HO4     MW  760   3.938   2.862   0.649
  191HO4     OW  761   2.190   4.471   3.758
  191HO4    HW1  762   2.262   4.473   3.828
  191HO4    HW2  763   2.182   4.561   3.714
  191HO4     MW  764   2.190   4.471   3.758
  192HO4     OW  765   0.121   2.953   1.407
  192HO4    HW1  766   0.030   2.922   1.438
  192HO4    HW2  767   0.110   3.021   1.334
  192HO4     MW  768   0.121   2.953   1.407
  193HO4     OW  769   0.038   4.085   3.322
  193HO4    HW1  770  -0.026   4.092   3.245
  193HO4    HW2  771  -0.003   4.127   3.404
  193HO4     MW  772   0.038   4.085   3.322
  194HO4     OW  773   5.307   4.673   3.919
  194HO4    HW1  774   5.338   4.766   3.896
  194HO4    HW2  775   5.206   4.669   3.912
  194HO4     MW  776   5.307   4.673   3.919
  195HO4     OW  777   4.802   2.488   0.256
  195HO4    HW1  778   4.868   2.529   0.193
  195HO4    HW2  779   4.812   2.388   0.254
  195HO4     MW  780   4.802   2.488   0.256
  196HO4     OW  781   0.663   2.271   0.244
  196HO4    HW1  782   0.689   2.363   0.275
  196HO4    HW2  783   0.583   2.239   0.295
  196HO4     MW  784   0.663   2.271   0.244
  197HO4     OW  785   2.739   5.280   1.576
  197HO4    HW1  786   2.708   5.363   1.623
  197HO4    HW2  787   2.660   5.235   1.533
  197HO4     MW  788   2.739   5.280   1.576
  198HO4     OW  789   4.283   2.976   3.694
  198HO4    HW1  790   4.204   2.916   3.679
  198HO4    HW2  791   4.260   3.069   3.666
  198HO4     MW  792   4.283   2.976   3.694
  199HO4     OW  793   1.356   0.499   2.529
  199HO4    HW1  794   1.386   0.577   2.473
  199HO4    HW2  795   1.255   0.499   2.533
  199HO4     MW  796   1.356   0.499   2.529
  200HO4     OW  797   2.959   0.822   5.364
  200HO4    HW1  798   2.958   0.907   5.417
  200HO4    HW2  799   2.988   0.841   5.270
  200HO4     MW  800   2.959   0.822   5.364
  201HO4     OW  801   2.263   2.471   0.900
  201HO4    HW1  802   2.264   2.529   0.818
  201HO4    HW2  803   2.209   2.388   0.881
  201HO4     MW  804   2.263   2.471   0.900
  202HO4     OW  805   3.791   1.800   3.872
  202HO4    HW1  806   3.851   1.795   3.791
  202HO4    HW2  807   3.772   1.896   3.894
  202HO4     MW  808   3.791   1.800   3.872
  203HO4     OW  809   1.818   3.764   0.546
  203HO4    HW1  810   1.854   3.814   0.466
  203HO4    HW2  811   1.870   3.791   0.628
  203HO4     MW  812   1.818   3.764   0.546
  204HO4     OW  813   5.424   2.506   3.521
  204HO4    HW1  814   5.390   2.553   3.439
  204HO4    HW2  815   5.394   2.556   3.603
  204HO4     MW  816   5.424   2.506   3.521
  205HO4     OW  817   1.892   4.956   0.233
  205HO4    HW1  818   1.815   5.016   0.255
  205HO4    HW2  819   1.978   5.008   0.243
  205HO4     MW  820   1.892   4.956   0.233
  206HO4     OW  821   0.366   3.419   4.048
  206HO4    HW1  822   0.347   3.357   3.971
  206HO4    HW2  823   0.323   3.381   4.131
  206HO4     MW  824   0.366   3.419   4.048
  207HO4     OW  825   3.661   2.220   3.231
  207HO4    HW1  826   3.696   2.303   3.276
  207HO4    HW2  827   3.562   2.229   3.216
  207HO4     MW  828   3.661   2.220   3.231
  208HO4     OW  829   0.241   3.407   0.401
  208HO4    HW1  830   0.161   3.347   0.398
  208HO4    HW2  831   0.224   3.489   0.345
  208HO4     MW  832   0.241   3.407   0.401
  209HO4     OW  833   5.390   3.738   1.706
  209HO4    HW1  834   5.341   3.696   1.629
  209HO4    HW2  835   5.343   3.716   1.792
  209HO4     MW  836   5.390   3.738   1.706
  210HO4     OW  837   4.989   1.454   4.098
  210HO4    HW1  838   5.030   1.488   4.013
  210HO4    HW2  839   4.944   1.530   4.147
  210HO4     MW  840   4.989   1.454   4.098
  211HO4     OW  841   5.204   4.303   0.522
  211HO4    HW1  842   5.194   4.205   0.499
  211HO4    HW2  843   5.116   4.338   0.555
  211HO4     MW  844   5.204   4.303   0.522
  212HO4     OW  845   0.012   1.790   1.744
  212HO4    HW1  846  -0.016   1.721   1.677
  212HO4    HW2  847   0.029   1.747   1.832
  212HO4     MW  848   0.012   1.790   1.744
  213HO4     OW  849   1.478   3.482   5.443
  213HO4    HW1  850   1.551   3.414   5.434
  213HO4    HW2  851   1.424   3.464   5.526
  213HO4     MW  852   1.478   3.482   5.443
  214HO4     OW  853   4.605   4.124   0.376
  214HO4    HW1  854   4.553   4.083   0.301
  214HO4    HW2  855   4.626   4.054   0.445
  214HO4     MW  856   4.605   4.124   0.376
  215HO4     OW  857   1.508   1.717   4.573
  215HO4    HW1  858   1.438   1.779   4.537
  215HO4    HW2  859   1.599   1.752   4.548
  215HO4     MW  860   1.508   1.717   4.573
  216HO4     OW  861   4.768   0.342   5.151
  216HO4    HW1  862   4.779   0.300   5.061
  216HO4    HW2  863   4.790   0.274   5.222
  216HO4     MW  864   4.768   0.342   5.151
  217HO4     OW  865   1.012   4.105   5.076
  217HO4    HW1  866   1.074   4.039   5.032
  217HO4    HW2  867   1.063   4.187   5.102
  217HO4     MW  868   1.012   4.105   5.076
  218HO4     OW  869   0.476   2.834   2.698
  218HO4    HW1  870   0.478   2.802   2.793
  218HO4    HW2  871   0.532   2.773   2.641
  218HO4     MW  872   0.476   2.834   2.698
  219HO4     OW  873   5.016   2.512   0.701
  219HO4    HW1  874   4.958   2.430   0.692
  219HO4    HW2  875   4.961   2.587   0.740
  219HO4     MW  876   5.016   2.512   0.701
  220HO4     OW  877   0.062   4.684   1.232
  220HO4    HW1  878   0.095   4.598   1.271
  220HO4    HW2  879   0.086   4.760   1.293
  220HO4     MW  880   0.062   4.684   1.232
  221HO4     OW  881   0.231   0.485   0.487
  221HO4    HW1  882   0.255   0.396   0.448
  221HO4    HW2  883   0.295   0.508   0.560
  221HO4     MW  884   0.231   0.485   0.487
  222HO4     OW  885   2.017   1.371   5.445
  222HO4    HW1  886   2.062   1.405   5.528
  222HO4    HW2  887   2.069   1.399   5.364
  222HO4     MW  888   2.017   1.371   5.445
  223HO4     OW  889   3.287   4.478   0.315
  223HO4    HW1  890   3.235   4.486   0.400
  223HO4    HW2  891   3.385   4.469   0.335
  223HO4     MW  892   3.287   4.478   0.315
  224HO4     OW  893   2.195   3.900   2.560
  224HO4    HW1  894   2.166   3.979   2.614
  224HO4    HW2  895   2.114   3.844   2.539
  224HO4     MW  896   2.195   3.900   2.560
  225HO4     OW  897   2.211   2.733   0.434
  225HO4    HW1  898   2.216   2.813   0.494
  225HO4    HW2  899   2.129   2.680   0.456
  225HO4     MW  900   2.211   2.733   0.434
  226HO4     OW  901   3.210   3.204   4.351
  226HO4    HW1  902   3.153   3.227   4.271
  226HO4    HW2  903   3.164   3.233   4.435
  226HO4     MW  904   3.210   3.204   4.351
  227HO4     OW  905   2.832   1.015   4.951
  227HO4    HW1  906   2.878   0.928   4.929
  227HO4    HW2  907   2.869   1.088   4.892
  227HO4     MW  908   2.832   1.015   4.951
  228HO4     OW  909   2.795   2.853   0.795
  228HO4    HW1  910   2.837   2.804   0.718
  228HO4    HW2  911   2.763   2.786   0.863
  228HO4     MW  912   2.795   2.853   0.795
  229HO4     OW  913   3.389   3.282   4.259
  229HO4    HW1  914   3.451   3.289   4.339
  229HO4    HW2  915   3.431   3.327   4.180
  229HO4     MW  916   3.389   3.282   4.259
  230HO4     OW  917   3.284   3.023   0.932
  230HO4    HW1  918   3.341   3.014   0.850
  230HO4    HW2  919   3.341   3.013   1.014
  230HO4     MW  920   3.284   3.023   0.932
  231HO4     OW  921   3.520   4.751   1.688
  231HO4    HW1  922   3.477   4.841   1.701
  231HO4    HW2  923   3.619   4.762   1.681
  231HO4     MW  924   3.520   4.751   1.688
  232HO4     OW  925   2.006   4.038   5.300
  232HO4    HW1  926   2.056   4.011   5.217
  232HO4    HW2  927   1.955   3.959   5.335
  232HO4     MW  928   2.006   4.038   5.300
  233HO4     OW  929   4.209   0.157   2.208
  233HO4    HW1  930   4.262   0.137   2.291
  233HO4    HW2  931   4.265   0.211   2.144
  233HO4     MW  932   4.209   0.157   2.208
  234HO4     OW  933   0.475   0.271   3.239
  234HO4    HW1  934   0.518   0.361   3.249
  234HO4    HW2  935   0.455   0.233   3.330
  234HO4     MW  936   0.475   0.271   3.239
  235HO4     OW  937   4.460   2.814   1.192
  235HO4    HW1  938   4.476   2.839   1.288
  235HO4    HW2  939   4.521   2.739   1.166
  235HO4     MW  940   4.460   2.814   1.192
  236HO4     OW  941   1.925   4.651   2.209
  236HO4    HW1  942   1.998   4.644   2.140
  236HO4    HW2  943   1.967   4.667   2.299
  236HO4     MW  944   1.925   4.651   2.209
  237HO4     OW  945   1.772   0.408   4.277
  237HO4    HW1  946   1.868   0.432   4.291
  237HO4    HW2  947   1.742   0.347   4.351
  237HO4     MW  948   1.772   0.408   4.277
  238HO4     OW  949   1.764   3.943   3.722
  238HO4    HW1  950   1.778   3.857   3.672
  238HO4    HW2  951   1.795   3.932   3.817
  238HO4     MW  952   1.764   3.943   3.722
  239HO4     OW  953   0.136   1.027   4.063
  239HO4    HW1  954   0.220   1.045   4.012
  239HO4    HW2  955   0.149   1.054   4.159
  239HO4     MW  956   0.136   1.027   4.063
  240HO4     OW  957   3.906   5.343   0.596
  240HO4    HW1  958   3.924   5.280   0.520
  240HO4    HW2  959   3.992   5.381   0.630
  240HO4     MW  960   3.906   5.343   0.596
  241HO4     OW  961   3.748   0.380   2.594
  241HO4    HW1  962   3.675   0.320   2.560
  241HO4    HW2  963   3.837   0.335   2.582
  241HO4     MW  964   3.748   0.380   2.594
  242HO4     OW  965   5.119   2.076   1.734
  242HO4    HW1  966   5.149   1.996   1.787
  242HO4    HW2  967   5.092   2.048   1.642
  242HO4     MW  968   5.119   2.076   1.734
  243HO4     OW  969   3.807   0.949   2.032
  243HO4    HW1  970   3.805   1.048   2.052
  243HO4    HW2  971   3.726   0.905   2.072
  243HO4     MW  972   3.807   0.949   2.032
  244HO4     OW  973   2.611   2.556   2.540
  244HO4    HW1  974   2.513   2.532   2.535
  244HO4    HW2  975   2.665   2.472   2.552
  244HO4     MW  976   2.611   2.556   2.540
  245HO4     OW  977   2.171   5.099   0.700
  245HO4    HW1  978   2.149   5.003   0.679
  245HO4    HW2  979   2.259   5.123   0.658
  245HO4     MW  980   2.171   5.099   0.700
  246HO4     OW  981   2.196   3.232   5.218
  246HO4    HW1  982   2.254   3.220   5.137
  246HO4    HW2  983   2.177   3.330   5.231
  246HO4     MW  984   2.196   3.232   5.218
  247HO4     OW  985   1.070   1.188   4.768
  247HO4    HW1  986   1.086   1.287   4.774
  247HO4    HW2  987   1.111   1.152   4.683
  247HO4     MW  988   1.070   1.188   4.768
  248HO4     OW  989   2.283   4.248   4.692
  248HO4    HW1  990   2.186   4.250   4.719
  248HO4    HW2  991   2.318   4.154   4.704
  248HO4     MW  992   2.283   4.248   4.692
  249HO4     OW  993   1.654   1.055   3.464
  249HO4    HW1  994   1.719   1.056   3.388
  249HO4    HW2  995   1.656   1.144   3.511
  249HO4     MW  996   1.654   1.055   3.464
  250HO4     OW  997   1.749   0.159   5.443
  250HO4    HW1  998   1.732   0.250   5.480
  250HO4    HW2  999   1.690   0.144   5.363
  250HO4     MW 1000   1.749   0.159   5.443
  251HO4     OW 1001   2.016   0.181   3.544
  251HO4    HW1 1002   1.945   0.158   3.612
  251HO4    HW2 1003   2.013   0.114   3.469
  251HO4     MW 1004   2.016   0.181   3.544
  252HO4     OW 1005   4.888   3.341   5.446
  252HO4    HW1 1006   4.885   3.406   5.522
  252HO4    HW2 1007   4.973   3.354   5.394
  252HO4     MW 1008   4.888   3.341   5.446
  253HO4     OW 1009   1.438   3.137   1.448
  253HO4    HW1 1010   1.422   3.130   1.547
  253HO4    HW2 1011   1.509   3.072   1.421
  253HO4     MW 1012   1.438   3.137   1.448
  254HO4     OW 1013   5.347   4.514   1.730
  254HO4    HW1 1014   5.437   4.559   1.737
  254HO4    HW2 1015   5.334   4.453   1.808
  254HO4     MW 1016   5.347   4.514   1.730
  255HO4     OW 1017   4.213   5.103   0.512
  255HO4    HW1 1018   4.166   5.112   0.600
  255HO4    HW2 1019   4.151   5.130   0.438
  255HO4     MW 1020   4.213   5.103   0.512
  256HO4     OW 1021   2.618   2.292   0.593
  256HO4    HW1 1022   2.688   2.249   0.651
  256HO4    HW2 1023   2.622   2.252   0.501
  256HO4     MW 1024   2.618   2.292   0.593
  257HO4     OW 1025   3.702   3.023   5.239
  257HO4    HW1 1026   3.661   3.103   5.193
  257HO4    HW2 1027   3.761   2.974   5.174
  257HO4     MW 1028   3.702   3.023   5.239
  258HO4     OW 1029   2.746   2.011   2.774
  258HO4    HW1 1030   2.689   2.093   2.787
  258HO4    HW2 1031   2.810   2.001   2.851
  258HO4     MW 1032   2.746   2.011   2.774
  259HO4     OW 1033   5.195   0.825   1.473
  259HO4    HW1 1034   5.211   0.772   1.557
  259HO4    HW2 1035   5.203   0.764   1.394
  259HO4     MW 1036   5.195   0.825   1.473
  260HO4     OW 1037   0.780   0.991   4.293
  260HO4    HW1 1038   0.799   1.026   4.385
  260HO4    HW2 1039   0.836   1.040   4.226
  260HO4     MW 1040   0.780   0.991   4.293
  261HO4     OW 1041   2.444   3.164   0.880
  261HO4    HW1 1042   2.482   3.201   0.966
  261HO4    HW2 1043   2.494   3.203   0.802
  261HO4     MW 1044   2.444   3.164   0.880
  262HO4     OW 1045   0.033   5.186   3.624
  262HO4    HW1 1046  -0.060   5.171   3.657
  262HO4    HW2 1047   0.080   5.252   3.683
  262HO4     MW 1048   0.033   5.186   3.624
  263HO4     OW 1049   5.252   4.546   3.074
  263HO4    HW1 1050   5.280   4.468   3.132
  263HO4    HW2 1051   5.266   4.522   2.978
  263HO4     MW 1052   5.252   4.546   3.074
  264HO4     OW 1053   3.431   2.281   0.172
  264HO4    HW1 1054   3.434   2.364   0.114
  264HO4    HW2 1055   3.402   2.203   0.116
  264HO4     MW 1056   3.431   2.281   0.172
  265HO4     OW 1057   2.748   3.752   0.804
  265HO4    HW1 1058   2.725   3.715   0.714
  265HO4    HW2 1059   2.776   3.848   0.795
  265HO4     MW 1060   2.748   3.752   0.804
  266HO4     OW 1061   2.710   5.282   1.229
  266HO4    HW1 1062   2.648   5.330   1.166
  266HO4    HW2 1063   2.670   5.282   1.321
  266HO4     MW 1064   2.710   5.282   1.229
  267HO4     OW 1065   4.311   1.406   3.953
  267HO4    HW1 1066   4.239   1.443   3.893
  267HO4    HW2 1067   4.299   1.307   3.962
  267HO4     MW 1068   4.311   1.406   3.953
  268HO4     OW 1069   0.208   4.095   1.259
  268HO4    HW1 1070   0.182   4.158   1.333
  268HO4    HW2 1071   0.251   4.147   1.185
  268HO4     MW 1072   0.208   4.095   1.259
  269HO4     OW 1073   4.611   4.641   4.751
  269HO4    HW1 1074   4.610   4.543   4.727
  269HO4    HW2 1075   4.621   4.696   4.668
  269HO4     MW 1076   4.611   4.641   4.751
  270HO4     OW 1077   0.040   4.311   5.418
  270HO4    HW1 1078   0.100   4.307   5.498
  270HO4    HW2 1079   0.094   4.301   5.334
  270HO4     MW 1080   0.040   4.311   5.418
  271HO4     OW 1081   3.776   4.057   1.641
  271HO4    HW1 1082   3.825   4.137   1.678
  271HO4    HW2 1083   3.694   4.039   1.696
  271HO4     MW 1084   3.776   4.057   1.641
  272HO4     OW 1085   1.951   0.178   4.872
  272HO4    HW1 1086   2.003   0.258   4.838
  272HO4    HW2 1087   1.876   0.158   4.809
  272HO4     MW 1088   1.951   0.178   4.872
  273HO4     OW 1089   3.995   5.207   3.682
  273HO4    HW1 1090   3.982   5.271   3.606
  273HO4    HW2 1091   3.924   5.136   3.678
  273HO4     MW 1092   3.995   5.207   3.682
  274HO4     OW 1093   2.756   1.121   1.960
  274HO4    HW1 1094   2.710   1.132   1.871
  274HO4    HW2 1095   2.687   1.116   2.033
  274HO4     MW 1096   2.756   1.121   1.960
  275HO4     OW 1097   0.321   2.956   0.414
  275HO4    HW1 1098   0.365   2.990   0.498
  275HO4    HW2 1099   0.251   2.888   0.438
  275HO4     MW 1100   0.321   2.956   0.414
  276HO4     OW 1101   1.823   0.437   1.274
  276HO4    HW1 1102   1.768   0.416   1.193
  276HO4    HW2 1103   1.917   0.407   1.260
  276HO4     MW 1104   1.823   0.437   1.274
  277HO4     OW 1105   0.528   1.380   5.025
  277HO4    HW1 1106   0.483   1.452   4.970
  277HO4    HW2 1107   0.514   1.399   5.122
  277HO4     MW 1108   0.528   1.380   5.025
  278HO4     OW 1109   3.950   5.000   5.424
  278HO4    HW1 1110   3.891   4.997   5.343
  278HO4    HW2 1111   3.894   4.982   5.506
  278HO4     MW 1112   3.950   5.000   5.424
  279HO4     OW 1113   3.247   1.833   2.156
  279HO4    HW1 1114   3.314   1.885   2.102
  279HO4    HW2 1115   3.250   1.863   2.252
  279HO4     MW 1116   3.247   1.833   2.156
  280HO4     OW 1117   2.139   0.430   3.059
  280HO4    HW1 1118   2.115   0.427   3.156
  280HO4    HW2 1119   2.195   0.350   3.035
  280HO4     MW 1120   2.139   0.430   3.059
  281HO4     OW 1121   4.967   2.253   2.925
  281HO4    HW1 1122   4.988   2.205   3.011
  281HO4    HW2 1123   5.002   2.200   2.847
  281HO4     MW 1124   4.967   2.253   2.925
  282HO4     OW 1125   1.199   0.866   0.626
  282HO4    HW1 1126   1.217   0.903   0.534
  282HO4    HW2 1127   1.287   0.846   0.672
  282HO4     MW 1128   1.199   0.866   0.626
  283HO4     OW 1129   0.038   0.937   0.469
  283HO4    HW1 1130   0.043   0.945   0.569
  283HO4    HW2 1131   0.130   0.919   0.432
  283HO4     MW 1132   0.038   0.937   0.469
  284HO4     OW 1133   1.703   3.346   1.891
  284HO4    HW1 1134   1.677   3.297   1.807
  284HO4    HW2 1135   1.656   3.305   1.969
  284HO4     MW 1136   1.703   3.346   1.891
  285HO4     OW 1137   5.033   0.214   3.731
  285HO4    HW1 1138   5.050   0.303   3.774
  285HO4    HW2 1139   5.112   0.187   3.676
  285HO4     MW 1140   5.033   0.214   3.731
  286HO4     OW 1141   3.571   4.280   4.895
  286HO4    HW1 1142   3.545   4.240   4.806
  286HO4    HW2 1143   3.562   4.210   4.967
  286HO4     MW 1144   3.571   4.280   4.895
  287HO4     OW 1145   4.183   1.540   3.537
  287HO4    HW1 1146   4.098   1.487   3.527
  287HO4    HW2 1147   4.161   1.637   3.542
  287HO4     MW 1148   4.183   1.540   3.537
  288HO4     OW 1149   1.526   4.961   0.888
  288HO4    HW1 1150   1.587   5.038   0.869
  288HO4    HW2 1151   1.505   4.958   0.986
  288HO4     MW 1152   1.526   4.961   0.888
  289HO4     OW 1153   5.004   4.314   3.263
  289HO4    HW1 1154   5.077   4.379   3.290
  289HO4    HW2 1155   5.046   4.228   3.235
  289HO4     MW 1156   5.004   4.314   3.263
  290HO4     OW 1157   2.132   3.084   4.935
  290HO4    HW1 1158   2.187   3.088   4.851
  290HO4    HW2 1159   2.139   2.992   4.975
  290HO4     MW 1160   2.132   3.084   4.935
  291HO4     OW 1161   2.554   4.219   4.939
  291HO4    HW1 1162   2.574   4.303   4.887
  291HO4    HW2 1163   2.554   4.240   5.037
  291HO4     MW 1164   2.554   4.219   4.939
  292HO4     OW 1165   4.152   3.408   3.770
  292HO4    HW1 1166   4.103   3.381   3.853
  292HO4    HW2 1167   4.087   3.436   3.699
  292HO4     MW 1168   4.152   3.408   3.770
  293HO4     OW 1169   3.639   4.370   4.583
  293HO4    HW1 1170   3.597   4.459   4.602
  293HO4    HW2 1171   3.692   4.375   4.498
  293HO4     MW 1172   3.639   4.370   4.583
  294HO4     OW 1173   0.416   1.308   0.611
  294HO4    HW1 1174   0.333   1.357   0.582
  294HO4    HW2 1175   0.402   1.268   0.702
  294HO4     MW 1176   0.416   1.308   0.611
  295HO4     OW 1177   2.065   3.023   1.051
  295HO4    HW1 1178   2.146   2.987   1.099
  295HO4    HW2 1179   2.052   2.973   0.966
  295HO4     MW 1180   2.065   3.023   1.051
  296HO4     OW 1181   2.815   4.909   2.307
  296HO4    HW1 1182   2.759   4.855   2.244
  296HO4    HW2 1183   2.854   4.988   2.259
  296HO4     MW 1184   2.815   4.909   2.307
  297HO4     OW 1185   2.585   0.399   3.960
  297HO4    HW1 1186   2.562   0.447   4.045
  297HO4    HW2 1187   2.508   0.407   3.896
  297HO4     MW 1188   2.585   0.399   3.960
  298HO4     OW 1189   4.684   2.908   2.939
  298HO4    HW1 1190   4.730   2.947   2.858
  298HO4    HW2 1191   4.691   2.973   3.016
  298HO4     MW 1192   4.684   2.908   2.939
  299HO4     OW 1193   1.580   3.203   2.409
  299HO4    HW1 1194   1.529   3.192   2.323
  299HO4    HW2 1195   1.652   3.133   2.415
  299HO4     MW 1196   1.580   3.203   2.409
  300HO4     OW 1197   4.901   2.154   3.291
  300HO4    HW1 1198   4.850   2.154   3.204
  300HO4    HW2 1199   4.925   2.248   3.315
  300HO4     MW 1200   4.901   2.154   3.291
  301HO4     OW 1201   3.797   5.228   0.975
  301HO4    HW1 1202   3.745   5.266   1.052
  301HO4    HW2 1203   3.750   5.145   0.942
  301HO4     MW 1204   3.797   5.228   0.975
  302HO4     OW 1205   4.254   1.513   1.636
  302HO4    HW1 1206   4.196   1.531   1.716
  302HO4    HW2 1207   4.225   1.573   1.560
  302HO4     MW 1208   4.254   1.513   1.636
  303HO4     OW 1209   1.318   0.149   5.307
  303HO4    HW1 1210   1.262   0.125   5.387
  303HO4    HW2 1211   1.271   0.120   5.223
  303HO4     MW 1212   1.318   0.149   5.307
  304HO4     OW 1213   1.599   3.013   4.239
  304HO4    HW1 1214   1.503   3.033   4.219
  304HO4    HW2 1215   1.629   2.933   4.186
  304HO4     MW 1216   1.599   3.013   4.239
  305HO4     OW 1217   3.077   1.935   4.382
  305HO4    HW1 1218   3.170   1.900   4.398
  305HO4    HW2 1219   3.053   1.922   4.286
  305HO4     MW 1220   3.077   1.935   4.382
  306HO4     OW 1221   1.487   4.374   2.392
  306HO4    HW1 1222   1.390   4.397   2.380
  306HO4    HW2 1223   1.497   4.274   2.403
  306HO4     MW 1224   1.487   4.374   2.392
  307HO4     OW 1225   4.862   5.071   1.386
  307HO4    HW1 1226   4.793   5.127   1.338
  307HO4    HW2 1227   4.831   4.976   1.387
  307HO4     MW 1228   4.862   5.071   1.386
  308HO4     OW 1229   2.044   2.678   5.133
  308HO4    HW1 1230   2.095   2.614   5.076
  308HO4    HW2 1231   2.098   2.702   5.214
  308HO4     MW 1232   2.044   2.678   5.133
  309HO4     OW 1233   1.492   1.494   0.252
  309HO4    HW1 1234   1.528   1.557   0.183
  309HO4    HW2 1235   1.398   1.468   0.229
  309HO4     MW 1236   1.492   1.494   0.252
  310HO4     OW 1237   3.885   2.766   1.519
  310HO4    HW1 1238   3.896   2.822   1.601
  310HO4    HW2 1239   3.896   2.823   1.437
  310HO4     MW 1240   3.885   2.766   1.519
  311HO4     OW 1241   3.258   4.780   2.250
  311HO4    HW1 1242   3.309   4.747   2.170
  311HO4    HW2 1243   3.309   4.759   2.334
  311HO4     MW 1244   3.258   4.780   2.250
  312HO4     OW 1245   4.146   3.934   1.965
  312HO4    HW1 1246   4.188   3.970   2.049
  312HO4    HW2 1247   4.151   4.004   1.893
  312HO4     MW 1248   4.146   3.934   1.965
  313HO4     OW 1249   2.687   0.548   2.932
  313HO4    HW1 1250   2.713   0.634   2.887
  313HO4    HW2 1251   2.661   0.480   2.862
  313HO4     MW 1252   2.687   0.548   2.932
  314HO4     OW 1253   3.502   1.494   2.926
  314HO4    HW1 1254   3.540   1.420   2.983
  314HO4    HW2 1255   3.573   1.564   2.911
  314HO4     MW 1256   3.502   1.494   2.926
  315HO4     OW 1257   3.832   1.462   3.753
  315HO4    HW1 1258   3.915   1.439   3.806
  315HO4    HW2 1259   3.755   1.475   3.816
  315HO4     MW 1260   3.832   1.462   3.753
  316HO4     OW 1261   4.952   2.946   0.079
  316HO4    HW1 1262   4.859   2.921   0.105
  316HO4    HW2 1263   4.953   3.040   0.042
  316HO4     MW 1264   4.952   2.946   0.079
  317HO4     OW 1265   4.399   1.400   1.120
  317HO4    HW1 1266   4.302   1.413   1.096
  317HO4    HW2 1267   4.411   1.308   1.158
  317HO4     MW 1268   4.399   1.400   1.120
  318HO4     OW 1269   4.032   4.110   1.149
  318HO4    HW1 1270   4.016   4.091   1.246
  318HO4    HW2 1271   3.989   4.197   1.124
  318HO4     MW 1272   4.032   4.110   1.149
  319HO4     OW 1273   1.446   1.427   4.046
  319HO4    HW1 1274   1.500   1.422   4.131
  319HO4    HW2 1275   1.493   1.376   3.974
  319HO4     MW 1276   1.446   1.427   4.046
  320HO4     OW 1277   0.295   4.968   4.275
  320HO4    HW1 1278   0.260   5.010   4.191
  320HO4    HW2 1279   0.364   5.027   4.316
  320HO4     MW 1280   0.295   4.968   4.275
  321HO4     OW 1281   3.682   3.748   2.150
  321HO4    HW1 1282   3.687   3.714   2.244
  321HO4    HW2 1283   3.691   3.671   2.086
  321HO4     MW 1284   3.682   3.748   2.150
  322HO4     OW 1285   1.475   4.499   4.248
  322HO4    HW1 1286   1.522   4.429   4.193
  322HO4    HW2 1287   1.480   4.588   4.200
  322HO4     MW 1288   1.475   4.499   4.248
  323HO4     OW 1289   4.893   5.049   0.324
  323HO4    HW1 1290   4.971   5.037   0.387
  323HO4    HW2 1291   4.811   5.007   0.364
  323HO4     MW 1292   4.893   5.049   0.324
  324HO4     OW 1293   2.675   4.639   1.787
  324HO4    HW1 1294   2.630   4.627   1.698
  324HO4    HW2 1295   2.653   4.562   1.848
  324HO4     MW 1296   2.675   4.639   1.787
  325HO4     OW 1297   3.254   1.186   1.307
  325HO4    HW1 1298   3.236   1.122   1.383
  325HO4    HW2 1299   3.258   1.134   1.221
  325HO4     MW 1300   3.254   1.186   1.307
  326HO4     OW 1301   2.252   3.466   1.104
  326HO4    HW1 1302   2.296   3.556   1.111
  326HO4    HW2 1303   2.173   3.462   1.165
  326HO4     MW 1304   2.252   3.466   1.104
  327HO4     OW 1305   4.565   1.682   3.198
  327HO4    HW1 1306   4.637   1.715   3.259
  327HO4    HW2 1307   4.518   1.603   3.241
  327HO4     MW 1308   4.565   1.682   3.198
  328HO4     OW 1309   1.516   3.976   0.294
  328HO4    HW1 1310   1.532   3.912   0.218
  328HO4    HW2 1311   1.545   3.933   0.380
  328HO4     MW 1312   1.516   3.976   0.294
  329HO4     OW 1313   0.532   4.331   0.010
  329HO4    HW1 1314   0.471   4.393  -0.040
  329HO4    HW2 1315   0.515   4.341   0.109
  329HO4     MW 1316   0.532   4.331   0.010
  330HO4     OW 1317   3.009   1.656   0.085
  330HO4    HW1 1318   2.949   1.683   0.009
  330HO4    HW2 1319   2.973   1.694   0.171
  330HO4     MW 1320   3.009   1.656   0.085
  331HO4     OW 1321   3.266   1.000   3.493
  331HO4    HW1 1322   3.280   0.902   3.480
  331HO4    HW2 1323   3.167   1.020   3.491
  331HO4     MW 1324   3.266   1.000   3.493
  332HO4     OW 1325   1.806   0.062   2.237
  332HO4    HW1 1326   1.830   0.016   2.150
  332HO4    HW2 1327   1.824  -0.001   2.313
  332HO4     MW 1328   1.806   0.062   2.237
  333HO4     OW 1329   3.042   4.759   0.205
  333HO4    HW1 1330   2.989   4.785   0.123
  333HO4    HW2 1331   2.989   4.781   0.287
  333HO4     MW 1332   3.042   4.759   0.205
  334HO4     OW 1333   2.459   4.808   1.494
  334HO4    HW1 1334   2.423   4.896   1.526
  334HO4    HW2 1335   2.556   4.818   1.470
  334HO4     MW 1336   2.459   4.808   1.494
  335HO4     OW 1337   0.510   2.503   3.750
  335HO4    HW1 1338   0.417   2.538   3.739
  335HO4    HW2 1339   0.574   2.562   3.700
  335HO4     MW 1340   0.510   2.503   3.750
  336HO4     OW 1341   4.613   5.026   1.657
  336HO4    HW1 1342   4.571   5.060   1.742
  336HO4    HW2 1343   4.659   5.102   1.610
  336HO4     MW 1344   4.613   5.026   1.657
  337HO4     OW 1345   4.783   3.313   2.059
  337HO4    HW1 1346   4.846   3.274   1.991
  337HO4    HW2 1347   4.834   3.372   2.122
  337HO4     MW 1348   4.783   3.313   2.059
  338HO4     OW 1349   5.173   2.554   4.779
  338HO4    HW1 1350   5.239   2.482   4.757
  338HO4    HW2 1351   5.188   2.586   4.873
  338HO4     MW 1352   5.173   2.554   4.779
  339HO4     OW 1353   5.063   3.137   4.380
  339HO4    HW1 1354   5.072   3.072   4.456
  339HO4    HW2 1355   5.144   3.197   4.378
  339HO4     MW 1356   5.063   3.137   4.380
  340HO4     OW 1357   0.657   2.593   2.162
  340HO4    HW1 1358   0.561   2.621   2.168
  340HO4    HW2 1359   0.674   2.519   2.228
  340HO4     MW 1360   0.657   2.593   2.162
  341HO4     OW 1361   0.518   0.918   3.945
  341HO4    HW1 1362   0.599   0.896   4.000
  341HO4    HW2 1363   0.458   0.837   3.940
  341HO4     MW 1364   0.518   0.918   3.945
  342HO4     OW 1365   3.719   0.138   1.057
  342HO4    HW1 1366   3.684   0.065   0.997
  342HO4    HW2 1367   3.776   0.201   1.004
  342HO4     MW 1368   3.719   0.138   1.057
  343HO4     OW 1369   0.995   3.645   1.465
  343HO4    HW1 1370   1.094   3.657   1.475
  343HO4    HW2 1371   0.972   3.631   1.368
  343HO4     MW 1372   0.995   3.645   1.465
  344HO4     OW 1373   3.080   3.548   4.602
  344HO4    HW1 1374   3.079   3.537   4.502
  344HO4    HW2 1375   3.034   3.634   4.627
  344HO4     MW 1376   3.080   3.548   4.602
  345HO4     OW 1377   0.718   2.943   4.373
  345HO4    HW1 1378   0.771   2.933   4.288
  345HO4    HW2 1379   0.628   2.983   4.352
  345HO4     MW 1380   0.718   2.943   4.373
  346HO4     OW 1381   2.826   4.978   5.366
  346HO4    HW1 1382   2.775   4.947   5.285
  346HO4    HW2 1383   2.775   4.953   5.449
  346HO4     MW 1384   2.826   4.978   5.366
  347HO4     OW 1385   3.971   0.289   5.151
  347HO4    HW1 1386   3.879   0.303   5.191
  347HO4    HW2 1387   3.973   0.326   5.058
  347HO4     MW 1388   3.971   0.289   5.151
  348HO4     OW 1389   0.557   3.093   3.546
  348HO4    HW1 1390   0.623   3.082   3.620
  348HO4    HW2 1391   0.491   3.165   3.569
  348HO4     MW 1392   0.557   3.093   3.546
  349HO4     OW 1393   2.420   2.785   0.820
  349HO4    HW1 1394   2.495   2.780   0.753
  349HO4    HW2 1395   2.336   2.748   0.780
  349HO4     MW 1396   2.420   2.785   0.820
  350HO4     OW 1397   1.187   4.316   3.572
  350HO4    HW1 1398   1.112   4.332   3.508
  350HO4    HW2 1399   1.210   4.402   3.618
  350HO4     MW 1400   1.187   4.316   3.572
  351HO4     OW 1401   1.969   2.682   0.688
  351HO4    HW1 1402   2.065   2.660   0.670
  351HO4    HW2 1403   1.923   2.706   0.602
  351HO4     MW 1404   1.969   2.682   0.688
  352HO4     OW 1405   1.105   4.325   1.094
  352HO4    HW1 1406   1.167   4.264   1.143
  352HO4    HW2 1407   1.047   4.272   1.032
  352HO4     MW 1408   1.105   4.325   1.094
  353HO4     OW 1409   4.135   1.107   2.350
  353HO4    HW1 1410   4.106   1.073   2.440
  353HO4    HW2 1411   4.184   1.034   2.301
  353HO4     MW 1412   4.135   1.107   2.350
  354HO4     OW 1413   2.868   0.478   1.423
  354HO4    HW1 1414   2.880   0.380   1.441
  354HO4    HW2 1415   2.922   0.531   1.490
  354HO4     MW 1416   2.868   0.478   1.423
  355HO4     OW 1417   4.981   0.763   3.868
  355HO4    HW1 1418   4.891   0.761   3.914
  355HO4    HW2 1419   4.969   0.790   3.772
  355HO4     MW 1420   4.981   0.763   3.868
  356HO4     OW 1421   2.655   2.115   3.309
  356HO4    HW1 1422   2.665   2.153   3.216
  356HO4    HW2 1423   2.696   2.178   3.375
  356HO4     MW 1424   2.655   2.115   3.309
  357HO4     OW 1425   2.662   1.362   0.315
  357HO4    HW1 1426   2.737   1.382   0.251
  357HO4    HW2 1427   2.696   1.305   0.390
  357HO4     MW 1428   2.662   1.362   0.315
  358HO4     OW 1429   5.040   4.221   2.676
  358HO4    HW1 1430   5.074   4.258   2.763
  358HO4    HW2 1431   5.065   4.123   2.670
  358HO4     MW 1432   5.040   4.221   2.676
  359HO4     OW 1433   4.694   5.019   5.121
  359HO4    HW1 1434   4.775   4.963   5.142
  359HO4    HW2 1435   4.709   5.069   5.035
  359HO4     MW 1436   4.694   5.019   5.121
  360HO4     OW 1437   1.223   3.915   4.919
  360HO4    HW1 1438   1.195   3.829   4.964
  360HO4    HW2 1439   1.242   3.897   4.822
  360HO4     MW 1440   1.223   3.915   4.919
  361HO4     OW 1441   1.997   0.656   2.869
  361HO4    HW1 1442   1.910   0.700   2.893
  361HO4    HW2 1443   2.004   0.568   2.918
  361HO4     MW 1444   1.997   0.656   2.869
  362HO4     OW 1445   0.983   3.572   1.824
  362HO4    HW1 1446   0.922   3.493   1.812
  362HO4    HW2 1447   0.961   3.618   1.911
  362HO4     MW 1448   0.983   3.572   1.824
  363HO4     OW 1449   2.491   3.558   2.238
  363HO4    HW1 1450   2.478   3.551   2.138
  363HO4    HW2 1451   2.587   3.540   2.261
  363HO4     MW 1452   2.491   3.558   2.238
  364HO4     OW 1453   4.106   1.258   1.758
  364HO4    HW1 1454   4.177   1.280   1.690
  364HO4    HW2 1455   4.099   1.158   1.766
  364HO4     MW 1456   4.106   1.258   1.758
  365HO4     OW 1457   3.851   2.654   4.163
  365HO4    HW1 1458   3.856   2.648   4.063
  365HO4    HW2 1459   3.762   2.619   4.194
  365HO4     MW 1460   3.851   2.654   4.163
  366HO4     OW 1461   2.312   0.232   0.675
  366HO4    HW1 1462   2.372   0.249   0.754
  366HO4    HW2 1463   2.366   0.240   0.591
  366HO4     MW 1464   2.312   0.232   0.675
  367HO4     OW 1465   1.024   5.031   0.612
  367HO4    HW1 1466   1.064   5.093   0.545
  367HO4    HW2 1467   1.031   5.071   0.704
  367HO4     MW 1468   1.024   5.031   0.612
  368HO4     OW 1469   2.612   4.319   4.070
  368HO4    HW1 1470   2.700   4.271   4.069
  368HO4    HW2 1471   2.594   4.352   4.163
  368HO4     MW 1472   2.612   4.319   4.070
  369HO4     OW 1473   3.493   0.131   2.756
  369HO4    HW1 1474   3.407   0.083   2.779
  369HO4    HW2 1475   3.491   0.159   2.660
  369HO4     MW 1476   3.493   0.131   2.756
  370HO4     OW 1477   2.922   3.513   0.892
  370HO4    HW1 1478   2.859   3.555   0.958
  370HO4    HW2 1479   3.014   3.551   0.904
  370HO4     MW 1480   2.922   3.513   0.892
  371HO4     OW 1481   5.023   0.033   4.848
  371HO4    HW1 1482   5.085  -0.018   4.787
  371HO4    HW2 1483   5.050   0.017   4.943
  371HO4     MW 1484   5.023   0.033   4.848
  372HO4     OW 1485   2.646   4.982   3.920
  372HO4    HW1 1486   2.624   4.925   4.000
  372HO4    HW2 1487   2.564   4.996   3.864
  372HO4     MW 1488   2.646   4.982   3.920
  373HO4     OW 1489   1.995   5.444   0.853
  373HO4    HW1 1490   2.032   5.391   0.930
  373HO4    HW2 1491   2.020   5.399   0.767
  373HO4     MW 1492   1.995   5.444   0.853
  374HO4     OW 1493   2.999   0.957   4.764
  374HO4    HW1 1494   3.092   0.960   4.725
  374HO4    HW2 1495   2.973   0.861   4.777
  374HO4     MW 1496   2.999   0.957   4.764
  375HO4     OW 1497   4.160   5.376   4.556
  375HO4    HW1 1498   4.256   5.397   4.577
  375HO4    HW2 1499   4.126   5.441   4.488
  375HO4     MW 1500   4.160   5.376   4.556
  376HO4     OW 1501   4.251   5.307   4.082
  376HO4    HW1 1502   4.301   5.317   3.995
  376HO4    HW2 1503   4.317   5.302   4.157
  376HO4     MW 1504   4.251   5.307   4.082
  377HO4     OW 1505   2.967   4.543   3.817
  377HO4    HW1 1506   2.945   4.474   3.747
  377HO4    HW2 1507   3.024   4.615   3.777
  377HO4     MW 1508   2.967   4.543   3.817
  378HO4     OW 1509   0.510   3.923   3.735
  378HO4    HW1 1510   0.547   3.921   3.829
  378HO4    HW2 1511   0.501   4.019   3.705
  378HO4     MW 1512   0.510   3.923   3.735
  379HO4     OW 1513   3.506   4.889   1.887
  379HO4    HW1 1514   3.532   4.954   1.959
  379HO4    HW2 1515   3.440   4.932   1.825
  379HO4     MW 1516   3.506   4.889   1.887
  380HO4     OW 1517   1.945   1.293   4.976
  380HO4    HW1 1518   1.960   1.391   4.961
  380HO4    HW2 1519   1.848   1.271   4.961
  380HO4     MW 1520   1.945   1.293   4.976
  381HO4     OW 1521   5.214   2.776   3.150
  381HO4    HW1 1522   5.166   2.755   3.236
  381HO4    HW2 1523   5.172   2.724   3.075
  381HO4     MW 1524   5.214   2.776   3.150
  382HO4     OW 1525   0.608   2.263   3.620
  382HO4    HW1 1526   0.575   2.348   3.578
  382HO4    HW2 1527   0.541   2.231   3.688
  382HO4     MW 1528   0.608   2.263   3.620
  383HO4     OW 1529   0.559   3.928   4.753
  383HO4    HW1 1530   0.479   3.947   4.810
  383HO4    HW2 1531   0.571   3.829   4.744
  383HO4     MW 1532   0.559   3.928   4.753
  384HO4     OW 1533   4.721   3.425   0.998
  384HO4    HW1 1534   4.798   3.376   0.954
  384HO4    HW2 1535   4.743   3.522   1.005
  384HO4     MW 1536   4.721   3.425   0.998
  385HO4     OW 1537   1.642   4.208   3.093
  385HO4    HW1 1538   1.722   4.153   3.121
  385HO4    HW2 1539   1.660   4.249   3.003
  385HO4     MW 1540   1.642   4.208   3.093
  386HO4     OW 1541   2.027   5.373   4.803
  386HO4    HW1 1542   2.033   5.415   4.712
  386HO4    HW2 1543   2.118   5.365   4.843
  386HO4     MW 1544   2.027   5.373   4.803
  387HO4     OW 1545   0.969   1.210   0.362
  387HO4    HW1 1546   0.901   1.137   0.363
  387HO4    HW2 1547   1.061   1.170   0.354
  387HO4     MW 1548   0.969   1.210   0.362
  388HO4     OW 1549   2.502   1.192   2.992
  388HO4    HW1 1550   2.403   1.182   2.980
  388HO4    HW2 1551   2.526   1.172   3.087
  388HO4     MW 1552   2.502   1.192   2.992
  389HO4     OW 1553   3.703   1.314   1.737
  389HO4    HW1 1554   3.654   1.343   1.654
  389HO4    HW2 1555   3.661   1.356   1.817
  389HO4     MW 1556   3.703   1.314   1.737
  390HO4     OW 1557   5.269   2.694   0.843
  390HO4    HW1 1558   5.183   2.643   0.830
  390HO4    HW2 1559   5.345   2.629   0.854
  390HO4     MW 1560   5.269   2.694   0.843
  391HO4     OW 1561   3.335   0.022   4.394
  391HO4    HW1 1562   3.374  -0.067   4.372
  391HO4    HW2 1563   3.319   0.029   4.493
  391HO4     MW 1564   3.335   0.022   4.394
  392HO4     OW 1565   4.516   3.213   1.296
  392HO4    HW1 1566   4.445   3.179   1.235
  392HO4    HW2 1567   4.549   3.138   1.354
  392HO4     MW 1568   4.516   3.213   1.296
  393HO4     OW 1569   2.929   0.995   2.769
  393HO4    HW1 1570   2.975   1.067   2.716
  393HO4    HW2 1571   2.942   1.013   2.867
  393HO4     MW 1572   2.929   0.995   2.769
  394HO4     OW 1573   0.875   4.494   3.252
  394HO4    HW1 1574   0.847   4.400   3.231
  394HO4    HW2 1575   0.932   4.495   3.334
  394HO4     MW 1576   0.875   4.494   3.252
  395HO4     OW 1577   5.035   4.450   0.281
  395HO4    HW1 1578   5.052   4.436   0.379
  395HO4    HW2 1579   5.092   4.387   0.228
  395HO4     MW 1580   5.035   4.450   0.281
  396HO4     OW 1581   1.461   1.390   3.379
  396HO4    HW1 1582   1.415   1.479   3.385
  396HO4    HW2 1583   1.448   1.352   3.287
  396HO4     MW 1584   1.461   1.390   3.379
  397HO4     OW 1585   0.249   3.088   2.385
  397HO4    HW1 1586   0.174   3.034   2.346
  397HO4    HW2 1587   0.336   3.048   2.357
  397HO4     MW 1588   0.249   3.088   2.385
  398HO4     OW 1589   2.178   2.284   3.648
  398HO4    HW1 1590   2.137   2.342   3.577
  398HO4    HW2 1591   2.257   2.236   3.610
  398HO4     MW 1592   2.178   2.284   3.648
  399HO4     OW 1593   3.159   2.738   0.359
  399HO4    HW1 1594   3.110   2.710   0.277
  399HO4    HW2 1595   3.128   2.684   0.437
  399HO4     MW 1596   3.159   2.738   0.359
  400HO4     OW 1597   0.464   2.042   5.101
  400HO4    HW1 1598   0.462   1.944   5.079
  400HO4    HW2 1599   0.480   2.054   5.200
  400HO4     MW 1600   0.464   2.042   5.101
  401HO4     OW 1601   0.615   1.790   2.941
  401HO4    HW1 1602   0.713   1.806   2.956
  401HO4    HW2 1603   0.585   1.712   2.997
  401HO4     MW 1604   0.615   1.790   2.941
  402HO4     OW 1605   2.038   4.507   0.732
  402HO4    HW1 1606   2.048   4.566   0.812
  402HO4    HW2 1607   2.069   4.556   0.650
  402HO4     MW 1608   2.038   4.507   0.732
  403HO4     OW 1609   4.331   3.694   3.558
  403HO4    HW1 1610   4.407   3.738   3.510
  403HO4    HW2 1611   4.334   3.595   3.541
  403HO4     MW 1612   4.331   3.694   3.558
  404HO4     OW 1613   4.932   0.435   1.660
  404HO4    HW1 1614   4.929   0.373   1.739
  404HO4    HW2 1615   4.907   0.385   1.577
  404HO4     MW 1616   4.932   0.435   1.660
  405HO4     OW 1617   2.055   0.121   1.928
  405HO4    HW1 1618   2.047   0.054   1.854
  405HO4    HW2 1619   2.038   0.076   2.016
  405HO4     MW 1620   2.055   0.121   1.928
  406HO4     OW 1621   0.628   4.087   2.484
  406HO4    HW1 1622   0.574   4.087   2.399
  406HO4    HW2 1623   0.589   4.021   2.548
  406HO4     MW 1624   0.628   4.087   2.484
  407HO4     OW 1625   2.676   2.019   2.416
  407HO4    HW1 1626   2.730   2.025   2.500
  407HO4    HW2 1627   2.736   1.996   2.339
  407HO4     MW 1628   2.676   2.019   2.416
  408HO4     OW 1629   1.452   4.097   3.387
  408HO4    HW1 1630   1.497   4.008   3.399
  408HO4    HW2 1631   1.431   4.111   3.290
  408HO4     MW 1632   1.452   4.097   3.387
  409HO4     OW 1633   3.986   1.233   2.866
  409HO4    HW1 1634   4.086   1.235   2.874
  409HO4    HW2 1635   3.960   1.228   2.769
  409HO4     MW 1636   3.986   1.233   2.866
  410HO4     OW 1637   2.927   0.978   3.381
  410HO4    HW1 1638   2.909   0.901   3.443
  410HO4    HW2 1639   2.995   1.040   3.423
  410HO4     MW 1640   2.927   0.978   3.381
  411HO4     OW 1641   5.419   3.990   4.217
  411HO4    HW1 1642   5.338   3.945   4.255
  411HO4    HW2 1643   5.405   4.009   4.120
  411HO4     MW 1644   5.419   3.990   4.217
  412HO4     OW 1645   0.629   3.096   2.440
  412HO4    HW1 1646   0.579   3.029   2.496
  412HO4    HW2 1647   0.575   3.117   2.357
  412HO4     MW 1648   0.629   3.096   2.440
  413HO4     OW 1649   2.955   5.449   1.845
  413HO4    HW1 1650   2.991   5.375   1.904
  413HO4    HW2 1651   3.032   5.494   1.798
  413HO4     MW 1652   2.955   5.449   1.845
  414HO4     OW 1653   2.091   0.762   4.575
  414HO4    HW1 1654   2.108   0.699   4.498
  414HO4    HW2 1655   2.149   0.736   4.653
  414HO4     MW 1656   2.091   0.762   4.575
  415HO4     OW 1657   0.339   4.332   3.472
  415HO4    HW1 1658   0.439   4.340   3.464
  415HO4    HW2 1659   0.309   4.244   3.435
  415HO4     MW 1660   0.339   4.332   3.472
  416HO4     OW 1661   2.806   3.707   4.932
  416HO4    HW1 1662   2.857   3.680   5.014
  416HO4    HW2 1663   2.859   3.680   4.850
  416HO4     MW 1664   2.806   3.707   4.932
  417HO4     OW 1665   0.288   3.298   0.993
  417HO4    HW1 1666   0.258   3.262   1.082
  417HO4    HW2 1667   0.216   3.283   0.925
  417HO4     MW 1668   0.288   3.298   0.993
  418HO4     OW 1669   2.608   2.668   3.629
  418HO4    HW1 1670   2.507   2.673   3.625
  418HO4    HW2 1671   2.644   2.631   3.543
  418HO4     MW 1672   2.608   2.668   3.629
  419HO4     OW 1673   0.690   5.172   1.722
  419HO4    HW1 1674   0.678   5.208   1.629
  419HO4    HW2 1675   0.669   5.244   1.789
  419HO4     MW 1676   0.690   5.172   1.722
  420HO4     OW 1677   0.555   4.852   0.433
  420HO4    HW1 1678   0.506   4.904   0.363
  420HO4    HW2 1679   0.526   4.883   0.524
  420HO4     MW 1680   0.555   4.852   0.433
  421HO4     OW 1681   0.725   1.760   1.057
  421HO4    HW1 1682   0.749   1.714   1.143
  421HO4    HW2 1683   0.702   1.856   1.075
  421HO4     MW 1684   0.725   1.760   1.057
  422HO4     OW 1685   1.162   4.572   3.766
  422HO4    HW1 1686   1.198   4.650   3.818
  422HO4    HW2 1687   1.206   4.569   3.676
  422HO4     MW 1688   1.162   4.572   3.766
  423HO4     OW 1689   3.066   2.744   4.887
  423HO4    HW1 1690   3.037   2.658   4.931
  423HO4    HW2 1691   3.023   2.821   4.935
  423HO4     MW 1692   3.066   2.744   4.887
  424HO4     OW 1693   1.983   2.599   4.204
  424HO4    HW1 1694   1.954   2.680   4.257
  424HO4    HW2 1695   1.921   2.586   4.126
  424HO4     MW 1696   1.983   2.599   4.204
  425HO4     OW 1697   3.693   2.484   4.622
  425HO4    HW1 1698   3.755   2.413   4.586
  425HO4    HW2 1699   3.733   2.523   4.706
  425HO4     MW 1700   3.693   2.484   4.622
  426HO4     OW 1701   4.732   1.009   1.154
  426HO4    HW1 1702   4.673   1.023   1.075
  426HO4    HW2 1703   4.679   0.967   1.229
  426HO4     MW 1704   4.732   1.009   1.154
  427HO4     OW 1705   1.084   2.604   1.175
  427HO4    HW1 1706   1.146   2.619   1.097
  427HO4    HW2 1707   1.061   2.506   1.180
  427HO4     MW 1708   1.084   2.604   1.175
  428HO4     OW 1709   1.239   1.042   1.804
  428HO4    HW1 1710   1.290   1.015   1.721
  428HO4    HW2 1711   1.290   1.014   1.885
  428HO4     MW 1712   1.239   1.042   1.804
  429HO4     OW 1713   3.591   2.777   1.939
  429HO4    HW1 1714   3.496   2.786   1.970
  429HO4    HW2 1715   3.607   2.683   1.907
  429HO4     MW 1716   3.591   2.777   1.939
  430HO4     OW 1717   3.859   1.090   1.530
  430HO4    HW1 1718   3.813   1.169   1.573
  430HO4    HW2 1719   3.955   1.089   1.558
  430HO4     MW 1720   3.859   1.090   1.530
  431HO4     OW 1721   2.153   2.499   0.611
  431HO4    HW1 1722   2.074   2.484   0.672
  431HO4    HW2 1723   2.205   2.413   0.604
  431HO4     MW 1724   2.153   2.499   0.611
  432HO4     OW 1725   5.336   1.956   3.678
  432HO4    HW1 1726   5.316   1.859   3.699
  432HO4    HW2 1727   5.435   1.971   3.682
  432HO4     MW 1728   5.336   1.956   3.678
  433HO4     OW 1729   3.165   4.696   4.452
  433HO4    HW1 1730   3.115   4.775   4.418
  433HO4    HW2 1731   3.230   4.665   4.383
  433HO4     MW 1732   3.165   4.696   4.452
  434HO4     OW 1733   3.168   1.036   2.369
  434HO4    HW1 1734   3.113   0.993   2.296
  434HO4    HW2 1735   3.107   1.068   2.442
  434HO4     MW 1736   3.168   1.036   2.369
  435HO4     OW 1737   3.845   2.004   4.100
  435HO4    HW1 1738   3.893   2.034   4.183
  435HO4    HW2 1739   3.909   2.006   4.022
  435HO4     MW 1740   3.845   2.004   4.100
  436HO4     OW 1741   3.495   5.143   3.073
  436HO4    HW1 1742   3.451   5.233   3.079
  436HO4    HW2 1743   3.497   5.101   3.165
  436HO4     MW 1744   3.495   5.143   3.073
  437HO4     OW 1745   3.177   4.292   4.780
  437HO4    HW1 1746   3.247   4.305   4.709
  437HO4    HW2 1747   3.219   4.255   4.863
  437HO4     MW 1748   3.177   4.292   4.780
  438HO4     OW 1749   4.070   5.266   1.775
  438HO4    HW1 1750   4.114   5.321   1.703
  438HO4    HW2 1751   4.116   5.283   1.863
  438HO4     MW 1752   4.070   5.266   1.775
  439HO4     OW 1753   3.692   1.447   2.024
  439HO4    HW1 1754   3.732   1.505   2.096
  439HO4    HW2 1755   3.753   1.447   1.944
  439HO4     MW 1756   3.692   1.447   2.024
  440HO4     OW 1757   1.842   3.610   0.070
  440HO4    HW1 1758   1.841   3.515   0.104
  440HO4    HW2 1759   1.818   3.611  -0.027
  440HO4     MW 1760   1.842   3.610   0.070
  441HO4     OW 1761   4.428   1.054   4.109
  441HO4    HW1 1762   4.499   0.983   4.112
  441HO4    HW2 1763   4.360   1.031   4.038
  441HO4     MW 1764   4.428   1.054   4.109
  442HO4     OW 1765   5.384   0.751   2.460
  442HO4    HW1 1766   5.331   0.667   2.470
  442HO4    HW2 1767   5.370   0.810   2.540
  442HO4     MW 1768   5.384   0.751   2.460
  443HO4     OW 1769   0.448   2.611   0.725
  443HO4    HW1 1770   0.471   2.557   0.807
  443HO4    HW2 1771   0.525   2.672   0.703
  443HO4     MW 1772   0.448   2.611   0.725
  444HO4     OW 1773   3.277   1.664   3.636
  444HO4    HW1 1774   3.204   1.691   3.700
  444HO4    HW2 1775   3.345   1.737   3.630
  444HO4     MW 1776   3.277   1.664   3.636
  445HO4     OW 1777   4.413   1.745   0.615
  445HO4    HW1 1778   4.427   1.653   0.654
  445HO4    HW2 1779   4.480   1.760   0.541
  445HO4     MW 1780   4.413   1.745   0.615
  446HO4     OW 1781   3.277   1.709   0.774
  446HO4    HW1 1782   3.312   1.660   0.855
  446HO4    HW2 1783   3.190   1.668   0.745
  446HO4     MW 1784   3.277   1.709   0.774
  447HO4     OW 1785   1.407   1.954   2.708
  447HO4    HW1 1786   1.443   1.915   2.794
  447HO4    HW2 1787   1.474   1.939   2.634
  447HO4     MW 1788   1.407   1.954   2.708
  448HO4     OW 1789   3.472   1.128   4.226
  448HO4    HW1 1790   3.480   1.228   4.232
  448HO4    HW2 1791   3.421   1.094   4.306
  448HO4     MW 1792   3.472   1.128   4.226
  449HO4     OW 1793   5.249   0.802   3.444
  449HO4    HW1 1794   5.262   0.876   3.511
  449HO4    HW2 1795   5.337   0.756   3.428
  449HO4     MW 1796   5.249   0.802   3.444
  450HO4     OW 1797   1.969   5.069   4.173
  450HO4    HW1 1798   2.033   5.120   4.231
  450HO4    HW2 1799   1.951   5.122   4.089
  450HO4     MW 1800   1.969   5.069   4.173
  451HO4     OW 1801   4.811   3.715   5.477
  451HO4    HW1 1802   4.838   3.648   5.407
  451HO4    HW2 1803   4.737   3.676   5.533
  451HO4     MW 1804   4.811   3.715   5.477
  452HO4     OW 1805   4.033   1.247   4.634
  452HO4    HW1 1806   4.062   1.276   4.726
  452HO4    HW2 1807   4.097   1.286   4.566
  452HO4     MW 1808   4.033   1.247   4.634
  453HO4     OW 1809   4.144   0.788   4.181
  453HO4    HW1 1810   4.126   0.697   4.221
  453HO4    HW2 1811   4.228   0.785   4.126
  453HO4     MW 1812   4.144   0.788   4.181
  454HO4     OW 1813   4.258   2.228   4.108
  454HO4    HW1 1814   4.231   2.151   4.166
  454HO4    HW2 1815   4.179   2.287   4.092
  454HO4     MW 1816   4.258   2.228   4.108
  455HO4     OW 1817   1.892   5.453   1.063
  455HO4    HW1 1818   1.799   5.491   1.068
  455HO4    HW2 1819   1.895   5.366   1.113
  455HO4     MW 1820   1.892   5.453   1.063
  456HO4     OW 1821   1.074   3.311   2.532
  456HO4    HW1 1822   1.028   3.263   2.608
  456HO4    HW2 1823   1.005   3.359   2.477
  456HO4     MW 1824   1.074   3.311   2.532
  457HO4     OW 1825   4.474   4.299   2.088
  457HO4    HW1 1826   4.456   4.398   2.090
  457HO4    HW2 1827   4.555   4.281   2.032
  457HO4     MW 1828   4.474   4.299   2.088
  458HO4     OW 1829   5.456   4.321   0.821
  458HO4    HW1 1830   5.411   4.366   0.744
  458HO4    HW2 1831   5.410   4.346   0.907
  458HO4     MW 1832   5.456   4.321   0.821
  459HO4     OW 1833   4.922   4.217   2.869
  459HO4    HW1 1834   4.893   4.128   2.834
  459HO4    HW2 1835   4.911   4.219   2.969
  459HO4     MW 1836   4.922   4.217   2.869
  460HO4     OW 1837   1.255   3.885   5.451
  460HO4    HW1 1838   1.307   3.814   5.500
  460HO4    HW2 1839   1.308   3.970   5.449
  460HO4     MW 1840   1.255   3.885   5.451
  461HO4     OW 1841   2.391   5.300   4.029
  461HO4    HW1 1842   2.452   5.251   3.966
  461HO4    HW2 1843   2.402   5.263   4.122
  461HO4     MW 1844   2.391   5.300   4.029
  462HO4     OW 1845   3.955   0.204   2.405
  462HO4    HW1 1846   3.867   0.156   2.411
  462HO4    HW2 1847   4.026   0.148   2.450
  462HO4     MW 1848   3.955   0.204   2.405
  463HO4     OW 1849   1.632   4.520   4.556
  463HO4    HW1 1850   1.719   4.563   4.581
  463HO4    HW2 1851   1.570   4.590   4.517
  463HO4     MW 1852   1.632   4.520   4.556
  464HO4     OW 1853   4.898   0.432   0.920
  464HO4    HW1 1854   4.799   0.432   0.903
  464HO4    HW2 1855   4.920   0.360   0.987
  464HO4     MW 1856   4.898   0.432   0.920
  465HO4     OW 1857   4.748   4.887   3.288
  465HO4    HW1 1858   4.676   4.826   3.320
  465HO4    HW2 1859   4.726   4.921   3.196
  465HO4     MW 1860   4.748   4.887   3.288
  466HO4     OW 1861   4.297   1.514   2.211
  466HO4    HW1 1862   4.347   1.478   2.131
  466HO4    HW2 1863   4.318   1.458   2.292
  466HO4     MW 1864   4.297   1.514   2.211
  467HO4     OW 1865   0.177   4.712   0.763
  467HO4    HW1 1866   0.106   4.734   0.695
  467HO4    HW2 1867   0.142   4.642   0.826
  467HO4     MW 1868   0.177   4.712   0.763
  468HO4     OW 1869   3.496   3.152   5.433
  468HO4    HW1 1870   3.514   3.197   5.345
  468HO4    HW2 1871   3.578   3.157   5.491
  468HO4     MW 1872   3.496   3.152   5.433
  469HO4     OW 1873   1.029   2.327   2.748
  469HO4    HW1 1874   1.070   2.250   2.698
  469HO4    HW2 1875   0.971   2.291   2.822
  469HO4     MW 1876   1.029   2.327   2.748
  470HO4     OW 1877   1.228   0.511   3.255
  470HO4    HW1 1878   1.224   0.537   3.158
  470HO4    HW2 1879   1.317   0.538   3.293
  470HO4     MW 1880   1.228   0.511   3.255
  471HO4     OW 1881   1.446   4.780   3.020
  471HO4    HW1 1882   1.389   4.812   3.097
  471HO4    HW2 1883   1.388   4.765   2.939
  471HO4     MW 1884   1.446   4.780   3.020
  472HO4     OW 1885   2.758   1.309   1.322
  472HO4    HW1 1886   2.682   1.311   1.388
  472HO4    HW2 1887   2.775   1.401   1.287
  472HO4     MW 1888   2.758   1.309   1.322
  473HO4     OW 1889   1.356   0.949   3.770
  473HO4    HW1 1890   1.260   0.962   3.796
  473HO4    HW2 1891   1.392   0.867   3.815
  473HO4     MW 1892   1.356   0.949   3.770
  474HO4     OW 1893   1.404   4.792   0.840
  474HO4    HW1 1894   1.433   4.759   0.930
  474HO4    HW2 1895   1.481   4.785   0.775
  474HO4     MW 1896   1.404   4.792   0.840
  475HO4     OW 1897   2.675   2.629   1.983
  475HO4    HW1 1898   2.670   2.531   2.005
  475HO4    HW2 1899   2.770   2.660   1.990
  475HO4     MW 1900   2.675   2.629   1.983
  476HO4     OW 1901   3.387   3.393   3.447
  476HO4    HW1 1902   3.413   3.447   3.367
  476HO4    HW2 1903   3.316   3.327   3.422
  476HO4     MW 1904   3.387   3.393   3.447
  477HO4     OW 1905   3.261   2.227   0.350
  477HO4    HW1 1906   3.219   2.208   0.261
  477HO4    HW2 1907   3.249   2.325   0.372
  477HO4     MW 1908   3.261   2.227   0.350
  478HO4     OW 1909   4.501   2.557   0.640
  478HO4    HW1 1910   4.462   2.551   0.732
  478HO4    HW2 1911   4.427   2.567   0.573
  478HO4     MW 1912   4.501   2.557   0.640
  479HO4     OW 1913   1.263   0.260   0.715
  479HO4    HW1 1914   1.226   0.270   0.808
  479HO4    HW2 1915   1.297   0.349   0.683
  479HO4     MW 1916   1.263   0.260   0.715
  480HO4     OW 1917   1.087   4.097   0.313
  480HO4    HW1 1918   1.141   4.083   0.397
  480HO4    HW2 1919   1.103   4.190   0.279
  480HO4     MW 1920   1.087   4.097   0.313
  481HO4     OW 1921   0.137   3.714   4.307
  481HO4    HW1 1922   0.215   3.737   4.366
  481HO4    HW2 1923   0.140   3.616   4.283
  481HO4     MW 1924   0.137   3.714   4.307
  482HO4     OW 1925   5.045   1.343   2.566
  482HO4    HW1 1926   5.051   1.292   2.652
  482HO4    HW2 1927   5.014   1.282   2.493
  482HO4     MW 1928   5.045   1.343   2.566
  483HO4     OW 1929   4.325   3.714   1.366
  483HO4    HW1 1930   4.319   3.675   1.273
  483HO4    HW2 1931   4.263   3.664   1.427
  483HO4     MW 1932   4.325   3.714   1.366
  484HO4     OW 1933   1.874   1.025   3.460
  484HO4    HW1 1934   1.813   1.008   3.538
  484HO4    HW2 1935   1.911   1.119   3.467
  484HO4     MW 1936   1.874   1.025   3.460
  485HO4     OW 1937   3.116   0.668   0.745
  485HO4    HW1 1938   3.017   0.680   0.727
  485HO4    HW2 1939   3.137   0.570   0.750
  485HO4     MW 1940   3.116   0.668   0.745
  486HO4     OW 1941   0.904   4.037   3.742
  486HO4    HW1 1942   0.978   4.025   3.809
  486HO4    HW2 1943   0.884   4.135   3.731
  486HO4     MW 1944   0.904   4.037   3.742
  487HO4     OW 1945   1.259   4.601   0.378
  487HO4    HW1 1946   1.250   4.624   0.281
  487HO4    HW2 1947   1.336   4.653   0.418
  487HO4     MW 1948   1.259   4.601   0.378
  488HO4     OW 1949   3.003   1.972   3.431
  488HO4    HW1 1950   2.916   1.985   3.479
  488HO4    HW2 1951   3.053   2.059   3.428
  488HO4     MW 1952   3.003   1.972   3.431
  489HO4     OW 1953   0.095   4.899   3.372
  489HO4    HW1 1954   0.034   4.935   3.443
  489HO4    HW2 1955   0.045   4.834   3.314
  489HO4     MW 1956   0.095   4.899   3.372
  490HO4     OW 1957   3.426   1.106   0.972
  490HO4    HW1 1958   3.458   1.033   0.911
  490HO4    HW2 1959   3.363   1.166   0.922
  490HO4     MW 1960   3.426   1.106   0.972
  491HO4     OW 1961   3.526   4.826   4.351
  491HO4    HW1 1962   3.618   4.788   4.343
  491HO4    HW2 1963   3.471   4.768   4.412
  491HO4     MW 1964   3.526   4.826   4.351
  492HO4     OW 1965   3.101   3.202   0.235
  492HO4    HW1 1966   3.119   3.116   0.187
  492HO4    HW2 1967   3.130   3.193   0.331
  492HO4     MW 1968   3.101   3.202   0.235
  493HO4     OW 1969   3.077   2.299   2.831
  493HO4    HW1 1970   3.033   2.281   2.919
  493HO4    HW2 1971   3.067   2.396   2.807
  493HO4     MW 1972   3.077   2.299   2.831
  494HO4     OW 1973   4.253   2.038   4.967
  494HO4    HW1 1974   4.225   2.134   4.957
  494HO4    HW2 1975   4.226   2.005   5.058
  494HO4     MW 1976   4.253   2.038   4.967
  495HO4     OW 1977   4.813   0.968   3.916
  495HO4    HW1 1978   4.750   0.992   3.841
  495HO4    HW2 1979   4.887   0.911   3.879
  495HO4     MW 1980   4.813   0.968   3.916
  496HO4     OW 1981   2.177   5.445   1.455
  496HO4    HW1 1982   2.179   5.418   1.551
  496HO4    HW2 1983   2.226   5.376   1.400
  496HO4     MW 1984   2.177   5.445   1.455
  497HO4     OW 1985   5.331   3.878   3.900
  497HO4    HW1 1986   5.308   3.923   3.814
  497HO4    HW2 1987   5.314   3.941   3.977
  497HO4     MW 1988   5.331   3.878   3.900
  498HO4     OW 1989   0.307   2.463   4.760
  498HO4    HW1 1990   0.246   2.491   4.835
  498HO4    HW2 1991   0.279   2.508   4.675
  498HO4     MW 1992   0.307   2.463   4.760
  499HO4     OW 1993   0.325   2.513   0.020
  499HO4    HW1 1994   0.342   2.445   0.091
  499HO4    HW2 1995   0.226   2.529   0.012
  499HO4     MW 1996   0.325   2.513   0.020
  500HO4     OW 1997   0.419   2.742   1.764
  500HO4    HW1 1998   0.447   2.646   1.779
  500HO4    HW2 1999   0.373   2.749   1.675
  500HO4     MW 2000   0.419   2.742   1.764
  501HO4     OW 2001   1.615   4.677   1.417
  501HO4    HW1 2002   1.646   4.651   1.509
  501HO4    HW2 2003   1.643   4.607   1.351
  501HO4     MW 2004   1.615   4.677   1.417
  502HO4     OW 2005   2.064   3.830   4.720
  502HO4    HW1 2006   2.141   3.869   4.770
  502HO4    HW2 2007   1.980   3.839   4.775
  502HO4     MW 2008   2.064   3.830   4.720
  503HO4     OW 2009   3.948   1.571   4.112
  503HO4    HW1 2010   3.977   1.667   4.120
  503HO4    HW2 2011   3.873   1.554   4.177
  503HO4     MW 2012   3.948   1.571   4.112
  504HO4     OW 2013   2.078   3.122   0.667
  504HO4    HW1 2014   2.022   3.039   0.677
  504HO4    HW2 2015   2.026   3.190   0.614
  504HO4     MW 2016   2.078   3.122   0.667
  505HO4     OW 2017   4.629   4.353   2.643
  505HO4    HW1 2018   4.589   4.368   2.552
  505HO4    HW2 2019   4.556   4.338   2.710
  505HO4     MW 2020   4.629   4.353   2.643
  506HO4     OW 2021   3.761   2.547   5.324
  506HO4    HW1 2022   3.758   2.543   5.424
  506HO4    HW2 2023   3.685   2.493   5.286
  506HO4     MW 2024   3.761   2.547   5.324
  507HO4     OW 2025   1.046   2.505   3.050
  507HO4    HW1 2026   1.106   2.556   3.112
  507HO4    HW2 2027   1.086   2.414   3.032
  507HO4     MW 2028   1.046   2.505   3.050
  508HO4     OW 2029   4.120   0.521   3.427
  508HO4    HW1 2030   4.073   0.610   3.421
  508HO4    HW2 2031   4.157   0.509   3.519
  508HO4     MW 2032   4.120   0.521   3.427
  509HO4     OW 2033   3.759   0.815   4.579
  509HO4    HW1 2034   3.720   0.726   4.554
  509HO4    HW2 2035   3.740   0.881   4.505
  509HO4     MW 2036   3.759   0.815   4.579
  510HO4     OW 2037   0.025   0.721   0.080
  510HO4    HW1 2038   0.001   0.624   0.069
  510HO4    HW2 2039  -0.038   0.778   0.025
  510HO4     MW 2040   0.025   0.721   0.080
  511HO4     OW 2041   4.558   0.341   2.317
  511HO4    HW1 2042   4.592   0.382   2.402
  511HO4    HW2 2043   4.589   0.395   2.238
  511HO4     MW 2044   4.558   0.341   2.317
  512HO4     OW 2045   1.492   0.217   4.652
  512HO4    HW1 2046   1.560   0.287   4.628
  512HO4    HW2 2047   1.537   0.129   4.666
  512HO4     MW 2048   1.492   0.217   4.652
  513HO4     OW 2049   4.265   3.842   3.204
  513HO4    HW1 2050   4.195   3.912   3.188
  513HO4    HW2 2051   4.293   3.844   3.301
  513HO4     MW 2052   4.265   3.842   3.204
  514HO4     OW 2053   0.698   4.244   4.098
  514HO4    HW1 2054   0.695   4.299   4.182
  514HO4    HW2 2055   0.759   4.288   4.031
  514HO4     MW 2056   0.698   4.244   4.098
  515HO4     OW 2057   0.520   4.434   0.518
  515HO4    HW1 2058   0.498   4.522   0.561
  515HO4    HW2 2059   0.619   4.425   0.508
  515HO4     MW 2060   0.520   4.434   0.518
  516HO4     OW 2061   4.144   4.122   5.362
  516HO4    HW1 2062   4.199   4.164   5.435
  516HO4    HW2 2063   4.204   4.083   5.292
  516HO4     MW 2064   4.144   4.122   5.362
  517HO4     OW 2065   5.143   2.611   3.717
  517HO4    HW1 2066   5.085   2.667   3.777
  517HO4    HW2 2067   5.116   2.626   3.621
  517HO4     MW 2068   5.143   2.611   3.717
  518HO4     OW 2069   0.416   2.269   4.608
  518HO4    HW1 2070   0.324   2.307   4.592
  518HO4    HW2 2071   0.482   2.343   4.619
  518HO4     MW 2072   0.416   2.269   4.608
  519HO4     OW 2073   2.387   1.625   0.274
  519HO4    HW1 2074   2.310   1.580   0.319
  519HO4    HW2 2075   2.412   1.576   0.190
  519HO4     MW 2076   2.387   1.625   0.274
  520HO4     OW 2077   3.008   3.032   3.701
  520HO4    HW1 2078   2.973   3.020   3.795
  520HO4    HW2 2079   2.977   2.956   3.644
  520HO4     MW 2080   3.008   3.032   3.701
  521HO4     OW 2081   4.427   4.892   5.302
  521HO4    HW1 2082   4.441   4.874   5.204
  521HO4    HW2 2083   4.509   4.862   5.353
  521HO4     MW 2084   4.427   4.892   5.302
  522HO4     OW 2085   0.684   1.411   1.919
  522HO4    HW1 2086   0.674   1.379   1.825
  522HO4    HW2 2087   0.753   1.484   1.923
  522HO4     MW 2088   0.684   1.411   1.919
  523HO4     OW 2089   1.605   5.226   0.368
  523HO4    HW1 2090   1.595   5.148   0.430
  523HO4    HW2 2091   1.573   5.199   0.276
  523HO4     MW 2092   1.605   5.226   0.368
  524HO4     OW 2093   1.353   0.413   3.049
  524HO4    HW1 2094   1.383   0.380   2.959
  524HO4    HW2 2095   1.413   0.377   3.120
  524HO4     MW 2096   1.353   0.413   3.049
  525HO4     OW 2097   3.226   5.044   3.163
  525HO4    HW1 2098   3.253   5.053   3.067
  525HO4    HW2 2099   3.144   4.986   3.170
  525HO4     MW 2100   3.226   5.044   3.163
  526HO4     OW 2101   0.900   0.837   1.444
  526HO4    HW1 2102   0.962   0.776   1.495
  526HO4    HW2 2103   0.832   0.875   1.507
  526HO4     MW 2104   0.900   0.837   1.444
  527HO4     OW 2105   2.585   1.012   2.827
  527HO4    HW1 2106   2.539   1.071   2.761
  527HO4    HW2 2107   2.684   1.016   2.813
  527HO4     MW 2108   2.585   1.012   2.827
  528HO4     OW 2109   4.836   4.333   0.740
  528HO4    HW1 2110   4.847   4.376   0.830
  528HO4    HW2 2111   4.815   4.403   0.671
  528HO4     MW 2112   4.836   4.333   0.740
  529HO4     OW 2113   2.519   1.046   3.267
  529HO4    HW1 2114   2.500   1.034   3.365
  529HO4    HW2 2115   2.437   1.081   3.221
  529HO4     MW 2116   2.519   1.046   3.267
  530HO4     OW 2117   1.369   3.838   3.866
  530HO4    HW1 2118   1.444   3.793   3.817
  530HO4    HW2 2119   1.357   3.795   3.956
  530HO4     MW 2120   1.369   3.838   3.866
  531HO4     OW 2121   3.999   5.259   4.013
  531HO4    HW1 2122   4.033   5.267   4.108
  531HO4    HW2 2123   4.060   5.311   3.952
  531HO4     MW 2124   3.999   5.259   4.013
  532HO4     OW 2125   3.072   4.985   1.795
  532HO4    HW1 2126   3.160   4.962   1.753
  532HO4    HW2 2127   2.998   4.937   1.747
  532HO4     MW 2128   3.072   4.985   1.795
  533HO4     OW 2129   3.119   4.615   0.750
  533HO4    HW1 2130   3.167   4.662   0.675
  533HO4    HW2 2131   3.106   4.679   0.827
  533HO4     MW 2132   3.119   4.615   0.750
  534HO4     OW 2133   5.456   2.833   3.039
  534HO4    HW1 2134   5.424   2.744   3.074
  534HO4    HW2 2135   5.513   2.819   2.957
  534HO4     MW 2136   5.456   2.833   3.039
  535HO4     OW 2137   3.875   1.480   0.614
  535HO4    HW1 2138   3.890   1.408   0.683
  535HO4    HW2 2139   3.859   1.438   0.525
  535HO4     MW 2140   3.875   1.480   0.614
  536HO4     OW 2141   1.540   0.494   5.433
  536HO4    HW1 2142   1.540   0.442   5.519
  536HO4    HW2 2143   1.468   0.459   5.372
  536HO4     MW 2144   1.540   0.494   5.433
  537HO4     OW 2145   4.846   1.527   3.731
  537HO4    HW1 2146   4.780   1.500   3.802
  537HO4    HW2 2147   4.817   1.489   3.642
  537HO4     MW 2148   4.846   1.527   3.731
  538HO4     OW 2149   1.585   3.793   3.089
  538HO4    HW1 2150   1.534   3.746   3.161
  538HO4    HW2 2151   1.528   3.797   3.006
  538HO4     MW 2152   1.585   3.793   3.089
  539HO4     OW 2153   2.732   2.617   0.284
  539HO4    HW1 2154   2.812   2.583   0.334
  539HO4    HW2 2155   2.708   2.709   0.317
  539HO4     MW 2156   2.732   2.617   0.284
  540HO4     OW 2157   0.098   5.107   0.488
  540HO4    HW1 2158  -0.003   5.107   0.484
  540HO4    HW2 2159   0.134   5.133   0.398
  540HO4     MW 2160   0.098   5.107   0.488
  541HO4     OW 2161   1.534   3.739   3.587
  541HO4    HW1 2162   1.548   3.716   3.684
  541HO4    HW2 2163   1.623   3.739   3.540
  541HO4     MW 2164   1.534   3.739   3.587
  542HO4     OW 2165   2.469   3.095   3.950
  542HO4    HW1 2166   2.569   3.089   3.949
  542HO4    HW2 2167   2.430   3.005   3.970
  542HO4     MW 2168   2.469   3.095   3.950
  543HO4     OW 2169   1.309   4.096   5.079
  543HO4    HW1 2170   1.342   4.143   4.997
  543HO4    HW2 2171   1.342   4.143   5.161
  543HO4     MW 2172   1.309   4.096   5.079
  544HO4     OW 2173   5.120   0.582   2.415
  544HO4    HW1 2174   5.216   0.572   2.443
  544HO4    HW2 2175   5.081   0.663   2.459
  544HO4     MW 2176   5.120   0.582   2.415
  545HO4     OW 2177   5.184   5.225   2.995
  545HO4    HW1 2178   5.232   5.304   3.033
  545HO4    HW2 2179   5.210   5.213   2.899
  545HO4     MW 2180   5.184   5.225   2.995
  546HO4     OW 2181   4.341   3.954   2.892
  546HO4    HW1 2182   4.314   4.032   2.948
  546HO4    HW2 2183   4.358   3.984   2.797
  546HO4     MW 2184   4.341   3.954   2.892
  547HO4     OW 2185   2.218   0.580   0.019
  547HO4    HW1 2186   2.256   0.489  -0.002
  547HO4    HW2 2187   2.117   0.576   0.013
  547HO4     MW 2188   2.218   0.580   0.019
  548HO4     OW 2189   1.708   0.268   3.697
  548HO4    HW1 2190   1.632   0.202   3.697
  548HO4    HW2 2191   1.747   0.273   3.790
  548HO4     MW 2192   1.708   0.268   3.697
  549HO4     OW 2193   4.294   1.088   0.998
  549HO4    HW1 2194   4.268   1.076   1.094
  549HO4    HW2 2195   4.256   1.013   0.943
  549HO4     MW 2196   4.294   1.088   0.998
  550HO4     OW 2197   4.554   2.141   2.928
  550HO4    HW1 2198   4.629   2.176   2.871
  550HO4    HW2 2199   4.572   2.045   2.950
  550HO4     MW 2200   4.554   2.141   2.928
  551HO4     OW 2201   0.406   0.174   1.622
  551HO4    HW1 2202   0.501   0.180   1.589
  551HO4    HW2 2203   0.355   0.108   1.566
  551HO4     MW 2204   0.406   0.174   1.622
  552HO4     OW 2205   5.405   3.984   0.892
  552HO4    HW1 2206   5.401   3.943   0.801
  552HO4    HW2 2207   5.318   3.968   0.940
  552HO4     MW 2208   5.405   3.984   0.892
  553HO4     OW 2209   1.057   0.093   0.321
  553HO4    HW1 2210   1.055   0.037   0.237
  553HO4    HW2 2211   1.092   0.038   0.397
  553HO4     MW 2212   1.057   0.093   0.321
  554HO4     OW 2213   0.468   0.833   4.334
  554HO4    HW1 2214   0.457   0.931   4.319
  554HO4    HW2 2215   0.386   0.785   4.300
  554HO4     MW 2216   0.468   0.833   4.334
  555HO4     OW 2217   1.610   3.285   4.779
  555HO4    HW1 2218   1.613   3.358   4.710
  555HO4    HW2 2219   1.691   3.292   4.838
  555HO4     MW 2220   1.610   3.285   4.779
  556HO4     OW 2221   3.245   2.794   1.410
  556HO4    HW1 2222   3.298   2.777   1.493
  556HO4    HW2 2223   3.303   2.778   1.329
  556HO4     MW 2224   3.245   2.794   1.410
  557HO4     OW 2225   4.897   0.166   1.024
  557HO4    HW1 2226   4.919   0.181   0.928
  557HO4    HW2 2227   4.962   0.215   1.082
  557HO4     MW 2228   4.897   0.166   1.024
  558HO4     OW 2229   1.597   4.000   4.002
  558HO4    HW1 2230   1.649   4.007   4.088
  558HO4    HW2 2231   1.660   4.006   3.924
  558HO4     MW 2232   1.597   4.000   4.002
  559HO4     OW 2233   1.225   3.735   2.209
  559HO4    HW1 2234   1.251   3.679   2.289
  559HO4    HW2 2235   1.189   3.823   2.240
  559HO4     MW 2236   1.225   3.735   2.209
  560HO4     OW 2237   3.268   4.535   2.565
  560HO4    HW1 2238   3.347   4.596   2.547
  560HO4    HW2 2239   3.183   4.583   2.543
  560HO4     MW 2240   3.268   4.535   2.565
  561HO4     OW 2241   0.243   5.221   2.976
  561HO4    HW1 2242   0.318   5.280   2.946
  561HO4    HW2 2243   0.279   5.144   3.030
  561HO4     MW 2244   0.243   5.221   2.976
  562HO4     OW 2245   2.593   2.671   0.617
  562HO4    HW1 2246   2.522   2.619   0.570
  562HO4    HW2 2247   2.676   2.673   0.560
  562HO4     MW 2248   2.593   2.671   0.617
  563HO4     OW 2249   5.371  -0.009   4.658
  563HO4    HW1 2250   5.332   0.083   4.667
  563HO4    HW2 2251   5.383  -0.031   4.561
  563HO4     MW 2252   5.371  -0.009   4.658
  564HO4     OW 2253   3.079   0.763   1.012
  564HO4    HW1 2254   3.044   0.775   1.105
  564HO4    HW2 2255   3.036   0.682   0.971
  564HO4     MW 2256   3.079   0.763   1.012
  565HO4     OW 2257   0.654   1.381   4.273
  565HO4    HW1 2258   0.692   1.337   4.191
  565HO4    HW2 2259   0.678   1.326   4.354
  565HO4     MW 2260   0.654   1.381   4.273
  566HO4     OW 2261   4.649   2.758   3.657
  566HO4    HW1 2262   4.642   2.701   3.575
  566HO4    HW2 2263   4.640   2.699   3.739
  566HO4     MW 2264   4.649   2.758   3.657
  567HO4     OW 2265   2.056   3.507   0.289
  567HO4    HW1 2266   2.008   3.495   0.376
  567HO4    HW2 2267   2.015   3.584   0.239
  567HO4     MW 2268   2.056   3.507   0.289
  568HO4     OW 2269   5.088   5.421   1.511
  568HO4    HW1 2270   5.078   5.408   1.412
  568HO4    HW2 2271   5.084   5.332   1.557
  568HO4     MW 2272   5.088   5.421   1.511
  569HO4     OW 2273   2.056   2.358   1.947
  569HO4    HW1 2274   2.123   2.354   1.872
  569HO4    HW2 2275   1.990   2.431   1.929
  569HO4     MW 2276   2.056   2.358   1.947
  570HO4     OW 2277   0.321   0.328   5.146
  570HO4    HW1 2278   0.248   0.389   5.113
  570HO4    HW2 2279   0.280   0.246   5.187
  570HO4     MW 2280   0.321   0.328   5.146
  571HO4     OW 2281   0.942   0.174   0.955
  571HO4    HW1 2282   1.029   0.149   0.912
  571HO4    HW2 2283   0.944   0.147   1.052
  571HO4     MW 2284   0.942   0.174   0.955
  572HO4     OW 2285   4.590   2.073   4.795
  572HO4    HW1 2286   4.525   2.144   4.822
  572HO4    HW2 2287   4.630   2.097   4.706
  572HO4     MW 2288   4.590   2.073   4.795
  573HO4     OW 2289   4.911   3.924   0.561
  573HO4    HW1 2290   4.952   3.947   0.650
  573HO4    HW2 2291   4.816   3.896   0.574
  573HO4     MW 2292   4.911   3.924   0.561
  574HO4     OW 2293   4.640   0.925   4.741
  574HO4    HW1 2294   4.572   0.860   4.777
  574HO4    HW2 2295   4.732   0.892   4.766
  574HO4     MW 2296   4.640   0.925   4.741
  575HO4     OW 2297   3.897   4.947   1.101
  575HO4    HW1 2298   3.916   4.861   1.150
  575HO4    HW2 2299   3.915   4.935   1.003
  575HO4     MW 2300   3.897   4.947   1.101
  576HO4     OW 2301   3.616   0.998   5.347
  576HO4    HW1 2302   3.701   0.960   5.310
  576HO4    HW2 2303   3.632   1.027   5.442
  576HO4     MW 2304   3.616   0.998   5.347
  577HO4     OW 2305   3.495   4.309   1.830
  577HO4    HW1 2306   3.478   4.319   1.732
  577HO4    HW2 2307   3.413   4.338   1.881
  577HO4     MW 2308   3.495   4.309   1.830
  578HO4     OW 2309   4.441   5.231   2.977
  578HO4    HW1 2310   4.411   5.141   2.944
  578HO4    HW2 2311   4.487   5.221   3.066
  578HO4     MW 2312   4.441   5.231   2.977
  579HO4     OW 2313   2.854   0.585   4.556
  579HO4    HW1 2314   2.770   0.621   4.516
  579HO4    HW2 2315   2.834   0.537   4.641
  579HO4     MW 2316   2.854   0.585   4.556
  580HO4     OW 2317   3.103   4.382   2.952
  580HO4    HW1 2318   3.150   4.455   3.003
  580HO4    HW2 2319   3.168   4.341   2.887
  580HO4     MW 2320   3.103   4.382   2.952
  581HO4     OW 2321   0.228   0.900   5.474
  581HO4    HW1 2322   0.212   0.855   5.386
  581HO4    HW2 2323   0.141   0.937   5.509
  581HO4     MW 2324   0.228   0.900   5.474
  582HO4     OW 2325   4.333   1.410   3.635
  582HO4    HW1 2326   4.409   1.442   3.693
  582HO4    HW2 2327   4.354   1.318   3.601
  582HO4     MW 2328   4.333   1.410   3.635
  583HO4     OW 2329   1.170   3.216   1.591
  583HO4    HW1 2330   1.130   3.285   1.652
  583HO4    HW2 2331   1.097   3.159   1.552
  583HO4     MW 2332   1.170   3.216   1.591
  584HO4     OW 2333   2.753   0.547   2.629
  584HO4    HW1 2334   2.740   0.485   2.707
  584HO4    HW2 2335   2.731   0.498   2.544
  584HO4     MW 2336   2.753   0.547   2.629
  585HO4     OW 2337   3.759   5.289   1.619
  585HO4    HW1 2338   3.721   5.370   1.572
  585HO4    HW2 2339   3.778   5.217   1.551
  585HO4     MW 2340   3.759   5.289   1.619
  586HO4     OW 2341   0.120   0.637   1.139
  586HO4    HW1 2342   0.177   0.715   1.113
  586HO4    HW2 2343   0.137   0.560   1.077
  586HO4     MW 2344   0.120   0.637   1.139
  587HO4     OW 2345   0.207   0.853   1.695
  587HO4    HW1 2346   0.286   0.839   1.756
  587HO4    HW2 2347   0.239   0.861   1.601
  587HO4     MW 2348   0.207   0.853   1.695
  588HO4     OW 2349   1.052   2.901   2.852
  588HO4    HW1 2350   1.065   2.843   2.771
  588HO4    HW2 2351   1.062   2.846   2.935
  588HO4     MW 2352   1.052   2.901   2.852
  589HO4     OW 2353   2.777   1.116   3.669
  589HO4    HW1 2354   2.723   1.194   3.700
  589HO4    HW2 2355   2.794   1.054   3.746
  589HO4     MW 2356   2.777   1.116   3.669
  590HO4     OW 2357   2.077   1.216   4.108
  590HO4    HW1 2358   2.083   1.309   4.072
  590HO4    HW2 2359   2.069   1.151   4.032
  590HO4     MW 2360   2.077   1.216   4.108
  591HO4     OW 2361   4.599   3.279   4.878
  591HO4    HW1 2362   4.581   3.336   4.959
  591HO4    HW2 2363   4.651   3.332   4.811
  591HO4     MW 2364   4.599   3.279   4.878
  592HO4     OW 2365   1.524   3.229   0.598
  592HO4    HW1 2366   1.537   3.288   0.517
  592HO4    HW2 2367   1.535   3.283   0.681
  592HO4     MW 2368   1.524   3.229   0.598
  593HO4     OW 2369   5.181   1.516   0.389
  593HO4    HW1 2370   5.192   1.578   0.311
  593HO4    HW2 2371   5.190   1.568   0.475
  593HO4     MW 2372   5.181   1.516   0.389
  594HO4     OW 2373   0.501   3.353   3.751
  594HO4    HW1 2374   0.446   3.287   3.698
  594HO4    HW2 2375   0.526   3.430   3.693
  594HO4     MW 2376   0.501   3.353   3.751
  595HO4     OW 2377   4.007   1.254   5.106
  595HO4    HW1 2378   4.100   1.280   5.078
  595HO4    HW2 2379   4.010   1.215   5.198
  595HO4     MW 2380   4.007   1.254   5.106
  596HO4     OW 2381   1.076   1.113   4.333
  596HO4    HW1 2382   1.032   1.028   4.365
  596HO4    HW2 2383   1.091   1.107   4.234
  596HO4     MW 2384   1.076   1.113   4.333
  597HO4     OW 2385   2.008   3.756   1.811
  597HO4    HW1 2386   2.083   3.695   1.783
  597HO4    HW2 2387   1.973   3.727   1.900
  597HO4     MW 2388   2.008   3.756   1.811
  598HO4     OW 2389   4.969   1.971   4.368
  598HO4    HW1 2390   5.057   2.016   4.349
  598HO4    HW2 2391   4.965   1.883   4.319
  598HO4     MW 2392   4.969   1.971   4.368
  599HO4     OW 2393   1.404   3.897   2.773
  599HO4    HW1 2394   1.458   3.816   2.747
  599HO4    HW2 2395   1.465   3.975   2.788
  599HO4     MW 2396   1.404   3.897   2.773
  600HO4     OW 2397   0.254   3.097   5.468
  600HO4    HW1 2398   0.180   3.137   5.523
  600HO4    HW2 2399   0.237   2.999   5.455
  600HO4     MW 2400   0.254   3.097   5.468
  601HO4     OW 2401   2.596   2.253   2.502
  601HO4    HW1 2402   2.654   2.194   2.560
  601HO4    HW2 2403   2.566   2.201   2.421
  601HO4     MW 2404   2.596   2.253   2.502
  602HO4     OW 2405   2.288   3.325   3.116
  602HO4    HW1 2406   2.253   3.408   3.161
  602HO4    HW2 2407   2.228   3.302   3.038
  602HO4     MW 2408   2.288   3.325   3.116
  603HO4     OW 2409   3.184   1.145   3.835
  603HO4    HW1 2410   3.161   1.112   3.927
  603HO4    HW2 2411   3.133   1.092   3.766
  603HO4     MW 2412   3.184   1.145   3.835
  604HO4     OW 2413   0.349   0.420   0.973
  604HO4    HW1 2414   0.335   0.324   0.948
  604HO4    HW2 2415   0.315   0.436   1.067
  604HO4     MW 2416   0.349   0.420   0.973
  605HO4     OW 2417   0.563   4.242   3.059
  605HO4    HW1 2418   0.619   4.318   3.093
  605HO4    HW2 2419   0.556   4.172   3.130
  605HO4     MW 2420   0.563   4.242   3.059
  606HO4     OW 2421   1.302   3.743   0.326
  606HO4    HW1 2422   1.249   3.800   0.389
  606HO4    HW2 2423   1.244   3.716   0.248
  606HO4     MW 2424   1.302   3.743   0.326
  607HO4     OW 2425   2.945   5.301   3.092
  607HO4    HW1 2426   3.013   5.228   3.079
  607HO4    HW2 2427   2.948   5.332   3.187
  607HO4     MW 2428   2.945   5.301   3.092
  608HO4     OW 2429   2.490   3.960   1.516
  608HO4    HW1 2430   2.525   3.901   1.589
  608HO4    HW2 2431   2.486   3.907   1.430
  608HO4     MW 2432   2.490   3.960   1.516
  609HO4     OW 2433   2.308   3.518   5.412
  609HO4    HW1 2434   2.361   3.565   5.341
  609HO4    HW2 2435   2.371   3.475   5.478
  609HO4     MW 2436   2.308   3.518   5.412
  610HO4     OW 2437   2.885   4.953   4.884
  610HO4    HW1 2438   2.912   5.048   4.902
  610HO4    HW2 2439   2.786   4.948   4.866
  610HO4     MW 2440   2.885   4.953   4.884
  611HO4     OW 2441   2.170   5.081   2.168
  611HO4    HW1 2442   2.198   5.113   2.259
  611HO4    HW2 2443   2.249   5.081   2.107
  611HO4     MW 2444   2.170   5.081   2.168
  612HO4     OW 2445   1.734   1.778   1.074
  612HO4    HW1 2446   1.669   1.702   1.085
  612HO4    HW2 2447   1.818   1.743   1.030
  612HO4     MW 2448   1.734   1.778   1.074
  613HO4     OW 2449   1.563   4.097   5.377
  613HO4    HW1 2450   1.597   4.168   5.316
  613HO4    HW2 2451   1.601   4.110   5.469
  613HO4     MW 2452   1.563   4.097   5.377
  614HO4     OW 2453   4.514   2.348   3.818
  614HO4    HW1 2454   4.454   2.349   3.900
  614HO4    HW2 2455   4.457   2.348   3.736
  614HO4     MW 2456   4.514   2.348   3.818
  615HO4     OW 2457   1.651   2.521   0.567
  615HO4    HW1 2458   1.674   2.453   0.497
  615HO4    HW2 2459   1.696   2.495   0.654
  615HO4     MW 2460   1.651   2.521   0.567
  616HO4     OW 2461   0.740   1.274   2.664
  616HO4    HW1 2462   0.752   1.206   2.591
  616HO4    HW2 2463   0.806   1.257   2.737
  616HO4     MW 2464   0.740   1.274   2.664
  617HO4     OW 2465   0.049   4.395   4.028
  617HO4    HW1 2466   0.063   4.446   3.942
  617HO4    HW2 2467   0.061   4.458   4.106
  617HO4     MW 2468   0.049   4.395   4.028
  618HO4     OW 2469   4.615   0.412   4.046
  618HO4    HW1 2470   4.649   0.333   4.097
  618HO4    HW2 2471   4.641   0.497   4.093
  618HO4     MW 2472   4.615   0.412   4.046
  619HO4     OW 2473   2.286   4.416   2.930
  619HO4    HW1 2474   2.318   4.347   2.995
  619HO4    HW2 2475   2.245   4.493   2.980
  619HO4     MW 2476   2.286   4.416   2.930
  620HO4     OW 2477   2.331   0.127   5.030
  620HO4    HW1 2478   2.398   0.191   4.991
  620HO4    HW2 2479   2.301   0.063   4.958
  620HO4     MW 2480   2.331   0.127   5.030
  621HO4     OW 2481   3.019   0.339   0.843
  621HO4    HW1 2482   3.088   0.376   0.906
  621HO4    HW2 2483   2.941   0.402   0.838
  621HO4     MW 2484   3.019   0.339   0.843
  622HO4     OW 2485   3.041   0.858   1.913
  622HO4    HW1 2486   2.979   0.884   1.987
  622HO4    HW2 2487   3.005   0.893   1.826
  622HO4     MW 2488   3.041   0.858   1.913
  623HO4     OW 2489   3.931   3.010   1.104
  623HO4    HW1 2490   3.848   3.003   1.047
  623HO4    HW2 2491   3.904   3.011   1.201
  623HO4     MW 2492   3.931   3.010   1.104
  624HO4     OW 2493   2.694   1.088   4.212
  624HO4    HW1 2494   2.659   1.114   4.122
  624HO4    HW2 2495   2.618   1.061   4.272
  624HO4     MW 2496   2.694   1.088   4.212
  625HO4     OW 2497   1.051   0.161   1.765
  625HO4    HW1 2498   1.107   0.202   1.838
  625HO4    HW2 2499   1.068   0.208   1.679
  625HO4     MW 2500   1.051   0.161   1.765
  626HO4     OW 2501   4.030   0.503   2.442
  626HO4    HW1 2502   3.935   0.482   2.468
  626HO4    HW2 2503   4.035   0.520   2.343
  626HO4     MW 2504   4.030   0.503   2.442
  627HO4     OW 2505   3.290   1.988   3.578
  627HO4    HW1 2506   3.363   2.034   3.528
  627HO4    HW2 2507   3.322   1.965   3.671
  627HO4     MW 2508   3.290   1.988   3.578
  628HO4     OW 2509   2.130   4.891   3.060
  628HO4    HW1 2510   2.181   4.975   3.040
  628HO4    HW2 2511   2.124   4.836   2.976
  628HO4     MW 2512   2.130   4.891   3.060
  629HO4     OW 2513   2.472   4.982   4.937
  629HO4    HW1 2514   2.373   4.968   4.934
  629HO4    HW2 2515   2.516   4.925   4.867
  629HO4     MW 2516   2.472   4.982   4.937
  630HO4     OW 2517   2.976   1.416   2.374
  630HO4    HW1 2518   2.974   1.475   2.293
  630HO4    HW2 2519   2.974   1.473   2.457
  630HO4     MW 2520   2.976   1.416   2.374
  631HO4     OW 2521   0.923   3.600   2.473
  631HO4    HW1 2522   0.895   3.511   2.509
  631HO4    HW2 2523   0.923   3.668   2.547
  631HO4     MW 2524   0.923   3.600   2.473
  632HO4     OW 2525   1.145   0.504   0.996
  632HO4    HW1 2526   1.133   0.593   0.951
  632HO4    HW2 2527   1.188   0.517   1.086
  632HO4     MW 2528   1.145   0.504   0.996
  633HO4     OW 2529   1.925   4.472   4.090
  633HO4    HW1 2530   1.895   4.478   4.186
  633HO4    HW2 2531   1.848   4.443   4.033
  633HO4     MW 2532   1.925   4.472   4.090
  634HO4     OW 2533   1.281   1.315   1.000
  634HO4    HW1 2534   1.210   1.339   0.933
  634HO4    HW2 2535   1.242   1.255   1.070
  634HO4     MW 2536   1.281   1.315   1.000
  635HO4     OW 2537   0.855   2.291   2.131
  635HO4    HW1 2538   0.835   2.193   2.123
  635HO4    HW2 2539   0.949   2.303   2.165
  635HO4     MW 2540   0.855   2.291   2.131
  636HO4     OW 2541   1.838   2.202   1.656
  636HO4    HW1 2542   1.750   2.179   1.615
  636HO4    HW2 2543   1.849   2.153   1.742
  636HO4     MW 2544   1.838   2.202   1.656
  637HO4     OW 2545   1.126   2.298   3.618
  637HO4    HW1 2546   1.111   2.276   3.522
  637HO4    HW2 2547   1.220   2.275   3.644
  637HO4     MW 2548   1.126   2.298   3.618
  638HO4     OW 2549   4.536   0.907   2.072
  638HO4    HW1 2550   4.515   0.824   2.019
  638HO4    HW2 2551   4.631   0.935   2.054
  638HO4     MW 2552   4.536   0.907   2.072
  639HO4     OW 2553   5.245   0.460   4.347
  639HO4    HW1 2554   5.236   0.445   4.446
  639HO4    HW2 2555   5.167   0.515   4.314
  639HO4     MW 2556   5.245   0.460   4.347
  640HO4     OW 2557   5.376   4.969   4.028
  640HO4    HW1 2558   5.352   4.956   3.931
  640HO4    HW2 2559   5.294   4.959   4.084
  640HO4     MW 2560   5.376   4.969   4.028
  641HO4     OW 2561   1.572   1.734   2.401
  641HO4    HW1 2562   1.550   1.754   2.305
  641HO4    HW2 2563   1.487   1.732   2.455
  641HO4     MW 2564   1.572   1.734   2.401
  642HO4     OW 2565   5.292   2.337   5.031
  642HO4    HW1 2566   5.244   2.335   4.943
  642HO4    HW2 2567   5.227   2.316   5.105
  642HO4     MW 2568   5.292   2.337   5.031
  643HO4     OW 2569   0.170   1.172   0.256
  643HO4    HW1 2570   0.187   1.177   0.157
  643HO4    HW2 2571   0.075   1.200   0.275
  643HO4     MW 2572   0.170   1.172   0.256
  644HO4     OW 2573   5.037   1.793   4.182
  644HO4    HW1 2574   5.099   1.778   4.259
  644HO4    HW2 2575   5.089   1.823   4.102
  644HO4     MW 2576   5.037   1.793   4.182
  645HO4     OW 2577   4.632   3.230   1.923
  645HO4    HW1 2578   4.599   3.216   2.017
  645HO4    HW2 2579   4.588   3.164   1.862
  645HO4     MW 2580   4.632   3.230   1.923
  646HO4     OW 2581   3.711   1.992   2.002
  646HO4    HW1 2582   3.689   1.903   1.961
  646HO4    HW2 2583   3.744   1.979   2.096
  646HO4     MW 2584   3.711   1.992   2.002
  647HO4     OW 2585   3.323   1.567   0.254
  647HO4    HW1 2586   3.401   1.522   0.209
  647HO4    HW2 2587   3.335   1.667   0.250
  647HO4     MW 2588   3.323   1.567   0.254
  648HO4     OW 2589   3.145   2.455   3.909
  648HO4    HW1 2590   3.213   2.520   3.872
  648HO4    HW2 2591   3.161   2.444   4.008
  648HO4     MW 2592   3.145   2.455   3.909
  649HO4     OW 2593   3.471   5.327   3.919
  649HO4    HW1 2594   3.453   5.233   3.950
  649HO4    HW2 2595   3.557   5.360   3.961
  649HO4     MW 2596   3.471   5.327   3.919
  650HO4     OW 2597   1.010   1.915   1.642
  650HO4    HW1 2598   1.087   1.935   1.704
  650HO4    HW2 2599   1.006   1.816   1.626
  650HO4     MW 2600   1.010   1.915   1.642
  651HO4     OW 2601   4.787   4.881   4.174
  651HO4    HW1 2602   4.713   4.912   4.235
  651HO4    HW2 2603   4.763   4.790   4.137
  651HO4     MW 2604   4.787   4.881   4.174
  652HO4     OW 2605   4.626   0.990   2.690
  652HO4    HW1 2606   4.669   0.943   2.768
  652HO4    HW2 2607   4.527   0.998   2.706
  652HO4     MW 2608   4.626   0.990   2.690
  653HO4     OW 2609   4.690   0.714   0.444
  653HO4    HW1 2610   4.757   0.682   0.512
  653HO4    HW2 2611   4.675   0.642   0.375
  653HO4     MW 2612   4.690   0.714   0.444
  654HO4     OW 2613   1.018   4.283   1.589
  654HO4    HW1 2614   1.057   4.358   1.642
  654HO4    HW2 2615   0.925   4.307   1.559
  654HO4     MW 2616   1.018   4.283   1.589
  655HO4     OW 2617   3.206   2.161   3.079
  655HO4    HW1 2618   3.298   2.186   3.109
  655HO4    HW2 2619   3.210   2.119   2.988
  655HO4     MW 2620   3.206   2.161   3.079
  656HO4     OW 2621   1.278   3.264   3.318
  656HO4    HW1 2622   1.376   3.274   3.303
  656HO4    HW2 2623   1.232   3.239   3.232
  656HO4     MW 2624   1.278   3.264   3.318
  657HO4     OW 2625   4.048   1.024   0.706
  657HO4    HW1 2626   4.146   1.006   0.695
  657HO4    HW2 2627   4.026   1.116   0.671
  657HO4     MW 2628   4.048   1.024   0.706
  658HO4     OW 2629   0.006   3.045   2.782
  658HO4    HW1 2630   0.059   3.119   2.739
  658HO4    HW2 2631   0.045   3.023   2.871
  658HO4     MW 2632   0.006   3.045   2.782
  659HO4     OW 2633   0.108   0.103   2.975
  659HO4    HW1 2634   0.014   0.084   2.947
  659HO4    HW2 2635   0.117   0.199   3.002
  659HO4     MW 2636   0.108   0.103   2.975
  660HO4     OW 2637   0.901   4.417   4.745
  660HO4    HW1 2638   0.880   4.455   4.836
  660HO4    HW2 2639   0.864   4.477   4.674
  660HO4     MW 2640   0.901   4.417   4.745
  661HO4     OW 2641   3.927   3.947   1.457
  661HO4    HW1 2642   3.851   3.913   1.401
  661HO4    HW2 2643   3.901   3.945   1.554
  661HO4     MW 2644   3.927   3.947   1.457
  662HO4     OW 2645   4.534   1.481   1.502
  662HO4    HW1 2646   4.541   1.581   1.501
  662HO4    HW2 2647   4.626   1.441   1.512
  662HO4     MW 2648   4.534   1.481   1.502
  663HO4     OW 2649   1.968   3.918   3.240
  663HO4    HW1 2650   2.003   3.839   3.187
  663HO4    HW2 2651   1.950   3.890   3.334
  663HO4     MW 2652   1.968   3.918   3.240
  664HO4     OW 2653   0.261   2.861   2.657
  664HO4    HW1 2654   0.250   2.866   2.557
  664HO4    HW2 2655   0.222   2.943   2.699
  664HO4     MW 2656   0.261   2.861   2.657
  665HO4     OW 2657   2.257   3.376   2.236
  665HO4    HW1 2658   2.282   3.440   2.309
  665HO4    HW2 2659   2.253   3.426   2.148
  665HO4     MW 2660   2.257   3.376   2.236
  666HO4     OW 2661   0.600   1.709   5.236
  666HO4    HW1 2662   0.698   1.698   5.256
  666HO4    HW2 2663   0.587   1.732   5.140
  666HO4     MW 2664   0.600   1.709   5.236
  667HO4     OW 2665   0.792   2.310   1.564
  667HO4    HW1 2666   0.790   2.408   1.586
  667HO4    HW2 2667   0.835   2.259   1.640
  667HO4     MW 2668   0.792   2.310   1.564
  668HO4     OW 2669   0.374   3.993   2.543
  668HO4    HW1 2670   0.331   3.976   2.632
  668HO4    HW2 2671   0.440   3.920   2.524
  668HO4     MW 2672   0.374   3.993   2.543
  669HO4     OW 2673   2.946   4.434   0.133
  669HO4    HW1 2674   2.872   4.493   0.100
  669HO4    HW2 2675   3.034   4.480   0.119
  669HO4     MW 2676   2.946   4.434   0.133
  670HO4     OW 2677   3.626   2.893   3.558
  670HO4    HW1 2678   3.701   2.954   3.531
  670HO4    HW2 2679   3.545   2.912   3.502
  670HO4     MW 2680   3.626   2.893   3.558
  671HO4     OW 2681   5.015   5.316   4.280
  671HO4    HW1 2682   5.035   5.370   4.198
  671HO4    HW2 2683   4.964   5.233   4.254
  671HO4     MW 2684   5.015   5.316   4.280
  672HO4     OW 2685   4.608   2.059   1.101
  672HO4    HW1 2686   4.592   2.155   1.074
  672HO4    HW2 2687   4.566   2.042   1.191
  672HO4     MW 2688   4.608   2.059   1.101
  673HO4     OW 2689   2.581   1.576   0.853
  673HO4    HW1 2690   2.575   1.636   0.773
  673HO4    HW2 2691   2.496   1.583   0.907
  673HO4     MW 2692   2.581   1.576   0.853
  674HO4     OW 2693   0.595   1.827   0.230
  674HO4    HW1 2694   0.642   1.884   0.298
  674HO4    HW2 2695   0.614   1.863   0.138
  674HO4     MW 2696   0.595   1.827   0.230
  675HO4     OW 2697   3.248   0.747   3.662
  675HO4    HW1 2698   3.207   0.837   3.645
  675HO4    HW2 2699   3.188   0.675   3.625
  675HO4     MW 2700   3.248   0.747   3.662
  676HO4     OW 2701   4.694   2.321   2.558
  676HO4    HW1 2702   4.629   2.248   2.578
  676HO4    HW2 2703   4.751   2.339   2.639
  676HO4     MW 2704   4.694   2.321   2.558
  677HO4     OW 2705   4.040   1.039   4.150
  677HO4    HW1 2706   3.961   1.099   4.132
  677HO4    HW2 2707   4.010   0.943   4.147
  677HO4     MW 2708   4.040   1.039   4.150
  678HO4     OW 2709   4.878   1.842   1.120
  678HO4    HW1 2710   4.860   1.899   1.201
  678HO4    HW2 2711   4.865   1.897   1.037
  678HO4     MW 2712   4.878   1.842   1.120
  679HO4     OW 2713   0.329   2.297   2.589
  679HO4    HW1 2714   0.257   2.365   2.607
  679HO4    HW2 2715   0.290   2.204   2.596
  679HO4     MW 2716   0.329   2.297   2.589
  680HO4     OW 2717   3.499   1.199   3.347
  680HO4    HW1 2718   3.531   1.233   3.258
  680HO4    HW2 2719   3.545   1.250   3.421
  680HO4     MW 2720   3.499   1.199   3.347
  681HO4     OW 2721   2.872   1.132   3.149
  681HO4    HW1 2722   2.883   1.211   3.089
  681HO4    HW2 2723   2.858   1.163   3.244
  681HO4     MW 2724   2.872   1.132   3.149
  682HO4     OW 2725   1.840  -0.019   3.244
  682HO4    HW1 2726   1.811   0.045   3.315
  682HO4    HW2 2727   1.834   0.026   3.154
  682HO4     MW 2728   1.840  -0.019   3.244
  683HO4     OW 2729   4.533   0.583   1.840
  683HO4    HW1 2730   4.470   0.511   1.809
  683HO4    HW2 2731   4.503   0.618   1.929
  683HO4     MW 2732   4.533   0.583   1.840
  684HO4     OW 2733   0.248   1.884   3.574
  684HO4    HW1 2734   0.318   1.836   3.520
  684HO4    HW2 2735   0.292   1.937   3.648
  684HO4     MW 2736   0.248   1.884   3.574
  685HO4     OW 2737   1.370   4.729   3.989
  685HO4    HW1 2738   1.394   4.800   4.055
  685HO4    HW2 2739   1.284   4.685   4.016
  685HO4     MW 2740   1.370   4.729   3.989
  686HO4     OW 2741   4.872   0.912   4.259
  686HO4    HW1 2742   4.868   0.973   4.179
  686HO4    HW2 2743   4.893   0.967   4.341
  686HO4     MW 2744   4.872   0.912   4.259
  687HO4     OW 2745   1.175   1.035   3.190
  687HO4    HW1 2746   1.104   1.081   3.245
  687HO4    HW2 2747   1.257   1.094   3.185
  687HO4     MW 2748   1.175   1.035   3.190
  688HO4     OW 2749   3.614   4.926   4.086
  688HO4    HW1 2750   3.687   4.937   4.018
  688HO4    HW2 2751   3.625   4.838   4.133
  688HO4     MW 2752   3.614   4.926   4.086
  689HO4     OW 2753   5.287   5.384   4.153
  689HO4    HW1 2754   5.243   5.294   4.169
  689HO4    HW2 2755   5.309   5.426   4.241
  689HO4     MW 2756   5.287   5.384   4.153
  690HO4     OW 2757   3.749   4.780   3.864
  690HO4    HW1 2758   3.820   4.840   3.902
  690HO4    HW2 2759   3.723   4.811   3.772
  690HO4     MW 2760   3.749   4.780   3.864
  691HO4     OW 2761   3.304   4.238   1.288
  691HO4    HW1 2762   3.223   4.262   1.234
  691HO4    HW2 2763   3.312   4.138   1.295
  691HO4     MW 2764   3.304   4.238   1.288
  692HO4     OW 2765   3.590   1.614   1.385
  692HO4    HW1 2766   3.497   1.579   1.373
  692HO4    HW2 2767   3.587   1.698   1.441
  692HO4     MW 2768   3.590   1.614   1.385
  693HO4     OW 2769   0.097   2.849   0.589
  693HO4    HW1 2770   0.018   2.893   0.632
  693HO4    HW2 2771   0.085   2.750   0.588
  693HO4     MW 2772   0.097   2.849   0.589
  694HO4     OW 2773   0.818   4.991   3.299
  694HO4    HW1 2774   0.804   4.946   3.388
  694HO4    HW2 2775   0.896   4.948   3.252
  694HO4     MW 2776   0.818   4.991   3.299
  695HO4     OW 2777   1.518   1.066   4.335
  695HO4    HW1 2778   1.470   0.979   4.318
  695HO4    HW2 2779   1.486   1.105   4.422
  695HO4     MW 2780   1.518   1.066   4.335
  696HO4     OW 2781   0.184   0.119   2.646
  696HO4    HW1 2782   0.098   0.122   2.696
  696HO4    HW2 2783   0.172   0.067   2.560
  696HO4     MW 2784   0.184   0.119   2.646
  697HO4     OW 2785   3.945   2.992   5.147
  697HO4    HW1 2786   3.978   3.020   5.057
  697HO4    HW2 2787   3.982   3.054   5.217
  697HO4     MW 2788   3.945   2.992   5.147
  698HO4     OW 2789   3.055   2.524   2.151
  698HO4    HW1 2790   2.991   2.550   2.224
  698HO4    HW2 2791   3.049   2.425   2.135
  698HO4     MW 2792   3.055   2.524   2.151
  699HO4     OW 2793   1.893   0.843   3.869
  699HO4    HW1 2794   1.959   0.880   3.803
  699HO4    HW2 2795   1.938   0.772   3.924
  699HO4     MW 2796   1.893   0.843   3.869
  700HO4     OW 2797   1.862   2.681   1.584
  700HO4    HW1 2798   1.883   2.621   1.506
  700HO4    HW2 2799   1.936   2.677   1.651
  700HO4     MW 2800   1.862   2.681   1.584
  701HO4     OW 2801   1.311   4.440   3.973
  701HO4    HW1 2802   1.250   4.360   3.980
  701HO4    HW2 2803   1.341   4.466   4.065
  701HO4     MW 2804   1.311   4.440   3.973
  702HO4     OW 2805   2.848   4.483   5.245
  702HO4    HW1 2806   2.897   4.454   5.328
  702HO4    HW2 2807   2.912   4.485   5.167
  702HO4     MW 2808   2.848   4.483   5.245
  703HO4     OW 2809   3.648   0.078   3.106
  703HO4    HW1 2810   3.550   0.073   3.084
  703HO4    HW2 2811   3.662   0.058   3.203
  703HO4     MW 2812   3.648   0.078   3.106
  704HO4     OW 2813   3.744   5.111   2.392
  704HO4    HW1 2814   3.710   5.136   2.483
  704HO4    HW2 2815   3.727   5.187   2.328
  704HO4     MW 2816   3.744   5.111   2.392
  705HO4     OW 2817   4.762   5.057   3.603
  705HO4    HW1 2818   4.796   5.132   3.661
  705HO4    HW2 2819   4.823   5.045   3.525
  705HO4     MW 2820   4.762   5.057   3.603
  706HO4     OW 2821   4.878   3.781   3.837
  706HO4    HW1 2822   4.834   3.768   3.926
  706HO4    HW2 2823   4.815   3.752   3.764
  706HO4     MW 2824   4.878   3.781   3.837
  707HO4     OW 2825   1.106   2.869   1.230
  707HO4    HW1 2826   1.151   2.779   1.236
  707HO4    HW2 2827   1.162   2.930   1.174
  707HO4     MW 2828   1.106   2.869   1.230
  708HO4     OW 2829   4.008   4.557   5.005
  708HO4    HW1 2830   3.922   4.505   5.011
  708HO4    HW2 2831   4.016   4.617   5.085
  708HO4     MW 2832   4.008   4.557   5.005
  709HO4     OW 2833   3.759   4.614   3.083
  709HO4    HW1 2834   3.731   4.551   3.011
  709HO4    HW2 2835   3.709   4.592   3.168
  709HO4     MW 2836   3.759   4.614   3.083
  710HO4     OW 2837   0.467   0.933   1.870
  710HO4    HW1 2838   0.517   0.957   1.786
  710HO4    HW2 2839   0.509   0.979   1.948
  710HO4     MW 2840   0.467   0.933   1.870
  711HO4     OW 2841   1.114   4.832   4.565
  711HO4    HW1 2842   1.114   4.807   4.662
  711HO4    HW2 2843   1.115   4.749   4.508
  711HO4     MW 2844   1.114   4.832   4.565
  712HO4     OW 2845   3.937   0.126   0.666
  712HO4    HW1 2846   3.858   0.081   0.622
  712HO4    HW2 2847   3.914   0.223   0.684
  712HO4     MW 2848   3.937   0.126   0.666
  713HO4     OW 2849   2.393   0.661   0.118
  713HO4    HW1 2850   2.441   0.636   0.033
  713HO4    HW2 2851   2.399   0.584   0.183
  713HO4     MW 2852   2.393   0.661   0.118
  714HO4     OW 2853   2.580   3.841   4.294
  714HO4    HW1 2854   2.562   3.787   4.376
  714HO4    HW2 2855   2.570   3.783   4.213
  714HO4     MW 2856   2.580   3.841   4.294
  715HO4     OW 2857   0.573   5.207   2.585
  715HO4    HW1 2858   0.665   5.167   2.580
  715HO4    HW2 2859   0.505   5.134   2.587
  715HO4     MW 2860   0.573   5.207   2.585
  716HO4     OW 2861   0.002   5.288   1.362
  716HO4    HW1 2862   0.050   5.328   1.284
  716HO4    HW2 2863   0.060   5.217   1.404
  716HO4     MW 2864   0.002   5.288   1.362
  717HO4     OW 2865   0.029   3.212   1.690
  717HO4    HW1 2866   0.043   3.311   1.698
  717HO4    HW2 2867   0.102   3.172   1.634
  717HO4     MW 2868   0.029   3.212   1.690
  718HO4     OW 2869   2.135   0.438   2.450
  718HO4    HW1 2870   2.116   0.401   2.542
  718HO4    HW2 2871   2.102   0.374   2.381
  718HO4     MW 2872   2.135   0.438   2.450
  719HO4     OW 2873   3.741   4.006   3.884
  719HO4    HW1 2874   3.762   3.939   3.955
  719HO4    HW2 2875   3.690   3.961   3.810
  719HO4     MW 2876   3.741   4.006   3.884
  720HO4     OW 2877   2.313   2.368   4.308
  720HO4    HW1 2878   2.247   2.387   4.235
  720HO4    HW2 2879   2.397   2.330   4.268
  720HO4     MW 2880   2.313   2.368   4.308
  721HO4     OW 2881   3.885   2.101   1.805
  721HO4    HW1 2882   3.955   2.086   1.734
  721HO4    HW2 2883   3.897   2.192   1.845
  721HO4     MW 2884   3.885   2.101   1.805
  722HO4     OW 2885   1.758   3.756   4.056
  722HO4    HW1 2886   1.843   3.746   4.108
  722HO4    HW2 2887   1.694   3.815   4.107
  722HO4     MW 2888   1.758   3.756   4.056
  723HO4     OW 2889   2.700   2.478   0.702
  723HO4    HW1 2890   2.706   2.538   0.621
  723HO4    HW2 2891   2.675   2.532   0.782
  723HO4     MW 2892   2.700   2.478   0.702
  724HO4     OW 2893   0.404   1.352   1.588
  724HO4    HW1 2894   0.484   1.291   1.589
  724HO4    HW2 2895   0.398   1.400   1.677
  724HO4     MW 2896   0.404   1.352   1.588
  725HO4     OW 2897   2.527   2.046   0.419
  725HO4    HW1 2898   2.612   2.059   0.367
  725HO4    HW2 2899   2.541   2.076   0.514
  725HO4     MW 2900   2.527   2.046   0.419
  726HO4     OW 2901   1.742   4.397   0.445
  726HO4    HW1 2902   1.736   4.348   0.532
  726HO4    HW2 2903   1.732   4.331   0.369
  726HO4     MW 2904   1.742   4.397   0.445
  727HO4     OW 2905   4.065   5.054   4.907
  727HO4    HW1 2906   4.146   5.095   4.864
  727HO4    HW2 2907   4.019   4.992   4.842
  727HO4     MW 2908   4.065   5.054   4.907
  728HO4     OW 2909   5.429   2.349   2.010
  728HO4    HW1 2910   5.477   2.344   2.098
  728HO4    HW2 2911   5.484   2.303   1.940
  728HO4     MW 2912   5.429   2.349   2.010
  729HO4     OW 2913   0.023   1.148   4.467
  729HO4    HW1 2914   0.115   1.116   4.441
  729HO4    HW2 2915  -0.042   1.127   4.393
  729HO4     MW 2916   0.023   1.148   4.467
  730HO4     OW 2917   0.931   2.077   3.268
  730HO4    HW1 2918   0.903   2.028   3.351
  730HO4    HW2 2919   1.013   2.131   3.287
  730HO4     MW 2920   0.931   2.077   3.268
  731HO4     OW 2921   1.671   5.460   4.749
  731HO4    HW1 2922   1.754   5.408   4.731
  731HO4    HW2 2923   1.695   5.553   4.779
  731HO4     MW 2924   1.671   5.460   4.749
  732HO4     OW 2925   2.868   2.138   4.331
  732HO4    HW1 2926   2.774   2.127   4.297
  732HO4    HW2 2927   2.895   2.055   4.381
  732HO4     MW 2928   2.868   2.138   4.331
  733HO4     OW 2929   2.030   0.871   3.586
  733HO4    HW1 2930   1.980   0.796   3.631
  733HO4    HW2 2931   2.029   0.952   3.645
  733HO4     MW 2932   2.030   0.871   3.586
  734HO4     OW 2933   2.447   0.562   2.495
  734HO4    HW1 2934   2.541   0.553   2.530
  734HO4    HW2 2935   2.428   0.484   2.434
  734HO4     MW 2936   2.447   0.562   2.495
  735HO4     OW 2937   4.312   0.932   3.416
  735HO4    HW1 2938   4.327   0.834   3.435
  735HO4    HW2 2939   4.333   0.986   3.498
  735HO4     MW 2940   4.312   0.932   3.416
  736HO4     OW 2941   4.411   4.876   0.435
  736HO4    HW1 2942   4.378   4.852   0.527
  736HO4    HW2 2943   4.377   4.808   0.369
  736HO4     MW 2944   4.411   4.876   0.435
  737HO4     OW 2945   0.664   3.462   2.429
  737HO4    HW1 2946   0.636   3.467   2.525
  737HO4    HW2 2947   0.660   3.367   2.398
  737HO4     MW 2948   0.664   3.462   2.429
  738HO4     OW 2949   2.978   3.007   4.104
  738HO4    HW1 2950   2.964   2.976   4.199
  738HO4    HW2 2951   2.982   2.928   4.043
  738HO4     MW 2952   2.978   3.007   4.104
  739HO4     OW 2953   3.983   2.461   2.098
  739HO4    HW1 2954   3.981   2.417   2.007
  739HO4    HW2 2955   4.076   2.452   2.136
  739HO4     MW 2956   3.983   2.461   2.098
  740HO4     OW 2957   5.138   1.450   3.618
  740HO4    HW1 2958   5.172   1.503   3.696
  740HO4    HW2 2959   5.211   1.389   3.584
  740HO4     MW 2960   5.138   1.450   3.618
  741HO4     OW 2961   1.101   2.575   4.041
  741HO4    HW1 2962   1.059   2.651   3.991
  741HO4    HW2 2963   1.181   2.609   4.092
  741HO4     MW 2964   1.101   2.575   4.041
  742HO4     OW 2965   2.655   3.420   5.110
  742HO4    HW1 2966   2.667   3.339   5.052
  742HO4    HW2 2967   2.745   3.459   5.131
  742HO4     MW 2968   2.655   3.420   5.110
  743HO4     OW 2969   0.894   3.165   4.759
  743HO4    HW1 2970   0.805   3.185   4.803
  743HO4    HW2 2971   0.885   3.176   4.660
  743HO4     MW 2972   0.894   3.165   4.759
  744HO4     OW 2973   5.006   5.415   5.354
  744HO4    HW1 2974   4.996   5.451   5.261
  744HO4    HW2 2975   4.930   5.448   5.411
  744HO4     MW 2976   5.006   5.415   5.354
  745HO4     OW 2977   1.572   1.826   2.032
  745HO4    HW1 2978   1.526   1.903   1.987
  745HO4    HW2 2979   1.671   1.841   2.031
  745HO4     MW 2980   1.572   1.826   2.032
  746HO4     OW 2981   1.485   3.344   4.190
  746HO4    HW1 2982   1.521   3.325   4.098
  746HO4    HW2 2983   1.491   3.260   4.245
  746HO4     MW 2984   1.485   3.344   4.190
  747HO4     OW 2985   0.181   3.053   3.889
  747HO4    HW1 2986   0.217   3.022   3.978
  747HO4    HW2 2987   0.218   3.144   3.868
  747HO4     MW 2988   0.181   3.053   3.889
  748HO4     OW 2989   3.229   4.541   4.941
  748HO4    HW1 2990   3.255   4.614   4.878
  748HO4    HW2 2991   3.129   4.530   4.940
  748HO4     MW 2992   3.229   4.541   4.941
  749HO4     OW 2993   2.967   2.486   4.315
  749HO4    HW1 2994   3.040   2.548   4.283
  749HO4    HW2 2995   3.004   2.393   4.323
  749HO4     MW 2996   2.967   2.486   4.315
  750HO4     OW 2997   0.178   3.305   3.481
  750HO4    HW1 2998   0.112   3.379   3.496
  750HO4    HW2 2999   0.263   3.342   3.444
  750HO4     MW 3000   0.178   3.305   3.481
  751HO4     OW 3001   0.020   2.191   1.704
  751HO4    HW1 3002   0.110   2.173   1.746
  751HO4    HW2 3003  -0.039   2.110   1.715
  751HO4     MW 3004   0.020   2.191   1.704
  752HO4     OW 3005   5.225   3.115   4.785
  752HO4    HW1 3006   5.261   3.163   4.865
  752HO4    HW2 3007   5.265   3.155   4.701
  752HO4     MW 3008   5.225   3.115   4.785
  753HO4     OW 3009   4.307   0.414   1.813
  753HO4    HW1 3010   4.384   0.368   1.767
  753HO4    HW2 3011   4.269   0.484   1.752
  753HO4     MW 3012   4.307   0.414   1.813
  754HO4     OW 3013   5.252   4.287   0.124
  754HO4    HW1 3014   5.188   4.292   0.047
  754HO4    HW2 3015   5.253   4.375   0.173
  754HO4     MW 3016   5.252   4.287   0.124
  755HO4     OW 3017   5.132   3.620   5.336
  755HO4    HW1 3018   5.202   3.567   5.385
  755HO4    HW2 3019   5.176   3.694   5.285
  755HO4     MW 3020   5.132   3.620   5.336
  756HO4     OW 3021   3.137   1.451   1.853
  756HO4    HW1 3022   3.231   1.428   1.828
  756HO4    HW2 3023   3.130   1.549   1.874
  756HO4     MW 3024   3.137   1.451   1.853
  757HO4     OW 3025   1.423   1.216   0.468
  757HO4    HW1 3026   1.337   1.199   0.420
  757HO4    HW2 3027   1.455   1.309   0.448
  757HO4     MW 3028   1.423   1.216   0.468
  758HO4     OW 3029   3.320   2.241   4.841
  758HO4    HW1 3030   3.274   2.160   4.877
  758HO4    HW2 3031   3.404   2.214   4.792
  758HO4     MW 3032   3.320   2.241   4.841
  759HO4     OW 3033   1.722   5.016   0.642
  759HO4    HW1 3034   1.758   5.107   0.666
  759HO4    HW2 3035   1.634   5.027   0.594
  759HO4     MW 3036   1.722   5.016   0.642
  760HO4     OW 3037   0.780   2.152   2.614
  760HO4    HW1 3038   0.754   2.230   2.671
  760HO4    HW2 3039   0.713   2.077   2.627
  760HO4     MW 3040   0.780   2.152   2.614
  761HO4     OW 3041   0.880   5.311   0.329
  761HO4    HW1 3042   0.833   5.333   0.244
  761HO4    HW2 3043   0.813   5.296   0.402
  761HO4     MW 3044   0.880   5.311   0.329
  762HO4     OW 3045   4.106   2.345   0.717
  762HO4    HW1 3046   4.052   2.427   0.696
  762HO4    HW2 3047   4.195   2.351   0.670
  762HO4     MW 3048   4.106   2.345   0.717
  763HO4     OW 3049   4.913   2.704   1.686
  763HO4    HW1 3050   4.964   2.774   1.737
  763HO4    HW2 3051   4.841   2.748   1.632
  763HO4     MW 3052   4.913   2.704   1.686
  764HO4     OW 3053   0.053   1.177   3.308
  764HO4    HW1 3054   0.073   1.257   3.250
  764HO4    HW2 3055   0.059   1.204   3.405
  764HO4     MW 3056   0.053   1.177   3.308
  765HO4     OW 3057   4.353   3.196   4.735
  765HO4    HW1 3058   4.388   3.211   4.642
  765HO4    HW2 3059   4.418   3.138   4.785
  765HO4     MW 3060   4.353   3.196   4.735
  766HO4     OW 3061   0.223   0.746   3.855
  766HO4    HW1 3062   0.227   0.646   3.867
  766HO4    HW2 3063   0.135   0.780   3.889
  766HO4     MW 3064   0.223   0.746   3.855
  767HO4     OW 3065   4.462   4.490   2.884
  767HO4    HW1 3066   4.440   4.436   2.802
  767HO4    HW2 3067   4.441   4.437   2.966
  767HO4     MW 3068   4.462   4.490   2.884
  768HO4     OW 3069   2.508   4.406   2.918
  768HO4    HW1 3070   2.471   4.416   3.011
  768HO4    HW2 3071   2.472   4.322   2.876
  768HO4     MW 3072   2.508   4.406   2.918
  769HO4     OW 3073   2.834   3.711   3.014
  769HO4    HW1 3074   2.927   3.701   2.978
  769HO4    HW2 3075   2.780   3.630   2.991
  769HO4     MW 3076   2.834   3.711   3.014
  770HO4     OW 3077   5.109   2.867   4.768
  770HO4    HW1 3078   5.143   2.833   4.856
  770HO4    HW2 3079   5.164   2.947   4.740
  770HO4     MW 3080   5.109   2.867   4.768
  771HO4     OW 3081   3.423   0.954   5.434
  771HO4    HW1 3082   3.336   0.908   5.415
  771HO4    HW2 3083   3.411   1.053   5.430
  771HO4     MW 3084   3.423   0.954   5.434
  772HO4     OW 3085   3.155   1.121   3.329
  772HO4    HW1 3086   3.176   1.210   3.370
  772HO4    HW2 3087   3.216   1.105   3.251
  772HO4     MW 3088   3.155   1.121   3.329
  773HO4     OW 3089   3.214   2.254   0.604
  773HO4    HW1 3090   3.190   2.166   0.646
  773HO4    HW2 3091   3.181   2.255   0.509
  773HO4     MW 3092   3.214   2.254   0.604
  774HO4     OW 3093   1.462   0.765   0.419
  774HO4    HW1 3094   1.371   0.761   0.376
  774HO4    HW2 3095   1.519   0.833   0.371
  774HO4     MW 3096   1.462   0.765   0.419
  775HO4     OW 3097   0.132   5.186   4.728
  775HO4    HW1 3098   0.112   5.088   4.729
  775HO4    HW2 3099   0.199   5.208   4.799
  775HO4     MW 3100   0.132   5.186   4.728
  776HO4     OW 3101   5.072   1.607   3.410
  776HO4    HW1 3102   5.037   1.649   3.326
  776HO4    HW2 3103   5.028   1.649   3.490
  776HO4     MW 3104   5.072   1.607   3.410
  777HO4     OW 3105   0.199   0.151   3.906
  777HO4    HW1 3106   0.116   0.161   3.850
  777HO4    HW2 3107   0.173   0.120   3.998
  777HO4     MW 3108   0.199   0.151   3.906
  778HO4     OW 3109   2.182   2.301   3.183
  778HO4    HW1 3110   2.164   2.210   3.144
  778HO4    HW2 3111   2.181   2.294   3.283
  778HO4     MW 3112   2.182   2.301   3.183
  779HO4     OW 3113   0.109   3.231   1.273
  779HO4    HW1 3114   0.134   3.317   1.227
  779HO4    HW2 3115   0.043   3.250   1.346
  779HO4     MW 3116   0.109   3.231   1.273
  780HO4     OW 3117   3.475   2.128   2.994
  780HO4    HW1 3118   3.481   2.223   3.027
  780HO4    HW2 3119   3.515   2.122   2.902
  780HO4     MW 3120   3.475   2.128   2.994
  781HO4     OW 3121   4.900   0.808   1.488
  781HO4    HW1 3122   4.853   0.852   1.565
  781HO4    HW2 3123   4.837   0.742   1.444
  781HO4     MW 3124   4.900   0.808   1.488
  782HO4     OW 3125   2.709   1.537   3.774
  782HO4    HW1 3126   2.806   1.562   3.769
  782HO4    HW2 3127   2.667   1.547   3.683
  782HO4     MW 3128   2.709   1.537   3.774
  783HO4     OW 3129   3.186   1.585   4.421
  783HO4    HW1 3130   3.141   1.518   4.362
  783HO4    HW2 3131   3.151   1.576   4.515
  783HO4     MW 3132   3.186   1.585   4.421
  784HO4     OW 3133   4.555   3.263   3.374
  784HO4    HW1 3134   4.509   3.299   3.456
  784HO4    HW2 3135   4.509   3.299   3.292
  784HO4     MW 3136   4.555   3.263   3.374
  785HO4     OW 3137   0.963   2.092   4.764
  785HO4    HW1 3138   0.926   2.137   4.846
  785HO4    HW2 3139   0.926   2.137   4.682
  785HO4     MW 3140   0.963   2.092   4.764
  786HO4     OW 3141   0.722   3.654   4.442
  786HO4    HW1 3142   0.722   3.710   4.359
  786HO4    HW2 3143   0.641   3.594   4.441
  786HO4     MW 3144   0.722   3.654   4.442
  787HO4     OW 3145   5.136   4.496   2.297
  787HO4    HW1 3146   5.090   4.460   2.378
  787HO4    HW2 3147   5.096   4.455   2.214
  787HO4     MW 3148   5.136   4.496   2.297
  788HO4     OW 3149   5.298   3.391   3.991
  788HO4    HW1 3150   5.346   3.427   3.911
  788HO4    HW2 3151   5.364   3.373   4.064
  788HO4     MW 3152   5.298   3.391   3.991
  789HO4     OW 3153   1.248   5.305   3.946
  789HO4    HW1 3154   1.190   5.302   4.029
  789HO4    HW2 3155   1.344   5.293   3.972
  789HO4     MW 3156   1.248   5.305   3.946
  790HO4     OW 3157   1.957   0.914   4.865
  790HO4    HW1 3158   2.056   0.917   4.884
  790HO4    HW2 3159   1.907   0.926   4.951
  790HO4     MW 3160   1.957   0.914   4.865
  791HO4     OW 3161   4.975   4.317   3.904
  791HO4    HW1 3162   5.002   4.226   3.938
  791HO4    HW2 3163   4.964   4.379   3.982
  791HO4     MW 3164   4.975   4.317   3.904
  792HO4     OW 3165   1.979   3.477   1.718
  792HO4    HW1 3166   1.977   3.488   1.618
  792HO4    HW2 3167   2.029   3.393   1.742
  792HO4     MW 3168   1.979   3.477   1.718
  793HO4     OW 3169   3.690   5.256   5.290
  793HO4    HW1 3170   3.775   5.217   5.326
  793HO4    HW2 3171   3.685   5.353   5.312
  793HO4     MW 3172   3.690   5.256   5.290
  794HO4     OW 3173   5.057   2.964   2.350
  794HO4    HW1 3174   5.084   3.020   2.272
  794HO4    HW2 3175   5.134   2.906   2.378
  794HO4     MW 3176   5.057   2.964   2.350
  795HO4     OW 3177   2.492   3.275   1.533
  795HO4    HW1 3178   2.571   3.214   1.532
  795HO4    HW2 3179   2.408   3.221   1.541
  795HO4     MW 3180   2.492   3.275   1.533
  796HO4     OW 3181   1.039   4.900   1.991
  796HO4    HW1 3182   1.043   4.997   1.967
  796HO4    HW2 3183   0.962   4.884   2.054
  796HO4     MW 3184   1.039   4.900   1.991
  797HO4     OW 3185   3.563   3.292   2.963
  797HO4    HW1 3186   3.543   3.362   2.894
  797HO4    HW2 3187   3.546   3.329   3.054
  797HO4     MW 3188   3.563   3.292   2.963
  798HO4     OW 3189   0.913   0.060   3.019
  798HO4    HW1 3190   0.962   0.130   2.966
  798HO4    HW2 3191   0.916   0.084   3.116
  798HO4     MW 3192   0.913   0.060   3.019
  799HO4     OW 3193   1.001   2.093   0.196
  799HO4    HW1 3194   0.977   1.999   0.171
  799HO4    HW2 3195   0.917   2.146   0.210
  799HO4     MW 3196   1.001   2.093   0.196
  800HO4     OW 3197   1.982   4.560   1.457
  800HO4    HW1 3198   1.935   4.615   1.526
  800HO4    HW2 3199   1.943   4.581   1.366
  800HO4     MW 3200   1.982   4.560   1.457
  801HO4     OW 3201   0.954   1.100   1.275
  801HO4    HW1 3202   0.884   1.171   1.289
  801HO4    HW2 3203   1.020   1.132   1.205
  801HO4     MW 3204   0.954   1.100   1.275
  802HO4     OW 3205   4.436   3.169   0.579
  802HO4    HW1 3206   4.517   3.172   0.638
  802HO4    HW2 3207   4.440   3.087   0.521
  802HO4     MW 3208   4.436   3.169   0.579
  803HO4     OW 3209   1.150   3.117  -0.012
  803HO4    HW1 3210   1.099   3.064   0.056
  803HO4    HW2 3211   1.171   3.208   0.025
  803HO4     MW 3212   1.150   3.117  -0.012
  804HO4     OW 3213   5.315   3.292   2.348
  804HO4    HW1 3214   5.269   3.250   2.427
  804HO4    HW2 3215   5.317   3.226   2.272
  804HO4     MW 3216   5.315   3.292   2.348
  805HO4     OW 3217   2.756   1.962   1.201
  805HO4    HW1 3218   2.757   2.015   1.286
  805HO4    HW2 3219   2.736   2.023   1.123
  805HO4     MW 3220   2.756   1.962   1.201
  806HO4     OW 3221   1.996   5.217   5.081
  806HO4    HW1 3222   2.034   5.306   5.106
  806HO4    HW2 3223   2.020   5.149   5.151
  806HO4     MW 3224   1.996   5.217   5.081
  807HO4     OW 3225   0.729   0.468   2.081
  807HO4    HW1 3226   0.654   0.529   2.054
  807HO4    HW2 3227   0.802   0.471   2.012
  807HO4     MW 3228   0.729   0.468   2.081
  808HO4     OW 3229   0.150   2.686   4.365
  808HO4    HW1 3230   0.145   2.675   4.265
  808HO4    HW2 3231   0.152   2.595   4.408
  808HO4     MW 3232   0.150   2.686   4.365
  809HO4     OW 3233   2.162   4.204   2.211
  809HO4    HW1 3234   2.067   4.179   2.188
  809HO4    HW2 3235   2.215   4.215   2.126
  809HO4     MW 3236   2.162   4.204   2.211
  810HO4     OW 3237   0.310   4.680   0.136
  810HO4    HW1 3238   0.371   4.654   0.213
  810HO4    HW2 3239   0.366   4.707   0.058
  810HO4     MW 3240   0.310   4.680   0.136
  811HO4     OW 3241   0.834   1.114   1.601
  811HO4    HW1 3242   0.793   1.155   1.683
  811HO4    HW2 3243   0.793   1.154   1.519
  811HO4     MW 3244   0.834   1.114   1.601
  812HO4     OW 3245   1.945   1.012   2.970
  812HO4    HW1 3246   1.983   0.945   3.034
  812HO4    HW2 3247   1.956   0.979   2.876
  812HO4     MW 3248   1.945   1.012   2.970
  813HO4     OW 3249   1.442   1.976   3.112
  813HO4    HW1 3250   1.482   1.885   3.126
  813HO4    HW2 3251   1.409   1.983   3.017
  813HO4     MW 3252   1.442   1.976   3.112
  814HO4     OW 3253   0.866   5.465   4.735
  814HO4    HW1 3254   0.772   5.487   4.706
  814HO4    HW2 3255   0.917   5.428   4.657
  814HO4     MW 3256   0.866   5.465   4.735
  815HO4     OW 3257   3.686   1.666   2.714
  815HO4    HW1 3258   3.692   1.725   2.796
  815HO4    HW2 3259   3.738   1.708   2.639
  815HO4     MW 3260   3.686   1.666   2.714
  816HO4     OW 3261   2.370   5.277   3.336
  816HO4    HW1 3262   2.434   5.352   3.356
  816HO4    HW2 3263   2.414   5.212   3.273
  816HO4     MW 3264   2.370   5.277   3.336
  817HO4     OW 3265   4.049   1.782   0.121
  817HO4    HW1 3266   4.056   1.848   0.045
  817HO4    HW2 3267   4.048   1.832   0.208
  817HO4     MW 3268   4.049   1.782   0.121
  818HO4     OW 3269   1.692   4.745   2.925
  818HO4    HW1 3270   1.656   4.697   3.006
  818HO4    HW2 3271   1.708   4.678   2.851
  818HO4     MW 3272   1.692   4.745   2.925
  819HO4     OW 3273   2.943   4.956   4.490
  819HO4    HW1 3274   2.953   4.994   4.398
  819HO4    HW2 3275   3.033   4.939   4.530
  819HO4     MW 3276   2.943   4.956   4.490
  820HO4     OW 3277   3.474   3.225   5.077
  820HO4    HW1 3278   3.572   3.219   5.096
  820HO4    HW2 3279   3.456   3.196   4.982
  820HO4     MW 3280   3.474   3.225   5.077
  821HO4     OW 3281   0.706   1.189   4.883
  821HO4    HW1 3282   0.730   1.127   4.958
  821HO4    HW2 3283   0.643   1.142   4.820
  821HO4     MW 3284   0.706   1.189   4.883
  822HO4     OW 3285   2.135   4.882   0.822
  822HO4    HW1 3286   2.118   4.828   0.906
  822HO4    HW2 3287   2.179   4.823   0.754
  822HO4     MW 3288   2.135   4.882   0.822
  823HO4     OW 3289   1.900   2.451   5.101
  823HO4    HW1 3290   1.850   2.422   5.184
  823HO4    HW2 3291   1.849   2.422   5.020
  823HO4     MW 3292   1.900   2.451   5.101
  824HO4     OW 3293   2.447   3.573   4.126
  824HO4    HW1 3294   2.489   3.612   4.208
  824HO4    HW2 3295   2.512   3.580   4.049
  824HO4     MW 3296   2.447   3.573   4.126
  825HO4     OW 3297   2.647   2.902   3.295
  825HO4    HW1 3298   2.599   2.915   3.382
  825HO4    HW2 3299   2.610   2.822   3.247
  825HO4     MW 3300   2.647   2.902   3.295
  826HO4     OW 3301   3.035   2.548   3.441
  826HO4    HW1 3302   3.065   2.644   3.450
  826HO4    HW2 3303   3.046   2.518   3.346
  826HO4     MW 3304   3.035   2.548   3.441
  827HO4     OW 3305   3.004   1.961   1.955
  827HO4    HW1 3306   2.924   2.013   1.927
  827HO4    HW2 3307   3.034   1.991   2.046
  827HO4     MW 3308   3.004   1.961   1.955
  828HO4     OW 3309   1.832   2.321   0.224
  828HO4    HW1 3310   1.764   2.305   0.296
  828HO4    HW2 3311   1.825   2.249   0.154
  828HO4     MW 3312   1.832   2.321   0.224
  829HO4     OW 3313   1.348   0.744   3.608
  829HO4    HW1 3314   1.348   0.740   3.708
  829HO4    HW2 3315   1.404   0.822   3.578
  829HO4     MW 3316   1.348   0.744   3.608
  830HO4     OW 3317   0.697   4.135   2.775
  830HO4    HW1 3318   0.767   4.157   2.706
  830HO4    HW2 3319   0.711   4.041   2.807
  830HO4     MW 3320   0.697   4.135   2.775
  831HO4     OW 3321   1.986   1.542   1.564
  831HO4    HW1 3322   1.908   1.544   1.628
  831HO4    HW2 3323   2.068   1.509   1.612
  831HO4     MW 3324   1.986   1.542   1.564
  832HO4     OW 3325   5.433   4.900   2.543
  832HO4    HW1 3326   5.531   4.877   2.541
  832HO4    HW2 3327   5.399   4.887   2.637
  832HO4     MW 3328   5.433   4.900   2.543
  833HO4     OW 3329   0.937   3.158   3.608
  833HO4    HW1 3330   0.975   3.148   3.515
  833HO4    HW2 3331   0.993   3.105   3.672
  833HO4     MW 3332   0.937   3.158   3.608
  834HO4     OW 3333   2.116   5.265   2.986
  834HO4    HW1 3334   2.047   5.284   3.057
  834HO4    HW2 3335   2.072   5.259   2.897
  834HO4     MW 3336   2.116   5.265   2.986
  835HO4     OW 3337   0.266   1.741   2.722
  835HO4    HW1 3338   0.334   1.709   2.656
  835HO4    HW2 3339   0.292   1.832   2.755
  835HO4     MW 3340   0.266   1.741   2.722
  836HO4     OW 3341   0.756   1.794   2.437
  836HO4    HW1 3342   0.707   1.845   2.366
  836HO4    HW2 3343   0.833   1.745   2.396
  836HO4     MW 3344   0.756   1.794   2.437
  837HO4     OW 3345   3.957   1.284   3.670
  837HO4    HW1 3346   3.980   1.313   3.577
  837HO4    HW2 3347   4.037   1.295   3.730
  837HO4     MW 3348   3.957   1.284   3.670
  838HO4     OW 3349   4.179   3.802   5.113
  838HO4    HW1 3350   4.166   3.706   5.137
  838HO4    HW2 3351   4.260   3.812   5.054
  838HO4     MW 3352   4.179   3.802   5.113
  839HO4     OW 3353   4.910   1.882   5.175
  839HO4    HW1 3354   4.935   1.917   5.266
  839HO4    HW2 3355   4.820   1.838   5.179
  839HO4     MW 3356   4.910   1.882   5.175
  840HO4     OW 3357   3.573   1.644   4.010
  840HO4    HW1 3358   3.559   1.697   4.094
  840HO4    HW2 3359   3.647   1.577   4.025
  840HO4     MW 3360   3.573   1.644   4.010
  841HO4     OW 3361   1.611   5.161   2.872
  841HO4    HW1 3362   1.571   5.218   2.944
  841HO4    HW2 3363   1.591   5.064   2.890
  841HO4     MW 3364   1.611   5.161   2.872
  842HO4     OW 3365   0.974   2.672   2.436
  842HO4    HW1 3366   0.930   2.582   2.426
  842HO4    HW2 3367   0.938   2.734   2.366
  842HO4     MW 3368   0.974   2.672   2.436
  843HO4     OW 3369   0.970   3.463   4.396
  843HO4    HW1 3370   0.940   3.409   4.475
  843HO4    HW2 3371   0.923   3.431   4.313
  843HO4     MW 3372   0.970   3.463   4.396
  844HO4     OW 3373   3.335   3.438   0.037
  844HO4    HW1 3374   3.263   3.424  -0.032
  844HO4    HW2 3375   3.318   3.524   0.086
  844HO4     MW 3376   3.335   3.438   0.037
  845HO4     OW 3377   1.899   0.448   0.498
  845HO4    HW1 3378   1.867   0.473   0.407
  845HO4    HW2 3379   1.833   0.480   0.567
  845HO4     MW 3380   1.899   0.448   0.498
  846HO4     OW 3381   1.037   5.258   0.076
  846HO4    HW1 3382   1.084   5.316   0.009
  846HO4    HW2 3383   1.010   5.313   0.155
  846HO4     MW 3384   1.037   5.258   0.076
  847HO4     OW 3385   3.710   4.303   3.690
  847HO4    HW1 3386   3.711   4.209   3.726
  847HO4    HW2 3387   3.616   4.327   3.663
  847HO4     MW 3388   3.710   4.303   3.690
  848HO4     OW 3389   3.806   1.059   4.783
  848HO4    HW1 3390   3.773   0.967   4.807
  848HO4    HW2 3391   3.728   1.122   4.779
  848HO4     MW 3392   3.806   1.059   4.783
  849HO4     OW 3393   3.660   4.003   2.219
  849HO4    HW1 3394   3.598   4.003   2.140
  849HO4    HW2 3395   3.744   4.053   2.196
  849HO4     MW 3396   3.660   4.003   2.219
  850HO4     OW 3397   4.591   4.362   1.807
  850HO4    HW1 3398   4.557   4.343   1.900
  850HO4    HW2 3399   4.604   4.460   1.796
  850HO4     MW 3400   4.591   4.362   1.807
  851HO4     OW 3401   2.053   1.186   3.375
  851HO4    HW1 3402   2.045   1.086   3.375
  851HO4    HW2 3403   2.133   1.213   3.319
  851HO4     MW 3404   2.053   1.186   3.375
  852HO4     OW 3405   1.853   3.210   2.836
  852HO4    HW1 3406   1.854   3.189   2.934
  852HO4    HW2 3407   1.811   3.133   2.786
  852HO4     MW 3408   1.853   3.210   2.836
  853HO4     OW 3409   0.715   1.813   1.544
  853HO4    HW1 3410   0.741   1.861   1.628
  853HO4    HW2 3411   0.747   1.864   1.464
  853HO4     MW 3412   0.715   1.813   1.544
  854HO4     OW 3413   4.378   1.868   1.287
  854HO4    HW1 3414   4.324   1.792   1.323
  854HO4    HW2 3415   4.377   1.865   1.186
  854HO4     MW 3416   4.378   1.868   1.287
  855HO4     OW 3417   2.544   2.474   1.808
  855HO4    HW1 3418   2.458   2.523   1.825
  855HO4    HW2 3419   2.537   2.380   1.842
  855HO4     MW 3420   2.544   2.474   1.808
  856HO4     OW 3421   3.667   2.922   0.664
  856HO4    HW1 3422   3.678   2.859   0.742
  856HO4    HW2 3423   3.572   2.953   0.659
  856HO4     MW 3424   3.667   2.922   0.664
  857HO4     OW 3425   2.033   3.563   4.285
  857HO4    HW1 3426   2.121   3.577   4.238
  857HO4    HW2 3427   2.050   3.548   4.383
  857HO4     MW 3428   2.033   3.563   4.285
  858HO4     OW 3429   3.616   3.298   3.382
  858HO4    HW1 3430   3.653   3.389   3.364
  858HO4    HW2 3431   3.609   3.247   3.295
  858HO4     MW 3432   3.616   3.298   3.382
  859HO4     OW 3433   4.828   5.115   1.866
  859HO4    HW1 3434   4.818   5.020   1.836
  859HO4    HW2 3435   4.754   5.137   1.930
  859HO4     MW 3436   4.828   5.115   1.866
  860HO4     OW 3437   4.608   0.128   2.618
  860HO4    HW1 3438   4.630   0.052   2.680
  860HO4    HW2 3439   4.633   0.104   2.524
  860HO4     MW 3440   4.608   0.128   2.618
  861HO4     OW 3441   0.511   4.137   4.675
  861HO4    HW1 3442   0.479   4.187   4.756
  861HO4    HW2 3443   0.476   4.181   4.592
  861HO4     MW 3444   0.511   4.137   4.675
  862HO4     OW 3445   0.777   3.952   1.175
  862HO4    HW1 3446   0.742   3.912   1.260
  862HO4    HW2 3447   0.701   3.967   1.111
  862HO4     MW 3448   0.777   3.952   1.175
  863HO4     OW 3449   3.974   2.171   2.236
  863HO4    HW1 3450   4.000   2.200   2.328
  863HO4    HW2 3451   4.043   2.109   2.199
  863HO4     MW 3452   3.974   2.171   2.236
  864HO4     OW 3453   1.555   5.336   5.035
  864HO4    HW1 3454   1.608   5.295   4.960
  864HO4    HW2 3455   1.604   5.417   5.070
  864HO4     MW 3456   1.555   5.336   5.035
  865HO4     OW 3457   4.501   2.339   1.564
  865HO4    HW1 3458   4.425   2.296   1.613
  865HO4    HW2 3459   4.476   2.433   1.539
  865HO4     MW 3460   4.501   2.339   1.564
  866HO4     OW 3461   0.994   3.546   1.040
  866HO4    HW1 3462   1.043   3.458   1.048
  866HO4    HW2 3463   0.957   3.554   0.947
  866HO4     MW 3464   0.994   3.546   1.040
  867HO4     OW 3465   2.435   3.234   5.112
  867HO4    HW1 3466   2.410   3.167   5.183
  867HO4    HW2 3467   2.390   3.211   5.026
  867HO4     MW 3468   2.435   3.234   5.112
  868HO4     OW 3469   0.622   0.040   1.359
  868HO4    HW1 3470   0.712   0.022   1.398
  868HO4    HW2 3471   0.572  -0.047   1.347
  868HO4     MW 3472   0.622   0.040   1.359
  869HO4     OW 3473   3.737   0.974   4.337
  869HO4    HW1 3474   3.648   0.984   4.382
  869HO4    HW2 3475   3.734   1.020   4.247
  869HO4     MW 3476   3.737   0.974   4.337
  870HO4     OW 3477   3.525   3.878   2.520
  870HO4    HW1 3478   3.612   3.828   2.515
  870HO4    HW2 3479   3.502   3.893   2.617
  870HO4     MW 3480   3.525   3.878   2.520
  871HO4     OW 3481   3.368   3.593   0.501
  871HO4    HW1 3482   3.392   3.553   0.590
  871HO4    HW2 3483   3.270   3.579   0.483
  871HO4     MW 3484   3.368   3.593   0.501
  872HO4     OW 3485   3.805   0.273   2.848
  872HO4    HW1 3486   3.870   0.321   2.788
  872HO4    HW2 3487   3.782   0.331   2.927
  872HO4     MW 3488   3.805   0.273   2.848
  873HO4     OW 3489   2.863   3.875   5.299
  873HO4    HW1 3490   2.870   3.875   5.199
  873HO4    HW2 3491   2.890   3.785   5.335
  873HO4     MW 3492   2.863   3.875   5.299
  874HO4     OW 3493   1.395   4.354   1.668
  874HO4    HW1 3494   1.395   4.276   1.731
  874HO4    HW2 3495   1.381   4.321   1.574
  874HO4     MW 3496   1.395   4.354   1.668
  875HO4     OW 3497   1.326   1.927   3.792
  875HO4    HW1 3498   1.284   1.914   3.701
  875HO4    HW2 3499   1.418   1.965   3.781
  875HO4     MW 3500   1.326   1.927   3.792
  876HO4     OW 3501   0.858   1.714   0.221
  876HO4    HW1 3502   0.918   1.646   0.179
  876HO4    HW2 3503   0.914   1.787   0.262
  876HO4     MW 3504   0.858   1.714   0.221
  877HO4     OW 3505   2.224   3.823   1.319
  877HO4    HW1 3506   2.143   3.833   1.260
  877HO4    HW2 3507   2.241   3.725   1.335
  877HO4     MW 3508   2.224   3.823   1.319
  878HO4     OW 3509   4.860   3.541   5.011
  878HO4    HW1 3510   4.858   3.453   4.963
  878HO4    HW2 3511   4.953   3.560   5.044
  878HO4     MW 3512   4.860   3.541   5.011
  879HO4     OW 3513   2.418   4.889   2.829
  879HO4    HW1 3514   2.465   4.927   2.748
  879HO4    HW2 3515   2.462   4.924   2.912
  879HO4     MW 3516   2.418   4.889   2.829
  880HO4     OW 3517   4.818   5.426   1.481
  880HO4    HW1 3518   4.794   5.353   1.416
  880HO4    HW2 3519   4.866   5.386   1.560
  880HO4     MW 3520   4.818   5.426   1.481
  881HO4     OW 3521   2.428   4.063   4.313
  881HO4    HW1 3522   2.380   4.038   4.398
  881HO4    HW2 3523   2.373   4.036   4.234
  881HO4     MW 3524   2.428   4.063   4.313
  882HO4     OW 3525   0.771   4.483   3.619
  882HO4    HW1 3526   0.786   4.421   3.541
  882HO4    HW2 3527   0.679   4.467   3.656
  882HO4     MW 3528   0.771   4.483   3.619
  883HO4     OW 3529   0.184   3.718   2.487
  883HO4    HW1 3530   0.152   3.769   2.406
  883HO4    HW2 3531   0.159   3.769   2.570
  883HO4     MW 3532   0.184   3.718   2.487
  884HO4     OW 3533   0.631   4.339   1.582
  884HO4    HW1 3534   0.672   4.420   1.624
  884HO4    HW2 3535   0.637   4.347   1.482
  884HO4     MW 3536   0.631   4.339   1.582
  885HO4     OW 3537   1.030   2.853   0.212
  885HO4    HW1 3538   1.043   2.767   0.163
  885HO4    HW2 3539   0.942   2.852   0.260
  885HO4     MW 3540   1.030   2.853   0.212
  886HO4     OW 3541   0.883   5.220   3.091
  886HO4    HW1 3542   0.979   5.223   3.063
  886HO4    HW2 3543   0.876   5.179   3.182
  886HO4     MW 3544   0.883   5.220   3.091
  887HO4     OW 3545   1.078   1.545   5.415
  887HO4    HW1 3546   1.050   1.609   5.343
  887HO4    HW2 3547   1.029   1.567   5.500
  887HO4     MW 3548   1.078   1.545   5.415
  888HO4     OW 3549   0.031   4.861   3.793
  888HO4    HW1 3550   0.027   4.919   3.875
  888HO4    HW2 3551   0.041   4.919   3.712
  888HO4     MW 3552   0.031   4.861   3.793
  889HO4     OW 3553   0.048   0.456   1.270
  889HO4    HW1 3554   0.081   0.396   1.343
  889HO4    HW2 3555   0.081   0.422   1.181
  889HO4     MW 3556   0.048   0.456   1.270
  890HO4     OW 3557   4.178   4.375   1.248
  890HO4    HW1 3558   4.107   4.304   1.248
  890HO4    HW2 3559   4.266   4.334   1.274
  890HO4     MW 3560   4.178   4.375   1.248
  891HO4     OW 3561   2.807   3.083   4.609
  891HO4    HW1 3562   2.734   3.121   4.667
  891HO4    HW2 3563   2.774   2.998   4.565
  891HO4     MW 3564   2.807   3.083   4.609
  892HO4     OW 3565   0.583   5.381   5.332
  892HO4    HW1 3566   0.571   5.481   5.326
  892HO4    HW2 3567   0.647   5.359   5.406
  892HO4     MW 3568   0.583   5.381   5.332
  893HO4     OW 3569   4.019   3.206   2.743
  893HO4    HW1 3570   4.053   3.134   2.805
  893HO4    HW2 3571   4.021   3.172   2.649
  893HO4     MW 3572   4.019   3.206   2.743
  894HO4     OW 3573   2.910   4.840   5.110
  894HO4    HW1 3574   2.897   4.747   5.075
  894HO4    HW2 3575   3.005   4.869   5.095
  894HO4     MW 3576   2.910   4.840   5.110
  895HO4     OW 3577   4.404   0.769   1.680
  895HO4    HW1 3578   4.379   0.788   1.585
  895HO4    HW2 3579   4.391   0.852   1.735
  895HO4     MW 3580   4.404   0.769   1.680
  896HO4     OW 3581   5.438   0.622   0.607
  896HO4    HW1 3582   5.372   0.664   0.670
  896HO4    HW2 3583   5.462   0.687   0.535
  896HO4     MW 3584   5.438   0.622   0.607
  897HO4     OW 3585   3.658   3.054   4.829
  897HO4    HW1 3586   3.631   3.111   4.908
  897HO4    HW2 3587   3.673   3.113   4.749
  897HO4     MW 3588   3.658   3.054   4.829
  898HO4     OW 3589   0.601   3.725   4.171
  898HO4    HW1 3590   0.630   3.630   4.161
  898HO4    HW2 3591   0.501   3.730   4.181
  898HO4     MW 3592   0.601   3.725   4.171
  899HO4     OW 3593   4.151   0.607   0.281
  899HO4    HW1 3594   4.187   0.591   0.373
  899HO4    HW2 3595   4.204   0.553   0.215
  899HO4     MW 3596   4.151   0.607   0.281
  900HO4     OW 3597   1.793   3.051   2.502
  900HO4    HW1 3598   1.815   3.044   2.404
  900HO4    HW2 3599   1.820   3.142   2.536
  900HO4     MW 3600   1.793   3.051   2.502
  901HO4     OW 3601   0.637   0.689   2.980
  901HO4    HW1 3602   0.720   0.719   3.028
  901HO4    HW2 3603   0.662   0.632   2.901
  901HO4     MW 3604   0.637   0.689   2.980
  902HO4     OW 3605   0.657   0.253   4.806
  902HO4    HW1 3606   0.627   0.338   4.852
  902HO4    HW2 3607   0.595   0.234   4.729
  902HO4     MW 3608   0.657   0.253   4.806
  903HO4     OW 3609   3.989   0.471   0.338
  903HO4    HW1 3610   3.927   0.533   0.289
  903HO4    HW2 3611   4.046   0.523   0.402
  903HO4     MW 3612   3.989   0.471   0.338
  904HO4     OW 3613   1.181   5.438   0.090
  904HO4    HW1 3614   1.221   5.498   0.021
  904HO4    HW2 3615   1.236   5.443   0.175
  904HO4     MW 3616   1.181   5.438   0.090
  905HO4     OW 3617   5.283   2.593   4.314
  905HO4    HW1 3618   5.375   2.554   4.315
  905HO4    HW2 3619   5.262   2.628   4.222
  905HO4     MW 3620   5.283   2.593   4.314
  906HO4     OW 3621   1.143   0.766   4.546
  906HO4    HW1 3622   1.164   0.768   4.644
  906HO4    HW2 3623   1.079   0.690   4.527
  906HO4     MW 3624   1.143   0.766   4.546
  907HO4     OW 3625   2.396   2.490   3.201
  907HO4    HW1 3626   2.455   2.483   3.281
  907HO4    HW2 3627   2.356   2.400   3.180
  907HO4     MW 3628   2.396   2.490   3.201
  908HO4     OW 3629   3.038   2.042   0.711
  908HO4    HW1 3630   3.071   1.997   0.627
  908HO4    HW2 3631   3.078   1.996   0.791
  908HO4     MW 3632   3.038   2.042   0.711
  909HO4     OW 3633   4.769   1.121   0.287
  909HO4    HW1 3634   4.680   1.074   0.292
  909HO4    HW2 3635   4.775   1.172   0.200
  909HO4     MW 3636   4.769   1.121   0.287
  910HO4     OW 3637   3.028   5.092   0.773
  910HO4    HW1 3638   3.082   5.084   0.858
  910HO4    HW2 3639   3.046   5.181   0.731
  910HO4     MW 3640   3.028   5.092   0.773
  911HO4     OW 3641   2.192   1.298   2.417
  911HO4    HW1 3642   2.162   1.353   2.338
  911HO4    HW2 3643   2.215   1.359   2.493
  911HO4     MW 3644   2.192   1.298   2.417
  912HO4     OW 3645   1.901   4.680   4.598
  912HO4    HW1 3646   2.000   4.673   4.613
  912HO4    HW2 3647   1.866   4.762   4.644
  912HO4     MW 3648   1.901   4.680   4.598
  913HO4     OW 3649   3.224   1.215   5.409
  913HO4    HW1 3650   3.148   1.187   5.467
  913HO4    HW2 3651   3.271   1.293   5.451
  913HO4     MW 3652   3.224   1.215   5.409
  914HO4     OW 3653   4.315   2.873   2.089
  914HO4    HW1 3654   4.331   2.902   2.184
  914HO4    HW2 3655   4.399   2.832   2.052
  914HO4     MW 3656   4.315   2.873   2.089
  915HO4     OW 3657   1.143   1.347   2.323
  915HO4    HW1 3658   1.085   1.406   2.380
  915HO4    HW2 3659   1.101   1.256   2.315
  915HO4     MW 3660   1.143   1.347   2.323
  916HO4     OW 3661   1.434   1.530   1.528
  916HO4    HW1 3662   1.366   1.468   1.570
  916HO4    HW2 3663   1.413   1.625   1.553
  916HO4     MW 3664   1.434   1.530   1.528
  917HO4     OW 3665   1.255   0.373   5.113
  917HO4    HW1 3666   1.349   0.383   5.149
  917HO4    HW2 3667   1.258   0.383   5.013
  917HO4     MW 3668   1.255   0.373   5.113
  918HO4     OW 3669   2.857   0.652   1.742
  918HO4    HW1 3670   2.805   0.574   1.704
  918HO4    HW2 3671   2.866   0.723   1.671
  918HO4     MW 3672   2.857   0.652   1.742
  919HO4     OW 3673   3.853   1.385   4.886
  919HO4    HW1 3674   3.933   1.347   4.837
  919HO4    HW2 3675   3.851   1.484   4.874
  919HO4     MW 3676   3.853   1.385   4.886
  920HO4     OW 3677   5.165   1.188   3.375
  920HO4    HW1 3678   5.103   1.253   3.331
  920HO4    HW2 3679   5.260   1.219   3.363
  920HO4     MW 3680   5.165   1.188   3.375
  921HO4     OW 3681   0.579   1.256   3.515
  921HO4    HW1 3682   0.631   1.273   3.599
  921HO4    HW2 3683   0.641   1.255   3.436
  921HO4     MW 3684   0.579   1.256   3.515
  922HO4     OW 3685   2.710   0.145   1.026
  922HO4    HW1 3686   2.700   0.126   1.124
  922HO4    HW2 3687   2.619   0.153   0.984
  922HO4     MW 3688   2.710   0.145   1.026
  923HO4     OW 3689   1.950   0.975   2.276
  923HO4    HW1 3690   2.015   0.947   2.204
  923HO4    HW2 3691   1.861   0.933   2.259
  923HO4     MW 3692   1.950   0.975   2.276
  924HO4     OW 3693   1.485   2.922   5.021
  924HO4    HW1 3694   1.548   2.930   4.943
  924HO4    HW2 3695   1.533   2.945   5.106
  924HO4     MW 3696   1.485   2.922   5.021
  925HO4     OW 3697   4.441   0.033   5.282
  925HO4    HW1 3698   4.471  -0.062   5.269
  925HO4    HW2 3699   4.499   0.094   5.227
  925HO4     MW 3700   4.441   0.033   5.282
  926HO4     OW 3701   2.250   1.874   1.125
  926HO4    HW1 3702   2.154   1.900   1.114
  926HO4    HW2 3703   2.309   1.943   1.083
  926HO4     MW 3704   2.250   1.874   1.125
  927HO4     OW 3705   3.539   3.698   3.707
  927HO4    HW1 3706   3.614   3.632   3.721
  927HO4    HW2 3707   3.513   3.699   3.610
  927HO4     MW 3708   3.539   3.698   3.707
  928HO4     OW 3709   3.511   2.867   0.914
  928HO4    HW1 3710   3.419   2.858   0.954
  928HO4    HW2 3711   3.513   2.817   0.826
  928HO4     MW 3712   3.511   2.867   0.914
  929HO4     OW 3713   1.083   3.965   4.085
  929HO4    HW1 3714   1.050   3.940   3.994
  929HO4    HW2 3715   1.083   3.884   4.144
  929HO4     MW 3716   1.083   3.965   4.085
  930HO4     OW 3717   1.890   1.501   3.817
  930HO4    HW1 3718   1.939   1.509   3.904
  930HO4    HW2 3719   1.832   1.583   3.804
  930HO4     MW 3720   1.890   1.501   3.817
  931HO4     OW 3721   0.762   1.450   4.674
  931HO4    HW1 3722   0.705   1.402   4.741
  931HO4    HW2 3723   0.751   1.407   4.584
  931HO4     MW 3724   0.762   1.450   4.674
  932HO4     OW 3725   4.139   0.167   0.826
  932HO4    HW1 3726   4.130   0.213   0.738
  932HO4    HW2 3727   4.057   0.111   0.844
  932HO4     MW 3728   4.139   0.167   0.826
  933HO4     OW 3729   0.864   3.130   0.244
  933HO4    HW1 3730   0.889   3.110   0.148
  933HO4    HW2 3731   0.946   3.127   0.301
  933HO4     MW 3732   0.864   3.130   0.244
  934HO4     OW 3733   1.663   4.835   3.505
  934HO4    HW1 3734   1.684   4.782   3.422
  934HO4    HW2 3735   1.699   4.787   3.585
  934HO4     MW 3736   1.663   4.835   3.505
  935HO4     OW 3737   0.059   2.314   1.205
  935HO4    HW1 3738  -0.000   2.345   1.130
  935HO4    HW2 3739   0.018   2.340   1.293
  935HO4     MW 3740   0.059   2.314   1.205
  936HO4     OW 3741   4.477   3.755   0.898
  936HO4    HW1 3742   4.567   3.712   0.895
  936HO4    HW2 3743   4.434   3.748   0.807
  936HO4     MW 3744   4.477   3.755   0.898
  937HO4     OW 3745   0.229   0.766   4.931
  937HO4    HW1 3746   0.283   0.850   4.922
  937HO4    HW2 3747   0.182   0.747   4.844
  937HO4     MW 3748   0.229   0.766   4.931
  938HO4     OW 3749   0.817   1.714   0.470
  938HO4    HW1 3750   0.726   1.740   0.505
  938HO4    HW2 3751   0.872   1.796   0.457
  938HO4     MW 3752   0.817   1.714   0.470
  939HO4     OW 3753   3.083   2.125   3.836
  939HO4    HW1 3754   3.046   2.209   3.878
  939HO4    HW2 3755   3.041   2.111   3.746
  939HO4     MW 3756   3.083   2.125   3.836
  940HO4     OW 3757   0.323   4.574   5.330
  940HO4    HW1 3758   0.256   4.643   5.300
  940HO4    HW2 3759   0.291   4.482   5.303
  940HO4     MW 3760   0.323   4.574   5.330
  941HO4     OW 3761   2.420   3.698   3.693
  941HO4    HW1 3762   2.419   3.766   3.767
  941HO4    HW2 3763   2.508   3.650   3.694
  941HO4     MW 3764   2.420   3.698   3.693
  942HO4     OW 3765   2.610   1.851   2.857
  942HO4    HW1 3766   2.566   1.940   2.840
  942HO4    HW2 3767   2.651   1.817   2.772
  942HO4     MW 3768   2.610   1.851   2.857
  943HO4     OW 3769   4.397   5.372   2.751
  943HO4    HW1 3770   4.339   5.408   2.677
  943HO4    HW2 3771   4.395   5.435   2.829
  943HO4     MW 3772   4.397   5.372   2.751
  944HO4     OW 3773   2.727   4.248   4.333
  944HO4    HW1 3774   2.692   4.332   4.289
  944HO4    HW2 3775   2.655   4.208   4.390
  944HO4     MW 3776   2.727   4.248   4.333
  945HO4     OW 3777   3.808   1.892   4.372
  945HO4    HW1 3778   3.835   1.985   4.345
  945HO4    HW2 3779   3.712   1.878   4.349
  945HO4     MW 3780   3.808   1.892   4.372
  946HO4     OW 3781   4.442   4.067   0.532
  946HO4    HW1 3782   4.405   4.159   0.549
  946HO4    HW2 3783   4.395   4.027   0.453
  946HO4     MW 3784   4.442   4.067   0.532
  947HO4     OW 3785   2.942   4.390   1.906
  947HO4    HW1 3786   2.905   4.301   1.876
  947HO4    HW2 3787   2.868   4.448   1.939
  947HO4     MW 3788   2.942   4.390   1.906
  948HO4     OW 3789   0.793   3.846   3.895
  948HO4    HW1 3790   0.723   3.886   3.835
  948HO4    HW2 3791   0.773   3.870   3.990
  948HO4     MW 3792   0.793   3.846   3.895
  949HO4     OW 3793   1.907   0.789   3.129
  949HO4    HW1 3794   1.823   0.761   3.081
  949HO4    HW2 3795   1.975   0.715   3.122
  949HO4     MW 3796   1.907   0.789   3.129
  950HO4     OW 3797   2.353   0.755   1.536
  950HO4    HW1 3798   2.363   0.723   1.441
  950HO4    HW2 3799   2.427   0.715   1.592
  950HO4     MW 3800   2.353   0.755   1.536
  951HO4     OW 3801   4.814   2.574   3.523
  951HO4    HW1 3802   4.719   2.590   3.551
  951HO4    HW2 3803   4.816   2.532   3.432
  951HO4     MW 3804   4.814   2.574   3.523
  952HO4     OW 3805   1.766   5.276   3.439
  952HO4    HW1 3806   1.778   5.255   3.342
  952HO4    HW2 3807   1.724   5.197   3.485
  952HO4     MW 3808   1.766   5.276   3.439
  953HO4     OW 3809   4.052   3.650   2.010
  953HO4    HW1 3810   4.096   3.686   2.093
  953HO4    HW2 3811   4.111   3.580   1.968
  953HO4     MW 3812   4.052   3.650   2.010
  954HO4     OW 3813   4.499   3.151   2.495
  954HO4    HW1 3814   4.467   3.149   2.590
  954HO4    HW2 3815   4.527   3.059   2.467
  954HO4     MW 3816   4.499   3.151   2.495
  955HO4     OW 3817   3.972   3.401   4.548
  955HO4    HW1 3818   3.924   3.375   4.632
  955HO4    HW2 3819   4.002   3.317   4.500
  955HO4     MW 3820   3.972   3.401   4.548
  956HO4     OW 3821   1.595   3.174   3.208
  956HO4    HW1 3822   1.683   3.129   3.221
  956HO4    HW2 3823   1.528   3.136   3.273
  956HO4     MW 3824   1.595   3.174   3.208
  957HO4     OW 3825   0.791   4.827   2.565
  957HO4    HW1 3826   0.862   4.803   2.498
  957HO4    HW2 3827   0.825   4.899   2.626
  957HO4     MW 3828   0.791   4.827   2.565
  958HO4     OW 3829   2.582   3.360   0.009
  958HO4    HW1 3830   2.549   3.339  -0.084
  958HO4    HW2 3831   2.505   3.391   0.066
  958HO4     MW 3832   2.582   3.360   0.009
  959HO4     OW 3833   3.156   0.548   3.303
  959HO4    HW1 3834   3.078   0.527   3.243
  959HO4    HW2 3835   3.123   0.558   3.397
  959HO4     MW 3836   3.156   0.548   3.303
  960HO4     OW 3837   4.835   4.468   4.392
  960HO4    HW1 3838   4.899   4.460   4.315
  960HO4    HW2 3839   4.882   4.445   4.478
  960HO4     MW 3840   4.835   4.468   4.392
  961HO4     OW 3841   2.219   5.208   0.179
  961HO4    HW1 3842   2.133   5.206   0.126
  961HO4    HW2 3843   2.256   5.115   0.185
  961HO4     MW 3844   2.219   5.208   0.179
  962HO4     OW 3845   2.265   5.305   1.983
  962HO4    HW1 3846   2.201   5.309   1.906
  962HO4    HW2 3847   2.215   5.323   2.069
  962HO4     MW 3848   2.265   5.305   1.983
  963HO4     OW 3849   0.905   1.389   4.173
  963HO4    HW1 3850   0.992   1.340   4.163
  963HO4    HW2 3851   0.829   1.332   4.139
  963HO4     MW 3852   0.905   1.389   4.173
  964HO4     OW 3853   3.619   1.277   4.503
  964HO4    HW1 3854   3.687   1.271   4.429
  964HO4    HW2 3855   3.527   1.276   4.464
  964HO4     MW 3856   3.619   1.277   4.503
  965HO4     OW 3857   0.888   3.549   2.759
  965HO4    HW1 3858   0.882   3.639   2.714
  965HO4    HW2 3859   0.828   3.484   2.712
  965HO4     MW 3860   0.888   3.549   2.759
  966HO4     OW 3861   0.763   4.201   5.462
  966HO4    HW1 3862   0.721   4.149   5.537
  966HO4    HW2 3863   0.778   4.141   5.383
  966HO4     MW 3864   0.763   4.201   5.462
  967HO4     OW 3865   5.249   3.429   3.479
  967HO4    HW1 3866   5.165   3.483   3.466
  967HO4    HW2 3867   5.316   3.455   3.409
  967HO4     MW 3868   5.249   3.429   3.479
  968HO4     OW 3869   4.593   4.911   0.107
  968HO4    HW1 3870   4.499   4.932   0.135
  968HO4    HW2 3871   4.594   4.886   0.009
  968HO4     MW 3872   4.593   4.911   0.107
  969HO4     OW 3873   4.034   2.871   3.141
  969HO4    HW1 3874   4.046   2.792   3.203
  969HO4    HW2 3875   4.009   2.952   3.195
  969HO4     MW 3876   4.034   2.871   3.141
  970HO4     OW 3877   1.210   1.142   4.035
  970HO4    HW1 3878   1.265   1.203   4.093
  970HO4    HW2 3879   1.216   1.048   4.070
  970HO4     MW 3880   1.210   1.142   4.035
  971HO4     OW 3881   0.299   5.195   1.314
  971HO4    HW1 3882   0.311   5.254   1.395
  971HO4    HW2 3883   0.342   5.239   1.234
  971HO4     MW 3884   0.299   5.195   1.314
  972HO4     OW 3885   2.467   3.632   3.207
  972HO4    HW1 3886   2.428   3.707   3.261
  972HO4    HW2 3887   2.506   3.669   3.122
  972HO4     MW 3888   2.467   3.632   3.207
  973HO4     OW 3889   2.508   4.901   1.012
  973HO4    HW1 3890   2.570   4.858   0.946
  973HO4    HW2 3891   2.413   4.872   0.993
  973HO4     MW 3892   2.508   4.901   1.012
  974HO4     OW 3893   0.221   2.514   3.603
  974HO4    HW1 3894   0.159   2.515   3.681
  974HO4    HW2 3895   0.294   2.583   3.616
  974HO4     MW 3896   0.221   2.514   3.603
  975HO4     OW 3897   4.524   2.938   1.796
  975HO4    HW1 3898   4.526   2.840   1.814
  975HO4    HW2 3899   4.563   2.988   1.874
  975HO4     MW 3900   4.524   2.938   1.796
  976HO4     OW 3901   4.693   1.861   2.121
  976HO4    HW1 3902   4.667   1.796   2.049
  976HO4    HW2 3903   4.790   1.848   2.145
  976HO4     MW 3904   4.693   1.861   2.121
  977HO4     OW 3905  -0.019   3.704   3.449
  977HO4    HW1 3906   0.038   3.681   3.370
  977HO4    HW2 3907   0.037   3.704   3.532
  977HO4     MW 3908  -0.019   3.704   3.449
  978HO4     OW 3909   4.677   3.528   1.897
  978HO4    HW1 3910   4.730   3.488   1.822
  978HO4    HW2 3911   4.716   3.500   1.985
  978HO4     MW 3912   4.677   3.528   1.897
  979HO4     OW 3913   3.156   1.446   0.902
  979HO4    HW1 3914   3.209   1.485   0.826
  979HO4    HW2 3915   3.205   1.463   0.988
  979HO4     MW 3916   3.156   1.446   0.902
  980HO4     OW 3917   1.744   3.760   4.904
  980HO4    HW1 3918   1.690   3.753   4.988
  980HO4    HW2 3919   1.842   3.751   4.927
  980HO4     MW 3920   1.744   3.760   4.904
  981HO4     OW 3921   4.405   2.273   0.565
  981HO4    HW1 3922   4.461   2.207   0.616
  981HO4    HW2 3923   4.340   2.317   0.627
  981HO4     MW 3924   4.405   2.273   0.565
  982HO4     OW 3925   3.452   1.068   3.022
  982HO4    HW1 3926   3.359   1.076   3.058
  982HO4    HW2 3927   3.492   0.981   3.052
  982HO4     MW 3928   3.452   1.068   3.022
  983HO4     OW 3929   3.669   1.253   4.105
  983HO4    HW1 3930   3.722   1.174   4.139
  983HO4    HW2 3931   3.717   1.338   4.130
  983HO4     MW 3932   3.669   1.253   4.105
  984HO4     OW 3933   2.441   0.740   4.611
  984HO4    HW1 3934   2.353   0.766   4.652
  984HO4    HW2 3935   2.429   0.724   4.512
  984HO4     MW 3936   2.441   0.740   4.611
  985HO4     OW 3937   3.919   0.799   4.797
  985HO4    HW1 3938   3.951   0.775   4.704
  985HO4    HW2 3939   3.825   0.834   4.792
  985HO4     MW 3940   3.919   0.799   4.797
  986HO4     OW 3941   1.569   3.924   1.525
  986HO4    HW1 3942   1.633   3.912   1.602
  986HO4    HW2 3943   1.553   4.022   1.509
  986HO4     MW 3944   1.569   3.924   1.525
  987HO4     OW 3945   2.714   5.433   2.802
  987HO4    HW1 3946   2.808   5.410   2.776
  987HO4    HW2 3947   2.712   5.526   2.840
  987HO4     MW 3948   2.714   5.433   2.802
  988HO4     OW 3949   0.899   3.813   0.833
  988HO4    HW1 3950   0.998   3.806   0.842
  988HO4    HW2 3951   0.855   3.738   0.884
  988HO4     MW 3952   0.899   3.813   0.833
  989HO4     OW 3953   1.366   1.209   3.746
  989HO4    HW1 3954   1.395   1.228   3.652
  989HO4    HW2 3955   1.431   1.146   3.789
  989HO4     MW 3956   1.366   1.209   3.746
  990HO4     OW 3957   0.972   1.551   5.070
  990HO4    HW1 3958   0.968   1.649   5.093
  990HO4    HW2 3959   1.022   1.502   5.142
  990HO4     MW 3960   0.972   1.551   5.070
  991HO4     OW 3961   5.132   3.301   2.600
  991HO4    HW1 3962   5.132   3.216   2.546
  991HO4    HW2 3963   5.081   3.372   2.551
  991HO4     MW 3964   5.132   3.301   2.600
  992HO4     OW 3965   3.328   3.240   4.777
  992HO4    HW1 3966   3.392   3.304   4.821
  992HO4    HW2 3967   3.254   3.217   4.841
  992HO4     MW 3968   3.328   3.240   4.777
  993HO4     OW 3969   2.860   2.327   3.852
  993HO4    HW1 3970   2.949   2.372   3.845
  993HO4    HW2 3971   2.854   2.253   3.784
  993HO4     MW 3972   2.860   2.327   3.852
  994HO4     OW 3973   2.039   1.629   4.612
  994HO4    HW1 3974   2.136   1.626   4.636
  994HO4    HW2 3975   2.013   1.544   4.565
  994HO4     MW 3976   2.039   1.629   4.612
  995HO4     OW 3977   3.415   2.269   1.629
  995HO4    HW1 3978   3.461   2.325   1.699
  995HO4    HW2 3979   3.431   2.310   1.538
  995HO4     MW 3980   3.415   2.269   1.629
  996HO4     OW 3981   4.503   1.014   0.512
  996HO4    HW1 3982   4.489   0.936   0.575
  996HO4    HW2 3983   4.484   1.100   0.561
  996HO4     MW 3984   4.503   1.014   0.512
  997HO4     OW 3985   1.926   5.273   0.001
  997HO4    HW1 3986   1.861   5.206   0.038
  997HO4    HW2 3987   1.890   5.366   0.016
  997HO4     MW 3988   1.926   5.273   0.001
  998HO4     OW 3989   1.010   0.050   3.886
  998HO4    HW1 3990   0.915   0.037   3.854
  998HO4    HW2 3991   1.064   0.093   3.814
  998HO4     MW 3992   1.010   0.050   3.886
  999HO4     OW 3993   2.058   2.495   3.859
  999HO4    HW1 3994   1.986   2.426   3.871
  999HO4    HW2 3995   2.141   2.450   3.824
  999HO4     MW 3996   2.058   2.495   3.859
 1000HO4     OW 3997   3.252   0.477   2.005
 1000HO4    HW1 3998   3.276   0.408   1.937
 1000HO4    HW2 3999   3.231   0.564   1.959
 1000HO4     MW 4000   3.252   0.477   2.005
 1001HO4     OW 4001   2.174   3.887   0.488
 1001HO4    HW1 4002   2.256   3.945   0.486
 1001HO4    HW2 4003   2.093   3.944   0.469
 1001HO4     MW 4004   2.174   3.887   0.488
 1002HO4     OW 4005   2.460   4.489   1.993
 1002HO4    HW1 4006   2.512   4.496   2.078
 1002HO4    HW2 4007   2.507   4.540   1.920
 1002HO4     MW 4008   2.460   4.489   1.993
 1003HO4     OW 4009   0.288   0.844   1.317
 1003HO4    HW1 4010   0.309   0.899   1.399
 1003HO4    HW2 4011   0.308   0.899   1.235
 1003HO4     MW 4012   0.288   0.844   1.317
 1004HO4     OW 4013   1.324   4.196   4.473
 1004HO4    HW1 4014   1.378   4.226   4.553
 1004HO4    HW2 4015   1.378   4.212   4.389
 1004HO4     MW 4016   1.324   4.196   4.473
 1005HO4     OW 4017   3.775   4.074   4.688
 1005HO4    HW1 4018   3.706   4.128   4.738
 1005HO4    HW2 4019   3.811   4.129   4.612
 1005HO4     MW 4020   3.775   4.074   4.688
 1006HO4     OW 4021   0.516   2.041   2.864
 1006HO4    HW1 4022   0.549   1.994   2.781
 1006HO4    HW2 4023   0.450   1.982   2.911
 1006HO4     MW 4024   0.516   2.041   2.864
 1007HO4     OW 4025   2.359   0.453   4.891
 1007HO4    HW1 4026   2.324   0.514   4.819
 1007HO4    HW2 4027   2.392   0.508   4.968
 1007HO4     MW 4028   2.359   0.453   4.891
 1008HO4     OW 4029   1.414   4.444   3.210
 1008HO4    HW1 4030   1.320   4.414   3.226
 1008HO4    HW2 4031   1.428   4.534   3.251
 1008HO4     MW 4032   1.414   4.444   3.210
 1009HO4     OW 4033   4.662   3.970   1.291
 1009HO4    HW1 4034   4.571   3.998   1.260
 1009HO4    HW2 4035   4.731   4.036   1.258
 1009HO4     MW 4036   4.662   3.970   1.291
 1010HO4     OW 4037   4.207   3.231   3.158
 1010HO4    HW1 4038   4.169   3.207   3.248
 1010HO4    HW2 4039   4.131   3.246   3.093
 1010HO4     MW 4040   4.207   3.231   3.158
 1011HO4     OW 4041   0.856   0.232   2.712
 1011HO4    HW1 4042   0.815   0.178   2.638
 1011HO4    HW2 4043   0.787   0.249   2.783
 1011HO4     MW 4044   0.856   0.232   2.712
 1012HO4     OW 4045   0.209   4.609   4.182
 1012HO4    HW1 4046   0.154   4.690   4.202
 1012HO4    HW2 4047   0.250   4.574   4.266
 1012HO4     MW 4048   0.209   4.609   4.182
 1013HO4     OW 4049   5.315   2.923   3.484
 1013HO4    HW1 4050   5.287   2.938   3.388
 1013HO4    HW2 4051   5.283   2.999   3.541
 1013HO4     MW 4052   5.315   2.923   3.484
 1014HO4     OW 4053   4.747   0.499   0.681
 1014HO4    HW1 4054   4.733   0.459   0.590
 1014HO4    HW2 4055   4.840   0.534   0.689
 1014HO4     MW 4056   4.747   0.499   0.681
 1015HO4     OW 4057   4.465   5.455   4.796
 1015HO4    HW1 4058   4.452   5.534   4.856
 1015HO4    HW2 4059   4.438   5.371   4.843
 1015HO4     MW 4060   4.465   5.455   4.796
 1016HO4     OW 4061   4.148   0.780   0.085
 1016HO4    HW1 4062   4.227   0.765   0.024
 1016HO4    HW2 4063   4.179   0.775   0.180
 1016HO4     MW 4064   4.148   0.780   0.085
 1017HO4     OW 4065   0.852   4.990   1.663
 1017HO4    HW1 4066   0.866   4.932   1.583
 1017HO4    HW2 4067   0.921   4.969   1.733
 1017HO4     MW 4068   0.852   4.990   1.663
 1018HO4     OW 4069   2.037   0.482   1.076
 1018HO4    HW1 4070   2.020   0.386   1.051
 1018HO4    HW2 4071   1.949   0.531   1.082
 1018HO4     MW 4072   2.037   0.482   1.076
 1019HO4     OW 4073   1.925   4.803   5.410
 1019HO4    HW1 4074   1.869   4.720   5.403
 1019HO4    HW2 4075   1.905   4.849   5.497
 1019HO4     MW 4076   1.925   4.803   5.410
 1020HO4     OW 4077   2.973   1.470   4.279
 1020HO4    HW1 4078   2.923   1.558   4.278
 1020HO4    HW2 4079   3.009   1.451   4.187
 1020HO4     MW 4080   2.973   1.470   4.279
 1021HO4     OW 4081   2.786   2.680   1.134
 1021HO4    HW1 4082   2.818   2.600   1.185
 1021HO4    HW2 4083   2.859   2.750   1.133
 1021HO4     MW 4084   2.786   2.680   1.134
 1022HO4     OW 4085   0.737   2.801   0.125
 1022HO4    HW1 4086   0.777   2.866   0.191
 1022HO4    HW2 4087   0.790   2.804   0.040
 1022HO4     MW 4088   0.737   2.801   0.125
 1023HO4     OW 4089   3.579   2.798   2.245
 1023HO4    HW1 4090   3.589   2.743   2.162
 1023HO4    HW2 4091   3.575   2.737   2.325
 1023HO4     MW 4092   3.579   2.798   2.245
 1024HO4     OW 4093   1.823   4.555   2.564
 1024HO4    HW1 4094   1.755   4.512   2.505
 1024HO4    HW2 4095   1.849   4.644   2.525
 1024HO4     MW 4096   1.823   4.555   2.564
 1025HO4     OW 4097   3.274   3.984   3.502
 1025HO4    HW1 4098   3.267   3.895   3.549
 1025HO4    HW2 4099   3.226   3.978   3.414
 1025HO4     MW 4100   3.274   3.984   3.502
 1026HO4     OW 4101   1.926   2.648   3.106
 1026HO4    HW1 4102   1.947   2.571   3.045
 1026HO4    HW2 4103   1.962   2.628   3.198
 1026HO4     MW 4104   1.926   2.648   3.106
 1027HO4     OW 4105   5.207   3.191   5.208
 1027HO4    HW1 4106   5.109   3.204   5.191
 1027HO4    HW2 4107   5.257   3.273   5.177
 1027HO4     MW 4108   5.207   3.191   5.208
 1028HO4     OW 4109   3.669   0.556   3.225
 1028HO4    HW1 4110   3.764   0.585   3.243
 1028HO4    HW2 4111   3.608   0.604   3.288
 1028HO4     MW 4112   3.669   0.556   3.225
 1029HO4     OW 4113   2.657   3.818   4.530
 1029HO4    HW1 4114   2.563   3.818   4.564
 1029HO4    HW2 4115   2.670   3.895   4.467
 1029HO4     MW 4116   2.657   3.818   4.530
 1030HO4     OW 4117   4.194   1.480   4.691
 1030HO4    HW1 4118   4.162   1.396   4.736
 1030HO4    HW2 4119   4.241   1.539   4.757
 1030HO4     MW 4120   4.194   1.480   4.691
 1031HO4     OW 4121   5.276   2.458   0.064
 1031HO4    HW1 4122   5.187   2.441   0.107
 1031HO4    HW2 4123   5.349   2.417   0.120
 1031HO4     MW 4124   5.276   2.458   0.064
 1032HO4     OW 4125   4.159   4.783   1.646
 1032HO4    HW1 4126   4.118   4.701   1.604
 1032HO4    HW2 4127   4.241   4.809   1.595
 1032HO4     MW 4128   4.159   4.783   1.646
 1033HO4     OW 4129   2.304   1.127   4.519
 1033HO4    HW1 4130   2.212   1.129   4.558
 1033HO4    HW2 4131   2.298   1.122   4.419
 1033HO4     MW 4132   2.304   1.127   4.519
 1034HO4     OW 4133   3.510   0.245   1.386
 1034HO4    HW1 4134   3.517   0.174   1.315
 1034HO4    HW2 4135   3.546   0.331   1.350
 1034HO4     MW 4136   3.510   0.245   1.386
 1035HO4     OW 4137   0.515   4.179   5.209
 1035HO4    HW1 4138   0.578   4.130   5.149
 1035HO4    HW2 4139   0.557   4.189   5.300
 1035HO4     MW 4140   0.515   4.179   5.209
 1036HO4     OW 4141   3.836   0.455   1.870
 1036HO4    HW1 4142   3.774   0.435   1.945
 1036HO4    HW2 4143   3.854   0.371   1.818
 1036HO4     MW 4144   3.836   0.455   1.870
 1037HO4     OW 4145   4.052   4.506   1.808
 1037HO4    HW1 4146   4.149   4.532   1.803
 1037HO4    HW2 4147   4.019   4.482   1.716
 1037HO4     MW 4148   4.052   4.506   1.808
 1038HO4     OW 4149   2.613   0.054   1.333
 1038HO4    HW1 4150   2.554   0.037   1.253
 1038HO4    HW2 4151   2.555   0.065   1.414
 1038HO4     MW 4152   2.613   0.054   1.333
 1039HO4     OW 4153   4.699   3.036   4.184
 1039HO4    HW1 4154   4.791   3.009   4.213
 1039HO4    HW2 4155   4.695   3.136   4.173
 1039HO4     MW 4156   4.699   3.036   4.184
 1040HO4     OW 4157   4.504   2.035   3.528
 1040HO4    HW1 4158   4.503   2.122   3.578
 1040HO4    HW2 4159   4.415   2.019   3.487
 1040HO4     MW 4160   4.504   2.035   3.528
 1041HO4     OW 4161   4.661   1.333   3.643
 1041HO4    HW1 4162   4.615   1.337   3.732
 1041HO4    HW2 4163   4.592   1.342   3.570
 1041HO4     MW 4164   4.661   1.333   3.643
 1042HO4     OW 4165   2.670   5.403   2.303
 1042HO4    HW1 4166   2.661   5.494   2.344
 1042HO4    HW2 4167   2.637   5.406   2.208
 1042HO4     MW 4168   2.670   5.403   2.303
 1043HO4     OW 4169   2.157   4.229   5.421
 1043HO4    HW1 4170   2.257   4.233   5.425
 1043HO4    HW2 4171   2.125   4.256   5.330
 1043HO4     MW 4172   2.157   4.229   5.421
 1044HO4     OW 4173   3.511   2.964   2.875
 1044HO4    HW1 4174   3.445   3.039   2.884
 1044HO4    HW2 4175   3.465   2.876   2.886
 1044HO4     MW 4176   3.511   2.964   2.875
 1045HO4     OW 4177   3.036   1.939   1.230
 1045HO4    HW1 4178   2.997   1.982   1.148
 1045HO4    HW2 4179   2.998   1.984   1.312
 1045HO4     MW 4180   3.036   1.939   1.230
 1046HO4     OW 4181   4.485   3.383   4.089
 1046HO4    HW1 4182   4.564   3.420   4.040
 1046HO4    HW2 4183   4.500   3.285   4.107
 1046HO4     MW 4184   4.485   3.383   4.089
 1047HO4     OW 4185   4.057   5.262   2.157
 1047HO4    HW1 4186   4.042   5.309   2.245
 1047HO4    HW2 4187   4.032   5.323   2.081
 1047HO4     MW 4188   4.057   5.262   2.157
 1048HO4     OW 4189   0.094   3.304   2.082
 1048HO4    HW1 4190   0.085   3.357   1.997
 1048HO4    HW2 4191   0.069   3.360   2.161
 1048HO4     MW 4192   0.094   3.304   2.082
 1049HO4     OW 4193   3.653   0.987   3.693
 1049HO4    HW1 4194   3.738   1.025   3.655
 1049HO4    HW2 4195   3.668   0.891   3.719
 1049HO4     MW 4196   3.653   0.987   3.693
 1050HO4     OW 4197   2.766   4.262   0.343
 1050HO4    HW1 4198   2.793   4.340   0.401
 1050HO4    HW2 4199   2.827   4.257   0.263
 1050HO4     MW 4200   2.766   4.262   0.343
 1051HO4     OW 4201   4.000   0.103   4.188
 1051HO4    HW1 4202   3.954   0.172   4.131
 1051HO4    HW2 4203   3.964   0.012   4.166
 1051HO4     MW 4204   4.000   0.103   4.188
 1052HO4     OW 4205   1.531   5.463   2.729
 1052HO4    HW1 4206   1.611   5.519   2.755
 1052HO4    HW2 4207   1.558   5.396   2.658
 1052HO4     MW 4208   1.531   5.463   2.729
 1053HO4     OW 4209   1.451   5.380   0.944
 1053HO4    HW1 4210   1.410   5.371   0.853
 1053HO4    HW2 4211   1.422   5.467   0.986
 1053HO4     MW 4212   1.451   5.380   0.944
 1054HO4     OW 4213   0.470   2.477   5.031
 1054HO4    HW1 4214   0.500   2.567   4.998
 1054HO4    HW2 4215   0.450   2.417   4.953
 1054HO4     MW 4216   0.470   2.477   5.031
 1055HO4     OW 4217   1.875   3.115   1.870
 1055HO4    HW1 4218   1.900   3.131   1.966
 1055HO4    HW2 4219   1.784   3.153   1.852
 1055HO4     MW 4220   1.875   3.115   1.870
 1056HO4     OW 4221   4.899   2.856   3.577
 1056HO4    HW1 4222   4.812   2.831   3.621
 1056HO4    HW2 4223   4.897   2.825   3.481
 1056HO4     MW 4224   4.899   2.856   3.577
 1057HO4     OW 4225   3.990   1.511   1.414
 1057HO4    HW1 4226   3.965   1.566   1.494
 1057HO4    HW2 4227   3.919   1.443   1.396
 1057HO4     MW 4228   3.990   1.511   1.414
 1058HO4     OW 4229   1.698   5.412   1.744
 1058HO4    HW1 4230   1.651   5.453   1.823
 1058HO4    HW2 4231   1.659   5.450   1.659
 1058HO4     MW 4232   1.698   5.412   1.744
 1059HO4     OW 4233   2.577   1.445   2.326
 1059HO4    HW1 4234   2.552   1.382   2.251
 1059HO4    HW2 4235   2.541   1.409   2.413
 1059HO4     MW 4236   2.577   1.445   2.326
 1060HO4     OW 4237   0.226   0.483   1.769
 1060HO4    HW1 4238   0.248   0.454   1.862
 1060HO4    HW2 4239   0.266   0.419   1.703
 1060HO4     MW 4240   0.226   0.483   1.769
 1061HO4     OW 4241   1.806   5.242   0.261
 1061HO4    HW1 4242   1.774   5.208   0.172
 1061HO4    HW2 4243   1.774   5.180   0.334
 1061HO4     MW 4244   1.806   5.242   0.261
 1062HO4     OW 4245   3.783   2.135   3.501
 1062HO4    HW1 4246   3.826   2.097   3.418
 1062HO4    HW2 4247   3.828   2.099   3.582
 1062HO4     MW 4248   3.783   2.135   3.501
 1063HO4     OW 4249   0.702   3.106   2.973
 1063HO4    HW1 4250   0.768   3.030   2.981
 1063HO4    HW2 4251   0.609   3.071   2.988
 1063HO4     MW 4252   0.702   3.106   2.973
 1064HO4     OW 4253   4.829   3.195   5.195
 1064HO4    HW1 4254   4.786   3.129   5.257
 1064HO4    HW2 4255   4.927   3.199   5.213
 1064HO4     MW 4256   4.829   3.195   5.195
 1065HO4     OW 4257   0.119   0.099   0.395
 1065HO4    HW1 4258   0.065   0.182   0.414
 1065HO4    HW2 4259   0.216   0.124   0.388
 1065HO4     MW 4260   0.119   0.099   0.395
 1066HO4     OW 4261   1.678   5.119   1.257
 1066HO4    HW1 4262   1.762   5.151   1.210
 1066HO4    HW2 4263   1.673   5.160   1.348
 1066HO4     MW 4264   1.678   5.119   1.257
 1067HO4     OW 4265   2.226   0.346   4.405
 1067HO4    HW1 4266   2.228   0.404   4.322
 1067HO4    HW2 4267   2.236   0.404   4.486
 1067HO4     MW 4268   2.226   0.346   4.405
 1068HO4     OW 4269   1.728   0.323   2.727
 1068HO4    HW1 4270   1.702   0.367   2.641
 1068HO4    HW2 4271   1.709   0.386   2.803
 1068HO4     MW 4272   1.728   0.323   2.727
 1069HO4     OW 4273   0.747   3.331   3.872
 1069HO4    HW1 4274   0.817   3.399   3.849
 1069HO4    HW2 4275   0.791   3.248   3.907
 1069HO4     MW 4276   0.747   3.331   3.872
 1070HO4     OW 4277   3.669   2.051   5.327
 1070HO4    HW1 4278   3.702   2.086   5.415
 1070HO4    HW2 4279   3.570   2.067   5.319
 1070HO4     MW 4280   3.669   2.051   5.327
 1071HO4     OW 4281   3.028   2.702   1.772
 1071HO4    HW1 4282   3.054   2.651   1.855
 1071HO4    HW2 4283   2.997   2.794   1.798
 1071HO4     MW 4284   3.028   2.702   1.772
 1072HO4     OW 4285   1.624   0.031   4.060
 1072HO4    HW1 4286   1.615  -0.045   4.125
 1072HO4    HW2 4287   1.720   0.037   4.030
 1072HO4     MW 4288   1.624   0.031   4.060
 1073HO4     OW 4289   2.062   0.150   2.342
 1073HO4    HW1 4290   2.064   0.132   2.243
 1073HO4    HW2 4291   2.037   0.066   2.391
 1073HO4     MW 4292   2.062   0.150   2.342
 1074HO4     OW 4293   1.250   3.552   0.035
 1074HO4    HW1 4294   1.252   3.604  -0.051
 1074HO4    HW2 4295   1.256   3.615   0.112
 1074HO4     MW 4296   1.250   3.552   0.035
 1075HO4     OW 4297   0.413   0.129   4.945
 1075HO4    HW1 4298   0.320   0.138   4.910
 1075HO4    HW2 4299   0.450   0.221   4.965
 1075HO4     MW 4300   0.413   0.129   4.945
 1076HO4     OW 4301   0.348   5.421   0.643
 1076HO4    HW1 4302   0.320   5.361   0.719
 1076HO4    HW2 4303   0.331   5.517   0.667
 1076HO4     MW 4304   0.348   5.421   0.643
 1077HO4     OW 4305   1.057   3.045   2.235
 1077HO4    HW1 4306   1.026   3.097   2.316
 1077HO4    HW2 4307   1.073   3.108   2.159
 1077HO4     MW 4308   1.057   3.045   2.235
 1078HO4     OW 4309   1.459   2.047   3.578
 1078HO4    HW1 4310   1.511   1.967   3.544
 1078HO4    HW2 4311   1.523   2.120   3.603
 1078HO4     MW 4312   1.459   2.047   3.578
 1079HO4     OW 4313   0.242   0.865   2.368
 1079HO4    HW1 4314   0.180   0.942   2.385
 1079HO4    HW2 4315   0.234   0.797   2.441
 1079HO4     MW 4316   0.242   0.865   2.368
 1080HO4     OW 4317   4.206   4.919   5.023
 1080HO4    HW1 4318   4.262   4.941   5.103
 1080HO4    HW2 4319   4.255   4.944   4.939
 1080HO4     MW 4320   4.206   4.919   5.023
 1081HO4     OW 4321   4.927   0.818   2.792
 1081HO4    HW1 4322   4.881   0.756   2.857
 1081HO4    HW2 4323   4.999   0.768   2.743
 1081HO4     MW 4324   4.927   0.818   2.792
 1082HO4     OW 4325   1.994   3.629   1.188
 1082HO4    HW1 4326   2.022   3.672   1.102
 1082HO4    HW2 4327   1.936   3.549   1.168
 1082HO4     MW 4328   1.994   3.629   1.188
 1083HO4     OW 4329   3.931   1.038   2.434
 1083HO4    HW1 4330   3.879   1.008   2.514
 1083HO4    HW2 4331   3.920   0.970   2.360
 1083HO4     MW 4332   3.931   1.038   2.434
 1084HO4     OW 4333   1.380   2.314   3.011
 1084HO4    HW1 4334   1.296   2.319   2.956
 1084HO4    HW2 4335   1.355   2.307   3.108
 1084HO4     MW 4336   1.380   2.314   3.011
 1085HO4     OW 4337   0.020   3.895   0.031
 1085HO4    HW1 4338   0.032   3.835   0.111
 1085HO4    HW2 4339   0.110   3.929   0.001
 1085HO4     MW 4340   0.020   3.895   0.031
 1086HO4     OW 4341   2.296   2.153   0.118
 1086HO4    HW1 4342   2.317   2.098   0.199
 1086HO4    HW2 4343   2.381   2.169   0.066
 1086HO4     MW 4344   2.296   2.153   0.118
 1087HO4     OW 4345   2.130   1.992   4.583
 1087HO4    HW1 4346   2.038   1.972   4.547
 1087HO4    HW2 4347   2.198   1.939   4.533
 1087HO4     MW 4348   2.130   1.992   4.583
 1088HO4     OW 4349   1.181   1.668   0.332
 1088HO4    HW1 4350   1.181   1.596   0.262
 1088HO4    HW2 4351   1.247   1.644   0.404
 1088HO4     MW 4352   1.181   1.668   0.332
 1089HO4     OW 4353   0.965   2.812   5.211
 1089HO4    HW1 4354   1.009   2.871   5.280
 1089HO4    HW2 4355   1.035   2.776   5.149
 1089HO4     MW 4356   0.965   2.812   5.211
 1090HO4     OW 4357   2.401   2.813   1.031
 1090HO4    HW1 4358   2.410   2.718   1.064
 1090HO4    HW2 4359   2.304   2.838   1.027
 1090HO4     MW 4360   2.401   2.813   1.031
 1091HO4     OW 4361   3.399   4.239   4.282
 1091HO4    HW1 4362   3.427   4.174   4.353
 1091HO4    HW2 4363   3.435   4.209   4.193
 1091HO4     MW 4364   3.399   4.239   4.282
 1092HO4     OW 4365   4.670   3.492   4.513
 1092HO4    HW1 4366   4.679   3.494   4.413
 1092HO4    HW2 4367   4.573   3.489   4.537
 1092HO4     MW 4368   4.670   3.492   4.513
 1093HO4     OW 4369   3.777   1.756   5.242
 1093HO4    HW1 4370   3.846   1.699   5.286
 1093HO4    HW2 4371   3.691   1.753   5.295
 1093HO4     MW 4372   3.777   1.756   5.242
 1094HO4     OW 4373   5.474   0.544   4.226
 1094HO4    HW1 4374   5.440   0.462   4.272
 1094HO4    HW2 4375   5.396   0.603   4.201
 1094HO4     MW 4376   5.474   0.544   4.226
 1095HO4     OW 4377   0.633   3.763   2.411
 1095HO4    HW1 4378   0.635   3.725   2.504
 1095HO4    HW2 4379   0.726   3.769   2.375
 1095HO4     MW 4380   0.633   3.763   2.411
 1096HO4     OW 4381   1.113   3.978   1.189
 1096HO4    HW1 4382   1.125   3.935   1.099
 1096HO4    HW2 4383   1.044   4.051   1.183
 1096HO4     MW 4384   1.113   3.978   1.189
 1097HO4     OW 4385   0.134   5.358   0.960
 1097HO4    HW1 4386   0.123   5.351   1.059
 1097HO4    HW2 4387   0.044   5.373   0.917
 1097HO4     MW 4388   0.134   5.358   0.960
 1098HO4     OW 4389   0.806   5.091   1.218
 1098HO4    HW1 4390   0.786   5.036   1.299
 1098HO4    HW2 4391   0.786   5.038   1.135
 1098HO4     MW 4392   0.806   5.091   1.218
 1099HO4     OW 4393   3.800   2.895   1.808
 1099HO4    HW1 4394   3.806   2.837   1.726
 1099HO4    HW2 4395   3.827   2.842   1.889
 1099HO4     MW 4396   3.800   2.895   1.808
 1100HO4     OW 4397   2.537   4.751   3.400
 1100HO4    HW1 4398   2.565   4.655   3.395
 1100HO4    HW2 4399   2.618   4.809   3.415
 1100HO4     MW 4400   2.537   4.751   3.400
 1101HO4     OW 4401   2.736   1.258   3.865
 1101HO4    HW1 4402   2.683   1.341   3.882
 1101HO4    HW2 4403   2.831   1.271   3.894
 1101HO4     MW 4404   2.736   1.258   3.865
 1102HO4     OW 4405   0.318   4.056   3.952
 1102HO4    HW1 4406   0.286   4.051   3.857
 1102HO4    HW2 4407   0.408   4.099   3.955
 1102HO4     MW 4408   0.318   4.056   3.952
 1103HO4     OW 4409   2.034   2.987   5.418
 1103HO4    HW1 4410   1.938   2.956   5.416
 1103HO4    HW2 4411   2.043   3.068   5.359
 1103HO4     MW 4412   2.034   2.987   5.418
 1104HO4     OW 4413   3.665   3.839   1.310
 1104HO4    HW1 4414   3.605   3.832   1.230
 1104HO4    HW2 4415   3.616   3.806   1.391
 1104HO4     MW 4416   3.665   3.839   1.310
 1105HO4     OW 4417   2.677   0.206   4.119
 1105HO4    HW1 4418   2.595   0.212   4.061
 1105HO4    HW2 4419   2.735   0.130   4.087
 1105HO4     MW 4420   2.677   0.206   4.119
 1106HO4     OW 4421   0.805   2.553   1.135
 1106HO4    HW1 4422   0.868   2.571   1.058
 1106HO4    HW2 4423   0.851   2.575   1.221
 1106HO4     MW 4424   0.805   2.553   1.135
 1107HO4     OW 4425   0.740   3.685   2.910
 1107HO4    HW1 4426   0.723   3.727   2.820
 1107HO4    HW2 4427   0.652   3.665   2.954
 1107HO4     MW 4428   0.740   3.685   2.910
 1108HO4     OW 4429   1.542   4.302   4.554
 1108HO4    HW1 4430   1.595   4.334   4.475
 1108HO4    HW2 4431   1.586   4.333   4.639
 1108HO4     MW 4432   1.542   4.302   4.554
 1109HO4     OW 4433   5.316   2.701   0.461
 1109HO4    HW1 4434   5.354   2.758   0.535
 1109HO4    HW2 4435   5.373   2.711   0.379
 1109HO4     MW 4436   5.316   2.701   0.461
 1110HO4     OW 4437   1.529   2.765   2.039
 1110HO4    HW1 4438   1.558   2.827   2.112
 1110HO4    HW2 4439   1.543   2.809   1.950
 1110HO4     MW 4440   1.529   2.765   2.039
 1111HO4     OW 4441   4.932   1.132   2.424
 1111HO4    HW1 4442   4.962   1.191   2.348
 1111HO4    HW2 4443   5.012   1.109   2.482
 1111HO4     MW 4444   4.932   1.132   2.424
 1112HO4     OW 4445   0.970   3.334   0.719
 1112HO4    HW1 4446   0.954   3.431   0.700
 1112HO4    HW2 4447   0.921   3.307   0.803
 1112HO4     MW 4448   0.970   3.334   0.719
 1113HO4     OW 4449   4.674   2.109   1.453
 1113HO4    HW1 4450   4.652   2.039   1.521
 1113HO4    HW2 4451   4.660   2.072   1.361
 1113HO4     MW 4452   4.674   2.109   1.453
 1114HO4     OW 4453   4.089   3.457   0.322
 1114HO4    HW1 4454   4.146   3.482   0.243
 1114HO4    HW2 4455   4.133   3.487   0.407
 1114HO4     MW 4456   4.089   3.457   0.322
 1115HO4     OW 4457   0.060   1.379   2.842
 1115HO4    HW1 4458   0.003   1.365   2.760
 1115HO4    HW2 4459   0.001   1.403   2.920
 1115HO4     MW 4460   0.060   1.379   2.842
 1116HO4     OW 4461   0.663   2.499   4.505
 1116HO4    HW1 4462   0.708   2.558   4.573
 1116HO4    HW2 4463   0.605   2.555   4.445
 1116HO4     MW 4464   0.663   2.499   4.505
 1117HO4     OW 4465   5.307   5.157   3.949
 1117HO4    HW1 4466   5.229   5.204   3.992
 1117HO4    HW2 4467   5.389   5.214   3.955
 1117HO4     MW 4468   5.307   5.157   3.949
 1118HO4     OW 4469   1.396   5.092   2.977
 1118HO4    HW1 4470   1.368   5.062   3.069
 1118HO4    HW2 4471   1.403   5.192   2.976
 1118HO4     MW 4472   1.396   5.092   2.977
 1119HO4     OW 4473   0.121   2.915   3.538
 1119HO4    HW1 4474   0.174   2.922   3.623
 1119HO4    HW2 4475   0.185   2.905   3.461
 1119HO4     MW 4476   0.121   2.915   3.538
 1120HO4     OW 4477   4.998   3.182   0.216
 1120HO4    HW1 4478   4.900   3.201   0.211
 1120HO4    HW2 4479   5.050   3.264   0.187
 1120HO4     MW 4480   4.998   3.182   0.216
 1121HO4     OW 4481   5.361   4.099   3.661
 1121HO4    HW1 4482   5.449   4.137   3.692
 1121HO4    HW2 4483   5.354   4.109   3.561
 1121HO4     MW 4484   5.361   4.099   3.661
 1122HO4     OW 4485   4.064   0.768   2.414
 1122HO4    HW1 4486   4.036   0.730   2.502
 1122HO4    HW2 4487   4.018   0.856   2.398
 1122HO4     MW 4488   4.064   0.768   2.414
 1123HO4     OW 4489   3.299   4.359   3.639
 1123HO4    HW1 4490   3.220   4.340   3.696
 1123HO4    HW2 4491   3.271   4.415   3.560
 1123HO4     MW 4492   3.299   4.359   3.639
 1124HO4     OW 4493   4.837   4.274   2.658
 1124HO4    HW1 4494   4.795   4.284   2.568
 1124HO4    HW2 4495   4.789   4.333   2.724
 1124HO4     MW 4496   4.837   4.274   2.658
 1125HO4     OW 4497   1.384   2.640   2.964
 1125HO4    HW1 4498   1.376   2.678   2.872
 1125HO4    HW2 4499   1.337   2.701   3.029
 1125HO4     MW 4500   1.384   2.640   2.964
 1126HO4     OW 4501   5.016   0.482   2.917
 1126HO4    HW1 4502   5.007   0.516   2.823
 1126HO4    HW2 4503   4.977   0.549   2.981
 1126HO4     MW 4504   5.016   0.482   2.917
 1127HO4     OW 4505   2.975   2.915   4.400
 1127HO4    HW1 4506   3.032   2.832   4.403
 1127HO4    HW2 4507   2.911   2.914   4.478
 1127HO4     MW 4508   2.975   2.915   4.400
 1128HO4     OW 4509   3.803   1.923   2.696
 1128HO4    HW1 4510   3.809   1.907   2.597
 1128HO4    HW2 4511   3.764   1.841   2.740
 1128HO4     MW 4512   3.803   1.923   2.696
 1129HO4     OW 4513   3.389   3.964   1.504
 1129HO4    HW1 4514   3.327   3.962   1.426
 1129HO4    HW2 4515   3.342   3.927   1.585
 1129HO4     MW 4516   3.389   3.964   1.504
 1130HO4     OW 4517   4.129   0.224   0.042
 1130HO4    HW1 4518   4.178   0.293   0.096
 1130HO4    HW2 4519   4.116   0.257  -0.051
 1130HO4     MW 4520   4.129   0.224   0.042
 1131HO4     OW 4521   1.730   0.352   0.357
 1131HO4    HW1 4522   1.725   0.421   0.285
 1131HO4    HW2 4523   1.818   0.304   0.351
 1131HO4     MW 4524   1.730   0.352   0.357
 1132HO4     OW 4525   5.213   0.391   2.284
 1132HO4    HW1 4526   5.268   0.404   2.201
 1132HO4    HW2 4527   5.140   0.325   2.266
 1132HO4     MW 4528   5.213   0.391   2.284
 1133HO4     OW 4529   3.157   3.840   2.411
 1133HO4    HW1 4530   3.203   3.853   2.499
 1133HO4    HW2 4531   3.195   3.905   2.344
 1133HO4     MW 4532   3.157   3.840   2.411
 1134HO4     OW 4533   4.431   4.181   1.828
 1134HO4    HW1 4534   4.529   4.162   1.818
 1134HO4    HW2 4535   4.413   4.223   1.918
 1134HO4     MW 4536   4.431   4.181   1.828
 1135HO4     OW 4537   1.392   3.094   0.065
 1135HO4    HW1 4538   1.490   3.113   0.075
 1135HO4    HW2 4539   1.377   3.030  -0.011
 1135HO4     MW 4540   1.392   3.094   0.065
 1136HO4     OW 4541   2.861   4.506   1.586
 1136HO4    HW1 4542   2.831   4.586   1.534
 1136HO4    HW2 4543   2.961   4.498   1.581
 1136HO4     MW 4544   2.861   4.506   1.586
 1137HO4     OW 4545   1.016   5.498   1.161
 1137HO4    HW1 4546   1.102   5.468   1.119
 1137HO4    HW2 4547   0.953   5.420   1.168
 1137HO4     MW 4548   1.016   5.498   1.161
 1138HO4     OW 4549   1.447   4.803   3.604
 1138HO4    HW1 4550   1.350   4.779   3.613
 1138HO4    HW2 4551   1.491   4.740   3.539
 1138HO4     MW 4552   1.447   4.803   3.604
 1139HO4     OW 4553   2.429   2.942   2.486
 1139HO4    HW1 4554   2.340   2.946   2.533
 1139HO4    HW2 4555   2.423   2.986   2.397
 1139HO4     MW 4556   2.429   2.942   2.486
 1140HO4     OW 4557   1.286   4.363   2.237
 1140HO4    HW1 4558   1.240   4.378   2.325
 1140HO4    HW2 4559   1.235   4.295   2.184
 1140HO4     MW 4560   1.286   4.363   2.237
 1141HO4     OW 4561   3.308   0.383   1.117
 1141HO4    HW1 4562   3.358   0.471   1.116
 1141HO4    HW2 4563   3.327   0.333   1.032
 1141HO4     MW 4564   3.308   0.383   1.117
 1142HO4     OW 4565   5.182   1.211   4.443
 1142HO4    HW1 4566   5.241   1.280   4.486
 1142HO4    HW2 4567   5.127   1.166   4.514
 1142HO4     MW 4568   5.182   1.211   4.443
 1143HO4     OW 4569   1.337   0.361   0.285
 1143HO4    HW1 4570   1.321   0.334   0.189
 1143HO4    HW2 4571   1.291   0.296   0.346
 1143HO4     MW 4572   1.337   0.361   0.285
 1144HO4     OW 4573   2.671   3.836   3.376
 1144HO4    HW1 4574   2.635   3.828   3.470
 1144HO4    HW2 4575   2.645   3.754   3.324
 1144HO4     MW 4576   2.671   3.836   3.376
 1145HO4     OW 4577   2.233   1.191   5.328
 1145HO4    HW1 4578   2.178   1.244   5.262
 1145HO4    HW2 4579   2.183   1.110   5.357
 1145HO4     MW 4580   2.233   1.191   5.328
 1146HO4     OW 4581   0.001   5.408   2.299
 1146HO4    HW1 4582  -0.045   5.385   2.385
 1146HO4    HW2 4583   0.051   5.328   2.265
 1146HO4     MW 4584   0.001   5.408   2.299
 1147HO4     OW 4585   5.091   3.195   0.932
 1147HO4    HW1 4586   5.158   3.236   0.995
 1147HO4    HW2 4587   5.095   3.242   0.843
 1147HO4     MW 4588   5.091   3.195   0.932
 1148HO4     OW 4589   3.088   3.127   3.487
 1148HO4    HW1 4590   3.120   3.190   3.558
 1148HO4    HW2 4591   2.990   3.139   3.473
 1148HO4     MW 4592   3.088   3.127   3.487
 1149HO4     OW 4593   1.679   3.721   5.180
 1149HO4    HW1 4594   1.736   3.720   5.263
 1149HO4    HW2 4595   1.710   3.648   5.119
 1149HO4     MW 4596   1.679   3.721   5.180
 1150HO4     OW 4597   2.164   0.823   2.133
 1150HO4    HW1 4598   2.262   0.842   2.124
 1150HO4    HW2 4599   2.149   0.763   2.213
 1150HO4     MW 4600   2.164   0.823   2.133
 1151HO4     OW 4601   4.693   1.367   3.151
 1151HO4    HW1 4602   4.721   1.356   3.247
 1151HO4    HW2 4603   4.727   1.290   3.097
 1151HO4     MW 4604   4.693   1.367   3.151
 1152HO4     OW 4605   0.793   1.952   4.706
 1152HO4    HW1 4606   0.876   1.900   4.685
 1152HO4    HW2 4607   0.759   1.926   4.797
 1152HO4     MW 4608   0.793   1.952   4.706
 1153HO4     OW 4609   1.283   3.654   0.953
 1153HO4    HW1 4610   1.375   3.682   0.927
 1153HO4    HW2 4611   1.269   3.558   0.928
 1153HO4     MW 4612   1.283   3.654   0.953
 1154HO4     OW 4613   4.845   4.798   0.502
 1154HO4    HW1 4614   4.858   4.757   0.592
 1154HO4    HW2 4615   4.880   4.892   0.502
 1154HO4     MW 4616   4.845   4.798   0.502
 1155HO4     OW 4617   5.349   1.907   2.683
 1155HO4    HW1 4618   5.312   1.891   2.591
 1155HO4    HW2 4619   5.449   1.917   2.678
 1155HO4     MW 4620   5.349   1.907   2.683
 1156HO4     OW 4621   1.598   0.415   3.582
 1156HO4    HW1 4622   1.613   0.512   3.602
 1156HO4    HW2 4623   1.686   0.373   3.555
 1156HO4     MW 4624   1.598   0.415   3.582
 1157HO4     OW 4625   0.944   1.168   5.149
 1157HO4    HW1 4626   0.904   1.228   5.080
 1157HO4    HW2 4627   1.032   1.132   5.116
 1157HO4     MW 4628   0.944   1.168   5.149
 1158HO4     OW 4629   1.694   3.141   0.817
 1158HO4    HW1 4630   1.734   3.066   0.870
 1158HO4    HW2 4631   1.682   3.112   0.722
 1158HO4     MW 4632   1.694   3.141   0.817
 1159HO4     OW 4633   2.384   0.628   4.290
 1159HO4    HW1 4634   2.470   0.590   4.327
 1159HO4    HW2 4635   2.373   0.600   4.195
 1159HO4     MW 4636   2.384   0.628   4.290
 1160HO4     OW 4637   4.632   3.539   3.106
 1160HO4    HW1 4638   4.637   3.575   3.200
 1160HO4    HW2 4639   4.549   3.484   3.096
 1160HO4     MW 4640   4.632   3.539   3.106
 1161HO4     OW 4641   4.577   4.211   4.177
 1161HO4    HW1 4642   4.660   4.168   4.214
 1161HO4    HW2 4643   4.602   4.269   4.099
 1161HO4     MW 4644   4.577   4.211   4.177
 1162HO4     OW 4645   1.506   0.680   5.142
 1162HO4    HW1 4646   1.497   0.608   5.212
 1162HO4    HW2 4647   1.475   0.768   5.180
 1162HO4     MW 4648   1.506   0.680   5.142
 1163HO4     OW 4649   1.611   1.653   3.788
 1163HO4    HW1 4650   1.688   1.713   3.812
 1163HO4    HW2 4651   1.646   1.562   3.764
 1163HO4     MW 4652   1.611   1.653   3.788
 1164HO4     OW 4653   4.297   3.841   1.543
 1164HO4    HW1 4654   4.269   3.858   1.448
 1164HO4    HW2 4655   4.318   3.928   1.588
 1164HO4     MW 4656   4.297   3.841   1.543
 1165HO4     OW 4657   1.148   4.345   2.520
 1165HO4    HW1 4658   1.239   4.378   2.492
 1165HO4    HW2 4659   1.085   4.350   2.441
 1165HO4     MW 4660   1.148   4.345   2.520
 1166HO4     OW 4661   4.580   2.569   1.131
 1166HO4    HW1 4662   4.644   2.640   1.099
 1166HO4    HW2 4663   4.573   2.573   1.231
 1166HO4     MW 4664   4.580   2.569   1.131
 1167HO4     OW 4665   0.393   2.708   1.093
 1167HO4    HW1 4666   0.390   2.799   1.049
 1167HO4    HW2 4667   0.449   2.646   1.038
 1167HO4     MW 4668   0.393   2.708   1.093
 1168HO4     OW 4669   2.491   3.922   0.943
 1168HO4    HW1 4670   2.432   3.868   0.883
 1168HO4    HW2 4671   2.529   3.862   1.015
 1168HO4     MW 4672   2.491   3.922   0.943
 1169HO4     OW 4673   5.043   0.818   2.288
 1169HO4    HW1 4674   5.065   0.907   2.327
 1169HO4    HW2 4675   5.093   0.806   2.202
 1169HO4     MW 4676   5.043   0.818   2.288
 1170HO4     OW 4677   4.141   4.852   1.218
 1170HO4    HW1 4678   4.130   4.758   1.249
 1170HO4    HW2 4679   4.227   4.861   1.167
 1170HO4     MW 4680   4.141   4.852   1.218
 1171HO4     OW 4681   4.136   0.498   4.847
 1171HO4    HW1 4682   4.128   0.447   4.933
 1171HO4    HW2 4683   4.232   0.525   4.833
 1171HO4     MW 4684   4.136   0.498   4.847
 1172HO4     OW 4685   0.980   5.280   2.066
 1172HO4    HW1 4686   0.880   5.282   2.077
 1172HO4    HW2 4687   1.003   5.274   1.969
 1172HO4     MW 4688   0.980   5.280   2.066
 1173HO4     OW 4689   2.705   0.837   3.006
 1173HO4    HW1 4690   2.722   0.831   3.105
 1173HO4    HW2 4691   2.779   0.791   2.957
 1173HO4     MW 4692   2.705   0.837   3.006
 1174HO4     OW 4693   4.146   2.400   2.381
 1174HO4    HW1 4694   4.069   2.417   2.319
 1174HO4    HW2 4695   4.134   2.310   2.425
 1174HO4     MW 4696   4.146   2.400   2.381
 1175HO4     OW 4697   2.953   3.876   0.762
 1175HO4    HW1 4698   2.914   3.946   0.701
 1175HO4    HW2 4699   2.912   3.884   0.853
 1175HO4     MW 4700   2.953   3.876   0.762
 1176HO4     OW 4701   3.822   2.590   3.648
 1176HO4    HW1 4702   3.790   2.545   3.564
 1176HO4    HW2 4703   3.772   2.553   3.727
 1176HO4     MW 4704   3.822   2.590   3.648
 1177HO4     OW 4705   5.058   0.891   0.812
 1177HO4    HW1 4706   5.058   0.871   0.911
 1177HO4    HW2 4707   5.121   0.967   0.793
 1177HO4     MW 4708   5.058   0.891   0.812
 1178HO4     OW 4709   2.473   4.149   0.194
 1178HO4    HW1 4710   2.392   4.186   0.149
 1178HO4    HW2 4711   2.490   4.056   0.161
 1178HO4     MW 4712   2.473   4.149   0.194
 1179HO4     OW 4713   3.448   4.073   3.814
 1179HO4    HW1 4714   3.517   4.050   3.882
 1179HO4    HW2 4715   3.491   4.081   3.723
 1179HO4     MW 4716   3.448   4.073   3.814
 1180HO4     OW 4717   0.077   5.303   1.606
 1180HO4    HW1 4718   0.012   5.266   1.539
 1180HO4    HW2 4719   0.047   5.393   1.636
 1180HO4     MW 4720   0.077   5.303   1.606
 1181HO4     OW 4721   2.847   3.395   2.327
 1181HO4    HW1 4722   2.802   3.366   2.411
 1181HO4    HW2 4723   2.812   3.341   2.249
 1181HO4     MW 4724   2.847   3.395   2.327
 1182HO4     OW 4725   3.917   3.740   4.954
 1182HO4    HW1 4726   3.848   3.789   5.009
 1182HO4    HW2 4727   3.939   3.652   4.999
 1182HO4     MW 4728   3.917   3.740   4.954
 1183HO4     OW 4729   0.766   2.428   3.177
 1183HO4    HW1 4730   0.711   2.350   3.211
 1183HO4    HW2 4731   0.823   2.397   3.100
 1183HO4     MW 4732   0.766   2.428   3.177
 1184HO4     OW 4733   2.730   0.251   1.323
 1184HO4    HW1 4734   2.789   0.266   1.243
 1184HO4    HW2 4735   2.787   0.228   1.402
 1184HO4     MW 4736   2.730   0.251   1.323
 1185HO4     OW 4737   0.104   1.615   4.449
 1185HO4    HW1 4738   0.020   1.575   4.412
 1185HO4    HW2 4739   0.173   1.621   4.376
 1185HO4     MW 4740   0.104   1.615   4.449
 1186HO4     OW 4741   1.110   1.529   3.055
 1186HO4    HW1 4742   1.144   1.547   2.962
 1186HO4    HW2 4743   1.147   1.442   3.088
 1186HO4     MW 4744   1.110   1.529   3.055
 1187HO4     OW 4745   4.193   4.522   5.336
 1187HO4    HW1 4746   4.157   4.476   5.254
 1187HO4    HW2 4747   4.157   4.476   5.418
 1187HO4     MW 4748   4.193   4.522   5.336
 1188HO4     OW 4749   3.769   3.767   0.178
 1188HO4    HW1 4750   3.764   3.690   0.243
 1188HO4    HW2 4751   3.809   3.735   0.092
 1188HO4     MW 4752   3.769   3.767   0.178
 1189HO4     OW 4753   4.444   0.575   4.327
 1189HO4    HW1 4754   4.510   0.530   4.265
 1189HO4    HW2 4755   4.387   0.505   4.371
 1189HO4     MW 4756   4.444   0.575   4.327
 1190HO4     OW 4757   3.537   0.525   1.642
 1190HO4    HW1 4758   3.601   0.511   1.718
 1190HO4    HW2 4759   3.581   0.499   1.556
 1190HO4     MW 4760   3.537   0.525   1.642
 1191HO4     OW 4761   1.677   1.267   4.421
 1191HO4    HW1 4762   1.584   1.294   4.397
 1191HO4    HW2 4763   1.675   1.195   4.492
 1191HO4     MW 4764   1.677   1.267   4.421
 1192HO4     OW 4765   3.124   3.407   4.263
 1192HO4    HW1 4766   3.048   3.457   4.306
 1192HO4    HW2 4767   3.211   3.437   4.303
 1192HO4     MW 4768   3.124   3.407   4.263
 1193HO4     OW 4769   2.881   5.066   0.961
 1193HO4    HW1 4770   2.867   4.974   0.999
 1193HO4    HW2 4771   2.844   5.070   0.868
 1193HO4     MW 4772   2.881   5.066   0.961
 1194HO4     OW 4773   0.335   3.182   0.296
 1194HO4    HW1 4774   0.313   3.188   0.394
 1194HO4    HW2 4775   0.382   3.096   0.277
 1194HO4     MW 4776   0.335   3.182   0.296
 1195HO4     OW 4777   2.429   0.942   3.937
 1195HO4    HW1 4778   2.358   0.929   4.006
 1195HO4    HW2 4779   2.388   0.985   3.855
 1195HO4     MW 4780   2.429   0.942   3.937
 1196HO4     OW 4781   3.772   2.305   1.513
 1196HO4    HW1 4782   3.806   2.364   1.439
 1196HO4    HW2 4783   3.808   2.338   1.601
 1196HO4     MW 4784   3.772   2.305   1.513
 1197HO4     OW 4785   0.596   1.690   5.453
 1197HO4    HW1 4786   0.524   1.754   5.425
 1197HO4    HW2 4787   0.566   1.596   5.437
 1197HO4     MW 4788   0.596   1.690   5.453
 1198HO4     OW 4789   3.234   3.863   1.974
 1198HO4    HW1 4790   3.152   3.866   2.032
 1198HO4    HW2 4791   3.313   3.834   2.029
 1198HO4     MW 4792   3.234   3.863   1.974
 1199HO4     OW 4793   4.258   0.059   2.773
 1199HO4    HW1 4794   4.236  -0.023   2.826
 1199HO4    HW2 4795   4.183   0.078   2.709
 1199HO4     MW 4796   4.258   0.059   2.773
 1200HO4     OW 4797   1.863   0.466   3.066
 1200HO4    HW1 4798   1.808   0.506   3.139
 1200HO4    HW2 4799   1.806   0.404   3.012
 1200HO4     MW 4800   1.863   0.466   3.066
 1201HO4     OW 4801   0.302   3.565   5.166
 1201HO4    HW1 4802   0.357   3.622   5.228
 1201HO4    HW2 4803   0.211   3.552   5.205
 1201HO4     MW 4804   0.302   3.565   5.166
 1202HO4     OW 4805   2.502   2.351   2.866
 1202HO4    HW1 4806   2.599   2.362   2.846
 1202HO4    HW2 4807   2.483   2.382   2.960
 1202HO4     MW 4808   2.502   2.351   2.866
 1203HO4     OW 4809   4.722   4.895   2.741
 1203HO4    HW1 4810   4.659   4.933   2.809
 1203HO4    HW2 4811   4.793   4.841   2.787
 1203HO4     MW 4812   4.722   4.895   2.741
 1204HO4     OW 4813   5.301   5.219   4.567
 1204HO4    HW1 4814   5.203   5.197   4.561
 1204HO4    HW2 4815   5.347   5.196   4.481
 1204HO4     MW 4816   5.301   5.219   4.567
 1205HO4     OW 4817   3.580   1.403   0.900
 1205HO4    HW1 4818   3.666   1.433   0.856
 1205HO4    HW2 4819   3.513   1.379   0.829
 1205HO4     MW 4820   3.580   1.403   0.900
 1206HO4     OW 4821   1.317   3.444   1.159
 1206HO4    HW1 4822   1.291   3.510   1.230
 1206HO4    HW2 4823   1.296   3.482   1.068
 1206HO4     MW 4824   1.317   3.444   1.159
 1207HO4     OW 4825   2.817   2.989   2.418
 1207HO4    HW1 4826   2.890   2.999   2.350
 1207HO4    HW2 4827   2.741   2.937   2.378
 1207HO4     MW 4828   2.817   2.989   2.418
 1208HO4     OW 4829   3.895   3.323   3.262
 1208HO4    HW1 4830   3.953   3.322   3.343
 1208HO4    HW2 4831   3.933   3.386   3.194
 1208HO4     MW 4832   3.895   3.323   3.262
 1209HO4     OW 4833   1.722   4.731   2.221
 1209HO4    HW1 4834   1.773   4.782   2.291
 1209HO4    HW2 4835   1.646   4.787   2.187
 1209HO4     MW 4836   1.722   4.731   2.221
 1210HO4     OW 4837   1.449   1.670   5.036
 1210HO4    HW1 4838   1.513   1.600   5.002
 1210HO4    HW2 4839   1.355   1.637   5.023
 1210HO4     MW 4840   1.449   1.670   5.036
 1211HO4     OW 4841   4.380   4.940   2.545
 1211HO4    HW1 4842   4.402   5.010   2.478
 1211HO4    HW2 4843   4.299   4.889   2.516
 1211HO4     MW 4844   4.380   4.940   2.545
 1212HO4     OW 4845   3.785   5.313   3.809
 1212HO4    HW1 4846   3.830   5.403   3.802
 1212HO4    HW2 4847   3.767   5.278   3.717
 1212HO4     MW 4848   3.785   5.313   3.809
 1213HO4     OW 4849   4.497   2.555   0.294
 1213HO4    HW1 4850   4.559   2.556   0.373
 1213HO4    HW2 4851   4.403   2.540   0.326
 1213HO4     MW 4852   4.497   2.555   0.294
 1214HO4     OW 4853   2.880   4.678   2.705
 1214HO4    HW1 4854   2.880   4.692   2.805
 1214HO4    HW2 4855   2.792   4.708   2.668
 1214HO4     MW 4856   2.880   4.678   2.705
 1215HO4     OW 4857   3.830   3.371   2.658
 1215HO4    HW1 4858   3.851   3.382   2.756
 1215HO4    HW2 4859   3.914   3.374   2.605
 1215HO4     MW 4860   3.830   3.371   2.658
 1216HO4     OW 4861   1.970   2.689  -0.010
 1216HO4    HW1 4862   1.976   2.776  -0.059
 1216HO4    HW2 4863   1.963   2.705   0.089
 1216HO4     MW 4864   1.970   2.689  -0.010
 1217HO4     OW 4865   3.505   0.594   4.576
 1217HO4    HW1 4866   3.480   0.545   4.660
 1217HO4    HW2 4867   3.464   0.548   4.497
 1217HO4     MW 4868   3.505   0.594   4.576
 1218HO4     OW 4869   0.716   2.055   3.180
 1218HO4    HW1 4870   0.638   2.059   3.118
 1218HO4    HW2 4871   0.707   1.977   3.242
 1218HO4     MW 4872   0.716   2.055   3.180
 1219HO4     OW 4873   4.700   1.843   0.421
 1219HO4    HW1 4874   4.614   1.796   0.399
 1219HO4    HW2 4875   4.777   1.781   0.406
 1219HO4     MW 4876   4.700   1.843   0.421
 1220HO4     OW 4877   4.222   0.692   1.862
 1220HO4    HW1 4878   4.268   0.777   1.833
 1220HO4    HW2 4879   4.131   0.715   1.898
 1220HO4     MW 4880   4.222   0.692   1.862
 1221HO4     OW 4881   2.770   1.066   2.296
 1221HO4    HW1 4882   2.811   1.030   2.380
 1221HO4    HW2 4883   2.743   0.989   2.237
 1221HO4     MW 4884   2.770   1.066   2.296
 1222HO4     OW 4885   2.428   4.607   3.701
 1222HO4    HW1 4886   2.508   4.657   3.734
 1222HO4    HW2 4887   2.365   4.589   3.778
 1222HO4     MW 4888   2.428   4.607   3.701
 1223HO4     OW 4889   5.152   5.389   3.332
 1223HO4    HW1 4890   5.246   5.360   3.310
 1223HO4    HW2 4891   5.092   5.309   3.336
 1223HO4     MW 4892   5.152   5.389   3.332
 1224HO4     OW 4893   3.634   5.081   2.173
 1224HO4    HW1 4894   3.572   5.137   2.118
 1224HO4    HW2 4895   3.581   5.020   2.232
 1224HO4     MW 4896   3.634   5.081   2.173
 1225HO4     OW 4897   4.703   2.506   1.670
 1225HO4    HW1 4898   4.753   2.541   1.591
 1225HO4    HW2 4899   4.605   2.528   1.661
 1225HO4     MW 4900   4.703   2.506   1.670
 1226HO4     OW 4901   4.983   5.005   0.124
 1226HO4    HW1 4902   5.078   5.036   0.133
 1226HO4    HW2 4903   4.935   5.061   0.056
 1226HO4     MW 4904   4.983   5.005   0.124
 1227HO4     OW 4905   2.693   3.393   4.701
 1227HO4    HW1 4906   2.634   3.373   4.623
 1227HO4    HW2 4907   2.642   3.379   4.787
 1227HO4     MW 4908   2.693   3.393   4.701
 1228HO4     OW 4909   5.395   3.567   4.508
 1228HO4    HW1 4910   5.441   3.478   4.512
 1228HO4    HW2 4911   5.448   3.635   4.559
 1228HO4     MW 4912   5.395   3.567   4.508
 1229HO4     OW 4913   5.115   4.014   5.076
 1229HO4    HW1 4914   5.040   3.950   5.098
 1229HO4    HW2 4915   5.190   3.964   5.033
 1229HO4     MW 4916   5.115   4.014   5.076
 1230HO4     OW 4917   0.290   1.107   1.563
 1230HO4    HW1 4918   0.324   1.174   1.497
 1230HO4    HW2 4919   0.296   1.145   1.656
 1230HO4     MW 4920   0.290   1.107   1.563
 1231HO4     OW 4921   1.290   2.541   0.449
 1231HO4    HW1 4922   1.242   2.501   0.528
 1231HO4    HW2 4923   1.258   2.496   0.365
 1231HO4     MW 4924   1.290   2.541   0.449
 1232HO4     OW 4925   3.113   4.726   1.904
 1232HO4    HW1 4926   3.145   4.807   1.955
 1232HO4    HW2 4927   3.175   4.708   1.827
 1232HO4     MW 4928   3.113   4.726   1.904
 1233HO4     OW 4929   2.309   0.508   5.235
 1233HO4    HW1 4930   2.358   0.421   5.230
 1233HO4    HW2 4931   2.221   0.494   5.282
 1233HO4     MW 4932   2.309   0.508   5.235
 1234HO4     OW 4933   2.602   3.505   0.616
 1234HO4    HW1 4934   2.547   3.577   0.658
 1234HO4    HW2 4935   2.640   3.445   0.687
 1234HO4     MW 4936   2.602   3.505   0.616
 1235HO4     OW 4937   4.320   5.311   1.700
 1235HO4    HW1 4938   4.317   5.353   1.609
 1235HO4    HW2 4939   4.254   5.357   1.760
 1235HO4     MW 4940   4.320   5.311   1.700
 1236HO4     OW 4941   3.866   0.014   0.120
 1236HO4    HW1 4942   3.876   0.030   0.218
 1236HO4    HW2 4943   3.845   0.101   0.074
 1236HO4     MW 4944   3.866   0.014   0.120
 1237HO4     OW 4945   3.441   0.711   2.517
 1237HO4    HW1 4946   3.379   0.790   2.517
 1237HO4    HW2 4947   3.389   0.627   2.498
 1237HO4     MW 4948   3.441   0.711   2.517
 1238HO4     OW 4949   5.038   0.584   4.830
 1238HO4    HW1 4950   4.987   0.638   4.762
 1238HO4    HW2 4951   4.993   0.592   4.920
 1238HO4     MW 4952   5.038   0.584   4.830
 1239HO4     OW 4953   0.741   1.075   0.971
 1239HO4    HW1 4954   0.708   1.014   1.044
 1239HO4    HW2 4955   0.675   1.149   0.958
 1239HO4     MW 4956   0.741   1.075   0.971
 1240HO4     OW 4957   1.938   1.131   4.441
 1240HO4    HW1 4958   1.954   1.032   4.441
 1240HO4    HW2 4959   1.903   1.159   4.351
 1240HO4     MW 4960   1.938   1.131   4.441
 1241HO4     OW 4961   5.323   0.886   5.199
 1241HO4    HW1 4962   5.267   0.961   5.162
 1241HO4    HW2 4963   5.360   0.914   5.288
 1241HO4     MW 4964   5.323   0.886   5.199
 1242HO4     OW 4965   3.495   2.981   4.058
 1242HO4    HW1 4966   3.559   3.046   4.016
 1242HO4    HW2 4967   3.539   2.940   4.139
 1242HO4     MW 4968   3.495   2.981   4.058
 1243HO4     OW 4969   2.708   5.161   5.423
 1243HO4    HW1 4970   2.685   5.177   5.520
 1243HO4    HW2 4971   2.643   5.096   5.384
 1243HO4     MW 4972   2.708   5.161   5.423
 1244HO4     OW 4973   2.255   2.589   3.072
 1244HO4    HW1 4974   2.289   2.683   3.083
 1244HO4    HW2 4975   2.330   2.529   3.043
 1244HO4     MW 4976   2.255   2.589   3.072
 1245HO4     OW 4977   4.081   2.359   5.300
 1245HO4    HW1 4978   4.094   2.342   5.398
 1245HO4    HW2 4979   4.081   2.271   5.251
 1245HO4     MW 4980   4.081   2.359   5.300
 1246HO4     OW 4981   0.147   2.130   3.626
 1246HO4    HW1 4982   0.119   2.072   3.703
 1246HO4    HW2 4983   0.104   2.097   3.542
 1246HO4     MW 4984   0.147   2.130   3.626
 1247HO4     OW 4985   5.500   2.366   4.180
 1247HO4    HW1 4986   5.511   2.464   4.158
 1247HO4    HW2 4987   5.406   2.349   4.209
 1247HO4     MW 4988   5.500   2.366   4.180
 1248HO4     OW 4989   3.218   1.694   1.539
 1248HO4    HW1 4990   3.186   1.769   1.480
 1248HO4    HW2 4991   3.227   1.728   1.634
 1248HO4     MW 4992   3.218   1.694   1.539
 1249HO4     OW 4993   4.637   4.211   0.572
 1249HO4    HW1 4994   4.603   4.202   0.666
 1249HO4    HW2 4995   4.725   4.163   0.564
 1249HO4     MW 4996   4.637   4.211   0.572
 1250HO4     OW 4997   0.682   5.417   0.850
 1250HO4    HW1 4998   0.594   5.441   0.892
 1250HO4    HW2 4999   0.706   5.323   0.873
 1250HO4     MW 5000   0.682   5.417   0.850
 1251HO4     OW 5001   4.584   0.485   2.970
 1251HO4    HW1 5002   4.599   0.499   3.068
 1251HO4    HW2 5003   4.617   0.565   2.919
 1251HO4     MW 5004   4.584   0.485   2.970
 1252HO4     OW 5005   4.670   5.406   0.715
 1252HO4    HW1 5006   4.722   5.353   0.647
 1252HO4    HW2 5007   4.577   5.370   0.721
 1252HO4     MW 5008   4.670   5.406   0.715
 1253HO4     OW 5009   0.179   0.720   3.567
 1253HO4    HW1 5010   0.181   0.648   3.498
 1253HO4    HW2 5011   0.154   0.681   3.656
 1253HO4     MW 5012   0.179   0.720   3.567
 1254HO4     OW 5013   4.850   0.515   2.577
 1254HO4    HW1 5014   4.794   0.482   2.501
 1254HO4    HW2 5015   4.790   0.537   2.655
 1254HO4     MW 5016   4.850   0.515   2.577
 1255HO4     OW 5017   0.387   0.777   0.840
 1255HO4    HW1 5018   0.443   0.804   0.761
 1255HO4    HW2 5019   0.374   0.856   0.901
 1255HO4     MW 5020   0.387   0.777   0.840
 1256HO4     OW 5021   2.471   4.469   2.390
 1256HO4    HW1 5022   2.419   4.440   2.309
 1256HO4    HW2 5023   2.543   4.402   2.410
 1256HO4     MW 5024   2.471   4.469   2.390
 1257HO4     OW 5025   1.837   4.945   5.096
 1257HO4    HW1 5026   1.923   4.962   5.048
 1257HO4    HW2 5027   1.768   4.912   5.031
 1257HO4     MW 5028   1.837   4.945   5.096
 1258HO4     OW 5029   4.312   0.067   3.051
 1258HO4    HW1 5030   4.363   0.151   3.071
 1258HO4    HW2 5031   4.243   0.052   3.122
 1258HO4     MW 5032   4.312   0.067   3.051
 1259HO4     OW 5033   1.317   3.199   0.668
 1259HO4    HW1 5034   1.339   3.273   0.731
 1259HO4    HW2 5035   1.385   3.125   0.677
 1259HO4     MW 5036   1.317   3.199   0.668
 1260HO4     OW 5037   2.099  -0.010   2.669
 1260HO4    HW1 5038   2.051  -0.031   2.583
 1260HO4    HW2 5039   2.042   0.051   2.725
 1260HO4     MW 5040   2.099  -0.010   2.669
 1261HO4     OW 5041   0.253   4.143   4.572
 1261HO4    HW1 5042   0.177   4.154   4.508
 1261HO4    HW2 5043   0.227   4.180   4.662
 1261HO4     MW 5044   0.253   4.143   4.572
 1262HO4     OW 5045   2.599   0.889   3.473
 1262HO4    HW1 5046   2.574   0.791   3.478
 1262HO4    HW2 5047   2.698   0.897   3.457
 1262HO4     MW 5048   2.599   0.889   3.473
 1263HO4     OW 5049   4.688   3.123   0.060
 1263HO4    HW1 5050   4.592   3.123   0.031
 1263HO4    HW2 5051   4.694   3.130   0.160
 1263HO4     MW 5052   4.688   3.123   0.060
 1264HO4     OW 5053   0.421   2.989   2.093
 1264HO4    HW1 5054   0.379   3.069   2.049
 1264HO4    HW2 5055   0.468   2.935   2.023
 1264HO4     MW 5056   0.421   2.989   2.093
 1265HO4     OW 5057   2.690   1.284   4.879
 1265HO4    HW1 5058   2.744   1.287   4.964
 1265HO4    HW2 5059   2.749   1.300   4.800
 1265HO4     MW 5060   2.690   1.284   4.879
 1266HO4     OW 5061   3.605   1.311   3.700
 1266HO4    HW1 5062   3.536   1.362   3.648
 1266HO4    HW2 5063   3.634   1.231   3.646
 1266HO4     MW 5064   3.605   1.311   3.700
 1267HO4     OW 5065   2.827   4.398   1.180
 1267HO4    HW1 5066   2.814   4.494   1.153
 1267HO4    HW2 5067   2.790   4.338   1.108
 1267HO4     MW 5068   2.827   4.398   1.180
 1268HO4     OW 5069   1.195   2.001   2.949
 1268HO4    HW1 5070   1.231   2.030   3.038
 1268HO4    HW2 5071   1.105   2.045   2.934
 1268HO4     MW 5072   1.195   2.001   2.949
 1269HO4     OW 5073   0.386   1.975   1.869
 1269HO4    HW1 5074   0.439   1.901   1.912
 1269HO4    HW2 5075   0.347   1.942   1.783
 1269HO4     MW 5076   0.386   1.975   1.869
 1270HO4     OW 5077   0.681   4.626   0.255
 1270HO4    HW1 5078   0.726   4.660   0.338
 1270HO4    HW2 5079   0.733   4.655   0.174
 1270HO4     MW 5080   0.681   4.626   0.255
 1271HO4     OW 5081   2.243   1.066   0.193
 1271HO4    HW1 5082   2.304   0.987   0.202
 1271HO4    HW2 5083   2.191   1.059   0.107
 1271HO4     MW 5084   2.243   1.066   0.193
 1272HO4     OW 5085   4.224   3.535   0.949
 1272HO4    HW1 5086   4.316   3.570   0.965
 1272HO4    HW2 5087   4.178   3.591   0.880
 1272HO4     MW 5088   4.224   3.535   0.949
 1273HO4     OW 5089   5.409   3.466   0.512
 1273HO4    HW1 5090   5.418   3.385   0.453
 1273HO4    HW2 5091   5.437   3.443   0.606
 1273HO4     MW 5092   5.409   3.466   0.512
 1274HO4     OW 5093   5.239   0.038   3.848
 1274HO4    HW1 5094   5.171   0.086   3.905
 1274HO4    HW2 5095   5.217   0.052   3.751
 1274HO4     MW 5096   5.239   0.038   3.848
 1275HO4     OW 5097   4.476   2.836   2.949
 1275HO4    HW1 5098   4.465   2.774   2.871
 1275HO4    HW2 5099   4.462   2.786   3.035
 1275HO4     MW 5100   4.476   2.836   2.949
 1276HO4     OW 5101   5.011   4.391   1.725
 1276HO4    HW1 5102   5.021   4.458   1.651
 1276HO4    HW2 5103   5.030   4.299   1.690
 1276HO4     MW 5104   5.011   4.391   1.725
 1277HO4     OW 5105   5.398   1.758   4.116
 1277HO4    HW1 5106   5.356   1.743   4.026
 1277HO4    HW2 5107   5.472   1.692   4.130
 1277HO4     MW 5108   5.398   1.758   4.116
 1278HO4     OW 5109   1.880   0.536   4.799
 1278HO4    HW1 5110   1.955   0.478   4.767
 1278HO4    HW2 5111   1.805   0.478   4.833
 1278HO4     MW 5112   1.880   0.536   4.799
 1279HO4     OW 5113   0.591   0.598   2.518
 1279HO4    HW1 5114   0.638   0.548   2.445
 1279HO4    HW2 5115   0.646   0.593   2.603
 1279HO4     MW 5116   0.591   0.598   2.518
 1280HO4     OW 5117   4.927   0.125   2.243
 1280HO4    HW1 5118   5.010   0.091   2.288
 1280HO4    HW2 5119   4.859   0.051   2.239
 1280HO4     MW 5120   4.927   0.125   2.243
 1281HO4     OW 5121   0.117   0.214   1.020
 1281HO4    HW1 5122   0.109   0.314   1.022
 1281HO4    HW2 5123   0.116   0.179   1.114
 1281HO4     MW 5124   0.117   0.214   1.020
 1282HO4     OW 5125   5.079   3.677   4.639
 1282HO4    HW1 5126   5.058   3.760   4.588
 1282HO4    HW2 5127   5.179   3.667   4.648
 1282HO4     MW 5128   5.079   3.677   4.639
 1283HO4     OW 5129   0.270   4.917   2.140
 1283HO4    HW1 5130   0.176   4.942   2.165
 1283HO4    HW2 5131   0.271   4.826   2.098
 1283HO4     MW 5132   0.270   4.917   2.140
 1284HO4     OW 5133   3.486   2.985   0.361
 1284HO4    HW1 5134   3.545   2.987   0.442
 1284HO4    HW2 5135   3.542   2.981   0.278
 1284HO4     MW 5136   3.486   2.985   0.361
 1285HO4     OW 5137   4.815   3.336   3.805
 1285HO4    HW1 5138   4.838   3.287   3.890
 1285HO4    HW2 5139   4.848   3.283   3.726
 1285HO4     MW 5140   4.815   3.336   3.805
 1286HO4     OW 5141   5.295   4.551   1.107
 1286HO4    HW1 5142   5.264   4.596   1.023
 1286HO4    HW2 5143   5.252   4.594   1.186
 1286HO4     MW 5144   5.295   4.551   1.107
 1287HO4     OW 5145   2.774   1.919   4.081
 1287HO4    HW1 5146   2.729   2.009   4.077
 1287HO4    HW2 5147   2.873   1.931   4.090
 1287HO4     MW 5148   2.774   1.919   4.081
 1288HO4     OW 5149   3.147   5.111   4.876
 1288HO4    HW1 5150   3.162   5.077   4.783
 1288HO4    HW2 5151   3.213   5.069   4.938
 1288HO4     MW 5152   3.147   5.111   4.876
 1289HO4     OW 5153   1.580   4.034   2.545
 1289HO4    HW1 5154   1.519   4.105   2.507
 1289HO4    HW2 5155   1.638   4.075   2.616
 1289HO4     MW 5156   1.580   4.034   2.545
 1290HO4     OW 5157   4.288   4.951   2.850
 1290HO4    HW1 5158   4.217   4.940   2.920
 1290HO4    HW2 5159   4.249   4.997   2.770
 1290HO4     MW 5160   4.288   4.951   2.850
 1291HO4     OW 5161   3.587   0.142   2.326
 1291HO4    HW1 5162   3.643   0.155   2.408
 1291HO4    HW2 5163   3.645   0.147   2.244
 1291HO4     MW 5164   3.587   0.142   2.326
 1292HO4     OW 5165   1.756   0.996   0.893
 1292HO4    HW1 5166   1.708   1.030   0.811
 1292HO4    HW2 5167   1.729   1.052   0.972
 1292HO4     MW 5168   1.756   0.996   0.893
 1293HO4     OW 5169   4.141   3.814   3.004
 1293HO4    HW1 5170   4.089   3.840   2.922
 1293HO4    HW2 5171   4.090   3.842   3.086
 1293HO4     MW 5172   4.141   3.814   3.004
 1294HO4     OW 5173   0.456   1.035   0.406
 1294HO4    HW1 5174   0.423   1.121   0.366
 1294HO4    HW2 5175   0.396   1.007   0.482
 1294HO4     MW 5176   0.456   1.035   0.406
 1295HO4     OW 5177   1.126   1.240   1.987
 1295HO4    HW1 5178   1.137   1.173   1.912
 1295HO4    HW2 5179   1.190   1.316   1.974
 1295HO4     MW 5180   1.126   1.240   1.987
 1296HO4     OW 5181   5.202   0.518   0.510
 1296HO4    HW1 5182   5.157   0.606   0.493
 1296HO4    HW2 5183   5.270   0.529   0.583
 1296HO4     MW 5184   5.202   0.518   0.510
 1297HO4     OW 5185   2.197   1.839   4.988
 1297HO4    HW1 5186   2.197   1.882   4.897
 1297HO4    HW2 5187   2.291   1.816   5.014
 1297HO4     MW 5188   2.197   1.839   4.988
 1298HO4     OW 5189   1.724   0.929   2.641
 1298HO4    HW1 5190   1.682   0.850   2.595
 1298HO4    HW2 5191   1.808   0.955   2.591
 1298HO4     MW 5192   1.724   0.929   2.641
 1299HO4     OW 5193   1.861   4.073   1.391
 1299HO4    HW1 5194   1.798   3.995   1.403
 1299HO4    HW2 5195   1.810   4.159   1.400
 1299HO4     MW 5196   1.861   4.073   1.391
 1300HO4     OW 5197   0.851   0.315   3.069
 1300HO4    HW1 5198   0.767   0.360   3.038
 1300HO4    HW2 5199   0.930   0.372   3.045
 1300HO4     MW 5200   0.851   0.315   3.069
 1301HO4     OW 5201   4.094   4.812   2.225
 1301HO4    HW1 5202   4.060   4.770   2.309
 1301HO4    HW2 5203   4.132   4.740   2.166
 1301HO4     MW 5204   4.094   4.812   2.225
 1302HO4     OW 5205   0.503   1.830   0.478
 1302HO4    HW1 5206   0.539   1.885   0.553
 1302HO4    HW2 5207   0.567   1.755   0.458
 1302HO4     MW 5208   0.503   1.830   0.478
 1303HO4     OW 5209   3.665   2.232   1.704
 1303HO4    HW1 5210   3.585   2.230   1.643
 1303HO4    HW2 5211   3.642   2.190   1.792
 1303HO4     MW 5212   3.665   2.232   1.704
 1304HO4     OW 5213   3.281   3.491   4.515
 1304HO4    HW1 5214   3.289   3.491   4.415
 1304HO4    HW2 5215   3.205   3.432   4.543
 1304HO4     MW 5216   3.281   3.491   4.515
 1305HO4     OW 5217   5.075   4.029   1.894
 1305HO4    HW1 5218   5.133   4.026   1.976
 1305HO4    HW2 5219   5.134   4.021   1.812
 1305HO4     MW 5220   5.075   4.029   1.894
 1306HO4     OW 5221   1.369   0.464   4.439
 1306HO4    HW1 5222   1.391   0.529   4.366
 1306HO4    HW2 5223   1.359   0.372   4.401
 1306HO4     MW 5224   1.369   0.464   4.439
 1307HO4     OW 5225   3.686   2.150   4.787
 1307HO4    HW1 5226   3.740   2.187   4.863
 1307HO4    HW2 5227   3.719   2.188   4.700
 1307HO4     MW 5228   3.686   2.150   4.787
 1308HO4     OW 5229   0.106   1.292   0.572
 1308HO4    HW1 5230   0.136   1.333   0.485
 1308HO4    HW2 5231   0.176   1.227   0.604
 1308HO4     MW 5232   0.106   1.292   0.572
 1309HO4     OW 5233   2.005   4.020   1.624
 1309HO4    HW1 5234   1.962   3.931   1.605
 1309HO4    HW2 5235   1.948   4.072   1.688
 1309HO4     MW 5236   2.005   4.020   1.624
 1310HO4     OW 5237   5.473   1.682   3.126
 1310HO4    HW1 5238   5.496   1.594   3.084
 1310HO4    HW2 5239   5.386   1.715   3.087
 1310HO4     MW 5240   5.473   1.682   3.126
 1311HO4     OW 5241   4.811   1.825   1.772
 1311HO4    HW1 5242   4.804   1.791   1.866
 1311HO4    HW2 5243   4.740   1.782   1.716
 1311HO4     MW 5244   4.811   1.825   1.772
 1312HO4     OW 5245   4.991   2.035   0.872
 1312HO4    HW1 5246   4.897   2.034   0.837
 1312HO4    HW2 5247   5.054   2.065   0.800
 1312HO4     MW 5248   4.991   2.035   0.872
 1313HO4     OW 5249   5.326   0.173   2.481
 1313HO4    HW1 5250   5.228   0.155   2.478
 1313HO4    HW2 5251   5.355   0.215   2.393
 1313HO4     MW 5252   5.326   0.173   2.481
 1314HO4     OW 5253   3.477   3.325   1.853
 1314HO4    HW1 5254   3.384   3.316   1.817
 1314HO4    HW2 5255   3.487   3.412   1.902
 1314HO4     MW 5256   3.477   3.325   1.853
 1315HO4     OW 5257   3.202   3.334   1.973
 1315HO4    HW1 5258   3.248   3.272   2.038
 1315HO4    HW2 5259   3.271   3.391   1.927
 1315HO4     MW 5260   3.202   3.334   1.973
 1316HO4     OW 5261   3.272   3.259   1.355
 1316HO4    HW1 5262   3.261   3.291   1.261
 1316HO4    HW2 5263   3.349   3.307   1.398
 1316HO4     MW 5264   3.272   3.259   1.355
 1317HO4     OW 5265   1.803   5.156   3.093
 1317HO4    HW1 5266   1.781   5.062   3.067
 1317HO4    HW2 5267   1.788   5.168   3.192
 1317HO4     MW 5268   1.803   5.156   3.093
 1318HO4     OW 5269   1.965   3.751   2.818
 1318HO4    HW1 5270   1.942   3.806   2.737
 1318HO4    HW2 5271   1.943   3.655   2.801
 1318HO4     MW 5272   1.965   3.751   2.818
 1319HO4     OW 5273   3.984   2.132   4.691
 1319HO4    HW1 5274   4.036   2.218   4.683
 1319HO4    HW2 5275   3.887   2.151   4.675
 1319HO4     MW 5276   3.984   2.132   4.691
 1320HO4     OW 5277   5.467   1.503   2.333
 1320HO4    HW1 5278   5.409   1.558   2.394
 1320HO4    HW2 5279   5.448   1.527   2.238
 1320HO4     MW 5280   5.467   1.503   2.333
 1321HO4     OW 5281   5.088   1.104   0.253
 1321HO4    HW1 5282   5.023   1.050   0.309
 1321HO4    HW2 5283   5.174   1.116   0.304
 1321HO4     MW 5284   5.088   1.104   0.253
 1322HO4     OW 5285   3.157   1.453   3.402
 1322HO4    HW1 5286   3.214   1.430   3.323
 1322HO4    HW2 5287   3.198   1.414   3.485
 1322HO4     MW 5288   3.157   1.453   3.402
 1323HO4     OW 5289   2.621   4.580   1.039
 1323HO4    HW1 5290   2.556   4.656   1.044
 1323HO4    HW2 5291   2.620   4.528   1.125
 1323HO4     MW 5292   2.621   4.580   1.039
 1324HO4     OW 5293   0.414   3.586   3.525
 1324HO4    HW1 5294   0.456   3.661   3.577
 1324HO4    HW2 5295   0.372   3.521   3.588
 1324HO4     MW 5296   0.414   3.586   3.525
 1325HO4     OW 5297   1.696   3.770   1.397
 1325HO4    HW1 5298   1.758   3.780   1.318
 1325HO4    HW2 5299   1.746   3.730   1.474
 1325HO4     MW 5300   1.696   3.770   1.397
 1326HO4     OW 5301   3.407   5.167   4.536
 1326HO4    HW1 5302   3.354   5.137   4.456
 1326HO4    HW2 5303   3.345   5.188   4.612
 1326HO4     MW 5304   3.407   5.167   4.536
 1327HO4     OW 5305   0.307   4.613   3.261
 1327HO4    HW1 5306   0.356   4.527   3.278
 1327HO4    HW2 5307   0.349   4.686   3.315
 1327HO4     MW 5308   0.307   4.613   3.261
 1328HO4     OW 5309   0.990   5.013   3.579
 1328HO4    HW1 5310   1.061   5.051   3.639
 1328HO4    HW2 5311   1.022   5.017   3.483
 1328HO4     MW 5312   0.990   5.013   3.579
 1329HO4     OW 5313   2.473   0.429   3.160
 1329HO4    HW1 5314   2.492   0.501   3.227
 1329HO4    HW2 5315   2.554   0.414   3.103
 1329HO4     MW 5316   2.473   0.429   3.160
 1330HO4     OW 5317   0.432   1.293   2.033
 1330HO4    HW1 5318   0.451   1.347   2.115
 1330HO4    HW2 5319   0.507   1.227   2.018
 1330HO4     MW 5320   0.432   1.293   2.033
 1331HO4     OW 5321   2.760   1.778   0.934
 1331HO4    HW1 5322   2.701   1.725   0.995
 1331HO4    HW2 5323   2.703   1.832   0.871
 1331HO4     MW 5324   2.760   1.778   0.934
 1332HO4     OW 5325   0.904   0.845   4.520
 1332HO4    HW1 5326   0.980   0.822   4.582
 1332HO4    HW2 5327   0.862   0.931   4.548
 1332HO4     MW 5328   0.904   0.845   4.520
 1333HO4     OW 5329   2.794   2.024   4.703
 1333HO4    HW1 5330   2.820   2.014   4.799
 1333HO4    HW2 5331   2.877   2.024   4.646
 1333HO4     MW 5332   2.794   2.024   4.703
 1334HO4     OW 5333   4.647   2.460   2.783
 1334HO4    HW1 5334   4.661   2.422   2.875
 1334HO4    HW2 5335   4.735   2.486   2.743
 1334HO4     MW 5336   4.647   2.460   2.783
 1335HO4     OW 5337   3.211   1.654   0.434
 1335HO4    HW1 5338   3.178   1.593   0.362
 1335HO4    HW2 5339   3.163   1.633   0.520
 1335HO4     MW 5340   3.211   1.654   0.434
 1336HO4     OW 5341   4.551   0.551   1.546
 1336HO4    HW1 5342   4.485   0.531   1.619
 1336HO4    HW2 5343   4.642   0.565   1.586
 1336HO4     MW 5344   4.551   0.551   1.546
 1337HO4     OW 5345   1.502   4.074   0.865
 1337HO4    HW1 5346   1.485   4.165   0.904
 1337HO4    HW2 5347   1.579   4.030   0.912
 1337HO4     MW 5348   1.502   4.074   0.865
 1338HO4     OW 5349   3.713   2.080   0.254
 1338HO4    HW1 5350   3.662   2.053   0.336
 1338HO4    HW2 5351   3.666   2.045   0.172
 1338HO4     MW 5352   3.713   2.080   0.254
 1339HO4     OW 5353   4.562   0.287   0.237
 1339HO4    HW1 5354   4.626   0.289   0.314
 1339HO4    HW2 5355   4.601   0.339   0.160
 1339HO4     MW 5356   4.562   0.287   0.237
 1340HO4     OW 5357   4.264   3.705   5.418
 1340HO4    HW1 5358   4.200   3.754   5.358
 1340HO4    HW2 5359   4.221   3.688   5.507
 1340HO4     MW 5360   4.264   3.705   5.418
 1341HO4     OW 5361   2.688   3.872   3.926
 1341HO4    HW1 5362   2.708   3.921   4.011
 1341HO4    HW2 5363   2.739   3.914   3.850
 1341HO4     MW 5364   2.688   3.872   3.926
 1342HO4     OW 5365   2.389   4.116   5.037
 1342HO4    HW1 5366   2.391   4.215   5.054
 1342HO4    HW2 5367   2.420   4.098   4.943
 1342HO4     MW 5368   2.389   4.116   5.037
 1343HO4     OW 5369   0.525   2.819   0.114
 1343HO4    HW1 5370   0.544   2.818   0.015
 1343HO4    HW2 5371   0.586   2.886   0.158
 1343HO4     MW 5372   0.525   2.819   0.114
 1344HO4     OW 5373   3.229   0.120   2.029
 1344HO4    HW1 5374   3.165   0.113   2.106
 1344HO4    HW2 5375   3.177   0.127   1.943
 1344HO4     MW 5376   3.229   0.120   2.029
 1345HO4     OW 5377   0.087   4.225   2.327
 1345HO4    HW1 5378   0.104   4.207   2.424
 1345HO4    HW2 5379   0.174   4.248   2.282
 1345HO4     MW 5380   0.087   4.225   2.327
 1346HO4     OW 5381   3.332   1.299   0.578
 1346HO4    HW1 5382   3.276   1.216   0.582
 1346HO4    HW2 5383   3.396   1.293   0.501
 1346HO4     MW 5384   3.332   1.299   0.578
 1347HO4     OW 5385   1.567   2.120   4.490
 1347HO4    HW1 5386   1.663   2.098   4.506
 1347HO4    HW2 5387   1.548   2.121   4.392
 1347HO4     MW 5388   1.567   2.120   4.490
 1348HO4     OW 5389   3.083   2.484   5.157
 1348HO4    HW1 5390   3.049   2.554   5.221
 1348HO4    HW2 5391   3.044   2.500   5.066
 1348HO4     MW 5392   3.083   2.484   5.157
 1349HO4     OW 5393   3.156   1.585   3.920
 1349HO4    HW1 5394   3.081   1.585   3.987
 1349HO4    HW2 5395   3.240   1.552   3.964
 1349HO4     MW 5396   3.156   1.585   3.920
 1350HO4     OW 5397   4.078   2.222   1.536
 1350HO4    HW1 5398   4.147   2.202   1.466
 1350HO4    HW2 5399   4.082   2.152   1.608
 1350HO4     MW 5400   4.078   2.222   1.536
 1351HO4     OW 5401   4.021   0.938   0.196
 1351HO4    HW1 5402   4.025   0.998   0.277
 1351HO4    HW2 5403   4.097   0.960   0.134
 1351HO4     MW 5404   4.021   0.938   0.196
 1352HO4     OW 5405   0.186   0.500   5.315
 1352HO4    HW1 5406   0.185   0.437   5.393
 1352HO4    HW2 5407   0.093   0.535   5.299
 1352HO4     MW 5408   0.186   0.500   5.315
 1353HO4     OW 5409   3.815   3.867   3.543
 1353HO4    HW1 5410   3.751   3.864   3.465
 1353HO4    HW2 5411   3.843   3.773   3.566
 1353HO4     MW 5412   3.815   3.867   3.543
 1354HO4     OW 5413   2.865   2.411   5.457
 1354HO4    HW1 5414   2.869   2.360   5.370
 1354HO4    HW2 5415   2.871   2.346   5.534
 1354HO4     MW 5416   2.865   2.411   5.457
 1355HO4     OW 5417   4.273   1.881   4.490
 1355HO4    HW1 5418   4.224   1.957   4.447
 1355HO4    HW2 5419   4.342   1.845   4.426
 1355HO4     MW 5420   4.273   1.881   4.490
 1356HO4     OW 5421   4.254   0.621   2.594
 1356HO4    HW1 5422   4.197   0.667   2.662
 1356HO4    HW2 5423   4.206   0.619   2.506
 1356HO4     MW 5424   4.254   0.621   2.594
 1357HO4     OW 5425   1.607   5.023   1.952
 1357HO4    HW1 5426   1.616   5.123   1.965
 1357HO4    HW2 5427   1.581   4.981   2.040
 1357HO4     MW 5428   1.607   5.023   1.952
 1358HO4     OW 5429   1.316   3.216   3.003
 1358HO4    HW1 5430   1.349   3.124   3.024
 1358HO4    HW2 5431   1.326   3.235   2.905
 1358HO4     MW 5432   1.316   3.216   3.003
 1359HO4     OW 5433   1.934   4.236   5.244
 1359HO4    HW1 5434   1.869   4.298   5.290
 1359HO4    HW2 5435   1.894   4.201   5.160
 1359HO4     MW 5436   1.934   4.236   5.244
 1360HO4     OW 5437   3.620   0.776   0.167
 1360HO4    HW1 5438   3.551   0.849   0.157
 1360HO4    HW2 5439   3.620   0.719   0.084
 1360HO4     MW 5440   3.620   0.776   0.167
 1361HO4     OW 5441   4.831   5.360   1.948
 1361HO4    HW1 5442   4.832   5.328   1.853
 1361HO4    HW2 5443   4.892   5.303   2.003
 1361HO4     MW 5444   4.831   5.360   1.948
 1362HO4     OW 5445   1.325   1.671   3.892
 1362HO4    HW1 5446   1.281   1.643   3.806
 1362HO4    HW2 5447   1.264   1.651   3.969
 1362HO4     MW 5448   1.325   1.671   3.892
 1363HO4     OW 5449   0.955   0.329   5.174
 1363HO4    HW1 5450   0.968   0.280   5.260
 1363HO4    HW2 5451   0.877   0.391   5.183
 1363HO4     MW 5452   0.955   0.329   5.174
 1364HO4     OW 5453   3.625   2.809   4.679
 1364HO4    HW1 5454   3.721   2.790   4.702
 1364HO4    HW2 5455   3.616   2.819   4.580
 1364HO4     MW 5456   3.625   2.809   4.679
 1365HO4     OW 5457   4.088   4.775   0.870
 1365HO4    HW1 5458   4.176   4.792   0.918
 1365HO4    HW2 5459   4.073   4.848   0.803
 1365HO4     MW 5460   4.088   4.775   0.870
 1366HO4     OW 5461   1.095   1.472   0.616
 1366HO4    HW1 5462   1.077   1.524   0.532
 1366HO4    HW2 5463   1.131   1.533   0.687
 1366HO4     MW 5464   1.095   1.472   0.616
 1367HO4     OW 5465   5.412   0.913   4.406
 1367HO4    HW1 5466   5.480   0.860   4.458
 1367HO4    HW2 5467   5.412   0.881   4.310
 1367HO4     MW 5468   5.412   0.913   4.406
 1368HO4     OW 5469   2.305   1.982   3.532
 1368HO4    HW1 5470   2.371   1.984   3.457
 1368HO4    HW2 5471   2.354   1.975   3.620
 1368HO4     MW 5472   2.305   1.982   3.532
 1369HO4     OW 5473   2.189   2.597   4.037
 1369HO4    HW1 5474   2.273   2.579   3.985
 1369HO4    HW2 5475   2.189   2.692   4.069
 1369HO4     MW 5476   2.189   2.597   4.037
 1370HO4     OW 5477   0.392   3.938   5.267
 1370HO4    HW1 5478   0.412   3.987   5.352
 1370HO4    HW2 5479   0.309   3.882   5.279
 1370HO4     MW 5480   0.392   3.938   5.267
 1371HO4     OW 5481   1.073   3.963   1.526
 1371HO4    HW1 5482   1.063   3.963   1.426
 1371HO4    HW2 5483   1.113   4.051   1.555
 1371HO4     MW 5484   1.073   3.963   1.526
 1372HO4     OW 5485   2.596   0.352   0.980
 1372HO4    HW1 5486   2.664   0.372   1.052
 1372HO4    HW2 5487   2.614   0.411   0.900
 1372HO4     MW 5488   2.596   0.352   0.980
 1373HO4     OW 5489   3.861   4.616   2.789
 1373HO4    HW1 5490   3.862   4.526   2.832
 1373HO4    HW2 5491   3.952   4.635   2.750
 1373HO4     MW 5492   3.861   4.616   2.789
 1374HO4     OW 5493   0.069   0.496   3.031
 1374HO4    HW1 5494   0.163   0.519   3.005
 1374HO4    HW2 5495   0.060   0.500   3.131
 1374HO4     MW 5496   0.069   0.496   3.031
 1375HO4     OW 5497   2.016   2.872   1.313
 1375HO4    HW1 5498   1.946   2.901   1.378
 1375HO4    HW2 5499   1.982   2.796   1.257
 1375HO4     MW 5500   2.016   2.872   1.313
 1376HO4     OW 5501   2.032   4.217   3.223
 1376HO4    HW1 5502   2.120   4.234   3.267
 1376HO4    HW2 5503   2.007   4.296   3.166
 1376HO4     MW 5504   2.032   4.217   3.223
 1377HO4     OW 5505   2.903   1.451   5.486
 1377HO4    HW1 5506   2.879   1.525   5.550
 1377HO4    HW2 5507   2.874   1.477   5.393
 1377HO4     MW 5508   2.903   1.451   5.486
 1378HO4     OW 5509   3.449   2.495   3.821
 1378HO4    HW1 5510   3.394   2.485   3.738
 1378HO4    HW2 5511   3.392   2.532   3.895
 1378HO4     MW 5512   3.449   2.495   3.821
 1379HO4     OW 5513   3.835   0.050   3.534
 1379HO4    HW1 5514   3.836   0.150   3.544
 1379HO4    HW2 5515   3.929   0.015   3.546
 1379HO4     MW 5516   3.835   0.050   3.534
 1380HO4     OW 5517   1.750   0.646   1.912
 1380HO4    HW1 5518   1.703   0.594   1.840
 1380HO4    HW2 5519   1.849   0.638   1.899
 1380HO4     MW 5520   1.750   0.646   1.912
 1381HO4     OW 5521   3.321   2.073   2.510
 1381HO4    HW1 5522   3.411   2.036   2.486
 1381HO4    HW2 5523   3.295   2.040   2.601
 1381HO4     MW 5524   3.321   2.073   2.510
 1382HO4     OW 5525   1.659   2.918   3.297
 1382HO4    HW1 5526   1.608   2.851   3.352
 1382HO4    HW2 5527   1.735   2.872   3.250
 1382HO4     MW 5528   1.659   2.918   3.297
 1383HO4     OW 5529   3.339   4.916   3.451
 1383HO4    HW1 5530   3.372   4.864   3.530
 1383HO4    HW2 5531   3.347   4.860   3.368
 1383HO4     MW 5532   3.339   4.916   3.451
 1384HO4     OW 5533   3.548   1.379   5.359
 1384HO4    HW1 5534   3.492   1.425   5.430
 1384HO4    HW2 5535   3.498   1.381   5.272
 1384HO4     MW 5536   3.548   1.379   5.359
 1385HO4     OW 5537   3.509   4.579   2.369
 1385HO4    HW1 5538   3.592   4.594   2.423
 1385HO4    HW2 5539   3.501   4.651   2.299
 1385HO4     MW 5540   3.509   4.579   2.369
 1386HO4     OW 5541   0.744   0.521   5.222
 1386HO4    HW1 5542   0.751   0.512   5.122
 1386HO4    HW2 5543   0.756   0.431   5.265
 1386HO4     MW 5544   0.744   0.521   5.222
 1387HO4     OW 5545   5.435   1.019   2.918
 1387HO4    HW1 5546   5.388   1.057   2.998
 1387HO4    HW2 5547   5.395   1.056   2.834
 1387HO4     MW 5548   5.435   1.019   2.918
 1388HO4     OW 5549   1.072   1.106   0.732
 1388HO4    HW1 5550   1.104   1.043   0.803
 1388HO4    HW2 5551   0.977   1.083   0.708
 1388HO4     MW 5552   1.072   1.106   0.732
 1389HO4     OW 5553   0.227   1.681   1.405
 1389HO4    HW1 5554   0.171   1.651   1.483
 1389HO4    HW2 5555   0.178   1.662   1.320
 1389HO4     MW 5556   0.227   1.681   1.405
 1390HO4     OW 5557   3.433   4.932   5.341
 1390HO4    HW1 5558   3.394   4.972   5.257
 1390HO4    HW2 5559   3.406   4.835   5.347
 1390HO4     MW 5560   3.433   4.932   5.341
 1391HO4     OW 5561   3.964   3.255   1.517
 1391HO4    HW1 5562   3.913   3.217   1.440
 1391HO4    HW2 5563   3.900   3.294   1.584
 1391HO4     MW 5564   3.964   3.255   1.517
 1392HO4     OW 5565   0.711   3.678   5.268
 1392HO4    HW1 5566   0.762   3.639   5.345
 1392HO4    HW2 5567   0.776   3.711   5.198
 1392HO4     MW 5568   0.711   3.678   5.268
 1393HO4     OW 5569   4.584   4.720   3.763
 1393HO4    HW1 5570   4.517   4.710   3.838
 1393HO4    HW2 5571   4.655   4.651   3.774
 1393HO4     MW 5572   4.584   4.720   3.763
 1394HO4     OW 5573   3.813   4.576   0.081
 1394HO4    HW1 5574   3.787   4.603  -0.012
 1394HO4    HW2 5575   3.744   4.611   0.146
 1394HO4     MW 5576   3.813   4.576   0.081
 1395HO4     OW 5577   4.033   3.600   1.755
 1395HO4    HW1 5578   4.083   3.620   1.839
 1395HO4    HW2 5579   4.093   3.611   1.676
 1395HO4     MW 5580   4.033   3.600   1.755
 1396HO4     OW 5581   3.765   0.701   5.218
 1396HO4    HW1 5582   3.784   0.668   5.311
 1396HO4    HW2 5583   3.681   0.657   5.184
 1396HO4     MW 5584   3.765   0.701   5.218
 1397HO4     OW 5585   3.013   4.806   0.639
 1397HO4    HW1 5586   3.101   4.838   0.603
 1397HO4    HW2 5587   2.946   4.802   0.564
 1397HO4     MW 5588   3.013   4.806   0.639
 1398HO4     OW 5589   4.231   2.298   4.414
 1398HO4    HW1 5590   4.241   2.351   4.329
 1398HO4    HW2 5591   4.301   2.225   4.416
 1398HO4     MW 5592   4.231   2.298   4.414
 1399HO4     OW 5593   0.130   1.366   0.087
 1399HO4    HW1 5594   0.119   1.417   0.173
 1399HO4    HW2 5595   0.124   1.429   0.009
 1399HO4     MW 5596   0.130   1.366   0.087
 1400HO4     OW 5597   4.485   1.212   2.582
 1400HO4    HW1 5598   4.505   1.215   2.484
 1400HO4    HW2 5599   4.509   1.122   2.619
 1400HO4     MW 5600   4.485   1.212   2.582
 1401HO4     OW 5601   3.868   0.034   0.894
 1401HO4    HW1 5602   3.798   0.082   0.840
 1401HO4    HW2 5603   3.831   0.010   0.984
 1401HO4     MW 5604   3.868   0.034   0.894
 1402HO4     OW 5605   1.563   0.731   4.375
 1402HO4    HW1 5606   1.567   0.699   4.470
 1402HO4    HW2 5607   1.656   0.738   4.338
 1402HO4     MW 5608   1.563   0.731   4.375
 1403HO4     OW 5609   2.776   2.944   3.544
 1403HO4    HW1 5610   2.747   2.852   3.571
 1403HO4    HW2 5611   2.696   2.997   3.514
 1403HO4     MW 5612   2.776   2.944   3.544
 1404HO4     OW 5613   5.406   1.780   5.039
 1404HO4    HW1 5614   5.308   1.762   5.045
 1404HO4    HW2 5615   5.422   1.863   4.985
 1404HO4     MW 5616   5.406   1.780   5.039
 1405HO4     OW 5617   3.751   3.566   5.082
 1405HO4    HW1 5618   3.800   3.641   5.127
 1405HO4    HW2 5619   3.817   3.499   5.045
 1405HO4     MW 5620   3.751   3.566   5.082
 1406HO4     OW 5621   2.742   2.328   1.574
 1406HO4    HW1 5622   2.771   2.395   1.505
 1406HO4    HW2 5623   2.644   2.337   1.590
 1406HO4     MW 5624   2.742   2.328   1.574
 1407HO4     OW 5625   2.242   3.977   5.356
 1407HO4    HW1 5626   2.341   3.982   5.341
 1407HO4    HW2 5627   2.211   4.056   5.410
 1407HO4     MW 5628   2.242   3.977   5.356
 1408HO4     OW 5629   3.852   2.552   2.813
 1408HO4    HW1 5630   3.847   2.502   2.726
 1408HO4    HW2 5631   3.854   2.486   2.889
 1408HO4     MW 5632   3.852   2.552   2.813
 1409HO4     OW 5633   4.012   0.589   0.939
 1409HO4    HW1 5634   4.028   0.682   0.973
 1409HO4    HW2 5635   4.011   0.589   0.839
 1409HO4     MW 5636   4.012   0.589   0.939
 1410HO4     OW 5637   2.143   1.404   3.597
 1410HO4    HW1 5638   2.172   1.445   3.510
 1410HO4    HW2 5639   2.183   1.455   3.674
 1410HO4     MW 5640   2.143   1.404   3.597
 1411HO4     OW 5641   1.550   0.352   1.382
 1411HO4    HW1 5642   1.531   0.347   1.283
 1411HO4    HW2 5643   1.649   0.363   1.396
 1411HO4     MW 5644   1.550   0.352   1.382
 1412HO4     OW 5645   1.278   5.119   4.611
 1412HO4    HW1 5646   1.212   5.065   4.558
 1412HO4    HW2 5647   1.360   5.135   4.556
 1412HO4     MW 5648   1.278   5.119   4.611
 1413HO4     OW 5649   2.992   5.501   4.255
 1413HO4    HW1 5650   2.976   5.428   4.188
 1413HO4    HW2 5651   2.945   5.478   4.341
 1413HO4     MW 5652   2.992   5.501   4.255
 1414HO4     OW 5653   2.548   0.986   5.330
 1414HO4    HW1 5654   2.515   1.001   5.424
 1414HO4    HW2 5655   2.491   1.038   5.266
 1414HO4     MW 5656   2.548   0.986   5.330
 1415HO4     OW 5657   1.344   0.100   4.512
 1415HO4    HW1 5658   1.375   0.067   4.422
 1415HO4    HW2 5659   1.248   0.129   4.505
 1415HO4     MW 5660   1.344   0.100   4.512
 1416HO4     OW 5661   1.568   4.943   4.464
 1416HO4    HW1 5662   1.522   5.025   4.428
 1416HO4    HW2 5663   1.562   4.944   4.565
 1416HO4     MW 5664   1.568   4.943   4.464
 1417HO4     OW 5665   1.884   0.722   1.173
 1417HO4    HW1 5666   1.855   0.635   1.132
 1417HO4    HW2 5667   1.888   0.712   1.273
 1417HO4     MW 5668   1.884   0.722   1.173
 1418HO4     OW 5669   1.195   4.724   2.574
 1418HO4    HW1 5670   1.259   4.727   2.650
 1418HO4    HW2 5671   1.242   4.748   2.489
 1418HO4     MW 5672   1.195   4.724   2.574
 1419HO4     OW 5673   1.287   0.480   3.581
 1419HO4    HW1 5674   1.198   0.506   3.540
 1419HO4    HW2 5675   1.342   0.432   3.511
 1419HO4     MW 5676   1.287   0.480   3.581
 1420HO4     OW 5677   2.709   1.544   4.392
 1420HO4    HW1 5678   2.670   1.484   4.322
 1420HO4    HW2 5679   2.686   1.509   4.484
 1420HO4     MW 5680   2.709   1.544   4.392
 1421HO4     OW 5681   3.668   5.421   4.410
 1421HO4    HW1 5682   3.736   5.462   4.472
 1421HO4    HW2 5683   3.601   5.369   4.463
 1421HO4     MW 5684   3.668   5.421   4.410
 1422HO4     OW 5685   3.160   4.634   3.065
 1422HO4    HW1 5686   3.214   4.593   2.991
 1422HO4    HW2 5687   3.186   4.593   3.152
 1422HO4     MW 5688   3.160   4.634   3.065
 1423HO4     OW 5689   0.024   2.878   1.061
 1423HO4    HW1 5690   0.076   2.882   0.976
 1423HO4    HW2 5691   0.082   2.841   1.134
 1423HO4     MW 5692   0.024   2.878   1.061
 1424HO4     OW 5693   2.264   5.482   0.113
 1424HO4    HW1 5694   2.187   5.507   0.174
 1424HO4    HW2 5695   2.247   5.392   0.073
 1424HO4     MW 5696   2.264   5.482   0.113
 1425HO4     OW 5697   4.328   5.396   1.082
 1425HO4    HW1 5698   4.327   5.422   0.985
 1425HO4    HW2 5699   4.239   5.418   1.123
 1425HO4     MW 5700   4.328   5.396   1.082
 1426HO4     OW 5701   0.722   3.938   1.565
 1426HO4    HW1 5702   0.776   4.012   1.524
 1426HO4    HW2 5703   0.745   3.930   1.662
 1426HO4     MW 5704   0.722   3.938   1.565
 1427HO4     OW 5705   0.965   4.827   0.927
 1427HO4    HW1 5706   0.986   4.905   0.867
 1427HO4    HW2 5707   1.048   4.801   0.978
 1427HO4     MW 5708   0.965   4.827   0.927
 1428HO4     OW 5709   5.128   3.508   4.363
 1428HO4    HW1 5710   5.157   3.490   4.457
 1428HO4    HW2 5711   5.200   3.475   4.300
 1428HO4     MW 5712   5.128   3.508   4.363
 1429HO4     OW 5713   0.892   0.204   4.994
 1429HO4    HW1 5714   0.870   0.143   5.071
 1429HO4    HW2 5715   0.848   0.293   5.008
 1429HO4     MW 5716   0.892   0.204   4.994
 1430HO4     OW 5717   0.913   3.596   4.018
 1430HO4    HW1 5718   0.855   3.575   4.098
 1430HO4    HW2 5719   0.857   3.598   3.935
 1430HO4     MW 5720   0.913   3.596   4.018
 1431HO4     OW 5721   5.313   4.766   3.564
 1431HO4    HW1 5722   5.404   4.777   3.524
 1431HO4    HW2 5723   5.291   4.847   3.619
 1431HO4     MW 5724   5.313   4.766   3.564
 1432HO4     OW 5725   3.343   4.918   1.165
 1432HO4    HW1 5726   3.269   4.852   1.146
 1432HO4    HW2 5727   3.374   4.907   1.260
 1432HO4     MW 5728   3.343   4.918   1.165
 1433HO4     OW 5729   4.658   1.661   5.086
 1433HO4    HW1 5730   4.723   1.681   5.012
 1433HO4    HW2 5731   4.683   1.573   5.129
 1433HO4     MW 5732   4.658   1.661   5.086
 1434HO4     OW 5733   3.326   3.078   3.558
 1434HO4    HW1 5734   3.331   3.125   3.470
 1434HO4    HW2 5735   3.390   3.001   3.560
 1434HO4     MW 5736   3.326   3.078   3.558
 1435HO4     OW 5737   2.833   1.890   0.497
 1435HO4    HW1 5738   2.858   1.876   0.401
 1435HO4    HW2 5739   2.917   1.900   0.552
 1435HO4     MW 5740   2.833   1.890   0.497
 1436HO4     OW 5741   4.055   0.451   3.166
 1436HO4    HW1 5742   4.145   0.440   3.209
 1436HO4    HW2 5743   3.997   0.508   3.225
 1436HO4     MW 5744   4.055   0.451   3.166
 1437HO4     OW 5745   1.697   4.439   1.133
 1437HO4    HW1 5746   1.671   4.492   1.052
 1437HO4    HW2 5747   1.738   4.501   1.201
 1437HO4     MW 5748   1.697   4.439   1.133
 1438HO4     OW 5749   3.198   4.712   5.170
 1438HO4    HW1 5750   3.291   4.751   5.172
 1438HO4    HW2 5751   3.197   4.624   5.220
 1438HO4     MW 5752   3.198   4.712   5.170
 1439HO4     OW 5753   4.112   1.583   2.288
 1439HO4    HW1 5754   4.130   1.487   2.314
 1439HO4    HW2 5755   4.081   1.586   2.192
 1439HO4     MW 5756   4.112   1.583   2.288
 1440HO4     OW 5757   4.998   2.726   3.932
 1440HO4    HW1 5758   4.915   2.678   3.901
 1440HO4    HW2 5759   5.055   2.663   3.985
 1440HO4     MW 5760   4.998   2.726   3.932
 1441HO4     OW 5761   1.343   0.632   1.664
 1441HO4    HW1 5762   1.366   0.729   1.648
 1441HO4    HW2 5763   1.336   0.616   1.762
 1441HO4     MW 5764   1.343   0.632   1.664
 1442HO4     OW 5765   3.743   4.474   1.102
 1442HO4    HW1 5766   3.801   4.498   1.023
 1442HO4    HW2 5767   3.797   4.483   1.186
 1442HO4     MW 5768   3.743   4.474   1.102
 1443HO4     OW 5769   0.099   5.378   4.088
 1443HO4    HW1 5770   0.018   5.373   4.147
 1443HO4    HW2 5771   0.165   5.443   4.126
 1443HO4     MW 5772   0.099   5.378   4.088
 1444HO4     OW 5773   4.277   1.063   4.291
 1444HO4    HW1 5774   4.376   1.051   4.283
 1444HO4    HW2 5775   4.231   1.006   4.222
 1444HO4     MW 5776   4.277   1.063   4.291
 1445HO4     OW 5777   3.997   5.323   2.710
 1445HO4    HW1 5778   4.029   5.394   2.645
 1445HO4    HW2 5779   4.023   5.350   2.803
 1445HO4     MW 5780   3.997   5.323   2.710
 1446HO4     OW 5781   0.902   4.492   5.316
 1446HO4    HW1 5782   0.838   4.478   5.392
 1446HO4    HW2 5783   0.903   4.411   5.258
 1446HO4     MW 5784   0.902   4.492   5.316
 1447HO4     OW 5785   1.432   3.794   4.548
 1447HO4    HW1 5786   1.474   3.822   4.635
 1447HO4    HW2 5787   1.360   3.727   4.567
 1447HO4     MW 5788   1.432   3.794   4.548
 1448HO4     OW 5789   0.637   1.325   5.330
 1448HO4    HW1 5790   0.677   1.390   5.395
 1448HO4    HW2 5791   0.564   1.273   5.376
 1448HO4     MW 5792   0.637   1.325   5.330
 1449HO4     OW 5793   4.205   4.527   4.640
 1449HO4    HW1 5794   4.190   4.445   4.583
 1449HO4    HW2 5795   4.232   4.604   4.582
 1449HO4     MW 5796   4.205   4.527   4.640
 1450HO4     OW 5797   3.001   0.092   4.815
 1450HO4    HW1 5798   3.046   0.010   4.850
 1450HO4    HW2 5799   2.921   0.113   4.871
 1450HO4     MW 5800   3.001   0.092   4.815
 1451HO4     OW 5801   1.695   0.124   0.831
 1451HO4    HW1 5802   1.642   0.163   0.755
 1451HO4    HW2 5803   1.656   0.156   0.918
 1451HO4     MW 5804   1.695   0.124   0.831
 1452HO4     OW 5805   4.219   0.301   4.351
 1452HO4    HW1 5806   4.314   0.272   4.364
 1452HO4    HW2 5807   4.201   0.316   4.253
 1452HO4     MW 5808   4.219   0.301   4.351
 1453HO4     OW 5809   0.210   1.391   3.318
 1453HO4    HW1 5810   0.253   1.440   3.394
 1453HO4    HW2 5811   0.213   1.449   3.236
 1453HO4     MW 5812   0.210   1.391   3.318
 1454HO4     OW 5813   2.141   2.443   2.133
 1454HO4    HW1 5814   2.059   2.499   2.122
 1454HO4    HW2 5815   2.196   2.448   2.048
 1454HO4     MW 5816   2.141   2.443   2.133
 1455HO4     OW 5817   1.644   4.237   5.025
 1455HO4    HW1 5818   1.680   4.309   4.965
 1455HO4    HW2 5819   1.680   4.249   5.118
 1455HO4     MW 5820   1.644   4.237   5.025
 1456HO4     OW 5821   4.085   2.826   2.694
 1456HO4    HW1 5822   4.002   2.792   2.740
 1456HO4    HW2 5823   4.060   2.863   2.604
 1456HO4     MW 5824   4.085   2.826   2.694
 1457HO4     OW 5825   1.283   2.425   4.360
 1457HO4    HW1 5826   1.344   2.504   4.371
 1457HO4    HW2 5827   1.214   2.425   4.433
 1457HO4     MW 5828   1.283   2.425   4.360
 1458HO4     OW 5829   4.550   0.861   3.127
 1458HO4    HW1 5830   4.648   0.856   3.109
 1458HO4    HW2 5831   4.499   0.864   3.040
 1458HO4     MW 5832   4.550   0.861   3.127
 1459HO4     OW 5833   2.948   4.137   2.757
 1459HO4    HW1 5834   2.870   4.084   2.722
 1459HO4    HW2 5835   2.981   4.094   2.842
 1459HO4     MW 5836   2.948   4.137   2.757
 1460HO4     OW 5837   2.289   0.473   0.492
 1460HO4    HW1 5838   2.333   0.392   0.452
 1460HO4    HW2 5839   2.226   0.444   0.565
 1460HO4     MW 5840   2.289   0.473   0.492
 1461HO4     OW 5841   0.980   4.675   1.296
 1461HO4    HW1 5842   0.995   4.708   1.389
 1461HO4    HW2 5843   1.069   4.667   1.249
 1461HO4     MW 5844   0.980   4.675   1.296
 1462HO4     OW 5845   5.047   3.572   1.775
 1462HO4    HW1 5846   4.989   3.542   1.851
 1462HO4    HW2 5847   4.990   3.591   1.695
 1462HO4     MW 5848   5.047   3.572   1.775
 1463HO4     OW 5849   4.419   4.566   3.563
 1463HO4    HW1 5850   4.453   4.544   3.471
 1463HO4    HW2 5851   4.451   4.657   3.589
 1463HO4     MW 5852   4.419   4.566   3.563
 1464HO4     OW 5853   0.806   4.707   4.916
 1464HO4    HW1 5854   0.750   4.666   4.843
 1464HO4    HW2 5855   0.894   4.659   4.922
 1464HO4     MW 5856   0.806   4.707   4.916
 1465HO4     OW 5857   1.217   3.087   3.759
 1465HO4    HW1 5858   1.123   3.058   3.781
 1465HO4    HW2 5859   1.261   3.122   3.842
 1465HO4     MW 5860   1.217   3.087   3.759
 1466HO4     OW 5861   0.454   4.542   2.217
 1466HO4    HW1 5862   0.396   4.543   2.135
 1466HO4    HW2 5863   0.396   4.543   2.299
 1466HO4     MW 5864   0.454   4.542   2.217
 1467HO4     OW 5865   4.524   3.177   4.440
 1467HO4    HW1 5866   4.598   3.234   4.402
 1467HO4    HW2 5867   4.560   3.125   4.518
 1467HO4     MW 5868   4.524   3.177   4.440
 1468HO4     OW 5869   0.039   3.359   0.132
 1468HO4    HW1 5870   0.081   3.269   0.122
 1468HO4    HW2 5871  -0.039   3.367   0.070
 1468HO4     MW 5872   0.039   3.359   0.132
 1469HO4     OW 5873   5.183   3.798   1.985
 1469HO4    HW1 5874   5.259   3.815   1.921
 1469HO4    HW2 5875   5.146   3.706   1.969
 1469HO4     MW 5876   5.183   3.798   1.985
 1470HO4     OW 5877   3.197   3.230   2.365
 1470HO4    HW1 5878   3.141   3.296   2.314
 1470HO4    HW2 5879   3.223   3.155   2.304
 1470HO4     MW 5880   3.197   3.230   2.365
 1471HO4     OW 5881   1.584   4.443   2.068
 1471HO4    HW1 5882   1.640   4.371   2.111
 1471HO4    HW2 5883   1.493   4.406   2.046
 1471HO4     MW 5884   1.584   4.443   2.068
 1472HO4     OW 5885   4.215   2.180   1.740
 1472HO4    HW1 5886   4.141   2.236   1.702
 1472HO4    HW2 5887   4.234   2.208   1.834
 1472HO4     MW 5888   4.215   2.180   1.740
 1473HO4     OW 5889   3.905   2.721   4.764
 1473HO4    HW1 5890   3.833   2.693   4.829
 1473HO4    HW2 5891   3.989   2.744   4.815
 1473HO4     MW 5892   3.905   2.721   4.764
 1474HO4     OW 5893   4.724   0.274   1.486
 1474HO4    HW1 5894   4.805   0.230   1.446
 1474HO4    HW2 5895   4.722   0.256   1.585
 1474HO4     MW 5896   4.724   0.274   1.486
 1475HO4     OW 5897   2.819   1.486   2.586
 1475HO4    HW1 5898   2.801   1.541   2.504
 1475HO4    HW2 5899   2.777   1.531   2.666
 1475HO4     MW 5900   2.819   1.486   2.586
 1476HO4     OW 5901   4.884   2.165   0.193
 1476HO4    HW1 5902   4.840   2.193   0.279
 1476HO4    HW2 5903   4.829   2.197   0.116
 1476HO4     MW 5904   4.884   2.165   0.193
 1477HO4     OW 5905   4.010   2.684   1.019
 1477HO4    HW1 5906   3.936   2.732   1.068
 1477HO4    HW2 5907   3.995   2.691   0.920
 1477HO4     MW 5908   4.010   2.684   1.019
 1478HO4     OW 5909   4.630   3.456   2.540
 1478HO4    HW1 5910   4.558   3.480   2.474
 1478HO4    HW2 5911   4.602   3.486   2.632
 1478HO4     MW 5912   4.630   3.456   2.540
 1479HO4     OW 5913   3.375   2.977   4.784
 1479HO4    HW1 5914   3.469   3.003   4.807
 1479HO4    HW2 5915   3.374   2.932   4.694
 1479HO4     MW 5916   3.375   2.977   4.784
 1480HO4     OW 5917   5.241   4.892   2.087
 1480HO4    HW1 5918   5.199   4.853   2.005
 1480HO4    HW2 5919   5.198   4.853   2.169
 1480HO4     MW 5920   5.241   4.892   2.087
 1481HO4     OW 5921   4.235   4.332   2.050
 1481HO4    HW1 5922   4.286   4.246   2.058
 1481HO4    HW2 5923   4.180   4.347   2.132
 1481HO4     MW 5924   4.235   4.332   2.050
 1482HO4     OW 5925   1.970   4.922   2.605
 1482HO4    HW1 5926   1.951   4.869   2.522
 1482HO4    HW2 5927   1.907   5.000   2.611
 1482HO4     MW 5928   1.970   4.922   2.605
 1483HO4     OW 5929   2.881   3.072   0.338
 1483HO4    HW1 5930   2.854   3.117   0.423
 1483HO4    HW2 5931   2.831   3.113   0.261
 1483HO4     MW 5932   2.881   3.072   0.338
 1484HO4     OW 5933   5.221   5.178   2.491
 1484HO4    HW1 5934   5.206   5.179   2.591
 1484HO4    HW2 5935   5.176   5.097   2.452
 1484HO4     MW 5936   5.221   5.178   2.491
 1485HO4     OW 5937   2.034   0.650   1.366
 1485HO4    HW1 5938   2.074   0.739   1.390
 1485HO4    HW2 5939   2.043   0.587   1.444
 1485HO4     MW 5940   2.034   0.650   1.366
 1486HO4     OW 5941   4.317   4.340   0.943
 1486HO4    HW1 5942   4.311   4.253   0.892
 1486HO4    HW2 5943   4.282   4.415   0.886
 1486HO4     MW 5944   4.317   4.340   0.943
 1487HO4     OW 5945   0.077   3.346   2.490
 1487HO4    HW1 5946   0.095   3.258   2.447
 1487HO4    HW2 5947   0.163   3.386   2.523
 1487HO4     MW 5948   0.077   3.346   2.490
 1488HO4     OW 5949   3.851   4.226   2.547
 1488HO4    HW1 5950   3.882   4.262   2.458
 1488HO4    HW2 5951   3.898   4.275   2.621
 1488HO4     MW 5952   3.851   4.226   2.547
 1489HO4     OW 5953   1.331   3.590   1.508
 1489HO4    HW1 5954   1.247   3.643   1.523
 1489HO4    HW2 5955   1.307   3.493   1.493
 1489HO4     MW 5956   1.331   3.590   1.508
 1490HO4     OW 5957   4.579   1.687   2.198
 1490HO4    HW1 5958   4.482   1.704   2.178
 1490HO4    HW2 5959   4.590   1.672   2.297
 1490HO4     MW 5960   4.579   1.687   2.198
 1491HO4     OW 5961   3.141   0.870   0.065
 1491HO4    HW1 5962   3.219   0.814   0.034
 1491HO4    HW2 5963   3.087   0.817   0.130
 1491HO4     MW 5964   3.141   0.870   0.065
 1492HO4     OW 5965   1.811   0.974   1.242
 1492HO4    HW1 5966   1.722   0.991   1.199
 1492HO4    HW2 5967   1.804   0.991   1.341
 1492HO4     MW 5968   1.811   0.974   1.242
 1493HO4     OW 5969   3.194   4.327   3.397
 1493HO4    HW1 5970   3.167   4.355   3.304
 1493HO4    HW2 5971   3.293   4.318   3.402
 1493HO4     MW 5972   3.194   4.327   3.397
 1494HO4     OW 5973   2.474   4.258   4.495
 1494HO4    HW1 5974   2.426   4.314   4.428
 1494HO4    HW2 5975   2.503   4.171   4.453
 1494HO4     MW 5976   2.474   4.258   4.495
 1495HO4     OW 5977   4.777   2.859   0.883
 1495HO4    HW1 5978   4.677   2.859   0.893
 1495HO4    HW2 5979   4.814   2.947   0.913
 1495HO4     MW 5980   4.777   2.859   0.883
 1496HO4     OW 5981   0.775   0.775   1.940
 1496HO4    HW1 5982   0.827   0.770   2.026
 1496HO4    HW2 5983   0.797   0.695   1.883
 1496HO4     MW 5984   0.775   0.775   1.940
 1497HO4     OW 5985   5.481   2.920   2.199
 1497HO4    HW1 5986   5.463   2.917   2.100
 1497HO4    HW2 5987   5.470   3.014   2.232
 1497HO4     MW 5988   5.481   2.920   2.199
 1498HO4     OW 5989   0.951   3.984   2.075
 1498HO4    HW1 5990   1.038   3.948   2.040
 1498HO4    HW2 5991   0.917   3.925   2.148
 1498HO4     MW 5992   0.951   3.984   2.075
 1499HO4     OW 5993   3.681   4.301   5.432
 1499HO4    HW1 5994   3.653   4.361   5.507
 1499HO4    HW2 5995   3.675   4.351   5.345
 1499HO4     MW 5996   3.681   4.301   5.432
 1500HO4     OW 5997   3.231   2.063   5.204
 1500HO4    HW1 5998   3.178   2.148   5.198
 1500HO4    HW2 5999   3.168   1.984   5.208
 1500HO4     MW 6000   3.231   2.063   5.204
 1501HO4     OW 6001   2.699   1.757   1.479
 1501HO4    HW1 6002   2.649   1.829   1.429
 1501HO4    HW2 6003   2.681   1.767   1.577
 1501HO4     MW 6004   2.699   1.757   1.479
 1502HO4     OW 6005   0.155   0.967   0.993
 1502HO4    HW1 6006   0.166   0.878   1.037
 1502HO4    HW2 6007   0.116   1.033   1.058
 1502HO4     MW 6008   0.155   0.967   0.993
 1503HO4     OW 6009   1.419   1.256   5.454
 1503HO4    HW1 6010   1.348   1.257   5.383
 1503HO4    HW2 6011   1.490   1.323   5.432
 1503HO4     MW 6012   1.419   1.256   5.454
 1504HO4     OW 6013   2.332   1.462   0.774
 1504HO4    HW1 6014   2.388   1.501   0.848
 1504HO4    HW2 6015   2.392   1.417   0.707
 1504HO4     MW 6016   2.332   1.462   0.774
 1505HO4     OW 6017   3.284   0.533   0.901
 1505HO4    HW1 6018   3.277   0.435   0.918
 1505HO4    HW2 6019   3.338   0.577   0.973
 1505HO4     MW 6020   3.284   0.533   0.901
 1506HO4     OW 6021   3.047   5.379   0.097
 1506HO4    HW1 6022   2.997   5.293   0.113
 1506HO4    HW2 6023   3.024   5.415   0.007
 1506HO4     MW 6024   3.047   5.379   0.097
 1507HO4     OW 6025   3.533   3.190   2.171
 1507HO4    HW1 6026   3.589   3.271   2.150
 1507HO4    HW2 6027   3.592   3.109   2.176
 1507HO4     MW 6028   3.533   3.190   2.171
 1508HO4     OW 6029   0.313   4.396   3.744
 1508HO4    HW1 6030   0.328   4.387   3.843
 1508HO4    HW2 6031   0.392   4.442   3.703
 1508HO4     MW 6032   0.313   4.396   3.744
 1509HO4     OW 6033   1.280   3.029   4.906
 1509HO4    HW1 6034   1.193   3.049   4.951
 1509HO4    HW2 6035   1.272   3.050   4.808
 1509HO4     MW 6036   1.280   3.029   4.906
 1510HO4     OW 6037   2.476   0.059   1.747
 1510HO4    HW1 6038   2.426   0.033   1.664
 1510HO4    HW2 6039   2.411   0.093   1.816
 1510HO4     MW 6040   2.476   0.059   1.747
 1511HO4     OW 6041   0.173   4.210   2.760
 1511HO4    HW1 6042   0.264   4.206   2.717
 1511HO4    HW2 6043   0.118   4.281   2.716
 1511HO4     MW 6044   0.173   4.210   2.760
 1512HO4     OW 6045   2.287   5.384   3.622
 1512HO4    HW1 6046   2.302   5.445   3.544
 1512HO4    HW2 6047   2.374   5.369   3.670
 1512HO4     MW 6048   2.287   5.384   3.622
 1513HO4     OW 6049   5.410   1.540   0.084
 1513HO4    HW1 6050   5.410   1.500  -0.008
 1513HO4    HW2 6051   5.444   1.635   0.080
 1513HO4     MW 6052   5.410   1.540   0.084
 1514HO4     OW 6053   0.219   5.342   1.886
 1514HO4    HW1 6054   0.253   5.421   1.939
 1514HO4    HW2 6055   0.218   5.366   1.788
 1514HO4     MW 6056   0.219   5.342   1.886
 1515HO4     OW 6057   2.126   1.843   2.215
 1515HO4    HW1 6058   2.106   1.816   2.121
 1515HO4    HW2 6059   2.101   1.940   2.228
 1515HO4     MW 6060   2.126   1.843   2.215
 1516HO4     OW 6061   1.246   3.499   4.064
 1516HO4    HW1 6062   1.183   3.471   3.991
 1516HO4    HW2 6063   1.193   3.529   4.144
 1516HO4     MW 6064   1.246   3.499   4.064
 1517HO4     OW 6065   4.482   0.264   0.906
 1517HO4    HW1 6066   4.543   0.288   0.982
 1517HO4    HW2 6067   4.535   0.218   0.834
 1517HO4     MW 6068   4.482   0.264   0.906
 1518HO4     OW 6069   2.764   3.929   3.661
 1518HO4    HW1 6070   2.799   3.890   3.575
 1518HO4    HW2 6071   2.759   4.029   3.652
 1518HO4     MW 6072   2.764   3.929   3.661
 1519HO4     OW 6073   0.967   4.181   1.801
 1519HO4    HW1 6074   0.926   4.151   1.714
 1519HO4    HW2 6075   0.983   4.280   1.798
 1519HO4     MW 6076   0.967   4.181   1.801
 1520HO4     OW 6077   4.561   4.961   3.973
 1520HO4    HW1 6078   4.612   5.027   3.917
 1520HO4    HW2 6079   4.505   4.903   3.914
 1520HO4     MW 6080   4.561   4.961   3.973
 1521HO4     OW 6081   5.215   1.232   1.292
 1521HO4    HW1 6082   5.205   1.183   1.379
 1521HO4    HW2 6083   5.284   1.187   1.236
 1521HO4     MW 6084   5.215   1.232   1.292
 1522HO4     OW 6085   1.193   0.869   5.428
 1522HO4    HW1 6086   1.197   0.855   5.527
 1522HO4    HW2 6087   1.220   0.785   5.380
 1522HO4     MW 6088   1.193   0.869   5.428
 1523HO4     OW 6089   4.064   4.414   3.157
 1523HO4    HW1 6090   3.965   4.399   3.168
 1523HO4    HW2 6091   4.093   4.488   3.219
 1523HO4     MW 6092   4.064   4.414   3.157
 1524HO4     OW 6093   0.008   3.349   3.695
 1524HO4    HW1 6094   0.065   3.322   3.773
 1524HO4    HW2 6095  -0.004   3.270   3.634
 1524HO4     MW 6096   0.008   3.349   3.695
 1525HO4     OW 6097   4.589   4.408   0.186
 1525HO4    HW1 6098   4.575   4.503   0.214
 1525HO4    HW2 6099   4.549   4.393   0.095
 1525HO4     MW 6100   4.589   4.408   0.186
 1526HO4     OW 6101   3.309   2.885   4.338
 1526HO4    HW1 6102   3.257   2.928   4.264
 1526HO4    HW2 6103   3.251   2.820   4.387
 1526HO4     MW 6104   3.309   2.885   4.338
 1527HO4     OW 6105   4.445   0.940   5.168
 1527HO4    HW1 6106   4.507   1.019   5.164
 1527HO4    HW2 6107   4.420   0.923   5.264
 1527HO4     MW 6108   4.445   0.940   5.168
 1528HO4     OW 6109   0.871   3.705   1.160
 1528HO4    HW1 6110   0.841   3.794   1.124
 1528HO4    HW2 6111   0.843   3.695   1.256
 1528HO4     MW 6112   0.871   3.705   1.160
 1529HO4     OW 6113   1.315   1.919   4.850
 1529HO4    HW1 6114   1.388   1.902   4.783
 1529HO4    HW2 6115   1.348   1.984   4.919
 1529HO4     MW 6116   1.315   1.919   4.850
 1530HO4     OW 6117   3.281   2.309   4.291
 1530HO4    HW1 6118   3.285   2.374   4.367
 1530HO4    HW2 6119   3.337   2.342   4.215
 1530HO4     MW 6120   3.281   2.309   4.291
 1531HO4     OW 6121   4.119   4.783   0.442
 1531HO4    HW1 6122   4.045   4.719   0.464
 1531HO4    HW2 6123   4.081   4.864   0.397
 1531HO4     MW 6124   4.119   4.783   0.442
 1532HO4     OW 6125   0.727   2.430   1.388
 1532HO4    HW1 6126   0.744   2.525   1.413
 1532HO4    HW2 6127   0.640   2.423   1.338
 1532HO4     MW 6128   0.727   2.430   1.388
 1533HO4     OW 6129   4.473   1.767   4.118
 1533HO4    HW1 6130   4.399   1.703   4.141
 1533HO4    HW2 6131   4.463   1.851   4.171
 1533HO4     MW 6132   4.473   1.767   4.118
 1534HO4     OW 6133   4.181   1.670   4.008
 1534HO4    HW1 6134   4.250   1.618   4.060
 1534HO4    HW2 6135   4.227   1.722   3.935
 1534HO4     MW 6136   4.181   1.670   4.008
 1535HO4     OW 6137   3.724   2.238   4.467
 1535HO4    HW1 6138   3.698   2.218   4.372
 1535HO4    HW2 6139   3.701   2.159   4.525
 1535HO4     MW 6140   3.724   2.238   4.467
 1536HO4     OW 6141   2.459   4.141   2.412
 1536HO4    HW1 6142   2.497   4.079   2.481
 1536HO4    HW2 6143   2.485   4.108   2.320
 1536HO4     MW 6144   2.459   4.141   2.412
 1537HO4     OW 6145   4.413   4.083   1.280
 1537HO4    HW1 6146   4.403   4.069   1.181
 1537HO4    HW2 6147   4.359   4.162   1.309
 1537HO4     MW 6148   4.413   4.083   1.280
 1538HO4     OW 6149   4.783   0.057   5.123
 1538HO4    HW1 6150   4.789   0.136   5.184
 1538HO4    HW2 6151   4.808   0.085   5.029
 1538HO4     MW 6152   4.783   0.057   5.123
 1539HO4     OW 6153   2.209   2.203   1.718
 1539HO4    HW1 6154   2.241   2.248   1.802
 1539HO4    HW2 6155   2.230   2.262   1.639
 1539HO4     MW 6156   2.209   2.203   1.718
 1540HO4     OW 6157   4.581   4.391   3.948
 1540HO4    HW1 6158   4.534   4.469   3.905
 1540HO4    HW2 6159   4.571   4.398   4.048
 1540HO4     MW 6160   4.581   4.391   3.948
 1541HO4     OW 6161   4.134   1.717   0.875
 1541HO4    HW1 6162   4.176   1.667   0.952
 1541HO4    HW2 6163   4.083   1.653   0.817
 1541HO4     MW 6164   4.134   1.717   0.875
 1542HO4     OW 6165   4.673   1.581   2.989
 1542HO4    HW1 6166   4.704   1.646   2.920
 1542HO4    HW2 6167   4.713   1.604   3.079
 1542HO4     MW 6168   4.673   1.581   2.989
 1543HO4     OW 6169   3.628   1.013   2.364
 1543HO4    HW1 6170   3.679   1.073   2.426
 1543HO4    HW2 6171   3.692   0.952   2.317
 1543HO4     MW 6172   3.628   1.013   2.364
 1544HO4     OW 6173   5.025   4.781   5.143
 1544HO4    HW1 6174   5.042   4.753   5.238
 1544HO4    HW2 6175   5.036   4.702   5.082
 1544HO4     MW 6176   5.025   4.781   5.143
 1545HO4     OW 6177   1.806   2.717   2.392
 1545HO4    HW1 6178   1.748   2.647   2.434
 1545HO4    HW2 6179   1.885   2.735   2.451
 1545HO4     MW 6180   1.806   2.717   2.392
 1546HO4     OW 6181   2.157   3.668   3.764
 1546HO4    HW1 6182   2.105   3.699   3.684
 1546HO4    HW2 6183   2.226   3.601   3.734
 1546HO4     MW 6184   2.157   3.668   3.764
 1547HO4     OW 6185   4.247   2.747   5.311
 1547HO4    HW1 6186   4.333   2.772   5.355
 1547HO4    HW2 6187   4.240   2.793   5.222
 1547HO4     MW 6188   4.247   2.747   5.311
 1548HO4     OW 6189   1.706   2.744   3.062
 1548HO4    HW1 6190   1.702   2.690   2.978
 1548HO4    HW2 6191   1.613   2.756   3.099
 1548HO4     MW 6192   1.706   2.744   3.062
 1549HO4     OW 6193   3.822   0.770   4.353
 1549HO4    HW1 6194   3.724   0.781   4.331
 1549HO4    HW2 6195   3.877   0.799   4.274
 1549HO4     MW 6196   3.822   0.770   4.353
 1550HO4     OW 6197   1.467   1.940   2.374
 1550HO4    HW1 6198   1.507   1.984   2.293
 1550HO4    HW2 6199   1.507   1.979   2.457
 1550HO4     MW 6200   1.467   1.940   2.374
 1551HO4     OW 6201   4.149   1.062   5.316
 1551HO4    HW1 6202   4.177   1.060   5.220
 1551HO4    HW2 6203   4.055   1.098   5.322
 1551HO4     MW 6204   4.149   1.062   5.316
 1552HO4     OW 6205   1.675   1.959   0.780
 1552HO4    HW1 6206   1.771   1.958   0.807
 1552HO4    HW2 6207   1.658   2.035   0.717
 1552HO4     MW 6208   1.675   1.959   0.780
 1553HO4     OW 6209   3.256   0.266   0.237
 1553HO4    HW1 6210   3.209   0.213   0.308
 1553HO4    HW2 6211   3.219   0.240   0.147
 1553HO4     MW 6212   3.256   0.266   0.237
 1554HO4     OW 6213   1.264   3.160   2.254
 1554HO4    HW1 6214   1.167   3.184   2.263
 1554HO4    HW2 6215   1.307   3.219   2.185
 1554HO4     MW 6216   1.264   3.160   2.254
 1555HO4     OW 6217   1.516   2.999   2.017
 1555HO4    HW1 6218   1.567   3.030   1.936
 1555HO4    HW2 6219   1.501   3.077   2.079
 1555HO4     MW 6220   1.516   2.999   2.017
 1556HO4     OW 6221   5.035   5.191   3.194
 1556HO4    HW1 6222   4.987   5.152   3.274
 1556HO4    HW2 6223   4.993   5.156   3.110
 1556HO4     MW 6224   5.035   5.191   3.194
 1557HO4     OW 6225   3.855   4.237   2.170
 1557HO4    HW1 6226   3.913   4.228   2.252
 1557HO4    HW2 6227   3.910   4.270   2.093
 1557HO4     MW 6228   3.855   4.237   2.170
 1558HO4     OW 6229   3.695   3.383   0.956
 1558HO4    HW1 6230   3.651   3.381   0.866
 1558HO4    HW2 6231   3.778   3.440   0.952
 1558HO4     MW 6232   3.695   3.383   0.956
 1559HO4     OW 6233   3.649   4.501   1.357
 1559HO4    HW1 6234   3.668   4.598   1.342
 1559HO4    HW2 6235   3.644   4.483   1.456
 1559HO4     MW 6236   3.649   4.501   1.357
 1560HO4     OW 6237   5.388   0.527   3.446
 1560HO4    HW1 6238   5.351   0.487   3.530
 1560HO4    HW2 6239   5.348   0.482   3.366
 1560HO4     MW 6240   5.388   0.527   3.446
 1561HO4     OW 6241   2.787   4.117   0.585
 1561HO4    HW1 6242   2.830   4.116   0.494
 1561HO4    HW2 6243   2.715   4.047   0.589
 1561HO4     MW 6244   2.787   4.117   0.585
 1562HO4     OW 6245   2.030   3.930   0.810
 1562HO4    HW1 6246   1.931   3.944   0.809
 1562HO4    HW2 6247   2.055   3.872   0.888
 1562HO4     MW 6248   2.030   3.930   0.810
 1563HO4     OW 6249   3.635   0.178   4.462
 1563HO4    HW1 6250   3.583   0.220   4.537
 1563HO4    HW2 6251   3.588   0.194   4.375
 1563HO4     MW 6252   3.635   0.178   4.462
 1564HO4     OW 6253   0.212   5.421   4.612
 1564HO4    HW1 6254   0.207   5.378   4.703
 1564HO4    HW2 6255   0.308   5.440   4.589
 1564HO4     MW 6256   0.212   5.421   4.612
 1565HO4     OW 6257   0.449   3.184   2.620
 1565HO4    HW1 6258   0.546   3.174   2.593
 1565HO4    HW2 6259   0.441   3.178   2.720
 1565HO4     MW 6260   0.449   3.184   2.620
 1566HO4     OW 6261   1.896   2.022   1.020
 1566HO4    HW1 6262   1.994   2.038   1.039
 1566HO4    HW2 6263   1.870   2.072   0.937
 1566HO4     MW 6264   1.896   2.022   1.020
 1567HO4     OW 6265   1.041   2.796   3.585
 1567HO4    HW1 6266   1.072   2.827   3.494
 1567HO4    HW2 6267   1.053   2.871   3.651
 1567HO4     MW 6268   1.041   2.796   3.585
 1568HO4     OW 6269   5.292   2.618   2.852
 1568HO4    HW1 6270   5.292   2.718   2.848
 1568HO4    HW2 6271   5.371   2.582   2.801
 1568HO4     MW 6272   5.292   2.618   2.852
 1569HO4     OW 6273   5.148   4.322   3.598
 1569HO4    HW1 6274   5.154   4.421   3.614
 1569HO4    HW2 6275   5.115   4.304   3.505
 1569HO4     MW 6276   5.148   4.322   3.598
 1570HO4     OW 6277   2.739   3.128   0.087
 1570HO4    HW1 6278   2.705   3.212   0.130
 1570HO4    HW2 6279   2.838   3.137   0.071
 1570HO4     MW 6280   2.739   3.128   0.087
 1571HO4     OW 6281   3.423   5.098   2.412
 1571HO4    HW1 6282   3.364   5.018   2.428
 1571HO4    HW2 6283   3.415   5.126   2.316
 1571HO4     MW 6284   3.423   5.098   2.412
 1572HO4     OW 6285   1.521   3.898   1.257
 1572HO4    HW1 6286   1.489   3.888   1.352
 1572HO4    HW2 6287   1.451   3.862   1.195
 1572HO4     MW 6288   1.521   3.898   1.257
 1573HO4     OW 6289   4.254   2.981   0.556
 1573HO4    HW1 6290   4.297   2.997   0.467
 1573HO4    HW2 6291   4.319   3.006   0.629
 1573HO4     MW 6292   4.254   2.981   0.556
 1574HO4     OW 6293   0.233   4.878   5.092
 1574HO4    HW1 6294   0.202   4.937   5.167
 1574HO4    HW2 6295   0.290   4.804   5.130
 1574HO4     MW 6296   0.233   4.878   5.092
 1575HO4     OW 6297   0.002   1.968   3.015
 1575HO4    HW1 6298   0.027   1.999   2.922
 1575HO4    HW2 6299   0.071   2.001   3.080
 1575HO4     MW 6300   0.002   1.968   3.015
 1576HO4     OW 6301   4.633   1.065   3.517
 1576HO4    HW1 6302   4.631   1.016   3.429
 1576HO4    HW2 6303   4.547   1.116   3.528
 1576HO4     MW 6304   4.633   1.065   3.517
 1577HO4     OW 6305   0.900   1.923   2.953
 1577HO4    HW1 6306   0.861   1.881   2.871
 1577HO4    HW2 6307   0.861   1.880   3.035
 1577HO4     MW 6308   0.900   1.923   2.953
 1578HO4     OW 6309   0.640   4.680   1.701
 1578HO4    HW1 6310   0.633   4.777   1.725
 1578HO4    HW2 6311   0.635   4.670   1.601
 1578HO4     MW 6312   0.640   4.680   1.701
 1579HO4     OW 6313   0.164   2.554   1.175
 1579HO4    HW1 6314   0.145   2.538   1.078
 1579HO4    HW2 6315   0.080   2.541   1.228
 1579HO4     MW 6316   0.164   2.554   1.175
 1580HO4     OW 6317   1.192   5.417   2.159
 1580HO4    HW1 6318   1.172   5.511   2.188
 1580HO4    HW2 6319   1.150   5.352   2.224
 1580HO4     MW 6320   1.192   5.417   2.159
 1581HO4     OW 6321   2.759   4.372   4.720
 1581HO4    HW1 6322   2.798   4.404   4.633
 1581HO4    HW2 6323   2.794   4.429   4.795
 1581HO4     MW 6324   2.759   4.372   4.720
 1582HO4     OW 6325   2.055   0.559   3.975
 1582HO4    HW1 6326   2.112   0.627   4.022
 1582HO4    HW2 6327   1.958   0.577   3.996
 1582HO4     MW 6328   2.055   0.559   3.975
 1583HO4     OW 6329   1.959   0.578   4.388
 1583HO4    HW1 6330   1.975   0.632   4.305
 1583HO4    HW2 6331   1.968   0.637   4.468
 1583HO4     MW 6332   1.959   0.578   4.388
 1584HO4     OW 6333   1.295   2.310   4.177
 1584HO4    HW1 6334   1.235   2.386   4.147
 1584HO4    HW2 6335   1.243   2.250   4.238
 1584HO4     MW 6336   1.295   2.310   4.177
 1585HO4     OW 6337   0.497   0.888   1.509
 1585HO4    HW1 6338   0.398   0.903   1.521
 1585HO4    HW2 6339   0.516   0.862   1.414
 1585HO4     MW 6340   0.497   0.888   1.509
 1586HO4     OW 6341   3.692   2.116   2.976
 1586HO4    HW1 6342   3.771   2.058   2.998
 1586HO4    HW2 6343   3.710   2.169   2.893
 1586HO4     MW 6344   3.692   2.116   2.976
 1587HO4     OW 6345   5.023   3.284   0.523
 1587HO4    HW1 6346   4.965   3.285   0.604
 1587HO4    HW2 6347   4.965   3.283   0.440
 1587HO4     MW 6348   5.023   3.284   0.523
 1588HO4     OW 6349   5.341   3.780   2.850
 1588HO4    HW1 6350   5.393   3.782   2.764
 1588HO4    HW2 6351   5.403   3.798   2.927
 1588HO4     MW 6352   5.341   3.780   2.850
 1589HO4     OW 6353   4.964   5.000   1.736
 1589HO4    HW1 6354   5.024   5.022   1.659
 1589HO4    HW2 6355   4.903   4.924   1.710
 1589HO4     MW 6356   4.964   5.000   1.736
 1590HO4     OW 6357   4.429   4.426   1.200
 1590HO4    HW1 6358   4.497   4.461   1.135
 1590HO4    HW2 6359   4.468   4.425   1.293
 1590HO4     MW 6360   4.429   4.426   1.200
 1591HO4     OW 6361   1.155   4.028   2.497
 1591HO4    HW1 6362   1.244   4.015   2.541
 1591HO4    HW2 6363   1.114   3.938   2.478
 1591HO4     MW 6364   1.155   4.028   2.497
 1592HO4     OW 6365   4.279   5.406   3.261
 1592HO4    HW1 6366   4.313   5.321   3.304
 1592HO4    HW2 6367   4.193   5.433   3.305
 1592HO4     MW 6368   4.279   5.406   3.261
 1593HO4     OW 6369   5.028   5.303   2.286
 1593HO4    HW1 6370   5.069   5.318   2.196
 1593HO4    HW2 6371   5.099   5.310   2.357
 1593HO4     MW 6372   5.028   5.303   2.286
 1594HO4     OW 6373   4.857   5.377   2.399
 1594HO4    HW1 6374   4.803   5.387   2.315
 1594HO4    HW2 6375   4.798   5.392   2.479
 1594HO4     MW 6376   4.857   5.377   2.399
 1595HO4     OW 6377   4.357   3.975   0.219
 1595HO4    HW1 6378   4.381   3.951   0.313
 1595HO4    HW2 6379   4.353   3.892   0.163
 1595HO4     MW 6380   4.357   3.975   0.219
 1596HO4     OW 6381   4.385   0.397   2.076
 1596HO4    HW1 6382   4.403   0.416   1.979
 1596HO4    HW2 6383   4.339   0.476   2.118
 1596HO4     MW 6384   4.385   0.397   2.076
 1597HO4     OW 6385   3.747   3.707   2.934
 1597HO4    HW1 6386   3.764   3.692   2.836
 1597HO4    HW2 6387   3.807   3.647   2.988
 1597HO4     MW 6388   3.747   3.707   2.934
 1598HO4     OW 6389   4.753   4.584   3.320
 1598HO4    HW1 6390   4.779   4.675   3.286
 1598HO4    HW2 6391   4.745   4.588   3.420
 1598HO4     MW 6392   4.753   4.584   3.320
 1599HO4     OW 6393   5.280   1.118   2.002
 1599HO4    HW1 6394   5.362   1.134   2.057
 1599HO4    HW2 6395   5.283   1.026   1.962
 1599HO4     MW 6396   5.280   1.118   2.002
 1600HO4     OW 6397   3.603   1.860   1.618
 1600HO4    HW1 6398   3.693   1.896   1.589
 1600HO4    HW2 6399   3.599   1.762   1.597
 1600HO4     MW 6400   3.603   1.860   1.618
 1601HO4     OW 6401   4.240   2.618   4.982
 1601HO4    HW1 6402   4.224   2.685   5.056
 1601HO4    HW2 6403   4.214   2.659   4.894
 1601HO4     MW 6404   4.240   2.618   4.982
 1602HO4     OW 6405   4.230   5.145   3.912
 1602HO4    HW1 6406   4.317   5.175   3.953
 1602HO4    HW2 6407   4.249   5.086   3.832
 1602HO4     MW 6408   4.230   5.145   3.912
 1603HO4     OW 6409   2.610   0.332   0.286
 1603HO4    HW1 6410   2.556   0.305   0.366
 1603HO4    HW2 6411   2.556   0.318   0.203
 1603HO4     MW 6412   2.610   0.332   0.286
 1604HO4     OW 6413   5.299   0.089   0.675
 1604HO4    HW1 6414   5.245   0.026   0.732
 1604HO4    HW2 6415   5.300   0.055   0.580
 1604HO4     MW 6416   5.299   0.089   0.675
 1605HO4     OW 6417   2.246   5.412   2.303
 1605HO4    HW1 6418   2.183   5.398   2.226
 1605HO4    HW2 6419   2.224   5.498   2.349
 1605HO4     MW 6420   2.246   5.412   2.303
 1606HO4     OW 6421   2.920   3.864   4.267
 1606HO4    HW1 6422   2.922   3.764   4.273
 1606HO4    HW2 6423   3.002   3.898   4.221
 1606HO4     MW 6424   2.920   3.864   4.267
 1607HO4     OW 6425   0.536   4.918   5.412
 1607HO4    HW1 6426   0.486   4.987   5.466
 1607HO4    HW2 6427   0.537   4.946   5.316
 1607HO4     MW 6428   0.536   4.918   5.412
 1608HO4     OW 6429   1.008   4.846   0.193
 1608HO4    HW1 6430   1.008   4.813   0.287
 1608HO4    HW2 6431   1.078   4.797   0.140
 1608HO4     MW 6432   1.008   4.846   0.193
 1609HO4     OW 6433   4.041   4.372   4.898
 1609HO4    HW1 6434   4.079   4.388   4.990
 1609HO4    HW2 6435   4.105   4.406   4.829
 1609HO4     MW 6436   4.041   4.372   4.898
 1610HO4     OW 6437   3.449   0.882   5.211
 1610HO4    HW1 6438   3.355   0.902   5.183
 1610HO4    HW2 6439   3.512   0.946   5.165
 1610HO4     MW 6440   3.449   0.882   5.211
 1611HO4     OW 6441   0.336   2.836   2.980
 1611HO4    HW1 6442   0.381   2.803   2.896
 1611HO4    HW2 6443   0.350   2.771   3.054
 1611HO4     MW 6444   0.336   2.836   2.980
 1612HO4     OW 6445   3.721   4.706   5.071
 1612HO4    HW1 6446   3.684   4.662   4.989
 1612HO4    HW2 6447   3.692   4.802   5.074
 1612HO4     MW 6448   3.721   4.706   5.071
 1613HO4     OW 6449   4.206   1.400   3.252
 1613HO4    HW1 6450   4.109   1.420   3.235
 1613HO4    HW2 6451   4.214   1.309   3.294
 1613HO4     MW 6452   4.206   1.400   3.252
 1614HO4     OW 6453   0.405   4.708   1.351
 1614HO4    HW1 6454   0.493   4.662   1.341
 1614HO4    HW2 6455   0.416   4.791   1.407
 1614HO4     MW 6456   0.405   4.708   1.351
 1615HO4     OW 6457   4.592   3.880   0.355
 1615HO4    HW1 6458   4.538   3.908   0.435
 1615HO4    HW2 6459   4.532   3.838   0.287
 1615HO4     MW 6460   4.592   3.880   0.355
 1616HO4     OW 6461   3.255   0.584   0.279
 1616HO4    HW1 6462   3.248   0.488   0.252
 1616HO4    HW2 6463   3.260   0.591   0.379
 1616HO4     MW 6464   3.255   0.584   0.279
 1617HO4     OW 6465   3.224   2.358   5.259
 1617HO4    HW1 6466   3.255   2.446   5.222
 1617HO4    HW2 6467   3.293   2.322   5.322
 1617HO4     MW 6468   3.224   2.358   5.259
 1618HO4     OW 6469   5.070   3.364   2.804
 1618HO4    HW1 6470   5.054   3.461   2.784
 1618HO4    HW2 6471   5.168   3.349   2.820
 1618HO4     MW 6472   5.070   3.364   2.804
 1619HO4     OW 6473   2.168   5.218   2.546
 1619HO4    HW1 6474   2.223   5.139   2.518
 1619HO4    HW2 6475   2.081   5.218   2.496
 1619HO4     MW 6476   2.168   5.218   2.546
 1620HO4     OW 6477   0.922   2.432   2.543
 1620HO4    HW1 6478   0.934   2.529   2.566
 1620HO4    HW2 6479   0.826   2.406   2.558
 1620HO4     MW 6480   0.922   2.432   2.543
 1621HO4     OW 6481   1.337   1.587   1.980
 1621HO4    HW1 6482   1.379   1.506   2.022
 1621HO4    HW2 6483   1.313   1.568   1.885
 1621HO4     MW 6484   1.337   1.587   1.980
 1622HO4     OW 6485   5.140   4.581   0.421
 1622HO4    HW1 6486   5.209   4.613   0.356
 1622HO4    HW2 6487   5.185   4.539   0.500
 1622HO4     MW 6488   5.140   4.581   0.421
 1623HO4     OW 6489   0.213   3.554   1.234
 1623HO4    HW1 6490   0.218   3.601   1.145
 1623HO4    HW2 6491   0.259   3.609   1.304
 1623HO4     MW 6492   0.213   3.554   1.234
 1624HO4     OW 6493   1.100   0.264   4.270
 1624HO4    HW1 6494   1.016   0.307   4.238
 1624HO4    HW2 6495   1.139   0.318   4.345
 1624HO4     MW 6496   1.100   0.264   4.270
 1625HO4     OW 6497   1.371   1.631   2.800
 1625HO4    HW1 6498   1.403   1.676   2.884
 1625HO4    HW2 6499   1.423   1.666   2.721
 1625HO4     MW 6500   1.371   1.631   2.800
 1626HO4     OW 6501   0.284   4.750   3.704
 1626HO4    HW1 6502   0.336   4.801   3.774
 1626HO4    HW2 6503   0.290   4.798   3.616
 1626HO4     MW 6504   0.284   4.750   3.704
 1627HO4     OW 6505   1.335   3.657   3.101
 1627HO4    HW1 6506   1.246   3.671   3.147
 1627HO4    HW2 6507   1.408   3.657   3.170
 1627HO4     MW 6508   1.335   3.657   3.101
 1628HO4     OW 6509   5.094   1.110   2.974
 1628HO4    HW1 6510   5.138   1.089   3.061
 1628HO4    HW2 6511   5.012   1.053   2.963
 1628HO4     MW 6512   5.094   1.110   2.974
 1629HO4     OW 6513   2.883   2.001   2.221
 1629HO4    HW1 6514   2.806   1.954   2.177
 1629HO4    HW2 6515   2.944   1.933   2.264
 1629HO4     MW 6516   2.883   2.001   2.221
 1630HO4     OW 6517   3.608   4.852   4.688
 1630HO4    HW1 6518   3.656   4.913   4.624
 1630HO4    HW2 6519   3.536   4.903   4.735
 1630HO4     MW 6520   3.608   4.852   4.688
 1631HO4     OW 6521   4.752   0.914   4.523
 1631HO4    HW1 6522   4.805   0.909   4.608
 1631HO4    HW2 6523   4.814   0.925   4.445
 1631HO4     MW 6524   4.752   0.914   4.523
 1632HO4     OW 6525   0.035   2.159   4.485
 1632HO4    HW1 6526   0.034   2.172   4.385
 1632HO4    HW2 6527   0.088   2.077   4.508
 1632HO4     MW 6528   0.035   2.159   4.485
 1633HO4     OW 6529   2.613   1.855   4.799
 1633HO4    HW1 6530   2.665   1.909   4.732
 1633HO4    HW2 6531   2.674   1.821   4.871
 1633HO4     MW 6532   2.613   1.855   4.799
 1634HO4     OW 6533   1.559   2.118   0.512
 1634HO4    HW1 6534   1.604   2.101   0.424
 1634HO4    HW2 6535   1.622   2.098   0.587
 1634HO4     MW 6536   1.559   2.118   0.512
 1635HO4     OW 6537   3.260   2.066   5.429
 1635HO4    HW1 6538   3.338   2.028   5.379
 1635HO4    HW2 6539   3.292   2.137   5.492
 1635HO4     MW 6540   3.260   2.066   5.429
 1636HO4     OW 6541   2.190   0.754   3.233
 1636HO4    HW1 6542   2.150   0.666   3.260
 1636HO4    HW2 6543   2.255   0.740   3.157
 1636HO4     MW 6544   2.190   0.754   3.233
 1637HO4     OW 6545   1.419   4.528   1.342
 1637HO4    HW1 6546   1.401   4.619   1.304
 1637HO4    HW2 6547   1.461   4.470   1.272
 1637HO4     MW 6548   1.419   4.528   1.342
 1638HO4     OW 6549   3.833   4.821   2.695
 1638HO4    HW1 6550   3.889   4.835   2.612
 1638HO4    HW2 6551   3.886   4.850   2.775
 1638HO4     MW 6552   3.833   4.821   2.695
 1639HO4     OW 6553   3.292   0.506   0.029
 1639HO4    HW1 6554   3.357   0.452   0.084
 1639HO4    HW2 6555   3.306   0.485  -0.068
 1639HO4     MW 6556   3.292   0.506   0.029
 1640HO4     OW 6557   1.613   3.637   0.672
 1640HO4    HW1 6558   1.630   3.685   0.759
 1640HO4    HW2 6559   1.629   3.700   0.595
 1640HO4     MW 6560   1.613   3.637   0.672
 1641HO4     OW 6561   4.930   2.670   2.217
 1641HO4    HW1 6562   4.834   2.652   2.241
 1641HO4    HW2 6563   4.977   2.582   2.201
 1641HO4     MW 6564   4.930   2.670   2.217
 1642HO4     OW 6565   0.091   0.397   3.574
 1642HO4    HW1 6566   0.041   0.445   3.647
 1642HO4    HW2 6567   0.089   0.453   3.491
 1642HO4     MW 6568   0.091   0.397   3.574
 1643HO4     OW 6569   5.343   5.213   5.431
 1643HO4    HW1 6570   5.306   5.177   5.517
 1643HO4    HW2 6571   5.268   5.241   5.371
 1643HO4     MW 6572   5.343   5.213   5.431
 1644HO4     OW 6573   1.769   1.403   3.163
 1644HO4    HW1 6574   1.709   1.408   3.083
 1644HO4    HW2 6575   1.821   1.317   3.161
 1644HO4     MW 6576   1.769   1.403   3.163
 1645HO4     OW 6577   1.396   1.089   1.046
 1645HO4    HW1 6578   1.338   1.051   0.974
 1645HO4    HW2 6579   1.348   1.087   1.134
 1645HO4     MW 6580   1.396   1.089   1.046
 1646HO4     OW 6581   2.033   2.305   2.959
 1646HO4    HW1 6582   1.978   2.380   2.996
 1646HO4    HW2 6583   2.129   2.316   2.988
 1646HO4     MW 6584   2.033   2.305   2.959
 1647HO4     OW 6585   5.179   5.069   1.172
 1647HO4    HW1 6586   5.085   5.051   1.200
 1647HO4    HW2 6587   5.179   5.131   1.093
 1647HO4     MW 6588   5.179   5.069   1.172
 1648HO4     OW 6589   4.632   2.882   0.631
 1648HO4    HW1 6590   4.612   2.828   0.549
 1648HO4    HW2 6591   4.633   2.823   0.712
 1648HO4     MW 6592   4.632   2.882   0.631
 1649HO4     OW 6593   4.942   3.775   4.105
 1649HO4    HW1 6594   5.031   3.728   4.099
 1649HO4    HW2 6595   4.942   3.835   4.186
 1649HO4     MW 6596   4.942   3.775   4.105
 1650HO4     OW 6597   0.387   0.220   0.259
 1650HO4    HW1 6598   0.369   0.318   0.277
 1650HO4    HW2 6599   0.382   0.169   0.346
 1650HO4     MW 6600   0.387   0.220   0.259
 1651HO4     OW 6601   5.160   5.416   0.074
 1651HO4    HW1 6602   5.155   5.358   0.155
 1651HO4    HW2 6603   5.112   5.503   0.092
 1651HO4     MW 6604   5.160   5.416   0.074
 1652HO4     OW 6605   5.261   4.329   3.953
 1652HO4    HW1 6606   5.224   4.415   3.916
 1652HO4    HW2 6607   5.269   4.336   4.052
 1652HO4     MW 6608   5.261   4.329   3.953
 1653HO4     OW 6609   5.022   1.444   0.002
 1653HO4    HW1 6610   4.956   1.421   0.075
 1653HO4    HW2 6611   5.098   1.497   0.041
 1653HO4     MW 6612   5.022   1.444   0.002
 1654HO4     OW 6613   4.345   2.134   4.691
 1654HO4    HW1 6614   4.388   2.090   4.612
 1654HO4    HW2 6615   4.301   2.065   4.748
 1654HO4     MW 6616   4.345   2.134   4.691
 1655HO4     OW 6617   1.201   2.350   3.891
 1655HO4    HW1 6618   1.203   2.403   3.976
 1655HO4    HW2 6619   1.267   2.389   3.826
 1655HO4     MW 6620   1.201   2.350   3.891
 1656HO4     OW 6621   3.729   4.921   3.199
 1656HO4    HW1 6622   3.630   4.931   3.187
 1656HO4    HW2 6623   3.754   4.945   3.293
 1656HO4     MW 6624   3.729   4.921   3.199
 1657HO4     OW 6625   4.611   1.722   0.169
 1657HO4    HW1 6626   4.616   1.775   0.254
 1657HO4    HW2 6627   4.681   1.650   0.170
 1657HO4     MW 6628   4.611   1.722   0.169
 1658HO4     OW 6629   3.161   1.846   2.791
 1658HO4    HW1 6630   3.161   1.861   2.691
 1658HO4    HW2 6631   3.159   1.935   2.837
 1658HO4     MW 6632   3.161   1.846   2.791
 1659HO4     OW 6633   4.246   1.770   3.096
 1659HO4    HW1 6634   4.205   1.734   3.012
 1659HO4    HW2 6635   4.184   1.837   3.138
 1659HO4     MW 6636   4.246   1.770   3.096
 1660HO4     OW 6637   0.775   1.988   5.334
 1660HO4    HW1 6638   0.862   1.945   5.309
 1660HO4    HW2 6639   0.760   1.981   5.433
 1660HO4     MW 6640   0.775   1.988   5.334
 1661HO4     OW 6641   3.346   2.682   2.436
 1661HO4    HW1 6642   3.336   2.663   2.337
 1661HO4    HW2 6643   3.443   2.690   2.459
 1661HO4     MW 6644   3.346   2.682   2.436
 1662HO4     OW 6645   3.190   2.545   5.400
 1662HO4    HW1 6646   3.231   2.596   5.324
 1662HO4    HW2 6647   3.133   2.471   5.363
 1662HO4     MW 6648   3.190   2.545   5.400
 1663HO4     OW 6649   5.132   1.825   3.059
 1663HO4    HW1 6650   5.170   1.825   2.966
 1663HO4    HW2 6651   5.034   1.847   3.056
 1663HO4     MW 6652   5.132   1.825   3.059
 1664HO4     OW 6653   5.427   3.377   5.184
 1664HO4    HW1 6654   5.411   3.286   5.224
 1664HO4    HW2 6655   5.520   3.407   5.205
 1664HO4     MW 6656   5.427   3.377   5.184
 1665HO4     OW 6657   2.239   5.087   3.442
 1665HO4    HW1 6658   2.301   5.064   3.365
 1665HO4    HW2 6659   2.257   5.024   3.518
 1665HO4     MW 6660   2.239   5.087   3.442
 1666HO4     OW 6661   5.479   5.034   3.067
 1666HO4    HW1 6662   5.440   4.981   3.143
 1666HO4    HW2 6663   5.431   5.011   2.982
 1666HO4     MW 6664   5.479   5.034   3.067
 1667HO4     OW 6665   2.965   4.053   2.140
 1667HO4    HW1 6666   2.915   4.136   2.165
 1667HO4    HW2 6667   2.952   4.034   2.042
 1667HO4     MW 6668   2.965   4.053   2.140
 1668HO4     OW 6669   2.101   2.187   2.748
 1668HO4    HW1 6670   2.003   2.207   2.755
 1668HO4    HW2 6671   2.142   2.242   2.674
 1668HO4     MW 6672   2.101   2.187   2.748
 1669HO4     OW 6673   2.915   0.006   0.855
 1669HO4    HW1 6674   2.978   0.065   0.804
 1669HO4    HW2 6675   2.932   0.015   0.954
 1669HO4     MW 6676   2.915   0.006   0.855
 1670HO4     OW 6677   4.239   5.144   1.022
 1670HO4    HW1 6678   4.300   5.086   1.077
 1670HO4    HW2 6679   4.156   5.164   1.074
 1670HO4     MW 6680   4.239   5.144   1.022
 1671HO4     OW 6681   1.810   3.638   2.673
 1671HO4    HW1 6682   1.866   3.628   2.591
 1671HO4    HW2 6683   1.712   3.638   2.648
 1671HO4     MW 6684   1.810   3.638   2.673
 1672HO4     OW 6685   3.106   0.204   4.367
 1672HO4    HW1 6686   3.063   0.116   4.385
 1672HO4    HW2 6687   3.164   0.198   4.285
 1672HO4     MW 6688   3.106   0.204   4.367
 1673HO4     OW 6689   2.485   2.162   1.986
 1673HO4    HW1 6690   2.456   2.209   2.069
 1673HO4    HW2 6691   2.417   2.176   1.913
 1673HO4     MW 6692   2.485   2.162   1.986
 1674HO4     OW 6693   1.798   4.445   3.335
 1674HO4    HW1 6694   1.844   4.388   3.266
 1674HO4    HW2 6695   1.849   4.443   3.421
 1674HO4     MW 6696   1.798   4.445   3.335
 1675HO4     OW 6697   2.212   4.729   0.510
 1675HO4    HW1 6698   2.230   4.676   0.593
 1675HO4    HW2 6699   2.230   4.672   0.430
 1675HO4     MW 6700   2.212   4.729   0.510
 1676HO4     OW 6701   1.414   1.589   0.657
 1676HO4    HW1 6702   1.416   1.689   0.672
 1676HO4    HW2 6703   1.349   1.547   0.721
 1676HO4     MW 6704   1.414   1.589   0.657
 1677HO4     OW 6705   1.305   4.608   5.453
 1677HO4    HW1 6706   1.229   4.543   5.447
 1677HO4    HW2 6707   1.342   4.608   5.546
 1677HO4     MW 6708   1.305   4.608   5.453
 1678HO4     OW 6709   0.094   1.973   4.777
 1678HO4    HW1 6710   0.130   1.975   4.684
 1678HO4    HW2 6711   0.166   1.945   4.841
 1678HO4     MW 6712   0.094   1.973   4.777
 1679HO4     OW 6713   2.378   3.562   0.835
 1679HO4    HW1 6714   2.313   3.494   0.801
 1679HO4    HW2 6715   2.460   3.562   0.777
 1679HO4     MW 6716   2.378   3.562   0.835
 1680HO4     OW 6717   3.161   1.135   0.694
 1680HO4    HW1 6718   3.235   1.071   0.714
 1680HO4    HW2 6719   3.073   1.093   0.717
 1680HO4     MW 6720   3.161   1.135   0.694
 1681HO4     OW 6721   0.385   0.192   2.480
 1681HO4    HW1 6722   0.434   0.137   2.412
 1681HO4    HW2 6723   0.410   0.162   2.572
 1681HO4     MW 6724   0.385   0.192   2.480
 1682HO4     OW 6725   4.453   2.515   2.470
 1682HO4    HW1 6726   4.451   2.434   2.529
 1682HO4    HW2 6727   4.514   2.584   2.509
 1682HO4     MW 6728   4.453   2.515   2.470
 1683HO4     OW 6729   4.260   4.260   4.427
 1683HO4    HW1 6730   4.169   4.262   4.469
 1683HO4    HW2 6731   4.321   4.202   4.481
 1683HO4     MW 6732   4.260   4.260   4.427
 1684HO4     OW 6733   0.563   0.290   2.731
 1684HO4    HW1 6734   0.621   0.298   2.650
 1684HO4    HW2 6735   0.610   0.331   2.810
 1684HO4     MW 6736   0.563   0.290   2.731
 1685HO4     OW 6737   4.613   2.905   0.350
 1685HO4    HW1 6738   4.643   2.940   0.261
 1685HO4    HW2 6739   4.522   2.941   0.371
 1685HO4     MW 6740   4.613   2.905   0.350
 1686HO4     OW 6741   0.874   3.572   5.145
 1686HO4    HW1 6742   0.931   3.643   5.188
 1686HO4    HW2 6743   0.859   3.594   5.048
 1686HO4     MW 6744   0.874   3.572   5.145
 1687HO4     OW 6745   2.977   4.196   0.727
 1687HO4    HW1 6746   3.014   4.255   0.655
 1687HO4    HW2 6747   2.997   4.237   0.817
 1687HO4     MW 6748   2.977   4.196   0.727
 1688HO4     OW 6749   0.303   1.961   3.988
 1688HO4    HW1 6750   0.334   1.877   3.943
 1688HO4    HW2 6751   0.373   2.032   3.979
 1688HO4     MW 6752   0.303   1.961   3.988
 1689HO4     OW 6753   0.202   0.815   4.441
 1689HO4    HW1 6754   0.159   0.899   4.407
 1689HO4    HW2 6755   0.230   0.827   4.536
 1689HO4     MW 6756   0.202   0.815   4.441
 1690HO4     OW 6757   0.826   0.817   0.820
 1690HO4    HW1 6758   0.852   0.751   0.749
 1690HO4    HW2 6759   0.887   0.808   0.899
 1690HO4     MW 6760   0.826   0.817   0.820
 1691HO4     OW 6761   1.342   4.886   2.014
 1691HO4    HW1 6762   1.276   4.842   2.077
 1691HO4    HW2 6763   1.317   4.865   1.919
 1691HO4     MW 6764   1.342   4.886   2.014
 1692HO4     OW 6765   4.264   3.833   4.134
 1692HO4    HW1 6766   4.224   3.863   4.047
 1692HO4    HW2 6767   4.364   3.844   4.131
 1692HO4     MW 6768   4.264   3.833   4.134
 1693HO4     OW 6769   3.094   5.033   4.250
 1693HO4    HW1 6770   3.013   4.976   4.237
 1693HO4    HW2 6771   3.143   5.003   4.332
 1693HO4     MW 6772   3.094   5.033   4.250
 1694HO4     OW 6773   4.527   0.310   4.640
 1694HO4    HW1 6774   4.514   0.218   4.679
 1694HO4    HW2 6775   4.485   0.378   4.701
 1694HO4     MW 6776   4.527   0.310   4.640
 1695HO4     OW 6777   0.754   4.435   2.756
 1695HO4    HW1 6778   0.767   4.501   2.682
 1695HO4    HW2 6779   0.774   4.478   2.844
 1695HO4     MW 6780   0.754   4.435   2.756
 1696HO4     OW 6781   1.860   0.538   5.278
 1696HO4    HW1 6782   1.770   0.581   5.284
 1696HO4    HW2 6783   1.874   0.500   5.186
 1696HO4     MW 6784   1.860   0.538   5.278
 1697HO4     OW 6785   1.135   4.145   3.802
 1697HO4    HW1 6786   1.125   4.206   3.881
 1697HO4    HW2 6787   1.215   4.086   3.815
 1697HO4     MW 6788   1.135   4.145   3.802
 1698HO4     OW 6789   3.514   3.402   2.548
 1698HO4    HW1 6790   3.472   3.491   2.526
 1698HO4    HW2 6791   3.611   3.404   2.521
 1698HO4     MW 6792   3.514   3.402   2.548
 1699HO4     OW 6793   2.639   4.650   3.011
 1699HO4    HW1 6794   2.737   4.643   2.989
 1699HO4    HW2 6795   2.598   4.558   3.005
 1699HO4     MW 6796   2.639   4.650   3.011
 1700HO4     OW 6797   2.810   0.412   3.230
 1700HO4    HW1 6798   2.847   0.416   3.323
 1700HO4    HW2 6799   2.759   0.497   3.211
 1700HO4     MW 6800   2.810   0.412   3.230
 1701HO4     OW 6801   5.443   3.094   4.437
 1701HO4    HW1 6802   5.427   3.191   4.458
 1701HO4    HW2 6803   5.402   3.073   4.348
 1701HO4     MW 6804   5.443   3.094   4.437
 1702HO4     OW 6805   0.153   2.063   0.319
 1702HO4    HW1 6806   0.197   2.065   0.229
 1702HO4    HW2 6807   0.191   1.987   0.373
 1702HO4     MW 6808   0.153   2.063   0.319
 1703HO4     OW 6809   4.490   0.153   3.600
 1703HO4    HW1 6810   4.520   0.116   3.511
 1703HO4    HW2 6811   4.540   0.106   3.673
 1703HO4     MW 6812   4.490   0.153   3.600
 1704HO4     OW 6813   4.637   2.455   4.783
 1704HO4    HW1 6814   4.638   2.365   4.739
 1704HO4    HW2 6815   4.683   2.450   4.872
 1704HO4     MW 6816   4.637   2.455   4.783
 1705HO4     OW 6817   2.106   2.801   4.946
 1705HO4    HW1 6818   2.140   2.780   4.854
 1705HO4    HW2 6819   2.183   2.809   5.010
 1705HO4     MW 6820   2.106   2.801   4.946
 1706HO4     OW 6821   2.495   4.425   3.388
 1706HO4    HW1 6822   2.561   4.351   3.401
 1706HO4    HW2 6823   2.405   4.397   3.424
 1706HO4     MW 6824   2.495   4.425   3.388
 1707HO4     OW 6825   4.743   5.170   3.124
 1707HO4    HW1 6826   4.790   5.120   3.197
 1707HO4    HW2 6827   4.684   5.241   3.165
 1707HO4     MW 6828   4.743   5.170   3.124
 1708HO4     OW 6829   1.528   3.816   1.926
 1708HO4    HW1 6830   1.484   3.831   1.837
 1708HO4    HW2 6831   1.563   3.904   1.961
 1708HO4     MW 6832   1.528   3.816   1.926
 1709HO4     OW 6833   3.564   3.930   5.340
 1709HO4    HW1 6834   3.526   4.023   5.350
 1709HO4    HW2 6835   3.565   3.904   5.243
 1709HO4     MW 6836   3.564   3.930   5.340
 1710HO4     OW 6837   2.698   2.815   1.402
 1710HO4    HW1 6838   2.729   2.795   1.309
 1710HO4    HW2 6839   2.608   2.772   1.417
 1710HO4     MW 6840   2.698   2.815   1.402
 1711HO4     OW 6841   4.150   2.751   1.737
 1711HO4    HW1 6842   4.147   2.701   1.650
 1711HO4    HW2 6843   4.222   2.712   1.796
 1711HO4     MW 6844   4.150   2.751   1.737
 1712HO4     OW 6845   3.261   1.829   0.311
 1712HO4    HW1 6846   3.313   1.859   0.391
 1712HO4    HW2 6847   3.307   1.860   0.227
 1712HO4     MW 6848   3.261   1.829   0.311
 1713HO4     OW 6849   1.496   0.736   1.032
 1713HO4    HW1 6850   1.517   0.772   0.941
 1713HO4    HW2 6851   1.538   0.646   1.044
 1713HO4     MW 6852   1.496   0.736   1.032
 1714HO4     OW 6853   0.810   3.485   0.378
 1714HO4    HW1 6854   0.855   3.535   0.303
 1714HO4    HW2 6855   0.774   3.550   0.445
 1714HO4     MW 6856   0.810   3.485   0.378
 1715HO4     OW 6857   1.231   2.700   5.392
 1715HO4    HW1 6858   1.211   2.653   5.306
 1715HO4    HW2 6859   1.229   2.634   5.468
 1715HO4     MW 6860   1.231   2.700   5.392
 1716HO4     OW 6861   1.242   5.158   3.504
 1716HO4    HW1 6862   1.332   5.118   3.522
 1716HO4    HW2 6863   1.171   5.104   3.551
 1716HO4     MW 6864   1.242   5.158   3.504
 1717HO4     OW 6865   5.161   3.729   2.286
 1717HO4    HW1 6866   5.187   3.677   2.368
 1717HO4    HW2 6867   5.172   3.827   2.304
 1717HO4     MW 6868   5.161   3.729   2.286
 1718HO4     OW 6869   4.709   1.455   4.418
 1718HO4    HW1 6870   4.704   1.507   4.332
 1718HO4    HW2 6871   4.801   1.415   4.427
 1718HO4     MW 6872   4.709   1.455   4.418
 1719HO4     OW 6873   4.157   4.549   2.129
 1719HO4    HW1 6874   4.212   4.499   2.197
 1719HO4    HW2 6875   4.078   4.591   2.175
 1719HO4     MW 6876   4.157   4.549   2.129
 1720HO4     OW 6877   0.771   4.275   2.999
 1720HO4    HW1 6878   0.849   4.333   3.025
 1720HO4    HW2 6879   0.756   4.205   3.070
 1720HO4     MW 6880   0.771   4.275   2.999
 1721HO4     OW 6881   4.562   1.200   1.525
 1721HO4    HW1 6882   4.618   1.198   1.609
 1721HO4    HW2 6883   4.622   1.194   1.445
 1721HO4     MW 6884   4.562   1.200   1.525
 1722HO4     OW 6885   2.413   4.389   0.070
 1722HO4    HW1 6886   2.370   4.431  -0.010
 1722HO4    HW2 6887   2.388   4.442   0.152
 1722HO4     MW 6888   2.413   4.389   0.070
 1723HO4     OW 6889   3.466   3.722   0.341
 1723HO4    HW1 6890   3.522   3.725   0.257
 1723HO4    HW2 6891   3.518   3.762   0.417
 1723HO4     MW 6892   3.466   3.722   0.341
 1724HO4     OW 6893   0.834   0.714   3.731
 1724HO4    HW1 6894   0.865   0.633   3.781
 1724HO4    HW2 6895   0.910   0.779   3.722
 1724HO4     MW 6896   0.834   0.714   3.731
 1725HO4     OW 6897   1.513   0.969   5.038
 1725HO4    HW1 6898   1.550   0.930   4.953
 1725HO4    HW2 6899   1.528   0.904   5.114
 1725HO4     MW 6900   1.513   0.969   5.038
 1726HO4     OW 6901   1.996   1.999   2.829
 1726HO4    HW1 6902   1.933   1.997   2.907
 1726HO4    HW2 6903   1.945   1.982   2.744
 1726HO4     MW 6904   1.996   1.999   2.829
 1727HO4     OW 6905   4.038   2.470   0.273
 1727HO4    HW1 6906   4.059   2.519   0.358
 1727HO4    HW2 6907   4.107   2.491   0.204
 1727HO4     MW 6908   4.038   2.470   0.273
 1728HO4     OW 6909   0.241   2.175   4.853
 1728HO4    HW1 6910   0.289   2.231   4.922
 1728HO4    HW2 6911   0.143   2.194   4.858
 1728HO4     MW 6912   0.241   2.175   4.853
 1729HO4     OW 6913   2.246   2.534   2.765
 1729HO4    HW1 6914   2.186   2.524   2.844
 1729HO4    HW2 6915   2.198   2.586   2.693
 1729HO4     MW 6916   2.246   2.534   2.765
 1730HO4     OW 6917   4.959   1.261   0.822
 1730HO4    HW1 6918   4.960   1.311   0.735
 1730HO4    HW2 6919   4.866   1.261   0.860
 1730HO4     MW 6920   4.959   1.261   0.822
 1731HO4     OW 6921   4.743   2.788   1.781
 1731HO4    HW1 6922   4.682   2.843   1.724
 1731HO4    HW2 6923   4.824   2.842   1.806
 1731HO4     MW 6924   4.743   2.788   1.781
 1732HO4     OW 6925   0.901   5.018   4.628
 1732HO4    HW1 6926   0.811   4.984   4.656
 1732HO4    HW2 6927   0.957   5.036   4.709
 1732HO4     MW 6928   0.901   5.018   4.628
 1733HO4     OW 6929   4.187   4.551   2.656
 1733HO4    HW1 6930   4.221   4.594   2.572
 1733HO4    HW2 6931   4.201   4.614   2.733
 1733HO4     MW 6932   4.187   4.551   2.656
 1734HO4     OW 6933   3.870   5.141   2.800
 1734HO4    HW1 6934   3.778   5.177   2.815
 1734HO4    HW2 6935   3.865   5.044   2.776
 1734HO4     MW 6936   3.870   5.141   2.800
 1735HO4     OW 6937   0.365   2.996   3.614
 1735HO4    HW1 6938   0.340   2.972   3.708
 1735HO4    HW2 6939   0.297   2.957   3.551
 1735HO4     MW 6940   0.365   2.996   3.614
 1736HO4     OW 6941   5.476   0.827   3.582
 1736HO4    HW1 6942   5.491   0.843   3.484
 1736HO4    HW2 6943   5.402   0.761   3.595
 1736HO4     MW 6944   5.476   0.827   3.582
 1737HO4     OW 6945   4.682   5.040   0.483
 1737HO4    HW1 6946   4.650   5.124   0.439
 1737HO4    HW2 6947   4.621   4.964   0.459
 1737HO4     MW 6948   4.682   5.040   0.483
 1738HO4     OW 6949   0.128   1.661   5.252
 1738HO4    HW1 6950   0.173   1.742   5.215
 1738HO4    HW2 6951   0.040   1.687   5.292
 1738HO4     MW 6952   0.128   1.661   5.252
 1739HO4     OW 6953   4.407   0.251   1.322
 1739HO4    HW1 6954   4.449   0.164   1.348
 1739HO4    HW2 6955   4.474   0.307   1.273
 1739HO4     MW 6956   4.407   0.251   1.322
 1740HO4     OW 6957   3.586   5.443   1.245
 1740HO4    HW1 6958   3.492   5.410   1.242
 1740HO4    HW2 6959   3.649   5.366   1.259
 1740HO4     MW 6960   3.586   5.443   1.245
 1741HO4     OW 6961   1.016   0.493   0.432
 1741HO4    HW1 6962   1.075   0.514   0.510
 1741HO4    HW2 6963   1.069   0.500   0.347
 1741HO4     MW 6964   1.016   0.493   0.432
 1742HO4     OW 6965   5.052   5.400   1.082
 1742HO4    HW1 6966   4.999   5.470   1.130
 1742HO4    HW2 6967   4.989   5.330   1.045
 1742HO4     MW 6968   5.052   5.400   1.082
 1743HO4     OW 6969   4.000   2.314   3.100
 1743HO4    HW1 6970   4.083   2.290   3.049
 1743HO4    HW2 6971   4.021   2.317   3.198
 1743HO4     MW 6972   4.000   2.314   3.100
 1744HO4     OW 6973   5.393   3.098   2.493
 1744HO4    HW1 6974   5.372   3.127   2.399
 1744HO4    HW2 6975   5.346   3.159   2.558
 1744HO4     MW 6976   5.393   3.098   2.493
 1745HO4     OW 6977   1.874   1.431   5.292
 1745HO4    HW1 6978   1.836   1.393   5.207
 1745HO4    HW2 6979   1.879   1.531   5.285
 1745HO4     MW 6980   1.874   1.431   5.292
 1746HO4     OW 6981   4.398   3.296   0.196
 1746HO4    HW1 6982   4.474   3.231   0.185
 1746HO4    HW2 6983   4.406   3.369   0.128
 1746HO4     MW 6984   4.398   3.296   0.196
 1747HO4     OW 6985   4.039   3.963   3.887
 1747HO4    HW1 6986   4.105   3.969   3.812
 1747HO4    HW2 6987   4.077   3.907   3.961
 1747HO4     MW 6988   4.039   3.963   3.887
 1748HO4     OW 6989   0.836   1.716   3.401
 1748HO4    HW1 6990   0.795   1.745   3.314
 1748HO4    HW2 6991   0.790   1.764   3.477
 1748HO4     MW 6992   0.836   1.716   3.401
 1749HO4     OW 6993   4.866   3.435   2.660
 1749HO4    HW1 6994   4.852   3.376   2.740
 1749HO4    HW2 6995   4.866   3.379   2.577
 1749HO4     MW 6996   4.866   3.435   2.660
 1750HO4     OW 6997   4.427   0.654   0.932
 1750HO4    HW1 6998   4.492   0.585   0.966
 1750HO4    HW2 6999   4.395   0.627   0.841
 1750HO4     MW 7000   4.427   0.654   0.932
 1751HO4     OW 7001   1.876   1.033   1.545
 1751HO4    HW1 7002   1.816   0.953   1.529
 1751HO4    HW2 7003   1.949   1.033   1.477
 1751HO4     MW 7004   1.876   1.033   1.545
 1752HO4     OW 7005   3.083   4.484   4.703
 1752HO4    HW1 7006   3.030   4.400   4.686
 1752HO4    HW2 7007   3.033   4.542   4.768
 1752HO4     MW 7008   3.083   4.484   4.703
 1753HO4     OW 7009   2.257   0.525   1.957
 1753HO4    HW1 7010   2.283   0.569   1.870
 1753HO4    HW2 7011   2.335   0.527   2.020
 1753HO4     MW 7012   2.257   0.525   1.957
 1754HO4     OW 7013   4.703   4.427   5.064
 1754HO4    HW1 7014   4.782   4.482   5.092
 1754HO4    HW2 7015   4.620   4.463   5.108
 1754HO4     MW 7016   4.703   4.427   5.064
 1755HO4     OW 7017   1.735   0.737   0.018
 1755HO4    HW1 7018   1.691   0.770   0.102
 1755HO4    HW2 7019   1.708   0.796  -0.059
 1755HO4     MW 7020   1.735   0.737   0.018
 1756HO4     OW 7021   5.016   0.372   2.106
 1756HO4    HW1 7022   4.999   0.374   2.205
 1756HO4    HW2 7023   5.101   0.321   2.088
 1756HO4     MW 7024   5.016   0.372   2.106
 1757HO4     OW 7025   3.289   4.243   0.960
 1757HO4    HW1 7026   3.349   4.310   0.915
 1757HO4    HW2 7027   3.224   4.207   0.892
 1757HO4     MW 7028   3.289   4.243   0.960
 1758HO4     OW 7029   2.133   3.899   4.503
 1758HO4    HW1 7030   2.134   3.817   4.561
 1758HO4    HW2 7031   2.210   3.959   4.529
 1758HO4     MW 7032   2.133   3.899   4.503
 1759HO4     OW 7033   1.208   4.011   4.392
 1759HO4    HW1 7034   1.180   4.001   4.488
 1759HO4    HW2 7035   1.306   4.036   4.388
 1759HO4     MW 7036   1.208   4.011   4.392
 1760HO4     OW 7037   5.473   2.547   2.271
 1760HO4    HW1 7038   5.489   2.563   2.369
 1760HO4    HW2 7039   5.459   2.635   2.224
 1760HO4     MW 7040   5.473   2.547   2.271
 1761HO4     OW 7041   5.457   4.064   5.371
 1761HO4    HW1 7042   5.435   3.971   5.341
 1761HO4    HW2 7043   5.382   4.126   5.347
 1761HO4     MW 7044   5.457   4.064   5.371
 1762HO4     OW 7045   5.458   0.695   2.930
 1762HO4    HW1 7046   5.476   0.786   2.892
 1762HO4    HW2 7047   5.391   0.702   3.005
 1762HO4     MW 7048   5.458   0.695   2.930
 1763HO4     OW 7049   5.261   0.534   3.765
 1763HO4    HW1 7050   5.318   0.497   3.839
 1763HO4    HW2 7051   5.263   0.470   3.687
 1763HO4     MW 7052   5.261   0.534   3.765
 1764HO4     OW 7053   0.148   2.657   0.781
 1764HO4    HW1 7054   0.197   2.597   0.717
 1764HO4    HW2 7055   0.180   2.751   0.771
 1764HO4     MW 7056   0.148   2.657   0.781
 1765HO4     OW 7057   2.408   4.827   4.232
 1765HO4    HW1 7058   2.393   4.763   4.307
 1765HO4    HW2 7059   2.400   4.779   4.144
 1765HO4     MW 7060   2.408   4.827   4.232
 1766HO4     OW 7061   4.023   0.110   1.147
 1766HO4    HW1 7062   4.001   0.177   1.075
 1766HO4    HW2 7063   3.977   0.136   1.232
 1766HO4     MW 7064   4.023   0.110   1.147
 1767HO4     OW 7065   4.842   1.185   2.974
 1767HO4    HW1 7066   4.807   1.131   2.897
 1767HO4    HW2 7067   4.823   1.137   3.060
 1767HO4     MW 7068   4.842   1.185   2.974
 1768HO4     OW 7069   2.110   0.274   1.543
 1768HO4    HW1 7070   2.155   0.357   1.576
 1768HO4    HW2 7071   2.051   0.297   1.464
 1768HO4     MW 7072   2.110   0.274   1.543
 1769HO4     OW 7073   0.414   1.072   2.814
 1769HO4    HW1 7074   0.498   1.017   2.804
 1769HO4    HW2 7075   0.430   1.164   2.778
 1769HO4     MW 7076   0.414   1.072   2.814
 1770HO4     OW 7077   5.190   3.679   1.290
 1770HO4    HW1 7078   5.173   3.679   1.389
 1770HO4    HW2 7079   5.207   3.585   1.260
 1770HO4     MW 7080   5.190   3.679   1.290
 1771HO4     OW 7081   0.899   2.325   4.824
 1771HO4    HW1 7082   0.980   2.272   4.799
 1771HO4    HW2 7083   0.907   2.418   4.788
 1771HO4     MW 7084   0.899   2.325   4.824
 1772HO4     OW 7085   2.455   5.051   0.512
 1772HO4    HW1 7086   2.494   5.116   0.446
 1772HO4    HW2 7087   2.442   5.097   0.600
 1772HO4     MW 7088   2.455   5.051   0.512
 1773HO4     OW 7089   1.442   5.015   5.116
 1773HO4    HW1 7090   1.344   5.033   5.112
 1773HO4    HW2 7091   1.460   4.919   5.091
 1773HO4     MW 7092   1.442   5.015   5.116
 1774HO4     OW 7093   0.894   0.161   0.641
 1774HO4    HW1 7094   0.921   0.233   0.705
 1774HO4    HW2 7095   0.889   0.073   0.691
 1774HO4     MW 7096   0.894   0.161   0.641
 1775HO4     OW 7097   2.635   4.600   2.741
 1775HO4    HW1 7098   2.663   4.693   2.768
 1775HO4    HW2 7099   2.717   4.545   2.724
 1775HO4     MW 7100   2.635   4.600   2.741
 1776HO4     OW 7101   1.178   4.502   2.000
 1776HO4    HW1 7102   1.185   4.501   2.100
 1776HO4    HW2 7103   1.083   4.480   1.972
 1776HO4     MW 7104   1.178   4.502   2.000
 1777HO4     OW 7105   1.355   2.677   1.404
 1777HO4    HW1 7106   1.309   2.607   1.350
 1777HO4    HW2 7107   1.313   2.683   1.495
 1777HO4     MW 7108   1.355   2.677   1.404
 1778HO4     OW 7109   3.015   3.525   1.807
 1778HO4    HW1 7110   3.002   3.447   1.869
 1778HO4    HW2 7111   2.927   3.571   1.792
 1778HO4     MW 7112   3.015   3.525   1.807
 1779HO4     OW 7113   4.408   0.575   0.527
 1779HO4    HW1 7114   4.354   0.656   0.505
 1779HO4    HW2 7115   4.365   0.494   0.487
 1779HO4     MW 7116   4.408   0.575   0.527
 1780HO4     OW 7117   2.764   2.345   4.200
 1780HO4    HW1 7118   2.706   2.264   4.184
 1780HO4    HW2 7119   2.714   2.413   4.254
 1780HO4     MW 7120   2.764   2.345   4.200
 1781HO4     OW 7121   2.433   0.218   5.479
 1781HO4    HW1 7122   2.461   0.277   5.555
 1781HO4    HW2 7123   2.472   0.253   5.393
 1781HO4     MW 7124   2.433   0.218   5.479
 1782HO4     OW 7125   3.576   1.835   4.733
 1782HO4    HW1 7126   3.598   1.910   4.670
 1782HO4    HW2 7127   3.512   1.772   4.688
 1782HO4     MW 7128   3.576   1.835   4.733
 1783HO4     OW 7129   0.264   2.806   1.923
 1783HO4    HW1 7130   0.270   2.730   1.858
 1783HO4    HW2 7131   0.265   2.769   2.017
 1783HO4     MW 7132   0.264   2.806   1.923
 1784HO4     OW 7133   0.835   0.181   4.438
 1784HO4    HW1 7134   0.933   0.177   4.463
 1784HO4    HW2 7135   0.782   0.210   4.518
 1784HO4     MW 7136   0.835   0.181   4.438
 1785HO4     OW 7137   5.361   2.933   1.695
 1785HO4    HW1 7138   5.414   2.963   1.615
 1785HO4    HW2 7139   5.266   2.913   1.667
 1785HO4     MW 7140   5.361   2.933   1.695
 1786HO4     OW 7141   3.182   0.904   2.616
 1786HO4    HW1 7142   3.124   0.965   2.672
 1786HO4    HW2 7143   3.167   0.925   2.519
 1786HO4     MW 7144   3.182   0.904   2.616
 1787HO4     OW 7145   4.805   2.017   2.369
 1787HO4    HW1 7146   4.893   1.994   2.412
 1787HO4    HW2 7147   4.806   1.989   2.272
 1787HO4     MW 7148   4.805   2.017   2.369
 1788HO4     OW 7149   3.978   0.600   1.562
 1788HO4    HW1 7150   4.040   0.563   1.493
 1788HO4    HW2 7151   3.994   0.553   1.650
 1788HO4     MW 7152   3.978   0.600   1.562
 1789HO4     OW 7153   0.139   3.945   0.473
 1789HO4    HW1 7154   0.184   3.867   0.429
 1789HO4    HW2 7155   0.046   3.955   0.437
 1789HO4     MW 7156   0.139   3.945   0.473
 1790HO4     OW 7157   5.353   2.220   0.689
 1790HO4    HW1 7158   5.294   2.292   0.727
 1790HO4    HW2 7159   5.399   2.254   0.607
 1790HO4     MW 7160   5.353   2.220   0.689
 1791HO4     OW 7161   1.236   0.418   4.706
 1791HO4    HW1 7162   1.226   0.503   4.760
 1791HO4    HW2 7163   1.263   0.441   4.612
 1791HO4     MW 7164   1.236   0.418   4.706
 1792HO4     OW 7165   0.511   0.620   5.446
 1792HO4    HW1 7166   0.605   0.619   5.411
 1792HO4    HW2 7167   0.474   0.713   5.438
 1792HO4     MW 7168   0.511   0.620   5.446
 1793HO4     OW 7169   1.051   0.449   2.479
 1793HO4    HW1 7170   0.979   0.387   2.446
 1793HO4    HW2 7171   1.039   0.539   2.435
 1793HO4     MW 7172   1.051   0.449   2.479
 1794HO4     OW 7173   0.824   3.251   1.208
 1794HO4    HW1 7174   0.772   3.332   1.237
 1794HO4    HW2 7175   0.911   3.280   1.167
 1794HO4     MW 7176   0.824   3.251   1.208
 1795HO4     OW 7177   2.550   2.371   5.275
 1795HO4    HW1 7178   2.640   2.388   5.233
 1795HO4    HW2 7179   2.535   2.436   5.351
 1795HO4     MW 7180   2.550   2.371   5.275
 1796HO4     OW 7181   4.305   3.964   5.207
 1796HO4    HW1 7182   4.356   3.970   5.293
 1796HO4    HW2 7183   4.365   3.987   5.130
 1796HO4     MW 7184   4.305   3.964   5.207
 1797HO4     OW 7185   2.543   4.664   0.430
 1797HO4    HW1 7186   2.532   4.573   0.469
 1797HO4    HW2 7187   2.627   4.668   0.375
 1797HO4     MW 7188   2.543   4.664   0.430
 1798HO4     OW 7189   3.389   0.300   3.210
 1798HO4    HW1 7190   3.349   0.228   3.268
 1798HO4    HW2 7191   3.438   0.366   3.268
 1798HO4     MW 7192   3.389   0.300   3.210
 1799HO4     OW 7193   2.088   2.498   1.634
 1799HO4    HW1 7194   2.103   2.590   1.672
 1799HO4    HW2 7195   2.006   2.458   1.676
 1799HO4     MW 7196   2.088   2.498   1.634
 1800HO4     OW 7197   4.758   0.082   0.141
 1800HO4    HW1 7198   4.835   0.061   0.202
 1800HO4    HW2 7199   4.690   0.008   0.148
 1800HO4     MW 7200   4.758   0.082   0.141
 1801HO4     OW 7201   0.630   5.038   3.580
 1801HO4    HW1 7202   0.590   5.017   3.491
 1801HO4    HW2 7203   0.712   4.983   3.594
 1801HO4     MW 7204   0.630   5.038   3.580
 1802HO4     OW 7205   3.065   3.446   1.066
 1802HO4    HW1 7206   2.966   3.447   1.078
 1802HO4    HW2 7207   3.109   3.477   1.151
 1802HO4     MW 7208   3.065   3.446   1.066
 1803HO4     OW 7209   0.482   2.605   4.108
 1803HO4    HW1 7210   0.456   2.549   4.029
 1803HO4    HW2 7211   0.458   2.557   4.193
 1803HO4     MW 7212   0.482   2.605   4.108
 1804HO4     OW 7213   1.191   2.372   2.124
 1804HO4    HW1 7214   1.237   2.319   2.052
 1804HO4    HW2 7215   1.260   2.409   2.188
 1804HO4     MW 7216   1.191   2.372   2.124
 1805HO4     OW 7217   2.427   3.485   3.658
 1805HO4    HW1 7218   2.482   3.419   3.606
 1805HO4    HW2 7219   2.330   3.459   3.652
 1805HO4     MW 7220   2.427   3.485   3.658
 1806HO4     OW 7221   0.712   0.250   2.000
 1806HO4    HW1 7222   0.808   0.280   1.990
 1806HO4    HW2 7223   0.709   0.169   2.060
 1806HO4     MW 7224   0.712   0.250   2.000
 1807HO4     OW 7225   3.463   3.973   1.192
 1807HO4    HW1 7226   3.515   3.962   1.277
 1807HO4    HW2 7227   3.526   3.992   1.116
 1807HO4     MW 7228   3.463   3.973   1.192
 1808HO4     OW 7229   4.023   2.563   2.628
 1808HO4    HW1 7230   3.931   2.603   2.623
 1808HO4    HW2 7231   4.076   2.611   2.700
 1808HO4     MW 7232   4.023   2.563   2.628
 1809HO4     OW 7233   4.875   3.158   2.978
 1809HO4    HW1 7234   4.852   3.116   3.066
 1809HO4    HW2 7235   4.826   3.111   2.904
 1809HO4     MW 7236   4.875   3.158   2.978
 1810HO4     OW 7237   2.788   4.093   1.474
 1810HO4    HW1 7238   2.865   4.029   1.479
 1810HO4    HW2 7239   2.709   4.047   1.431
 1810HO4     MW 7240   2.788   4.093   1.474
 1811HO4     OW 7241   2.421   4.619   2.952
 1811HO4    HW1 7242   2.444   4.710   2.990
 1811HO4    HW2 7243   2.321   4.607   2.956
 1811HO4     MW 7244   2.421   4.619   2.952
 1812HO4     OW 7245   2.853   3.666   2.214
 1812HO4    HW1 7246   2.942   3.668   2.166
 1812HO4    HW2 7247   2.850   3.587   2.275
 1812HO4     MW 7248   2.853   3.666   2.214
 1813HO4     OW 7249   0.145   1.654   1.978
 1813HO4    HW1 7250   0.143   1.622   1.883
 1813HO4    HW2 7251   0.087   1.735   1.988
 1813HO4     MW 7252   0.145   1.654   1.978
 1814HO4     OW 7253   3.684   5.217   0.271
 1814HO4    HW1 7254   3.623   5.297   0.266
 1814HO4    HW2 7255   3.758   5.235   0.337
 1814HO4     MW 7256   3.684   5.217   0.271
 1815HO4     OW 7257   1.091   5.052   3.232
 1815HO4    HW1 7258   1.101   4.994   3.313
 1815HO4    HW2 7259   1.114   5.000   3.150
 1815HO4     MW 7260   1.091   5.052   3.232
 1816HO4     OW 7261   0.469   4.502   4.524
 1816HO4    HW1 7262   0.560   4.460   4.538
 1816HO4    HW2 7263   0.399   4.431   4.522
 1816HO4     MW 7264   0.469   4.502   4.524
 1817HO4     OW 7265   0.515   3.589   1.278
 1817HO4    HW1 7266   0.565   3.527   1.339
 1817HO4    HW2 7267   0.557   3.587   1.187
 1817HO4     MW 7268   0.515   3.589   1.278
 1818HO4     OW 7269   5.014   4.043   0.234
 1818HO4    HW1 7270   5.002   3.952   0.276
 1818HO4    HW2 7271   4.928   4.094   0.240
 1818HO4     MW 7272   5.014   4.043   0.234
 1819HO4     OW 7273   0.507   4.565   3.388
 1819HO4    HW1 7274   0.410   4.546   3.407
 1819HO4    HW2 7275   0.533   4.652   3.430
 1819HO4     MW 7276   0.507   4.565   3.388
 1820HO4     OW 7277   0.443   1.160   3.278
 1820HO4    HW1 7278   0.517   1.127   3.338
 1820HO4    HW2 7279   0.451   1.116   3.188
 1820HO4     MW 7280   0.443   1.160   3.278
 1821HO4     OW 7281   0.601   0.689   0.308
 1821HO4    HW1 7282   0.600   0.732   0.399
 1821HO4    HW2 7283   0.545   0.744   0.244
 1821HO4     MW 7284   0.601   0.689   0.308
 1822HO4     OW 7285   3.208   5.350   0.321
 1822HO4    HW1 7286   3.266   5.385   0.247
 1822HO4    HW2 7287   3.247   5.375   0.410
 1822HO4     MW 7288   3.208   5.350   0.321
 1823HO4     OW 7289   2.326   3.268   2.666
 1823HO4    HW1 7290   2.267   3.313   2.734
 1823HO4    HW2 7291   2.414   3.244   2.709
 1823HO4     MW 7292   2.326   3.268   2.666
 1824HO4     OW 7293   3.080   0.966   0.528
 1824HO4    HW1 7294   3.093   0.966   0.628
 1824HO4    HW2 7295   3.056   0.874   0.497
 1824HO4     MW 7296   3.080   0.966   0.528
 1825HO4     OW 7297   3.053   2.100   4.946
 1825HO4    HW1 7298   3.146   2.079   4.977
 1825HO4    HW2 7299   3.056   2.134   4.851
 1825HO4     MW 7300   3.053   2.100   4.946
 1826HO4     OW 7301   0.957   0.689   5.301
 1826HO4    HW1 7302   0.923   0.782   5.286
 1826HO4    HW2 7303   0.971   0.644   5.212
 1826HO4     MW 7304   0.957   0.689   5.301
 1827HO4     OW 7305   4.904   1.713   0.653
 1827HO4    HW1 7306   4.848   1.720   0.570
 1827HO4    HW2 7307   4.845   1.711   0.733
 1827HO4     MW 7308   4.904   1.713   0.653
 1828HO4     OW 7309   0.279   1.614   1.714
 1828HO4    HW1 7310   0.246   1.708   1.728
 1828HO4    HW2 7311   0.377   1.616   1.693
 1828HO4     MW 7312   0.279   1.614   1.714
 1829HO4     OW 7313   2.304   1.440   4.590
 1829HO4    HW1 7314   2.321   1.438   4.491
 1829HO4    HW2 7315   2.224   1.497   4.609
 1829HO4     MW 7316   2.304   1.440   4.590
 1830HO4     OW 7317   3.718   4.982   0.781
 1830HO4    HW1 7318   3.677   4.912   0.841
 1830HO4    HW2 7319   3.687   4.967   0.687
 1830HO4     MW 7320   3.718   4.982   0.781
 1831HO4     OW 7321   0.013   0.725   1.649
 1831HO4    HW1 7322   0.102   0.744   1.606
 1831HO4    HW2 7323  -0.047   0.805   1.637
 1831HO4     MW 7324   0.013   0.725   1.649
 1832HO4     OW 7325   0.308   3.984   4.349
 1832HO4    HW1 7326   0.228   3.958   4.404
 1832HO4    HW2 7327   0.289   3.965   4.252
 1832HO4     MW 7328   0.308   3.984   4.349
 1833HO4     OW 7329   5.084   1.629   4.701
 1833HO4    HW1 7330   5.081   1.570   4.620
 1833HO4    HW2 7331   5.091   1.573   4.784
 1833HO4     MW 7332   5.084   1.629   4.701
 1834HO4     OW 7333   4.828   4.954   4.855
 1834HO4    HW1 7334   4.760   4.992   4.920
 1834HO4    HW2 7335   4.781   4.905   4.782
 1834HO4     MW 7336   4.828   4.954   4.855
 1835HO4     OW 7337   5.439   2.153   3.286
 1835HO4    HW1 7338   5.352   2.111   3.312
 1835HO4    HW2 7339   5.422   2.244   3.247
 1835HO4     MW 7340   5.439   2.153   3.286
 1836HO4     OW 7341   0.619   2.233   5.460
 1836HO4    HW1 7342   0.665   2.145   5.477
 1836HO4    HW2 7343   0.675   2.307   5.499
 1836HO4     MW 7344   0.619   2.233   5.460
 1837HO4     OW 7345  -0.005   2.587   0.129
 1837HO4    HW1 7346   0.039   2.625   0.211
 1837HO4    HW2 7347   0.042   2.620   0.047
 1837HO4     MW 7348  -0.005   2.587   0.129
 1838HO4     OW 7349   2.191   1.913   0.738
 1838HO4    HW1 7350   2.252   1.850   0.688
 1838HO4    HW2 7351   2.247   1.978   0.791
 1838HO4     MW 7352   2.191   1.913   0.738
 1839HO4     OW 7353   4.594   1.257   5.211
 1839HO4    HW1 7354   4.560   1.352   5.213
 1839HO4    HW2 7355   4.684   1.252   5.256
 1839HO4     MW 7356   4.594   1.257   5.211
 1840HO4     OW 7357   4.055   0.300   1.294
 1840HO4    HW1 7358   3.978   0.274   1.235
 1840HO4    HW2 7359   4.037   0.391   1.333
 1840HO4     MW 7360   4.055   0.300   1.294
 1841HO4     OW 7361   4.637   3.981   4.507
 1841HO4    HW1 7362   4.700   3.943   4.439
 1841HO4    HW2 7363   4.681   3.981   4.598
 1841HO4     MW 7364   4.637   3.981   4.507
 1842HO4     OW 7365   4.360   0.842   0.764
 1842HO4    HW1 7366   4.274   0.875   0.804
 1842HO4    HW2 7367   4.343   0.755   0.716
 1842HO4     MW 7368   4.360   0.842   0.764
 1843HO4     OW 7369   2.951   0.523   2.717
 1843HO4    HW1 7370   2.955   0.501   2.619
 1843HO4    HW2 7371   2.999   0.452   2.769
 1843HO4     MW 7372   2.951   0.523   2.717
 1844HO4     OW 7373   2.222   5.468   4.137
 1844HO4    HW1 7374   2.141   5.441   4.190
 1844HO4    HW2 7375   2.212   5.435   4.043
 1844HO4     MW 7376   2.222   5.468   4.137
 1845HO4     OW 7377   0.888   2.880   1.064
 1845HO4    HW1 7378   0.860   2.972   1.034
 1845HO4    HW2 7379   0.959   2.888   1.135
 1845HO4     MW 7380   0.888   2.880   1.064
 1846HO4     OW 7381   5.044   1.925   4.953
 1846HO4    HW1 7382   5.142   1.938   4.967
 1846HO4    HW2 7383   5.008   1.997   4.894
 1846HO4     MW 7384   5.044   1.925   4.953
 1847HO4     OW 7385   4.029   3.041   3.502
 1847HO4    HW1 7386   4.089   3.121   3.495
 1847HO4    HW2 7387   4.050   2.976   3.428
 1847HO4     MW 7388   4.029   3.041   3.502
 1848HO4     OW 7389   0.972   2.253   1.877
 1848HO4    HW1 7390   0.925   2.212   1.799
 1848HO4    HW2 7391   0.934   2.216   1.963
 1848HO4     MW 7392   0.972   2.253   1.877
 1849HO4     OW 7393   5.426   4.164   2.874
 1849HO4    HW1 7394   5.425   4.178   2.775
 1849HO4    HW2 7395   5.517   4.132   2.902
 1849HO4     MW 7396   5.426   4.164   2.874
 1850HO4     OW 7397   3.668   4.472   4.260
 1850HO4    HW1 7398   3.717   4.504   4.178
 1850HO4    HW2 7399   3.577   4.514   4.262
 1850HO4     MW 7400   3.668   4.472   4.260
 1851HO4     OW 7401   4.477   2.152   5.116
 1851HO4    HW1 7402   4.420   2.150   5.032
 1851HO4    HW2 7403   4.417   2.151   5.196
 1851HO4     MW 7404   4.477   2.152   5.116
 1852HO4     OW 7405   1.907   1.441   0.870
 1852HO4    HW1 7406   1.823   1.466   0.919
 1852HO4    HW2 7407   1.902   1.345   0.841
 1852HO4     MW 7408   1.907   1.441   0.870
 1853HO4     OW 7409   4.840   1.828   2.641
 1853HO4    HW1 7410   4.742   1.825   2.618
 1853HO4    HW2 7411   4.850   1.845   2.740
 1853HO4     MW 7412   4.840   1.828   2.641
 1854HO4     OW 7413   2.152   0.300   4.986
 1854HO4    HW1 7414   2.165   0.307   5.085
 1854HO4    HW2 7415   2.117   0.387   4.950
 1854HO4     MW 7416   2.152   0.300   4.986
 1855HO4     OW 7417   2.354   1.198   1.472
 1855HO4    HW1 7418   2.447   1.163   1.453
 1855HO4    HW2 7419   2.301   1.202   1.387
 1855HO4     MW 7420   2.354   1.198   1.472
 1856HO4     OW 7421   1.396   2.061   0.709
 1856HO4    HW1 7422   1.301   2.062   0.741
 1856HO4    HW2 7423   1.398   2.081   0.610
 1856HO4     MW 7424   1.396   2.061   0.709
 1857HO4     OW 7425   3.366   0.353   4.804
 1857HO4    HW1 7426   3.380   0.281   4.872
 1857HO4    HW2 7427   3.394   0.319   4.713
 1857HO4     MW 7428   3.366   0.353   4.804
 1858HO4     OW 7429   3.155   5.110   3.443
 1858HO4    HW1 7430   3.080   5.110   3.375
 1858HO4    HW2 7431   3.116   5.113   3.536
 1858HO4     MW 7432   3.155   5.110   3.443
 1859HO4     OW 7433   0.141   1.407   1.460
 1859HO4    HW1 7434   0.062   1.352   1.434
 1859HO4    HW2 7435   0.225   1.360   1.432
 1859HO4     MW 7436   0.141   1.407   1.460
 1860HO4     OW 7437   5.157   4.232   3.051
 1860HO4    HW1 7438   5.235   4.283   3.087
 1860HO4    HW2 7439   5.077   4.293   3.046
 1860HO4     MW 7440   5.157   4.232   3.051
 1861HO4     OW 7441   2.143   0.152   3.787
 1861HO4    HW1 7442   2.096   0.135   3.700
 1861HO4    HW2 7443   2.084   0.123   3.863
 1861HO4     MW 7444   2.143   0.152   3.787
 1862HO4     OW 7445   4.683   0.114   4.285
 1862HO4    HW1 7446   4.602   0.151   4.239
 1862HO4    HW2 7447   4.657   0.078   4.376
 1862HO4     MW 7448   4.683   0.114   4.285
 1863HO4     OW 7449   3.803   3.098   0.204
 1863HO4    HW1 7450   3.847   3.120   0.117
 1863HO4    HW2 7451   3.837   3.160   0.275
 1863HO4     MW 7452   3.803   3.098   0.204
 1864HO4     OW 7453   3.266   3.146   1.679
 1864HO4    HW1 7454   3.169   3.148   1.652
 1864HO4    HW2 7455   3.322   3.184   1.605
 1864HO4     MW 7456   3.266   3.146   1.679
 1865HO4     OW 7457   0.298   3.971   3.237
 1865HO4    HW1 7458   0.317   4.059   3.280
 1865HO4    HW2 7459   0.299   3.982   3.137
 1865HO4     MW 7460   0.298   3.971   3.237
 1866HO4     OW 7461   2.726   0.817   2.566
 1866HO4    HW1 7462   2.753   0.723   2.544
 1866HO4    HW2 7463   2.778   0.849   2.646
 1866HO4     MW 7464   2.726   0.817   2.566
 1867HO4     OW 7465   3.219   5.449   3.284
 1867HO4    HW1 7466   3.167   5.504   3.218
 1867HO4    HW2 7467   3.227   5.355   3.249
 1867HO4     MW 7468   3.219   5.449   3.284
 1868HO4     OW 7469   2.811   1.593   1.725
 1868HO4    HW1 7470   2.743   1.541   1.776
 1868HO4    HW2 7471   2.902   1.579   1.766
 1868HO4     MW 7472   2.811   1.593   1.725
 1869HO4     OW 7473   3.428   2.289   0.797
 1869HO4    HW1 7474   3.400   2.243   0.882
 1869HO4    HW2 7475   3.386   2.244   0.718
 1869HO4     MW 7476   3.428   2.289   0.797
 1870HO4     OW 7477   5.185   5.038   5.014
 1870HO4    HW1 7478   5.233   4.969   4.959
 1870HO4    HW2 7479   5.174   5.003   5.108
 1870HO4     MW 7480   5.185   5.038   5.014
 1871HO4     OW 7481   3.921   0.862   1.511
 1871HO4    HW1 7482   3.843   0.837   1.454
 1871HO4    HW2 7483   3.933   0.792   1.583
 1871HO4     MW 7484   3.921   0.862   1.511
 1872HO4     OW 7485   1.422   1.810   4.156
 1872HO4    HW1 7486   1.452   1.785   4.249
 1872HO4    HW2 7487   1.495   1.787   4.091
 1872HO4     MW 7488   1.422   1.810   4.156
 1873HO4     OW 7489   5.298   2.923   5.118
 1873HO4    HW1 7490   5.225   2.897   5.055
 1873HO4    HW2 7491   5.348   2.841   5.147
 1873HO4     MW 7492   5.298   2.923   5.118
 1874HO4     OW 7493   4.664   2.542   3.935
 1874HO4    HW1 7494   4.691   2.590   3.851
 1874HO4    HW2 7495   4.565   2.528   3.936
 1874HO4     MW 7496   4.664   2.542   3.935
 1875HO4     OW 7497   0.302   4.215   5.276
 1875HO4    HW1 7498   0.275   4.183   5.185
 1875HO4    HW2 7499   0.227   4.199   5.341
 1875HO4     MW 7500   0.302   4.215   5.276
 1876HO4     OW 7501   1.497   5.325   3.429
 1876HO4    HW1 7502   1.499   5.225   3.425
 1876HO4    HW2 7503   1.592   5.360   3.429
 1876HO4     MW 7504   1.497   5.325   3.429
 1877HO4     OW 7505   0.752   5.401   2.606
 1877HO4    HW1 7506   0.664   5.426   2.649
 1877HO4    HW2 7507   0.735   5.372   2.511
 1877HO4     MW 7508   0.752   5.401   2.606
 1878HO4     OW 7509   2.184   2.595   4.918
 1878HO4    HW1 7510   2.229   2.582   5.007
 1878HO4    HW2 7511   2.236   2.546   4.847
 1878HO4     MW 7512   2.184   2.595   4.918
 1879HO4     OW 7513   0.652   3.840   3.389
 1879HO4    HW1 7514   0.681   3.821   3.295
 1879HO4    HW2 7515   0.732   3.842   3.450
 1879HO4     MW 7516   0.652   3.840   3.389
 1880HO4     OW 7517   1.675   0.556   3.928
 1880HO4    HW1 7518   1.652   0.653   3.913
 1880HO4    HW2 7519   1.774   0.543   3.920
 1880HO4     MW 7520   1.675   0.556   3.928
 1881HO4     OW 7521   0.121   5.004   4.045
 1881HO4    HW1 7522   0.151   4.948   4.123
 1881HO4    HW2 7523   0.129   5.101   4.068
 1881HO4     MW 7524   0.121   5.004   4.045
 1882HO4     OW 7525   4.734   5.216   3.997
 1882HO4    HW1 7526   4.817   5.239   4.048
 1882HO4    HW2 7527   4.744   5.125   3.956
 1882HO4     MW 7528   4.734   5.216   3.997
 1883HO4     OW 7529   4.198   3.244   2.290
 1883HO4    HW1 7530   4.174   3.255   2.387
 1883HO4    HW2 7531   4.154   3.316   2.235
 1883HO4     MW 7532   4.198   3.244   2.290
 1884HO4     OW 7533   4.766   0.762   3.295
 1884HO4    HW1 7534   4.748   0.702   3.374
 1884HO4    HW2 7535   4.750   0.858   3.321
 1884HO4     MW 7536   4.766   0.762   3.295
 1885HO4     OW 7537   4.897   4.651   0.238
 1885HO4    HW1 7538   4.819   4.674   0.297
 1885HO4    HW2 7539   4.883   4.691   0.147
 1885HO4     MW 7540   4.897   4.651   0.238
 1886HO4     OW 7541   4.203   3.139   1.929
 1886HO4    HW1 7542   4.289   3.093   1.953
 1886HO4    HW2 7543   4.176   3.199   2.004
 1886HO4     MW 7544   4.203   3.139   1.929
 1887HO4     OW 7545   0.673   2.078   1.659
 1887HO4    HW1 7546   0.698   2.073   1.561
 1887HO4    HW2 7547   0.757   2.079   1.714
 1887HO4     MW 7548   0.673   2.078   1.659
 1888HO4     OW 7549   1.303   0.997   4.899
 1888HO4    HW1 7550   1.390   1.013   4.852
 1888HO4    HW2 7551   1.231   1.052   4.855
 1888HO4     MW 7552   1.303   0.997   4.899
 1889HO4     OW 7553   2.204   4.938   1.075
 1889HO4    HW1 7554   2.300   4.909   1.062
 1889HO4    HW2 7555   2.197   4.991   1.160
 1889HO4     MW 7556   2.204   4.938   1.075
 1890HO4     OW 7557   3.182   5.167   0.017
 1890HO4    HW1 7558   3.218   5.258  -0.007
 1890HO4    HW2 7559   3.176   5.159   0.117
 1890HO4     MW 7560   3.182   5.167   0.017
 1891HO4     OW 7561   3.913   0.404   0.068
 1891HO4    HW1 7562   3.857   0.355  -0.001
 1891HO4    HW2 7563   3.897   0.364   0.158
 1891HO4     MW 7564   3.913   0.404   0.068
 1892HO4     OW 7565   0.534   0.135   1.001
 1892HO4    HW1 7566   0.594   0.111   0.925
 1892HO4    HW2 7567   0.571   0.097   1.086
 1892HO4     MW 7568   0.534   0.135   1.001
 1893HO4     OW 7569   3.006   1.256   1.043
 1893HO4    HW1 7570   3.098   1.295   1.034
 1893HO4    HW2 7571   2.974   1.268   1.137
 1893HO4     MW 7572   3.006   1.256   1.043
 1894HO4     OW 7573   2.186   1.441   5.131
 1894HO4    HW1 7574   2.248   1.483   5.197
 1894HO4    HW2 7575   2.106   1.404   5.180
 1894HO4     MW 7576   2.186   1.441   5.131
 1895HO4     OW 7577   1.417   3.394   5.249
 1895HO4    HW1 7578   1.507   3.369   5.287
 1895HO4    HW2 7579   1.381   3.474   5.298
 1895HO4     MW 7580   1.417   3.394   5.249
 1896HO4     OW 7581   1.262   5.465   3.311
 1896HO4    HW1 7582   1.210   5.477   3.226
 1896HO4    HW2 7583   1.204   5.423   3.381
 1896HO4     MW 7584   1.262   5.465   3.311
 1897HO4     OW 7585   3.906   1.072   3.405
 1897HO4    HW1 7586   3.864   1.045   3.319
 1897HO4    HW2 7587   3.974   1.144   3.388
 1897HO4     MW 7588   3.906   1.072   3.405
 1898HO4     OW 7589   1.654   3.102   5.456
 1898HO4    HW1 7590   1.685   3.106   5.551
 1898HO4    HW2 7591   1.718   3.048   5.401
 1898HO4     MW 7592   1.654   3.102   5.456
 1899HO4     OW 7593   2.098   2.302   1.520
 1899HO4    HW1 7594   2.047   2.386   1.503
 1899HO4    HW2 7595   2.070   2.231   1.455
 1899HO4     MW 7596   2.098   2.302   1.520
 1900HO4     OW 7597   1.079   3.461   3.717
 1900HO4    HW1 7598   1.146   3.528   3.682
 1900HO4    HW2 7599   1.040   3.495   3.802
 1900HO4     MW 7600   1.079   3.461   3.717
 1901HO4     OW 7601   5.457   1.325   4.654
 1901HO4    HW1 7602   5.556   1.315   4.637
 1901HO4    HW2 7603   5.417   1.386   4.584
 1901HO4     MW 7604   5.457   1.325   4.654
 1902HO4     OW 7605   4.495   2.834   4.554
 1902HO4    HW1 7606   4.539   2.763   4.610
 1902HO4    HW2 7607   4.486   2.918   4.607
 1902HO4     MW 7608   4.495   2.834   4.554
 1903HO4     OW 7609   0.027   1.609   0.577
 1903HO4    HW1 7610   0.039   1.550   0.657
 1903HO4    HW2 7611   0.033   1.554   0.493
 1903HO4     MW 7612   0.027   1.609   0.577
 1904HO4     OW 7613   1.591   4.691   0.663
 1904HO4    HW1 7614   1.539   4.639   0.594
 1904HO4    HW2 7615   1.586   4.643   0.751
 1904HO4     MW 7616   1.591   4.691   0.663
 1905HO4     OW 7617   1.109   2.179   0.923
 1905HO4    HW1 7618   1.121   2.237   0.842
 1905HO4    HW2 7619   1.126   2.233   1.006
 1905HO4     MW 7620   1.109   2.179   0.923
 1906HO4     OW 7621   5.052   2.692   0.532
 1906HO4    HW1 7622   5.137   2.646   0.505
 1906HO4    HW2 7623   4.986   2.689   0.456
 1906HO4     MW 7624   5.052   2.692   0.532
 1907HO4     OW 7625   4.342   5.104   4.684
 1907HO4    HW1 7626   4.249   5.141   4.686
 1907HO4    HW2 7627   4.401   5.155   4.748
 1907HO4     MW 7628   4.342   5.104   4.684
 1908HO4     OW 7629   1.711   3.491   1.442
 1908HO4    HW1 7630   1.806   3.500   1.472
 1908HO4    HW2 7631   1.698   3.537   1.354
 1908HO4     MW 7632   1.711   3.491   1.442
 1909HO4     OW 7633   1.458   1.622   1.037
 1909HO4    HW1 7634   1.441   1.592   0.942
 1909HO4    HW2 7635   1.393   1.576   1.099
 1909HO4     MW 7636   1.458   1.622   1.037
 1910HO4     OW 7637   1.760   1.047   0.525
 1910HO4    HW1 7638   1.791   1.142   0.518
 1910HO4    HW2 7639   1.770   1.002   0.436
 1910HO4     MW 7640   1.760   1.047   0.525
 1911HO4     OW 7641   0.968   4.629   0.855
 1911HO4    HW1 7642   0.921   4.553   0.902
 1911HO4    HW2 7643   0.978   4.606   0.757
 1911HO4     MW 7644   0.968   4.629   0.855
 1912HO4     OW 7645   2.606   0.286   4.833
 1912HO4    HW1 7646   2.595   0.250   4.740
 1912HO4    HW2 7647   2.528   0.346   4.855
 1912HO4     MW 7648   2.606   0.286   4.833
 1913HO4     OW 7649   4.373   0.626   3.343
 1913HO4    HW1 7650   4.315   0.629   3.260
 1913HO4    HW2 7651   4.315   0.631   3.424
 1913HO4     MW 7652   4.373   0.626   3.343
 1914HO4     OW 7653   0.426   1.382   2.975
 1914HO4    HW1 7654   0.332   1.407   3.001
 1914HO4    HW2 7655   0.424   1.297   2.923
 1914HO4     MW 7656   0.426   1.382   2.975
 1915HO4     OW 7657   1.569   5.362   4.405
 1915HO4    HW1 7658   1.501   5.288   4.401
 1915HO4    HW2 7659   1.535   5.442   4.354
 1915HO4     MW 7660   1.569   5.362   4.405
 1916HO4     OW 7661   4.655   3.214   2.823
 1916HO4    HW1 7662   4.575   3.215   2.884
 1916HO4    HW2 7663   4.624   3.215   2.727
 1916HO4     MW 7664   4.655   3.214   2.823
 1917HO4     OW 7665   0.255   4.601   0.403
 1917HO4    HW1 7666   0.166   4.564   0.434
 1917HO4    HW2 7667   0.297   4.537   0.338
 1917HO4     MW 7668   0.255   4.601   0.403
 1918HO4     OW 7669   5.170   5.195   3.453
 1918HO4    HW1 7670   5.173   5.287   3.494
 1918HO4    HW2 7671   5.181   5.126   3.526
 1918HO4     MW 7672   5.170   5.195   3.453
 1919HO4     OW 7673   2.414   1.108   4.074
 1919HO4    HW1 7674   2.314   1.106   4.083
 1919HO4    HW2 7675   2.439   1.132   3.980
 1919HO4     MW 7676   2.414   1.108   4.074
 1920HO4     OW 7677   4.362   2.852   3.953
 1920HO4    HW1 7678   4.303   2.858   3.872
 1920HO4    HW2 7679   4.305   2.845   4.036
 1920HO4     MW 7680   4.362   2.852   3.953
 1921HO4     OW 7681   0.593   4.512   1.882
 1921HO4    HW1 7682   0.510   4.530   1.935
 1921HO4    HW2 7683   0.570   4.500   1.785
 1921HO4     MW 7684   0.593   4.512   1.882
 1922HO4     OW 7685   2.320   1.478   2.829
 1922HO4    HW1 7686   2.376   1.494   2.747
 1922HO4    HW2 7687   2.376   1.494   2.911
 1922HO4     MW 7688   2.320   1.478   2.829
 1923HO4     OW 7689   5.142   0.288   3.156
 1923HO4    HW1 7690   5.134   0.196   3.195
 1923HO4    HW2 7691   5.088   0.352   3.211
 1923HO4     MW 7692   5.142   0.288   3.156
 1924HO4     OW 7693   4.553   3.475   0.604
 1924HO4    HW1 7694   4.519   3.550   0.662
 1924HO4    HW2 7695   4.537   3.498   0.507
 1924HO4     MW 7696   4.553   3.475   0.604
 1925HO4     OW 7697   3.300   0.880   4.649
 1925HO4    HW1 7698   3.245   0.962   4.629
 1925HO4    HW2 7699   3.238   0.802   4.663
 1925HO4     MW 7700   3.300   0.880   4.649
 1926HO4     OW 7701   2.019   1.540   4.191
 1926HO4    HW1 7702   1.966   1.562   4.108
 1926HO4    HW2 7703   1.958   1.541   4.270
 1926HO4     MW 7704   2.019   1.540   4.191
 1927HO4     OW 7705   2.929   4.202   3.062
 1927HO4    HW1 7706   2.966   4.271   2.999
 1927HO4    HW2 7707   2.994   4.187   3.137
 1927HO4     MW 7708   2.929   4.202   3.062
 1928HO4     OW 7709   0.619   2.833   3.748
 1928HO4    HW1 7710   0.610   2.734   3.729
 1928HO4    HW2 7711   0.559   2.858   3.824
 1928HO4     MW 7712   0.619   2.833   3.748
 1929HO4     OW 7713   4.294   2.619   3.374
 1929HO4    HW1 7714   4.242   2.585   3.295
 1929HO4    HW2 7715   4.262   2.574   3.458
 1929HO4     MW 7716   4.294   2.619   3.374
 1930HO4     OW 7717   1.494   4.113   0.557
 1930HO4    HW1 7718   1.576   4.087   0.609
 1930HO4    HW2 7719   1.446   4.030   0.526
 1930HO4     MW 7720   1.494   4.113   0.557
 1931HO4     OW 7721   3.871   5.093   4.124
 1931HO4    HW1 7722   3.863   5.026   4.050
 1931HO4    HW2 7723   3.867   5.046   4.213
 1931HO4     MW 7724   3.871   5.093   4.124
 1932HO4     OW 7725   1.329   4.112   2.063
 1932HO4    HW1 7726   1.258   4.074   2.124
 1932HO4    HW2 7727   1.319   4.072   1.972
 1932HO4     MW 7728   1.329   4.112   2.063
 1933HO4     OW 7729   4.007   2.177   3.439
 1933HO4    HW1 7730   3.932   2.222   3.390
 1933HO4    HW2 7731   4.021   2.222   3.527
 1933HO4     MW 7732   4.007   2.177   3.439
 1934HO4     OW 7733   3.185   3.549   2.078
 1934HO4    HW1 7734   3.183   3.639   2.035
 1934HO4    HW2 7735   3.109   3.493   2.043
 1934HO4     MW 7736   3.185   3.549   2.078
 1935HO4     OW 7737   4.971   1.701   2.259
 1935HO4    HW1 7738   5.061   1.662   2.236
 1935HO4    HW2 7739   4.983   1.791   2.302
 1935HO4     MW 7740   4.971   1.701   2.259
 1936HO4     OW 7741   1.740   3.043   3.622
 1936HO4    HW1 7742   1.673   3.068   3.552
 1936HO4    HW2 7743   1.696   3.044   3.712
 1936HO4     MW 7744   1.740   3.043   3.622
 1937HO4     OW 7745   3.857   4.265   0.611
 1937HO4    HW1 7746   3.763   4.252   0.579
 1937HO4    HW2 7747   3.908   4.179   0.602
 1937HO4     MW 7748   3.857   4.265   0.611
 1938HO4     OW 7749   2.352   2.913  -0.018
 1938HO4    HW1 7750   2.433   2.879   0.030
 1938HO4    HW2 7751   2.271   2.905   0.042
 1938HO4     MW 7752   2.352   2.913  -0.018
 1939HO4     OW 7753   4.942   4.248   1.513
 1939HO4    HW1 7754   4.936   4.342   1.479
 1939HO4    HW2 7755   4.990   4.191   1.446
 1939HO4     MW 7756   4.942   4.248   1.513
 1940HO4     OW 7757   0.311   1.487   4.183
 1940HO4    HW1 7758   0.242   1.443   4.125
 1940HO4    HW2 7759   0.298   1.459   4.279
 1940HO4     MW 7760   0.311   1.487   4.183
 1941HO4     OW 7761   2.466   0.889   0.447
 1941HO4    HW1 7762   2.557   0.889   0.488
 1941HO4    HW2 7763   2.407   0.954   0.497
 1941HO4     MW 7764   2.466   0.889   0.447
 1942HO4     OW 7765   0.854   0.116   1.840
 1942HO4    HW1 7766   0.820   0.205   1.872
 1942HO4    HW2 7767   0.913   0.076   1.911
 1942HO4     MW 7768   0.854   0.116   1.840
 1943HO4     OW 7769   2.536   2.722   2.997
 1943HO4    HW1 7770   2.616   2.783   2.999
 1943HO4    HW2 7771   2.514   2.693   3.090
 1943HO4     MW 7772   2.536   2.722   2.997
 1944HO4     OW 7773   3.559   4.119   0.284
 1944HO4    HW1 7774   3.516   4.103   0.373
 1944HO4    HW2 7775   3.523   4.203   0.243
 1944HO4     MW 7776   3.559   4.119   0.284
 1945HO4     OW 7777   0.889   0.990   5.339
 1945HO4    HW1 7778   0.816   1.059   5.337
 1945HO4    HW2 7779   0.978   1.034   5.322
 1945HO4     MW 7780   0.889   0.990   5.339
 1946HO4     OW 7781   5.229   2.036   1.354
 1946HO4    HW1 7782   5.203   1.958   1.412
 1946HO4    HW2 7783   5.260   2.112   1.412
 1946HO4     MW 7784   5.229   2.036   1.354
 1947HO4     OW 7785   3.191   4.293   3.997
 1947HO4    HW1 7786   3.106   4.342   3.979
 1947HO4    HW2 7787   3.220   4.244   3.914
 1947HO4     MW 7788   3.191   4.293   3.997
 1948HO4     OW 7789   2.868   3.311   3.378
 1948HO4    HW1 7790   2.882   3.269   3.288
 1948HO4    HW2 7791   2.887   3.243   3.449
 1948HO4     MW 7792   2.868   3.311   3.378
 1949HO4     OW 7793   5.371   5.208   2.184
 1949HO4    HW1 7794   5.387   5.137   2.253
 1949HO4    HW2 7795   5.273   5.209   2.159
 1949HO4     MW 7796   5.371   5.208   2.184
 1950HO4     OW 7797   2.144   0.635   3.693
 1950HO4    HW1 7798   2.144   0.675   3.601
 1950HO4    HW2 7799   2.223   0.574   3.704
 1950HO4     MW 7800   2.144   0.635   3.693
 1951HO4     OW 7801   5.012   1.565   4.329
 1951HO4    HW1 7802   5.033   1.658   4.358
 1951HO4    HW2 7803   5.090   1.505   4.351
 1951HO4     MW 7804   5.012   1.565   4.329
 1952HO4     OW 7805   1.324   0.809   5.008
 1952HO4    HW1 7806   1.382   0.814   5.090
 1952HO4    HW2 7807   1.372   0.759   4.936
 1952HO4     MW 7808   1.324   0.809   5.008
 1953HO4     OW 7809   0.555   0.752   3.787
 1953HO4    HW1 7810   0.547   0.823   3.717
 1953HO4    HW2 7811   0.470   0.699   3.790
 1953HO4     MW 7812   0.555   0.752   3.787
 1954HO4     OW 7813   3.285   5.220   4.053
 1954HO4    HW1 7814   3.280   5.146   4.120
 1954HO4    HW2 7815   3.334   5.298   4.093
 1954HO4     MW 7816   3.285   5.220   4.053
 1955HO4     OW 7817   1.450   2.478   4.923
 1955HO4    HW1 7818   1.376   2.442   4.981
 1955HO4    HW2 7819   1.513   2.533   4.978
 1955HO4     MW 7820   1.450   2.478   4.923
 1956HO4     OW 7821   3.949   0.584   4.357
 1956HO4    HW1 7822   3.967   0.669   4.307
 1956HO4    HW2 7823   3.999   0.509   4.313
 1956HO4     MW 7824   3.949   0.584   4.357
 1957HO4     OW 7825   1.712   2.985   0.543
 1957HO4    HW1 7826   1.690   2.931   0.461
 1957HO4    HW2 7827   1.690   2.931   0.625
 1957HO4     MW 7828   1.712   2.985   0.543
 1958HO4     OW 7829   3.910   4.317   3.326
 1958HO4    HW1 7830   3.896   4.248   3.398
 1958HO4    HW2 7831   3.842   4.391   3.336
 1958HO4     MW 7832   3.910   4.317   3.326
 1959HO4     OW 7833   0.339   1.161   5.487
 1959HO4    HW1 7834   0.424   1.187   5.534
 1959HO4    HW2 7835   0.337   1.203   5.396
 1959HO4     MW 7836   0.339   1.161   5.487
 1960HO4     OW 7837   1.943   1.784   0.665
 1960HO4    HW1 7838   1.950   1.718   0.590
 1960HO4    HW2 7839   1.938   1.735   0.753
 1960HO4     MW 7840   1.943   1.784   0.665
 1961HO4     OW 7841   1.197   3.203   4.370
 1961HO4    HW1 7842   1.258   3.187   4.448
 1961HO4    HW2 7843   1.250   3.234   4.291
 1961HO4     MW 7844   1.197   3.203   4.370
 1962HO4     OW 7845   3.467   2.547   0.729
 1962HO4    HW1 7846   3.517   2.468   0.765
 1962HO4    HW2 7847   3.395   2.515   0.666
 1962HO4     MW 7848   3.467   2.547   0.729
 1963HO4     OW 7849   1.831   0.396   4.555
 1963HO4    HW1 7850   1.817   0.345   4.470
 1963HO4    HW2 7851   1.812   0.337   4.634
 1963HO4     MW 7852   1.831   0.396   4.555
 1964HO4     OW 7853   4.155   3.151   0.112
 1964HO4    HW1 7854   4.076   3.088   0.108
 1964HO4    HW2 7855   4.128   3.234   0.161
 1964HO4     MW 7856   4.155   3.151   0.112
 1965HO4     OW 7857   3.621   1.793   3.102
 1965HO4    HW1 7858   3.617   1.863   3.031
 1965HO4    HW2 7859   3.613   1.702   3.060
 1965HO4     MW 7860   3.621   1.793   3.102
 1966HO4     OW 7861   1.362   4.615   5.100
 1966HO4    HW1 7862   1.268   4.588   5.124
 1966HO4    HW2 7863   1.359   4.700   5.047
 1966HO4     MW 7864   1.362   4.615   5.100
 1967HO4     OW 7865   1.242   2.188   0.304
 1967HO4    HW1 7866   1.254   2.243   0.386
 1967HO4    HW2 7867   1.253   2.245   0.222
 1967HO4     MW 7868   1.242   2.188   0.304
 1968HO4     OW 7869   0.611   1.952   4.358
 1968HO4    HW1 7870   0.701   1.920   4.391
 1968HO4    HW2 7871   0.582   1.896   4.280
 1968HO4     MW 7872   0.611   1.952   4.358
 1969HO4     OW 7873   5.351   1.137   2.230
 1969HO4    HW1 7874   5.381   1.091   2.315
 1969HO4    HW2 7875   5.399   1.225   2.222
 1969HO4     MW 7876   5.351   1.137   2.230
 1970HO4     OW 7877   1.715   2.271   3.396
 1970HO4    HW1 7878   1.758   2.236   3.312
 1970HO4    HW2 7879   1.777   2.256   3.473
 1970HO4     MW 7880   1.715   2.271   3.396
 1971HO4     OW 7881   0.406   2.162   3.801
 1971HO4    HW1 7882   0.501   2.135   3.786
 1971HO4    HW2 7883   0.379   2.229   3.731
 1971HO4     MW 7884   0.406   2.162   3.801
 1972HO4     OW 7885   1.001   1.619   3.698
 1972HO4    HW1 7886   0.938   1.684   3.654
 1972HO4    HW2 7887   0.949   1.559   3.759
 1972HO4     MW 7888   1.001   1.619   3.698
 1973HO4     OW 7889   4.763   4.179   5.127
 1973HO4    HW1 7890   4.710   4.232   5.193
 1973HO4    HW2 7891   4.839   4.235   5.092
 1973HO4     MW 7892   4.763   4.179   5.127
 1974HO4     OW 7893   0.266   3.092   3.178
 1974HO4    HW1 7894   0.310   3.004   3.158
 1974HO4    HW2 7895   0.241   3.137   3.092
 1974HO4     MW 7896   0.266   3.092   3.178
 1975HO4     OW 7897   3.591   2.283   1.978
 1975HO4    HW1 7898   3.578   2.239   2.067
 1975HO4    HW2 7899   3.538   2.369   1.975
 1975HO4     MW 7900   3.591   2.283   1.978
 1976HO4     OW 7901   1.004   0.876   0.404
 1976HO4    HW1 7902   0.990   0.802   0.471
 1976HO4    HW2 7903   1.036   0.838   0.317
 1976HO4     MW 7904   1.004   0.876   0.404
 1977HO4     OW 7905   2.980   2.521   0.620
 1977HO4    HW1 7906   2.969   2.603   0.677
 1977HO4    HW2 7907   2.904   2.515   0.555
 1977HO4     MW 7908   2.980   2.521   0.620
 1978HO4     OW 7909   0.332   2.372   3.430
 1978HO4    HW1 7910   0.421   2.412   3.456
 1978HO4    HW2 7911   0.264   2.445   3.422
 1978HO4     MW 7912   0.332   2.372   3.430
 1979HO4     OW 7913   0.194   5.116   5.246
 1979HO4    HW1 7914   0.281   5.076   5.277
 1979HO4    HW2 7915   0.137   5.137   5.326
 1979HO4     MW 7916   0.194   5.116   5.246
 1980HO4     OW 7917   2.847   0.021   3.321
 1980HO4    HW1 7918   2.893  -0.021   3.243
 1980HO4    HW2 7919   2.748   0.024   3.303
 1980HO4     MW 7920   2.847   0.021   3.321
 1981HO4     OW 7921   2.756   3.529   4.276
 1981HO4    HW1 7922   2.672   3.486   4.244
 1981HO4    HW2 7923   2.734   3.595   4.349
 1981HO4     MW 7924   2.756   3.529   4.276
 1982HO4     OW 7925   4.333   0.617   2.981
 1982HO4    HW1 7926   4.249   0.568   2.956
 1982HO4    HW2 7927   4.383   0.643   2.897
 1982HO4     MW 7928   4.333   0.617   2.981
 1983HO4     OW 7929   3.193   2.191   2.351
 1983HO4    HW1 7930   3.215   2.262   2.283
 1983HO4    HW2 7931   3.126   2.127   2.312
 1983HO4     MW 7932   3.193   2.191   2.351
 1984HO4     OW 7933   4.266   3.869   2.176
 1984HO4    HW1 7934   4.261   3.835   2.270
 1984HO4    HW2 7935   4.344   3.933   2.168
 1984HO4     MW 7936   4.266   3.869   2.176
 1985HO4     OW 7937   0.541   2.924   4.517
 1985HO4    HW1 7938   0.569   3.001   4.575
 1985HO4    HW2 7939   0.468   2.954   4.455
 1985HO4     MW 7940   0.541   2.924   4.517
 1986HO4     OW 7941   2.476   2.808   3.759
 1986HO4    HW1 7942   2.532   2.854   3.829
 1986HO4    HW2 7943   2.476   2.863   3.675
 1986HO4     MW 7944   2.476   2.808   3.759
 1987HO4     OW 7945   4.696   0.604   4.749
 1987HO4    HW1 7946   4.669   0.528   4.690
 1987HO4    HW2 7947   4.615   0.657   4.774
 1987HO4     MW 7948   4.696   0.604   4.749
 1988HO4     OW 7949   1.235   5.087   1.253
 1988HO4    HW1 7950   1.334   5.070   1.263
 1988HO4    HW2 7951   1.221   5.171   1.200
 1988HO4     MW 7952   1.235   5.087   1.253
 1989HO4     OW 7953   2.286   1.074   1.080
 1989HO4    HW1 7954   2.344   1.073   1.162
 1989HO4    HW2 7955   2.344   1.072   0.998
 1989HO4     MW 7956   2.286   1.074   1.080
 1990HO4     OW 7957   3.482   1.701   0.373
 1990HO4    HW1 7958   3.506   1.620   0.319
 1990HO4    HW2 7959   3.447   1.772   0.311
 1990HO4     MW 7960   3.482   1.701   0.373
 1991HO4     OW 7961   0.533   0.122   0.579
 1991HO4    HW1 7962   0.604   0.189   0.557
 1991HO4    HW2 7963   0.478   0.105   0.497
 1991HO4     MW 7964   0.533   0.122   0.579
 1992HO4     OW 7965   4.710   4.570   2.236
 1992HO4    HW1 7966   4.704   4.511   2.155
 1992HO4    HW2 7967   4.674   4.521   2.316
 1992HO4     MW 7968   4.710   4.570   2.236
 1993HO4     OW 7969   1.840   5.280   1.497
 1993HO4    HW1 7970   1.785   5.269   1.414
 1993HO4    HW2 7971   1.784   5.262   1.578
 1993HO4     MW 7972   1.840   5.280   1.497
 1994HO4     OW 7973   2.514   3.482   1.777
 1994HO4    HW1 7974   2.559   3.431   1.703
 1994HO4    HW2 7975   2.581   3.544   1.820
 1994HO4     MW 7976   2.514   3.482   1.777
 1995HO4     OW 7977   0.573   4.651   3.855
 1995HO4    HW1 7978   0.587   4.649   3.954
 1995HO4    HW2 7979   0.524   4.568   3.826
 1995HO4     MW 7980   0.573   4.651   3.855
 1996HO4     OW 7981   5.198   0.956   4.342
 1996HO4    HW1 7982   5.181   0.970   4.440
 1996HO4    HW2 7983   5.243   0.868   4.328
 1996HO4     MW 7984   5.198   0.956   4.342
 1997HO4     OW 7985   4.385   5.204   2.279
 1997HO4    HW1 7986   4.349   5.242   2.366
 1997HO4    HW2 7987   4.354   5.262   2.203
 1997HO4     MW 7988   4.385   5.204   2.279
 1998HO4     OW 7989   0.209   3.980   3.611
 1998HO4    HW1 7990   0.303   3.998   3.642
 1998HO4    HW2 7991   0.208   3.895   3.558
 1998HO4     MW 7992   0.209   3.980   3.611
 1999HO4     OW 7993   1.397   3.403   2.227
 1999HO4    HW1 7994   1.301   3.391   2.200
 1999HO4    HW2 7995   1.424   3.331   2.291
 1999HO4     MW 7996   1.397   3.403   2.227
 2000HO4     OW 7997   0.631   3.367   3.308
 2000HO4    HW1 7998   0.637   3.380   3.208
 2000HO4    HW2 7999   0.715   3.400   3.351
 2000HO4     MW 8000   0.631   3.367   3.308
 2001HO4     OW 8001   2.304   2.627   2.126
 2001HO4    HW1 8002   2.338   2.592   2.038
 2001HO4    HW2 8003   2.235   2.698   2.109
 2001HO4     MW 8004   2.304   2.627   2.126
 2002HO4     OW 8005   4.880   2.310   1.588
 2002HO4    HW1 8006   4.890   2.272   1.495
 2002HO4    HW2 8007   4.811   2.257   1.638
 2002HO4     MW 8008   4.880   2.310   1.588
 2003HO4     OW 8009   1.829   2.738   4.865
 2003HO4    HW1 8010   1.805   2.826   4.906
 2003HO4    HW2 8011   1.748   2.680   4.861
 2003HO4     MW 8012   1.829   2.738   4.865
 2004HO4     OW 8013   2.723   4.262   2.658
 2004HO4    HW1 8014   2.733   4.166   2.630
 2004HO4    HW2 8015   2.703   4.319   2.578
 2004HO4     MW 8016   2.723   4.262   2.658
 2005HO4     OW 8017   3.478   0.578   3.026
 2005HO4    HW1 8018   3.447   0.493   3.069
 2005HO4    HW2 8019   3.578   0.574   3.013
 2005HO4     MW 8020   3.478   0.578   3.026
 2006HO4     OW 8021   5.334   4.563   4.644
 2006HO4    HW1 8022   5.355   4.497   4.716
 2006HO4    HW2 8023   5.235   4.569   4.631
 2006HO4     MW 8024   5.334   4.563   4.644
 2007HO4     OW 8025   5.332   1.325   4.163
 2007HO4    HW1 8026   5.299   1.238   4.125
 2007HO4    HW2 8027   5.315   1.326   4.262
 2007HO4     MW 8028   5.332   1.325   4.163
 2008HO4     OW 8029   0.798   2.864   4.107
 2008HO4    HW1 8030   0.755   2.840   4.020
 2008HO4    HW2 8031   0.774   2.958   4.132
 2008HO4     MW 8032   0.798   2.864   4.107
 2009HO4     OW 8033   3.924   3.376   5.309
 2009HO4    HW1 8034   3.906   3.460   5.257
 2009HO4    HW2 8035   3.902   3.392   5.406
 2009HO4     MW 8036   3.924   3.376   5.309
 2010HO4     OW 8037   3.604   3.705   3.424
 2010HO4    HW1 8038   3.572   3.784   3.477
 2010HO4    HW2 8039   3.569   3.711   3.330
 2010HO4     MW 8040   3.604   3.705   3.424
 2011HO4     OW 8041   2.558   1.377   4.166
 2011HO4    HW1 8042   2.516   1.417   4.248
 2011HO4    HW2 8043   2.498   1.306   4.128
 2011HO4     MW 8044   2.558   1.377   4.166
 2012HO4     OW 8045   4.564   2.305   1.940
 2012HO4    HW1 8046   4.489   2.304   2.007
 2012HO4    HW2 8047   4.526   2.306   1.847
 2012HO4     MW 8048   4.564   2.305   1.940
 2013HO4     OW 8049   2.903   4.223   5.329
 2013HO4    HW1 8050   2.923   4.265   5.240
 2013HO4    HW2 8051   2.810   4.246   5.357
 2013HO4     MW 8052   2.903   4.223   5.329
 2014HO4     OW 8053   4.106   4.391   2.469
 2014HO4    HW1 8054   4.203   4.405   2.446
 2014HO4    HW2 8055   4.099   4.331   2.549
 2014HO4     MW 8056   4.106   4.391   2.469
 2015HO4     OW 8057   3.443   1.981   3.253
 2015HO4    HW1 8058   3.461   2.002   3.350
 2015HO4    HW2 8059   3.527   1.997   3.200
 2015HO4     MW 8060   3.443   1.981   3.253
 2016HO4     OW 8061   4.524   4.703   1.891
 2016HO4    HW1 8062   4.437   4.673   1.932
 2016HO4    HW2 8063   4.600   4.675   1.952
 2016HO4     MW 8064   4.524   4.703   1.891
 2017HO4     OW 8065   1.929   2.946   4.714
 2017HO4    HW1 8066   2.023   2.919   4.690
 2017HO4    HW2 8067   1.914   3.041   4.687
 2017HO4     MW 8068   1.929   2.946   4.714
 2018HO4     OW 8069   0.899   3.946   5.223
 2018HO4    HW1 8070   0.900   3.851   5.255
 2018HO4    HW2 8071   0.853   3.951   5.134
 2018HO4     MW 8072   0.899   3.946   5.223
 2019HO4     OW 8073   3.236   1.971   1.633
 2019HO4    HW1 8074   3.281   1.953   1.545
 2019HO4    HW2 8075   3.303   1.962   1.707
 2019HO4     MW 8076   3.236   1.971   1.633
 2020HO4     OW 8077   1.694   0.866   1.908
 2020HO4    HW1 8078   1.733   0.826   1.991
 2020HO4    HW2 8079   1.594   0.858   1.912
 2020HO4     MW 8080   1.694   0.866   1.908
 2021HO4     OW 8081   1.149   2.898   2.598
 2021HO4    HW1 8082   1.100   2.983   2.620
 2021HO4    HW2 8083   1.143   2.882   2.499
 2021HO4     MW 8084   1.149   2.898   2.598
 2022HO4     OW 8085   0.285   2.684   2.314
 2022HO4    HW1 8086   0.259   2.683   2.411
 2022HO4    HW2 8087   0.369   2.629   2.301
 2022HO4     MW 8088   0.285   2.684   2.314
 2023HO4     OW 8089   3.867   3.853   1.948
 2023HO4    HW1 8090   3.872   3.928   2.015
 2023HO4    HW2 8091   3.847   3.890   1.857
 2023HO4     MW 8092   3.867   3.853   1.948
 2024HO4     OW 8093   0.088   0.935   4.649
 2024HO4    HW1 8094   0.038   0.892   4.726
 2024HO4    HW2 8095   0.024   0.993   4.597
 2024HO4     MW 8096   0.088   0.935   4.649
 2025HO4     OW 8097   1.314   3.056   0.316
 2025HO4    HW1 8098   1.288   3.131   0.378
 2025HO4    HW2 8099   1.231   3.010   0.282
 2025HO4     MW 8100   1.314   3.056   0.316
 2026HO4     OW 8101   4.590   3.394   1.660
 2026HO4    HW1 8102   4.631   3.401   1.569
 2026HO4    HW2 8103   4.645   3.333   1.718
 2026HO4     MW 8104   4.590   3.394   1.660
 2027HO4     OW 8105   1.087   0.300   0.485
 2027HO4    HW1 8106   0.992   0.295   0.452
 2027HO4    HW2 8107   1.150   0.281   0.409
 2027HO4     MW 8108   1.087   0.300   0.485
 2028HO4     OW 8109   3.518   0.306   4.038
 2028HO4    HW1 8110   3.506   0.291   4.136
 2028HO4    HW2 8111   3.594   0.249   4.004
 2028HO4     MW 8112   3.518   0.306   4.038
 2029HO4     OW 8113   2.632   1.230   3.401
 2029HO4    HW1 8114   2.635   1.272   3.310
 2029HO4    HW2 8115   2.542   1.187   3.415
 2029HO4     MW 8116   2.632   1.230   3.401
 2030HO4     OW 8117   3.949   4.742   5.326
 2030HO4    HW1 8118   3.991   4.824   5.286
 2030HO4    HW2 8119   3.905   4.766   5.413
 2030HO4     MW 8120   3.949   4.742   5.326
 2031HO4     OW 8121   1.990   4.240   4.142
 2031HO4    HW1 8122   1.985   4.210   4.237
 2031HO4    HW2 8123   2.043   4.325   4.135
 2031HO4     MW 8124   1.990   4.240   4.142
 2032HO4     OW 8125   0.003   3.090   3.683
 2032HO4    HW1 8126   0.078   3.038   3.725
 2032HO4    HW2 8127  -0.084   3.057   3.719
 2032HO4     MW 8128   0.003   3.090   3.683
 2033HO4     OW 8129   1.295   1.366   3.512
 2033HO4    HW1 8130   1.272   1.305   3.435
 2033HO4    HW2 8131   1.278   1.318   3.599
 2033HO4     MW 8132   1.295   1.366   3.512
 2034HO4     OW 8133   2.850   4.645   4.745
 2034HO4    HW1 8134   2.850   4.743   4.764
 2034HO4    HW2 8135   2.781   4.624   4.675
 2034HO4     MW 8136   2.850   4.645   4.745
 2035HO4     OW 8137   4.002   0.021   4.954
 2035HO4    HW1 8138   4.015   0.070   5.040
 2035HO4    HW2 8139   4.008   0.085   4.877
 2035HO4     MW 8140   4.002   0.021   4.954
 2036HO4     OW 8141   1.141   2.550   0.160
 2036HO4    HW1 8142   1.183   2.601   0.236
 2036HO4    HW2 8143   1.075   2.609   0.113
 2036HO4     MW 8144   1.141   2.550   0.160
 2037HO4     OW 8145   4.359   0.303   5.388
 2037HO4    HW1 8146   4.407   0.233   5.441
 2037HO4    HW2 8147   4.264   0.311   5.419
 2037HO4     MW 8148   4.359   0.303   5.388
 2038HO4     OW 8149   0.354   3.902   0.372
 2038HO4    HW1 8150   0.357   3.839   0.294
 2038HO4    HW2 8151   0.406   3.863   0.449
 2038HO4     MW 8152   0.354   3.902   0.372
 2039HO4     OW 8153   4.076   1.603   5.026
 2039HO4    HW1 8154   4.135   1.678   5.059
 2039HO4    HW2 8155   4.038   1.555   5.105
 2039HO4     MW 8156   4.076   1.603   5.026
 2040HO4     OW 8157   2.830   0.590   4.998
 2040HO4    HW1 8158   2.929   0.582   5.013
 2040HO4    HW2 8159   2.811   0.603   4.900
 2040HO4     MW 8160   2.830   0.590   4.998
 2041HO4     OW 8161   4.943   4.717   2.194
 2041HO4    HW1 8162   4.872   4.784   2.219
 2041HO4    HW2 8163   4.919   4.675   2.106
 2041HO4     MW 8164   4.943   4.717   2.194
 2042HO4     OW 8165   4.769   2.209   4.602
 2042HO4    HW1 8166   4.726   2.259   4.526
 2042HO4    HW2 8167   4.859   2.176   4.574
 2042HO4     MW 8168   4.769   2.209   4.602
 2043HO4     OW 8169   0.217   3.579   3.229
 2043HO4    HW1 8170   0.173   3.537   3.308
 2043HO4    HW2 8171   0.215   3.679   3.238
 2043HO4     MW 8172   0.217   3.579   3.229
 2044HO4     OW 8173   1.843   4.746   1.829
 2044HO4    HW1 8174   1.854   4.706   1.738
 2044HO4    HW2 8175   1.798   4.679   1.889
 2044HO4     MW 8176   1.843   4.746   1.829
 2045HO4     OW 8177   1.166   1.231   5.188
 2045HO4    HW1 8178   1.245   1.258   5.245
 2045HO4    HW2 8179   1.142   1.307   5.127
 2045HO4     MW 8180   1.166   1.231   5.188
 2046HO4     OW 8181   0.857   5.064   3.778
 2046HO4    HW1 8182   0.877   5.111   3.865
 2046HO4    HW2 8183   0.879   5.125   3.702
 2046HO4     MW 8184   0.857   5.064   3.778
 2047HO4     OW 8185   4.908   2.874   4.547
 2047HO4    HW1 8186   4.849   2.794   4.559
 2047HO4    HW2 8187   4.990   2.846   4.495
 2047HO4     MW 8188   4.908   2.874   4.547
 2048HO4     OW 8189   5.055   2.971   0.952
 2048HO4    HW1 8190   5.079   2.960   0.855
 2048HO4    HW2 8191   5.126   2.928   1.009
 2048HO4     MW 8192   5.055   2.971   0.952
 2049HO4     OW 8193   3.038   3.766   1.616
 2049HO4    HW1 8194   3.073   3.842   1.671
 2049HO4    HW2 8195   2.971   3.800   1.549
 2049HO4     MW 8196   3.038   3.766   1.616
 2050HO4     OW 8197   3.738   3.879   0.949
 2050HO4    HW1 8198   3.766   3.832   0.864
 2050HO4    HW2 8199   3.779   3.832   1.027
 2050HO4     MW 8200   3.738   3.879   0.949
 2051HO4     OW 8201   0.079   3.019   5.147
 2051HO4    HW1 8202   0.118   3.071   5.225
 2051HO4    HW2 8203   0.153   2.972   5.098
 2051HO4     MW 8204   0.079   3.019   5.147
 2052HO4     OW 8205   0.749   0.432   0.144
 2052HO4    HW1 8206   0.753   0.338   0.109
 2052HO4    HW2 8207   0.840   0.459   0.177
 2052HO4     MW 8208   0.749   0.432   0.144
 2053HO4     OW 8209   0.308   2.683   3.329
 2053HO4    HW1 8210   0.260   2.653   3.246
 2053HO4    HW2 8211   0.395   2.633   3.337
 2053HO4     MW 8212   0.308   2.683   3.329
 2054HO4     OW 8213   1.672   1.294   1.845
 2054HO4    HW1 8214   1.734   1.354   1.896
 2054HO4    HW2 8215   1.602   1.350   1.799
 2054HO4     MW 8216   1.672   1.294   1.845
 2055HO4     OW 8217   5.170   2.970   3.035
 2055HO4    HW1 8218   5.076   2.984   3.005
 2055HO4    HW2 8219   5.180   3.000   3.130
 2055HO4     MW 8220   5.170   2.970   3.035
 2056HO4     OW 8221   4.769   2.540   2.432
 2056HO4    HW1 8222   4.700   2.485   2.481
 2056HO4    HW2 8223   4.726   2.623   2.396
 2056HO4     MW 8224   4.769   2.540   2.432
 2057HO4     OW 8225   0.905   2.737   4.744
 2057HO4    HW1 8226   0.934   2.653   4.696
 2057HO4    HW2 8227   0.817   2.768   4.708
 2057HO4     MW 8228   0.905   2.737   4.744
 2058HO4     OW 8229   2.552   1.227   1.944
 2058HO4    HW1 8230   2.612   1.265   1.873
 2058HO4    HW2 8231   2.578   1.266   2.033
 2058HO4     MW 8232   2.552   1.227   1.944
 2059HO4     OW 8233   3.022   4.971   3.683
 2059HO4    HW1 8234   3.069   4.883   3.697
 2059HO4    HW2 8235   2.947   4.980   3.749
 2059HO4     MW 8236   3.022   4.971   3.683
 2060HO4     OW 8237   4.850   2.849   2.761
 2060HO4    HW1 8238   4.945   2.825   2.739
 2060HO4    HW2 8239   4.831   2.826   2.857
 2060HO4     MW 8240   4.850   2.849   2.761
 2061HO4     OW 8241   4.719   0.585   5.420
 2061HO4    HW1 8242   4.734   0.487   5.406
 2061HO4    HW2 8243   4.718   0.632   5.332
 2061HO4     MW 8244   4.719   0.585   5.420
 2062HO4     OW 8245   0.194   4.585   2.381
 2062HO4    HW1 8246   0.214   4.534   2.297
 2062HO4    HW2 8247   0.225   4.533   2.461
 2062HO4     MW 8248   0.194   4.585   2.381
 2063HO4     OW 8249   0.804   2.779   2.705
 2063HO4    HW1 8250   0.744   2.854   2.676
 2063HO4    HW2 8251   0.782   2.754   2.800
 2063HO4     MW 8252   0.804   2.779   2.705
 2064HO4     OW 8253   0.355   4.199   2.312
 2064HO4    HW1 8254   0.442   4.187   2.263
 2064HO4    HW2 8255   0.373   4.232   2.405
 2064HO4     MW 8256   0.355   4.199   2.312
 2065HO4     OW 8257   4.745   4.047   3.673
 2065HO4    HW1 8258   4.811   4.100   3.727
 2065HO4    HW2 8259   4.652   4.067   3.705
 2065HO4     MW 8260   4.745   4.047   3.673
 2066HO4     OW 8261   3.320   2.723   0.518
 2066HO4    HW1 8262   3.364   2.796   0.572
 2066HO4    HW2 8263   3.268   2.663   0.580
 2066HO4     MW 8264   3.320   2.723   0.518
 2067HO4     OW 8265   1.533   0.821   1.271
 2067HO4    HW1 8266   1.591   0.899   1.248
 2067HO4    HW2 8267   1.588   0.750   1.316
 2067HO4     MW 8268   1.533   0.821   1.271
 2068HO4     OW 8269   2.286   4.360   5.269
 2068HO4    HW1 8270   2.379   4.374   5.304
 2068HO4    HW2 8271   2.289   4.301   5.188
 2068HO4     MW 8272   2.286   4.360   5.269
 2069HO4     OW 8273   1.299   4.459   4.873
 2069HO4    HW1 8274   1.246   4.449   4.958
 2069HO4    HW2 8275   1.236   4.478   4.796
 2069HO4     MW 8276   1.299   4.459   4.873
 2070HO4     OW 8277   2.895   3.253   4.235
 2070HO4    HW1 8278   2.870   3.334   4.288
 2070HO4    HW2 8279   2.992   3.258   4.210
 2070HO4     MW 8280   2.895   3.253   4.235
 2071HO4     OW 8281   5.209   0.267   1.174
 2071HO4    HW1 8282   5.249   0.270   1.266
 2071HO4    HW2 8283   5.272   0.220   1.111
 2071HO4     MW 8284   5.209   0.267   1.174
 2072HO4     OW 8285   1.579   2.217   0.214
 2072HO4    HW1 8286   1.610   2.244   0.122
 2072HO4    HW2 8287   1.518   2.138   0.207
 2072HO4     MW 8288   1.579   2.217   0.214
 2073HO4     OW 8289   4.755   4.795   4.567
 2073HO4    HW1 8290   4.830   4.779   4.631
 2073HO4    HW2 8291   4.781   4.868   4.503
 2073HO4     MW 8292   4.755   4.795   4.567
 2074HO4     OW 8293   1.073   1.835   0.034
 2074HO4    HW1 8294   0.974   1.836   0.053
 2074HO4    HW2 8295   1.115   1.918   0.072
 2074HO4     MW 8296   1.073   1.835   0.034
 2075HO4     OW 8297   2.222   1.626   4.912
 2075HO4    HW1 8298   2.262   1.667   4.994
 2075HO4    HW2 8299   2.235   1.689   4.834
 2075HO4     MW 8300   2.222   1.626   4.912
 2076HO4     OW 8301   1.726   1.020   4.224
 2076HO4    HW1 8302   1.826   1.016   4.217
 2076HO4    HW2 8303   1.690   0.927   4.236
 2076HO4     MW 8304   1.726   1.020   4.224
 2077HO4     OW 8305   4.322   1.462   0.121
 2077HO4    HW1 8306   4.373   1.545   0.147
 2077HO4    HW2 8307   4.224   1.478   0.135
 2077HO4     MW 8308   4.322   1.462   0.121
 2078HO4     OW 8309   0.956   2.658   0.344
 2078HO4    HW1 8310   0.934   2.582   0.405
 2078HO4    HW2 8311   0.996   2.622   0.259
 2078HO4     MW 8312   0.956   2.658   0.344
 2079HO4     OW 8313   1.876   3.649   4.498
 2079HO4    HW1 8314   1.836   3.730   4.454
 2079HO4    HW2 8315   1.932   3.678   4.576
 2079HO4     MW 8316   1.876   3.649   4.498
 2080HO4     OW 8317   2.116   2.547   0.145
 2080HO4    HW1 8318   2.054   2.477   0.183
 2080HO4    HW2 8319   2.076   2.638   0.158
 2080HO4     MW 8320   2.116   2.547   0.145
 2081HO4     OW 8321   5.409   4.135   1.488
 2081HO4    HW1 8322   5.406   4.104   1.393
 2081HO4    HW2 8323   5.316   4.144   1.524
 2081HO4     MW 8324   5.409   4.135   1.488
 2082HO4     OW 8325   4.481   1.355   2.292
 2082HO4    HW1 8326   4.462   1.309   2.380
 2082HO4    HW2 8327   4.413   1.325   2.224
 2082HO4     MW 8328   4.481   1.355   2.292
 2083HO4     OW 8329   0.504   3.877   2.156
 2083HO4    HW1 8330   0.409   3.903   2.171
 2083HO4    HW2 8331   0.534   3.816   2.231
 2083HO4     MW 8332   0.504   3.877   2.156
 2084HO4     OW 8333   3.024   0.300   3.087
 2084HO4    HW1 8334   3.107   0.356   3.085
 2084HO4    HW2 8335   2.995   0.281   2.992
 2084HO4     MW 8336   3.024   0.300   3.087
 2085HO4     OW 8337   4.265   0.588   5.327
 2085HO4    HW1 8338   4.249   0.535   5.411
 2085HO4    HW2 8339   4.228   0.681   5.339
 2085HO4     MW 8340   4.265   0.588   5.327
 2086HO4     OW 8341   2.301   4.279   0.449
 2086HO4    HW1 8342   2.391   4.307   0.412
 2086HO4    HW2 8343   2.310   4.258   0.547
 2086HO4     MW 8344   2.301   4.279   0.449
 2087HO4     OW 8345   1.963   0.290   4.206
 2087HO4    HW1 8346   1.952   0.245   4.296
 2087HO4    HW2 8347   2.061   0.297   4.184
 2087HO4     MW 8348   1.963   0.290   4.206
 2088HO4     OW 8349   1.532   3.406   0.302
 2088HO4    HW1 8350   1.558   3.314   0.334
 2088HO4    HW2 8351   1.455   3.398   0.237
 2088HO4     MW 8352   1.532   3.406   0.302
 2089HO4     OW 8353   5.399   4.594   2.010
 2089HO4    HW1 8354   5.397   4.568   2.108
 2089HO4    HW2 8355   5.470   4.540   1.964
 2089HO4     MW 8356   5.399   4.594   2.010
 2090HO4     OW 8357   5.087   1.550   0.671
 2090HO4    HW1 8358   5.137   1.614   0.611
 2090HO4    HW2 8359   5.122   1.560   0.765
 2090HO4     MW 8360   5.087   1.550   0.671
 2091HO4     OW 8361   5.017   1.292   4.588
 2091HO4    HW1 8362   4.981   1.206   4.551
 2091HO4    HW2 8363   4.963   1.318   4.669
 2091HO4     MW 8364   5.017   1.292   4.588
 2092HO4     OW 8365   4.415   1.809   0.312
 2092HO4    HW1 8366   4.341   1.810   0.244
 2092HO4    HW2 8367   4.445   1.715   0.328
 2092HO4     MW 8368   4.415   1.809   0.312
 2093HO4     OW 8369   3.907   2.787   3.807
 2093HO4    HW1 8370   3.978   2.802   3.739
 2093HO4    HW2 8371   3.938   2.717   3.873
 2093HO4     MW 8372   3.907   2.787   3.807
 2094HO4     OW 8373   3.683   2.792   4.035
 2094HO4    HW1 8374   3.593   2.837   4.037
 2094HO4    HW2 8375   3.745   2.840   4.098
 2094HO4     MW 8376   3.683   2.792   4.035
 2095HO4     OW 8377   1.944   1.951   3.656
 2095HO4    HW1 8378   2.042   1.961   3.680
 2095HO4    HW2 8379   1.935   1.933   3.558
 2095HO4     MW 8380   1.944   1.951   3.656
 2096HO4     OW 8381   5.172   3.084   3.669
 2096HO4    HW1 8382   5.149   3.072   3.572
 2096HO4    HW2 8383   5.232   3.164   3.679
 2096HO4     MW 8384   5.172   3.084   3.669
 2097HO4     OW 8385   4.669   4.751   2.398
 2097HO4    HW1 8386   4.573   4.725   2.410
 2097HO4    HW2 8387   4.696   4.736   2.302
 2097HO4     MW 8388   4.669   4.751   2.398
 2098HO4     OW 8389   3.194   2.572   4.775
 2098HO4    HW1 8390   3.196   2.580   4.675
 2098HO4    HW2 8391   3.229   2.482   4.802
 2098HO4     MW 8392   3.194   2.572   4.775
 2099HO4     OW 8393   0.083   4.373   4.263
 2099HO4    HW1 8394  -0.007   4.345   4.228
 2099HO4    HW2 8395   0.156   4.327   4.211
 2099HO4     MW 8396   0.083   4.373   4.263
 2100HO4     OW 8397   2.981   2.434   1.297
 2100HO4    HW1 8398   2.914   2.392   1.235
 2100HO4    HW2 8399   2.947   2.429   1.391
 2100HO4     MW 8400   2.981   2.434   1.297
 2101HO4     OW 8401   2.356   2.111   3.871
 2101HO4    HW1 8402   2.330   2.066   3.785
 2101HO4    HW2 8403   2.279   2.107   3.935
 2101HO4     MW 8404   2.356   2.111   3.871
 2102HO4     OW 8405   4.978   1.504   1.639
 2102HO4    HW1 8406   4.878   1.513   1.637
 2102HO4    HW2 8407   5.010   1.501   1.734
 2102HO4     MW 8408   4.978   1.504   1.639
 2103HO4     OW 8409   0.050   1.078   5.268
 2103HO4    HW1 8410   0.087   1.069   5.175
 2103HO4    HW2 8411   0.125   1.065   5.335
 2103HO4     MW 8412   0.050   1.078   5.268
 2104HO4     OW 8413   5.169   2.346   1.105
 2104HO4    HW1 8414   5.115   2.274   1.149
 2104HO4    HW2 8415   5.129   2.370   1.016
 2104HO4     MW 8416   5.169   2.346   1.105
 2105HO4     OW 8417   1.521   4.985   2.299
 2105HO4    HW1 8418   1.460   5.040   2.242
 2105HO4    HW2 8419   1.612   5.027   2.301
 2105HO4     MW 8420   1.521   4.985   2.299
 2106HO4     OW 8421   4.295   3.584   2.792
 2106HO4    HW1 8422   4.325   3.548   2.881
 2106HO4    HW2 8423   4.202   3.553   2.773
 2106HO4     MW 8424   4.295   3.584   2.792
 2107HO4     OW 8425   0.110   4.276   1.513
 2107HO4    HW1 8426   0.132   4.327   1.429
 2107HO4    HW2 8427   0.164   4.192   1.517
 2107HO4     MW 8428   0.110   4.276   1.513
 2108HO4     OW 8429   4.756   5.155   2.650
 2108HO4    HW1 8430   4.812   5.171   2.568
 2108HO4    HW2 8431   4.815   5.162   2.732
 2108HO4     MW 8432   4.756   5.155   2.650
 2109HO4     OW 8433   4.337   3.825   0.435
 2109HO4    HW1 8434   4.254   3.850   0.485
 2109HO4    HW2 8435   4.313   3.763   0.360
 2109HO4     MW 8436   4.337   3.825   0.435
 2110HO4     OW 8437   2.288   1.787   4.330
 2110HO4    HW1 8438   2.373   1.775   4.383
 2110HO4    HW2 8439   2.210   1.766   4.389
 2110HO4     MW 8440   2.288   1.787   4.330
 2111HO4     OW 8441   2.326   5.475   2.541
 2111HO4    HW1 8442   2.390   5.474   2.619
 2111HO4    HW2 8443   2.284   5.385   2.531
 2111HO4     MW 8444   2.326   5.475   2.541
 2112HO4     OW 8445   4.652   4.375   1.246
 2112HO4    HW1 8446   4.667   4.405   1.152
 2112HO4    HW2 8447   4.658   4.455   1.308
 2112HO4     MW 8448   4.652   4.375   1.246
 2113HO4     OW 8449   1.605   1.997   1.742
 2113HO4    HW1 8450   1.518   1.955   1.771
 2113HO4    HW2 8451   1.681   1.941   1.776
 2113HO4     MW 8452   1.605   1.997   1.742
 2114HO4     OW 8453   1.356   2.989   3.441
 2114HO4    HW1 8454   1.326   3.021   3.531
 2114HO4    HW2 8455   1.320   3.050   3.370
 2114HO4     MW 8456   1.356   2.989   3.441
 2115HO4     OW 8457   2.374   4.978   1.875
 2115HO4    HW1 8458   2.275   4.967   1.878
 2115HO4    HW2 8459   2.405   5.031   1.955
 2115HO4     MW 8460   2.374   4.978   1.875
 2116HO4     OW 8461   4.281   1.004   1.492
 2116HO4    HW1 8462   4.324   0.944   1.560
 2116HO4    HW2 8463   4.226   1.074   1.538
 2116HO4     MW 8464   4.281   1.004   1.492
 2117HO4     OW 8465   1.845   5.143   3.740
 2117HO4    HW1 8466   1.800   5.188   3.662
 2117HO4    HW2 8467   1.825   5.194   3.824
 2117HO4     MW 8468   1.845   5.143   3.740
 2118HO4     OW 8469   1.275   3.963   3.247
 2118HO4    HW1 8470   1.303   4.026   3.320
 2118HO4    HW2 8471   1.346   3.893   3.235
 2118HO4     MW 8472   1.275   3.963   3.247
 2119HO4     OW 8473   0.349   4.903   3.082
 2119HO4    HW1 8474   0.436   4.856   3.100
 2119HO4    HW2 8475   0.307   4.866   2.998
 2119HO4     MW 8476   0.349   4.903   3.082
 2120HO4     OW 8477   2.138   4.829   3.398
 2120HO4    HW1 8478   2.159   4.900   3.330
 2120HO4    HW2 8479   2.202   4.836   3.475
 2120HO4     MW 8480   2.138   4.829   3.398
 2121HO4     OW 8481   5.243   2.593   1.573
 2121HO4    HW1 8482   5.233   2.583   1.474
 2121HO4    HW2 8483   5.260   2.690   1.596
 2121HO4     MW 8484   5.243   2.593   1.573
 2122HO4     OW 8485   4.071   3.422   3.463
 2122HO4    HW1 8486   4.013   3.434   3.544
 2122HO4    HW2 8487   4.017   3.438   3.380
 2122HO4     MW 8488   4.071   3.422   3.463
 2123HO4     OW 8489   3.029   3.331   1.489
 2123HO4    HW1 8490   3.098   3.400   1.511
 2123HO4    HW2 8491   3.031   3.258   1.558
 2123HO4     MW 8492   3.029   3.331   1.489
 2124HO4     OW 8493   4.427   1.905   3.844
 2124HO4    HW1 8494   4.435   2.005   3.832
 2124HO4    HW2 8495   4.460   1.859   3.761
 2124HO4     MW 8496   4.427   1.905   3.844
 2125HO4     OW 8497   3.337   5.291   0.535
 2125HO4    HW1 8498   3.318   5.204   0.582
 2125HO4    HW2 8499   3.296   5.367   0.587
 2125HO4     MW 8500   3.337   5.291   0.535
 2126HO4     OW 8501   1.472   1.022   2.535
 2126HO4    HW1 8502   1.492   0.957   2.609
 2126HO4    HW2 8503   1.518   0.992   2.451
 2126HO4     MW 8504   1.472   1.022   2.535
 2127HO4     OW 8505   2.087   4.309   1.933
 2127HO4    HW1 8506   2.096   4.409   1.942
 2127HO4    HW2 8507   2.029   4.288   1.854
 2127HO4     MW 8508   2.087   4.309   1.933
 2128HO4     OW 8509   4.205   0.452   0.781
 2128HO4    HW1 8510   4.123   0.457   0.722
 2128HO4    HW2 8511   4.285   0.483   0.729
 2128HO4     MW 8512   4.205   0.452   0.781
 2129HO4     OW 8513   1.750   1.949   0.153
 2129HO4    HW1 8514   1.669   1.908   0.111
 2129HO4    HW2 8515   1.722   2.006   0.231
 2129HO4     MW 8516   1.750   1.949   0.153
 2130HO4     OW 8517   4.826   5.337   0.380
 2130HO4    HW1 8518   4.900   5.333   0.313
 2130HO4    HW2 8519   4.860   5.307   0.469
 2130HO4     MW 8520   4.826   5.337   0.380
 2131HO4     OW 8521   0.770   5.022   0.403
 2131HO4    HW1 8522   0.848   5.070   0.363
 2131HO4    HW2 8523   0.712   4.985   0.329
 2131HO4     MW 8524   0.770   5.022   0.403
 2132HO4     OW 8525   0.660   2.236   4.052
 2132HO4    HW1 8526   0.727   2.270   4.119
 2132HO4    HW2 8527   0.630   2.311   3.993
 2132HO4     MW 8528   0.660   2.236   4.052
 2133HO4     OW 8529   0.313   2.577   5.183
 2133HO4    HW1 8530   0.231   2.622   5.146
 2133HO4    HW2 8531   0.378   2.647   5.213
 2133HO4     MW 8532   0.313   2.577   5.183
 2134HO4     OW 8533   1.726   0.247   2.427
 2134HO4    HW1 8534   1.773   0.206   2.348
 2134HO4    HW2 8535   1.766   0.212   2.512
 2134HO4     MW 8536   1.726   0.247   2.427
 2135HO4     OW 8537   3.361   4.005   5.045
 2135HO4    HW1 8538   3.271   4.048   5.051
 2135HO4    HW2 8539   3.357   3.913   5.086
 2135HO4     MW 8540   3.361   4.005   5.045
 2136HO4     OW 8541   1.953   0.997   5.439
 2136HO4    HW1 8542   1.890   1.001   5.518
 2136HO4    HW2 8543   2.011   1.080   5.439
 2136HO4     MW 8544   1.953   0.997   5.439
 2137HO4     OW 8545   2.960   5.217   1.381
 2137HO4    HW1 8546   2.957   5.273   1.298
 2137HO4    HW2 8547   2.938   5.274   1.461
 2137HO4     MW 8548   2.960   5.217   1.381
 2138HO4     OW 8549   4.217   4.813   4.337
 2138HO4    HW1 8550   4.247   4.724   4.374
 2138HO4    HW2 8551   4.196   4.876   4.412
 2138HO4     MW 8552   4.217   4.813   4.337
 2139HO4     OW 8553   3.134   2.909   3.409
 2139HO4    HW1 8554   3.177   2.860   3.332
 2139HO4    HW2 8555   3.103   2.842   3.478
 2139HO4     MW 8556   3.134   2.909   3.409
 2140HO4     OW 8557   5.128   1.738   1.942
 2140HO4    HW1 8558   5.195   1.742   1.868
 2140HO4    HW2 8559   5.057   1.808   1.926
 2140HO4     MW 8560   5.128   1.738   1.942
 2141HO4     OW 8561   4.925   3.360   1.523
 2141HO4    HW1 8562   4.985   3.305   1.464
 2141HO4    HW2 8563   4.930   3.325   1.617
 2141HO4     MW 8564   4.925   3.360   1.523
 2142HO4     OW 8565   0.346   3.011   4.727
 2142HO4    HW1 8566   0.422   2.975   4.673
 2142HO4    HW2 8567   0.382   3.067   4.802
 2142HO4     MW 8568   0.346   3.011   4.727
 2143HO4     OW 8569   1.285   1.914   0.301
 2143HO4    HW1 8570   1.285   1.973   0.382
 2143HO4    HW2 8571   1.313   1.821   0.327
 2143HO4     MW 8572   1.285   1.914   0.301
 2144HO4     OW 8573   4.171   1.958   1.138
 2144HO4    HW1 8574   4.132   2.015   1.211
 2144HO4    HW2 8575   4.178   2.013   1.054
 2144HO4     MW 8576   4.171   1.958   1.138
 2145HO4     OW 8577   4.244   1.681   4.266
 2145HO4    HW1 8578   4.305   1.734   4.326
 2145HO4    HW2 8579   4.209   1.601   4.316
 2145HO4     MW 8580   4.244   1.681   4.266
 2146HO4     OW 8581   0.272   4.092   2.929
 2146HO4    HW1 8582   0.291   4.028   3.004
 2146HO4    HW2 8583   0.255   4.039   2.844
 2146HO4     MW 8584   0.272   4.092   2.929
 2147HO4     OW 8585   2.923   3.329   4.485
 2147HO4    HW1 8586   2.850   3.260   4.479
 2147HO4    HW2 8587   2.924   3.370   4.577
 2147HO4     MW 8588   2.923   3.329   4.485
 2148HO4     OW 8589   2.277   2.725   2.494
 2148HO4    HW1 8590   2.341   2.745   2.569
 2148HO4    HW2 8591   2.260   2.809   2.442
 2148HO4     MW 8592   2.277   2.725   2.494
 2149HO4     OW 8593   2.726   0.140   3.742
 2149HO4    HW1 8594   2.819   0.155   3.707
 2149HO4    HW2 8595   2.680   0.228   3.754
 2149HO4     MW 8596   2.726   0.140   3.742
 2150HO4     OW 8597   1.271   3.684   5.217
 2150HO4    HW1 8598   1.230   3.714   5.131
 2150HO4    HW2 8599   1.364   3.720   5.225
 2150HO4     MW 8600   1.271   3.684   5.217
 2151HO4     OW 8601   5.122   2.410   2.424
 2151HO4    HW1 8602   5.048   2.380   2.485
 2151HO4    HW2 8603   5.153   2.501   2.451
 2151HO4     MW 8604   5.122   2.410   2.424
 2152HO4     OW 8605   3.894   0.762   0.322
 2152HO4    HW1 8606   3.888   0.725   0.229
 2152HO4    HW2 8607   3.824   0.718   0.379
 2152HO4     MW 8608   3.894   0.762   0.322
 2153HO4     OW 8609   4.890   0.926   1.876
 2153HO4    HW1 8610   4.860   0.881   1.960
 2153HO4    HW2 8611   4.950   0.864   1.825
 2153HO4     MW 8612   4.890   0.926   1.876
 2154HO4     OW 8613   2.252   4.154   0.862
 2154HO4    HW1 8614   2.349   4.166   0.842
 2154HO4    HW2 8615   2.197   4.191   0.787
 2154HO4     MW 8616   2.252   4.154   0.862
 2155HO4     OW 8617   2.435   0.061   2.032
 2155HO4    HW1 8618   2.460  -0.036   2.031
 2155HO4    HW2 8619   2.497   0.112   1.972
 2155HO4     MW 8620   2.435   0.061   2.032
 2156HO4     OW 8621   2.951   2.975   3.235
 2156HO4    HW1 8622   2.985   2.901   3.176
 2156HO4    HW2 8623   2.932   3.056   3.179
 2156HO4     MW 8624   2.951   2.975   3.235
 2157HO4     OW 8625   3.514   4.050   1.918
 2157HO4    HW1 8626   3.522   4.122   1.849
 2157HO4    HW2 8627   3.504   4.092   2.009
 2157HO4     MW 8628   3.514   4.050   1.918
 2158HO4     OW 8629   3.341   1.472   4.224
 2158HO4    HW1 8630   3.362   1.416   4.144
 2158HO4    HW2 8631   3.243   1.463   4.247
 2158HO4     MW 8632   3.341   1.472   4.224
 2159HO4     OW 8633   2.640   0.825   4.670
 2159HO4    HW1 8634   2.591   0.873   4.744
 2159HO4    HW2 8635   2.601   0.852   4.581
 2159HO4     MW 8636   2.640   0.825   4.670
 2160HO4     OW 8637   2.658   1.670   2.593
 2160HO4    HW1 8638   2.611   1.700   2.509
 2160HO4    HW2 8639   2.653   1.570   2.599
 2160HO4     MW 8640   2.658   1.670   2.593
 2161HO4     OW 8641   5.323   4.026   0.556
 2161HO4    HW1 8642   5.279   3.938   0.577
 2161HO4    HW2 8643   5.409   4.033   0.607
 2161HO4     MW 8644   5.323   4.026   0.556
 2162HO4     OW 8645   5.260   5.003   0.311
 2162HO4    HW1 8646   5.293   4.936   0.245
 2162HO4    HW2 8647   5.201   4.958   0.379
 2162HO4     MW 8648   5.260   5.003   0.311
 2163HO4     OW 8649   3.540   1.245   4.826
 2163HO4    HW1 8650   3.516   1.175   4.758
 2163HO4    HW2 8651   3.486   1.230   4.910
 2163HO4     MW 8652   3.540   1.245   4.826
 2164HO4     OW 8653   0.095   4.646   0.213
 2164HO4    HW1 8654   0.131   4.567   0.162
 2164HO4    HW2 8655   0.050   4.613   0.296
 2164HO4     MW 8656   0.095   4.646   0.213
 2165HO4     OW 8657   5.380   3.596   0.857
 2165HO4    HW1 8658   5.406   3.500   0.860
 2165HO4    HW2 8659   5.362   3.629   0.951
 2165HO4     MW 8660   5.380   3.596   0.857
 2166HO4     OW 8661   0.188   3.786   1.244
 2166HO4    HW1 8662   0.134   3.809   1.163
 2166HO4    HW2 8663   0.158   3.842   1.322
 2166HO4     MW 8664   0.188   3.786   1.244
 2167HO4     OW 8665   1.251   3.452   4.818
 2167HO4    HW1 8666   1.196   3.416   4.894
 2167HO4    HW2 8667   1.223   3.546   4.798
 2167HO4     MW 8668   1.251   3.452   4.818
 2168HO4     OW 8669   5.318   1.979   4.816
 2168HO4    HW1 8670   5.299   2.065   4.863
 2168HO4    HW2 8671   5.233   1.940   4.780
 2168HO4     MW 8672   5.318   1.979   4.816
 2169HO4     OW 8673   5.107   4.670   4.201
 2169HO4    HW1 8674   5.188   4.697   4.254
 2169HO4    HW2 8675   5.062   4.752   4.164
 2169HO4     MW 8676   5.107   4.670   4.201
 2170HO4     OW 8677   0.520   0.531   1.196
 2170HO4    HW1 8678   0.451   0.545   1.125
 2170HO4    HW2 8679   0.475   0.495   1.279
 2170HO4     MW 8680   0.520   0.531   1.196
 2171HO4     OW 8681   1.292   4.969   3.803
 2171HO4    HW1 8682   1.289   4.994   3.900
 2171HO4    HW2 8683   1.366   5.020   3.758
 2171HO4     MW 8684   1.292   4.969   3.803
 2172HO4     OW 8685   0.527   1.046   1.179
 2172HO4    HW1 8686   0.432   1.034   1.209
 2172HO4    HW2 8687   0.573   1.114   1.238
 2172HO4     MW 8688   0.527   1.046   1.179
 2173HO4     OW 8689   1.514   2.400   3.783
 2173HO4    HW1 8690   1.487   2.452   3.702
 2173HO4    HW2 8691   1.580   2.329   3.757
 2173HO4     MW 8692   1.514   2.400   3.783
 2174HO4     OW 8693   4.691   2.068   0.415
 2174HO4    HW1 8694   4.710   2.154   0.367
 2174HO4    HW2 8695   4.592   2.051   0.414
 2174HO4     MW 8696   4.691   2.068   0.415
 2175HO4     OW 8697   0.405   4.364   1.880
 2175HO4    HW1 8698   0.419   4.369   1.980
 2175HO4    HW2 8699   0.493   4.348   1.835
 2175HO4     MW 8700   0.405   4.364   1.880
 2176HO4     OW 8701   4.902   3.678   3.231
 2176HO4    HW1 8702   4.953   3.597   3.263
 2176HO4    HW2 8703   4.966   3.752   3.211
 2176HO4     MW 8704   4.902   3.678   3.231
 2177HO4     OW 8705   0.175   1.636   3.789
 2177HO4    HW1 8706   0.204   1.677   3.876
 2177HO4    HW2 8707   0.174   1.706   3.717
 2177HO4     MW 8708   0.175   1.636   3.789
 2178HO4     OW 8709   2.816   4.562   4.253
 2178HO4    HW1 8710   2.893   4.596   4.308
 2178HO4    HW2 8711   2.742   4.534   4.314
 2178HO4     MW 8712   2.816   4.562   4.253
 2179HO4     OW 8713   2.248   4.583   3.500
 2179HO4    HW1 8714   2.182   4.621   3.565
 2179HO4    HW2 8715   2.199   4.546   3.421
 2179HO4     MW 8716   2.248   4.583   3.500
 2180HO4     OW 8717   3.069   2.557   2.519
 2180HO4    HW1 8718   2.974   2.569   2.491
 2180HO4    HW2 8719   3.072   2.526   2.615
 2180HO4     MW 8720   3.069   2.557   2.519
 2181HO4     OW 8721   4.204   4.790   4.784
 2181HO4    HW1 8722   4.302   4.810   4.778
 2181HO4    HW2 8723   4.154   4.874   4.807
 2181HO4     MW 8724   4.204   4.790   4.784
 2182HO4     OW 8725   0.912   2.460   3.342
 2182HO4    HW1 8726   0.945   2.508   3.424
 2182HO4    HW2 8727   0.950   2.503   3.260
 2182HO4     MW 8728   0.912   2.460   3.342
 2183HO4     OW 8729   2.895   2.940   5.137
 2183HO4    HW1 8730   2.964   2.908   5.072
 2183HO4    HW2 8731   2.933   2.938   5.230
 2183HO4     MW 8732   2.895   2.940   5.137
 2184HO4     OW 8733   4.122   4.802   3.930
 2184HO4    HW1 8734   4.105   4.803   4.030
 2184HO4    HW2 8735   4.034   4.805   3.882
 2184HO4     MW 8736   4.122   4.802   3.930
 2185HO4     OW 8737   5.109   0.194   4.217
 2185HO4    HW1 8738   5.186   0.255   4.237
 2185HO4    HW2 8739   5.143   0.101   4.203
 2185HO4     MW 8740   5.109   0.194   4.217
 2186HO4     OW 8741   4.119   2.430   3.884
 2186HO4    HW1 8742   4.087   2.440   3.790
 2186HO4    HW2 8743   4.202   2.484   3.897
 2186HO4     MW 8744   4.119   2.430   3.884
 2187HO4     OW 8745   0.548   3.285   4.221
 2187HO4    HW1 8746   0.604   3.217   4.269
 2187HO4    HW2 8747   0.572   3.286   4.124
 2187HO4     MW 8748   0.548   3.285   4.221
 2188HO4     OW 8749   2.245   0.185   2.739
 2188HO4    HW1 8750   2.234   0.109   2.804
 2188HO4    HW2 8751   2.218   0.272   2.784
 2188HO4     MW 8752   2.245   0.185   2.739
 2189HO4     OW 8753   2.304   4.244   1.460
 2189HO4    HW1 8754   2.278   4.270   1.553
 2189HO4    HW2 8755   2.341   4.150   1.460
 2189HO4     MW 8756   2.304   4.244   1.460
 2190HO4     OW 8757   0.420   5.280   5.166
 2190HO4    HW1 8758   0.445   5.196   5.216
 2190HO4    HW2 8759   0.455   5.360   5.216
 2190HO4     MW 8760   0.420   5.280   5.166
 2191HO4     OW 8761   1.007   1.350   3.600
 2191HO4    HW1 8762   1.014   1.426   3.666
 2191HO4    HW2 8763   0.988   1.387   3.509
 2191HO4     MW 8764   1.007   1.350   3.600
 2192HO4     OW 8765   4.003   3.495   1.207
 2192HO4    HW1 8766   4.067   3.431   1.252
 2192HO4    HW2 8767   4.055   3.560   1.151
 2192HO4     MW 8768   4.003   3.495   1.207
 2193HO4     OW 8769   1.782   1.782   2.879
 2193HO4    HW1 8770   1.781   1.807   2.976
 2193HO4    HW2 8771   1.696   1.735   2.856
 2193HO4     MW 8772   1.782   1.782   2.879
 2194HO4     OW 8773   2.530   4.800   0.126
 2194HO4    HW1 8774   2.449   4.796   0.185
 2194HO4    HW2 8775   2.525   4.881   0.067
 2194HO4     MW 8776   2.530   4.800   0.126
 2195HO4     OW 8777   0.575   2.925   5.304
 2195HO4    HW1 8778   0.585   3.000   5.238
 2195HO4    HW2 8779   0.520   2.852   5.264
 2195HO4     MW 8780   0.575   2.925   5.304
 2196HO4     OW 8781   3.114   1.133   0.343
 2196HO4    HW1 8782   3.072   1.158   0.430
 2196HO4    HW2 8783   3.051   1.154   0.268
 2196HO4     MW 8784   3.114   1.133   0.343
 2197HO4     OW 8785   3.170   4.679   1.364
 2197HO4    HW1 8786   3.102   4.608   1.386
 2197HO4    HW2 8787   3.155   4.712   1.270
 2197HO4     MW 8788   3.170   4.679   1.364
 2198HO4     OW 8789   1.316   2.054   4.607
 2198HO4    HW1 8790   1.257   2.022   4.532
 2198HO4    HW2 8791   1.278   2.024   4.695
 2198HO4     MW 8792   1.316   2.054   4.607
 2199HO4     OW 8793   1.553   5.332   3.860
 2199HO4    HW1 8794   1.514   5.278   3.785
 2199HO4    HW2 8795   1.518   5.426   3.856
 2199HO4     MW 8796   1.553   5.332   3.860
 2200HO4     OW 8797   1.763   2.539   1.055
 2200HO4    HW1 8798   1.843   2.479   1.068
 2200HO4    HW2 8799   1.791   2.620   1.002
 2200HO4     MW 8800   1.763   2.539   1.055
 2201HO4     OW 8801   2.654   4.988   2.133
 2201HO4    HW1 8802   2.557   5.012   2.137
 2201HO4    HW2 8803   2.699   5.014   2.220
 2201HO4     MW 8804   2.654   4.988   2.133
 2202HO4     OW 8805   0.475   3.894   1.268
 2202HO4    HW1 8806   0.416   3.832   1.320
 2202HO4    HW2 8807   0.542   3.841   1.216
 2202HO4     MW 8808   0.475   3.894   1.268
 2203HO4     OW 8809   4.829   0.044   4.478
 2203HO4    HW1 8810   4.907   0.026   4.418
 2203HO4    HW2 8811   4.861   0.049   4.574
 2203HO4     MW 8812   4.829   0.044   4.478
 2204HO4     OW 8813   3.197   4.881   0.750
 2204HO4    HW1 8814   3.241   4.818   0.816
 2204HO4    HW2 8815   3.137   4.944   0.798
 2204HO4     MW 8816   3.197   4.881   0.750
 2205HO4     OW 8817   0.905   4.003   4.634
 2205HO4    HW1 8818   0.869   4.090   4.598
 2205HO4    HW2 8819   0.842   3.968   4.704
 2205HO4     MW 8820   0.905   4.003   4.634
 2206HO4     OW 8821   4.813   3.256   4.924
 2206HO4    HW1 8822   4.848   3.231   4.834
 2206HO4    HW2 8823   4.886   3.243   4.993
 2206HO4     MW 8824   4.813   3.256   4.924
 2207HO4     OW 8825   2.506   3.217   4.256
 2207HO4    HW1 8826   2.509   3.232   4.355
 2207HO4    HW2 8827   2.594   3.245   4.215
 2207HO4     MW 8828   2.506   3.217   4.256
 2208HO4     OW 8829   0.947   0.665   3.212
 2208HO4    HW1 8830   0.944   0.733   3.138
 2208HO4    HW2 8831   1.042   0.649   3.239
 2208HO4     MW 8832   0.947   0.665   3.212
 2209HO4     OW 8833   3.047   3.308   5.170
 2209HO4    HW1 8834   2.970   3.295   5.233
 2209HO4    HW2 8835   3.069   3.221   5.125
 2209HO4     MW 8836   3.047   3.308   5.170
 2210HO4     OW 8837   5.330   0.057   1.763
 2210HO4    HW1 8838   5.407  -0.001   1.734
 2210HO4    HW2 8839   5.268   0.073   1.686
 2210HO4     MW 8840   5.330   0.057   1.763
 2211HO4     OW 8841   5.157   0.869   3.193
 2211HO4    HW1 8842   5.168   0.959   3.235
 2211HO4    HW2 8843   5.173   0.798   3.261
 2211HO4     MW 8844   5.157   0.869   3.193
 2212HO4     OW 8845   1.071   0.569   4.173
 2212HO4    HW1 8846   1.034   0.538   4.261
 2212HO4    HW2 8847   1.018   0.646   4.139
 2212HO4     MW 8848   1.071   0.569   4.173
 2213HO4     OW 8849   5.470   1.904   3.271
 2213HO4    HW1 8850   5.455   1.831   3.339
 2213HO4    HW2 8851   5.408   1.890   3.193
 2213HO4     MW 8852   5.470   1.904   3.271
 2214HO4     OW 8853   0.714   5.240   4.242
 2214HO4    HW1 8854   0.646   5.282   4.182
 2214HO4    HW2 8855   0.672   5.220   4.331
 2214HO4     MW 8856   0.714   5.240   4.242
 2215HO4     OW 8857   5.203   0.619   1.991
 2215HO4    HW1 8858   5.138   0.610   2.067
 2215HO4    HW2 8859   5.270   0.691   2.014
 2215HO4     MW 8860   5.203   0.619   1.991
 2216HO4     OW 8861   5.410   2.831   3.772
 2216HO4    HW1 8862   5.332   2.887   3.803
 2216HO4    HW2 8863   5.379   2.738   3.754
 2216HO4     MW 8864   5.410   2.831   3.772
 2217HO4     OW 8865   1.525   2.005   1.308
 2217HO4    HW1 8866   1.435   2.049   1.315
 2217HO4    HW2 8867   1.526   1.942   1.229
 2217HO4     MW 8868   1.525   2.005   1.308
 2218HO4     OW 8869   3.351   3.547   2.737
 2218HO4    HW1 8870   3.299   3.611   2.679
 2218HO4    HW2 8871   3.378   3.593   2.822
 2218HO4     MW 8872   3.351   3.547   2.737
 2219HO4     OW 8873   3.788   0.700   2.420
 2219HO4    HW1 8874   3.878   0.744   2.410
 2219HO4    HW2 8875   3.721   0.769   2.449
 2219HO4     MW 8876   3.788   0.700   2.420
 2220HO4     OW 8877   2.466   2.906   2.069
 2220HO4    HW1 8878   2.438   2.907   2.166
 2220HO4    HW2 8879   2.404   2.963   2.015
 2220HO4     MW 8880   2.466   2.906   2.069
 2221HO4     OW 8881   4.190   1.954   0.078
 2221HO4    HW1 8882   4.207   1.860   0.108
 2221HO4    HW2 8883   4.133   1.954  -0.004
 2221HO4     MW 8884   4.190   1.954   0.078
 2222HO4     OW 8885   0.508   0.361   2.228
 2222HO4    HW1 8886   0.480   0.350   2.132
 2222HO4    HW2 8887   0.605   0.338   2.237
 2222HO4     MW 8888   0.508   0.361   2.228
 2223HO4     OW 8889   4.511   4.389   4.524
 2223HO4    HW1 8890   4.589   4.357   4.578
 2223HO4    HW2 8891   4.544   4.430   4.438
 2223HO4     MW 8892   4.511   4.389   4.524
 2224HO4     OW 8893   3.812   3.058   4.547
 2224HO4    HW1 8894   3.796   3.091   4.454
 2224HO4    HW2 8895   3.731   3.077   4.604
 2224HO4     MW 8896   3.812   3.058   4.547
 2225HO4     OW 8897   0.796   2.831   0.686
 2225HO4    HW1 8898   0.834   2.840   0.593
 2225HO4    HW2 8899   0.859   2.873   0.752
 2225HO4     MW 8900   0.796   2.831   0.686
 2226HO4     OW 8901   4.835   0.020   3.569
 2226HO4    HW1 8902   4.864   0.094   3.507
 2226HO4    HW2 8903   4.868   0.039   3.662
 2226HO4     MW 8904   4.835   0.020   3.569
 2227HO4     OW 8905   5.157   2.481   3.070
 2227HO4    HW1 8906   5.211   2.400   3.043
 2227HO4    HW2 8907   5.206   2.530   3.143
 2227HO4     MW 8908   5.157   2.481   3.070
 2228HO4     OW 8909   1.499   2.929   0.270
 2228HO4    HW1 8910   1.475   2.865   0.344
 2228HO4    HW2 8911   1.451   2.903   0.186
 2228HO4     MW 8912   1.499   2.929   0.270
 2229HO4     OW 8913   3.273   4.542   1.642
 2229HO4    HW1 8914   3.322   4.540   1.555
 2229HO4    HW2 8915   3.181   4.504   1.630
 2229HO4     MW 8916   3.273   4.542   1.642
 2230HO4     OW 8917   1.741   4.326   0.802
 2230HO4    HW1 8918   1.787   4.337   0.714
 2230HO4    HW2 8919   1.799   4.362   0.875
 2230HO4     MW 8920   1.741   4.326   0.802
 2231HO4     OW 8921   1.335   0.254   1.110
 2231HO4    HW1 8922   1.294   0.258   1.202
 2231HO4    HW2 8923   1.363   0.159   1.090
 2231HO4     MW 8924   1.335   0.254   1.110
 2232HO4     OW 8925   3.958   5.127   3.372
 2232HO4    HW1 8926   3.947   5.048   3.311
 2232HO4    HW2 8927   4.047   5.123   3.417
 2232HO4     MW 8928   3.958   5.127   3.372
 2233HO4     OW 8929   4.850   2.328   3.853
 2233HO4    HW1 8930   4.909   2.407   3.869
 2233HO4    HW2 8931   4.772   2.332   3.916
 2233HO4     MW 8932   4.850   2.328   3.853
 2234HO4     OW 8933   3.545   1.871   2.151
 2234HO4    HW1 8934   3.450   1.841   2.168
 2234HO4    HW2 8935   3.573   1.935   2.223
 2234HO4     MW 8936   3.545   1.871   2.151
 2235HO4     OW 8937   0.441   1.894   1.268
 2235HO4    HW1 8938   0.531   1.855   1.289
 2235HO4    HW2 8939   0.437   1.988   1.304
 2235HO4     MW 8940   0.441   1.894   1.268
 2236HO4     OW 8941   1.927   0.101   3.982
 2236HO4    HW1 8942   1.939   0.047   3.898
 2236HO4    HW2 8943   1.945   0.044   4.062
 2236HO4     MW 8944   1.927   0.101   3.982
 2237HO4     OW 8945   1.101   4.525   4.453
 2237HO4    HW1 8946   1.161   4.539   4.532
 2237HO4    HW2 8947   1.027   4.462   4.479
 2237HO4     MW 8948   1.101   4.525   4.453
 2238HO4     OW 8949   2.904   2.804  -0.001
 2238HO4    HW1 8950   3.004   2.799   0.012
 2238HO4    HW2 8951   2.864   2.862   0.071
 2238HO4     MW 8952   2.904   2.804  -0.001
 2239HO4     OW 8953   0.256   1.209   3.623
 2239HO4    HW1 8954   0.209   1.200   3.711
 2239HO4    HW2 8955   0.238   1.127   3.567
 2239HO4     MW 8956   0.256   1.209   3.623
 2240HO4     OW 8957   1.856   1.794   4.088
 2240HO4    HW1 8958   1.849   1.884   4.133
 2240HO4    HW2 8959   1.789   1.788   4.014
 2240HO4     MW 8960   1.856   1.794   4.088
 2241HO4     OW 8961   0.723   4.314   1.858
 2241HO4    HW1 8962   0.732   4.269   1.947
 2241HO4    HW2 8963   0.667   4.258   1.797
 2241HO4     MW 8964   0.723   4.314   1.858
 2242HO4     OW 8965   1.183   1.332   1.683
 2242HO4    HW1 8966   1.185   1.390   1.601
 2242HO4    HW2 8967   1.187   1.389   1.765
 2242HO4     MW 8968   1.183   1.332   1.683
 2243HO4     OW 8969   1.929   0.224   1.262
 2243HO4    HW1 8970   1.959   0.172   1.182
 2243HO4    HW2 8971   1.839   0.264   1.244
 2243HO4     MW 8972   1.929   0.224   1.262
 2244HO4     OW 8973   4.775   1.528   3.386
 2244HO4    HW1 8974   4.808   1.483   3.470
 2244HO4    HW2 8975   4.806   1.476   3.306
 2244HO4     MW 8976   4.775   1.528   3.386
 2245HO4     OW 8977   5.258   3.543   3.017
 2245HO4    HW1 8978   5.244   3.614   2.948
 2245HO4    HW2 8979   5.198   3.559   3.096
 2245HO4     MW 8980   5.258   3.543   3.017
 2246HO4     OW 8981   0.201   2.499   2.030
 2246HO4    HW1 8982   0.182   2.415   1.979
 2246HO4    HW2 8983   0.144   2.502   2.112
 2246HO4     MW 8984   0.201   2.499   2.030
 2247HO4     OW 8985   4.392   1.922   2.494
 2247HO4    HW1 8986   4.380   2.021   2.483
 2247HO4    HW2 8987   4.490   1.899   2.498
 2247HO4     MW 8988   4.392   1.922   2.494
 2248HO4     OW 8989   3.354   0.812   1.561
 2248HO4    HW1 8990   3.306   0.726   1.580
 2248HO4    HW2 8991   3.451   0.802   1.585
 2248HO4     MW 8992   3.354   0.812   1.561
 2249HO4     OW 8993   3.677   3.162   2.743
 2249HO4    HW1 8994   3.581   3.139   2.723
 2249HO4    HW2 8995   3.681   3.217   2.827
 2249HO4     MW 8996   3.677   3.162   2.743
 2250HO4     OW 8997   1.983   1.724   2.413
 2250HO4    HW1 8998   2.057   1.662   2.440
 2250HO4    HW2 8999   1.898   1.671   2.402
 2250HO4     MW 9000   1.983   1.724   2.413
 2251HO4     OW 9001   1.669   1.018   0.193
 2251HO4    HW1 9002   1.605   0.998   0.269
 2251HO4    HW2 9003   1.741   1.080   0.226
 2251HO4     MW 9004   1.669   1.018   0.193
 2252HO4     OW 9005   3.967   5.007   1.841
 2252HO4    HW1 9006   4.008   5.059   1.766
 2252HO4    HW2 9007   3.992   5.049   1.929
 2252HO4     MW 9008   3.967   5.007   1.841
 2253HO4     OW 9009   2.672   0.087   2.605
 2253HO4    HW1 9010   2.607   0.041   2.544
 2253HO4    HW2 9011   2.622   0.145   2.670
 2253HO4     MW 9012   2.672   0.087   2.605
 2254HO4     OW 9013   2.740   1.627   4.704
 2254HO4    HW1 9014   2.789   1.701   4.657
 2254HO4    HW2 9015   2.652   1.662   4.739
 2254HO4     MW 9016   2.740   1.627   4.704
 2255HO4     OW 9017   0.669   1.268   2.265
 2255HO4    HW1 9018   0.617   1.281   2.180
 2255HO4    HW2 9019   0.608   1.282   2.343
 2255HO4     MW 9020   0.669   1.268   2.265
 2256HO4     OW 9021   3.988   1.949   5.250
 2256HO4    HW1 9022   4.087   1.965   5.254
 2256HO4    HW2 9023   3.961   1.933   5.154
 2256HO4     MW 9024   3.988   1.949   5.250
 2257HO4     OW 9025   2.682   2.057   0.808
 2257HO4    HW1 9026   2.653   2.012   0.893
 2257HO4    HW2 9027   2.759   2.006   0.768
 2257HO4     MW 9028   2.682   2.057   0.808
 2258HO4     OW 9029   0.402   1.636   3.162
 2258HO4    HW1 9030   0.344   1.625   3.081
 2258HO4    HW2 9031   0.356   1.594   3.241
 2258HO4     MW 9032   0.402   1.636   3.162
 2259HO4     OW 9033   2.899   1.662   4.480
 2259HO4    HW1 9034   2.845   1.684   4.398
 2259HO4    HW2 9035   2.997   1.671   4.459
 2259HO4     MW 9036   2.899   1.662   4.480
 2260HO4     OW 9037   3.212   0.405   3.591
 2260HO4    HW1 9038   3.209   0.331   3.524
 2260HO4    HW2 9039   3.298   0.456   3.582
 2260HO4     MW 9040   3.212   0.405   3.591
 2261HO4     OW 9041   3.261   3.668   5.057
 2261HO4    HW1 9042   3.244   3.579   5.014
 2261HO4    HW2 9043   3.347   3.707   5.021
 2261HO4     MW 9044   3.261   3.668   5.057
 2262HO4     OW 9045   3.809   2.766   5.343
 2262HO4    HW1 9046   3.883   2.746   5.278
 2262HO4    HW2 9047   3.846   2.774   5.436
 2262HO4     MW 9048   3.809   2.766   5.343
 2263HO4     OW 9049   5.015   2.449   3.502
 2263HO4    HW1 9050   5.012   2.522   3.433
 2263HO4    HW2 9051   4.969   2.480   3.585
 2263HO4     MW 9052   5.015   2.449   3.502
 2264HO4     OW 9053   3.943   4.085   3.122
 2264HO4    HW1 9054   3.915   4.009   3.063
 2264HO4    HW2 9055   3.988   4.156   3.067
 2264HO4     MW 9056   3.943   4.085   3.122
 2265HO4     OW 9057   1.725   2.764   3.756
 2265HO4    HW1 9058   1.684   2.829   3.690
 2265HO4    HW2 9059   1.682   2.776   3.846
 2265HO4     MW 9060   1.725   2.764   3.756
 2266HO4     OW 9061   0.777   0.282   3.874
 2266HO4    HW1 9062   0.741   0.347   3.806
 2266HO4    HW2 9063   0.715   0.203   3.879
 2266HO4     MW 9064   0.777   0.282   3.874
 2267HO4     OW 9065   3.474   0.622   0.671
 2267HO4    HW1 9066   3.487   0.664   0.581
 2267HO4    HW2 9067   3.554   0.567   0.695
 2267HO4     MW 9068   3.474   0.622   0.671
 2268HO4     OW 9069   0.324   0.081   2.149
 2268HO4    HW1 9070   0.278   0.167   2.173
 2268HO4    HW2 9071   0.330   0.072   2.050
 2268HO4     MW 9072   0.324   0.081   2.149
 2269HO4     OW 9073   2.764   4.059   4.474
 2269HO4    HW1 9074   2.826   4.031   4.548
 2269HO4    HW2 9075   2.697   4.123   4.510
 2269HO4     MW 9076   2.764   4.059   4.474
 2270HO4     OW 9077   0.880   3.878   2.398
 2270HO4    HW1 9078   0.898   3.965   2.445
 2270HO4    HW2 9079   0.861   3.806   2.465
 2270HO4     MW 9080   0.880   3.878   2.398
 2271HO4     OW 9081   3.972   3.638   4.705
 2271HO4    HW1 9082   3.963   3.580   4.787
 2271HO4    HW2 9083   3.951   3.583   4.623
 2271HO4     MW 9084   3.972   3.638   4.705
 2272HO4     OW 9085   2.307   3.968   3.461
 2272HO4    HW1 9086   2.367   4.019   3.398
 2272HO4    HW2 9087   2.215   3.963   3.423
 2272HO4     MW 9088   2.307   3.968   3.461
 2273HO4     OW 9089   5.192   3.207   4.034
 2273HO4    HW1 9090   5.139   3.226   3.951
 2273HO4    HW2 9091   5.150   3.131   4.085
 2273HO4     MW 9092   5.192   3.207   4.034
 2274HO4     OW 9093   2.786   5.196   4.876
 2274HO4    HW1 9094   2.710   5.198   4.810
 2274HO4    HW2 9095   2.868   5.158   4.832
 2274HO4     MW 9096   2.786   5.196   4.876
 2275HO4     OW 9097   0.700   2.784   4.884
 2275HO4    HW1 9098   0.763   2.706   4.891
 2275HO4    HW2 9099   0.732   2.847   4.812
 2275HO4     MW 9100   0.700   2.784   4.884
 2276HO4     OW 9101   4.656   1.495   0.759
 2276HO4    HW1 9102   4.623   1.525   0.849
 2276HO4    HW2 9103   4.641   1.567   0.691
 2276HO4     MW 9104   4.656   1.495   0.759
 2277HO4     OW 9105   0.127   3.929   2.082
 2277HO4    HW1 9106   0.176   3.927   1.994
 2277HO4    HW2 9107   0.192   3.944   2.156
 2277HO4     MW 9108   0.127   3.929   2.082
 2278HO4     OW 9109   2.425   2.491   4.958
 2278HO4    HW1 9110   2.458   2.531   4.872
 2278HO4    HW2 9111   2.386   2.564   5.016
 2278HO4     MW 9112   2.425   2.491   4.958
 2279HO4     OW 9113   3.071   4.111  -0.009
 2279HO4    HW1 9114   3.061   4.049   0.068
 2279HO4    HW2 9115   3.142   4.180   0.012
 2279HO4     MW 9116   3.071   4.111  -0.009
 2280HO4     OW 9117   3.720   1.140   2.690
 2280HO4    HW1 9118   3.692   1.207   2.621
 2280HO4    HW2 9119   3.761   1.189   2.768
 2280HO4     MW 9120   3.720   1.140   2.690
 2281HO4     OW 9121   2.714   3.835   2.148
 2281HO4    HW1 9122   2.709   3.777   2.230
 2281HO4    HW2 9123   2.646   3.909   2.155
 2281HO4     MW 9124   2.714   3.835   2.148
 2282HO4     OW 9125   3.667   2.103   0.964
 2282HO4    HW1 9126   3.740   2.035   0.951
 2282HO4    HW2 9127   3.700   2.175   1.025
 2282HO4     MW 9128   3.667   2.103   0.964
 2283HO4     OW 9129   2.353   1.893   1.495
 2283HO4    HW1 9130   2.367   1.795   1.477
 2283HO4    HW2 9131   2.430   1.945   1.459
 2283HO4     MW 9132   2.353   1.893   1.495
 2284HO4     OW 9133   1.910   4.108   3.883
 2284HO4    HW1 9134   1.875   4.194   3.847
 2284HO4    HW2 9135   1.899   4.035   3.815
 2284HO4     MW 9136   1.910   4.108   3.883
 2285HO4     OW 9137   0.593   4.663   0.671
 2285HO4    HW1 9138   0.627   4.695   0.760
 2285HO4    HW2 9139   0.497   4.690   0.660
 2285HO4     MW 9140   0.593   4.663   0.671
 2286HO4     OW 9141   5.426   3.139   0.255
 2286HO4    HW1 9142   5.361   3.148   0.331
 2286HO4    HW2 9143   5.378   3.155   0.168
 2286HO4     MW 9144   5.426   3.139   0.255
 2287HO4     OW 9145   0.069   0.436   0.806
 2287HO4    HW1 9146   0.039   0.359   0.750
 2287HO4    HW2 9147   0.168   0.450   0.794
 2287HO4     MW 9148   0.069   0.436   0.806
 2288HO4     OW 9149   1.776   4.023   1.695
 2288HO4    HW1 9150   1.779   3.923   1.687
 2288HO4    HW2 9151   1.794   4.049   1.790
 2288HO4     MW 9152   1.776   4.023   1.695
 2289HO4     OW 9153   1.970   4.709   5.205
 2289HO4    HW1 9154   1.888   4.656   5.229
 2289HO4    HW2 9155   1.943   4.790   5.153
 2289HO4     MW 9156   1.970   4.709   5.205
 2290HO4     OW 9157   4.524   5.188   4.466
 2290HO4    HW1 9158   4.516   5.236   4.378
 2290HO4    HW2 9159   4.546   5.253   4.539
 2290HO4     MW 9160   4.524   5.188   4.466
 2291HO4     OW 9161   5.030   2.447   5.477
 2291HO4    HW1 9162   5.108   2.473   5.420
 2291HO4    HW2 9163   4.990   2.362   5.442
 2291HO4     MW 9164   5.030   2.447   5.477
 2292HO4     OW 9165   4.515   3.029   3.767
 2292HO4    HW1 9166   4.608   2.994   3.782
 2292HO4    HW2 9167   4.492   3.096   3.838
 2292HO4     MW 9168   4.515   3.029   3.767
 2293HO4     OW 9169   4.212   3.235   4.103
 2293HO4    HW1 9170   4.121   3.262   4.135
 2293HO4    HW2 9171   4.203   3.158   4.038
 2293HO4     MW 9172   4.212   3.235   4.103
 2294HO4     OW 9173   3.827   4.566   4.766
 2294HO4    HW1 9174   3.864   4.622   4.841
 2294HO4    HW2 9175   3.895   4.560   4.692
 2294HO4     MW 9176   3.827   4.566   4.766
 2295HO4     OW 9177   1.343   0.627   5.484
 2295HO4    HW1 9178   1.361   0.723   5.506
 2295HO4    HW2 9179   1.387   0.604   5.397
 2295HO4     MW 9180   1.343   0.627   5.484
 2296HO4     OW 9181   0.006   0.576   0.364
 2296HO4    HW1 9182  -0.012   0.578   0.265
 2296HO4    HW2 9183   0.088   0.521   0.381
 2296HO4     MW 9184   0.006   0.576   0.364
 2297HO4     OW 9185   4.916   1.633   1.072
 2297HO4    HW1 9186   4.815   1.636   1.069
 2297HO4    HW2 9187   4.946   1.538   1.079
 2297HO4     MW 9188   4.916   1.633   1.072
 2298HO4     OW 9189   3.505   2.685   1.150
 2298HO4    HW1 9190   3.572   2.673   1.077
 2298HO4    HW2 9191   3.550   2.671   1.239
 2298HO4     MW 9192   3.505   2.685   1.150
 2299HO4     OW 9193   3.541   2.594   3.175
 2299HO4    HW1 9194   3.611   2.531   3.139
 2299HO4    HW2 9195   3.450   2.555   3.160
 2299HO4     MW 9196   3.541   2.594   3.175
 2300HO4     OW 9197   2.618   3.281   0.373
 2300HO4    HW1 9198   2.597   3.208   0.439
 2300HO4    HW2 9199   2.536   3.337   0.358
 2300HO4     MW 9200   2.618   3.281   0.373
 2301HO4     OW 9201   3.345   3.506   2.980
 2301HO4    HW1 9202   3.293   3.532   3.063
 2301HO4    HW2 9203   3.438   3.481   3.006
 2301HO4     MW 9204   3.345   3.506   2.980
 2302HO4     OW 9205   0.551   0.128   3.479
 2302HO4    HW1 9206   0.641   0.121   3.523
 2302HO4    HW2 9207   0.517   0.036   3.457
 2302HO4     MW 9208   0.551   0.128   3.479
 2303HO4     OW 9209   2.040   1.984   1.533
 2303HO4    HW1 9210   2.135   1.978   1.566
 2303HO4    HW2 9211   2.038   2.031   1.444
 2303HO4     MW 9212   2.040   1.984   1.533
 2304HO4     OW 9213   0.054   2.161   3.880
 2304HO4    HW1 9214  -0.004   2.137   3.959
 2304HO4    HW2 9215   0.010   2.127   3.795
 2304HO4     MW 9216   0.054   2.161   3.880
 2305HO4     OW 9217   4.006   3.249   4.940
 2305HO4    HW1 9218   3.929   3.197   4.978
 2305HO4    HW2 9219   4.054   3.297   5.015
 2305HO4     MW 9220   4.006   3.249   4.940
 2306HO4     OW 9221   2.414   1.758   2.915
 2306HO4    HW1 9222   2.369   1.672   2.943
 2306HO4    HW2 9223   2.494   1.774   2.974
 2306HO4     MW 9224   2.414   1.758   2.915
 2307HO4     OW 9225   0.871   4.274   1.090
 2307HO4    HW1 9226   0.780   4.295   1.127
 2307HO4    HW2 9227   0.932   4.243   1.164
 2307HO4     MW 9228   0.871   4.274   1.090
 2308HO4     OW 9229   3.125   0.219   1.038
 2308HO4    HW1 9230   3.222   0.192   1.042
 2308HO4    HW2 9231   3.082   0.205   1.127
 2308HO4     MW 9232   3.125   0.219   1.038
 2309HO4     OW 9233   1.694   4.978   4.143
 2309HO4    HW1 9234   1.760   4.903   4.155
 2309HO4    HW2 9235   1.615   4.962   4.203
 2309HO4     MW 9236   1.694   4.978   4.143
 2310HO4     OW 9237   5.404   0.552   4.730
 2310HO4    HW1 9238   5.397   0.600   4.818
 2310HO4    HW2 9239   5.491   0.501   4.727
 2310HO4     MW 9240   5.404   0.552   4.730
 2311HO4     OW 9241   5.420   3.704   3.148
 2311HO4    HW1 9242   5.494   3.683   3.212
 2311HO4    HW2 9243   5.419   3.634   3.075
 2311HO4     MW 9244   5.420   3.704   3.148
 2312HO4     OW 9245   0.498   0.940   5.484
 2312HO4    HW1 9246   0.455   1.030   5.472
 2312HO4    HW2 9247   0.598   0.948   5.473
 2312HO4     MW 9248   0.498   0.940   5.484
 2313HO4     OW 9249   2.021   3.514   2.327
 2313HO4    HW1 9250   2.088   3.587   2.310
 2313HO4    HW2 9251   2.021   3.491   2.425
 2313HO4     MW 9252   2.021   3.514   2.327
 2314HO4     OW 9253   2.704   3.949   4.931
 2314HO4    HW1 9254   2.736   3.902   4.848
 2314HO4    HW2 9255   2.779   3.958   4.996
 2314HO4     MW 9256   2.704   3.949   4.931
 2315HO4     OW 9257   1.562   0.137   1.762
 2315HO4    HW1 9258   1.531   0.215   1.707
 2315HO4    HW2 9259   1.502   0.127   1.842
 2315HO4     MW 9260   1.562   0.137   1.762
 2316HO4     OW 9261   0.863   2.072   3.666
 2316HO4    HW1 9262   0.798   2.056   3.740
 2316HO4    HW2 9263   0.836   2.154   3.614
 2316HO4     MW 9264   0.863   2.072   3.666
 2317HO4     OW 9265   0.296   1.402   5.088
 2317HO4    HW1 9266   0.378   1.387   5.144
 2317HO4    HW2 9267   0.321   1.453   5.005
 2317HO4     MW 9268   0.296   1.402   5.088
 2318HO4     OW 9269   0.342   2.429   1.643
 2318HO4    HW1 9270   0.340   2.360   1.569
 2318HO4    HW2 9271   0.330   2.383   1.731
 2318HO4     MW 9272   0.342   2.429   1.643
 2319HO4     OW 9273   2.715   2.075   1.585
 2319HO4    HW1 9274   2.644   2.071   1.656
 2319HO4    HW2 9275   2.769   1.991   1.587
 2319HO4     MW 9276   2.715   2.075   1.585
 2320HO4     OW 9277   3.438   4.829   3.734
 2320HO4    HW1 9278   3.342   4.815   3.708
 2320HO4    HW2 9279   3.446   4.826   3.834
 2320HO4     MW 9280   3.438   4.829   3.734
 2321HO4     OW 9281   2.528   5.350   4.834
 2321HO4    HW1 9282   2.573   5.261   4.846
 2321HO4    HW2 9283   2.431   5.335   4.810
 2321HO4     MW 9284   2.528   5.350   4.834
 2322HO4     OW 9285   1.920   0.640   0.302
 2322HO4    HW1 9286   1.848   0.572   0.285
 2322HO4    HW2 9287   1.906   0.681   0.392
 2322HO4     MW 9288   1.920   0.640   0.302
 2323HO4     OW 9289   2.847   2.055   5.078
 2323HO4    HW1 9290   2.869   2.146   5.113
 2323HO4    HW2 9291   2.768   2.061   5.016
 2323HO4     MW 9292   2.847   2.055   5.078
 2324HO4     OW 9293   3.734   1.588   2.322
 2324HO4    HW1 9294   3.774   1.655   2.386
 2324HO4    HW2 9295   3.777   1.597   2.232
 2324HO4     MW 9296   3.734   1.588   2.322
 2325HO4     OW 9297   0.485   2.182   3.425
 2325HO4    HW1 9298   0.431   2.115   3.374
 2325HO4    HW2 9299   0.511   2.258   3.363
 2325HO4     MW 9300   0.485   2.182   3.425
 2326HO4     OW 9301   3.513   0.642   4.801
 2326HO4    HW1 9302   3.578   0.692   4.744
 2326HO4    HW2 9303   3.426   0.693   4.805
 2326HO4     MW 9304   3.513   0.642   4.801
 2327HO4     OW 9305   1.609   2.544   1.751
 2327HO4    HW1 9306   1.584   2.555   1.654
 2327HO4    HW2 9307   1.600   2.447   1.777
 2327HO4     MW 9308   1.609   2.544   1.751
 2328HO4     OW 9309   4.616   5.038   3.003
 2328HO4    HW1 9310   4.682   5.022   2.929
 2328HO4    HW2 9311   4.582   5.133   2.999
 2328HO4     MW 9312   4.616   5.038   3.003
 2329HO4     OW 9313   0.612   1.411   0.718
 2329HO4    HW1 9314   0.613   1.358   0.634
 2329HO4    HW2 9315   0.632   1.351   0.796
 2329HO4     MW 9316   0.612   1.411   0.718
 2330HO4     OW 9317   3.427   4.624   4.732
 2330HO4    HW1 9318   3.333   4.627   4.697
 2330HO4    HW2 9319   3.451   4.712   4.774
 2330HO4     MW 9320   3.427   4.624   4.732
 2331HO4     OW 9321   1.748   0.584   1.571
 2331HO4    HW1 9322   1.665   0.578   1.627
 2331HO4    HW2 9323   1.736   0.654   1.500
 2331HO4     MW 9324   1.748   0.584   1.571
 2332HO4     OW 9325   2.545   1.459   3.956
 2332HO4    HW1 9326   2.634   1.464   4.001
 2332HO4    HW2 9327   2.472   1.469   4.025
 2332HO4     MW 9328   2.545   1.459   3.956
 2333HO4     OW 9329   4.268   3.398   1.218
 2333HO4    HW1 9330   4.246   3.420   1.314
 2333HO4    HW2 9331   4.214   3.457   1.157
 2333HO4     MW 9332   4.268   3.398   1.218
 2334HO4     OW 9333   3.575   2.585   3.525
 2334HO4    HW1 9334   3.518   2.565   3.445
 2334HO4    HW2 9335   3.550   2.674   3.563
 2334HO4     MW 9336   3.575   2.585   3.525
 2335HO4     OW 9337   4.643   0.368   1.220
 2335HO4    HW1 9338   4.671   0.305   1.147
 2335HO4    HW2 9339   4.645   0.320   1.309
 2335HO4     MW 9340   4.643   0.368   1.220
 2336HO4     OW 9341   4.512   3.664   0.395
 2336HO4    HW1 9342   4.473   3.627   0.310
 2336HO4    HW2 9343   4.610   3.679   0.383
 2336HO4     MW 9344   4.512   3.664   0.395
 2337HO4     OW 9345   2.576   2.940   4.743
 2337HO4    HW1 9346   2.535   2.926   4.834
 2337HO4    HW2 9347   2.635   3.021   4.745
 2337HO4     MW 9348   2.576   2.940   4.743
 2338HO4     OW 9349   2.514   1.881   3.751
 2338HO4    HW1 9350   2.541   1.848   3.842
 2338HO4    HW2 9351   2.413   1.883   3.745
 2338HO4     MW 9352   2.514   1.881   3.751
 2339HO4     OW 9353   2.462   1.656   1.983
 2339HO4    HW1 9354   2.455   1.566   1.940
 2339HO4    HW2 9355   2.410   1.657   2.068
 2339HO4     MW 9356   2.462   1.656   1.983
 2340HO4     OW 9357   0.084   0.424   2.744
 2340HO4    HW1 9358   0.105   0.493   2.674
 2340HO4    HW2 9359   0.105   0.462   2.835
 2340HO4     MW 9360   0.084   0.424   2.744
 2341HO4     OW 9361   3.728   3.136   1.083
 2341HO4    HW1 9362   3.722   3.115   1.181
 2341HO4    HW2 9363   3.651   3.094   1.035
 2341HO4     MW 9364   3.728   3.136   1.083
 2342HO4     OW 9365   0.185   0.366   4.521
 2342HO4    HW1 9366   0.281   0.353   4.549
 2342HO4    HW2 9367   0.127   0.299   4.567
 2342HO4     MW 9368   0.185   0.366   4.521
 2343HO4     OW 9369   1.023   0.011   4.279
 2343HO4    HW1 9370   1.015   0.111   4.273
 2343HO4    HW2 9371   0.945  -0.031   4.230
 2343HO4     MW 9372   1.023   0.011   4.279
 2344HO4     OW 9373   3.701   3.411   4.759
 2344HO4    HW1 9374   3.796   3.398   4.787
 2344HO4    HW2 9375   3.671   3.333   4.703
 2344HO4     MW 9376   3.701   3.411   4.759
 2345HO4     OW 9377   0.748   4.216   4.461
 2345HO4    HW1 9378   0.716   4.290   4.519
 2345HO4    HW2 9379   0.670   4.160   4.430
 2345HO4     MW 9380   0.748   4.216   4.461
 2346HO4     OW 9381   1.356   2.608   3.201
 2346HO4    HW1 9382   1.435   2.657   3.162
 2346HO4    HW2 9383   1.288   2.591   3.129
 2346HO4     MW 9384   1.356   2.608   3.201
 2347HO4     OW 9385   0.533   4.413   0.977
 2347HO4    HW1 9386   0.599   4.488   0.990
 2347HO4    HW2 9387   0.537   4.382   0.882
 2347HO4     MW 9388   0.533   4.413   0.977
 2348HO4     OW 9389   3.270   0.762   2.921
 2348HO4    HW1 9390   3.261   0.813   3.007
 2348HO4    HW2 9391   3.205   0.799   2.853
 2348HO4     MW 9392   3.270   0.762   2.921
 2349HO4     OW 9393   2.936   3.198   2.754
 2349HO4    HW1 9394   2.922   3.274   2.817
 2349HO4    HW2 9395   2.848   3.169   2.716
 2349HO4     MW 9396   2.936   3.198   2.754
 2350HO4     OW 9397   1.475   3.185   3.519
 2350HO4    HW1 9398   1.404   3.216   3.455
 2350HO4    HW2 9399   1.433   3.131   3.592
 2350HO4     MW 9400   1.475   3.185   3.519
 2351HO4     OW 9401   4.052   4.611   1.307
 2351HO4    HW1 9402   3.999   4.537   1.349
 2351HO4    HW2 9403   4.122   4.572   1.246
 2351HO4     MW 9404   4.052   4.611   1.307
 2352HO4     OW 9405   3.649   1.048   0.864
 2352HO4    HW1 9406   3.656   1.091   0.774
 2352HO4    HW2 9407   3.621   0.952   0.854
 2352HO4     MW 9408   3.649   1.048   0.864
 2353HO4     OW 9409   4.028   0.211   3.078
 2353HO4    HW1 9410   4.002   0.115   3.092
 2353HO4    HW2 9411   4.053   0.252   3.166
 2353HO4     MW 9412   4.028   0.211   3.078
 2354HO4     OW 9413   1.107   0.617   1.881
 2354HO4    HW1 9414   1.061   0.532   1.854
 2354HO4    HW2 9415   1.123   0.616   1.980
 2354HO4     MW 9416   1.107   0.617   1.881
 2355HO4     OW 9417   2.231   4.421   0.279
 2355HO4    HW1 9418   2.206   4.407   0.183
 2355HO4    HW2 9419   2.209   4.515   0.306
 2355HO4     MW 9420   2.231   4.421   0.279
 2356HO4     OW 9421   1.149   0.983   1.595
 2356HO4    HW1 9422   1.241   1.012   1.567
 2356HO4    HW2 9423   1.155   0.894   1.642
 2356HO4     MW 9424   1.149   0.983   1.595
 2357HO4     OW 9425   3.485   3.972   4.687
 2357HO4    HW1 9426   3.395   3.928   4.688
 2357HO4    HW2 9427   3.545   3.927   4.755
 2357HO4     MW 9428   3.485   3.972   4.687
 2358HO4     OW 9429   4.594   0.219   5.405
 2358HO4    HW1 9430   4.598   0.317   5.383
 2358HO4    HW2 9431   4.523   0.175   5.348
 2358HO4     MW 9432   4.594   0.219   5.405
 2359HO4     OW 9433   0.506   2.286   1.852
 2359HO4    HW1 9434   0.573   2.212   1.846
 2359HO4    HW2 9435   0.468   2.304   1.761
 2359HO4     MW 9436   0.506   2.286   1.852
 2360HO4     OW 9437   3.318   2.573   4.180
 2360HO4    HW1 9438   3.381   2.554   4.255
 2360HO4    HW2 9439   3.369   2.576   4.093
 2360HO4     MW 9440   3.318   2.573   4.180
 2361HO4     OW 9441   2.149   1.822   3.296
 2361HO4    HW1 9442   2.178   1.872   3.378
 2361HO4    HW2 9443   2.179   1.871   3.214
 2361HO4     MW 9444   2.149   1.822   3.296
 2362HO4     OW 9445   4.165   2.502   4.477
 2362HO4    HW1 9446   4.127   2.554   4.554
 2362HO4    HW2 9447   4.130   2.539   4.390
 2362HO4     MW 9448   4.165   2.502   4.477
 2363HO4     OW 9449   0.256   2.778   4.697
 2363HO4    HW1 9450   0.200   2.741   4.622
 2363HO4    HW2 9451   0.221   2.868   4.724
 2363HO4     MW 9452   0.256   2.778   4.697
 2364HO4     OW 9453   3.994   0.329   3.472
 2364HO4    HW1 9454   3.912   0.319   3.529
 2364HO4    HW2 9455   3.967   0.351   3.378
 2364HO4     MW 9456   3.994   0.329   3.472
 2365HO4     OW 9457   2.314   3.507   4.596
 2365HO4    HW1 9458   2.290   3.598   4.561
 2365HO4    HW2 9459   2.386   3.516   4.666
 2365HO4     MW 9460   2.314   3.507   4.596
 2366HO4     OW 9461   2.485   3.201   2.238
 2366HO4    HW1 9462   2.439   3.144   2.170
 2366HO4    HW2 9463   2.419   3.265   2.279
 2366HO4     MW 9464   2.485   3.201   2.238
 2367HO4     OW 9465   3.616   5.209   3.458
 2367HO4    HW1 9466   3.543   5.251   3.513
 2367HO4    HW2 9467   3.596   5.222   3.361
 2367HO4     MW 9468   3.616   5.209   3.458
 2368HO4     OW 9469   4.559   4.727   4.956
 2368HO4    HW1 9470   4.479   4.690   4.907
 2368HO4    HW2 9471   4.633   4.745   4.890
 2368HO4     MW 9472   4.559   4.727   4.956
 2369HO4     OW 9473   2.285   3.892   2.852
 2369HO4    HW1 9474   2.238   3.941   2.778
 2369HO4    HW2 9475   2.302   3.955   2.928
 2369HO4     MW 9476   2.285   3.892   2.852
 2370HO4     OW 9477   0.732   4.732   3.254
 2370HO4    HW1 9478   0.756   4.800   3.324
 2370HO4    HW2 9479   0.705   4.780   3.170
 2370HO4     MW 9480   0.732   4.732   3.254
 2371HO4     OW 9481   1.351   5.071   4.247
 2371HO4    HW1 9482   1.346   5.169   4.265
 2371HO4    HW2 9483   1.392   5.055   4.157
 2371HO4     MW 9484   1.351   5.071   4.247
 2372HO4     OW 9485  -0.002   4.068   4.828
 2372HO4    HW1 9486   0.085   4.061   4.877
 2372HO4    HW2 9487  -0.020   4.164   4.805
 2372HO4     MW 9488  -0.002   4.068   4.828
 2373HO4     OW 9489   5.409   5.069   4.321
 2373HO4    HW1 9490   5.332   5.045   4.381
 2373HO4    HW2 9491   5.441   5.162   4.343
 2373HO4     MW 9492   5.409   5.069   4.321
 2374HO4     OW 9493   4.490   4.876   3.373
 2374HO4    HW1 9494   4.420   4.880   3.445
 2374HO4    HW2 9495   4.448   4.848   3.286
 2374HO4     MW 9496   4.490   4.876   3.373
 2375HO4     OW 9497   2.720   1.822   0.675
 2375HO4    HW1 9498   2.813   1.856   0.695
 2375HO4    HW2 9499   2.667   1.895   0.630
 2375HO4     MW 9500   2.720   1.822   0.675
 2376HO4     OW 9501   0.369   4.160   3.677
 2376HO4    HW1 9502   0.299   4.158   3.748
 2376HO4    HW2 9503   0.329   4.128   3.590
 2376HO4     MW 9504   0.369   4.160   3.677
 2377HO4     OW 9505   1.314   3.581   3.787
 2377HO4    HW1 9506   1.382   3.593   3.860
 2377HO4    HW2 9507   1.241   3.650   3.798
 2377HO4     MW 9508   1.314   3.581   3.787
 2378HO4     OW 9509   1.065   1.910   1.108
 2378HO4    HW1 9510   1.144   1.867   1.153
 2378HO4    HW2 9511   1.046   1.998   1.152
 2378HO4     MW 9512   1.065   1.910   1.108
 2379HO4     OW 9513   5.476   1.377   1.987
 2379HO4    HW1 9514   5.490   1.304   2.054
 2379HO4    HW2 9515   5.405   1.440   2.021
 2379HO4     MW 9516   5.476   1.377   1.987
 2380HO4     OW 9517   0.217   2.491   4.124
 2380HO4    HW1 9518   0.166   2.518   4.206
 2380HO4    HW2 9519   0.166   2.518   4.042
 2380HO4     MW 9520   0.217   2.491   4.124
 2381HO4     OW 9521   2.875   1.845   0.026
 2381HO4    HW1 9522   2.783   1.832  -0.013
 2381HO4    HW2 9523   2.877   1.806   0.119
 2381HO4     MW 9524   2.875   1.845   0.026
 2382HO4     OW 9525   4.677   3.615   2.203
 2382HO4    HW1 9526   4.663   3.622   2.103
 2382HO4    HW2 9527   4.722   3.699   2.235
 2382HO4     MW 9528   4.677   3.615   2.203
 2383HO4     OW 9529   5.417   4.490  -0.014
 2383HO4    HW1 9530   5.344   4.546  -0.053
 2383HO4    HW2 9531   5.418   4.500   0.086
 2383HO4     MW 9532   5.417   4.490  -0.014
 2384HO4     OW 9533   1.691   0.080   0.200
 2384HO4    HW1 9534   1.631   0.088   0.120
 2384HO4    HW2 9535   1.749   0.162   0.207
 2384HO4     MW 9536   1.691   0.080   0.200
 2385HO4     OW 9537   3.717   1.023   4.004
 2385HO4    HW1 9538   3.745   1.042   3.909
 2385HO4    HW2 9539   3.623   0.989   4.005
 2385HO4     MW 9540   3.717   1.023   4.004
 2386HO4     OW 9541   0.158   4.235   1.054
 2386HO4    HW1 9542   0.109   4.299   0.994
 2386HO4    HW2 9543   0.126   4.247   1.148
 2386HO4     MW 9544   0.158   4.235   1.054
 2387HO4     OW 9545   2.071   3.506   2.624
 2387HO4    HW1 9546   1.975   3.486   2.601
 2387HO4    HW2 9547   2.081   3.604   2.643
 2387HO4     MW 9548   2.071   3.506   2.624
 2388HO4     OW 9549   1.736   2.861   1.590
 2388HO4    HW1 9550   1.707   2.836   1.683
 2388HO4    HW2 9551   1.670   2.826   1.523
 2388HO4     MW 9552   1.736   2.861   1.590
 2389HO4     OW 9553   3.483   1.241   2.682
 2389HO4    HW1 9554   3.461   1.286   2.595
 2389HO4    HW2 9555   3.581   1.249   2.701
 2389HO4     MW 9556   3.483   1.241   2.682
 2390HO4     OW 9557   1.313   1.932   1.752
 2390HO4    HW1 9558   1.385   1.871   1.718
 2390HO4    HW2 9559   1.294   2.003   1.684
 2390HO4     MW 9560   1.313   1.932   1.752
 2391HO4     OW 9561   1.844   4.683   4.117
 2391HO4    HW1 9562   1.775   4.750   4.086
 2391HO4    HW2 9563   1.808   4.633   4.196
 2391HO4     MW 9564   1.844   4.683   4.117
 2392HO4     OW 9565   1.640   0.064   1.982
 2392HO4    HW1 9566   1.627   0.122   2.063
 2392HO4    HW2 9567   1.732   0.080   1.945
 2392HO4     MW 9568   1.640   0.064   1.982
 2393HO4     OW 9569   2.297   1.945   2.454
 2393HO4    HW1 9570   2.232   1.898   2.513
 2393HO4    HW2 9571   2.310   1.892   2.369
 2393HO4     MW 9572   2.297   1.945   2.454
 2394HO4     OW 9573   3.061   1.316   1.346
 2394HO4    HW1 9574   2.963   1.306   1.369
 2394HO4    HW2 9575   3.116   1.270   1.416
 2394HO4     MW 9576   3.061   1.316   1.346
 2395HO4     OW 9577   2.538   1.937   4.514
 2395HO4    HW1 9578   2.472   1.909   4.443
 2395HO4    HW2 9579   2.548   1.863   4.581
 2395HO4     MW 9580   2.538   1.937   4.514
 2396HO4     OW 9581   1.864   1.528   2.702
 2396HO4    HW1 9582   1.818   1.601   2.650
 2396HO4    HW2 9583   1.796   1.480   2.759
 2396HO4     MW 9584   1.864   1.528   2.702
 2397HO4     OW 9585   4.777   4.716   1.663
 2397HO4    HW1 9586   4.692   4.749   1.621
 2397HO4    HW2 9587   4.838   4.682   1.591
 2397HO4     MW 9588   4.777   4.716   1.663
 2398HO4     OW 9589   5.041   5.203   0.845
 2398HO4    HW1 9590   4.976   5.258   0.898
 2398HO4    HW2 9591   5.102   5.153   0.906
 2398HO4     MW 9592   5.041   5.203   0.845
 2399HO4     OW 9593   3.013   0.415   4.500
 2399HO4    HW1 9594   2.961   0.389   4.582
 2399HO4    HW2 9595   2.949   0.446   4.428
 2399HO4     MW 9596   3.013   0.415   4.500
 2400HO4     OW 9597   1.966   4.416   0.326
 2400HO4    HW1 9598   1.926   4.326   0.348
 2400HO4    HW2 9599   1.992   4.462   0.411
 2400HO4     MW 9600   1.966   4.416   0.326
 2401HO4     OW 9601   2.484   5.471   3.095
 2401HO4    HW1 9602   2.524   5.380   3.085
 2401HO4    HW2 9603   2.459   5.507   3.005
 2401HO4     MW 9604   2.484   5.471   3.095
 2402HO4     OW 9605   4.237   2.230   3.247
 2402HO4    HW1 9606   4.227   2.134   3.277
 2402HO4    HW2 9607   4.325   2.239   3.198
 2402HO4     MW 9608   4.237   2.230   3.247
 2403HO4     OW 9609   0.923   1.616   1.569
 2403HO4    HW1 9610   0.987   1.611   1.491
 2403HO4    HW2 9611   0.925   1.528   1.618
 2403HO4     MW 9612   0.923   1.616   1.569
 2404HO4     OW 9613   0.725   3.094   1.332
 2404HO4    HW1 9614   0.727   3.081   1.431
 2404HO4    HW2 9615   0.703   3.007   1.287
 2404HO4     MW 9616   0.725   3.094   1.332
 2405HO4     OW 9617   4.196   2.570   0.871
 2405HO4    HW1 9618   4.133   2.540   0.943
 2405HO4    HW2 9619   4.161   2.540   0.782
 2405HO4     MW 9620   4.196   2.570   0.871
 2406HO4     OW 9621   0.551   0.861   3.544
 2406HO4    HW1 9622   0.477   0.800   3.572
 2406HO4    HW2 9623   0.513   0.938   3.492
 2406HO4     MW 9624   0.551   0.861   3.544
 2407HO4     OW 9625   0.538   5.123   0.132
 2407HO4    HW1 9626   0.625   5.167   0.157
 2407HO4    HW2 9627   0.468   5.149   0.199
 2407HO4     MW 9628   0.538   5.123   0.132
 2408HO4     OW 9629   1.581   1.135   2.096
 2408HO4    HW1 9630   1.632   1.208   2.142
 2408HO4    HW2 9631   1.578   1.053   2.154
 2408HO4     MW 9632   1.581   1.135   2.096
 2409HO4     OW 9633   3.439   3.495   2.269
 2409HO4    HW1 9634   3.516   3.462   2.323
 2409HO4    HW2 9635   3.408   3.422   2.207
 2409HO4     MW 9636   3.439   3.495   2.269
 2410HO4     OW 9637   1.539   0.725   4.131
 2410HO4    HW1 9638   1.599   0.787   4.183
 2410HO4    HW2 9639   1.591   0.642   4.107
 2410HO4     MW 9640   1.539   0.725   4.131
 2411HO4     OW 9641   1.796   4.019   2.359
 2411HO4    HW1 9642   1.731   3.979   2.294
 2411HO4    HW2 9643   1.750   4.090   2.413
 2411HO4     MW 9644   1.796   4.019   2.359
 2412HO4     OW 9645   3.675   0.581   3.957
 2412HO4    HW1 9646   3.684   0.526   4.041
 2412HO4    HW2 9647   3.679   0.521   3.877
 2412HO4     MW 9648   3.675   0.581   3.957
 2413HO4     OW 9649   1.883   1.778   3.807
 2413HO4    HW1 9650   1.931   1.745   3.725
 2413HO4    HW2 9651   1.941   1.763   3.887
 2413HO4     MW 9652   1.883   1.778   3.807
 2414HO4     OW 9653   1.933   3.889   2.142
 2414HO4    HW1 9654   1.857   3.927   2.195
 2414HO4    HW2 9655   1.897   3.821   2.077
 2414HO4     MW 9656   1.933   3.889   2.142
 2415HO4     OW 9657   5.172   1.639   2.815
 2415HO4    HW1 9658   5.242   1.709   2.799
 2415HO4    HW2 9659   5.202   1.576   2.886
 2415HO4     MW 9660   5.172   1.639   2.815
 2416HO4     OW 9661   4.797   4.333   4.706
 2416HO4    HW1 9662   4.775   4.396   4.781
 2416HO4    HW2 9663   4.773   4.376   4.618
 2416HO4     MW 9664   4.797   4.333   4.706
 2417HO4     OW 9665   1.157   0.093   2.706
 2417HO4    HW1 9666   1.125  -0.002   2.706
 2417HO4    HW2 9667   1.179   0.121   2.800
 2417HO4     MW 9668   1.157   0.093   2.706
 2418HO4     OW 9669   4.817   4.177   4.361
 2418HO4    HW1 9670   4.790   4.094   4.412
 2418HO4    HW2 9671   4.906   4.161   4.318
 2418HO4     MW 9672   4.817   4.177   4.361
 2419HO4     OW 9673   5.370   0.018   5.322
 2419HO4    HW1 9674   5.463   0.056   5.314
 2419HO4    HW2 9675   5.330   0.044   5.410
 2419HO4     MW 9676   5.370   0.018   5.322
 2420HO4     OW 9677   4.400   1.816   4.718
 2420HO4    HW1 9678   4.387   1.874   4.637
 2420HO4    HW2 9679   4.384   1.870   4.801
 2420HO4     MW 9680   4.400   1.816   4.718
 2421HO4     OW 9681   4.543   2.555   4.387
 2421HO4    HW1 9682   4.478   2.616   4.434
 2421HO4    HW2 9683   4.517   2.460   4.404
 2421HO4     MW 9684   4.543   2.555   4.387
 2422HO4     OW 9685   0.065   5.482   0.645
 2422HO4    HW1 9686   0.052   5.386   0.672
 2422HO4    HW2 9687   0.055   5.491   0.545
 2422HO4     MW 9688   0.065   5.482   0.645
 2423HO4     OW 9689   4.060   0.619   3.848
 2423HO4    HW1 9690   4.026   0.586   3.760
 2423HO4    HW2 9691   4.027   0.559   3.921
 2423HO4     MW 9692   4.060   0.619   3.848
 2424HO4     OW 9693   0.915   4.148   4.351
 2424HO4    HW1 9694   0.912   4.064   4.295
 2424HO4    HW2 9695   0.997   4.200   4.328
 2424HO4     MW 9696   0.915   4.148   4.351
 2425HO4     OW 9697   1.153   2.996   0.711
 2425HO4    HW1 9698   1.105   3.031   0.791
 2425HO4    HW2 9699   1.109   3.030   0.627
 2425HO4     MW 9700   1.153   2.996   0.711
 2426HO4     OW 9701   4.708   2.965   5.331
 2426HO4    HW1 9702   4.672   3.049   5.371
 2426HO4    HW2 9703   4.700   2.969   5.231
 2426HO4     MW 9704   4.708   2.965   5.331
 2427HO4     OW 9705   2.832   0.157   0.512
 2427HO4    HW1 9706   2.863   0.210   0.432
 2427HO4    HW2 9707   2.890   0.075   0.521
 2427HO4     MW 9708   2.832   0.157   0.512
 2428HO4     OW 9709   5.082   3.035   3.398
 2428HO4    HW1 9710   5.098   3.107   3.329
 2428HO4    HW2 9711   5.039   3.076   3.479
 2428HO4     MW 9712   5.082   3.035   3.398
 2429HO4     OW 9713   4.629   3.970   2.840
 2429HO4    HW1 9714   4.604   3.932   2.751
 2429HO4    HW2 9715   4.552   4.023   2.877
 2429HO4     MW 9716   4.629   3.970   2.840
 2430HO4     OW 9717   5.019   0.073   2.021
 2430HO4    HW1 9718   4.920   0.088   2.017
 2430HO4    HW2 9719   5.054   0.059   1.928
 2430HO4     MW 9720   5.019   0.073   2.021
 2431HO4     OW 9721   4.577   4.506   4.187
 2431HO4    HW1 9722   4.481   4.525   4.212
 2431HO4    HW2 9723   4.594   4.538   4.093
 2431HO4     MW 9724   4.577   4.506   4.187
 2432HO4     OW 9725   0.543   0.752   5.087
 2432HO4    HW1 9726   0.497   0.760   4.998
 2432HO4    HW2 9727   0.617   0.684   5.080
 2432HO4     MW 9728   0.543   0.752   5.087
 2433HO4     OW 9729   2.742   1.507   2.898
 2433HO4    HW1 9730   2.678   1.440   2.938
 2433HO4    HW2 9731   2.724   1.597   2.938
 2433HO4     MW 9732   2.742   1.507   2.898
 2434HO4     OW 9733   2.120   2.438   5.223
 2434HO4    HW1 9734   2.158   2.458   5.132
 2434HO4    HW2 9735   2.176   2.369   5.268
 2434HO4     MW 9736   2.120   2.438   5.223
 2435HO4     OW 9737   4.583   2.984   3.242
 2435HO4    HW1 9738   4.556   2.899   3.287
 2435HO4    HW2 9739   4.508   3.051   3.250
 2435HO4     MW 9740   4.583   2.984   3.242
 2436HO4     OW 9741   4.929   3.309   4.600
 2436HO4    HW1 9742   4.880   3.360   4.672
 2436HO4    HW2 9743   4.885   3.328   4.511
 2436HO4     MW 9744   4.929   3.309   4.600
 2437HO4     OW 9745   0.253   4.627   2.776
 2437HO4    HW1 9746   0.257   4.588   2.869
 2437HO4    HW2 9747   0.331   4.690   2.763
 2437HO4     MW 9748   0.253   4.627   2.776
 2438HO4     OW 9749   4.680   4.784   0.710
 2438HO4    HW1 9750   4.650   4.830   0.795
 2438HO4    HW2 9751   4.655   4.840   0.631
 2438HO4     MW 9752   4.680   4.784   0.710
 2439HO4     OW 9753   3.200   1.574   4.780
 2439HO4    HW1 9754   3.234   1.625   4.700
 2439HO4    HW2 9755   3.153   1.491   4.748
 2439HO4     MW 9756   3.200   1.574   4.780
 2440HO4     OW 9757   4.507   5.200   1.112
 2440HO4    HW1 9758   4.474   5.197   1.207
 2440HO4    HW2 9759   4.434   5.234   1.052
 2440HO4     MW 9760   4.507   5.200   1.112
 2441HO4     OW 9761   0.964   0.997   2.266
 2441HO4    HW1 9762   0.889   1.034   2.211
 2441HO4    HW2 9763   0.927   0.943   2.342
 2441HO4     MW 9764   0.964   0.997   2.266
 2442HO4     OW 9765   4.789   4.873   3.745
 2442HO4    HW1 9766   4.707   4.893   3.692
 2442HO4    HW2 9767   4.871   4.891   3.688
 2442HO4     MW 9768   4.789   4.873   3.745
 2443HO4     OW 9769   4.108   4.383   0.672
 2443HO4    HW1 9770   4.167   4.455   0.634
 2443HO4    HW2 9771   4.016   4.420   0.688
 2443HO4     MW 9772   4.108   4.383   0.672
 2444HO4     OW 9773   4.028   5.020   0.195
 2444HO4    HW1 9774   4.108   5.049   0.249
 2444HO4    HW2 9775   4.052   5.022   0.097
 2444HO4     MW 9776   4.028   5.020   0.195
 2445HO4     OW 9777   0.833   1.014   2.832
 2445HO4    HW1 9778   0.777   1.030   2.914
 2445HO4    HW2 9779   0.777   1.029   2.750
 2445HO4     MW 9780   0.833   1.014   2.832
 2446HO4     OW 9781   0.395   1.832   2.414
 2446HO4    HW1 9782   0.417   1.767   2.489
 2446HO4    HW2 9783   0.385   1.781   2.328
 2446HO4     MW 9784   0.395   1.832   2.414
 2447HO4     OW 9785   4.235   2.524   1.951
 2447HO4    HW1 9786   4.199   2.616   1.972
 2447HO4    HW2 9787   4.241   2.512   1.851
 2447HO4     MW 9788   4.235   2.524   1.951
 2448HO4     OW 9789   2.472   3.230   1.892
 2448HO4    HW1 9790   2.547   3.286   1.855
 2448HO4    HW2 9791   2.496   3.200   1.985
 2448HO4     MW 9792   2.472   3.230   1.892
 2449HO4     OW 9793   0.018   2.507   4.700
 2449HO4    HW1 9794   0.025   2.484   4.798
 2449HO4    HW2 9795  -0.045   2.584   4.688
 2449HO4     MW 9796   0.018   2.507   4.700
 2450HO4     OW 9797   1.933   4.817   1.010
 2450HO4    HW1 9798   2.025   4.803   1.049
 2450HO4    HW2 9799   1.884   4.729   1.008
 2450HO4     MW 9800   1.933   4.817   1.010
 2451HO4     OW 9801   0.914   5.034   0.166
 2451HO4    HW1 9802   0.869   5.067   0.083
 2451HO4    HW2 9803   0.963   5.109   0.210
 2451HO4     MW 9804   0.914   5.034   0.166
 2452HO4     OW 9805   0.319   3.799   2.311
 2452HO4    HW1 9806   0.364   3.741   2.380
 2452HO4    HW2 9807   0.308   3.892   2.347
 2452HO4     MW 9808   0.319   3.799   2.311
 2453HO4     OW 9809   4.759   2.003   3.515
 2453HO4    HW1 9810   4.781   2.099   3.500
 2453HO4    HW2 9811   4.789   1.976   3.607
 2453HO4     MW 9812   4.759   2.003   3.515
 2454HO4     OW 9813   0.343   2.803   4.176
 2454HO4    HW1 9814   0.317   2.802   4.079
 2454HO4    HW2 9815   0.261   2.793   4.233
 2454HO4     MW 9816   0.343   2.803   4.176
 2455HO4     OW 9817   5.481   3.096   3.083
 2455HO4    HW1 9818   5.477   3.167   3.153
 2455HO4    HW2 9819   5.391   3.087   3.039
 2455HO4     MW 9820   5.481   3.096   3.083
 2456HO4     OW 9821   3.042   4.465   3.159
 2456HO4    HW1 9822   3.065   4.442   3.254
 2456HO4    HW2 9823   2.947   4.497   3.154
 2456HO4     MW 9824   3.042   4.465   3.159
 2457HO4     OW 9825   4.732   0.744   2.488
 2457HO4    HW1 9826   4.660   0.729   2.419
 2457HO4    HW2 9827   4.736   0.664   2.549
 2457HO4     MW 9828   4.732   0.744   2.488
 2458HO4     OW 9829   4.966   3.521   4.123
 2458HO4    HW1 9830   4.946   3.530   4.025
 2458HO4    HW2 9831   4.907   3.584   4.174
 2458HO4     MW 9832   4.966   3.521   4.123
 2459HO4     OW 9833   1.715   3.331   3.552
 2459HO4    HW1 9834   1.790   3.326   3.485
 2459HO4    HW2 9835   1.752   3.364   3.640
 2459HO4     MW 9836   1.715   3.331   3.552
 2460HO4     OW 9837   4.101   1.306   0.911
 2460HO4    HW1 9838   4.087   1.402   0.882
 2460HO4    HW2 9839   4.105   1.303   1.011
 2460HO4     MW 9840   4.101   1.306   0.911
 2461HO4     OW 9841   0.624   2.710   5.267
 2461HO4    HW1 9842   0.586   2.672   5.352
 2461HO4    HW2 9843   0.581   2.664   5.188
 2461HO4     MW 9844   0.624   2.710   5.267
 2462HO4     OW 9845   1.708   1.065   5.468
 2462HO4    HW1 9846   1.801   1.101   5.469
 2462HO4    HW2 9847   1.679   1.050   5.373
 2462HO4     MW 9848   1.708   1.065   5.468
 2463HO4     OW 9849   1.173   0.045   3.003
 2463HO4    HW1 9850   1.128   0.096   2.930
 2463HO4    HW2 9851   1.145   0.081   3.092
 2463HO4     MW 9852   1.173   0.045   3.003
 2464HO4     OW 9853   0.124   3.624   4.729
 2464HO4    HW1 9854   0.066   3.704   4.748
 2464HO4    HW2 9855   0.132   3.611   4.630
 2464HO4     MW 9856   0.124   3.624   4.729
 2465HO4     OW 9857   0.386   2.054   2.130
 2465HO4    HW1 9858   0.340   2.025   2.045
 2465HO4    HW2 9859   0.321   2.105   2.187
 2465HO4     MW 9860   0.386   2.054   2.130
 2466HO4     OW 9861   1.568   2.634   5.126
 2466HO4    HW1 9862   1.569   2.706   5.196
 2466HO4    HW2 9863   1.566   2.676   5.035
 2466HO4     MW 9864   1.568   2.634   5.126
 2467HO4     OW 9865   3.594   2.598   0.333
 2467HO4    HW1 9866   3.584   2.544   0.417
 2467HO4    HW2 9867   3.630   2.689   0.355
 2467HO4     MW 9868   3.594   2.598   0.333
 2468HO4     OW 9869   1.477   1.433   1.310
 2468HO4    HW1 9870   1.545   1.421   1.384
 2468HO4    HW2 9871   1.524   1.450   1.224
 2468HO4     MW 9872   1.477   1.433   1.310
 2469HO4     OW 9873   3.146   5.481   0.815
 2469HO4    HW1 9874   3.145   5.385   0.786
 2469HO4    HW2 9875   3.112   5.488   0.910
 2469HO4     MW 9876   3.146   5.481   0.815
 2470HO4     OW 9877   1.693   0.304   4.071
 2470HO4    HW1 9878   1.784   0.324   4.034
 2470HO4    HW2 9879   1.622   0.344   4.012
 2470HO4     MW 9880   1.693   0.304   4.071
 2471HO4     OW 9881   2.791   3.267   2.972
 2471HO4    HW1 9882   2.705   3.290   3.019
 2471HO4    HW2 9883   2.828   3.182   3.010
 2471HO4     MW 9884   2.791   3.267   2.972
 2472HO4     OW 9885   0.765   0.536   0.909
 2472HO4    HW1 9886   0.792   0.440   0.898
 2472HO4    HW2 9887   0.720   0.568   0.825
 2472HO4     MW 9888   0.765   0.536   0.909
 2473HO4     OW 9889   5.311   1.982   2.434
 2473HO4    HW1 9890   5.255   1.905   2.404
 2473HO4    HW2 9891   5.403   1.949   2.459
 2473HO4     MW 9892   5.311   1.982   2.434
 2474HO4     OW 9893   1.184   3.753   4.671
 2474HO4    HW1 9894   1.225   3.715   4.587
 2474HO4    HW2 9895   1.231   3.714   4.751
 2474HO4     MW 9896   1.184   3.753   4.671
 2475HO4     OW 9897   0.513   4.784   4.317
 2475HO4    HW1 9898   0.442   4.728   4.273
 2475HO4    HW2 9899   0.563   4.836   4.247
 2475HO4     MW 9900   0.513   4.784   4.317
 2476HO4     OW 9901   4.447   2.018   0.686
 2476HO4    HW1 9902   4.534   2.040   0.730
 2476HO4    HW2 9903   4.385   2.097   0.691
 2476HO4     MW 9904   4.447   2.018   0.686
 2477HO4     OW 9905   4.676   3.676   5.065
 2477HO4    HW1 9906   4.629   3.707   5.148
 2477HO4    HW2 9907   4.696   3.578   5.073
 2477HO4     MW 9908   4.676   3.676   5.065
 2478HO4     OW 9909   2.219   3.319   3.800
 2478HO4    HW1 9910   2.175   3.339   3.888
 2478HO4    HW2 9911   2.189   3.387   3.732
 2478HO4     MW 9912   2.219   3.319   3.800
 2479HO4     OW 9913   1.930   4.060   0.431
 2479HO4    HW1 9914   1.865   4.055   0.506
 2479HO4    HW2 9915   1.881   4.063   0.344
 2479HO4     MW 9916   1.930   4.060   0.431
 2480HO4     OW 9917   3.191   1.474   2.269
 2480HO4    HW1 9918   3.290   1.480   2.252
 2480HO4    HW2 9919   3.172   1.491   2.366
 2480HO4     MW 9920   3.191   1.474   2.269
 2481HO4     OW 9921   5.120   2.949   1.953
 2481HO4    HW1 9922   5.154   2.858   1.931
 2481HO4    HW2 9923   5.020   2.946   1.964
 2481HO4     MW 9924   5.120   2.949   1.953
 2482HO4     OW 9925   1.173   0.937   2.006
 2482HO4    HW1 9926   1.147   0.892   2.092
 2482HO4    HW2 9927   1.144   0.880   1.929
 2482HO4     MW 9928   1.173   0.937   2.006
 2483HO4     OW 9929   4.692   1.366   0.956
 2483HO4    HW1 9930   4.707   1.315   1.041
 2483HO4    HW2 9931   4.708   1.306   0.877
 2483HO4     MW 9932   4.692   1.366   0.956
 2484HO4     OW 9933   1.306   3.624   3.331
 2484HO4    HW1 9934   1.393   3.583   3.304
 2484HO4    HW2 9935   1.320   3.721   3.354
 2484HO4     MW 9936   1.306   3.624   3.331
 2485HO4     OW 9937   3.512   4.934   0.124
 2485HO4    HW1 9938   3.610   4.932   0.145
 2485HO4    HW2 9939   3.499   4.922   0.025
 2485HO4     MW 9940   3.512   4.934   0.124
 2486HO4     OW 9941   0.917   0.150  -0.012
 2486HO4    HW1 9942   0.866   0.117   0.068
 2486HO4    HW2 9943   0.997   0.203   0.018
 2486HO4     MW 9944   0.917   0.150  -0.012
 2487HO4     OW 9945   2.277   2.357   0.043
 2487HO4    HW1 9946   2.222   2.441   0.035
 2487HO4    HW2 9947   2.375   2.381   0.043
 2487HO4     MW 9948   2.277   2.357   0.043
 2488HO4     OW 9949   3.117   3.012   1.240
 2488HO4    HW1 9950   3.215   3.004   1.221
 2488HO4    HW2 9951   3.076   3.080   1.179
 2488HO4     MW 9952   3.117   3.012   1.240
 2489HO4     OW 9953   3.194   1.928   3.228
 2489HO4    HW1 9954   3.257   1.935   3.150
 2489HO4    HW2 9955   3.244   1.945   3.314
 2489HO4     MW 9956   3.194   1.928   3.228
 2490HO4     OW 9957   3.047   0.452   0.044
 2490HO4    HW1 9958   2.989   0.388   0.095
 2490HO4    HW2 9959   3.021   0.449  -0.054
 2490HO4     MW 9960   3.047   0.452   0.044
 2491HO4     OW 9961   0.909   4.548   2.980
 2491HO4    HW1 9962   0.945   4.561   2.887
 2491HO4    HW2 9963   0.984   4.549   3.046
 2491HO4     MW 9964   0.909   4.548   2.980
 2492HO4     OW 9965   1.862   3.922   0.162
 2492HO4    HW1 9966   1.824   4.008   0.197
 2492HO4    HW2 9967   1.932   3.888   0.226
 2492HO4     MW 9968   1.862   3.922   0.162
 2493HO4     OW 9969   0.376   1.531   0.901
 2493HO4    HW1 9970   0.443   1.550   0.974
 2493HO4    HW2 9971   0.414   1.559   0.812
 2493HO4     MW 9972   0.376   1.531   0.901
 2494HO4     OW 9973   0.829   4.681   4.097
 2494HO4    HW1 9974   0.870   4.688   4.188
 2494HO4    HW2 9975   0.839   4.587   4.062
 2494HO4     MW 9976   0.829   4.681   4.097
 2495HO4     OW 9977   4.835   0.298   3.307
 2495HO4    HW1 9978   4.851   0.248   3.393
 2495HO4    HW2 9979   4.899   0.265   3.237
 2495HO4     MW 9980   4.835   0.298   3.307
 2496HO4     OW 9981   1.442   4.949   0.415
 2496HO4    HW1 9982   1.412   4.891   0.492
 2496HO4    HW2 9983   1.370   4.953   0.346
 2496HO4     MW 9984   1.442   4.949   0.415
 2497HO4     OW 9985   1.432   2.563   2.160
 2497HO4    HW1 9986   1.373   2.608   2.228
 2497HO4    HW2 9987   1.382   2.555   2.073
 2497HO4     MW 9988   1.432   2.563   2.160
 2498HO4     OW 9989   2.412   2.682   0.393
 2498HO4    HW1 9990   2.493   2.737   0.416
 2498HO4    HW2 9991   2.379   2.707   0.302
 2498HO4     MW 9992   2.412   2.682   0.393
 2499HO4     OW 9993   0.324   3.755   4.902
 2499HO4    HW1 9994   0.375   3.726   4.820
 2499HO4    HW2 9995   0.305   3.676   4.960
 2499HO4     MW 9996   0.324   3.755   4.902
 2500HO4     OW 9997   0.868   4.747   5.466
 2500HO4    HW1 9998   0.886   4.693   5.548
 2500HO4    HW2 9999   0.886   4.692   5.384
 2500HO4     MW10000   0.868   4.747   5.466
 2501HO4     OW10001   4.442   0.553   2.691
 2501HO4    HW110002   4.508   0.519   2.759
 2501HO4    HW210003   4.350   0.549   2.730
 2501HO4     MW10004   4.442   0.553   2.691
 2502HO4     OW10005   1.072   3.398   0.395
 2502HO4    HW110006   1.034   3.431   0.481
 2502HO4    HW210007   1.098   3.301   0.404
 2502HO4     MW10008   1.072   3.398   0.395
 2503HO4     OW10009   2.938   0.098   5.329
 2503HO4    HW110010   2.981   0.057   5.410
 2503HO4    HW210011   2.856   0.150   5.357
 2503HO4     MW10012   2.938   0.098   5.329
 2504HO4     OW10013   4.708   2.631   3.120
 2504HO4    HW110014   4.692   2.533   3.132
 2504HO4    HW210015   4.797   2.646   3.078
 2504HO4     MW10016   4.708   2.631   3.120
 2505HO4     OW10017   4.433   4.518   4.909
 2505HO4    HW110018   4.518   4.515   4.963
 2505HO4    HW210019   4.432   4.442   4.843
 2505HO4     MW10020   4.433   4.518   4.909
 2506HO4     OW10021   4.571   4.002   1.000
 2506HO4    HW110022   4.600   4.000   0.904
 2506HO4    HW210023   4.631   3.943   1.055
 2506HO4     MW10024   4.571   4.002   1.000
 2507HO4     OW10025   3.213   5.278   5.131
 2507HO4    HW110026   3.113   5.277   5.141
 2507HO4    HW210027   3.244   5.185   5.107
 2507HO4     MW10028   3.213   5.278   5.131
 2508HO4     OW10029   2.173   0.854   5.188
 2508HO4    HW110030   2.152   0.951   5.172
 2508HO4    HW210031   2.149   0.830   5.282
 2508HO4     MW10032   2.173   0.854   5.188
 2509HO4     OW10033   5.239   3.437   1.100
 2509HO4    HW110034   5.289   3.476   1.022
 2509HO4    HW210035   5.272   3.480   1.185
 2509HO4     MW10036   5.239   3.437   1.100
 2510HO4     OW10037   4.806   5.052   0.729
 2510HO4    HW110038   4.835   5.118   0.659
 2510HO4    HW210039   4.825   5.090   0.820
 2510HO4     MW10040   4.806   5.052   0.729
 2511HO4     OW10041   4.457   2.371   0.834
 2511HO4    HW110042   4.451   2.314   0.917
 2511HO4    HW210043   4.450   2.313   0.753
 2511HO4     MW10044   4.457   2.371   0.834
 2512HO4     OW10045   0.611   3.355   1.811
 2512HO4    HW110046   0.628   3.341   1.713
 2512HO4    HW210047   0.664   3.287   1.863
 2512HO4     MW10048   0.611   3.355   1.811
 2513HO4     OW10049   1.936   0.211   4.544
 2513HO4    HW110050   1.983   0.139   4.596
 2513HO4    HW210051   1.961   0.205   4.447
 2513HO4     MW10052   1.936   0.211   4.544
 2514HO4     OW10053   0.451   4.878   3.426
 2514HO4    HW110054   0.376   4.944   3.438
 2514HO4    HW210055   0.466   4.828   3.511
 2514HO4     MW10056   0.451   4.878   3.426
 2515HO4     OW10057   1.017   5.427   5.101
 2515HO4    HW110058   0.978   5.508   5.146
 2515HO4    HW210059   1.081   5.457   5.030
 2515HO4     MW10060   1.017   5.427   5.101
 2516HO4     OW10061   4.809   2.580   5.211
 2516HO4    HW110062   4.786   2.484   5.229
 2516HO4    HW210063   4.797   2.634   5.295
 2516HO4     MW10064   4.809   2.580   5.211
 2517HO4     OW10065   4.817   0.778   5.203
 2517HO4    HW110066   4.899   0.772   5.145
 2517HO4    HW210067   4.749   0.712   5.171
 2517HO4     MW10068   4.817   0.778   5.203
 2518HO4     OW10069   1.219   5.254   2.623
 2518HO4    HW110070   1.242   5.184   2.691
 2518HO4    HW210071   1.218   5.212   2.531
 2518HO4     MW10072   1.219   5.254   2.623
 2519HO4     OW10073   1.493   5.044   0.021
 2519HO4    HW110074   1.580   5.093   0.037
 2519HO4    HW210075   1.416   5.101   0.051
 2519HO4     MW10076   1.493   5.044   0.021
 2520HO4     OW10077   3.727   0.871   2.886
 2520HO4    HW110078   3.672   0.950   2.857
 2520HO4    HW210079   3.821   0.901   2.903
 2520HO4     MW10080   3.727   0.871   2.886
 2521HO4     OW10081   1.309   2.530   0.788
 2521HO4    HW110082   1.367   2.451   0.768
 2521HO4    HW210083   1.358   2.615   0.765
 2521HO4     MW10084   1.309   2.530   0.788
 2522HO4     OW10085   3.568   2.380   5.001
 2522HO4    HW110086   3.637   2.366   4.929
 2522HO4    HW210087   3.613   2.376   5.091
 2522HO4     MW10088   3.568   2.380   5.001
 2523HO4     OW10089   3.726   1.375   2.218
 2523HO4    HW110090   3.817   1.369   2.175
 2523HO4    HW210091   3.727   1.321   2.304
 2523HO4     MW10092   3.726   1.375   2.218
 2524HO4     OW10093   5.424   0.309   5.133
 2524HO4    HW110094   5.366   0.301   5.214
 2524HO4    HW210095   5.372   0.350   5.057
 2524HO4     MW10096   5.424   0.309   5.133
 2525HO4     OW10097   0.653   3.693   3.651
 2525HO4    HW110098   0.703   3.683   3.737
 2525HO4    HW210099   0.714   3.730   3.580
 2525HO4     MW10100   0.653   3.693   3.651
 2526HO4     OW10101   2.524   5.020   3.654
 2526HO4    HW110102   2.621   4.995   3.653
 2526HO4    HW210103   2.495   5.048   3.562
 2526HO4     MW10104   2.524   5.020   3.654
 2527HO4     OW10105   2.518   4.751   2.375
 2527HO4    HW110106   2.611   4.715   2.362
 2527HO4    HW210107   2.486   4.729   2.467
 2527HO4     MW10108   2.518   4.751   2.375
 2528HO4     OW10109   4.658   2.050   4.494
 2528HO4    HW110110   4.661   1.989   4.573
 2528HO4    HW210111   4.644   1.995   4.410
 2528HO4     MW10112   4.658   2.050   4.494
 2529HO4     OW10113   3.770   0.928   0.462
 2529HO4    HW110114   3.838   0.969   0.523
 2529HO4    HW210115   3.783   0.963   0.368
 2529HO4     MW10116   3.770   0.928   0.462
 2530HO4     OW10117   1.854   4.473   3.807
 2530HO4    HW110118   1.826   4.552   3.752
 2530HO4    HW210119   1.837   4.389   3.756
 2530HO4     MW10120   1.854   4.473   3.807
 2531HO4     OW10121   1.880   0.471   2.524
 2531HO4    HW110122   1.816   0.501   2.596
 2531HO4    HW210123   1.951   0.541   2.511
 2531HO4     MW10124   1.880   0.471   2.524
 2532HO4     OW10125   4.513   4.330   3.600
 2532HO4    HW110126   4.541   4.385   3.521
 2532HO4    HW210127   4.563   4.361   3.681
 2532HO4     MW10128   4.513   4.330   3.600
 2533HO4     OW10129   2.935   3.415   3.754
 2533HO4    HW110130   2.887   3.376   3.674
 2533HO4    HW210131   2.895   3.378   3.838
 2533HO4     MW10132   2.935   3.415   3.754
 2534HO4     OW10133   3.463   4.462   3.290
 2534HO4    HW110134   3.518   4.545   3.280
 2534HO4    HW210135   3.373   4.485   3.329
 2534HO4     MW10136   3.463   4.462   3.290
 2535HO4     OW10137   1.565   1.416   4.781
 2535HO4    HW110138   1.566   1.463   4.693
 2535HO4    HW210139   1.486   1.447   4.835
 2535HO4     MW10140   1.565   1.416   4.781
 2536HO4     OW10141   0.449   1.867   4.485
 2536HO4    HW110142   0.515   1.818   4.427
 2536HO4    HW210143   0.448   1.826   4.576
 2536HO4     MW10144   0.449   1.867   4.485
 2537HO4     OW10145   0.689   2.275   4.734
 2537HO4    HW110146   0.624   2.225   4.792
 2537HO4    HW210147   0.669   2.373   4.738
 2537HO4     MW10148   0.689   2.275   4.734
 2538HO4     OW10149   1.515   0.338   0.422
 2538HO4    HW110150   1.481   0.247   0.448
 2538HO4    HW210151   1.438   0.402   0.421
 2538HO4     MW10152   1.515   0.338   0.422
 2539HO4     OW10153   0.400   4.584   1.630
 2539HO4    HW110154   0.403   4.589   1.730
 2539HO4    HW210155   0.491   4.560   1.595
 2539HO4     MW10156   0.400   4.584   1.630
 2540HO4     OW10157   4.198   4.174   3.439
 2540HO4    HW110158   4.200   4.234   3.519
 2540HO4    HW210159   4.240   4.085   3.462
 2540HO4     MW10160   4.198   4.174   3.439
 2541HO4     OW10161   2.627   0.119   3.404
 2541HO4    HW110162   2.641   0.189   3.334
 2541HO4    HW210163   2.590   0.161   3.487
 2541HO4     MW10164   2.627   0.119   3.404
 2542HO4     OW10165   2.366   0.755   5.142
 2542HO4    HW110166   2.424   0.730   5.220
 2542HO4    HW210167   2.407   0.721   5.057
 2542HO4     MW10168   2.366   0.755   5.142
 2543HO4     OW10169   3.388   0.758   4.001
 2543HO4    HW110170   3.462   0.801   4.054
 2543HO4    HW210171   3.405   0.773   3.903
 2543HO4     MW10172   3.388   0.758   4.001
 2544HO4     OW10173   3.699   3.128   3.142
 2544HO4    HW110174   3.778   3.106   3.084
 2544HO4    HW210175   3.681   3.051   3.204
 2544HO4     MW10176   3.699   3.128   3.142
 2545HO4     OW10177   5.480   1.884   2.138
 2545HO4    HW110178   5.547   1.827   2.186
 2545HO4    HW210179   5.389   1.844   2.147
 2545HO4     MW10180   5.480   1.884   2.138
 2546HO4     OW10181   1.723   3.341   2.168
 2546HO4    HW110182   1.623   3.354   2.174
 2546HO4    HW210183   1.749   3.317   2.074
 2546HO4     MW10184   1.723   3.341   2.168
 2547HO4     OW10185   2.385   4.995   5.248
 2547HO4    HW110186   2.388   5.047   5.162
 2547HO4    HW210187   2.478   4.988   5.286
 2547HO4     MW10188   2.385   4.995   5.248
 2548HO4     OW10189   0.442   3.306   5.460
 2548HO4    HW110190   0.354   3.259   5.452
 2548HO4    HW210191   0.499   3.286   5.380
 2548HO4     MW10192   0.442   3.306   5.460
 2549HO4     OW10193   3.090   4.074   4.841
 2549HO4    HW110194   3.034   4.103   4.763
 2549HO4    HW210195   3.033   4.022   4.905
 2549HO4     MW10196   3.090   4.074   4.841
 2550HO4     OW10197   1.087   4.155   5.333
 2550HO4    HW110198   1.030   4.142   5.251
 2550HO4    HW210199   1.067   4.082   5.399
 2550HO4     MW10200   1.087   4.155   5.333
 2551HO4     OW10201   3.269   0.117   2.677
 2551HO4    HW110202   3.230   0.138   2.587
 2551HO4    HW210203   3.221   0.170   2.748
 2551HO4     MW10204   3.269   0.117   2.677
 2552HO4     OW10205   2.726   5.198   2.427
 2552HO4    HW110206   2.818   5.209   2.388
 2552HO4    HW210207   2.732   5.142   2.511
 2552HO4     MW10208   2.726   5.198   2.427
 2553HO4     OW10209   4.791   3.056   3.931
 2553HO4    HW110210   4.840   2.995   3.868
 2553HO4    HW210211   4.830   3.047   4.023
 2553HO4     MW10212   4.791   3.056   3.931
 2554HO4     OW10213   4.059   0.355   4.635
 2554HO4    HW110214   4.066   0.455   4.645
 2554HO4    HW210215   3.992   0.333   4.564
 2554HO4     MW10216   4.059   0.355   4.635
 2555HO4     OW10217   5.119   1.940   2.784
 2555HO4    HW110218   5.152   2.017   2.729
 2555HO4    HW210219   5.189   1.867   2.785
 2555HO4     MW10220   5.119   1.940   2.784
 2556HO4     OW10221   5.071   4.335   5.283
 2556HO4    HW110222   5.158   4.384   5.270
 2556HO4    HW210223   4.999   4.400   5.308
 2556HO4     MW10224   5.071   4.335   5.283
 2557HO4     OW10225   2.179   1.444   1.082
 2557HO4    HW110226   2.177   1.386   1.164
 2557HO4    HW210227   2.189   1.387   1.001
 2557HO4     MW10228   2.179   1.444   1.082
 2558HO4     OW10229   3.999   2.919   2.897
 2558HO4    HW110230   4.061   2.994   2.921
 2558HO4    HW210231   4.053   2.839   2.871
 2558HO4     MW10232   3.999   2.919   2.897
 2559HO4     OW10233   0.733   3.897   1.842
 2559HO4    HW110234   0.640   3.934   1.834
 2559HO4    HW210235   0.798   3.959   1.797
 2559HO4     MW10236   0.733   3.897   1.842
 2560HO4     OW10237   2.254   5.239   5.120
 2560HO4    HW110238   2.292   5.304   5.053
 2560HO4    HW210239   2.188   5.179   5.074
 2560HO4     MW10240   2.254   5.239   5.120
 2561HO4     OW10241   1.658   0.760   3.714
 2561HO4    HW110242   1.728   0.694   3.686
 2561HO4    HW210243   1.600   0.783   3.635
 2561HO4     MW10244   1.658   0.760   3.714
 2562HO4     OW10245   2.721   0.847   4.411
 2562HO4    HW110246   2.755   0.834   4.505
 2562HO4    HW210247   2.718   0.759   4.364
 2562HO4     MW10248   2.721   0.847   4.411
 2563HO4     OW10249   0.023   3.271   4.911
 2563HO4    HW110250   0.017   3.358   4.861
 2563HO4    HW210251   0.061   3.287   5.003
 2563HO4     MW10252   0.023   3.271   4.911
 2564HO4     OW10253   3.600   4.129   4.072
 2564HO4    HW110254   3.583   4.033   4.095
 2564HO4    HW210255   3.681   4.161   4.123
 2564HO4     MW10256   3.600   4.129   4.072
 2565HO4     OW10257   5.465   1.922   1.372
 2565HO4    HW110258   5.543   1.860   1.381
 2565HO4    HW210259   5.382   1.869   1.350
 2565HO4     MW10260   5.465   1.922   1.372
 2566HO4     OW10261   2.179   4.651   4.960
 2566HO4    HW110262   2.228   4.683   5.041
 2566HO4    HW210263   2.231   4.675   4.878
 2566HO4     MW10264   2.179   4.651   4.960
 2567HO4     OW10265   0.702   1.644   3.897
 2567HO4    HW110266   0.780   1.633   3.959
 2567HO4    HW210267   0.719   1.721   3.835
 2567HO4     MW10268   0.702   1.644   3.897
 2568HO4     OW10269   1.602   0.255   2.171
 2568HO4    HW110270   1.556   0.302   2.247
 2568HO4    HW210271   1.662   0.320   2.123
 2568HO4     MW10272   1.602   0.255   2.171
 2569HO4     OW10273   4.968   2.267   4.439
 2569HO4    HW110274   4.945   2.277   4.537
 2569HO4    HW210275   5.060   2.227   4.430
 2569HO4     MW10276   4.968   2.267   4.439
 2570HO4     OW10277   2.847   4.640   0.396
 2570HO4    HW110278   2.861   4.707   0.469
 2570HO4    HW210279   2.758   4.594   0.409
 2570HO4     MW10280   2.847   4.640   0.396
 2571HO4     OW10281   0.006   0.330   2.456
 2571HO4    HW110282   0.093   0.280   2.454
 2571HO4    HW210283   0.000   0.391   2.377
 2571HO4     MW10284   0.006   0.330   2.456
 2572HO4     OW10285   3.785   5.351   2.146
 2572HO4    HW110286   3.763   5.272   2.088
 2572HO4    HW210287   3.857   5.325   2.212
 2572HO4     MW10288   3.785   5.351   2.146
 2573HO4     OW10289   0.697   4.241   2.313
 2573HO4    HW110290   0.607   4.277   2.336
 2573HO4    HW210291   0.767   4.289   2.367
 2573HO4     MW10292   0.697   4.241   2.313
 2574HO4     OW10293   2.810   2.379   2.163
 2574HO4    HW110294   2.788   2.381   2.065
 2574HO4    HW210295   2.876   2.305   2.181
 2574HO4     MW10296   2.810   2.379   2.163
 2575HO4     OW10297   3.616   5.351   3.012
 2575HO4    HW110298   3.624   5.354   3.112
 2575HO4    HW210299   3.706   5.367   2.971
 2575HO4     MW10300   3.616   5.351   3.012
 2576HO4     OW10301   4.211   4.393   2.819
 2576HO4    HW110302   4.200   4.343   2.906
 2576HO4    HW210303   4.291   4.357   2.770
 2576HO4     MW10304   4.211   4.393   2.819
 2577HO4     OW10305   1.983   4.134   2.885
 2577HO4    HW110306   2.008   4.150   2.981
 2577HO4    HW210307   2.016   4.210   2.828
 2577HO4     MW10308   1.983   4.134   2.885
 2578HO4     OW10309   2.453   1.858   0.999
 2578HO4    HW110310   2.509   1.867   1.082
 2578HO4    HW210311   2.409   1.768   0.998
 2578HO4     MW10312   2.453   1.858   0.999
 2579HO4     OW10313   1.429   0.685   2.011
 2579HO4    HW110314   1.411   0.783   2.023
 2579HO4    HW210315   1.522   0.672   1.975
 2579HO4     MW10316   1.429   0.685   2.011
 2580HO4     OW10317   5.064   3.724   4.911
 2580HO4    HW110318   5.115   3.692   4.991
 2580HO4    HW210319   5.116   3.701   4.828
 2580HO4     MW10320   5.064   3.724   4.911
 2581HO4     OW10321   1.660   2.277   5.096
 2581HO4    HW110322   1.603   2.231   5.026
 2581HO4    HW210323   1.626   2.252   5.187
 2581HO4     MW10324   1.660   2.277   5.096
 2582HO4     OW10325   5.322   0.237   0.300
 2582HO4    HW110326   5.384   0.314   0.319
 2582HO4    HW210327   5.327   0.215   0.202
 2582HO4     MW10328   5.322   0.237   0.300
 2583HO4     OW10329   4.943   5.103   2.338
 2583HO4    HW110330   5.028   5.090   2.286
 2583HO4    HW210331   4.873   5.143   2.278
 2583HO4     MW10332   4.943   5.103   2.338
 2584HO4     OW10333   3.528   0.190   0.059
 2584HO4    HW110334   3.581   0.207  -0.025
 2584HO4    HW210335   3.586   0.207   0.139
 2584HO4     MW10336   3.528   0.190   0.059
 2585HO4     OW10337   1.196   4.660   3.267
 2585HO4    HW110338   1.178   4.747   3.221
 2585HO4    HW210339   1.291   4.659   3.299
 2585HO4     MW10340   1.196   4.660   3.267
 2586HO4     OW10341   2.236   2.187   0.891
 2586HO4    HW110342   2.246   2.091   0.916
 2586HO4    HW210343   2.145   2.220   0.919
 2586HO4     MW10344   2.236   2.187   0.891
 2587HO4     OW10345   2.316   2.934   1.327
 2587HO4    HW110346   2.320   3.034   1.335
 2587HO4    HW210347   2.330   2.893   1.418
 2587HO4     MW10348   2.316   2.934   1.327
 2588HO4     OW10349   1.094   2.031   4.064
 2588HO4    HW110350   1.143   2.058   4.148
 2588HO4    HW210351   1.156   2.038   3.985
 2588HO4     MW10352   1.094   2.031   4.064
 2589HO4     OW10353   3.517   4.646   0.740
 2589HO4    HW110354   3.568   4.608   0.663
 2589HO4    HW210355   3.579   4.661   0.818
 2589HO4     MW10356   3.517   4.646   0.740
 2590HO4     OW10357   2.640   0.244   4.555
 2590HO4    HW110358   2.545   0.244   4.587
 2590HO4    HW210359   2.701   0.231   4.633
 2590HO4     MW10360   2.640   0.244   4.555
 2591HO4     OW10361   2.476   3.180   2.880
 2591HO4    HW110362   2.502   3.159   2.975
 2591HO4    HW210363   2.395   3.127   2.854
 2591HO4     MW10364   2.476   3.180   2.880
 2592HO4     OW10365   1.783   2.190   0.555
 2592HO4    HW110366   1.862   2.151   0.603
 2592HO4    HW210367   1.801   2.287   0.535
 2592HO4     MW10368   1.783   2.190   0.555
 2593HO4     OW10369   4.285   1.360   4.318
 2593HO4    HW110370   4.293   1.455   4.285
 2593HO4    HW210371   4.281   1.361   4.418
 2593HO4     MW10372   4.285   1.360   4.318
 2594HO4     OW10373   0.676   3.965   0.062
 2594HO4    HW110374   0.667   3.888   0.126
 2594HO4    HW210375   0.772   3.994   0.058
 2594HO4     MW10376   0.676   3.965   0.062
 2595HO4     OW10377   1.450   1.351   4.988
 2595HO4    HW110378   1.426   1.292   5.065
 2595HO4    HW210379   1.511   1.425   5.020
 2595HO4     MW10380   1.450   1.351   4.988
 2596HO4     OW10381   1.062   0.510   3.871
 2596HO4    HW110382   1.004   0.586   3.839
 2596HO4    HW210383   1.005   0.440   3.914
 2596HO4     MW10384   1.062   0.510   3.871
 2597HO4     OW10385   3.234   3.179   3.228
 2597HO4    HW110386   3.209   3.120   3.306
 2597HO4    HW210387   3.277   3.124   3.157
 2597HO4     MW10388   3.234   3.179   3.228
 2598HO4     OW10389   0.153   1.717   4.845
 2598HO4    HW110390   0.245   1.700   4.808
 2598HO4    HW210391   0.152   1.804   4.894
 2598HO4     MW10392   0.153   1.717   4.845
 2599HO4     OW10393   2.619   4.974   2.506
 2599HO4    HW110394   2.536   5.032   2.502
 2599HO4    HW210395   2.651   4.969   2.601
 2599HO4     MW10396   2.619   4.974   2.506
 2600HO4     OW10397   0.757   0.487   1.394
 2600HO4    HW110398   0.674   0.544   1.402
 2600HO4    HW210399   0.765   0.429   1.475
 2600HO4     MW10400   0.757   0.487   1.394
 2601HO4     OW10401   3.784   3.245   3.976
 2601HO4    HW110402   3.721   3.268   3.901
 2601HO4    HW210403   3.853   3.181   3.943
 2601HO4     MW10404   3.784   3.245   3.976
 2602HO4     OW10405   2.730   3.115   5.102
 2602HO4    HW110406   2.697   3.071   5.187
 2602HO4    HW210407   2.659   3.108   5.031
 2602HO4     MW10408   2.730   3.115   5.102
 2603HO4     OW10409   5.085   2.047   2.340
 2603HO4    HW110410   5.100   2.122   2.405
 2603HO4    HW210411   5.120   2.073   2.250
 2603HO4     MW10412   5.085   2.047   2.340
 2604HO4     OW10413   2.829   1.571   0.798
 2604HO4    HW110414   2.843   1.655   0.745
 2604HO4    HW210415   2.877   1.577   0.886
 2604HO4     MW10416   2.829   1.571   0.798
 2605HO4     OW10417   3.068   5.254   4.546
 2605HO4    HW110418   3.002   5.308   4.599
 2605HO4    HW210419   3.026   5.227   4.459
 2605HO4     MW10420   3.068   5.254   4.546
 2606HO4     OW10421   2.906   1.293   0.650
 2606HO4    HW110422   2.946   1.206   0.680
 2606HO4    HW210423   2.978   1.351   0.612
 2606HO4     MW10424   2.906   1.293   0.650
 2607HO4     OW10425   4.793   4.024   2.619
 2607HO4    HW110426   4.870   4.065   2.668
 2607HO4    HW210427   4.819   4.009   2.523
 2607HO4     MW10428   4.793   4.024   2.619
 2608HO4     OW10429   5.289   3.406   4.855
 2608HO4    HW110430   5.258   3.311   4.860
 2608HO4    HW210431   5.210   3.468   4.863
 2608HO4     MW10432   5.289   3.406   4.855
 2609HO4     OW10433   4.037   2.170   5.087
 2609HO4    HW110434   4.032   2.117   5.171
 2609HO4    HW210435   4.031   2.108   5.008
 2609HO4     MW10436   4.037   2.170   5.087
 2610HO4     OW10437   4.326   3.492   5.019
 2610HO4    HW110438   4.229   3.499   4.996
 2610HO4    HW210439   4.355   3.576   5.066
 2610HO4     MW10440   4.326   3.492   5.019
 2611HO4     OW10441   1.963   2.854   3.559
 2611HO4    HW110442   1.865   2.832   3.563
 2611HO4    HW210443   2.016   2.774   3.588
 2611HO4     MW10444   1.963   2.854   3.559
 2612HO4     OW10445   1.772   3.269   0.483
 2612HO4    HW110446   1.830   3.187   0.487
 2612HO4    HW210447   1.712   3.264   0.402
 2612HO4     MW10448   1.772   3.269   0.483
 2613HO4     OW10449   3.575   5.352   1.958
 2613HO4    HW110450   3.675   5.358   1.961
 2613HO4    HW210451   3.536   5.444   1.951
 2613HO4     MW10452   3.575   5.352   1.958
 2614HO4     OW10453   4.915   4.945   1.049
 2614HO4    HW110454   4.958   4.932   0.959
 2614HO4    HW210455   4.918   4.859   1.100
 2614HO4     MW10456   4.915   4.945   1.049
 2615HO4     OW10457   3.047   2.238   0.961
 2615HO4    HW110458   3.102   2.237   0.877
 2615HO4    HW210459   3.109   2.229   1.041
 2615HO4     MW10460   3.047   2.238   0.961
 2616HO4     OW10461   2.762   2.842   4.193
 2616HO4    HW110462   2.711   2.900   4.128
 2616HO4    HW210463   2.857   2.875   4.198
 2616HO4     MW10464   2.762   2.842   4.193
 2617HO4     OW10465   1.363   0.888   4.586
 2617HO4    HW110466   1.352   0.826   4.664
 2617HO4    HW210467   1.277   0.893   4.535
 2617HO4     MW10468   1.363   0.888   4.586
 2618HO4     OW10469   5.369   3.811   0.419
 2618HO4    HW110470   5.375   3.812   0.519
 2618HO4    HW210471   5.367   3.716   0.387
 2618HO4     MW10472   5.369   3.811   0.419
 2619HO4     OW10473   0.242   0.681   2.057
 2619HO4    HW110474   0.292   0.638   1.981
 2619HO4    HW210475   0.298   0.675   2.141
 2619HO4     MW10476   0.242   0.681   2.057
 2620HO4     OW10477   2.099   1.147   2.022
 2620HO4    HW110478   2.131   1.171   2.114
 2620HO4    HW210479   2.178   1.130   1.962
 2620HO4     MW10480   2.099   1.147   2.022
 2621HO4     OW10481   3.942   2.367   1.107
 2621HO4    HW110482   3.892   2.369   1.194
 2621HO4    HW210483   3.975   2.460   1.085
 2621HO4     MW10484   3.942   2.367   1.107
 2622HO4     OW10485   1.888   2.815   0.303
 2622HO4    HW110486   1.907   2.728   0.257
 2622HO4    HW210487   1.933   2.815   0.393
 2622HO4     MW10488   1.888   2.815   0.303
 2623HO4     OW10489   1.124   4.694   5.114
 2623HO4    HW110490   1.039   4.743   5.090
 2623HO4    HW210491   1.101   4.604   5.152
 2623HO4     MW10492   1.124   4.694   5.114
 2624HO4     OW10493   4.629   4.945   4.420
 2624HO4    HW110494   4.553   4.890   4.383
 2624HO4    HW210495   4.643   4.922   4.517
 2624HO4     MW10496   4.629   4.945   4.420
 2625HO4     OW10497   0.866   3.843   4.196
 2625HO4    HW110498   0.924   3.763   4.173
 2625HO4    HW210499   0.775   3.830   4.157
 2625HO4     MW10500   0.866   3.843   4.196
 2626HO4     OW10501   3.499   1.968   5.051
 2626HO4    HW110502   3.438   1.888   5.052
 2626HO4    HW210503   3.457   2.043   5.104
 2626HO4     MW10504   3.499   1.968   5.051
 2627HO4     OW10505   4.829   2.617   4.660
 2627HO4    HW110506   4.741   2.663   4.674
 2627HO4    HW210507   4.893   2.646   4.732
 2627HO4     MW10508   4.829   2.617   4.660
 2628HO4     OW10509   0.981   1.347   2.781
 2628HO4    HW110510   0.889   1.355   2.820
 2628HO4    HW210511   0.983   1.273   2.713
 2628HO4     MW10512   0.981   1.347   2.781
 2629HO4     OW10513   4.603   0.224   3.346
 2629HO4    HW110514   4.574   0.319   3.359
 2629HO4    HW210515   4.664   0.219   3.266
 2629HO4     MW10516   4.603   0.224   3.346
 2630HO4     OW10517   4.697   4.154   3.105
 2630HO4    HW110518   4.695   4.182   3.202
 2630HO4    HW210519   4.604   4.157   3.068
 2630HO4     MW10520   4.697   4.154   3.105
 2631HO4     OW10521   2.319   4.590   1.780
 2631HO4    HW110522   2.265   4.555   1.702
 2631HO4    HW210523   2.261   4.649   1.836
 2631HO4     MW10524   2.319   4.590   1.780
 2632HO4     OW10525   0.712   1.460   1.607
 2632HO4    HW110526   0.640   1.513   1.652
 2632HO4    HW210527   0.698   1.460   1.508
 2632HO4     MW10528   0.712   1.460   1.607
 2633HO4     OW10529   4.799   4.592   1.236
 2633HO4    HW110530   4.868   4.591   1.309
 2633HO4    HW210531   4.824   4.660   1.166
 2633HO4     MW10532   4.799   4.592   1.236
 2634HO4     OW10533   4.731   4.879   1.951
 2634HO4    HW110534   4.672   4.873   2.032
 2634HO4    HW210535   4.675   4.893   1.870
 2634HO4     MW10536   4.731   4.879   1.951
 2635HO4     OW10537   4.060   1.687   1.684
 2635HO4    HW110538   4.005   1.652   1.608
 2635HO4    HW210539   4.025   1.651   1.771
 2635HO4     MW10540   4.060   1.687   1.684
 2636HO4     OW10541   4.459   0.629   4.937
 2636HO4    HW110542   4.446   0.729   4.927
 2636HO4    HW210543   4.549   0.611   4.977
 2636HO4     MW10544   4.459   0.629   4.937
 2637HO4     OW10545   2.441   5.303   0.440
 2637HO4    HW110546   2.429   5.386   0.384
 2637HO4    HW210547   2.466   5.329   0.533
 2637HO4     MW10548   2.441   5.303   0.440
 2638HO4     OW10549   1.431   1.754   3.460
 2638HO4    HW110550   1.392   1.792   3.375
 2638HO4    HW210551   1.388   1.799   3.539
 2638HO4     MW10552   1.431   1.754   3.460
 2639HO4     OW10553   3.461   1.707   1.209
 2639HO4    HW110554   3.408   1.759   1.142
 2639HO4    HW210555   3.553   1.688   1.171
 2639HO4     MW10556   3.461   1.707   1.209
 2640HO4     OW10557   3.421   5.040   0.758
 2640HO4    HW110558   3.504   5.071   0.710
 2640HO4    HW210559   3.443   5.018   0.853
 2640HO4     MW10560   3.421   5.040   0.758
 2641HO4     OW10561   1.665   2.379   2.537
 2641HO4    HW110562   1.624   2.344   2.621
 2641HO4    HW210563   1.609   2.352   2.458
 2641HO4     MW10564   1.665   2.379   2.537
 2642HO4     OW10565   3.026   2.696   1.512
 2642HO4    HW110566   2.973   2.739   1.585
 2642HO4    HW210567   3.008   2.743   1.425
 2642HO4     MW10568   3.026   2.696   1.512
 2643HO4     OW10569   4.032   0.953   1.910
 2643HO4    HW110570   3.952   0.910   1.869
 2643HO4    HW210571   4.012   1.050   1.928
 2643HO4     MW10572   4.032   0.953   1.910
 2644HO4     OW10573   0.749   3.640   3.206
 2644HO4    HW110574   0.788   3.597   3.124
 2644HO4    HW210575   0.802   3.612   3.287
 2644HO4     MW10576   0.749   3.640   3.206
 2645HO4     OW10577   0.024   3.715   2.099
 2645HO4    HW110578   0.042   3.631   2.151
 2645HO4    HW210579  -0.063   3.706   2.050
 2645HO4     MW10580   0.024   3.715   2.099
 2646HO4     OW10581   4.554   3.264   3.798
 2646HO4    HW110582   4.599   3.353   3.809
 2646HO4    HW210583   4.590   3.218   3.716
 2646HO4     MW10584   4.554   3.264   3.798
 2647HO4     OW10585   2.788   0.643   4.089
 2647HO4    HW110586   2.877   0.597   4.087
 2647HO4    HW210587   2.800   0.735   4.128
 2647HO4     MW10588   2.788   0.643   4.089
 2648HO4     OW10589   0.761   4.910   0.864
 2648HO4    HW110590   0.671   4.868   0.875
 2648HO4    HW210591   0.760   5.002   0.903
 2648HO4     MW10592   0.761   4.910   0.864
 2649HO4     OW10593   1.019   2.111   4.459
 2649HO4    HW110594   1.078   2.080   4.384
 2649HO4    HW210595   0.924   2.118   4.426
 2649HO4     MW10596   1.019   2.111   4.459
 2650HO4     OW10597   3.198   0.336   1.701
 2650HO4    HW110598   3.192   0.419   1.643
 2650HO4    HW210599   3.262   0.352   1.776
 2650HO4     MW10600   3.198   0.336   1.701
 2651HO4     OW10601   3.498   1.108   1.650
 2651HO4    HW110602   3.505   1.177   1.578
 2651HO4    HW210603   3.402   1.093   1.674
 2651HO4     MW10604   3.498   1.108   1.650
 2652HO4     OW10605   4.786   2.245   4.208
 2652HO4    HW110606   4.852   2.250   4.132
 2652HO4    HW210607   4.800   2.323   4.269
 2652HO4     MW10608   4.786   2.245   4.208
 2653HO4     OW10609   5.375   4.128   2.546
 2653HO4    HW110610   5.385   4.200   2.616
 2653HO4    HW210611   5.438   4.053   2.567
 2653HO4     MW10612   5.375   4.128   2.546
 2654HO4     OW10613   0.315   4.332   3.056
 2654HO4    HW110614   0.411   4.331   3.085
 2654HO4    HW210615   0.258   4.363   3.132
 2654HO4     MW10616   0.315   4.332   3.056
 2655HO4     OW10617   5.121   0.395   3.540
 2655HO4    HW110618   5.108   0.491   3.515
 2655HO4    HW210619   5.085   0.379   3.633
 2655HO4     MW10620   5.121   0.395   3.540
 2656HO4     OW10621   2.056   1.630   0.109
 2656HO4    HW110622   2.018   1.615   0.201
 2656HO4    HW210623   2.112   1.551   0.083
 2656HO4     MW10624   2.056   1.630   0.109
 2657HO4     OW10625   1.869   1.583   3.028
 2657HO4    HW110626   1.847   1.560   3.124
 2657HO4    HW210627   1.793   1.555   2.969
 2657HO4     MW10628   1.869   1.583   3.028
 2658HO4     OW10629   1.960   5.301   2.617
 2658HO4    HW110630   1.882   5.288   2.679
 2658HO4    HW210631   1.936   5.369   2.546
 2658HO4     MW10632   1.960   5.301   2.617
 2659HO4     OW10633   1.894   3.766   3.456
 2659HO4    HW110634   1.964   3.753   3.527
 2659HO4    HW210635   1.803   3.752   3.496
 2659HO4     MW10636   1.894   3.766   3.456
 2660HO4     OW10637   4.604   4.886   1.429
 2660HO4    HW110638   4.647   4.975   1.441
 2660HO4    HW210639   4.636   4.823   1.501
 2660HO4     MW10640   4.604   4.886   1.429
 2661HO4     OW10641   1.825   4.271   2.318
 2661HO4    HW110642   1.899   4.262   2.251
 2661HO4    HW210643   1.841   4.351   2.376
 2661HO4     MW10644   1.825   4.271   2.318
 2662HO4     OW10645   5.078   4.080   0.835
 2662HO4    HW110646   5.009   4.138   0.790
 2662HO4    HW210647   5.074   4.095   0.935
 2662HO4     MW10648   5.078   4.080   0.835
 2663HO4     OW10649   3.450   1.654   5.313
 2663HO4    HW110650   3.544   1.642   5.282
 2663HO4    HW210651   3.430   1.752   5.325
 2663HO4     MW10652   3.450   1.654   5.313
 2664HO4     OW10653   1.725   2.580   2.226
 2664HO4    HW110654   1.740   2.558   2.323
 2664HO4    HW210655   1.653   2.649   2.218
 2664HO4     MW10656   1.725   2.580   2.226
 2665HO4     OW10657   1.668   5.106   4.626
 2665HO4    HW110658   1.641   5.026   4.681
 2665HO4    HW210659   1.691   5.076   4.533
 2665HO4     MW10660   1.668   5.106   4.626
 2666HO4     OW10661   4.853   3.492   1.326
 2666HO4    HW110662   4.792   3.463   1.400
 2666HO4    HW210663   4.818   3.457   1.238
 2666HO4     MW10664   4.853   3.492   1.326
 2667HO4     OW10665   2.310   3.592   2.866
 2667HO4    HW110666   2.270   3.660   2.928
 2667HO4    HW210667   2.272   3.604   2.774
 2667HO4     MW10668   2.310   3.592   2.866
 2668HO4     OW10669   1.295   3.448   2.888
 2668HO4    HW110670   1.224   3.406   2.945
 2668HO4    HW210671   1.277   3.547   2.879
 2668HO4     MW10672   1.295   3.448   2.888
 2669HO4     OW10673   5.094   2.369   3.750
 2669HO4    HW110674   5.070   2.415   3.664
 2669HO4    HW210675   5.065   2.426   3.827
 2669HO4     MW10676   5.094   2.369   3.750
 2670HO4     OW10677   1.166   4.865   2.276
 2670HO4    HW110678   1.251   4.872   2.329
 2670HO4    HW210679   1.170   4.784   2.217
 2670HO4     MW10680   1.166   4.865   2.276
 2671HO4     OW10681   2.451   4.899   0.688
 2671HO4    HW110682   2.366   4.953   0.680
 2671HO4    HW210683   2.525   4.958   0.720
 2671HO4     MW10684   2.451   4.899   0.688
 2672HO4     OW10685   1.253   3.801   3.624
 2672HO4    HW110686   1.306   3.845   3.551
 2672HO4    HW210687   1.309   3.794   3.707
 2672HO4     MW10688   1.253   3.801   3.624
 2673HO4     OW10689   0.958   2.860   4.355
 2673HO4    HW110690   0.969   2.853   4.455
 2673HO4    HW210691   0.863   2.837   4.330
 2673HO4     MW10692   0.958   2.860   4.355
 2674HO4     OW10693   2.601   0.062   0.711
 2674HO4    HW110694   2.568   0.025   0.798
 2674HO4    HW210695   2.652   0.147   0.727
 2674HO4     MW10696   2.601   0.062   0.711
 2675HO4     OW10697   3.654   1.813   0.923
 2675HO4    HW110698   3.698   1.839   1.010
 2675HO4    HW210699   3.723   1.813   0.850
 2675HO4     MW10700   3.654   1.813   0.923
 2676HO4     OW10701   1.659   3.338   3.335
 2676HO4    HW110702   1.685   3.429   3.369
 2676HO4    HW210703   1.694   3.327   3.241
 2676HO4     MW10704   1.659   3.338   3.335
 2677HO4     OW10705   3.960   2.019   2.984
 2677HO4    HW110706   3.929   1.997   3.077
 2677HO4    HW210707   4.010   2.105   2.984
 2677HO4     MW10708   3.960   2.019   2.984
 2678HO4     OW10709   3.325   3.236   2.732
 2678HO4    HW110710   3.329   3.183   2.647
 2678HO4    HW210711   3.357   3.180   2.808
 2678HO4     MW10712   3.325   3.236   2.732
 2679HO4     OW10713   2.385   1.625   1.111
 2679HO4    HW110714   2.370   1.544   1.055
 2679HO4    HW210715   2.433   1.599   1.196
 2679HO4     MW10716   2.385   1.625   1.111
 2680HO4     OW10717   3.344   3.259   0.888
 2680HO4    HW110718   3.370   3.303   0.975
 2680HO4    HW210719   3.247   3.276   0.869
 2680HO4     MW10720   3.344   3.259   0.888
 2681HO4     OW10721   3.465   1.803   3.851
 2681HO4    HW110722   3.552   1.848   3.827
 2681HO4    HW210723   3.393   1.873   3.857
 2681HO4     MW10724   3.465   1.803   3.851
 2682HO4     OW10725   2.240   2.736   3.795
 2682HO4    HW110726   2.263   2.640   3.775
 2682HO4    HW210727   2.221   2.784   3.709
 2682HO4     MW10728   2.240   2.736   3.795
 2683HO4     OW10729   0.076   0.800   2.710
 2683HO4    HW110730   0.124   0.817   2.624
 2683HO4    HW210731   0.117   0.722   2.757
 2683HO4     MW10732   0.076   0.800   2.710
 2684HO4     OW10733   2.488   2.592   2.263
 2684HO4    HW110734   2.392   2.593   2.290
 2684HO4    HW210735   2.536   2.669   2.304
 2684HO4     MW10736   2.488   2.592   2.263
 2685HO4     OW10737   2.132   3.083   3.707
 2685HO4    HW110738   2.104   3.097   3.802
 2685HO4    HW210739   2.063   3.028   3.659
 2685HO4     MW10740   2.132   3.083   3.707
 2686HO4     OW10741   2.207   1.408   1.774
 2686HO4    HW110742   2.235   1.367   1.861
 2686HO4    HW210743   2.207   1.337   1.702
 2686HO4     MW10744   2.207   1.408   1.774
 2687HO4     OW10745   4.537   5.376   1.917
 2687HO4    HW110746   4.598   5.380   1.838
 2687HO4    HW210747   4.449   5.418   1.894
 2687HO4     MW10748   4.537   5.376   1.917
 2688HO4     OW10749   4.569   1.882   1.856
 2688HO4    HW110750   4.650   1.930   1.821
 2688HO4    HW210751   4.540   1.923   1.943
 2688HO4     MW10752   4.569   1.882   1.856
 2689HO4     OW10753   4.291   4.129   2.640
 2689HO4    HW110754   4.322   4.119   2.545
 2689HO4    HW210755   4.225   4.204   2.646
 2689HO4     MW10756   4.291   4.129   2.640
 2690HO4     OW10757   4.160   2.950   4.539
 2690HO4    HW110758   4.157   2.879   4.610
 2690HO4    HW210759   4.244   2.941   4.485
 2690HO4     MW10760   4.160   2.950   4.539
 2691HO4     OW10761   4.615   3.270   0.892
 2691HO4    HW110762   4.578   3.321   0.970
 2691HO4    HW210763   4.606   3.325   0.809
 2691HO4     MW10764   4.615   3.270   0.892
 2692HO4     OW10765   5.165   1.747   1.582
 2692HO4    HW110766   5.166   1.804   1.665
 2692HO4    HW210767   5.258   1.738   1.546
 2692HO4     MW10768   5.165   1.747   1.582
 2693HO4     OW10769   2.873   1.580   3.545
 2693HO4    HW110770   2.898   1.539   3.633
 2693HO4    HW210771   2.955   1.620   3.503
 2693HO4     MW10772   2.873   1.580   3.545
 2694HO4     OW10773   4.242   5.146   3.515
 2694HO4    HW110774   4.302   5.134   3.435
 2694HO4    HW210775   4.294   5.129   3.599
 2694HO4     MW10776   4.242   5.146   3.515
 2695HO4     OW10777   3.223   0.521   5.178
 2695HO4    HW110778   3.206   0.597   5.115
 2695HO4    HW210779   3.282   0.453   5.133
 2695HO4     MW10780   3.223   0.521   5.178
 2696HO4     OW10781   2.529   3.411   3.094
 2696HO4    HW110782   2.486   3.414   3.185
 2696HO4    HW210783   2.550   3.315   3.070
 2696HO4     MW10784   2.529   3.411   3.094
 2697HO4     OW10785   0.103   4.466   5.153
 2697HO4    HW110786   0.045   4.492   5.231
 2697HO4    HW210787   0.048   4.419   5.084
 2697HO4     MW10788   0.103   4.466   5.153
 2698HO4     OW10789   4.174   0.795   1.013
 2698HO4    HW110790   4.187   0.743   1.098
 2698HO4    HW210791   4.262   0.835   0.984
 2698HO4     MW10792   4.174   0.795   1.013
 2699HO4     OW10793   3.290   3.623   4.241
 2699HO4    HW110794   3.352   3.593   4.314
 2699HO4    HW210795   3.335   3.694   4.185
 2699HO4     MW10796   3.290   3.623   4.241
 2700HO4     OW10797   1.821   5.048   3.508
 2700HO4    HW110798   1.878   4.996   3.444
 2700HO4    HW210799   1.802   4.991   3.589
 2700HO4     MW10800   1.821   5.048   3.508
 2701HO4     OW10801   2.841   2.572   5.203
 2701HO4    HW110802   2.836   2.611   5.295
 2701HO4    HW210803   2.791   2.630   5.138
 2701HO4     MW10804   2.841   2.572   5.203
 2702HO4     OW10805   4.290   5.190   5.002
 2702HO4    HW110806   4.225   5.114   4.996
 2702HO4    HW210807   4.320   5.201   5.098
 2702HO4     MW10808   4.290   5.190   5.002
 2703HO4     OW10809   3.428   5.077   1.532
 2703HO4    HW110810   3.422   5.026   1.446
 2703HO4    HW210811   3.392   5.021   1.607
 2703HO4     MW10812   3.428   5.077   1.532
 2704HO4     OW10813   1.002   2.538   1.399
 2704HO4    HW110814   1.054   2.603   1.455
 2704HO4    HW210815   0.906   2.565   1.396
 2704HO4     MW10816   1.002   2.538   1.399
 2705HO4     OW10817   3.061   0.251   2.704
 2705HO4    HW110818   3.054   0.207   2.794
 2705HO4    HW210819   3.096   0.345   2.716
 2705HO4     MW10820   3.061   0.251   2.704
 2706HO4     OW10821   4.591   3.062   5.064
 2706HO4    HW110822   4.629   3.101   4.979
 2706HO4    HW210823   4.618   3.120   5.141
 2706HO4     MW10824   4.591   3.062   5.064
 2707HO4     OW10825   5.353   0.132   4.094
 2707HO4    HW110826   5.366   0.219   4.143
 2707HO4    HW210827   5.364   0.147   3.995
 2707HO4     MW10828   5.353   0.132   4.094
 2708HO4     OW10829   3.636   3.303   0.330
 2708HO4    HW110830   3.712   3.312   0.395
 2708HO4    HW210831   3.643   3.374   0.260
 2708HO4     MW10832   3.636   3.303   0.330
 2709HO4     OW10833   2.942   1.387   1.960
 2709HO4    HW110834   2.932   1.419   2.055
 2709HO4    HW210835   2.877   1.313   1.943
 2709HO4     MW10836   2.942   1.387   1.960
 2710HO4     OW10837   0.031   1.071   0.730
 2710HO4    HW110838   0.081   1.121   0.802
 2710HO4    HW210839   0.036   1.122   0.644
 2710HO4     MW10840   0.031   1.071   0.730
 2711HO4     OW10841   4.491   0.878   4.252
 2711HO4    HW110842   4.413   0.869   4.189
 2711HO4    HW210843   4.547   0.795   4.248
 2711HO4     MW10844   4.491   0.878   4.252
 2712HO4     OW10845   0.315   5.370   4.261
 2712HO4    HW110846   0.320   5.290   4.321
 2712HO4    HW210847   0.396   5.373   4.202
 2712HO4     MW10848   0.315   5.370   4.261
 2713HO4     OW10849   1.935   3.308   4.126
 2713HO4    HW110850   1.919   3.333   4.222
 2713HO4    HW210851   1.863   3.348   4.069
 2713HO4     MW10852   1.935   3.308   4.126
 2714HO4     OW10853   1.262   4.183   4.730
 2714HO4    HW110854   1.226   4.102   4.778
 2714HO4    HW210855   1.235   4.179   4.633
 2714HO4     MW10856   1.262   4.183   4.730
 2715HO4     OW10857   0.190   1.519   2.283
 2715HO4    HW110858   0.175   1.528   2.382
 2715HO4    HW210859   0.159   1.428   2.252
 2715HO4     MW10860   0.190   1.519   2.283
 2716HO4     OW10861   4.891   4.043   1.030
 2716HO4    HW110862   4.834   4.046   0.948
 2716HO4    HW210863   4.833   4.040   1.112
 2716HO4     MW10864   4.891   4.043   1.030
 2717HO4     OW10865   0.720   0.908   3.192
 2717HO4    HW110866   0.738   1.007   3.196
 2717HO4    HW210867   0.803   0.860   3.164
 2717HO4     MW10868   0.720   0.908   3.192
 2718HO4     OW10869   0.212   4.884   2.466
 2718HO4    HW110870   0.281   4.899   2.537
 2718HO4    HW210871   0.255   4.887   2.376
 2718HO4     MW10872   0.212   4.884   2.466
 2719HO4     OW10873   3.254   4.113   2.356
 2719HO4    HW110874   3.284   4.135   2.263
 2719HO4    HW210875   3.330   4.124   2.420
 2719HO4     MW10876   3.254   4.113   2.356
 2720HO4     OW10877   2.670   2.210   1.080
 2720HO4    HW110878   2.580   2.252   1.092
 2720HO4    HW210879   2.660   2.125   1.026
 2720HO4     MW10880   2.670   2.210   1.080
 2721HO4     OW10881   0.667   4.869   4.740
 2721HO4    HW110882   0.642   4.912   4.827
 2721HO4    HW210883   0.645   4.932   4.665
 2721HO4     MW10884   0.667   4.869   4.740
 2722HO4     OW10885   0.758   0.739   4.708
 2722HO4    HW110886   0.847   0.700   4.734
 2722HO4    HW210887   0.772   0.834   4.678
 2722HO4     MW10888   0.758   0.739   4.708
 2723HO4     OW10889   2.235   1.078   3.610
 2723HO4    HW110890   2.287   1.111   3.690
 2723HO4    HW210891   2.198   1.157   3.560
 2723HO4     MW10892   2.235   1.078   3.610
 2724HO4     OW10893   1.967   4.546   1.030
 2724HO4    HW110894   2.049   4.575   0.979
 2724HO4    HW210895   1.908   4.491   0.971
 2724HO4     MW10896   1.967   4.546   1.030
 2725HO4     OW10897   1.825   0.845   4.564
 2725HO4    HW110898   1.856   0.807   4.476
 2725HO4    HW210899   1.750   0.910   4.548
 2725HO4     MW10900   1.825   0.845   4.564
 2726HO4     OW10901   5.432   2.448   3.141
 2726HO4    HW110902   5.426   2.417   3.237
 2726HO4    HW210903   5.440   2.368   3.080
 2726HO4     MW10904   5.432   2.448   3.141
 2727HO4     OW10905   0.944   1.248   3.164
 2727HO4    HW110906   0.853   1.224   3.129
 2727HO4    HW210907   0.934   1.300   3.250
 2727HO4     MW10908   0.944   1.248   3.164
 2728HO4     OW10909   0.394   1.461   0.346
 2728HO4    HW110910   0.394   1.515   0.261
 2728HO4    HW210911   0.471   1.490   0.404
 2728HO4     MW10912   0.394   1.461   0.346
 2729HO4     OW10913   2.925   2.828   2.071
 2729HO4    HW110914   2.903   2.762   2.144
 2729HO4    HW210915   2.881   2.798   1.985
 2729HO4     MW10916   2.925   2.828   2.071
 2730HO4     OW10917   1.225   1.480   0.071
 2730HO4    HW110918   1.194   1.555   0.130
 2730HO4    HW210919   1.286   1.516  -0.000
 2730HO4     MW10920   1.225   1.480   0.071
 2731HO4     OW10921   5.206   0.375   1.481
 2731HO4    HW110922   5.241   0.417   1.565
 2731HO4    HW210923   5.111   0.348   1.493
 2731HO4     MW10924   5.206   0.375   1.481
 2732HO4     OW10925   0.376   1.227   4.065
 2732HO4    HW110926   0.342   1.306   4.013
 2732HO4    HW210927   0.378   1.249   4.163
 2732HO4     MW10928   0.376   1.227   4.065
 2733HO4     OW10929   4.447   1.885   5.130
 2733HO4    HW110930   4.516   1.954   5.154
 2733HO4    HW210931   4.361   1.931   5.107
 2733HO4     MW10932   4.447   1.885   5.130
 2734HO4     OW10933   5.041   2.449   1.917
 2734HO4    HW110934   5.010   2.544   1.927
 2734HO4    HW210935   5.137   2.449   1.885
 2734HO4     MW10936   5.041   2.449   1.917
 2735HO4     OW10937   1.646   4.251   1.894
 2735HO4    HW110938   1.707   4.182   1.932
 2735HO4    HW210939   1.560   4.251   1.946
 2735HO4     MW10940   1.646   4.251   1.894
 2736HO4     OW10941   3.911   2.259   2.789
 2736HO4    HW110942   3.860   2.237   2.872
 2736HO4    HW210943   3.862   2.226   2.708
 2736HO4     MW10944   3.911   2.259   2.789
 2737HO4     OW10945   0.464   4.927   4.009
 2737HO4    HW110946   0.380   4.982   4.012
 2737HO4    HW210947   0.441   4.831   4.022
 2737HO4     MW10948   0.464   4.927   4.009
 2738HO4     OW10949   2.896   4.379   2.434
 2738HO4    HW110950   2.945   4.313   2.493
 2738HO4    HW210951   2.949   4.396   2.351
 2738HO4     MW10952   2.896   4.379   2.434
 2739HO4     OW10953   3.814   2.495   1.754
 2739HO4    HW110954   3.742   2.485   1.824
 2739HO4    HW210955   3.899   2.527   1.798
 2739HO4     MW10956   3.814   2.495   1.754
 2740HO4     OW10957   2.123   4.104   4.443
 2740HO4    HW110958   2.092   4.113   4.538
 2740HO4    HW210959   2.132   4.195   4.402
 2740HO4     MW10960   2.123   4.104   4.443
 2741HO4     OW10961   1.915   1.530   1.945
 2741HO4    HW110962   1.879   1.521   2.038
 2741HO4    HW210963   1.987   1.600   1.943
 2741HO4     MW10964   1.915   1.530   1.945
 2742HO4     OW10965   1.222   2.013   2.119
 2742HO4    HW110966   1.167   1.938   2.158
 2742HO4    HW210967   1.210   2.015   2.019
 2742HO4     MW10968   1.222   2.013   2.119
 2743HO4     OW10969   3.024   4.217   0.404
 2743HO4    HW110970   3.040   4.119   0.389
 2743HO4    HW210971   3.016   4.264   0.316
 2743HO4     MW10972   3.024   4.217   0.404
 2744HO4     OW10973   5.355   1.253   1.083
 2744HO4    HW110974   5.305   1.302   1.155
 2744HO4    HW210975   5.361   1.311   1.001
 2744HO4     MW10976   5.355   1.253   1.083
 2745HO4     OW10977   4.590   3.747   4.223
 2745HO4    HW110978   4.532   3.828   4.216
 2745HO4    HW210979   4.617   3.734   4.319
 2745HO4     MW10980   4.590   3.747   4.223
 2746HO4     OW10981   1.714   0.645   3.338
 2746HO4    HW110982   1.772   0.571   3.301
 2746HO4    HW210983   1.712   0.721   3.272
 2746HO4     MW10984   1.714   0.645   3.338
 2747HO4     OW10985   0.977   5.309   3.842
 2747HO4    HW110986   0.989   5.212   3.865
 2747HO4    HW210987   0.921   5.317   3.759
 2747HO4     MW10988   0.977   5.309   3.842
 2748HO4     OW10989   3.854   0.420   2.225
 2748HO4    HW110990   3.930   0.416   2.159
 2748HO4    HW210991   3.853   0.337   2.281
 2748HO4     MW10992   3.854   0.420   2.225
 2749HO4     OW10993   2.284   3.608   3.365
 2749HO4    HW110994   2.246   3.517   3.350
 2749HO4    HW210995   2.293   3.656   3.277
 2749HO4     MW10996   2.284   3.608   3.365
 2750HO4     OW10997   4.697   4.698   1.018
 2750HO4    HW110998   4.624   4.707   0.950
 2750HO4    HW210999   4.766   4.769   1.002
 2750HO4     MW11000   4.697   4.698   1.018
 2751HO4     OW11001   4.792   5.313   5.183
 2751HO4    HW111002   4.824   5.306   5.088
 2751HO4    HW211003   4.699   5.351   5.184
 2751HO4     MW11004   4.792   5.313   5.183
 2752HO4     OW11005   1.702   2.750   0.888
 2752HO4    HW111006   1.719   2.790   0.979
 2752HO4    HW211007   1.697   2.650   0.895
 2752HO4     MW11008   1.702   2.750   0.888
 2753HO4     OW11009   1.318   4.904   1.496
 2753HO4    HW111010   1.335   4.948   1.585
 2753HO4    HW211011   1.301   4.975   1.427
 2753HO4     MW11012   1.318   4.904   1.496
 2754HO4     OW11013   2.853   3.556   0.688
 2754HO4    HW111014   2.767   3.506   0.694
 2754HO4    HW211015   2.878   3.568   0.591
 2754HO4     MW11016   2.853   3.556   0.688
 2755HO4     OW11017   1.640   2.536   1.445
 2755HO4    HW111018   1.665   2.561   1.539
 2755HO4    HW211019   1.681   2.447   1.422
 2755HO4     MW11020   1.640   2.536   1.445
 2756HO4     OW11021   3.551   0.038   5.378
 2756HO4    HW111022   3.511   0.005   5.464
 2756HO4    HW211023   3.480   0.084   5.324
 2756HO4     MW11024   3.551   0.038   5.378
 2757HO4     OW11025   3.523   0.268   5.241
 2757HO4    HW111026   3.504   0.228   5.331
 2757HO4    HW211027   3.622   0.270   5.226
 2757HO4     MW11028   3.523   0.268   5.241
 2758HO4     OW11029   2.042   4.455   2.941
 2758HO4    HW111030   2.052   4.517   2.863
 2758HO4    HW211031   2.033   4.508   3.026
 2758HO4     MW11032   2.042   4.455   2.941
 2759HO4     OW11033   2.093   2.123   4.949
 2759HO4    HW111034   1.995   2.122   4.931
 2759HO4    HW211035   2.120   2.040   4.999
 2759HO4     MW11036   2.093   2.123   4.949
 2760HO4     OW11037   5.211   1.017   1.106
 2760HO4    HW111038   5.167   0.934   1.071
 2760HO4    HW211039   5.166   1.098   1.065
 2760HO4     MW11040   5.211   1.017   1.106
 2761HO4     OW11041   1.910   3.470   0.695
 2761HO4    HW111042   1.850   3.429   0.765
 2761HO4    HW211043   1.948   3.398   0.638
 2761HO4     MW11044   1.910   3.470   0.695
 2762HO4     OW11045   2.270   3.181   4.483
 2762HO4    HW111046   2.300   3.133   4.400
 2762HO4    HW211047   2.202   3.126   4.531
 2762HO4     MW11048   2.270   3.181   4.483
 2763HO4     OW11049   4.623   0.134   0.482
 2763HO4    HW111050   4.530   0.112   0.512
 2763HO4    HW211051   4.623   0.154   0.383
 2763HO4     MW11052   4.623   0.134   0.482
 2764HO4     OW11053   3.439   1.643   3.294
 2764HO4    HW111054   3.379   1.628   3.214
 2764HO4    HW211055   3.466   1.739   3.298
 2764HO4     MW11056   3.439   1.643   3.294
 2765HO4     OW11057   5.324   2.699   1.847
 2765HO4    HW111058   5.354   2.710   1.942
 2765HO4    HW211059   5.396   2.733   1.785
 2765HO4     MW11060   5.324   2.699   1.847
 2766HO4     OW11061   0.013   1.715   2.512
 2766HO4    HW111062   0.075   1.703   2.434
 2766HO4    HW211063  -0.082   1.703   2.481
 2766HO4     MW11064   0.013   1.715   2.512
 2767HO4     OW11065   3.947   0.655   2.027
 2767HO4    HW111066   3.849   0.647   2.045
 2767HO4    HW211067   3.994   0.574   2.062
 2767HO4     MW11068   3.947   0.655   2.027
 2768HO4     OW11069   4.477   0.526   5.356
 2768HO4    HW111070   4.529   0.502   5.439
 2768HO4    HW211071   4.512   0.474   5.278
 2768HO4     MW11072   4.477   0.526   5.356
 2769HO4     OW11073   1.002   4.780   3.049
 2769HO4    HW111074   1.035   4.844   3.118
 2769HO4    HW211075   0.911   4.809   3.017
 2769HO4     MW11076   1.002   4.780   3.049
 2770HO4     OW11077   2.454   4.590   1.424
 2770HO4    HW111078   2.418   4.517   1.483
 2770HO4    HW211079   2.471   4.554   1.332
 2770HO4     MW11080   2.454   4.590   1.424
 2771HO4     OW11081   2.071   2.639   1.251
 2771HO4    HW111082   2.125   2.575   1.195
 2771HO4    HW211083   2.042   2.593   1.335
 2771HO4     MW11084   2.071   2.639   1.251
 2772HO4     OW11085   3.956   3.704   2.652
 2772HO4    HW111086   4.009   3.782   2.618
 2772HO4    HW211087   3.935   3.718   2.750
 2772HO4     MW11088   3.956   3.704   2.652
 2773HO4     OW11089   4.823   1.242   5.472
 2773HO4    HW111090   4.786   1.269   5.561
 2773HO4    HW211091   4.748   1.207   5.414
 2773HO4     MW11092   4.823   1.242   5.472
 2774HO4     OW11093   3.080   2.713   3.702
 2774HO4    HW111094   3.109   2.712   3.606
 2774HO4    HW211095   3.015   2.788   3.716
 2774HO4     MW11096   3.080   2.713   3.702
 2775HO4     OW11097   0.195   2.163   0.593
 2775HO4    HW111098   0.121   2.222   0.627
 2775HO4    HW211099   0.211   2.184   0.496
 2775HO4     MW11100   0.195   2.163   0.593
 2776HO4     OW11101   2.177   2.585   3.301
 2776HO4    HW111102   2.190   2.516   3.372
 2776HO4    HW211103   2.088   2.574   3.258
 2776HO4     MW11104   2.177   2.585   3.301
 2777HO4     OW11105   2.929   0.044   2.216
 2777HO4    HW111106   2.941  -0.036   2.275
 2777HO4    HW211107   2.836   0.080   2.226
 2777HO4     MW11108   2.929   0.044   2.216
 2778HO4     OW11109   4.076   0.159   3.930
 2778HO4    HW111110   4.041   0.237   3.876
 2778HO4    HW211111   4.176   0.155   3.921
 2778HO4     MW11112   4.076   0.159   3.930
 2779HO4     OW11113   2.642   4.694   5.223
 2779HO4    HW111114   2.643   4.674   5.125
 2779HO4    HW211115   2.601   4.616   5.272
 2779HO4     MW11116   2.642   4.694   5.223
 2780HO4     OW11117   0.817   4.445   2.207
 2780HO4    HW111118   0.903   4.394   2.204
 2780HO4    HW211119   0.830   4.530   2.260
 2780HO4     MW11120   0.817   4.445   2.207
 2781HO4     OW11121   2.509   0.478   4.461
 2781HO4    HW111122   2.431   0.520   4.510
 2781HO4    HW211123   2.574   0.441   4.529
 2781HO4     MW11124   2.509   0.478   4.461
 2782HO4     OW11125   5.289   1.399   0.813
 2782HO4    HW111126   5.281   1.334   0.889
 2782HO4    HW211127   5.290   1.349   0.726
 2782HO4     MW11128   5.289   1.399   0.813
 2783HO4     OW11129   0.310   5.455  -0.005
 2783HO4    HW111130   0.215   5.455   0.027
 2783HO4    HW211131   0.372   5.458   0.074
 2783HO4     MW11132   0.310   5.455  -0.005
 2784HO4     OW11133   2.257   4.430   4.130
 2784HO4    HW111134   2.307   4.506   4.087
 2784HO4    HW211135   2.236   4.454   4.225
 2784HO4     MW11136   2.257   4.430   4.130
 2785HO4     OW11137   2.304   0.996   1.715
 2785HO4    HW111138   2.286   0.951   1.802
 2785HO4    HW211139   2.260   0.945   1.641
 2785HO4     MW11140   2.304   0.996   1.715
 2786HO4     OW11141   0.673   3.335   0.711
 2786HO4    HW111142   0.683   3.259   0.646
 2786HO4    HW211143   0.704   3.307   0.802
 2786HO4     MW11144   0.673   3.335   0.711
 2787HO4     OW11145   3.126   0.815   2.243
 2787HO4    HW111146   3.202   0.879   2.260
 2787HO4    HW211147   3.157   0.741   2.183
 2787HO4     MW11148   3.126   0.815   2.243
 2788HO4     OW11149   1.911   5.120   1.954
 2788HO4    HW111150   1.911   5.058   1.875
 2788HO4    HW211151   1.886   5.069   2.037
 2788HO4     MW11152   1.911   5.120   1.954
 2789HO4     OW11153   3.938   3.737   2.308
 2789HO4    HW111154   3.982   3.777   2.389
 2789HO4    HW211155   3.980   3.774   2.225
 2789HO4     MW11156   3.938   3.737   2.308
 2790HO4     OW11157   2.586   1.273   5.318
 2790HO4    HW111158   2.567   1.345   5.251
 2790HO4    HW211159   2.523   1.196   5.304
 2790HO4     MW11160   2.586   1.273   5.318
 2791HO4     OW11161   2.729   1.823   0.276
 2791HO4    HW111162   2.696   1.729   0.285
 2791HO4    HW211163   2.652   1.887   0.291
 2791HO4     MW11164   2.729   1.823   0.276
 2792HO4     OW11165   1.768   0.429   0.753
 2792HO4    HW111166   1.864   0.443   0.726
 2792HO4    HW211167   1.740   0.504   0.814
 2792HO4     MW11168   1.768   0.429   0.753
 2793HO4     OW11169   3.332   0.301   2.917
 2793HO4    HW111170   3.393   0.307   2.997
 2793HO4    HW211171   3.302   0.206   2.906
 2793HO4     MW11172   3.332   0.301   2.917
 2794HO4     OW11173   2.584   0.678   3.947
 2794HO4    HW111174   2.641   0.736   4.006
 2794HO4    HW211175   2.532   0.735   3.884
 2794HO4     MW11176   2.584   0.678   3.947
 2795HO4     OW11177   4.083   0.909   4.428
 2795HO4    HW111178   4.094   1.009   4.436
 2795HO4    HW211179   4.143   0.864   4.495
 2795HO4     MW11180   4.083   0.909   4.428
 2796HO4     OW11181   4.431   2.231   1.312
 2796HO4    HW111182   4.353   2.167   1.316
 2796HO4    HW211183   4.409   2.308   1.252
 2796HO4     MW11184   4.431   2.231   1.312
 2797HO4     OW11185   2.342   0.217   4.568
 2797HO4    HW111186   2.368   0.308   4.604
 2797HO4    HW211187   2.338   0.221   4.468
 2797HO4     MW11188   2.342   0.217   4.568
 2798HO4     OW11189   1.197   5.456   1.594
 2798HO4    HW111190   1.155   5.544   1.618
 2798HO4    HW211191   1.224   5.457   1.497
 2798HO4     MW11192   1.197   5.456   1.594
 2799HO4     OW11193   3.671   4.708   2.882
 2799HO4    HW111194   3.657   4.737   2.977
 2799HO4    HW211195   3.683   4.789   2.824
 2799HO4     MW11196   3.671   4.708   2.882
 2800HO4     OW11197   2.323   2.725   3.464
 2800HO4    HW111198   2.352   2.696   3.556
 2800HO4    HW211199   2.403   2.756   3.412
 2800HO4     MW11200   2.323   2.725   3.464
 2801HO4     OW11201   3.682   1.864   3.291
 2801HO4    HW111202   3.697   1.775   3.335
 2801HO4    HW211203   3.615   1.917   3.345
 2801HO4     MW11204   3.682   1.864   3.291
 2802HO4     OW11205   4.264   0.419   4.563
 2802HO4    HW111206   4.350   0.374   4.538
 2802HO4    HW211207   4.277   0.518   4.563
 2802HO4     MW11208   4.264   0.419   4.563
 2803HO4     OW11209   4.622   1.327   5.426
 2803HO4    HW111210   4.559   1.365   5.358
 2803HO4    HW211211   4.629   1.390   5.504
 2803HO4     MW11212   4.622   1.327   5.426
 2804HO4     OW11213   1.730   1.327   1.263
 2804HO4    HW111214   1.732   1.248   1.202
 2804HO4    HW211215   1.790   1.309   1.342
 2804HO4     MW11216   1.730   1.327   1.263
 2805HO4     OW11217   4.758   1.196   4.235
 2805HO4    HW111218   4.785   1.123   4.298
 2805HO4    HW211219   4.768   1.285   4.280
 2805HO4     MW11220   4.758   1.196   4.235
 2806HO4     OW11221   5.097   3.819   0.571
 2806HO4    HW111222   5.097   3.719   0.562
 2806HO4    HW211223   5.099   3.861   0.480
 2806HO4     MW11224   5.097   3.819   0.571
 2807HO4     OW11225   4.158   3.357   5.198
 2807HO4    HW111226   4.183   3.262   5.177
 2807HO4    HW211227   4.236   3.404   5.240
 2807HO4     MW11228   4.158   3.357   5.198
 2808HO4     OW11229   1.701   3.218   2.638
 2808HO4    HW111230   1.662   3.148   2.698
 2808HO4    HW211231   1.653   3.306   2.653
 2808HO4     MW11232   1.701   3.218   2.638
 2809HO4     OW11233   1.850   5.162   0.985
 2809HO4    HW111234   1.772   5.163   1.049
 2809HO4    HW211235   1.882   5.068   0.974
 2809HO4     MW11236   1.850   5.162   0.985
 2810HO4     OW11237   3.896   0.061   4.657
 2810HO4    HW111238   3.828   0.026   4.592
 2810HO4    HW211239   3.907  -0.004   4.733
 2810HO4     MW11240   3.896   0.061   4.657
 2811HO4     OW11241   0.358   0.719   2.778
 2811HO4    HW111242   0.279   0.666   2.812
 2811HO4    HW211243   0.400   0.670   2.701
 2811HO4     MW11244   0.358   0.719   2.778
 2812HO4     OW11245   4.367   3.548   2.029
 2812HO4    HW111246   4.290   3.541   2.092
 2812HO4    HW211247   4.407   3.641   2.034
 2812HO4     MW11248   4.367   3.548   2.029
 2813HO4     OW11249   3.236   5.449   1.399
 2813HO4    HW111250   3.307   5.518   1.385
 2813HO4    HW211251   3.147   5.495   1.410
 2813HO4     MW11252   3.236   5.449   1.399
 2814HO4     OW11253   1.133   5.120   4.219
 2814HO4    HW111254   1.066   5.059   4.263
 2814HO4    HW211255   1.178   5.177   4.288
 2814HO4     MW11256   1.133   5.120   4.219
 2815HO4     OW11257   4.503   3.716   1.512
 2815HO4    HW111258   4.462   3.628   1.483
 2815HO4    HW211259   4.503   3.722   1.612
 2815HO4     MW11260   4.503   3.716   1.512
 2816HO4     OW11261   3.417   3.836   3.018
 2816HO4    HW111262   3.446   3.894   3.095
 2816HO4    HW211263   3.427   3.887   2.932
 2816HO4     MW11264   3.417   3.836   3.018
 2817HO4     OW11265   3.784   2.944   2.780
 2817HO4    HW111266   3.825   2.936   2.688
 2817HO4    HW211267   3.729   2.862   2.799
 2817HO4     MW11268   3.784   2.944   2.780
 2818HO4     OW11269   0.694   0.580   3.923
 2818HO4    HW111270   0.636   0.660   3.944
 2818HO4    HW211271   0.639   0.496   3.930
 2818HO4     MW11272   0.694   0.580   3.923
 2819HO4     OW11273   4.818   5.216   1.071
 2819HO4    HW111274   4.821   5.284   0.998
 2819HO4    HW211275   4.791   5.261   1.157
 2819HO4     MW11276   4.818   5.216   1.071
 2820HO4     OW11277   5.319   3.098   1.118
 2820HO4    HW111278   5.343   3.051   1.204
 2820HO4    HW211279   5.324   3.033   1.042
 2820HO4     MW11280   5.319   3.098   1.118
 2821HO4     OW11281   3.740   0.617   2.775
 2821HO4    HW111282   3.773   0.705   2.740
 2821HO4    HW211283   3.793   0.593   2.858
 2821HO4     MW11284   3.740   0.617   2.775
 2822HO4     OW11285   0.378   5.007   1.509
 2822HO4    HW111286   0.471   5.045   1.512
 2822HO4    HW211287   0.350   4.993   1.414
 2822HO4     MW11288   0.378   5.007   1.509
 2823HO4     OW11289   5.136   1.949   3.464
 2823HO4    HW111290   5.201   1.883   3.503
 2823HO4    HW211291   5.043   1.927   3.497
 2823HO4     MW11292   5.136   1.949   3.464
 2824HO4     OW11293   2.061   4.920   4.609
 2824HO4    HW111294   2.031   4.909   4.514
 2824HO4    HW211295   2.019   5.004   4.647
 2824HO4     MW11296   2.061   4.920   4.609
 2825HO4     OW11297   3.398   0.990   2.679
 2825HO4    HW111298   3.412   1.029   2.587
 2825HO4    HW211299   3.329   1.044   2.728
 2825HO4     MW11300   3.398   0.990   2.679
 2826HO4     OW11301   0.502   5.072   1.688
 2826HO4    HW111302   0.511   5.149   1.752
 2826HO4    HW211303   0.459   4.995   1.735
 2826HO4     MW11304   0.502   5.072   1.688
 2827HO4     OW11305   0.879   3.257   1.658
 2827HO4    HW111306   0.921   3.252   1.567
 2827HO4    HW211307   0.938   3.213   1.725
 2827HO4     MW11308   0.879   3.257   1.658
 2828HO4     OW11309   0.737   0.534   1.797
 2828HO4    HW111310   0.697   0.479   1.870
 2828HO4    HW211311   0.679   0.529   1.715
 2828HO4     MW11312   0.737   0.534   1.797
 2829HO4     OW11313   4.880   1.348   2.112
 2829HO4    HW111314   4.906   1.310   2.022
 2829HO4    HW211315   4.879   1.448   2.107
 2829HO4     MW11316   4.880   1.348   2.112
 2830HO4     OW11317   0.872   1.224   0.651
 2830HO4    HW111318   0.832   1.196   0.563
 2830HO4    HW211319   0.822   1.178   0.725
 2830HO4     MW11320   0.872   1.224   0.651
 2831HO4     OW11321   0.198   1.836   0.524
 2831HO4    HW111322   0.131   1.761   0.516
 2831HO4    HW211323   0.258   1.817   0.602
 2831HO4     MW11324   0.198   1.836   0.524
 2832HO4     OW11325   1.678   1.729   0.321
 2832HO4    HW111326   1.649   1.633   0.321
 2832HO4    HW211327   1.677   1.763   0.415
 2832HO4     MW11328   1.678   1.729   0.321
 2833HO4     OW11329   4.815   4.093   3.422
 2833HO4    HW111330   4.835   4.170   3.483
 2833HO4    HW211331   4.815   4.125   3.327
 2833HO4     MW11332   4.815   4.093   3.422
 2834HO4     OW11333   3.759   1.968   5.006
 2834HO4    HW111334   3.725   1.957   4.912
 2834HO4    HW211335   3.730   1.890   5.062
 2834HO4     MW11336   3.759   1.968   5.006
 2835HO4     OW11337   3.653   0.072   0.244
 2835HO4    HW111338   3.589   0.108   0.312
 2835HO4    HW211339   3.725   0.140   0.227
 2835HO4     MW11340   3.653   0.072   0.244
 2836HO4     OW11341   1.246   0.723   3.040
 2836HO4    HW111342   1.286   0.639   3.077
 2836HO4    HW211343   1.303   0.802   3.066
 2836HO4     MW11344   1.246   0.723   3.040
 2837HO4     OW11345   5.339   0.210   2.164
 2837HO4    HW111346   5.410   0.262   2.214
 2837HO4    HW211347   5.251   0.256   2.175
 2837HO4     MW11348   5.339   0.210   2.164
 2838HO4     OW11349   4.048   2.216   0.200
 2838HO4    HW111350   3.968   2.242   0.145
 2838HO4    HW211351   4.027   2.227   0.298
 2838HO4     MW11352   4.048   2.216   0.200
 2839HO4     OW11353   3.076   2.262   4.707
 2839HO4    HW111354   3.081   2.238   4.610
 2839HO4    HW211355   3.055   2.359   4.717
 2839HO4     MW11356   3.076   2.262   4.707
 2840HO4     OW11357   2.396   4.912   3.172
 2840HO4    HW111358   2.422   5.000   3.132
 2840HO4    HW211359   2.402   4.918   3.273
 2840HO4     MW11360   2.396   4.912   3.172
 2841HO4     OW11361   3.615   0.330   1.952
 2841HO4    HW111362   3.652   0.368   2.037
 2841HO4    HW211363   3.665   0.370   1.874
 2841HO4     MW11364   3.615   0.330   1.952
 2842HO4     OW11365   5.372   2.792   4.120
 2842HO4    HW111366   5.422   2.872   4.087
 2842HO4    HW211367   5.436   2.729   4.166
 2842HO4     MW11368   5.372   2.792   4.120
 2843HO4     OW11369   0.805   3.354   3.499
 2843HO4    HW111370   0.852   3.307   3.575
 2843HO4    HW211371   0.798   3.291   3.421
 2843HO4     MW11372   0.805   3.354   3.499
 2844HO4     OW11373   2.836   3.011   0.987
 2844HO4    HW111374   2.781   2.998   1.069
 2844HO4    HW211375   2.780   2.991   0.906
 2844HO4     MW11376   2.836   3.011   0.987
 2845HO4     OW11377   5.094   2.965   0.626
 2845HO4    HW111378   5.036   2.983   0.706
 2845HO4    HW211379   5.057   3.013   0.546
 2845HO4     MW11380   5.094   2.965   0.626
 2846HO4     OW11381   4.641   1.056   2.197
 2846HO4    HW111382   4.576   1.130   2.175
 2846HO4    HW211383   4.684   1.074   2.286
 2846HO4     MW11384   4.641   1.056   2.197
 2847HO4     OW11385   1.974   5.138   4.530
 2847HO4    HW111386   1.909   5.160   4.457
 2847HO4    HW211387   2.032   5.217   4.549
 2847HO4     MW11388   1.974   5.138   4.530
 2848HO4     OW11389   1.947   0.443   0.112
 2848HO4    HW111390   1.989   0.365   0.065
 2848HO4    HW211391   2.014   0.517   0.122
 2848HO4     MW11392   1.947   0.443   0.112
 2849HO4     OW11393   1.405   2.735   3.774
 2849HO4    HW111394   1.489   2.682   3.791
 2849HO4    HW211395   1.384   2.791   3.854
 2849HO4     MW11396   1.405   2.735   3.774
 2850HO4     OW11397   2.734   4.667   0.621
 2850HO4    HW111398   2.736   4.765   0.600
 2850HO4    HW211399   2.825   4.627   0.606
 2850HO4     MW11400   2.734   4.667   0.621
 2851HO4     OW11401   5.444   0.643   1.422
 2851HO4    HW111402   5.416   0.667   1.329
 2851HO4    HW211403   5.386   0.691   1.488
 2851HO4     MW11404   5.444   0.643   1.422
 2852HO4     OW11405   0.342   3.381   2.016
 2852HO4    HW111406   0.438   3.358   2.035
 2852HO4    HW211407   0.333   3.406   1.919
 2852HO4     MW11408   0.342   3.381   2.016
 2853HO4     OW11409   4.877   1.625   0.277
 2853HO4    HW111410   4.821   1.552   0.318
 2853HO4    HW211411   4.865   1.623   0.177
 2853HO4     MW11412   4.877   1.625   0.277
 2854HO4     OW11413   3.820   0.750   3.121
 2854HO4    HW111414   3.908   0.722   3.161
 2854HO4    HW211415   3.749   0.750   3.192
 2854HO4     MW11416   3.820   0.750   3.121
 2855HO4     OW11417   0.829   0.354   4.141
 2855HO4    HW111418   0.732   0.343   4.118
 2855HO4    HW211419   0.839   0.431   4.206
 2855HO4     MW11420   0.829   0.354   4.141
 2856HO4     OW11421   2.034   0.648   1.954
 2856HO4    HW111422   2.075   0.686   1.871
 2856HO4    HW211423   2.082   0.685   2.035
 2856HO4     MW11424   2.034   0.648   1.954
 2857HO4     OW11425   2.064   5.400   0.242
 2857HO4    HW111426   2.034   5.340   0.167
 2857HO4    HW211427   1.985   5.430   0.295
 2857HO4     MW11428   2.064   5.400   0.242
 2858HO4     OW11429   3.162   0.642   4.559
 2858HO4    HW111430   3.131   0.633   4.654
 2858HO4    HW211431   3.220   0.724   4.551
 2858HO4     MW11432   3.162   0.642   4.559
 2859HO4     OW11433   2.763   1.779   5.081
 2859HO4    HW111434   2.673   1.735   5.074
 2859HO4    HW211435   2.766   1.835   5.165
 2859HO4     MW11436   2.763   1.779   5.081
 2860HO4     OW11437   0.940   2.805   1.689
 2860HO4    HW111438   1.025   2.752   1.699
 2860HO4    HW211439   0.927   2.863   1.770
 2860HO4     MW11440   0.940   2.805   1.689
 2861HO4     OW11441   1.615   1.370   0.837
 2861HO4    HW111442   1.673   1.331   0.764
 2861HO4    HW211443   1.663   1.448   0.880
 2861HO4     MW11444   1.615   1.370   0.837
 2862HO4     OW11445   0.996   0.357   1.260
 2862HO4    HW111446   0.992   0.327   1.164
 2862HO4    HW211447   0.986   0.277   1.320
 2862HO4     MW11448   0.996   0.357   1.260
 2863HO4     OW11449   0.470   2.840   2.320
 2863HO4    HW111450   0.376   2.867   2.298
 2863HO4    HW211451   0.505   2.780   2.247
 2863HO4     MW11452   0.470   2.840   2.320
 2864HO4     OW11453   4.173   5.031   3.114
 2864HO4    HW111454   4.236   5.089   3.167
 2864HO4    HW211455   4.137   5.084   3.037
 2864HO4     MW11456   4.173   5.031   3.114
 2865HO4     OW11457   1.943   0.226   2.505
 2865HO4    HW111458   1.984   0.134   2.506
 2865HO4    HW211459   1.915   0.250   2.599
 2865HO4     MW11460   1.943   0.226   2.505
 2866HO4     OW11461   3.841   2.333   2.413
 2866HO4    HW111462   3.889   2.339   2.501
 2866HO4    HW211463   3.792   2.419   2.397
 2866HO4     MW11464   3.841   2.333   2.413
 2867HO4     OW11465   2.819   0.374   5.137
 2867HO4    HW111466   2.773   0.397   5.223
 2867HO4    HW211467   2.802   0.278   5.114
 2867HO4     MW11468   2.819   0.374   5.137
 2868HO4     OW11469   0.700   1.999   1.904
 2868HO4    HW111470   0.708   2.002   2.004
 2868HO4    HW211471   0.603   2.007   1.878
 2868HO4     MW11472   0.700   1.999   1.904
 2869HO4     OW11473   4.067   1.817   2.645
 2869HO4    HW111474   4.074   1.915   2.623
 2869HO4    HW211475   3.994   1.775   2.589
 2869HO4     MW11476   4.067   1.817   2.645
 2870HO4     OW11477   2.175   4.300   3.497
 2870HO4    HW111478   2.177   4.394   3.531
 2870HO4    HW211479   2.174   4.300   3.396
 2870HO4     MW11480   2.175   4.300   3.497
 2871HO4     OW11481   4.887   2.193   5.400
 2871HO4    HW111482   4.957   2.223   5.335
 2871HO4    HW211483   4.832   2.120   5.358
 2871HO4     MW11484   4.887   2.193   5.400
 2872HO4     OW11485   4.163   2.834   1.238
 2872HO4    HW111486   4.117   2.854   1.151
 2872HO4    HW211487   4.162   2.734   1.253
 2872HO4     MW11488   4.163   2.834   1.238
 2873HO4     OW11489   5.387   2.223   2.369
 2873HO4    HW111490   5.388   2.213   2.469
 2873HO4    HW211491   5.473   2.267   2.339
 2873HO4     MW11492   5.387   2.223   2.369
 2874HO4     OW11493   1.584   4.408   3.424
 2874HO4    HW111494   1.579   4.332   3.359
 2874HO4    HW211495   1.505   4.468   3.412
 2874HO4     MW11496   1.584   4.408   3.424
 2875HO4     OW11497   1.169   0.738   2.821
 2875HO4    HW111498   1.149   0.827   2.864
 2875HO4    HW211499   1.268   0.731   2.805
 2875HO4     MW11500   1.169   0.738   2.821
 2876HO4     OW11501   4.271   3.051   5.259
 2876HO4    HW111502   4.309   2.989   5.190
 2876HO4    HW211503   4.294   3.017   5.351
 2876HO4     MW11504   4.271   3.051   5.259
 2877HO4     OW11505   4.623   1.531   4.045
 2877HO4    HW111506   4.596   1.567   4.134
 2877HO4    HW211507   4.559   1.564   3.975
 2877HO4     MW11508   4.623   1.531   4.045
 2878HO4     OW11509   2.327   1.706   3.325
 2878HO4    HW111510   2.361   1.613   3.342
 2878HO4    HW211511   2.365   1.740   3.239
 2878HO4     MW11512   2.327   1.706   3.325
 2879HO4     OW11513   2.380   0.273   2.239
 2879HO4    HW111514   2.386   0.235   2.332
 2879HO4    HW211515   2.331   0.208   2.179
 2879HO4     MW11516   2.380   0.273   2.239
 2880HO4     OW11517   0.787   2.231   0.470
 2880HO4    HW111518   0.709   2.253   0.529
 2880HO4    HW211519   0.872   2.245   0.520
 2880HO4     MW11520   0.787   2.231   0.470
 2881HO4     OW11521   0.699   2.129   0.935
 2881HO4    HW111522   0.606   2.140   0.900
 2881HO4    HW211523   0.698   2.127   1.035
 2881HO4     MW11524   0.699   2.129   0.935
 2882HO4     OW11525   0.345   0.362   1.509
 2882HO4    HW111526   0.262   0.343   1.562
 2882HO4    HW211527   0.352   0.297   1.433
 2882HO4     MW11528   0.345   0.362   1.509
 2883HO4     OW11529   4.495   4.039   4.312
 2883HO4    HW111530   4.434   4.035   4.233
 2883HO4    HW211531   4.442   4.026   4.396
 2883HO4     MW11532   4.495   4.039   4.312
 2884HO4     OW11533   5.097   4.707   3.297
 2884HO4    HW111534   5.083   4.655   3.382
 2884HO4    HW211535   5.158   4.656   3.236
 2884HO4     MW11536   5.097   4.707   3.297
 2885HO4     OW11537   3.183   2.906   1.656
 2885HO4    HW111538   3.114   2.859   1.599
 2885HO4    HW211539   3.272   2.860   1.646
 2885HO4     MW11540   3.183   2.906   1.656
 2886HO4     OW11541   1.745   5.457   0.563
 2886HO4    HW111542   1.775   5.388   0.629
 2886HO4    HW211543   1.649   5.439   0.538
 2886HO4     MW11544   1.745   5.457   0.563
 2887HO4     OW11545   5.263   2.086   1.887
 2887HO4    HW111546   5.287   2.117   1.795
 2887HO4    HW211547   5.335   2.114   1.952
 2887HO4     MW11548   5.263   2.086   1.887
 2888HO4     OW11549   2.002   0.290   0.750
 2888HO4    HW111550   2.026   0.345   0.670
 2888HO4    HW211551   1.998   0.348   0.831
 2888HO4     MW11552   2.002   0.290   0.750
 2889HO4     OW11553   0.610   5.026   4.998
 2889HO4    HW111554   0.680   4.965   5.036
 2889HO4    HW211555   0.536   5.036   5.065
 2889HO4     MW11556   0.610   5.026   4.998
 2890HO4     OW11557   4.065   4.873   2.004
 2890HO4    HW111558   4.089   4.969   2.019
 2890HO4    HW211559   3.972   4.855   2.037
 2890HO4     MW11560   4.065   4.873   2.004
 2891HO4     OW11561   1.724   0.015   4.456
 2891HO4    HW111562   1.676   0.031   4.369
 2891HO4    HW211563   1.821   0.039   4.447
 2891HO4     MW11564   1.724   0.015   4.456
 2892HO4     OW11565   1.139   5.450   0.621
 2892HO4    HW111566   1.100   5.491   0.538
 2892HO4    HW211567   1.075   5.461   0.698
 2892HO4     MW11568   1.139   5.450   0.621
 2893HO4     OW11569   4.672   4.159   2.383
 2893HO4    HW111570   4.614   4.186   2.460
 2893HO4    HW211571   4.690   4.238   2.324
 2893HO4     MW11572   4.672   4.159   2.383
 2894HO4     OW11573   1.870   3.918   4.174
 2894HO4    HW111574   1.896   3.918   4.077
 2894HO4    HW211575   1.952   3.916   4.231
 2894HO4     MW11576   1.870   3.918   4.174
 2895HO4     OW11577   0.010   4.178   5.071
 2895HO4    HW111578   0.041   4.171   4.976
 2895HO4    HW211579  -0.010   4.086   5.107
 2895HO4     MW11580   0.010   4.178   5.071
 2896HO4     OW11581   0.513   3.287   0.923
 2896HO4    HW111582   0.534   3.236   1.006
 2896HO4    HW211583   0.542   3.234   0.843
 2896HO4     MW11584   0.513   3.287   0.923
 2897HO4     OW11585   0.219   4.375   0.257
 2897HO4    HW111586   0.170   4.386   0.170
 2897HO4    HW211587   0.157   4.339   0.327
 2897HO4     MW11588   0.219   4.375   0.257
 2898HO4     OW11589   3.706   5.076   5.145
 2898HO4    HW111590   3.752   5.095   5.058
 2898HO4    HW211591   3.771   5.034   5.209
 2898HO4     MW11592   3.706   5.076   5.145
 2899HO4     OW11593   0.179   0.098   3.279
 2899HO4    HW111594   0.270   0.068   3.309
 2899HO4    HW211595   0.187   0.148   3.193
 2899HO4     MW11596   0.179   0.098   3.279
 2900HO4     OW11597   4.768   5.255   3.400
 2900HO4    HW111598   4.746   5.185   3.331
 2900HO4    HW211599   4.779   5.344   3.355
 2900HO4     MW11600   4.768   5.255   3.400
 2901HO4     OW11601   2.882   2.242   3.486
 2901HO4    HW111602   2.933   2.295   3.555
 2901HO4    HW211603   2.926   2.152   3.475
 2901HO4     MW11604   2.882   2.242   3.486
 2902HO4     OW11605   1.915   3.084   4.455
 2902HO4    HW111606   1.836   3.047   4.405
 2902HO4    HW211607   1.975   3.134   4.392
 2902HO4     MW11608   1.915   3.084   4.455
 2903HO4     OW11609   0.476   1.055   4.456
 2903HO4    HW111610   0.410   1.120   4.495
 2903HO4    HW211611   0.439   0.962   4.462
 2903HO4     MW11612   0.476   1.055   4.456
 2904HO4     OW11613   2.507   4.650   0.840
 2904HO4    HW111614   2.494   4.717   0.766
 2904HO4    HW211615   2.585   4.680   0.897
 2904HO4     MW11616   2.507   4.650   0.840
 2905HO4     OW11617   2.885   2.732   3.862
 2905HO4    HW111618   2.808   2.708   3.923
 2905HO4    HW211619   2.884   2.831   3.845
 2905HO4     MW11620   2.885   2.732   3.862
 2906HO4     OW11621   4.313   0.444   0.299
 2906HO4    HW111622   4.263   0.398   0.372
 2906HO4    HW211623   4.408   0.460   0.329
 2906HO4     MW11624   4.313   0.444   0.299
 2907HO4     OW11625   0.210   3.004   4.555
 2907HO4    HW111626   0.221   2.993   4.456
 2907HO4    HW211627   0.187   3.099   4.577
 2907HO4     MW11628   0.210   3.004   4.555
 2908HO4     OW11629   3.375   4.194   0.451
 2908HO4    HW111630   3.358   4.287   0.486
 2908HO4    HW211631   3.319   4.179   0.368
 2908HO4     MW11632   3.375   4.194   0.451
 2909HO4     OW11633   1.008   2.379   0.798
 2909HO4    HW111634   0.962   2.413   0.715
 2909HO4    HW211635   0.945   2.385   0.876
 2909HO4     MW11636   1.008   2.379   0.798
 2910HO4     OW11637   1.963   3.408   4.607
 2910HO4    HW111638   1.911   3.363   4.535
 2910HO4    HW211639   1.937   3.370   4.696
 2910HO4     MW11640   1.963   3.408   4.607
 2911HO4     OW11641   3.122   3.514   3.339
 2911HO4    HW111642   3.160   3.423   3.320
 2911HO4    HW211643   3.178   3.559   3.410
 2911HO4     MW11644   3.122   3.514   3.339
 2912HO4     OW11645   0.526   2.127   2.667
 2912HO4    HW111646   0.559   2.199   2.730
 2912HO4    HW211647   0.481   2.170   2.589
 2912HO4     MW11648   0.526   2.127   2.667
 2913HO4     OW11649   0.127   3.615   0.194
 2913HO4    HW111650   0.130   3.526   0.147
 2913HO4    HW211651   0.145   3.601   0.292
 2913HO4     MW11652   0.127   3.615   0.194
 2914HO4     OW11653   2.690   4.221   3.405
 2914HO4    HW111654   2.729   4.190   3.492
 2914HO4    HW211655   2.713   4.318   3.390
 2914HO4     MW11656   2.690   4.221   3.405
 2915HO4     OW11657   0.366   2.041   1.511
 2915HO4    HW111658   0.339   2.001   1.599
 2915HO4    HW211659   0.403   1.969   1.451
 2915HO4     MW11660   0.366   2.041   1.511
 2916HO4     OW11661   1.591   4.699   4.781
 2916HO4    HW111662   1.524   4.703   4.706
 2916HO4    HW211663   1.544   4.676   4.867
 2916HO4     MW11664   1.591   4.699   4.781
 2917HO4     OW11665   2.036   2.863   2.185
 2917HO4    HW111666   2.053   2.892   2.091
 2917HO4    HW211667   2.124   2.851   2.233
 2917HO4     MW11668   2.036   2.863   2.185
 2918HO4     OW11669   1.248   1.365   0.762
 2918HO4    HW111670   1.237   1.456   0.803
 2918HO4    HW211671   1.296   1.373   0.675
 2918HO4     MW11672   1.248   1.365   0.762
 2919HO4     OW11673   4.018   1.562   2.030
 2919HO4    HW111674   4.028   1.463   2.036
 2919HO4    HW211675   3.977   1.587   1.942
 2919HO4     MW11676   4.018   1.562   2.030
 2920HO4     OW11677   4.198   1.635   4.507
 2920HO4    HW111678   4.140   1.557   4.480
 2920HO4    HW211679   4.289   1.625   4.465
 2920HO4     MW11680   4.198   1.635   4.507
 2921HO4     OW11681   2.910   1.709   1.096
 2921HO4    HW111682   2.955   1.785   1.143
 2921HO4    HW211683   2.933   1.713   0.998
 2921HO4     MW11684   2.910   1.709   1.096
 2922HO4     OW11685   1.738   4.051   2.981
 2922HO4    HW111686   1.797   4.032   3.060
 2922HO4    HW211687   1.786   4.114   2.919
 2922HO4     MW11688   1.738   4.051   2.981
 2923HO4     OW11689   5.283   1.341   0.077
 2923HO4    HW111690   5.322   1.384   0.160
 2923HO4    HW211691   5.215   1.272   0.104
 2923HO4     MW11692   5.283   1.341   0.077
 2924HO4     OW11693   5.093   2.548   5.246
 2924HO4    HW111694   5.022   2.502   5.299
 2924HO4    HW211695   5.183   2.532   5.288
 2924HO4     MW11696   5.093   2.548   5.246
 2925HO4     OW11697   0.564   4.383   3.821
 2925HO4    HW111698   0.567   4.445   3.742
 2925HO4    HW211699   0.493   4.413   3.884
 2925HO4     MW11700   0.564   4.383   3.821
 2926HO4     OW11701   4.179   3.991   0.844
 2926HO4    HW111702   4.101   4.040   0.884
 2926HO4    HW211703   4.209   4.037   0.761
 2926HO4     MW11704   4.179   3.991   0.844
 2927HO4     OW11705   1.311   2.540   3.675
 2927HO4    HW111706   1.239   2.590   3.723
 2927HO4    HW211707   1.271   2.487   3.600
 2927HO4     MW11708   1.311   2.540   3.675
 2928HO4     OW11709   5.251   2.963   0.278
 2928HO4    HW111710   5.238   2.955   0.179
 2928HO4    HW211711   5.299   2.882   0.313
 2928HO4     MW11712   5.251   2.963   0.278
 2929HO4     OW11713   1.215   3.034   3.097
 2929HO4    HW111714   1.287   2.996   3.039
 2929HO4    HW211715   1.245   3.031   3.193
 2929HO4     MW11716   1.215   3.034   3.097
 2930HO4     OW11717   4.230   4.213   5.129
 2930HO4    HW111718   4.310   4.181   5.180
 2930HO4    HW211719   4.178   4.278   5.186
 2930HO4     MW11720   4.230   4.213   5.129
 2931HO4     OW11721   0.296   2.246   1.948
 2931HO4    HW111722   0.287   2.218   1.852
 2931HO4    HW211723   0.385   2.215   1.984
 2931HO4     MW11724   0.296   2.246   1.948
 2932HO4     OW11725   5.170   1.471   1.031
 2932HO4    HW111726   5.090   1.477   1.091
 2932HO4    HW211727   5.152   1.405   0.957
 2932HO4     MW11728   5.170   1.471   1.031
 2933HO4     OW11729   3.789   3.653   2.529
 2933HO4    HW111730   3.762   3.712   2.606
 2933HO4    HW211731   3.716   3.652   2.460
 2933HO4     MW11732   3.789   3.653   2.529
 2934HO4     OW11733   0.089   2.641   3.204
 2934HO4    HW111734   0.100   2.655   3.105
 2934HO4    HW211735  -0.009   2.639   3.227
 2934HO4     MW11736   0.089   2.641   3.204
 2935HO4     OW11737   0.635   2.193   4.309
 2935HO4    HW111738   0.616   2.159   4.216
 2935HO4    HW211739   0.725   2.238   4.309
 2935HO4     MW11740   0.635   2.193   4.309
 2936HO4     OW11741   2.299   5.262   1.104
 2936HO4    HW111742   2.353   5.220   1.030
 2936HO4    HW211743   2.253   5.190   1.157
 2936HO4     MW11744   2.299   5.262   1.104
 2937HO4     OW11745   4.735   1.126   3.259
 2937HO4    HW111746   4.800   1.058   3.295
 2937HO4    HW211747   4.664   1.143   3.328
 2937HO4     MW11748   4.735   1.126   3.259
 2938HO4     OW11749   1.787   1.134   2.030
 2938HO4    HW111750   1.788   1.042   2.069
 2938HO4    HW211751   1.850   1.137   1.951
 2938HO4     MW11752   1.787   1.134   2.030
 2939HO4     OW11753   0.471   0.182   1.225
 2939HO4    HW111754   0.418   0.107   1.266
 2939HO4    HW211755   0.409   0.256   1.197
 2939HO4     MW11756   0.471   0.182   1.225
 2940HO4     OW11757   2.905   3.802   2.503
 2940HO4    HW111758   2.857   3.779   2.417
 2940HO4    HW211759   2.843   3.855   2.562
 2940HO4     MW11760   2.905   3.802   2.503
 2941HO4     OW11761   3.525   4.186   2.314
 2941HO4    HW111762   3.542   4.231   2.226
 2941HO4    HW211763   3.579   4.231   2.386
 2941HO4     MW11764   3.525   4.186   2.314
 2942HO4     OW11765   3.068   3.795   5.334
 2942HO4    HW111766   3.126   3.786   5.253
 2942HO4    HW211767   3.122   3.777   5.417
 2942HO4     MW11768   3.068   3.795   5.334
 2943HO4     OW11769   2.799   0.376   3.001
 2943HO4    HW111770   2.753   0.327   2.927
 2943HO4    HW211771   2.816   0.313   3.078
 2943HO4     MW11772   2.799   0.376   3.001
 2944HO4     OW11773   4.295   4.935   3.736
 2944HO4    HW111774   4.311   4.852   3.682
 2944HO4    HW211775   4.257   5.006   3.676
 2944HO4     MW11776   4.295   4.935   3.736
 2945HO4     OW11777   4.910   3.291   0.793
 2945HO4    HW111778   4.833   3.242   0.752
 2945HO4    HW211779   4.914   3.270   0.892
 2945HO4     MW11780   4.910   3.291   0.793
 2946HO4     OW11781   1.904   2.850   4.068
 2946HO4    HW111782   1.888   2.874   3.972
 2946HO4    HW211783   1.969   2.775   4.074
 2946HO4     MW11784   1.904   2.850   4.068
 2947HO4     OW11785   4.999   1.699   3.825
 2947HO4    HW111786   5.033   1.723   3.733
 2947HO4    HW211787   5.073   1.656   3.877
 2947HO4     MW11788   4.999   1.699   3.825
 2948HO4     OW11789   0.435   3.613   2.818
 2948HO4    HW111790   0.379   3.601   2.736
 2948HO4    HW211791   0.395   3.559   2.893
 2948HO4     MW11792   0.435   3.613   2.818
 2949HO4     OW11793   1.895   1.755   4.367
 2949HO4    HW111794   1.948   1.832   4.331
 2949HO4    HW211795   1.937   1.722   4.452
 2949HO4     MW11796   1.895   1.755   4.367
 2950HO4     OW11797   3.258   1.334   3.097
 2950HO4    HW111798   3.254   1.430   3.069
 2950HO4    HW211799   3.168   1.305   3.130
 2950HO4     MW11800   3.258   1.334   3.097
 2951HO4     OW11801   5.250   5.037   0.680
 2951HO4    HW111802   5.244   5.042   0.579
 2951HO4    HW211803   5.164   5.072   0.719
 2951HO4     MW11804   5.250   5.037   0.680
 2952HO4     OW11805   4.049   2.219   3.815
 2952HO4    HW111806   4.059   2.178   3.724
 2952HO4    HW211807   3.964   2.272   3.819
 2952HO4     MW11808   4.049   2.219   3.815
 2953HO4     OW11809   0.266   0.964   5.186
 2953HO4    HW111810   0.225   0.907   5.257
 2953HO4    HW211811   0.209   0.959   5.103
 2953HO4     MW11812   0.266   0.964   5.186
 2954HO4     OW11813   0.452   3.947   0.606
 2954HO4    HW111814   0.505   3.894   0.674
 2954HO4    HW211815   0.513   4.007   0.555
 2954HO4     MW11816   0.452   3.947   0.606
 2955HO4     OW11817   3.466   0.997   3.867
 2955HO4    HW111818   3.420   1.027   3.783
 2955HO4    HW211819   3.411   1.023   3.947
 2955HO4     MW11820   3.466   0.997   3.867
 2956HO4     OW11821   3.890   0.176   1.556
 2956HO4    HW111822   3.946   0.195   1.638
 2956HO4    HW211823   3.948   0.183   1.474
 2956HO4     MW11824   3.890   0.176   1.556
 2957HO4     OW11825   0.935   0.069   2.393
 2957HO4    HW111826   0.884   0.051   2.309
 2957HO4    HW211827   0.986  -0.013   2.420
 2957HO4     MW11828   0.935   0.069   2.393
 2958HO4     OW11829   0.004   0.168   4.705
 2958HO4    HW111830   0.037   0.106   4.634
 2958HO4    HW211831  -0.002   0.118   4.792
 2958HO4     MW11832   0.004   0.168   4.705
 2959HO4     OW11833   4.314   3.601   4.281
 2959HO4    HW111834   4.256   3.592   4.363
 2959HO4    HW211835   4.257   3.600   4.199
 2959HO4     MW11836   4.314   3.601   4.281
 2960HO4     OW11837   5.153   1.794   5.492
 2960HO4    HW111838   5.159   1.695   5.477
 2960HO4    HW211839   5.178   1.842   5.408
 2960HO4     MW11840   5.153   1.794   5.492
 2961HO4     OW11841   1.708   0.324   1.747
 2961HO4    HW111842   1.630   0.326   1.810
 2961HO4    HW211843   1.713   0.234   1.703
 2961HO4     MW11844   1.708   0.324   1.747
 2962HO4     OW11845   1.301   1.647   4.750
 2962HO4    HW111846   1.300   1.551   4.719
 2962HO4    HW211847   1.209   1.686   4.740
 2962HO4     MW11848   1.301   1.647   4.750
 2963HO4     OW11849   0.271   2.585   0.272
 2963HO4    HW111850   0.306   2.491   0.258
 2963HO4    HW211851   0.304   2.644   0.198
 2963HO4     MW11852   0.271   2.585   0.272
 2964HO4     OW11853   0.129   0.677   0.867
 2964HO4    HW111854   0.046   0.627   0.893
 2964HO4    HW211855   0.167   0.722   0.949
 2964HO4     MW11856   0.129   0.677   0.867
 2965HO4     OW11857   0.568   4.832   1.069
 2965HO4    HW111858   0.550   4.914   1.013
 2965HO4    HW211859   0.488   4.812   1.126
 2965HO4     MW11860   0.568   4.832   1.069
 2966HO4     OW11861   4.156   1.384   0.341
 2966HO4    HW111862   4.199   1.348   0.258
 2966HO4    HW211863   4.199   1.342   0.422
 2966HO4     MW11864   4.156   1.384   0.341
 2967HO4     OW11865   4.231   5.396   0.481
 2967HO4    HW111866   4.199   5.489   0.503
 2967HO4    HW211867   4.305   5.370   0.543
 2967HO4     MW11868   4.231   5.396   0.481
 2968HO4     OW11869   0.436   1.074   3.792
 2968HO4    HW111870   0.485   1.079   3.879
 2968HO4    HW211871   0.436   0.979   3.759
 2968HO4     MW11872   0.436   1.074   3.792
 2969HO4     OW11873   3.331   2.709   0.166
 2969HO4    HW111874   3.337   2.651   0.084
 2969HO4    HW211875   3.337   2.651   0.248
 2969HO4     MW11876   3.331   2.709   0.166
 2970HO4     OW11877   3.393   1.588   1.928
 2970HO4    HW111878   3.403   1.687   1.914
 2970HO4    HW211879   3.481   1.544   1.912
 2970HO4     MW11880   3.393   1.588   1.928
 2971HO4     OW11881   4.758   4.372   2.003
 2971HO4    HW111882   4.732   4.359   2.100
 2971HO4    HW211883   4.697   4.318   1.945
 2971HO4     MW11884   4.758   4.372   2.003
 2972HO4     OW11885   4.799   1.784   4.328
 2972HO4    HW111886   4.751   1.713   4.381
 2972HO4    HW211887   4.794   1.872   4.377
 2972HO4     MW11888   4.799   1.784   4.328
 2973HO4     OW11889   1.548   2.607   0.234
 2973HO4    HW111890   1.456   2.642   0.214
 2973HO4    HW211891   1.550   2.571   0.328
 2973HO4     MW11892   1.548   2.607   0.234
 2974HO4     OW11893   3.925   3.443   3.018
 2974HO4    HW111894   3.910   3.492   2.932
 2974HO4    HW211895   3.983   3.499   3.079
 2974HO4     MW11896   3.925   3.443   3.018
 2975HO4     OW11897   4.615   1.059   1.905
 2975HO4    HW111898   4.689   1.058   1.972
 2975HO4    HW211899   4.652   1.081   1.814
 2975HO4     MW11900   4.615   1.059   1.905
 2976HO4     OW11901   3.399   3.129   3.753
 2976HO4    HW111902   3.364   3.205   3.698
 2976HO4    HW211903   3.384   3.148   3.850
 2976HO4     MW11904   3.399   3.129   3.753
 2977HO4     OW11905   2.323   2.939   4.310
 2977HO4    HW111906   2.304   3.019   4.253
 2977HO4    HW211907   2.237   2.899   4.342
 2977HO4     MW11908   2.323   2.939   4.310
 2978HO4     OW11909   1.509   5.350   0.677
 2978HO4    HW111910   1.489   5.296   0.594
 2978HO4    HW211911   1.545   5.289   0.748
 2978HO4     MW11912   1.509   5.350   0.677
 2979HO4     OW11913   1.934   4.770   3.370
 2979HO4    HW111914   1.877   4.802   3.294
 2979HO4    HW211915   1.981   4.686   3.344
 2979HO4     MW11916   1.934   4.770   3.370
 2980HO4     OW11917   4.177   2.081   0.462
 2980HO4    HW111918   4.244   2.120   0.526
 2980HO4    HW211919   4.158   1.986   0.488
 2980HO4     MW11920   4.177   2.081   0.462
 2981HO4     OW11921   5.443   4.877   5.443
 2981HO4    HW111922   5.406   4.921   5.525
 2981HO4    HW211923   5.485   4.947   5.384
 2981HO4     MW11924   5.443   4.877   5.443
 2982HO4     OW11925   2.340   4.022   3.669
 2982HO4    HW111926   2.242   4.046   3.671
 2982HO4    HW211927   2.351   3.923   3.677
 2982HO4     MW11928   2.340   4.022   3.669
 2983HO4     OW11929   3.837   1.641   3.004
 2983HO4    HW111930   3.921   1.608   2.960
 2983HO4    HW211931   3.789   1.565   3.048
 2983HO4     MW11932   3.837   1.641   3.004
 2984HO4     OW11933   4.885   0.200   5.348
 2984HO4    HW111934   4.955   0.241   5.289
 2984HO4    HW211935   4.924   0.184   5.439
 2984HO4     MW11936   4.885   0.200   5.348
 2985HO4     OW11937   1.458   4.359   0.622
 2985HO4    HW111938   1.405   4.343   0.705
 2985HO4    HW211939   1.398   4.349   0.541
 2985HO4     MW11940   1.458   4.359   0.622
 2986HO4     OW11941   3.297   0.236   1.503
 2986HO4    HW111942   3.224   0.168   1.489
 2986HO4    HW211943   3.326   0.234   1.599
 2986HO4     MW11944   3.297   0.236   1.503
 2987HO4     OW11945   3.076   4.120   4.306
 2987HO4    HW111946   3.039   4.103   4.398
 2987HO4    HW211947   3.062   4.216   4.281
 2987HO4     MW11948   3.076   4.120   4.306
 2988HO4     OW11949   4.281   5.400   4.945
 2988HO4    HW111950   4.300   5.462   4.869
 2988HO4    HW211951   4.365   5.388   5.000
 2988HO4     MW11952   4.281   5.400   4.945
 2989HO4     OW11953   1.916   1.177   3.948
 2989HO4    HW111954   1.828   1.174   3.997
 2989HO4    HW211955   1.925   1.263   3.898
 2989HO4     MW11956   1.916   1.177   3.948
 2990HO4     OW11957   0.430   1.770   3.706
 2990HO4    HW111958   0.465   1.717   3.783
 2990HO4    HW211959   0.428   1.711   3.624
 2990HO4     MW11960   0.430   1.770   3.706
 2991HO4     OW11961   0.586   3.306   4.941
 2991HO4    HW111962   0.552   3.222   4.985
 2991HO4    HW211963   0.533   3.324   4.858
 2991HO4     MW11964   0.586   3.306   4.941
 2992HO4     OW11965   0.256   3.841   1.760
 2992HO4    HW111966   0.302   3.793   1.685
 2992HO4    HW211967   0.177   3.788   1.790
 2992HO4     MW11968   0.256   3.841   1.760
 2993HO4     OW11969   0.036   4.151   3.957
 2993HO4    HW111970   0.009   4.190   4.045
 2993HO4    HW211971   0.021   4.219   3.885
 2993HO4     MW11972   0.036   4.151   3.957
 2994HO4     OW11973   0.961   5.282   0.767
 2994HO4    HW111974   0.890   5.212   0.757
 2994HO4    HW211975   1.013   5.289   0.682
 2994HO4     MW11976   0.961   5.282   0.767
 2995HO4     OW11977   3.977   4.234   4.259
 2995HO4    HW111978   3.929   4.296   4.322
 2995HO4    HW211979   4.005   4.152   4.309
 2995HO4     MW11980   3.977   4.234   4.259
 2996HO4     OW11981   2.519   2.704   4.590
 2996HO4    HW111982   2.612   2.738   4.602
 2996HO4    HW211983   2.510   2.659   4.501
 2996HO4     MW11984   2.519   2.704   4.590
 2997HO4     OW11985   0.868   3.844   0.487
 2997HO4    HW111986   0.873   3.827   0.586
 2997HO4    HW211987   0.907   3.766   0.437
 2997HO4     MW11988   0.868   3.844   0.487
 2998HO4     OW11989   1.143   1.812   2.311
 2998HO4    HW111990   1.150   1.872   2.391
 2998HO4    HW211991   1.184   1.723   2.333
 2998HO4     MW11992   1.143   1.812   2.311
 2999HO4     OW11993   5.335   1.760   4.771
 2999HO4    HW111994   5.357   1.691   4.841
 2999HO4    HW211995   5.355   1.723   4.680
 2999HO4     MW11996   5.335   1.760   4.771
 3000HO4     OW11997   0.512   5.145   1.073
 3000HO4    HW111998   0.517   5.236   1.117
 3000HO4    HW211999   0.604   5.105   1.070
 3000HO4     MW12000   0.512   5.145   1.073
 3001HO4     OW12001   2.552   0.008   4.454
 3001HO4    HW112002   2.497   0.028   4.372
 3001HO4    HW212003   2.493   0.007   4.535
 3001HO4     MW12004   2.552   0.008   4.454
 3002HO4     OW12005   3.334   0.199   2.426
 3002HO4    HW112006   3.342   0.237   2.334
 3002HO4    HW212007   3.238   0.199   2.454
 3002HO4     MW12008   3.334   0.199   2.426
 3003HO4     OW12009   4.430   1.946   5.394
 3003HO4    HW112010   4.518   1.972   5.353
 3003HO4    HW212011   4.439   1.944   5.494
 3003HO4     MW12012   4.430   1.946   5.394
 3004HO4     OW12013   1.598   5.271   3.609
 3004HO4    HW112014   1.641   5.278   3.700
 3004HO4    HW212015   1.503   5.303   3.615
 3004HO4     MW12016   1.598   5.271   3.609
 3005HO4     OW12017   4.771   4.268   1.062
 3005HO4    HW112018   4.852   4.302   1.110
 3005HO4    HW212019   4.696   4.256   1.127
 3005HO4     MW12020   4.771   4.268   1.062
 3006HO4     OW12021   3.965   2.364   5.049
 3006HO4    HW112022   3.867   2.370   5.071
 3006HO4    HW212023   3.983   2.414   4.964
 3006HO4     MW12024   3.965   2.364   5.049
 3007HO4     OW12025   2.516   0.211   2.804
 3007HO4    HW112026   2.492   0.126   2.853
 3007HO4    HW212027   2.610   0.236   2.826
 3007HO4     MW12028   2.516   0.211   2.804
 3008HO4     OW12029   3.442   4.561   2.060
 3008HO4    HW112030   3.470   4.488   2.123
 3008HO4    HW212031   3.436   4.648   2.112
 3008HO4     MW12032   3.442   4.561   2.060
 3009HO4     OW12033   2.593   2.762   5.238
 3009HO4    HW112034   2.531   2.817   5.181
 3009HO4    HW212035   2.650   2.704   5.180
 3009HO4     MW12036   2.593   2.762   5.238
 3010HO4     OW12037   1.455   1.148   2.956
 3010HO4    HW112038   1.365   1.128   2.915
 3010HO4    HW212039   1.453   1.125   3.054
 3010HO4     MW12040   1.455   1.148   2.956
 3011HO4     OW12041   3.843   3.727   5.379
 3011HO4    HW112042   3.848   3.632   5.412
 3011HO4    HW212043   3.755   3.741   5.333
 3011HO4     MW12044   3.843   3.727   5.379
 3012HO4     OW12045   2.501   2.740   4.125
 3012HO4    HW112046   2.583   2.727   4.182
 3012HO4    HW212047   2.529   2.762   4.031
 3012HO4     MW12048   2.501   2.740   4.125
 3013HO4     OW12049   2.338   0.400   0.856
 3013HO4    HW112050   2.385   0.461   0.920
 3013HO4    HW212051   2.327   0.445   0.767
 3013HO4     MW12052   2.338   0.400   0.856
 3014HO4     OW12053   5.337   0.846   0.398
 3014HO4    HW112054   5.401   0.833   0.322
 3014HO4    HW212055   5.270   0.917   0.374
 3014HO4     MW12056   5.337   0.846   0.398
 3015HO4     OW12057   1.964   2.006   1.284
 3015HO4    HW112058   1.978   1.910   1.257
 3015HO4    HW212059   2.002   2.067   1.213
 3015HO4     MW12060   1.964   2.006   1.284
 3016HO4     OW12061   0.264   4.109   4.893
 3016HO4    HW112062   0.362   4.087   4.905
 3016HO4    HW212063   0.217   4.028   4.856
 3016HO4     MW12064   0.264   4.109   4.893
 3017HO4     OW12065   1.857   1.322   0.144
 3017HO4    HW112066   1.790   1.394   0.165
 3017HO4    HW212067   1.845   1.293   0.049
 3017HO4     MW12068   1.857   1.322   0.144
 3018HO4     OW12069   3.483   0.590   1.067
 3018HO4    HW112070   3.552   0.541   1.122
 3018HO4    HW212071   3.529   0.644   0.997
 3018HO4     MW12072   3.483   0.590   1.067
 3019HO4     OW12073   0.257   1.949   2.539
 3019HO4    HW112074   0.261   1.963   2.440
 3019HO4    HW212075   0.349   1.933   2.575
 3019HO4     MW12076   0.257   1.949   2.539
 3020HO4     OW12077   4.010   1.915   3.354
 3020HO4    HW112078   3.998   1.921   3.255
 3020HO4    HW212079   3.920   1.906   3.398
 3020HO4     MW12080   4.010   1.915   3.354
 3021HO4     OW12081   2.943   1.387   4.762
 3021HO4    HW112082   2.936   1.378   4.861
 3021HO4    HW212083   3.040   1.386   4.734
 3021HO4     MW12084   2.943   1.387   4.762
 3022HO4     OW12085   3.548   1.623   4.824
 3022HO4    HW112086   3.507   1.582   4.742
 3022HO4    HW212087   3.504   1.586   4.906
 3022HO4     MW12088   3.548   1.623   4.824
 3023HO4     OW12089   2.211   4.078   1.068
 3023HO4    HW112090   2.182   4.018   0.993
 3023HO4    HW212091   2.159   4.055   1.151
 3023HO4     MW12092   2.211   4.078   1.068
 3024HO4     OW12093   1.568   0.935   1.491
 3024HO4    HW112094   1.594   0.987   1.572
 3024HO4    HW212095   1.650   0.896   1.448
 3024HO4     MW12096   1.568   0.935   1.491
 3025HO4     OW12097   5.409   0.244   1.369
 3025HO4    HW112098   5.473   0.179   1.326
 3025HO4    HW212099   5.447   0.274   1.457
 3025HO4     MW12100   5.409   0.244   1.369
 3026HO4     OW12101   2.063   2.327   0.422
 3026HO4    HW112102   2.106   2.280   0.345
 3026HO4    HW212103   2.132   2.383   0.470
 3026HO4     MW12104   2.063   2.327   0.422
 3027HO4     OW12105   1.436   0.709   4.765
 3027HO4    HW112106   1.516   0.736   4.710
 3027HO4    HW212107   1.361   0.683   4.703
 3027HO4     MW12108   1.436   0.709   4.765
 3028HO4     OW12109   1.651   3.040   4.681
 3028HO4    HW112110   1.691   3.010   4.768
 3028HO4    HW212111   1.691   2.986   4.606
 3028HO4     MW12112   1.651   3.040   4.681
 3029HO4     OW12113   1.953   5.090   0.480
 3029HO4    HW112114   2.048   5.114   0.457
 3029HO4    HW212115   1.953   5.016   0.547
 3029HO4     MW12116   1.953   5.090   0.480
 3030HO4     OW12117   2.550   5.325   5.286
 3030HO4    HW112118   2.577   5.351   5.379
 3030HO4    HW212119   2.451   5.337   5.275
 3030HO4     MW12120   2.550   5.325   5.286
 3031HO4     OW12121   4.910   4.688   3.488
 3031HO4    HW112122   4.870   4.644   3.569
 3031HO4    HW212123   4.838   4.734   3.435
 3031HO4     MW12124   4.910   4.688   3.488
 3032HO4     OW12125   1.340   3.985   1.140
 3032HO4    HW112126   1.280   4.004   1.061
 3032HO4    HW212127   1.290   4.006   1.225
 3032HO4     MW12128   1.340   3.985   1.140
 3033HO4     OW12129   4.086   5.137   2.860
 3033HO4    HW112130   4.079   5.047   2.903
 3033HO4    HW212131   4.128   5.202   2.925
 3033HO4     MW12132   4.086   5.137   2.860
 3034HO4     OW12133   2.058   0.861   0.621
 3034HO4    HW112134   2.113   0.902   0.547
 3034HO4    HW212135   2.082   0.906   0.708
 3034HO4     MW12136   2.058   0.861   0.621
 3035HO4     OW12137   5.432   0.048   1.211
 3035HO4    HW112138   5.383  -0.006   1.281
 3035HO4    HW212139   5.482  -0.014   1.150
 3035HO4     MW12140   5.432   0.048   1.211
 3036HO4     OW12141   0.904   4.486   0.573
 3036HO4    HW112142   0.913   4.576   0.617
 3036HO4    HW212143   0.816   4.444   0.599
 3036HO4     MW12144   0.904   4.486   0.573
 3037HO4     OW12145   0.352   1.846   3.017
 3037HO4    HW112146   0.373   1.762   2.967
 3037HO4    HW212147   0.437   1.886   3.052
 3037HO4     MW12148   0.352   1.846   3.017
 3038HO4     OW12149   0.789   2.592   4.295
 3038HO4    HW112150   0.831   2.555   4.211
 3038HO4    HW212151   0.834   2.552   4.375
 3038HO4     MW12152   0.789   2.592   4.295
 3039HO4     OW12153   3.049   1.584   2.718
 3039HO4    HW112154   3.050   1.488   2.748
 3039HO4    HW212155   3.109   1.595   2.638
 3039HO4     MW12156   3.049   1.584   2.718
 3040HO4     OW12157   1.647   3.308   1.069
 3040HO4    HW112158   1.693   3.388   1.030
 3040HO4    HW212159   1.611   3.332   1.160
 3040HO4     MW12160   1.647   3.308   1.069
 3041HO4     OW12161   4.545   1.413   2.088
 3041HO4    HW112162   4.552   1.462   2.000
 3041HO4    HW212163   4.526   1.478   2.161
 3041HO4     MW12164   4.545   1.413   2.088
 3042HO4     OW12165   1.605   4.988   2.557
 3042HO4    HW112166   1.570   4.937   2.478
 3042HO4    HW212167   1.620   4.924   2.633
 3042HO4     MW12168   1.605   4.988   2.557
 3043HO4     OW12169   5.073   2.262   1.446
 3043HO4    HW112170   5.115   2.223   1.529
 3043HO4    HW212171   5.145   2.292   1.383
 3043HO4     MW12172   5.073   2.262   1.446
 3044HO4     OW12173   1.189   3.798   4.385
 3044HO4    HW112174   1.227   3.824   4.474
 3044HO4    HW212175   1.262   3.796   4.317
 3044HO4     MW12176   1.189   3.798   4.385
 3045HO4     OW12177   5.479   4.830   2.221
 3045HO4    HW112178   5.526   4.743   2.240
 3045HO4    HW212179   5.380   4.817   2.235
 3045HO4     MW12180   5.479   4.830   2.221
 3046HO4     OW12181   5.290   1.736   1.201
 3046HO4    HW112182   5.284   1.805   1.274
 3046HO4    HW212183   5.360   1.765   1.134
 3046HO4     MW12184   5.290   1.736   1.201
 3047HO4     OW12185   1.006   4.227   3.151
 3047HO4    HW112186   0.946   4.158   3.191
 3047HO4    HW212187   0.985   4.237   3.053
 3047HO4     MW12188   1.006   4.227   3.151
 3048HO4     OW12189   4.368   1.433   2.493
 3048HO4    HW112190   4.332   1.348   2.533
 3048HO4    HW212191   4.469   1.429   2.492
 3048HO4     MW12192   4.368   1.433   2.493
 3049HO4     OW12193   2.633   1.679   3.066
 3049HO4    HW112194   2.679   1.664   3.154
 3049HO4    HW212195   2.534   1.691   3.082
 3049HO4     MW12196   2.633   1.679   3.066
 3050HO4     OW12197   1.989   4.535   4.396
 3050HO4    HW112198   1.890   4.521   4.393
 3050HO4    HW212199   2.016   4.598   4.322
 3050HO4     MW12200   1.989   4.535   4.396
 3051HO4     OW12201   5.291   0.857   1.872
 3051HO4    HW112202   5.387   0.838   1.852
 3051HO4    HW212203   5.276   0.858   1.971
 3051HO4     MW12204   5.291   0.857   1.872
 3052HO4     OW12205   1.638   1.711   1.487
 3052HO4    HW112206   1.618   1.751   1.398
 3052HO4    HW212207   1.712   1.643   1.477
 3052HO4     MW12208   1.638   1.711   1.487
 3053HO4     OW12209   3.159   2.017   0.196
 3053HO4    HW112210   3.168   2.106   0.151
 3053HO4    HW212211   3.188   2.025   0.292
 3053HO4     MW12212   3.159   2.017   0.196
 3054HO4     OW12213   1.101   3.550   3.195
 3054HO4    HW112214   1.045   3.534   3.113
 3054HO4    HW212215   1.083   3.478   3.263
 3054HO4     MW12216   1.101   3.550   3.195
 3055HO4     OW12217   0.364   0.681   0.164
 3055HO4    HW112218   0.447   0.646   0.209
 3055HO4    HW212219   0.361   0.650   0.069
 3055HO4     MW12220   0.364   0.681   0.164
 3056HO4     OW12221   3.754   1.547   5.114
 3056HO4    HW112222   3.718   1.541   5.020
 3056HO4    HW212223   3.819   1.624   5.120
 3056HO4     MW12224   3.754   1.547   5.114
 3057HO4     OW12225   4.671   2.238   3.342
 3057HO4    HW112226   4.649   2.268   3.249
 3057HO4    HW212227   4.715   2.148   3.339
 3057HO4     MW12228   4.671   2.238   3.342
 3058HO4     OW12229   1.311   2.786   4.087
 3058HO4    HW112230   1.358   2.702   4.057
 3058HO4    HW212231   1.239   2.763   4.152
 3058HO4     MW12232   1.311   2.786   4.087
 3059HO4     OW12233   1.248   2.289   4.599
 3059HO4    HW112234   1.273   2.234   4.679
 3059HO4    HW212235   1.250   2.232   4.517
 3059HO4     MW12236   1.248   2.289   4.599
 3060HO4     OW12237   2.213   3.380   5.009
 3060HO4    HW112238   2.195   3.305   4.945
 3060HO4    HW212239   2.228   3.465   4.957
 3060HO4     MW12240   2.213   3.380   5.009
 3061HO4     OW12241   2.492   0.639   3.470
 3061HO4    HW112242   2.567   0.637   3.404
 3061HO4    HW212243   2.528   0.659   3.561
 3061HO4     MW12244   2.492   0.639   3.470
 3062HO4     OW12245   0.682   3.659   0.223
 3062HO4    HW112246   0.729   3.734   0.270
 3062HO4    HW212247   0.594   3.641   0.269
 3062HO4     MW12248   0.682   3.659   0.223
 3063HO4     OW12249   0.496   4.223   2.724
 3063HO4    HW112250   0.574   4.242   2.663
 3063HO4    HW212251   0.513   4.264   2.814
 3063HO4     MW12252   0.496   4.223   2.724
 3064HO4     OW12253   2.529   1.107   3.679
 3064HO4    HW112254   2.592   1.038   3.641
 3064HO4    HW212255   2.473   1.065   3.751
 3064HO4     MW12256   2.529   1.107   3.679
 3065HO4     OW12257   3.464   0.948   1.181
 3065HO4    HW112258   3.490   0.952   1.084
 3065HO4    HW212259   3.404   0.868   1.196
 3065HO4     MW12260   3.464   0.948   1.181
 3066HO4     OW12261   3.594   5.137   1.786
 3066HO4    HW112262   3.620   5.148   1.690
 3066HO4    HW212263   3.620   5.218   1.838
 3066HO4     MW12264   3.594   5.137   1.786
 3067HO4     OW12265   0.551   3.012   0.683
 3067HO4    HW112266   0.510   3.020   0.775
 3067HO4    HW212267   0.643   3.051   0.684
 3067HO4     MW12268   0.551   3.012   0.683
 3068HO4     OW12269   4.037   0.963   2.198
 3068HO4    HW112270   4.131   0.991   2.176
 3068HO4    HW212271   3.979   1.045   2.208
 3068HO4     MW12272   4.037   0.963   2.198
 3069HO4     OW12273   3.342   3.642   3.269
 3069HO4    HW112274   3.247   3.642   3.301
 3069HO4    HW212275   3.379   3.549   3.276
 3069HO4     MW12276   3.342   3.642   3.269
 3070HO4     OW12277   3.837   0.955   0.771
 3070HO4    HW112278   3.885   0.903   0.700
 3070HO4    HW212279   3.849   0.910   0.860
 3070HO4     MW12280   3.837   0.955   0.771
 3071HO4     OW12281   4.412   0.594   1.182
 3071HO4    HW112282   4.355   0.571   1.102
 3071HO4    HW212283   4.355   0.634   1.254
 3071HO4     MW12284   4.412   0.594   1.182
 3072HO4     OW12285   4.708   1.890   4.747
 3072HO4    HW112286   4.663   1.861   4.833
 3072HO4    HW212287   4.666   1.841   4.670
 3072HO4     MW12288   4.708   1.890   4.747
 3073HO4     OW12289   4.625   4.504   3.131
 3073HO4    HW112290   4.587   4.547   3.049
 3073HO4    HW212291   4.556   4.445   3.174
 3073HO4     MW12292   4.625   4.504   3.131
 3074HO4     OW12293   3.019   3.897   3.211
 3074HO4    HW112294   2.987   3.802   3.209
 3074HO4    HW212295   2.948   3.957   3.171
 3074HO4     MW12296   3.019   3.897   3.211
 3075HO4     OW12297   1.116   1.717   0.973
 3075HO4    HW112298   1.173   1.694   0.893
 3075HO4    HW212299   1.088   1.633   1.018
 3075HO4     MW12300   1.116   1.717   0.973
 3076HO4     OW12301   2.213   4.382   1.721
 3076HO4    HW112302   2.132   4.339   1.759
 3076HO4    HW212303   2.187   4.440   1.643
 3076HO4     MW12304   2.213   4.382   1.721
 3077HO4     OW12305   2.842   3.569   1.329
 3077HO4    HW112306   2.869   3.472   1.324
 3077HO4    HW212307   2.876   3.618   1.248
 3077HO4     MW12308   2.842   3.569   1.329
 3078HO4     OW12309   5.251   1.032   2.701
 3078HO4    HW112310   5.311   0.984   2.636
 3078HO4    HW212311   5.186   0.967   2.741
 3078HO4     MW12312   5.251   1.032   2.701
 3079HO4     OW12313   2.597   1.259   4.584
 3079HO4    HW112314   2.623   1.272   4.680
 3079HO4    HW212315   2.521   1.320   4.561
 3079HO4     MW12316   2.597   1.259   4.584
 3080HO4     OW12317   3.730   3.153   1.496
 3080HO4    HW112318   3.762   3.070   1.544
 3080HO4    HW212319   3.773   3.157   1.405
 3080HO4     MW12320   3.730   3.153   1.496
 3081HO4     OW12321   1.907   1.322   4.550
 3081HO4    HW112322   1.865   1.367   4.471
 3081HO4    HW212323   1.876   1.366   4.635
 3081HO4     MW12324   1.907   1.322   4.550
 3082HO4     OW12325   5.161   0.779   4.181
 3082HO4    HW112326   5.169   0.761   4.083
 3082HO4    HW212327   5.067   0.761   4.211
 3082HO4     MW12328   5.161   0.779   4.181
 3083HO4     OW12329   1.545   3.537   3.106
 3083HO4    HW112330   1.491   3.577   3.031
 3083HO4    HW212331   1.535   3.592   3.189
 3083HO4     MW12332   1.545   3.537   3.106
 3084HO4     OW12333   2.022   3.998   3.511
 3084HO4    HW112334   2.039   3.926   3.578
 3084HO4    HW212335   1.954   4.063   3.548
 3084HO4     MW12336   2.022   3.998   3.511
 3085HO4     OW12337   0.799   4.190   4.849
 3085HO4    HW112338   0.814   4.122   4.777
 3085HO4    HW212339   0.790   4.143   4.938
 3085HO4     MW12340   0.799   4.190   4.849
 3086HO4     OW12341   5.123   1.704   5.057
 3086HO4    HW112342   5.144   1.659   4.970
 3086HO4    HW212343   5.093   1.636   5.124
 3086HO4     MW12344   5.123   1.704   5.057
 3087HO4     OW12345   0.484   1.638   3.961
 3087HO4    HW112346   0.391   1.607   3.984
 3087HO4    HW212347   0.548   1.606   4.031
 3087HO4     MW12348   0.484   1.638   3.961
 3088HO4     OW12349   4.152   0.942   0.527
 3088HO4    HW112350   4.225   1.006   0.554
 3088HO4    HW212351   4.167   0.912   0.432
 3088HO4     MW12352   4.152   0.942   0.527
 3089HO4     OW12353   4.354   1.041   2.462
 3089HO4    HW112354   4.332   1.124   2.513
 3089HO4    HW212355   4.403   1.065   2.378
 3089HO4     MW12356   4.354   1.041   2.462
 3090HO4     OW12357   5.075   4.974   2.696
 3090HO4    HW112358   5.132   5.022   2.628
 3090HO4    HW212359   5.105   4.878   2.702
 3090HO4     MW12360   5.075   4.974   2.696
 3091HO4     OW12361   4.102   1.278   4.237
 3091HO4    HW112362   4.063   1.213   4.170
 3091HO4    HW212363   4.081   1.372   4.208
 3091HO4     MW12364   4.102   1.278   4.237
 3092HO4     OW12365   0.099   1.373   2.478
 3092HO4    HW112366   0.008   1.408   2.499
 3092HO4    HW212367   0.093   1.276   2.452
 3092HO4     MW12368   0.099   1.373   2.478
 3093HO4     OW12369   2.319   1.364   0.129
 3093HO4    HW112370   2.394   1.420   0.166
 3093HO4    HW212371   2.347   1.323   0.043
 3093HO4     MW12372   2.319   1.364   0.129
 3094HO4     OW12373   0.897   2.578   5.306
 3094HO4    HW112374   0.920   2.668   5.344
 3094HO4    HW212375   0.798   2.572   5.291
 3094HO4     MW12376   0.897   2.578   5.306
 3095HO4     OW12377   4.771   1.879   3.332
 3095HO4    HW112378   4.866   1.904   3.314
 3095HO4    HW212379   4.716   1.962   3.346
 3095HO4     MW12380   4.771   1.879   3.332
 3096HO4     OW12381   2.210   0.612   2.936
 3096HO4    HW112382   2.287   0.660   2.979
 3096HO4    HW212383   2.230   0.514   2.931
 3096HO4     MW12384   2.210   0.612   2.936
 3097HO4     OW12385   3.930   3.921   4.333
 3097HO4    HW112386   3.838   3.962   4.337
 3097HO4    HW212387   3.960   3.917   4.237
 3097HO4     MW12388   3.930   3.921   4.333
 3098HO4     OW12389   2.696   5.174   3.720
 3098HO4    HW112390   2.660   5.097   3.773
 3098HO4    HW212391   2.720   5.249   3.782
 3098HO4     MW12392   2.696   5.174   3.720
 3099HO4     OW12393   3.092   4.064   1.646
 3099HO4    HW112394   3.061   4.044   1.552
 3099HO4    HW212395   3.127   4.158   1.650
 3099HO4     MW12396   3.092   4.064   1.646
 3100HO4     OW12397   2.326   1.568   0.584
 3100HO4    HW112398   2.321   1.523   0.494
 3100HO4    HW212399   2.312   1.667   0.573
 3100HO4     MW12400   2.326   1.568   0.584
 3101HO4     OW12401   2.170   3.296   0.354
 3101HO4    HW112402   2.215   3.328   0.438
 3101HO4    HW212403   2.212   3.340   0.274
 3101HO4     MW12404   2.170   3.296   0.354
 3102HO4     OW12405   2.618   3.433   3.438
 3102HO4    HW112406   2.589   3.351   3.389
 3102HO4    HW212407   2.541   3.498   3.443
 3102HO4     MW12408   2.618   3.433   3.438
 3103HO4     OW12409   4.643   5.474   3.325
 3103HO4    HW112410   4.605   5.427   3.244
 3103HO4    HW212411   4.582   5.460   3.403
 3103HO4     MW12412   4.643   5.474   3.325
 3104HO4     OW12413   2.502   0.956   1.345
 3104HO4    HW112414   2.405   0.955   1.319
 3104HO4    HW212415   2.522   1.039   1.397
 3104HO4     MW12416   2.502   0.956   1.345
 3105HO4     OW12417   1.193   2.323   4.870
 3105HO4    HW112418   1.214   2.398   4.806
 3105HO4    HW212419   1.131   2.356   4.941
 3105HO4     MW12420   1.193   2.323   4.870
 3106HO4     OW12421   2.429   4.113   3.885
 3106HO4    HW112422   2.412   4.180   3.813
 3106HO4    HW212423   2.370   4.033   3.871
 3106HO4     MW12424   2.429   4.113   3.885
 3107HO4     OW12425   5.311   1.486   4.965
 3107HO4    HW112426   5.341   1.535   4.882
 3107HO4    HW212427   5.304   1.551   5.041
 3107HO4     MW12428   5.311   1.486   4.965
 3108HO4     OW12429   0.437   3.647   0.779
 3108HO4    HW112430   0.440   3.659   0.679
 3108HO4    HW212431   0.491   3.566   0.804
 3108HO4     MW12432   0.437   3.647   0.779
 3109HO4     OW12433   2.563   0.931   0.101
 3109HO4    HW112434   2.543   0.857   0.036
 3109HO4    HW212435   2.481   0.952   0.155
 3109HO4     MW12436   2.563   0.931   0.101
 3110HO4     OW12437   2.107   3.295   2.891
 3110HO4    HW112438   2.010   3.313   2.869
 3110HO4    HW212439   2.113   3.211   2.947
 3110HO4     MW12440   2.107   3.295   2.891
 3111HO4     OW12441   3.102   5.331   2.720
 3111HO4    HW112442   3.140   5.328   2.813
 3111HO4    HW212443   3.176   5.321   2.653
 3111HO4     MW12444   3.102   5.331   2.720
 3112HO4     OW12445   2.679   1.927   1.970
 3112HO4    HW112446   2.696   1.886   1.880
 3112HO4    HW212447   2.702   1.860   2.042
 3112HO4     MW12448   2.679   1.927   1.970
 3113HO4     OW12449   4.962   3.550   0.860
 3113HO4    HW112450   5.007   3.573   0.947
 3113HO4    HW212451   5.021   3.488   0.807
 3113HO4     MW12452   4.962   3.550   0.860
 3114HO4     OW12453   1.727   1.545   2.154
 3114HO4    HW112454   1.751   1.501   2.241
 3114HO4    HW212455   1.627   1.547   2.144
 3114HO4     MW12456   1.727   1.545   2.154
 3115HO4     OW12457   4.283   2.289   0.242
 3115HO4    HW112458   4.231   2.213   0.281
 3115HO4    HW212459   4.221   2.365   0.221
 3115HO4     MW12460   4.283   2.289   0.242
 3116HO4     OW12461   4.513   5.387   1.517
 3116HO4    HW112462   4.565   5.429   1.442
 3116HO4    HW212463   4.554   5.414   1.605
 3116HO4     MW12464   4.513   5.387   1.517
 3117HO4     OW12465   2.832   2.340   2.698
 3117HO4    HW112466   2.856   2.426   2.653
 3117HO4    HW212467   2.809   2.271   2.628
 3117HO4     MW12468   2.832   2.340   2.698
 3118HO4     OW12469   1.844   3.587   0.339
 3118HO4    HW112470   1.842   3.557   0.243
 3118HO4    HW212471   1.859   3.508   0.399
 3118HO4     MW12472   1.844   3.587   0.339
 3119HO4     OW12473   5.218   2.496   2.612
 3119HO4    HW112474   5.283   2.474   2.685
 3119HO4    HW212475   5.125   2.469   2.640
 3119HO4     MW12476   5.218   2.496   2.612
 3120HO4     OW12477   1.470   2.676   4.619
 3120HO4    HW112478   1.377   2.701   4.593
 3120HO4    HW212479   1.481   2.683   4.718
 3120HO4     MW12480   1.470   2.676   4.619
 3121HO4     OW12481   2.118   3.447   3.525
 3121HO4    HW112482   2.075   3.373   3.471
 3121HO4    HW212483   2.082   3.535   3.495
 3121HO4     MW12484   2.118   3.447   3.525
 3122HO4     OW12485   2.559   4.021   1.225
 3122HO4    HW112486   2.619   4.056   1.297
 3122HO4    HW212487   2.526   3.929   1.251
 3122HO4     MW12488   2.559   4.021   1.225
 3123HO4     OW12489   4.666   1.819   3.840
 3123HO4    HW112490   4.757   1.837   3.801
 3123HO4    HW212491   4.674   1.805   3.939
 3123HO4     MW12492   4.666   1.819   3.840
 3124HO4     OW12493   2.959   0.689   3.187
 3124HO4    HW112494   3.049   0.687   3.230
 3124HO4    HW212495   2.966   0.654   3.093
 3124HO4     MW12496   2.959   0.689   3.187
 3125HO4     OW12497   4.344   4.470   4.028
 3125HO4    HW112498   4.326   4.397   3.962
 3125HO4    HW212499   4.319   4.559   3.988
 3125HO4     MW12500   4.344   4.470   4.028
 3126HO4     OW12501   4.046   0.760   1.325
 3126HO4    HW112502   4.124   0.768   1.261
 3126HO4    HW212503   4.065   0.814   1.407
 3126HO4     MW12504   4.046   0.760   1.325
 3127HO4     OW12505   4.250   1.148   3.131
 3127HO4    HW112506   4.243   1.111   3.037
 3127HO4    HW212507   4.227   1.076   3.197
 3127HO4     MW12508   4.250   1.148   3.131
 3128HO4     OW12509   3.638   0.851   4.851
 3128HO4    HW112510   3.617   0.758   4.881
 3128HO4    HW212511   3.688   0.848   4.764
 3128HO4     MW12512   3.638   0.851   4.851
 3129HO4     OW12513   1.052   2.679   0.752
 3129HO4    HW112514   0.986   2.697   0.678
 3129HO4    HW212515   1.088   2.767   0.786
 3129HO4     MW12516   1.052   2.679   0.752
 3130HO4     OW12517   3.098   0.069   3.604
 3130HO4    HW112518   3.167   0.002   3.631
 3130HO4    HW212519   3.007   0.026   3.604
 3130HO4     MW12520   3.098   0.069   3.604
 3131HO4     OW12521   2.421   4.572   2.643
 3131HO4    HW112522   2.368   4.648   2.604
 3131HO4    HW212523   2.371   4.486   2.629
 3131HO4     MW12524   2.421   4.572   2.643
 3132HO4     OW12525   2.805   0.574   0.339
 3132HO4    HW112526   2.903   0.588   0.323
 3132HO4    HW212527   2.785   0.587   0.437
 3132HO4     MW12528   2.805   0.574   0.339
 3133HO4     OW12529   2.757   5.089   1.885
 3133HO4    HW112530   2.786   5.014   1.945
 3133HO4    HW212531   2.837   5.143   1.857
 3133HO4     MW12532   2.757   5.089   1.885
 3134HO4     OW12533   3.151   3.859   2.872
 3134HO4    HW112534   3.152   3.952   2.835
 3134HO4    HW212535   3.171   3.861   2.970
 3134HO4     MW12536   3.151   3.859   2.872
 3135HO4     OW12537   1.206   4.366   0.171
 3135HO4    HW112538   1.121   4.330   0.211
 3135HO4    HW212539   1.255   4.291   0.124
 3135HO4     MW12540   1.206   4.366   0.171
 3136HO4     OW12541   1.986   3.660   1.512
 3136HO4    HW112542   2.056   3.693   1.576
 3136HO4    HW212543   2.025   3.655   1.420
 3136HO4     MW12544   1.986   3.660   1.512
 3137HO4     OW12545   4.769   5.301   4.470
 3137HO4    HW112546   4.820   5.282   4.555
 3137HO4    HW212547   4.829   5.285   4.391
 3137HO4     MW12548   4.769   5.301   4.470
 3138HO4     OW12549   2.575   5.116   0.849
 3138HO4    HW112550   2.542   5.037   0.903
 3138HO4    HW212551   2.625   5.083   0.769
 3138HO4     MW12552   2.575   5.116   0.849
 3139HO4     OW12553   4.774   1.793   2.998
 3139HO4    HW112554   4.871   1.822   3.000
 3139HO4    HW212555   4.726   1.833   3.076
 3139HO4     MW12556   4.774   1.793   2.998
 3140HO4     OW12557   2.837   3.810   0.130
 3140HO4    HW112558   2.859   3.713   0.143
 3140HO4    HW212559   2.781   3.821   0.047
 3140HO4     MW12560   2.837   3.810   0.130
 3141HO4     OW12561   0.518   0.376   4.404
 3141HO4    HW112562   0.544   0.466   4.439
 3141HO4    HW212563   0.497   0.315   4.482
 3141HO4     MW12564   0.518   0.376   4.404
 3142HO4     OW12565   3.801   1.356   1.091
 3142HO4    HW112566   3.818   1.307   1.178
 3142HO4    HW212567   3.888   1.383   1.050
 3142HO4     MW12568   3.801   1.356   1.091
 3143HO4     OW12569   3.698   2.127   3.934
 3143HO4    HW112570   3.757   2.192   3.983
 3143HO4    HW212571   3.660   2.171   3.853
 3143HO4     MW12572   3.698   2.127   3.934
 3144HO4     OW12573   5.446   2.425   5.233
 3144HO4    HW112574   5.382   2.488   5.276
 3144HO4    HW212575   5.525   2.476   5.197
 3144HO4     MW12576   5.446   2.425   5.233
 3145HO4     OW12577   2.150   4.403   1.023
 3145HO4    HW112578   2.162   4.419   0.925
 3145HO4    HW212579   2.153   4.304   1.041
 3145HO4     MW12580   2.150   4.403   1.023
 3146HO4     OW12581   2.008   4.807   1.236
 3146HO4    HW112582   1.986   4.729   1.177
 3146HO4    HW212583   1.937   4.816   1.307
 3146HO4     MW12584   2.008   4.807   1.236
 3147HO4     OW12585   2.250   0.132   5.289
 3147HO4    HW112586   2.253   0.168   5.383
 3147HO4    HW212587   2.315   0.184   5.231
 3147HO4     MW12588   2.250   0.132   5.289
 3148HO4     OW12589   4.053   5.133   2.435
 3148HO4    HW112590   4.014   5.060   2.378
 3148HO4    HW212591   4.038   5.112   2.532
 3148HO4     MW12592   4.053   5.133   2.435
 3149HO4     OW12593   3.589   1.602   4.480
 3149HO4    HW112594   3.584   1.502   4.474
 3149HO4    HW212595   3.639   1.639   4.401
 3149HO4     MW12596   3.589   1.602   4.480
 3150HO4     OW12597   0.453   4.037   0.883
 3150HO4    HW112598   0.461   3.944   0.844
 3150HO4    HW212599   0.443   4.104   0.809
 3150HO4     MW12600   0.453   4.037   0.883
 3151HO4     OW12601   2.350   3.826   0.645
 3151HO4    HW112602   2.278   3.883   0.685
 3151HO4    HW212603   2.310   3.764   0.577
 3151HO4     MW12604   2.350   3.826   0.645
 3152HO4     OW12605   3.255   2.869   2.584
 3152HO4    HW112606   3.341   2.891   2.537
 3152HO4    HW212607   3.180   2.925   2.546
 3152HO4     MW12608   3.255   2.869   2.584
 3153HO4     OW12609   0.995   1.690   2.859
 3153HO4    HW112610   0.898   1.717   2.852
 3153HO4    HW212611   1.001   1.598   2.898
 3153HO4     MW12612   0.995   1.690   2.859
 3154HO4     OW12613   5.426   4.815   4.749
 3154HO4    HW112614   5.328   4.795   4.756
 3154HO4    HW212615   5.473   4.786   4.833
 3154HO4     MW12616   5.426   4.815   4.749
 3155HO4     OW12617   4.473   2.425   3.338
 3155HO4    HW112618   4.441   2.381   3.422
 3155HO4    HW212619   4.404   2.492   3.308
 3155HO4     MW12620   4.473   2.425   3.338
 3156HO4     OW12621   2.120   4.092   3.951
 3156HO4    HW112622   2.107   4.031   4.029
 3156HO4    HW212623   2.218   4.111   3.939
 3156HO4     MW12624   2.120   4.092   3.951
 3157HO4     OW12625   5.230   3.594   2.672
 3157HO4    HW112626   5.139   3.631   2.694
 3157HO4    HW212627   5.297   3.669   2.673
 3157HO4     MW12628   5.230   3.594   2.672
 3158HO4     OW12629   1.500   5.230   1.536
 3158HO4    HW112630   1.512   5.280   1.450
 3158HO4    HW212631   1.508   5.294   1.613
 3158HO4     MW12632   1.500   5.230   1.536
 3159HO4     OW12633   4.085   2.917   0.431
 3159HO4    HW112634   4.051   2.941   0.522
 3159HO4    HW212635   4.041   2.975   0.362
 3159HO4     MW12636   4.085   2.917   0.431
 3160HO4     OW12637   2.474   3.863   4.954
 3160HO4    HW112638   2.428   3.812   4.880
 3160HO4    HW212639   2.442   3.829   5.043
 3160HO4     MW12640   2.474   3.863   4.954
 3161HO4     OW12641   4.786   1.675   1.406
 3161HO4    HW112642   4.847   1.731   1.463
 3161HO4    HW212643   4.702   1.654   1.458
 3161HO4     MW12644   4.786   1.675   1.406
 3162HO4     OW12645   3.283   0.159   4.005
 3162HO4    HW112646   3.286   0.193   4.100
 3162HO4    HW212647   3.203   0.198   3.958
 3162HO4     MW12648   3.283   0.159   4.005
 3163HO4     OW12649   4.778   3.764   0.877
 3163HO4    HW112650   4.824   3.741   0.964
 3163HO4    HW212651   4.799   3.693   0.809
 3163HO4     MW12652   4.778   3.764   0.877
 3164HO4     OW12653   1.992   1.486   2.435
 3164HO4    HW112654   1.929   1.488   2.357
 3164HO4    HW212655   1.939   1.475   2.520
 3164HO4     MW12656   1.992   1.486   2.435
 3165HO4     OW12657   1.066   1.492   4.797
 3165HO4    HW112658   1.096   1.446   4.712
 3165HO4    HW212659   1.125   1.463   4.873
 3165HO4     MW12660   1.066   1.492   4.797
 3166HO4     OW12661   0.682   0.379   3.353
 3166HO4    HW112662   0.601   0.393   3.411
 3166HO4    HW212663   0.668   0.297   3.297
 3166HO4     MW12664   0.682   0.379   3.353
 3167HO4     OW12665   0.612   2.023   2.203
 3167HO4    HW112666   0.698   1.979   2.233
 3167HO4    HW212667   0.629   2.076   2.119
 3167HO4     MW12668   0.612   2.023   2.203
 3168HO4     OW12669   2.843   4.820   3.445
 3168HO4    HW112670   2.763   4.836   3.386
 3168HO4    HW212671   2.864   4.903   3.496
 3168HO4     MW12672   2.843   4.820   3.445
 3169HO4     OW12673   2.825   1.262   2.682
 3169HO4    HW112674   2.740   1.312   2.660
 3169HO4    HW212675   2.852   1.207   2.602
 3169HO4     MW12676   2.825   1.262   2.682
 3170HO4     OW12677   0.164   2.264   2.982
 3170HO4    HW112678   0.136   2.168   2.974
 3170HO4    HW212679   0.264   2.271   2.969
 3170HO4     MW12680   0.164   2.264   2.982
 3171HO4     OW12681   2.353   2.685   1.744
 3171HO4    HW112682   2.446   2.698   1.781
 3171HO4    HW212683   2.348   2.723   1.651
 3171HO4     MW12684   2.353   2.685   1.744
 3172HO4     OW12685   1.770   1.555   4.026
 3172HO4    HW112686   1.798   1.459   4.020
 3172HO4    HW212687   1.701   1.574   3.955
 3172HO4     MW12688   1.770   1.555   4.026
 3173HO4     OW12689   3.577   0.505   0.189
 3173HO4    HW112690   3.508   0.565   0.232
 3173HO4    HW212691   3.626   0.454   0.261
 3173HO4     MW12692   3.577   0.505   0.189
 3174HO4     OW12693   3.948   1.497   4.328
 3174HO4    HW112694   4.020   1.529   4.390
 3174HO4    HW212695   3.932   1.399   4.345
 3174HO4     MW12696   3.948   1.497   4.328
 3175HO4     OW12697   0.070   1.405   1.200
 3175HO4    HW112698   0.088   1.459   1.118
 3175HO4    HW212699   0.116   1.316   1.193
 3175HO4     MW12700   0.070   1.405   1.200
 3176HO4     OW12701   2.264   3.262   2.055
 3176HO4    HW112702   2.286   3.339   1.994
 3176HO4    HW212703   2.257   3.178   2.002
 3176HO4     MW12704   2.264   3.262   2.055
 3177HO4     OW12705   3.617   1.802   2.451
 3177HO4    HW112706   3.629   1.748   2.366
 3177HO4    HW212707   3.545   1.760   2.507
 3177HO4     MW12708   3.617   1.802   2.451
 3178HO4     OW12709   3.488   2.228   4.003
 3178HO4    HW112710   3.527   2.281   4.079
 3178HO4    HW212711   3.526   2.261   3.916
 3178HO4     MW12712   3.488   2.228   4.003
 3179HO4     OW12713   0.585   2.411   2.789
 3179HO4    HW112714   0.626   2.461   2.866
 3179HO4    HW212715   0.641   2.426   2.707
 3179HO4     MW12716   0.585   2.411   2.789
 3180HO4     OW12717   4.421   4.568   3.247
 3180HO4    HW112718   4.490   4.572   3.319
 3180HO4    HW212719   4.349   4.503   3.273
 3180HO4     MW12720   4.421   4.568   3.247
 3181HO4     OW12721   1.091   1.671   2.657
 3181HO4    HW112722   1.089   1.767   2.686
 3181HO4    HW212723   1.155   1.620   2.714
 3181HO4     MW12724   1.091   1.671   2.657
 3182HO4     OW12725   3.675   3.947   3.010
 3182HO4    HW112726   3.687   3.966   3.108
 3182HO4    HW212727   3.640   3.853   2.998
 3182HO4     MW12728   3.675   3.947   3.010
 3183HO4     OW12729   3.881   3.986   2.805
 3183HO4    HW112730   3.787   4.020   2.820
 3183HO4    HW212731   3.881   3.919   2.731
 3183HO4     MW12732   3.881   3.986   2.805
 3184HO4     OW12733   5.077   3.756   1.564
 3184HO4    HW112734   5.112   3.821   1.632
 3184HO4    HW212735   5.042   3.807   1.484
 3184HO4     MW12736   5.077   3.756   1.564
 3185HO4     OW12737   1.180   2.547   1.729
 3185HO4    HW112738   1.256   2.492   1.764
 3185HO4    HW212739   1.093   2.499   1.746
 3185HO4     MW12740   1.180   2.547   1.729
 3186HO4     OW12741   5.260   0.515   1.285
 3186HO4    HW112742   5.252   0.416   1.304
 3186HO4    HW212743   5.169   0.557   1.291
 3186HO4     MW12744   5.260   0.515   1.285
 3187HO4     OW12745   1.776   4.631   3.166
 3187HO4    HW112746   1.802   4.559   3.101
 3187HO4    HW212747   1.830   4.621   3.250
 3187HO4     MW12748   1.776   4.631   3.166
 3188HO4     OW12749   0.536   1.399   2.665
 3188HO4    HW112750   0.577   1.457   2.594
 3188HO4    HW212751   0.594   1.401   2.747
 3188HO4     MW12752   0.536   1.399   2.665
 3189HO4     OW12753   5.390   3.663   2.337
 3189HO4    HW112754   5.368   3.749   2.292
 3189HO4    HW212755   5.476   3.672   2.388
 3189HO4     MW12756   5.390   3.663   2.337
 3190HO4     OW12757   0.241   3.322   4.659
 3190HO4    HW112758   0.294   3.239   4.641
 3190HO4    HW212759   0.227   3.333   4.758
 3190HO4     MW12760   0.241   3.322   4.659
 3191HO4     OW12761   0.912   2.670   5.016
 3191HO4    HW112762   0.897   2.604   5.090
 3191HO4    HW212763   1.010   2.686   5.004
 3191HO4     MW12764   0.912   2.670   5.016
 3192HO4     OW12765   3.496   1.744   4.306
 3192HO4    HW112766   3.524   1.836   4.334
 3192HO4    HW212767   3.434   1.705   4.375
 3192HO4     MW12768   3.496   1.744   4.306
 3193HO4     OW12769   4.987   1.375   2.883
 3193HO4    HW112770   4.983   1.312   2.805
 3193HO4    HW212771   4.920   1.348   2.952
 3193HO4     MW12772   4.987   1.375   2.883
 3194HO4     OW12773   0.102   5.106   0.104
 3194HO4    HW112774   0.060   5.088   0.015
 3194HO4    HW212775   0.043   5.070   0.177
 3194HO4     MW12776   0.102   5.106   0.104
 3195HO4     OW12777   0.948   3.073   3.880
 3195HO4    HW112778   0.897   3.107   3.800
 3195HO4    HW212779   1.022   3.137   3.903
 3195HO4     MW12780   0.948   3.073   3.880
 3196HO4     OW12781   2.545   4.063   1.750
 3196HO4    HW112782   2.500   4.021   1.829
 3196HO4    HW212783   2.479   4.068   1.674
 3196HO4     MW12784   2.545   4.063   1.750
 3197HO4     OW12785   1.405   0.363   2.032
 3197HO4    HW112786   1.307   0.360   2.052
 3197HO4    HW212787   1.434   0.276   1.990
 3197HO4     MW12788   1.405   0.363   2.032
 3198HO4     OW12789   2.137   3.005   2.572
 3198HO4    HW112790   2.152   3.097   2.609
 3198HO4    HW212791   2.085   2.950   2.638
 3198HO4     MW12792   2.137   3.005   2.572
 3199HO4     OW12793   0.467   5.188   3.560
 3199HO4    HW112794   0.383   5.138   3.583
 3199HO4    HW212795   0.491   5.250   3.635
 3199HO4     MW12796   0.467   5.188   3.560
 3200HO4     OW12797   3.687   2.135   2.568
 3200HO4    HW112798   3.701   2.147   2.469
 3200HO4    HW212799   3.773   2.109   2.611
 3200HO4     MW12800   3.687   2.135   2.568
 3201HO4     OW12801   3.400   3.202   0.471
 3201HO4    HW112802   3.421   3.177   0.376
 3201HO4    HW212803   3.307   3.239   0.477
 3201HO4     MW12804   3.400   3.202   0.471
 3202HO4     OW12805   2.771   4.245   1.742
 3202HO4    HW112806   2.801   4.333   1.703
 3202HO4    HW212807   2.781   4.248   1.842
 3202HO4     MW12808   2.771   4.245   1.742
 3203HO4     OW12809   0.381   3.010   1.837
 3203HO4    HW112810   0.352   2.974   1.748
 3203HO4    HW212811   0.310   3.072   1.873
 3203HO4     MW12812   0.381   3.010   1.837
 3204HO4     OW12813   0.450   5.058   2.321
 3204HO4    HW112814   0.538   5.106   2.328
 3204HO4    HW212815   0.442   5.016   2.230
 3204HO4     MW12816   0.450   5.058   2.321
 3205HO4     OW12817   4.454   4.804   4.202
 3205HO4    HW112818   4.396   4.824   4.281
 3205HO4    HW212819   4.401   4.816   4.117
 3205HO4     MW12820   4.454   4.804   4.202
 3206HO4     OW12821   3.410   4.205   2.897
 3206HO4    HW112822   3.465   4.250   2.825
 3206HO4    HW212823   3.450   4.226   2.987
 3206HO4     MW12824   3.410   4.205   2.897
 3207HO4     OW12825   2.306   1.174   2.144
 3207HO4    HW112826   2.305   1.102   2.074
 3207HO4    HW212827   2.387   1.231   2.132
 3207HO4     MW12828   2.306   1.174   2.144
 3208HO4     OW12829   2.988   4.011   2.468
 3208HO4    HW112830   2.924   4.088   2.469
 3208HO4    HW212831   2.962   3.948   2.394
 3208HO4     MW12832   2.988   4.011   2.468
 3209HO4     OW12833   2.818   0.933   0.997
 3209HO4    HW112834   2.764   0.871   1.055
 3209HO4    HW212835   2.914   0.931   1.026
 3209HO4     MW12836   2.818   0.933   0.997
 3210HO4     OW12837   0.856   3.484   2.122
 3210HO4    HW112838   0.771   3.444   2.086
 3210HO4    HW212839   0.935   3.448   2.071
 3210HO4     MW12840   0.856   3.484   2.122
 3211HO4     OW12841   3.410   1.660   2.285
 3211HO4    HW112842   3.400   1.690   2.380
 3211HO4    HW212843   3.319   1.650   2.243
 3211HO4     MW12844   3.410   1.660   2.285
 3212HO4     OW12845   1.131   2.432   5.395
 3212HO4    HW112846   1.213   2.407   5.343
 3212HO4    HW212847   1.134   2.529   5.419
 3212HO4     MW12848   1.131   2.432   5.395
 3213HO4     OW12849   3.356   1.443   5.045
 3213HO4    HW112850   3.305   1.439   5.132
 3213HO4    HW212851   3.407   1.529   5.040
 3213HO4     MW12852   3.356   1.443   5.045
 3214HO4     OW12853   2.764   0.432   1.863
 3214HO4    HW112854   2.783   0.346   1.910
 3214HO4    HW212855   2.833   0.447   1.792
 3214HO4     MW12856   2.764   0.432   1.863
 3215HO4     OW12857   0.745   2.783   3.036
 3215HO4    HW112858   0.800   2.826   3.108
 3215HO4    HW212859   0.780   2.812   2.946
 3215HO4     MW12860   0.745   2.783   3.036
 3216HO4     OW12861   2.864   0.946   1.286
 3216HO4    HW112862   2.825   1.037   1.302
 3216HO4    HW212863   2.790   0.878   1.282
 3216HO4     MW12864   2.864   0.946   1.286
 3217HO4     OW12865   4.941   4.148   2.124
 3217HO4    HW112866   5.039   4.168   2.117
 3217HO4    HW212867   4.893   4.196   2.050
 3217HO4     MW12868   4.941   4.148   2.124
 3218HO4     OW12869   1.817   2.143   4.637
 3218HO4    HW112870   1.819   2.058   4.690
 3218HO4    HW212871   1.898   2.198   4.660
 3218HO4     MW12872   1.817   2.143   4.637
 3219HO4     OW12873   3.482   5.379   0.773
 3219HO4    HW112874   3.564   5.348   0.822
 3219HO4    HW212875   3.476   5.331   0.685
 3219HO4     MW12876   3.482   5.379   0.773
 3220HO4     OW12877   2.302   2.133   0.410
 3220HO4    HW112878   2.209   2.131   0.446
 3220HO4    HW212879   2.362   2.184   0.473
 3220HO4     MW12880   2.302   2.133   0.410
 3221HO4     OW12881   3.230   1.210   4.284
 3221HO4    HW112882   3.227   1.297   4.333
 3221HO4    HW212883   3.177   1.217   4.199
 3221HO4     MW12884   3.230   1.210   4.284
 3222HO4     OW12885   2.589   3.397   2.693
 3222HO4    HW112886   2.537   3.424   2.612
 3222HO4    HW212887   2.538   3.423   2.776
 3222HO4     MW12888   2.589   3.397   2.693
 3223HO4     OW12889   5.330   4.951   1.302
 3223HO4    HW112890   5.326   5.044   1.266
 3223HO4    HW212891   5.402   4.946   1.373
 3223HO4     MW12892   5.330   4.951   1.302
 3224HO4     OW12893   2.002   5.301   3.875
 3224HO4    HW112894   1.949   5.218   3.897
 3224HO4    HW212895   2.056   5.286   3.792
 3224HO4     MW12896   2.002   5.301   3.875
 3225HO4     OW12897   1.879   3.148   3.419
 3225HO4    HW112898   1.890   3.120   3.323
 3225HO4    HW212899   1.963   3.129   3.470
 3225HO4     MW12900   1.879   3.148   3.419
 3226HO4     OW12901   3.383   0.209   3.475
 3226HO4    HW112902   3.458   0.214   3.408
 3226HO4    HW212903   3.296   0.229   3.429
 3226HO4     MW12904   3.383   0.209   3.475
 3227HO4     OW12905   2.077   4.811   1.766
 3227HO4    HW112906   2.031   4.766   1.843
 3227HO4    HW212907   2.018   4.806   1.685
 3227HO4     MW12908   2.077   4.811   1.766
 3228HO4     OW12909   4.749   0.592   1.301
 3228HO4    HW112910   4.833   0.586   1.355
 3228HO4    HW212911   4.772   0.602   1.204
 3228HO4     MW12912   4.749   0.592   1.301
 3229HO4     OW12913   5.003   4.512   1.978
 3229HO4    HW112914   4.944   4.576   1.927
 3229HO4    HW212915   4.982   4.418   1.949
 3229HO4     MW12916   5.003   4.512   1.978
 3230HO4     OW12917   3.591   0.518   5.285
 3230HO4    HW112918   3.661   0.577   5.327
 3230HO4    HW212919   3.620   0.492   5.193
 3230HO4     MW12920   3.591   0.518   5.285
 3231HO4     OW12921   5.359   5.379   3.494
 3231HO4    HW112922   5.406   5.338   3.573
 3231HO4    HW212923   5.401   5.344   3.409
 3231HO4     MW12924   5.359   5.379   3.494
 3232HO4     OW12925   2.120   1.737   0.410
 3232HO4    HW112926   2.116   1.676   0.331
 3232HO4    HW212927   2.112   1.684   0.495
 3232HO4     MW12928   2.120   1.737   0.410
 3233HO4     OW12929   1.093   0.657   4.848
 3233HO4    HW112930   1.132   0.663   4.755
 3233HO4    HW212931   1.122   0.571   4.891
 3233HO4     MW12932   1.093   0.657   4.848
 3234HO4     OW12933   1.685   0.139   3.412
 3234HO4    HW112934   1.621   0.077   3.458
 3234HO4    HW212935   1.651   0.233   3.417
 3234HO4     MW12936   1.685   0.139   3.412
 3235HO4     OW12937   3.123   2.670   2.817
 3235HO4    HW112938   3.195   2.655   2.748
 3235HO4    HW212939   3.037   2.630   2.785
 3235HO4     MW12940   3.123   2.670   2.817
 3236HO4     OW12941   4.101   3.675   4.014
 3236HO4    HW112942   4.130   3.712   3.925
 3236HO4    HW212943   4.180   3.665   4.075
 3236HO4     MW12944   4.101   3.675   4.014
 3237HO4     OW12945   2.977   1.700   2.509
 3237HO4    HW112946   3.024   1.691   2.421
 3237HO4    HW212947   3.045   1.716   2.582
 3237HO4     MW12948   2.977   1.700   2.509
 3238HO4     OW12949   2.728   3.755   1.124
 3238HO4    HW112950   2.715   3.815   1.044
 3238HO4    HW212951   2.638   3.734   1.165
 3238HO4     MW12952   2.728   3.755   1.124
 3239HO4     OW12953   2.287   2.042   5.071
 3239HO4    HW112954   2.319   2.109   5.003
 3239HO4    HW212955   2.248   2.091   5.150
 3239HO4     MW12956   2.287   2.042   5.071
 3240HO4     OW12957   2.867   3.463   3.188
 3240HO4    HW112958   2.785   3.418   3.225
 3240HO4    HW212959   2.840   3.536   3.124
 3240HO4     MW12960   2.867   3.463   3.188
 3241HO4     OW12961   5.354   1.089   3.739
 3241HO4    HW112962   5.338   1.170   3.797
 3241HO4    HW212963   5.266   1.046   3.718
 3241HO4     MW12964   5.354   1.089   3.739
 3242HO4     OW12965   0.512   2.682   1.417
 3242HO4    HW112966   0.456   2.692   1.334
 3242HO4    HW212967   0.454   2.688   1.498
 3242HO4     MW12968   0.512   2.682   1.417
 3243HO4     OW12969   3.076   4.999   2.329
 3243HO4    HW112970   3.136   5.034   2.402
 3243HO4    HW212971   3.130   4.944   2.265
 3243HO4     MW12972   3.076   4.999   2.329
 3244HO4     OW12973   4.323   3.518   3.365
 3244HO4    HW112974   4.310   3.448   3.436
 3244HO4    HW212975   4.364   3.476   3.283
 3244HO4     MW12976   4.323   3.518   3.365
 3245HO4     OW12977   1.469   3.101   1.222
 3245HO4    HW112978   1.389   3.077   1.277
 3245HO4    HW212979   1.457   3.067   1.128
 3245HO4     MW12980   1.469   3.101   1.222
 3246HO4     OW12981   2.774   0.652   5.334
 3246HO4    HW112982   2.698   0.712   5.309
 3246HO4    HW212983   2.775   0.573   5.272
 3246HO4     MW12984   2.774   0.652   5.334
 3247HO4     OW12985   2.179   2.417   4.589
 3247HO4    HW112986   2.253   2.418   4.520
 3247HO4    HW212987   2.219   2.414   4.681
 3247HO4     MW12988   2.179   2.417   4.589
 3248HO4     OW12989   5.463   3.577   4.037
 3248HO4    HW112990   5.398   3.549   3.965
 3248HO4    HW212991   5.479   3.500   4.099
 3248HO4     MW12992   5.463   3.577   4.037
 3249HO4     OW12993   3.830   0.451   0.961
 3249HO4    HW112994   3.857   0.474   0.867
 3249HO4    HW212995   3.896   0.490   1.026
 3249HO4     MW12996   3.830   0.451   0.961
 3250HO4     OW12997   5.108   4.801   0.025
 3250HO4    HW112998   5.144   4.735  -0.042
 3250HO4    HW212999   5.149   4.891   0.010
 3250HO4     MW13000   5.108   4.801   0.025
 3251HO4     OW13001   3.323   4.551   4.491
 3251HO4    HW113002   3.332   4.505   4.580
 3251HO4    HW213003   3.341   4.485   4.417
 3251HO4     MW13004   3.323   4.551   4.491
 3252HO4     OW13005   0.354   2.379   1.277
 3252HO4    HW113006   0.257   2.358   1.291
 3252HO4    HW213007   0.404   2.293   1.258
 3252HO4     MW13008   0.354   2.379   1.277
 3253HO4     OW13009   1.667   1.504   4.477
 3253HO4    HW113010   1.728   1.460   4.410
 3253HO4    HW213011   1.660   1.602   4.456
 3253HO4     MW13012   1.667   1.504   4.477
 3254HO4     OW13013   0.611   4.599   3.081
 3254HO4    HW113014   0.586   4.618   2.986
 3254HO4    HW213015   0.529   4.607   3.139
 3254HO4     MW13016   0.611   4.599   3.081
 3255HO4     OW13017   0.457   0.041   3.132
 3255HO4    HW113018   0.379   0.084   3.177
 3255HO4    HW213019   0.531   0.027   3.199
 3255HO4     MW13020   0.457   0.041   3.132
 3256HO4     OW13021   3.467   1.936   4.082
 3256HO4    HW113022   3.544   1.871   4.078
 3256HO4    HW213023   3.496   2.019   4.131
 3256HO4     MW13024   3.467   1.936   4.082
 3257HO4     OW13025   4.958   4.015   4.662
 3257HO4    HW113026   4.976   4.103   4.708
 3257HO4    HW213027   4.981   4.024   4.565
 3257HO4     MW13028   4.958   4.015   4.662
 3258HO4     OW13029   4.381   4.234   0.174
 3258HO4    HW113030   4.321   4.228   0.093
 3258HO4    HW213031   4.325   4.226   0.257
 3258HO4     MW13032   4.381   4.234   0.174
 3259HO4     OW13033   3.262   3.849   4.248
 3259HO4    HW113034   3.265   3.885   4.342
 3259HO4    HW213035   3.185   3.786   4.238
 3259HO4     MW13036   3.262   3.849   4.248
 3260HO4     OW13037   3.241   3.000   2.118
 3260HO4    HW113038   3.148   2.965   2.106
 3260HO4    HW213039   3.289   2.999   2.029
 3260HO4     MW13040   3.241   3.000   2.118
 3261HO4     OW13041   3.225   2.059   4.233
 3261HO4    HW113042   3.267   2.018   4.315
 3261HO4    HW213043   3.266   2.019   4.151
 3261HO4     MW13044   3.225   2.059   4.233
 3262HO4     OW13045   0.074   1.253   5.055
 3262HO4    HW113046  -0.005   1.219   5.004
 3262HO4    HW213047   0.158   1.238   5.003
 3262HO4     MW13048   0.074   1.253   5.055
 3263HO4     OW13049   4.246   5.167   1.528
 3263HO4    HW113050   4.259   5.214   1.440
 3263HO4    HW213051   4.334   5.162   1.576
 3263HO4     MW13052   4.246   5.167   1.528
 3264HO4     OW13053   3.042   1.482   5.157
 3264HO4    HW113054   3.020   1.481   5.059
 3264HO4    HW213055   2.957   1.480   5.210
 3264HO4     MW13056   3.042   1.482   5.157
 3265HO4     OW13057   1.030   0.729   0.081
 3265HO4    HW113058   1.063   0.687  -0.004
 3265HO4    HW213059   0.999   0.657   0.145
 3265HO4     MW13060   1.030   0.729   0.081
 3266HO4     OW13061   1.737   2.409   1.990
 3266HO4    HW113062   1.690   2.450   2.068
 3266HO4    HW213063   1.796   2.334   2.022
 3266HO4     MW13064   1.737   2.409   1.990
 3267HO4     OW13065   2.338   5.072   3.900
 3267HO4    HW113066   2.315   5.123   3.983
 3267HO4    HW213067   2.292   5.113   3.821
 3267HO4     MW13068   2.338   5.072   3.900
 3268HO4     OW13069   1.195   3.994   0.868
 3268HO4    HW113070   1.143   4.043   0.938
 3268HO4    HW213071   1.161   4.020   0.777
 3268HO4     MW13072   1.195   3.994   0.868
 3269HO4     OW13073   2.494   3.167   0.214
 3269HO4    HW113074   2.503   3.079   0.261
 3269HO4    HW213075   2.400   3.179   0.181
 3269HO4     MW13076   2.494   3.167   0.214
 3270HO4     OW13077   1.518   2.255   1.059
 3270HO4    HW113078   1.571   2.175   1.028
 3270HO4    HW213079   1.423   2.227   1.078
 3270HO4     MW13080   1.518   2.255   1.059
 3271HO4     OW13081   4.071   0.978   3.804
 3271HO4    HW113082   4.120   1.020   3.726
 3271HO4    HW213083   4.120   1.000   3.889
 3271HO4     MW13084   4.071   0.978   3.804
 3272HO4     OW13085   1.979   4.422   4.823
 3272HO4    HW113086   1.912   4.472   4.769
 3272HO4    HW213087   2.040   4.370   4.762
 3272HO4     MW13088   1.979   4.422   4.823
 3273HO4     OW13089   3.375   4.416   2.860
 3273HO4    HW113090   3.463   4.462   2.862
 3273HO4    HW213091   3.303   4.479   2.889
 3273HO4     MW13092   3.375   4.416   2.860
 3274HO4     OW13093   4.984   2.742   2.502
 3274HO4    HW113094   4.901   2.739   2.558
 3274HO4    HW213095   4.995   2.655   2.452
 3274HO4     MW13096   4.984   2.742   2.502
 3275HO4     OW13097   2.075   4.992   5.355
 3275HO4    HW113098   2.015   5.050   5.299
 3275HO4    HW213099   2.170   5.017   5.339
 3275HO4     MW13100   2.075   4.992   5.355
 3276HO4     OW13101   5.258   3.835   0.091
 3276HO4    HW113102   5.278   3.755   0.148
 3276HO4    HW213103   5.322   3.838   0.014
 3276HO4     MW13104   5.258   3.835   0.091
 3277HO4     OW13105   5.448   4.745   3.123
 3277HO4    HW113106   5.456   4.723   3.221
 3277HO4    HW213107   5.475   4.841   3.108
 3277HO4     MW13108   5.448   4.745   3.123
 3278HO4     OW13109   5.418   1.835   0.514
 3278HO4    HW113110   5.422   1.761   0.446
 3278HO4    HW213111   5.488   1.820   0.584
 3278HO4     MW13112   5.418   1.835   0.514
 3279HO4     OW13113   3.944   1.862   1.742
 3279HO4    HW113114   4.013   1.875   1.814
 3279HO4    HW213115   3.990   1.858   1.653
 3279HO4     MW13116   3.944   1.862   1.742
 3280HO4     OW13117   0.843   2.786   3.292
 3280HO4    HW113118   0.836   2.691   3.261
 3280HO4    HW213119   0.752   2.827   3.296
 3280HO4     MW13120   0.843   2.786   3.292
 3281HO4     OW13121   1.346   0.092   0.426
 3281HO4    HW113122   1.436   0.064   0.459
 3281HO4    HW213123   1.275   0.065   0.493
 3281HO4     MW13124   1.346   0.092   0.426
 3282HO4     OW13125   3.802   1.724   4.595
 3282HO4    HW113126   3.812   1.663   4.674
 3282HO4    HW213127   3.821   1.674   4.511
 3282HO4     MW13128   3.802   1.724   4.595
 3283HO4     OW13129   2.966   5.087   2.025
 3283HO4    HW113130   3.016   5.084   1.938
 3283HO4    HW213131   3.030   5.069   2.101
 3283HO4     MW13132   2.966   5.087   2.025
 3284HO4     OW13133   2.149   1.352   1.425
 3284HO4    HW113134   2.049   1.358   1.427
 3284HO4    HW213135   2.188   1.419   1.489
 3284HO4     MW13136   2.149   1.352   1.425
 3285HO4     OW13137   2.132   1.778   3.719
 3285HO4    HW113138   2.106   1.755   3.625
 3285HO4    HW213139   2.059   1.831   3.762
 3285HO4     MW13140   2.132   1.778   3.719
 3286HO4     OW13141   2.433   2.372   0.344
 3286HO4    HW113142   2.460   2.319   0.425
 3286HO4    HW213143   2.469   2.327   0.262
 3286HO4     MW13144   2.433   2.372   0.344
 3287HO4     OW13145   3.409   0.409   0.625
 3287HO4    HW113146   3.446   0.340   0.687
 3287HO4    HW213147   3.455   0.403   0.536
 3287HO4     MW13148   3.409   0.409   0.625
 3288HO4     OW13149   4.783   2.738   4.196
 3288HO4    HW113150   4.771   2.797   4.115
 3288HO4    HW213151   4.768   2.792   4.279
 3288HO4     MW13152   4.783   2.738   4.196
 3289HO4     OW13153   3.355   5.368   2.878
 3289HO4    HW113154   3.454   5.350   2.872
 3289HO4    HW213155   3.318   5.381   2.786
 3289HO4     MW13156   3.355   5.368   2.878
 3290HO4     OW13157   3.839   1.253   0.158
 3290HO4    HW113158   3.845   1.215   0.065
 3290HO4    HW213159   3.931   1.255   0.200
 3290HO4     MW13160   3.839   1.253   0.158
 3291HO4     OW13161   2.571   0.617   5.096
 3291HO4    HW113162   2.609   0.654   5.182
 3291HO4    HW213163   2.637   0.631   5.022
 3291HO4     MW13164   2.571   0.617   5.096
 3292HO4     OW13165   5.144   0.017   5.162
 3292HO4    HW113166   5.195   0.064   5.089
 3292HO4    HW213167   5.130  -0.079   5.135
 3292HO4     MW13168   5.144   0.017   5.162
 3293HO4     OW13169   3.046   0.517   1.757
 3293HO4    HW113170   3.126   0.539   1.701
 3293HO4    HW213171   3.075   0.486   1.848
 3293HO4     MW13172   3.046   0.517   1.757
 3294HO4     OW13173   1.264   5.060   0.968
 3294HO4    HW113174   1.220   5.077   1.057
 3294HO4    HW213175   1.361   5.082   0.975
 3294HO4     MW13176   1.264   5.060   0.968
 3295HO4     OW13177   2.612   3.930   2.920
 3295HO4    HW113178   2.559   4.003   2.875
 3295HO4    HW213179   2.608   3.847   2.864
 3295HO4     MW13180   2.612   3.930   2.920
 3296HO4     OW13181   3.462   1.426   2.388
 3296HO4    HW113182   3.540   1.472   2.344
 3296HO4    HW213183   3.496   1.359   2.454
 3296HO4     MW13184   3.462   1.426   2.388
 3297HO4     OW13185   1.036   1.837   5.213
 3297HO4    HW113186   1.129   1.871   5.192
 3297HO4    HW213187   1.043   1.761   5.278
 3297HO4     MW13188   1.036   1.837   5.213
 3298HO4     OW13189   4.619   5.250   5.345
 3298HO4    HW113190   4.598   5.348   5.333
 3298HO4    HW213191   4.546   5.195   5.304
 3298HO4     MW13192   4.619   5.250   5.345
 3299HO4     OW13193   2.853   1.006   0.245
 3299HO4    HW113194   2.859   1.073   0.171
 3299HO4    HW213195   2.870   1.052   0.333
 3299HO4     MW13196   2.853   1.006   0.245
 3300HO4     OW13197   4.537   4.156   5.004
 3300HO4    HW113198   4.617   4.212   5.028
 3300HO4    HW213199   4.567   4.064   4.979
 3300HO4     MW13200   4.537   4.156   5.004
 3301HO4     OW13201   4.242   2.405   0.431
 3301HO4    HW113202   4.188   2.426   0.349
 3301HO4    HW213203   4.183   2.408   0.512
 3301HO4     MW13204   4.242   2.405   0.431
 3302HO4     OW13205   2.750   2.545   3.093
 3302HO4    HW113206   2.798   2.566   3.179
 3302HO4    HW213207   2.728   2.631   3.045
 3302HO4     MW13208   2.750   2.545   3.093
 3303HO4     OW13209   2.408   1.896   0.238
 3303HO4    HW113210   2.412   1.954   0.155
 3303HO4    HW213211   2.411   1.955   0.319
 3303HO4     MW13212   2.408   1.896   0.238
 3304HO4     OW13213   2.014   3.721   5.207
 3304HO4    HW113214   2.033   3.815   5.177
 3304HO4    HW213215   1.969   3.723   5.297
 3304HO4     MW13216   2.014   3.721   5.207
 3305HO4     OW13217   3.589   3.999   3.310
 3305HO4    HW113218   3.662   3.949   3.263
 3305HO4    HW213219   3.567   4.082   3.258
 3305HO4     MW13220   3.589   3.999   3.310
 3306HO4     OW13221   0.657   3.221   0.100
 3306HO4    HW113222   0.616   3.228   0.191
 3306HO4    HW213223   0.587   3.190   0.034
 3306HO4     MW13224   0.657   3.221   0.100
 3307HO4     OW13225   3.504   2.049   0.824
 3307HO4    HW113226   3.484   2.095   0.737
 3307HO4    HW213227   3.466   1.956   0.823
 3307HO4     MW13228   3.504   2.049   0.824
 3308HO4     OW13229   4.363   5.302   0.315
 3308HO4    HW113230   4.448   5.273   0.270
 3308HO4    HW213231   4.298   5.225   0.318
 3308HO4     MW13232   4.363   5.302   0.315
 3309HO4     OW13233   3.969   1.872   1.093
 3309HO4    HW113234   3.965   1.879   1.193
 3309HO4    HW213235   3.901   1.804   1.061
 3309HO4     MW13236   3.969   1.872   1.093
 3310HO4     OW13237   4.000   3.088   0.786
 3310HO4    HW113238   3.900   3.097   0.775
 3310HO4    HW213239   4.028   2.994   0.764
 3310HO4     MW13240   4.000   3.088   0.786
 3311HO4     OW13241   1.891   2.444   3.264
 3311HO4    HW113242   1.791   2.433   3.270
 3311HO4    HW213243   1.926   2.476   3.352
 3311HO4     MW13244   1.891   2.444   3.264
 3312HO4     OW13245   1.916   0.727   1.610
 3312HO4    HW113246   1.991   0.674   1.651
 3312HO4    HW213247   1.935   0.744   1.513
 3312HO4     MW13248   1.916   0.727   1.610
 3313HO4     OW13249   1.742   1.772   3.252
 3313HO4    HW113250   1.822   1.739   3.200
 3313HO4    HW213251   1.679   1.695   3.267
 3313HO4     MW13252   1.742   1.772   3.252
 3314HO4     OW13253   2.282   5.276   1.687
 3314HO4    HW113254   2.353   5.204   1.688
 3314HO4    HW213255   2.191   5.234   1.698
 3314HO4     MW13256   2.282   5.276   1.687
 3315HO4     OW13257   3.480   2.987   3.308
 3315HO4    HW113258   3.466   3.078   3.268
 3315HO4    HW213259   3.504   2.922   3.236
 3315HO4     MW13260   3.480   2.987   3.308
 3316HO4     OW13261   1.307   5.020   1.773
 3316HO4    HW113262   1.308   4.930   1.728
 3316HO4    HW213263   1.321   5.009   1.872
 3316HO4     MW13264   1.307   5.020   1.773
 3317HO4     OW13265   5.053   0.920   5.267
 3317HO4    HW113266   4.983   0.910   5.196
 3317HO4    HW213267   5.013   0.900   5.357
 3317HO4     MW13268   5.053   0.920   5.267
 3318HO4     OW13269   1.309   4.201   2.913
 3318HO4    HW113270   1.234   4.194   2.845
 3318HO4    HW213271   1.301   4.126   2.979
 3318HO4     MW13272   1.309   4.201   2.913
 3319HO4     OW13273   3.711   2.976   2.266
 3319HO4    HW113274   3.668   2.928   2.343
 3319HO4    HW213275   3.699   2.923   2.182
 3319HO4     MW13276   3.711   2.976   2.266
 3320HO4     OW13277   0.401   1.230   1.013
 3320HO4    HW113278   0.410   1.329   1.032
 3320HO4    HW213279   0.355   1.185   1.090
 3320HO4     MW13280   0.401   1.230   1.013
 3321HO4     OW13281   0.097   4.192   1.772
 3321HO4    HW113282   0.091   4.282   1.817
 3321HO4    HW213283   0.192   4.159   1.778
 3321HO4     MW13284   0.097   4.192   1.772
 3322HO4     OW13285   2.450   4.662   4.516
 3322HO4    HW113286   2.530   4.705   4.473
 3322HO4    HW213287   2.405   4.729   4.576
 3322HO4     MW13288   2.450   4.662   4.516
 3323HO4     OW13289   2.025   0.201   5.328
 3323HO4    HW113290   2.057   0.210   5.234
 3323HO4    HW213291   2.101   0.216   5.391
 3323HO4     MW13292   2.025   0.201   5.328
 3324HO4     OW13293   1.472   1.960   1.058
 3324HO4    HW113294   1.434   1.953   0.965
 3324HO4    HW213295   1.398   1.956   1.126
 3324HO4     MW13296   1.472   1.960   1.058
 3325HO4     OW13297   0.466   5.150   0.431
 3325HO4    HW113298   0.498   5.071   0.484
 3325HO4    HW213299   0.539   5.181   0.369
 3325HO4     MW13300   0.466   5.150   0.431
 3326HO4     OW13301   4.235   0.101   1.751
 3326HO4    HW113302   4.292   0.101   1.669
 3326HO4    HW213303   4.293   0.099   1.833
 3326HO4     MW13304   4.235   0.101   1.751
 3327HO4     OW13305   1.661   2.194   1.376
 3327HO4    HW113306   1.730   2.262   1.402
 3327HO4    HW213307   1.648   2.194   1.277
 3327HO4     MW13308   1.661   2.194   1.376
 3328HO4     OW13309   4.807   0.542   3.168
 3328HO4    HW113310   4.863   0.606   3.223
 3328HO4    HW213311   4.749   0.594   3.105
 3328HO4     MW13312   4.807   0.542   3.168
 3329HO4     OW13313   0.681   0.719   2.299
 3329HO4    HW113314   0.743   0.640   2.304
 3329HO4    HW213315   0.734   0.803   2.315
 3329HO4     MW13316   0.681   0.719   2.299
 3330HO4     OW13317   3.364   5.199   5.306
 3330HO4    HW113318   3.330   5.283   5.351
 3330HO4    HW213319   3.373   5.126   5.374
 3330HO4     MW13320   3.364   5.199   5.306
 3331HO4     OW13321   1.169   2.591   4.581
 3331HO4    HW113322   1.140   2.666   4.640
 3331HO4    HW213323   1.223   2.627   4.504
 3331HO4     MW13324   1.169   2.591   4.581
 3332HO4     OW13325   0.865   4.628   1.528
 3332HO4    HW113326   0.813   4.693   1.472
 3332HO4    HW213327   0.959   4.623   1.494
 3332HO4     MW13328   0.865   4.628   1.528
 3333HO4     OW13329   4.535   2.739   4.027
 3333HO4    HW113330   4.554   2.799   4.105
 3333HO4    HW213331   4.569   2.780   3.943
 3333HO4     MW13332   4.535   2.739   4.027
 3334HO4     OW13333   3.002   0.231   1.946
 3334HO4    HW113334   3.067   0.251   2.020
 3334HO4    HW213335   3.018   0.138   1.911
 3334HO4     MW13336   3.002   0.231   1.946
 3335HO4     OW13337   3.194   4.343   1.553
 3335HO4    HW113338   3.130   4.357   1.477
 3335HO4    HW213339   3.143   4.307   1.632
 3335HO4     MW13340   3.194   4.343   1.553
 3336HO4     OW13341   2.889   1.834   3.087
 3336HO4    HW113342   2.870   1.869   3.180
 3336HO4    HW213343   2.892   1.911   3.023
 3336HO4     MW13344   2.889   1.834   3.087
 3337HO4     OW13345   3.969   0.679   2.722
 3337HO4    HW113346   3.966   0.778   2.740
 3337HO4    HW213347   4.054   0.641   2.759
 3337HO4     MW13348   3.969   0.679   2.722
 3338HO4     OW13349   1.024   1.671   1.750
 3338HO4    HW113350   1.011   1.753   1.807
 3338HO4    HW213351   1.064   1.598   1.806
 3338HO4     MW13352   1.024   1.671   1.750
 3339HO4     OW13353   2.456   0.866   0.741
 3339HO4    HW113354   2.520   0.842   0.815
 3339HO4    HW213355   2.497   0.939   0.684
 3339HO4     MW13356   2.456   0.866   0.741
 3340HO4     OW13357   3.515   2.236   0.439
 3340HO4    HW113358   3.454   2.197   0.369
 3340HO4    HW213359   3.487   2.331   0.457
 3340HO4     MW13360   3.515   2.236   0.439
 3341HO4     OW13361   1.167   1.865   0.669
 3341HO4    HW113362   1.242   1.874   0.735
 3341HO4    HW213363   1.192   1.909   0.582
 3341HO4     MW13364   1.167   1.865   0.669
 3342HO4     OW13365   1.222   0.646   0.216
 3342HO4    HW113366   1.163   0.599   0.150
 3342HO4    HW213367   1.192   0.625   0.310
 3342HO4     MW13368   1.222   0.646   0.216
 3343HO4     OW13369   0.659   2.312   5.224
 3343HO4    HW113370   0.620   2.375   5.291
 3343HO4    HW213371   0.728   2.359   5.169
 3343HO4     MW13372   0.659   2.312   5.224
 3344HO4     OW13373   0.854   0.153   1.473
 3344HO4    HW113374   0.872   0.090   1.396
 3344HO4    HW213375   0.872   0.105   1.560
 3344HO4     MW13376   0.854   0.153   1.473
 3345HO4     OW13377   2.993   0.251   4.093
 3345HO4    HW113378   2.963   0.346   4.094
 3345HO4    HW213379   3.093   0.247   4.089
 3345HO4     MW13380   2.993   0.251   4.093
 3346HO4     OW13381   2.135   5.459   5.397
 3346HO4    HW113382   2.041   5.428   5.379
 3346HO4    HW213383   2.135   5.558   5.413
 3346HO4     MW13384   2.135   5.459   5.397
 3347HO4     OW13385   0.561   0.940   4.905
 3347HO4    HW113386   0.543   0.984   4.816
 3347HO4    HW213387   0.534   1.002   4.979
 3347HO4     MW13388   0.561   0.940   4.905
 3348HO4     OW13389   5.444   1.430   3.164
 3348HO4    HW113390   5.402   1.495   3.228
 3348HO4    HW213391   5.377   1.361   3.137
 3348HO4     MW13392   5.444   1.430   3.164
 3349HO4     OW13393   1.549   4.229   2.705
 3349HO4    HW113394   1.504   4.209   2.793
 3349HO4    HW213395   1.641   4.264   2.721
 3349HO4     MW13396   1.549   4.229   2.705
 3350HO4     OW13397   0.747   1.470   0.354
 3350HO4    HW113398   0.651   1.476   0.324
 3350HO4    HW213399   0.762   1.382   0.400
 3350HO4     MW13400   0.747   1.470   0.354
 3351HO4     OW13401   1.850   0.011   2.844
 3351HO4    HW113402   1.939   0.052   2.867
 3351HO4    HW213403   1.794   0.005   2.927
 3351HO4     MW13404   1.850   0.011   2.844
 3352HO4     OW13405   3.104   4.922   1.004
 3352HO4    HW113406   3.047   4.889   0.928
 3352HO4    HW213407   3.058   4.902   1.091
 3352HO4     MW13408   3.104   4.922   1.004
 3353HO4     OW13409   1.813   2.526   2.884
 3353HO4    HW113410   1.768   2.583   2.815
 3353HO4    HW213411   1.758   2.525   2.968
 3353HO4     MW13412   1.813   2.526   2.884
 3354HO4     OW13413   5.255   5.326   1.710
 3354HO4    HW113414   5.181   5.363   1.767
 3354HO4    HW213415   5.264   5.381   1.627
 3354HO4     MW13416   5.255   5.326   1.710
 3355HO4     OW13417   2.463   1.590   1.657
 3355HO4    HW113418   2.363   1.585   1.662
 3355HO4    HW213419   2.501   1.498   1.646
 3355HO4     MW13420   2.463   1.590   1.657
 3356HO4     OW13421   0.421   1.582   4.423
 3356HO4    HW113422   0.499   1.536   4.379
 3356HO4    HW213423   0.422   1.680   4.399
 3356HO4     MW13424   0.421   1.582   4.423
 3357HO4     OW13425   0.010   3.803   1.003
 3357HO4    HW113426  -0.063   3.766   0.945
 3357HO4    HW213427   0.045   3.730   1.063
 3357HO4     MW13428   0.010   3.803   1.003
 3358HO4     OW13429   1.191   1.753   2.924
 3358HO4    HW113430   1.190   1.814   2.844
 3358HO4    HW213431   1.157   1.803   3.004
 3358HO4     MW13432   1.191   1.753   2.924
 3359HO4     OW13433   3.811   0.211   4.288
 3359HO4    HW113434   3.726   0.187   4.241
 3359HO4    HW213435   3.829   0.144   4.360
 3359HO4     MW13436   3.811   0.211   4.288
 3360HO4     OW13437   1.806   4.763   4.362
 3360HO4    HW113438   1.852   4.829   4.422
 3360HO4    HW213439   1.856   4.676   4.363
 3360HO4     MW13440   1.806   4.763   4.362
 3361HO4     OW13441   3.866   3.529   2.314
 3361HO4    HW113442   3.769   3.519   2.334
 3361HO4    HW213443   3.909   3.438   2.310
 3361HO4     MW13444   3.866   3.529   2.314
 3362HO4     OW13445   0.168   3.534   2.276
 3362HO4    HW113446   0.175   3.610   2.341
 3362HO4    HW213447   0.075   3.530   2.238
 3362HO4     MW13448   0.168   3.534   2.276
 3363HO4     OW13449   3.359   5.200   0.254
 3363HO4    HW113450   3.428   5.158   0.195
 3363HO4    HW213451   3.398   5.218   0.345
 3363HO4     MW13452   3.359   5.200   0.254
 3364HO4     OW13453   4.304   0.811   2.375
 3364HO4    HW113454   4.311   0.754   2.292
 3364HO4    HW213455   4.288   0.751   2.454
 3364HO4     MW13456   4.304   0.811   2.375
 3365HO4     OW13457   3.456   1.379   4.630
 3365HO4    HW113458   3.474   1.385   4.531
 3365HO4    HW213459   3.490   1.291   4.664
 3365HO4     MW13460   3.456   1.379   4.630
 3366HO4     OW13461   3.235   1.225   2.585
 3366HO4    HW113462   3.201   1.250   2.494
 3366HO4    HW213463   3.253   1.126   2.589
 3366HO4     MW13464   3.235   1.225   2.585
 3367HO4     OW13465   2.466   4.772   5.348
 3367HO4    HW113466   2.439   4.818   5.263
 3367HO4    HW213467   2.436   4.826   5.426
 3367HO4     MW13468   2.466   4.772   5.348
 3368HO4     OW13469   2.105   1.831   2.716
 3368HO4    HW113470   2.116   1.849   2.814
 3368HO4    HW213471   2.014   1.861   2.686
 3368HO4     MW13472   2.105   1.831   2.716
 3369HO4     OW13473   4.641   3.573   3.702
 3369HO4    HW113474   4.606   3.662   3.732
 3369HO4    HW213475   4.568   3.523   3.654
 3369HO4     MW13476   4.641   3.573   3.702
 3370HO4     OW13477   2.986   1.706   4.875
 3370HO4    HW113478   2.964   1.653   4.793
 3370HO4    HW213479   2.904   1.716   4.932
 3370HO4     MW13480   2.986   1.706   4.875
 3371HO4     OW13481   4.489   4.671   0.264
 3371HO4    HW113482   4.397   4.675   0.304
 3371HO4    HW213483   4.482   4.641   0.168
 3371HO4     MW13484   4.489   4.671   0.264
 3372HO4     OW13485   3.439   0.581   3.822
 3372HO4    HW113486   3.493   0.631   3.753
 3372HO4    HW213487   3.476   0.601   3.914
 3372HO4     MW13488   3.439   0.581   3.822
 3373HO4     OW13489   5.029   5.259   2.627
 3373HO4    HW113490   4.973   5.282   2.707
 3373HO4    HW213491   4.970   5.243   2.547
 3373HO4     MW13492   5.029   5.259   2.627
 3374HO4     OW13493   0.962   3.946   3.494
 3374HO4    HW113494   1.053   3.979   3.469
 3374HO4    HW213495   0.965   3.906   3.586
 3374HO4     MW13496   0.962   3.946   3.494
 3375HO4     OW13497   3.524   0.741   3.500
 3375HO4    HW113498   3.471   0.669   3.452
 3375HO4    HW213499   3.526   0.823   3.443
 3375HO4     MW13500   3.524   0.741   3.500
 3376HO4     OW13501   5.017   1.341   5.235
 3376HO4    HW113502   5.004   1.318   5.139
 3376HO4    HW213503   4.939   1.308   5.289
 3376HO4     MW13504   5.017   1.341   5.235
 3377HO4     OW13505   0.947   0.438   0.765
 3377HO4    HW113506   0.891   0.433   0.682
 3377HO4    HW213507   0.974   0.345   0.793
 3377HO4     MW13508   0.947   0.438   0.765
 3378HO4     OW13509   3.673   5.461   0.689
 3378HO4    HW113510   3.615   5.543   0.683
 3378HO4    HW213511   3.678   5.431   0.785
 3378HO4     MW13512   3.673   5.461   0.689
 3379HO4     OW13513   2.850   4.641   0.940
 3379HO4    HW113514   2.830   4.543   0.949
 3379HO4    HW213515   2.767   4.690   0.913
 3379HO4     MW13516   2.850   4.641   0.940
 3380HO4     OW13517   4.492   0.846   3.575
 3380HO4    HW113518   4.580   0.859   3.529
 3380HO4    HW213519   4.507   0.832   3.673
 3380HO4     MW13520   4.492   0.846   3.575
 3381HO4     OW13521   4.433   2.949   2.620
 3381HO4    HW113522   4.381   2.902   2.548
 3381HO4    HW213523   4.386   3.033   2.647
 3381HO4     MW13524   4.433   2.949   2.620
 3382HO4     OW13525   3.819   0.290   3.248
 3382HO4    HW113526   3.768   0.237   3.179
 3382HO4    HW213527   3.898   0.236   3.278
 3382HO4     MW13528   3.819   0.290   3.248
 3383HO4     OW13529   0.590   1.097   3.073
 3383HO4    HW113530   0.637   1.179   3.108
 3383HO4    HW213531   0.504   1.125   3.030
 3383HO4     MW13532   0.590   1.097   3.073
 3384HO4     OW13533   0.145   5.442   5.316
 3384HO4    HW113534   0.236   5.406   5.291
 3384HO4    HW213535   0.116   5.510   5.248
 3384HO4     MW13536   0.145   5.442   5.316
 3385HO4     OW13537   1.643   1.888   4.081
 3385HO4    HW113538   1.609   1.934   4.163
 3385HO4    HW213539   1.614   1.939   4.000
 3385HO4     MW13540   1.643   1.888   4.081
 3386HO4     OW13541   4.337   4.535   0.599
 3386HO4    HW113542   4.289   4.535   0.511
 3386HO4    HW213543   4.341   4.442   0.636
 3386HO4     MW13544   4.337   4.535   0.599
 3387HO4     OW13545   0.442   3.152   4.441
 3387HO4    HW113546   0.449   3.192   4.533
 3387HO4    HW213547   0.446   3.225   4.372
 3387HO4     MW13548   0.442   3.152   4.441
 3388HO4     OW13549   3.738   0.903   2.633
 3388HO4    HW113550   3.741   0.839   2.711
 3388HO4    HW213551   3.815   0.884   2.572
 3388HO4     MW13552   3.738   0.903   2.633
 3389HO4     OW13553   0.792   0.799   0.350
 3389HO4    HW113554   0.805   0.783   0.448
 3389HO4    HW213555   0.783   0.897   0.333
 3389HO4     MW13556   0.792   0.799   0.350
 3390HO4     OW13557   4.038   1.707   4.693
 3390HO4    HW113558   4.015   1.638   4.623
 3390HO4    HW213559   3.954   1.736   4.740
 3390HO4     MW13560   4.038   1.707   4.693
 3391HO4     OW13561   1.925   0.073   1.611
 3391HO4    HW113562   1.917   0.170   1.585
 3391HO4    HW213563   1.864   0.056   1.689
 3391HO4     MW13564   1.925   0.073   1.611
 3392HO4     OW13565   2.107   3.244   4.650
 3392HO4    HW113566   2.076   3.192   4.730
 3392HO4    HW213567   2.038   3.239   4.578
 3392HO4     MW13568   2.107   3.244   4.650
 3393HO4     OW13569   2.642   3.798   5.185
 3393HO4    HW113570   2.583   3.730   5.230
 3393HO4    HW213571   2.588   3.850   5.118
 3393HO4     MW13572   2.642   3.798   5.185
 3394HO4     OW13573   0.090   1.869   5.458
 3394HO4    HW113574  -0.009   1.877   5.446
 3394HO4    HW213575   0.110   1.818   5.542
 3394HO4     MW13576   0.090   1.869   5.458
 3395HO4     OW13577   2.169   1.223   2.893
 3395HO4    HW113578   2.073   1.195   2.881
 3395HO4    HW213579   2.201   1.269   2.809
 3395HO4     MW13580   2.169   1.223   2.893
 3396HO4     OW13581   1.295   3.043   5.295
 3396HO4    HW113582   1.249   3.132   5.288
 3396HO4    HW213583   1.294   2.998   5.206
 3396HO4     MW13584   1.295   3.043   5.295
 3397HO4     OW13585   2.112   1.336   3.114
 3397HO4    HW113586   2.180   1.293   3.053
 3397HO4    HW213587   2.110   1.287   3.202
 3397HO4     MW13588   2.112   1.336   3.114
 3398HO4     OW13589   1.325   0.562   0.477
 3398HO4    HW113590   1.294   0.601   0.564
 3398HO4    HW213591   1.418   0.594   0.456
 3398HO4     MW13592   1.325   0.562   0.477
 3399HO4     OW13593   0.360   0.669   1.446
 3399HO4    HW113594   0.371   0.606   1.522
 3399HO4    HW213595   0.377   0.621   1.359
 3399HO4     MW13596   0.360   0.669   1.446
 3400HO4     OW13597   3.550   3.142   1.386
 3400HO4    HW113598   3.510   3.123   1.296
 3400HO4    HW213599   3.502   3.089   1.457
 3400HO4     MW13600   3.550   3.142   1.386
 3401HO4     OW13601   4.910   0.959   0.122
 3401HO4    HW113602   4.891   0.898   0.044
 3401HO4    HW213603   5.004   0.944   0.153
 3401HO4     MW13604   4.910   0.959   0.122
 3402HO4     OW13605   0.329   1.211   2.515
 3402HO4    HW113606   0.321   1.298   2.464
 3402HO4    HW213607   0.238   1.185   2.549
 3402HO4     MW13608   0.329   1.211   2.515
 3403HO4     OW13609   0.664   4.609   4.526
 3403HO4    HW113610   0.659   4.707   4.503
 3403HO4    HW213611   0.735   4.565   4.471
 3403HO4     MW13612   0.664   4.609   4.526
 3404HO4     OW13613   2.863   3.753   4.045
 3404HO4    HW113614   2.918   3.710   4.117
 3404HO4    HW213615   2.766   3.736   4.062
 3404HO4     MW13616   2.863   3.753   4.045
 3405HO4     OW13617   4.618   5.321   1.279
 3405HO4    HW113618   4.537   5.381   1.271
 3405HO4    HW213619   4.696   5.365   1.233
 3405HO4     MW13620   4.618   5.321   1.279
 3406HO4     OW13621   4.328   4.407   1.749
 3406HO4    HW113622   4.247   4.397   1.690
 3406HO4    HW213623   4.411   4.399   1.693
 3406HO4     MW13624   4.328   4.407   1.749
 3407HO4     OW13625   4.696   2.577  -0.001
 3407HO4    HW113626   4.790   2.592   0.030
 3407HO4    HW213627   4.645   2.526   0.069
 3407HO4     MW13628   4.696   2.577  -0.001
 3408HO4     OW13629   5.023   4.933   3.211
 3408HO4    HW113630   5.041   4.838   3.183
 3408HO4    HW213631   4.933   4.938   3.256
 3408HO4     MW13632   5.023   4.933   3.211
 3409HO4     OW13633   4.079   3.470   4.231
 3409HO4    HW113634   4.000   3.473   4.293
 3409HO4    HW213635   4.148   3.536   4.261
 3409HO4     MW13636   4.079   3.470   4.231
 3410HO4     OW13637   3.571   2.197   2.745
 3410HO4    HW113638   3.573   2.101   2.774
 3410HO4    HW213639   3.665   2.228   2.727
 3410HO4     MW13640   3.571   2.197   2.745
 3411HO4     OW13641   1.542   2.747   5.434
 3411HO4    HW113642   1.636   2.768   5.462
 3411HO4    HW213643   1.483   2.743   5.514
 3411HO4     MW13644   1.542   2.747   5.434
 3412HO4     OW13645   2.017   5.135   1.678
 3412HO4    HW113646   2.071   5.050   1.682
 3412HO4    HW213647   1.921   5.112   1.657
 3412HO4     MW13648   2.017   5.135   1.678
 3413HO4     OW13649   4.464   1.208   1.324
 3413HO4    HW113650   4.452   1.146   1.402
 3413HO4    HW213651   4.487   1.155   1.242
 3413HO4     MW13652   4.464   1.208   1.324
 3414HO4     OW13653   3.113   3.442   0.136
 3414HO4    HW113654   3.091   3.395   0.222
 3414HO4    HW213655   3.053   3.407   0.063
 3414HO4     MW13656   3.113   3.442   0.136
 3415HO4     OW13657   4.393   0.342   1.582
 3415HO4    HW113658   4.475   0.286   1.595
 3415HO4    HW213659   4.364   0.339   1.486
 3415HO4     MW13660   4.393   0.342   1.582
 3416HO4     OW13661   5.143   0.764   0.413
 3416HO4    HW113662   5.093   0.794   0.331
 3416HO4    HW213663   5.124   0.826   0.489
 3416HO4     MW13664   5.143   0.764   0.413
 3417HO4     OW13665   4.348   3.457   4.717
 3417HO4    HW113666   4.271   3.448   4.781
 3417HO4    HW213667   4.313   3.453   4.622
 3417HO4     MW13668   4.348   3.457   4.717
 3418HO4     OW13669   0.269   3.721   3.011
 3418HO4    HW113670   0.208   3.657   3.059
 3418HO4    HW213671   0.224   3.754   2.928
 3418HO4     MW13672   0.269   3.721   3.011
 3419HO4     OW13673   5.240   5.321   1.388
 3419HO4    HW113674   5.281   5.230   1.399
 3419HO4    HW213675   5.190   5.324   1.301
 3419HO4     MW13676   5.240   5.321   1.388
 3420HO4     OW13677   3.153   1.370   3.750
 3420HO4    HW113678   3.102   1.362   3.836
 3420HO4    HW213679   3.120   1.299   3.686
 3420HO4     MW13680   3.153   1.370   3.750
 3421HO4     OW13681   2.350   1.373   5.314
 3421HO4    HW113682   2.283   1.440   5.345
 3421HO4    HW213683   2.435   1.420   5.288
 3421HO4     MW13684   2.350   1.373   5.314
 3422HO4     OW13685   1.825   0.072   5.164
 3422HO4    HW113686   1.824  -0.026   5.142
 3422HO4    HW213687   1.735   0.112   5.142
 3422HO4     MW13688   1.825   0.072   5.164
 3423HO4     OW13689   4.934   1.615   3.170
 3423HO4    HW113690   4.979   1.701   3.144
 3423HO4    HW213691   4.841   1.612   3.132
 3423HO4     MW13692   4.934   1.615   3.170
 3424HO4     OW13693   1.776   3.024   1.145
 3424HO4    HW113694   1.861   3.058   1.185
 3424HO4    HW213695   1.789   2.931   1.111
 3424HO4     MW13696   1.776   3.024   1.145
 3425HO4     OW13697   3.069   1.202   2.068
 3425HO4    HW113698   2.976   1.221   2.101
 3425HO4    HW213699   3.113   1.135   2.129
 3425HO4     MW13700   3.069   1.202   2.068
 3426HO4     OW13701   4.948   4.844   2.966
 3426HO4    HW113702   5.008   4.871   3.042
 3426HO4    HW213703   4.875   4.911   2.955
 3426HO4     MW13704   4.948   4.844   2.966
 3427HO4     OW13705   0.535   1.470   1.223
 3427HO4    HW113706   0.615   1.516   1.263
 3427HO4    HW213707   0.555   1.372   1.211
 3427HO4     MW13708   0.535   1.470   1.223
 3428HO4     OW13709   0.177   1.037   2.143
 3428HO4    HW113710   0.203   1.062   2.236
 3428HO4    HW213711   0.250   1.064   2.079
 3428HO4     MW13712   0.177   1.037   2.143
 3429HO4     OW13713   4.484   0.229   4.934
 3429HO4    HW113714   4.484   0.314   4.987
 3429HO4    HW213715   4.488   0.251   4.836
 3429HO4     MW13716   4.484   0.229   4.934
 3430HO4     OW13717   0.991   4.200   2.256
 3430HO4    HW113718   0.919   4.204   2.185
 3430HO4    HW213719   0.963   4.256   2.335
 3430HO4     MW13720   0.991   4.200   2.256
 3431HO4     OW13721   1.533   4.427   2.864
 3431HO4    HW113722   1.478   4.354   2.906
 3431HO4    HW213723   1.628   4.396   2.854
 3431HO4     MW13724   1.533   4.427   2.864
 3432HO4     OW13725   3.803   1.698   0.071
 3432HO4    HW113726   3.714   1.659   0.097
 3432HO4    HW213727   3.844   1.743   0.151
 3432HO4     MW13728   3.803   1.698   0.071
 3433HO4     OW13729   5.028   3.784   1.102
 3433HO4    HW113730   4.951   3.803   1.041
 3433HO4    HW213731   4.996   3.733   1.182
 3433HO4     MW13732   5.028   3.784   1.102
 3434HO4     OW13733   0.727   1.424   2.970
 3434HO4    HW113734   0.740   1.342   2.913
 3434HO4    HW213735   0.735   1.506   2.912
 3434HO4     MW13736   0.727   1.424   2.970
 3435HO4     OW13737   2.029   4.130   0.108
 3435HO4    HW113738   2.107   4.193   0.109
 3435HO4    HW213739   2.035   4.070   0.028
 3435HO4     MW13740   2.029   4.130   0.108
 3436HO4     OW13741   2.254   4.222   4.217
 3436HO4    HW113742   2.288   4.178   4.301
 3436HO4    HW213743   2.327   4.277   4.176
 3436HO4     MW13744   2.254   4.222   4.217
 3437HO4     OW13745   5.083   2.920   5.263
 3437HO4    HW113746   5.104   2.933   5.166
 3437HO4    HW213747   4.992   2.877   5.272
 3437HO4     MW13748   5.083   2.920   5.263
 3438HO4     OW13749   4.014   1.623   3.752
 3438HO4    HW113750   4.060   1.694   3.806
 3438HO4    HW213751   4.078   1.548   3.734
 3438HO4     MW13752   4.014   1.623   3.752
 3439HO4     OW13753   3.193   0.678   4.294
 3439HO4    HW113754   3.260   0.749   4.319
 3439HO4    HW213755   3.109   0.690   4.349
 3439HO4     MW13756   3.193   0.678   4.294
 3440HO4     OW13757   0.565   3.303   5.218
 3440HO4    HW113758   0.626   3.342   5.148
 3440HO4    HW213759   0.469   3.313   5.188
 3440HO4     MW13760   0.565   3.303   5.218
 3441HO4     OW13761   1.015   0.930   3.859
 3441HO4    HW113762   1.089   0.932   3.791
 3441HO4    HW213763   0.928   0.909   3.813
 3441HO4     MW13764   1.015   0.930   3.859
 3442HO4     OW13765   3.812   1.593   1.870
 3442HO4    HW113766   3.873   1.668   1.901
 3442HO4    HW213767   3.736   1.632   1.817
 3442HO4     MW13768   3.812   1.593   1.870
 3443HO4     OW13769   3.549   4.683   3.617
 3443HO4    HW113770   3.507   4.596   3.645
 3443HO4    HW213771   3.622   4.707   3.680
 3443HO4     MW13772   3.549   4.683   3.617
 3444HO4     OW13773   1.429   2.315   5.279
 3444HO4    HW113774   1.391   2.318   5.186
 3444HO4    HW213775   1.492   2.392   5.292
 3444HO4     MW13776   1.429   2.315   5.279
 3445HO4     OW13777   5.115   4.716   2.945
 3445HO4    HW113778   5.075   4.676   2.863
 3445HO4    HW213779   5.076   4.672   3.027
 3445HO4     MW13780   5.115   4.716   2.945
 3446HO4     OW13781   2.391   3.528   5.087
 3446HO4    HW113782   2.337   3.552   5.006
 3446HO4    HW213783   2.339   3.552   5.170
 3446HO4     MW13784   2.391   3.528   5.087
 3447HO4     OW13785   4.508   3.356   5.252
 3447HO4    HW113786   4.571   3.324   5.181
 3447HO4    HW213787   4.553   3.427   5.307
 3447HO4     MW13788   4.508   3.356   5.252
 3448HO4     OW13789   1.501   4.138   3.601
 3448HO4    HW113790   1.555   4.162   3.520
 3448HO4    HW213791   1.515   4.041   3.624
 3448HO4     MW13792   1.501   4.138   3.601
 3449HO4     OW13793   4.558   1.310   0.196
 3449HO4    HW113794   4.651   1.332   0.167
 3449HO4    HW213795   4.492   1.352   0.133
 3449HO4     MW13796   4.558   1.310   0.196
 3450HO4     OW13797   3.416   1.968   4.600
 3450HO4    HW113798   3.337   2.028   4.582
 3450HO4    HW213799   3.466   1.952   4.514
 3450HO4     MW13800   3.416   1.968   4.600
 3451HO4     OW13801   4.927   2.546   4.151
 3451HO4    HW113802   4.979   2.549   4.237
 3451HO4    HW213803   4.973   2.601   4.082
 3451HO4     MW13804   4.927   2.546   4.151
 3452HO4     OW13805   3.503   2.638   4.785
 3452HO4    HW113806   3.525   2.569   4.855
 3452HO4    HW213807   3.538   2.608   4.696
 3452HO4     MW13808   3.503   2.638   4.785
 3453HO4     OW13809   2.584   3.453   3.894
 3453HO4    HW113810   2.674   3.415   3.869
 3453HO4    HW213811   2.558   3.523   3.828
 3453HO4     MW13812   2.584   3.453   3.894
 3454HO4     OW13813   4.268   5.445   4.310
 3454HO4    HW113814   4.252   5.544   4.309
 3454HO4    HW213815   4.223   5.403   4.230
 3454HO4     MW13816   4.268   5.445   4.310
 3455HO4     OW13817   2.494   0.718   2.056
 3455HO4    HW113818   2.488   0.769   2.142
 3455HO4    HW213819   2.473   0.779   1.979
 3455HO4     MW13820   2.494   0.718   2.056
 3456HO4     OW13821   3.682   2.787   2.985
 3456HO4    HW113822   3.654   2.873   2.940
 3456HO4    HW213823   3.660   2.709   2.926
 3456HO4     MW13824   3.682   2.787   2.985
 3457HO4     OW13825   1.804   0.662   2.436
 3457HO4    HW113826   1.762   0.646   2.526
 3457HO4    HW213827   1.732   0.671   2.367
 3457HO4     MW13828   1.804   0.662   2.436
 3458HO4     OW13829   4.592   3.109   1.617
 3458HO4    HW113830   4.613   3.089   1.713
 3458HO4    HW213831   4.499   3.078   1.596
 3458HO4     MW13832   4.592   3.109   1.617
 3459HO4     OW13833   1.818   3.560   3.489
 3459HO4    HW113834   1.880   3.594   3.561
 3459HO4    HW213835   1.865   3.564   3.400
 3459HO4     MW13836   1.818   3.560   3.489
 3460HO4     OW13837   3.427   1.333   4.001
 3460HO4    HW113838   3.354   1.388   3.958
 3460HO4    HW213839   3.516   1.369   3.973
 3460HO4     MW13840   3.427   1.333   4.001
 3461HO4     OW13841   3.565   0.402   0.915
 3461HO4    HW113842   3.634   0.402   0.989
 3461HO4    HW213843   3.539   0.496   0.893
 3461HO4     MW13844   3.565   0.402   0.915
 3462HO4     OW13845   4.737   3.384   3.580
 3462HO4    HW113846   4.746   3.450   3.504
 3462HO4    HW213847   4.750   3.432   3.667
 3462HO4     MW13848   4.737   3.384   3.580
 3463HO4     OW13849   0.726   5.321   4.511
 3463HO4    HW113850   0.672   5.401   4.541
 3463HO4    HW213851   0.735   5.323   4.411
 3463HO4     MW13852   0.726   5.321   4.511
 3464HO4     OW13853   2.886   4.376   0.588
 3464HO4    HW113854   2.931   4.443   0.528
 3464HO4    HW213855   2.931   4.378   0.678
 3464HO4     MW13856   2.886   4.376   0.588
 3465HO4     OW13857   1.391   5.344   1.903
 3465HO4    HW113858   1.291   5.352   1.905
 3465HO4    HW213859   1.429   5.384   1.988
 3465HO4     MW13860   1.391   5.344   1.903
 3466HO4     OW13861   1.462   5.420   0.138
 3466HO4    HW113862   1.423   5.341   0.090
 3466HO4    HW213863   1.416   5.431   0.226
 3466HO4     MW13864   1.462   5.420   0.138
 3467HO4     OW13865   2.331   4.724   1.268
 3467HO4    HW113866   2.280   4.711   1.183
 3467HO4    HW213867   2.306   4.651   1.334
 3467HO4     MW13868   2.331   4.724   1.268
 3468HO4     OW13869   1.127   2.891   0.499
 3468HO4    HW113870   1.079   2.857   0.581
 3468HO4    HW213871   1.089   2.846   0.418
 3468HO4     MW13872   1.127   2.891   0.499
 3469HO4     OW13873   0.959   3.734   3.661
 3469HO4    HW113874   0.865   3.764   3.648
 3469HO4    HW213875   0.969   3.692   3.752
 3469HO4     MW13876   0.959   3.734   3.661
 3470HO4     OW13877   0.426   2.251   0.698
 3470HO4    HW113878   0.377   2.261   0.785
 3470HO4    HW213879   0.487   2.171   0.703
 3470HO4     MW13880   0.426   2.251   0.698
 3471HO4     OW13881   4.366   3.260   1.017
 3471HO4    HW113882   4.417   3.318   0.952
 3471HO4    HW213883   4.430   3.196   1.062
 3471HO4     MW13884   4.366   3.260   1.017
 3472HO4     OW13885   0.816   3.320   5.407
 3472HO4    HW113886   0.732   3.280   5.369
 3472HO4    HW213887   0.884   3.330   5.334
 3472HO4     MW13888   0.816   3.320   5.407
 3473HO4     OW13889   4.961   1.127   1.748
 3473HO4    HW113890   5.042   1.068   1.741
 3473HO4    HW213891   4.951   1.157   1.843
 3473HO4     MW13892   4.961   1.127   1.748
 3474HO4     OW13893   1.656   1.784   4.856
 3474HO4    HW113894   1.691   1.736   4.937
 3474HO4    HW213895   1.564   1.821   4.876
 3474HO4     MW13896   1.656   1.784   4.856
 3475HO4     OW13897   2.831   4.776   3.871
 3475HO4    HW113898   2.806   4.759   3.775
 3475HO4    HW213899   2.781   4.712   3.930
 3475HO4     MW13900   2.831   4.776   3.871
 3476HO4     OW13901   1.460   2.364   4.046
 3476HO4    HW113902   1.389   2.399   3.984
 3476HO4    HW213903   1.451   2.264   4.052
 3476HO4     MW13904   1.460   2.364   4.046
 3477HO4     OW13905   3.252   4.167   5.222
 3477HO4    HW113906   3.262   4.182   5.123
 3477HO4    HW213907   3.340   4.141   5.261
 3477HO4     MW13908   3.252   4.167   5.222
 3478HO4     OW13909   0.406   3.266   0.632
 3478HO4    HW113910   0.483   3.224   0.584
 3478HO4    HW213911   0.441   3.315   0.713
 3478HO4     MW13912   0.406   3.266   0.632
 3479HO4     OW13913   3.315   3.880   5.377
 3479HO4    HW113914   3.241   3.893   5.444
 3479HO4    HW213915   3.294   3.932   5.293
 3479HO4     MW13916   3.315   3.880   5.377
 3480HO4     OW13917   5.250   1.516   1.932
 3480HO4    HW113918   5.299   1.537   2.017
 3480HO4    HW213919   5.188   1.439   1.947
 3480HO4     MW13920   5.250   1.516   1.932
 3481HO4     OW13921   4.807   5.473   4.768
 3481HO4    HW113922   4.723   5.461   4.714
 3481HO4    HW213923   4.789   5.448   4.863
 3481HO4     MW13924   4.807   5.473   4.768
 3482HO4     OW13925   0.119   1.307   0.914
 3482HO4    HW113926   0.033   1.297   0.966
 3482HO4    HW213927   0.168   1.389   0.946
 3482HO4     MW13928   0.119   1.307   0.914
 3483HO4     OW13929   0.226   1.283   1.831
 3483HO4    HW113930   0.253   1.379   1.842
 3483HO4    HW213931   0.267   1.246   1.747
 3483HO4     MW13932   0.226   1.283   1.831
 3484HO4     OW13933   3.125   1.479   1.492
 3484HO4    HW113934   3.112   1.567   1.445
 3484HO4    HW213935   3.044   1.458   1.547
 3484HO4     MW13936   3.125   1.479   1.492
 3485HO4     OW13937   4.160   4.088   1.467
 3485HO4    HW113938   4.170   4.028   1.388
 3485HO4    HW213939   4.185   4.182   1.441
 3485HO4     MW13940   4.160   4.088   1.467
 3486HO4     OW13941   4.380   1.558   1.274
 3486HO4    HW113942   4.363   1.564   1.373
 3486HO4    HW213943   4.384   1.651   1.236
 3486HO4     MW13944   4.380   1.558   1.274
 3487HO4     OW13945   3.368   0.027   4.971
 3487HO4    HW113946   3.314  -0.047   4.930
 3487HO4    HW213947   3.437   0.059   4.905
 3487HO4     MW13948   3.368   0.027   4.971
 3488HO4     OW13949   3.583   2.452   1.106
 3488HO4    HW113950   3.609   2.505   1.187
 3488HO4    HW213951   3.507   2.497   1.059
 3488HO4     MW13952   3.583   2.452   1.106
 3489HO4     OW13953   4.750   1.466   2.634
 3489HO4    HW113954   4.716   1.386   2.685
 3489HO4    HW213955   4.674   1.529   2.617
 3489HO4     MW13956   4.750   1.466   2.634
 3490HO4     OW13957   5.422   3.099   1.854
 3490HO4    HW113958   5.495   3.030   1.859
 3490HO4    HW213959   5.457   3.188   1.887
 3490HO4     MW13960   5.422   3.099   1.854
 3491HO4     OW13961   4.488   3.527   1.157
 3491HO4    HW113962   4.577   3.562   1.189
 3491HO4    HW213963   4.486   3.427   1.168
 3491HO4     MW13964   4.488   3.527   1.157
 3492HO4     OW13965   1.281   0.861   4.290
 3492HO4    HW113966   1.320   0.923   4.222
 3492HO4    HW213967   1.200   0.903   4.332
 3492HO4     MW13968   1.281   0.861   4.290
 3493HO4     OW13969   2.383   2.014   3.102
 3493HO4    HW113970   2.482   2.016   3.113
 3493HO4    HW213971   2.340   1.989   3.190
 3493HO4     MW13972   2.383   2.014   3.102
 3494HO4     OW13973   4.001   4.437   0.403
 3494HO4    HW113974   4.035   4.492   0.326
 3494HO4    HW213975   4.078   4.392   0.449
 3494HO4     MW13976   4.001   4.437   0.403
 3495HO4     OW13977   4.894   2.103   1.841
 3495HO4    HW113978   4.939   2.142   1.760
 3495HO4    HW213979   4.835   2.172   1.883
 3495HO4     MW13980   4.894   2.103   1.841
 3496HO4     OW13981   4.145   1.310   2.151
 3496HO4    HW113982   4.138   1.224   2.100
 3496HO4    HW213983   4.137   1.388   2.087
 3496HO4     MW13984   4.145   1.310   2.151
 3497HO4     OW13985   4.148   0.716   4.695
 3497HO4    HW113986   4.243   0.711   4.664
 3497HO4    HW213987   4.126   0.812   4.717
 3497HO4     MW13988   4.148   0.716   4.695
 3498HO4     OW13989   1.712   1.029   4.851
 3498HO4    HW113990   1.770   1.041   4.770
 3498HO4    HW213991   1.768   1.001   4.929
 3498HO4     MW13992   1.712   1.029   4.851
 3499HO4     OW13993   2.334   1.033   4.751
 3499HO4    HW113994   2.404   1.005   4.684
 3499HO4    HW213995   2.250   0.980   4.735
 3499HO4     MW13996   2.334   1.033   4.751
 3500HO4     OW13997   0.996   4.818   3.958
 3500HO4    HW113998   1.010   4.722   3.983
 3500HO4    HW213999   0.990   4.826   3.858
 3500HO4     MW14000   0.996   4.818   3.958
 3501HO4     OW14001   4.079   1.346   2.621
 3501HO4    HW114002   4.073   1.295   2.707
 3501HO4    HW214003   4.060   1.443   2.638
 3501HO4     MW14004   4.079   1.346   2.621
 3502HO4     OW14005   4.450   1.361   5.072
 3502HO4    HW114006   4.393   1.365   4.990
 3502HO4    HW214007   4.392   1.360   5.154
 3502HO4     MW14008   4.450   1.361   5.072
 3503HO4     OW14009   1.954   3.474   1.934
 3503HO4    HW114010   2.008   3.399   1.895
 3503HO4    HW214011   1.927   3.451   2.028
 3503HO4     MW14012   1.954   3.474   1.934
 3504HO4     OW14013   5.124   2.742   1.035
 3504HO4    HW114014   5.047   2.751   0.972
 3504HO4    HW214015   5.101   2.785   1.123
 3504HO4     MW14016   5.124   2.742   1.035
 3505HO4     OW14017   4.148   2.657   4.100
 3505HO4    HW114018   4.134   2.604   4.016
 3505HO4    HW214019   4.130   2.600   4.180
 3505HO4     MW14020   4.148   2.657   4.100
 3506HO4     OW14021   0.475   5.202   4.028
 3506HO4    HW114022   0.388   5.166   3.992
 3506HO4    HW214023   0.462   5.231   4.123
 3506HO4     MW14024   0.475   5.202   4.028
 3507HO4     OW14025   0.770   3.464   1.669
 3507HO4    HW114026   0.724   3.541   1.715
 3507HO4    HW214027   0.767   3.477   1.570
 3507HO4     MW14028   0.770   3.464   1.669
 3508HO4     OW14029   3.600   3.840   1.854
 3508HO4    HW114030   3.539   3.873   1.782
 3508HO4    HW214031   3.562   3.866   1.944
 3508HO4     MW14032   3.600   3.840   1.854
 3509HO4     OW14033   3.730   0.681   1.673
 3509HO4    HW114034   3.811   0.738   1.657
 3509HO4    HW214035   3.718   0.665   1.771
 3509HO4     MW14036   3.730   0.681   1.673
 3510HO4     OW14037   1.130   0.132   4.644
 3510HO4    HW114038   1.169   0.224   4.651
 3510HO4    HW214039   1.071   0.115   4.723
 3510HO4     MW14040   1.130   0.132   4.644
 3511HO4     OW14041   1.160   1.195   2.698
 3511HO4    HW114042   1.196   1.243   2.778
 3511HO4    HW214043   1.163   1.096   2.715
 3511HO4     MW14044   1.160   1.195   2.698
 3512HO4     OW14045   3.519   2.480   5.437
 3512HO4    HW114046   3.457   2.402   5.427
 3512HO4    HW214047   3.471   2.565   5.413
 3512HO4     MW14048   3.519   2.480   5.437
 3513HO4     OW14049   1.950   1.176   1.090
 3513HO4    HW114050   2.031   1.165   1.150
 3513HO4    HW214051   1.979   1.171   0.994
 3513HO4     MW14052   1.950   1.176   1.090
 3514HO4     OW14053   0.891   4.609   3.480
 3514HO4    HW114054   0.985   4.622   3.512
 3514HO4    HW214055   0.871   4.674   3.406
 3514HO4     MW14056   0.891   4.609   3.480
 3515HO4     OW14057   2.620   0.092   5.378
 3515HO4    HW114058   2.631   0.156   5.455
 3515HO4    HW214059   2.525   0.061   5.374
 3515HO4     MW14060   2.620   0.092   5.378
 3516HO4     OW14061   3.279   3.563   1.574
 3516HO4    HW114062   3.296   3.633   1.644
 3516HO4    HW214063   3.216   3.599   1.505
 3516HO4     MW14064   3.279   3.563   1.574
 3517HO4     OW14065   3.237   3.117   0.693
 3517HO4    HW114066   3.234   3.174   0.776
 3517HO4    HW214067   3.330   3.119   0.655
 3517HO4     MW14068   3.237   3.117   0.693
 3518HO4     OW14069   1.191   4.410   1.350
 3518HO4    HW114070   1.185   4.310   1.357
 3518HO4    HW214071   1.212   4.435   1.255
 3518HO4     MW14072   1.191   4.410   1.350
 3519HO4     OW14073   4.542   0.805   4.539
 3519HO4    HW114074   4.483   0.849   4.471
 3519HO4    HW214075   4.513   0.709   4.551
 3519HO4     MW14076   4.542   0.805   4.539
 3520HO4     OW14077   3.391   3.001   5.091
 3520HO4    HW114078   3.353   2.960   5.175
 3520HO4    HW214079   3.370   2.943   5.013
 3520HO4     MW14080   3.391   3.001   5.091
 3521HO4     OW14081   5.172   4.311   4.622
 3521HO4    HW114082   5.241   4.280   4.555
 3521HO4    HW214083   5.215   4.319   4.712
 3521HO4     MW14084   5.172   4.311   4.622
 3522HO4     OW14085   3.885   4.822   3.586
 3522HO4    HW114086   3.929   4.732   3.578
 3522HO4    HW214087   3.787   4.814   3.566
 3522HO4     MW14088   3.885   4.822   3.586
 3523HO4     OW14089   1.706   4.820   3.914
 3523HO4    HW114090   1.620   4.831   3.964
 3523HO4    HW214091   1.686   4.814   3.815
 3523HO4     MW14092   1.706   4.820   3.914
 3524HO4     OW14093   2.013   4.756   4.226
 3524HO4    HW114094   1.979   4.814   4.300
 3524HO4    HW214095   2.008   4.806   4.139
 3524HO4     MW14096   2.013   4.756   4.226
 3525HO4     OW14097   5.096   4.740   0.875
 3525HO4    HW114098   5.155   4.760   0.953
 3525HO4    HW214099   5.031   4.667   0.900
 3525HO4     MW14100   5.096   4.740   0.875
 3526HO4     OW14101   4.292   4.848   0.187
 3526HO4    HW114102   4.297   4.799   0.100
 3526HO4    HW214103   4.336   4.938   0.178
 3526HO4     MW14104   4.292   4.848   0.187
 3527HO4     OW14105   5.303   2.152   4.669
 3527HO4    HW114106   5.266   2.177   4.579
 3527HO4    HW214107   5.274   2.220   4.738
 3527HO4     MW14108   5.303   2.152   4.669
 3528HO4     OW14109   1.773   0.485   3.684
 3528HO4    HW114110   1.849   0.426   3.655
 3528HO4    HW214111   1.715   0.436   3.749
 3528HO4     MW14112   1.773   0.485   3.684
 3529HO4     OW14113   1.659   4.054   4.335
 3529HO4    HW114114   1.711   4.077   4.252
 3529HO4    HW214115   1.717   4.068   4.416
 3529HO4     MW14116   1.659   4.054   4.335
 3530HO4     OW14117   4.931   4.160   5.411
 3530HO4    HW114118   4.920   4.094   5.485
 3530HO4    HW214119   4.979   4.117   5.334
 3530HO4     MW14120   4.931   4.160   5.411
 3531HO4     OW14121   2.121   3.072   2.296
 3531HO4    HW114122   2.068   3.035   2.219
 3531HO4    HW214123   2.167   3.156   2.266
 3531HO4     MW14124   2.121   3.072   2.296
 3532HO4     OW14125   2.588   3.035   0.981
 3532HO4    HW114126   2.526   3.049   1.059
 3532HO4    HW214127   2.536   2.996   0.904
 3532HO4     MW14128   2.588   3.035   0.981
 3533HO4     OW14129   3.822   4.726   2.334
 3533HO4    HW114130   3.815   4.638   2.384
 3533HO4    HW214131   3.916   4.737   2.300
 3533HO4     MW14132   3.822   4.726   2.334
 3534HO4     OW14133   5.217   3.776   4.246
 3534HO4    HW114134   5.176   3.797   4.157
 3534HO4    HW214135   5.153   3.803   4.319
 3534HO4     MW14136   5.217   3.776   4.246
 3535HO4     OW14137   5.110   4.933   4.004
 3535HO4    HW114138   5.168   4.901   3.929
 3535HO4    HW214139   5.157   4.919   4.091
 3535HO4     MW14140   5.110   4.933   4.004
 3536HO4     OW14141   2.446   3.865   0.406
 3536HO4    HW114142   2.535   3.870   0.451
 3536HO4    HW214143   2.457   3.877   0.307
 3536HO4     MW14144   2.446   3.865   0.406
 3537HO4     OW14145   1.926   2.005   3.914
 3537HO4    HW114146   1.873   2.071   3.859
 3537HO4    HW214147   1.878   1.917   3.916
 3537HO4     MW14148   1.926   2.005   3.914
 3538HO4     OW14149   5.043   2.959   4.097
 3538HO4    HW114150   5.080   2.996   4.011
 3538HO4    HW214151   4.948   2.990   4.108
 3538HO4     MW14152   5.043   2.959   4.097
 3539HO4     OW14153   1.861   3.335   4.860
 3539HO4    HW114154   1.824   3.370   4.946
 3539HO4    HW214155   1.957   3.363   4.851
 3539HO4     MW14156   1.861   3.335   4.860
 3540HO4     OW14157   2.640   2.188   0.070
 3540HO4    HW114158   2.591   2.263   0.024
 3540HO4    HW214159   2.645   2.208   0.169
 3540HO4     MW14160   2.640   2.188   0.070
 3541HO4     OW14161   4.015   0.066   2.871
 3541HO4    HW114162   3.919   0.064   2.844
 3541HO4    HW214163   4.023   0.041   2.968
 3541HO4     MW14164   4.015   0.066   2.871
 3542HO4     OW14165   1.953   0.434   2.211
 3542HO4    HW114166   1.947   0.393   2.302
 3542HO4    HW214167   2.015   0.380   2.154
 3542HO4     MW14168   1.953   0.434   2.211
 3543HO4     OW14169   4.528   2.024   4.214
 3543HO4    HW114170   4.610   2.075   4.241
 3543HO4    HW214171   4.451   2.088   4.201
 3543HO4     MW14172   4.528   2.024   4.214
 3544HO4     OW14173   4.406   2.113   0.363
 3544HO4    HW114174   4.343   2.073   0.296
 3544HO4    HW214175   4.362   2.116   0.453
 3544HO4     MW14176   4.406   2.113   0.363
 3545HO4     OW14177   5.078   4.017   4.262
 3545HO4    HW114178   5.073   3.976   4.170
 3545HO4    HW214179   5.100   3.945   4.329
 3545HO4     MW14180   5.078   4.017   4.262
 3546HO4     OW14181   4.237   2.195   3.510
 3546HO4    HW114182   4.230   2.170   3.413
 3546HO4    HW214183   4.179   2.134   3.564
 3546HO4     MW14184   4.237   2.195   3.510
 3547HO4     OW14185   3.753   3.043   3.912
 3547HO4    HW114186   3.794   3.035   3.821
 3547HO4    HW214187   3.660   3.004   3.910
 3547HO4     MW14188   3.753   3.043   3.912
 3548HO4     OW14189   4.872   3.258   4.250
 3548HO4    HW114190   4.877   3.339   4.309
 3548HO4    HW214191   4.914   3.279   4.161
 3548HO4     MW14192   4.872   3.258   4.250
 3549HO4     OW14193   2.507   2.981   3.121
 3549HO4    HW114194   2.433   2.914   3.129
 3549HO4    HW214195   2.594   2.933   3.103
 3549HO4     MW14196   2.507   2.981   3.121
 3550HO4     OW14197   3.606   2.008   0.543
 3550HO4    HW114198   3.605   2.064   0.626
 3550HO4    HW214199   3.591   2.068   0.463
 3550HO4     MW14200   3.606   2.008   0.543
 3551HO4     OW14201   0.991   2.940   1.397
 3551HO4    HW114202   0.995   2.845   1.428
 3551HO4    HW214203   0.896   2.963   1.372
 3551HO4     MW14204   0.991   2.940   1.397
 3552HO4     OW14205   4.518   1.967   3.098
 3552HO4    HW114206   4.469   1.923   3.022
 3552HO4    HW214207   4.617   1.964   3.081
 3552HO4     MW14208   4.518   1.967   3.098
 3553HO4     OW14209   4.596   2.326   0.306
 3553HO4    HW114210   4.641   2.345   0.217
 3553HO4    HW214211   4.498   2.308   0.291
 3553HO4     MW14212   4.596   2.326   0.306
 3554HO4     OW14213   0.550   1.468   3.652
 3554HO4    HW114214   0.511   1.500   3.739
 3554HO4    HW214215   0.510   1.521   3.576
 3554HO4     MW14216   0.550   1.468   3.652
 3555HO4     OW14217   0.206   5.322   3.864
 3555HO4    HW114218   0.294   5.351   3.825
 3555HO4    HW214219   0.175   5.237   3.820
 3555HO4     MW14220   0.206   5.322   3.864
 3556HO4     OW14221   1.806   3.652   2.969
 3556HO4    HW114222   1.778   3.623   3.061
 3556HO4    HW214223   1.745   3.609   2.901
 3556HO4     MW14224   1.806   3.652   2.969
 3557HO4     OW14225   0.958   5.406   3.485
 3557HO4    HW114226   0.984   5.475   3.553
 3557HO4    HW214227   0.860   5.412   3.467
 3557HO4     MW14228   0.958   5.406   3.485
 3558HO4     OW14229   4.916   2.062   1.163
 3558HO4    HW114230   4.935   2.108   1.075
 3558HO4    HW214231   4.941   2.122   1.239
 3558HO4     MW14232   4.916   2.062   1.163
 3559HO4     OW14233   3.597   4.162   0.783
 3559HO4    HW114234   3.581   4.242   0.842
 3559HO4    HW214235   3.630   4.192   0.693
 3559HO4     MW14236   3.597   4.162   0.783
 3560HO4     OW14237   2.342   4.100   3.035
 3560HO4    HW114238   2.258   4.045   3.026
 3560HO4    HW214239   2.384   4.082   3.125
 3560HO4     MW14240   2.342   4.100   3.035
 3561HO4     OW14241   2.213   3.645   2.169
 3561HO4    HW114242   2.144   3.573   2.174
 3561HO4    HW214243   2.276   3.627   2.092
 3561HO4     MW14244   2.213   3.645   2.169
 3562HO4     OW14245   1.720   2.071   4.976
 3562HO4    HW114246   1.672   1.996   4.931
 3562HO4    HW214247   1.819   2.063   4.960
 3562HO4     MW14248   1.720   2.071   4.976
 3563HO4     OW14249   3.299   4.031   4.106
 3563HO4    HW114250   3.396   4.032   4.131
 3563HO4    HW214251   3.274   4.120   4.068
 3563HO4     MW14252   3.299   4.031   4.106
 3564HO4     OW14253   5.329   5.072   4.849
 3564HO4    HW114254   5.364   5.115   4.765
 3564HO4    HW214255   5.363   5.123   4.929
 3564HO4     MW14256   5.329   5.072   4.849
 3565HO4     OW14257   1.663   2.204   2.263
 3565HO4    HW114258   1.716   2.228   2.181
 3565HO4    HW214259   1.717   2.146   2.323
 3565HO4     MW14260   1.663   2.204   2.263
 3566HO4     OW14261   4.710   0.442   3.676
 3566HO4    HW114262   4.749   0.429   3.767
 3566HO4    HW214263   4.738   0.366   3.616
 3566HO4     MW14264   4.710   0.442   3.676
 3567HO4     OW14265   4.349   3.810   2.514
 3567HO4    HW114266   4.443   3.826   2.545
 3567HO4    HW214267   4.288   3.877   2.558
 3567HO4     MW14268   4.349   3.810   2.514
 3568HO4     OW14269   3.337   5.403   1.779
 3568HO4    HW114270   3.307   5.427   1.687
 3568HO4    HW214271   3.435   5.385   1.779
 3568HO4     MW14272   3.337   5.403   1.779
 3569HO4     OW14273   3.626   3.993   4.959
 3569HO4    HW114274   3.666   4.078   4.993
 3569HO4    HW214275   3.678   3.961   4.879
 3569HO4     MW14276   3.626   3.993   4.959
 3570HO4     OW14277   4.201   4.566   0.958
 3570HO4    HW114278   4.147   4.580   1.041
 3570HO4    HW214279   4.143   4.582   0.877
 3570HO4     MW14280   4.201   4.566   0.958
 3571HO4     OW14281   5.132   3.801   3.726
 3571HO4    HW114282   5.222   3.782   3.766
 3571HO4    HW214283   5.142   3.862   3.647
 3571HO4     MW14284   5.132   3.801   3.726
 3572HO4     OW14285   5.314   4.240   3.280
 3572HO4    HW114286   5.290   4.295   3.360
 3572HO4    HW214287   5.339   4.301   3.204
 3572HO4     MW14288   5.314   4.240   3.280
 3573HO4     OW14289   1.027   0.250   3.349
 3573HO4    HW114290   1.108   0.269   3.406
 3573HO4    HW214291   0.960   0.197   3.402
 3573HO4     MW14292   1.027   0.250   3.349
 3574HO4     OW14293   3.976   1.894   2.447
 3574HO4    HW114294   3.956   1.986   2.413
 3574HO4    HW214295   3.920   1.827   2.397
 3574HO4     MW14296   3.976   1.894   2.447
 3575HO4     OW14297   1.726   4.221   3.484
 3575HO4    HW114298   1.793   4.181   3.421
 3575HO4    HW214299   1.689   4.149   3.544
 3575HO4     MW14300   1.726   4.221   3.484
 3576HO4     OW14301   2.960   4.681   2.975
 3576HO4    HW114302   2.965   4.709   3.071
 3576HO4    HW214303   3.047   4.702   2.929
 3576HO4     MW14304   2.960   4.681   2.975
 3577HO4     OW14305   3.455   1.402   3.194
 3577HO4    HW114306   3.370   1.448   3.167
 3577HO4    HW214307   3.509   1.380   3.113
 3577HO4     MW14308   3.455   1.402   3.194
 3578HO4     OW14309   3.604   2.831   4.941
 3578HO4    HW114310   3.577   2.781   5.024
 3578HO4    HW214311   3.697   2.803   4.915
 3578HO4     MW14312   3.604   2.831   4.941
 3579HO4     OW14313   5.128   4.000   1.436
 3579HO4    HW114314   5.208   3.990   1.495
 3579HO4    HW214315   5.133   3.934   1.360
 3579HO4     MW14316   5.128   4.000   1.436
 3580HO4     OW14317   2.447   2.761   2.795
 3580HO4    HW114318   2.387   2.734   2.719
 3580HO4    HW214319   2.426   2.855   2.822
 3580HO4     MW14320   2.447   2.761   2.795
 3581HO4     OW14321   0.452   0.854   2.519
 3581HO4    HW114322   0.540   0.903   2.512
 3581HO4    HW214323   0.426   0.819   2.428
 3581HO4     MW14324   0.452   0.854   2.519
 3582HO4     OW14325   1.708   3.124   3.927
 3582HO4    HW114326   1.610   3.135   3.908
 3582HO4    HW214327   1.726   3.145   4.024
 3582HO4     MW14328   1.708   3.124   3.927
 3583HO4     OW14329   1.765   0.662   2.792
 3583HO4    HW114330   1.725   0.580   2.751
 3583HO4    HW214331   1.694   0.733   2.800
 3583HO4     MW14332   1.765   0.662   2.792
 3584HO4     OW14333   3.734   4.897   1.371
 3584HO4    HW114334   3.697   4.874   1.461
 3584HO4    HW214335   3.661   4.888   1.302
 3584HO4     MW14336   3.734   4.897   1.371
 3585HO4     OW14337   5.090   3.229   4.924
 3585HO4    HW114338   5.014   3.279   4.883
 3585HO4    HW214339   5.073   3.130   4.917
 3585HO4     MW14340   5.090   3.229   4.924
 3586HO4     OW14341   3.701   0.897   1.031
 3586HO4    HW114342   3.759   0.839   1.090
 3586HO4    HW214343   3.759   0.962   0.982
 3586HO4     MW14344   3.701   0.897   1.031
 3587HO4     OW14345   5.482   4.368   4.889
 3587HO4    HW114346   5.508   4.271   4.881
 3587HO4    HW214347   5.398   4.384   4.837
 3587HO4     MW14348   5.482   4.368   4.889
 3588HO4     OW14349   2.248   2.042   1.387
 3588HO4    HW114350   2.286   2.111   1.450
 3588HO4    HW214351   2.322   2.003   1.332
 3588HO4     MW14352   2.248   2.042   1.387
 3589HO4     OW14353   4.312   4.122   4.937
 3589HO4    HW114354   4.239   4.072   4.890
 3589HO4    HW214355   4.365   4.175   4.870
 3589HO4     MW14356   4.312   4.122   4.937
 3590HO4     OW14357   0.319   0.143   2.914
 3590HO4    HW114358   0.309   0.085   2.996
 3590HO4    HW214359   0.296   0.090   2.832
 3590HO4     MW14360   0.319   0.143   2.914
 3591HO4     OW14361   5.051   0.086   0.253
 3591HO4    HW114362   5.003   0.032   0.323
 3591HO4    HW214363   5.144   0.049   0.240
 3591HO4     MW14364   5.051   0.086   0.253
 3592HO4     OW14365   3.927   1.150   1.197
 3592HO4    HW114366   3.836   1.122   1.231
 3592HO4    HW214367   3.962   1.078   1.136
 3592HO4     MW14368   3.927   1.150   1.197
 3593HO4     OW14369   2.979   3.959   3.751
 3593HO4    HW114370   3.079   3.957   3.746
 3593HO4    HW214371   2.950   4.034   3.811
 3593HO4     MW14372   2.979   3.959   3.751
 3594HO4     OW14373   3.989   3.703   4.482
 3594HO4    HW114374   4.012   3.724   4.386
 3594HO4    HW214375   4.069   3.718   4.540
 3594HO4     MW14376   3.989   3.703   4.482
 3595HO4     OW14377   5.396   4.073   2.216
 3595HO4    HW114378   5.342   4.131   2.154
 3595HO4    HW214379   5.359   4.081   2.309
 3595HO4     MW14380   5.396   4.073   2.216
 3596HO4     OW14381   3.234   0.246   5.061
 3596HO4    HW114382   3.179   0.211   4.985
 3596HO4    HW214383   3.179   0.311   5.115
 3596HO4     MW14384   3.234   0.246   5.061
 3597HO4     OW14385   4.227   4.519   2.987
 3597HO4    HW114386   4.274   4.547   3.072
 3597HO4    HW214387   4.208   4.600   2.931
 3597HO4     MW14388   4.227   4.519   2.987
 3598HO4     OW14389   4.214   0.836   5.144
 3598HO4    HW114390   4.311   0.813   5.142
 3598HO4    HW214391   4.173   0.818   5.054
 3598HO4     MW14392   4.214   0.836   5.144
 3599HO4     OW14393   0.008   3.156   0.485
 3599HO4    HW114394   0.056   3.191   0.404
 3599HO4    HW214395   0.057   3.184   0.567
 3599HO4     MW14396   0.008   3.156   0.485
 3600HO4     OW14397   3.241   5.165   0.976
 3600HO4    HW114398   3.288   5.253   0.984
 3600HO4    HW214399   3.147   5.179   0.944
 3600HO4     MW14400   3.241   5.165   0.976
 3601HO4     OW14401   0.553   5.018   3.199
 3601HO4    HW114402   0.484   5.036   3.270
 3601HO4    HW214403   0.601   5.103   3.176
 3601HO4     MW14404   0.553   5.018   3.199
 3602HO4     OW14405   5.025   4.505   3.124
 3602HO4    HW114406   5.026   4.474   3.029
 3602HO4    HW214407   4.943   4.560   3.140
 3602HO4     MW14408   5.025   4.505   3.124
 3603HO4     OW14409   1.164   1.794   3.566
 3603HO4    HW114410   1.204   1.785   3.658
 3603HO4    HW214411   1.105   1.876   3.563
 3603HO4     MW14412   1.164   1.794   3.566
 3604HO4     OW14413   4.494   1.299   4.489
 3604HO4    HW114414   4.539   1.262   4.571
 3604HO4    HW214415   4.526   1.250   4.408
 3604HO4     MW14416   4.494   1.299   4.489
 3605HO4     OW14417   2.911   5.114   0.264
 3605HO4    HW114418   2.960   5.062   0.335
 3605HO4    HW214419   2.812   5.106   0.280
 3605HO4     MW14420   2.911   5.114   0.264
 3606HO4     OW14421   2.953   2.326   1.888
 3606HO4    HW114422   3.011   2.297   1.965
 3606HO4    HW214423   3.009   2.376   1.822
 3606HO4     MW14424   2.953   2.326   1.888
 3607HO4     OW14425   3.463   3.038   2.348
 3607HO4    HW114426   3.414   3.003   2.429
 3607HO4    HW214427   3.420   3.001   2.265
 3607HO4     MW14428   3.463   3.038   2.348
 3608HO4     OW14429   4.885   4.559   3.876
 3608HO4    HW114430   4.872   4.601   3.786
 3608HO4    HW214431   4.863   4.462   3.872
 3608HO4     MW14432   4.885   4.559   3.876
 3609HO4     OW14433   2.893   4.406   3.457
 3609HO4    HW114434   2.975   4.433   3.406
 3609HO4    HW214435   2.916   4.335   3.523
 3609HO4     MW14436   2.893   4.406   3.457
 3610HO4     OW14437   3.735   3.648   4.350
 3610HO4    HW114438   3.719   3.670   4.447
 3610HO4    HW214439   3.788   3.722   4.308
 3610HO4     MW14440   3.735   3.648   4.350
 3611HO4     OW14441   4.720   0.732   0.094
 3611HO4    HW114442   4.672   0.666   0.152
 3611HO4    HW214443   4.809   0.753   0.135
 3611HO4     MW14444   4.720   0.732   0.094
 3612HO4     OW14445   1.172   5.440   0.872
 3612HO4    HW114446   1.078   5.451   0.837
 3612HO4    HW214447   1.170   5.428   0.972
 3612HO4     MW14448   1.172   5.440   0.872
 3613HO4     OW14449   2.596   4.373   5.236
 3613HO4    HW114450   2.614   4.416   5.147
 3613HO4    HW214451   2.640   4.427   5.309
 3613HO4     MW14452   2.596   4.373   5.236
 3614HO4     OW14453   4.161   4.554   4.272
 3614HO4    HW114454   4.235   4.561   4.339
 3614HO4    HW214455   4.197   4.571   4.179
 3614HO4     MW14456   4.161   4.554   4.272
 3615HO4     OW14457   2.392   1.716   4.050
 3615HO4    HW114458   2.471   1.666   4.011
 3615HO4    HW214459   2.411   1.815   4.047
 3615HO4     MW14460   2.392   1.716   4.050
 3616HO4     OW14461   3.120   2.232   1.782
 3616HO4    HW114462   3.136   2.150   1.725
 3616HO4    HW214463   3.119   2.313   1.723
 3616HO4     MW14464   3.120   2.232   1.782
 3617HO4     OW14465   2.420   0.943   2.633
 3617HO4    HW114466   2.506   0.912   2.674
 3617HO4    HW214467   2.350   0.951   2.705
 3617HO4     MW14468   2.420   0.943   2.633
 3618HO4     OW14469   1.971   0.525   3.746
 3618HO4    HW114470   1.971   0.510   3.646
 3618HO4    HW214471   1.930   0.446   3.792
 3618HO4     MW14472   1.971   0.525   3.746
 3619HO4     OW14473   1.174   0.675   2.156
 3619HO4    HW114474   1.195   0.584   2.120
 3619HO4    HW214475   1.258   0.732   2.156
 3619HO4     MW14476   1.174   0.675   2.156
 3620HO4     OW14477   2.892   1.323   1.592
 3620HO4    HW114478   2.831   1.252   1.555
 3620HO4    HW214479   2.926   1.380   1.517
 3620HO4     MW14480   2.892   1.323   1.592
 3621HO4     OW14481   4.996   3.148   1.884
 3621HO4    HW114482   4.941   3.136   1.967
 3621HO4    HW214483   4.940   3.127   1.804
 3621HO4     MW14484   4.996   3.148   1.884
 3622HO4     OW14485   0.447   4.440   4.157
 3622HO4    HW114486   0.460   4.450   4.058
 3622HO4    HW214487   0.535   4.453   4.204
 3622HO4     MW14488   0.447   4.440   4.157
 3623HO4     OW14489   4.283   0.172   5.150
 3623HO4    HW114490   4.231   0.204   5.070
 3623HO4    HW214491   4.324   0.250   5.197
 3623HO4     MW14492   4.283   0.172   5.150
 3624HO4     OW14493   3.407   2.122   2.272
 3624HO4    HW114494   3.385   2.040   2.218
 3624HO4    HW214495   3.489   2.166   2.234
 3624HO4     MW14496   3.407   2.122   2.272
 3625HO4     OW14497   3.138   0.628   2.602
 3625HO4    HW114498   3.131   0.568   2.682
 3625HO4    HW214499   3.157   0.574   2.520
 3625HO4     MW14500   3.138   0.628   2.602
 3626HO4     OW14501   4.867   0.590   4.569
 3626HO4    HW114502   4.894   0.529   4.645
 3626HO4    HW214503   4.940   0.591   4.500
 3626HO4     MW14504   4.867   0.590   4.569
 3627HO4     OW14505   5.228   1.968   0.957
 3627HO4    HW114506   5.271   1.923   1.037
 3627HO4    HW214507   5.258   1.922   0.873
 3627HO4     MW14508   5.228   1.968   0.957
 3628HO4     OW14509   1.521   3.600   2.088
 3628HO4    HW114510   1.512   3.662   2.167
 3628HO4    HW214511   1.447   3.618   2.023
 3628HO4     MW14512   1.521   3.600   2.088
 3629HO4     OW14513   0.485   0.088   4.163
 3629HO4    HW114514   0.418   0.133   4.223
 3629HO4    HW214515   0.552   0.037   4.220
 3629HO4     MW14516   0.485   0.088   4.163
 3630HO4     OW14517   4.434   4.413   5.320
 3630HO4    HW114518   4.385   4.429   5.407
 3630HO4    HW214519   4.391   4.466   5.247
 3630HO4     MW14520   4.434   4.413   5.320
 3631HO4     OW14521   2.842   4.776   1.248
 3631HO4    HW114522   2.756   4.780   1.298
 3631HO4    HW214523   2.908   4.718   1.298
 3631HO4     MW14524   2.842   4.776   1.248
 3632HO4     OW14525   2.193   4.907   0.103
 3632HO4    HW114526   2.195   5.007   0.096
 3632HO4    HW214527   2.199   4.880   0.200
 3632HO4     MW14528   2.193   4.907   0.103
 3633HO4     OW14529   2.949   0.854   4.212
 3633HO4    HW114530   2.967   0.843   4.311
 3633HO4    HW214531   2.986   0.774   4.163
 3633HO4     MW14532   2.949   0.854   4.212
 3634HO4     OW14533   3.597   2.549   4.202
 3634HO4    HW114534   3.648   2.478   4.252
 3634HO4    HW214535   3.531   2.592   4.263
 3634HO4     MW14536   3.597   2.549   4.202
 3635HO4     OW14537   0.079   3.557   1.721
 3635HO4    HW114538   0.072   3.582   1.818
 3635HO4    HW214539  -0.011   3.527   1.688
 3635HO4     MW14540   0.079   3.557   1.721
 3636HO4     OW14541   2.320   3.727   1.806
 3636HO4    HW114542   2.269   3.698   1.887
 3636HO4    HW214543   2.412   3.755   1.832
 3636HO4     MW14544   2.320   3.727   1.806
 3637HO4     OW14545   0.030   2.624   4.012
 3637HO4    HW114546  -0.018   2.576   3.938
 3637HO4    HW214547   0.092   2.692   3.972
 3637HO4     MW14548   0.030   2.624   4.012
 3638HO4     OW14549   1.812   0.774   0.650
 3638HO4    HW114550   1.890   0.774   0.587
 3638HO4    HW214551   1.772   0.681   0.654
 3638HO4     MW14552   1.812   0.774   0.650
 3639HO4     OW14553   3.930   5.313   2.979
 3639HO4    HW114554   3.950   5.404   3.016
 3639HO4    HW214555   3.870   5.322   2.899
 3639HO4     MW14556   3.930   5.313   2.979
 3640HO4     OW14557   2.518   2.272   4.631
 3640HO4    HW114558   2.430   2.232   4.603
 3640HO4    HW214559   2.543   2.345   4.567
 3640HO4     MW14560   2.518   2.272   4.631
 3641HO4     OW14561   4.248   1.740   4.919
 3641HO4    HW114562   4.266   1.752   5.017
 3641HO4    HW214563   4.335   1.748   4.868
 3641HO4     MW14564   4.248   1.740   4.919
 3642HO4     OW14565   0.825   1.241   4.403
 3642HO4    HW114566   0.877   1.280   4.479
 3642HO4    HW214567   0.756   1.177   4.439
 3642HO4     MW14568   0.825   1.241   4.403
 3643HO4     OW14569   5.140   5.080   2.000
 3643HO4    HW114570   5.161   5.056   2.095
 3643HO4    HW214571   5.168   5.004   1.940
 3643HO4     MW14572   5.140   5.080   2.000
 3644HO4     OW14573   4.965   3.352   3.318
 3644HO4    HW114574   5.062   3.336   3.303
 3644HO4    HW214575   4.911   3.281   3.273
 3644HO4     MW14576   4.965   3.352   3.318
 3645HO4     OW14577   4.475   1.978   2.207
 3645HO4    HW114578   4.508   1.884   2.194
 3645HO4    HW214579   4.407   1.980   2.280
 3645HO4     MW14580   4.475   1.978   2.207
 3646HO4     OW14581   1.377   3.361   2.499
 3646HO4    HW114582   1.370   3.421   2.419
 3646HO4    HW214583   1.422   3.275   2.472
 3646HO4     MW14584   1.377   3.361   2.499
 3647HO4     OW14585   4.375   2.530   0.029
 3647HO4    HW114586   4.450   2.482   0.075
 3647HO4    HW214587   4.288   2.503   0.070
 3647HO4     MW14588   4.375   2.530   0.029
 3648HO4     OW14589   3.549   5.465   2.559
 3648HO4    HW114590   3.530   5.366   2.560
 3648HO4    HW214591   3.584   5.491   2.468
 3648HO4     MW14592   3.549   5.465   2.559
 3649HO4     OW14593   0.060   1.086   1.297
 3649HO4    HW114594   0.067   1.177   1.339
 3649HO4    HW214595   0.102   1.018   1.357
 3649HO4     MW14596   0.060   1.086   1.297
 3650HO4     OW14597   1.571   4.755   4.291
 3650HO4    HW114598   1.543   4.851   4.283
 3650HO4    HW214599   1.523   4.713   4.368
 3650HO4     MW14600   1.571   4.755   4.291
 3651HO4     OW14601   2.775   0.294   2.200
 3651HO4    HW114602   2.848   0.277   2.133
 3651HO4    HW214603   2.810   0.280   2.293
 3651HO4     MW14604   2.775   0.294   2.200
 3652HO4     OW14605   0.969   5.091   5.102
 3652HO4    HW114606   0.939   4.995   5.102
 3652HO4    HW214607   0.955   5.130   5.194
 3652HO4     MW14608   0.969   5.091   5.102
 3653HO4     OW14609   3.373   2.349   3.483
 3653HO4    HW114610   3.398   2.408   3.560
 3653HO4    HW214611   3.430   2.267   3.484
 3653HO4     MW14612   3.373   2.349   3.483
 3654HO4     OW14613   0.958   1.937   2.491
 3654HO4    HW114614   0.907   1.967   2.410
 3654HO4    HW214615   0.895   1.922   2.567
 3654HO4     MW14616   0.958   1.937   2.491
 3655HO4     OW14617   0.144   3.660   0.763
 3655HO4    HW114618   0.144   3.748   0.812
 3655HO4    HW214619   0.181   3.588   0.822
 3655HO4     MW14620   0.144   3.660   0.763
 3656HO4     OW14621   2.209   3.922   1.880
 3656HO4    HW114622   2.209   3.877   1.970
 3656HO4    HW214623   2.124   3.900   1.831
 3656HO4     MW14624   2.209   3.922   1.880
 3657HO4     OW14625   4.791   1.003   0.585
 3657HO4    HW114626   4.825   1.047   0.669
 3657HO4    HW214627   4.862   1.010   0.514
 3657HO4     MW14628   4.791   1.003   0.585
 3658HO4     OW14629   1.772   4.532   5.098
 3658HO4    HW114630   1.673   4.535   5.116
 3658HO4    HW214631   1.788   4.522   5.000
 3658HO4     MW14632   1.772   4.532   5.098
 3659HO4     OW14633   3.386   2.444   2.895
 3659HO4    HW114634   3.349   2.497   2.972
 3659HO4    HW214635   3.312   2.423   2.830
 3659HO4     MW14636   3.386   2.444   2.895
 3660HO4     OW14637   4.018   1.741   4.352
 3660HO4    HW114638   3.931   1.766   4.396
 3660HO4    HW214639   4.000   1.704   4.260
 3660HO4     MW14640   4.018   1.741   4.352
 3661HO4     OW14641   4.737   3.778   3.071
 3661HO4    HW114642   4.760   3.686   3.103
 3661HO4    HW214643   4.654   3.775   3.015
 3661HO4     MW14644   4.737   3.778   3.071
 3662HO4     OW14645   3.024   2.688   4.106
 3662HO4    HW114646   3.066   2.598   4.090
 3662HO4    HW214647   2.932   2.690   4.067
 3662HO4     MW14648   3.024   2.688   4.106
 3663HO4     OW14649   3.665   1.473   0.286
 3663HO4    HW114650   3.663   1.555   0.228
 3663HO4    HW214651   3.733   1.409   0.251
 3663HO4     MW14652   3.665   1.473   0.286
 3664HO4     OW14653   2.393   2.225   1.141
 3664HO4    HW114654   2.464   2.281   1.185
 3664HO4    HW214655   2.314   2.217   1.202
 3664HO4     MW14656   2.393   2.225   1.141
 3665HO4     OW14657   0.766   1.511   0.605
 3665HO4    HW114658   0.817   1.509   0.519
 3665HO4    HW214659   0.827   1.488   0.681
 3665HO4     MW14660   0.766   1.511   0.605
 3666HO4     OW14661   4.333   1.759   1.969
 3666HO4    HW114662   4.381   1.844   1.989
 3666HO4    HW214663   4.399   1.684   1.958
 3666HO4     MW14664   4.333   1.759   1.969
 3667HO4     OW14665   0.733   2.757   1.496
 3667HO4    HW114666   0.767   2.686   1.433
 3667HO4    HW214667   0.659   2.719   1.552
 3667HO4     MW14668   0.733   2.757   1.496
 3668HO4     OW14669   0.485   4.214   1.348
 3668HO4    HW114670   0.461   4.262   1.263
 3668HO4    HW214671   0.403   4.208   1.407
 3668HO4     MW14672   0.485   4.214   1.348
 3669HO4     OW14673   3.891   4.820   4.614
 3669HO4    HW114674   3.836   4.837   4.696
 3669HO4    HW214675   3.830   4.803   4.536
 3669HO4     MW14676   3.891   4.820   4.614
 3670HO4     OW14677   2.799   0.848   0.547
 3670HO4    HW114678   2.799   0.856   0.647
 3670HO4    HW214679   2.725   0.788   0.517
 3670HO4     MW14680   2.799   0.848   0.547
 3671HO4     OW14681   4.977   3.767   2.903
 3671HO4    HW114682   5.077   3.776   2.902
 3671HO4    HW214683   4.937   3.842   2.956
 3671HO4     MW14684   4.977   3.767   2.903
 3672HO4     OW14685   3.744   2.635   0.976
 3672HO4    HW114686   3.658   2.664   0.933
 3672HO4    HW214687   3.812   2.615   0.906
 3672HO4     MW14688   3.744   2.635   0.976
 3673HO4     OW14689   0.386   5.049   4.774
 3673HO4    HW114690   0.327   5.051   4.692
 3673HO4    HW214691   0.329   5.048   4.856
 3673HO4     MW14692   0.386   5.049   4.774
 3674HO4     OW14693   0.103   0.869   1.939
 3674HO4    HW114694   0.150   0.910   1.861
 3674HO4    HW214695   0.139   0.777   1.956
 3674HO4     MW14696   0.103   0.869   1.939
 3675HO4     OW14697   1.119   2.895   1.851
 3675HO4    HW114698   1.036   2.943   1.821
 3675HO4    HW214699   1.117   2.801   1.816
 3675HO4     MW14700   1.119   2.895   1.851
 3676HO4     OW14701   5.297   0.373   2.559
 3676HO4    HW114702   5.236   0.399   2.483
 3676HO4    HW214703   5.242   0.349   2.639
 3676HO4     MW14704   5.297   0.373   2.559
 3677HO4     OW14705   3.922   0.381   3.755
 3677HO4    HW114706   4.022   0.391   3.749
 3677HO4    HW214707   3.881   0.470   3.776
 3677HO4     MW14708   3.922   0.381   3.755
 3678HO4     OW14709   2.732   3.030   2.978
 3678HO4    HW114710   2.632   3.033   2.981
 3678HO4    HW214711   2.768   3.018   3.072
 3678HO4     MW14712   2.732   3.030   2.978
 3679HO4     OW14713   4.674   2.783   1.471
 3679HO4    HW114714   4.657   2.741   1.381
 3679HO4    HW214715   4.763   2.752   1.506
 3679HO4     MW14716   4.674   2.783   1.471
 3680HO4     OW14717   2.835   2.561   1.810
 3680HO4    HW114718   2.827   2.646   1.758
 3680HO4    HW214719   2.929   2.552   1.845
 3680HO4     MW14720   2.835   2.561   1.810
 3681HO4     OW14721   1.314   0.849   1.429
 3681HO4    HW114722   1.364   0.920   1.480
 3681HO4    HW214723   1.378   0.798   1.372
 3681HO4     MW14724   1.314   0.849   1.429
 3682HO4     OW14725   4.298   3.299   1.514
 3682HO4    HW114726   4.242   3.284   1.432
 3682HO4    HW214727   4.264   3.241   1.589
 3682HO4     MW14728   4.298   3.299   1.514
 3683HO4     OW14729   0.965   0.494   5.450
 3683HO4    HW114730   1.010   0.531   5.532
 3683HO4    HW214731   1.010   0.531   5.368
 3683HO4     MW14732   0.965   0.494   5.450
 3684HO4     OW14733   5.217   2.840   4.278
 3684HO4    HW114734   5.253   2.933   4.291
 3684HO4    HW214735   5.180   2.805   4.365
 3684HO4     MW14736   5.217   2.840   4.278
 3685HO4     OW14737   3.674   2.231   0.731
 3685HO4    HW114738   3.731   2.211   0.651
 3685HO4    HW214739   3.725   2.210   0.815
 3685HO4     MW14740   3.674   2.231   0.731
 3686HO4     OW14741   1.149   2.700   1.957
 3686HO4    HW114742   1.212   2.744   2.021
 3686HO4    HW214743   1.200   2.670   1.875
 3686HO4     MW14744   1.149   2.700   1.957
 3687HO4     OW14745   0.851   4.951   4.421
 3687HO4    HW114746   0.811   4.980   4.333
 3687HO4    HW214747   0.780   4.952   4.492
 3687HO4     MW14748   0.851   4.951   4.421
 3688HO4     OW14749   4.664   0.186   2.895
 3688HO4    HW114750   4.683   0.211   2.800
 3688HO4    HW214751   4.569   0.209   2.918
 3688HO4     MW14752   4.664   0.186   2.895
 3689HO4     OW14753   1.346   2.189   2.690
 3689HO4    HW114754   1.337   2.283   2.722
 3689HO4    HW214755   1.295   2.178   2.603
 3689HO4     MW14756   1.346   2.189   2.690
 3690HO4     OW14757   3.679   4.714   1.998
 3690HO4    HW114758   3.681   4.787   2.066
 3690HO4    HW214759   3.643   4.749   1.911
 3690HO4     MW14760   3.679   4.714   1.998
 3691HO4     OW14761   3.254   2.552   1.503
 3691HO4    HW114762   3.157   2.533   1.519
 3691HO4    HW214763   3.297   2.587   1.587
 3691HO4     MW14764   3.254   2.552   1.503
 3692HO4     OW14765   5.131   4.321   0.979
 3692HO4    HW114766   5.068   4.261   0.928
 3692HO4    HW214767   5.099   4.330   1.074
 3692HO4     MW14768   5.131   4.321   0.979
 3693HO4     OW14769   0.670   0.980   0.693
 3693HO4    HW114770   0.677   1.032   0.608
 3693HO4    HW214771   0.674   1.043   0.772
 3693HO4     MW14772   0.670   0.980   0.693
 3694HO4     OW14773   3.123   3.386   0.627
 3694HO4    HW114774   3.121   3.288   0.608
 3694HO4    HW214775   3.174   3.433   0.555
 3694HO4     MW14776   3.123   3.386   0.627
 3695HO4     OW14777   3.383   1.351   1.476
 3695HO4    HW114778   3.343   1.356   1.384
 3695HO4    HW214779   3.444   1.429   1.491
 3695HO4     MW14780   3.383   1.351   1.476
 3696HO4     OW14781   4.519   1.880   1.499
 3696HO4    HW114782   4.470   1.798   1.532
 3696HO4    HW214783   4.514   1.884   1.399
 3696HO4     MW14784   4.519   1.880   1.499
 3697HO4     OW14785   5.243   0.470   5.319
 3697HO4    HW114786   5.324   0.425   5.281
 3697HO4    HW214787   5.160   0.428   5.280
 3697HO4     MW14788   5.243   0.470   5.319
 3698HO4     OW14789   3.044   5.262   3.860
 3698HO4    HW114790   2.984   5.315   3.921
 3698HO4    HW214791   3.017   5.165   3.861
 3698HO4     MW14792   3.044   5.262   3.860
 3699HO4     OW14793   0.532   4.503   4.846
 3699HO4    HW114794   0.616   4.516   4.792
 3699HO4    HW214795   0.453   4.495   4.784
 3699HO4     MW14796   0.532   4.503   4.846
 3700HO4     OW14797   4.716   2.356   1.227
 3700HO4    HW114798   4.674   2.425   1.167
 3700HO4    HW214799   4.655   2.276   1.234
 3700HO4     MW14800   4.716   2.356   1.227
 3701HO4     OW14801   0.322   4.818   1.759
 3701HO4    HW114802   0.342   4.862   1.671
 3701HO4    HW214803   0.376   4.862   1.831
 3701HO4     MW14804   0.322   4.818   1.759
 3702HO4     OW14805   1.186   3.219   4.041
 3702HO4    HW114806   1.260   3.257   4.097
 3702HO4    HW214807   1.103   3.209   4.098
 3702HO4     MW14808   1.186   3.219   4.041
 3703HO4     OW14809   1.618   2.117   3.786
 3703HO4    HW114810   1.593   2.202   3.833
 3703HO4    HW214811   1.686   2.067   3.841
 3703HO4     MW14812   1.618   2.117   3.786
 3704HO4     OW14813   4.432   1.064   4.527
 3704HO4    HW114814   4.355   0.999   4.528
 3704HO4    HW214815   4.518   1.013   4.515
 3704HO4     MW14816   4.432   1.064   4.527
 3705HO4     OW14817   0.735   1.336   1.265
 3705HO4    HW114818   0.712   1.277   1.187
 3705HO4    HW214819   0.757   1.279   1.345
 3705HO4     MW14820   0.735   1.336   1.265
 3706HO4     OW14821   5.302   0.743   5.001
 3706HO4    HW114822   5.251   0.796   5.069
 3706HO4    HW214823   5.276   0.646   5.006
 3706HO4     MW14824   5.302   0.743   5.001
 3707HO4     OW14825   4.564   5.250   0.136
 3707HO4    HW114826   4.557   5.329   0.198
 3707HO4    HW214827   4.644   5.195   0.161
 3707HO4     MW14828   4.564   5.250   0.136
 3708HO4     OW14829   1.701   3.462   4.406
 3708HO4    HW114830   1.688   3.481   4.504
 3708HO4    HW214831   1.722   3.365   4.393
 3708HO4     MW14832   1.701   3.462   4.406
 3709HO4     OW14833   2.188   4.557   5.230
 3709HO4    HW114834   2.115   4.563   5.298
 3709HO4    HW214835   2.160   4.606   5.147
 3709HO4     MW14836   2.188   4.557   5.230
 3710HO4     OW14837   2.110   3.415   0.865
 3710HO4    HW114838   2.205   3.424   0.896
 3710HO4    HW214839   2.104   3.343   0.796
 3710HO4     MW14840   2.110   3.415   0.865
 3711HO4     OW14841   3.768   2.275   5.207
 3711HO4    HW114842   3.747   2.196   5.265
 3711HO4    HW214843   3.714   2.269   5.123
 3711HO4     MW14844   3.768   2.275   5.207
 3712HO4     OW14845   4.111   5.432   0.306
 3712HO4    HW114846   4.089   5.373   0.228
 3712HO4    HW214847   4.027   5.471   0.344
 3712HO4     MW14848   4.111   5.432   0.306
 3713HO4     OW14849   1.773   4.356   5.470
 3713HO4    HW114850   1.751   4.409   5.387
 3713HO4    HW214851   1.750   4.412   5.551
 3713HO4     MW14852   1.773   4.356   5.470
 3714HO4     OW14853   2.680   5.180   0.395
 3714HO4    HW114854   2.740   5.229   0.459
 3714HO4    HW214855   2.664   5.087   0.429
 3714HO4     MW14856   2.680   5.180   0.395
 3715HO4     OW14857   1.805   4.300   4.544
 3715HO4    HW114858   1.729   4.353   4.582
 3715HO4    HW214859   1.890   4.327   4.591
 3715HO4     MW14860   1.805   4.300   4.544
 3716HO4     OW14861   3.272   4.379   5.381
 3716HO4    HW114862   3.328   4.351   5.302
 3716HO4    HW214863   3.313   4.343   5.465
 3716HO4     MW14864   3.272   4.379   5.381
 3717HO4     OW14865   3.272   4.255   2.635
 3717HO4    HW114866   3.304   4.205   2.716
 3717HO4    HW214867   3.252   4.190   2.561
 3717HO4     MW14868   3.272   4.255   2.635
 3718HO4     OW14869   3.757   3.177   1.771
 3718HO4    HW114870   3.782   3.123   1.852
 3718HO4    HW214871   3.758   3.117   1.690
 3718HO4     MW14872   3.757   3.177   1.771
 3719HO4     OW14873   4.904   0.601   3.655
 3719HO4    HW114874   4.877   0.504   3.652
 3719HO4    HW214875   4.826   0.658   3.627
 3719HO4     MW14876   4.904   0.601   3.655
 3720HO4     OW14877   3.625   3.134   3.544
 3720HO4    HW114878   3.625   3.196   3.623
 3720HO4    HW214879   3.542   3.151   3.489
 3720HO4     MW14880   3.625   3.134   3.544
 3721HO4     OW14881   2.965   3.974   3.459
 3721HO4    HW114882   2.938   3.942   3.368
 3721HO4    HW214883   2.889   4.027   3.500
 3721HO4     MW14884   2.965   3.974   3.459
 3722HO4     OW14885   2.890   5.004   2.976
 3722HO4    HW114886   2.863   5.001   2.879
 3722HO4    HW214887   2.820   5.053   3.028
 3722HO4     MW14888   2.890   5.004   2.976
 3723HO4     OW14889   4.583   3.178   2.215
 3723HO4    HW114890   4.651   3.144   2.149
 3723HO4    HW214891   4.611   3.154   2.308
 3723HO4     MW14892   4.583   3.178   2.215
 3724HO4     OW14893   2.234   4.463   4.441
 3724HO4    HW114894   2.282   4.515   4.512
 3724HO4    HW214895   2.170   4.523   4.392
 3724HO4     MW14896   2.234   4.463   4.441
 3725HO4     OW14897   4.166   3.708   4.859
 3725HO4    HW114898   4.131   3.615   4.851
 3725HO4    HW214899   4.239   3.711   4.928
 3725HO4     MW14900   4.166   3.708   4.859
 3726HO4     OW14901   2.153   3.767   0.093
 3726HO4    HW114902   2.153   3.768   0.193
 3726HO4    HW214903   2.059   3.756   0.059
 3726HO4     MW14904   2.153   3.767   0.093
 3727HO4     OW14905   3.848   2.422   3.972
 3727HO4    HW114906   3.785   2.430   4.050
 3727HO4    HW214907   3.796   2.437   3.887
 3727HO4     MW14908   3.848   2.422   3.972
 3728HO4     OW14909   3.840   5.011   0.462
 3728HO4    HW114910   3.775   4.996   0.387
 3728HO4    HW214911   3.792   5.005   0.550
 3728HO4     MW14912   3.840   5.011   0.462
 3729HO4     OW14913   4.478   1.662   0.923
 3729HO4    HW114914   4.540   1.709   0.859
 3729HO4    HW214915   4.502   1.565   0.927
 3729HO4     MW14916   4.478   1.662   0.923
 3730HO4     OW14917   1.150   5.009  -0.017
 3730HO4    HW114918   1.173   4.995   0.080
 3730HO4    HW214919   1.065   5.061  -0.024
 3730HO4     MW14920   1.150   5.009  -0.017
 3731HO4     OW14921   4.201   2.996   0.887
 3731HO4    HW114922   4.145   3.075   0.915
 3731HO4    HW214923   4.144   2.914   0.883
 3731HO4     MW14924   4.201   2.996   0.887
 3732HO4     OW14925   4.958   2.091   0.509
 3732HO4    HW114926   4.922   2.135   0.426
 3732HO4    HW214927   4.907   2.125   0.589
 3732HO4     MW14928   4.958   2.091   0.509
 3733HO4     OW14929   4.793   1.335   1.694
 3733HO4    HW114930   4.870   1.346   1.758
 3733HO4    HW214931   4.788   1.240   1.663
 3733HO4     MW14932   4.793   1.335   1.694
 3734HO4     OW14933   2.794   3.543   0.305
 3734HO4    HW114934   2.708   3.592   0.324
 3734HO4    HW214935   2.831   3.508   0.392
 3734HO4     MW14936   2.794   3.543   0.305
 3735HO4     OW14937   0.521   4.406   2.489
 3735HO4    HW114938   0.483   4.457   2.566
 3735HO4    HW214939   0.512   4.460   2.405
 3735HO4     MW14940   0.521   4.406   2.489
 3736HO4     OW14941   3.523   3.513   5.323
 3736HO4    HW114942   3.623   3.512   5.316
 3736HO4    HW214943   3.489   3.420   5.338
 3736HO4     MW14944   3.523   3.513   5.323
 3737HO4     OW14945   3.867   1.776   0.604
 3737HO4    HW114946   3.917   1.811   0.684
 3737HO4    HW214947   3.913   1.807   0.520
 3737HO4     MW14948   3.867   1.776   0.604
 3738HO4     OW14949   2.866   3.306   1.983
 3738HO4    HW114950   2.924   3.387   1.999
 3738HO4    HW214951   2.781   3.334   1.936
 3738HO4     MW14952   2.866   3.306   1.983
 3739HO4     OW14953   3.765   2.621   0.641
 3739HO4    HW114954   3.795   2.571   0.723
 3739HO4    HW214955   3.794   2.571   0.559
 3739HO4     MW14956   3.765   2.621   0.641
 3740HO4     OW14957   0.147   3.962   0.798
 3740HO4    HW114958   0.236   3.990   0.834
 3740HO4    HW214959   0.098   3.908   0.868
 3740HO4     MW14960   0.147   3.962   0.798
 3741HO4     OW14961   0.245   0.352   2.325
 3741HO4    HW114962   0.293   0.280   2.274
 3741HO4    HW214963   0.247   0.331   2.423
 3741HO4     MW14964   0.245   0.352   2.325
 3742HO4     OW14965   5.169   3.078   2.690
 3742HO4    HW114966   5.205   3.104   2.600
 3742HO4    HW214967   5.161   2.978   2.695
 3742HO4     MW14968   5.169   3.078   2.690
 3743HO4     OW14969   4.273   1.483   0.840
 3743HO4    HW114970   4.350   1.444   0.789
 3743HO4    HW214971   4.305   1.563   0.892
 3743HO4     MW14972   4.273   1.483   0.840
 3744HO4     OW14973   3.790   4.518   5.210
 3744HO4    HW114974   3.792   4.508   5.310
 3744HO4    HW214975   3.706   4.565   5.183
 3744HO4     MW14976   3.790   4.518   5.210
 3745HO4     OW14977   4.137   5.280   1.222
 3745HO4    HW114978   4.106   5.371   1.251
 3745HO4    HW214979   4.230   5.265   1.254
 3745HO4     MW14980   4.137   5.280   1.222
 3746HO4     OW14981   3.076   4.525   4.182
 3746HO4    HW114982   3.044   4.561   4.094
 3746HO4    HW214983   3.031   4.576   4.257
 3746HO4     MW14984   3.076   4.525   4.182
 3747HO4     OW14985   1.314   0.989   5.197
 3747HO4    HW114986   1.254   0.970   5.119
 3747HO4    HW214987   1.330   1.088   5.204
 3747HO4     MW14988   1.314   0.989   5.197
 3748HO4     OW14989   3.669   3.279   5.389
 3748HO4    HW114990   3.745   3.241   5.335
 3748HO4    HW214991   3.701   3.358   5.442
 3748HO4     MW14992   3.669   3.279   5.389
 3749HO4     OW14993   4.716   0.412   4.315
 3749HO4    HW114994   4.661   0.383   4.394
 3749HO4    HW214995   4.654   0.442   4.241
 3749HO4     MW14996   4.716   0.412   4.315
 3750HO4     OW14997   1.606   3.664   4.233
 3750HO4    HW114998   1.672   3.602   4.276
 3750HO4    HW214999   1.610   3.653   4.133
 3750HO4     MW15000   1.606   3.664   4.233
 3751HO4     OW15001   1.837   4.957   1.547
 3751HO4    HW115002   1.872   5.045   1.516
 3751HO4    HW215003   1.912   4.890   1.551
 3751HO4     MW15004   1.837   4.957   1.547
 3752HO4     OW15005   0.800   0.869   4.980
 3752HO4    HW115006   0.817   0.958   5.021
 3752HO4    HW215007   0.747   0.881   4.895
 3752HO4     MW15008   0.800   0.869   4.980
 3753HO4     OW15009   4.101   1.538   2.895
 3753HO4    HW115010   4.104   1.636   2.876
 3753HO4    HW215011   4.194   1.502   2.904
 3753HO4     MW15012   4.101   1.538   2.895
 3754HO4     OW15013   3.650   1.403   2.548
 3754HO4    HW115014   3.715   1.364   2.614
 3754HO4    HW215015   3.676   1.376   2.455
 3754HO4     MW15016   3.650   1.403   2.548
 3755HO4     OW15017   2.139   5.135   3.628
 3755HO4    HW115018   2.110   5.051   3.674
 3755HO4    HW215019   2.064   5.203   3.632
 3755HO4     MW15020   2.139   5.135   3.628
 3756HO4     OW15021   1.374   0.964   0.392
 3756HO4    HW115022   1.443   1.036   0.379
 3756HO4    HW215023   1.358   0.917   0.305
 3756HO4     MW15024   1.374   0.964   0.392
 3757HO4     OW15025   1.466   3.383   1.826
 3757HO4    HW115026   1.479   3.286   1.803
 3757HO4    HW215027   1.421   3.430   1.750
 3757HO4     MW15028   1.466   3.383   1.826
 3758HO4     OW15029   1.562   2.960   2.997
 3758HO4    HW115030   1.592   2.989   3.089
 3758HO4    HW215031   1.487   3.020   2.967
 3758HO4     MW15032   1.562   2.960   2.997
 3759HO4     OW15033   0.740   5.212   5.250
 3759HO4    HW115034   0.654   5.245   5.211
 3759HO4    HW215035   0.721   5.162   5.335
 3759HO4     MW15036   0.740   5.212   5.250
 3760HO4     OW15037   2.612   4.575   3.975
 3760HO4    HW115038   2.614   4.574   3.875
 3760HO4    HW215039   2.683   4.514   4.011
 3760HO4     MW15040   2.612   4.575   3.975
 3761HO4     OW15041   4.418   3.714   4.603
 3761HO4    HW115042   4.406   3.694   4.506
 3761HO4    HW215043   4.513   3.694   4.630
 3761HO4     MW15044   4.418   3.714   4.603
 3762HO4     OW15045   5.024   4.220   1.251
 3762HO4    HW115046   5.113   4.262   1.233
 3762HO4    HW215047   4.970   4.217   1.166
 3762HO4     MW15048   5.024   4.220   1.251
 3763HO4     OW15049   2.805   2.668   4.813
 3763HO4    HW115050   2.772   2.748   4.762
 3763HO4    HW215051   2.888   2.693   4.864
 3763HO4     MW15052   2.805   2.668   4.813
 3764HO4     OW15053   3.979   3.695   1.401
 3764HO4    HW115054   4.057   3.633   1.388
 3764HO4    HW215055   3.936   3.677   1.490
 3764HO4     MW15056   3.979   3.695   1.401
 3765HO4     OW15057   2.398   3.283   4.697
 3765HO4    HW115058   2.348   3.327   4.772
 3765HO4    HW215059   2.354   3.306   4.610
 3765HO4     MW15060   2.398   3.283   4.697
 3766HO4     OW15061   3.271   1.792   0.998
 3766HO4    HW115062   3.222   1.821   1.081
 3766HO4    HW215063   3.225   1.830   0.917
 3766HO4     MW15064   3.271   1.792   0.998
 3767HO4     OW15065   0.627   5.101   2.886
 3767HO4    HW115066   0.557   5.049   2.936
 3767HO4    HW215067   0.697   5.134   2.951
 3767HO4     MW15068   0.627   5.101   2.886
 3768HO4     OW15069   3.347   1.285   2.239
 3768HO4    HW115070   3.295   1.277   2.154
 3768HO4    HW215071   3.286   1.315   2.313
 3768HO4     MW15072   3.347   1.285   2.239
 3769HO4     OW15073   2.518   1.409   3.438
 3769HO4    HW115074   2.441   1.469   3.463
 3769HO4    HW215075   2.535   1.343   3.512
 3769HO4     MW15076   2.518   1.409   3.438
 3770HO4     OW15077   3.918   3.874   3.319
 3770HO4    HW115078   3.918   3.864   3.219
 3770HO4    HW215079   3.848   3.941   3.346
 3770HO4     MW15080   3.918   3.874   3.319
 3771HO4     OW15081   1.524   0.051   1.193
 3771HO4    HW115082   1.517  -0.035   1.245
 3771HO4    HW215083   1.539   0.031   1.096
 3771HO4     MW15084   1.524   0.051   1.193
 3772HO4     OW15085   0.415   5.254   4.464
 3772HO4    HW115086   0.469   5.266   4.380
 3772HO4    HW215087   0.392   5.157   4.476
 3772HO4     MW15088   0.415   5.254   4.464
 3773HO4     OW15089   3.193   2.548   1.184
 3773HO4    HW115090   3.181   2.547   1.084
 3773HO4    HW215091   3.165   2.460   1.222
 3773HO4     MW15092   3.193   2.548   1.184
 3774HO4     OW15093   0.592   1.183   4.061
 3774HO4    HW115094   0.559   1.120   3.989
 3774HO4    HW215095   0.679   1.148   4.098
 3774HO4     MW15096   0.592   1.183   4.061
 3775HO4     OW15097   1.601   1.950   5.281
 3775HO4    HW115098   1.505   1.962   5.253
 3775HO4    HW215099   1.642   1.873   5.230
 3775HO4     MW15100   1.601   1.950   5.281
 3776HO4     OW15101   4.674   3.824   3.382
 3776HO4    HW115102   4.616   3.811   3.463
 3776HO4    HW215103   4.622   3.872   3.311
 3776HO4     MW15104   4.674   3.824   3.382
 3777HO4     OW15105   0.822   4.335   2.526
 3777HO4    HW115106   0.878   4.405   2.482
 3777HO4    HW215107   0.733   4.373   2.551
 3777HO4     MW15108   0.822   4.335   2.526
 3778HO4     OW15109   2.421   0.900   4.314
 3778HO4    HW115110   2.513   0.899   4.353
 3778HO4    HW215111   2.423   0.860   4.222
 3778HO4     MW15112   2.421   0.900   4.314
 3779HO4     OW15113   0.866   2.467   0.137
 3779HO4    HW115114   0.896   2.542   0.078
 3779HO4    HW215115   0.822   2.504   0.219
 3779HO4     MW15116   0.866   2.467   0.137
 3780HO4     OW15117   4.658   0.080   0.940
 3780HO4    HW115118   4.564   0.061   0.910
 3780HO4    HW215119   4.723   0.025   0.887
 3780HO4     MW15120   4.658   0.080   0.940
 3781HO4     OW15121   5.182   2.310   4.317
 3781HO4    HW115122   5.218   2.244   4.384
 3781HO4    HW215123   5.226   2.296   4.228
 3781HO4     MW15124   5.182   2.310   4.317
 3782HO4     OW15125   0.319   5.264   2.377
 3782HO4    HW115126   0.363   5.307   2.298
 3782HO4    HW215127   0.236   5.316   2.401
 3782HO4     MW15128   0.319   5.264   2.377
 3783HO4     OW15129   4.162   4.319   4.172
 3783HO4    HW115130   4.102   4.386   4.127
 3783HO4    HW215131   4.196   4.359   4.258
 3783HO4     MW15132   4.162   4.319   4.172
 3784HO4     OW15133   5.256   0.784   0.896
 3784HO4    HW115134   5.232   0.867   0.946
 3784HO4    HW215135   5.177   0.754   0.841
 3784HO4     MW15136   5.256   0.784   0.896
 3785HO4     OW15137   2.813   5.176   3.261
 3785HO4    HW115138   2.856   5.106   3.204
 3785HO4    HW215139   2.784   5.135   3.348
 3785HO4     MW15140   2.813   5.176   3.261
 3786HO4     OW15141   1.715   0.409   4.998
 3786HO4    HW115142   1.784   0.336   4.997
 3786HO4    HW215143   1.760   0.498   4.986
 3786HO4     MW15144   1.715   0.409   4.998
 3787HO4     OW15145   1.269   1.521   2.224
 3787HO4    HW115146   1.306   1.583   2.294
 3787HO4    HW215147   1.197   1.569   2.172
 3787HO4     MW15148   1.269   1.521   2.224
 3788HO4     OW15149   2.810   0.442   0.013
 3788HO4    HW115150   2.877   0.412  -0.056
 3788HO4    HW215151   2.829   0.395   0.100
 3788HO4     MW15152   2.810   0.442   0.013
 3789HO4     OW15153   3.571   4.853   2.674
 3789HO4    HW115154   3.528   4.900   2.596
 3789HO4    HW215155   3.606   4.764   2.644
 3789HO4     MW15156   3.571   4.853   2.674
 3790HO4     OW15157   1.592   0.058   2.355
 3790HO4    HW115158   1.511   0.000   2.342
 3790HO4    HW215159   1.624   0.091   2.266
 3790HO4     MW15160   1.592   0.058   2.355
 3791HO4     OW15161   0.811   0.127   0.254
 3791HO4    HW115162   0.810   0.199   0.324
 3791HO4    HW215163   0.742   0.148   0.184
 3791HO4     MW15164   0.811   0.127   0.254
 3792HO4     OW15165   1.264   2.313   0.600
 3792HO4    HW115166   1.326   2.335   0.523
 3792HO4    HW215167   1.288   2.370   0.679
 3792HO4     MW15168   1.264   2.313   0.600
 3793HO4     OW15169   5.043   4.702   1.204
 3793HO4    HW115170   5.137   4.682   1.174
 3793HO4    HW215171   5.024   4.652   1.289
 3793HO4     MW15172   5.043   4.702   1.204
 3794HO4     OW15173   1.754   1.592   2.482
 3794HO4    HW115174   1.714   1.604   2.391
 3794HO4    HW215175   1.706   1.650   2.548
 3794HO4     MW15176   1.754   1.592   2.482
 3795HO4     OW15177   4.353   0.159   0.478
 3795HO4    HW115178   4.307   0.076   0.446
 3795HO4    HW215179   4.399   0.140   0.566
 3795HO4     MW15180   4.353   0.159   0.478
 3796HO4     OW15181   3.216   0.879   1.315
 3796HO4    HW115182   3.173   0.915   1.398
 3796HO4    HW215183   3.174   0.921   1.234
 3796HO4     MW15184   3.216   0.879   1.315
 3797HO4     OW15185   0.790   2.903   3.592
 3797HO4    HW115186   0.724   2.959   3.541
 3797HO4    HW215187   0.839   2.843   3.528
 3797HO4     MW15188   0.790   2.903   3.592
 3798HO4     OW15189   3.778   3.566   1.355
 3798HO4    HW115190   3.813   3.481   1.315
 3798HO4    HW215191   3.718   3.612   1.289
 3798HO4     MW15192   3.778   3.566   1.355
 3799HO4     OW15193   3.753   4.279   3.143
 3799HO4    HW115194   3.737   4.326   3.230
 3799HO4    HW215195   3.695   4.320   3.072
 3799HO4     MW15196   3.753   4.279   3.143
 3800HO4     OW15197   3.750   2.592   1.424
 3800HO4    HW115198   3.814   2.633   1.359
 3800HO4    HW215199   3.745   2.493   1.407
 3800HO4     MW15200   3.750   2.592   1.424
 3801HO4     OW15201   3.507   4.740   4.959
 3801HO4    HW115202   3.411   4.768   4.957
 3801HO4    HW215203   3.547   4.751   4.868
 3801HO4     MW15204   3.507   4.740   4.959
 3802HO4     OW15205   5.336   2.671   2.447
 3802HO4    HW115206   5.294   2.723   2.522
 3802HO4    HW215207   5.305   2.706   2.359
 3802HO4     MW15208   5.336   2.671   2.447
 3803HO4     OW15209   0.988   0.022   2.062
 3803HO4    HW115210   1.082   0.034   2.028
 3803HO4    HW215211   0.990  -0.024   2.151
 3803HO4     MW15212   0.988   0.022   2.062
 3804HO4     OW15213   0.684   3.491   1.089
 3804HO4    HW115214   0.662   3.394   1.072
 3804HO4    HW215215   0.636   3.548   1.022
 3804HO4     MW15216   0.684   3.491   1.089
 3805HO4     OW15217   0.198   1.889   1.153
 3805HO4    HW115218   0.143   1.808   1.131
 3805HO4    HW215219   0.157   1.936   1.232
 3805HO4     MW15220   0.198   1.889   1.153
 3806HO4     OW15221   4.589   2.539   2.187
 3806HO4    HW115222   4.554   2.629   2.215
 3806HO4    HW215223   4.671   2.551   2.130
 3806HO4     MW15224   4.589   2.539   2.187
 3807HO4     OW15225   1.207   3.569   1.802
 3807HO4    HW115226   1.197   3.499   1.873
 3807HO4    HW215227   1.187   3.529   1.712
 3807HO4     MW15228   1.207   3.569   1.802
 3808HO4     OW15229   4.018   2.889   1.928
 3808HO4    HW115230   4.081   2.812   1.938
 3808HO4    HW215231   4.023   2.924   1.834
 3808HO4     MW15232   4.018   2.889   1.928
 3809HO4     OW15233   2.129   1.838   4.165
 3809HO4    HW115234   2.083   1.902   4.101
 3809HO4    HW215235   2.082   1.749   4.161
 3809HO4     MW15236   2.129   1.838   4.165
 3810HO4     OW15237   3.796   3.979   0.005
 3810HO4    HW115238   3.811   4.044   0.080
 3810HO4    HW215239   3.858   4.000  -0.071
 3810HO4     MW15240   3.796   3.979   0.005
 3811HO4     OW15241   0.894   4.357   3.882
 3811HO4    HW115242   0.867   4.268   3.845
 3811HO4    HW215243   0.919   4.418   3.806
 3811HO4     MW15244   0.894   4.357   3.882
 3812HO4     OW15245   4.379   4.780   1.058
 3812HO4    HW115246   4.319   4.709   1.020
 3812HO4    HW215247   4.397   4.761   1.155
 3812HO4     MW15248   4.379   4.780   1.058
 3813HO4     OW15249   2.054   2.601   2.595
 3813HO4    HW115250   1.966   2.569   2.559
 3813HO4    HW215251   2.128   2.551   2.550
 3813HO4     MW15252   2.054   2.601   2.595
 3814HO4     OW15253   1.522   3.809   2.490
 3814HO4    HW115254   1.475   3.818   2.402
 3814HO4    HW215255   1.461   3.839   2.564
 3814HO4     MW15256   1.522   3.809   2.490
 3815HO4     OW15257   2.573   3.144   3.503
 3815HO4    HW115258   2.647   3.192   3.552
 3815HO4    HW215259   2.487   3.194   3.515
 3815HO4     MW15260   2.573   3.144   3.503
 3816HO4     OW15261   4.090   5.205   4.356
 3816HO4    HW115262   4.076   5.174   4.261
 3816HO4    HW215263   4.013   5.263   4.384
 3816HO4     MW15264   4.090   5.205   4.356
 3817HO4     OW15265   2.578   5.130   4.633
 3817HO4    HW115266   2.545   5.170   4.718
 3817HO4    HW215267   2.530   5.171   4.555
 3817HO4     MW15268   2.578   5.130   4.633
 3818HO4     OW15269   1.845   0.787   4.231
 3818HO4    HW115270   1.813   0.842   4.154
 3818HO4    HW215271   1.872   0.847   4.306
 3818HO4     MW15272   1.845   0.787   4.231
 3819HO4     OW15273   0.124   3.077   0.701
 3819HO4    HW115274   0.042   3.071   0.760
 3819HO4    HW215275   0.110   3.021   0.619
 3819HO4     MW15276   0.124   3.077   0.701
 3820HO4     OW15277   5.221   4.437   2.717
 3820HO4    HW115278   5.319   4.450   2.732
 3820HO4    HW215279   5.170   4.513   2.757
 3820HO4     MW15280   5.221   4.437   2.717
 3821HO4     OW15281   5.095   4.735   1.576
 3821HO4    HW115282   5.172   4.794   1.601
 3821HO4    HW215283   5.119   4.639   1.593
 3821HO4     MW15284   5.095   4.735   1.576
 3822HO4     OW15285   0.930   4.085   2.582
 3822HO4    HW115286   0.986   4.011   2.543
 3822HO4    HW215287   0.844   4.047   2.617
 3822HO4     MW15288   0.930   4.085   2.582
 3823HO4     OW15289   3.957   4.766   4.929
 3823HO4    HW115290   3.983   4.856   4.892
 3823HO4    HW215291   3.877   4.776   4.989
 3823HO4     MW15292   3.957   4.766   4.929
 3824HO4     OW15293   4.013   1.800   3.083
 3824HO4    HW115294   4.053   1.768   3.170
 3824HO4    HW215295   4.073   1.773   3.007
 3824HO4     MW15296   4.013   1.800   3.083
 3825HO4     OW15297   5.307   0.376   3.009
 3825HO4    HW115298   5.357   0.348   3.092
 3825HO4    HW215299   5.363   0.355   2.929
 3825HO4     MW15300   5.307   0.376   3.009
 3826HO4     OW15301   3.012   1.139   4.600
 3826HO4    HW115302   3.030   1.225   4.649
 3826HO4    HW215303   3.097   1.108   4.555
 3826HO4     MW15304   3.012   1.139   4.600
 3827HO4     OW15305   2.608   4.686   4.820
 3827HO4    HW115306   2.654   4.738   4.892
 3827HO4    HW215307   2.554   4.748   4.762
 3827HO4     MW15308   2.608   4.686   4.820
 3828HO4     OW15309   3.301   5.219   2.038
 3828HO4    HW115310   3.304   5.137   2.095
 3828HO4    HW215311   3.305   5.193   1.941
 3828HO4     MW15312   3.301   5.219   2.038
 3829HO4     OW15313   0.959   3.746   3.264
 3829HO4    HW115314   0.885   3.762   3.330
 3829HO4    HW215315   0.932   3.781   3.174
 3829HO4     MW15316   0.959   3.746   3.264
 3830HO4     OW15317   4.419   4.222   3.242
 3830HO4    HW115318   4.378   4.211   3.151
 3830HO4    HW215319   4.500   4.281   3.235
 3830HO4     MW15320   4.419   4.222   3.242
 3831HO4     OW15321   1.747   3.436   2.385
 3831HO4    HW115322   1.821   3.414   2.320
 3831HO4    HW215323   1.787   3.452   2.476
 3831HO4     MW15324   1.747   3.436   2.385
 3832HO4     OW15325   5.378   4.219   1.856
 3832HO4    HW115326   5.355   4.197   1.760
 3832HO4    HW215327   5.423   4.140   1.899
 3832HO4     MW15328   5.378   4.219   1.856
 3833HO4     OW15329   4.890   0.329   4.912
 3833HO4    HW115330   4.823   0.254   4.917
 3833HO4    HW215331   4.971   0.297   4.863
 3833HO4     MW15332   4.890   0.329   4.912
 3834HO4     OW15333   3.480   0.470   3.496
 3834HO4    HW115334   3.523   0.434   3.413
 3834HO4    HW215335   3.527   0.432   3.576
 3834HO4     MW15336   3.480   0.470   3.496
 3835HO4     OW15337   5.469   0.269   0.017
 3835HO4    HW115338   5.413   0.233   0.091
 3835HO4    HW215339   5.421   0.259  -0.070
 3835HO4     MW15340   5.469   0.269   0.017
 3836HO4     OW15341   0.404   5.212   1.898
 3836HO4    HW115342   0.412   5.272   1.978
 3836HO4    HW215343   0.408   5.268   1.814
 3836HO4     MW15344   0.404   5.212   1.898
 3837HO4     OW15345   2.324   0.364   3.889
 3837HO4    HW115346   2.277   0.378   3.801
 3837HO4    HW215347   2.303   0.439   3.951
 3837HO4     MW15348   2.324   0.364   3.889
 3838HO4     OW15349   2.395   1.569   2.491
 3838HO4    HW115350   2.450   1.631   2.434
 3838HO4    HW215351   2.448   1.542   2.572
 3838HO4     MW15352   2.395   1.569   2.491
 3839HO4     OW15353   4.560   2.361   5.400
 3839HO4    HW115354   4.507   2.382   5.318
 3839HO4    HW215355   4.648   2.319   5.374
 3839HO4     MW15356   4.560   2.361   5.400
 3840HO4     OW15357   4.978   0.875   4.772
 3840HO4    HW115358   4.977   0.854   4.674
 3840HO4    HW215359   5.071   0.904   4.799
 3840HO4     MW15360   4.978   0.875   4.772
 3841HO4     OW15361   5.149   2.172   0.012
 3841HO4    HW115362   5.075   2.155   0.077
 3841HO4    HW215363   5.129   2.128  -0.076
 3841HO4     MW15364   5.149   2.172   0.012
 3842HO4     OW15365   4.829   5.420   3.063
 3842HO4    HW115366   4.898   5.425   2.990
 3842HO4    HW215367   4.755   5.486   3.043
 3842HO4     MW15368   4.829   5.420   3.063
 3843HO4     OW15369   0.808   4.726   0.545
 3843HO4    HW115370   0.787   4.658   0.615
 3843HO4    HW215371   0.740   4.720   0.471
 3843HO4     MW15372   0.808   4.726   0.545
 3844HO4     OW15373   3.772   4.097   5.290
 3844HO4    HW115374   3.697   4.066   5.349
 3844HO4    HW215375   3.761   4.058   5.198
 3844HO4     MW15376   3.772   4.097   5.290
 3845HO4     OW15377   3.927   2.835   0.146
 3845HO4    HW115378   3.887   2.749   0.112
 3845HO4    HW215379   4.000   2.815   0.212
 3845HO4     MW15380   3.927   2.835   0.146
 3846HO4     OW15381   2.124   0.950   4.220
 3846HO4    HW115382   2.041   1.006   4.212
 3846HO4    HW215383   2.203   1.009   4.241
 3846HO4     MW15384   2.124   0.950   4.220
 3847HO4     OW15385   3.548   4.708   3.189
 3847HO4    HW115386   3.527   4.778   3.257
 3847HO4    HW215387   3.479   4.711   3.116
 3847HO4     MW15388   3.548   4.708   3.189
 3848HO4     OW15389   0.620   4.678   2.647
 3848HO4    HW115390   0.580   4.764   2.679
 3848HO4    HW215391   0.639   4.685   2.548
 3848HO4     MW15392   0.620   4.678   2.647
 3849HO4     OW15393   0.182   2.031   3.396
 3849HO4    HW115394   0.190   2.129   3.414
 3849HO4    HW215395   0.266   1.998   3.353
 3849HO4     MW15396   0.182   2.031   3.396
 3850HO4     OW15397   2.966   1.405   2.920
 3850HO4    HW115398   2.903   1.421   2.843
 3850HO4    HW215399   2.914   1.407   3.006
 3850HO4     MW15400   2.966   1.405   2.920
 3851HO4     OW15401   2.113   2.957   4.208
 3851HO4    HW115402   2.093   3.009   4.291
 3851HO4    HW215403   2.126   3.020   4.131
 3851HO4     MW15404   2.113   2.957   4.208
 3852HO4     OW15405   3.293   5.283   1.564
 3852HO4    HW115406   3.280   5.259   1.467
 3852HO4    HW215407   3.273   5.202   1.621
 3852HO4     MW15408   3.293   5.283   1.564
 3853HO4     OW15409   4.805   0.268   3.855
 3853HO4    HW115410   4.758   0.229   3.934
 3853HO4    HW215411   4.898   0.230   3.848
 3853HO4     MW15412   4.805   0.268   3.855
 3854HO4     OW15413   2.388   3.774   0.105
 3854HO4    HW115414   2.418   3.844   0.170
 3854HO4    HW215415   2.454   3.768   0.029
 3854HO4     MW15416   2.388   3.774   0.105
 3855HO4     OW15417   3.902   4.945   3.052
 3855HO4    HW115418   3.939   5.036   3.032
 3855HO4    HW215419   3.950   4.877   2.995
 3855HO4     MW15420   3.902   4.945   3.052
 3856HO4     OW15421   2.625   2.567   0.078
 3856HO4    HW115422   2.691   2.491   0.080
 3856HO4    HW215423   2.557   2.550   0.006
 3856HO4     MW15424   2.625   2.567   0.078
 3857HO4     OW15425   0.442   2.480   2.141
 3857HO4    HW115426   0.437   2.412   2.068
 3857HO4    HW215427   0.439   2.434   2.231
 3857HO4     MW15428   0.442   2.480   2.141
 3858HO4     OW15429   0.426   0.454   3.687
 3858HO4    HW115430   0.482   0.437   3.769
 3858HO4    HW215431   0.482   0.435   3.605
 3858HO4     MW15432   0.426   0.454   3.687
 3859HO4     OW15433   4.057   4.008   0.122
 3859HO4    HW115434   4.106   3.981   0.038
 3859HO4    HW215435   4.097   3.962   0.201
 3859HO4     MW15436   4.057   4.008   0.122
 3860HO4     OW15437   3.775   2.518   0.221
 3860HO4    HW115438   3.792   2.464   0.304
 3860HO4    HW215439   3.787   2.461   0.140
 3860HO4     MW15440   3.775   2.518   0.221
 3861HO4     OW15441   4.342   2.740   3.545
 3861HO4    HW115442   4.403   2.784   3.478
 3861HO4    HW215443   4.269   2.804   3.571
 3861HO4     MW15444   4.342   2.740   3.545
 3862HO4     OW15445   2.351   4.412   4.874
 3862HO4    HW115446   2.268   4.450   4.832
 3862HO4    HW215447   2.388   4.340   4.815
 3862HO4     MW15448   2.351   4.412   4.874
 3863HO4     OW15449   1.055   3.878   0.073
 3863HO4    HW115450   0.966   3.833   0.077
 3863HO4    HW215451   1.048   3.971   0.112
 3863HO4     MW15452   1.055   3.878   0.073
 3864HO4     OW15453   5.069   4.728   4.590
 3864HO4    HW115454   5.128   4.799   4.630
 3864HO4    HW215455   5.090   4.639   4.633
 3864HO4     MW15456   5.069   4.728   4.590
 3865HO4     OW15457   3.908   2.420   0.892
 3865HO4    HW115458   3.968   2.490   0.851
 3865HO4    HW215459   3.945   2.329   0.871
 3865HO4     MW15460   3.908   2.420   0.892
 3866HO4     OW15461   4.583   2.919   2.364
 3866HO4    HW115462   4.666   2.976   2.367
 3866HO4    HW215463   4.565   2.891   2.269
 3866HO4     MW15464   4.583   2.919   2.364
 3867HO4     OW15465   1.763   4.845   0.486
 3867HO4    HW115466   1.688   4.874   0.426
 3867HO4    HW215467   1.821   4.779   0.437
 3867HO4     MW15468   1.763   4.845   0.486
 3868HO4     OW15469   4.135   5.490   5.196
 3868HO4    HW115470   4.231   5.478   5.221
 3868HO4    HW215471   4.078   5.425   5.248
 3868HO4     MW15472   4.135   5.490   5.196
 3869HO4     OW15473   5.209   3.277   1.869
 3869HO4    HW115474   5.300   3.241   1.845
 3869HO4    HW215475   5.211   3.314   1.962
 3869HO4     MW15476   5.209   3.277   1.869
 3870HO4     OW15477   3.727   4.464   0.810
 3870HO4    HW115478   3.691   4.530   0.877
 3870HO4    HW215479   3.692   4.486   0.719
 3870HO4     MW15480   3.727   4.464   0.810
 3871HO4     OW15481   4.815   4.536   2.649
 3871HO4    HW115482   4.779   4.529   2.556
 3871HO4    HW215483   4.751   4.494   2.714
 3871HO4     MW15484   4.815   4.536   2.649
 3872HO4     OW15485   2.260   3.032   1.747
 3872HO4    HW115486   2.237   2.992   1.836
 3872HO4    HW215487   2.343   3.088   1.755
 3872HO4     MW15488   2.260   3.032   1.747
 3873HO4     OW15489   3.625   0.615   2.140
 3873HO4    HW115490   3.711   0.633   2.093
 3873HO4    HW215491   3.640   0.618   2.240
 3873HO4     MW15492   3.625   0.615   2.140
 3874HO4     OW15493   5.297   0.988   0.706
 3874HO4    HW115494   5.275   0.928   0.783
 3874HO4    HW215495   5.290   0.937   0.620
 3874HO4     MW15496   5.297   0.988   0.706
 3875HO4     OW15497   1.281   3.504   0.717
 3875HO4    HW115498   1.208   3.564   0.752
 3875HO4    HW215499   1.293   3.426   0.779
 3875HO4     MW15500   1.281   3.504   0.717
 3876HO4     OW15501   1.330   1.675   3.249
 3876HO4    HW115502   1.281   1.726   3.321
 3876HO4    HW215503   1.306   1.713   3.159
 3876HO4     MW15504   1.330   1.675   3.249
 3877HO4     OW15505   0.705   1.731   2.147
 3877HO4    HW115506   0.650   1.766   2.223
 3877HO4    HW215507   0.655   1.743   2.061
 3877HO4     MW15508   0.705   1.731   2.147
 3878HO4     OW15509   4.369   1.679   3.683
 3878HO4    HW115510   4.416   1.720   3.605
 3878HO4    HW215511   4.414   1.707   3.769
 3878HO4     MW15512   4.369   1.679   3.683
 3879HO4     OW15513   1.225   3.549   4.342
 3879HO4    HW115514   1.180   3.489   4.275
 3879HO4    HW215515   1.156   3.588   4.403
 3879HO4     MW15516   1.225   3.549   4.342
 3880HO4     OW15517   2.280   4.896   2.197
 3880HO4    HW115518   2.305   4.947   2.280
 3880HO4    HW215519   2.182   4.877   2.198
 3880HO4     MW15520   2.280   4.896   2.197
 3881HO4     OW15521   1.465   0.086   0.676
 3881HO4    HW115522   1.553   0.041   0.688
 3881HO4    HW215523   1.437   0.131   0.762
 3881HO4     MW15524   1.465   0.086   0.676
 3882HO4     OW15525   1.060   3.472   5.240
 3882HO4    HW115526   1.072   3.413   5.160
 3882HO4    HW215527   1.070   3.418   5.324
 3882HO4     MW15528   1.060   3.472   5.240
 3883HO4     OW15529   0.094   1.861   1.558
 3883HO4    HW115530   0.098   1.784   1.494
 3883HO4    HW215531  -0.002   1.886   1.574
 3883HO4     MW15532   0.094   1.861   1.558
 3884HO4     OW15533   1.897   3.330   3.819
 3884HO4    HW115534   1.970   3.279   3.772
 3884HO4    HW215535   1.811   3.279   3.814
 3884HO4     MW15536   1.897   3.330   3.819
 3885HO4     OW15537   3.030   1.978   0.413
 3885HO4    HW115538   3.006   1.899   0.356
 3885HO4    HW215539   3.049   2.057   0.355
 3885HO4     MW15540   3.030   1.978   0.413
 3886HO4     OW15541   3.972   1.257   4.015
 3886HO4    HW115542   3.910   1.290   4.087
 3886HO4    HW215543   4.050   1.319   4.006
 3886HO4     MW15544   3.972   1.257   4.015
 3887HO4     OW15545   5.122   2.124   3.236
 3887HO4    HW115546   5.176   2.070   3.171
 3887HO4    HW215547   5.078   2.062   3.302
 3887HO4     MW15548   5.122   2.124   3.236
 3888HO4     OW15549   1.808   3.118   1.480
 3888HO4    HW115550   1.864   3.154   1.556
 3888HO4    HW215551   1.853   3.138   1.393
 3888HO4     MW15552   1.808   3.118   1.480
 3889HO4     OW15553   3.051   3.041   0.887
 3889HO4    HW115554   3.089   3.020   0.977
 3889HO4    HW215555   3.097   2.985   0.817
 3889HO4     MW15556   3.051   3.041   0.887
 3890HO4     OW15557   1.102   3.092   5.165
 3890HO4    HW115558   1.055   3.178   5.188
 3890HO4    HW215559   1.090   3.026   5.239
 3890HO4     MW15560   1.102   3.092   5.165
 3891HO4     OW15561   0.532   4.904   2.029
 3891HO4    HW115562   0.562   4.850   2.108
 3891HO4    HW215563   0.558   4.856   1.944
 3891HO4     MW15564   0.532   4.904   2.029
 3892HO4     OW15565   4.967   0.646   0.753
 3892HO4    HW115566   5.004   0.693   0.672
 3892HO4    HW215567   5.005   0.688   0.836
 3892HO4     MW15568   4.967   0.646   0.753
 3893HO4     OW15569   2.485   2.123   2.705
 3893HO4    HW115570   2.532   2.208   2.682
 3893HO4    HW215571   2.391   2.125   2.668
 3893HO4     MW15572   2.485   2.123   2.705
 3894HO4     OW15573   5.046   4.375   4.375
 3894HO4    HW115574   5.086   4.408   4.461
 3894HO4    HW215575   5.098   4.412   4.297
 3894HO4     MW15576   5.046   4.375   4.375
 3895HO4     OW15577   0.534   2.453   3.238
 3895HO4    HW115578   0.435   2.462   3.249
 3895HO4    HW215579   0.569   2.530   3.184
 3895HO4     MW15580   0.534   2.453   3.238
 3896HO4     OW15581   5.414   4.640   0.589
 3896HO4    HW115582   5.375   4.577   0.658
 3896HO4    HW215583   5.380   4.616   0.498
 3896HO4     MW15584   5.414   4.640   0.589
 3897HO4     OW15585   0.455   3.414   0.374
 3897HO4    HW115586   0.477   3.336   0.435
 3897HO4    HW215587   0.524   3.419   0.301
 3897HO4     MW15588   0.455   3.414   0.374
 3898HO4     OW15589   3.058   2.700   0.986
 3898HO4    HW115590   3.087   2.683   1.081
 3898HO4    HW215591   3.125   2.660   0.923
 3898HO4     MW15592   3.058   2.700   0.986
 3899HO4     OW15593   4.416   0.135   4.150
 3899HO4    HW115594   4.368   0.212   4.192
 3899HO4    HW215595   4.357   0.093   4.081
 3899HO4     MW15596   4.416   0.135   4.150
 3900HO4     OW15597   5.119   1.263   3.154
 3900HO4    HW115598   5.038   1.322   3.149
 3900HO4    HW215599   5.166   1.262   3.065
 3900HO4     MW15600   5.119   1.263   3.154
 3901HO4     OW15601   4.645   4.190   0.095
 3901HO4    HW115602   4.666   4.213  -0.000
 3901HO4    HW215603   4.573   4.120   0.097
 3901HO4     MW15604   4.645   4.190   0.095
 3902HO4     OW15605   1.557   2.096   2.753
 3902HO4    HW115606   1.595   2.008   2.720
 3902HO4    HW215607   1.615   2.171   2.719
 3902HO4     MW15608   1.557   2.096   2.753
 3903HO4     OW15609   3.023   2.332   3.173
 3903HO4    HW115610   2.939   2.293   3.211
 3903HO4    HW215611   3.096   2.263   3.174
 3903HO4     MW15612   3.023   2.332   3.173
 3904HO4     OW15613   2.095   0.648   0.853
 3904HO4    HW115614   2.143   0.617   0.936
 3904HO4    HW215615   2.089   0.573   0.787
 3904HO4     MW15616   2.095   0.648   0.853
 3905HO4     OW15617   1.519   2.710   2.633
 3905HO4    HW115618   1.541   2.769   2.555
 3905HO4    HW215619   1.568   2.623   2.624
 3905HO4     MW15620   1.519   2.710   2.633
 3906HO4     OW15621   0.266   5.174   1.680
 3906HO4    HW115622   0.347   5.153   1.626
 3906HO4    HW215623   0.254   5.273   1.686
 3906HO4     MW15624   0.266   5.174   1.680
 3907HO4     OW15625   4.895   3.199   2.688
 3907HO4    HW115626   4.961   3.181   2.615
 3907HO4    HW215627   4.803   3.206   2.648
 3907HO4     MW15628   4.895   3.199   2.688
 3908HO4     OW15629   2.570   5.218   2.003
 3908HO4    HW115630   2.588   5.300   2.058
 3908HO4    HW215631   2.580   5.240   1.906
 3908HO4     MW15632   2.570   5.218   2.003
 3909HO4     OW15633   2.207   3.072   3.051
 3909HO4    HW115634   2.243   2.979   3.059
 3909HO4    HW215635   2.123   3.080   3.106
 3909HO4     MW15636   2.207   3.072   3.051
 3910HO4     OW15637   2.331   3.008   3.245
 3910HO4    HW115638   2.305   2.998   3.341
 3910HO4    HW215639   2.316   3.104   3.217
 3910HO4     MW15640   2.331   3.008   3.245
 3911HO4     OW15641   4.606   3.013   1.198
 3911HO4    HW115642   4.617   2.981   1.103
 3911HO4    HW215643   4.668   3.090   1.215
 3911HO4     MW15644   4.606   3.013   1.198
 3912HO4     OW15645   3.858   0.290   4.004
 3912HO4    HW115646   3.829   0.198   3.978
 3912HO4    HW215647   3.946   0.311   3.959
 3912HO4     MW15648   3.858   0.290   4.004
 3913HO4     OW15649   4.768   2.405   3.029
 3913HO4    HW115650   4.671   2.429   3.045
 3913HO4    HW215651   4.776   2.307   3.013
 3913HO4     MW15652   4.768   2.405   3.029
 3914HO4     OW15653   4.406   1.187   2.928
 3914HO4    HW115654   4.372   1.272   2.971
 3914HO4    HW215655   4.393   1.193   2.829
 3914HO4     MW15656   4.406   1.187   2.928
 3915HO4     OW15657   1.246   4.889   2.839
 3915HO4    HW115658   1.183   4.819   2.874
 3915HO4    HW215659   1.209   4.928   2.754
 3915HO4     MW15660   1.246   4.889   2.839
 3916HO4     OW15661   5.315   2.923   5.341
 3916HO4    HW115662   5.367   2.843   5.373
 3916HO4    HW215663   5.342   3.004   5.393
 3916HO4     MW15664   5.315   2.923   5.341
 3917HO4     OW15665   3.286   2.610   0.818
 3917HO4    HW115666   3.221   2.577   0.749
 3917HO4    HW215667   3.335   2.690   0.783
 3917HO4     MW15668   3.286   2.610   0.818
 3918HO4     OW15669   1.650   0.681   0.813
 3918HO4    HW115670   1.604   0.656   0.898
 3918HO4    HW215671   1.582   0.686   0.739
 3918HO4     MW15672   1.650   0.681   0.813
 3919HO4     OW15673   4.183   2.582   2.913
 3919HO4    HW115674   4.167   2.579   3.012
 3919HO4    HW215675   4.108   2.633   2.868
 3919HO4     MW15676   4.183   2.582   2.913
 3920HO4     OW15677   4.033   1.767   1.309
 3920HO4    HW115678   4.034   1.857   1.354
 3920HO4    HW215679   4.019   1.695   1.377
 3920HO4     MW15680   4.033   1.767   1.309
 3921HO4     OW15681   3.959   4.305   0.030
 3921HO4    HW115682   3.977   4.208   0.045
 3921HO4    HW215683   3.907   4.317  -0.055
 3921HO4     MW15684   3.959   4.305   0.030
 3922HO4     OW15685   2.628   5.166   4.154
 3922HO4    HW115686   2.630   5.078   4.106
 3922HO4    HW215687   2.616   5.240   4.088
 3922HO4     MW15688   2.628   5.166   4.154
 3923HO4     OW15689   0.098   0.362   0.267
 3923HO4    HW115690   0.049   0.286   0.311
 3923HO4    HW215691   0.087   0.356   0.168
 3923HO4     MW15692   0.098   0.362   0.267
 3924HO4     OW15693   3.243   3.774   3.860
 3924HO4    HW115694   3.164   3.835   3.847
 3924HO4    HW215695   3.259   3.760   3.958
 3924HO4     MW15696   3.243   3.774   3.860
 3925HO4     OW15697   4.525   1.140   0.746
 3925HO4    HW115698   4.551   1.068   0.681
 3925HO4    HW215699   4.555   1.229   0.710
 3925HO4     MW15700   4.525   1.140   0.746
 3926HO4     OW15701   3.090   1.755   1.869
 3926HO4    HW115702   3.032   1.762   1.788
 3926HO4    HW215703   3.033   1.753   1.951
 3926HO4     MW15704   3.090   1.755   1.869
 3927HO4     OW15705   2.155   1.966   1.927
 3927HO4    HW115706   2.133   1.915   2.011
 3927HO4    HW215707   2.118   1.917   1.848
 3927HO4     MW15708   2.155   1.966   1.927
 3928HO4     OW15709   4.115   3.071   1.630
 3928HO4    HW115710   4.023   3.086   1.668
 3928HO4    HW215711   4.121   2.979   1.591
 3928HO4     MW15712   4.115   3.071   1.630
 3929HO4     OW15713   4.167   4.083   0.407
 3929HO4    HW115714   4.249   4.137   0.386
 3929HO4    HW215715   4.153   4.083   0.507
 3929HO4     MW15716   4.167   4.083   0.407
 3930HO4     OW15717   3.826   0.724   3.597
 3930HO4    HW115718   3.826   0.785   3.517
 3930HO4    HW215719   3.910   0.668   3.596
 3930HO4     MW15720   3.826   0.724   3.597
 3931HO4     OW15721   0.159   1.954   2.299
 3931HO4    HW115722   0.118   1.942   2.390
 3931HO4    HW215723   0.198   2.046   2.291
 3931HO4     MW15724   0.159   1.954   2.299
 3932HO4     OW15725   0.797   3.250   3.179
 3932HO4    HW115726   0.884   3.228   3.223
 3932HO4    HW215727   0.790   3.202   3.091
 3932HO4     MW15728   0.797   3.250   3.179
 3933HO4     OW15729   2.006   2.370   0.824
 3933HO4    HW115730   2.099   2.379   0.789
 3933HO4    HW215731   1.989   2.441   0.893
 3933HO4     MW15732   2.006   2.370   0.824
 3934HO4     OW15733   1.758   4.505   1.738
 3934HO4    HW115734   1.695   4.465   1.805
 3934HO4    HW215735   1.718   4.499   1.647
 3934HO4     MW15736   1.758   4.505   1.738
 3935HO4     OW15737   2.635   4.401   0.714
 3935HO4    HW115738   2.598   4.423   0.624
 3935HO4    HW215739   2.708   4.333   0.705
 3935HO4     MW15740   2.635   4.401   0.714
 3936HO4     OW15741   1.278   2.125   1.880
 3936HO4    HW115742   1.295   2.215   1.920
 3936HO4    HW215743   1.365   2.081   1.857
 3936HO4     MW15744   1.278   2.125   1.880
 3937HO4     OW15745   4.974   4.374   4.926
 3937HO4    HW115746   4.919   4.459   4.927
 3937HO4    HW215747   5.022   4.364   5.014
 3937HO4     MW15748   4.974   4.374   4.926
 3938HO4     OW15749   4.971   4.305   0.126
 3938HO4    HW115750   4.897   4.261   0.178
 3938HO4    HW215751   4.946   4.308   0.029
 3938HO4     MW15752   4.971   4.305   0.126
 3939HO4     OW15753   5.401   3.348   3.283
 3939HO4    HW115754   5.462   3.320   3.208
 3939HO4    HW215755   5.446   3.419   3.338
 3939HO4     MW15756   5.401   3.348   3.283
 3940HO4     OW15757   1.192   0.149   1.433
 3940HO4    HW115758   1.225   0.221   1.373
 3940HO4    HW215759   1.249   0.146   1.516
 3940HO4     MW15760   1.192   0.149   1.433
 3941HO4     OW15761   2.711   4.601   0.031
 3941HO4    HW115762   2.778   4.634   0.098
 3941HO4    HW215763   2.663   4.521   0.068
 3941HO4     MW15764   2.711   4.601   0.031
 3942HO4     OW15765   3.148   3.560   0.352
 3942HO4    HW115766   3.126   3.616   0.432
 3942HO4    HW215767   3.149   3.617   0.269
 3942HO4     MW15768   3.148   3.560   0.352
 3943HO4     OW15769   1.670   2.384   4.641
 3943HO4    HW115770   1.623   2.351   4.723
 3943HO4    HW215771   1.622   2.351   4.559
 3943HO4     MW15772   1.670   2.384   4.641
 3944HO4     OW15773   2.709   4.405   3.793
 3944HO4    HW115774   2.665   4.361   3.714
 3944HO4    HW215775   2.808   4.410   3.778
 3944HO4     MW15776   2.709   4.405   3.793
 3945HO4     OW15777   2.165   1.006   3.978
 3945HO4    HW115778   2.210   1.060   3.906
 3945HO4    HW215779   2.077   0.972   3.944
 3945HO4     MW15780   2.165   1.006   3.978
 3946HO4     OW15781   4.971   0.240   4.526
 3946HO4    HW115782   5.069   0.223   4.514
 3946HO4    HW215783   4.952   0.260   4.623
 3946HO4     MW15784   4.971   0.240   4.526
 3947HO4     OW15785   1.397   2.992   3.889
 3947HO4    HW115786   1.405   2.992   3.788
 3947HO4    HW215787   1.473   2.939   3.928
 3947HO4     MW15788   1.397   2.992   3.889
 3948HO4     OW15789   0.392   3.739   3.922
 3948HO4    HW115790   0.377   3.809   3.853
 3948HO4    HW215791   0.331   3.755   4.000
 3948HO4     MW15792   0.392   3.739   3.922
 3949HO4     OW15793   0.977   4.454   0.249
 3949HO4    HW115794   0.985   4.509   0.333
 3949HO4    HW215795   0.943   4.512   0.174
 3949HO4     MW15796   0.977   4.454   0.249
 3950HO4     OW15797   4.370   0.197   1.992
 3950HO4    HW115798   4.426   0.223   2.071
 3950HO4    HW215799   4.342   0.280   1.942
 3950HO4     MW15800   4.370   0.197   1.992
 3951HO4     OW15801   1.666   3.071   5.099
 3951HO4    HW115802   1.678   3.053   5.197
 3951HO4    HW215803   1.757   3.074   5.055
 3951HO4     MW15804   1.666   3.071   5.099
 3952HO4     OW15805   2.182   0.046   3.376
 3952HO4    HW115806   2.265   0.088   3.414
 3952HO4    HW215807   2.153  -0.031   3.434
 3952HO4     MW15808   2.182   0.046   3.376
 3953HO4     OW15809   2.538   3.029   0.519
 3953HO4    HW115810   2.469   3.027   0.592
 3953HO4    HW215811   2.620   2.979   0.549
 3953HO4     MW15812   2.538   3.029   0.519
 3954HO4     OW15813   3.199   0.823   0.363
 3954HO4    HW115814   3.290   0.835   0.404
 3954HO4    HW215815   3.202   0.849   0.266
 3954HO4     MW15816   3.199   0.823   0.363
 3955HO4     OW15817   1.698   1.590   0.129
 3955HO4    HW115818   1.789   1.632   0.128
 3955HO4    HW215819   1.668   1.573   0.034
 3955HO4     MW15820   1.698   1.590   0.129
 3956HO4     OW15821   3.976   3.125   2.298
 3956HO4    HW115822   3.904   3.183   2.259
 3956HO4    HW215823   3.953   3.103   2.394
 3956HO4     MW15824   3.976   3.125   2.298
 3957HO4     OW15825   4.691   0.084   1.317
 3957HO4    HW115826   4.643   0.117   1.398
 3957HO4    HW215827   4.644   0.116   1.234
 3957HO4     MW15828   4.691   0.084   1.317
 3958HO4     OW15829   4.107   0.973   2.963
 3958HO4    HW115830   4.173   1.042   2.930
 3958HO4    HW215831   4.121   0.957   3.061
 3958HO4     MW15832   4.107   0.973   2.963
 3959HO4     OW15833   2.854   1.699   5.321
 3959HO4    HW115834   2.853   1.616   5.377
 3959HO4    HW215835   2.874   1.674   5.225
 3959HO4     MW15836   2.854   1.699   5.321
 3960HO4     OW15837   3.491   0.980   0.407
 3960HO4    HW115838   3.478   0.896   0.459
 3960HO4    HW215839   3.427   1.050   0.440
 3960HO4     MW15840   3.491   0.980   0.407
 3961HO4     OW15841   0.475   1.597   4.740
 3961HO4    HW115842   0.382   1.621   4.771
 3961HO4    HW215843   0.536   1.593   4.819
 3961HO4     MW15844   0.475   1.597   4.740
 3962HO4     OW15845   5.256   4.411   1.398
 3962HO4    HW115846   5.295   4.324   1.365
 3962HO4    HW215847   5.266   4.481   1.327
 3962HO4     MW15848   5.256   4.411   1.398
 3963HO4     OW15849   2.995   4.264   1.225
 3963HO4    HW115850   3.035   4.282   1.316
 3963HO4    HW215851   2.912   4.209   1.236
 3963HO4     MW15852   2.995   4.264   1.225
 3964HO4     OW15853   0.779   0.826   2.575
 3964HO4    HW115854   0.787   0.740   2.524
 3964HO4    HW215855   0.823   0.900   2.523
 3964HO4     MW15856   0.779   0.826   2.575
 3965HO4     OW15857   3.994   4.234   0.837
 3965HO4    HW115858   4.037   4.155   0.793
 3965HO4    HW215859   3.945   4.204   0.919
 3965HO4     MW15860   3.994   4.234   0.837
 3966HO4     OW15861   0.457   3.111   1.562
 3966HO4    HW115862   0.453   3.099   1.462
 3966HO4    HW215863   0.378   3.165   1.592
 3966HO4     MW15864   0.457   3.111   1.562
 3967HO4     OW15865   5.063   4.827   0.389
 3967HO4    HW115866   5.061   4.874   0.478
 3967HO4    HW215867   4.986   4.859   0.333
 3967HO4     MW15868   5.063   4.827   0.389
 3968HO4     OW15869   3.303   0.058   0.354
 3968HO4    HW115870   3.305   0.022   0.448
 3968HO4    HW215871   3.384   0.026   0.305
 3968HO4     MW15872   3.303   0.058   0.354
 3969HO4     OW15873   2.046   1.379   0.271
 3969HO4    HW115874   2.123   1.367   0.208
 3969HO4    HW215875   2.076   1.356   0.365
 3969HO4     MW15876   2.046   1.379   0.271
 3970HO4     OW15877   1.070   1.618   4.325
 3970HO4    HW115878   1.166   1.641   4.305
 3970HO4    HW215879   1.034   1.683   4.392
 3970HO4     MW15880   1.070   1.618   4.325
 3971HO4     OW15881   3.778   3.008   0.433
 3971HO4    HW115882   3.878   2.996   0.428
 3971HO4    HW215883   3.733   2.927   0.396
 3971HO4     MW15884   3.778   3.008   0.433
 3972HO4     OW15885   2.004   1.619   3.337
 3972HO4    HW115886   1.947   1.595   3.258
 3972HO4    HW215887   1.967   1.575   3.419
 3972HO4     MW15888   2.004   1.619   3.337
 3973HO4     OW15889   2.764   2.241   4.741
 3973HO4    HW115890   2.856   2.203   4.727
 3973HO4    HW215891   2.772   2.331   4.785
 3973HO4     MW15892   2.764   2.241   4.741
 3974HO4     OW15893   3.077   0.585   3.865
 3974HO4    HW115894   3.010   0.574   3.939
 3974HO4    HW215895   3.031   0.576   3.776
 3974HO4     MW15896   3.077   0.585   3.865
 3975HO4     OW15897   4.192   0.051   1.474
 3975HO4    HW115898   4.184   0.007   1.564
 3975HO4    HW215899   4.216   0.148   1.487
 3975HO4     MW15900   4.192   0.051   1.474
 3976HO4     OW15901   0.651   1.134   5.208
 3976HO4    HW115902   0.629   1.073   5.131
 3976HO4    HW215903   0.631   1.088   5.295
 3976HO4     MW15904   0.651   1.134   5.208
 3977HO4     OW15905   0.573   3.821   3.011
 3977HO4    HW115906   0.551   3.874   3.093
 3977HO4    HW215907   0.673   3.822   2.996
 3977HO4     MW15908   0.573   3.821   3.011
 3978HO4     OW15909   4.760   1.072   4.839
 3978HO4    HW115910   4.797   1.106   4.753
 3978HO4    HW215911   4.830   1.077   4.911
 3978HO4     MW15912   4.760   1.072   4.839
 3979HO4     OW15913   3.990   2.830   2.278
 3979HO4    HW115914   4.077   2.780   2.276
 3979HO4    HW215915   3.926   2.788   2.213
 3979HO4     MW15916   3.990   2.830   2.278
 3980HO4     OW15917   3.276   2.312   1.358
 3980HO4    HW115918   3.368   2.280   1.383
 3980HO4    HW215919   3.211   2.284   1.430
 3980HO4     MW15920   3.276   2.312   1.358
 3981HO4     OW15921   2.561   1.904   1.695
 3981HO4    HW115922   2.562   1.866   1.602
 3981HO4    HW215923   2.508   1.845   1.756
 3981HO4     MW15924   2.561   1.904   1.695
 3982HO4     OW15925   0.418   0.327   3.013
 3982HO4    HW115926   0.465   0.406   3.054
 3982HO4    HW215927   0.393   0.349   2.918
 3982HO4     MW15928   0.418   0.327   3.013
 3983HO4     OW15929   0.141   1.818   4.252
 3983HO4    HW115930   0.189   1.803   4.339
 3983HO4    HW215931   0.208   1.829   4.178
 3983HO4     MW15932   0.141   1.818   4.252
 3984HO4     OW15933   1.794   1.556   3.534
 3984HO4    HW115934   1.789   1.652   3.508
 3984HO4    HW215935   1.856   1.545   3.612
 3984HO4     MW15936   1.794   1.556   3.534
 3985HO4     OW15937   4.110   3.539   2.609
 3985HO4    HW115938   4.111   3.467   2.679
 3985HO4    HW215939   4.122   3.498   2.518
 3985HO4     MW15940   4.110   3.539   2.609
 3986HO4     OW15941   3.383   4.529   3.875
 3986HO4    HW115942   3.412   4.535   3.971
 3986HO4    HW215943   3.425   4.603   3.822
 3986HO4     MW15944   3.383   4.529   3.875
 3987HO4     OW15945   4.747   2.235   0.958
 3987HO4    HW115946   4.829   2.210   0.906
 3987HO4    HW215947   4.665   2.212   0.904
 3987HO4     MW15948   4.747   2.235   0.958
 3988HO4     OW15949   3.284   4.686   5.382
 3988HO4    HW115950   3.372   4.660   5.423
 3988HO4    HW215951   3.209   4.645   5.435
 3988HO4     MW15952   3.284   4.686   5.382
 3989HO4     OW15953   4.032   4.685   3.177
 3989HO4    HW115954   3.994   4.654   3.265
 3989HO4    HW215955   3.958   4.704   3.113
 3989HO4     MW15956   4.032   4.685   3.177
 3990HO4     OW15957   2.827   2.150   0.409
 3990HO4    HW115958   2.868   2.062   0.382
 3990HO4    HW215959   2.898   2.213   0.440
 3990HO4     MW15960   2.827   2.150   0.409
 3991HO4     OW15961   3.987   4.202   4.564
 3991HO4    HW115962   4.073   4.253   4.570
 3991HO4    HW215963   3.997   4.114   4.611
 3991HO4     MW15964   3.987   4.202   4.564
 3992HO4     OW15965   0.630   5.367   1.095
 3992HO4    HW115966   0.581   5.320   1.021
 3992HO4    HW215967   0.601   5.330   1.184
 3992HO4     MW15968   0.630   5.367   1.095
 3993HO4     OW15969   0.495   2.678   4.722
 3993HO4    HW115970   0.485   2.721   4.632
 3993HO4    HW215971   0.543   2.591   4.712
 3993HO4     MW15972   0.495   2.678   4.722
 3994HO4     OW15973   1.918   2.626   3.502
 3994HO4    HW115974   1.974   2.545   3.524
 3994HO4    HW215975   1.947   2.663   3.413
 3994HO4     MW15976   1.918   2.626   3.502
 3995HO4     OW15977   3.357   0.160   0.861
 3995HO4    HW115978   3.272   0.198   0.824
 3995HO4    HW215979   3.394   0.222   0.931
 3995HO4     MW15980   3.357   0.160   0.861
 3996HO4     OW15981   0.053   2.333   3.695
 3996HO4    HW115982  -0.002   2.341   3.780
 3996HO4    HW215983  -0.004   2.360   3.617
 3996HO4     MW15984   0.053   2.333   3.695
 3997HO4     OW15985   4.746   4.385   3.595
 3997HO4    HW115986   4.778   4.480   3.602
 3997HO4    HW215987   4.822   4.325   3.569
 3997HO4     MW15988   4.746   4.385   3.595
 3998HO4     OW15989   0.612   0.011   2.907
 3998HO4    HW115990   0.684   0.080   2.904
 3998HO4    HW215991   0.653  -0.080   2.897
 3998HO4     MW15992   0.612   0.011   2.907
 3999HO4     OW15993   1.851   3.028   3.065
 3999HO4    HW115994   1.871   3.034   3.163
 3999HO4    HW215995   1.924   2.977   3.019
 3999HO4     MW15996   1.851   3.028   3.065
 4000HO4     OW15997   2.022   3.782   4.003
 4000HO4    HW115998   2.120   3.785   4.025
 4000HO4    HW215999   1.993   3.872   3.969
 4000HO4     MW16000   2.022   3.782   4.003
 4001HO4     OW16001   1.839   2.096   5.198
 4001HO4    HW116002   1.899   2.078   5.120
 4001HO4    HW216003   1.889   2.077   5.283
 4001HO4     MW16004   1.839   2.096   5.198
 4002HO4     OW16005   3.563   1.278   0.217
 4002HO4    HW116006   3.615   1.345   0.162
 4002HO4    HW216007   3.575   1.298   0.314
 4002HO4     MW16008   3.563   1.278   0.217
 4003HO4     OW16009   3.272   3.977   3.166
 4003HO4    HW116010   3.201   3.943   3.229
 4003HO4    HW216011   3.338   4.034   3.217
 4003HO4     MW16012   3.272   3.977   3.166
 4004HO4     OW16013   4.977   4.513   0.667
 4004HO4    HW116014   4.991   4.499   0.568
 4004HO4    HW216015   4.988   4.611   0.688
 4004HO4     MW16016   4.977   4.513   0.667
 4005HO4     OW16017   3.621   2.003   1.270
 4005HO4    HW116018   3.561   2.076   1.237
 4005HO4    HW216019   3.610   1.993   1.370
 4005HO4     MW16020   3.621   2.003   1.270
 4006HO4     OW16021   4.781   5.219   0.056
 4006HO4    HW116022   4.836   5.268  -0.012
 4006HO4    HW216023   4.705   5.172   0.010
 4006HO4     MW16024   4.781   5.219   0.056
 4007HO4     OW16025   5.006   1.249   4.019
 4007HO4    HW116026   4.986   1.241   3.920
 4007HO4    HW216027   5.105   1.243   4.033
 4007HO4     MW16028   5.006   1.249   4.019
 4008HO4     OW16029   0.467   3.870   1.702
 4008HO4    HW116030   0.505   3.781   1.676
 4008HO4    HW216031   0.516   3.943   1.654
 4008HO4     MW16032   0.467   3.870   1.702
 4009HO4     OW16033   2.270   3.839   1.586
 4009HO4    HW116034   2.357   3.788   1.591
 4009HO4    HW216035   2.207   3.791   1.524
 4009HO4     MW16036   2.270   3.839   1.586
 4010HO4     OW16037   5.176   0.426   5.063
 4010HO4    HW116038   5.151   0.432   4.966
 4010HO4    HW216039   5.173   0.330   5.093
 4010HO4     MW16040   5.176   0.426   5.063
 4011HO4     OW16041   3.086   2.841   4.597
 4011HO4    HW116042   3.154   2.838   4.523
 4011HO4    HW216043   3.134   2.853   4.685
 4011HO4     MW16044   3.086   2.841   4.597
 4012HO4     OW16045   3.122   3.358   2.976
 4012HO4    HW116046   3.213   3.371   2.935
 4012HO4    HW216047   3.093   3.443   3.020
 4012HO4     MW16048   3.122   3.358   2.976
 4013HO4     OW16049   0.900   1.916   0.793
 4013HO4    HW116050   0.957   1.894   0.873
 4013HO4    HW216051   0.840   1.838   0.772
 4013HO4     MW16052   0.900   1.916   0.793
 4014HO4     OW16053   5.483   3.565   1.133
 4014HO4    HW116054   5.434   3.560   1.046
 4014HO4    HW216055   5.452   3.491   1.194
 4014HO4     MW16056   5.483   3.565   1.133
 4015HO4     OW16057   2.651   3.619   2.707
 4015HO4    HW116058   2.664   3.571   2.795
 4015HO4    HW216059   2.685   3.561   2.632
 4015HO4     MW16060   2.651   3.619   2.707
 4016HO4     OW16061   1.792   0.325   1.985
 4016HO4    HW116062   1.696   0.294   1.985
 4016HO4    HW216063   1.850   0.255   1.943
 4016HO4     MW16064   1.792   0.325   1.985
 4017HO4     OW16065   0.655   5.376   3.764
 4017HO4    HW116066   0.750   5.362   3.735
 4017HO4    HW216067   0.604   5.290   3.756
 4017HO4     MW16068   0.655   5.376   3.764
 4018HO4     OW16069   3.970   2.450   1.566
 4018HO4    HW116070   4.028   2.530   1.547
 4018HO4    HW216071   4.024   2.380   1.613
 4018HO4     MW16072   3.970   2.450   1.566
 4019HO4     OW16073   0.677   2.596   0.376
 4019HO4    HW116074   0.619   2.514   0.381
 4019HO4    HW216075   0.628   2.667   0.324
 4019HO4     MW16076   0.677   2.596   0.376
 4020HO4     OW16077   3.236   3.293   4.007
 4020HO4    HW116078   3.314   3.307   3.946
 4020HO4    HW216079   3.268   3.256   4.095
 4020HO4     MW16080   3.236   3.293   4.007
 4021HO4     OW16081   1.491   1.439   3.734
 4021HO4    HW116082   1.398   1.448   3.768
 4021HO4    HW216083   1.489   1.407   3.639
 4021HO4     MW16084   1.491   1.439   3.734
 4022HO4     OW16085   5.487   1.029   1.803
 4022HO4    HW116086   5.421   1.010   1.730
 4022HO4    HW216087   5.443   1.012   1.892
 4022HO4     MW16088   5.487   1.029   1.803
 4023HO4     OW16089   5.084   2.744   1.377
 4023HO4    HW116090   5.083   2.810   1.452
 4023HO4    HW216091   5.175   2.743   1.335
 4023HO4     MW16092   5.084   2.744   1.377
 4024HO4     OW16093   0.488   0.639   3.203
 4024HO4    HW116094   0.532   0.627   3.114
 4024HO4    HW216095   0.540   0.707   3.257
 4024HO4     MW16096   0.488   0.639   3.203
 4025HO4     OW16097   0.269   2.697   0.478
 4025HO4    HW116098   0.302   2.731   0.390
 4025HO4    HW216099   0.294   2.762   0.551
 4025HO4     MW16100   0.269   2.697   0.478
 4026HO4     OW16101   5.322   0.188   4.884
 4026HO4    HW116102   5.383   0.143   4.951
 4026HO4    HW216103   5.372   0.262   4.839
 4026HO4     MW16104   5.322   0.188   4.884
 4027HO4     OW16105   3.407   0.755   0.052
 4027HO4    HW116106   3.441   0.726  -0.037
 4027HO4    HW216107   3.401   0.676   0.114
 4027HO4     MW16108   3.407   0.755   0.052
 4028HO4     OW16109   4.398   5.090   1.969
 4028HO4    HW116110   4.313   5.143   1.969
 4028HO4    HW216111   4.376   4.992   1.963
 4028HO4     MW16112   4.398   5.090   1.969
 4029HO4     OW16113   4.173   1.902   1.504
 4029HO4    HW116114   4.248   1.889   1.570
 4029HO4    HW216115   4.165   1.819   1.447
 4029HO4     MW16116   4.173   1.902   1.504
 4030HO4     OW16117   5.427   2.557   4.999
 4030HO4    HW116118   5.387   2.534   5.088
 4030HO4    HW216119   5.381   2.504   4.927
 4030HO4     MW16120   5.427   2.557   4.999
 4031HO4     OW16121   4.934   4.161   0.512
 4031HO4    HW116122   4.974   4.071   0.492
 4031HO4    HW216123   4.839   4.163   0.482
 4031HO4     MW16124   4.934   4.161   0.512
 4032HO4     OW16125   3.120   2.300   3.429
 4032HO4    HW116126   3.153   2.272   3.520
 4032HO4    HW216127   3.130   2.223   3.365
 4032HO4     MW16128   3.120   2.300   3.429
 4033HO4     OW16129   0.709   0.333   1.168
 4033HO4    HW116130   0.694   0.322   1.267
 4033HO4    HW216131   0.800   0.373   1.153
 4033HO4     MW16132   0.709   0.333   1.168
 4034HO4     OW16133   0.833   3.673   2.215
 4034HO4    HW116134   0.786   3.643   2.132
 4034HO4    HW216135   0.783   3.642   2.296
 4034HO4     MW16136   0.833   3.673   2.215
 4035HO4     OW16137   1.106   4.829   4.933
 4035HO4    HW116138   1.147   4.873   4.853
 4035HO4    HW216139   1.054   4.748   4.904
 4035HO4     MW16140   1.106   4.829   4.933
 4036HO4     OW16141   1.333   0.615   1.312
 4036HO4    HW116142   1.272   0.621   1.392
 4036HO4    HW216143   1.280   0.631   1.228
 4036HO4     MW16144   1.333   0.615   1.312
 4037HO4     OW16145   1.840   0.911   5.234
 4037HO4    HW116146   1.860   0.820   5.271
 4037HO4    HW216147   1.803   0.970   5.307
 4037HO4     MW16148   1.840   0.911   5.234
 4038HO4     OW16149   0.499   2.981   1.107
 4038HO4    HW116150   0.433   2.998   1.181
 4038HO4    HW216151   0.463   3.019   1.021
 4038HO4     MW16152   0.499   2.981   1.107
 4039HO4     OW16153   5.069   5.043   4.424
 4039HO4    HW116154   5.023   4.988   4.494
 4039HO4    HW216155   5.034   5.019   4.333
 4039HO4     MW16156   5.069   5.043   4.424
 4040HO4     OW16157   3.140   3.994   0.749
 4040HO4    HW116158   3.106   4.042   0.831
 4040HO4    HW216159   3.181   3.906   0.776
 4040HO4     MW16160   3.140   3.994   0.749
 4041HO4     OW16161   5.028   3.591   3.444
 4041HO4    HW116162   4.933   3.557   3.452
 4041HO4    HW216163   5.061   3.575   3.351
 4041HO4     MW16164   5.028   3.591   3.444
 4042HO4     OW16165   4.896   3.576   2.110
 4042HO4    HW116166   4.892   3.671   2.078
 4042HO4    HW216167   4.911   3.515   2.032
 4042HO4     MW16168   4.896   3.576   2.110
 4043HO4     OW16169   1.468   3.908   0.653
 4043HO4    HW116170   1.447   3.812   0.632
 4043HO4    HW216171   1.382   3.959   0.663
 4043HO4     MW16172   1.468   3.908   0.653
 4044HO4     OW16173   2.587   4.843   1.234
 4044HO4    HW116174   2.599   4.776   1.309
 4044HO4    HW216175   2.605   4.798   1.146
 4044HO4     MW16176   2.587   4.843   1.234
 4045HO4     OW16177   5.299   4.807   0.521
 4045HO4    HW116178   5.290   4.762   0.431
 4045HO4    HW216179   5.262   4.747   0.592
 4045HO4     MW16180   5.299   4.807   0.521
 4046HO4     OW16181   2.036   0.205   0.178
 4046HO4    HW116182   2.108   0.238   0.240
 4046HO4    HW216183   2.014   0.110   0.200
 4046HO4     MW16184   2.036   0.205   0.178
 4047HO4     OW16185   0.336   5.293   3.405
 4047HO4    HW116186   0.336   5.387   3.371
 4047HO4    HW216187   0.425   5.250   3.385
 4047HO4     MW16188   0.336   5.293   3.405
 4048HO4     OW16189   4.657   5.139   2.337
 4048HO4    HW116190   4.600   5.152   2.419
 4048HO4    HW216191   4.646   5.045   2.303
 4048HO4     MW16192   4.657   5.139   2.337
 4049HO4     OW16193   1.854   5.261   4.734
 4049HO4    HW116194   1.867   5.165   4.705
 4049HO4    HW216195   1.779   5.266   4.800
 4049HO4     MW16196   1.854   5.261   4.734
 4050HO4     OW16197   2.204   0.292   3.507
 4050HO4    HW116198   2.166   0.362   3.569
 4050HO4    HW216199   2.303   0.284   3.522
 4050HO4     MW16200   2.204   0.292   3.507
 4051HO4     OW16201   2.254   0.720   1.125
 4051HO4    HW116202   2.182   0.673   1.177
 4051HO4    HW216203   2.224   0.732   1.030
 4051HO4     MW16204   2.254   0.720   1.125
 4052HO4     OW16205   4.218   1.670   5.299
 4052HO4    HW116206   4.311   1.691   5.267
 4052HO4    HW216207   4.188   1.583   5.259
 4052HO4     MW16208   4.218   1.670   5.299
 4053HO4     OW16209   5.283   1.250   0.344
 4053HO4    HW116210   5.339   1.259   0.427
 4053HO4    HW216211   5.342   1.234   0.265
 4053HO4     MW16212   5.283   1.250   0.344
 4054HO4     OW16213   0.300   4.397   0.784
 4054HO4    HW116214   0.319   4.455   0.704
 4054HO4    HW216215   0.386   4.361   0.821
 4054HO4     MW16216   0.300   4.397   0.784
 4055HO4     OW16217   3.517   5.008   0.363
 4055HO4    HW116218   3.481   5.097   0.395
 4055HO4    HW216219   3.521   4.944   0.440
 4055HO4     MW16220   3.517   5.008   0.363
 4056HO4     OW16221   0.711   2.457   0.533
 4056HO4    HW116222   0.772   2.520   0.583
 4056HO4    HW216223   0.764   2.406   0.465
 4056HO4     MW16224   0.711   2.457   0.533
 4057HO4     OW16225   4.843   0.906   2.178
 4057HO4    HW116226   4.794   0.826   2.141
 4057HO4    HW216227   4.828   0.985   2.118
 4057HO4     MW16228   4.843   0.906   2.178
 4058HO4     OW16229   3.522   3.680   4.744
 4058HO4    HW116230   3.485   3.725   4.662
 4058HO4    HW216231   3.481   3.722   4.826
 4058HO4     MW16232   3.522   3.680   4.744
 4059HO4     OW16233   0.243   5.040   2.787
 4059HO4    HW116234   0.230   4.997   2.697
 4059HO4    HW216235   0.165   5.019   2.846
 4059HO4     MW16236   0.243   5.040   2.787
 4060HO4     OW16237   1.556   5.216   2.234
 4060HO4    HW116238   1.616   5.282   2.280
 4060HO4    HW216239   1.460   5.241   2.252
 4060HO4     MW16240   1.556   5.216   2.234
 4061HO4     OW16241   1.789   0.757   2.186
 4061HO4    HW116242   1.809   0.847   2.146
 4061HO4    HW216243   1.861   0.733   2.252
 4061HO4     MW16244   1.789   0.757   2.186
 4062HO4     OW16245   1.444   2.731   0.975
 4062HO4    HW116246   1.430   2.787   1.057
 4062HO4    HW216247   1.438   2.789   0.894
 4062HO4     MW16248   1.444   2.731   0.975
 4063HO4     OW16249   1.879   1.868   4.679
 4063HO4    HW116250   1.830   1.833   4.598
 4063HO4    HW216251   1.918   1.958   4.658
 4063HO4     MW16252   1.879   1.868   4.679
 4064HO4     OW16253   2.384   1.191   5.046
 4064HO4    HW116254   2.425   1.274   5.086
 4064HO4    HW216255   2.377   1.202   4.946
 4064HO4     MW16256   2.384   1.191   5.046
 4065HO4     OW16257   0.427   4.728   4.754
 4065HO4    HW116258   0.394   4.636   4.779
 4065HO4    HW216259   0.519   4.721   4.714
 4065HO4     MW16260   0.427   4.728   4.754
 4066HO4     OW16261   2.764   4.598   2.056
 4066HO4    HW116262   2.703   4.565   1.983
 4066HO4    HW216263   2.735   4.560   2.144
 4066HO4     MW16264   2.764   4.598   2.056
 4067HO4     OW16265   2.289   5.182   4.800
 4067HO4    HW116266   2.329   5.145   4.716
 4067HO4    HW216267   2.336   5.142   4.880
 4067HO4     MW16268   2.289   5.182   4.800
 4068HO4     OW16269   1.332   1.648   1.308
 4068HO4    HW116270   1.423   1.614   1.336
 4068HO4    HW216271   1.299   1.715   1.375
 4068HO4     MW16272   1.332   1.648   1.308
 4069HO4     OW16273   2.250   4.662   2.011
 4069HO4    HW116274   2.165   4.614   2.037
 4069HO4    HW216275   2.266   4.739   2.074
 4069HO4     MW16276   2.250   4.662   2.011
 4070HO4     OW16277   2.956   4.684   5.260
 4070HO4    HW116278   2.877   4.708   5.317
 4070HO4    HW216279   3.036   4.739   5.288
 4070HO4     MW16280   2.956   4.684   5.260
 4071HO4     OW16281   3.276   3.385   5.207
 4071HO4    HW116282   3.198   3.397   5.145
 4071HO4    HW216283   3.275   3.291   5.243
 4071HO4     MW16284   3.276   3.385   5.207
 4072HO4     OW16285   2.148   3.836   1.068
 4072HO4    HW116286   2.159   3.750   1.118
 4072HO4    HW216287   2.154   3.818   0.969
 4072HO4     MW16288   2.148   3.836   1.068
 4073HO4     OW16289   3.757   5.249   4.675
 4073HO4    HW116290   3.683   5.257   4.608
 4073HO4    HW216291   3.727   5.192   4.752
 4073HO4     MW16292   3.757   5.249   4.675
 4074HO4     OW16293   1.251   5.401   1.244
 4074HO4    HW116294   1.336   5.434   1.202
 4074HO4    HW216295   1.270   5.318   1.298
 4074HO4     MW16296   1.251   5.401   1.244
 4075HO4     OW16297   0.814   2.123   2.346
 4075HO4    HW116298   0.880   2.108   2.420
 4075HO4    HW216299   0.730   2.071   2.365
 4075HO4     MW16300   0.814   2.123   2.346
 4076HO4     OW16301   4.763   5.035   5.364
 4076HO4    HW116302   4.838   5.054   5.300
 4076HO4    HW216303   4.735   4.939   5.354
 4076HO4     MW16304   4.763   5.035   5.364
 4077HO4     OW16305   0.598   2.438   1.076
 4077HO4    HW116306   0.542   2.363   1.039
 4077HO4    HW216307   0.656   2.477   1.003
 4077HO4     MW16308   0.598   2.438   1.076
 4078HO4     OW16309   1.509   4.820   3.342
 4078HO4    HW116310   1.542   4.736   3.387
 4078HO4    HW216311   1.502   4.894   3.410
 4078HO4     MW16312   1.509   4.820   3.342
 4079HO4     OW16313   3.115   2.966   1.926
 4079HO4    HW116314   3.130   3.066   1.921
 4079HO4    HW216315   3.160   2.922   1.848
 4079HO4     MW16316   3.115   2.966   1.926
 4080HO4     OW16317   3.795   3.835   4.736
 4080HO4    HW116318   3.893   3.847   4.718
 4080HO4    HW216319   3.767   3.743   4.708
 4080HO4     MW16320   3.795   3.835   4.736
 4081HO4     OW16321   0.200   2.346   2.308
 4081HO4    HW116322   0.167   2.393   2.390
 4081HO4    HW216323   0.167   2.393   2.226
 4081HO4     MW16324   0.200   2.346   2.308
 4082HO4     OW16325   3.474   3.456   1.326
 4082HO4    HW116326   3.383   3.470   1.287
 4082HO4    HW216327   3.543   3.501   1.267
 4082HO4     MW16328   3.474   3.456   1.326
 4083HO4     OW16329   2.839   2.684   4.575
 4083HO4    HW116330   2.755   2.677   4.631
 4083HO4    HW216331   2.879   2.775   4.585
 4083HO4     MW16332   2.839   2.684   4.575
 4084HO4     OW16333   3.080   3.543   2.750
 4084HO4    HW116334   3.010   3.471   2.743
 4084HO4    HW216335   3.163   3.513   2.703
 4084HO4     MW16336   3.080   3.543   2.750
 4085HO4     OW16337   5.123   0.695   5.309
 4085HO4    HW116338   5.145   0.640   5.228
 4085HO4    HW216339   5.113   0.636   5.389
 4085HO4     MW16340   5.123   0.695   5.309
 4086HO4     OW16341   0.383   1.510   1.423
 4086HO4    HW116342   0.306   1.497   1.361
 4086HO4    HW216343   0.356   1.572   1.498
 4086HO4     MW16344   0.383   1.510   1.423
 4087HO4     OW16345   2.854   5.449   3.983
 4087HO4    HW116346   2.910   5.435   3.901
 4087HO4    HW216347   2.826   5.360   4.020
 4087HO4     MW16348   2.854   5.449   3.983
 4088HO4     OW16349   0.501   1.526   2.406
 4088HO4    HW116350   0.579   1.487   2.456
 4088HO4    HW216351   0.444   1.452   2.370
 4088HO4     MW16352   0.501   1.526   2.406
 4089HO4     OW16353   0.655   4.272   0.710
 4089HO4    HW116354   0.652   4.225   0.621
 4089HO4    HW216355   0.562   4.274   0.749
 4089HO4     MW16356   0.655   4.272   0.710
 4090HO4     OW16357   0.057   3.809   3.850
 4090HO4    HW116358   0.007   3.776   3.769
 4090HO4    HW216359   0.012   3.776   3.933
 4090HO4     MW16360   0.057   3.809   3.850
 4091HO4     OW16361   1.844   1.484   4.846
 4091HO4    HW116362   1.895   1.469   4.761
 4091HO4    HW216363   1.840   1.582   4.866
 4091HO4     MW16364   1.844   1.484   4.846
 4092HO4     OW16365   2.880   2.142   2.419
 4092HO4    HW116366   2.869   2.197   2.336
 4092HO4    HW216367   2.867   2.200   2.500
 4092HO4     MW16368   2.880   2.142   2.419
 4093HO4     OW16369   2.972   0.115   1.602
 4093HO4    HW116370   2.941   0.098   1.696
 4093HO4    HW216371   2.998   0.212   1.593
 4093HO4     MW16372   2.972   0.115   1.602
 4094HO4     OW16373   0.964   4.798   2.716
 4094HO4    HW116374   1.017   4.781   2.632
 4094HO4    HW216375   1.009   4.752   2.794
 4094HO4     MW16376   0.964   4.798   2.716
 4095HO4     OW16377   1.545   1.481   3.069
 4095HO4    HW116378   1.584   1.437   3.151
 4095HO4    HW216379   1.588   1.442   2.987
 4095HO4     MW16380   1.545   1.481   3.069
 4096HO4     OW16381   5.311   1.193   5.122
 4096HO4    HW116382   5.216   1.168   5.105
 4096HO4    HW216383   5.372   1.127   5.077
 4096HO4     MW16384   5.311   1.193   5.122
 4097HO4     OW16385   3.571   0.559   2.432
 4097HO4    HW116386   3.548   0.649   2.393
 4097HO4    HW216387   3.619   0.504   2.364
 4097HO4     MW16388   3.571   0.559   2.432
 4098HO4     OW16389   4.518   1.526   5.252
 4098HO4    HW116390   4.463   1.605   5.278
 4098HO4    HW216391   4.521   1.519   5.152
 4098HO4     MW16392   4.518   1.526   5.252
 4099HO4     OW16393   4.726   4.493   5.435
 4099HO4    HW116394   4.690   4.540   5.353
 4099HO4    HW216395   4.690   4.539   5.517
 4099HO4     MW16396   4.726   4.493   5.435
 4100HO4     OW16397   3.074   0.462   1.323
 4100HO4    HW116398   3.085   0.446   1.224
 4100HO4    HW216399   3.151   0.423   1.372
 4100HO4     MW16400   3.074   0.462   1.323
 4101HO4     OW16401   1.104   1.170   3.501
 4101HO4    HW116402   1.050   1.147   3.419
 4101HO4    HW216403   1.050   1.150   3.583
 4101HO4     MW16404   1.104   1.170   3.501
 4102HO4     OW16405   1.848   2.343   5.414
 4102HO4    HW116406   1.805   2.317   5.326
 4102HO4    HW216407   1.789   2.315   5.490
 4102HO4     MW16408   1.848   2.343   5.414
 4103HO4     OW16409   1.319   2.745   4.869
 4103HO4    HW116410   1.295   2.678   4.941
 4103HO4    HW216411   1.238   2.764   4.812
 4103HO4     MW16412   1.319   2.745   4.869
 4104HO4     OW16413   4.063   4.186   2.829
 4104HO4    HW116414   4.015   4.226   2.907
 4104HO4    HW216415   4.049   4.243   2.747
 4104HO4     MW16416   4.063   4.186   2.829
 4105HO4     OW16417   3.873   2.052   0.424
 4105HO4    HW116418   3.864   1.998   0.339
 4105HO4    HW216419   3.951   2.114   0.416
 4105HO4     MW16420   3.873   2.052   0.424
 4106HO4     OW16421   5.314   1.281   3.929
 4106HO4    HW116422   5.407   1.272   3.894
 4106HO4    HW216423   5.257   1.330   3.862
 4106HO4     MW16424   5.314   1.281   3.929
 4107HO4     OW16425   3.008   1.750   0.797
 4107HO4    HW116426   3.056   1.740   0.885
 4107HO4    HW216427   3.049   1.826   0.746
 4107HO4     MW16428   3.008   1.750   0.797
 4108HO4     OW16429   0.234   3.356   3.223
 4108HO4    HW116430   0.240   3.420   3.145
 4108HO4    HW216431   0.223   3.409   3.307
 4108HO4     MW16432   0.234   3.356   3.223
 4109HO4     OW16433   0.737   3.615   4.775
 4109HO4    HW116434   0.690   3.598   4.862
 4109HO4    HW216435   0.734   3.531   4.719
 4109HO4     MW16436   0.737   3.615   4.775
 4110HO4     OW16437   4.456   0.839   5.484
 4110HO4    HW116438   4.403   0.879   5.409
 4110HO4    HW216439   4.413   0.753   5.514
 4110HO4     MW16440   4.456   0.839   5.484
 4111HO4     OW16441   0.782   3.175   4.167
 4111HO4    HW116442   0.780   3.117   4.085
 4111HO4    HW216443   0.832   3.129   4.240
 4111HO4     MW16444   0.782   3.175   4.167
 4112HO4     OW16445   1.699   3.757   1.808
 4112HO4    HW116446   1.735   3.742   1.901
 4112HO4    HW216447   1.692   3.669   1.760
 4112HO4     MW16448   1.699   3.757   1.808
 4113HO4     OW16449   0.934   2.575   3.787
 4113HO4    HW116450   1.018   2.590   3.735
 4113HO4    HW216451   0.902   2.480   3.772
 4113HO4     MW16452   0.934   2.575   3.787
 4114HO4     OW16453   0.846   4.604   3.851
 4114HO4    HW116454   0.934   4.561   3.827
 4114HO4    HW216455   0.794   4.542   3.910
 4114HO4     MW16456   0.846   4.604   3.851
 4115HO4     OW16457   3.762   0.135   1.882
 4115HO4    HW116458   3.692   0.178   1.825
 4115HO4    HW216459   3.719   0.094   1.963
 4115HO4     MW16460   3.762   0.135   1.882
 4116HO4     OW16461   3.514   1.551   3.532
 4116HO4    HW116462   3.534   1.626   3.468
 4116HO4    HW216463   3.581   1.552   3.606
 4116HO4     MW16464   3.514   1.551   3.532
 4117HO4     OW16465   1.558   3.731   0.964
 4117HO4    HW116466   1.494   3.805   0.942
 4117HO4    HW216467   1.651   3.768   0.972
 4117HO4     MW16468   1.558   3.731   0.964
 4118HO4     OW16469   2.279   0.392   0.256
 4118HO4    HW116470   2.324   0.320   0.310
 4118HO4    HW216471   2.228   0.350   0.180
 4118HO4     MW16472   2.279   0.392   0.256
 4119HO4     OW16473   3.792   1.152   0.577
 4119HO4    HW116474   3.879   1.195   0.553
 4119HO4    HW216475   3.754   1.105   0.496
 4119HO4     MW16476   3.792   1.152   0.577
 4120HO4     OW16477   3.993   4.898   4.238
 4120HO4    HW116478   4.025   4.958   4.164
 4120HO4    HW216479   3.969   4.808   4.201
 4120HO4     MW16480   3.993   4.898   4.238
 4121HO4     OW16481   3.879   2.063   0.065
 4121HO4    HW116482   3.913   2.012   0.145
 4121HO4    HW216483   3.896   2.009  -0.018
 4121HO4     MW16484   3.879   2.063   0.065
 4122HO4     OW16485   4.425   2.467   4.068
 4122HO4    HW116486   4.465   2.376   4.079
 4122HO4    HW216487   4.465   2.530   4.136
 4122HO4     MW16488   4.425   2.467   4.068
 4123HO4     OW16489   4.094   2.135   5.404
 4123HO4    HW116490   4.164   2.207   5.409
 4123HO4    HW216491   4.012   2.166   5.453
 4123HO4     MW16492   4.094   2.135   5.404
 4124HO4     OW16493   0.733   4.011   0.738
 4124HO4    HW116494   0.680   4.005   0.653
 4124HO4    HW216495   0.733   3.922   0.784
 4124HO4     MW16496   0.733   4.011   0.738
 4125HO4     OW16497   2.372   0.120   1.468
 4125HO4    HW116498   2.377   0.178   1.387
 4125HO4    HW216499   2.377   0.177   1.551
 4125HO4     MW16500   2.372   0.120   1.468
 4126HO4     OW16501   2.193   4.361   2.472
 4126HO4    HW116502   2.204   4.340   2.570
 4126HO4    HW216503   2.132   4.292   2.431
 4126HO4     MW16504   2.193   4.361   2.472
 4127HO4     OW16505   3.829   3.066   4.202
 4127HO4    HW116506   3.874   3.038   4.287
 4127HO4    HW216507   3.878   3.027   4.124
 4127HO4     MW16508   3.829   3.066   4.202
 4128HO4     OW16509   1.614   4.710   5.137
 4128HO4    HW116510   1.598   4.668   5.047
 4128HO4    HW216511   1.612   4.638   5.208
 4128HO4     MW16512   1.614   4.710   5.137
 4129HO4     OW16513   2.086   2.198   4.378
 4129HO4    HW116514   2.110   2.243   4.292
 4129HO4    HW216515   2.130   2.247   4.454
 4129HO4     MW16516   2.086   2.198   4.378
 4130HO4     OW16517   4.054   3.242   0.611
 4130HO4    HW116518   4.137   3.203   0.652
 4130HO4    HW216519   4.046   3.338   0.637
 4130HO4     MW16520   4.054   3.242   0.611
 4131HO4     OW16521   4.197   0.203   4.765
 4131HO4    HW116522   4.145   0.199   4.851
 4131HO4    HW216523   4.242   0.292   4.757
 4131HO4     MW16524   4.197   0.203   4.765
 4132HO4     OW16525   0.392   3.180   3.983
 4132HO4    HW116526   0.321   3.177   4.054
 4132HO4    HW216527   0.353   3.149   3.896
 4132HO4     MW16528   0.392   3.180   3.983
 4133HO4     OW16529   2.121   1.664   1.077
 4133HO4    HW116530   2.193   1.628   1.137
 4133HO4    HW216531   2.100   1.758   1.103
 4133HO4     MW16532   2.121   1.664   1.077
 4134HO4     OW16533   1.225   0.778   3.907
 4134HO4    HW116534   1.210   0.754   3.811
 4134HO4    HW216535   1.300   0.722   3.945
 4134HO4     MW16536   1.225   0.778   3.907
 4135HO4     OW16537   3.342   3.103   5.280
 4135HO4    HW116538   3.391   3.189   5.265
 4135HO4    HW216539   3.244   3.117   5.264
 4135HO4     MW16540   3.342   3.103   5.280
 4136HO4     OW16541   2.844   3.047   1.860
 4136HO4    HW116542   2.885   2.956   1.865
 4136HO4    HW216543   2.879   3.095   1.779
 4136HO4     MW16544   2.844   3.047   1.860
 4137HO4     OW16545   5.200   0.475   4.740
 4137HO4    HW116546   5.209   0.425   4.653
 4137HO4    HW216547   5.241   0.421   4.814
 4137HO4     MW16548   5.200   0.475   4.740
 4138HO4     OW16549   2.650   4.827   1.675
 4138HO4    HW116550   2.688   4.919   1.695
 4138HO4    HW216551   2.703   4.785   1.601
 4138HO4     MW16552   2.650   4.827   1.675
 4139HO4     OW16553   2.401   0.107   3.748
 4139HO4    HW116554   2.445   0.165   3.818
 4139HO4    HW216555   2.415   0.011   3.770
 4139HO4     MW16556   2.401   0.107   3.748
 4140HO4     OW16557   2.482   5.095   1.502
 4140HO4    HW116558   2.449   5.076   1.595
 4140HO4    HW216559   2.403   5.111   1.442
 4140HO4     MW16560   2.482   5.095   1.502
 4141HO4     OW16561   3.453   4.655   0.116
 4141HO4    HW116562   3.370   4.656   0.172
 4141HO4    HW216563   3.512   4.579   0.146
 4141HO4     MW16564   3.453   4.655   0.116
 4142HO4     OW16565   5.061   1.692   2.589
 4142HO4    HW116566   5.064   1.709   2.490
 4142HO4    HW216567   4.969   1.660   2.615
 4142HO4     MW16568   5.061   1.692   2.589
 4143HO4     OW16569   1.862   2.187   3.171
 4143HO4    HW116570   1.897   2.267   3.222
 4143HO4    HW216571   1.893   2.103   3.215
 4143HO4     MW16572   1.862   2.187   3.171
 4144HO4     OW16573   3.384   1.686   2.966
 4144HO4    HW116574   3.402   1.646   2.875
 4144HO4    HW216575   3.376   1.613   3.034
 4144HO4     MW16576   3.384   1.686   2.966
 4145HO4     OW16577   4.747   0.327   2.599
 4145HO4    HW116578   4.815   0.273   2.650
 4145HO4    HW216579   4.663   0.336   2.653
 4145HO4     MW16580   4.747   0.327   2.599
 4146HO4     OW16581   2.316   0.559   1.639
 4146HO4    HW116582   2.337   0.477   1.694
 4146HO4    HW216583   2.348   0.545   1.545
 4146HO4     MW16584   2.316   0.559   1.639
 4147HO4     OW16585   4.610   1.516   0.374
 4147HO4    HW116586   4.682   1.567   0.326
 4147HO4    HW216587   4.580   1.439   0.316
 4147HO4     MW16588   4.610   1.516   0.374
 4148HO4     OW16589   2.097   2.164   2.217
 4148HO4    HW116590   2.036   2.169   2.296
 4148HO4    HW216591   2.192   2.177   2.247
 4148HO4     MW16592   2.097   2.164   2.217
 4149HO4     OW16593   2.773   3.888   1.626
 4149HO4    HW116594   2.836   3.836   1.567
 4149HO4    HW216595   2.809   3.892   1.719
 4149HO4     MW16596   2.773   3.888   1.626
 4150HO4     OW16597   3.498   1.834   2.826
 4150HO4    HW116598   3.510   1.765   2.754
 4150HO4    HW216599   3.580   1.836   2.884
 4150HO4     MW16600   3.498   1.834   2.826
 4151HO4     OW16601   2.880   4.327   4.089
 4151HO4    HW116602   2.917   4.419   4.075
 4151HO4    HW216603   2.833   4.322   4.177
 4151HO4     MW16604   2.880   4.327   4.089
 4152HO4     OW16605   3.503   5.013   4.914
 4152HO4    HW116606   3.583   4.986   4.859
 4152HO4    HW216607   3.511   5.110   4.938
 4152HO4     MW16608   3.503   5.013   4.914
 4153HO4     OW16609   4.705   2.137   3.910
 4153HO4    HW116610   4.745   2.093   3.830
 4153HO4    HW216611   4.751   2.103   3.993
 4153HO4     MW16612   4.705   2.137   3.910
 4154HO4     OW16613   1.044   4.423   0.017
 4154HO4    HW116614   0.947   4.400   0.029
 4154HO4    HW216615   1.054   4.522   0.006
 4154HO4     MW16616   1.044   4.423   0.017
 4155HO4     OW16617   0.680   5.394   3.339
 4155HO4    HW116618   0.712   5.302   3.317
 4155HO4    HW216619   0.610   5.390   3.411
 4155HO4     MW16620   0.680   5.394   3.339
 4156HO4     OW16621   1.218   1.183   1.300
 4156HO4    HW116622   1.150   1.223   1.362
 4156HO4    HW216623   1.297   1.151   1.352
 4156HO4     MW16624   1.218   1.183   1.300
 4157HO4     OW16625   4.810   1.589   4.581
 4157HO4    HW116626   4.864   1.595   4.666
 4157HO4    HW216627   4.869   1.608   4.503
 4157HO4     MW16628   4.810   1.589   4.581
 4158HO4     OW16629   0.800   1.806   4.978
 4158HO4    HW116630   0.760   1.728   4.928
 4158HO4    HW216631   0.803   1.784   5.076
 4158HO4     MW16632   0.800   1.806   4.978
 4159HO4     OW16633   3.321   2.750   5.149
 4159HO4    HW116634   3.303   2.669   5.092
 4159HO4    HW216635   3.367   2.820   5.095
 4159HO4     MW16636   3.321   2.750   5.149
 4160HO4     OW16637   1.569   3.684   0.290
 4160HO4    HW116638   1.575   3.612   0.220
 4160HO4    HW216639   1.483   3.674   0.341
 4160HO4     MW16640   1.569   3.684   0.290
 4161HO4     OW16641   4.930   2.597   2.952
 4161HO4    HW116642   5.019   2.642   2.964
 4161HO4    HW216643   4.899   2.609   2.858
 4161HO4     MW16644   4.930   2.597   2.952
 4162HO4     OW16645   3.064   2.221  -0.000
 4162HO4    HW116646   3.014   2.239   0.085
 4162HO4    HW216647   3.003   2.236  -0.079
 4162HO4     MW16648   3.064   2.221  -0.000
 4163HO4     OW16649   1.992   5.298   2.252
 4163HO4    HW116650   1.974   5.317   2.155
 4163HO4    HW216651   1.929   5.353   2.308
 4163HO4     MW16652   1.992   5.298   2.252
 4164HO4     OW16653   3.939   0.230   2.153
 4164HO4    HW116654   4.014   0.245   2.218
 4164HO4    HW216655   3.977   0.220   2.060
 4164HO4     MW16656   3.939   0.230   2.153
 4165HO4     OW16657   2.958   4.919   4.023
 4165HO4    HW116658   2.947   4.820   4.021
 4165HO4    HW216659   3.018   4.948   3.948
 4165HO4     MW16660   2.958   4.919   4.023
 4166HO4     OW16661   5.391   0.153   3.575
 4166HO4    HW116662   5.330   0.186   3.502
 4166HO4    HW216663   5.385   0.214   3.654
 4166HO4     MW16664   5.391   0.153   3.575
 4167HO4     OW16665   5.339   0.748   3.192
 4167HO4    HW116666   5.379   0.840   3.196
 4167HO4    HW216667   5.315   0.718   3.285
 4167HO4     MW16668   5.339   0.748   3.192
 4168HO4     OW16669   0.926   4.139   0.509
 4168HO4    HW116670   0.906   4.104   0.417
 4168HO4    HW216671   0.841   4.174   0.550
 4168HO4     MW16672   0.926   4.139   0.509
 4169HO4     OW16673   0.569   4.073   4.163
 4169HO4    HW116674   0.623   3.998   4.124
 4169HO4    HW216675   0.513   4.039   4.239
 4169HO4     MW16676   0.569   4.073   4.163
 4170HO4     OW16677   1.540   4.330   1.430
 4170HO4    HW116678   1.578   4.302   1.342
 4170HO4    HW216679   1.601   4.299   1.504
 4170HO4     MW16680   1.540   4.330   1.430
 4171HO4     OW16681   4.980   0.423   4.119
 4171HO4    HW116682   4.968   0.511   4.073
 4171HO4    HW216683   4.928   0.422   4.205
 4171HO4     MW16684   4.980   0.423   4.119
 4172HO4     OW16685   4.752   3.395   5.285
 4172HO4    HW116686   4.754   3.397   5.184
 4172HO4    HW216687   4.724   3.486   5.319
 4172HO4     MW16688   4.752   3.395   5.285
 4173HO4     OW16689   1.940   1.865   0.444
 4173HO4    HW116690   1.997   1.943   0.469
 4173HO4    HW216691   1.871   1.850   0.516
 4173HO4     MW16692   1.940   1.865   0.444
 4174HO4     OW16693   3.183   3.559   2.503
 4174HO4    HW116694   3.247   3.482   2.515
 4174HO4    HW216695   3.165   3.572   2.405
 4174HO4     MW16696   3.183   3.559   2.503
 4175HO4     OW16697   4.060   0.276   2.634
 4175HO4    HW116698   4.138   0.323   2.676
 4175HO4    HW216699   4.029   0.329   2.554
 4175HO4     MW16700   4.060   0.276   2.634
 4176HO4     OW16701   3.542   5.262   5.459
 4176HO4    HW116702   3.488   5.181   5.433
 4176HO4    HW216703   3.541   5.329   5.384
 4176HO4     MW16704   3.542   5.262   5.459
 4177HO4     OW16705   1.816   2.861   2.199
 4177HO4    HW116706   1.760   2.877   2.280
 4177HO4    HW216707   1.760   2.877   2.116
 4177HO4     MW16708   1.816   2.861   2.199
 4178HO4     OW16709   0.144   5.042   4.432
 4178HO4    HW116710   0.074   5.111   4.409
 4178HO4    HW216711   0.220   5.087   4.480
 4178HO4     MW16712   0.144   5.042   4.432
 4179HO4     OW16713   1.211   1.146   2.471
 4179HO4    HW116714   1.303   1.177   2.498
 4179HO4    HW216715   1.207   1.046   2.475
 4179HO4     MW16716   1.211   1.146   2.471
 4180HO4     OW16717   0.765   4.246   0.203
 4180HO4    HW116718   0.822   4.328   0.190
 4180HO4    HW216719   0.673   4.262   0.167
 4180HO4     MW16720   0.765   4.246   0.203
 4181HO4     OW16721   2.419   0.320   4.095
 4181HO4    HW116722   2.498   0.335   4.154
 4181HO4    HW216723   2.448   0.274   4.011
 4181HO4     MW16724   2.419   0.320   4.095
 4182HO4     OW16725   2.208   3.999   1.464
 4182HO4    HW116726   2.148   4.035   1.391
 4182HO4    HW216727   2.205   4.060   1.543
 4182HO4     MW16728   2.208   3.999   1.464
 4183HO4     OW16729   1.177   1.994   1.492
 4183HO4    HW116730   1.104   1.960   1.433
 4183HO4    HW216731   1.153   2.087   1.523
 4183HO4     MW16732   1.177   1.994   1.492
 4184HO4     OW16733   4.164   3.501   0.689
 4184HO4    HW116734   4.233   3.456   0.746
 4184HO4    HW216735   4.190   3.596   0.672
 4184HO4     MW16736   4.164   3.501   0.689
 4185HO4     OW16737   1.247   1.468   5.093
 4185HO4    HW116738   1.273   1.419   5.177
 4185HO4    HW216739   1.267   1.410   5.014
 4185HO4     MW16740   1.247   1.468   5.093
 4186HO4     OW16741   1.566   0.803   3.141
 4186HO4    HW116742   1.526   0.764   3.058
 4186HO4    HW216743   1.526   0.759   3.222
 4186HO4     MW16744   1.566   0.803   3.141
 4187HO4     OW16745   2.245   0.426   1.191
 4187HO4    HW116746   2.299   0.346   1.219
 4187HO4    HW216747   2.290   0.510   1.224
 4187HO4     MW16748   2.245   0.426   1.191
 4188HO4     OW16749   1.377   0.392   2.775
 4188HO4    HW116750   1.296   0.337   2.796
 4188HO4    HW216751   1.401   0.381   2.679
 4188HO4     MW16752   1.377   0.392   2.775
 4189HO4     OW16753   4.813   3.750   1.394
 4189HO4    HW116754   4.826   3.821   1.324
 4189HO4    HW216755   4.735   3.692   1.369
 4189HO4     MW16756   4.813   3.750   1.394
 4190HO4     OW16757   0.419   3.634   2.514
 4190HO4    HW116758   0.373   3.581   2.586
 4190HO4    HW216759   0.456   3.572   2.445
 4190HO4     MW16760   0.419   3.634   2.514
 4191HO4     OW16761   4.561   4.056   5.415
 4191HO4    HW116762   4.512   4.024   5.334
 4191HO4    HW216763   4.514   4.023   5.498
 4191HO4     MW16764   4.561   4.056   5.415
 4192HO4     OW16765   4.550   2.696   0.130
 4192HO4    HW116766   4.502   2.765   0.076
 4192HO4    HW216767   4.570   2.732   0.221
 4192HO4     MW16768   4.550   2.696   0.130
 4193HO4     OW16769   1.013   2.000   5.008
 4193HO4    HW116770   0.928   1.980   4.959
 4193HO4    HW216771   0.991   2.036   5.099
 4193HO4     MW16772   1.013   2.000   5.008
 4194HO4     OW16773   4.490   3.819   5.342
 4194HO4    HW116774   4.557   3.865   5.400
 4194HO4    HW216775   4.519   3.824   5.246
 4194HO4     MW16776   4.490   3.819   5.342
 4195HO4     OW16777   1.569   4.329   3.937
 4195HO4    HW116778   1.607   4.313   3.846
 4195HO4    HW216779   1.515   4.414   3.936
 4195HO4     MW16780   1.569   4.329   3.937
 4196HO4     OW16781   2.003   1.854   3.125
 4196HO4    HW116782   1.988   1.881   3.221
 4196HO4    HW216783   1.915   1.825   3.085
 4196HO4     MW16784   2.003   1.854   3.125
 4197HO4     OW16785   4.094   0.355   1.970
 4197HO4    HW116786   4.134   0.321   2.056
 4197HO4    HW216787   4.133   0.303   1.893
 4197HO4     MW16788   4.094   0.355   1.970
 4198HO4     OW16789   2.801   4.688   2.395
 4198HO4    HW116790   2.782   4.744   2.476
 4198HO4    HW216791   2.856   4.741   2.329
 4198HO4     MW16792   2.801   4.688   2.395
 4199HO4     OW16793   4.090   4.945   0.628
 4199HO4    HW116794   4.154   4.936   0.552
 4199HO4    HW216795   4.141   4.960   0.714
 4199HO4     MW16796   4.090   4.945   0.628
 4200HO4     OW16797   3.421   2.404   4.640
 4200HO4    HW116798   3.482   2.434   4.566
 4200HO4    HW216799   3.343   2.466   4.647
 4200HO4     MW16800   3.421   2.404   4.640
 4201HO4     OW16801   1.581   2.521   4.217
 4201HO4    HW116802   1.635   2.445   4.180
 4201HO4    HW216803   1.569   2.508   4.316
 4201HO4     MW16804   1.581   2.521   4.217
 4202HO4     OW16805   3.764   0.295   4.767
 4202HO4    HW116806   3.800   0.334   4.682
 4202HO4    HW216807   3.750   0.368   4.835
 4202HO4     MW16808   3.764   0.295   4.767
 4203HO4     OW16809   5.242   1.915   0.274
 4203HO4    HW116810   5.277   1.961   0.355
 4203HO4    HW216811   5.237   1.816   0.290
 4203HO4     MW16812   5.242   1.915   0.274
 4204HO4     OW16813   0.070   4.603   1.549
 4204HO4    HW116814   0.123   4.670   1.602
 4204HO4    HW216815   0.127   4.523   1.531
 4204HO4     MW16816   0.070   4.603   1.549
 4205HO4     OW16817   3.621   0.327   3.151
 4205HO4    HW116818   3.611   0.386   3.232
 4205HO4    HW216819   3.617   0.383   3.068
 4205HO4     MW16820   3.621   0.327   3.151
 4206HO4     OW16821   0.755   4.928   3.969
 4206HO4    HW116822   0.693   4.998   3.934
 4206HO4    HW216823   0.828   4.911   3.901
 4206HO4     MW16824   0.755   4.928   3.969
 4207HO4     OW16825   1.728   2.699   4.535
 4207HO4    HW116826   1.686   2.660   4.617
 4207HO4    HW216827   1.679   2.665   4.454
 4207HO4     MW16828   1.728   2.699   4.535
 4208HO4     OW16829   2.232   5.402   0.667
 4208HO4    HW116830   2.239   5.384   0.766
 4208HO4    HW216831   2.187   5.490   0.653
 4208HO4     MW16832   2.232   5.402   0.667
 4209HO4     OW16833   0.446   3.511   4.651
 4209HO4    HW116834   0.423   3.459   4.568
 4209HO4    HW216835   0.504   3.455   4.710
 4209HO4     MW16836   0.446   3.511   4.651
 4210HO4     OW16837   1.314   4.777   0.126
 4210HO4    HW116838   1.228   4.804   0.170
 4210HO4    HW216839   1.302   4.777   0.027
 4210HO4     MW16840   1.314   4.777   0.126
 4211HO4     OW16841   4.941   3.297   2.336
 4211HO4    HW116842   4.903   3.387   2.356
 4211HO4    HW216843   4.997   3.302   2.253
 4211HO4     MW16844   4.941   3.297   2.336
 4212HO4     OW16845   3.843   5.149   1.970
 4212HO4    HW116846   3.855   5.050   1.967
 4212HO4    HW216847   3.931   5.194   1.951
 4212HO4     MW16848   3.843   5.149   1.970
 4213HO4     OW16849   4.546   0.594   2.155
 4213HO4    HW116850   4.488   0.559   2.081
 4213HO4    HW216851   4.495   0.662   2.208
 4213HO4     MW16852   4.546   0.594   2.155
 4214HO4     OW16853   1.335   5.072   0.652
 4214HO4    HW116854   1.387   5.122   0.722
 4214HO4    HW216855   1.390   5.067   0.567
 4214HO4     MW16856   1.335   5.072   0.652
 4215HO4     OW16857   1.960   0.531   3.371
 4215HO4    HW116858   1.979   0.477   3.288
 4215HO4    HW216859   2.014   0.496   3.447
 4215HO4     MW16860   1.960   0.531   3.371
 4216HO4     OW16861   3.393   1.926   1.910
 4216HO4    HW116862   3.385   1.859   1.836
 4216HO4    HW216863   3.308   1.979   1.916
 4216HO4     MW16864   3.393   1.926   1.910
 4217HO4     OW16865   2.697   0.350   0.716
 4217HO4    HW116866   2.603   0.320   0.736
 4217HO4    HW216867   2.705   0.448   0.733
 4217HO4     MW16868   2.697   0.350   0.716
 4218HO4     OW16869   2.038   5.046   1.380
 4218HO4    HW116870   2.015   4.968   1.320
 4218HO4    HW216871   1.954   5.089   1.414
 4218HO4     MW16872   2.038   5.046   1.380
 4219HO4     OW16873   0.559   0.389   1.024
 4219HO4    HW116874   0.637   0.342   0.981
 4219HO4    HW216875   0.542   0.348   1.114
 4219HO4     MW16876   0.559   0.389   1.024
 4220HO4     OW16877   0.592   3.501   5.289
 4220HO4    HW116878   0.556   3.468   5.377
 4220HO4    HW216879   0.520   3.554   5.241
 4220HO4     MW16880   0.592   3.501   5.289
 4221HO4     OW16881   0.684   3.987   0.352
 4221HO4    HW116882   0.689   3.927   0.271
 4221HO4    HW216883   0.696   3.932   0.435
 4221HO4     MW16884   0.684   3.987   0.352
 4222HO4     OW16885   4.045   2.204   4.220
 4222HO4    HW116886   4.016   2.258   4.299
 4222HO4    HW216887   4.023   2.254   4.135
 4222HO4     MW16888   4.045   2.204   4.220
 4223HO4     OW16889   0.488   1.952   5.396
 4223HO4    HW116890   0.580   1.948   5.438
 4223HO4    HW216891   0.483   1.886   5.321
 4223HO4     MW16892   0.488   1.952   5.396
 4224HO4     OW16893   2.955   4.951   1.447
 4224HO4    HW116894   2.879   4.888   1.467
 4224HO4    HW216895   2.919   5.044   1.439
 4224HO4     MW16896   2.955   4.951   1.447
 4225HO4     OW16897   1.686   0.595   0.469
 4225HO4    HW116898   1.615   0.596   0.540
 4225HO4    HW216899   1.717   0.689   0.451
 4225HO4     MW16900   1.686   0.595   0.469
 4226HO4     OW16901   4.498   2.816   0.901
 4226HO4    HW116902   4.468   2.865   0.820
 4226HO4    HW216903   4.466   2.864   0.984
 4226HO4     MW16904   4.498   2.816   0.901
 4227HO4     OW16905   1.077   4.293   0.534
 4227HO4    HW116906   0.979   4.304   0.551
 4227HO4    HW216907   1.094   4.200   0.499
 4227HO4     MW16908   1.077   4.293   0.534
 4228HO4     OW16909   5.151   1.099   0.600
 4228HO4    HW116910   5.109   1.079   0.689
 4228HO4    HW216911   5.102   1.050   0.528
 4228HO4     MW16912   5.151   1.099   0.600
 4229HO4     OW16913   1.765   4.396   1.381
 4229HO4    HW116914   1.794   4.325   1.447
 4229HO4    HW216915   1.829   4.473   1.385
 4229HO4     MW16916   1.765   4.396   1.381
 4230HO4     OW16917   4.607   2.455   3.637
 4230HO4    HW116918   4.552   2.492   3.712
 4230HO4    HW216919   4.701   2.438   3.668
 4230HO4     MW16920   4.607   2.455   3.637
 4231HO4     OW16921   5.233   5.467   2.340
 4231HO4    HW116922   5.227   5.396   2.411
 4231HO4    HW216923   5.172   5.443   2.264
 4231HO4     MW16924   5.233   5.467   2.340
 4232HO4     OW16925   4.476   3.835   1.252
 4232HO4    HW116926   4.482   3.740   1.219
 4232HO4    HW216927   4.403   3.883   1.203
 4232HO4     MW16928   4.476   3.835   1.252
 4233HO4     OW16929   0.993   3.832   1.858
 4233HO4    HW116930   0.981   3.756   1.793
 4233HO4    HW216931   0.987   3.796   1.952
 4233HO4     MW16932   0.993   3.832   1.858
 4234HO4     OW16933   2.343   2.108   4.492
 4234HO4    HW116934   2.433   2.146   4.469
 4234HO4    HW216935   2.284   2.181   4.527
 4234HO4     MW16936   2.343   2.108   4.492
 4235HO4     OW16937   3.955   5.158   4.585
 4235HO4    HW116938   3.930   5.069   4.546
 4235HO4    HW216939   3.995   5.145   4.677
 4235HO4     MW16940   3.955   5.158   4.585
 4236HO4     OW16941   0.312   4.190   4.294
 4236HO4    HW116942   0.243   4.204   4.365
 4236HO4    HW216943   0.267   4.165   4.208
 4236HO4     MW16944   0.312   4.190   4.294
 4237HO4     OW16945   1.952   4.763   0.646
 4237HO4    HW116946   1.892   4.816   0.706
 4237HO4    HW216947   2.029   4.821   0.616
 4237HO4     MW16948   1.952   4.763   0.646
 4238HO4     OW16949   1.394   4.809   1.215
 4238HO4    HW116950   1.352   4.749   1.283
 4238HO4    HW216951   1.484   4.839   1.247
 4238HO4     MW16952   1.394   4.809   1.215
 4239HO4     OW16953   1.691   2.007   3.170
 4239HO4    HW116954   1.624   1.999   3.245
 4239HO4    HW216955   1.648   1.979   3.083
 4239HO4     MW16956   1.691   2.007   3.170
 4240HO4     OW16957   2.713   0.699   2.298
 4240HO4    HW116958   2.772   0.714   2.218
 4240HO4    HW216959   2.766   0.716   2.382
 4240HO4     MW16960   2.713   0.699   2.298
 4241HO4     OW16961   4.232   4.324   3.768
 4241HO4    HW116962   4.305   4.309   3.835
 4241HO4    HW216963   4.151   4.360   3.814
 4241HO4     MW16964   4.232   4.324   3.768
 4242HO4     OW16965   0.582   1.588   3.415
 4242HO4    HW116966   0.608   1.629   3.503
 4242HO4    HW216967   0.650   1.520   3.388
 4242HO4     MW16968   0.582   1.588   3.415
 4243HO4     OW16969   2.567   2.349   0.860
 4243HO4    HW116970   2.570   2.445   0.889
 4243HO4    HW216971   2.606   2.291   0.932
 4243HO4     MW16972   2.567   2.349   0.860
 4244HO4     OW16973   0.181   4.442   1.184
 4244HO4    HW116974   0.155   4.513   1.118
 4244HO4    HW216975   0.156   4.472   1.277
 4244HO4     MW16976   0.181   4.442   1.184
 4245HO4     OW16977   5.059   0.729   5.036
 4245HO4    HW116978   5.122   0.667   4.988
 4245HO4    HW216979   4.974   0.737   4.984
 4245HO4     MW16980   5.059   0.729   5.036
 4246HO4     OW16981   3.341   0.016   2.266
 4246HO4    HW116982   3.252  -0.028   2.253
 4246HO4    HW216983   3.348   0.094   2.204
 4246HO4     MW16984   3.341   0.016   2.266
 4247HO4     OW16985   0.552   0.443   4.997
 4247HO4    HW116986   0.636   0.387   4.993
 4247HO4    HW216987   0.556   0.503   5.078
 4247HO4     MW16988   0.552   0.443   4.997
 4248HO4     OW16989   3.386   0.706   2.171
 4248HO4    HW116990   3.443   0.653   2.235
 4248HO4    HW216991   3.349   0.645   2.101
 4248HO4     MW16992   3.386   0.706   2.171
 4249HO4     OW16993   2.291   3.208   4.167
 4249HO4    HW116994   2.234   3.286   4.196
 4249HO4    HW216995   2.318   3.221   4.071
 4249HO4     MW16996   2.291   3.208   4.167
 4250HO4     OW16997   4.485   3.940   1.683
 4250HO4    HW116998   4.437   4.004   1.745
 4250HO4    HW216999   4.547   3.882   1.737
 4250HO4     MW17000   4.485   3.940   1.683
 4251HO4     OW17001   2.292   4.685   4.000
 4251HO4    HW117002   2.335   4.627   3.930
 4251HO4    HW217003   2.309   4.645   4.091
 4251HO4     MW17004   2.292   4.685   4.000
 4252HO4     OW17005   4.662   0.674   4.158
 4252HO4    HW117006   4.634   0.721   4.074
 4252HO4    HW217007   4.600   0.598   4.177
 4252HO4     MW17008   4.662   0.674   4.158
 4253HO4     OW17009   0.654   1.869   4.078
 4253HO4    HW117010   0.585   1.837   4.143
 4253HO4    HW217011   0.696   1.953   4.113
 4253HO4     MW17012   0.654   1.869   4.078
 4254HO4     OW17013   0.028   3.003   4.879
 4254HO4    HW117014  -0.049   3.041   4.827
 4254HO4    HW217015   0.113   3.017   4.827
 4254HO4     MW17016   0.028   3.003   4.879
 4255HO4     OW17017   4.537   0.532   0.783
 4255HO4    HW117018   4.605   0.598   0.814
 4255HO4    HW217019   4.566   0.491   0.696
 4255HO4     MW17020   4.537   0.532   0.783
 4256HO4     OW17021   4.236   1.785   2.283
 4256HO4    HW117022   4.278   1.852   2.345
 4256HO4    HW217023   4.306   1.720   2.251
 4256HO4     MW17024   4.236   1.785   2.283
 4257HO4     OW17025   4.050   1.524   5.373
 4257HO4    HW117026   4.090   1.456   5.310
 4257HO4    HW217027   4.118   1.549   5.443
 4257HO4     MW17028   4.050   1.524   5.373
 4258HO4     OW17029   3.303   2.769   2.983
 4258HO4    HW117030   3.363   2.848   2.995
 4258HO4    HW217031   3.359   2.687   2.965
 4258HO4     MW17032   3.303   2.769   2.983
 4259HO4     OW17033   4.536   5.052   3.516
 4259HO4    HW117034   4.609   5.095   3.462
 4259HO4    HW217035   4.578   4.991   3.584
 4259HO4     MW17036   4.536   5.052   3.516
 4260HO4     OW17037   0.577   4.140   3.521
 4260HO4    HW117038   0.562   4.228   3.569
 4260HO4    HW217039   0.514   4.071   3.559
 4260HO4     MW17040   0.577   4.140   3.521
 4261HO4     OW17041   1.049   3.074   3.313
 4261HO4    HW117042   1.037   3.151   3.250
 4261HO4    HW217043   1.036   2.987   3.263
 4261HO4     MW17044   1.049   3.074   3.313
 4262HO4     OW17045   1.655   0.897   1.069
 4262HO4    HW117046   1.679   0.839   1.148
 4262HO4    HW217047   1.641   0.839   0.988
 4262HO4     MW17048   1.655   0.897   1.069
 4263HO4     OW17049   5.456   4.093   4.516
 4263HO4    HW117050   5.510   4.062   4.594
 4263HO4    HW217051   5.463   4.193   4.507
 4263HO4     MW17052   5.456   4.093   4.516
 4264HO4     OW17053   2.067   4.528   2.624
 4264HO4    HW117054   2.046   4.466   2.548
 4264HO4    HW217055   2.140   4.489   2.681
 4264HO4     MW17056   2.067   4.528   2.624
 4265HO4     OW17057   5.087   3.322   3.638
 4265HO4    HW117058   5.107   3.413   3.600
 4265HO4    HW217059   5.006   3.284   3.592
 4265HO4     MW17060   5.087   3.322   3.638
 4266HO4     OW17061   4.962   0.869   3.610
 4266HO4    HW117062   4.965   0.945   3.543
 4266HO4    HW217063   4.868   0.834   3.615
 4266HO4     MW17064   4.962   0.869   3.610
 4267HO4     OW17065   5.237   4.493   4.441
 4267HO4    HW117066   5.192   4.509   4.353
 4267HO4    HW217067   5.174   4.519   4.515
 4267HO4     MW17068   5.237   4.493   4.441
 4268HO4     OW17069   1.284   4.835   0.659
 4268HO4    HW117070   1.263   4.869   0.567
 4268HO4    HW217071   1.305   4.737   0.654
 4268HO4     MW17072   1.284   4.835   0.659
 4269HO4     OW17073   1.908   0.089   0.372
 4269HO4    HW117074   1.844   0.161   0.401
 4269HO4    HW217075   1.860   0.025   0.311
 4269HO4     MW17076   1.908   0.089   0.372
 4270HO4     OW17077   3.604   5.078   3.855
 4270HO4    HW117078   3.695   5.091   3.813
 4270HO4    HW217079   3.574   5.165   3.897
 4270HO4     MW17080   3.604   5.078   3.855
 4271HO4     OW17081   4.813   2.729   5.056
 4271HO4    HW117082   4.864   2.688   4.980
 4271HO4    HW217083   4.874   2.742   5.135
 4271HO4     MW17084   4.813   2.729   5.056
 4272HO4     OW17085   2.735   1.641   1.998
 4272HO4    HW117086   2.704   1.583   1.922
 4272HO4    HW217087   2.741   1.587   2.082
 4272HO4     MW17088   2.735   1.641   1.998
 4273HO4     OW17089   2.029   3.074   0.385
 4273HO4    HW117090   1.934   3.106   0.382
 4273HO4    HW217091   2.030   2.974   0.397
 4273HO4     MW17092   2.029   3.074   0.385
 4274HO4     OW17093   3.963   0.570   1.237
 4274HO4    HW117094   4.054   0.550   1.274
 4274HO4    HW217095   3.894   0.519   1.289
 4274HO4     MW17096   3.963   0.570   1.237
 4275HO4     OW17097   1.493   1.533   1.824
 4275HO4    HW117098   1.444   1.607   1.777
 4275HO4    HW217099   1.555   1.488   1.759
 4275HO4     MW17100   1.493   1.533   1.824
 4276HO4     OW17101   4.150   2.412   3.608
 4276HO4    HW117102   4.208   2.397   3.527
 4276HO4    HW217103   4.206   2.402   3.691
 4276HO4     MW17104   4.150   2.412   3.608
 4277HO4     OW17105   0.938   0.448   1.628
 4277HO4    HW117106   0.866   0.489   1.570
 4277HO4    HW217107   0.900   0.427   1.718
 4277HO4     MW17108   0.938   0.448   1.628
 4278HO4     OW17109   2.471   3.169   1.188
 4278HO4    HW117110   2.542   3.231   1.152
 4278HO4    HW217111   2.495   3.141   1.281
 4278HO4     MW17112   2.471   3.169   1.188
 4279HO4     OW17113   3.962   4.425   3.749
 4279HO4    HW117114   3.899   4.492   3.791
 4279HO4    HW217115   3.992   4.360   3.819
 4279HO4     MW17116   3.962   4.425   3.749
 4280HO4     OW17117   5.144   2.158   4.038
 4280HO4    HW117118   5.098   2.247   4.036
 4280HO4    HW217119   5.159   2.126   3.944
 4280HO4     MW17120   5.144   2.158   4.038
 4281HO4     OW17121   4.121   0.352   1.619
 4281HO4    HW117122   4.056   0.429   1.616
 4281HO4    HW217123   4.215   0.388   1.616
 4281HO4     MW17124   4.121   0.352   1.619
 4282HO4     OW17125   0.565   0.193   5.422
 4282HO4    HW117126   0.601   0.287   5.424
 4282HO4    HW217127   0.467   0.195   5.404
 4282HO4     MW17128   0.565   0.193   5.422
 4283HO4     OW17129   0.898   1.349   1.968
 4283HO4    HW117130   0.901   1.298   1.881
 4283HO4    HW217131   0.899   1.285   2.045
 4283HO4     MW17132   0.898   1.349   1.968
 4284HO4     OW17133   1.461   3.985   5.219
 4284HO4    HW117134   1.512   4.058   5.171
 4284HO4    HW217135   1.378   3.962   5.167
 4284HO4     MW17136   1.461   3.985   5.219
 4285HO4     OW17137   4.107   0.028   3.730
 4285HO4    HW117138   4.029   0.090   3.716
 4285HO4    HW217139   4.137   0.032   3.826
 4285HO4     MW17140   4.107   0.028   3.730
 4286HO4     OW17141   1.027   4.486   1.776
 4286HO4    HW117142   1.115   4.440   1.764
 4286HO4    HW217143   0.972   4.436   1.844
 4286HO4     MW17144   1.027   4.486   1.776
 4287HO4     OW17145   1.955   5.003   2.231
 4287HO4    HW117146   1.925   5.096   2.255
 4287HO4    HW217147   1.945   4.943   2.310
 4287HO4     MW17148   1.955   5.003   2.231
 4288HO4     OW17149   3.443   3.064   1.764
 4288HO4    HW117150   3.399   3.025   1.683
 4288HO4    HW217151   3.400   3.026   1.847
 4288HO4     MW17152   3.443   3.064   1.764
 4289HO4     OW17153   3.152   5.366   4.361
 4289HO4    HW117154   3.173   5.326   4.271
 4289HO4    HW217155   3.195   5.309   4.432
 4289HO4     MW17156   3.152   5.366   4.361
 4290HO4     OW17157   1.187   4.536   0.884
 4290HO4    HW117158   1.247   4.608   0.921
 4290HO4    HW217159   1.242   4.473   0.828
 4290HO4     MW17160   1.187   4.536   0.884
 4291HO4     OW17161   1.878   1.471   1.188
 4291HO4    HW117162   1.846   1.387   1.142
 4291HO4    HW217163   1.962   1.451   1.240
 4291HO4     MW17164   1.878   1.471   1.188
 4292HO4     OW17165   3.315   2.684   4.555
 4292HO4    HW117166   3.339   2.734   4.471
 4292HO4    HW217167   3.317   2.585   4.538
 4292HO4     MW17168   3.315   2.684   4.555
 4293HO4     OW17169   0.917   0.539   2.620
 4293HO4    HW117170   0.889   0.631   2.646
 4293HO4    HW217171   0.962   0.494   2.697
 4293HO4     MW17172   0.917   0.539   2.620
 4294HO4     OW17173   0.024   1.073   1.562
 4294HO4    HW117174  -0.052   1.050   1.500
 4294HO4    HW217175   0.067   1.158   1.531
 4294HO4     MW17176   0.024   1.073   1.562
 4295HO4     OW17177   4.222   1.919   3.942
 4295HO4    HW117178   4.245   1.847   4.008
 4295HO4    HW217179   4.171   1.992   3.990
 4295HO4     MW17180   4.222   1.919   3.942
 4296HO4     OW17181   3.986   1.205   3.145
 4296HO4    HW117182   3.948   1.161   3.063
 4296HO4    HW217183   3.987   1.138   3.221
 4296HO4     MW17184   3.986   1.205   3.145
 4297HO4     OW17185   0.139   3.774   5.306
 4297HO4    HW117186   0.175   3.864   5.331
 4297HO4    HW217187   0.143   3.763   5.206
 4297HO4     MW17188   0.139   3.774   5.306
 4298HO4     OW17189   2.176   3.172   0.130
 4298HO4    HW117190   2.232   3.161   0.047
 4298HO4    HW217191   2.233   3.156   0.211
 4298HO4     MW17192   2.176   3.172   0.130
 4299HO4     OW17193   4.351   0.948   1.199
 4299HO4    HW117194   4.425   0.934   1.265
 4299HO4    HW217195   4.308   0.860   1.178
 4299HO4     MW17196   4.351   0.948   1.199
 4300HO4     OW17197   1.581   5.208   5.317
 4300HO4    HW117198   1.586   5.109   5.331
 4300HO4    HW217199   1.485   5.236   5.309
 4300HO4     MW17200   1.581   5.208   5.317
 4301HO4     OW17201   2.781   4.950   4.237
 4301HO4    HW117202   2.692   4.978   4.200
 4301HO4    HW217203   2.767   4.883   4.311
 4301HO4     MW17204   2.781   4.950   4.237
 4302HO4     OW17205   4.080   2.122   0.842
 4302HO4    HW117206   4.099   2.219   0.862
 4302HO4    HW217207   4.080   2.109   0.742
 4302HO4     MW17208   4.080   2.122   0.842
 4303HO4     OW17209   0.772   0.405   4.417
 4303HO4    HW117210   0.781   0.490   4.365
 4303HO4    HW217211   0.724   0.336   4.362
 4303HO4     MW17212   0.772   0.405   4.417
 4304HO4     OW17213   0.229   0.991   3.082
 4304HO4    HW117214   0.135   0.956   3.087
 4304HO4    HW217215   0.292   0.915   3.063
 4304HO4     MW17216   0.229   0.991   3.082
 4305HO4     OW17217   4.078   3.925   1.675
 4305HO4    HW117218   4.173   3.923   1.707
 4305HO4    HW217219   4.064   4.005   1.616
 4305HO4     MW17220   4.078   3.925   1.675
 4306HO4     OW17221   3.693   0.151   0.456
 4306HO4    HW117222   3.720   0.149   0.553
 4306HO4    HW217223   3.676   0.246   0.428
 4306HO4     MW17224   3.693   0.151   0.456
 4307HO4     OW17225   4.249   0.749   3.766
 4307HO4    HW117226   4.260   0.710   3.858
 4307HO4    HW217227   4.164   0.803   3.762
 4307HO4     MW17228   4.249   0.749   3.766
 4308HO4     OW17229   1.202   2.113   0.599
 4308HO4    HW117230   1.171   2.123   0.694
 4308HO4    HW217231   1.124   2.127   0.537
 4308HO4     MW17232   1.202   2.113   0.599
 4309HO4     OW17233  -0.010   3.653   5.096
 4309HO4    HW117234   0.025   3.565   5.130
 4309HO4    HW217235   0.022   3.669   5.002
 4309HO4     MW17236  -0.010   3.653   5.096
 4310HO4     OW17237   4.140   4.027   4.366
 4310HO4    HW117238   4.164   3.965   4.290
 4310HO4    HW217239   4.149   3.978   4.453
 4310HO4     MW17240   4.140   4.027   4.366
 4311HO4     OW17241   1.365   4.067   2.276
 4311HO4    HW117242   1.370   4.154   2.327
 4311HO4    HW217243   1.358   3.991   2.341
 4311HO4     MW17244   1.365   4.067   2.276
 4312HO4     OW17245   2.370   2.436   3.646
 4312HO4    HW117246   2.362   2.475   3.738
 4312HO4    HW217247   2.343   2.504   3.578
 4312HO4     MW17248   2.370   2.436   3.646
 4313HO4     OW17249   4.979   5.162   3.796
 4313HO4    HW117250   4.929   5.165   3.709
 4313HO4    HW217251   4.931   5.220   3.863
 4313HO4     MW17252   4.979   5.162   3.796
 4314HO4     OW17253   4.838   1.545   4.850
 4314HO4    HW117254   4.790   1.458   4.837
 4314HO4    HW217255   4.830   1.573   4.946
 4314HO4     MW17256   4.838   1.545   4.850
 4315HO4     OW17257   4.049   2.808   4.372
 4315HO4    HW117258   3.999   2.797   4.285
 4315HO4    HW217259   3.985   2.795   4.448
 4315HO4     MW17260   4.049   2.808   4.372
 4316HO4     OW17261   2.963   5.142   5.315
 4316HO4    HW117262   3.044   5.087   5.337
 4316HO4    HW217263   2.947   5.140   5.216
 4316HO4     MW17264   2.963   5.142   5.315
 4317HO4     OW17265   4.484   4.748   3.052
 4317HO4    HW117266   4.432   4.664   3.032
 4317HO4    HW217267   4.545   4.769   2.976
 4317HO4     MW17268   4.484   4.748   3.052
 4318HO4     OW17269   0.300   3.230   5.098
 4318HO4    HW117270   0.360   3.173   5.041
 4318HO4    HW217271   0.273   3.178   5.180
 4318HO4     MW17272   0.300   3.230   5.098
 4319HO4     OW17273   1.000   2.856   3.883
 4319HO4    HW117274   1.047   2.929   3.933
 4319HO4    HW217275   1.035   2.853   3.788
 4319HO4     MW17276   1.000   2.856   3.883
 4320HO4     OW17277   2.190   2.659   4.411
 4320HO4    HW117278   2.182   2.726   4.337
 4320HO4    HW217279   2.099   2.627   4.439
 4320HO4     MW17280   2.190   2.659   4.411
 4321HO4     OW17281   4.550   2.939   4.802
 4321HO4    HW117282   4.645   2.940   4.771
 4321HO4    HW217283   4.548   2.944   4.903
 4321HO4     MW17284   4.550   2.939   4.802
 4322HO4     OW17285   4.164   2.423   1.301
 4322HO4    HW117286   4.241   2.408   1.240
 4322HO4    HW217287   4.140   2.337   1.347
 4322HO4     MW17288   4.164   2.423   1.301
 4323HO4     OW17289   4.998   2.410   4.990
 4323HO4    HW117290   4.989   2.341   4.918
 4323HO4    HW217291   4.909   2.453   5.006
 4323HO4     MW17292   4.998   2.410   4.990
 4324HO4     OW17293   1.948   2.186   3.506
 4324HO4    HW117294   1.939   2.285   3.500
 4324HO4    HW217295   1.898   2.143   3.430
 4324HO4     MW17296   1.948   2.186   3.506
 4325HO4     OW17297   3.650   3.919   4.374
 4325HO4    HW117298   3.700   3.934   4.287
 4325HO4    HW217299   3.704   3.957   4.450
 4325HO4     MW17300   3.650   3.919   4.374
 4326HO4     OW17301   0.578   1.373   3.222
 4326HO4    HW117302   0.641   1.300   3.195
 4326HO4    HW217303   0.554   1.361   3.319
 4326HO4     MW17304   0.578   1.373   3.222
 4327HO4     OW17305   2.755   2.479   3.665
 4327HO4    HW117306   2.781   2.521   3.753
 4327HO4    HW217307   2.838   2.466   3.609
 4327HO4     MW17308   2.755   2.479   3.665
 4328HO4     OW17309   3.547   4.213   1.094
 4328HO4    HW117310   3.514   4.157   1.170
 4328HO4    HW217311   3.647   4.218   1.097
 4328HO4     MW17312   3.547   4.213   1.094
 4329HO4     OW17313   4.352   0.370   3.542
 4329HO4    HW117314   4.259   0.343   3.515
 4329HO4    HW217315   4.358   0.371   3.642
 4329HO4     MW17316   4.352   0.370   3.542
 4330HO4     OW17317   3.222   3.511   4.767
 4330HO4    HW117318   3.215   3.544   4.861
 4330HO4    HW217319   3.316   3.480   4.749
 4330HO4     MW17320   3.222   3.511   4.767
 4331HO4     OW17321   4.811   4.791   5.053
 4331HO4    HW117322   4.750   4.801   4.974
 4331HO4    HW217323   4.864   4.876   5.066
 4331HO4     MW17324   4.811   4.791   5.053
 4332HO4     OW17325   1.282   2.064   0.114
 4332HO4    HW117326   1.232   2.151   0.102
 4332HO4    HW217327   1.363   2.080   0.171
 4332HO4     MW17328   1.282   2.064   0.114
 4333HO4     OW17329   1.209   1.448   3.755
 4333HO4    HW117330   1.129   1.394   3.783
 4333HO4    HW217331   1.179   1.541   3.732
 4333HO4     MW17332   1.209   1.448   3.755
 4334HO4     OW17333   3.725   3.213   0.599
 4334HO4    HW117334   3.625   3.214   0.605
 4334HO4    HW217335   3.764   3.240   0.687
 4334HO4     MW17336   3.725   3.213   0.599
 4335HO4     OW17337   3.012   0.577   2.413
 4335HO4    HW117338   2.983   0.609   2.504
 4335HO4    HW217339   3.076   0.644   2.373
 4335HO4     MW17340   3.012   0.577   2.413
 4336HO4     OW17341   5.437   3.224   4.175
 4336HO4    HW117342   5.506   3.174   4.228
 4336HO4    HW217343   5.362   3.253   4.235
 4336HO4     MW17344   5.437   3.224   4.175
 4337HO4     OW17345   3.619   0.308   0.722
 4337HO4    HW117346   3.569   0.305   0.635
 4337HO4    HW217347   3.695   0.373   0.715
 4337HO4     MW17348   3.619   0.308   0.722
 4338HO4     OW17349   2.026   3.011   5.116
 4338HO4    HW117350   2.075   2.976   5.196
 4338HO4    HW217351   2.003   2.936   5.054
 4338HO4     MW17352   2.026   3.011   5.116
 4339HO4     OW17353   2.441   5.188   2.284
 4339HO4    HW117354   2.519   5.140   2.245
 4339HO4    HW217355   2.422   5.153   2.376
 4339HO4     MW17356   2.441   5.188   2.284
 4340HO4     OW17357   2.514   1.773   0.646
 4340HO4    HW117358   2.476   1.762   0.738
 4340HO4    HW217359   2.465   1.713   0.582
 4340HO4     MW17360   2.514   1.773   0.646
 4341HO4     OW17361   0.256   1.241   3.069
 4341HO4    HW117362   0.215   1.220   2.980
 4341HO4    HW217363   0.208   1.319   3.111
 4341HO4     MW17364   0.256   1.241   3.069
 4342HO4     OW17365   4.477   3.428   2.876
 4342HO4    HW117366   4.484   3.420   2.776
 4342HO4    HW217367   4.568   3.425   2.916
 4342HO4     MW17368   4.477   3.428   2.876
 4343HO4     OW17369   1.085   1.949   3.150
 4343HO4    HW117370   1.108   2.038   3.191
 4343HO4    HW217371   1.041   1.963   3.061
 4343HO4     MW17372   1.085   1.949   3.150
 4344HO4     OW17373   1.361   4.380   2.692
 4344HO4    HW117374   1.325   4.473   2.698
 4344HO4    HW217375   1.391   4.362   2.598
 4344HO4     MW17376   1.361   4.380   2.692
 4345HO4     OW17377   0.653   1.833   0.802
 4345HO4    HW117378   0.651   1.764   0.875
 4345HO4    HW217379   0.650   1.788   0.713
 4345HO4     MW17380   0.653   1.833   0.802
 4346HO4     OW17381   0.864   0.723   1.264
 4346HO4    HW117382   0.855   0.627   1.234
 4346HO4    HW217383   0.775   0.769   1.255
 4346HO4     MW17384   0.864   0.723   1.264
 4347HO4     OW17385   3.616   3.688   0.583
 4347HO4    HW117386   3.595   3.756   0.654
 4347HO4    HW217387   3.677   3.729   0.515
 4347HO4     MW17388   3.616   3.688   0.583
 4348HO4     OW17389   2.632   5.023   2.852
 4348HO4    HW117390   2.724   5.019   2.894
 4348HO4    HW217391   2.641   5.026   2.752
 4348HO4     MW17392   2.632   5.023   2.852
 4349HO4     OW17393   0.365   3.620   0.293
 4349HO4    HW117394   0.324   3.580   0.375
 4349HO4    HW217395   0.419   3.701   0.318
 4349HO4     MW17396   0.365   3.620   0.293
 4350HO4     OW17397   5.401   2.016   4.244
 4350HO4    HW117398   5.410   2.095   4.306
 4350HO4    HW217399   5.365   2.046   4.155
 4350HO4     MW17400   5.401   2.016   4.244
 4351HO4     OW17401   0.474   5.387   4.724
 4351HO4    HW117402   0.496   5.350   4.815
 4351HO4    HW217403   0.517   5.477   4.714
 4351HO4     MW17404   0.474   5.387   4.724
 4352HO4     OW17405   2.302   5.212   4.267
 4352HO4    HW117406   2.211   5.186   4.234
 4352HO4    HW217407   2.306   5.203   4.367
 4352HO4     MW17408   2.302   5.212   4.267
 4353HO4     OW17409   1.419   0.154   1.589
 4353HO4    HW117410   1.374   0.219   1.526
 4353HO4    HW217411   1.381   0.166   1.681
 4353HO4     MW17412   1.419   0.154   1.589
 4354HO4     OW17413   1.539   4.655   2.384
 4354HO4    HW117414   1.610   4.659   2.455
 4354HO4    HW217415   1.583   4.643   2.294
 4354HO4     MW17416   1.539   4.655   2.384
 4355HO4     OW17417   4.100   0.737   0.688
 4355HO4    HW117418   4.142   0.650   0.658
 4355HO4    HW217419   4.172   0.805   0.704
 4355HO4     MW17420   4.100   0.737   0.688
 4356HO4     OW17421   2.371   2.673   1.272
 4356HO4    HW117422   2.273   2.650   1.265
 4356HO4    HW217423   2.425   2.589   1.274
 4356HO4     MW17424   2.371   2.673   1.272
 4357HO4     OW17425   3.676   4.304   1.636
 4357HO4    HW117426   3.684   4.395   1.677
 4357HO4    HW217427   3.712   4.306   1.543
 4357HO4     MW17428   3.676   4.304   1.636
 4358HO4     OW17429   0.833   3.114   0.589
 4358HO4    HW117430   0.921   3.151   0.556
 4358HO4    HW217431   0.788   3.063   0.515
 4358HO4     MW17432   0.833   3.114   0.589
 4359HO4     OW17433   1.372   1.557   2.571
 4359HO4    HW117434   1.330   1.477   2.614
 4359HO4    HW217435   1.451   1.528   2.516
 4359HO4     MW17436   1.372   1.557   2.571
 4360HO4     OW17437   0.035   2.032   0.893
 4360HO4    HW117438  -0.045   2.047   0.953
 4360HO4    HW217439   0.104   2.103   0.912
 4360HO4     MW17440   0.035   2.032   0.893
 4361HO4     OW17441   0.968   4.170   0.819
 4361HO4    HW117442   0.920   4.137   0.901
 4361HO4    HW217443   0.971   4.096   0.751
 4361HO4     MW17444   0.968   4.170   0.819
 4362HO4     OW17445   4.200   3.415   1.945
 4362HO4    HW117446   4.135   3.407   1.868
 4362HO4    HW217447   4.151   3.402   2.032
 4362HO4     MW17448   4.200   3.415   1.945
 4363HO4     OW17449   4.348   4.832   0.733
 4363HO4    HW117450   4.363   4.780   0.648
 4363HO4    HW217451   4.364   4.771   0.812
 4363HO4     MW17452   4.348   4.832   0.733
 4364HO4     OW17453   0.840   5.256   4.942
 4364HO4    HW117454   0.916   5.226   5.000
 4364HO4    HW217455   0.819   5.185   4.875
 4364HO4     MW17456   0.840   5.256   4.942
 4365HO4     OW17457   1.349   2.999   2.484
 4365HO4    HW117458   1.344   3.098   2.467
 4365HO4    HW217459   1.326   2.981   2.580
 4365HO4     MW17460   1.349   2.999   2.484
 4366HO4     OW17461   1.885   5.332   4.087
 4366HO4    HW117462   1.886   5.316   4.186
 4366HO4    HW217463   1.975   5.365   4.057
 4366HO4     MW17464   1.885   5.332   4.087
 4367HO4     OW17465   3.046   1.000   5.188
 4367HO4    HW117466   3.010   1.023   5.278
 4367HO4    HW217467   3.146   0.989   5.194
 4367HO4     MW17468   3.046   1.000   5.188
 4368HO4     OW17469   1.960   2.604   4.756
 4368HO4    HW117470   2.011   2.585   4.841
 4368HO4    HW217471   2.009   2.563   4.678
 4368HO4     MW17472   1.960   2.604   4.756
 4369HO4     OW17473   2.914   1.947   2.593
 4369HO4    HW117474   2.997   1.900   2.561
 4369HO4    HW217475   2.933   2.045   2.602
 4369HO4     MW17476   2.914   1.947   2.593
 4370HO4     OW17477   0.304   2.821   4.913
 4370HO4    HW117478   0.276   2.843   5.007
 4370HO4    HW217479   0.399   2.849   4.898
 4370HO4     MW17480   0.304   2.821   4.913
 4371HO4     OW17481   4.117   4.773   2.875
 4371HO4    HW117482   4.145   4.826   2.795
 4371HO4    HW217483   4.150   4.819   2.958
 4371HO4     MW17484   4.117   4.773   2.875
 4372HO4     OW17485   0.920   1.540   2.352
 4372HO4    HW117486   0.959   1.572   2.265
 4372HO4    HW217487   0.914   1.617   2.416
 4372HO4     MW17488   0.920   1.540   2.352
 4373HO4     OW17489   0.831   0.639   3.438
 4373HO4    HW117490   0.819   0.655   3.537
 4373HO4    HW217491   0.897   0.705   3.402
 4373HO4     MW17492   0.831   0.639   3.438
 4374HO4     OW17493   3.933   4.546   2.524
 4374HO4    HW117494   3.941   4.540   2.424
 4374HO4    HW217495   3.836   4.555   2.549
 4374HO4     MW17496   3.933   4.546   2.524
 4375HO4     OW17497   0.789   2.646   0.920
 4375HO4    HW117498   0.750   2.554   0.928
 4375HO4    HW217499   0.715   2.712   0.905
 4375HO4     MW17500   0.789   2.646   0.920
 4376HO4     OW17501   1.551   4.867   4.947
 4376HO4    HW117502   1.644   4.829   4.953
 4376HO4    HW217503   1.554   4.956   4.900
 4376HO4     MW17504   1.551   4.867   4.947
 4377HO4     OW17505   1.894   3.609   3.201
 4377HO4    HW117506   1.937   3.613   3.110
 4377HO4    HW217507   1.961   3.636   3.270
 4377HO4     MW17508   1.894   3.609   3.201
 4378HO4     OW17509   1.405   0.125   4.993
 4378HO4    HW117510   1.355   0.090   5.073
 4378HO4    HW217511   1.428   0.222   5.008
 4378HO4     MW17512   1.405   0.125   4.993
 4379HO4     OW17513   4.680   3.689   2.641
 4379HO4    HW117514   4.742   3.680   2.563
 4379HO4    HW217515   4.597   3.635   2.623
 4379HO4     MW17516   4.680   3.689   2.641
 4380HO4     OW17517   1.275   2.884   1.483
 4380HO4    HW117518   1.271   2.979   1.451
 4380HO4    HW217519   1.370   2.862   1.509
 4380HO4     MW17520   1.275   2.884   1.483
 4381HO4     OW17521   2.537   3.584   1.009
 4381HO4    HW117522   2.460   3.570   1.072
 4381HO4    HW217523   2.514   3.657   0.943
 4381HO4     MW17524   2.537   3.584   1.009
 4382HO4     OW17525   2.450   0.574   3.806
 4382HO4    HW117526   2.379   0.646   3.806
 4382HO4    HW217527   2.441   0.518   3.723
 4382HO4     MW17528   2.450   0.574   3.806
 4383HO4     OW17529   1.591   4.553   5.399
 4383HO4    HW117530   1.534   4.608   5.338
 4383HO4    HW217531   1.535   4.515   5.473
 4383HO4     MW17532   1.591   4.553   5.399
 4384HO4     OW17533   1.588   2.320   4.353
 4384HO4    HW117534   1.538   2.273   4.280
 4384HO4    HW217535   1.683   2.289   4.353
 4384HO4     MW17536   1.588   2.320   4.353
 4385HO4     OW17537   0.848   1.783   4.483
 4385HO4    HW117538   0.927   1.840   4.458
 4385HO4    HW217539   0.841   1.778   4.583
 4385HO4     MW17540   0.848   1.783   4.483
 4386HO4     OW17541   1.455   0.511   1.492
 4386HO4    HW117542   1.523   0.585   1.496
 4386HO4    HW217543   1.429   0.485   1.585
 4386HO4     MW17544   1.455   0.511   1.492
 4387HO4     OW17545   4.845   1.287   3.496
 4387HO4    HW117546   4.822   1.247   3.585
 4387HO4    HW217547   4.798   1.237   3.423
 4387HO4     MW17548   4.845   1.287   3.496
 4388HO4     OW17549   2.335   3.185   0.634
 4388HO4    HW117550   2.372   3.122   0.565
 4388HO4    HW217551   2.411   3.228   0.684
 4388HO4     MW17552   2.335   3.185   0.634
 4389HO4     OW17553   3.236   3.832   0.216
 4389HO4    HW117554   3.195   3.811   0.305
 4389HO4    HW217555   3.171   3.810   0.143
 4389HO4     MW17556   3.236   3.832   0.216
 4390HO4     OW17557   1.629   3.170   4.460
 4390HO4    HW117558   1.606   3.240   4.529
 4390HO4    HW217559   1.651   3.216   4.373
 4390HO4     MW17560   1.629   3.170   4.460
 4391HO4     OW17561   3.886   4.165   1.898
 4391HO4    HW117562   3.915   4.112   1.978
 4391HO4    HW217563   3.917   4.119   1.815
 4391HO4     MW17564   3.886   4.165   1.898
 4392HO4     OW17565   1.165   1.902   3.352
 4392HO4    HW117566   1.234   1.899   3.425
 4392HO4    HW217567   1.211   1.898   3.263
 4392HO4     MW17568   1.165   1.902   3.352
 4393HO4     OW17569   3.262   5.135   2.904
 4393HO4    HW117570   3.206   5.187   2.970
 4393HO4    HW217571   3.204   5.071   2.854
 4393HO4     MW17572   3.262   5.135   2.904
 4394HO4     OW17573   2.578   1.467   3.161
 4394HO4    HW117574   2.575   1.424   3.070
 4394HO4    HW217575   2.672   1.465   3.195
 4394HO4     MW17576   2.578   1.467   3.161
 4395HO4     OW17577   1.774   1.756   1.794
 4395HO4    HW117578   1.684   1.732   1.832
 4395HO4    HW217579   1.846   1.728   1.858
 4395HO4     MW17580   1.774   1.756   1.794
 4396HO4     OW17581   2.918   5.327   2.138
 4396HO4    HW117582   2.933   5.307   2.041
 4396HO4    HW217583   2.978   5.268   2.194
 4396HO4     MW17584   2.918   5.327   2.138
 4397HO4     OW17585   0.182   3.485   3.796
 4397HO4    HW117586   0.243   3.438   3.732
 4397HO4    HW217587   0.158   3.423   3.871
 4397HO4     MW17588   0.182   3.485   3.796
 4398HO4     OW17589   3.839   0.980   3.078
 4398HO4    HW117590   3.748   0.968   3.119
 4398HO4    HW217591   3.829   1.027   2.990
 4398HO4     MW17592   3.839   0.980   3.078
 4399HO4     OW17593   3.762   2.380   3.009
 4399HO4    HW117594   3.857   2.412   3.006
 4399HO4    HW217595   3.739   2.352   3.103
 4399HO4     MW17596   3.762   2.380   3.009
 4400HO4     OW17597   3.048   3.206   4.921
 4400HO4    HW117598   3.117   3.277   4.939
 4400HO4    HW217599   3.011   3.173   5.009
 4400HO4     MW17600   3.048   3.206   4.921
 4401HO4     OW17601   4.555   5.274   0.569
 4401HO4    HW117602   4.515   5.346   0.510
 4401HO4    HW217603   4.482   5.227   0.619
 4401HO4     MW17604   4.555   5.274   0.569
 4402HO4     OW17605   0.873   0.926   3.594
 4402HO4    HW117606   0.923   0.998   3.544
 4402HO4    HW217607   0.898   0.836   3.558
 4402HO4     MW17608   0.873   0.926   3.594
 4403HO4     OW17609   2.025   4.272   4.976
 4403HO4    HW117610   1.986   4.354   5.021
 4403HO4    HW217611   2.023   4.195   5.040
 4403HO4     MW17612   2.025   4.272   4.976
 4404HO4     OW17613   0.949   3.565   4.794
 4404HO4    HW117614   1.024   3.508   4.829
 4404HO4    HW217615   0.874   3.505   4.764
 4404HO4     MW17616   0.949   3.565   4.794
 4405HO4     OW17617   1.207   2.754   3.282
 4405HO4    HW117618   1.193   2.719   3.375
 4405HO4    HW217619   1.180   2.851   3.278
 4405HO4     MW17620   1.207   2.754   3.282
 4406HO4     OW17621   0.922   3.252   2.899
 4406HO4    HW117622   0.967   3.276   2.985
 4406HO4    HW217623   0.832   3.298   2.894
 4406HO4     MW17624   0.922   3.252   2.899
 4407HO4     OW17625   2.810   1.281   4.403
 4407HO4    HW117626   2.758   1.343   4.343
 4407HO4    HW217627   2.766   1.191   4.404
 4407HO4     MW17628   2.810   1.281   4.403
 4408HO4     OW17629   3.921   3.454   0.152
 4408HO4    HW117630   4.006   3.406   0.173
 4408HO4    HW217631   3.942   3.545   0.114
 4408HO4     MW17632   3.921   3.454   0.152
 4409HO4     OW17633   1.347   1.036   0.693
 4409HO4    HW117634   1.352   1.098   0.771
 4409HO4    HW217635   1.349   1.088   0.608
 4409HO4     MW17636   1.347   1.036   0.693
 4410HO4     OW17637   1.731   4.461   4.785
 4410HO4    HW117638   1.655   4.520   4.755
 4410HO4    HW217639   1.697   4.370   4.808
 4410HO4     MW17640   1.731   4.461   4.785
 4411HO4     OW17641   5.365   2.977   0.819
 4411HO4    HW117642   5.391   3.014   0.909
 4411HO4    HW217643   5.413   2.890   0.804
 4411HO4     MW17644   5.365   2.977   0.819
 4412HO4     OW17645   0.005   3.782   4.150
 4412HO4    HW117646   0.092   3.812   4.111
 4412HO4    HW217647   0.001   3.806   4.247
 4412HO4     MW17648   0.005   3.782   4.150
 4413HO4     OW17649   2.931   1.589   1.527
 4413HO4    HW117650   2.908   1.685   1.545
 4413HO4    HW217651   2.849   1.532   1.542
 4413HO4     MW17652   2.931   1.589   1.527
 4414HO4     OW17653   5.259   2.836   2.215
 4414HO4    HW117654   5.261   2.876   2.123
 4414HO4    HW217655   5.166   2.805   2.236
 4414HO4     MW17656   5.259   2.836   2.215
 4415HO4     OW17657   3.205   3.981   1.230
 4415HO4    HW117658   3.278   3.921   1.264
 4415HO4    HW217659   3.116   3.943   1.256
 4415HO4     MW17660   3.205   3.981   1.230
 4416HO4     OW17661   0.290   1.056   4.672
 4416HO4    HW117662   0.298   1.045   4.772
 4416HO4    HW217663   0.295   1.154   4.649
 4416HO4     MW17664   0.290   1.056   4.672
 4417HO4     OW17665   5.313   2.561   0.661
 4417HO4    HW117666   5.383   2.496   0.690
 4417HO4    HW217667   5.350   2.654   0.662
 4417HO4     MW17668   5.313   2.561   0.661
 4418HO4     OW17669   2.765   4.741   4.449
 4418HO4    HW117670   2.801   4.744   4.355
 4418HO4    HW217671   2.810   4.812   4.504
 4418HO4     MW17672   2.765   4.741   4.449
 4419HO4     OW17673   4.209   1.945   3.631
 4419HO4    HW117674   4.285   2.007   3.652
 4419HO4    HW217675   4.198   1.938   3.531
 4419HO4     MW17676   4.209   1.945   3.631
 4420HO4     OW17677   1.717   1.626   5.077
 4420HO4    HW117678   1.681   1.550   5.022
 4420HO4    HW217679   1.729   1.596   5.172
 4420HO4     MW17680   1.717   1.626   5.077
 4421HO4     OW17681   0.979   2.757   2.115
 4421HO4    HW117682   0.995   2.663   2.147
 4421HO4    HW217683   0.941   2.753   2.022
 4421HO4     MW17684   0.979   2.757   2.115
 4422HO4     OW17685   0.858   3.078   2.065
 4422HO4    HW117686   0.827   3.132   1.987
 4422HO4    HW217687   0.828   3.122   2.150
 4422HO4     MW17688   0.858   3.078   2.065
 4423HO4     OW17689   0.465   3.055   3.330
 4423HO4    HW117690   0.507   3.145   3.345
 4423HO4    HW217691   0.499   2.991   3.400
 4423HO4     MW17692   0.465   3.055   3.330
 4424HO4     OW17693   2.797   0.155   0.274
 4424HO4    HW117694   2.817   0.234   0.217
 4424HO4    HW217695   2.727   0.098   0.230
 4424HO4     MW17696   2.797   0.155   0.274
 4425HO4     OW17697   2.817   5.344   0.061
 4425HO4    HW117698   2.750   5.342  -0.014
 4425HO4    HW217699   2.778   5.299   0.142
 4425HO4     MW17700   2.817   5.344   0.061
 4426HO4     OW17701   1.877   2.123   4.104
 4426HO4    HW117702   1.835   2.157   4.020
 4426HO4    HW217703   1.814   2.135   4.181
 4426HO4     MW17704   1.877   2.123   4.104
 4427HO4     OW17705   1.771   1.220   2.940
 4427HO4    HW117706   1.823   1.182   3.017
 4427HO4    HW217707   1.833   1.235   2.863
 4427HO4     MW17708   1.771   1.220   2.940
 4428HO4     OW17709   1.072   0.343   2.234
 4428HO4    HW117710   1.072   0.348   2.334
 4428HO4    HW217711   1.076   0.247   2.205
 4428HO4     MW17712   1.072   0.343   2.234
 4429HO4     OW17713   1.371   2.394   3.403
 4429HO4    HW117714   1.326   2.481   3.424
 4429HO4    HW217715   1.465   2.411   3.372
 4429HO4     MW17716   1.371   2.394   3.403
 4430HO4     OW17717   2.436   3.708   2.543
 4430HO4    HW117718   2.461   3.767   2.466
 4430HO4    HW217719   2.415   3.616   2.509
 4430HO4     MW17720   2.436   3.708   2.543
 4431HO4     OW17721   3.901   0.232   0.440
 4431HO4    HW117722   3.911   0.180   0.355
 4431HO4    HW217723   3.975   0.208   0.504
 4431HO4     MW17724   3.901   0.232   0.440
 4432HO4     OW17725   2.076   1.086   2.550
 4432HO4    HW117726   2.023   1.078   2.634
 4432HO4    HW217727   2.016   1.076   2.470
 4432HO4     MW17728   2.076   1.086   2.550
 4433HO4     OW17729   2.520   2.264   3.957
 4433HO4    HW117730   2.506   2.281   3.859
 4433HO4    HW217731   2.478   2.337   4.011
 4433HO4     MW17732   2.520   2.264   3.957
 4434HO4     OW17733   2.707   0.580   3.700
 4434HO4    HW117734   2.739   0.638   3.775
 4434HO4    HW217735   2.739   0.617   3.613
 4434HO4     MW17736   2.707   0.580   3.700
 4435HO4     OW17737   5.276   4.380   4.229
 4435HO4    HW117738   5.279   4.307   4.297
 4435HO4    HW217739   5.194   4.370   4.173
 4435HO4     MW17740   5.276   4.380   4.229
 4436HO4     OW17741   2.803   2.240   1.272
 4436HO4    HW117742   2.852   2.257   1.358
 4436HO4    HW217743   2.870   2.226   1.198
 4436HO4     MW17744   2.803   2.240   1.272
 4437HO4     OW17745   4.454   4.609   0.787
 4437HO4    HW117746   4.421   4.618   0.882
 4437HO4    HW217747   4.550   4.639   0.782
 4437HO4     MW17748   4.454   4.609   0.787
 4438HO4     OW17749   1.433   0.634   2.883
 4438HO4    HW117750   1.345   0.615   2.928
 4438HO4    HW217751   1.438   0.582   2.797
 4438HO4     MW17752   1.433   0.634   2.883
 4439HO4     OW17753   0.733   4.210   1.408
 4439HO4    HW117754   0.744   4.291   1.348
 4439HO4    HW217755   0.815   4.199   1.465
 4439HO4     MW17756   0.733   4.210   1.408
 4440HO4     OW17757   1.237   5.124   2.270
 4440HO4    HW117758   1.298   5.118   2.350
 4440HO4    HW217759   1.291   5.142   2.188
 4440HO4     MW17760   1.237   5.124   2.270
 4441HO4     OW17761   2.724   5.366   4.589
 4441HO4    HW117762   2.674   5.279   4.587
 4441HO4    HW217763   2.666   5.435   4.634
 4441HO4     MW17764   2.724   5.366   4.589
 4442HO4     OW17765   5.453   2.176   0.184
 4442HO4    HW117766   5.363   2.140   0.160
 4442HO4    HW217767   5.441   2.253   0.248
 4442HO4     MW17768   5.453   2.176   0.184
 4443HO4     OW17769   3.385   5.170   2.662
 4443HO4    HW117770   3.302   5.174   2.606
 4443HO4    HW217771   3.457   5.120   2.613
 4443HO4     MW17772   3.385   5.170   2.662
 4444HO4     OW17773   2.194   2.841   3.178
 4444HO4    HW117774   2.125   2.831   3.106
 4444HO4    HW217775   2.223   2.751   3.210
 4444HO4     MW17776   2.194   2.841   3.178
 4445HO4     OW17777   2.328   2.656   0.038
 4445HO4    HW117778   2.385   2.588  -0.010
 4445HO4    HW217779   2.232   2.627   0.034
 4445HO4     MW17780   2.328   2.656   0.038
 4446HO4     OW17781   0.304   2.097   1.130
 4446HO4    HW117782   0.396   2.091   1.089
 4446HO4    HW217783   0.299   2.039   1.212
 4446HO4     MW17784   0.304   2.097   1.130
 4447HO4     OW17785   0.349   2.365   3.941
 4447HO4    HW117786   0.353   2.301   4.018
 4447HO4    HW217787   0.306   2.319   3.862
 4447HO4     MW17788   0.349   2.365   3.941
 4448HO4     OW17789   2.865   2.389   5.070
 4448HO4    HW117790   2.842   2.366   5.165
 4448HO4    HW217791   2.797   2.350   5.008
 4448HO4     MW17792   2.865   2.389   5.070
 4449HO4     OW17793   3.585   3.440   1.583
 4449HO4    HW117794   3.577   3.518   1.646
 4449HO4    HW217795   3.629   3.471   1.498
 4449HO4     MW17796   3.585   3.440   1.583
 4450HO4     OW17797   2.300   5.082   1.289
 4450HO4    HW117798   2.324   5.000   1.343
 4450HO4    HW217799   2.336   5.071   1.195
 4450HO4     MW17800   2.300   5.082   1.289
 4451HO4     OW17801   3.689   5.495   4.083
 4451HO4    HW117802   3.678   5.413   4.141
 4451HO4    HW217803   3.636   5.483   3.999
 4451HO4     MW17804   3.689   5.495   4.083
 4452HO4     OW17805   3.640   3.547   2.636
 4452HO4    HW117806   3.668   3.603   2.714
 4452HO4    HW217807   3.589   3.603   2.571
 4452HO4     MW17808   3.640   3.547   2.636
 4453HO4     OW17809   1.003   5.151   1.609
 4453HO4    HW117810   1.010   5.051   1.603
 4453HO4    HW217811   0.975   5.176   1.702
 4453HO4     MW17812   1.003   5.151   1.609
 4454HO4     OW17813   1.070   3.138   1.306
 4454HO4    HW117814   1.090   3.083   1.387
 4454HO4    HW217815   1.088   3.084   1.223
 4454HO4     MW17816   1.070   3.138   1.306
 4455HO4     OW17817   2.607   0.544   5.460
 4455HO4    HW117818   2.598   0.470   5.527
 4455HO4    HW217819   2.574   0.512   5.371
 4455HO4     MW17820   2.607   0.544   5.460
 4456HO4     OW17821   2.207   4.542   0.018
 4456HO4    HW117822   2.251   4.583  -0.062
 4456HO4    HW217823   2.277   4.504   0.079
 4456HO4     MW17824   2.207   4.542   0.018
 4457HO4     OW17825   3.446   0.014   3.381
 4457HO4    HW117826   3.475  -0.018   3.472
 4457HO4    HW217827   3.525   0.019   3.320
 4457HO4     MW17828   3.446   0.014   3.381
 4458HO4     OW17829   2.596   3.745   1.784
 4458HO4    HW117830   2.592   3.750   1.884
 4458HO4    HW217831   2.675   3.689   1.756
 4458HO4     MW17832   2.596   3.745   1.784
 4459HO4     OW17833   1.180   5.402   3.728
 4459HO4    HW117834   1.177   5.453   3.815
 4459HO4    HW217835   1.135   5.456   3.656
 4459HO4     MW17836   1.180   5.402   3.728
 4460HO4     OW17837   3.654   5.020   2.850
 4460HO4    HW117838   3.731   4.985   2.795
 4460HO4    HW217839   3.667   5.117   2.868
 4460HO4     MW17840   3.654   5.020   2.850
 4461HO4     OW17841   3.013   1.799   2.171
 4461HO4    HW117842   3.087   1.803   2.239
 4461HO4    HW217843   2.938   1.742   2.208
 4461HO4     MW17844   3.013   1.799   2.171
 4462HO4     OW17845   2.246   1.685   5.405
 4462HO4    HW117846   2.252   1.597   5.357
 4462HO4    HW217847   2.149   1.712   5.414
 4462HO4     MW17848   2.246   1.685   5.405
 4463HO4     OW17849   2.784   2.045   3.639
 4463HO4    HW117850   2.767   1.965   3.697
 4463HO4    HW217851   2.762   2.129   3.689
 4463HO4     MW17852   2.784   2.045   3.639
 4464HO4     OW17853   5.193   3.973   3.010
 4464HO4    HW117854   5.150   3.902   2.954
 4464HO4    HW217855   5.123   4.041   3.037
 4464HO4     MW17856   5.193   3.973   3.010
 4465HO4     OW17857   4.161   2.364   2.653
 4465HO4    HW117858   4.261   2.360   2.665
 4465HO4    HW217859   4.131   2.290   2.592
 4465HO4     MW17860   4.161   2.364   2.653
 4466HO4     OW17861   3.875   0.104   5.352
 4466HO4    HW117862   3.968   0.079   5.379
 4466HO4    HW217863   3.834   0.165   5.421
 4466HO4     MW17864   3.875   0.104   5.352
 4467HO4     OW17865   0.209   4.161   1.980
 4467HO4    HW117866   0.268   4.189   2.057
 4467HO4    HW217867   0.195   4.240   1.920
 4467HO4     MW17868   0.209   4.161   1.980
 4468HO4     OW17869   2.188   3.547   1.363
 4468HO4    HW117870   2.251   3.516   1.291
 4468HO4    HW217871   2.240   3.592   1.436
 4468HO4     MW17872   2.188   3.547   1.363
 4469HO4     OW17873   0.467   3.808   2.661
 4469HO4    HW117874   0.479   3.803   2.761
 4469HO4    HW217875   0.540   3.863   2.622
 4469HO4     MW17876   0.467   3.808   2.661
 4470HO4     OW17877   4.528   4.122   2.603
 4470HO4    HW117878   4.463   4.141   2.529
 4470HO4    HW217879   4.485   4.063   2.671
 4470HO4     MW17880   4.528   4.122   2.603
 4471HO4     OW17881   4.989   0.595   0.222
 4471HO4    HW117882   4.959   0.632   0.311
 4471HO4    HW217883   4.911   0.553   0.175
 4471HO4     MW17884   4.989   0.595   0.222
 4472HO4     OW17885   4.666   1.806   5.361
 4472HO4    HW117886   4.703   1.873   5.296
 4472HO4    HW217887   4.565   1.811   5.360
 4472HO4     MW17888   4.666   1.806   5.361
 4473HO4     OW17889   3.460   0.909   2.129
 4473HO4    HW117890   3.431   0.954   2.044
 4473HO4    HW217891   3.539   0.957   2.168
 4473HO4     MW17892   3.460   0.909   2.129
 4474HO4     OW17893   4.274   3.216   3.499
 4474HO4    HW117894   4.344   3.250   3.562
 4474HO4    HW217895   4.310   3.137   3.448
 4474HO4     MW17896   4.274   3.216   3.499
 4475HO4     OW17897   4.880   2.348   0.527
 4475HO4    HW117898   4.915   2.264   0.485
 4475HO4    HW217899   4.929   2.427   0.490
 4475HO4     MW17900   4.880   2.348   0.527
 4476HO4     OW17901   2.728   3.151   1.214
 4476HO4    HW117902   2.775   3.084   1.272
 4476HO4    HW217903   2.755   3.138   1.118
 4476HO4     MW17904   2.728   3.151   1.214
 4477HO4     OW17905   2.333   3.873   2.245
 4477HO4    HW117906   2.376   3.964   2.237
 4477HO4    HW217907   2.316   3.835   2.154
 4477HO4     MW17908   2.333   3.873   2.245
 4478HO4     OW17909   5.464   1.831   4.489
 4478HO4    HW117910   5.395   1.770   4.530
 4478HO4    HW217911   5.418   1.900   4.432
 4478HO4     MW17912   5.464   1.831   4.489
 4479HO4     OW17913   0.608   2.424   4.220
 4479HO4    HW117914   0.548   2.408   4.142
 4479HO4    HW217915   0.592   2.517   4.255
 4479HO4     MW17916   0.608   2.424   4.220
 4480HO4     OW17917   3.578   3.696   5.046
 4480HO4    HW117918   3.544   3.602   5.051
 4480HO4    HW217919   3.625   3.710   4.958
 4480HO4     MW17920   3.578   3.696   5.046
 4481HO4     OW17921   5.467   4.508   4.411
 4481HO4    HW117922   5.407   4.512   4.492
 4481HO4    HW217923   5.410   4.497   4.329
 4481HO4     MW17924   5.467   4.508   4.411
 4482HO4     OW17925   2.923   0.446   0.520
 4482HO4    HW117926   2.936   0.541   0.490
 4482HO4    HW217927   3.013   0.405   0.536
 4482HO4     MW17928   2.923   0.446   0.520
 4483HO4     OW17929   3.351   3.714   3.471
 4483HO4    HW117930   3.251   3.712   3.476
 4483HO4    HW217931   3.381   3.798   3.427
 4483HO4     MW17932   3.351   3.714   3.471
 4484HO4     OW17933   3.447   3.045   4.509
 4484HO4    HW117934   3.449   3.052   4.408
 4484HO4    HW217935   3.373   3.103   4.544
 4484HO4     MW17936   3.447   3.045   4.509
 4485HO4     OW17937   1.646   3.335   2.827
 4485HO4    HW117938   1.638   3.306   2.923
 4485HO4    HW217939   1.664   3.434   2.823
 4485HO4     MW17940   1.646   3.335   2.827
 4486HO4     OW17941   1.934   3.283   1.301
 4486HO4    HW117942   1.892   3.372   1.283
 4486HO4    HW217943   2.029   3.283   1.267
 4486HO4     MW17944   1.934   3.283   1.301
 4487HO4     OW17945   0.253   3.842   0.980
 4487HO4    HW117946   0.204   3.921   1.019
 4487HO4    HW217947   0.334   3.822   1.036
 4487HO4     MW17948   0.253   3.842   0.980
 4488HO4     OW17949   1.448   0.498   4.825
 4488HO4    HW117950   1.467   0.465   4.732
 4488HO4    HW217951   1.521   0.469   4.886
 4488HO4     MW17952   1.448   0.498   4.825
 4489HO4     OW17953   2.019   2.459   4.424
 4489HO4    HW117954   2.029   2.380   4.486
 4489HO4    HW217955   2.084   2.451   4.349
 4489HO4     MW17956   2.019   2.459   4.424
 4490HO4     OW17957   5.346   3.302   0.747
 4490HO4    HW117958   5.293   3.305   0.661
 4490HO4    HW217959   5.283   3.290   0.824
 4490HO4     MW17960   5.346   3.302   0.747
 4491HO4     OW17961   3.846   1.782   2.131
 4491HO4    HW117962   3.865   1.729   2.214
 4491HO4    HW217963   3.835   1.720   2.053
 4491HO4     MW17964   3.846   1.782   2.131
 4492HO4     OW17965   5.223   1.433   4.771
 4492HO4    HW117966   5.173   1.421   4.685
 4492HO4    HW217967   5.226   1.345   4.820
 4492HO4     MW17968   5.223   1.433   4.771
 4493HO4     OW17969   0.353   2.135   2.365
 4493HO4    HW117970   0.392   2.198   2.297
 4493HO4    HW217971   0.427   2.099   2.423
 4493HO4     MW17972   0.353   2.135   2.365
 4494HO4     OW17973   4.298   1.497   1.855
 4494HO4    HW117974   4.281   1.473   1.951
 4494HO4    HW217975   4.348   1.584   1.851
 4494HO4     MW17976   4.298   1.497   1.855
 4495HO4     OW17977   1.183   4.435   3.110
 4495HO4    HW117978   1.164   4.517   3.164
 4495HO4    HW217979   1.253   4.456   3.041
 4495HO4     MW17980   1.183   4.435   3.110
 4496HO4     OW17981   4.266   1.835   3.383
 4496HO4    HW117982   4.175   1.832   3.427
 4496HO4    HW217983   4.262   1.894   3.302
 4496HO4     MW17984   4.266   1.835   3.383
 4497HO4     OW17985   3.855   4.662   1.865
 4497HO4    HW117986   3.809   4.660   1.776
 4497HO4    HW217987   3.928   4.730   1.864
 4497HO4     MW17988   3.855   4.662   1.865
 4498HO4     OW17989   4.708   3.716   1.628
 4498HO4    HW117990   4.628   3.739   1.684
 4498HO4    HW217991   4.784   3.778   1.651
 4498HO4     MW17992   4.708   3.716   1.628
 4499HO4     OW17993   4.902   3.451   2.931
 4499HO4    HW117994   4.959   3.445   3.014
 4499HO4    HW217995   4.843   3.532   2.938
 4499HO4     MW17996   4.902   3.451   2.931
 4500HO4     OW17997   5.428   0.905   1.284
 4500HO4    HW117998   5.471   0.915   1.375
 4500HO4    HW217999   5.330   0.924   1.292
 4500HO4     MW18000   5.428   0.905   1.284
 4501HO4     OW18001   3.862   3.277   2.006
 4501HO4    HW118002   3.888   3.289   1.909
 4501HO4    HW218003   3.767   3.308   2.019
 4501HO4     MW18004   3.862   3.277   2.006
 4502HO4     OW18005   4.307   4.989   2.247
 4502HO4    HW118006   4.239   4.946   2.186
 4502HO4    HW218007   4.272   4.989   2.341
 4502HO4     MW18008   4.307   4.989   2.247
 4503HO4     OW18009   4.122   3.043   2.490
 4503HO4    HW118010   4.039   3.071   2.539
 4503HO4    HW218011   4.116   2.945   2.467
 4503HO4     MW18012   4.122   3.043   2.490
 4504HO4     OW18013   3.085   1.141   1.691
 4504HO4    HW118014   3.161   1.181   1.640
 4504HO4    HW218015   3.005   1.130   1.631
 4504HO4     MW18016   3.085   1.141   1.691
 4505HO4     OW18017   5.122   3.391   1.324
 4505HO4    HW118018   5.065   3.309   1.321
 4505HO4    HW218019   5.109   3.444   1.240
 4505HO4     MW18020   5.122   3.391   1.324
 4506HO4     OW18021   0.071   1.654   3.456
 4506HO4    HW118022   0.115   1.690   3.539
 4506HO4    HW218023   0.115   1.691   3.375
 4506HO4     MW18024   0.071   1.654   3.456
 4507HO4     OW18025   5.355   3.998   1.989
 4507HO4    HW118026   5.421   4.058   2.035
 4507HO4    HW218027   5.342   3.914   2.043
 4507HO4     MW18028   5.355   3.998   1.989
 4508HO4     OW18029   2.969   3.957   0.351
 4508HO4    HW118030   3.007   3.865   0.364
 4508HO4    HW218031   2.920   3.961   0.264
 4508HO4     MW18032   2.969   3.957   0.351
 4509HO4     OW18033   5.100   0.214   5.423
 4509HO4    HW118034   5.134   0.184   5.334
 4509HO4    HW218035   5.160   0.178   5.495
 4509HO4     MW18036   5.100   0.214   5.423
 4510HO4     OW18037   4.484   1.402   3.225
 4510HO4    HW118038   4.521   1.332   3.287
 4510HO4    HW218039   4.491   1.371   3.130
 4510HO4     MW18040   4.484   1.402   3.225
 4511HO4     OW18041   2.795   3.252   1.644
 4511HO4    HW118042   2.887   3.275   1.677
 4511HO4    HW218043   2.736   3.230   1.722
 4511HO4     MW18044   2.795   3.252   1.644
 4512HO4     OW18045   5.220   0.687   2.753
 4512HO4    HW118046   5.175   0.760   2.806
 4512HO4    HW218047   5.152   0.618   2.726
 4512HO4     MW18048   5.220   0.687   2.753
 4513HO4     OW18049   1.789   1.799   2.189
 4513HO4    HW118050   1.717   1.762   2.248
 4513HO4    HW218051   1.782   1.758   2.098
 4513HO4     MW18052   1.789   1.799   2.189
 4514HO4     OW18053   4.146   0.361   2.973
 4514HO4    HW118054   4.194   0.377   2.886
 4514HO4    HW218055   4.203   0.395   3.049
 4514HO4     MW18056   4.146   0.361   2.973
 4515HO4     OW18057   4.654   3.798   4.772
 4515HO4    HW118058   4.640   3.860   4.694
 4515HO4    HW218059   4.640   3.849   4.858
 4515HO4     MW18060   4.654   3.798   4.772
 4516HO4     OW18061   0.760   2.550   1.783
 4516HO4    HW118062   0.709   2.558   1.869
 4516HO4    HW218063   0.698   2.569   1.706
 4516HO4     MW18064   0.760   2.550   1.783
 4517HO4     OW18065   1.096   4.729   1.690
 4517HO4    HW118066   1.069   4.675   1.771
 4517HO4    HW218067   1.073   4.677   1.607
 4517HO4     MW18068   1.096   4.729   1.690
 4518HO4     OW18069   1.395   4.291   1.031
 4518HO4    HW118070   1.377   4.382   0.991
 4518HO4    HW218071   1.483   4.294   1.079
 4518HO4     MW18072   1.395   4.291   1.031
 4519HO4     OW18073   4.516   0.039   4.538
 4519HO4    HW118074   4.456  -0.030   4.497
 4519HO4    HW218075   4.611   0.021   4.512
 4519HO4     MW18076   4.516   0.039   4.538
 4520HO4     OW18077   1.724   3.902   0.792
 4520HO4    HW118078   1.661   3.839   0.839
 4520HO4    HW218079   1.679   3.938   0.710
 4520HO4     MW18080   1.724   3.902   0.792
 4521HO4     OW18081   2.350   0.885   3.111
 4521HO4    HW118082   2.294   0.926   3.184
 4521HO4    HW218083   2.289   0.848   3.040
 4521HO4     MW18084   2.350   0.885   3.111
 4522HO4     OW18085   1.012   5.333   1.360
 4522HO4    HW118086   0.988   5.296   1.451
 4522HO4    HW218087   1.074   5.269   1.314
 4522HO4     MW18088   1.012   5.333   1.360
 4523HO4     OW18089   4.442   5.480   2.418
 4523HO4    HW118090   4.352   5.464   2.460
 4523HO4    HW218091   4.443   5.441   2.325
 4523HO4     MW18092   4.442   5.480   2.418
 4524HO4     OW18093   3.110   1.669   5.328
 4524HO4    HW118094   3.182   1.647   5.262
 4524HO4    HW218095   3.132   1.757   5.372
 4524HO4     MW18096   3.110   1.669   5.328
 4525HO4     OW18097   4.065   3.627   5.383
 4525HO4    HW118098   4.052   3.563   5.306
 4525HO4    HW218099   4.069   3.575   5.469
 4525HO4     MW18100   4.065   3.627   5.383
 4526HO4     OW18101   0.703   0.774   4.240
 4526HO4    HW118102   0.662   0.762   4.331
 4526HO4    HW218103   0.789   0.721   4.235
 4526HO4     MW18104   0.703   0.774   4.240
 4527HO4     OW18105   2.548   5.417   5.084
 4527HO4    HW118106   2.534   5.439   4.988
 4527HO4    HW218107   2.635   5.368   5.095
 4527HO4     MW18108   2.548   5.417   5.084
 4528HO4     OW18109   0.183   5.079   0.781
 4528HO4    HW118110   0.177   5.053   0.878
 4528HO4    HW218111   0.232   5.007   0.731
 4528HO4     MW18112   0.183   5.079   0.781
 4529HO4     OW18113   5.465   1.149   2.531
 4529HO4    HW118114   5.374   1.155   2.573
 4529HO4    HW218115   5.528   1.103   2.593
 4529HO4     MW18116   5.465   1.149   2.531
 4530HO4     OW18117   5.209   0.384   1.846
 4530HO4    HW118118   5.111   0.386   1.824
 4530HO4    HW218119   5.253   0.467   1.809
 4530HO4     MW18120   5.209   0.384   1.846
 4531HO4     OW18121   0.611   4.963   2.645
 4531HO4    HW118122   0.663   5.005   2.570
 4531HO4    HW218123   0.648   4.993   2.733
 4531HO4     MW18124   0.611   4.963   2.645
 4532HO4     OW18125   1.404   4.597   2.078
 4532HO4    HW118126   1.413   4.543   1.994
 4532HO4    HW218127   1.417   4.537   2.158
 4532HO4     MW18128   1.404   4.597   2.078
 4533HO4     OW18129   2.011   4.409   1.238
 4533HO4    HW118130   2.007   4.345   1.160
 4533HO4    HW218131   2.076   4.375   1.306
 4533HO4     MW18132   2.011   4.409   1.238
 4534HO4     OW18133   2.950   1.823   3.601
 4534HO4    HW118134   2.915   1.783   3.687
 4534HO4    HW218135   2.903   1.782   3.523
 4534HO4     MW18136   2.950   1.823   3.601
 4535HO4     OW18137   5.170   3.329   5.425
 4535HO4    HW118138   5.196   3.398   5.493
 4535HO4    HW218139   5.198   3.359   5.333
 4535HO4     MW18140   5.170   3.329   5.425
 4536HO4     OW18141   0.078   5.218   2.544
 4536HO4    HW118142  -0.011   5.180   2.516
 4536HO4    HW218143   0.078   5.317   2.529
 4536HO4     MW18144   0.078   5.218   2.544
 4537HO4     OW18145   0.231   0.523   4.991
 4537HO4    HW118146   0.206   0.584   5.067
 4537HO4    HW218147   0.173   0.544   4.911
 4537HO4     MW18148   0.231   0.523   4.991
 4538HO4     OW18149   2.656   5.350   4.254
 4538HO4    HW118150   2.727   5.334   4.184
 4538HO4    HW218151   2.635   5.264   4.301
 4538HO4     MW18152   2.656   5.350   4.254
 4539HO4     OW18153   4.573   1.023   0.054
 4539HO4    HW118154   4.660   1.044   0.100
 4539HO4    HW218155   4.579   1.049  -0.043
 4539HO4     MW18156   4.573   1.023   0.054
 4540HO4     OW18157   1.059   1.820   4.649
 4540HO4    HW118158   1.070   1.900   4.708
 4540HO4    HW218159   1.039   1.850   4.555
 4540HO4     MW18160   1.059   1.820   4.649
 4541HO4     OW18161   2.820   5.168   2.791
 4541HO4    HW118162   2.727   5.191   2.761
 4541HO4    HW218163   2.861   5.104   2.725
 4541HO4     MW18164   2.820   5.168   2.791
 4542HO4     OW18165   4.455   4.031   2.344
 4542HO4    HW118166   4.527   4.025   2.274
 4542HO4    HW218167   4.413   3.941   2.355
 4542HO4     MW18168   4.455   4.031   2.344
 4543HO4     OW18169   5.497   4.494   3.630
 4543HO4    HW118170   5.462   4.539   3.712
 4543HO4    HW218171   5.461   4.540   3.548
 4543HO4     MW18172   5.497   4.494   3.630
 4544HO4     OW18173   4.506   5.332   4.116
 4544HO4    HW118174   4.559   5.409   4.079
 4544HO4    HW218175   4.443   5.298   4.046
 4544HO4     MW18176   4.506   5.332   4.116
 4545HO4     OW18177   0.833   4.973   2.350
 4545HO4    HW118178   0.890   4.967   2.268
 4545HO4    HW218179   0.891   4.965   2.432
 4545HO4     MW18180   0.833   4.973   2.350
 4546HO4     OW18181   2.636   4.870   0.464
 4546HO4    HW118182   2.644   4.817   0.379
 4546HO4    HW218183   2.541   4.871   0.494
 4546HO4     MW18184   2.636   4.870   0.464
 4547HO4     OW18185   4.651   2.739   5.318
 4547HO4    HW118186   4.616   2.657   5.272
 4547HO4    HW218187   4.653   2.816   5.253
 4547HO4     MW18188   4.651   2.739   5.318
 4548HO4     OW18189   4.201   3.545   2.363
 4548HO4    HW118190   4.293   3.553   2.322
 4548HO4    HW218191   4.168   3.451   2.353
 4548HO4     MW18192   4.201   3.545   2.363
 4549HO4     OW18193   2.752   2.597   4.197
 4549HO4    HW118194   2.678   2.591   4.130
 4549HO4    HW218195   2.713   2.613   4.288
 4549HO4     MW18196   2.752   2.597   4.197
 4550HO4     OW18197   3.597   3.603   1.077
 4550HO4    HW118198   3.545   3.606   1.163
 4550HO4    HW218199   3.534   3.592   1.000
 4550HO4     MW18200   3.597   3.603   1.077
 4551HO4     OW18201   0.937   1.227   3.915
 4551HO4    HW118202   0.841   1.244   3.889
 4551HO4    HW218203   0.997   1.288   3.863
 4551HO4     MW18204   0.937   1.227   3.915
 4552HO4     OW18205   0.955   1.504   3.983
 4552HO4    HW118206   0.973   1.431   3.915
 4552HO4    HW218207   1.011   1.489   4.064
 4552HO4     MW18208   0.955   1.504   3.983
 4553HO4     OW18209   3.689   4.566   0.317
 4553HO4    HW118210   3.785   4.548   0.292
 4553HO4    HW218211   3.679   4.560   0.416
 4553HO4     MW18212   3.689   4.566   0.317
 4554HO4     OW18213   3.876   3.674   3.371
 4554HO4    HW118214   3.810   3.620   3.424
 4554HO4    HW218215   3.871   3.646   3.275
 4554HO4     MW18216   3.876   3.674   3.371
 4555HO4     OW18217   4.119   4.983   4.621
 4555HO4    HW118218   4.171   4.897   4.619
 4555HO4    HW218219   4.038   4.974   4.563
 4555HO4     MW18220   4.119   4.983   4.621
 4556HO4     OW18221   2.641   5.309   0.798
 4556HO4    HW118222   2.680   5.329   0.889
 4556HO4    HW218223   2.556   5.360   0.785
 4556HO4     MW18224   2.641   5.309   0.798
 4557HO4     OW18225   5.268   0.591   3.055
 4557HO4    HW118226   5.240   0.540   2.973
 4557HO4    HW218227   5.341   0.541   3.102
 4557HO4     MW18228   5.268   0.591   3.055
 4558HO4     OW18229   1.262   2.236   1.222
 4558HO4    HW118230   1.174   2.258   1.264
 4558HO4    HW218231   1.265   2.275   1.129
 4558HO4     MW18232   1.262   2.236   1.222
 4559HO4     OW18233   4.801   3.137   4.678
 4559HO4    HW118234   4.757   3.093   4.599
 4559HO4    HW218235   4.758   3.105   4.763
 4559HO4     MW18236   4.801   3.137   4.678
 4560HO4     OW18237   3.929   2.769   3.352
 4560HO4    HW118238   3.877   2.683   3.359
 4560HO4    HW218239   3.866   2.845   3.333
 4560HO4     MW18240   3.929   2.769   3.352
 4561HO4     OW18241   1.408   0.554   3.758
 4561HO4    HW118242   1.313   0.530   3.781
 4561HO4    HW218243   1.453   0.596   3.837
 4561HO4     MW18244   1.408   0.554   3.758
 4562HO4     OW18245   1.429   2.927   3.220
 4562HO4    HW118246   1.478   3.003   3.264
 4562HO4    HW218247   1.360   2.891   3.284
 4562HO4     MW18248   1.429   2.927   3.220
 4563HO4     OW18249   1.116   0.904   1.261
 4563HO4    HW118250   1.162   0.991   1.277
 4563HO4    HW218251   1.068   0.875   1.344
 4563HO4     MW18252   1.116   0.904   1.261
 4564HO4     OW18253   0.662   3.686   0.645
 4564HO4    HW118254   0.626   3.665   0.736
 4564HO4    HW218255   0.743   3.628   0.627
 4564HO4     MW18256   0.662   3.686   0.645
 4565HO4     OW18257   0.684   2.901   0.917
 4565HO4    HW118258   0.670   2.882   1.015
 4565HO4    HW218259   0.642   2.989   0.894
 4565HO4     MW18260   0.684   2.901   0.917
 4566HO4     OW18261   1.306   1.415   4.465
 4566HO4    HW118262   1.226   1.372   4.508
 4566HO4    HW218263   1.280   1.450   4.374
 4566HO4     MW18264   1.306   1.415   4.465
 4567HO4     OW18265   2.720   3.179   2.364
 4567HO4    HW118266   2.657   3.245   2.407
 4567HO4    HW218267   2.676   3.089   2.360
 4567HO4     MW18268   2.720   3.179   2.364
 4568HO4     OW18269   2.509   0.466   0.639
 4568HO4    HW118270   2.601   0.503   0.621
 4568HO4    HW218271   2.443   0.510   0.578
 4568HO4     MW18272   2.509   0.466   0.639
 4569HO4     OW18273   3.167   4.826   2.827
 4569HO4    HW118274   3.227   4.757   2.867
 4569HO4    HW218275   3.220   4.887   2.768
 4569HO4     MW18276   3.167   4.826   2.827
 4570HO4     OW18277   1.738   1.869   3.535
 4570HO4    HW118278   1.711   1.782   3.492
 4570HO4    HW218279   1.817   1.907   3.486
 4570HO4     MW18280   1.738   1.869   3.535
 4571HO4     OW18281   1.043   3.513   0.148
 4571HO4    HW118282   1.073   3.457   0.071
 4571HO4    HW218283   1.118   3.521   0.215
 4571HO4     MW18284   1.043   3.513   0.148
 4572HO4     OW18285   0.418   1.893   4.853
 4572HO4    HW118286   0.388   1.849   4.938
 4572HO4    HW218287   0.356   1.866   4.778
 4572HO4     MW18288   0.418   1.893   4.853
 4573HO4     OW18289   4.358   3.904   4.497
 4573HO4    HW118290   4.419   3.886   4.419
 4573HO4    HW218291   4.411   3.892   4.583
 4573HO4     MW18292   4.358   3.904   4.497
 4574HO4     OW18293   2.276   3.633   0.309
 4574HO4    HW118294   2.209   3.583   0.363
 4574HO4    HW218295   2.302   3.718   0.356
 4574HO4     MW18296   2.276   3.633   0.309
 4575HO4     OW18297   3.829   1.349   2.975
 4575HO4    HW118298   3.834   1.379   3.070
 4575HO4    HW218299   3.896   1.399   2.920
 4575HO4     MW18300   3.829   1.349   2.975
 4576HO4     OW18301   4.150   1.540   0.595
 4576HO4    HW118302   4.088   1.518   0.518
 4576HO4    HW218303   4.103   1.522   0.682
 4576HO4     MW18304   4.150   1.540   0.595
 4577HO4     OW18305   1.981   0.261   3.263
 4577HO4    HW118306   1.963   0.302   3.353
 4577HO4    HW218307   2.008   0.165   3.274
 4577HO4     MW18308   1.981   0.261   3.263
 4578HO4     OW18309   0.842   2.263   1.237
 4578HO4    HW118310   0.851   2.309   1.325
 4578HO4    HW218311   0.829   2.165   1.251
 4578HO4     MW18312   0.842   2.263   1.237
 4579HO4     OW18313   4.828   1.577   2.393
 4579HO4    HW118314   4.755   1.579   2.323
 4579HO4    HW218315   4.792   1.612   2.480
 4579HO4     MW18316   4.828   1.577   2.393
 4580HO4     OW18317   1.585   0.524   0.260
 4580HO4    HW118318   1.493   0.541   0.296
 4580HO4    HW218319   1.589   0.555   0.164
 4580HO4     MW18320   1.585   0.524   0.260
 4581HO4     OW18321   0.511   5.407   3.971
 4581HO4    HW118322   0.598   5.374   3.932
 4581HO4    HW218323   0.512   5.507   3.976
 4581HO4     MW18324   0.511   5.407   3.971
 4582HO4     OW18325   2.968   3.539   4.873
 4582HO4    HW118326   3.009   3.608   4.813
 4582HO4    HW218327   3.021   3.454   4.868
 4582HO4     MW18328   2.968   3.539   4.873
 4583HO4     OW18329   3.008   2.486   0.991
 4583HO4    HW118330   3.046   2.415   0.931
 4583HO4    HW218331   2.941   2.444   1.054
 4583HO4     MW18332   3.008   2.486   0.991
 4584HO4     OW18333   1.819   3.714   0.988
 4584HO4    HW118334   1.737   3.656   0.983
 4584HO4    HW218335   1.875   3.684   1.065
 4584HO4     MW18336   1.819   3.714   0.988
 4585HO4     OW18337   1.414   4.923   4.675
 4585HO4    HW118338   1.362   4.849   4.720
 4585HO4    HW218339   1.409   4.911   4.576
 4585HO4     MW18340   1.414   4.923   4.675
 4586HO4     OW18341   5.463   5.001   2.035
 4586HO4    HW118342   5.404   4.961   1.963
 4586HO4    HW218343   5.427   4.976   2.125
 4586HO4     MW18344   5.463   5.001   2.035
 4587HO4     OW18345   4.345   4.385   1.482
 4587HO4    HW118346   4.337   4.291   1.446
 4587HO4    HW218347   4.255   4.430   1.476
 4587HO4     MW18348   4.345   4.385   1.482
 4588HO4     OW18349   5.489   2.096   2.107
 4588HO4    HW118350   5.524   2.085   2.200
 4588HO4    HW218351   5.415   2.164   2.106
 4588HO4     MW18352   5.489   2.096   2.107
 4589HO4     OW18353   2.577   4.975   4.403
 4589HO4    HW118354   2.653   5.038   4.382
 4589HO4    HW218355   2.576   4.900   4.338
 4589HO4     MW18356   2.577   4.975   4.403
 4590HO4     OW18357   1.720   0.083   1.288
 4590HO4    HW118358   1.805   0.031   1.278
 4590HO4    HW218359   1.729   0.172   1.243
 4590HO4     MW18360   1.720   0.083   1.288
 4591HO4     OW18361   1.742   3.817   4.586
 4591HO4    HW118362   1.702   3.846   4.673
 4591HO4    HW218363   1.682   3.749   4.543
 4591HO4     MW18364   1.742   3.817   4.586
 4592HO4     OW18365   4.430   2.673   1.663
 4592HO4    HW118366   4.342   2.717   1.685
 4592HO4    HW218367   4.497   2.692   1.736
 4592HO4     MW18368   4.430   2.673   1.663
 4593HO4     OW18369   0.010   3.459   2.815
 4593HO4    HW118370  -0.018   3.508   2.732
 4593HO4    HW218371   0.106   3.431   2.807
 4593HO4     MW18372   0.010   3.459   2.815
 4594HO4     OW18373   0.670   2.000   3.617
 4594HO4    HW118374   0.674   1.910   3.572
 4594HO4    HW218375   0.593   2.052   3.580
 4594HO4     MW18376   0.670   2.000   3.617
 4595HO4     OW18377   4.040   5.318   5.066
 4595HO4    HW118378   4.052   5.219   5.062
 4595HO4    HW218379   3.962   5.339   5.126
 4595HO4     MW18380   4.040   5.318   5.066
 4596HO4     OW18381   3.007   3.550   4.067
 4596HO4    HW118382   3.080   3.518   4.128
 4596HO4    HW218383   2.970   3.473   4.015
 4596HO4     MW18384   3.007   3.550   4.067
 4597HO4     OW18385   0.213   0.067   3.631
 4597HO4    HW118386   0.120   0.033   3.617
 4597HO4    HW218387   0.219   0.114   3.720
 4597HO4     MW18388   0.213   0.067   3.631
 4598HO4     OW18389   0.159   5.214   5.052
 4598HO4    HW118390   0.099   5.291   5.027
 4598HO4    HW218391   0.108   5.128   5.044
 4598HO4     MW18392   0.159   5.214   5.052
 4599HO4     OW18393   4.122   5.078   5.202
 4599HO4    HW118394   4.111   5.099   5.105
 4599HO4    HW218395   4.052   5.013   5.231
 4599HO4     MW18396   4.122   5.078   5.202
 4600HO4     OW18397   2.276   2.321   5.052
 4600HO4    HW118398   2.224   2.293   4.971
 4600HO4    HW218399   2.243   2.271   5.132
 4600HO4     MW18400   2.276   2.321   5.052
 4601HO4     OW18401   5.297   1.401   2.878
 4601HO4    HW118402   5.213   1.359   2.913
 4601HO4    HW218403   5.315   1.486   2.928
 4601HO4     MW18404   5.297   1.401   2.878
 4602HO4     OW18405   3.911   5.506   2.292
 4602HO4    HW118406   3.928   5.443   2.216
 4602HO4    HW218407   3.895   5.453   2.376
 4602HO4     MW18408   3.911   5.506   2.292
 4603HO4     OW18409   5.392   5.374   3.072
 4603HO4    HW118410   5.404   5.392   3.170
 4603HO4    HW218411   5.476   5.402   3.023
 4603HO4     MW18412   5.392   5.374   3.072
 4604HO4     OW18413   0.104   5.411   2.811
 4604HO4    HW118414   0.031   5.343   2.796
 4604HO4    HW218415   0.064   5.503   2.809
 4604HO4     MW18416   0.104   5.411   2.811
 4605HO4     OW18417   2.725   1.082   4.583
 4605HO4    HW118418   2.650   1.018   4.600
 4605HO4    HW218419   2.743   1.135   4.666
 4605HO4     MW18420   2.725   1.082   4.583
 4606HO4     OW18421   5.055   1.444   2.185
 4606HO4    HW118422   5.030   1.514   2.117
 4606HO4    HW218423   5.127   1.480   2.245
 4606HO4     MW18424   5.055   1.444   2.185
 4607HO4     OW18425   2.806   1.234   5.326
 4607HO4    HW118426   2.827   1.155   5.267
 4607HO4    HW218427   2.862   1.229   5.409
 4607HO4     MW18428   2.806   1.234   5.326
 4608HO4     OW18429   1.960   4.280   1.429
 4608HO4    HW118430   1.900   4.276   1.349
 4608HO4    HW218431   1.905   4.280   1.513
 4608HO4     MW18432   1.960   4.280   1.429
 4609HO4     OW18433   3.158   1.267   4.492
 4609HO4    HW118434   3.207   1.181   4.504
 4609HO4    HW218435   3.223   1.344   4.496
 4609HO4     MW18436   3.158   1.267   4.492
 4610HO4     OW18437   0.265   4.474   3.996
 4610HO4    HW118438   0.334   4.403   4.013
 4610HO4    HW218439   0.285   4.521   3.910
 4610HO4     MW18440   0.265   4.474   3.996
 4611HO4     OW18441   4.887   4.003   1.802
 4611HO4    HW118442   4.889   4.072   1.875
 4611HO4    HW218443   4.951   3.929   1.825
 4611HO4     MW18444   4.887   4.003   1.802
 4612HO4     OW18445   1.813   2.370   0.910
 4612HO4    HW118446   1.873   2.289   0.908
 4612HO4    HW218447   1.834   2.429   0.831
 4612HO4     MW18448   1.813   2.370   0.910
 4613HO4     OW18449   1.712   4.773   0.157
 4613HO4    HW118450   1.684   4.853   0.104
 4613HO4    HW218451   1.805   4.746   0.131
 4613HO4     MW18452   1.712   4.773   0.157
 4614HO4     OW18453   1.627   2.523   3.924
 4614HO4    HW118454   1.534   2.488   3.938
 4614HO4    HW218455   1.623   2.613   3.881
 4614HO4     MW18456   1.627   2.523   3.924
 4615HO4     OW18457   1.127   2.748   3.071
 4615HO4    HW118458   1.103   2.672   3.011
 4615HO4    HW218459   1.045   2.780   3.120
 4615HO4     MW18460   1.127   2.748   3.071
 4616HO4     OW18461   5.170   0.183   0.839
 4616HO4    HW118462   5.227   0.226   0.910
 4616HO4    HW218463   5.186   0.229   0.751
 4616HO4     MW18464   5.170   0.183   0.839
 4617HO4     OW18465   2.502   0.372   3.507
 4617HO4    HW118466   2.531   0.390   3.601
 4617HO4    HW218467   2.522   0.452   3.450
 4617HO4     MW18468   2.502   0.372   3.507
 4618HO4     OW18469   4.778   3.924   1.529
 4618HO4    HW118470   4.865   3.920   1.479
 4618HO4    HW218471   4.796   3.947   1.625
 4618HO4     MW18472   4.778   3.924   1.529
 4619HO4     OW18473   2.582   3.662   4.826
 4619HO4    HW118474   2.490   3.650   4.863
 4619HO4    HW218475   2.620   3.749   4.857
 4619HO4     MW18476   2.582   3.662   4.826
 4620HO4     OW18477   1.273   2.677   2.633
 4620HO4    HW118478   1.292   2.620   2.553
 4620HO4    HW218479   1.319   2.639   2.713
 4620HO4     MW18480   1.273   2.677   2.633
 4621HO4     OW18481   3.936   1.490   0.265
 4621HO4    HW118482   3.897   1.579   0.240
 4621HO4    HW218483   4.021   1.504   0.317
 4621HO4     MW18484   3.936   1.490   0.265
 4622HO4     OW18485   3.796   0.411   1.460
 4622HO4    HW118486   3.704   0.447   1.481
 4622HO4    HW218487   3.863   0.456   1.519
 4622HO4     MW18488   3.796   0.411   1.460
 4623HO4     OW18489   0.387   3.860   0.013
 4623HO4    HW118490   0.296   3.829   0.045
 4623HO4    HW218491   0.438   3.898   0.091
 4623HO4     MW18492   0.387   3.860   0.013
 4624HO4     OW18493   1.205   3.663   2.515
 4624HO4    HW118494   1.206   3.690   2.612
 4624HO4    HW218495   1.276   3.713   2.465
 4624HO4     MW18496   1.205   3.663   2.515
 4625HO4     OW18497   1.260   3.800   1.704
 4625HO4    HW118498   1.225   3.885   1.664
 4625HO4    HW218499   1.192   3.762   1.767
 4625HO4     MW18500   1.260   3.800   1.704
 4626HO4     OW18501   0.206   1.286   2.156
 4626HO4    HW118502   0.127   1.233   2.125
 4626HO4    HW218503   0.206   1.290   2.257
 4626HO4     MW18504   0.206   1.286   2.156
 4627HO4     OW18505   3.186   1.833   4.654
 4627HO4    HW118506   3.280   1.828   4.619
 4627HO4    HW218507   3.162   1.746   4.698
 4627HO4     MW18508   3.186   1.833   4.654
 4628HO4     OW18509   3.780   3.169   2.547
 4628HO4    HW118510   3.783   3.224   2.463
 4628HO4    HW218511   3.868   3.178   2.596
 4628HO4     MW18512   3.780   3.169   2.547
 4629HO4     OW18513   3.280   2.003   1.340
 4629HO4    HW118514   3.319   1.915   1.369
 4629HO4    HW218515   3.180   2.000   1.350
 4629HO4     MW18516   3.280   2.003   1.340
 4630HO4     OW18517   0.380   4.433   2.867
 4630HO4    HW118518   0.432   4.415   2.951
 4630HO4    HW218519   0.414   4.374   2.793
 4630HO4     MW18520   0.380   4.433   2.867
 4631HO4     OW18521   5.306   2.042   5.199
 4631HO4    HW118522   5.324   1.948   5.168
 4631HO4    HW218523   5.345   2.056   5.290
 4631HO4     MW18524   5.306   2.042   5.199
 4632HO4     OW18525   0.574   3.201   2.127
 4632HO4    HW118526   0.499   3.137   2.148
 4632HO4    HW218527   0.650   3.150   2.085
 4632HO4     MW18528   0.574   3.201   2.127
 4633HO4     OW18529   1.844   3.254   5.246
 4633HO4    HW118530   1.793   3.171   5.271
 4633HO4    HW218531   1.820   3.329   5.309
 4633HO4     MW18532   1.844   3.254   5.246
 4634HO4     OW18533   0.745   3.268   2.737
 4634HO4    HW118534   0.735   3.321   2.653
 4634HO4    HW218535   0.798   3.184   2.717
 4634HO4     MW18536   0.745   3.268   2.737
 4635HO4     OW18537   1.082   0.584   1.443
 4635HO4    HW118538   1.113   0.679   1.448
 4635HO4    HW218539   0.997   0.579   1.389
 4635HO4     MW18540   1.082   0.584   1.443
 4636HO4     OW18541   0.166   0.683   3.307
 4636HO4    HW118542   0.239   0.750   3.298
 4636HO4    HW218543   0.087   0.725   3.353
 4636HO4     MW18544   0.166   0.683   3.307
 4637HO4     OW18545   3.597   3.479   3.212
 4637HO4    HW118546   3.590   3.469   3.112
 4637HO4    HW218547   3.592   3.576   3.236
 4637HO4     MW18548   3.597   3.479   3.212
 4638HO4     OW18549   2.597   4.294   1.602
 4638HO4    HW118550   2.632   4.350   1.677
 4638HO4    HW218551   2.574   4.354   1.524
 4638HO4     MW18552   2.597   4.294   1.602
 4639HO4     OW18553   1.745   3.031   0.236
 4639HO4    HW118554   1.740   2.999   0.331
 4639HO4    HW218555   1.693   2.968   0.177
 4639HO4     MW18556   1.745   3.031   0.236
 4640HO4     OW18557   1.984   3.141   3.973
 4640HO4    HW118558   1.937   3.073   4.030
 4640HO4    HW218559   1.945   3.140   3.881
 4640HO4     MW18560   1.984   3.141   3.973
 4641HO4     OW18561   2.103   2.592   1.914
 4641HO4    HW118562   2.158   2.668   1.880
 4641HO4    HW218563   2.118   2.581   2.013
 4641HO4     MW18564   2.103   2.592   1.914
 4642HO4     OW18565   1.573   3.621   4.789
 4642HO4    HW118566   1.658   3.594   4.834
 4642HO4    HW218567   1.554   3.558   4.713
 4642HO4     MW18568   1.573   3.621   4.789
 4643HO4     OW18569   2.521   0.484   1.502
 4643HO4    HW118570   2.543   0.518   1.594
 4643HO4    HW218571   2.599   0.501   1.441
 4643HO4     MW18572   2.521   0.484   1.502
 4644HO4     OW18573   2.985   2.977   4.849
 4644HO4    HW118574   2.904   3.006   4.798
 4644HO4    HW218575   2.974   3.000   4.946
 4644HO4     MW18576   2.985   2.977   4.849
 4645HO4     OW18577   4.566   4.670   5.411
 4645HO4    HW118578   4.551   4.608   5.334
 4645HO4    HW218579   4.568   4.618   5.496
 4645HO4     MW18580   4.566   4.670   5.411
 4646HO4     OW18581   4.424   0.863   0.278
 4646HO4    HW118582   4.476   0.906   0.204
 4646HO4    HW218583   4.414   0.928   0.354
 4646HO4     MW18584   4.424   0.863   0.278
 4647HO4     OW18585   4.871   2.855   0.358
 4647HO4    HW118586   4.800   2.918   0.388
 4647HO4    HW218587   4.943   2.905   0.309
 4647HO4     MW18588   4.871   2.855   0.358
 4648HO4     OW18589   4.434   5.128   4.106
 4648HO4    HW118590   4.505   5.059   4.121
 4648HO4    HW218591   4.394   5.156   4.195
 4648HO4     MW18592   4.434   5.128   4.106
 4649HO4     OW18593   1.253   1.258   2.974
 4649HO4    HW118594   1.212   1.246   3.065
 4649HO4    HW218595   1.216   1.190   2.911
 4649HO4     MW18596   1.253   1.258   2.974
 4650HO4     OW18597   2.798   4.540   3.613
 4650HO4    HW118598   2.753   4.453   3.589
 4650HO4    HW218599   2.846   4.576   3.532
 4650HO4     MW18600   2.798   4.540   3.613
 4651HO4     OW18601   5.354   5.330   0.364
 4651HO4    HW118602   5.408   5.341   0.280
 4651HO4    HW218603   5.414   5.342   0.444
 4651HO4     MW18604   5.354   5.330   0.364
 4652HO4     OW18605   3.222   0.805   4.964
 4652HO4    HW118606   3.218   0.903   4.987
 4652HO4    HW218607   3.200   0.750   5.045
 4652HO4     MW18608   3.222   0.805   4.964
 4653HO4     OW18609   5.314   1.463   4.439
 4653HO4    HW118610   5.303   1.484   4.342
 4653HO4    HW218611   5.409   1.436   4.457
 4653HO4     MW18612   5.314   1.463   4.439
 4654HO4     OW18613   1.372   1.118   3.406
 4654HO4    HW118614   1.356   1.175   3.487
 4654HO4    HW218615   1.331   1.162   3.325
 4654HO4     MW18616   1.372   1.118   3.406
 4655HO4     OW18617   1.398   1.261   1.899
 4655HO4    HW118618   1.427   1.255   1.995
 4655HO4    HW218619   1.456   1.327   1.851
 4655HO4     MW18620   1.398   1.261   1.899
 4656HO4     OW18621   1.590   2.937   0.794
 4656HO4    HW118622   1.497   2.966   0.817
 4656HO4    HW218623   1.650   2.951   0.874
 4656HO4     MW18624   1.590   2.937   0.794
 4657HO4     OW18625   5.029   3.492   0.127
 4657HO4    HW118626   5.017   3.454   0.035
 4657HO4    HW218627   4.957   3.457   0.188
 4657HO4     MW18628   5.029   3.492   0.127
 4658HO4     OW18629   4.112   3.330   0.916
 4658HO4    HW118630   4.203   3.331   0.874
 4658HO4    HW218631   4.049   3.384   0.860
 4658HO4     MW18632   4.112   3.330   0.916
 4659HO4     OW18633   5.357   4.726   2.858
 4659HO4    HW118634   5.322   4.677   2.777
 4659HO4    HW218635   5.334   4.674   2.941
 4659HO4     MW18636   5.357   4.726   2.858
 4660HO4     OW18637   4.603   0.826   1.035
 4660HO4    HW118638   4.672   0.771   0.987
 4660HO4    HW218639   4.567   0.772   1.112
 4660HO4     MW18640   4.603   0.826   1.035
 4661HO4     OW18641   5.107   5.047   4.721
 4661HO4    HW118642   5.173   5.122   4.721
 4661HO4    HW218643   5.149   4.966   4.765
 4661HO4     MW18644   5.107   5.047   4.721
 4662HO4     OW18645   5.139   4.546   4.884
 4662HO4    HW118646   5.125   4.529   4.982
 4662HO4    HW218647   5.051   4.538   4.836
 4662HO4     MW18648   5.139   4.546   4.884
 4663HO4     OW18649   0.762   3.682   1.921
 4663HO4    HW118650   0.682   3.633   1.885
 4663HO4    HW218651   0.827   3.616   1.961
 4663HO4     MW18652   0.762   3.682   1.921
 4664HO4     OW18653   5.271   3.834   5.131
 4664HO4    HW118654   5.257   3.855   5.229
 4664HO4    HW218655   5.367   3.806   5.117
 4664HO4     MW18656   5.271   3.834   5.131
 4665HO4     OW18657   3.399   5.483   5.189
 4665HO4    HW118658   3.372   5.429   5.269
 4665HO4    HW218659   3.486   5.449   5.153
 4665HO4     MW18660   3.399   5.483   5.189
 4666HO4     OW18661   0.301   0.480   4.227
 4666HO4    HW118662   0.233   0.540   4.270
 4666HO4    HW218663   0.372   0.456   4.294
 4666HO4     MW18664   0.301   0.480   4.227
 4667HO4     OW18665   5.059   2.718   0.038
 4667HO4    HW118666   5.153   2.692   0.064
 4667HO4    HW218667   5.039   2.683  -0.053
 4667HO4     MW18668   5.059   2.718   0.038
 4668HO4     OW18669   2.636   3.122   4.398
 4668HO4    HW118670   2.687   3.044   4.436
 4668HO4    HW218671   2.696   3.175   4.338
 4668HO4     MW18672   2.636   3.122   4.398
 4669HO4     OW18673   3.777   1.837   3.495
 4669HO4    HW118674   3.686   1.879   3.501
 4669HO4    HW218675   3.767   1.737   3.494
 4669HO4     MW18676   3.777   1.837   3.495
 4670HO4     OW18677   4.508   1.585   4.427
 4670HO4    HW118678   4.595   1.622   4.392
 4670HO4    HW218679   4.456   1.545   4.351
 4670HO4     MW18680   4.508   1.585   4.427
 4671HO4     OW18681   4.812   1.569   5.332
 4671HO4    HW118682   4.853   1.559   5.241
 4671HO4    HW218683   4.784   1.479   5.366
 4671HO4     MW18684   4.812   1.569   5.332
 4672HO4     OW18685   0.565   4.113   4.940
 4672HO4    HW118686   0.633   4.127   4.867
 4672HO4    HW218687   0.556   4.015   4.959
 4672HO4     MW18688   0.565   4.113   4.940
 4673HO4     OW18689   0.994   1.753   3.953
 4673HO4    HW118690   1.003   1.852   3.935
 4673HO4    HW218691   1.015   1.702   3.870
 4673HO4     MW18692   0.994   1.753   3.953
 4674HO4     OW18693   0.906   3.093   5.063
 4674HO4    HW118694   0.888   3.171   5.004
 4674HO4    HW218695   0.937   3.015   5.008
 4674HO4     MW18696   0.906   3.093   5.063
 4675HO4     OW18697   2.002   0.077   3.119
 4675HO4    HW118698   2.017   0.154   3.057
 4675HO4    HW218699   2.031  -0.008   3.073
 4675HO4     MW18700   2.002   0.077   3.119
 4676HO4     OW18701   0.457   4.797   5.233
 4676HO4    HW118702   0.515   4.859   5.180
 4676HO4    HW218703   0.410   4.733   5.171
 4676HO4     MW18704   0.457   4.797   5.233
 4677HO4     OW18705   1.501   4.642   1.674
 4677HO4    HW118706   1.490   4.592   1.760
 4677HO4    HW218707   1.435   4.607   1.606
 4677HO4     MW18708   1.501   4.642   1.674
 4678HO4     OW18709   0.130   3.249   2.974
 4678HO4    HW118710   0.055   3.315   2.965
 4678HO4    HW218711   0.166   3.253   3.068
 4678HO4     MW18712   0.130   3.249   2.974
 4679HO4     OW18713   3.140   3.860   4.612
 4679HO4    HW118714   3.084   3.932   4.653
 4679HO4    HW218715   3.095   3.825   4.529
 4679HO4     MW18716   3.140   3.860   4.612
 4680HO4     OW18717   0.649   2.299   2.300
 4680HO4    HW118718   0.645   2.282   2.399
 4680HO4    HW218719   0.742   2.280   2.266
 4680HO4     MW18720   0.649   2.299   2.300
 4681HO4     OW18721   4.402   1.264   1.906
 4681HO4    HW118722   4.427   1.317   1.988
 4681HO4    HW218723   4.472   1.278   1.835
 4681HO4     MW18724   4.402   1.264   1.906
 4682HO4     OW18725   3.571   1.140   1.174
 4682HO4    HW118726   3.509   1.190   1.235
 4682HO4    HW218727   3.560   1.173   1.080
 4682HO4     MW18728   3.571   1.140   1.174
 4683HO4     OW18729   0.295   4.966   0.999
 4683HO4    HW118730   0.371   4.970   0.934
 4683HO4    HW218731   0.283   5.056   1.043
 4683HO4     MW18732   0.295   4.966   0.999
 4684HO4     OW18733   1.052   0.388   2.897
 4684HO4    HW118734   1.069   0.306   2.841
 4684HO4    HW218735   1.139   0.433   2.917
 4684HO4     MW18736   1.052   0.388   2.897
 4685HO4     OW18737   3.243   2.635   3.445
 4685HO4    HW118738   3.343   2.633   3.460
 4685HO4    HW218739   3.217   2.719   3.398
 4685HO4     MW18740   3.243   2.635   3.445
 4686HO4     OW18741   4.420   0.618   4.023
 4686HO4    HW118742   4.433   0.582   3.930
 4686HO4    HW218743   4.345   0.568   4.067
 4686HO4     MW18744   4.420   0.618   4.023
 4687HO4     OW18745   2.888   0.875   3.812
 4687HO4    HW118746   2.899   0.784   3.770
 4687HO4    HW218747   2.979   0.912   3.836
 4687HO4     MW18748   2.888   0.875   3.812
 4688HO4     OW18749   3.561   0.801   3.251
 4688HO4    HW118750   3.571   0.894   3.288
 4688HO4    HW218751   3.592   0.800   3.155
 4688HO4     MW18752   3.561   0.801   3.251
 4689HO4     OW18753   2.006   5.079   3.147
 4689HO4    HW118754   1.974   4.986   3.130
 4689HO4    HW218755   1.947   5.123   3.216
 4689HO4     MW18756   2.006   5.079   3.147
 4690HO4     OW18757   1.736   5.117   4.884
 4690HO4    HW118758   1.696   5.169   4.960
 4690HO4    HW218759   1.662   5.081   4.826
 4690HO4     MW18760   1.736   5.117   4.884
 4691HO4     OW18761   1.754   4.921   5.304
 4691HO4    HW118762   1.765   5.019   5.290
 4691HO4    HW218763   1.662   4.893   5.276
 4691HO4     MW18764   1.754   4.921   5.304
 4692HO4     OW18765   0.698   3.376   4.350
 4692HO4    HW118766   0.615   3.406   4.397
 4692HO4    HW218767   0.769   3.447   4.359
 4692HO4     MW18768   0.698   3.376   4.350
 4693HO4     OW18769   4.966   3.995   3.963
 4693HO4    HW118770   5.041   4.036   4.014
 4693HO4    HW218771   4.925   4.064   3.902
 4693HO4     MW18772   4.966   3.995   3.963
 4694HO4     OW18773   0.415   0.264   4.761
 4694HO4    HW118774   0.369   0.318   4.691
 4694HO4    HW218775   0.366   0.274   4.849
 4694HO4     MW18776   0.415   0.264   4.761
 4695HO4     OW18777   0.398   1.496   0.028
 4695HO4    HW118778   0.428   1.540  -0.057
 4695HO4    HW218779   0.312   1.447   0.012
 4695HO4     MW18780   0.398   1.496   0.028
 4696HO4     OW18781   1.289   0.307   3.943
 4696HO4    HW118782   1.226   0.270   4.011
 4696HO4    HW218783   1.372   0.250   3.939
 4696HO4     MW18784   1.289   0.307   3.943
 4697HO4     OW18785   5.251   0.922   2.354
 4697HO4    HW118786   5.324   0.859   2.327
 4697HO4    HW218787   5.259   0.943   2.452
 4697HO4     MW18788   5.251   0.922   2.354
 4698HO4     OW18789   3.115   3.598   0.739
 4698HO4    HW118790   3.141   3.650   0.820
 4698HO4    HW218791   3.131   3.653   0.656
 4698HO4     MW18792   3.115   3.598   0.739
 4699HO4     OW18793   2.529   3.547   1.279
 4699HO4    HW118794   2.504   3.451   1.294
 4699HO4    HW218795   2.583   3.554   1.194
 4699HO4     MW18796   2.529   3.547   1.279
 4700HO4     OW18797   4.409   5.409   3.583
 4700HO4    HW118798   4.455   5.447   3.664
 4700HO4    HW218799   4.431   5.464   3.502
 4700HO4     MW18800   4.409   5.409   3.583
 4701HO4     OW18801   4.236   4.548   0.127
 4701HO4    HW118802   4.328   4.528   0.162
 4701HO4    HW218803   4.167   4.513   0.192
 4701HO4     MW18804   4.236   4.548   0.127
 4702HO4     OW18805   3.778   1.085   5.018
 4702HO4    HW118806   3.787   1.184   5.036
 4702HO4    HW218807   3.867   1.041   5.032
 4702HO4     MW18808   3.778   1.085   5.018
 4703HO4     OW18809   1.607   0.532   2.995
 4703HO4    HW118810   1.623   0.606   2.929
 4703HO4    HW218811   1.663   0.452   2.970
 4703HO4     MW18812   1.607   0.532   2.995
 4704HO4     OW18813   3.151   2.993   3.075
 4704HO4    HW118814   3.152   3.077   3.021
 4704HO4    HW218815   3.182   3.013   3.169
 4704HO4     MW18816   3.151   2.993   3.075
 4705HO4     OW18817   5.348   2.768   1.269
 4705HO4    HW118818   5.315   2.685   1.316
 4705HO4    HW218819   5.274   2.835   1.264
 4705HO4     MW18820   5.348   2.768   1.269
 4706HO4     OW18821   4.428   0.339   2.725
 4706HO4    HW118822   4.501   0.276   2.697
 4706HO4    HW218823   4.444   0.370   2.820
 4706HO4     MW18824   4.428   0.339   2.725
 4707HO4     OW18825   3.725   4.803   0.009
 4707HO4    HW118826   3.696   4.894   0.040
 4707HO4    HW218827   3.818   4.784   0.044
 4707HO4     MW18828   3.725   4.803   0.009
 4708HO4     OW18829   2.611   3.384   1.073
 4708HO4    HW118830   2.528   3.340   1.038
 4708HO4    HW218831   2.617   3.370   1.172
 4708HO4     MW18832   2.611   3.384   1.073
 4709HO4     OW18833   2.799   1.571   3.996
 4709HO4    HW118834   2.707   1.608   3.976
 4709HO4    HW218835   2.863   1.601   3.926
 4709HO4     MW18836   2.799   1.571   3.996
 4710HO4     OW18837   0.137   4.348   4.728
 4710HO4    HW118838   0.214   4.404   4.760
 4710HO4    HW218839   0.137   4.260   4.775
 4710HO4     MW18840   0.137   4.348   4.728
 4711HO4     OW18841   3.900   0.985   5.362
 4711HO4    HW118842   3.836   0.967   5.286
 4711HO4    HW218843   3.868   0.937   5.444
 4711HO4     MW18844   3.900   0.985   5.362
 4712HO4     OW18845   1.070   2.459   4.301
 4712HO4    HW118846   1.013   2.458   4.218
 4712HO4    HW218847   1.011   2.461   4.382
 4712HO4     MW18848   1.070   2.459   4.301
 4713HO4     OW18849   2.832   3.549   1.597
 4713HO4    HW118850   2.852   3.468   1.541
 4713HO4    HW218851   2.797   3.622   1.537
 4713HO4     MW18852   2.832   3.549   1.597
 4714HO4     OW18853   2.972   4.754   2.170
 4714HO4    HW118854   2.948   4.756   2.073
 4714HO4    HW218855   3.025   4.672   2.190
 4714HO4     MW18856   2.972   4.754   2.170
 4715HO4     OW18857   0.838   5.177   2.776
 4715HO4    HW118858   0.900   5.098   2.769
 4715HO4    HW218859   0.874   5.243   2.843
 4715HO4     MW18860   0.838   5.177   2.776
 4716HO4     OW18861   0.624   4.893   3.009
 4716HO4    HW118862   0.624   4.987   3.042
 4716HO4    HW218863   0.657   4.890   2.914
 4716HO4     MW18864   0.624   4.893   3.009
 4717HO4     OW18865   0.250   4.269   0.492
 4717HO4    HW118866   0.310   4.293   0.415
 4717HO4    HW218867   0.291   4.305   0.577
 4717HO4     MW18868   0.250   4.269   0.492
 4718HO4     OW18869   4.173   3.984   4.687
 4718HO4    HW118870   4.113   3.920   4.736
 4718HO4    HW218871   4.264   3.943   4.674
 4718HO4     MW18872   4.173   3.984   4.687
 4719HO4     OW18873   3.008   3.391   2.568
 4719HO4    HW118874   3.082   3.348   2.621
 4719HO4    HW218875   2.989   3.335   2.487
 4719HO4     MW18876   3.008   3.391   2.568
 4720HO4     OW18877   3.270   4.474   5.144
 4720HO4    HW118878   3.239   4.395   5.198
 4720HO4    HW218879   3.190   4.525   5.110
 4720HO4     MW18880   3.270   4.474   5.144
 4721HO4     OW18881   2.889   0.896   3.173
 4721HO4    HW118882   2.948   0.976   3.159
 4721HO4    HW218883   2.871   0.852   3.084
 4721HO4     MW18884   2.889   0.896   3.173
 4722HO4     OW18885   1.535   3.342   5.066
 4722HO4    HW118886   1.477   3.423   5.085
 4722HO4    HW218887   1.622   3.372   5.026
 4722HO4     MW18888   1.535   3.342   5.066
 4723HO4     OW18889   4.173   0.410   2.263
 4723HO4    HW118890   4.213   0.465   2.336
 4723HO4    HW218891   4.245   0.361   2.213
 4723HO4     MW18892   4.173   0.410   2.263
 4724HO4     OW18893   5.273   5.396   4.994
 4724HO4    HW118894   5.327   5.429   4.916
 4724HO4    HW218895   5.240   5.303   4.973
 4724HO4     MW18896   5.273   5.396   4.994
 4725HO4     OW18897   2.418   4.084   1.983
 4725HO4    HW118898   2.364   4.067   1.900
 4725HO4    HW218899   2.358   4.079   2.064
 4725HO4     MW18900   2.418   4.084   1.983
 4726HO4     OW18901   0.386   3.755   4.618
 4726HO4    HW118902   0.301   3.766   4.566
 4726HO4    HW218903   0.385   3.818   4.696
 4726HO4     MW18904   0.386   3.755   4.618
 4727HO4     OW18905   0.017   3.959   1.152
 4727HO4    HW118906   0.109   3.949   1.192
 4727HO4    HW218907  -0.041   3.881   1.180
 4727HO4     MW18908   0.017   3.959   1.152
 4728HO4     OW18909   1.789   4.116   0.781
 4728HO4    HW118910   1.800   4.144   0.685
 4728HO4    HW218911   1.872   4.069   0.813
 4728HO4     MW18912   1.789   4.116   0.781
 4729HO4     OW18913   3.038   1.966   5.437
 4729HO4    HW118914   3.045   2.034   5.510
 4729HO4    HW218915   2.981   2.002   5.362
 4729HO4     MW18916   3.038   1.966   5.437
 4730HO4     OW18917   1.569   0.535   2.384
 4730HO4    HW118918   1.639   0.581   2.439
 4730HO4    HW218919   1.555   0.441   2.418
 4730HO4     MW18920   1.569   0.535   2.384
 4731HO4     OW18921   4.420   4.333   4.270
 4731HO4    HW118922   4.477   4.279   4.333
 4731HO4    HW218923   4.367   4.401   4.322
 4731HO4     MW18924   4.420   4.333   4.270
 4732HO4     OW18925   5.321   4.083   0.236
 4732HO4    HW118926   5.239   4.065   0.181
 4732HO4    HW218927   5.302   4.065   0.333
 4732HO4     MW18928   5.321   4.083   0.236
 4733HO4     OW18929   1.158   4.907   5.200
 4733HO4    HW118930   1.199   4.822   5.234
 4733HO4    HW218931   1.140   4.969   5.277
 4733HO4     MW18932   1.158   4.907   5.200
 4734HO4     OW18933   0.063   4.377   3.368
 4734HO4    HW118934   0.118   4.363   3.451
 4734HO4    HW218935   0.120   4.359   3.287
 4734HO4     MW18936   0.063   4.377   3.368
 4735HO4     OW18937   3.692   2.615   5.114
 4735HO4    HW118938   3.613   2.612   5.052
 4735HO4    HW218939   3.675   2.681   5.187
 4735HO4     MW18940   3.692   2.615   5.114
 4736HO4     OW18941   5.284   2.243   3.570
 4736HO4    HW118942   5.185   2.227   3.556
 4736HO4    HW218943   5.298   2.337   3.600
 4736HO4     MW18944   5.284   2.243   3.570
 4737HO4     OW18945   0.149   4.624   4.587
 4737HO4    HW118946   0.242   4.607   4.552
 4737HO4    HW218947   0.153   4.636   4.686
 4737HO4     MW18948   0.149   4.624   4.587
 4738HO4     OW18949   5.430   1.561   1.058
 4738HO4    HW118950   5.459   1.615   1.138
 4738HO4    HW218951   5.376   1.618   0.996
 4738HO4     MW18952   5.430   1.561   1.058
 4739HO4     OW18953   0.422   4.804   2.328
 4739HO4    HW118954   0.420   4.812   2.428
 4739HO4    HW218955   0.379   4.885   2.287
 4739HO4     MW18956   0.422   4.804   2.328
 4740HO4     OW18957   1.817   1.325   3.686
 4740HO4    HW118958   1.811   1.231   3.719
 4740HO4    HW218959   1.727   1.356   3.653
 4740HO4     MW18960   1.817   1.325   3.686
 4741HO4     OW18961   1.095   2.205   2.460
 4741HO4    HW118962   1.020   2.257   2.503
 4741HO4    HW218963   1.125   2.253   2.377
 4741HO4     MW18964   1.095   2.205   2.460
 4742HO4     OW18965   0.303   3.522   1.707
 4742HO4    HW118966   0.308   3.581   1.788
 4742HO4    HW218967   0.312   3.577   1.624
 4742HO4     MW18968   0.303   3.522   1.707
 4743HO4     OW18969   3.479   1.444   0.404
 4743HO4    HW118970   3.429   1.530   0.391
 4743HO4    HW218971   3.543   1.453   0.480
 4743HO4     MW18972   3.479   1.444   0.404
 4744HO4     OW18973   3.575   2.060   3.683
 4744HO4    HW118974   3.508   2.077   3.756
 4744HO4    HW218975   3.529   2.067   3.593
 4744HO4     MW18976   3.575   2.060   3.683
 4745HO4     OW18977   0.300   0.499   3.494
 4745HO4    HW118978   0.395   0.482   3.468
 4745HO4    HW218979   0.297   0.564   3.571
 4745HO4     MW18980   0.300   0.499   3.494
 4746HO4     OW18981   4.566   3.824   0.117
 4746HO4    HW118982   4.520   3.754   0.061
 4746HO4    HW218983   4.521   3.913   0.105
 4746HO4     MW18984   4.566   3.824   0.117
 4747HO4     OW18985   4.247   0.318   1.068
 4747HO4    HW118986   4.303   0.362   1.138
 4747HO4    HW218987   4.159   0.290   1.108
 4747HO4     MW18988   4.247   0.318   1.068
 4748HO4     OW18989   3.601   2.468   2.812
 4748HO4    HW118990   3.528   2.534   2.833
 4748HO4    HW218991   3.666   2.465   2.889
 4748HO4     MW18992   3.601   2.468   2.812
 4749HO4     OW18993   4.187   3.361   4.493
 4749HO4    HW118994   4.178   3.346   4.592
 4749HO4    HW218995   4.128   3.437   4.465
 4749HO4     MW18996   4.187   3.361   4.493
 4750HO4     OW18997   1.272   5.372   5.336
 4750HO4    HW118998   1.342   5.432   5.295
 4750HO4    HW218999   1.181   5.408   5.314
 4750HO4     MW19000   1.272   5.372   5.336
 4751HO4     OW19001   3.129   0.287   4.622
 4751HO4    HW119002   3.223   0.317   4.640
 4751HO4    HW219003   3.068   0.323   4.693
 4751HO4     MW19004   3.129   0.287   4.622
 4752HO4     OW19005   5.483   4.794   5.238
 4752HO4    HW119006   5.384   4.796   5.251
 4752HO4    HW219007   5.526   4.747   5.316
 4752HO4     MW19008   5.483   4.794   5.238
 4753HO4     OW19009   4.238   4.194   3.958
 4753HO4    HW119010   4.193   4.152   4.037
 4753HO4    HW219011   4.198   4.155   3.873
 4753HO4     MW19012   4.238   4.194   3.958
 4754HO4     OW19013   4.316   3.105   3.916
 4754HO4    HW119014   4.348   3.113   4.011
 4754HO4    HW219015   4.234   3.049   3.914
 4754HO4     MW19016   4.316   3.105   3.916
 4755HO4     OW19017   2.433   0.265   1.917
 4755HO4    HW119018   2.375   0.242   1.996
 4755HO4    HW219019   2.380   0.255   1.832
 4755HO4     MW19020   2.433   0.265   1.917
 4756HO4     OW19021   4.822   3.123   0.603
 4756HO4    HW119022   4.762   3.114   0.683
 4756HO4    HW219023   4.775   3.173   0.530
 4756HO4     MW19024   4.822   3.123   0.603
 4757HO4     OW19025   3.193   0.429   4.346
 4757HO4    HW119026   3.094   0.444   4.345
 4757HO4    HW219027   3.224   0.416   4.441
 4757HO4     MW19028   3.193   0.429   4.346
 4758HO4     OW19029   5.002   1.118   2.770
 4758HO4    HW119030   5.000   1.034   2.715
 4758HO4    HW219031   4.910   1.156   2.778
 4758HO4     MW19032   5.002   1.118   2.770
 4759HO4     OW19033   1.780   2.250   2.822
 4759HO4    HW119034   1.753   2.154   2.812
 4759HO4    HW219035   1.865   2.255   2.876
 4759HO4     MW19036   1.780   2.250   2.822
 4760HO4     OW19037   3.640   0.935   0.650
 4760HO4    HW119038   3.582   1.010   0.616
 4760HO4    HW219039   3.645   0.863   0.580
 4760HO4     MW19040   3.640   0.935   0.650
 4761HO4     OW19041   4.279   2.498   5.318
 4761HO4    HW119042   4.270   2.404   5.353
 4761HO4    HW219043   4.355   2.503   5.254
 4761HO4     MW19044   4.279   2.498   5.318
 4762HO4     OW19045   0.175   2.715   1.442
 4762HO4    HW119046   0.248   2.784   1.434
 4762HO4    HW219047   0.199   2.634   1.388
 4762HO4     MW19048   0.175   2.715   1.442
 4763HO4     OW19049   0.131   0.281   4.914
 4763HO4    HW119050   0.160   0.223   4.992
 4763HO4    HW219051   0.139   0.378   4.940
 4763HO4     MW19052   0.131   0.281   4.914
 4764HO4     OW19053   2.637   0.747   1.263
 4764HO4    HW119054   2.575   0.682   1.307
 4764HO4    HW219055   2.630   0.836   1.308
 4764HO4     MW19056   2.637   0.747   1.263
 4765HO4     OW19057   0.801   1.603   0.840
 4765HO4    HW119058   0.880   1.560   0.885
 4765HO4    HW219059   0.835   1.660   0.763
 4765HO4     MW19060   0.801   1.603   0.840
 4766HO4     OW19061   5.363   0.453   0.176
 4766HO4    HW119062   5.336   0.387   0.104
 4766HO4    HW219063   5.320   0.426   0.263
 4766HO4     MW19064   5.363   0.453   0.176
 4767HO4     OW19065   0.062   2.764   4.968
 4767HO4    HW119066   0.091   2.720   4.882
 4767HO4    HW219067   0.113   2.725   5.044
 4767HO4     MW19068   0.062   2.764   4.968
 4768HO4     OW19069   2.868   3.967   4.715
 4768HO4    HW119070   2.908   3.903   4.780
 4768HO4    HW219071   2.932   3.984   4.640
 4768HO4     MW19072   2.868   3.967   4.715
 4769HO4     OW19073   2.575   2.495   3.420
 4769HO4    HW119074   2.604   2.482   3.516
 4769HO4    HW219075   2.537   2.410   3.385
 4769HO4     MW19076   2.575   2.495   3.420
 4770HO4     OW19077   4.960   2.609   3.199
 4770HO4    HW119078   4.956   2.601   3.299
 4770HO4    HW219079   4.950   2.705   3.173
 4770HO4     MW19080   4.960   2.609   3.199
 4771HO4     OW19081   1.524   0.297   4.353
 4771HO4    HW119082   1.489   0.232   4.421
 4771HO4    HW219083   1.478   0.283   4.265
 4771HO4     MW19084   1.524   0.297   4.353
 4772HO4     OW19085   5.479   2.270   2.710
 4772HO4    HW119086   5.454   2.249   2.615
 4772HO4    HW219087   5.401   2.250   2.770
 4772HO4     MW19088   5.479   2.270   2.710
 4773HO4     OW19089   2.039   0.631   5.050
 4773HO4    HW119090   2.063   0.708   4.991
 4773HO4    HW219091   2.123   0.593   5.091
 4773HO4     MW19092   2.039   0.631   5.050
 4774HO4     OW19093   4.520   2.362   5.010
 4774HO4    HW119094   4.549   2.267   5.001
 4774HO4    HW219095   4.508   2.385   5.107
 4774HO4     MW19096   4.520   2.362   5.010
 4775HO4     OW19097   4.270   4.778   3.226
 4775HO4    HW119098   4.277   4.835   3.144
 4775HO4    HW219099   4.276   4.837   3.308
 4775HO4     MW19100   4.270   4.778   3.226
 4776HO4     OW19101   0.113   2.982   4.158
 4776HO4    HW119102   0.144   2.932   4.076
 4776HO4    HW219103   0.148   3.077   4.153
 4776HO4     MW19104   0.113   2.982   4.158
 4777HO4     OW19105   0.302   3.770   2.085
 4777HO4    HW119106   0.257   3.688   2.048
 4777HO4    HW219107   0.363   3.809   2.015
 4777HO4     MW19108   0.302   3.770   2.085
 4778HO4     OW19109   1.356   2.400   0.224
 4778HO4    HW119110   1.393   2.435   0.311
 4778HO4    HW219111   1.420   2.421   0.150
 4778HO4     MW19112   1.356   2.400   0.224
 4779HO4     OW19113   4.404   2.079   1.841
 4779HO4    HW119114   4.474   2.031   1.787
 4779HO4    HW219115   4.364   2.015   1.907
 4779HO4     MW19116   4.404   2.079   1.841
 4780HO4     OW19117   3.149   3.773   1.417
 4780HO4    HW119118   3.116   3.699   1.476
 4780HO4    HW219119   3.120   3.756   1.322
 4780HO4     MW19120   3.149   3.773   1.417
 4781HO4     OW19121   3.021   1.111   4.254
 4781HO4    HW119122   3.059   1.081   4.342
 4781HO4    HW219123   2.921   1.119   4.262
 4781HO4     MW19124   3.021   1.111   4.254
 4782HO4     OW19125   5.438   0.642   5.326
 4782HO4    HW119126   5.409   0.613   5.418
 4782HO4    HW219127   5.422   0.568   5.261
 4782HO4     MW19128   5.438   0.642   5.326
 4783HO4     OW19129   1.361   0.101   2.923
 4783HO4    HW119130   1.431   0.161   2.963
 4783HO4    HW219131   1.276   0.152   2.911
 4783HO4     MW19132   1.361   0.101   2.923
 4784HO4     OW19133   0.827   4.287   5.078
 4784HO4    HW119134   0.799   4.191   5.085
 4784HO4    HW219135   0.771   4.332   5.008
 4784HO4     MW19136   0.827   4.287   5.078
 4785HO4     OW19137   2.867   1.535   3.317
 4785HO4    HW119138   2.773   1.570   3.310
 4785HO4    HW219139   2.864   1.438   3.342
 4785HO4     MW19140   2.867   1.535   3.317
 4786HO4     OW19141   0.922   5.230   4.500
 4786HO4    HW119142   0.925   5.231   4.399
 4786HO4    HW219143   0.972   5.310   4.535
 4786HO4     MW19144   0.922   5.230   4.500
 4787HO4     OW19145   5.246   0.634   1.088
 4787HO4    HW119146   5.249   0.728   1.125
 4787HO4    HW219147   5.272   0.635   0.991
 4787HO4     MW19148   5.246   0.634   1.088
 4788HO4     OW19149   2.038   3.038   1.512
 4788HO4    HW119150   2.065   2.957   1.565
 4788HO4    HW219151   2.108   3.109   1.523
 4788HO4     MW19152   2.038   3.038   1.512
 4789HO4     OW19153   4.855   2.965   3.192
 4789HO4    HW119154   4.895   2.933   3.106
 4789HO4    HW219155   4.853   2.890   3.258
 4789HO4     MW19156   4.855   2.965   3.192
 4790HO4     OW19157   1.418   1.138   4.629
 4790HO4    HW119158   1.385   1.102   4.717
 4790HO4    HW219159   1.387   1.233   4.618
 4790HO4     MW19160   1.418   1.138   4.629
 4791HO4     OW19161   0.994   2.110   2.155
 4791HO4    HW119162   0.981   2.054   2.073
 4791HO4    HW219163   0.972   2.056   2.237
 4791HO4     MW19164   0.994   2.110   2.155
 4792HO4     OW19165   4.400   2.218   2.451
 4792HO4    HW119166   4.383   2.137   2.394
 4792HO4    HW219167   4.443   2.290   2.395
 4792HO4     MW19168   4.400   2.218   2.451
 4793HO4     OW19169   2.348   5.014   2.560
 4793HO4    HW119170   2.377   4.965   2.643
 4793HO4    HW219171   2.362   4.954   2.480
 4793HO4     MW19172   2.348   5.014   2.560
 4794HO4     OW19173   4.458   1.112   3.199
 4794HO4    HW119174   4.381   1.076   3.252
 4794HO4    HW219175   4.445   1.091   3.102
 4794HO4     MW19176   4.458   1.112   3.199
 4795HO4     OW19177   4.928   2.162   2.645
 4795HO4    HW119178   4.933   2.181   2.546
 4795HO4    HW219179   4.863   2.087   2.661
 4795HO4     MW19180   4.928   2.162   2.645
 4796HO4     OW19181   1.854   5.279   2.886
 4796HO4    HW119182   1.802   5.306   2.804
 4796HO4    HW219183   1.809   5.317   2.968
 4796HO4     MW19184   1.854   5.279   2.886
 4797HO4     OW19185   5.337   4.754   4.498
 4797HO4    HW119186   5.422   4.707   4.469
 4797HO4    HW219187   5.316   4.729   4.593
 4797HO4     MW19188   5.337   4.754   4.498
 4798HO4     OW19189   4.615   1.184   3.872
 4798HO4    HW119190   4.664   1.266   3.842
 4798HO4    HW219191   4.580   1.198   3.965
 4798HO4     MW19192   4.615   1.184   3.872
 4799HO4     OW19193   2.140   4.384   0.563
 4799HO4    HW119194   2.129   4.362   0.466
 4799HO4    HW219195   2.066   4.342   0.616
 4799HO4     MW19196   2.140   4.384   0.563
 4800HO4     OW19197   1.131   4.226   4.085
 4800HO4    HW119198   1.228   4.232   4.062
 4800HO4    HW219199   1.120   4.214   4.184
 4800HO4     MW19200   1.131   4.226   4.085
 4801HO4     OW19201   1.732   3.715   2.358
 4801HO4    HW119202   1.683   3.795   2.395
 4801HO4    HW219203   1.751   3.730   2.261
 4801HO4     MW19204   1.732   3.715   2.358
 4802HO4     OW19205   1.316   5.020   2.550
 4802HO4    HW119206   1.347   5.083   2.621
 4802HO4    HW219207   1.271   4.941   2.592
 4802HO4     MW19208   1.316   5.020   2.550
 4803HO4     OW19209   1.082   2.328   3.250
 4803HO4    HW119210   1.170   2.347   3.293
 4803HO4    HW219211   1.025   2.273   3.312
 4803HO4     MW19212   1.082   2.328   3.250
 4804HO4     OW19213   1.375   4.838   4.343
 4804HO4    HW119214   1.297   4.853   4.282
 4804HO4    HW219215   1.382   4.914   4.408
 4804HO4     MW19216   1.375   4.838   4.343
 4805HO4     OW19217   2.581   0.574   1.868
 4805HO4    HW119218   2.616   0.517   1.793
 4805HO4    HW219219   2.601   0.529   1.956
 4805HO4     MW19220   2.581   0.574   1.868
 4806HO4     OW19221   4.993   3.516   3.692
 4806HO4    HW119222   4.921   3.577   3.659
 4806HO4    HW219223   4.953   3.433   3.730
 4806HO4     MW19224   4.993   3.516   3.692
 4807HO4     OW19225   3.829   3.308   4.408
 4807HO4    HW119226   3.911   3.341   4.360
 4807HO4    HW219227   3.810   3.213   4.380
 4807HO4     MW19228   3.829   3.308   4.408
 4808HO4     OW19229   2.845   4.155   4.854
 4808HO4    HW119230   2.863   4.246   4.893
 4808HO4    HW219231   2.860   4.157   4.755
 4808HO4     MW19232   2.845   4.155   4.854
 4809HO4     OW19233   0.231   0.636   4.617
 4809HO4    HW119234   0.165   0.637   4.541
 4809HO4    HW219235   0.181   0.630   4.704
 4809HO4     MW19236   0.231   0.636   4.617
 4810HO4     OW19237   1.894   2.647   3.833
 4810HO4    HW119238   1.850   2.710   3.898
 4810HO4    HW219239   1.913   2.696   3.747
 4810HO4     MW19240   1.894   2.647   3.833
 4811HO4     OW19241   4.924   3.939   2.315
 4811HO4    HW119242   5.020   3.950   2.342
 4811HO4    HW219243   4.885   3.859   2.362
 4811HO4     MW19244   4.924   3.939   2.315
 4812HO4     OW19245   0.681   0.338   0.756
 4812HO4    HW119246   0.675   0.412   0.689
 4812HO4    HW219247   0.770   0.293   0.749
 4812HO4     MW19248   0.681   0.338   0.756
 4813HO4     OW19249   5.046   1.963   4.652
 4813HO4    HW119250   5.008   2.051   4.682
 4813HO4    HW219251   5.102   1.977   4.570
 4813HO4     MW19252   5.046   1.963   4.652
 4814HO4     OW19253   4.697   0.793   1.793
 4814HO4    HW119254   4.700   0.735   1.711
 4814HO4    HW219255   4.691   0.735   1.875
 4814HO4     MW19256   4.697   0.793   1.793
 4815HO4     OW19257   1.629   4.580   0.360
 4815HO4    HW119258   1.601   4.629   0.443
 4815HO4    HW219259   1.600   4.632   0.279
 4815HO4     MW19260   1.629   4.580   0.360
 4816HO4     OW19261   1.624   0.979   2.908
 4816HO4    HW119262   1.709   0.931   2.927
 4816HO4    HW219263   1.605   0.976   2.810
 4816HO4     MW19264   1.624   0.979   2.908
 4817HO4     OW19265   4.951   1.313   0.428
 4817HO4    HW119266   4.901   1.342   0.346
 4817HO4    HW219267   4.917   1.224   0.460
 4817HO4     MW19268   4.951   1.313   0.428
 4818HO4     OW19269   0.038   2.226   5.179
 4818HO4    HW119270  -0.005   2.218   5.269
 4818HO4    HW219271  -0.033   2.240   5.109
 4818HO4     MW19272   0.038   2.226   5.179
 4819HO4     OW19273   1.536   2.618   3.449
 4819HO4    HW119274   1.445   2.589   3.482
 4819HO4    HW219275   1.600   2.541   3.457
 4819HO4     MW19276   1.536   2.618   3.449
 4820HO4     OW19277   4.736   3.964   4.155
 4820HO4    HW119278   4.779   3.897   4.216
 4820HO4    HW219279   4.804   3.995   4.087
 4820HO4     MW19280   4.736   3.964   4.155
 4821HO4     OW19281   3.622   0.477   4.357
 4821HO4    HW119282   3.606   0.459   4.260
 4821HO4    HW219283   3.664   0.397   4.400
 4821HO4     MW19284   3.622   0.477   4.357
 4822HO4     OW19285   0.994   1.790   2.019
 4822HO4    HW119286   0.996   1.842   1.933
 4822HO4    HW219287   1.001   1.854   2.096
 4822HO4     MW19288   0.994   1.790   2.019
 4823HO4     OW19289   0.626   0.102   4.516
 4823HO4    HW119290   0.659   0.150   4.434
 4823HO4    HW219291   0.658   0.150   4.598
 4823HO4     MW19292   0.626   0.102   4.516
 4824HO4     OW19293   1.168   3.791   0.660
 4824HO4    HW119294   1.109   3.710   0.649
 4824HO4    HW219295   1.161   3.825   0.754
 4824HO4     MW19296   1.168   3.791   0.660
 4825HO4     OW19297   3.443   0.142   0.615
 4825HO4    HW119298   3.476   0.126   0.522
 4825HO4    HW219299   3.397   0.059   0.649
 4825HO4     MW19300   3.443   0.142   0.615
 4826HO4     OW19301   2.899   3.645   3.498
 4826HO4    HW119302   2.826   3.605   3.553
 4826HO4    HW219303   2.886   3.622   3.402
 4826HO4     MW19304   2.899   3.645   3.498
 4827HO4     OW19305   3.295   5.272   3.479
 4827HO4    HW119306   3.241   5.225   3.550
 4827HO4    HW219307   3.316   5.208   3.405
 4827HO4     MW19308   3.295   5.272   3.479
 4828HO4     OW19309   4.260   1.342   1.483
 4828HO4    HW119310   4.185   1.324   1.418
 4828HO4    HW219311   4.222   1.353   1.575
 4828HO4     MW19312   4.260   1.342   1.483
 4829HO4     OW19313   2.207   4.006   0.253
 4829HO4    HW119314   2.291   4.038   0.299
 4829HO4    HW219315   2.230   3.977   0.159
 4829HO4     MW19316   2.207   4.006   0.253
 4830HO4     OW19317   4.604   5.014   1.157
 4830HO4    HW119318   4.699   4.989   1.136
 4830HO4    HW219319   4.600   5.054   1.249
 4830HO4     MW19320   4.604   5.014   1.157
 4831HO4     OW19321   3.197   1.941   3.801
 4831HO4    HW119322   3.114   1.950   3.746
 4831HO4    HW219323   3.254   1.866   3.765
 4831HO4     MW19324   3.197   1.941   3.801
 4832HO4     OW19325   1.160   3.307   0.993
 4832HO4    HW119326   1.205   3.279   0.908
 4832HO4    HW219327   1.113   3.228   1.034
 4832HO4     MW19328   1.160   3.307   0.993
 4833HO4     OW19329   0.291   3.098   1.370
 4833HO4    HW119330   0.311   3.027   1.438
 4833HO4    HW219331   0.318   3.187   1.406
 4833HO4     MW19332   0.291   3.098   1.370
 4834HO4     OW19333   2.462   2.158   1.384
 4834HO4    HW119334   2.411   2.175   1.469
 4834HO4    HW219335   2.399   2.117   1.316
 4834HO4     MW19336   2.462   2.158   1.384
 4835HO4     OW19337   4.649   1.845   0.852
 4835HO4    HW119338   4.638   1.793   0.767
 4835HO4    HW219339   4.645   1.783   0.930
 4835HO4     MW19340   4.649   1.845   0.852
 4836HO4     OW19341   4.158   5.184   0.080
 4836HO4    HW119342   4.239   5.129   0.055
 4836HO4    HW219343   4.081   5.160   0.020
 4836HO4     MW19344   4.158   5.184   0.080
 4837HO4     OW19345   5.272   3.964   2.718
 4837HO4    HW119346   5.283   3.941   2.815
 4837HO4    HW219347   5.180   4.001   2.702
 4837HO4     MW19348   5.272   3.964   2.718
 4838HO4     OW19349   4.580   5.218   2.083
 4838HO4    HW119350   4.481   5.228   2.099
 4838HO4    HW219351   4.609   5.125   2.106
 4838HO4     MW19352   4.580   5.218   2.083
 4839HO4     OW19353   2.714   2.925   3.859
 4839HO4    HW119354   2.705   2.925   3.759
 4839HO4    HW219355   2.707   3.019   3.892
 4839HO4     MW19356   2.714   2.925   3.859
 4840HO4     OW19357   1.514   1.731   0.184
 4840HO4    HW119358   1.524   1.720   0.085
 4840HO4    HW219359   1.421   1.707   0.212
 4840HO4     MW19360   1.514   1.731   0.184
 4841HO4     OW19361   4.659   4.585   0.502
 4841HO4    HW119362   4.641   4.665   0.445
 4841HO4    HW219363   4.629   4.502   0.454
 4841HO4     MW19364   4.659   4.585   0.502
 4842HO4     OW19365   4.592   1.662   4.825
 4842HO4    HW119366   4.594   1.563   4.845
 4842HO4    HW219367   4.611   1.713   4.910
 4842HO4     MW19368   4.592   1.662   4.825
 4843HO4     OW19369   1.064   1.359   1.168
 4843HO4    HW119370   1.114   1.359   1.255
 4843HO4    HW219371   0.985   1.298   1.175
 4843HO4     MW19372   1.064   1.359   1.168
 4844HO4     OW19373   4.297   2.540   2.233
 4844HO4    HW119374   4.215   2.489   2.204
 4844HO4    HW219375   4.277   2.638   2.233
 4844HO4     MW19376   4.297   2.540   2.233
 4845HO4     OW19377   3.920   4.566   4.350
 4845HO4    HW119378   3.873   4.510   4.281
 4845HO4    HW219379   3.864   4.570   4.433
 4845HO4     MW19380   3.920   4.566   4.350
 4846HO4     OW19381   4.221   2.641   0.281
 4846HO4    HW119382   4.307   2.692   0.292
 4846HO4    HW219383   4.170   2.643   0.367
 4846HO4     MW19384   4.221   2.641   0.281
 4847HO4     OW19385   3.188   4.464   0.964
 4847HO4    HW119386   3.211   4.525   0.888
 4847HO4    HW219387   3.221   4.503   1.050
 4847HO4     MW19388   3.188   4.464   0.964
 4848HO4     OW19389   3.958   3.319   4.072
 4848HO4    HW119390   4.013   3.271   4.003
 4848HO4    HW219391   3.965   3.270   4.159
 4848HO4     MW19392   3.958   3.319   4.072
 4849HO4     OW19393   4.810   3.798   4.590
 4849HO4    HW119394   4.818   3.898   4.580
 4849HO4    HW219395   4.748   3.762   4.520
 4849HO4     MW19396   4.810   3.798   4.590
 4850HO4     OW19397   0.464   4.079   0.305
 4850HO4    HW119398   0.379   4.047   0.263
 4850HO4    HW219399   0.453   4.081   0.405
 4850HO4     MW19400   0.464   4.079   0.305
 4851HO4     OW19401   1.209   0.816   3.258
 4851HO4    HW119402   1.148   0.812   3.338
 4851HO4    HW219403   1.153   0.821   3.175
 4851HO4     MW19404   1.209   0.816   3.258
 4852HO4     OW19405   4.880   1.724   3.561
 4852HO4    HW119406   4.794   1.775   3.558
 4852HO4    HW219407   4.894   1.677   3.474
 4852HO4     MW19408   4.880   1.724   3.561
 4853HO4     OW19409   4.141   4.493   3.388
 4853HO4    HW119410   4.217   4.498   3.453
 4853HO4    HW219411   4.153   4.413   3.328
 4853HO4     MW19412   4.141   4.493   3.388
 4854HO4     OW19413   5.231   3.330   3.115
 4854HO4    HW119414   5.214   3.317   3.213
 4854HO4    HW219415   5.151   3.373   3.072
 4854HO4     MW19416   5.231   3.330   3.115
 4855HO4     OW19417   1.951   4.821   4.809
 4855HO4    HW119418   2.004   4.835   4.893
 4855HO4    HW219419   1.854   4.804   4.833
 4855HO4     MW19420   1.951   4.821   4.809
 4856HO4     OW19421   1.314   3.329   0.109
 4856HO4    HW119422   1.267   3.391   0.172
 4856HO4    HW219423   1.306   3.365   0.015
 4856HO4     MW19424   1.314   3.329   0.109
 4857HO4     OW19425   0.037   4.517   2.761
 4857HO4    HW119426  -0.020   4.449   2.714
 4857HO4    HW219427  -0.020   4.569   2.826
 4857HO4     MW19428   0.037   4.517   2.761
 4858HO4     OW19429   4.856   2.594   1.275
 4858HO4    HW119430   4.805   2.647   1.344
 4858HO4    HW219431   4.836   2.496   1.286
 4858HO4     MW19432   4.856   2.594   1.275
 4859HO4     OW19433   3.508   3.943   0.584
 4859HO4    HW119434   3.434   3.984   0.639
 4859HO4    HW219435   3.593   3.993   0.600
 4859HO4     MW19436   3.508   3.943   0.584
 4860HO4     OW19437   4.432   4.039   3.468
 4860HO4    HW119438   4.446   4.115   3.404
 4860HO4    HW219439   4.484   3.959   3.437
 4860HO4     MW19440   4.432   4.039   3.468
 4861HO4     OW19441   3.551   5.227   1.307
 4861HO4    HW119442   3.464   5.206   1.350
 4861HO4    HW219443   3.544   5.213   1.207
 4861HO4     MW19444   3.551   5.227   1.307
 4862HO4     OW19445   2.113   5.114   3.994
 4862HO4    HW119446   2.172   5.164   3.930
 4862HO4    HW219447   2.165   5.089   4.076
 4862HO4     MW19448   2.113   5.114   3.994
 4863HO4     OW19449   3.456   2.845   5.418
 4863HO4    HW119450   3.474   2.914   5.348
 4863HO4    HW219451   3.499   2.873   5.504
 4863HO4     MW19452   3.456   2.845   5.418
 4864HO4     OW19453   3.577   2.491   1.732
 4864HO4    HW119454   3.635   2.408   1.735
 4864HO4    HW219455   3.516   2.486   1.652
 4864HO4     MW19456   3.577   2.491   1.732
 4865HO4     OW19457   2.808   2.231   2.924
 4865HO4    HW119458   2.716   2.241   2.963
 4865HO4    HW219459   2.855   2.320   2.927
 4865HO4     MW19460   2.808   2.231   2.924
 4866HO4     OW19461   2.526   4.332   1.240
 4866HO4    HW119462   2.580   4.264   1.291
 4866HO4    HW219463   2.569   4.351   1.152
 4866HO4     MW19464   2.526   4.332   1.240
 4867HO4     OW19465   4.298   0.889   2.015
 4867HO4    HW119466   4.301   0.939   2.102
 4867HO4    HW219467   4.307   0.953   1.939
 4867HO4     MW19468   4.298   0.889   2.015
 4868HO4     OW19469   4.387   5.012   1.697
 4868HO4    HW119470   4.316   4.943   1.717
 4868HO4    HW219471   4.427   5.044   1.784
 4868HO4     MW19472   4.387   5.012   1.697
 4869HO4     OW19473   0.296   4.983   0.190
 4869HO4    HW119474   0.314   5.029   0.277
 4869HO4    HW219475   0.363   5.013   0.121
 4869HO4     MW19476   0.296   4.983   0.190
 4870HO4     OW19477   0.809   1.395   3.766
 4870HO4    HW119478   0.809   1.433   3.673
 4870HO4    HW219479   0.881   1.325   3.773
 4870HO4     MW19480   0.809   1.395   3.766
 4871HO4     OW19481   4.829   0.536   5.078
 4871HO4    HW119482   4.743   0.558   5.031
 4871HO4    HW219483   4.815   0.542   5.177
 4871HO4     MW19484   4.829   0.536   5.078
 4872HO4     OW19485   2.066   1.251   1.775
 4872HO4    HW119486   2.122   1.271   1.856
 4872HO4    HW219487   2.124   1.210   1.704
 4872HO4     MW19488   2.066   1.251   1.775
 4873HO4     OW19489   5.182   2.523   3.948
 4873HO4    HW119490   5.215   2.443   3.999
 4873HO4    HW219491   5.231   2.605   3.979
 4873HO4     MW19492   5.182   2.523   3.948
 4874HO4     OW19493   5.443   1.908   3.934
 4874HO4    HW119494   5.393   1.992   3.911
 4874HO4    HW219495   5.436   1.843   3.858
 4874HO4     MW19496   5.443   1.908   3.934
 4875HO4     OW19497   1.726   1.731   0.662
 4875HO4    HW119498   1.744   1.719   0.760
 4875HO4    HW219499   1.687   1.822   0.645
 4875HO4     MW19500   1.726   1.731   0.662
 4876HO4     OW19501   3.592   4.941   3.482
 4876HO4    HW119502   3.516   4.896   3.434
 4876HO4    HW219503   3.563   5.034   3.509
 4876HO4     MW19504   3.592   4.941   3.482
 4877HO4     OW19505   2.370   1.281   3.317
 4877HO4    HW119506   2.276   1.263   3.287
 4877HO4    HW219507   2.379   1.256   3.414
 4877HO4     MW19508   2.370   1.281   3.317
 4878HO4     OW19509   4.818   1.957   4.099
 4878HO4    HW119510   4.826   1.973   4.000
 4878HO4    HW219511   4.721   1.956   4.124
 4878HO4     MW19512   4.818   1.957   4.099
 4879HO4     OW19513   2.127   1.465   4.388
 4879HO4    HW119514   2.175   1.517   4.317
 4879HO4    HW219515   2.155   1.499   4.479
 4879HO4     MW19516   2.127   1.465   4.388
 4880HO4     OW19517   4.857   4.124   4.858
 4880HO4    HW119518   4.916   4.205   4.872
 4880HO4    HW219519   4.888   4.049   4.917
 4880HO4     MW19520   4.857   4.124   4.858
 4881HO4     OW19521   0.160   5.125   3.235
 4881HO4    HW119522   0.184   5.159   3.327
 4881HO4    HW219523   0.204   5.183   3.166
 4881HO4     MW19524   0.160   5.125   3.235
 4882HO4     OW19525   4.271   4.746   5.247
 4882HO4    HW119526   4.256   4.791   5.336
 4882HO4    HW219527   4.185   4.742   5.196
 4882HO4     MW19528   4.271   4.746   5.247
 4883HO4     OW19529   4.384   1.024   3.764
 4883HO4    HW119530   4.384   1.044   3.666
 4883HO4    HW219531   4.388   1.110   3.816
 4883HO4     MW19532   4.384   1.024   3.764
 4884HO4     OW19533   1.726   4.429   4.230
 4884HO4    HW119534   1.719   4.476   4.318
 4884HO4    HW219535   1.705   4.493   4.155
 4884HO4     MW19536   1.726   4.429   4.230
 4885HO4     OW19537   2.913   5.266   0.904
 4885HO4    HW119538   2.843   5.310   0.848
 4885HO4    HW219539   2.951   5.333   0.968
 4885HO4     MW19540   2.913   5.266   0.904
 4886HO4     OW19541   1.078   4.995   2.978
 4886HO4    HW119542   1.129   4.914   3.008
 4886HO4    HW219543   0.980   4.976   2.981
 4886HO4     MW19544   1.078   4.995   2.978
 4887HO4     OW19545   1.440   3.330   4.469
 4887HO4    HW119546   1.530   3.347   4.426
 4887HO4    HW219547   1.374   3.304   4.398
 4887HO4     MW19548   1.440   3.330   4.469
 4888HO4     OW19549   4.397   4.120   3.760
 4888HO4    HW119550   4.385   4.059   3.681
 4888HO4    HW219551   4.318   4.111   3.821
 4888HO4     MW19552   4.397   4.120   3.760
 4889HO4     OW19553   1.631   3.840   3.351
 4889HO4    HW119554   1.719   3.805   3.316
 4889HO4    HW219555   1.642   3.936   3.379
 4889HO4     MW19556   1.631   3.840   3.351
 4890HO4     OW19557   5.177   2.168   0.396
 4890HO4    HW119558   5.191   2.229   0.318
 4890HO4    HW219559   5.258   2.171   0.456
 4890HO4     MW19560   5.177   2.168   0.396
 4891HO4     OW19561   3.880   5.284   4.922
 4891HO4    HW119562   3.858   5.323   5.012
 4891HO4    HW219563   3.876   5.357   4.853
 4891HO4     MW19564   3.880   5.284   4.922
 4892HO4     OW19565   2.376   3.933   4.706
 4892HO4    HW119566   2.392   3.951   4.609
 4892HO4    HW219567   2.300   3.991   4.738
 4892HO4     MW19568   2.376   3.933   4.706
 4893HO4     OW19569   0.597   2.874   1.712
 4893HO4    HW119570   0.536   2.873   1.633
 4893HO4    HW219571   0.543   2.877   1.797
 4893HO4     MW19572   0.597   2.874   1.712
 4894HO4     OW19573   0.366   5.008   3.711
 4894HO4    HW119574   0.404   4.958   3.632
 4894HO4    HW219575   0.334   4.942   3.779
 4894HO4     MW19576   0.366   5.008   3.711
 4895HO4     OW19577   1.670   1.223   1.595
 4895HO4    HW119578   1.637   1.152   1.658
 4895HO4    HW219579   1.734   1.284   1.643
 4895HO4     MW19580   1.670   1.223   1.595
 4896HO4     OW19581   2.014   1.358   2.846
 4896HO4    HW119582   2.077   1.381   2.920
 4896HO4    HW219583   2.061   1.367   2.758
 4896HO4     MW19584   2.014   1.358   2.846
 4897HO4     OW19585   4.814   3.812   0.373
 4897HO4    HW119586   4.854   3.775   0.289
 4897HO4    HW219587   4.875   3.794   0.451
 4897HO4     MW19588   4.814   3.812   0.373
 4898HO4     OW19589   1.422   0.331   2.385
 4898HO4    HW119590   1.447   0.409   2.328
 4898HO4    HW219591   1.467   0.339   2.474
 4898HO4     MW19592   1.422   0.331   2.385
 4899HO4     OW19593   4.964   5.293   4.909
 4899HO4    HW119594   4.965   5.221   4.979
 4899HO4    HW219595   5.016   5.262   4.829
 4899HO4     MW19596   4.964   5.293   4.909
 4900HO4     OW19597   4.250   1.164   0.742
 4900HO4    HW119598   4.287   1.110   0.817
 4900HO4    HW219599   4.279   1.124   0.654
 4900HO4     MW19600   4.250   1.164   0.742
 4901HO4     OW19601   1.164   2.097   3.704
 4901HO4    HW119602   1.216   2.104   3.618
 4901HO4    HW219603   1.226   2.111   3.782
 4901HO4     MW19604   1.164   2.097   3.704
 4902HO4     OW19605   2.290   0.805   2.844
 4902HO4    HW119606   2.236   0.745   2.785
 4902HO4    HW219607   2.230   0.871   2.889
 4902HO4     MW19608   2.290   0.805   2.844
 4903HO4     OW19609   2.217   3.376   1.499
 4903HO4    HW119610   2.154   3.311   1.543
 4903HO4    HW219611   2.200   3.468   1.534
 4903HO4     MW19612   2.217   3.376   1.499
 4904HO4     OW19613   0.188   3.190   4.326
 4904HO4    HW119614   0.206   3.094   4.303
 4904HO4    HW219615   0.121   3.195   4.400
 4904HO4     MW19616   0.188   3.190   4.326
 4905HO4     OW19617   3.290   3.636   1.122
 4905HO4    HW119618   3.281   3.598   1.029
 4905HO4    HW219619   3.243   3.575   1.187
 4905HO4     MW19620   3.290   3.636   1.122
 4906HO4     OW19621   2.895   0.046   5.090
 4906HO4    HW119622   2.986   0.088   5.098
 4906HO4    HW219623   2.893  -0.041   5.140
 4906HO4     MW19624   2.895   0.046   5.090
 4907HO4     OW19625   1.012   2.077   5.418
 4907HO4    HW119626   1.038   2.041   5.508
 4907HO4    HW219627   0.915   2.102   5.418
 4907HO4     MW19628   1.012   2.077   5.418
 4908HO4     OW19629   4.268   1.828   2.820
 4908HO4    HW119630   4.211   1.843   2.738
 4908HO4    HW219631   4.297   1.732   2.823
 4908HO4     MW19632   4.268   1.828   2.820
 4909HO4     OW19633   5.424   0.891   4.116
 4909HO4    HW119634   5.385   0.862   4.028
 4909HO4    HW219635   5.406   0.821   4.186
 4909HO4     MW19636   5.424   0.891   4.116
 4910HO4     OW19637   1.692   4.824   0.974
 4910HO4    HW119638   1.733   4.787   0.890
 4910HO4    HW219639   1.700   4.756   1.047
 4910HO4     MW19640   1.692   4.824   0.974
 4911HO4     OW19641   3.182   1.849   2.496
 4911HO4    HW119642   3.185   1.834   2.397
 4911HO4    HW219643   3.193   1.947   2.516
 4911HO4     MW19644   3.182   1.849   2.496
 4912HO4     OW19645   0.734   5.259   3.578
 4912HO4    HW119646   0.801   5.185   3.585
 4912HO4    HW219647   0.652   5.225   3.529
 4912HO4     MW19648   0.734   5.259   3.578
 4913HO4     OW19649   0.817   2.960   5.295
 4913HO4    HW119650   0.884   2.919   5.357
 4913HO4    HW219651   0.844   2.943   5.200
 4913HO4     MW19652   0.817   2.960   5.295
 4914HO4     OW19653   3.536   3.782   4.117
 4914HO4    HW119654   3.463   3.746   4.176
 4914HO4    HW219655   3.500   3.857   4.061
 4914HO4     MW19656   3.536   3.782   4.117
 4915HO4     OW19657   2.015   2.660   2.242
 4915HO4    HW119658   2.014   2.722   2.322
 4915HO4    HW219659   2.110   2.636   2.221
 4915HO4     MW19660   2.015   2.660   2.242
 4916HO4     OW19661   1.386   0.526   0.810
 4916HO4    HW119662   1.395   0.515   0.909
 4916HO4    HW219663   1.446   0.459   0.764
 4916HO4     MW19664   1.386   0.526   0.810
 4917HO4     OW19665   5.387   4.493   0.319
 4917HO4    HW119666   5.419   4.476   0.412
 4917HO4    HW219667   5.318   4.424   0.294
 4917HO4     MW19668   5.387   4.493   0.319
 4918HO4     OW19669   3.438   0.559   5.043
 4918HO4    HW119670   3.499   0.545   4.964
 4918HO4    HW219671   3.478   0.513   5.123
 4918HO4     MW19672   3.438   0.559   5.043
 4919HO4     OW19673   2.932   3.211   4.740
 4919HO4    HW119674   2.957   3.145   4.669
 4919HO4    HW219675   2.832   3.214   4.749
 4919HO4     MW19676   2.932   3.211   4.740
 4920HO4     OW19677   0.117   0.280   1.725
 4920HO4    HW119678   0.129   0.265   1.627
 4920HO4    HW219679   0.203   0.311   1.766
 4920HO4     MW19680   0.117   0.280   1.725
 4921HO4     OW19681   1.620   4.184   0.176
 4921HO4    HW119682   1.610   4.278   0.212
 4921HO4    HW219683   1.685   4.184   0.100
 4921HO4     MW19684   1.620   4.184   0.176
 4922HO4     OW19685   3.045   4.837   3.207
 4922HO4    HW119686   3.060   4.768   3.279
 4922HO4    HW219687   3.123   4.837   3.143
 4922HO4     MW19688   3.045   4.837   3.207
 4923HO4     OW19689   2.440   5.180   0.040
 4923HO4    HW119690   2.398   5.144  -0.044
 4923HO4    HW219691   2.447   5.107   0.108
 4923HO4     MW19692   2.440   5.180   0.040
 4924HO4     OW19693   1.772   3.923   5.148
 4924HO4    HW119694   1.798   4.011   5.107
 4924HO4    HW219695   1.845   3.892   5.209
 4924HO4     MW19696   1.772   3.923   5.148
 4925HO4     OW19697   1.026   3.621   3.476
 4925HO4    HW119698   0.999   3.530   3.509
 4925HO4    HW219699   1.126   3.626   3.471
 4925HO4     MW19700   1.026   3.621   3.476
 4926HO4     OW19701   3.774   3.968   2.540
 4926HO4    HW119702   3.857   3.917   2.563
 4926HO4    HW219703   3.782   4.005   2.447
 4926HO4     MW19704   3.774   3.968   2.540
 4927HO4     OW19705   0.562   1.748   1.813
 4927HO4    HW119706   0.637   1.807   1.783
 4927HO4    HW219707   0.600   1.662   1.849
 4927HO4     MW19708   0.562   1.748   1.813
 4928HO4     OW19709   2.420   2.304   2.291
 4928HO4    HW119710   2.347   2.313   2.360
 4928HO4    HW219711   2.378   2.286   2.202
 4928HO4     MW19712   2.420   2.304   2.291
 4929HO4     OW19713   1.361   2.152   3.374
 4929HO4    HW119714   1.320   2.222   3.314
 4929HO4    HW219715   1.290   2.109   3.430
 4929HO4     MW19716   1.361   2.152   3.374
 4930HO4     OW19717   2.913   2.516   1.599
 4930HO4    HW119718   2.999   2.521   1.652
 4930HO4    HW219719   2.933   2.526   1.502
 4930HO4     MW19720   2.913   2.516   1.599
 4931HO4     OW19721   1.590   2.459   0.959
 4931HO4    HW119722   1.524   2.535   0.955
 4931HO4    HW219723   1.579   2.402   0.878
 4931HO4     MW19724   1.590   2.459   0.959
 4932HO4     OW19725   4.412   1.129   5.023
 4932HO4    HW119726   4.425   1.139   4.924
 4932HO4    HW219727   4.500   1.145   5.070
 4932HO4     MW19728   4.412   1.129   5.023
 4933HO4     OW19729   3.817   0.571   4.901
 4933HO4    HW119730   3.751   0.564   4.825
 4933HO4    HW219731   3.776   0.623   4.976
 4933HO4     MW19732   3.817   0.571   4.901
 4934HO4     OW19733   2.313   2.579   5.294
 4934HO4    HW119734   2.218   2.564   5.323
 4934HO4    HW219735   2.344   2.668   5.327
 4934HO4     MW19736   2.313   2.579   5.294
 4935HO4     OW19737   1.025   5.054   1.247
 4935HO4    HW119738   0.968   5.070   1.328
 4935HO4    HW219739   1.009   5.128   1.180
 4935HO4     MW19740   1.025   5.054   1.247
 4936HO4     OW19741   3.397   1.855   2.532
 4936HO4    HW119742   3.480   1.897   2.570
 4936HO4    HW219743   3.375   1.898   2.444
 4936HO4     MW19744   3.397   1.855   2.532
 4937HO4     OW19745   3.037   1.642   4.170
 4937HO4    HW119746   3.129   1.666   4.202
 4937HO4    HW219747   3.002   1.716   4.113
 4937HO4     MW19748   3.037   1.642   4.170
 4938HO4     OW19749   0.024   3.331   0.950
 4938HO4    HW119750   0.082   3.408   0.978
 4938HO4    HW219751   0.014   3.331   0.850
 4938HO4     MW19752   0.024   3.331   0.950
 4939HO4     OW19753   2.900   4.376   0.871
 4939HO4    HW119754   2.927   4.307   0.939
 4939HO4    HW219755   2.861   4.331   0.791
 4939HO4     MW19756   2.900   4.376   0.871
 4940HO4     OW19757   2.032   4.850   3.955
 4940HO4    HW119758   1.960   4.852   3.885
 4940HO4    HW219759   2.063   4.756   3.968
 4940HO4     MW19760   2.032   4.850   3.955
 4941HO4     OW19761   1.422   1.178   1.472
 4941HO4    HW119762   1.476   1.149   1.551
 4941HO4    HW219763   1.427   1.278   1.463
 4941HO4     MW19764   1.422   1.178   1.472
 4942HO4     OW19765   2.056   2.715   2.856
 4942HO4    HW119766   1.997   2.795   2.841
 4942HO4    HW219767   2.076   2.707   2.954
 4942HO4     MW19768   2.056   2.715   2.856
 4943HO4     OW19769   3.701   1.831   0.215
 4943HO4    HW119770   3.788   1.862   0.253
 4943HO4    HW219771   3.663   1.757   0.271
 4943HO4     MW19772   3.701   1.831   0.215
 4944HO4     OW19773   5.085   1.758   0.861
 4944HO4    HW119774   5.108   1.816   0.782
 4944HO4    HW219775   5.012   1.801   0.914
 4944HO4     MW19776   5.085   1.758   0.861
 4945HO4     OW19777   0.512   4.067   1.860
 4945HO4    HW119778   0.560   4.042   1.776
 4945HO4    HW219779   0.510   3.988   1.922
 4945HO4     MW19780   0.512   4.067   1.860
 4946HO4     OW19781   4.191   0.967   2.670
 4946HO4    HW119782   4.255   0.925   2.605
 4946HO4    HW219783   4.102   0.920   2.665
 4946HO4     MW19784   4.191   0.967   2.670
 4947HO4     OW19785   1.302   3.302   1.367
 4947HO4    HW119786   1.263   3.323   1.277
 4947HO4    HW219787   1.235   3.324   1.438
 4947HO4     MW19788   1.302   3.302   1.367
 4948HO4     OW19789   5.145   2.445   0.355
 4948HO4    HW119790   5.122   2.475   0.262
 4948HO4    HW219791   5.205   2.513   0.398
 4948HO4     MW19792   5.145   2.445   0.355
 4949HO4     OW19793   5.067   2.381   3.259
 4949HO4    HW119794   5.027   2.323   3.188
 4949HO4    HW219795   5.058   2.336   3.348
 4949HO4     MW19796   5.067   2.381   3.259
 4950HO4     OW19797   3.630   0.733   1.959
 4950HO4    HW119798   3.576   0.751   1.876
 4950HO4    HW219799   3.726   0.760   1.943
 4950HO4     MW19800   3.630   0.733   1.959
 4951HO4     OW19801   1.299   2.069   4.292
 4951HO4    HW119802   1.384   2.035   4.332
 4951HO4    HW219803   1.225   2.063   4.359
 4951HO4     MW19804   1.299   2.069   4.292
 4952HO4     OW19805   2.558   5.188   1.734
 4952HO4    HW119806   2.574   5.201   1.636
 4952HO4    HW219807   2.482   5.247   1.764
 4952HO4     MW19808   2.558   5.188   1.734
 4953HO4     OW19809   2.536   0.475   2.168
 4953HO4    HW119810   2.616   0.415   2.165
 4953HO4    HW219811   2.563   0.567   2.198
 4953HO4     MW19812   2.536   0.475   2.168
 4954HO4     OW19813   2.355   1.260   0.942
 4954HO4    HW119814   2.355   1.361   0.948
 4954HO4    HW219815   2.388   1.232   0.852
 4954HO4     MW19816   2.355   1.260   0.942
 4955HO4     OW19817   5.230   4.058   5.403
 4955HO4    HW119818   5.186   4.000   5.471
 4955HO4    HW219819   5.169   4.069   5.324
 4955HO4     MW19820   5.230   4.058   5.403
 4956HO4     OW19821   4.970   0.294   0.729
 4956HO4    HW119822   5.068   0.287   0.706
 4956HO4    HW219823   4.959   0.298   0.829
 4956HO4     MW19824   4.970   0.294   0.729
 4957HO4     OW19825   5.051   3.525   0.451
 4957HO4    HW119826   4.976   3.572   0.403
 4957HO4    HW219827   5.019   3.496   0.542
 4957HO4     MW19828   5.051   3.525   0.451
 4958HO4     OW19829   4.004   3.775   0.306
 4958HO4    HW119830   3.970   3.775   0.212
 4958HO4    HW219831   3.973   3.858   0.353
 4958HO4     MW19832   4.004   3.775   0.306
 4959HO4     OW19833   4.286   2.203   2.892
 4959HO4    HW119834   4.339   2.153   2.823
 4959HO4    HW219835   4.287   2.301   2.871
 4959HO4     MW19836   4.286   2.203   2.892
 4960HO4     OW19837   2.663   1.789   4.231
 4960HO4    HW119838   2.736   1.722   4.214
 4960HO4    HW219839   2.630   1.825   4.144
 4960HO4     MW19840   2.663   1.789   4.231
 4961HO4     OW19841   2.168   3.849   5.054
 4961HO4    HW119842   2.239   3.861   5.124
 4961HO4    HW219843   2.204   3.792   4.980
 4961HO4     MW19844   2.168   3.849   5.054
 4962HO4     OW19845   3.419   2.013   0.096
 4962HO4    HW119846   3.440   1.926   0.052
 4962HO4    HW219847   3.491   2.079   0.075
 4962HO4     MW19848   3.419   2.013   0.096
 4963HO4     OW19849   2.382   1.724   5.146
 4963HO4    HW119850   2.414   1.762   5.058
 4963HO4    HW219851   2.445   1.752   5.219
 4963HO4     MW19852   2.382   1.724   5.146
 4964HO4     OW19853   3.765   4.130   1.355
 4964HO4    HW119854   3.852   4.170   1.384
 4964HO4    HW219855   3.782   4.041   1.311
 4964HO4     MW19856   3.765   4.130   1.355
 4965HO4     OW19857   2.712   2.769   2.283
 4965HO4    HW119858   2.676   2.760   2.377
 4965HO4    HW219859   2.659   2.839   2.234
 4965HO4     MW19860   2.712   2.769   2.283
 4966HO4     OW19861   3.295   4.833   1.507
 4966HO4    HW119862   3.199   4.861   1.491
 4966HO4    HW219863   3.326   4.871   1.595
 4966HO4     MW19864   3.295   4.833   1.507
 4967HO4     OW19865   1.421   5.279   2.492
 4967HO4    HW119866   1.408   5.334   2.409
 4967HO4    HW219867   1.395   5.333   2.573
 4967HO4     MW19868   1.421   5.279   2.492
 4968HO4     OW19869   1.780   1.136   5.105
 4968HO4    HW119870   1.809   1.052   5.057
 4968HO4    HW219871   1.790   1.122   5.204
 4968HO4     MW19872   1.780   1.136   5.105
 4969HO4     OW19873   2.694   3.559   2.060
 4969HO4    HW119874   2.682   3.631   1.992
 4969HO4    HW219875   2.789   3.527   2.059
 4969HO4     MW19876   2.694   3.559   2.060
 4970HO4     OW19877   3.635   4.828   1.121
 4970HO4    HW119878   3.560   4.873   1.170
 4970HO4    HW219879   3.625   4.846   1.022
 4970HO4     MW19880   3.635   4.828   1.121
 4971HO4     OW19881   2.620   4.779   4.220
 4971HO4    HW119882   2.584   4.695   4.263
 4971HO4    HW219883   2.572   4.795   4.134
 4971HO4     MW19884   2.620   4.779   4.220
 4972HO4     OW19885   2.159   2.310   1.179
 4972HO4    HW119886   2.134   2.371   1.103
 4972HO4    HW219887   2.170   2.365   1.263
 4972HO4     MW19888   2.159   2.310   1.179
 4973HO4     OW19889   4.805   2.303   4.945
 4973HO4    HW119890   4.746   2.250   4.883
 4973HO4    HW219891   4.813   2.255   5.033
 4973HO4     MW19892   4.805   2.303   4.945
 4974HO4     OW19893   5.178   0.051   1.332
 4974HO4    HW119894   5.219   0.042   1.423
 4974HO4    HW219895   5.078   0.054   1.341
 4974HO4     MW19896   5.178   0.051   1.332
 4975HO4     OW19897   5.408   5.333   1.063
 4975HO4    HW119898   5.368   5.372   1.147
 4975HO4    HW219899   5.363   5.372   0.983
 4975HO4     MW19900   5.408   5.333   1.063
 4976HO4     OW19901   4.644   2.689   4.832
 4976HO4    HW119902   4.614   2.605   4.877
 4976HO4    HW219903   4.725   2.726   4.878
 4976HO4     MW19904   4.644   2.689   4.832
 4977HO4     OW19905   0.905   2.108   1.481
 4977HO4    HW119906   0.965   2.073   1.409
 4977HO4    HW219907   0.958   2.123   1.565
 4977HO4     MW19908   0.905   2.108   1.481
 4978HO4     OW19909   0.142   0.183   0.780
 4978HO4    HW119910   0.183   0.100   0.741
 4978HO4    HW219911   0.044   0.187   0.756
 4978HO4     MW19912   0.142   0.183   0.780
 4979HO4     OW19913   2.407   2.077   1.701
 4979HO4    HW119914   2.388   2.030   1.788
 4979HO4    HW219915   2.506   2.094   1.694
 4979HO4     MW19916   2.407   2.077   1.701
 4980HO4     OW19917   0.721   3.085   4.619
 4980HO4    HW119918   0.770   3.009   4.663
 4980HO4    HW219919   0.783   3.136   4.559
 4980HO4     MW19920   0.721   3.085   4.619
 4981HO4     OW19921   0.058   2.066   2.569
 4981HO4    HW119922   0.048   2.051   2.668
 4981HO4    HW219923  -0.033   2.062   2.526
 4981HO4     MW19924   0.058   2.066   2.569
 4982HO4     OW19925   3.513   2.219   4.383
 4982HO4    HW119926   3.488   2.192   4.289
 4982HO4    HW219927   3.449   2.289   4.415
 4982HO4     MW19928   3.513   2.219   4.383
 4983HO4     OW19929   1.773   2.056   2.048
 4983HO4    HW119930   1.739   1.975   1.999
 4983HO4    HW219931   1.761   2.042   2.146
 4983HO4     MW19932   1.773   2.056   2.048
 4984HO4     OW19933   2.212   0.844   0.381
 4984HO4    HW119934   2.216   0.746   0.359
 4984HO4    HW219935   2.284   0.892   0.330
 4984HO4     MW19936   2.212   0.844   0.381
 4985HO4     OW19937   4.909   0.798   1.189
 4985HO4    HW119938   4.847   0.869   1.223
 4985HO4    HW219939   4.988   0.790   1.251
 4985HO4     MW19940   4.909   0.798   1.189
 4986HO4     OW19941   2.650   0.309   2.443
 4986HO4    HW119942   2.735   0.262   2.419
 4986HO4    HW219943   2.612   0.268   2.526
 4986HO4     MW19944   2.650   0.309   2.443
 4987HO4     OW19945   3.520   2.733   1.583
 4987HO4    HW119946   3.593   2.668   1.557
 4987HO4    HW219947   3.545   2.778   1.669
 4987HO4     MW19948   3.520   2.733   1.583
 4988HO4     OW19949   2.718   1.487   5.108
 4988HO4    HW119950   2.722   1.533   5.198
 4988HO4    HW219951   2.720   1.556   5.035
 4988HO4     MW19952   2.718   1.487   5.108
 4989HO4     OW19953   1.069   3.924   0.469
 4989HO4    HW119954   1.101   3.865   0.394
 4989HO4    HW219955   1.032   3.866   0.543
 4989HO4     MW19956   1.069   3.924   0.469
 4990HO4     OW19957   0.515   0.229   5.139
 4990HO4    HW119958   0.564   0.186   5.216
 4990HO4    HW219959   0.559   0.202   5.053
 4990HO4     MW19960   0.515   0.229   5.139
 4991HO4     OW19961   5.293   0.376   0.788
 4991HO4    HW119962   5.327   0.349   0.697
 4991HO4    HW219963   5.361   0.436   0.833
 4991HO4     MW19964   5.293   0.376   0.788
 4992HO4     OW19965   2.903   1.049   0.790
 4992HO4    HW119966   2.858   0.962   0.814
 4992HO4    HW219967   2.945   1.041   0.700
 4992HO4     MW19968   2.903   1.049   0.790
 4993HO4     OW19969   3.742   3.322   4.203
 4993HO4    HW119970   3.783   3.402   4.158
 4993HO4    HW219971   3.765   3.239   4.151
 4993HO4     MW19972   3.742   3.322   4.203
 4994HO4     OW19973   3.740   1.504   3.328
 4994HO4    HW119974   3.827   1.488   3.280
 4994HO4    HW219975   3.748   1.585   3.386
 4994HO4     MW19976   3.740   1.504   3.328
 4995HO4     OW19977   0.745   0.045   5.293
 4995HO4    HW119978   0.740   0.073   5.197
 4995HO4    HW219979   0.834   0.073   5.331
 4995HO4     MW19980   0.745   0.045   5.293
 4996HO4     OW19981   4.235   3.541   1.566
 4996HO4    HW119982   4.172   3.467   1.541
 4996HO4    HW219983   4.244   3.546   1.666
 4996HO4     MW19984   4.235   3.541   1.566
 4997HO4     OW19985   4.436   1.270   4.188
 4997HO4    HW119986   4.489   1.197   4.232
 4997HO4    HW219987   4.379   1.230   4.115
 4997HO4     MW19988   4.436   1.270   4.188
 4998HO4     OW19989   4.992   4.771   1.916
 4998HO4    HW119990   4.902   4.774   1.870
 4998HO4    HW219991   4.979   4.779   2.015
 4998HO4     MW19992   4.992   4.771   1.916
 4999HO4     OW19993   0.478   0.720   4.665
 4999HO4    HW119994   0.503   0.804   4.616
 4999HO4    HW219995   0.497   0.732   4.763
 4999HO4     MW19996   0.478   0.720   4.665
 5000HO4     OW19997   0.326   5.097   2.552
 5000HO4    HW119998   0.392   5.039   2.504
 5000HO4    HW219999   0.359   5.193   2.551
 5000HO4     MW20000   0.326   5.097   2.552
 5001HO4     OW20001   3.311   0.101   3.044
 5001HO4    HW120002   3.380   0.069   3.109
 5001HO4    HW220003   3.340   0.078   2.951
 5001HO4     MW20004   3.311   0.101   3.044
 5002HO4     OW20005   3.154   1.347   4.904
 5002HO4    HW120006   3.175   1.329   4.807
 5002HO4    HW220007   3.208   1.425   4.936
 5002HO4     MW20008   3.154   1.347   4.904
 5003HO4     OW20009   4.598   1.784   3.583
 5003HO4    HW120010   4.640   1.740   3.503
 5003HO4    HW220011   4.600   1.720   3.661
 5003HO4     MW20012   4.598   1.784   3.583
 5004HO4     OW20013   1.004   0.289   3.715
 5004HO4    HW120014   1.049   0.313   3.628
 5004HO4    HW220015   1.072   0.249   3.777
 5004HO4     MW20016   1.004   0.289   3.715
 5005HO4     OW20017   0.963   0.505   3.613
 5005HO4    HW120018   0.939   0.592   3.657
 5005HO4    HW220019   0.895   0.435   3.639
 5005HO4     MW20020   0.963   0.505   3.613
 5006HO4     OW20021   4.120   4.861   3.591
 5006HO4    HW120022   4.211   4.819   3.591
 5006HO4    HW220023   4.063   4.818   3.521
 5006HO4     MW20024   4.120   4.861   3.591
 5007HO4     OW20025   1.218   2.439   1.538
 5007HO4    HW120026   1.239   2.525   1.491
 5007HO4    HW220027   1.161   2.382   1.479
 5007HO4     MW20028   1.218   2.439   1.538
 5008HO4     OW20029   1.038   4.522   2.396
 5008HO4    HW120030   1.013   4.463   2.473
 5008HO4    HW220031   0.959   4.533   2.336
 5008HO4     MW20032   1.038   4.522   2.396
 5009HO4     OW20033   4.719   0.243   0.773
 5009HO4    HW120034   4.785   0.255   0.698
 5009HO4    HW220035   4.739   0.310   0.845
 5009HO4     MW20036   4.719   0.243   0.773
 5010HO4     OW20037   4.343   4.251   2.342
 5010HO4    HW120038   4.420   4.315   2.351
 5010HO4    HW220039   4.357   4.173   2.404
 5010HO4     MW20040   4.343   4.251   2.342
 5011HO4     OW20041   4.555   0.714   3.884
 5011HO4    HW120042   4.527   0.716   3.787
 5011HO4    HW220043   4.494   0.772   3.938
 5011HO4     MW20044   4.555   0.714   3.884
 5012HO4     OW20045   0.605   3.116   3.886
 5012HO4    HW120046   0.522   3.095   3.833
 5012HO4    HW220047   0.612   3.054   3.965
 5012HO4     MW20048   0.605   3.116   3.886
 5013HO4     OW20049   2.691   4.268   0.064
 5013HO4    HW120050   2.608   4.293   0.115
 5013HO4    HW220051   2.768   4.260   0.128
 5013HO4     MW20052   2.691   4.268   0.064
 5014HO4     OW20053   0.223   5.091   1.961
 5014HO4    HW120054   0.171   5.176   1.974
 5014HO4    HW220055   0.256   5.085   1.866
 5014HO4     MW20056   0.223   5.091   1.961
 5015HO4     OW20057   4.730   2.377   0.719
 5015HO4    HW120058   4.650   2.418   0.676
 5015HO4    HW220059   4.752   2.427   0.804
 5015HO4     MW20060   4.730   2.377   0.719
 5016HO4     OW20061   4.669   1.980   2.691
 5016HO4    HW120062   4.728   1.980   2.610
 5016HO4    HW220063   4.723   2.007   2.771
 5016HO4     MW20064   4.669   1.980   2.691
 5017HO4     OW20065   5.176   3.459   1.540
 5017HO4    HW120066   5.077   3.473   1.539
 5017HO4    HW220067   5.207   3.441   1.634
 5017HO4     MW20068   5.176   3.459   1.540
 5018HO4     OW20069   4.540   3.501   0.203
 5018HO4    HW120070   4.636   3.528   0.213
 5018HO4    HW220071   4.514   3.507   0.106
 5018HO4     MW20072   4.540   3.501   0.203
 5019HO4     OW20073   3.216   2.248   4.040
 5019HO4    HW120074   3.244   2.313   4.111
 5019HO4    HW220075   3.278   2.255   3.961
 5019HO4     MW20076   3.216   2.248   4.040
 5020HO4     OW20077   3.991   4.126   3.631
 5020HO4    HW120078   4.017   4.215   3.670
 5020HO4    HW220079   4.070   4.085   3.585
 5020HO4     MW20080   3.991   4.126   3.631
 5021HO4     OW20081   4.749   1.298   2.414
 5021HO4    HW120082   4.653   1.311   2.441
 5021HO4    HW220083   4.808   1.307   2.495
 5021HO4     MW20084   4.749   1.298   2.414
 5022HO4     OW20085   2.295   0.757   1.820
 5022HO4    HW120086   2.378   0.715   1.858
 5022HO4    HW220087   2.214   0.709   1.855
 5022HO4     MW20088   2.295   0.757   1.820
 5023HO4     OW20089   4.291   2.646   2.631
 5023HO4    HW120090   4.215   2.600   2.679
 5023HO4    HW220091   4.254   2.700   2.555
 5023HO4     MW20092   4.291   2.646   2.631
 5024HO4     OW20093   1.933   1.318   3.491
 5024HO4    HW120094   1.867   1.331   3.417
 5024HO4    HW220095   1.934   1.401   3.549
 5024HO4     MW20096   1.933   1.318   3.491
 5025HO4     OW20097   2.542   4.723   2.110
 5025HO4    HW120098   2.599   4.733   2.029
 5025HO4    HW220099   2.599   4.733   2.193
 5025HO4     MW20100   2.542   4.723   2.110
 5026HO4     OW20101   4.783   3.371   0.184
 5026HO4    HW120102   4.749   3.319   0.105
 5026HO4    HW220103   4.752   3.328   0.269
 5026HO4     MW20104   4.783   3.371   0.184
 5027HO4     OW20105   0.531   5.476   2.448
 5027HO4    HW120106   0.600   5.403   2.441
 5027HO4    HW220107   0.477   5.479   2.364
 5027HO4     MW20108   0.531   5.476   2.448
 5028HO4     OW20109   0.430   2.193   3.033
 5028HO4    HW120110   0.418   2.198   3.132
 5028HO4    HW220111   0.509   2.250   3.006
 5028HO4     MW20112   0.430   2.193   3.033
 5029HO4     OW20113   5.366   1.487   1.461
 5029HO4    HW120114   5.267   1.490   1.475
 5029HO4    HW220115   5.398   1.392   1.460
 5029HO4     MW20116   5.366   1.487   1.461
 5030HO4     OW20117   4.393   4.778   1.427
 5030HO4    HW120118   4.324   4.720   1.380
 5030HO4    HW220119   4.440   4.723   1.496
 5030HO4     MW20120   4.393   4.778   1.427
 5031HO4     OW20121   1.084   3.221   4.602
 5031HO4    HW120122   1.014   3.222   4.531
 5031HO4    HW220123   1.054   3.278   4.680
 5031HO4     MW20124   1.084   3.221   4.602
 5032HO4     OW20125   1.242   5.200   3.203
 5032HO4    HW120126   1.329   5.150   3.210
 5032HO4    HW220127   1.261   5.299   3.200
 5032HO4     MW20128   1.242   5.200   3.203
 5033HO4     OW20129   1.888   0.973   0.258
 5033HO4    HW120130   1.864   1.044   0.325
 5033HO4    HW220131   1.906   0.887   0.306
 5033HO4     MW20132   1.888   0.973   0.258
 5034HO4     OW20133   4.787   1.026   1.630
 5034HO4    HW120134   4.697   1.034   1.587
 5034HO4    HW220135   4.779   0.971   1.714
 5034HO4     MW20136   4.787   1.026   1.630
 5035HO4     OW20137   1.442   4.037   1.805
 5035HO4    HW120138   1.376   4.112   1.813
 5035HO4    HW220139   1.535   4.074   1.805
 5035HO4     MW20140   1.442   4.037   1.805
 5036HO4     OW20141   3.970   3.770   3.834
 5036HO4    HW120142   4.028   3.778   3.752
 5036HO4    HW220143   3.951   3.673   3.852
 5036HO4     MW20144   3.970   3.770   3.834
 5037HO4     OW20145   3.030   0.819   1.527
 5037HO4    HW120146   3.026   0.767   1.441
 5037HO4    HW220147   3.030   0.755   1.605
 5037HO4     MW20148   3.030   0.819   1.527
 5038HO4     OW20149   1.666   5.197   4.074
 5038HO4    HW120150   1.678   5.171   4.170
 5038HO4    HW220151   1.682   5.117   4.015
 5038HO4     MW20152   1.666   5.197   4.074
 5039HO4     OW20153   5.124   0.307   3.938
 5039HO4    HW120154   5.094   0.401   3.955
 5039HO4    HW220155   5.044   0.246   3.938
 5039HO4     MW20156   5.124   0.307   3.938
 5040HO4     OW20157   0.357   1.782   0.020
 5040HO4    HW120158   0.281   1.742   0.072
 5040HO4    HW220159   0.374   1.728  -0.063
 5040HO4     MW20160   0.357   1.782   0.020
 5041HO4     OW20161   2.279   2.927   4.750
 5041HO4    HW120162   2.333   2.955   4.830
 5041HO4    HW220163   2.335   2.870   4.690
 5041HO4     MW20164   2.279   2.927   4.750
 5042HO4     OW20165   3.206   4.289   4.444
 5042HO4    HW120166   3.203   4.193   4.476
 5042HO4    HW220167   3.127   4.306   4.385
 5042HO4     MW20168   3.206   4.289   4.444
 5043HO4     OW20169   3.785   1.953   0.724
 5043HO4    HW120170   3.750   2.022   0.789
 5043HO4    HW220171   3.765   1.983   0.630
 5043HO4     MW20172   3.785   1.953   0.724
 5044HO4     OW20173   5.488   1.677   0.851
 5044HO4    HW120174   5.393   1.645   0.842
 5044HO4    HW220175   5.542   1.648   0.772
 5044HO4     MW20176   5.488   1.677   0.851
 5045HO4     OW20177   4.917   1.188   3.741
 5045HO4    HW120178   5.010   1.206   3.708
 5045HO4    HW220179   4.894   1.091   3.728
 5045HO4     MW20180   4.917   1.188   3.741
 5046HO4     OW20181   5.329   5.458   2.090
 5046HO4    HW120182   5.309   5.428   1.997
 5046HO4    HW220183   5.275   5.405   2.155
 5046HO4     MW20184   5.329   5.458   2.090
 5047HO4     OW20185   4.349   3.297   1.798
 5047HO4    HW120186   4.377   3.206   1.767
 5047HO4    HW220187   4.400   3.367   1.747
 5047HO4     MW20188   4.349   3.297   1.798
 5048HO4     OW20189   2.120   4.039   2.084
 5048HO4    HW120190   2.093   3.965   2.021
 5048HO4    HW220191   2.143   4.121   2.030
 5048HO4     MW20192   2.120   4.039   2.084
 5049HO4     OW20193   1.453   4.878   2.752
 5049HO4    HW120194   1.494   4.937   2.822
 5049HO4    HW220195   1.508   4.795   2.742
 5049HO4     MW20196   1.453   4.878   2.752
 5050HO4     OW20197   0.426   2.537   2.461
 5050HO4    HW120198   0.486   2.459   2.484
 5050HO4    HW220199   0.353   2.505   2.399
 5050HO4     MW20200   0.426   2.537   2.461
 5051HO4     OW20201   3.542   0.303   1.590
 5051HO4    HW120202   3.524   0.366   1.513
 5051HO4    HW220203   3.493   0.335   1.671
 5051HO4     MW20204   3.542   0.303   1.590
 5052HO4     OW20205   0.544   0.567   0.519
 5052HO4    HW120206   0.595   0.616   0.591
 5052HO4    HW220207   0.597   0.568   0.434
 5052HO4     MW20208   0.544   0.567   0.519
 5053HO4     OW20209   3.619   2.734   2.673
 5053HO4    HW120210   3.528   2.692   2.677
 5053HO4    HW220211   3.638   2.763   2.579
 5053HO4     MW20212   3.619   2.734   2.673
 5054HO4     OW20213   1.941   4.268   3.544
 5054HO4    HW120214   1.923   4.356   3.499
 5054HO4    HW220215   1.943   4.196   3.475
 5054HO4     MW20216   1.941   4.268   3.544
 5055HO4     OW20217   1.083   2.895   4.892
 5055HO4    HW120218   1.079   2.973   4.829
 5055HO4    HW220219   1.044   2.814   4.847
 5055HO4     MW20220   1.083   2.895   4.892
 5056HO4     OW20221   0.582   3.449   2.780
 5056HO4    HW120222   0.525   3.375   2.816
 5056HO4    HW220223   0.619   3.421   2.691
 5056HO4     MW20224   0.582   3.449   2.780
 5057HO4     OW20225   2.238   1.938   5.317
 5057HO4    HW120226   2.319   1.878   5.319
 5057HO4    HW220227   2.267   2.032   5.296
 5057HO4     MW20228   2.238   1.938   5.317
 5058HO4     OW20229   1.588   2.879   2.405
 5058HO4    HW120230   1.624   2.911   2.316
 5058HO4    HW220231   1.593   2.954   2.472
 5058HO4     MW20232   1.588   2.879   2.405
 5059HO4     OW20233   1.868   1.263   2.318
 5059HO4    HW120234   1.823   1.274   2.229
 5059HO4    HW220235   1.799   1.242   2.388
 5059HO4     MW20236   1.868   1.263   2.318
 5060HO4     OW20237   2.007   2.826   1.837
 5060HO4    HW120238   2.025   2.907   1.893
 5060HO4    HW220239   2.050   2.838   1.747
 5060HO4     MW20240   2.007   2.826   1.837
 5061HO4     OW20241   4.787   2.045   4.996
 5061HO4    HW120242   4.839   2.093   5.067
 5061HO4    HW220243   4.814   2.080   4.906
 5061HO4     MW20244   4.787   2.045   4.996
 5062HO4     OW20245   1.471   5.167   4.724
 5062HO4    HW120246   1.502   5.223   4.801
 5062HO4    HW220247   1.436   5.226   4.651
 5062HO4     MW20248   1.471   5.167   4.724
 5063HO4     OW20249   5.306   0.718   4.473
 5063HO4    HW120250   5.379   0.676   4.528
 5063HO4    HW220251   5.224   0.730   4.529
 5063HO4     MW20252   5.306   0.718   4.473
 5064HO4     OW20253   3.636   5.254   2.685
 5064HO4    HW120254   3.615   5.238   2.588
 5064HO4    HW220255   3.576   5.325   2.721
 5064HO4     MW20256   3.636   5.254   2.685
 5065HO4     OW20257   4.088   2.226   2.014
 5065HO4    HW120258   4.123   2.152   1.956
 5065HO4    HW220259   4.163   2.262   2.071
 5065HO4     MW20260   4.088   2.226   2.014
 5066HO4     OW20261   1.274   0.159   3.192
 5066HO4    HW120262   1.223   0.197   3.114
 5066HO4    HW220263   1.243   0.203   3.277
 5066HO4     MW20264   1.274   0.159   3.192
 5067HO4     OW20265   2.787   2.840   0.233
 5067HO4    HW120266   2.736   2.783   0.168
 5067HO4    HW220267   2.737   2.843   0.320
 5067HO4     MW20268   2.787   2.840   0.233
 5068HO4     OW20269   3.542   3.591   1.888
 5068HO4    HW120270   3.569   3.534   1.965
 5068HO4    HW220271   3.594   3.564   1.806
 5068HO4     MW20272   3.542   3.591   1.888
 5069HO4     OW20273   1.888   4.199   1.993
 5069HO4    HW120274   1.836   4.279   1.964
 5069HO4    HW220275   1.958   4.226   2.059
 5069HO4     MW20276   1.888   4.199   1.993
 5070HO4     OW20277   2.442   4.033   0.573
 5070HO4    HW120278   2.460   4.083   0.488
 5070HO4    HW220279   2.490   4.077   0.649
 5070HO4     MW20280   2.442   4.033   0.573
 5071HO4     OW20281   4.638   2.862   2.729
 5071HO4    HW120282   4.696   2.871   2.647
 5071HO4    HW220283   4.631   2.764   2.753
 5071HO4     MW20284   4.638   2.862   2.729
 5072HO4     OW20285   4.675   3.515   3.916
 5072HO4    HW120286   4.659   3.607   3.952
 5072HO4    HW220287   4.702   3.454   3.991
 5072HO4     MW20288   4.675   3.515   3.916
 5073HO4     OW20289   3.514   3.840   1.006
 5073HO4    HW120290   3.536   3.756   0.956
 5073HO4    HW220291   3.477   3.817   1.096
 5073HO4     MW20292   3.514   3.840   1.006
 5074HO4     OW20293   4.704   1.263   5.025
 5074HO4    HW120294   4.763   1.267   4.944
 5074HO4    HW220295   4.758   1.284   5.107
 5074HO4     MW20296   4.704   1.263   5.025
 5075HO4     OW20297   0.572   3.842   5.177
 5075HO4    HW120298   0.546   3.785   5.255
 5075HO4    HW220299   0.644   3.797   5.125
 5075HO4     MW20300   0.572   3.842   5.177
 5076HO4     OW20301   1.634   2.741   0.461
 5076HO4    HW120302   1.575   2.721   0.540
 5076HO4    HW220303   1.580   2.783   0.388
 5076HO4     MW20304   1.634   2.741   0.461
 5077HO4     OW20305   1.308   0.575   4.193
 5077HO4    HW120306   1.270   0.645   4.132
 5077HO4    HW220307   1.386   0.614   4.243
 5077HO4     MW20308   1.308   0.575   4.193
 5078HO4     OW20309   3.462   4.746   0.980
 5078HO4    HW120310   3.484   4.664   0.928
 5078HO4    HW220311   3.369   4.739   1.017
 5078HO4     MW20312   3.462   4.746   0.980
 5079HO4     OW20313   2.641   3.017   2.163
 5079HO4    HW120314   2.727   2.986   2.204
 5079HO4    HW220315   2.563   2.978   2.213
 5079HO4     MW20316   2.641   3.017   2.163
 5080HO4     OW20317   0.603   0.586   3.560
 5080HO4    HW120318   0.600   0.648   3.639
 5080HO4    HW220319   0.653   0.630   3.484
 5080HO4     MW20320   0.603   0.586   3.560
 5081HO4     OW20321   3.239   4.603   3.497
 5081HO4    HW120322   3.209   4.559   3.582
 5081HO4    HW220323   3.227   4.538   3.421
 5081HO4     MW20324   3.239   4.603   3.497
 5082HO4     OW20325   4.806   2.692   0.643
 5082HO4    HW120326   4.797   2.789   0.618
 5082HO4    HW220327   4.804   2.682   0.743
 5082HO4     MW20328   4.806   2.692   0.643
 5083HO4     OW20329   1.666   3.440   3.821
 5083HO4    HW120330   1.619   3.421   3.908
 5083HO4    HW220331   1.606   3.417   3.744
 5083HO4     MW20332   1.666   3.440   3.821
 5084HO4     OW20333   5.089   4.575   3.685
 5084HO4    HW120334   5.081   4.620   3.774
 5084HO4    HW220335   5.122   4.641   3.617
 5084HO4     MW20336   5.089   4.575   3.685
 5085HO4     OW20337   1.002   1.280   5.415
 5085HO4    HW120338   1.006   1.246   5.510
 5085HO4    HW220339   1.076   1.238   5.362
 5085HO4     MW20340   1.002   1.280   5.415
 5086HO4     OW20341   3.577   5.375   4.824
 5086HO4    HW120342   3.502   5.310   4.810
 5086HO4    HW220343   3.631   5.382   4.739
 5086HO4     MW20344   3.577   5.375   4.824
 5087HO4     OW20345   2.155   2.893   0.780
 5087HO4    HW120346   2.159   2.798   0.746
 5087HO4    HW220347   2.170   2.893   0.879
 5087HO4     MW20348   2.155   2.893   0.780
 5088HO4     OW20349   1.144   0.621   0.690
 5088HO4    HW120350   1.205   0.584   0.761
 5088HO4    HW220351   1.158   0.571   0.605
 5088HO4     MW20352   1.144   0.621   0.690
 5089HO4     OW20353   4.852   0.489   0.456
 5089HO4    HW120354   4.847   0.399   0.500
 5089HO4    HW220355   4.931   0.540   0.492
 5089HO4     MW20356   4.852   0.489   0.456
 5090HO4     OW20357   5.007   3.895   5.470
 5090HO4    HW120358   5.039   3.801   5.453
 5090HO4    HW220359   4.990   3.941   5.383
 5090HO4     MW20360   5.007   3.895   5.470
 5091HO4     OW20361   3.864   1.029   4.578
 5091HO4    HW120362   3.908   1.012   4.490
 5091HO4    HW220363   3.919   0.990   4.652
 5091HO4     MW20364   3.864   1.029   4.578
 5092HO4     OW20365   0.267   0.382   3.994
 5092HO4    HW120366   0.191   0.323   3.965
 5092HO4    HW220367   0.231   0.462   4.043
 5092HO4     MW20368   0.267   0.382   3.994
 5093HO4     OW20369   3.711   0.435   3.524
 5093HO4    HW120370   3.711   0.343   3.482
 5093HO4    HW220371   3.796   0.483   3.499
 5093HO4     MW20372   3.711   0.435   3.524
 5094HO4     OW20373   4.197   2.887   0.123
 5094HO4    HW120374   4.156   2.851   0.039
 5094HO4    HW220375   4.140   2.862   0.202
 5094HO4     MW20376   4.197   2.887   0.123
 5095HO4     OW20377   0.735   2.074   5.025
 5095HO4    HW120378   0.739   2.131   5.108
 5095HO4    HW220379   0.743   2.132   4.944
 5095HO4     MW20380   0.735   2.074   5.025
 5096HO4     OW20381   0.284   1.271   4.854
 5096HO4    HW120382   0.359   1.270   4.786
 5096HO4    HW220383   0.228   1.189   4.842
 5096HO4     MW20384   0.284   1.271   4.854
 5097HO4     OW20385   3.237   5.327   4.808
 5097HO4    HW120386   3.231   5.259   4.735
 5097HO4    HW220387   3.147   5.371   4.820
 5097HO4     MW20388   3.237   5.327   4.808
 5098HO4     OW20389   1.252   3.745   1.229
 5098HO4    HW120390   1.291   3.767   1.318
 5098HO4    HW220391   1.321   3.760   1.157
 5098HO4     MW20392   1.252   3.745   1.229
 5099HO4     OW20393   3.657   3.505   2.866
 5099HO4    HW120394   3.744   3.516   2.817
 5099HO4    HW220395   3.581   3.530   2.804
 5099HO4     MW20396   3.657   3.505   2.866
 5100HO4     OW20397   3.916   4.454   1.529
 5100HO4    HW120398   4.010   4.488   1.541
 5100HO4    HW220399   3.889   4.402   1.611
 5100HO4     MW20400   3.916   4.454   1.529
 5101HO4     OW20401   0.686   4.787   2.363
 5101HO4    HW120402   0.635   4.814   2.281
 5101HO4    HW220403   0.636   4.815   2.445
 5101HO4     MW20404   0.686   4.787   2.363
 5102HO4     OW20405   1.078   3.154   1.912
 5102HO4    HW120406   1.100   3.139   1.815
 5102HO4    HW220407   1.012   3.084   1.942
 5102HO4     MW20408   1.078   3.154   1.912
 5103HO4     OW20409   4.586   1.066   2.895
 5103HO4    HW120410   4.534   1.115   2.824
 5103HO4    HW220411   4.538   1.074   2.983
 5103HO4     MW20412   4.586   1.066   2.895
 5104HO4     OW20413   2.525   1.532   4.630
 5104HO4    HW120414   2.490   1.480   4.551
 5104HO4    HW220415   2.546   1.468   4.705
 5104HO4     MW20416   2.525   1.532   4.630
 5105HO4     OW20417   1.865   2.057   0.327
 5105HO4    HW120418   1.821   2.098   0.408
 5105HO4    HW220419   1.957   2.093   0.317
 5105HO4     MW20420   1.865   2.057   0.327
 5106HO4     OW20421   5.347   2.313   1.485
 5106HO4    HW120422   5.400   2.265   1.556
 5106HO4    HW220423   5.365   2.271   1.396
 5106HO4     MW20424   5.347   2.313   1.485
 5107HO4     OW20425   5.355   5.410   2.686
 5107HO4    HW120426   5.341   5.337   2.754
 5107HO4    HW220427   5.431   5.385   2.626
 5107HO4     MW20428   5.355   5.410   2.686
 5108HO4     OW20429   0.517   0.675   1.659
 5108HO4    HW120430   0.609   0.650   1.627
 5108HO4    HW220431   0.504   0.640   1.753
 5108HO4     MW20432   0.517   0.675   1.659
 5109HO4     OW20433   1.479   4.409   0.312
 5109HO4    HW120434   1.540   4.377   0.384
 5109HO4    HW220435   1.455   4.505   0.329
 5109HO4     MW20436   1.479   4.409   0.312
 5110HO4     OW20437   4.879   0.300   2.819
 5110HO4    HW120438   4.900   0.379   2.761
 5110HO4    HW220439   4.963   0.249   2.839
 5110HO4     MW20440   4.879   0.300   2.819
 5111HO4     OW20441   3.974   0.483   0.589
 5111HO4    HW120442   3.953   0.540   0.669
 5111HO4    HW220443   4.074   0.475   0.579
 5111HO4     MW20444   3.974   0.483   0.589
 5112HO4     OW20445   5.415   2.448   0.395
 5112HO4    HW120446   5.382   2.391   0.319
 5112HO4    HW220447   5.377   2.414   0.481
 5112HO4     MW20448   5.415   2.448   0.395
 5113HO4     OW20449   2.244   1.309   0.646
 5113HO4    HW120450   2.192   1.235   0.602
 5113HO4    HW220451   2.302   1.271   0.718
 5113HO4     MW20452   2.244   1.309   0.646
 5114HO4     OW20453   4.017   0.804   5.295
 5114HO4    HW120454   4.108   0.769   5.276
 5114HO4    HW220455   3.948   0.745   5.254
 5114HO4     MW20456   4.017   0.804   5.295
 5115HO4     OW20457   2.607   1.834   3.524
 5115HO4    HW120458   2.556   1.915   3.554
 5115HO4    HW220459   2.700   1.860   3.497
 5115HO4     MW20460   2.607   1.834   3.524
 5116HO4     OW20461   3.603   3.621   0.112
 5116HO4    HW120462   3.516   3.621   0.162
 5116HO4    HW220463   3.616   3.711   0.068
 5116HO4     MW20464   3.603   3.621   0.112
 5117HO4     OW20465   0.521   1.225   0.249
 5117HO4    HW120466   0.438   1.188   0.206
 5117HO4    HW220467   0.596   1.223   0.182
 5117HO4     MW20468   0.521   1.225   0.249
 5118HO4     OW20469   3.278   2.507   5.005
 5118HO4    HW120470   3.299   2.451   4.925
 5118HO4    HW220471   3.294   2.453   5.089
 5118HO4     MW20472   3.278   2.507   5.005
 5119HO4     OW20473   3.178   2.791   2.126
 5119HO4    HW120474   3.276   2.812   2.123
 5119HO4    HW220475   3.137   2.811   2.036
 5119HO4     MW20476   3.178   2.791   2.126
 5120HO4     OW20477   2.699   4.009   2.512
 5120HO4    HW120478   2.620   3.984   2.456
 5120HO4    HW220479   2.717   3.937   2.579
 5120HO4     MW20480   2.699   4.009   2.512
 5121HO4     OW20481   4.643   3.065   3.516
 5121HO4    HW120482   4.713   3.051   3.445
 5121HO4    HW220483   4.579   2.988   3.515
 5121HO4     MW20484   4.643   3.065   3.516
 5122HO4     OW20485   3.725   3.814   1.559
 5122HO4    HW120486   3.706   3.718   1.539
 5122HO4    HW220487   3.730   3.866   1.474
 5122HO4     MW20488   3.725   3.814   1.559
 5123HO4     OW20489   3.906   2.203   1.280
 5123HO4    HW120490   3.806   2.206   1.284
 5123HO4    HW220491   3.939   2.128   1.339
 5123HO4     MW20492   3.906   2.203   1.280
 5124HO4     OW20493   1.675   0.372   0.966
 5124HO4    HW120494   1.703   0.310   0.892
 5124HO4    HW220495   1.662   0.320   1.051
 5124HO4     MW20496   1.675   0.372   0.966
 5125HO4     OW20497   4.671   4.688   5.221
 5125HO4    HW120498   4.733   4.701   5.299
 5125HO4    HW220499   4.702   4.610   5.166
 5125HO4     MW20500   4.671   4.688   5.221
 5126HO4     OW20501   2.961   2.416   0.299
 5126HO4    HW120502   2.910   2.470   0.231
 5126HO4    HW220503   2.911   2.332   0.319
 5126HO4     MW20504   2.961   2.416   0.299
 5127HO4     OW20505   3.902   5.277   2.467
 5127HO4    HW120506   3.845   5.267   2.550
 5127HO4    HW220507   3.845   5.258   2.386
 5127HO4     MW20508   3.902   5.277   2.467
 5128HO4     OW20509   4.979   1.117   1.068
 5128HO4    HW120510   5.034   1.063   1.132
 5128HO4    HW220511   4.883   1.089   1.073
 5128HO4     MW20512   4.979   1.117   1.068
 5129HO4     OW20513   1.036   3.712   2.828
 5129HO4    HW120514   0.962   3.708   2.896
 5129HO4    HW220515   1.012   3.778   2.757
 5129HO4     MW20516   1.036   3.712   2.828
 5130HO4     OW20517   5.410   0.659   3.997
 5130HO4    HW120518   5.473   0.731   4.025
 5130HO4    HW220519   5.434   0.627   3.905
 5130HO4     MW20520   5.410   0.659   3.997
 5131HO4     OW20521   3.126   4.752   2.461
 5131HO4    HW120522   3.040   4.792   2.495
 5131HO4    HW220523   3.104   4.681   2.392
 5131HO4     MW20524   3.126   4.752   2.461
 5132HO4     OW20525   1.328   4.376   4.351
 5132HO4    HW120526   1.416   4.343   4.317
 5132HO4    HW220527   1.341   4.458   4.407
 5132HO4     MW20528   1.328   4.376   4.351
 5133HO4     OW20529   2.520   2.534   1.463
 5133HO4    HW120530   2.495   2.442   1.494
 5133HO4    HW220531   2.590   2.572   1.524
 5133HO4     MW20532   2.520   2.534   1.463
 5134HO4     OW20533   4.008   0.072   1.924
 5134HO4    HW120534   3.981   0.019   2.004
 5134HO4    HW220535   3.967   0.163   1.928
 5134HO4     MW20536   4.008   0.072   1.924
 5135HO4     OW20537   2.003   1.624   2.198
 5135HO4    HW120538   2.003   1.622   2.097
 5135HO4    HW220539   2.096   1.643   2.231
 5135HO4     MW20540   2.003   1.624   2.198
 5136HO4     OW20541   1.446   1.813   0.498
 5136HO4    HW120542   1.539   1.822   0.533
 5136HO4    HW220543   1.449   1.798   0.399
 5136HO4     MW20544   1.446   1.813   0.498
 5137HO4     OW20545   3.761   2.706   2.316
 5137HO4    HW120546   3.757   2.654   2.230
 5137HO4    HW220547   3.725   2.650   2.391
 5137HO4     MW20548   3.761   2.706   2.316
 5138HO4     OW20549   5.376   3.546   0.094
 5138HO4    HW120550   5.288   3.537   0.142
 5138HO4    HW220551   5.365   3.522  -0.003
 5138HO4     MW20552   5.376   3.546   0.094
 5139HO4     OW20553   0.948   1.851   4.212
 5139HO4    HW120554   0.911   1.775   4.268
 5139HO4    HW220555   0.935   1.830   4.115
 5139HO4     MW20556   0.948   1.851   4.212
 5140HO4     OW20557   3.350   4.934   2.079
 5140HO4    HW120558   3.401   4.872   2.139
 5140HO4    HW220559   3.302   4.879   2.009
 5140HO4     MW20560   3.350   4.934   2.079
 5141HO4     OW20561   5.307   0.132   4.355
 5141HO4    HW120562   5.306   0.202   4.426
 5141HO4    HW220563   5.275   0.045   4.394
 5141HO4     MW20564   5.307   0.132   4.355
 5142HO4     OW20565   3.218   4.345   1.862
 5142HO4    HW120566   3.266   4.338   1.950
 5142HO4    HW220567   3.271   4.403   1.799
 5142HO4     MW20568   3.218   4.345   1.862
 5143HO4     OW20569   3.130   2.993   5.466
 5143HO4    HW120570   3.077   3.078   5.463
 5143HO4    HW220571   3.226   3.012   5.443
 5143HO4     MW20572   3.130   2.993   5.466
 5144HO4     OW20573   2.644   1.483   0.674
 5144HO4    HW120574   2.683   1.432   0.596
 5144HO4    HW220575   2.582   1.555   0.639
 5144HO4     MW20576   2.644   1.483   0.674
 5145HO4     OW20577   5.217   4.893   5.295
 5145HO4    HW120578   5.269   4.866   5.214
 5145HO4    HW220579   5.265   4.864   5.378
 5145HO4     MW20580   5.217   4.893   5.295
 5146HO4     OW20581   2.958   2.778   2.516
 5146HO4    HW120582   2.970   2.703   2.450
 5146HO4    HW220583   2.945   2.740   2.608
 5146HO4     MW20584   2.958   2.778   2.516
 5147HO4     OW20585   4.229   3.602   3.184
 5147HO4    HW120586   4.222   3.650   3.096
 5147HO4    HW220587   4.221   3.669   3.259
 5147HO4     MW20588   4.229   3.602   3.184
 5148HO4     OW20589   0.584   5.175   4.850
 5148HO4    HW120590   0.668   5.202   4.802
 5148HO4    HW220591   0.506   5.178   4.786
 5148HO4     MW20592   0.584   5.175   4.850
 5149HO4     OW20593   2.284   0.490   3.285
 5149HO4    HW120594   2.222   0.496   3.364
 5149HO4    HW220595   2.355   0.421   3.302
 5149HO4     MW20596   2.284   0.490   3.285
 5150HO4     OW20597   4.973   4.782   3.847
 5150HO4    HW120598   4.980   4.725   3.764
 5150HO4    HW220599   4.987   4.724   3.928
 5150HO4     MW20600   4.973   4.782   3.847
 5151HO4     OW20601   1.212   5.191   2.935
 5151HO4    HW120602   1.149   5.249   2.988
 5151HO4    HW220603   1.163   5.148   2.859
 5151HO4     MW20604   1.212   5.191   2.935
 5152HO4     OW20605   3.260   3.378   0.360
 5152HO4    HW120606   3.334   3.435   0.397
 5152HO4    HW220607   3.176   3.392   0.413
 5152HO4     MW20608   3.260   3.378   0.360
 5153HO4     OW20609   2.149   5.418   4.436
 5153HO4    HW120610   2.220   5.386   4.500
 5153HO4    HW220611   2.059   5.396   4.474
 5153HO4     MW20612   2.149   5.418   4.436
 5154HO4     OW20613   0.035   1.029   4.860
 5154HO4    HW120614   0.017   1.087   4.780
 5154HO4    HW220615   0.022   1.083   4.944
 5154HO4     MW20616   0.035   1.029   4.860
 5155HO4     OW20617   0.760   3.973   3.170
 5155HO4    HW120618   0.740   3.875   3.182
 5155HO4    HW220619   0.856   3.983   3.141
 5155HO4     MW20620   0.760   3.973   3.170
 5156HO4     OW20621   1.076   1.415   3.316
 5156HO4    HW120622   1.117   1.383   3.230
 5156HO4    HW220623   1.130   1.380   3.393
 5156HO4     MW20624   1.076   1.415   3.316
 5157HO4     OW20625   2.874   0.067   1.211
 5157HO4    HW120626   2.861   0.066   1.311
 5157HO4    HW220627   2.971   0.086   1.190
 5157HO4     MW20628   2.874   0.067   1.211
 5158HO4     OW20629   3.274   2.286   3.679
 5158HO4    HW120630   3.186   2.278   3.727
 5158HO4    HW220631   3.347   2.247   3.737
 5158HO4     MW20632   3.274   2.286   3.679
 5159HO4     OW20633   2.944   0.224   3.447
 5159HO4    HW120634   2.890   0.246   3.529
 5159HO4    HW220635   2.890   0.246   3.365
 5159HO4     MW20636   2.944   0.224   3.447
 5160HO4     OW20637   3.264   2.482   0.297
 5160HO4    HW120638   3.205   2.465   0.218
 5160HO4    HW220639   3.214   2.461   0.381
 5160HO4     MW20640   3.264   2.482   0.297
 5161HO4     OW20641   2.142   0.899   1.334
 5161HO4    HW120642   2.156   0.962   1.410
 5161HO4    HW220643   2.128   0.951   1.249
 5161HO4     MW20644   2.142   0.899   1.334
 5162HO4     OW20645   4.773   3.811   1.841
 5162HO4    HW120646   4.846   3.848   1.898
 5162HO4    HW220647   4.692   3.870   1.848
 5162HO4     MW20648   4.773   3.811   1.841
 5163HO4     OW20649   4.539   0.607   3.523
 5163HO4    HW120650   4.576   0.675   3.459
 5163HO4    HW220651   4.443   0.590   3.500
 5163HO4     MW20652   4.539   0.607   3.523
 5164HO4     OW20653   2.747   4.101   1.958
 5164HO4    HW120654   2.717   4.197   1.957
 5164HO4    HW220655   2.740   4.062   1.865
 5164HO4     MW20656   2.747   4.101   1.958
 5165HO4     OW20657   3.390   0.038   1.121
 5165HO4    HW120658   3.389   0.130   1.079
 5165HO4    HW220659   3.369  -0.031   1.051
 5165HO4     MW20660   3.390   0.038   1.121
 5166HO4     OW20661   3.262   4.110   1.904
 5166HO4    HW120662   3.319   4.151   1.832
 5166HO4    HW220663   3.247   4.013   1.883
 5166HO4     MW20664   3.262   4.110   1.904
 5167HO4     OW20665   0.027   1.547   1.697
 5167HO4    HW120666   0.065   1.508   1.613
 5167HO4    HW220667   0.100   1.586   1.753
 5167HO4     MW20668   0.027   1.547   1.697
 5168HO4     OW20669   4.888   3.150   1.599
 5168HO4    HW120670   4.908   3.088   1.522
 5168HO4    HW220671   4.970   3.160   1.656
 5168HO4     MW20672   4.888   3.150   1.599
 5169HO4     OW20673   4.231   0.478   1.382
 5169HO4    HW120674   4.212   0.530   1.297
 5169HO4    HW220675   4.205   0.534   1.461
 5169HO4     MW20676   4.231   0.478   1.382
 5170HO4     OW20677   2.227   4.850   1.595
 5170HO4    HW120678   2.282   4.866   1.512
 5170HO4    HW220679   2.284   4.866   1.676
 5170HO4     MW20680   2.227   4.850   1.595
 5171HO4     OW20681   3.470   4.646   4.148
 5171HO4    HW120682   3.509   4.651   4.241
 5171HO4    HW220683   3.501   4.561   4.104
 5171HO4     MW20684   3.470   4.646   4.148
 5172HO4     OW20685   3.284   3.569   3.835
 5172HO4    HW120686   3.317   3.510   3.760
 5172HO4    HW220687   3.268   3.514   3.917
 5172HO4     MW20688   3.284   3.569   3.835
 5173HO4     OW20689   4.829   0.215   0.297
 5173HO4    HW120690   4.862   0.244   0.387
 5173HO4    HW220691   4.880   0.262   0.224
 5173HO4     MW20692   4.829   0.215   0.297
 5174HO4     OW20693   4.371   4.419   0.334
 5174HO4    HW120694   4.413   4.511   0.335
 5174HO4    HW220695   4.314   4.410   0.252
 5174HO4     MW20696   4.371   4.419   0.334
 5175HO4     OW20697   2.457   2.908   0.266
 5175HO4    HW120698   2.487   2.870   0.354
 5175HO4    HW220699   2.515   2.874   0.192
 5175HO4     MW20700   2.457   2.908   0.266
 5176HO4     OW20701   3.596   3.442   4.996
 5176HO4    HW120702   3.586   3.443   5.096
 5176HO4    HW220703   3.513   3.480   4.954
 5176HO4     MW20704   3.596   3.442   4.996
 5177HO4     OW20705   3.199   0.956   1.051
 5177HO4    HW120706   3.150   1.008   1.122
 5177HO4    HW220707   3.298   0.973   1.059
 5177HO4     MW20708   3.199   0.956   1.051
 5178HO4     OW20709   2.440   4.338   0.999
 5178HO4    HW120710   2.364   4.312   0.938
 5178HO4    HW220711   2.412   4.324   1.094
 5178HO4     MW20712   2.440   4.338   0.999
 5179HO4     OW20713   3.095   0.014   3.833
 5179HO4    HW120714   3.038   0.097   3.829
 5179HO4    HW220715   3.186   0.034   3.797
 5179HO4     MW20716   3.095   0.014   3.833
 5180HO4     OW20717   0.391   3.439   1.183
 5180HO4    HW120718   0.375   3.531   1.148
 5180HO4    HW220719   0.463   3.394   1.129
 5180HO4     MW20720   0.391   3.439   1.183
 5181HO4     OW20721   4.189   3.018   1.392
 5181HO4    HW120722   4.097   3.052   1.368
 5181HO4    HW220723   4.228   3.076   1.464
 5181HO4     MW20724   4.189   3.018   1.392
 5182HO4     OW20725   1.928   0.397   1.706
 5182HO4    HW120726   1.909   0.348   1.620
 5182HO4    HW220727   1.887   0.348   1.783
 5182HO4     MW20728   1.928   0.397   1.706
 5183HO4     OW20729   4.477   4.118   0.843
 5183HO4    HW120730   4.496   4.172   0.926
 5183HO4    HW220731   4.472   4.180   0.764
 5183HO4     MW20732   4.477   4.118   0.843
 5184HO4     OW20733   4.378   1.103   0.056
 5184HO4    HW120734   4.411   1.051  -0.024
 5184HO4    HW220735   4.399   1.051   0.140
 5184HO4     MW20736   4.378   1.103   0.056
 5185HO4     OW20737   2.740   3.218   3.751
 5185HO4    HW120738   2.661   3.160   3.773
 5185HO4    HW220739   2.821   3.160   3.742
 5185HO4     MW20740   2.740   3.218   3.751
 5186HO4     OW20741   5.320   3.043   2.055
 5186HO4    HW120742   5.304   2.993   1.969
 5186HO4    HW220743   5.405   3.095   2.049
 5186HO4     MW20744   5.320   3.043   2.055
 5187HO4     OW20745   1.058   4.235   2.821
 5187HO4    HW120746   0.997   4.274   2.752
 5187HO4    HW220747   1.111   4.159   2.781
 5187HO4     MW20748   1.058   4.235   2.821
 5188HO4     OW20749   1.869   3.310   3.102
 5188HO4    HW120750   1.939   3.366   3.147
 5188HO4    HW220751   1.834   3.242   3.166
 5188HO4     MW20752   1.869   3.310   3.102
 5189HO4     OW20753   0.388   4.505   1.133
 5189HO4    HW120754   0.365   4.408   1.125
 5189HO4    HW220755   0.451   4.518   1.210
 5189HO4     MW20756   0.388   4.505   1.133
 5190HO4     OW20757   0.061   2.334   0.960
 5190HO4    HW120758   0.125   2.373   1.027
 5190HO4    HW220759   0.080   2.374   0.869
 5190HO4     MW20760   0.061   2.334   0.960
 5191HO4     OW20761   5.053   2.454   4.590
 5191HO4    HW120762   5.045   2.444   4.491
 5191HO4    HW220763   4.986   2.522   4.622
 5191HO4     MW20764   5.053   2.454   4.590
 5192HO4     OW20765   2.516   1.360   1.095
 5192HO4    HW120766   2.501   1.274   1.146
 5192HO4    HW220767   2.532   1.339   0.998
 5192HO4     MW20768   2.516   1.360   1.095
 5193HO4     OW20769   5.417   3.562   1.428
 5193HO4    HW120770   5.449   3.498   1.358
 5193HO4    HW220771   5.484   3.567   1.502
 5193HO4     MW20772   5.417   3.562   1.428
 5194HO4     OW20773   0.541   3.572   3.868
 5194HO4    HW120774   0.612   3.543   3.802
 5194HO4    HW220775   0.533   3.503   3.941
 5194HO4     MW20776   0.541   3.572   3.868
 5195HO4     OW20777   2.912   3.074   1.455
 5195HO4    HW120778   2.920   3.022   1.540
 5195HO4    HW220779   2.893   3.011   1.379
 5195HO4     MW20780   2.912   3.074   1.455
 5196HO4     OW20781   2.485   4.361   3.847
 5196HO4    HW120782   2.536   4.394   3.767
 5196HO4    HW220783   2.530   4.391   3.931
 5196HO4     MW20784   2.485   4.361   3.847
 5197HO4     OW20785   1.378   0.303   3.682
 5197HO4    HW120786   1.308   0.326   3.751
 5197HO4    HW220787   1.334   0.294   3.592
 5197HO4     MW20788   1.378   0.303   3.682
 5198HO4     OW20789   4.050   3.798   0.924
 5198HO4    HW120790   4.009   3.874   0.975
 5198HO4    HW220791   4.023   3.711   0.966
 5198HO4     MW20792   4.050   3.798   0.924
 5199HO4     OW20793   0.357   1.887   0.975
 5199HO4    HW120794   0.329   1.794   1.001
 5199HO4    HW220795   0.409   1.883   0.889
 5199HO4     MW20796   0.357   1.887   0.975
 5200HO4     OW20797   4.103   3.950   2.737
 5200HO4    HW120798   4.148   3.878   2.791
 5200HO4    HW220799   4.035   3.909   2.675
 5200HO4     MW20800   4.103   3.950   2.737
 5201HO4     OW20801   2.729   3.414   4.065
 5201HO4    HW120802   2.715   3.341   4.132
 5201HO4    HW220803   2.705   3.502   4.106
 5201HO4     MW20804   2.729   3.414   4.065
 5202HO4     OW20805   1.489   0.232   0.090
 5202HO4    HW120806   1.472   0.230  -0.009
 5202HO4    HW220807   1.473   0.140   0.127
 5202HO4     MW20808   1.489   0.232   0.090
 5203HO4     OW20809   4.531   3.404   2.218
 5203HO4    HW120810   4.588   3.448   2.149
 5203HO4    HW220811   4.481   3.327   2.176
 5203HO4     MW20812   4.531   3.404   2.218
 5204HO4     OW20813   0.050   0.593   2.388
 5204HO4    HW120814   0.123   0.658   2.408
 5204HO4    HW220815   0.085   0.519   2.330
 5204HO4     MW20816   0.050   0.593   2.388
 5205HO4     OW20817   4.233   1.270   5.328
 5205HO4    HW120818   4.293   1.351   5.318
 5205HO4    HW220819   4.264   1.216   5.406
 5205HO4     MW20820   4.233   1.270   5.328
 5206HO4     OW20821   2.192   1.636   1.958
 5206HO4    HW120822   2.124   1.567   1.985
 5206HO4    HW220823   2.174   1.664   1.863
 5206HO4     MW20824   2.192   1.636   1.958
 5207HO4     OW20825   3.844   5.183   1.298
 5207HO4    HW120826   3.826   5.229   1.211
 5207HO4    HW220827   3.831   5.249   1.373
 5207HO4     MW20828   3.844   5.183   1.298
 5208HO4     OW20829   0.136   4.821   4.374
 5208HO4    HW120830   0.183   4.789   4.457
 5208HO4    HW220831   0.037   4.810   4.385
 5208HO4     MW20832   0.136   4.821   4.374
 5209HO4     OW20833   2.961   5.282   3.497
 5209HO4    HW120834   2.881   5.312   3.443
 5209HO4    HW220835   3.045   5.308   3.448
 5209HO4     MW20836   2.961   5.282   3.497
 5210HO4     OW20837   2.388   3.689   4.355
 5210HO4    HW120838   2.325   3.726   4.423
 5210HO4    HW220839   2.351   3.705   4.263
 5210HO4     MW20840   2.388   3.689   4.355
 5211HO4     OW20841   2.551   3.973   5.352
 5211HO4    HW120842   2.523   4.069   5.355
 5211HO4    HW220843   2.566   3.945   5.257
 5211HO4     MW20844   2.551   3.973   5.352
 5212HO4     OW20845   0.137   3.573   0.530
 5212HO4    HW120846   0.205   3.645   0.514
 5212HO4    HW220847   0.185   3.486   0.550
 5212HO4     MW20848   0.137   3.573   0.530
 5213HO4     OW20849   2.881   4.988   0.520
 5213HO4    HW120850   2.801   5.045   0.498
 5213HO4    HW220851   2.932   5.030   0.596
 5213HO4     MW20852   2.881   4.988   0.520
 5214HO4     OW20853   1.288   1.286   4.764
 5214HO4    HW120854   1.345   1.344   4.823
 5214HO4    HW220855   1.264   1.202   4.813
 5214HO4     MW20856   1.288   1.286   4.764
 5215HO4     OW20857   0.104   2.140   1.485
 5215HO4    HW120858   0.154   2.174   1.404
 5215HO4    HW220859   0.150   2.173   1.568
 5215HO4     MW20860   0.104   2.140   1.485
 5216HO4     OW20861   2.613   0.294   1.571
 5216HO4    HW120862   2.640   0.252   1.659
 5216HO4    HW220863   2.652   0.241   1.495
 5216HO4     MW20864   2.613   0.294   1.571
 5217HO4     OW20865   5.130   2.332   1.705
 5217HO4    HW120866   5.057   2.334   1.774
 5217HO4    HW220867   5.104   2.389   1.627
 5217HO4     MW20868   5.130   2.332   1.705
 5218HO4     OW20869   4.027   2.392   4.712
 5218HO4    HW120870   3.982   2.365   4.627
 5218HO4    HW220871   3.982   2.474   4.749
 5218HO4     MW20872   4.027   2.392   4.712
 5219HO4     OW20873   2.198   2.812   4.564
 5219HO4    HW120874   2.153   2.824   4.653
 5219HO4    HW220875   2.202   2.901   4.517
 5219HO4     MW20876   2.198   2.812   4.564
 5220HO4     OW20877   3.087   1.202   2.975
 5220HO4    HW120878   3.059   1.161   2.888
 5220HO4    HW220879   3.017   1.183   3.045
 5220HO4     MW20880   3.087   1.202   2.975
 5221HO4     OW20881   1.562   0.475   3.335
 5221HO4    HW120882   1.539   0.530   3.416
 5221HO4    HW220883   1.557   0.532   3.252
 5221HO4     MW20884   1.562   0.475   3.335
 5222HO4     OW20885   4.967   4.165   2.419
 5222HO4    HW120886   4.885   4.204   2.376
 5222HO4    HW220887   5.029   4.239   2.447
 5222HO4     MW20888   4.967   4.165   2.419
 5223HO4     OW20889   4.330   2.800   4.720
 5223HO4    HW120890   4.302   2.885   4.676
 5223HO4    HW220891   4.291   2.722   4.670
 5223HO4     MW20892   4.330   2.800   4.720
 5224HO4     OW20893   1.536   1.237   2.322
 5224HO4    HW120894   1.536   1.255   2.421
 5224HO4    HW220895   1.507   1.319   2.272
 5224HO4     MW20896   1.536   1.237   2.322
 5225HO4     OW20897   4.566   0.094   2.094
 5225HO4    HW120898   4.502   0.136   2.159
 5225HO4    HW220899   4.647   0.152   2.083
 5225HO4     MW20900   4.566   0.094   2.094
 5226HO4     OW20901   1.086   4.517   4.143
 5226HO4    HW120902   1.062   4.452   4.069
 5226HO4    HW220903   1.057   4.479   4.231
 5226HO4     MW20904   1.086   4.517   4.143
 5227HO4     OW20905   0.329   2.594   2.758
 5227HO4    HW120906   0.356   2.643   2.675
 5227HO4    HW220907   0.361   2.645   2.839
 5227HO4     MW20908   0.329   2.594   2.758
 5228HO4     OW20909   1.480   0.953   0.118
 5228HO4    HW120910   1.431   0.998   0.042
 5228HO4    HW220911   1.434   0.976   0.205
 5228HO4     MW20912   1.480   0.953   0.118
 5229HO4     OW20913   0.332   3.392   4.369
 5229HO4    HW120914   0.403   3.402   4.298
 5229HO4    HW220915   0.327   3.296   4.397
 5229HO4     MW20916   0.332   3.392   4.369
 5230HO4     OW20917   1.187   1.703   4.951
 5230HO4    HW120918   1.170   1.740   5.043
 5230HO4    HW220919   1.284   1.715   4.928
 5230HO4     MW20920   1.187   1.703   4.951
 5231HO4     OW20921   1.326   3.343   0.488
 5231HO4    HW120922   1.393   3.346   0.562
 5231HO4    HW220923   1.363   3.289   0.412
 5231HO4     MW20924   1.326   3.343   0.488
 5232HO4     OW20925   2.934   0.685   2.126
 5232HO4    HW120926   2.899   0.597   2.159
 5232HO4    HW220927   2.857   0.743   2.096
 5232HO4     MW20928   2.934   0.685   2.126
 5233HO4     OW20929   0.066   2.771   5.405
 5233HO4    HW120930   0.127   2.709   5.355
 5233HO4    HW220931   0.101   2.783   5.499
 5233HO4     MW20932   0.066   2.771   5.405
 5234HO4     OW20933   3.042   1.073   1.417
 5234HO4    HW120934   3.052   1.015   1.335
 5234HO4    HW220935   2.995   1.021   1.489
 5234HO4     MW20936   3.042   1.073   1.417
 5235HO4     OW20937   5.149   3.470   5.081
 5235HO4    HW120938   5.126   3.504   4.989
 5235HO4    HW220939   5.176   3.548   5.139
 5235HO4     MW20940   5.149   3.470   5.081
 5236HO4     OW20941   3.588   5.099   4.382
 5236HO4    HW120942   3.574   5.031   4.454
 5236HO4    HW220943   3.563   5.060   4.293
 5236HO4     MW20944   3.588   5.099   4.382
 5237HO4     OW20945   1.734   5.179   1.838
 5237HO4    HW120946   1.737   5.228   1.750
 5237HO4    HW220947   1.723   5.081   1.821
 5237HO4     MW20948   1.734   5.179   1.838
 5238HO4     OW20949   2.241   3.535   4.396
 5238HO4    HW120950   2.194   3.447   4.407
 5238HO4    HW220951   2.181   3.610   4.426
 5238HO4     MW20952   2.241   3.535   4.396
 5239HO4     OW20953   0.790   0.490   4.697
 5239HO4    HW120954   0.839   0.434   4.766
 5239HO4    HW220955   0.828   0.470   4.606
 5239HO4     MW20956   0.790   0.490   4.697
 5240HO4     OW20957   4.361   0.289   0.725
 5240HO4    HW120958   4.424   0.358   0.762
 5240HO4    HW220959   4.414   0.211   0.690
 5240HO4     MW20960   4.361   0.289   0.725
 5241HO4     OW20961   3.445   0.112   4.640
 5241HO4    HW120962   3.453   0.181   4.567
 5241HO4    HW220963   3.351   0.078   4.644
 5241HO4     MW20964   3.445   0.112   4.640
 5242HO4     OW20965   1.176   1.001   3.605
 5242HO4    HW120966   1.252   1.056   3.570
 5242HO4    HW220967   1.192   0.904   3.583
 5242HO4     MW20968   1.176   1.001   3.605
 5243HO4     OW20969   2.787   0.673   0.704
 5243HO4    HW120970   2.882   0.657   0.676
 5243HO4    HW220971   2.779   0.663   0.804
 5243HO4     MW20972   2.787   0.673   0.704
 5244HO4     OW20973   2.095   3.187   1.909
 5244HO4    HW120974   2.078   3.248   1.831
 5244HO4    HW220975   2.080   3.236   1.995
 5244HO4     MW20976   2.095   3.187   1.909
 5245HO4     OW20977   4.101   0.140   3.452
 5245HO4    HW120978   4.053   0.171   3.534
 5245HO4    HW220979   4.050   0.169   3.370
 5245HO4     MW20980   4.101   0.140   3.452
 5246HO4     OW20981   5.401   1.082   3.472
 5246HO4    HW120982   5.416   1.028   3.556
 5246HO4    HW220983   5.415   1.023   3.392
 5246HO4     MW20984   5.401   1.082   3.472
 5247HO4     OW20985   3.047   0.238   0.376
 5247HO4    HW120986   2.966   0.194   0.336
 5247HO4    HW220987   3.071   0.191   0.461
 5247HO4     MW20988   3.047   0.238   0.376
 5248HO4     OW20989   3.464   3.355   3.719
 5248HO4    HW120990   3.425   3.391   3.633
 5248HO4    HW220991   3.420   3.400   3.797
 5248HO4     MW20992   3.464   3.355   3.719
 5249HO4     OW20993   2.243   2.134   2.578
 5249HO4    HW120994   2.300   2.210   2.544
 5249HO4    HW220995   2.198   2.090   2.500
 5249HO4     MW20996   2.243   2.134   2.578
 5250HO4     OW20997   4.429   4.603   2.321
 5250HO4    HW120998   4.419   4.615   2.421
 5250HO4    HW220999   4.422   4.505   2.299
 5250HO4     MW21000   4.429   4.603   2.321
 5251HO4     OW21001   1.288   1.127   0.254
 5251HO4    HW121002   1.386   1.150   0.253
 5251HO4    HW221003   1.263   1.094   0.346
 5251HO4     MW21004   1.288   1.127   0.254
 5252HO4     OW21005   1.928   4.122   2.555
 5252HO4    HW121006   1.946   4.081   2.645
 5252HO4    HW221007   2.016   4.140   2.509
 5252HO4     MW21008   1.928   4.122   2.555
 5253HO4     OW21009   0.106   2.686   2.598
 5253HO4    HW121010   0.056   2.690   2.685
 5253HO4    HW221011   0.043   2.703   2.522
 5253HO4     MW21012   0.106   2.686   2.598
 5254HO4     OW21013   4.441   3.093   2.872
 5254HO4    HW121014   4.506   3.041   2.927
 5254HO4    HW221015   4.407   3.036   2.797
 5254HO4     MW21016   4.441   3.093   2.872
 5255HO4     OW21017   1.054   2.375   0.274
 5255HO4    HW121018   1.102   2.356   0.360
 5255HO4    HW221019   1.082   2.309   0.204
 5255HO4     MW21020   1.054   2.375   0.274
 5256HO4     OW21021   1.455   2.440   2.806
 5256HO4    HW121022   1.496   2.442   2.898
 5256HO4    HW221023   1.360   2.409   2.812
 5256HO4     MW21024   1.455   2.440   2.806
 5257HO4     OW21025   5.245   1.449   5.244
 5257HO4    HW121026   5.285   1.516   5.307
 5257HO4    HW221027   5.302   1.442   5.161
 5257HO4     MW21028   5.245   1.449   5.244
 5258HO4     OW21029   3.132   0.843   3.292
 5258HO4    HW121030   3.171   0.918   3.238
 5258HO4    HW221031   3.125   0.870   3.388
 5258HO4     MW21032   3.132   0.843   3.292
 5259HO4     OW21033   2.788   0.883   1.706
 5259HO4    HW121034   2.739   0.880   1.794
 5259HO4    HW221035   2.722   0.888   1.631
 5259HO4     MW21036   2.788   0.883   1.706
 5260HO4     OW21037   1.470   4.112   4.185
 5260HO4    HW121038   1.566   4.081   4.177
 5260HO4    HW221039   1.429   4.074   4.268
 5260HO4     MW21040   1.470   4.112   4.185
 5261HO4     OW21041   3.536   0.721   2.852
 5261HO4    HW121042   3.569   0.703   2.759
 5261HO4    HW221043   3.439   0.698   2.858
 5261HO4     MW21044   3.536   0.721   2.852
 5262HO4     OW21045   0.215   1.799   3.228
 5262HO4    HW121046   0.137   1.829   3.173
 5262HO4    HW221047   0.198   1.707   3.264
 5262HO4     MW21048   0.215   1.799   3.228
 5263HO4     OW21049   4.254   0.212   2.490
 5263HO4    HW121050   4.331   0.249   2.438
 5263HO4    HW221051   4.272   0.222   2.588
 5263HO4     MW21052   4.254   0.212   2.490
 5264HO4     OW21053   0.764   0.046   4.083
 5264HO4    HW121054   0.804   0.112   4.148
 5264HO4    HW221055   0.755   0.089   3.993
 5264HO4     MW21056   0.764   0.046   4.083
 5265HO4     OW21057   3.593   0.615   0.376
 5265HO4    HW121058   3.627   0.521   0.389
 5265HO4    HW221059   3.652   0.663   0.311
 5265HO4     MW21060   3.593   0.615   0.376
 5266HO4     OW21061   2.565   4.030   3.220
 5266HO4    HW121062   2.595   4.077   3.304
 5266HO4    HW221063   2.622   4.060   3.143
 5266HO4     MW21064   2.565   4.030   3.220
 5267HO4     OW21065   4.980   3.109   3.798
 5267HO4    HW121066   4.911   3.070   3.737
 5267HO4    HW221067   5.008   3.040   3.865
 5267HO4     MW21068   4.980   3.109   3.798
 5268HO4     OW21069   5.395   5.044   5.155
 5268HO4    HW121070   5.473   5.008   5.103
 5268HO4    HW221071   5.418   5.047   5.253
 5268HO4     MW21072   5.395   5.044   5.155
 5269HO4     OW21073   0.318   5.353   2.717
 5269HO4    HW121074   0.380   5.364   2.795
 5269HO4    HW221075   0.370   5.362   2.632
 5269HO4     MW21076   0.318   5.353   2.717
 5270HO4     OW21077   5.205   3.531   0.602
 5270HO4    HW121078   5.198   3.570   0.694
 5270HO4    HW221079   5.228   3.433   0.610
 5270HO4     MW21080   5.205   3.531   0.602
 5271HO4     OW21081   3.533   4.201   5.190
 5271HO4    HW121082   3.490   4.194   5.280
 5271HO4    HW221083   3.495   4.130   5.129
 5271HO4     MW21084   3.533   4.201   5.190
 5272HO4     OW21085   2.334   0.877   4.916
 5272HO4    HW121086   2.312   0.851   4.822
 5272HO4    HW221087   2.248   0.893   4.967
 5272HO4     MW21088   2.334   0.877   4.916
 5273HO4     OW21089   1.742   2.638   4.125
 5273HO4    HW121090   1.735   2.661   4.028
 5273HO4    HW221091   1.756   2.722   4.179
 5273HO4     MW21092   1.742   2.638   4.125
 5274HO4     OW21093   3.895   1.254   2.380
 5274HO4    HW121094   3.972   1.240   2.317
 5274HO4    HW221095   3.870   1.352   2.381
 5274HO4     MW21096   3.895   1.254   2.380
 5275HO4     OW21097   0.756   0.838   0.043
 5275HO4    HW121098   0.725   0.759  -0.011
 5275HO4    HW221099   0.850   0.823   0.074
 5275HO4     MW21100   0.756   0.838   0.043
 5276HO4     OW21101   5.000   0.160   2.578
 5276HO4    HW121102   5.067   0.091   2.549
 5276HO4    HW221103   4.933   0.119   2.640
 5276HO4     MW21104   5.000   0.160   2.578
 5277HO4     OW21105   4.263   5.295   5.284
 5277HO4    HW121106   4.199   5.358   5.329
 5277HO4    HW221107   4.288   5.222   5.348
 5277HO4     MW21108   4.263   5.295   5.284
 5278HO4     OW21109   4.233   3.024   4.909
 5278HO4    HW121110   4.318   3.065   4.874
 5278HO4    HW221111   4.235   3.026   5.010
 5278HO4     MW21112   4.233   3.024   4.909
 5279HO4     OW21113   2.684   5.008   1.422
 5279HO4    HW121114   2.622   4.977   1.495
 5279HO4    HW221115   2.680   4.943   1.346
 5279HO4     MW21116   2.684   5.008   1.422
 5280HO4     OW21117   0.929   3.425   1.278
 5280HO4    HW121118   0.950   3.329   1.302
 5280HO4    HW221119   1.014   3.473   1.258
 5280HO4     MW21120   0.929   3.425   1.278
 5281HO4     OW21121   0.924   2.209   2.987
 5281HO4    HW121122   0.967   2.299   2.973
 5281HO4    HW221123   0.824   2.220   2.993
 5281HO4     MW21124   0.924   2.209   2.987
 5282HO4     OW21125   0.266   1.687   0.314
 5282HO4    HW121126   0.216   1.638   0.242
 5282HO4    HW221127   0.312   1.767   0.274
 5282HO4     MW21128   0.266   1.687   0.314
 5283HO4     OW21129   4.553   5.261   5.022
 5283HO4    HW121130   4.498   5.299   5.097
 5283HO4    HW221131   4.544   5.321   4.941
 5283HO4     MW21132   4.553   5.261   5.022
 5284HO4     OW21133   3.830   2.321   0.025
 5284HO4    HW121134   3.827   2.318   0.125
 5284HO4    HW221135   3.740   2.349  -0.010
 5284HO4     MW21136   3.830   2.321   0.025
 5285HO4     OW21137   0.169   4.653   3.467
 5285HO4    HW121138   0.155   4.644   3.566
 5285HO4    HW221139   0.253   4.605   3.441
 5285HO4     MW21140   0.169   4.653   3.467
 5286HO4     OW21141   0.690   2.059   0.332
 5286HO4    HW121142   0.746   1.977   0.342
 5286HO4    HW221143   0.676   2.079   0.235
 5286HO4     MW21144   0.690   2.059   0.332
 5287HO4     OW21145   0.638   3.685   1.553
 5287HO4    HW121146   0.591   3.597   1.560
 5287HO4    HW221147   0.707   3.680   1.480
 5287HO4     MW21148   0.638   3.685   1.553
 5288HO4     OW21149   0.743   2.002   1.188
 5288HO4    HW121150   0.662   2.019   1.132
 5288HO4    HW221151   0.718   2.006   1.286
 5288HO4     MW21152   0.743   2.002   1.188
 5289HO4     OW21153   2.989   0.901   4.523
 5289HO4    HW121154   3.000   0.961   4.443
 5289HO4    HW221155   3.032   0.812   4.504
 5289HO4     MW21156   2.989   0.901   4.523
 5290HO4     OW21157   4.671   5.188   0.901
 5290HO4    HW121158   4.654   5.101   0.854
 5290HO4    HW221159   4.602   5.255   0.873
 5290HO4     MW21160   4.671   5.188   0.901
 5291HO4     OW21161   2.533   0.599   4.776
 5291HO4    HW121162   2.612   0.539   4.791
 5291HO4    HW221163   2.449   0.545   4.772
 5291HO4     MW21164   2.533   0.599   4.776
 5292HO4     OW21165   1.234   1.436   4.149
 5292HO4    HW121166   1.258   1.347   4.108
 5292HO4    HW221167   1.139   1.433   4.181
 5292HO4     MW21168   1.234   1.436   4.149
 5293HO4     OW21169   5.131   2.794   3.526
 5293HO4    HW121170   5.089   2.812   3.615
 5293HO4    HW221171   5.093   2.857   3.457
 5293HO4     MW21172   5.131   2.794   3.526
 5294HO4     OW21173   3.224   2.352   2.611
 5294HO4    HW121174   3.282   2.336   2.530
 5294HO4    HW221175   3.277   2.338   2.694
 5294HO4     MW21176   3.224   2.352   2.611
 5295HO4     OW21177   0.469   1.309   4.477
 5295HO4    HW121178   0.480   1.344   4.384
 5295HO4    HW221179   0.398   1.363   4.525
 5295HO4     MW21180   0.469   1.309   4.477
 5296HO4     OW21181   0.232   0.968   2.748
 5296HO4    HW121182   0.270   0.947   2.839
 5296HO4    HW221183   0.292   0.928   2.678
 5296HO4     MW21184   0.232   0.968   2.748
 5297HO4     OW21185   2.968   0.783   2.400
 5297HO4    HW121186   2.937   0.879   2.406
 5297HO4    HW221187   3.000   0.753   2.490
 5297HO4     MW21188   2.968   0.783   2.400
 5298HO4     OW21189   2.339   0.870   3.580
 5298HO4    HW121190   2.290   0.858   3.668
 5298HO4    HW221191   2.397   0.790   3.563
 5298HO4     MW21192   2.339   0.870   3.580
 5299HO4     OW21193   1.137   5.367   1.803
 5299HO4    HW121194   1.047   5.350   1.844
 5299HO4    HW221195   1.136   5.336   1.707
 5299HO4     MW21196   1.137   5.367   1.803
 5300HO4     OW21197   0.768   1.025   3.795
 5300HO4    HW121198   0.768   0.983   3.886
 5300HO4    HW221199   0.673   1.045   3.768
 5300HO4     MW21200   0.768   1.025   3.795
 5301HO4     OW21201   0.876   2.197   0.805
 5301HO4    HW121202   0.812   2.202   0.727
 5301HO4    HW221203   0.893   2.101   0.828
 5301HO4     MW21204   0.876   2.197   0.805
 5302HO4     OW21205   5.041   2.078   5.186
 5302HO4    HW121206   5.010   2.109   5.276
 5302HO4    HW221207   5.007   2.140   5.115
 5302HO4     MW21208   5.041   2.078   5.186
 5303HO4     OW21209   3.563   0.369   2.848
 5303HO4    HW121210   3.620   0.374   2.765
 5303HO4    HW221211   3.608   0.418   2.923
 5303HO4     MW21212   3.563   0.369   2.848
 5304HO4     OW21213   0.455   5.320   0.234
 5304HO4    HW121214   0.435   5.293   0.139
 5304HO4    HW221215   0.372   5.357   0.277
 5304HO4     MW21216   0.455   5.320   0.234
 5305HO4     OW21217   3.553   1.017   1.375
 5305HO4    HW121218   3.626   1.075   1.412
 5305HO4    HW221219   3.480   1.076   1.336
 5305HO4     MW21220   3.553   1.017   1.375
 5306HO4     OW21221   2.746   0.525   4.324
 5306HO4    HW121222   2.747   0.425   4.334
 5306HO4    HW221223   2.841   0.559   4.316
 5306HO4     MW21224   2.746   0.525   4.324
 5307HO4     OW21225   2.836   0.130   4.558
 5307HO4    HW121226   2.882   0.158   4.643
 5307HO4    HW221227   2.871   0.184   4.481
 5307HO4     MW21228   2.836   0.130   4.558
 5308HO4     OW21229   0.378   2.858   0.830
 5308HO4    HW121230   0.419   2.898   0.747
 5308HO4    HW221231   0.288   2.899   0.845
 5308HO4     MW21232   0.378   2.858   0.830
 5309HO4     OW21233   1.065   1.855   0.349
 5309HO4    HW121234   1.085   1.882   0.254
 5309HO4    HW221235   1.149   1.861   0.404
 5309HO4     MW21236   1.065   1.855   0.349
 5310HO4     OW21237   4.543   4.360   0.920
 5310HO4    HW121238   4.619   4.393   0.864
 5310HO4    HW221239   4.557   4.385   1.016
 5310HO4     MW21240   4.543   4.360   0.920
 5311HO4     OW21241   4.032   2.014   4.445
 5311HO4    HW121242   3.954   2.059   4.401
 5311HO4    HW221243   4.100   1.988   4.375
 5311HO4     MW21244   4.032   2.014   4.445
 5312HO4     OW21245   0.903   0.629   2.885
 5312HO4    HW121246   0.930   0.581   2.801
 5312HO4    HW221247   0.829   0.579   2.930
 5312HO4     MW21248   0.903   0.629   2.885
 5313HO4     OW21249   2.326   1.338   3.884
 5313HO4    HW121250   2.373   1.356   3.971
 5313HO4    HW221251   2.256   1.267   3.897
 5313HO4     MW21252   2.326   1.338   3.884
 5314HO4     OW21253   0.510   2.682   3.575
 5314HO4    HW121254   0.557   2.765   3.544
 5314HO4    HW221255   0.441   2.654   3.508
 5314HO4     MW21256   0.510   2.682   3.575
 5315HO4     OW21257   0.226   0.755   0.320
 5315HO4    HW121258   0.218   0.760   0.220
 5315HO4    HW221259   0.291   0.683   0.345
 5315HO4     MW21260   0.226   0.755   0.320
 5316HO4     OW21261   4.079   4.772   0.115
 5316HO4    HW121262   4.092   4.819   0.203
 5316HO4    HW221263   3.981   4.768   0.093
 5316HO4     MW21264   4.079   4.772   0.115
 5317HO4     OW21265   2.030   0.963   1.878
 5317HO4    HW121266   1.964   0.909   1.825
 5317HO4    HW221267   2.101   0.902   1.913
 5317HO4     MW21268   2.030   0.963   1.878
 5318HO4     OW21269   0.899   4.455   1.337
 5318HO4    HW121270   0.822   4.452   1.402
 5318HO4    HW221271   0.865   4.439   1.244
 5318HO4     MW21272   0.899   4.455   1.337
 5319HO4     OW21273   4.041   5.211   0.847
 5319HO4    HW121274   4.113   5.249   0.905
 5319HO4    HW221275   4.048   5.250   0.754
 5319HO4     MW21276   4.041   5.211   0.847
 5320HO4     OW21277   2.942   5.278   0.509
 5320HO4    HW121278   2.910   5.226   0.589
 5320HO4    HW221279   2.938   5.220   0.428
 5320HO4     MW21280   2.942   5.278   0.509
 5321HO4     OW21281   0.405   0.026   4.398
 5321HO4    HW121282   0.471   0.025   4.473
 5321HO4    HW221283   0.348   0.108   4.405
 5321HO4     MW21284   0.405   0.026   4.398
 5322HO4     OW21285   2.560   2.000   4.220
 5322HO4    HW121286   2.544   1.933   4.293
 5322HO4    HW221287   2.555   2.093   4.257
 5322HO4     MW21288   2.560   2.000   4.220
 5323HO4     OW21289   1.583   5.302   3.129
 5323HO4    HW121290   1.587   5.218   3.184
 5323HO4    HW221291   1.676   5.329   3.104
 5323HO4     MW21292   1.583   5.302   3.129
 5324HO4     OW21293   3.916   4.801   1.662
 5324HO4    HW121294   3.943   4.847   1.577
 5324HO4    HW221295   3.978   4.723   1.679
 5324HO4     MW21296   3.916   4.801   1.662
 5325HO4     OW21297   2.974   1.284   3.431
 5325HO4    HW121298   2.931   1.267   3.520
 5325HO4    HW221299   2.934   1.224   3.362
 5325HO4     MW21300   2.974   1.284   3.431
 5326HO4     OW21301   1.446   3.969   3.070
 5326HO4    HW121302   1.434   4.030   2.991
 5326HO4    HW221303   1.454   4.025   3.154
 5326HO4     MW21304   1.446   3.969   3.070
 5327HO4     OW21305   2.215   4.781   4.711
 5327HO4    HW121306   2.264   4.815   4.631
 5327HO4    HW221307   2.265   4.806   4.794
 5327HO4     MW21308   2.215   4.781   4.711
 5328HO4     OW21309   5.228   0.951   0.081
 5328HO4    HW121310   5.266   0.990  -0.003
 5328HO4    HW221311   5.268   0.998   0.160
 5328HO4     MW21312   5.228   0.951   0.081
 5329HO4     OW21313   0.305   4.715   1.096
 5329HO4    HW121314   0.372   4.683   1.029
 5329HO4    HW221315   0.336   4.691   1.189
 5329HO4     MW21316   0.305   4.715   1.096
 5330HO4     OW21317   4.591   0.756   1.520
 5330HO4    HW121318   4.511   0.806   1.488
 5330HO4    HW221319   4.670   0.779   1.463
 5330HO4     MW21320   4.591   0.756   1.520
 5331HO4     OW21321   5.064   5.187   1.321
 5331HO4    HW121322   5.061   5.287   1.329
 5331HO4    HW221323   5.045   5.145   1.410
 5331HO4     MW21324   5.064   5.187   1.321
 5332HO4     OW21325   1.818   1.356   4.238
 5332HO4    HW121326   1.827   1.389   4.332
 5332HO4    HW221327   1.769   1.269   4.238
 5332HO4     MW21328   1.818   1.356   4.238
 5333HO4     OW21329   0.502   5.048   0.665
 5333HO4    HW121330   0.484   5.048   0.763
 5333HO4    HW221331   0.599   5.068   0.648
 5333HO4     MW21332   0.502   5.048   0.665
 5334HO4     OW21333   2.217   2.298   4.027
 5334HO4    HW121334   2.311   2.312   4.058
 5334HO4    HW221335   2.194   2.200   4.034
 5334HO4     MW21336   2.217   2.298   4.027
 5335HO4     OW21337   4.278   1.286   4.655
 5335HO4    HW121338   4.212   1.215   4.627
 5335HO4    HW221339   4.310   1.336   4.574
 5335HO4     MW21340   4.278   1.286   4.655
 5336HO4     OW21341   1.691   1.843   2.650
 5336HO4    HW121342   1.729   1.810   2.563
 5336HO4    HW221343   1.723   1.937   2.666
 5336HO4     MW21344   1.691   1.843   2.650
 5337HO4     OW21345   4.517   3.993   1.992
 5337HO4    HW121346   4.537   4.076   1.939
 5337HO4    HW221347   4.498   3.916   1.930
 5337HO4     MW21348   4.517   3.993   1.992
 5338HO4     OW21349   4.442   1.409   2.833
 5338HO4    HW121350   4.489   1.385   2.748
 5338HO4    HW221351   4.357   1.458   2.812
 5338HO4     MW21352   4.442   1.409   2.833
 5339HO4     OW21353   0.505   2.311   1.456
 5339HO4    HW121354   0.520   2.368   1.537
 5339HO4    HW221355   0.498   2.370   1.374
 5339HO4     MW21356   0.505   2.311   1.456
 5340HO4     OW21357   0.864   0.647   1.669
 5340HO4    HW121358   0.865   0.747   1.675
 5340HO4    HW221359   0.808   0.619   1.591
 5340HO4     MW21360   0.864   0.647   1.669
 5341HO4     OW21361   2.025   1.686   5.068
 5341HO4    HW121362   1.989   1.711   4.977
 5341HO4    HW221363   2.063   1.768   5.112
 5341HO4     MW21364   2.025   1.686   5.068
 5342HO4     OW21365   3.111   3.582   5.236
 5342HO4    HW121366   3.141   3.488   5.253
 5342HO4    HW221367   3.189   3.644   5.248
 5342HO4     MW21368   3.111   3.582   5.236
 5343HO4     OW21369   3.794   0.013   2.672
 5343HO4    HW121370   3.717   0.060   2.718
 5343HO4    HW221371   3.763  -0.022   2.583
 5343HO4     MW21372   3.794   0.013   2.672
 5344HO4     OW21373   4.342   2.186   3.808
 5344HO4    HW121374   4.421   2.168   3.748
 5344HO4    HW221375   4.279   2.249   3.763
 5344HO4     MW21376   4.342   2.186   3.808
 5345HO4     OW21377   1.184   2.761   0.975
 5345HO4    HW121378   1.237   2.742   1.058
 5345HO4    HW221379   1.239   2.818   0.912
 5345HO4     MW21380   1.184   2.761   0.975
 5346HO4     OW21381   1.926   0.317   5.181
 5346HO4    HW121382   1.840   0.341   5.135
 5346HO4    HW221383   2.003   0.347   5.124
 5346HO4     MW21384   1.926   0.317   5.181
 5347HO4     OW21385   5.479   2.832   4.413
 5347HO4    HW121386   5.417   2.792   4.481
 5347HO4    HW221387   5.457   2.797   4.322
 5347HO4     MW21388   5.479   2.832   4.413
 5348HO4     OW21389   4.579   3.261   0.368
 5348HO4    HW121390   4.508   3.196   0.340
 5348HO4    HW221391   4.557   3.352   0.333
 5348HO4     MW21392   4.579   3.261   0.368
 5349HO4     OW21393   4.422   1.889   0.897
 5349HO4    HW121394   4.379   1.862   0.811
 5349HO4    HW221395   4.379   1.840   0.974
 5349HO4     MW21396   4.422   1.889   0.897
 5350HO4     OW21397   3.819   1.481   4.569
 5350HO4    HW121398   3.905   1.444   4.603
 5350HO4    HW221399   3.831   1.510   4.473
 5350HO4     MW21400   3.819   1.481   4.569
 5351HO4     OW21401   2.432   0.171   1.130
 5351HO4    HW121402   2.434   0.087   1.186
 5351HO4    HW221403   2.473   0.152   1.040
 5351HO4     MW21404   2.432   0.171   1.130
 5352HO4     OW21405   3.956   1.937   4.937
 5352HO4    HW121406   4.006   1.875   4.998
 5352HO4    HW221407   4.007   1.950   4.852
 5352HO4     MW21408   3.956   1.937   4.937
 5353HO4     OW21409   1.160   0.364   5.335
 5353HO4    HW121410   1.175   0.300   5.259
 5353HO4    HW221411   1.240   0.424   5.343
 5353HO4     MW21412   1.160   0.364   5.335
 5354HO4     OW21413   0.697   1.690   3.179
 5354HO4    HW121414   0.664   1.785   3.170
 5354HO4    HW221415   0.637   1.629   3.128
 5354HO4     MW21416   0.697   1.690   3.179
 5355HO4     OW21417   3.957   0.861   1.135
 5355HO4    HW121418   3.909   0.822   1.057
 5355HO4    HW221419   4.040   0.909   1.104
 5355HO4     MW21420   3.957   0.861   1.135
 5356HO4     OW21421   2.630   1.156   0.487
 5356HO4    HW121422   2.648   1.078   0.426
 5356HO4    HW221423   2.533   1.160   0.509
 5356HO4     MW21424   2.630   1.156   0.487
 5357HO4     OW21425   3.631   3.468   4.452
 5357HO4    HW121426   3.653   3.404   4.527
 5357HO4    HW221427   3.655   3.427   4.364
 5357HO4     MW21428   3.631   3.468   4.452
 5358HO4     OW21429   4.538   2.255   4.521
 5358HO4    HW121430   4.507   2.204   4.440
 5358HO4    HW221431   4.522   2.201   4.604
 5358HO4     MW21432   4.538   2.255   4.521
 5359HO4     OW21433   1.218   2.977   4.463
 5359HO4    HW121434   1.306   3.024   4.458
 5359HO4    HW221435   1.228   2.893   4.519
 5359HO4     MW21436   1.218   2.977   4.463
 5360HO4     OW21437   3.397   2.759   3.257
 5360HO4    HW121438   3.493   2.739   3.281
 5360HO4    HW221439   3.336   2.700   3.311
 5360HO4     MW21440   3.397   2.759   3.257
 5361HO4     OW21441   1.794   4.582   0.228
 5361HO4    HW121442   1.811   4.528   0.145
 5361HO4    HW221443   1.783   4.521   0.307
 5361HO4     MW21444   1.794   4.582   0.228
 5362HO4     OW21445   3.095   2.815   0.552
 5362HO4    HW121446   3.037   2.892   0.578
 5362HO4    HW221447   3.190   2.834   0.579
 5362HO4     MW21448   3.095   2.815   0.552
 5363HO4     OW21449   1.026   4.202   2.025
 5363HO4    HW121450   0.952   4.261   2.057
 5363HO4    HW221451   1.114   4.248   2.040
 5363HO4     MW21452   1.026   4.202   2.025
 5364HO4     OW21453   2.539   3.909   3.754
 5364HO4    HW121454   2.479   3.927   3.832
 5364HO4    HW221455   2.496   3.944   3.670
 5364HO4     MW21456   2.539   3.909   3.754
 5365HO4     OW21457   4.233   1.649   2.622
 5365HO4    HW121458   4.151   1.677   2.572
 5365HO4    HW221459   4.272   1.566   2.580
 5365HO4     MW21460   4.233   1.649   2.622
 5366HO4     OW21461   3.019   4.985   0.025
 5366HO4    HW121462   3.080   4.912   0.057
 5366HO4    HW221463   2.957   5.011   0.099
 5366HO4     MW21464   3.019   4.985   0.025
 5367HO4     OW21465   1.279   4.960   3.342
 5367HO4    HW121466   1.306   5.005   3.256
 5367HO4    HW221467   1.334   4.995   3.418
 5367HO4     MW21468   1.279   4.960   3.342
 5368HO4     OW21469   1.535   2.268   1.848
 5368HO4    HW121470   1.463   2.206   1.814
 5368HO4    HW221471   1.609   2.214   1.889
 5368HO4     MW21472   1.535   2.268   1.848
 5369HO4     OW21473   4.393   2.170   1.055
 5369HO4    HW121474   4.447   2.151   1.138
 5369HO4    HW221475   4.385   2.087   1.000
 5369HO4     MW21476   4.393   2.170   1.055
 5370HO4     OW21477   2.942   3.850   2.713
 5370HO4    HW121478   2.974   3.821   2.804
 5370HO4    HW221479   2.963   3.947   2.698
 5370HO4     MW21480   2.942   3.850   2.713
 5371HO4     OW21481   2.479   0.775   1.029
 5371HO4    HW121482   2.463   0.770   1.128
 5371HO4    HW221483   2.563   0.724   1.006
 5371HO4     MW21484   2.479   0.775   1.029
 5372HO4     OW21485   1.166   3.610   0.420
 5372HO4    HW121486   1.178   3.533   0.483
 5372HO4    HW221487   1.198   3.694   0.463
 5372HO4     MW21488   1.166   3.610   0.420
 5373HO4     OW21489   4.345   2.667   1.024
 5373HO4    HW121490   4.336   2.765   1.002
 5373HO4    HW221491   4.404   2.656   1.104
 5373HO4     MW21492   4.345   2.667   1.024
 5374HO4     OW21493   3.487   4.714   5.193
 5374HO4    HW121494   3.460   4.646   5.124
 5374HO4    HW221495   3.483   4.673   5.285
 5374HO4     MW21496   3.487   4.714   5.193
 5375HO4     OW21497   3.367   0.542   3.261
 5375HO4    HW121498   3.298   0.499   3.202
 5375HO4    HW221499   3.370   0.495   3.349
 5375HO4     MW21500   3.367   0.542   3.261
 5376HO4     OW21501   5.251   3.005   3.966
 5376HO4    HW121502   5.246   3.034   4.062
 5376HO4    HW221503   5.256   3.087   3.907
 5376HO4     MW21504   5.251   3.005   3.966
 5377HO4     OW21505   4.906   2.030   2.973
 5377HO4    HW121506   4.952   2.067   2.891
 5377HO4    HW221507   4.962   2.048   3.054
 5377HO4     MW21508   4.906   2.030   2.973
 5378HO4     OW21509   5.152   0.122   0.462
 5378HO4    HW121510   5.220   0.160   0.525
 5378HO4    HW221511   5.190   0.120   0.369
 5378HO4     MW21512   5.152   0.122   0.462
 5379HO4     OW21513   0.652   4.542   1.283
 5379HO4    HW121514   0.605   4.519   1.197
 5379HO4    HW221515   0.591   4.521   1.360
 5379HO4     MW21516   0.652   4.542   1.283
 5380HO4     OW21517   2.194   3.878   3.256
 5380HO4    HW121518   2.212   3.903   3.161
 5380HO4    HW221519   2.259   3.807   3.286
 5380HO4     MW21520   2.194   3.878   3.256
 5381HO4     OW21521   0.867   1.529   1.084
 5381HO4    HW121522   0.849   1.430   1.095
 5381HO4    HW221523   0.791   1.581   1.123
 5381HO4     MW21524   0.867   1.529   1.084
 5382HO4     OW21525   4.581   5.170   4.769
 5382HO4    HW121526   4.626   5.231   4.835
 5382HO4    HW221527   4.647   5.142   4.699
 5382HO4     MW21528   4.581   5.170   4.769
 5383HO4     OW21529   0.354   3.292   2.425
 5383HO4    HW121530   0.444   3.319   2.390
 5383HO4    HW221531   0.295   3.263   2.349
 5383HO4     MW21532   0.354   3.292   2.425
 5384HO4     OW21533   3.531   4.344   0.373
 5384HO4    HW121534   3.488   4.407   0.438
 5384HO4    HW221535   3.462   4.313   0.306
 5384HO4     MW21536   3.531   4.344   0.373
 5385HO4     OW21537   1.768   4.563   0.688
 5385HO4    HW121538   1.752   4.603   0.779
 5385HO4    HW221539   1.808   4.633   0.628
 5385HO4     MW21540   1.768   4.563   0.688
 5386HO4     OW21541   5.059   5.357   4.511
 5386HO4    HW121542   5.004   5.403   4.441
 5386HO4    HW221543   5.011   5.360   4.599
 5386HO4     MW21544   5.059   5.357   4.511
 5387HO4     OW21545   1.770   4.251   1.642
 5387HO4    HW121546   1.797   4.196   1.721
 5387HO4    HW221547   1.786   4.199   1.558
 5387HO4     MW21548   1.770   4.251   1.642
 5388HO4     OW21549   4.862   2.512   1.057
 5388HO4    HW121550   4.805   2.513   0.975
 5388HO4    HW221551   4.804   2.491   1.137
 5388HO4     MW21552   4.862   2.512   1.057
 5389HO4     OW21553   2.409   2.044   4.739
 5389HO4    HW121554   2.366   2.056   4.829
 5389HO4    HW221555   2.343   2.068   4.667
 5389HO4     MW21556   2.409   2.044   4.739
 5390HO4     OW21557   4.522   0.364   0.514
 5390HO4    HW121558   4.478   0.403   0.432
 5390HO4    HW221559   4.476   0.398   0.596
 5390HO4     MW21560   4.522   0.364   0.514
 5391HO4     OW21561   1.776   2.373   4.080
 5391HO4    HW121562   1.763   2.435   4.002
 5391HO4    HW221563   1.780   2.426   4.165
 5391HO4     MW21564   1.776   2.373   4.080
 5392HO4     OW21565   3.540   2.451   2.160
 5392HO4    HW121566   3.615   2.480   2.220
 5392HO4    HW221567   3.502   2.365   2.195
 5392HO4     MW21568   3.540   2.451   2.160
 5393HO4     OW21569   1.988   4.721   2.740
 5393HO4    HW121570   2.050   4.755   2.668
 5393HO4    HW221571   2.027   4.639   2.782
 5393HO4     MW21572   1.988   4.721   2.740
 5394HO4     OW21573   0.393   2.082   0.323
 5394HO4    HW121574   0.487   2.049   0.324
 5394HO4    HW221575   0.333   2.016   0.367
 5394HO4     MW21576   0.393   2.082   0.323
 5395HO4     OW21577   1.329   2.459   1.103
 5395HO4    HW121578   1.413   2.513   1.105
 5395HO4    HW221579   1.274   2.479   1.185
 5395HO4     MW21580   1.329   2.459   1.103
 5396HO4     OW21581   3.903   3.080   3.338
 5396HO4    HW121582   3.929   3.111   3.246
 5396HO4    HW221583   3.912   2.980   3.344
 5396HO4     MW21584   3.903   3.080   3.338
 5397HO4     OW21585   1.707   0.676   4.808
 5397HO4    HW121586   1.612   0.646   4.821
 5397HO4    HW221587   1.708   0.758   4.750
 5397HO4     MW21588   1.707   0.676   4.808
 5398HO4     OW21589   2.229   0.054   3.123
 5398HO4    HW121590   2.294  -0.013   3.087
 5398HO4    HW221591   2.264   0.090   3.210
 5398HO4     MW21592   2.229   0.054   3.123
 5399HO4     OW21593   3.140   4.015   1.011
 5399HO4    HW121594   3.210   3.958   1.055
 5399HO4    HW221595   3.182   4.099   0.976
 5399HO4     MW21596   3.140   4.015   1.011
 5400HO4     OW21597   4.513   3.735   2.845
 5400HO4    HW121598   4.606   3.733   2.882
 5400HO4    HW221599   4.507   3.806   2.774
 5400HO4     MW21600   4.513   3.735   2.845
 5401HO4     OW21601   5.231   4.976   1.553
 5401HO4    HW121602   5.234   4.970   1.653
 5401HO4    HW221603   5.170   4.904   1.518
 5401HO4     MW21604   5.231   4.976   1.553
 5402HO4     OW21605   2.386   4.943   0.338
 5402HO4    HW121606   2.296   4.928   0.295
 5402HO4    HW221607   2.458   4.933   0.268
 5402HO4     MW21608   2.386   4.943   0.338
 5403HO4     OW21609   1.973   5.321   3.537
 5403HO4    HW121610   1.914   5.344   3.615
 5403HO4    HW221611   1.945   5.232   3.500
 5403HO4     MW21612   1.973   5.321   3.537
 5404HO4     OW21613   0.519   5.333   0.524
 5404HO4    HW121614   0.459   5.409   0.496
 5404HO4    HW221615   0.493   5.302   0.616
 5404HO4     MW21616   0.519   5.333   0.524
 5405HO4     OW21617   1.095   3.728   4.024
 5405HO4    HW121618   1.110   3.688   4.115
 5405HO4    HW221619   1.165   3.798   4.006
 5405HO4     MW21620   1.095   3.728   4.024
 5406HO4     OW21621   3.034   0.338   2.456
 5406HO4    HW121622   2.982   0.303   2.535
 5406HO4    HW221623   2.973   0.349   2.378
 5406HO4     MW21624   3.034   0.338   2.456
 5407HO4     OW21625   0.869   3.094   2.553
 5407HO4    HW121626   0.921   3.068   2.635
 5407HO4    HW221627   0.888   3.027   2.480
 5407HO4     MW21628   0.869   3.094   2.553
 5408HO4     OW21629   1.407   3.408   2.705
 5408HO4    HW121630   1.312   3.381   2.723
 5408HO4    HW221631   1.465   3.379   2.782
 5408HO4     MW21632   1.407   3.408   2.705
 5409HO4     OW21633   4.731   1.009   5.148
 5409HO4    HW121634   4.776   1.086   5.101
 5409HO4    HW221635   4.714   0.935   5.082
 5409HO4     MW21636   4.731   1.009   5.148
 5410HO4     OW21637   0.697   4.067   3.899
 5410HO4    HW121638   0.790   4.031   3.888
 5410HO4    HW221639   0.700   4.167   3.903
 5410HO4     MW21640   0.697   4.067   3.899
 5411HO4     OW21641   3.397   1.322   1.920
 5411HO4    HW121642   3.452   1.242   1.946
 5411HO4    HW221643   3.300   1.299   1.929
 5411HO4     MW21644   3.397   1.322   1.920
 5412HO4     OW21645   3.019   2.325   2.396
 5412HO4    HW121646   3.009   2.257   2.470
 5412HO4    HW221647   3.005   2.280   2.308
 5412HO4     MW21648   3.019   2.325   2.396
 5413HO4     OW21649   5.044   0.708   1.672
 5413HO4    HW121650   4.961   0.712   1.728
 5413HO4    HW221651   5.096   0.625   1.694
 5413HO4     MW21652   5.044   0.708   1.672
 5414HO4     OW21653   2.642   0.208   5.171
 5414HO4    HW121654   2.653   0.205   5.072
 5414HO4    HW221655   2.605   0.120   5.203
 5414HO4     MW21656   2.642   0.208   5.171
 5415HO4     OW21657   1.852   2.391   2.650
 5415HO4    HW121658   1.893   2.412   2.739
 5415HO4    HW221659   1.886   2.456   2.582
 5415HO4     MW21660   1.852   2.391   2.650
 5416HO4     OW21661   2.185   3.726   0.767
 5416HO4    HW121662   2.240   3.663   0.712
 5416HO4    HW221663   2.108   3.677   0.809
 5416HO4     MW21664   2.185   3.726   0.767
 5417HO4     OW21665   2.934   4.382   2.746
 5417HO4    HW121666   2.974   4.338   2.665
 5417HO4    HW221667   2.907   4.476   2.723
 5417HO4     MW21668   2.934   4.382   2.746
 5418HO4     OW21669   0.637   2.995   4.855
 5418HO4    HW121670   0.598   3.083   4.885
 5418HO4    HW221671   0.725   2.980   4.901
 5418HO4     MW21672   0.637   2.995   4.855
 5419HO4     OW21673   0.686   5.029   4.188
 5419HO4    HW121674   0.629   5.030   4.105
 5419HO4    HW221675   0.660   4.951   4.246
 5419HO4     MW21676   0.686   5.029   4.188
 5420HO4     OW21677   4.987   1.063   2.184
 5420HO4    HW121678   5.035   1.043   2.269
 5420HO4    HW221679   5.052   1.063   2.107
 5420HO4     MW21680   4.987   1.063   2.184
 5421HO4     OW21681   5.392   3.862   4.758
 5421HO4    HW121682   5.296   3.875   4.733
 5421HO4    HW221683   5.451   3.884   4.680
 5421HO4     MW21684   5.392   3.862   4.758
 5422HO4     OW21685   2.498   0.086   4.731
 5422HO4    HW121686   2.589   0.045   4.731
 5422HO4    HW221687   2.452   0.065   4.818
 5422HO4     MW21688   2.498   0.086   4.731
 5423HO4     OW21689   4.156   2.709   0.682
 5423HO4    HW121690   4.097   2.780   0.641
 5423HO4    HW221691   4.245   2.708   0.636
 5423HO4     MW21692   4.156   2.709   0.682
 5424HO4     OW21693   2.818   2.910   1.657
 5424HO4    HW121694   2.787   3.001   1.685
 5424HO4    HW221695   2.917   2.913   1.640
 5424HO4     MW21696   2.818   2.910   1.657
 5425HO4     OW21697   4.377   3.510   3.854
 5425HO4    HW121698   4.385   3.456   3.770
 5425HO4    HW221699   4.424   3.463   3.929
 5425HO4     MW21700   4.377   3.510   3.854
 5426HO4     OW21701   2.113   4.686   3.138
 5426HO4    HW121702   2.206   4.717   3.161
 5426HO4    HW221703   2.103   4.683   3.038
 5426HO4     MW21704   2.113   4.686   3.138
 5427HO4     OW21705   0.855   1.956   3.990
 5427HO4    HW121706   0.871   2.004   3.903
 5427HO4    HW221707   0.870   2.019   4.067
 5427HO4     MW21708   0.855   1.956   3.990
 5428HO4     OW21709   1.676   2.703   1.302
 5428HO4    HW121710   1.728   2.760   1.238
 5428HO4    HW221711   1.695   2.606   1.284
 5428HO4     MW21712   1.676   2.703   1.302
 5429HO4     OW21713   3.638   0.400   5.476
 5429HO4    HW121714   3.581   0.370   5.398
 5429HO4    HW221715   3.645   0.324   5.542
 5429HO4     MW21716   3.638   0.400   5.476
 5430HO4     OW21717   0.355   1.148   2.290
 5430HO4    HW121718   0.411   1.146   2.373
 5430HO4    HW221719   0.356   1.241   2.252
 5430HO4     MW21720   0.355   1.148   2.290
 5431HO4     OW21721   2.887   4.155   3.363
 5431HO4    HW121722   2.926   4.164   3.456
 5431HO4    HW221723   2.961   4.154   3.296
 5431HO4     MW21724   2.887   4.155   3.363
 5432HO4     OW21725   2.493   5.327   2.776
 5432HO4    HW121726   2.443   5.240   2.772
 5432HO4    HW221727   2.433   5.398   2.813
 5432HO4     MW21728   2.493   5.327   2.776
 5433HO4     OW21729   3.329   4.678   0.553
 5433HO4    HW121730   3.365   4.771   0.544
 5433HO4    HW221731   3.404   4.612   0.541
 5433HO4     MW21732   3.329   4.678   0.553
 5434HO4     OW21733   4.484   4.044   3.986
 5434HO4    HW121734   4.421   4.106   3.939
 5434HO4    HW221735   4.438   3.956   4.005
 5434HO4     MW21736   4.484   4.044   3.986
 5435HO4     OW21737   1.330   3.282   3.776
 5435HO4    HW121738   1.403   3.304   3.711
 5435HO4    HW221739   1.356   3.314   3.868
 5435HO4     MW21740   1.330   3.282   3.776
 5436HO4     OW21741   4.906   4.556   4.631
 5436HO4    HW121742   4.934   4.642   4.676
 5436HO4    HW221743   4.963   4.480   4.666
 5436HO4     MW21744   4.906   4.556   4.631
 5437HO4     OW21745   4.446   4.946   4.551
 5437HO4    HW121746   4.358   4.950   4.599
 5437HO4    HW221747   4.473   4.850   4.537
 5437HO4     MW21748   4.446   4.946   4.551
 5438HO4     OW21749   2.968   5.083   1.624
 5438HO4    HW121750   2.907   5.159   1.599
 5438HO4    HW221751   3.063   5.111   1.612
 5438HO4     MW21752   2.968   5.083   1.624
 5439HO4     OW21753   1.574   1.196   0.663
 5439HO4    HW121754   1.491   1.139   0.663
 5439HO4    HW221755   1.620   1.189   0.574
 5439HO4     MW21756   1.574   1.196   0.663
 5440HO4     OW21757   2.038   4.409   5.416
 5440HO4    HW121758   1.988   4.484   5.372
 5440HO4    HW221759   1.984   4.324   5.408
 5440HO4     MW21760   2.038   4.409   5.416
 5441HO4     OW21761   3.498   2.524   5.162
 5441HO4    HW121762   3.428   2.464   5.121
 5441HO4    HW221763   3.458   2.573   5.241
 5441HO4     MW21764   3.498   2.524   5.162
 5442HO4     OW21765   3.720   2.892   1.334
 5442HO4    HW121766   3.761   2.839   1.410
 5442HO4    HW221767   3.623   2.907   1.353
 5442HO4     MW21768   3.720   2.892   1.334
 5443HO4     OW21769   0.200   5.332   0.233
 5443HO4    HW121770   0.213   5.327   0.133
 5443HO4    HW221771   0.104   5.316   0.255
 5443HO4     MW21772   0.200   5.332   0.233
 5444HO4     OW21773   1.405   0.040   3.706
 5444HO4    HW121774   1.417  -0.058   3.728
 5444HO4    HW221775   1.326   0.051   3.646
 5444HO4     MW21776   1.405   0.040   3.706
 5445HO4     OW21777   2.106   1.232   3.766
 5445HO4    HW121778   2.022   1.188   3.798
 5445HO4    HW221779   2.181   1.165   3.764
 5445HO4     MW21780   2.106   1.232   3.766
 5446HO4     OW21781   3.146   2.939   2.300
 5446HO4    HW121782   3.106   2.973   2.386
 5446HO4    HW221783   3.076   2.942   2.227
 5446HO4     MW21784   3.146   2.939   2.300
 5447HO4     OW21785   3.925   1.273   2.008
 5447HO4    HW121786   3.908   1.372   2.002
 5447HO4    HW221787   3.838   1.224   2.013
 5447HO4     MW21788   3.925   1.273   2.008
 5448HO4     OW21789   0.791   3.388   4.093
 5448HO4    HW121790   0.878   3.339   4.083
 5448HO4    HW221791   0.792   3.469   4.034
 5448HO4     MW21792   0.791   3.388   4.093
 5449HO4     OW21793   5.014   5.455   0.862
 5449HO4    HW121794   5.015   5.456   0.761
 5449HO4    HW221795   5.084   5.517   0.897
 5449HO4     MW21796   5.014   5.455   0.862
 5450HO4     OW21797   4.546   2.837   5.062
 5450HO4    HW121798   4.541   2.812   5.159
 5450HO4    HW221799   4.461   2.811   5.016
 5450HO4     MW21800   4.546   2.837   5.062
 5451HO4     OW21801   4.932   5.240   1.657
 5451HO4    HW121802   4.855   5.198   1.609
 5451HO4    HW221803   4.898   5.310   1.720
 5451HO4     MW21804   4.932   5.240   1.657
 5452HO4     OW21805   0.336   0.355   2.017
 5452HO4    HW121806   0.279   0.437   2.016
 5452HO4    HW221807   0.296   0.287   2.079
 5452HO4     MW21808   0.336   0.355   2.017
 5453HO4     OW21809   2.763   2.182   5.272
 5453HO4    HW121810   2.688   2.242   5.300
 5453HO4    HW221811   2.823   2.164   5.351
 5453HO4     MW21812   2.763   2.182   5.272
 5454HO4     OW21813   1.465   3.938   4.903
 5454HO4    HW121814   1.447   3.863   4.967
 5454HO4    HW221815   1.439   3.910   4.810
 5454HO4     MW21816   1.465   3.938   4.903
 5455HO4     OW21817   1.463   3.614   5.078
 5455HO4    HW121818   1.466   3.633   5.176
 5455HO4    HW221819   1.489   3.696   5.027
 5455HO4     MW21820   1.463   3.614   5.078
 5456HO4     OW21821   1.075   0.338   1.981
 5456HO4    HW121822   1.084   0.241   2.007
 5456HO4    HW221823   1.024   0.387   2.053
 5456HO4     MW21824   1.075   0.338   1.981
 5457HO4     OW21825   2.212   4.807   4.305
 5457HO4    HW121826   2.243   4.902   4.319
 5457HO4    HW221827   2.239   4.751   4.383
 5457HO4     MW21828   2.212   4.807   4.305
 5458HO4     OW21829   4.025   2.555   0.058
 5458HO4    HW121830   3.986   2.578  -0.031
 5458HO4    HW221831   3.976   2.606   0.130
 5458HO4     MW21832   4.025   2.555   0.058
 5459HO4     OW21833   2.499   0.146   0.447
 5459HO4    HW121834   2.453   0.166   0.359
 5459HO4    HW221835   2.499   0.046   0.462
 5459HO4     MW21836   2.499   0.146   0.447
 5460HO4     OW21837   4.985   0.401   1.206
 5460HO4    HW121838   5.023   0.417   1.114
 5460HO4    HW221839   4.989   0.302   1.226
 5460HO4     MW21840   4.985   0.401   1.206
 5461HO4     OW21841   0.704   1.710   4.276
 5461HO4    HW121842   0.677   1.671   4.364
 5461HO4    HW221843   0.784   1.660   4.240
 5461HO4     MW21844   0.704   1.710   4.276
 5462HO4     OW21845   4.843   5.411   4.120
 5462HO4    HW121846   4.844   5.319   4.160
 5462HO4    HW221847   4.769   5.417   4.052
 5462HO4     MW21848   4.843   5.411   4.120
 5463HO4     OW21849   0.187   2.807   3.786
 5463HO4    HW121850   0.138   2.772   3.706
 5463HO4    HW221851   0.142   2.774   3.869
 5463HO4     MW21852   0.187   2.807   3.786
 5464HO4     OW21853   1.440   3.596   1.283
 5464HO4    HW121854   1.466   3.559   1.372
 5464HO4    HW221855   1.485   3.542   1.210
 5464HO4     MW21856   1.440   3.596   1.283
 5465HO4     OW21857   0.167   3.429   1.501
 5465HO4    HW121858   0.140   3.356   1.437
 5465HO4    HW221859   0.091   3.448   1.563
 5465HO4     MW21860   0.167   3.429   1.501
 5466HO4     OW21861   1.436   2.143   2.164
 5466HO4    HW121862   1.378   2.089   2.226
 5466HO4    HW221863   1.397   2.235   2.152
 5466HO4     MW21864   1.436   2.143   2.164
 5467HO4     OW21865   4.960   4.033   3.566
 5467HO4    HW121866   4.996   3.982   3.486
 5467HO4    HW221867   4.975   4.131   3.552
 5467HO4     MW21868   4.960   4.033   3.566
 5468HO4     OW21869   5.182   2.242   0.892
 5468HO4    HW121870   5.103   2.218   0.949
 5468HO4    HW221871   5.150   2.282   0.805
 5468HO4     MW21872   5.182   2.242   0.892
 5469HO4     OW21873   3.858   2.364   4.256
 5469HO4    HW121874   3.808   2.334   4.174
 5469HO4    HW221875   3.802   2.345   4.337
 5469HO4     MW21876   3.858   2.364   4.256
 5470HO4     OW21877   4.296   2.604   1.366
 5470HO4    HW121878   4.221   2.670   1.365
 5470HO4    HW221879   4.369   2.635   1.305
 5470HO4     MW21880   4.296   2.604   1.366
 5471HO4     OW21881   1.207   4.460   0.589
 5471HO4    HW121882   1.239   4.555   0.583
 5471HO4    HW221883   1.285   4.398   0.603
 5471HO4     MW21884   1.207   4.460   0.589
 5472HO4     OW21885   0.784   2.997   1.707
 5472HO4    HW121886   0.880   3.025   1.700
 5472HO4    HW221887   0.779   2.898   1.724
 5472HO4     MW21888   0.784   2.997   1.707
 5473HO4     OW21889   0.197   1.634   2.966
 5473HO4    HW121890   0.284   1.598   2.930
 5473HO4    HW221891   0.187   1.730   2.938
 5473HO4     MW21892   0.197   1.634   2.966
 5474HO4     OW21893   0.519   0.833   2.162
 5474HO4    HW121894   0.419   0.829   2.177
 5474HO4    HW221895   0.540   0.800   2.070
 5474HO4     MW21896   0.519   0.833   2.162
 5475HO4     OW21897   2.946   4.450   4.991
 5475HO4    HW121898   2.962   4.406   4.902
 5475HO4    HW221899   2.992   4.398   5.063
 5475HO4     MW21900   2.946   4.450   4.991
 5476HO4     OW21901   3.005   2.074   2.812
 5476HO4    HW121902   3.033   2.057   2.907
 5476HO4    HW221903   3.062   2.019   2.750
 5476HO4     MW21904   3.005   2.074   2.812
 5477HO4     OW21905   4.308   2.346   4.695
 5477HO4    HW121906   4.373   2.373   4.624
 5477HO4    HW221907   4.232   2.295   4.654
 5477HO4     MW21908   4.308   2.346   4.695
 5478HO4     OW21909   5.193   4.122   3.997
 5478HO4    HW121910   5.182   4.086   3.904
 5478HO4    HW221911   5.205   4.047   4.062
 5478HO4     MW21912   5.193   4.122   3.997
 5479HO4     OW21913   1.104   4.301   4.871
 5479HO4    HW121914   1.052   4.386   4.867
 5479HO4    HW221915   1.045   4.224   4.845
 5479HO4     MW21916   1.104   4.301   4.871
 5480HO4     OW21917   0.476   3.603   0.065
 5480HO4    HW121918   0.518   3.589   0.155
 5480HO4    HW221919   0.545   3.636   0.000
 5480HO4     MW21920   0.476   3.603   0.065
 5481HO4     OW21921   3.530   0.808   4.369
 5481HO4    HW121922   3.446   0.859   4.394
 5481HO4    HW221923   3.529   0.790   4.270
 5481HO4     MW21924   3.530   0.808   4.369
 5482HO4     OW21925   3.834   4.564   3.543
 5482HO4    HW121926   3.777   4.646   3.555
 5482HO4    HW221927   3.904   4.561   3.616
 5482HO4     MW21928   3.834   4.564   3.543
 5483HO4     OW21929   4.818   2.456   2.101
 5483HO4    HW121930   4.764   2.434   2.020
 5483HO4    HW221931   4.763   2.439   2.184
 5483HO4     MW21932   4.818   2.456   2.101
 5484HO4     OW21933   3.975   0.297   0.853
 5484HO4    HW121934   4.014   0.342   0.773
 5484HO4    HW221935   3.928   0.212   0.824
 5484HO4     MW21936   3.975   0.297   0.853
 5485HO4     OW21937   3.723   1.770   1.258
 5485HO4    HW121938   3.642   1.770   1.317
 5485HO4    HW221939   3.695   1.760   1.162
 5485HO4     MW21940   3.723   1.770   1.258
 5486HO4     OW21941   1.617   3.181   1.567
 5486HO4    HW121942   1.570   3.125   1.635
 5486HO4    HW221943   1.565   3.265   1.551
 5486HO4     MW21944   1.617   3.181   1.567
 5487HO4     OW21945   2.106   3.511   4.052
 5487HO4    HW121946   2.110   3.450   3.972
 5487HO4    HW221947   2.111   3.607   4.022
 5487HO4     MW21948   2.106   3.511   4.052
 5488HO4     OW21949   2.624   4.000   4.652
 5488HO4    HW121950   2.548   3.939   4.627
 5488HO4    HW221951   2.712   3.955   4.631
 5488HO4     MW21952   2.624   4.000   4.652
 5489HO4     OW21953   1.375   4.667   4.558
 5489HO4    HW121954   1.332   4.740   4.613
 5489HO4    HW221955   1.374   4.695   4.461
 5489HO4     MW21956   1.375   4.667   4.558
 5490HO4     OW21957   0.282   3.486   4.848
 5490HO4    HW121958   0.198   3.469   4.900
 5490HO4    HW221959   0.337   3.401   4.843
 5490HO4     MW21960   0.282   3.486   4.848
 5491HO4     OW21961   2.949   2.130   4.043
 5491HO4    HW121962   2.966   2.207   4.105
 5491HO4    HW221963   2.883   2.158   3.973
 5491HO4     MW21964   2.949   2.130   4.043
 5492HO4     OW21965   5.254   1.855   4.332
 5492HO4    HW121966   5.252   1.926   4.261
 5492HO4    HW221967   5.174   1.864   4.391
 5492HO4     MW21968   5.254   1.855   4.332
 5493HO4     OW21969   2.948   3.714   3.703
 5493HO4    HW121970   2.925   3.751   3.793
 5493HO4    HW221971   2.975   3.789   3.642
 5493HO4     MW21972   2.948   3.714   3.703
 5494HO4     OW21973   4.584   1.657   1.182
 5494HO4    HW121974   4.594   1.699   1.092
 5494HO4    HW221975   4.608   1.723   1.253
 5494HO4     MW21976   4.584   1.657   1.182
 5495HO4     OW21977   0.779   0.859   4.053
 5495HO4    HW121978   0.718   0.928   4.094
 5495HO4    HW221979   0.869   0.863   4.097
 5495HO4     MW21980   0.779   0.859   4.053
 5496HO4     OW21981   3.151   0.707   5.322
 5496HO4    HW121982   3.117   0.741   5.234
 5496HO4    HW221983   3.205   0.779   5.367
 5496HO4     MW21984   3.151   0.707   5.322
 5497HO4     OW21985   0.642   1.523   4.488
 5497HO4    HW121986   0.736   1.538   4.456
 5497HO4    HW221987   0.588   1.606   4.472
 5497HO4     MW21988   0.642   1.523   4.488
 5498HO4     OW21989   2.498   3.670   2.938
 5498HO4    HW121990   2.483   3.585   2.990
 5498HO4    HW221991   2.597   3.690   2.935
 5498HO4     MW21992   2.498   3.670   2.938
 5499HO4     OW21993   1.255   1.919   2.558
 5499HO4    HW121994   1.305   1.886   2.477
 5499HO4    HW221995   1.288   2.009   2.584
 5499HO4     MW21996   1.255   1.919   2.558
 5500HO4     OW21997   1.097   3.562   2.308
 5500HO4    HW121998   1.088   3.481   2.367
 5500HO4    HW221999   1.032   3.555   2.232
 5500HO4     MW22000   1.097   3.562   2.308
   5.48000   5.48000   5.48000
