Protein
22000
    1SOL     OW    1   2.663   2.707   2.714
    1SOL    HW1    2   2.668   2.721   2.808
    1SOL    HW2    3   2.573   2.727   2.691
    1SOL     MW    4   2.652   2.711   2.723
    2SOL     OW    5   2.615   1.142   1.498
    2SOL    HW1    6   2.662   1.115   1.577
    2SOL    HW2    7   2.539   1.190   1.531
    2SOL     MW    8   2.611   1.144   1.512
    3SOL     OW    9   2.618   2.057   5.404
    3SOL    HW1   10   2.672   1.980   5.424
    3SOL    HW2   11   2.537   2.022   5.370
    3SOL     MW   12   2.615   2.043   5.403
    4SOL     OW   13   4.681   4.280   1.646
    4SOL    HW1   14   4.770   4.284   1.611
    4SOL    HW2   15   4.677   4.350   1.711
    4SOL     MW   16   4.692   4.290   1.650
    5SOL     OW   17   4.076   2.596   3.199
    5SOL    HW1   18   4.065   2.503   3.219
    5SOL    HW2   19   4.057   2.602   3.105
    5SOL     MW   20   4.072   2.584   3.189
    6SOL     OW   21   2.881   0.295   3.760
    6SOL    HW1   22   2.868   0.313   3.853
    6SOL    HW2   23   2.876   0.381   3.718
    6SOL     MW   24   2.879   0.308   3.766
    7SOL     OW   25   1.307   0.068   2.165
    7SOL    HW1   26   1.300   0.151   2.211
    7SOL    HW2   27   1.333   0.092   2.076
    7SOL     MW   28   1.309   0.081   2.159
    8SOL     OW   29   0.704   5.072   2.161
    8SOL    HW1   30   0.749   5.031   2.234
    8SOL    HW2   31   0.771   5.125   2.118
    8SOL     MW   32   0.719   5.074   2.165
    9SOL     OW   33   0.009   5.066   1.096
    9SOL    HW1   34   0.020   5.117   1.177
    9SOL    HW2   35  -0.034   5.127   1.035
    9SOL     MW   36   0.005   5.080   1.099
   10SOL     OW   37   0.980   2.284   5.294
   10SOL    HW1   38   1.059   2.333   5.314
   10SOL    HW2   39   0.970   2.224   5.368
   10SOL     MW   40   0.989   2.283   5.306
   11SOL     OW   41   0.717   2.579   2.642
   11SOL    HW1   42   0.636   2.592   2.592
   11SOL    HW2   43   0.737   2.666   2.677
   11SOL     MW   44   0.709   2.592   2.640
   12SOL     OW   45   2.795   3.345   0.724
   12SOL    HW1   46   2.865   3.295   0.681
   12SOL    HW2   47   2.840   3.399   0.789
   12SOL     MW   48   2.810   3.345   0.727
   13SOL     OW   49   3.473   0.668   1.512
   13SOL    HW1   50   3.540   0.725   1.549
   13SOL    HW2   51   3.513   0.633   1.432
   13SOL     MW   52   3.487   0.671   1.506
   14SOL     OW   53   2.266   4.459   1.209
   14SOL    HW1   54   2.289   4.417   1.292
   14SOL    HW2   55   2.257   4.552   1.231
   14SOL     MW   56   2.268   4.466   1.222
   15SOL     OW   57   3.469   4.637   1.209
   15SOL    HW1   58   3.504   4.724   1.225
   15SOL    HW2   59   3.392   4.631   1.266
   15SOL     MW   60   3.463   4.647   1.219
   16SOL     OW   61   3.075   3.811   0.596
   16SOL    HW1   62   3.030   3.830   0.514
   16SOL    HW2   63   3.125   3.891   0.614
   16SOL     MW   64   3.075   3.824   0.588
   17SOL     OW   65   0.397   1.630   2.164
   17SOL    HW1   66   0.472   1.689   2.158
   17SOL    HW2   67   0.330   1.670   2.108
   17SOL     MW   68   0.398   1.643   2.156
   18SOL     OW   69   3.337   4.861   4.013
   18SOL    HW1   70   3.430   4.859   4.037
   18SOL    HW2   71   3.304   4.776   4.040
   18SOL     MW   72   3.345   4.850   4.019
   19SOL     OW   73   1.584   1.284   3.919
   19SOL    HW1   74   1.638   1.301   3.841
   19SOL    HW2   75   1.594   1.190   3.934
   19SOL     MW   76   1.592   1.274   3.911
   20SOL     OW   77   3.842   2.490   4.461
   20SOL    HW1   78   3.929   2.466   4.429
   20SOL    HW2   79   3.831   2.582   4.435
   20SOL     MW   80   3.852   2.499   4.453
   21SOL     OW   81   1.945   1.540   0.492
   21SOL    HW1   82   1.953   1.472   0.425
   21SOL    HW2   83   1.880   1.601   0.456
   21SOL     MW   84   1.938   1.539   0.478
   22SOL     OW   85   1.489   5.145   0.257
   22SOL    HW1   86   1.495   5.081   0.328
   22SOL    HW2   87   1.469   5.092   0.179
   22SOL     MW   88   1.487   5.130   0.256
   23SOL     OW   89   3.122   4.339   2.313
   23SOL    HW1   90   3.122   4.336   2.217
   23SOL    HW2   91   3.130   4.432   2.334
   23SOL     MW   92   3.123   4.350   2.303
   24SOL     OW   93   4.805   3.963   2.118
   24SOL    HW1   94   4.806   3.952   2.213
   24SOL    HW2   95   4.716   3.992   2.097
   24SOL     MW   96   4.794   3.965   2.127
   25SOL     OW   97   3.648   2.335   3.435
   25SOL    HW1   98   3.675   2.246   3.461
   25SOL    HW2   99   3.671   2.389   3.511
   25SOL     MW  100   3.654   2.330   3.448
   26SOL     OW  101   2.701   4.267   2.174
   26SOL    HW1  102   2.768   4.262   2.243
   26SOL    HW2  103   2.714   4.352   2.133
   26SOL     MW  104   2.711   4.277   2.178
   27SOL     OW  105   5.339   1.483   3.804
   27SOL    HW1  106   5.404   1.525   3.746
   27SOL    HW2  107   5.327   1.545   3.876
   27SOL     MW  108   5.346   1.497   3.806
   28SOL     OW  109   4.034   3.926   0.536
   28SOL    HW1  110   3.974   3.922   0.461
   28SOL    HW2  111   4.063   4.017   0.539
   28SOL     MW  112   4.030   3.937   0.527
   29SOL     OW  113   1.626   1.018   3.947
   29SOL    HW1  114   1.643   0.993   4.038
   29SOL    HW2  115   1.576   0.944   3.912
   29SOL     MW  116   1.622   1.005   3.954
   30SOL     OW  117   3.312   1.583   2.775
   30SOL    HW1  118   3.302   1.678   2.772
   30SOL    HW2  119   3.362   1.562   2.696
   30SOL     MW  120   3.317   1.593   2.765
   31SOL     OW  121   0.588   0.202   1.812
   31SOL    HW1  122   0.515   0.217   1.873
   31SOL    HW2  123   0.546   0.169   1.732
   31SOL     MW  124   0.573   0.200   1.810
   32SOL     OW  125   3.062   2.318   1.501
   32SOL    HW1  126   3.017   2.391   1.543
   32SOL    HW2  127   3.005   2.293   1.429
   32SOL     MW  128   3.049   2.324   1.497
   33SOL     OW  129   3.906   4.154   5.061
   33SOL    HW1  130   3.896   4.065   5.028
   33SOL    HW2  131   3.843   4.206   5.012
   33SOL     MW  132   3.897   4.149   5.051
   34SOL     OW  133   4.141   1.793   0.423
   34SOL    HW1  134   4.130   1.717   0.479
   34SOL    HW2  135   4.236   1.807   0.420
   34SOL     MW  136   4.152   1.785   0.429
   35SOL     OW  137   1.469   2.736   1.698
   35SOL    HW1  138   1.461   2.783   1.781
   35SOL    HW2  139   1.519   2.795   1.642
   35SOL     MW  140   1.475   2.749   1.702
   36SOL     OW  141   5.420   2.725   4.721
   36SOL    HW1  142   5.431   2.705   4.814
   36SOL    HW2  143   5.457   2.812   4.711
   36SOL     MW  144   5.426   2.733   4.732
   37SOL     OW  145   3.968   1.565   2.546
   37SOL    HW1  146   3.992   1.655   2.566
   37SOL    HW2  147   3.908   1.571   2.472
   37SOL     MW  148   3.964   1.577   2.539
   38SOL     OW  149   1.720   5.418   3.716
   38SOL    HW1  150   1.710   5.431   3.810
   38SOL    HW2  151   1.638   5.449   3.677
   38SOL     MW  152   1.708   5.424   3.723
   39SOL     OW  153   1.036   4.019   2.919
   39SOL    HW1  154   0.956   4.012   2.867
   39SOL    HW2  155   1.020   3.962   2.995
   39SOL     MW  156   1.023   4.011   2.922
   40SOL     OW  157   4.133   3.199   4.395
   40SOL    HW1  158   4.192   3.205   4.320
   40SOL    HW2  159   4.151   3.113   4.433
   40SOL     MW  160   4.143   3.189   4.390
   41SOL     OW  161   2.474   1.645   5.386
   41SOL    HW1  162   2.379   1.657   5.395
   41SOL    HW2  163   2.486   1.551   5.378
   41SOL     MW  164   2.463   1.635   5.386
   42SOL     OW  165   2.196   0.865   0.875
   42SOL    HW1  166   2.168   0.950   0.909
   42SOL    HW2  167   2.291   0.875   0.860
   42SOL     MW  168   2.205   0.877   0.877
   43SOL     OW  169   4.614   2.746   2.037
   43SOL    HW1  170   4.637   2.721   1.948
   43SOL    HW2  171   4.541   2.808   2.027
   43SOL     MW  172   4.608   2.751   2.025
   44SOL     OW  173   1.632   1.159   3.093
   44SOL    HW1  174   1.591   1.159   3.180
   44SOL    HW2  175   1.708   1.216   3.103
   44SOL     MW  176   1.637   1.166   3.105
   45SOL     OW  177   5.254   3.958   2.420
   45SOL    HW1  178   5.244   4.021   2.348
   45SOL    HW2  179   5.214   4.002   2.495
   45SOL     MW  180   5.248   3.972   2.420
   46SOL     OW  181   4.110   4.645   3.689
   46SOL    HW1  182   4.195   4.610   3.666
   46SOL    HW2  183   4.060   4.570   3.720
   46SOL     MW  184   4.114   4.631   3.690
   47SOL     OW  185   3.057   2.722   3.002
   47SOL    HW1  186   3.058   2.726   2.907
   47SOL    HW2  187   3.001   2.647   3.023
   47SOL     MW  188   3.050   2.713   2.993
   48SOL     OW  189   3.170   0.459   0.701
   48SOL    HW1  190   3.197   0.495   0.785
   48SOL    HW2  191   3.249   0.416   0.667
   48SOL     MW  192   3.184   0.458   0.707
   49SOL     OW  193   2.353   1.232   2.611
   49SOL    HW1  194   2.331   1.252   2.520
   49SOL    HW2  195   2.404   1.151   2.606
   49SOL     MW  196   2.357   1.224   2.599
   50SOL     OW  197   3.730   1.306   5.351
   50SOL    HW1  198   3.654   1.364   5.359
   50SOL    HW2  199   3.711   1.253   5.274
   50SOL     MW  200   3.718   1.306   5.342
   51SOL     OW  201   1.946   1.878   5.346
   51SOL    HW1  202   1.869   1.880   5.403
   51SOL    HW2  203   1.936   1.954   5.290
   51SOL     MW  204   1.935   1.888   5.346
   52SOL     OW  205   3.420   2.446   2.460
   52SOL    HW1  206   3.479   2.440   2.535
   52SOL    HW2  207   3.344   2.393   2.486
   52SOL     MW  208   3.418   2.438   2.473
   53SOL     OW  209   3.775   0.307   5.013
   53SOL    HW1  210   3.813   0.394   5.020
   53SOL    HW2  211   3.775   0.288   4.919
   53SOL     MW  212   3.780   0.316   5.002
   54SOL     OW  213   4.197   3.185   2.892
   54SOL    HW1  214   4.275   3.153   2.846
   54SOL    HW2  215   4.212   3.280   2.900
   54SOL     MW  216   4.209   3.193   2.887
   55SOL     OW  217   2.955   2.102   1.083
   55SOL    HW1  218   2.883   2.097   1.020
   55SOL    HW2  219   3.027   2.142   1.035
   55SOL     MW  220   2.955   2.106   1.069
   56SOL     OW  221   5.282   1.269   1.687
   56SOL    HW1  222   5.331   1.192   1.716
   56SOL    HW2  223   5.287   1.330   1.761
   56SOL     MW  224   5.289   1.267   1.701
   57SOL     OW  225   3.566   3.443   0.705
   57SOL    HW1  226   3.481   3.454   0.664
   57SOL    HW2  227   3.602   3.532   0.711
   57SOL     MW  228   3.560   3.456   0.700
   58SOL     OW  229   0.148   2.289   0.093
   58SOL    HW1  230   0.102   2.300   0.009
   58SOL    HW2  231   0.083   2.249   0.150
   58SOL     MW  232   0.134   2.285   0.089
   59SOL     OW  233   3.357   2.654   3.947
   59SOL    HW1  234   3.394   2.738   3.974
   59SOL    HW2  235   3.279   2.677   3.896
   59SOL     MW  236   3.351   2.668   3.944
   60SOL     OW  237   0.983   2.205   4.286
   60SOL    HW1  238   0.893   2.220   4.256
   60SOL    HW2  239   1.024   2.156   4.215
   60SOL     MW  240   0.977   2.201   4.273
   61SOL     OW  241   1.454   0.905   2.272
   61SOL    HW1  242   1.374   0.867   2.235
   61SOL    HW2  243   1.515   0.832   2.278
   61SOL     MW  244   1.451   0.891   2.268
   62SOL     OW  245   0.729   2.539   3.922
   62SOL    HW1  246   0.694   2.450   3.923
   62SOL    HW2  247   0.798   2.537   3.855
   62SOL     MW  248   0.734   2.528   3.914
   63SOL     OW  249   3.325   2.497   2.056
   63SOL    HW1  250   3.324   2.443   1.977
   63SOL    HW2  251   3.239   2.483   2.095
   63SOL     MW  252   3.314   2.488   2.051
   64SOL     OW  253   2.392   4.422   3.276
   64SOL    HW1  254   2.418   4.474   3.200
   64SOL    HW2  255   2.466   4.429   3.336
   64SOL     MW  256   2.405   4.429   3.274
   65SOL     OW  257   0.360   2.551   2.934
   65SOL    HW1  258   0.323   2.474   2.977
   65SOL    HW2  259   0.445   2.522   2.902
   65SOL     MW  260   0.366   2.538   2.936
   66SOL     OW  261   1.887   3.375   0.103
   66SOL    HW1  262   1.963   3.415   0.145
   66SOL    HW2  263   1.920   3.343   0.019
   66SOL     MW  264   1.901   3.376   0.098
   67SOL     OW  265   2.444   0.934   2.239
   67SOL    HW1  266   2.539   0.925   2.243
   67SOL    HW2  267   2.417   0.944   2.331
   67SOL     MW  268   2.453   0.934   2.252
   68SOL     OW  269   0.543   3.482   3.104
   68SOL    HW1  270   0.454   3.464   3.133
   68SOL    HW2  271   0.597   3.465   3.182
   68SOL     MW  272   0.539   3.477   3.118
   69SOL     OW  273   0.265   1.347   4.589
   69SOL    HW1  274   0.194   1.400   4.553
   69SOL    HW2  275   0.272   1.375   4.681
   69SOL     MW  276   0.257   1.357   4.596
   70SOL     OW  277   0.349   0.488   0.601
   70SOL    HW1  278   0.419   0.542   0.637
   70SOL    HW2  279   0.392   0.405   0.581
   70SOL     MW  280   0.364   0.484   0.603
   71SOL     OW  281   1.435   3.387   2.965
   71SOL    HW1  282   1.355   3.418   2.923
   71SOL    HW2  283   1.443   3.439   3.045
   71SOL     MW  284   1.426   3.397   2.970
   72SOL     OW  285   1.353   2.963   2.888
   72SOL    HW1  286   1.294   2.972   2.813
   72SOL    HW2  287   1.324   3.031   2.950
   72SOL     MW  288   1.342   2.973   2.887
   73SOL     OW  289   3.482   3.682   4.462
   73SOL    HW1  290   3.548   3.750   4.475
   73SOL    HW2  291   3.533   3.601   4.457
   73SOL     MW  292   3.497   3.680   4.463
   74SOL     OW  293   5.077   1.044   4.898
   74SOL    HW1  294   5.122   1.093   4.967
   74SOL    HW2  295   5.081   0.953   4.926
   74SOL     MW  296   5.083   1.039   4.911
   75SOL     OW  297   1.331   4.291   5.304
   75SOL    HW1  298   1.245   4.254   5.322
   75SOL    HW2  299   1.323   4.384   5.327
   75SOL     MW  300   1.319   4.298   5.310
   76SOL     OW  301   2.646   1.079   0.868
   76SOL    HW1  302   2.713   1.078   0.800
   76SOL    HW2  303   2.672   1.150   0.926
   76SOL     MW  304   2.658   1.088   0.867
   77SOL     OW  305   2.798   0.849   0.102
   77SOL    HW1  306   2.844   0.819   0.023
   77SOL    HW2  307   2.712   0.876   0.070
   77SOL     MW  308   2.793   0.849   0.088
   78SOL     OW  309   2.292   4.078   2.342
   78SOL    HW1  310   2.372   4.130   2.348
   78SOL    HW2  311   2.316   4.002   2.289
   78SOL     MW  312   2.305   4.075   2.336
   79SOL     OW  313   3.669   4.440   2.042
   79SOL    HW1  314   3.638   4.401   1.960
   79SOL    HW2  315   3.702   4.527   2.016
   79SOL     MW  316   3.670   4.446   2.028
   80SOL     OW  317   1.156   2.450   2.636
   80SOL    HW1  318   1.151   2.406   2.552
   80SOL    HW2  319   1.086   2.411   2.688
   80SOL     MW  320   1.147   2.440   2.632
   81SOL     OW  321   0.567   1.976   0.703
   81SOL    HW1  322   0.640   2.036   0.716
   81SOL    HW2  323   0.586   1.902   0.762
   81SOL     MW  324   0.579   1.974   0.712
   82SOL     OW  325   4.192   3.848   1.142
   82SOL    HW1  326   4.220   3.932   1.179
   82SOL    HW2  327   4.210   3.785   1.212
   82SOL     MW  328   4.198   3.851   1.156
   83SOL     OW  329   4.476   2.978   0.209
   83SOL    HW1  330   4.387   2.989   0.175
   83SOL    HW2  331   4.496   2.885   0.196
   83SOL     MW  332   4.467   2.968   0.203
   84SOL     OW  333   0.608   2.948   2.028
   84SOL    HW1  334   0.630   2.875   2.085
   84SOL    HW2  335   0.671   2.941   1.956
   84SOL     MW  336   0.619   2.938   2.026
   85SOL     OW  337   5.035   4.722   2.566
   85SOL    HW1  338   5.043   4.660   2.494
   85SOL    HW2  339   4.961   4.689   2.617
   85SOL     MW  340   5.027   4.710   2.563
   86SOL     OW  341   5.211   5.334   0.524
   86SOL    HW1  342   5.227   5.244   0.552
   86SOL    HW2  343   5.267   5.346   0.448
   86SOL     MW  344   5.220   5.324   0.518
   87SOL     OW  345   2.037   1.147   0.477
   87SOL    HW1  346   2.035   1.098   0.395
   87SOL    HW2  347   2.054   1.081   0.544
   87SOL     MW  348   2.039   1.133   0.475
   88SOL     OW  349   2.074   1.878   0.323
   88SOL    HW1  350   2.033   1.874   0.409
   88SOL    HW2  351   2.141   1.946   0.331
   88SOL     MW  352   2.078   1.886   0.335
   89SOL     OW  353   5.149   4.011   1.219
   89SOL    HW1  354   5.244   4.008   1.229
   89SOL    HW2  355   5.127   3.925   1.183
   89SOL     MW  356   5.159   3.999   1.215
   90SOL     OW  357   0.227   4.943   4.793
   90SOL    HW1  358   0.242   4.945   4.887
   90SOL    HW2  359   0.182   4.860   4.777
   90SOL     MW  360   0.223   4.933   4.803
   91SOL     OW  361   4.572   1.492   4.610
   91SOL    HW1  362   4.522   1.439   4.549
   91SOL    HW2  363   4.647   1.523   4.559
   91SOL     MW  364   4.575   1.489   4.596
   92SOL     OW  365   1.968   2.175   2.516
   92SOL    HW1  366   1.944   2.257   2.558
   92SOL    HW2  367   2.057   2.157   2.547
   92SOL     MW  368   1.976   2.183   2.526
   93SOL     OW  369   2.256   0.011   0.463
   93SOL    HW1  370   2.192   0.059   0.515
   93SOL    HW2  371   2.204  -0.044   0.405
   93SOL     MW  372   2.241   0.010   0.462
   94SOL     OW  373   4.507   1.734   2.670
   94SOL    HW1  374   4.413   1.720   2.684
   94SOL    HW2  375   4.538   1.776   2.750
   94SOL     MW  376   4.499   1.737   2.682
   95SOL     OW  377   5.001   2.214   2.064
   95SOL    HW1  378   4.932   2.278   2.080
   95SOL    HW2  379   4.965   2.157   1.997
   95SOL     MW  380   4.988   2.215   2.057
   96SOL     OW  381   1.208   0.330   1.799
   96SOL    HW1  382   1.133   0.280   1.767
   96SOL    HW2  383   1.197   0.417   1.762
   96SOL     MW  384   1.197   0.335   1.790
   97SOL     OW  385   3.927   3.775   0.759
   97SOL    HW1  386   3.844   3.747   0.721
   97SOL    HW2  387   3.967   3.830   0.692
   97SOL     MW  388   3.922   3.778   0.746
   98SOL     OW  389   3.816   3.765   4.062
   98SOL    HW1  390   3.909   3.741   4.060
   98SOL    HW2  391   3.773   3.690   4.103
   98SOL     MW  392   3.823   3.752   4.067
   99SOL     OW  393   1.510   4.071   4.725
   99SOL    HW1  394   1.424   4.098   4.758
   99SOL    HW2  395   1.542   4.146   4.675
   99SOL     MW  396   1.503   4.084   4.723
  100SOL     OW  397   2.113   0.253   0.989
  100SOL    HW1  398   2.042   0.216   1.042
  100SOL    HW2  399   2.074   0.268   0.903
  100SOL     MW  400   2.099   0.250   0.985
  101SOL     OW  401   2.204   4.116   1.677
  101SOL    HW1  402   2.272   4.055   1.649
  101SOL    HW2  403   2.122   4.068   1.663
  101SOL     MW  404   2.202   4.102   1.672
  102SOL     OW  405   5.446   4.810   1.592
  102SOL    HW1  406   5.491   4.729   1.615
  102SOL    HW2  407   5.511   4.878   1.609
  102SOL     MW  408   5.460   4.809   1.597
  103SOL     OW  409   3.879   3.312   3.674
  103SOL    HW1  410   3.824   3.336   3.749
  103SOL    HW2  411   3.822   3.256   3.621
  103SOL     MW  412   3.864   3.308   3.677
  104SOL     OW  413   4.298   1.031   4.869
  104SOL    HW1  414   4.383   1.043   4.910
  104SOL    HW2  415   4.288   1.106   4.811
  104SOL     MW  416   4.307   1.042   4.867
  105SOL     OW  417   3.819   0.646   0.619
  105SOL    HW1  418   3.848   0.722   0.668
  105SOL    HW2  419   3.735   0.673   0.582
  105SOL     MW  420   3.812   0.659   0.620
  106SOL     OW  421   3.962   4.266   3.959
  106SOL    HW1  422   3.980   4.182   3.918
  106SOL    HW2  423   3.896   4.248   4.025
  106SOL     MW  424   3.956   4.253   3.962
  107SOL     OW  425   0.088   5.510   5.051
  107SOL    HW1  426  -0.003   5.482   5.048
  107SOL    HW2  427   0.139   5.430   5.039
  107SOL     MW  428   0.083   5.496   5.049
  108SOL     OW  429   2.695   5.433   0.382
  108SOL    HW1  430   2.705   5.417   0.288
  108SOL    HW2  431   2.740   5.360   0.424
  108SOL     MW  432   2.702   5.422   0.375
  109SOL     OW  433   4.266   2.654   4.733
  109SOL    HW1  434   4.254   2.569   4.691
  109SOL    HW2  435   4.269   2.635   4.827
  109SOL     MW  436   4.265   2.641   4.740
  110SOL     OW  437   2.747   4.170   0.904
  110SOL    HW1  438   2.710   4.157   0.992
  110SOL    HW2  439   2.783   4.085   0.881
  110SOL     MW  440   2.747   4.158   0.912
  111SOL     OW  441   5.036   1.634   2.742
  111SOL    HW1  442   5.118   1.666   2.779
  111SOL    HW2  443   5.028   1.545   2.777
  111SOL     MW  444   5.045   1.627   2.751
  112SOL     OW  445   1.489   1.303   2.608
  112SOL    HW1  446   1.468   1.213   2.583
  112SOL    HW2  447   1.504   1.299   2.703
  112SOL     MW  448   1.488   1.291   2.617
  113SOL     OW  449   5.264   4.463   0.702
  113SOL    HW1  450   5.242   4.388   0.647
  113SOL    HW2  451   5.240   4.436   0.790
  113SOL     MW  452   5.258   4.450   0.706
  114SOL     OW  453   4.085   4.034   2.532
  114SOL    HW1  454   4.075   3.989   2.448
  114SOL    HW2  455   4.021   4.104   2.529
  114SOL     MW  456   4.075   4.037   2.521
  115SOL     OW  457   3.279   1.136   5.255
  115SOL    HW1  458   3.290   1.225   5.223
  115SOL    HW2  459   3.294   1.143   5.350
  115SOL     MW  460   3.282   1.148   5.263
  116SOL     OW  461   5.068   2.912   4.976
  116SOL    HW1  462   5.000   2.848   4.998
  116SOL    HW2  463   5.106   2.879   4.894
  116SOL     MW  464   5.064   2.900   4.968
  117SOL     OW  465   5.348   2.705   5.254
  117SOL    HW1  466   5.421   2.715   5.316
  117SOL    HW2  467   5.390   2.699   5.168
  117SOL     MW  468   5.363   2.706   5.251
  118SOL     OW  469   0.822   4.730   2.088
  118SOL    HW1  470   0.762   4.740   2.161
  118SOL    HW2  471   0.765   4.718   2.012
  118SOL     MW  472   0.807   4.730   2.087
  119SOL     OW  473   3.730   3.476   0.486
  119SOL    HW1  474   3.683   3.441   0.562
  119SOL    HW2  475   3.817   3.436   0.490
  119SOL     MW  476   3.735   3.466   0.496
  120SOL     OW  477   5.263   0.058   2.818
  120SOL    HW1  478   5.228  -0.002   2.883
  120SOL    HW2  479   5.288   0.136   2.868
  120SOL     MW  480   5.262   0.060   2.833
  121SOL     OW  481   0.236   2.263   4.297
  121SOL    HW1  482   0.278   2.288   4.380
  121SOL    HW2  483   0.185   2.340   4.272
  121SOL     MW  484   0.235   2.276   4.305
  122SOL     OW  485   1.426   2.382   1.469
  122SOL    HW1  486   1.471   2.417   1.546
  122SOL    HW2  487   1.488   2.320   1.430
  122SOL     MW  488   1.440   2.379   1.474
  123SOL     OW  489   1.002   0.965   5.046
  123SOL    HW1  490   0.957   0.961   5.130
  123SOL    HW2  491   0.991   1.056   5.017
  123SOL     MW  492   0.995   0.976   5.053
  124SOL     OW  493   4.872   1.433   1.109
  124SOL    HW1  494   4.867   1.347   1.150
  124SOL    HW2  495   4.797   1.481   1.144
  124SOL     MW  496   4.862   1.428   1.119
  125SOL     OW  497   0.549   0.380   4.068
  125SOL    HW1  498   0.551   0.285   4.083
  125SOL    HW2  499   0.461   0.406   4.094
  125SOL     MW  500   0.538   0.371   4.073
  126SOL     OW  501   1.842   4.215   1.100
  126SOL    HW1  502   1.831   4.159   1.177
  126SOL    HW2  503   1.860   4.155   1.028
  126SOL     MW  504   1.843   4.200   1.101
  127SOL     OW  505   3.387   3.655   1.439
  127SOL    HW1  506   3.300   3.660   1.478
  127SOL    HW2  507   3.440   3.611   1.505
  127SOL     MW  508   3.382   3.650   1.453
  128SOL     OW  509   3.821   3.465   1.718
  128SOL    HW1  510   3.892   3.526   1.740
  128SOL    HW2  511   3.802   3.420   1.801
  128SOL     MW  512   3.828   3.467   1.732
  129SOL     OW  513   0.178   1.800   0.837
  129SOL    HW1  514   0.109   1.736   0.851
  129SOL    HW2  515   0.138   1.884   0.860
  129SOL     MW  516   0.164   1.803   0.842
  130SOL     OW  517   2.928   1.490   0.515
  130SOL    HW1  518   2.922   1.407   0.562
  130SOL    HW2  519   2.874   1.477   0.437
  130SOL     MW  520   2.920   1.478   0.511
  131SOL     OW  521   1.312   1.839   4.212
  131SOL    HW1  522   1.344   1.887   4.289
  131SOL    HW2  523   1.217   1.847   4.217
  131SOL     MW  524   1.304   1.846   4.223
  132SOL     OW  525   4.825   0.738   2.267
  132SOL    HW1  526   4.917   0.740   2.295
  132SOL    HW2  527   4.776   0.729   2.349
  132SOL     MW  528   4.831   0.737   2.281
  133SOL     OW  529   0.002   4.658   5.048
  133SOL    HW1  530   0.031   4.568   5.061
  133SOL    HW2  531   0.022   4.677   4.956
  133SOL     MW  532   0.008   4.649   5.038
  134SOL     OW  533   3.144   1.536   1.189
  134SOL    HW1  534   3.140   1.581   1.274
  134SOL    HW2  535   3.092   1.456   1.202
  134SOL     MW  536   3.137   1.531   1.202
  135SOL     OW  537   3.733   0.289   3.685
  135SOL    HW1  538   3.692   0.345   3.751
  135SOL    HW2  539   3.736   0.344   3.606
  135SOL     MW  540   3.728   0.303   3.683
  136SOL     OW  541   5.103   0.334   0.163
  136SOL    HW1  542   5.105   0.318   0.069
  136SOL    HW2  543   5.069   0.424   0.170
  136SOL     MW  544   5.099   0.344   0.152
  137SOL     OW  545   0.278   5.424   1.480
  137SOL    HW1  546   0.216   5.380   1.537
  137SOL    HW2  547   0.224   5.465   1.412
  137SOL     MW  548   0.263   5.424   1.479
  138SOL     OW  549   0.190   0.463   2.090
  138SOL    HW1  550   0.109   0.417   2.069
  138SOL    HW2  551   0.190   0.540   2.033
  138SOL     MW  552   0.180   0.467   2.080
  139SOL     OW  553   2.147   2.471   1.424
  139SOL    HW1  554   2.240   2.469   1.447
  139SOL    HW2  555   2.104   2.503   1.503
  139SOL     MW  556   2.153   2.475   1.437
  140SOL     OW  557   3.479   1.730   5.450
  140SOL    HW1  558   3.461   1.706   5.359
  140SOL    HW2  559   3.444   1.657   5.501
  140SOL     MW  560   3.472   1.717   5.445
  141SOL     OW  561   4.817   0.575   2.038
  141SOL    HW1  562   4.796   0.615   2.123
  141SOL    HW2  563   4.739   0.524   2.017
  141SOL     MW  564   4.804   0.574   2.046
  142SOL     OW  565   0.672   1.847   3.428
  142SOL    HW1  566   0.620   1.767   3.427
  142SOL    HW2  567   0.620   1.910   3.378
  142SOL     MW  568   0.659   1.845   3.422
  143SOL     OW  569   1.357   1.767   0.026
  143SOL    HW1  570   1.413   1.802   0.095
  143SOL    HW2  571   1.284   1.829   0.021
  143SOL     MW  572   1.355   1.780   0.034
  144SOL     OW  573   5.146   3.862   3.259
  144SOL    HW1  574   5.137   3.922   3.185
  144SOL    HW2  575   5.118   3.913   3.335
  144SOL     MW  576   5.141   3.876   3.260
  145SOL     OW  577   2.733   3.643   1.452
  145SOL    HW1  578   2.655   3.594   1.426
  145SOL    HW2  579   2.796   3.626   1.382
  145SOL     MW  580   2.731   3.634   1.440
  146SOL     OW  581   3.739   4.820   0.425
  146SOL    HW1  582   3.711   4.732   0.400
  146SOL    HW2  583   3.658   4.865   0.448
  146SOL     MW  584   3.725   4.814   0.425
  147SOL     OW  585   2.253   1.242   4.905
  147SOL    HW1  586   2.173   1.278   4.942
  147SOL    HW2  587   2.288   1.313   4.851
  147SOL     MW  588   2.247   1.256   4.903
  148SOL     OW  589   1.007   0.424   4.892
  148SOL    HW1  590   1.090   0.378   4.898
  148SOL    HW2  591   0.974   0.406   4.804
  148SOL     MW  592   1.013   0.416   4.882
  149SOL     OW  593   0.160   0.168   4.430
  149SOL    HW1  594   0.084   0.173   4.371
  149SOL    HW2  595   0.124   0.132   4.512
  149SOL     MW  596   0.145   0.164   4.433
  150SOL     OW  597   2.755   2.244   1.927
  150SOL    HW1  598   2.747   2.272   1.836
  150SOL    HW2  599   2.666   2.243   1.961
  150SOL     MW  600   2.743   2.247   1.920
  151SOL     OW  601   5.284   4.969   3.475
  151SOL    HW1  602   5.293   4.895   3.535
  151SOL    HW2  603   5.240   4.933   3.398
  151SOL     MW  604   5.279   4.955   3.473
  152SOL     OW  605   1.734   3.628   3.777
  152SOL    HW1  606   1.758   3.540   3.748
  152SOL    HW2  607   1.742   3.625   3.872
  152SOL     MW  608   1.738   3.617   3.786
  153SOL     OW  609   3.707   4.087   0.152
  153SOL    HW1  610   3.619   4.059   0.177
  153SOL    HW2  611   3.694   4.173   0.110
  153SOL     MW  612   3.694   4.094   0.150
  154SOL     OW  613   3.797   2.751   4.380
  154SOL    HW1  614   3.840   2.769   4.297
  154SOL    HW2  615   3.802   2.833   4.428
  154SOL     MW  616   3.803   2.763   4.376
  155SOL     OW  617   0.966   1.025   0.959
  155SOL    HW1  618   0.874   1.049   0.967
  155SOL    HW2  619   0.995   1.068   0.879
  155SOL     MW  620   0.958   1.034   0.950
  156SOL     OW  621   1.483   0.175   3.233
  156SOL    HW1  622   1.389   0.174   3.248
  156SOL    HW2  623   1.501   0.094   3.185
  156SOL     MW  624   1.474   0.164   3.229
  157SOL     OW  625   2.296   4.811   2.696
  157SOL    HW1  626   2.334   4.851   2.775
  157SOL    HW2  627   2.202   4.812   2.712
  157SOL     MW  628   2.289   4.816   2.708
  158SOL     OW  629   0.247   0.446   0.207
  158SOL    HW1  630   0.295   0.528   0.212
  158SOL    HW2  631   0.227   0.435   0.113
  158SOL     MW  632   0.250   0.455   0.195
  159SOL     OW  633   2.403   3.495   0.477
  159SOL    HW1  634   2.430   3.503   0.568
  159SOL    HW2  635   2.461   3.429   0.440
  159SOL     MW  636   2.414   3.488   0.484
  160SOL     OW  637   2.133   0.591   2.441
  160SOL    HW1  638   2.104   0.658   2.504
  160SOL    HW2  639   2.226   0.579   2.460
  160SOL     MW  640   2.141   0.598   2.452
  161SOL     OW  641   5.125   1.923   0.678
  161SOL    HW1  642   5.215   1.930   0.648
  161SOL    HW2  643   5.072   1.943   0.600
  161SOL     MW  644   5.130   1.926   0.664
  162SOL     OW  645   4.436   2.665   3.104
  162SOL    HW1  646   4.528   2.638   3.114
  162SOL    HW2  647   4.398   2.655   3.191
  162SOL     MW  648   4.443   2.660   3.116
  163SOL     OW  649   0.164   2.395   0.487
  163SOL    HW1  650   0.160   2.306   0.523
  163SOL    HW2  651   0.075   2.413   0.457
  163SOL     MW  652   0.152   2.386   0.487
  164SOL     OW  653   1.217   5.127   5.199
  164SOL    HW1  654   1.196   5.220   5.208
  164SOL    HW2  655   1.133   5.085   5.182
  164SOL     MW  656   1.204   5.134   5.198
  165SOL     OW  657   3.640   5.372   4.924
  165SOL    HW1  658   3.567   5.332   4.877
  165SOL    HW2  659   3.606   5.386   5.013
  165SOL     MW  660   3.626   5.369   4.929
  166SOL     OW  661   1.716   4.051   4.909
  166SOL    HW1  662   1.699   4.120   4.974
  166SOL    HW2  663   1.635   4.045   4.859
  166SOL     MW  664   1.704   4.059   4.911
  167SOL     OW  665   5.063   3.016   1.471
  167SOL    HW1  666   5.085   3.086   1.410
  167SOL    HW2  667   5.139   3.009   1.529
  167SOL     MW  668   5.076   3.024   1.471
  168SOL     OW  669   2.873   5.428   2.447
  168SOL    HW1  670   2.957   5.401   2.483
  168SOL    HW2  671   2.895   5.474   2.366
  168SOL     MW  672   2.886   5.431   2.441
  169SOL     OW  673   3.358   3.916   4.806
  169SOL    HW1  674   3.270   3.950   4.787
  169SOL    HW2  675   3.364   3.919   4.902
  169SOL     MW  676   3.347   3.921   4.816
  170SOL     OW  677   1.897   3.998   4.714
  170SOL    HW1  678   1.851   3.929   4.665
  170SOL    HW2  679   1.837   4.019   4.786
  170SOL     MW  680   1.883   3.992   4.717
  171SOL     OW  681   5.122   1.784   0.331
  171SOL    HW1  682   5.059   1.722   0.296
  171SOL    HW2  683   5.069   1.852   0.374
  171SOL     MW  684   5.107   1.785   0.332
  172SOL     OW  685   0.690   4.720   5.084
  172SOL    HW1  686   0.735   4.689   5.005
  172SOL    HW2  687   0.717   4.659   5.153
  172SOL     MW  688   0.699   4.708   5.083
  173SOL     OW  689   1.373   2.842   2.220
  173SOL    HW1  690   1.334   2.929   2.213
  173SOL    HW2  691   1.418   2.843   2.304
  173SOL     MW  692   1.374   2.853   2.230
  174SOL     OW  693   3.778   0.548   4.727
  174SOL    HW1  694   3.865   0.523   4.697
  174SOL    HW2  695   3.755   0.624   4.674
  174SOL     MW  696   3.786   0.555   4.716
  175SOL     OW  697   1.468   1.570   5.352
  175SOL    HW1  698   1.493   1.612   5.269
  175SOL    HW2  699   1.419   1.638   5.399
  175SOL     MW  700   1.465   1.584   5.347
  176SOL     OW  701   4.818   2.437   4.344
  176SOL    HW1  702   4.732   2.477   4.335
  176SOL    HW2  703   4.812   2.382   4.421
  176SOL     MW  704   4.807   2.435   4.353
  177SOL     OW  705   2.333   5.014   4.672
  177SOL    HW1  706   2.251   4.977   4.639
  177SOL    HW2  707   2.385   5.032   4.594
  177SOL     MW  708   2.329   5.011   4.658
  178SOL     OW  709   2.871   3.841   1.856
  178SOL    HW1  710   2.939   3.854   1.790
  178SOL    HW2  711   2.918   3.803   1.931
  178SOL     MW  712   2.886   3.837   1.857
  179SOL     OW  713   0.955   0.921   2.577
  179SOL    HW1  714   1.031   0.876   2.615
  179SOL    HW2  715   0.915   0.966   2.651
  179SOL     MW  716   0.960   0.921   2.591
  180SOL     OW  717   1.891   3.163   2.142
  180SOL    HW1  718   1.847   3.101   2.201
  180SOL    HW2  719   1.841   3.244   2.151
  180SOL     MW  720   1.879   3.165   2.151
  181SOL     OW  721   4.383   1.373   0.390
  181SOL    HW1  722   4.434   1.334   0.460
  181SOL    HW2  723   4.431   1.350   0.310
  181SOL     MW  724   4.396   1.365   0.388
  182SOL     OW  725   4.039   0.818   3.172
  182SOL    HW1  726   4.123   0.774   3.168
  182SOL    HW2  727   4.036   0.858   3.259
  182SOL     MW  728   4.049   0.817   3.182
  183SOL     OW  729   5.318   4.449   2.492
  183SOL    HW1  730   5.279   4.414   2.572
  183SOL    HW2  731   5.245   4.457   2.431
  183SOL     MW  732   5.304   4.445   2.495
  184SOL     OW  733   4.883   3.113   1.088
  184SOL    HW1  734   4.803   3.069   1.116
  184SOL    HW2  735   4.922   3.054   1.024
  184SOL     MW  736   4.878   3.100   1.083
  185SOL     OW  737   1.340   4.530   3.498
  185SOL    HW1  738   1.419   4.482   3.474
  185SOL    HW2  739   1.287   4.466   3.545
  185SOL     MW  740   1.344   4.516   3.501
  186SOL     OW  741   0.253   4.498   4.861
  186SOL    HW1  742   0.221   4.469   4.946
  186SOL    HW2  743   0.348   4.492   4.868
  186SOL     MW  744   0.261   4.493   4.872
  187SOL     OW  745   4.820   5.167   4.657
  187SOL    HW1  746   4.826   5.076   4.687
  187SOL    HW2  747   4.908   5.187   4.624
  187SOL     MW  748   4.832   5.158   4.657
  188SOL     OW  749   2.001   3.558   4.886
  188SOL    HW1  750   2.025   3.645   4.855
  188SOL    HW2  751   2.001   3.565   4.981
  188SOL     MW  752   2.004   3.570   4.894
  189SOL     OW  753   2.983   1.539   3.151
  189SOL    HW1  754   2.930   1.527   3.230
  189SOL    HW2  755   2.978   1.633   3.133
  189SOL     MW  756   2.976   1.549   3.159
  190SOL     OW  757   3.869   2.847   0.631
  190SOL    HW1  758   3.863   2.752   0.645
  190SOL    HW2  759   3.903   2.856   0.542
  190SOL     MW  760   3.873   2.836   0.621
  191SOL     OW  761   2.244   4.452   3.765
  191SOL    HW1  762   2.319   4.397   3.792
  191SOL    HW2  763   2.264   4.476   3.675
  191SOL     MW  764   2.256   4.448   3.757
  192SOL     OW  765   0.126   2.986   1.464
  192SOL    HW1  766   0.051   2.964   1.409
  192SOL    HW2  767   0.088   3.030   1.540
  192SOL     MW  768   0.112   2.989   1.467
  193SOL     OW  769   0.133   3.993   3.345
  193SOL    HW1  770   0.057   3.948   3.309
  193SOL    HW2  771   0.112   4.086   3.335
  193SOL     MW  772   0.121   3.999   3.339
  194SOL     OW  773   5.349   4.727   3.841
  194SOL    HW1  774   5.401   4.807   3.834
  194SOL    HW2  775   5.258   4.758   3.839
  194SOL     MW  776   5.344   4.741   3.839
  195SOL     OW  777   4.892   2.447   0.149
  195SOL    HW1  778   4.955   2.402   0.092
  195SOL    HW2  779   4.827   2.380   0.169
  195SOL     MW  780   4.892   2.433   0.144
  196SOL     OW  781   0.602   2.282   0.200
  196SOL    HW1  782   0.617   2.373   0.223
  196SOL    HW2  783   0.521   2.258   0.245
  196SOL     MW  784   0.594   2.290   0.209
  197SOL     OW  785   2.784   5.206   1.526
  197SOL    HW1  786   2.703   5.221   1.573
  197SOL    HW2  787   2.780   5.115   1.497
  197SOL     MW  788   2.773   5.197   1.528
  198SOL     OW  789   4.309   2.944   3.630
  198SOL    HW1  790   4.221   2.940   3.591
  198SOL    HW2  791   4.343   3.029   3.602
  198SOL     MW  792   4.302   2.955   3.621
  199SOL     OW  793   1.216   0.580   2.585
  199SOL    HW1  794   1.291   0.543   2.539
  199SOL    HW2  795   1.140   0.536   2.547
  199SOL     MW  796   1.216   0.570   2.574
  200SOL     OW  797   2.955   0.762   5.367
  200SOL    HW1  798   3.023   0.739   5.430
  200SOL    HW2  799   2.977   0.852   5.340
  200SOL     MW  800   2.967   0.771   5.372
  201SOL     OW  801   2.292   2.584   0.922
  201SOL    HW1  802   2.285   2.676   0.946
  201SOL    HW2  803   2.385   2.572   0.902
  201SOL     MW  804   2.303   2.594   0.923
  202SOL     OW  805   3.846   1.873   3.806
  202SOL    HW1  806   3.802   1.838   3.728
  202SOL    HW2  807   3.828   1.967   3.803
  202SOL     MW  808   3.838   1.880   3.796
  203SOL     OW  809   1.861   3.835   0.630
  203SOL    HW1  810   1.867   3.781   0.551
  203SOL    HW2  811   1.937   3.810   0.682
  203SOL     MW  812   1.871   3.825   0.626
  204SOL     OW  813   5.389   2.630   3.428
  204SOL    HW1  814   5.300   2.664   3.421
  204SOL    HW2  815   5.437   2.699   3.474
  204SOL     MW  816   5.384   2.644   3.433
  205SOL     OW  817   1.921   4.966   0.211
  205SOL    HW1  818   1.895   5.057   0.197
  205SOL    HW2  819   2.015   4.965   0.189
  205SOL     MW  820   1.930   4.978   0.207
  206SOL     OW  821   0.363   3.355   4.040
  206SOL    HW1  822   0.354   3.261   4.027
  206SOL    HW2  823   0.306   3.374   4.115
  206SOL     MW  824   0.355   3.346   4.048
  207SOL     OW  825   3.649   2.382   3.164
  207SOL    HW1  826   3.652   2.360   3.257
  207SOL    HW2  827   3.580   2.326   3.129
  207SOL     MW  828   3.640   2.372   3.171
  208SOL     OW  829   0.161   3.319   0.387
  208SOL    HW1  830   0.111   3.258   0.442
  208SOL    HW2  831   0.112   3.323   0.305
  208SOL     MW  832   0.148   3.311   0.383
  209SOL     OW  833   5.419   3.601   1.703
  209SOL    HW1  834   5.324   3.607   1.711
  209SOL    HW2  835   5.453   3.635   1.786
  209SOL     MW  836   5.411   3.606   1.715
  210SOL     OW  837   4.904   1.422   4.077
  210SOL    HW1  838   4.858   1.437   3.995
  210SOL    HW2  839   4.956   1.502   4.091
  210SOL     MW  840   4.905   1.434   4.068
  211SOL     OW  841   5.193   4.270   0.521
  211SOL    HW1  842   5.253   4.195   0.521
  211SOL    HW2  843   5.107   4.231   0.532
  211SOL     MW  844   5.190   4.255   0.522
  212SOL     OW  845   0.045   1.720   1.789
  212SOL    HW1  846   0.084   1.636   1.768
  212SOL    HW2  847   0.076   1.740   1.877
  212SOL     MW  848   0.054   1.712   1.797
  213SOL     OW  849   1.489   3.498   5.483
  213SOL    HW1  850   1.464   3.451   5.403
  213SOL    HW2  851   1.419   3.563   5.495
  213SOL     MW  852   1.477   3.501   5.474
  214SOL     OW  853   4.636   4.077   0.415
  214SOL    HW1  854   4.659   4.100   0.325
  214SOL    HW2  855   4.674   4.148   0.468
  214SOL     MW  856   4.644   4.089   0.410
  215SOL     OW  857   1.582   1.752   4.436
  215SOL    HW1  858   1.544   1.745   4.524
  215SOL    HW2  859   1.630   1.835   4.437
  215SOL     MW  860   1.583   1.762   4.448
  216SOL     OW  861   4.630   0.400   5.164
  216SOL    HW1  862   4.565   0.379   5.097
  216SOL    HW2  863   4.686   0.323   5.168
  216SOL     MW  864   4.629   0.388   5.156
  217SOL     OW  865   1.039   4.184   5.080
  217SOL    HW1  866   1.131   4.158   5.074
  217SOL    HW2  867   1.032   4.259   5.020
  217SOL     MW  868   1.050   4.190   5.071
  218SOL     OW  869   0.471   2.895   2.667
  218SOL    HW1  870   0.377   2.887   2.683
  218SOL    HW2  871   0.480   2.880   2.573
  218SOL     MW  872   0.460   2.892   2.657
  219SOL     OW  873   4.947   2.410   0.797
  219SOL    HW1  874   4.941   2.354   0.719
  219SOL    HW2  875   4.987   2.491   0.765
  219SOL     MW  876   4.951   2.413   0.783
  220SOL     OW  877   5.410   4.753   1.187
  220SOL    HW1  878   5.464   4.682   1.223
  220SOL    HW2  879   5.472   4.810   1.143
  220SOL     MW  880   5.425   4.751   1.186
  221SOL     OW  881   0.122   0.588   0.485
  221SOL    HW1  882   0.083   0.507   0.450
  221SOL    HW2  883   0.196   0.559   0.537
  221SOL     MW  884   0.126   0.574   0.487
  222SOL     OW  885   1.952   1.379   5.436
  222SOL    HW1  886   1.949   1.457   5.491
  222SOL    HW2  887   1.921   1.409   5.351
  222SOL     MW  888   1.948   1.393   5.432
  223SOL     OW  889   3.412   4.584   0.344
  223SOL    HW1  890   3.391   4.624   0.429
  223SOL    HW2  891   3.441   4.495   0.367
  223SOL     MW  892   3.413   4.577   0.358
  224SOL     OW  893   2.225   3.923   2.556
  224SOL    HW1  894   2.251   3.983   2.486
  224SOL    HW2  895   2.275   3.843   2.539
  224SOL     MW  896   2.235   3.921   2.545
  225SOL     OW  897   2.123   2.729   0.442
  225SOL    HW1  898   2.203   2.754   0.397
  225SOL    HW2  899   2.130   2.634   0.454
  225SOL     MW  900   2.134   2.720   0.438
  226SOL     OW  901   3.164   3.092   4.341
  226SOL    HW1  902   3.232   3.149   4.306
  226SOL    HW2  903   3.103   3.151   4.386
  226SOL     MW  904   3.165   3.107   4.342
  227SOL     OW  905   2.695   1.127   4.851
  227SOL    HW1  906   2.772   1.076   4.875
  227SOL    HW2  907   2.711   1.156   4.761
  227SOL     MW  908   2.707   1.124   4.843
  228SOL     OW  909   2.801   2.711   0.880
  228SOL    HW1  910   2.850   2.734   0.801
  228SOL    HW2  911   2.801   2.791   0.932
  228SOL     MW  912   2.807   2.724   0.876
  229SOL     OW  913   3.410   3.231   4.292
  229SOL    HW1  914   3.446   3.173   4.359
  229SOL    HW2  915   3.487   3.265   4.247
  229SOL     MW  916   3.425   3.228   4.295
  230SOL     OW  917   3.388   3.041   0.951
  230SOL    HW1  918   3.346   3.032   0.865
  230SOL    HW2  919   3.359   3.126   0.984
  230SOL     MW  920   3.379   3.051   0.944
  231SOL     OW  921   3.483   4.782   1.673
  231SOL    HW1  922   3.505   4.833   1.750
  231SOL    HW2  923   3.550   4.804   1.609
  231SOL     MW  924   3.494   4.791   1.675
  232SOL     OW  925   1.972   3.994   5.440
  232SOL    HW1  926   2.047   3.960   5.391
  232SOL    HW2  927   1.938   3.919   5.488
  232SOL     MW  928   1.977   3.980   5.440
  233SOL     OW  929   4.175   0.170   2.234
  233SOL    HW1  930   4.218   0.155   2.318
  233SOL    HW2  931   4.245   0.161   2.169
  233SOL     MW  932   4.190   0.167   2.237
  234SOL     OW  933   0.529   0.265   3.268
  234SOL    HW1  934   0.478   0.329   3.218
  234SOL    HW2  935   0.485   0.261   3.353
  234SOL     MW  936   0.517   0.273   3.272
  235SOL     OW  937   4.584   2.766   1.321
  235SOL    HW1  938   4.608   2.840   1.265
  235SOL    HW2  939   4.593   2.689   1.264
  235SOL     MW  940   4.588   2.766   1.306
  236SOL     OW  941   1.983   4.592   2.129
  236SOL    HW1  942   1.934   4.649   2.069
  236SOL    HW2  943   2.040   4.652   2.177
  236SOL     MW  944   1.984   4.607   2.128
  237SOL     OW  945   1.734   0.450   4.333
  237SOL    HW1  946   1.784   0.381   4.290
  237SOL    HW2  947   1.663   0.469   4.272
  237SOL     MW  948   1.731   0.443   4.320
  238SOL     OW  949   1.789   3.870   3.656
  238SOL    HW1  950   1.779   3.788   3.705
  238SOL    HW2  951   1.798   3.937   3.724
  238SOL     MW  952   1.789   3.868   3.671
  239SOL     OW  953   0.241   0.983   4.006
  239SOL    HW1  954   0.257   1.064   4.054
  239SOL    HW2  955   0.149   0.988   3.980
  239SOL     MW  956   0.231   0.994   4.009
  240SOL     OW  957   3.864   5.370   0.577
  240SOL    HW1  958   3.838   5.285   0.541
  240SOL    HW2  959   3.948   5.353   0.620
  240SOL     MW  960   3.872   5.357   0.578
  241SOL     OW  961   3.777   0.385   2.586
  241SOL    HW1  962   3.710   0.416   2.525
  241SOL    HW2  963   3.804   0.300   2.551
  241SOL     MW  964   3.772   0.378   2.573
  242SOL     OW  965   5.170   1.927   1.846
  242SOL    HW1  966   5.235   1.996   1.860
  242SOL    HW2  967   5.204   1.877   1.772
  242SOL     MW  968   5.183   1.929   1.838
  243SOL     OW  969   3.859   1.068   2.017
  243SOL    HW1  970   3.933   1.051   2.075
  243SOL    HW2  971   3.798   1.119   2.071
  243SOL     MW  972   3.860   1.073   2.032
  244SOL     OW  973   2.671   2.433   2.692
  244SOL    HW1  974   2.664   2.528   2.688
  244SOL    HW2  975   2.638   2.402   2.607
  244SOL     MW  976   2.666   2.441   2.681
  245SOL     OW  977   2.185   5.054   0.555
  245SOL    HW1  978   2.165   4.985   0.618
  245SOL    HW2  979   2.278   5.072   0.568
  245SOL     MW  980   2.195   5.047   0.565
  246SOL     OW  981   2.183   3.202   5.241
  246SOL    HW1  982   2.168   3.188   5.147
  246SOL    HW2  983   2.100   3.236   5.274
  246SOL     MW  984   2.171   3.205   5.233
  247SOL     OW  985   0.948   1.294   4.727
  247SOL    HW1  986   1.006   1.370   4.721
  247SOL    HW2  987   0.861   1.329   4.710
  247SOL     MW  988   0.944   1.308   4.724
  248SOL     OW  989   2.361   4.199   4.827
  248SOL    HW1  990   2.387   4.155   4.908
  248SOL    HW2  991   2.442   4.235   4.792
  248SOL     MW  992   2.374   4.198   4.833
  249SOL     OW  993   1.612   0.915   3.398
  249SOL    HW1  994   1.587   0.877   3.314
  249SOL    HW2  995   1.575   1.004   3.396
  249SOL     MW  996   1.604   0.922   3.387
  250SOL     OW  997   1.695   0.256   5.383
  250SOL    HW1  998   1.766   0.294   5.330
  250SOL    HW2  999   1.664   0.182   5.331
  250SOL     MW 1000   1.700   0.252   5.370
  251SOL     OW 1001   1.915   0.157   3.533
  251SOL    HW1 1002   1.821   0.144   3.519
  251SOL    HW2 1003   1.953   0.070   3.524
  251SOL     MW 1004   1.908   0.145   3.530
  252SOL     OW 1005   4.919   3.395   5.389
  252SOL    HW1 1006   4.860   3.365   5.458
  252SOL    HW2 1007   5.003   3.353   5.409
  252SOL     MW 1008   4.922   3.386   5.400
  253SOL     OW 1009   1.427   3.045   1.400
  253SOL    HW1 1010   1.417   3.137   1.425
  253SOL    HW2 1011   1.499   3.013   1.454
  253SOL     MW 1012   1.435   3.053   1.410
  254SOL     OW 1013   5.292   4.465   1.707
  254SOL    HW1 1014   5.374   4.515   1.702
  254SOL    HW2 1015   5.316   4.383   1.750
  254SOL     MW 1016   5.306   4.461   1.712
  255SOL     OW 1017   4.202   5.159   0.539
  255SOL    HW1 1018   4.189   5.086   0.599
  255SOL    HW2 1019   4.141   5.141   0.467
  255SOL     MW 1020   4.193   5.147   0.538
  256SOL     OW 1021   2.590   2.268   0.504
  256SOL    HW1 1022   2.600   2.334   0.572
  256SOL    HW2 1023   2.678   2.258   0.468
  256SOL     MW 1024   2.603   2.275   0.508
  257SOL     OW 1025   3.809   3.073   5.218
  257SOL    HW1 1026   3.720   3.062   5.183
  257SOL    HW2 1027   3.831   2.987   5.254
  257SOL     MW 1028   3.800   3.060   5.218
  258SOL     OW 1029   2.763   2.056   2.789
  258SOL    HW1 1030   2.677   2.048   2.748
  258SOL    HW2 1031   2.745   2.061   2.883
  258SOL     MW 1032   2.750   2.056   2.796
  259SOL     OW 1033   5.196   0.821   1.418
  259SOL    HW1 1034   5.110   0.849   1.387
  259SOL    HW2 1035   5.189   0.726   1.427
  259SOL     MW 1036   5.184   0.813   1.415
  260SOL     OW 1037   0.842   1.109   4.293
  260SOL    HW1 1038   0.809   1.106   4.383
  260SOL    HW2 1039   0.879   1.196   4.284
  260SOL     MW 1040   0.842   1.119   4.303
  261SOL     OW 1041   2.568   3.289   0.868
  261SOL    HW1 1042   2.556   3.201   0.904
  261SOL    HW2 1043   2.650   3.285   0.819
  261SOL     MW 1044   2.577   3.278   0.866
  262SOL     OW 1045   0.000   5.206   3.692
  262SOL    HW1 1046  -0.058   5.218   3.768
  262SOL    HW2 1047   0.087   5.230   3.725
  262SOL     MW 1048   0.004   5.211   3.706
  263SOL     OW 1049   5.352   4.523   3.053
  263SOL    HW1 1050   5.329   4.470   3.129
  263SOL    HW2 1051   5.400   4.463   2.995
  263SOL     MW 1052   5.356   4.508   3.055
  264SOL     OW 1053   3.407   2.336   5.442
  264SOL    HW1 1054   3.475   2.398   5.416
  264SOL    HW2 1055   3.433   2.253   5.402
  264SOL     MW 1056   3.419   2.333   5.433
  265SOL     OW 1057   2.731   3.695   0.717
  265SOL    HW1 1058   2.794   3.654   0.657
  265SOL    HW2 1059   2.777   3.771   0.753
  265SOL     MW 1060   2.745   3.699   0.714
  266SOL     OW 1061   2.766   5.268   1.117
  266SOL    HW1 1062   2.678   5.299   1.140
  266SOL    HW2 1063   2.755   5.174   1.104
  266SOL     MW 1064   2.753   5.260   1.118
  267SOL     OW 1065   4.249   1.421   3.964
  267SOL    HW1 1066   4.216   1.511   3.968
  267SOL    HW2 1067   4.292   1.415   3.878
  267SOL     MW 1068   4.250   1.432   3.953
  268SOL     OW 1069   0.197   4.167   1.322
  268SOL    HW1 1070   0.154   4.221   1.388
  268SOL    HW2 1071   0.187   4.217   1.241
  268SOL     MW 1072   0.190   4.180   1.320
  269SOL     OW 1073   4.505   4.628   4.664
  269SOL    HW1 1074   4.500   4.536   4.640
  269SOL    HW2 1075   4.588   4.658   4.628
  269SOL     MW 1076   4.515   4.620   4.656
  270SOL     OW 1077   0.110   4.258   5.306
  270SOL    HW1 1078   0.056   4.321   5.355
  270SOL    HW2 1079   0.200   4.276   5.336
  270SOL     MW 1080   0.115   4.269   5.316
  271SOL     OW 1081   3.732   4.111   1.565
  271SOL    HW1 1082   3.768   4.115   1.653
  271SOL    HW2 1083   3.646   4.070   1.576
  271SOL     MW 1084   3.726   4.106   1.578
  272SOL     OW 1085   1.854   0.174   4.914
  272SOL    HW1 1086   1.850   0.267   4.895
  272SOL    HW2 1087   1.937   0.145   4.877
  272SOL     MW 1088   1.864   0.182   4.907
  273SOL     OW 1089   4.010   5.264   3.566
  273SOL    HW1 1090   3.954   5.341   3.574
  273SOL    HW2 1091   3.950   5.192   3.549
  273SOL     MW 1092   3.995   5.265   3.565
  274SOL     OW 1093   2.741   1.173   1.937
  274SOL    HW1 1094   2.737   1.138   1.849
  274SOL    HW2 1095   2.804   1.117   1.983
  274SOL     MW 1096   2.749   1.161   1.932
  275SOL     OW 1097   0.330   2.991   0.528
  275SOL    HW1 1098   0.413   3.003   0.574
  275SOL    HW2 1099   0.321   2.897   0.517
  275SOL     MW 1100   0.339   2.981   0.533
  276SOL     OW 1101   1.826   0.492   1.244
  276SOL    HW1 1102   1.756   0.484   1.179
  276SOL    HW2 1103   1.906   0.481   1.194
  276SOL     MW 1104   1.827   0.489   1.229
  277SOL     OW 1105   0.513   1.405   5.178
  277SOL    HW1 1106   0.539   1.496   5.165
  277SOL    HW2 1107   0.593   1.361   5.208
  277SOL     MW 1108   0.527   1.411   5.180
  278SOL     OW 1109   3.928   5.139   5.439
  278SOL    HW1 1110   3.988   5.116   5.368
  278SOL    HW2 1111   3.880   5.059   5.457
  278SOL     MW 1112   3.930   5.126   5.432
  279SOL     OW 1113   3.279   1.909   2.113
  279SOL    HW1 1114   3.293   1.895   2.019
  279SOL    HW2 1115   3.321   1.993   2.132
  279SOL     MW 1116   3.286   1.918   2.103
  280SOL     OW 1117   2.213   0.245   3.051
  280SOL    HW1 1118   2.230   0.323   3.104
  280SOL    HW2 1119   2.251   0.173   3.101
  280SOL     MW 1120   2.220   0.246   3.064
  281SOL     OW 1121   4.943   2.357   2.922
  281SOL    HW1 1122   5.016   2.361   2.983
  281SOL    HW2 1123   4.968   2.290   2.858
  281SOL     MW 1124   4.956   2.349   2.922
  282SOL     OW 1125   1.244   0.924   0.561
  282SOL    HW1 1126   1.317   0.937   0.499
  282SOL    HW2 1127   1.250   0.999   0.621
  282SOL     MW 1128   1.254   0.935   0.560
  283SOL     OW 1129   0.021   0.918   0.523
  283SOL    HW1 1130   0.042   0.999   0.568
  283SOL    HW2 1131   0.099   0.898   0.471
  283SOL     MW 1132   0.034   0.926   0.522
  284SOL     OW 1133   1.728   3.320   1.814
  284SOL    HW1 1134   1.754   3.320   1.722
  284SOL    HW2 1135   1.634   3.297   1.811
  284SOL     MW 1136   1.719   3.317   1.802
  285SOL     OW 1137   5.062   0.285   3.701
  285SOL    HW1 1138   5.085   0.318   3.788
  285SOL    HW2 1139   5.142   0.243   3.669
  285SOL     MW 1140   5.075   0.284   3.708
  286SOL     OW 1141   3.661   4.212   4.938
  286SOL    HW1 1142   3.604   4.210   4.860
  286SOL    HW2 1143   3.600   4.203   5.012
  286SOL     MW 1144   3.646   4.211   4.937
  287SOL     OW 1145   4.116   1.435   3.638
  287SOL    HW1 1146   4.036   1.386   3.656
  287SOL    HW2 1147   4.094   1.526   3.661
  287SOL     MW 1148   4.103   1.441   3.643
  288SOL     OW 1149   1.644   5.052   0.885
  288SOL    HW1 1150   1.670   5.065   0.794
  288SOL    HW2 1151   1.672   4.963   0.905
  288SOL     MW 1152   1.651   5.042   0.876
  289SOL     OW 1153   4.926   4.272   3.340
  289SOL    HW1 1154   4.865   4.345   3.330
  289SOL    HW2 1155   4.970   4.266   3.255
  289SOL     MW 1156   4.924   4.281   3.328
  290SOL     OW 1157   2.140   3.164   4.971
  290SOL    HW1 1158   2.145   3.160   4.875
  290SOL    HW2 1159   2.084   3.090   4.995
  290SOL     MW 1160   2.133   3.154   4.962
  291SOL     OW 1161   2.647   4.277   4.885
  291SOL    HW1 1162   2.666   4.350   4.827
  291SOL    HW2 1163   2.616   4.317   4.966
  291SOL     MW 1164   2.645   4.291   4.888
  292SOL     OW 1165   4.123   3.287   3.816
  292SOL    HW1 1166   4.084   3.289   3.904
  292SOL    HW2 1167   4.048   3.286   3.757
  292SOL     MW 1168   4.108   3.287   3.820
  293SOL     OW 1169   3.644   4.396   4.586
  293SOL    HW1 1170   3.577   4.438   4.640
  293SOL    HW2 1171   3.641   4.443   4.503
  293SOL     MW 1172   3.635   4.407   4.582
  294SOL     OW 1173   0.376   1.272   0.560
  294SOL    HW1 1174   0.377   1.341   0.494
  294SOL    HW2 1175   0.441   1.299   0.625
  294SOL     MW 1176   0.385   1.284   0.560
  295SOL     OW 1177   2.111   2.977   1.094
  295SOL    HW1 1178   2.032   2.944   1.137
  295SOL    HW2 1179   2.088   2.979   1.001
  295SOL     MW 1180   2.098   2.973   1.087
  296SOL     OW 1181   2.868   4.986   2.239
  296SOL    HW1 1182   2.837   4.898   2.262
  296SOL    HW2 1183   2.908   4.975   2.152
  296SOL     MW 1184   2.869   4.973   2.231
  297SOL     OW 1185   2.639   0.460   3.868
  297SOL    HW1 1186   2.655   0.505   3.951
  297SOL    HW2 1187   2.548   0.480   3.847
  297SOL     MW 1188   2.629   0.468   3.876
  298SOL     OW 1189   4.705   2.889   2.878
  298SOL    HW1 1190   4.695   2.850   2.791
  298SOL    HW2 1191   4.616   2.897   2.911
  298SOL     MW 1192   4.693   2.885   2.871
  299SOL     OW 1193   1.710   3.246   2.392
  299SOL    HW1 1194   1.742   3.156   2.391
  299SOL    HW2 1195   1.780   3.295   2.436
  299SOL     MW 1196   1.723   3.241   2.398
  300SOL     OW 1197   4.849   2.110   3.323
  300SOL    HW1 1198   4.829   2.105   3.230
  300SOL    HW2 1199   4.930   2.161   3.327
  300SOL     MW 1200   4.857   2.116   3.312
  301SOL     OW 1201   3.753   5.295   1.056
  301SOL    HW1 1202   3.759   5.281   1.150
  301SOL    HW2 1203   3.837   5.263   1.022
  301SOL     MW 1204   3.765   5.289   1.063
  302SOL     OW 1205   4.254   1.526   1.577
  302SOL    HW1 1206   4.292   1.538   1.664
  302SOL    HW2 1207   4.160   1.540   1.590
  302SOL     MW 1208   4.247   1.530   1.590
  303SOL     OW 1209   1.398   0.175   5.329
  303SOL    HW1 1210   1.422   0.170   5.421
  303SOL    HW2 1211   1.345   0.254   5.322
  303SOL     MW 1212   1.395   0.184   5.340
  304SOL     OW 1213   1.549   3.063   4.229
  304SOL    HW1 1214   1.479   3.029   4.284
  304SOL    HW2 1215   1.581   2.986   4.181
  304SOL     MW 1216   1.544   3.049   4.230
  305SOL     OW 1217   3.051   1.913   4.382
  305SOL    HW1 1218   3.111   1.853   4.426
  305SOL    HW2 1219   3.091   1.929   4.296
  305SOL     MW 1220   3.064   1.907   4.376
  306SOL     OW 1221   1.486   4.305   2.371
  306SOL    HW1 1222   1.441   4.329   2.290
  306SOL    HW2 1223   1.579   4.300   2.346
  306SOL     MW 1224   1.492   4.307   2.358
  307SOL     OW 1225   4.803   5.162   1.428
  307SOL    HW1 1226   4.862   5.166   1.352
  307SOL    HW2 1227   4.849   5.106   1.491
  307SOL     MW 1228   4.817   5.155   1.426
  308SOL     OW 1229   2.078   2.714   5.144
  308SOL    HW1 1230   1.990   2.677   5.139
  308SOL    HW2 1231   2.132   2.642   5.178
  308SOL     MW 1232   2.073   2.700   5.148
  309SOL     OW 1233   1.393   1.344   0.154
  309SOL    HW1 1234   1.476   1.391   0.157
  309SOL    HW2 1235   1.327   1.413   0.146
  309SOL     MW 1236   1.395   1.359   0.154
  310SOL     OW 1237   3.883   2.798   1.573
  310SOL    HW1 1238   3.845   2.810   1.660
  310SOL    HW2 1239   3.967   2.843   1.577
  310SOL     MW 1240   3.889   2.805   1.585
  311SOL     OW 1241   3.289   4.789   2.223
  311SOL    HW1 1242   3.366   4.737   2.202
  311SOL    HW2 1243   3.233   4.730   2.274
  311SOL     MW 1244   3.291   4.775   2.227
  312SOL     OW 1245   4.153   4.075   2.003
  312SOL    HW1 1246   4.221   4.017   2.037
  312SOL    HW2 1247   4.172   4.082   1.909
  312SOL     MW 1248   4.164   4.068   1.995
  313SOL     OW 1249   2.665   0.573   2.937
  313SOL    HW1 1250   2.695   0.661   2.962
  313SOL    HW2 1251   2.646   0.580   2.844
  313SOL     MW 1252   2.667   0.586   2.928
  314SOL     OW 1253   3.561   1.329   2.910
  314SOL    HW1 1254   3.644   1.307   2.952
  314SOL    HW2 1255   3.578   1.412   2.864
  314SOL     MW 1256   3.574   1.337   2.909
  315SOL     OW 1257   3.749   1.533   3.726
  315SOL    HW1 1258   3.750   1.554   3.819
  315SOL    HW2 1259   3.671   1.479   3.715
  315SOL     MW 1260   3.739   1.529   3.737
  316SOL     OW 1261   4.911   2.959   0.074
  316SOL    HW1 1262   4.940   2.868   0.078
  316SOL    HW2 1263   4.929   2.986  -0.016
  316SOL     MW 1264   4.917   2.951   0.063
  317SOL     OW 1265   4.349   1.406   1.158
  317SOL    HW1 1266   4.330   1.480   1.215
  317SOL    HW2 1267   4.381   1.337   1.217
  317SOL     MW 1268   4.351   1.406   1.173
  318SOL     OW 1269   3.996   4.268   1.126
  318SOL    HW1 1270   3.936   4.198   1.149
  318SOL    HW2 1271   4.024   4.248   1.037
  318SOL     MW 1272   3.992   4.257   1.118
  319SOL     OW 1273   1.343   1.380   4.034
  319SOL    HW1 1274   1.332   1.469   4.000
  319SOL    HW2 1275   1.424   1.349   3.994
  319SOL     MW 1276   1.352   1.387   4.025
  320SOL     OW 1277   0.387   4.987   4.143
  320SOL    HW1 1278   0.310   4.990   4.087
  320SOL    HW2 1279   0.358   5.022   4.227
  320SOL     MW 1280   0.374   4.992   4.147
  321SOL     OW 1281   3.766   3.802   2.123
  321SOL    HW1 1282   3.783   3.708   2.131
  321SOL    HW2 1283   3.826   3.832   2.054
  321SOL     MW 1284   3.776   3.794   2.115
  322SOL     OW 1285   1.386   4.547   4.204
  322SOL    HW1 1286   1.455   4.496   4.162
  322SOL    HW2 1287   1.431   4.626   4.235
  322SOL     MW 1288   1.401   4.551   4.203
  323SOL     OW 1289   4.914   5.092   0.355
  323SOL    HW1 1290   4.985   5.031   0.375
  323SOL    HW2 1291   4.838   5.057   0.400
  323SOL     MW 1292   4.913   5.080   0.363
  324SOL     OW 1293   2.706   4.500   1.782
  324SOL    HW1 1294   2.699   4.584   1.737
  324SOL    HW2 1295   2.619   4.485   1.819
  324SOL     MW 1296   2.694   4.509   1.781
  325SOL     OW 1297   3.315   1.245   1.319
  325SOL    HW1 1298   3.251   1.205   1.378
  325SOL    HW2 1299   3.291   1.214   1.232
  325SOL     MW 1300   3.304   1.236   1.316
  326SOL     OW 1301   2.141   3.477   1.148
  326SOL    HW1 1302   2.196   3.499   1.073
  326SOL    HW2 1303   2.079   3.549   1.154
  326SOL     MW 1304   2.140   3.489   1.139
  327SOL     OW 1305   4.646   1.646   3.143
  327SOL    HW1 1306   4.663   1.706   3.216
  327SOL    HW2 1307   4.577   1.589   3.175
  327SOL     MW 1308   4.640   1.646   3.156
  328SOL     OW 1309   1.522   3.974   0.426
  328SOL    HW1 1310   1.601   3.959   0.374
  328SOL    HW2 1311   1.536   3.924   0.506
  328SOL     MW 1312   1.534   3.966   0.429
  329SOL     OW 1313   0.451   4.315   0.177
  329SOL    HW1 1314   0.370   4.349   0.216
  329SOL    HW2 1315   0.454   4.223   0.206
  329SOL     MW 1316   0.441   4.307   0.186
  330SOL     OW 1317   3.094   1.556   0.131
  330SOL    HW1 1318   3.093   1.606   0.050
  330SOL    HW2 1319   3.080   1.620   0.200
  330SOL     MW 1320   3.092   1.570   0.129
  331SOL     OW 1321   3.208   0.869   3.390
  331SOL    HW1 1322   3.295   0.908   3.389
  331SOL    HW2 1323   3.151   0.937   3.426
  331SOL     MW 1324   3.211   0.883   3.394
  332SOL     OW 1325   1.906   5.438   2.312
  332SOL    HW1 1326   1.848   5.461   2.240
  332SOL    HW2 1327   1.879   5.496   2.383
  332SOL     MW 1328   1.896   5.449   2.312
  333SOL     OW 1329   3.062   4.695   0.126
  333SOL    HW1 1330   3.011   4.776   0.131
  333SOL    HW2 1331   3.064   4.663   0.216
  333SOL     MW 1332   3.055   4.702   0.138
  334SOL     OW 1333   2.452   4.769   1.434
  334SOL    HW1 1334   2.442   4.855   1.475
  334SOL    HW2 1335   2.501   4.718   1.499
  334SOL     MW 1336   2.457   4.773   1.448
  335SOL     OW 1337   0.515   2.489   3.638
  335SOL    HW1 1338   0.420   2.490   3.635
  335SOL    HW2 1339   0.542   2.557   3.576
  335SOL     MW 1340   0.506   2.498   3.630
  336SOL     OW 1341   4.587   5.005   1.684
  336SOL    HW1 1342   4.492   4.996   1.693
  336SOL    HW2 1343   4.599   5.091   1.645
  336SOL     MW 1344   4.576   5.015   1.680
  337SOL     OW 1345   4.802   3.250   2.076
  337SOL    HW1 1346   4.867   3.229   2.009
  337SOL    HW2 1347   4.854   3.286   2.149
  337SOL     MW 1348   4.817   3.252   2.077
  338SOL     OW 1349   5.236   2.489   4.839
  338SOL    HW1 1350   5.193   2.480   4.754
  338SOL    HW2 1351   5.164   2.485   4.903
  338SOL     MW 1352   5.221   2.487   4.837
  339SOL     OW 1353   5.210   3.229   4.515
  339SOL    HW1 1354   5.131   3.255   4.564
  339SOL    HW2 1355   5.219   3.294   4.446
  339SOL     MW 1356   5.201   3.240   4.513
  340SOL     OW 1357   0.656   2.756   2.213
  340SOL    HW1 1358   0.618   2.668   2.217
  340SOL    HW2 1359   0.750   2.742   2.207
  340SOL     MW 1360   0.663   2.743   2.213
  341SOL     OW 1361   0.523   1.002   3.957
  341SOL    HW1 1362   0.580   0.936   3.996
  341SOL    HW2 1363   0.435   0.981   3.988
  341SOL     MW 1364   0.519   0.991   3.966
  342SOL     OW 1365   3.708   0.195   1.165
  342SOL    HW1 1366   3.656   0.127   1.206
  342SOL    HW2 1367   3.742   0.155   1.085
  342SOL     MW 1368   3.706   0.181   1.160
  343SOL     OW 1369   0.969   3.696   1.395
  343SOL    HW1 1370   1.052   3.726   1.356
  343SOL    HW2 1371   0.963   3.604   1.368
  343SOL     MW 1372   0.979   3.688   1.386
  344SOL     OW 1373   3.073   3.540   4.556
  344SOL    HW1 1374   3.164   3.523   4.533
  344SOL    HW2 1375   3.067   3.636   4.560
  344SOL     MW 1376   3.084   3.550   4.554
  345SOL     OW 1377   0.807   2.946   4.250
  345SOL    HW1 1378   0.818   2.880   4.181
  345SOL    HW2 1379   0.720   2.929   4.285
  345SOL     MW 1380   0.797   2.935   4.246
  346SOL     OW 1381   2.748   4.795   5.325
  346SOL    HW1 1382   2.779   4.885   5.313
  346SOL    HW2 1383   2.657   4.806   5.354
  346SOL     MW 1384   2.740   4.808   5.327
  347SOL     OW 1385   3.885   0.085   5.139
  347SOL    HW1 1386   3.901   0.092   5.233
  347SOL    HW2 1387   3.847   0.170   5.114
  347SOL     MW 1388   3.882   0.097   5.148
  348SOL     OW 1389   0.690   3.106   3.591
  348SOL    HW1 1390   0.680   3.094   3.685
  348SOL    HW2 1391   0.601   3.103   3.557
  348SOL     MW 1392   0.677   3.104   3.599
  349SOL     OW 1393   2.502   2.811   0.701
  349SOL    HW1 1394   2.502   2.756   0.623
  349SOL    HW2 1395   2.515   2.751   0.774
  349SOL     MW 1396   2.503   2.797   0.700
  350SOL     OW 1397   1.158   4.372   3.632
  350SOL    HW1 1398   1.063   4.373   3.619
  350SOL    HW2 1399   1.173   4.297   3.690
  350SOL     MW 1400   1.148   4.362   3.638
  351SOL     OW 1401   2.007   2.741   0.688
  351SOL    HW1 1402   2.058   2.744   0.607
  351SOL    HW2 1403   1.919   2.767   0.662
  351SOL     MW 1404   2.002   2.745   0.674
  352SOL     OW 1405   1.148   4.241   1.168
  352SOL    HW1 1406   1.230   4.271   1.129
  352SOL    HW2 1407   1.091   4.224   1.093
  352SOL     MW 1408   1.151   4.243   1.153
  353SOL     OW 1409   4.207   1.126   2.423
  353SOL    HW1 1410   4.139   1.175   2.470
  353SOL    HW2 1411   4.165   1.097   2.342
  353SOL     MW 1412   4.193   1.129   2.419
  354SOL     OW 1413   2.873   0.535   1.327
  354SOL    HW1 1414   2.817   0.462   1.297
  354SOL    HW2 1415   2.962   0.503   1.315
  354SOL     MW 1416   2.877   0.521   1.322
  355SOL     OW 1417   4.856   0.757   3.921
  355SOL    HW1 1418   4.857   0.853   3.927
  355SOL    HW2 1419   4.858   0.740   3.827
  355SOL     MW 1420   4.856   0.767   3.910
  356SOL     OW 1421   2.624   2.165   3.293
  356SOL    HW1 1422   2.658   2.193   3.208
  356SOL    HW2 1423   2.701   2.143   3.345
  356SOL     MW 1424   2.638   2.166   3.289
  357SOL     OW 1425   2.756   1.444   0.296
  357SOL    HW1 1426   2.793   1.440   0.207
  357SOL    HW2 1427   2.712   1.360   0.307
  357SOL     MW 1428   2.755   1.433   0.286
  358SOL     OW 1429   5.132   4.085   2.637
  358SOL    HW1 1430   5.145   4.178   2.657
  358SOL    HW2 1431   5.039   4.070   2.651
  358SOL     MW 1432   5.122   4.095   2.641
  359SOL     OW 1433   4.624   5.021   4.964
  359SOL    HW1 1434   4.652   5.002   5.054
  359SOL    HW2 1435   4.613   5.116   4.962
  359SOL     MW 1436   4.626   5.031   4.976
  360SOL     OW 1437   1.217   3.901   4.843
  360SOL    HW1 1438   1.154   3.860   4.903
  360SOL    HW2 1439   1.233   3.835   4.776
  360SOL     MW 1440   1.211   3.887   4.842
  361SOL     OW 1441   1.931   0.568   2.856
  361SOL    HW1 1442   1.844   0.609   2.857
  361SOL    HW2 1443   1.926   0.499   2.921
  361SOL     MW 1444   1.919   0.565   2.864
  362SOL     OW 1445   1.025   3.514   1.818
  362SOL    HW1 1446   0.945   3.472   1.787
  362SOL    HW2 1447   1.031   3.595   1.767
  362SOL     MW 1448   1.016   3.519   1.807
  363SOL     OW 1449   2.509   3.489   2.355
  363SOL    HW1 1450   2.549   3.505   2.269
  363SOL    HW2 1451   2.562   3.418   2.392
  363SOL     MW 1452   2.521   3.482   2.349
  364SOL     OW 1453   4.126   1.230   1.721
  364SOL    HW1 1454   4.208   1.244   1.769
  364SOL    HW2 1455   4.101   1.140   1.742
  364SOL     MW 1456   4.133   1.221   1.730
  365SOL     OW 1457   3.932   2.807   4.149
  365SOL    HW1 1458   4.007   2.777   4.098
  365SOL    HW2 1459   3.857   2.795   4.090
  365SOL     MW 1460   3.932   2.802   4.135
  366SOL     OW 1461   2.330   0.192   0.782
  366SOL    HW1 1462   2.321   0.282   0.812
  366SOL    HW2 1463   2.416   0.190   0.738
  366SOL     MW 1464   2.340   0.203   0.780
  367SOL     OW 1465   0.985   5.080   0.695
  367SOL    HW1 1466   0.951   5.081   0.605
  367SOL    HW2 1467   1.079   5.067   0.685
  367SOL     MW 1468   0.993   5.078   0.682
  368SOL     OW 1469   2.571   4.391   4.115
  368SOL    HW1 1470   2.663   4.367   4.107
  368SOL    HW2 1471   2.549   4.369   4.206
  368SOL     MW 1472   2.580   4.385   4.126
  369SOL     OW 1473   3.612   0.071   2.802
  369SOL    HW1 1474   3.530   0.074   2.753
  369SOL    HW2 1475   3.631   0.162   2.823
  369SOL     MW 1476   3.604   0.083   2.798
  370SOL     OW 1477   2.932   3.503   0.892
  370SOL    HW1 1478   2.888   3.581   0.926
  370SOL    HW2 1479   2.998   3.537   0.832
  370SOL     MW 1480   2.935   3.517   0.889
  371SOL     OW 1481   5.044   5.465   4.765
  371SOL    HW1 1482   5.140   5.467   4.762
  371SOL    HW2 1483   5.023   5.388   4.819
  371SOL     MW 1484   5.054   5.455   4.772
  372SOL     OW 1485   2.626   5.072   3.813
  372SOL    HW1 1486   2.641   4.978   3.810
  372SOL    HW2 1487   2.533   5.082   3.790
  372SOL     MW 1488   2.616   5.062   3.809
  373SOL     OW 1489   1.939   5.419   0.769
  373SOL    HW1 1490   1.895   5.433   0.853
  373SOL    HW2 1491   2.033   5.417   0.791
  373SOL     MW 1492   1.946   5.420   0.782
  374SOL     OW 1493   2.909   0.948   4.840
  374SOL    HW1 1494   2.967   1.001   4.785
  374SOL    HW2 1495   2.845   0.911   4.780
  374SOL     MW 1496   2.908   0.950   4.825
  375SOL     OW 1497   4.159   5.363   4.561
  375SOL    HW1 1498   4.206   5.428   4.510
  375SOL    HW2 1499   4.076   5.405   4.583
  375SOL     MW 1500   4.154   5.376   4.558
  376SOL     OW 1501   4.317   5.384   4.087
  376SOL    HW1 1502   4.230   5.374   4.047
  376SOL    HW2 1503   4.358   5.299   4.075
  376SOL     MW 1504   4.311   5.372   4.080
  377SOL     OW 1505   2.941   4.498   3.795
  377SOL    HW1 1506   2.940   4.578   3.742
  377SOL    HW2 1507   2.962   4.528   3.884
  377SOL     MW 1508   2.944   4.512   3.800
  378SOL     OW 1509   0.497   3.773   3.810
  378SOL    HW1 1510   0.575   3.784   3.864
  378SOL    HW2 1511   0.472   3.863   3.785
  378SOL     MW 1512   0.504   3.786   3.813
  379SOL     OW 1513   3.557   4.934   1.886
  379SOL    HW1 1514   3.622   4.879   1.931
  379SOL    HW2 1515   3.608   5.006   1.850
  379SOL     MW 1516   3.572   4.936   1.887
  380SOL     OW 1517   2.017   1.353   5.013
  380SOL    HW1 1518   1.978   1.409   4.946
  380SOL    HW2 1519   1.958   1.277   5.018
  380SOL     MW 1520   2.004   1.351   5.005
  381SOL     OW 1521   5.242   2.891   3.169
  381SOL    HW1 1522   5.185   2.814   3.174
  381SOL    HW2 1523   5.189   2.957   3.124
  381SOL     MW 1524   5.228   2.890   3.164
  382SOL     OW 1525   0.542   2.251   3.514
  382SOL    HW1 1526   0.545   2.332   3.566
  382SOL    HW2 1527   0.560   2.181   3.577
  382SOL     MW 1528   0.545   2.253   3.528
  383SOL     OW 1529   0.636   3.820   4.654
  383SOL    HW1 1530   0.618   3.891   4.716
  383SOL    HW2 1531   0.658   3.745   4.709
  383SOL     MW 1532   0.637   3.820   4.669
  384SOL     OW 1533   4.746   3.468   1.032
  384SOL    HW1 1534   4.812   3.420   0.982
  384SOL    HW2 1535   4.729   3.547   0.980
  384SOL     MW 1536   4.752   3.472   1.019
  385SOL     OW 1537   1.565   4.140   3.122
  385SOL    HW1 1538   1.652   4.101   3.114
  385SOL    HW2 1539   1.567   4.214   3.061
  385SOL     MW 1540   1.577   4.144   3.113
  386SOL     OW 1541   2.080   0.090   4.773
  386SOL    HW1 1542   2.066  -0.004   4.758
  386SOL    HW2 1543   2.161   0.095   4.824
  386SOL     MW 1544   2.088   0.079   4.778
  387SOL     OW 1545   1.051   1.148   0.359
  387SOL    HW1 1546   1.036   1.055   0.375
  387SOL    HW2 1547   1.067   1.154   0.265
  387SOL     MW 1548   1.051   1.137   0.349
  388SOL     OW 1549   2.495   1.237   2.999
  388SOL    HW1 1550   2.407   1.202   2.985
  388SOL    HW2 1551   2.552   1.180   2.948
  388SOL     MW 1552   2.491   1.225   2.991
  389SOL     OW 1553   3.634   1.284   1.670
  389SOL    HW1 1554   3.570   1.324   1.610
  389SOL    HW2 1555   3.665   1.357   1.723
  389SOL     MW 1556   3.629   1.299   1.669
  390SOL     OW 1557   5.299   2.660   0.909
  390SOL    HW1 1558   5.218   2.696   0.945
  390SOL    HW2 1559   5.334   2.605   0.979
  390SOL     MW 1560   5.293   2.657   0.923
  391SOL     OW 1561   3.403   0.083   4.447
  391SOL    HW1 1562   3.460   0.035   4.387
  391SOL    HW2 1563   3.327   0.107   4.393
  391SOL     MW 1564   3.400   0.080   4.432
  392SOL     OW 1565   4.496   3.125   1.346
  392SOL    HW1 1566   4.413   3.081   1.363
  392SOL    HW2 1567   4.540   3.127   1.432
  392SOL     MW 1568   4.491   3.119   1.360
  393SOL     OW 1569   2.916   1.092   2.743
  393SOL    HW1 1570   2.906   1.158   2.675
  393SOL    HW2 1571   2.971   1.134   2.809
  393SOL     MW 1572   2.921   1.106   2.743
  394SOL     OW 1573   0.916   4.404   3.093
  394SOL    HW1 1574   0.981   4.336   3.113
  394SOL    HW2 1575   0.895   4.443   3.177
  394SOL     MW 1576   0.922   4.400   3.106
  395SOL     OW 1577   5.197   4.461   0.320
  395SOL    HW1 1578   5.184   4.384   0.376
  395SOL    HW2 1579   5.108   4.488   0.297
  395SOL     MW 1580   5.184   4.454   0.324
  396SOL     OW 1581   1.457   1.441   3.380
  396SOL    HW1 1582   1.362   1.437   3.380
  396SOL    HW2 1583   1.485   1.352   3.359
  396SOL     MW 1584   1.449   1.429   3.378
  397SOL     OW 1585   0.253   3.012   2.314
  397SOL    HW1 1586   0.176   2.959   2.294
  397SOL    HW2 1587   0.290   3.033   2.229
  397SOL     MW 1588   0.248   3.008   2.301
  398SOL     OW 1589   2.130   2.102   3.598
  398SOL    HW1 1590   2.093   2.172   3.545
  398SOL    HW2 1591   2.193   2.059   3.540
  398SOL     MW 1592   2.134   2.105   3.584
  399SOL     OW 1593   3.016   2.784   0.388
  399SOL    HW1 1594   3.066   2.702   0.387
  399SOL    HW2 1595   2.925   2.756   0.387
  399SOL     MW 1596   3.011   2.770   0.388
  400SOL     OW 1597   0.449   2.046   5.092
  400SOL    HW1 1598   0.530   2.094   5.074
  400SOL    HW2 1599   0.457   2.019   5.183
  400SOL     MW 1600   0.460   2.049   5.101
  401SOL     OW 1601   0.598   1.712   2.760
  401SOL    HW1 1602   0.641   1.771   2.699
  401SOL    HW2 1603   0.613   1.750   2.846
  401SOL     MW 1604   0.605   1.724   2.763
  402SOL     OW 1605   2.178   4.589   0.747
  402SOL    HW1 1606   2.112   4.575   0.815
  402SOL    HW2 1607   2.173   4.511   0.693
  402SOL     MW 1608   2.169   4.578   0.749
  403SOL     OW 1609   4.408   3.662   3.379
  403SOL    HW1 1610   4.458   3.665   3.461
  403SOL    HW2 1611   4.349   3.587   3.390
  403SOL     MW 1612   4.407   3.653   3.391
  404SOL     OW 1613   4.951   0.399   1.632
  404SOL    HW1 1614   5.002   0.358   1.701
  404SOL    HW2 1615   4.896   0.328   1.598
  404SOL     MW 1616   4.950   0.385   1.636
  405SOL     OW 1617   1.984   0.116   1.942
  405SOL    HW1 1618   1.970   0.128   1.849
  405SOL    HW2 1619   2.029   0.032   1.949
  405SOL     MW 1620   1.988   0.107   1.931
  406SOL     OW 1621   0.690   4.067   2.389
  406SOL    HW1 1622   0.678   4.146   2.336
  406SOL    HW2 1623   0.610   4.061   2.441
  406SOL     MW 1624   0.679   4.076   2.389
  407SOL     OW 1625   2.820   1.885   2.454
  407SOL    HW1 1626   2.816   1.979   2.471
  407SOL    HW2 1627   2.819   1.878   2.358
  407SOL     MW 1628   2.819   1.896   2.444
  408SOL     OW 1629   1.346   4.136   3.315
  408SOL    HW1 1630   1.422   4.146   3.258
  408SOL    HW2 1631   1.277   4.187   3.273
  408SOL     MW 1632   1.347   4.144   3.302
  409SOL     OW 1633   3.904   1.205   2.782
  409SOL    HW1 1634   3.948   1.126   2.814
  409SOL    HW2 1635   3.833   1.173   2.726
  409SOL     MW 1636   3.901   1.191   2.779
  410SOL     OW 1637   2.846   0.861   3.331
  410SOL    HW1 1638   2.767   0.877   3.382
  410SOL    HW2 1639   2.916   0.900   3.383
  410SOL     MW 1640   2.845   0.868   3.345
  411SOL     OW 1641   5.355   4.099   4.275
  411SOL    HW1 1642   5.265   4.069   4.270
  411SOL    HW2 1643   5.404   4.037   4.221
  411SOL     MW 1644   5.350   4.087   4.268
  412SOL     OW 1645   0.672   3.115   2.400
  412SOL    HW1 1646   0.618   3.035   2.401
  412SOL    HW2 1647   0.666   3.147   2.310
  412SOL     MW 1648   0.664   3.109   2.389
  413SOL     OW 1649   2.989   0.056   1.881
  413SOL    HW1 1650   2.998  -0.027   1.929
  413SOL    HW2 1651   3.079   0.088   1.872
  413SOL     MW 1652   3.002   0.049   1.886
  414SOL     OW 1653   2.006   0.765   4.604
  414SOL    HW1 1654   2.011   0.688   4.548
  414SOL    HW2 1655   2.056   0.741   4.682
  414SOL     MW 1656   2.013   0.752   4.607
  415SOL     OW 1657   0.398   4.231   3.451
  415SOL    HW1 1658   0.475   4.187   3.488
  415SOL    HW2 1659   0.413   4.230   3.357
  415SOL     MW 1660   0.409   4.225   3.444
  416SOL     OW 1661   2.812   3.623   4.899
  416SOL    HW1 1662   2.773   3.571   4.969
  416SOL    HW2 1663   2.890   3.574   4.873
  416SOL     MW 1664   2.817   3.610   4.905
  417SOL     OW 1665   0.295   3.319   0.893
  417SOL    HW1 1666   0.313   3.311   0.986
  417SOL    HW2 1667   0.253   3.236   0.869
  417SOL     MW 1668   0.292   3.308   0.902
  418SOL     OW 1669   2.618   2.740   3.440
  418SOL    HW1 1670   2.524   2.733   3.461
  418SOL    HW2 1671   2.655   2.658   3.471
  418SOL     MW 1672   2.610   2.728   3.447
  419SOL     OW 1673   0.771   5.267   1.700
  419SOL    HW1 1674   0.694   5.215   1.723
  419SOL    HW2 1675   0.757   5.352   1.740
  419SOL     MW 1676   0.760   5.271   1.708
  420SOL     OW 1677   0.617   4.947   0.458
  420SOL    HW1 1678   0.578   4.981   0.378
  420SOL    HW2 1679   0.560   4.978   0.528
  420SOL     MW 1680   0.605   4.955   0.457
  421SOL     OW 1681   0.747   1.852   1.167
  421SOL    HW1 1682   0.755   1.757   1.168
  421SOL    HW2 1683   0.802   1.880   1.093
  421SOL     MW 1684   0.755   1.844   1.157
  422SOL     OW 1685   1.169   4.583   3.805
  422SOL    HW1 1686   1.186   4.535   3.886
  422SOL    HW2 1687   1.166   4.515   3.737
  422SOL     MW 1688   1.171   4.568   3.807
  423SOL     OW 1689   2.995   2.736   4.864
  423SOL    HW1 1690   3.011   2.678   4.939
  423SOL    HW2 1691   2.973   2.820   4.903
  423SOL     MW 1692   2.994   2.739   4.879
  424SOL     OW 1693   2.047   2.587   4.198
  424SOL    HW1 1694   1.980   2.564   4.262
  424SOL    HW2 1695   2.016   2.550   4.115
  424SOL     MW 1696   2.035   2.579   4.195
  425SOL     OW 1697   3.645   2.449   4.657
  425SOL    HW1 1698   3.705   2.453   4.582
  425SOL    HW2 1699   3.634   2.541   4.682
  425SOL     MW 1700   3.651   2.462   4.650
  426SOL     OW 1701   4.693   0.931   1.193
  426SOL    HW1 1702   4.693   0.840   1.161
  426SOL    HW2 1703   4.601   0.949   1.212
  426SOL     MW 1704   4.681   0.921   1.191
  427SOL     OW 1705   1.136   2.608   1.221
  427SOL    HW1 1706   1.066   2.651   1.171
  427SOL    HW2 1707   1.093   2.574   1.299
  427SOL     MW 1708   1.122   2.609   1.225
  428SOL     OW 1709   1.321   0.956   1.931
  428SOL    HW1 1710   1.256   0.971   1.863
  428SOL    HW2 1711   1.272   0.917   2.003
  428SOL     MW 1712   1.306   0.953   1.931
  429SOL     OW 1713   3.550   2.806   1.961
  429SOL    HW1 1714   3.489   2.867   1.920
  429SOL    HW2 1715   3.538   2.724   1.914
  429SOL     MW 1716   3.541   2.804   1.950
  430SOL     OW 1717   3.790   1.099   1.556
  430SOL    HW1 1718   3.736   1.166   1.598
  430SOL    HW2 1719   3.753   1.016   1.587
  430SOL     MW 1720   3.778   1.097   1.565
  431SOL     OW 1721   2.140   2.468   0.500
  431SOL    HW1 1722   2.139   2.462   0.596
  431SOL    HW2 1723   2.224   2.429   0.475
  431SOL     MW 1724   2.151   2.462   0.509
  432SOL     OW 1725   5.336   1.835   3.620
  432SOL    HW1 1726   5.374   1.747   3.610
  432SOL    HW2 1727   5.368   1.883   3.544
  432SOL     MW 1728   5.345   1.830   3.609
  433SOL     OW 1729   3.046   4.705   4.492
  433SOL    HW1 1730   3.063   4.790   4.453
  433SOL    HW2 1731   3.132   4.663   4.494
  433SOL     MW 1732   3.059   4.710   4.487
  434SOL     OW 1733   3.176   1.026   2.417
  434SOL    HW1 1734   3.208   0.962   2.354
  434SOL    HW2 1735   3.086   1.044   2.390
  434SOL     MW 1736   3.169   1.020   2.405
  435SOL     OW 1737   3.933   1.945   4.074
  435SOL    HW1 1738   3.942   2.040   4.070
  435SOL    HW2 1739   3.898   1.921   3.989
  435SOL     MW 1740   3.930   1.954   4.063
  436SOL     OW 1741   3.504   5.106   3.180
  436SOL    HW1 1742   3.542   5.072   3.099
  436SOL    HW2 1743   3.410   5.100   3.167
  436SOL     MW 1744   3.497   5.101   3.168
  437SOL     OW 1745   3.247   4.249   4.710
  437SOL    HW1 1746   3.226   4.274   4.620
  437SOL    HW2 1747   3.340   4.229   4.709
  437SOL     MW 1748   3.256   4.250   4.698
  438SOL     OW 1749   4.052   5.317   1.915
  438SOL    HW1 1750   4.109   5.304   1.839
  438SOL    HW2 1751   3.999   5.393   1.891
  438SOL     MW 1752   4.052   5.325   1.902
  439SOL     OW 1753   3.707   1.464   1.864
  439SOL    HW1 1754   3.635   1.423   1.910
  439SOL    HW2 1755   3.782   1.406   1.879
  439SOL     MW 1756   3.708   1.451   1.872
  440SOL     OW 1757   1.753   3.590   0.006
  440SOL    HW1 1758   1.794   3.511   0.041
  440SOL    HW2 1759   1.660   3.568  -0.001
  440SOL     MW 1760   1.746   3.577   0.009
  441SOL     OW 1761   4.418   1.074   4.077
  441SOL    HW1 1762   4.436   0.986   4.108
  441SOL    HW2 1763   4.369   1.062   3.996
  441SOL     MW 1764   4.414   1.061   4.071
  442SOL     OW 1765   5.408   0.747   2.427
  442SOL    HW1 1766   5.461   0.680   2.384
  442SOL    HW2 1767   5.447   0.759   2.513
  442SOL     MW 1768   5.420   0.740   2.432
  443SOL     OW 1769   0.476   2.712   0.736
  443SOL    HW1 1770   0.500   2.639   0.793
  443SOL    HW2 1771   0.559   2.753   0.713
  443SOL     MW 1772   0.490   2.708   0.740
  444SOL     OW 1773   3.390   1.612   3.650
  444SOL    HW1 1774   3.338   1.580   3.723
  444SOL    HW2 1775   3.416   1.701   3.676
  444SOL     MW 1776   3.387   1.619   3.663
  445SOL     OW 1777   4.490   1.764   0.639
  445SOL    HW1 1778   4.489   1.673   0.610
  445SOL    HW2 1779   4.463   1.814   0.562
  445SOL     MW 1780   4.486   1.758   0.626
  446SOL     OW 1781   3.263   1.644   0.746
  446SOL    HW1 1782   3.348   1.686   0.761
  446SOL    HW2 1783   3.256   1.578   0.816
  446SOL     MW 1784   3.273   1.641   0.757
  447SOL     OW 1785   1.368   1.714   2.799
  447SOL    HW1 1786   1.406   1.781   2.856
  447SOL    HW2 1787   1.352   1.759   2.716
  447SOL     MW 1788   1.371   1.728   2.796
  448SOL     OW 1789   3.497   1.064   4.255
  448SOL    HW1 1790   3.527   1.128   4.191
  448SOL    HW2 1791   3.401   1.072   4.255
  448SOL     MW 1792   3.488   1.073   4.247
  449SOL     OW 1793   5.147   0.800   3.443
  449SOL    HW1 1794   5.220   0.857   3.467
  449SOL    HW2 1795   5.187   0.714   3.429
  449SOL     MW 1796   5.162   0.796   3.444
  450SOL     OW 1797   1.931   5.022   4.263
  450SOL    HW1 1798   1.951   5.065   4.346
  450SOL    HW2 1799   1.993   5.061   4.200
  450SOL     MW 1800   1.941   5.033   4.265
  451SOL     OW 1801   4.823   3.776   5.426
  451SOL    HW1 1802   4.875   3.708   5.470
  451SOL    HW2 1803   4.753   3.797   5.488
  451SOL     MW 1804   4.821   3.770   5.440
  452SOL     OW 1805   4.020   1.390   4.603
  452SOL    HW1 1806   4.085   1.438   4.655
  452SOL    HW2 1807   4.064   1.369   4.521
  452SOL     MW 1808   4.034   1.394   4.599
  453SOL     OW 1809   4.227   0.679   4.149
  453SOL    HW1 1810   4.155   0.619   4.166
  453SOL    HW2 1811   4.279   0.636   4.081
  453SOL     MW 1812   4.224   0.666   4.142
  454SOL     OW 1813   4.407   2.212   4.083
  454SOL    HW1 1814   4.330   2.206   4.139
  454SOL    HW2 1815   4.373   2.192   3.995
  454SOL     MW 1816   4.392   2.209   4.079
  455SOL     OW 1817   1.805   5.449   1.013
  455SOL    HW1 1818   1.733   5.474   0.956
  455SOL    HW2 1819   1.796   5.354   1.024
  455SOL     MW 1820   1.795   5.440   1.007
  456SOL     OW 1821   1.015   3.357   2.442
  456SOL    HW1 1822   1.060   3.407   2.511
  456SOL    HW2 1823   0.922   3.373   2.457
  456SOL     MW 1824   1.009   3.366   2.453
  457SOL     OW 1825   4.517   4.288   2.163
  457SOL    HW1 1826   4.519   4.209   2.109
  457SOL    HW2 1827   4.592   4.339   2.133
  457SOL     MW 1828   4.527   4.284   2.152
  458SOL     OW 1829   5.478   4.281   0.904
  458SOL    HW1 1830   5.463   4.195   0.865
  458SOL    HW2 1831   5.391   4.314   0.927
  458SOL     MW 1832   5.465   4.274   0.902
  459SOL     OW 1833   4.811   4.176   2.928
  459SOL    HW1 1834   4.851   4.089   2.937
  459SOL    HW2 1835   4.745   4.180   2.997
  459SOL     MW 1836   4.808   4.165   2.938
  460SOL     OW 1837   1.189   3.931   0.013
  460SOL    HW1 1838   1.213   3.839   0.015
  460SOL    HW2 1839   1.272   3.978   0.003
  460SOL     MW 1840   1.203   3.926   0.012
  461SOL     OW 1841   2.408   5.287   4.012
  461SOL    HW1 1842   2.504   5.284   4.020
  461SOL    HW2 1843   2.376   5.248   4.093
  461SOL     MW 1844   2.416   5.281   4.023
  462SOL     OW 1845   3.824   0.143   2.458
  462SOL    HW1 1846   3.872   0.090   2.394
  462SOL    HW2 1847   3.840   0.098   2.542
  462SOL     MW 1848   3.832   0.130   2.461
  463SOL     OW 1849   1.595   4.518   4.445
  463SOL    HW1 1850   1.662   4.584   4.462
  463SOL    HW2 1851   1.514   4.555   4.482
  463SOL     MW 1852   1.593   4.531   4.452
  464SOL     OW 1853   4.838   0.473   1.008
  464SOL    HW1 1854   4.778   0.476   0.933
  464SOL    HW2 1855   4.857   0.380   1.020
  464SOL     MW 1856   4.832   0.462   1.000
  465SOL     OW 1857   4.694   4.739   3.303
  465SOL    HW1 1858   4.618   4.763   3.356
  465SOL    HW2 1859   4.665   4.750   3.213
  465SOL     MW 1860   4.681   4.743   3.298
  466SOL     OW 1861   4.308   1.485   2.315
  466SOL    HW1 1862   4.383   1.542   2.300
  466SOL    HW2 1863   4.313   1.462   2.408
  466SOL     MW 1864   4.318   1.489   2.325
  467SOL     OW 1865   0.257   4.574   0.746
  467SOL    HW1 1866   0.169   4.583   0.709
  467SOL    HW2 1867   0.244   4.583   0.840
  467SOL     MW 1868   0.244   4.576   0.753
  468SOL     OW 1869   3.475   3.051   0.062
  468SOL    HW1 1870   3.439   3.080  -0.022
  468SOL    HW2 1871   3.560   3.094   0.067
  468SOL     MW 1872   3.481   3.061   0.052
  469SOL     OW 1873   0.970   2.265   2.745
  469SOL    HW1 1874   1.046   2.208   2.737
  469SOL    HW2 1875   0.943   2.256   2.836
  469SOL     MW 1876   0.976   2.257   2.756
  470SOL     OW 1877   1.219   0.586   3.161
  470SOL    HW1 1878   1.226   0.499   3.121
  470SOL    HW2 1879   1.303   0.599   3.206
  470SOL     MW 1880   1.231   0.576   3.161
  471SOL     OW 1881   1.348   4.707   2.978
  471SOL    HW1 1882   1.415   4.746   3.035
  471SOL    HW2 1883   1.280   4.774   2.972
  471SOL     MW 1884   1.348   4.721   2.985
  472SOL     OW 1885   2.772   1.187   1.283
  472SOL    HW1 1886   2.709   1.184   1.356
  472SOL    HW2 1887   2.720   1.218   1.209
  472SOL     MW 1888   2.757   1.191   1.283
  473SOL     OW 1889   1.334   1.052   3.812
  473SOL    HW1 1890   1.272   1.035   3.740
  473SOL    HW2 1891   1.320   0.980   3.873
  473SOL     MW 1892   1.324   1.041   3.810
  474SOL     OW 1893   1.396   4.740   0.961
  474SOL    HW1 1894   1.446   4.730   1.042
  474SOL    HW2 1895   1.454   4.707   0.893
  474SOL     MW 1896   1.410   4.735   0.963
  475SOL     OW 1897   2.550   2.641   2.010
  475SOL    HW1 1898   2.555   2.597   2.095
  475SOL    HW2 1899   2.636   2.628   1.971
  475SOL     MW 1900   2.561   2.634   2.016
  476SOL     OW 1901   3.405   3.371   3.459
  476SOL    HW1 1902   3.482   3.365   3.402
  476SOL    HW2 1903   3.352   3.295   3.435
  476SOL     MW 1904   3.408   3.360   3.449
  477SOL     OW 1905   3.153   2.248   0.370
  477SOL    HW1 1906   3.165   2.210   0.283
  477SOL    HW2 1907   3.146   2.342   0.354
  477SOL     MW 1908   3.153   2.255   0.356
  478SOL     OW 1909   4.452   2.524   0.614
  478SOL    HW1 1910   4.423   2.468   0.685
  478SOL    HW2 1911   4.371   2.562   0.578
  478SOL     MW 1912   4.438   2.522   0.618
  479SOL     OW 1913   1.284   0.213   0.665
  479SOL    HW1 1914   1.340   0.281   0.702
  479SOL    HW2 1915   1.235   0.258   0.596
  479SOL     MW 1916   1.285   0.228   0.661
  480SOL     OW 1917   1.178   4.166   0.413
  480SOL    HW1 1918   1.154   4.196   0.501
  480SOL    HW2 1919   1.187   4.247   0.362
  480SOL     MW 1920   1.176   4.180   0.418
  481SOL     OW 1921   0.130   3.680   4.266
  481SOL    HW1 1922   0.191   3.747   4.299
  481SOL    HW2 1923   0.175   3.597   4.282
  481SOL     MW 1924   0.144   3.678   4.272
  482SOL     OW 1925   5.061   1.180   2.664
  482SOL    HW1 1926   5.016   1.132   2.734
  482SOL    HW2 1927   5.014   1.156   2.584
  482SOL     MW 1928   5.049   1.171   2.663
  483SOL     OW 1929   4.265   3.667   1.336
  483SOL    HW1 1930   4.359   3.658   1.321
  483SOL    HW2 1931   4.252   3.634   1.425
  483SOL     MW 1932   4.276   3.661   1.346
  484SOL     OW 1933   1.874   0.997   3.454
  484SOL    HW1 1934   1.789   0.967   3.422
  484SOL    HW2 1935   1.870   1.093   3.447
  484SOL     MW 1936   1.862   1.006   3.449
  485SOL     OW 1937   3.092   0.724   0.652
  485SOL    HW1 1938   3.097   0.754   0.743
  485SOL    HW2 1939   3.128   0.636   0.654
  485SOL     MW 1940   3.097   0.717   0.664
  486SOL     OW 1941   0.939   4.092   3.798
  486SOL    HW1 1942   1.032   4.111   3.810
  486SOL    HW2 1943   0.938   4.027   3.727
  486SOL     MW 1944   0.951   4.086   3.790
  487SOL     OW 1945   1.259   4.626   0.402
  487SOL    HW1 1946   1.229   4.547   0.356
  487SOL    HW2 1947   1.349   4.638   0.371
  487SOL     MW 1948   1.267   4.617   0.392
  488SOL     OW 1949   2.991   1.891   3.363
  488SOL    HW1 1950   2.989   1.845   3.447
  488SOL    HW2 1951   3.084   1.906   3.346
  488SOL     MW 1952   3.003   1.887   3.372
  489SOL     OW 1953   0.048   4.849   3.411
  489SOL    HW1 1954  -0.020   4.915   3.426
  489SOL    HW2 1955   0.032   4.819   3.321
  489SOL     MW 1956   0.037   4.853   3.401
  490SOL     OW 1957   3.422   1.065   0.900
  490SOL    HW1 1958   3.498   1.023   0.861
  490SOL    HW2 1959   3.451   1.154   0.919
  490SOL     MW 1960   3.435   1.071   0.897
  491SOL     OW 1961   3.518   4.894   4.311
  491SOL    HW1 1962   3.593   4.869   4.257
  491SOL    HW2 1963   3.548   4.880   4.401
  491SOL     MW 1964   3.531   4.889   4.316
  492SOL     OW 1965   3.136   3.144   0.180
  492SOL    HW1 1966   3.166   3.075   0.121
  492SOL    HW2 1967   3.215   3.174   0.225
  492SOL     MW 1968   3.150   3.139   0.178
  493SOL     OW 1969   3.145   2.276   2.804
  493SOL    HW1 1970   3.146   2.188   2.841
  493SOL    HW2 1971   3.054   2.303   2.806
  493SOL     MW 1972   3.134   2.268   2.809
  494SOL     OW 1973   4.362   2.084   4.989
  494SOL    HW1 1974   4.284   2.096   5.044
  494SOL    HW2 1975   4.343   2.007   4.936
  494SOL     MW 1976   4.350   2.076   4.989
  495SOL     OW 1977   4.879   1.020   3.990
  495SOL    HW1 1978   4.797   1.066   3.976
  495SOL    HW2 1979   4.947   1.085   3.974
  495SOL     MW 1980   4.877   1.034   3.987
  496SOL     OW 1981   2.328   5.356   1.529
  496SOL    HW1 1982   2.268   5.320   1.594
  496SOL    HW2 1983   2.314   5.302   1.451
  496SOL     MW 1984   2.319   5.344   1.527
  497SOL     OW 1985   5.288   3.969   3.833
  497SOL    HW1 1986   5.308   4.037   3.768
  497SOL    HW2 1987   5.373   3.929   3.852
  497SOL     MW 1988   5.301   3.973   3.827
  498SOL     OW 1989   0.259   2.472   4.756
  498SOL    HW1 1990   0.179   2.431   4.788
  498SOL    HW2 1991   0.229   2.543   4.698
  498SOL     MW 1992   0.245   2.476   4.753
  499SOL     OW 1993   0.363   2.440   0.034
  499SOL    HW1 1994   0.428   2.380  -0.003
  499SOL    HW2 1995   0.291   2.384   0.062
  499SOL     MW 1996   0.362   2.425   0.033
  500SOL     OW 1997   0.363   2.711   1.703
  500SOL    HW1 1998   0.360   2.624   1.742
  500SOL    HW2 1999   0.305   2.705   1.627
  500SOL     MW 2000   0.355   2.699   1.698
  501SOL     OW 2001   1.726   4.706   1.394
  501SOL    HW1 2002   1.757   4.794   1.418
  501SOL    HW2 2003   1.662   4.721   1.325
  501SOL     MW 2004   1.722   4.719   1.388
  502SOL     OW 2005   2.088   3.830   4.822
  502SOL    HW1 2006   2.171   3.855   4.780
  502SOL    HW2 2007   2.024   3.890   4.785
  502SOL     MW 2008   2.091   3.841   4.812
  503SOL     OW 2009   3.788   1.623   3.995
  503SOL    HW1 2010   3.875   1.658   3.978
  503SOL    HW2 2011   3.793   1.585   4.083
  503SOL     MW 2012   3.800   1.623   4.004
  504SOL     OW 2013   2.123   3.213   0.734
  504SOL    HW1 2014   2.115   3.121   0.761
  504SOL    HW2 2015   2.214   3.221   0.706
  504SOL     MW 2016   2.134   3.202   0.734
  505SOL     OW 2017   4.622   4.477   2.595
  505SOL    HW1 2018   4.598   4.384   2.589
  505SOL    HW2 2019   4.557   4.514   2.655
  505SOL     MW 2020   4.610   4.470   2.602
  506SOL     OW 2021   3.836   2.385   5.362
  506SOL    HW1 2022   3.762   2.446   5.367
  506SOL    HW2 2023   3.807   2.316   5.302
  506SOL     MW 2024   3.823   2.384   5.355
  507SOL     OW 2025   1.096   2.405   3.063
  507SOL    HW1 2026   1.176   2.367   3.027
  507SOL    HW2 2027   1.028   2.340   3.043
  507SOL     MW 2028   1.097   2.392   3.056
  508SOL     OW 2029   4.079   0.552   3.337
  508SOL    HW1 2030   4.021   0.610   3.386
  508SOL    HW2 2031   4.092   0.477   3.396
  508SOL     MW 2032   4.073   0.550   3.351
  509SOL     OW 2033   3.750   0.795   4.597
  509SOL    HW1 2034   3.675   0.784   4.539
  509SOL    HW2 2035   3.786   0.880   4.575
  509SOL     MW 2036   3.745   0.804   4.587
  510SOL     OW 2037   0.031   0.768  -0.004
  510SOL    HW1 2038   0.005   0.685   0.036
  510SOL    HW2 2039  -0.049   0.820  -0.005
  510SOL     MW 2040   0.017   0.764   0.001
  511SOL     OW 2041   4.495   0.363   2.423
  511SOL    HW1 2042   4.547   0.376   2.502
  511SOL    HW2 2043   4.506   0.444   2.373
  511SOL     MW 2044   4.503   0.375   2.426
  512SOL     OW 2045   1.532   0.262   4.702
  512SOL    HW1 2046   1.610   0.288   4.653
  512SOL    HW2 2047   1.555   0.176   4.739
  512SOL     MW 2048   1.545   0.254   4.700
  513SOL     OW 2049   4.212   3.792   3.216
  513SOL    HW1 2050   4.140   3.823   3.272
  513SOL    HW2 2051   4.283   3.772   3.278
  513SOL     MW 2052   4.212   3.793   3.231
  514SOL     OW 2053   0.652   4.327   4.022
  514SOL    HW1 2054   0.684   4.295   4.106
  514SOL    HW2 2055   0.731   4.349   3.972
  514SOL     MW 2056   0.666   4.326   4.026
  515SOL     OW 2057   0.552   4.385   0.436
  515SOL    HW1 2058   0.492   4.456   0.456
  515SOL    HW2 2059   0.532   4.361   0.345
  515SOL     MW 2060   0.542   4.391   0.427
  516SOL     OW 2061   4.069   4.107   5.414
  516SOL    HW1 2062   4.050   4.195   5.379
  516SOL    HW2 2063   4.147   4.080   5.365
  516SOL     MW 2064   4.077   4.115   5.403
  517SOL     OW 2065   5.134   2.645   3.695
  517SOL    HW1 2066   5.064   2.654   3.760
  517SOL    HW2 2067   5.121   2.558   3.657
  517SOL     MW 2068   5.124   2.635   3.698
  518SOL     OW 2069   0.341   2.318   4.542
  518SOL    HW1 2070   0.306   2.361   4.619
  518SOL    HW2 2071   0.435   2.335   4.545
  518SOL     MW 2072   0.348   2.326   4.552
  519SOL     OW 2073   2.356   1.562   0.215
  519SOL    HW1 2074   2.296   1.586   0.285
  519SOL    HW2 2075   2.404   1.642   0.195
  519SOL     MW 2076   2.355   1.575   0.222
  520SOL     OW 2077   2.943   3.088   3.738
  520SOL    HW1 2078   3.000   3.056   3.808
  520SOL    HW2 2079   2.914   3.008   3.693
  520SOL     MW 2080   2.947   3.073   3.741
  521SOL     OW 2081   4.485   4.880   5.366
  521SOL    HW1 2082   4.394   4.900   5.347
  521SOL    HW2 2083   4.490   4.784   5.362
  521SOL     MW 2084   4.474   4.870   5.363
  522SOL     OW 2085   0.745   1.492   1.903
  522SOL    HW1 2086   0.747   1.454   1.816
  522SOL    HW2 2087   0.824   1.460   1.946
  522SOL     MW 2088   0.755   1.483   1.898
  523SOL     OW 2089   1.687   5.288   0.398
  523SOL    HW1 2090   1.695   5.227   0.472
  523SOL    HW2 2091   1.614   5.254   0.347
  523SOL     MW 2092   1.679   5.276   0.401
  524SOL     OW 2093   1.294   0.346   3.057
  524SOL    HW1 2094   1.272   0.365   2.966
  524SOL    HW2 2095   1.390   0.348   3.060
  524SOL     MW 2096   1.303   0.349   3.046
  525SOL     OW 2097   3.234   5.107   3.146
  525SOL    HW1 2098   3.237   5.125   3.052
  525SOL    HW2 2099   3.188   5.023   3.152
  525SOL     MW 2100   3.228   5.099   3.134
  526SOL     OW 2101   0.950   0.878   1.404
  526SOL    HW1 2102   0.956   0.821   1.481
  526SOL    HW2 2103   0.938   0.966   1.440
  526SOL     MW 2104   0.950   0.882   1.419
  527SOL     OW 2105   2.648   1.082   2.836
  527SOL    HW1 2106   2.600   1.053   2.759
  527SOL    HW2 2107   2.740   1.080   2.810
  527SOL     MW 2108   2.653   1.078   2.823
  528SOL     OW 2109   4.958   4.350   0.753
  528SOL    HW1 2110   4.916   4.342   0.839
  528SOL    HW2 2111   4.950   4.443   0.731
  528SOL     MW 2112   4.951   4.361   0.761
  529SOL     OW 2113   2.427   1.009   3.294
  529SOL    HW1 2114   2.369   0.944   3.333
  529SOL    HW2 2115   2.373   1.089   3.289
  529SOL     MW 2116   2.413   1.011   3.299
  530SOL     OW 2117   1.312   3.915   3.786
  530SOL    HW1 2118   1.393   3.868   3.767
  530SOL    HW2 2119   1.276   3.872   3.864
  530SOL     MW 2120   1.318   3.903   3.793
  531SOL     OW 2121   4.060   5.324   3.964
  531SOL    HW1 2122   4.024   5.308   4.051
  531SOL    HW2 2123   4.105   5.242   3.942
  531SOL     MW 2124   4.061   5.311   3.972
  532SOL     OW 2125   3.135   4.938   1.776
  532SOL    HW1 2126   3.181   4.911   1.697
  532SOL    HW2 2127   3.076   5.008   1.747
  532SOL     MW 2128   3.134   4.944   1.762
  533SOL     OW 2129   3.189   4.577   0.761
  533SOL    HW1 2130   3.263   4.601   0.705
  533SOL    HW2 2131   3.112   4.614   0.717
  533SOL     MW 2132   3.189   4.585   0.748
  534SOL     OW 2133   5.446   2.804   3.013
  534SOL    HW1 2134   5.370   2.831   3.065
  534SOL    HW2 2135   5.409   2.777   2.929
  534SOL     MW 2136   5.431   2.804   3.009
  535SOL     OW 2137   3.906   1.422   0.663
  535SOL    HW1 2138   3.917   1.395   0.754
  535SOL    HW2 2139   3.863   1.508   0.669
  535SOL     MW 2140   3.902   1.430   0.676
  536SOL     OW 2141   1.553   0.492   5.423
  536SOL    HW1 2142   1.577   0.517   5.512
  536SOL    HW2 2143   1.590   0.404   5.413
  536SOL     MW 2144   1.561   0.484   5.433
  537SOL     OW 2145   4.765   1.463   3.847
  537SOL    HW1 2146   4.688   1.493   3.896
  537SOL    HW2 2147   4.730   1.394   3.789
  537SOL     MW 2148   4.751   1.458   3.846
  538SOL     OW 2149   1.568   3.780   3.086
  538SOL    HW1 2150   1.601   3.830   3.161
  538SOL    HW2 2151   1.514   3.844   3.038
  538SOL     MW 2152   1.565   3.795   3.089
  539SOL     OW 2153   2.765   2.689   0.365
  539SOL    HW1 2154   2.795   2.607   0.326
  539SOL    HW2 2155   2.742   2.744   0.291
  539SOL     MW 2156   2.766   2.685   0.351
  540SOL     OW 2157   0.119   5.096   0.381
  540SOL    HW1 2158   0.038   5.047   0.366
  540SOL    HW2 2159   0.119   5.163   0.314
  540SOL     MW 2160   0.108   5.098   0.371
  541SOL     OW 2161   1.518   3.776   3.684
  541SOL    HW1 2162   1.576   3.711   3.724
  541SOL    HW2 2163   1.577   3.837   3.640
  541SOL     MW 2164   1.533   3.776   3.683
  542SOL     OW 2165   2.444   3.114   3.923
  542SOL    HW1 2166   2.524   3.148   3.882
  542SOL    HW2 2167   2.411   3.050   3.860
  542SOL     MW 2168   2.450   3.110   3.909
  543SOL     OW 2169   1.308   4.148   5.067
  543SOL    HW1 2170   1.325   4.183   4.979
  543SOL    HW2 2171   1.340   4.215   5.127
  543SOL     MW 2172   1.315   4.161   5.063
  544SOL     OW 2173   5.114   0.600   2.526
  544SOL    HW1 2174   5.183   0.534   2.520
  544SOL    HW2 2175   5.120   0.648   2.443
  544SOL     MW 2176   5.124   0.598   2.514
  545SOL     OW 2177   5.209   5.313   2.969
  545SOL    HW1 2178   5.301   5.318   2.993
  545SOL    HW2 2179   5.208   5.266   2.886
  545SOL     MW 2180   5.220   5.307   2.961
  546SOL     OW 2181   4.380   3.998   2.869
  546SOL    HW1 2182   4.299   3.974   2.913
  546SOL    HW2 2183   4.368   3.970   2.778
  546SOL     MW 2184   4.368   3.992   2.863
  547SOL     OW 2185   2.279   0.553   0.007
  547SOL    HW1 2186   2.342   0.596   0.066
  547SOL    HW2 2187   2.195   0.564   0.050
  547SOL     MW 2188   2.277   0.560   0.020
  548SOL     OW 2189   1.676   0.364   3.759
  548SOL    HW1 2190   1.585   0.334   3.750
  548SOL    HW2 2191   1.708   0.322   3.839
  548SOL     MW 2192   1.668   0.355   3.768
  549SOL     OW 2193   4.126   1.184   1.036
  549SOL    HW1 2194   4.192   1.246   1.067
  549SOL    HW2 2195   4.176   1.109   1.004
  549SOL     MW 2196   4.141   1.182   1.036
  550SOL     OW 2197   4.535   2.170   2.844
  550SOL    HW1 2198   4.576   2.112   2.781
  550SOL    HW2 2199   4.512   2.112   2.918
  550SOL     MW 2200   4.537   2.155   2.846
  551SOL     OW 2201   0.471   0.115   1.582
  551SOL    HW1 2202   0.527   0.112   1.503
  551SOL    HW2 2203   0.401   0.052   1.564
  551SOL     MW 2204   0.469   0.106   1.569
  552SOL     OW 2205   5.384   4.039   0.807
  552SOL    HW1 2206   5.381   4.040   0.712
  552SOL    HW2 2207   5.293   4.050   0.834
  552SOL     MW 2208   5.372   4.041   0.799
  553SOL     OW 2209   1.036   0.112   0.277
  553SOL    HW1 2210   1.085   0.084   0.200
  553SOL    HW2 2211   1.009   0.031   0.320
  553SOL     MW 2212   1.039   0.098   0.272
  554SOL     OW 2213   0.467   0.817   4.304
  554SOL    HW1 2214   0.472   0.894   4.361
  554SOL    HW2 2215   0.375   0.790   4.309
  554SOL     MW 2216   0.456   0.823   4.312
  555SOL     OW 2217   1.529   3.308   4.763
  555SOL    HW1 2218   1.486   3.315   4.678
  555SOL    HW2 2219   1.621   3.328   4.746
  555SOL     MW 2220   1.535   3.312   4.750
  556SOL     OW 2221   3.413   2.880   1.390
  556SOL    HW1 2222   3.459   2.868   1.473
  556SOL    HW2 2223   3.463   2.831   1.326
  556SOL     MW 2224   3.425   2.872   1.393
  557SOL     OW 2225   4.889   0.203   1.008
  557SOL    HW1 2226   4.833   0.191   0.930
  557SOL    HW2 2227   4.977   0.181   0.977
  557SOL     MW 2228   4.893   0.198   0.994
  558SOL     OW 2229   1.693   3.907   4.069
  558SOL    HW1 2230   1.752   3.912   4.145
  558SOL    HW2 2231   1.742   3.949   3.998
  558SOL     MW 2232   1.707   3.913   4.070
  559SOL     OW 2233   1.194   3.766   2.317
  559SOL    HW1 2234   1.174   3.676   2.292
  559SOL    HW2 2235   1.139   3.820   2.261
  559SOL     MW 2236   1.184   3.762   2.306
  560SOL     OW 2237   3.296   4.659   2.586
  560SOL    HW1 2238   3.384   4.657   2.549
  560SOL    HW2 2239   3.239   4.630   2.514
  560SOL     MW 2240   3.300   4.655   2.572
  561SOL     OW 2241   0.338   5.156   2.930
  561SOL    HW1 2242   0.288   5.223   2.883
  561SOL    HW2 2243   0.320   5.075   2.883
  561SOL     MW 2244   0.329   5.154   2.918
  562SOL     OW 2245   2.525   2.654   0.478
  562SOL    HW1 2246   2.459   2.681   0.414
  562SOL    HW2 2247   2.609   2.672   0.435
  562SOL     MW 2248   2.527   2.660   0.464
  563SOL     OW 2249   5.317   5.427   4.727
  563SOL    HW1 2250   5.401   5.470   4.711
  563SOL    HW2 2251   5.329   5.338   4.694
  563SOL     MW 2252   5.329   5.421   4.720
  564SOL     OW 2253   3.101   0.782   0.940
  564SOL    HW1 2254   3.122   0.823   1.024
  564SOL    HW2 2255   3.157   0.705   0.935
  564SOL     MW 2256   3.111   0.778   0.950
  565SOL     OW 2257   0.652   1.392   4.285
  565SOL    HW1 2258   0.640   1.328   4.215
  565SOL    HW2 2259   0.745   1.387   4.307
  565SOL     MW 2260   0.663   1.383   4.279
  566SOL     OW 2261   4.611   2.788   3.720
  566SOL    HW1 2262   4.559   2.782   3.640
  566SOL    HW2 2263   4.585   2.871   3.760
  566SOL     MW 2264   4.601   2.798   3.715
  567SOL     OW 2265   2.064   3.513   0.279
  567SOL    HW1 2266   1.997   3.564   0.324
  567SOL    HW2 2267   2.138   3.573   0.270
  567SOL     MW 2268   2.065   3.527   0.283
  568SOL     OW 2269   5.174   5.411   1.559
  568SOL    HW1 2270   5.181   5.336   1.500
  568SOL    HW2 2271   5.108   5.386   1.623
  568SOL     MW 2272   5.167   5.398   1.559
  569SOL     OW 2273   2.017   2.430   1.943
  569SOL    HW1 2274   2.061   2.366   1.886
  569SOL    HW2 2275   2.059   2.513   1.921
  569SOL     MW 2276   2.028   2.432   1.933
  570SOL     OW 2277   0.226   0.267   5.203
  570SOL    HW1 2278   0.229   0.342   5.144
  570SOL    HW2 2279   0.215   0.306   5.290
  570SOL     MW 2280   0.225   0.282   5.207
  571SOL     OW 2281   0.968   0.171   0.979
  571SOL    HW1 2282   1.024   0.094   0.970
  571SOL    HW2 2283   0.984   0.202   1.068
  571SOL     MW 2284   0.978   0.165   0.989
  572SOL     OW 2285   4.675   2.266   4.786
  572SOL    HW1 2286   4.591   2.223   4.769
  572SOL    HW2 2287   4.723   2.260   4.704
  572SOL     MW 2288   4.670   2.260   4.774
  573SOL     OW 2289   4.938   3.885   0.643
  573SOL    HW1 2290   5.023   3.871   0.602
  573SOL    HW2 2291   4.944   3.840   0.727
  573SOL     MW 2292   4.950   3.877   0.649
  574SOL     OW 2293   4.742   0.872   4.683
  574SOL    HW1 2294   4.673   0.839   4.625
  574SOL    HW2 2295   4.788   0.793   4.714
  574SOL     MW 2296   4.739   0.857   4.680
  575SOL     OW 2297   3.775   4.849   1.034
  575SOL    HW1 2298   3.864   4.863   1.066
  575SOL    HW2 2299   3.781   4.770   0.980
  575SOL     MW 2300   3.787   4.841   1.031
  576SOL     OW 2301   3.695   0.949   5.300
  576SOL    HW1 2302   3.777   0.978   5.340
  576SOL    HW2 2303   3.634   0.942   5.374
  576SOL     MW 2304   3.698   0.952   5.315
  577SOL     OW 2305   3.587   4.302   1.821
  577SOL    HW1 2306   3.605   4.333   1.732
  577SOL    HW2 2307   3.492   4.309   1.829
  577SOL     MW 2308   3.577   4.307   1.811
  578SOL     OW 2309   4.409   5.162   2.926
  578SOL    HW1 2310   4.496   5.124   2.939
  578SOL    HW2 2311   4.380   5.188   3.014
  578SOL     MW 2312   4.416   5.161   2.939
  579SOL     OW 2313   2.911   0.637   4.560
  579SOL    HW1 2314   2.847   0.619   4.491
  579SOL    HW2 2315   2.862   0.629   4.641
  579SOL     MW 2316   2.897   0.634   4.561
  580SOL     OW 2317   3.061   4.316   3.000
  580SOL    HW1 2318   3.053   4.398   3.047
  580SOL    HW2 2319   3.152   4.312   2.972
  580SOL     MW 2320   3.071   4.326   3.002
  581SOL     OW 2321   0.207   0.903   5.321
  581SOL    HW1 2322   0.155   0.848   5.379
  581SOL    HW2 2323   0.281   0.933   5.375
  581SOL     MW 2324   0.210   0.900   5.335
  582SOL     OW 2325   4.367   1.376   3.721
  582SOL    HW1 2326   4.401   1.465   3.713
  582SOL    HW2 2327   4.281   1.379   3.679
  582SOL     MW 2328   4.360   1.388   3.714
  583SOL     OW 2329   1.150   3.228   1.590
  583SOL    HW1 2330   1.145   3.223   1.686
  583SOL    HW2 2331   1.100   3.153   1.560
  583SOL     MW 2332   1.143   3.218   1.599
  584SOL     OW 2333   2.652   0.557   2.651
  584SOL    HW1 2334   2.746   0.557   2.667
  584SOL    HW2 2335   2.639   0.494   2.581
  584SOL     MW 2336   2.662   0.549   2.644
  585SOL     OW 2337   3.799   5.330   1.596
  585SOL    HW1 2338   3.823   5.423   1.596
  585SOL    HW2 2339   3.790   5.307   1.504
  585SOL     MW 2340   3.801   5.339   1.584
  586SOL     OW 2341   0.266   0.752   1.041
  586SOL    HW1 2342   0.250   0.789   1.128
  586SOL    HW2 2343   0.312   0.670   1.058
  586SOL     MW 2344   0.270   0.746   1.054
  587SOL     OW 2345   0.261   0.907   1.710
  587SOL    HW1 2346   0.302   0.940   1.791
  587SOL    HW2 2347   0.334   0.868   1.661
  587SOL     MW 2348   0.276   0.906   1.714
  588SOL     OW 2349   1.034   2.928   2.958
  588SOL    HW1 2350   1.069   2.946   2.871
  588SOL    HW2 2351   1.048   2.834   2.970
  588SOL     MW 2352   1.040   2.918   2.948
  589SOL     OW 2353   2.848   1.075   3.701
  589SOL    HW1 2354   2.834   1.156   3.750
  589SOL    HW2 2355   2.885   1.015   3.766
  589SOL     MW 2356   2.851   1.078   3.716
  590SOL     OW 2357   2.086   1.247   4.115
  590SOL    HW1 2358   2.074   1.340   4.136
  590SOL    HW2 2359   2.033   1.232   4.037
  590SOL     MW 2360   2.078   1.257   4.108
  591SOL     OW 2361   4.561   3.277   4.899
  591SOL    HW1 2362   4.514   3.331   4.835
  591SOL    HW2 2363   4.653   3.302   4.889
  591SOL     MW 2364   4.567   3.287   4.889
  592SOL     OW 2365   1.563   3.244   0.634
  592SOL    HW1 2366   1.629   3.269   0.569
  592SOL    HW2 2367   1.611   3.190   0.697
  592SOL     MW 2368   1.578   3.240   0.633
  593SOL     OW 2369   5.214   1.545   0.450
  593SOL    HW1 2370   5.191   1.630   0.412
  593SOL    HW2 2371   5.153   1.535   0.524
  593SOL     MW 2372   5.203   1.555   0.455
  594SOL     OW 2373   0.379   3.247   3.726
  594SOL    HW1 2374   0.393   3.184   3.655
  594SOL    HW2 2375   0.465   3.289   3.737
  594SOL     MW 2376   0.392   3.244   3.718
  595SOL     OW 2377   3.946   1.247   5.148
  595SOL    HW1 2378   3.973   1.321   5.093
  595SOL    HW2 2379   3.918   1.288   5.231
  595SOL     MW 2380   3.946   1.262   5.152
  596SOL     OW 2381   1.023   0.971   4.146
  596SOL    HW1 2382   0.964   1.019   4.204
  596SOL    HW2 2383   1.070   1.040   4.098
  596SOL     MW 2384   1.022   0.986   4.148
  597SOL     OW 2385   1.926   3.795   1.844
  597SOL    HW1 2386   1.938   3.720   1.902
  597SOL    HW2 2387   1.831   3.803   1.835
  597SOL     MW 2388   1.915   3.786   1.851
  598SOL     OW 2389   5.038   1.928   4.350
  598SOL    HW1 2390   5.047   2.022   4.369
  598SOL    HW2 2391   5.003   1.925   4.261
  598SOL     MW 2392   5.034   1.940   4.341
  599SOL     OW 2393   1.364   3.925   2.708
  599SOL    HW1 2394   1.369   3.930   2.803
  599SOL    HW2 2395   1.448   3.958   2.677
  599SOL     MW 2396   1.375   3.930   2.716
  600SOL     OW 2397   0.309   3.172   0.014
  600SOL    HW1 2398   0.298   3.180   0.108
  600SOL    HW2 2399   0.313   3.078  -0.003
  600SOL     MW 2400   0.308   3.161   0.024
  601SOL     OW 2401   2.574   2.262   2.489
  601SOL    HW1 2402   2.538   2.197   2.549
  601SOL    HW2 2403   2.515   2.262   2.413
  601SOL     MW 2404   2.562   2.254   2.487
  602SOL     OW 2405   2.378   3.348   3.180
  602SOL    HW1 2406   2.330   3.418   3.224
  602SOL    HW2 2407   2.314   3.308   3.122
  602SOL     MW 2408   2.363   3.352   3.179
  603SOL     OW 2409   3.187   1.108   3.948
  603SOL    HW1 2410   3.199   1.120   4.042
  603SOL    HW2 2411   3.113   1.048   3.940
  603SOL     MW 2412   3.179   1.102   3.959
  604SOL     OW 2413   0.308   0.467   1.053
  604SOL    HW1 2414   0.264   0.474   0.968
  604SOL    HW2 2415   0.392   0.424   1.033
  604SOL     MW 2416   0.313   0.462   1.040
  605SOL     OW 2417   0.433   4.225   3.180
  605SOL    HW1 2418   0.522   4.232   3.145
  605SOL    HW2 2419   0.407   4.135   3.162
  605SOL     MW 2420   0.441   4.215   3.173
  606SOL     OW 2421   1.363   3.758   0.362
  606SOL    HW1 2422   1.416   3.834   0.387
  606SOL    HW2 2423   1.285   3.796   0.320
  606SOL     MW 2424   1.360   3.773   0.360
  607SOL     OW 2425   2.951   5.172   3.155
  607SOL    HW1 2426   3.044   5.177   3.175
  607SOL    HW2 2427   2.918   5.260   3.174
  607SOL     MW 2428   2.959   5.184   3.160
  608SOL     OW 2429   2.413   3.969   1.567
  608SOL    HW1 2430   2.485   3.999   1.623
  608SOL    HW2 2431   2.417   4.025   1.490
  608SOL     MW 2432   2.423   3.980   1.564
  609SOL     OW 2433   2.235   3.484   5.296
  609SOL    HW1 2434   2.269   3.520   5.378
  609SOL    HW2 2435   2.236   3.389   5.310
  609SOL     MW 2436   2.240   3.476   5.308
  610SOL     OW 2437   2.899   4.982   4.822
  610SOL    HW1 2438   2.991   4.990   4.797
  610SOL    HW2 2439   2.901   4.943   4.909
  610SOL     MW 2440   2.911   4.978   4.830
  611SOL     OW 2441   2.233   5.024   2.161
  611SOL    HW1 2442   2.156   5.068   2.196
  611SOL    HW2 2443   2.306   5.062   2.211
  611SOL     MW 2444   2.233   5.034   2.172
  612SOL     OW 2445   1.639   1.825   1.050
  612SOL    HW1 2446   1.581   1.765   1.004
  612SOL    HW2 2447   1.698   1.769   1.100
  612SOL     MW 2448   1.639   1.810   1.050
  613SOL     OW 2449   1.425   4.074   5.443
  613SOL    HW1 2450   1.403   4.154   5.396
  613SOL    HW2 2451   1.500   4.096   5.497
  613SOL     MW 2452   1.432   4.087   5.444
  614SOL     OW 2453   4.335   2.459   3.821
  614SOL    HW1 2454   4.389   2.483   3.896
  614SOL    HW2 2455   4.346   2.364   3.813
  614SOL     MW 2456   4.343   2.450   3.830
  615SOL     OW 2457   1.623   2.513   0.567
  615SOL    HW1 2458   1.712   2.479   0.582
  615SOL    HW2 2459   1.590   2.532   0.655
  615SOL     MW 2460   1.630   2.511   0.580
  616SOL     OW 2461   0.658   1.225   2.620
  616SOL    HW1 2462   0.675   1.235   2.526
  616SOL    HW2 2463   0.738   1.254   2.663
  616SOL     MW 2464   0.670   1.230   2.613
  617SOL     OW 2465   0.121   4.474   3.985
  617SOL    HW1 2466   0.168   4.473   3.901
  617SOL    HW2 2467   0.148   4.555   4.027
  617SOL     MW 2468   0.130   4.484   3.979
  618SOL     OW 2469   4.493   0.324   3.947
  618SOL    HW1 2470   4.469   0.249   4.000
  618SOL    HW2 2471   4.588   0.316   3.936
  618SOL     MW 2472   4.502   0.313   3.952
  619SOL     OW 2473   2.139   4.352   2.892
  619SOL    HW1 2474   2.186   4.306   2.962
  619SOL    HW2 2475   2.207   4.399   2.845
  619SOL     MW 2476   2.154   4.352   2.895
  620SOL     OW 2477   2.310   0.159   4.946
  620SOL    HW1 2478   2.386   0.181   4.998
  620SOL    HW2 2479   2.235   0.193   4.996
  620SOL     MW 2480   2.310   0.167   4.959
  621SOL     OW 2481   3.009   0.279   0.830
  621SOL    HW1 2482   3.065   0.335   0.777
  621SOL    HW2 2483   2.926   0.325   0.834
  621SOL     MW 2484   3.006   0.292   0.824
  622SOL     OW 2485   2.963   1.024   2.011
  622SOL    HW1 2486   3.013   0.963   2.066
  622SOL    HW2 2487   3.017   1.035   1.933
  622SOL     MW 2488   2.977   1.018   2.008
  623SOL     OW 2489   4.071   2.940   1.196
  623SOL    HW1 2490   4.081   3.023   1.150
  623SOL    HW2 2491   3.986   2.947   1.239
  623SOL     MW 2492   4.061   2.951   1.196
  624SOL     OW 2493   2.726   1.082   4.056
  624SOL    HW1 2494   2.729   1.151   3.990
  624SOL    HW2 2495   2.644   1.035   4.040
  624SOL     MW 2496   2.716   1.085   4.046
  625SOL     OW 2497   1.002   0.178   1.689
  625SOL    HW1 2498   0.934   0.135   1.742
  625SOL    HW2 2499   0.967   0.265   1.670
  625SOL     MW 2500   0.989   0.183   1.693
  626SOL     OW 2501   3.999   0.520   2.498
  626SOL    HW1 2502   3.915   0.481   2.522
  626SOL    HW2 2503   4.020   0.482   2.413
  626SOL     MW 2504   3.991   0.510   2.491
  627SOL     OW 2505   3.275   2.038   3.529
  627SOL    HW1 2506   3.363   2.059   3.559
  627SOL    HW2 2507   3.233   1.996   3.604
  627SOL     MW 2508   3.281   2.035   3.542
  628SOL     OW 2509   2.143   4.921   2.971
  628SOL    HW1 2510   2.224   4.956   2.935
  628SOL    HW2 2511   2.098   4.883   2.895
  628SOL     MW 2512   2.147   4.921   2.956
  629SOL     OW 2513   2.554   5.023   5.037
  629SOL    HW1 2514   2.495   5.009   5.111
  629SOL    HW2 2515   2.574   4.935   5.005
  629SOL     MW 2516   2.549   5.010   5.042
  630SOL     OW 2517   3.104   1.413   2.426
  630SOL    HW1 2518   3.067   1.369   2.349
  630SOL    HW2 2519   3.050   1.492   2.436
  630SOL     MW 2520   3.092   1.418   2.417
  631SOL     OW 2521   0.904   3.699   2.502
  631SOL    HW1 2522   0.851   3.684   2.580
  631SOL    HW2 2523   0.990   3.663   2.523
  631SOL     MW 2524   0.908   3.693   2.515
  632SOL     OW 2525   1.216   0.433   1.085
  632SOL    HW1 2526   1.194   0.470   1.000
  632SOL    HW2 2527   1.242   0.509   1.138
  632SOL     MW 2528   1.217   0.448   1.081
  633SOL     OW 2529   1.830   4.292   4.019
  633SOL    HW1 2530   1.826   4.342   4.100
  633SOL    HW2 2531   1.881   4.347   3.959
  633SOL     MW 2532   1.836   4.306   4.021
  634SOL     OW 2533   1.206   1.516   1.044
  634SOL    HW1 2534   1.221   1.484   0.956
  634SOL    HW2 2535   1.293   1.519   1.084
  634SOL     MW 2536   1.219   1.513   1.038
  635SOL     OW 2537   0.921   2.275   2.096
  635SOL    HW1 2538   0.946   2.188   2.128
  635SOL    HW2 2539   0.970   2.336   2.151
  635SOL     MW 2540   0.930   2.272   2.107
  636SOL     OW 2541   1.835   2.149   1.537
  636SOL    HW1 2542   1.774   2.132   1.609
  636SOL    HW2 2543   1.875   2.064   1.520
  636SOL     MW 2544   1.833   2.136   1.544
  637SOL     OW 2545   1.119   2.396   3.587
  637SOL    HW1 2546   1.120   2.382   3.492
  637SOL    HW2 2547   1.143   2.311   3.624
  637SOL     MW 2548   1.122   2.383   3.580
  638SOL     OW 2549   4.475   0.950   1.963
  638SOL    HW1 2550   4.525   0.872   1.940
  638SOL    HW2 2551   4.536   1.004   2.014
  638SOL     MW 2552   4.489   0.947   1.967
  639SOL     OW 2553   5.238   0.491   4.328
  639SOL    HW1 2554   5.236   0.570   4.383
  639SOL    HW2 2555   5.164   0.503   4.269
  639SOL     MW 2556   5.228   0.503   4.328
  640SOL     OW 2557   5.414   5.050   4.090
  640SOL    HW1 2558   5.386   5.131   4.046
  640SOL    HW2 2559   5.417   5.074   4.183
  640SOL     MW 2560   5.411   5.064   4.096
  641SOL     OW 2561   1.524   1.746   2.394
  641SOL    HW1 2562   1.517   1.835   2.428
  641SOL    HW2 2563   1.454   1.698   2.439
  641SOL     MW 2564   1.514   1.751   2.404
  642SOL     OW 2565   5.199   2.250   5.109
  642SOL    HW1 2566   5.141   2.319   5.076
  642SOL    HW2 2567   5.141   2.179   5.134
  642SOL     MW 2568   5.184   2.250   5.108
  643SOL     OW 2569   0.187   1.285   0.170
  643SOL    HW1 2570   0.176   1.357   0.108
  643SOL    HW2 2571   0.098   1.254   0.186
  643SOL     MW 2572   0.174   1.290   0.164
  644SOL     OW 2573   5.038   1.651   4.141
  644SOL    HW1 2574   5.120   1.660   4.092
  644SOL    HW2 2575   4.987   1.728   4.116
  644SOL     MW 2576   5.042   1.662   4.132
  645SOL     OW 2577   4.506   3.119   1.866
  645SOL    HW1 2578   4.521   3.157   1.952
  645SOL    HW2 2579   4.430   3.168   1.831
  645SOL     MW 2580   4.498   3.130   1.872
  646SOL     OW 2581   3.766   2.003   2.080
  646SOL    HW1 2582   3.695   1.973   2.136
  646SOL    HW2 2583   3.829   2.042   2.140
  646SOL     MW 2584   3.765   2.004   2.095
  647SOL     OW 2585   3.366   1.562   0.158
  647SOL    HW1 2586   3.400   1.473   0.174
  647SOL    HW2 2587   3.271   1.551   0.154
  647SOL     MW 2588   3.358   1.549   0.160
  648SOL     OW 2589   3.008   2.498   3.963
  648SOL    HW1 2590   3.057   2.561   3.911
  648SOL    HW2 2591   3.068   2.424   3.974
  648SOL     MW 2592   3.022   2.496   3.958
  649SOL     OW 2593   3.429   5.229   3.849
  649SOL    HW1 2594   3.374   5.205   3.923
  649SOL    HW2 2595   3.484   5.301   3.882
  649SOL     MW 2596   3.429   5.235   3.863
  650SOL     OW 2597   0.956   1.837   1.757
  650SOL    HW1 2598   1.021   1.903   1.734
  650SOL    HW2 2599   0.876   1.863   1.710
  650SOL     MW 2600   0.954   1.849   1.748
  651SOL     OW 2601   4.818   4.874   4.230
  651SOL    HW1 2602   4.778   4.922   4.302
  651SOL    HW2 2603   4.755   4.804   4.210
  651SOL     MW 2604   4.805   4.871   4.236
  652SOL     OW 2605   4.613   0.980   2.626
  652SOL    HW1 2606   4.667   0.905   2.601
  652SOL    HW2 2607   4.525   0.956   2.597
  652SOL     MW 2608   4.609   0.967   2.619
  653SOL     OW 2609   4.623   0.814   0.481
  653SOL    HW1 2610   4.669   0.748   0.533
  653SOL    HW2 2611   4.666   0.811   0.396
  653SOL     MW 2612   4.635   0.805   0.477
  654SOL     OW 2613   1.026   4.410   1.607
  654SOL    HW1 2614   1.059   4.471   1.673
  654SOL    HW2 2615   1.097   4.403   1.543
  654SOL     MW 2616   1.040   4.417   1.607
  655SOL     OW 2617   3.210   2.141   3.132
  655SOL    HW1 2618   3.290   2.173   3.090
  655SOL    HW2 2619   3.158   2.104   3.060
  655SOL     MW 2620   3.213   2.141   3.117
  656SOL     OW 2621   1.275   3.258   3.307
  656SOL    HW1 2622   1.285   3.215   3.222
  656SOL    HW2 2623   1.211   3.328   3.292
  656SOL     MW 2624   1.268   3.262   3.294
  657SOL     OW 2625   4.051   1.080   0.699
  657SOL    HW1 2626   4.078   1.042   0.616
  657SOL    HW2 2627   3.967   1.122   0.680
  657SOL     MW 2628   4.044   1.081   0.686
  658SOL     OW 2629   0.039   3.061   2.748
  658SOL    HW1 2630   0.052   3.145   2.702
  658SOL    HW2 2631   0.027   3.086   2.840
  658SOL     MW 2632   0.039   3.075   2.754
  659SOL     OW 2633   0.051   0.112   3.128
  659SOL    HW1 2634   0.027   0.026   3.094
  659SOL    HW2 2635   0.135   0.132   3.087
  659SOL     MW 2636   0.059   0.104   3.119
  660SOL     OW 2637   0.800   4.411   4.741
  660SOL    HW1 2638   0.798   4.330   4.792
  660SOL    HW2 2639   0.787   4.382   4.651
  660SOL     MW 2640   0.798   4.397   4.736
  661SOL     OW 2641   3.933   4.025   1.403
  661SOL    HW1 2642   3.944   3.931   1.418
  661SOL    HW2 2643   3.862   4.050   1.462
  661SOL     MW 2644   3.926   4.016   1.413
  662SOL     OW 2645   4.595   1.659   1.428
  662SOL    HW1 2646   4.625   1.629   1.342
  662SOL    HW2 2647   4.594   1.580   1.481
  662SOL     MW 2648   4.599   1.645   1.423
  663SOL     OW 2649   1.936   3.858   3.259
  663SOL    HW1 2650   2.012   3.883   3.206
  663SOL    HW2 2651   1.971   3.846   3.347
  663SOL     MW 2652   1.950   3.860   3.264
  664SOL     OW 2653   0.199   2.911   2.587
  664SOL    HW1 2654   0.210   2.966   2.508
  664SOL    HW2 2655   0.151   2.967   2.648
  664SOL     MW 2656   0.194   2.926   2.584
  665SOL     OW 2657   2.290   3.350   2.269
  665SOL    HW1 2658   2.357   3.407   2.306
  665SOL    HW2 2659   2.299   3.359   2.175
  665SOL     MW 2660   2.300   3.358   2.262
  666SOL     OW 2661   0.602   1.657   5.178
  666SOL    HW1 2662   0.618   1.683   5.269
  666SOL    HW2 2663   0.687   1.666   5.135
  666SOL     MW 2664   0.615   1.662   5.184
  667SOL     OW 2665   0.869   2.266   1.636
  667SOL    HW1 2666   0.838   2.357   1.634
  667SOL    HW2 2667   0.933   2.265   1.707
  667SOL     MW 2668   0.873   2.278   1.645
  668SOL     OW 2669   0.454   4.043   2.532
  668SOL    HW1 2670   0.441   4.120   2.588
  668SOL    HW2 2671   0.482   3.975   2.593
  668SOL     MW 2672   0.456   4.044   2.547
  669SOL     OW 2673   2.981   4.435   0.047
  669SOL    HW1 2674   2.892   4.468   0.033
  669SOL    HW2 2675   3.029   4.508   0.086
  669SOL     MW 2676   2.976   4.448   0.050
  670SOL     OW 2677   3.609   2.916   3.459
  670SOL    HW1 2678   3.668   2.990   3.472
  670SOL    HW2 2679   3.570   2.930   3.373
  670SOL     MW 2680   3.612   2.927   3.450
  671SOL     OW 2681   5.031   5.269   4.282
  671SOL    HW1 2682   5.122   5.290   4.260
  671SOL    HW2 2683   5.034   5.179   4.314
  671SOL     MW 2684   5.043   5.260   4.283
  672SOL     OW 2685   4.608   1.996   1.035
  672SOL    HW1 2686   4.657   2.077   1.020
  672SOL    HW2 2687   4.533   2.023   1.087
  672SOL     MW 2688   4.605   2.010   1.039
  673SOL     OW 2689   2.647   1.525   0.953
  673SOL    HW1 2690   2.722   1.514   0.895
  673SOL    HW2 2691   2.573   1.491   0.902
  673SOL     MW 2692   2.647   1.520   0.939
  674SOL     OW 2693   0.570   1.792   0.255
  674SOL    HW1 2694   0.604   1.881   0.254
  674SOL    HW2 2695   0.594   1.756   0.170
  674SOL     MW 2696   0.577   1.799   0.244
  675SOL     OW 2697   3.201   0.659   3.580
  675SOL    HW1 2698   3.204   0.721   3.507
  675SOL    HW2 2699   3.182   0.575   3.539
  675SOL     MW 2700   3.199   0.656   3.565
  676SOL     OW 2701   4.765   2.321   2.610
  676SOL    HW1 2702   4.688   2.278   2.573
  676SOL    HW2 2703   4.730   2.375   2.681
  676SOL     MW 2704   4.751   2.323   2.615
  677SOL     OW 2705   4.086   0.911   4.112
  677SOL    HW1 2706   3.992   0.894   4.121
  677SOL    HW2 2707   4.127   0.826   4.119
  677SOL     MW 2708   4.079   0.898   4.114
  678SOL     OW 2709   4.801   1.824   1.118
  678SOL    HW1 2710   4.852   1.872   1.184
  678SOL    HW2 2711   4.732   1.884   1.092
  678SOL     MW 2712   4.799   1.837   1.123
  679SOL     OW 2713   0.274   2.244   2.601
  679SOL    HW1 2714   0.267   2.332   2.636
  679SOL    HW2 2715   0.183   2.215   2.587
  679SOL     MW 2716   0.261   2.251   2.603
  680SOL     OW 2717   3.480   1.262   3.428
  680SOL    HW1 2718   3.491   1.296   3.339
  680SOL    HW2 2719   3.385   1.261   3.442
  680SOL     MW 2720   3.469   1.266   3.418
  681SOL     OW 2721   2.869   1.193   3.298
  681SOL    HW1 2722   2.888   1.286   3.307
  681SOL    HW2 2723   2.776   1.186   3.319
  681SOL     MW 2724   2.859   1.204   3.302
  682SOL     OW 2725   1.789  -0.018   3.211
  682SOL    HW1 2726   1.758   0.036   3.283
  682SOL    HW2 2727   1.844   0.041   3.159
  682SOL     MW 2728   1.792  -0.004   3.213
  683SOL     OW 2729   4.592   0.491   1.892
  683SOL    HW1 2730   4.498   0.477   1.879
  683SOL    HW2 2731   4.603   0.585   1.886
  683SOL     MW 2732   4.582   0.501   1.889
  684SOL     OW 2733   0.248   1.763   3.620
  684SOL    HW1 2734   0.241   1.767   3.525
  684SOL    HW2 2735   0.342   1.751   3.636
  684SOL     MW 2736   0.259   1.762   3.610
  685SOL     OW 2737   1.447   4.777   3.981
  685SOL    HW1 2738   1.465   4.783   4.075
  685SOL    HW2 2739   1.405   4.692   3.970
  685SOL     MW 2740   1.444   4.767   3.991
  686SOL     OW 2741   4.951   0.978   4.252
  686SOL    HW1 2742   4.922   1.001   4.163
  686SOL    HW2 2743   5.041   1.012   4.257
  686SOL     MW 2744   4.959   0.985   4.241
  687SOL     OW 2745   1.262   1.130   3.220
  687SOL    HW1 2746   1.179   1.177   3.214
  687SOL    HW2 2747   1.238   1.041   3.245
  687SOL     MW 2748   1.249   1.125   3.223
  688SOL     OW 2749   3.623   4.874   4.029
  688SOL    HW1 2750   3.607   4.927   3.950
  688SOL    HW2 2751   3.682   4.805   3.999
  688SOL     MW 2752   3.629   4.872   4.015
  689SOL     OW 2753   5.304   5.315   4.256
  689SOL    HW1 2754   5.343   5.239   4.299
  689SOL    HW2 2755   5.295   5.380   4.325
  689SOL     MW 2756   5.308   5.313   4.270
  690SOL     OW 2757   3.826   4.722   3.921
  690SOL    HW1 2758   3.892   4.762   3.977
  690SOL    HW2 2759   3.832   4.769   3.838
  690SOL     MW 2760   3.835   4.733   3.918
  691SOL     OW 2761   3.336   4.310   1.176
  691SOL    HW1 2762   3.329   4.239   1.113
  691SOL    HW2 2763   3.311   4.270   1.260
  691SOL     MW 2764   3.332   4.296   1.179
  692SOL     OW 2765   3.458   1.672   1.495
  692SOL    HW1 2766   3.445   1.708   1.407
  692SOL    HW2 2767   3.506   1.740   1.542
  692SOL     MW 2768   3.462   1.685   1.490
  693SOL     OW 2769   0.035   2.861   0.530
  693SOL    HW1 2770   0.007   2.853   0.621
  693SOL    HW2 2771   0.116   2.812   0.525
  693SOL     MW 2772   0.042   2.854   0.541
  694SOL     OW 2773   0.819   4.991   3.322
  694SOL    HW1 2774   0.765   5.008   3.399
  694SOL    HW2 2775   0.909   4.999   3.354
  694SOL     MW 2776   0.824   4.994   3.336
  695SOL     OW 2777   1.440   0.926   4.361
  695SOL    HW1 2778   1.488   0.853   4.399
  695SOL    HW2 2779   1.436   0.992   4.430
  695SOL     MW 2780   1.445   0.925   4.374
  696SOL     OW 2781   0.230   0.109   2.742
  696SOL    HW1 2782   0.153   0.130   2.690
  696SOL    HW2 2783   0.303   0.117   2.680
  696SOL     MW 2784   0.230   0.113   2.727
  697SOL     OW 2785   3.883   3.097   4.961
  697SOL    HW1 2786   3.976   3.080   4.947
  697SOL    HW2 2787   3.870   3.084   5.055
  697SOL     MW 2788   3.893   3.093   4.971
  698SOL     OW 2789   3.065   2.491   2.145
  698SOL    HW1 2790   3.029   2.580   2.138
  698SOL    HW2 2791   3.036   2.447   2.064
  698SOL     MW 2792   3.056   2.497   2.134
  699SOL     OW 2793   1.973   0.903   3.892
  699SOL    HW1 2794   1.970   0.877   3.800
  699SOL    HW2 2795   1.920   0.838   3.938
  699SOL     MW 2796   1.966   0.891   3.886
  700SOL     OW 2797   1.820   2.739   1.517
  700SOL    HW1 2798   1.788   2.664   1.466
  700SOL    HW2 2799   1.890   2.703   1.571
  700SOL     MW 2800   1.825   2.725   1.518
  701SOL     OW 2801   1.200   4.442   4.035
  701SOL    HW1 2802   1.227   4.351   4.048
  701SOL    HW2 2803   1.256   4.492   4.094
  701SOL     MW 2804   1.210   4.437   4.044
  702SOL     OW 2805   2.922   4.440   5.184
  702SOL    HW1 2806   2.970   4.491   5.250
  702SOL    HW2 2807   2.855   4.499   5.152
  702SOL     MW 2808   2.920   4.454   5.189
  703SOL     OW 2809   3.715   0.039   3.187
  703SOL    HW1 2810   3.724   0.127   3.150
  703SOL    HW2 2811   3.778  -0.014   3.139
  703SOL     MW 2812   3.724   0.043   3.176
  704SOL     OW 2813   3.773   5.062   2.453
  704SOL    HW1 2814   3.716   5.004   2.503
  704SOL    HW2 2815   3.720   5.089   2.378
  704SOL     MW 2816   3.759   5.058   2.450
  705SOL     OW 2817   4.731   5.072   3.671
  705SOL    HW1 2818   4.775   5.136   3.728
  705SOL    HW2 2819   4.725   5.116   3.586
  705SOL     MW 2820   4.736   5.086   3.668
  706SOL     OW 2821   4.827   3.737   3.907
  706SOL    HW1 2822   4.761   3.676   3.938
  706SOL    HW2 2823   4.874   3.690   3.839
  706SOL     MW 2824   4.824   3.723   3.902
  707SOL     OW 2825   1.115   2.952   1.163
  707SOL    HW1 2826   1.156   2.913   1.240
  707SOL    HW2 2827   1.146   2.899   1.089
  707SOL     MW 2828   1.124   2.940   1.163
  708SOL     OW 2829   3.904   4.562   5.181
  708SOL    HW1 2830   3.935   4.536   5.095
  708SOL    HW2 2831   3.920   4.656   5.186
  708SOL     MW 2832   3.910   4.571   5.171
  709SOL     OW 2833   3.856   4.622   3.075
  709SOL    HW1 2834   3.835   4.589   2.988
  709SOL    HW2 2835   3.845   4.717   3.068
  709SOL     MW 2836   3.852   4.630   3.063
  710SOL     OW 2837   0.418   1.027   1.909
  710SOL    HW1 2838   0.510   1.040   1.886
  710SOL    HW2 2839   0.382   1.116   1.913
  710SOL     MW 2840   0.425   1.040   1.907
  711SOL     OW 2841   1.178   4.812   4.565
  711SOL    HW1 2842   1.107   4.872   4.589
  711SOL    HW2 2843   1.188   4.824   4.470
  711SOL     MW 2844   1.170   4.821   4.556
  712SOL     OW 2845   3.940   0.237   0.733
  712SOL    HW1 2846   3.889   0.156   0.740
  712SOL    HW2 2847   3.874   0.307   0.734
  712SOL     MW 2848   3.925   0.236   0.734
  713SOL     OW 2849   2.500   0.662   0.138
  713SOL    HW1 2850   2.554   0.614   0.075
  713SOL    HW2 2851   2.556   0.672   0.215
  713SOL     MW 2852   2.514   0.657   0.140
  714SOL     OW 2853   2.656   3.973   4.202
  714SOL    HW1 2854   2.608   3.892   4.186
  714SOL    HW2 2855   2.718   3.979   4.130
  714SOL     MW 2856   2.658   3.963   4.191
  715SOL     OW 2857   0.689   5.266   2.500
  715SOL    HW1 2858   0.735   5.187   2.529
  715SOL    HW2 2859   0.613   5.272   2.558
  715SOL     MW 2860   0.685   5.257   2.511
  716SOL     OW 2861   0.055   5.234   1.309
  716SOL    HW1 2862   0.060   5.328   1.289
  716SOL    HW2 2863   0.146   5.208   1.325
  716SOL     MW 2864   0.067   5.243   1.308
  717SOL     OW 2865   0.010   3.098   1.707
  717SOL    HW1 2866   0.026   3.193   1.701
  717SOL    HW2 2867   0.090   3.063   1.745
  717SOL     MW 2868   0.022   3.106   1.711
  718SOL     OW 2869   1.985   0.364   2.423
  718SOL    HW1 2870   2.045   0.438   2.433
  718SOL    HW2 2871   2.035   0.300   2.372
  718SOL     MW 2872   1.999   0.366   2.418
  719SOL     OW 2873   3.648   4.074   3.732
  719SOL    HW1 2874   3.665   4.041   3.820
  719SOL    HW2 2875   3.703   4.020   3.675
  719SOL     MW 2876   3.657   4.063   3.736
  720SOL     OW 2877   2.346   2.285   4.230
  720SOL    HW1 2878   2.344   2.380   4.214
  720SOL    HW2 2879   2.413   2.252   4.170
  720SOL     MW 2880   2.354   2.293   4.220
  721SOL     OW 2881   3.905   2.235   1.857
  721SOL    HW1 2882   3.846   2.193   1.794
  721SOL    HW2 2883   3.861   2.317   1.879
  721SOL     MW 2884   3.891   2.240   1.852
  722SOL     OW 2885   1.747   3.640   4.049
  722SOL    HW1 2886   1.828   3.632   4.100
  722SOL    HW2 2887   1.722   3.732   4.058
  722SOL     MW 2888   1.755   3.651   4.057
  723SOL     OW 2889   2.677   2.490   0.639
  723SOL    HW1 2890   2.625   2.544   0.579
  723SOL    HW2 2891   2.645   2.513   0.726
  723SOL     MW 2892   2.666   2.500   0.642
  724SOL     OW 2893   0.468   1.301   1.621
  724SOL    HW1 2894   0.563   1.307   1.623
  724SOL    HW2 2895   0.438   1.387   1.593
  724SOL     MW 2896   0.476   1.312   1.618
  725SOL     OW 2897   2.579   2.025   0.375
  725SOL    HW1 2898   2.655   1.980   0.411
  725SOL    HW2 2899   2.563   2.097   0.436
  725SOL     MW 2900   2.586   2.028   0.387
  726SOL     OW 2901   1.812   4.422   0.389
  726SOL    HW1 2902   1.791   4.482   0.460
  726SOL    HW2 2903   1.745   4.353   0.396
  726SOL     MW 2904   1.800   4.421   0.399
  727SOL     OW 2905   4.065   5.161   4.854
  727SOL    HW1 2906   4.147   5.173   4.805
  727SOL    HW2 2907   4.064   5.067   4.875
  727SOL     MW 2908   4.076   5.150   4.850
  728SOL     OW 2909   5.374   2.526   1.905
  728SOL    HW1 2910   5.424   2.547   1.984
  728SOL    HW2 2911   5.430   2.467   1.856
  728SOL     MW 2912   5.388   2.521   1.909
  729SOL     OW 2913   0.045   1.046   4.528
  729SOL    HW1 2914   0.111   1.091   4.476
  729SOL    HW2 2915   0.001   0.988   4.466
  729SOL     MW 2916   0.047   1.044   4.513
  730SOL     OW 2917   1.037   2.094   3.256
  730SOL    HW1 2918   1.094   2.031   3.300
  730SOL    HW2 2919   1.073   2.180   3.279
  730SOL     MW 2920   1.049   2.097   3.265
  731SOL     OW 2921   1.653   0.032   4.800
  731SOL    HW1 2922   1.696   0.009   4.717
  731SOL    HW2 2923   1.719   0.082   4.848
  731SOL     MW 2924   1.667   0.036   4.795
  732SOL     OW 2925   2.948   2.148   4.478
  732SOL    HW1 2926   2.886   2.166   4.407
  732SOL    HW2 2927   2.987   2.063   4.454
  732SOL     MW 2928   2.945   2.139   4.466
  733SOL     OW 2929   1.963   0.811   3.640
  733SOL    HW1 2930   1.907   0.734   3.630
  733SOL    HW2 2931   1.931   0.873   3.575
  733SOL     MW 2932   1.952   0.809   3.631
  734SOL     OW 2933   2.398   0.560   2.493
  734SOL    HW1 2934   2.436   0.576   2.580
  734SOL    HW2 2935   2.457   0.496   2.453
  734SOL     MW 2936   2.411   0.554   2.499
  735SOL     OW 2937   4.274   0.942   3.326
  735SOL    HW1 2938   4.296   0.855   3.292
  735SOL    HW2 2939   4.290   0.935   3.420
  735SOL     MW 2940   4.279   0.930   3.334
  736SOL     OW 2941   4.464   4.857   0.446
  736SOL    HW1 2942   4.422   4.822   0.524
  736SOL    HW2 2943   4.392   4.887   0.391
  736SOL     MW 2944   4.449   4.856   0.449
  737SOL     OW 2945   0.742   3.367   2.493
  737SOL    HW1 2946   0.663   3.420   2.487
  737SOL    HW2 2947   0.717   3.281   2.457
  737SOL     MW 2948   0.729   3.362   2.488
  738SOL     OW 2949   2.868   2.924   4.138
  738SOL    HW1 2950   2.919   2.878   4.204
  738SOL    HW2 2951   2.873   2.869   4.060
  738SOL     MW 2952   2.875   2.911   4.137
  739SOL     OW 2953   3.928   2.528   2.147
  739SOL    HW1 2954   3.889   2.532   2.060
  739SOL    HW2 2955   3.981   2.448   2.146
  739SOL     MW 2956   3.930   2.518   2.136
  740SOL     OW 2957   5.171   1.398   3.596
  740SOL    HW1 2958   5.224   1.426   3.671
  740SOL    HW2 2959   5.177   1.470   3.534
  740SOL     MW 2960   5.179   1.410   3.597
  741SOL     OW 2961   1.145   2.523   3.985
  741SOL    HW1 2962   1.071   2.536   3.927
  741SOL    HW2 2963   1.106   2.494   4.068
  741SOL     MW 2964   1.131   2.521   3.989
  742SOL     OW 2965   2.660   3.468   5.073
  742SOL    HW1 2966   2.679   3.396   5.133
  742SOL    HW2 2967   2.568   3.489   5.090
  742SOL     MW 2968   2.651   3.461   5.083
  743SOL     OW 2969   0.902   3.230   4.805
  743SOL    HW1 2970   0.818   3.204   4.766
  743SOL    HW2 2971   0.966   3.218   4.735
  743SOL     MW 2972   0.899   3.225   4.791
  744SOL     OW 2973   4.935   5.366   5.349
  744SOL    HW1 2974   4.891   5.363   5.265
  744SOL    HW2 2975   4.870   5.402   5.410
  744SOL     MW 2976   4.921   5.370   5.346
  745SOL     OW 2977   1.422   1.810   1.926
  745SOL    HW1 2978   1.339   1.828   1.970
  745SOL    HW2 2979   1.485   1.804   1.997
  745SOL     MW 2980   1.419   1.812   1.941
  746SOL     OW 2981   1.500   3.251   4.019
  746SOL    HW1 2982   1.506   3.334   4.066
  746SOL    HW2 2983   1.501   3.184   4.088
  746SOL     MW 2984   1.501   3.253   4.034
  747SOL     OW 2985   0.164   2.999   3.840
  747SOL    HW1 2986   0.126   2.988   3.927
  747SOL    HW2 2987   0.092   3.031   3.785
  747SOL     MW 2988   0.150   3.001   3.844
  748SOL     OW 2989   3.237   4.524   4.924
  748SOL    HW1 2990   3.201   4.595   4.978
  748SOL    HW2 2991   3.166   4.461   4.916
  748SOL     MW 2992   3.223   4.525   4.930
  749SOL     OW 2993   3.116   2.310   4.329
  749SOL    HW1 2994   3.060   2.384   4.306
  749SOL    HW2 2995   3.061   2.254   4.384
  749SOL     MW 2996   3.102   2.312   4.334
  750SOL     OW 2997   0.119   3.450   3.413
  750SOL    HW1 2998   0.073   3.410   3.486
  750SOL    HW2 2999   0.163   3.526   3.451
  750SOL     MW 3000   0.119   3.455   3.427
  751SOL     OW 3001   0.050   2.320   1.795
  751SOL    HW1 3002   0.128   2.315   1.851
  751SOL    HW2 3003  -0.006   2.249   1.826
  751SOL     MW 3004   0.053   2.310   1.806
  752SOL     OW 3005   5.262   3.085   4.750
  752SOL    HW1 3006   5.210   3.136   4.811
  752SOL    HW2 3007   5.262   3.137   4.669
  752SOL     MW 3008   5.255   3.098   4.747
  753SOL     OW 3009   4.329   0.489   1.809
  753SOL    HW1 3010   4.320   0.444   1.724
  753SOL    HW2 3011   4.306   0.580   1.790
  753SOL     MW 3012   4.325   0.495   1.796
  754SOL     OW 3013   5.209   4.391   0.039
  754SOL    HW1 3014   5.223   4.297   0.029
  754SOL    HW2 3015   5.201   4.404   0.134
  754SOL     MW 3016   5.209   4.381   0.050
  755SOL     OW 3017   5.201   3.624   5.347
  755SOL    HW1 3018   5.129   3.633   5.409
  755SOL    HW2 3019   5.222   3.714   5.321
  755SOL     MW 3020   5.195   3.637   5.351
  756SOL     OW 3021   3.133   1.436   1.849
  756SOL    HW1 3022   3.224   1.418   1.872
  756SOL    HW2 3023   3.123   1.530   1.863
  756SOL     MW 3024   3.143   1.445   1.854
  757SOL     OW 3025   1.317   1.218   0.393
  757SOL    HW1 3026   1.225   1.197   0.378
  757SOL    HW2 3027   1.343   1.267   0.315
  757SOL     MW 3028   1.309   1.221   0.381
  758SOL     OW 3029   3.468   2.126   4.941
  758SOL    HW1 3030   3.509   2.068   4.877
  758SOL    HW2 3031   3.534   2.194   4.957
  758SOL     MW 3032   3.482   2.127   4.935
  759SOL     OW 3033   1.685   5.111   0.617
  759SOL    HW1 3034   1.775   5.094   0.589
  759SOL    HW2 3035   1.632   5.052   0.564
  759SOL     MW 3036   1.690   5.102   0.607
  760SOL     OW 3037   0.770   2.161   2.593
  760SOL    HW1 3038   0.836   2.191   2.655
  760SOL    HW2 3039   0.687   2.169   2.640
  760SOL     MW 3040   0.767   2.165   2.607
  761SOL     OW 3041   0.905   5.358   0.347
  761SOL    HW1 3042   0.826   5.402   0.315
  761SOL    HW2 3043   0.873   5.289   0.404
  761SOL     MW 3044   0.891   5.355   0.350
  762SOL     OW 3045   4.152   2.367   0.659
  762SOL    HW1 3046   4.058   2.352   0.671
  762SOL    HW2 3047   4.178   2.420   0.734
  762SOL     MW 3048   4.143   2.372   0.670
  763SOL     OW 3049   4.891   2.635   1.524
  763SOL    HW1 3050   4.983   2.641   1.552
  763SOL    HW2 3051   4.855   2.564   1.576
  763SOL     MW 3052   4.898   2.627   1.534
  764SOL     OW 3053   0.032   1.170   3.435
  764SOL    HW1 3054   0.070   1.160   3.348
  764SOL    HW2 3055   0.008   1.263   3.440
  764SOL     MW 3056   0.034   1.181   3.424
  765SOL     OW 3057   4.335   3.128   4.753
  765SOL    HW1 3058   4.347   3.221   4.733
  765SOL    HW2 3059   4.423   3.096   4.771
  765SOL     MW 3060   4.348   3.136   4.753
  766SOL     OW 3061   0.251   0.728   3.887
  766SOL    HW1 3062   0.183   0.676   3.928
  766SOL    HW2 3063   0.251   0.810   3.937
  766SOL     MW 3064   0.243   0.732   3.899
  767SOL     OW 3065   4.438   4.586   2.756
  767SOL    HW1 3066   4.357   4.608   2.709
  767SOL    HW2 3067   4.408   4.544   2.837
  767SOL     MW 3068   4.424   4.583   2.760
  768SOL     OW 3069   2.657   4.379   2.970
  768SOL    HW1 3070   2.580   4.420   3.008
  768SOL    HW2 3071   2.625   4.340   2.888
  768SOL     MW 3072   2.643   4.379   2.964
  769SOL     OW 3073   2.910   3.666   2.985
  769SOL    HW1 3074   2.987   3.647   2.932
  769SOL    HW2 3075   2.836   3.640   2.930
  769SOL     MW 3076   2.910   3.660   2.971
  770SOL     OW 3077   5.164   2.829   4.733
  770SOL    HW1 3078   5.244   2.777   4.728
  770SOL    HW2 3079   5.193   2.920   4.720
  770SOL     MW 3080   5.178   2.834   4.731
  771SOL     OW 3081   3.499   0.917   0.006
  771SOL    HW1 3082   3.446   0.844  -0.028
  771SOL    HW2 3083   3.434   0.982   0.034
  771SOL     MW 3084   3.484   0.916   0.005
  772SOL     OW 3085   3.206   1.266   3.427
  772SOL    HW1 3086   3.145   1.198   3.456
  772SOL    HW2 3087   3.187   1.276   3.334
  772SOL     MW 3088   3.196   1.259   3.419
  773SOL     OW 3089   3.292   2.219   0.601
  773SOL    HW1 3090   3.224   2.163   0.639
  773SOL    HW2 3091   3.259   2.242   0.515
  773SOL     MW 3092   3.279   2.214   0.595
  774SOL     OW 3093   1.455   0.692   0.401
  774SOL    HW1 3094   1.382   0.681   0.340
  774SOL    HW2 3095   1.469   0.786   0.404
  774SOL     MW 3096   1.447   0.703   0.394
  775SOL     OW 3097   0.093   5.178   4.797
  775SOL    HW1 3098   0.132   5.092   4.784
  775SOL    HW2 3099   0.133   5.210   4.878
  775SOL     MW 3100   0.103   5.171   4.806
  776SOL     OW 3101   5.181   1.622   3.419
  776SOL    HW1 3102   5.120   1.593   3.351
  776SOL    HW2 3103   5.128   1.676   3.478
  776SOL     MW 3104   5.166   1.625   3.418
  777SOL     OW 3105   0.126   0.077   3.860
  777SOL    HW1 3106   0.031   0.067   3.853
  777SOL    HW2 3107   0.149   0.032   3.941
  777SOL     MW 3108   0.117   0.070   3.869
  778SOL     OW 3109   2.190   2.367   3.229
  778SOL    HW1 3110   2.135   2.344   3.154
  778SOL    HW2 3111   2.144   2.328   3.304
  778SOL     MW 3112   2.177   2.359   3.229
  779SOL     OW 3113   0.119   3.367   1.323
  779SOL    HW1 3114   0.176   3.442   1.303
  779SOL    HW2 3115   0.049   3.404   1.376
  779SOL     MW 3116   0.118   3.381   1.327
  780SOL     OW 3117   3.453   2.222   3.021
  780SOL    HW1 3118   3.424   2.302   2.979
  780SOL    HW2 3119   3.478   2.164   2.949
  780SOL     MW 3120   3.453   2.225   3.006
  781SOL     OW 3121   4.866   0.838   1.582
  781SOL    HW1 3122   4.845   0.906   1.646
  781SOL    HW2 3123   4.927   0.780   1.627
  781SOL     MW 3124   4.871   0.839   1.596
  782SOL     OW 3125   2.735   1.516   3.738
  782SOL    HW1 3126   2.818   1.514   3.690
  782SOL    HW2 3127   2.669   1.491   3.674
  782SOL     MW 3128   2.737   1.513   3.724
  783SOL     OW 3129   3.155   1.564   4.254
  783SOL    HW1 3130   3.082   1.505   4.239
  783SOL    HW2 3131   3.135   1.606   4.338
  783SOL     MW 3132   3.143   1.562   4.263
  784SOL     OW 3133   4.496   3.147   3.254
  784SOL    HW1 3134   4.482   3.172   3.345
  784SOL    HW2 3135   4.412   3.166   3.212
  784SOL     MW 3136   4.483   3.153   3.260
  785SOL     OW 3137   0.936   2.221   4.829
  785SOL    HW1 3138   0.942   2.185   4.917
  785SOL    HW2 3139   0.844   2.214   4.806
  785SOL     MW 3140   0.925   2.215   4.837
  786SOL     OW 3141   0.709   3.768   4.380
  786SOL    HW1 3142   0.631   3.752   4.327
  786SOL    HW2 3143   0.674   3.793   4.466
  786SOL     MW 3144   0.694   3.769   4.385
  787SOL     OW 3145   5.093   4.433   2.331
  787SOL    HW1 3146   5.036   4.358   2.349
  787SOL    HW2 3147   5.085   4.447   2.237
  787SOL     MW 3148   5.085   4.425   2.321
  788SOL     OW 3149   5.405   3.456   3.899
  788SOL    HW1 3150   5.412   3.410   3.816
  788SOL    HW2 3151   5.385   3.387   3.963
  788SOL     MW 3152   5.403   3.441   3.897
  789SOL     OW 3153   1.138   5.247   4.003
  789SOL    HW1 3154   1.118   5.197   4.082
  789SOL    HW2 3155   1.234   5.256   4.004
  789SOL     MW 3156   1.148   5.242   4.013
  790SOL     OW 3157   1.951   0.908   5.024
  790SOL    HW1 3158   2.014   0.870   4.964
  790SOL    HW2 3159   1.983   0.885   5.111
  790SOL     MW 3160   1.963   0.900   5.028
  791SOL     OW 3161   5.082   4.358   3.994
  791SOL    HW1 3162   5.168   4.399   3.986
  791SOL    HW2 3163   5.051   4.383   4.081
  791SOL     MW 3164   5.089   4.366   4.004
  792SOL     OW 3165   2.023   3.465   1.717
  792SOL    HW1 3166   1.972   3.530   1.669
  792SOL    HW2 3167   2.090   3.437   1.655
  792SOL     MW 3168   2.025   3.470   1.703
  793SOL     OW 3169   3.797   5.261   5.230
  793SOL    HW1 3170   3.833   5.226   5.311
  793SOL    HW2 3171   3.757   5.344   5.255
  793SOL     MW 3172   3.796   5.267   5.243
  794SOL     OW 3173   4.979   2.901   2.301
  794SOL    HW1 3174   4.978   2.994   2.322
  794SOL    HW2 3175   4.990   2.857   2.385
  794SOL     MW 3176   4.980   2.907   2.314
  795SOL     OW 3177   2.430   3.259   1.484
  795SOL    HW1 3178   2.461   3.242   1.573
  795SOL    HW2 3179   2.342   3.294   1.495
  795SOL     MW 3180   2.423   3.261   1.497
  796SOL     OW 3181   1.024   4.915   2.137
  796SOL    HW1 3182   0.995   4.999   2.102
  796SOL    HW2 3183   0.957   4.853   2.108
  796SOL     MW 3184   1.011   4.918   2.129
  797SOL     OW 3185   3.461   3.321   2.939
  797SOL    HW1 3186   3.524   3.392   2.924
  797SOL    HW2 3187   3.511   3.256   2.988
  797SOL     MW 3188   3.476   3.322   2.943
  798SOL     OW 3189   0.837   0.088   3.017
  798SOL    HW1 3190   0.802   0.177   3.015
  798SOL    HW2 3191   0.808   0.052   3.101
  798SOL     MW 3192   0.829   0.094   3.027
  799SOL     OW 3193   0.936   2.162   0.278
  799SOL    HW1 3194   0.965   2.078   0.313
  799SOL    HW2 3195   0.897   2.207   0.353
  799SOL     MW 3196   0.935   2.157   0.292
  800SOL     OW 3197   1.994   4.530   1.656
  800SOL    HW1 3198   1.906   4.539   1.694
  800SOL    HW2 3199   1.986   4.567   1.568
  800SOL     MW 3200   1.982   4.536   1.650
  801SOL     OW 3201   1.016   1.151   1.200
  801SOL    HW1 3202   0.940   1.125   1.251
  801SOL    HW2 3203   1.005   1.106   1.116
  801SOL     MW 3204   1.005   1.142   1.196
  802SOL     OW 3205   4.449   3.128   0.577
  802SOL    HW1 3206   4.429   3.205   0.630
  802SOL    HW2 3207   4.514   3.080   0.627
  802SOL     MW 3208   4.455   3.131   0.590
  803SOL     OW 3209   1.097   3.091  -0.008
  803SOL    HW1 3210   1.081   3.047   0.075
  803SOL    HW2 3211   1.182   3.134   0.004
  803SOL     MW 3212   1.106   3.091   0.004
  804SOL     OW 3213   5.350   3.149   2.413
  804SOL    HW1 3214   5.281   3.214   2.425
  804SOL    HW2 3215   5.340   3.120   2.322
  804SOL     MW 3216   5.340   3.153   2.403
  805SOL     OW 3217   2.690   1.886   1.235
  805SOL    HW1 3218   2.621   1.950   1.252
  805SOL    HW2 3219   2.676   1.858   1.145
  805SOL     MW 3220   2.680   1.891   1.226
  806SOL     OW 3221   2.026   5.284   5.077
  806SOL    HW1 3222   2.013   5.333   5.159
  806SOL    HW2 3223   1.983   5.200   5.092
  806SOL     MW 3224   2.019   5.280   5.089
  807SOL     OW 3225   0.694   0.565   2.067
  807SOL    HW1 3226   0.648   0.502   2.121
  807SOL    HW2 3227   0.710   0.519   1.984
  807SOL     MW 3228   0.690   0.551   2.063
  808SOL     OW 3229   0.199   2.713   4.327
  808SOL    HW1 3230   0.167   2.634   4.282
  808SOL    HW2 3231   0.205   2.688   4.419
  808SOL     MW 3232   0.196   2.700   4.333
  809SOL     OW 3233   2.131   4.257   2.214
  809SOL    HW1 3234   2.183   4.183   2.246
  809SOL    HW2 3235   2.173   4.281   2.131
  809SOL     MW 3236   2.143   4.251   2.207
  810SOL     OW 3237   0.365   4.697   0.227
  810SOL    HW1 3238   0.356   4.672   0.319
  810SOL    HW2 3239   0.334   4.787   0.223
  810SOL     MW 3240   0.360   4.705   0.238
  811SOL     OW 3241   0.954   1.118   1.538
  811SOL    HW1 3242   1.010   1.093   1.612
  811SOL    HW2 3243   0.965   1.213   1.532
  811SOL     MW 3244   0.962   1.127   1.547
  812SOL     OW 3245   2.056   0.988   2.844
  812SOL    HW1 3246   2.028   0.922   2.908
  812SOL    HW2 3247   2.004   0.969   2.766
  812SOL     MW 3248   2.046   0.977   2.842
  813SOL     OW 3249   1.455   1.867   3.012
  813SOL    HW1 3250   1.533   1.914   3.042
  813SOL    HW2 3251   1.394   1.936   2.985
  813SOL     MW 3252   1.457   1.882   3.012
  814SOL     OW 3253   1.003   0.016   4.702
  814SOL    HW1 3254   0.975   0.065   4.779
  814SOL    HW2 3255   0.972  -0.074   4.718
  814SOL     MW 3256   0.995   0.011   4.714
  815SOL     OW 3257   3.648   1.553   2.773
  815SOL    HW1 3258   3.717   1.558   2.839
  815SOL    HW2 3259   3.610   1.641   2.770
  815SOL     MW 3260   3.652   1.565   2.781
  816SOL     OW 3261   2.458   5.262   3.381
  816SOL    HW1 3262   2.530   5.321   3.405
  816SOL    HW2 3263   2.458   5.263   3.285
  816SOL     MW 3264   2.467   5.270   3.372
  817SOL     OW 3265   4.114   1.713   0.163
  817SOL    HW1 3266   4.044   1.769   0.129
  817SOL    HW2 3267   4.115   1.732   0.257
  817SOL     MW 3268   4.105   1.723   0.171
  818SOL     OW 3269   1.733   4.807   2.856
  818SOL    HW1 3270   1.731   4.784   2.949
  818SOL    HW2 3271   1.825   4.799   2.831
  818SOL     MW 3272   1.744   4.803   2.865
  819SOL     OW 3273   2.809   5.014   4.453
  819SOL    HW1 3274   2.766   5.031   4.369
  819SOL    HW2 3275   2.777   5.084   4.510
  819SOL     MW 3276   2.800   5.025   4.449
  820SOL     OW 3277   3.560   3.095   5.099
  820SOL    HW1 3278   3.554   3.181   5.059
  820SOL    HW2 3279   3.563   3.034   5.025
  820SOL     MW 3280   3.560   3.098   5.084
  821SOL     OW 3281   0.526   1.293   4.916
  821SOL    HW1 3282   0.531   1.330   5.004
  821SOL    HW2 3283   0.515   1.199   4.931
  821SOL     MW 3284   0.525   1.286   4.930
  822SOL     OW 3285   2.111   4.852   0.724
  822SOL    HW1 3286   2.069   4.863   0.809
  822SOL    HW2 3287   2.143   4.762   0.725
  822SOL     MW 3288   2.110   4.842   0.735
  823SOL     OW 3289   1.834   2.571   5.112
  823SOL    HW1 3290   1.835   2.487   5.159
  823SOL    HW2 3291   1.748   2.607   5.129
  823SOL     MW 3292   1.823   2.565   5.120
  824SOL     OW 3293   2.517   3.737   4.163
  824SOL    HW1 3294   2.577   3.680   4.211
  824SOL    HW2 3295   2.502   3.692   4.080
  824SOL     MW 3296   2.523   3.724   4.159
  825SOL     OW 3297   2.617   2.933   3.241
  825SOL    HW1 3298   2.555   2.999   3.273
  825SOL    HW2 3299   2.614   2.863   3.306
  825SOL     MW 3300   2.608   2.933   3.253
  826SOL     OW 3301   2.974   2.563   3.383
  826SOL    HW1 3302   3.040   2.605   3.438
  826SOL    HW2 3303   3.013   2.480   3.358
  826SOL     MW 3304   2.988   2.558   3.387
  827SOL     OW 3305   2.928   2.050   1.829
  827SOL    HW1 3306   2.862   2.111   1.863
  827SOL    HW2 3307   2.894   1.963   1.851
  827SOL     MW 3308   2.915   2.047   1.837
  828SOL     OW 3309   1.860   2.268   0.048
  828SOL    HW1 3310   1.793   2.314   0.098
  828SOL    HW2 3311   1.882   2.192   0.101
  828SOL     MW 3312   1.854   2.264   0.061
  829SOL     OW 3313   1.298   0.775   3.531
  829SOL    HW1 3314   1.294   0.729   3.615
  829SOL    HW2 3315   1.391   0.787   3.514
  829SOL     MW 3316   1.309   0.771   3.540
  830SOL     OW 3317   0.623   4.145   2.832
  830SOL    HW1 3318   0.656   4.198   2.905
  830SOL    HW2 3319   0.579   4.072   2.875
  830SOL     MW 3320   0.621   4.143   2.847
  831SOL     OW 3321   1.904   1.383   1.656
  831SOL    HW1 3322   1.901   1.459   1.714
  831SOL    HW2 3323   1.972   1.327   1.694
  831SOL     MW 3324   1.912   1.386   1.669
  832SOL     OW 3325   5.445   4.939   2.661
  832SOL    HW1 3326   5.510   4.915   2.595
  832SOL    HW2 3327   5.428   4.857   2.708
  832SOL     MW 3328   5.451   4.925   2.659
  833SOL     OW 3329   1.050   3.175   3.638
  833SOL    HW1 3330   1.029   3.170   3.545
  833SOL    HW2 3331   1.117   3.108   3.652
  833SOL     MW 3332   1.056   3.166   3.628
  834SOL     OW 3333   2.108   5.362   3.057
  834SOL    HW1 3334   2.064   5.278   3.065
  834SOL    HW2 3335   2.121   5.373   2.962
  834SOL     MW 3336   2.104   5.353   3.046
  835SOL     OW 3337   0.325   1.765   2.810
  835SOL    HW1 3338   0.412   1.741   2.780
  835SOL    HW2 3339   0.293   1.827   2.745
  835SOL     MW 3340   0.332   1.770   2.798
  836SOL     OW 3341   0.715   1.752   2.423
  836SOL    HW1 3342   0.686   1.754   2.332
  836SOL    HW2 3343   0.787   1.689   2.425
  836SOL     MW 3344   0.721   1.744   2.412
  837SOL     OW 3345   3.888   1.299   3.699
  837SOL    HW1 3346   3.841   1.382   3.710
  837SOL    HW2 3347   3.929   1.283   3.784
  837SOL     MW 3348   3.887   1.308   3.711
  838SOL     OW 3349   4.105   3.866   5.133
  838SOL    HW1 3350   4.126   3.805   5.203
  838SOL    HW2 3351   4.146   3.829   5.055
  838SOL     MW 3352   4.113   3.853   5.132
  839SOL     OW 3353   4.856   1.852   5.282
  839SOL    HW1 3354   4.925   1.797   5.318
  839SOL    HW2 3355   4.822   1.801   5.208
  839SOL     MW 3356   4.861   1.838   5.277
  840SOL     OW 3357   3.560   1.790   4.003
  840SOL    HW1 3358   3.503   1.732   4.053
  840SOL    HW2 3359   3.643   1.743   3.996
  840SOL     MW 3360   3.563   1.777   4.008
  841SOL     OW 3361   1.587   5.172   3.001
  841SOL    HW1 3362   1.558   5.253   3.041
  841SOL    HW2 3363   1.508   5.133   2.965
  841SOL     MW 3364   1.573   5.177   3.001
  842SOL     OW 3365   0.974   2.491   2.270
  842SOL    HW1 3366   0.908   2.477   2.338
  842SOL    HW2 3367   0.967   2.583   2.248
  842SOL     MW 3368   0.965   2.501   2.276
  843SOL     OW 3369   0.968   3.474   4.365
  843SOL    HW1 3370   0.883   3.472   4.409
  843SOL    HW2 3371   0.947   3.454   4.273
  843SOL     MW 3372   0.954   3.471   4.359
  844SOL     OW 3373   3.259   3.469   0.049
  844SOL    HW1 3374   3.305   3.390   0.020
  844SOL    HW2 3375   3.170   3.440   0.067
  844SOL     MW 3376   3.253   3.456   0.048
  845SOL     OW 3377   1.906   0.454   0.505
  845SOL    HW1 3378   1.885   0.417   0.419
  845SOL    HW2 3379   1.828   0.503   0.529
  845SOL     MW 3380   1.893   0.455   0.497
  846SOL     OW 3381   1.003   5.229   0.127
  846SOL    HW1 3382   1.044   5.299   0.076
  846SOL    HW2 3383   0.976   5.272   0.208
  846SOL     MW 3384   1.005   5.244   0.131
  847SOL     OW 3385   3.727   4.295   3.595
  847SOL    HW1 3386   3.692   4.221   3.645
  847SOL    HW2 3387   3.680   4.371   3.629
  847SOL     MW 3388   3.716   4.295   3.606
  848SOL     OW 3389   3.771   1.137   4.799
  848SOL    HW1 3390   3.757   1.049   4.834
  848SOL    HW2 3391   3.697   1.188   4.834
  848SOL     MW 3392   3.760   1.132   4.808
  849SOL     OW 3393   3.672   4.047   2.188
  849SOL    HW1 3394   3.702   3.958   2.167
  849SOL    HW2 3395   3.739   4.104   2.150
  849SOL     MW 3396   3.685   4.043   2.180
  850SOL     OW 3397   4.613   4.462   1.848
  850SOL    HW1 3398   4.522   4.432   1.838
  850SOL    HW2 3399   4.606   4.556   1.863
  850SOL     MW 3400   4.600   4.470   1.849
  851SOL     OW 3401   2.133   1.013   3.359
  851SOL    HW1 3402   2.046   0.994   3.394
  851SOL    HW2 3403   2.183   1.047   3.433
  851SOL     MW 3404   2.128   1.015   3.373
  852SOL     OW 3405   1.968   3.175   2.981
  852SOL    HW1 3406   1.933   3.244   3.037
  852SOL    HW2 3407   1.914   3.179   2.902
  852SOL     MW 3408   1.956   3.184   2.978
  853SOL     OW 3409   0.732   1.908   1.603
  853SOL    HW1 3410   0.687   1.987   1.634
  853SOL    HW2 3411   0.788   1.939   1.532
  853SOL     MW 3412   0.734   1.922   1.598
  854SOL     OW 3413   4.272   1.887   1.290
  854SOL    HW1 3414   4.277   1.792   1.302
  854SOL    HW2 3415   4.185   1.902   1.255
  854SOL     MW 3416   4.261   1.876   1.287
  855SOL     OW 3417   2.492   2.401   1.747
  855SOL    HW1 3418   2.461   2.491   1.758
  855SOL    HW2 3419   2.477   2.360   1.832
  855SOL     MW 3420   2.486   2.408   1.759
  856SOL     OW 3421   3.599   2.879   0.675
  856SOL    HW1 3422   3.692   2.866   0.662
  856SOL    HW2 3423   3.588   2.975   0.679
  856SOL     MW 3424   3.609   2.890   0.674
  857SOL     OW 3425   1.996   3.599   4.213
  857SOL    HW1 3426   2.078   3.566   4.248
  857SOL    HW2 3427   1.940   3.611   4.289
  857SOL     MW 3428   1.999   3.596   4.227
  858SOL     OW 3429   3.613   3.309   3.292
  858SOL    HW1 3430   3.623   3.394   3.250
  858SOL    HW2 3431   3.614   3.246   3.219
  858SOL     MW 3432   3.614   3.312   3.277
  859SOL     OW 3433   4.997   5.045   1.847
  859SOL    HW1 3434   4.993   5.017   1.756
  859SOL    HW2 3435   4.914   5.018   1.884
  859SOL     MW 3436   4.986   5.038   1.840
  860SOL     OW 3437   4.606   0.116   2.688
  860SOL    HW1 3438   4.614   0.098   2.782
  860SOL    HW2 3439   4.552   0.044   2.655
  860SOL     MW 3440   4.600   0.104   2.696
  861SOL     OW 3441   0.516   4.110   4.576
  861SOL    HW1 3442   0.521   4.084   4.668
  861SOL    HW2 3443   0.422   4.115   4.557
  861SOL     MW 3444   0.504   4.108   4.585
  862SOL     OW 3445   0.729   4.030   1.224
  862SOL    HW1 3446   0.736   4.037   1.319
  862SOL    HW2 3447   0.645   3.988   1.209
  862SOL     MW 3448   0.719   4.026   1.234
  863SOL     OW 3449   3.950   2.107   2.253
  863SOL    HW1 3450   3.911   2.159   2.323
  863SOL    HW2 3451   3.998   2.170   2.200
  863SOL     MW 3452   3.951   2.121   2.255
  864SOL     OW 3453   1.550   5.409   5.038
  864SOL    HW1 3454   1.585   5.444   4.956
  864SOL    HW2 3455   1.466   5.454   5.049
  864SOL     MW 3456   1.544   5.419   5.029
  865SOL     OW 3457   4.476   2.445   1.574
  865SOL    HW1 3458   4.410   2.414   1.636
  865SOL    HW2 3459   4.435   2.521   1.531
  865SOL     MW 3460   4.462   2.451   1.576
  866SOL     OW 3461   0.909   3.483   1.014
  866SOL    HW1 3462   0.985   3.429   0.989
  866SOL    HW2 3463   0.926   3.567   0.972
  866SOL     MW 3464   0.921   3.487   1.005
  867SOL     OW 3465   2.448   3.201   5.151
  867SOL    HW1 3466   2.363   3.203   5.196
  867SOL    HW2 3467   2.439   3.132   5.086
  867SOL     MW 3468   2.436   3.192   5.149
  868SOL     OW 3469   0.614   0.119   1.347
  868SOL    HW1 3470   0.700   0.131   1.387
  868SOL    HW2 3471   0.625   0.042   1.290
  868SOL     MW 3472   0.626   0.110   1.345
  869SOL     OW 3473   3.817   0.886   4.138
  869SOL    HW1 3474   3.802   0.954   4.203
  869SOL    HW2 3475   3.762   0.911   4.063
  869SOL     MW 3476   3.808   0.898   4.137
  870SOL     OW 3477   3.539   3.804   2.599
  870SOL    HW1 3478   3.587   3.869   2.548
  870SOL    HW2 3479   3.476   3.856   2.650
  870SOL     MW 3480   3.537   3.819   2.599
  871SOL     OW 3481   3.323   3.478   0.580
  871SOL    HW1 3482   3.260   3.517   0.640
  871SOL    HW2 3483   3.276   3.471   0.497
  871SOL     MW 3484   3.309   3.482   0.577
  872SOL     OW 3485   3.959   0.349   2.852
  872SOL    HW1 3486   4.006   0.328   2.772
  872SOL    HW2 3487   3.912   0.430   2.832
  872SOL     MW 3488   3.959   0.357   2.839
  873SOL     OW 3489   2.820   3.827   5.471
  873SOL    HW1 3490   2.778   3.812   5.386
  873SOL    HW2 3491   2.914   3.820   5.452
  873SOL     MW 3492   2.827   3.824   5.457
  874SOL     OW 3493   1.353   4.283   1.696
  874SOL    HW1 3494   1.372   4.254   1.786
  874SOL    HW2 3495   1.336   4.203   1.648
  874SOL     MW 3496   1.353   4.269   1.701
  875SOL     OW 3497   1.212   1.947   3.859
  875SOL    HW1 3498   1.221   2.028   3.808
  875SOL    HW2 3499   1.301   1.927   3.889
  875SOL     MW 3500   1.224   1.955   3.856
  876SOL     OW 3501   0.877   1.710   0.094
  876SOL    HW1 3502   0.820   1.639   0.124
  876SOL    HW2 3503   0.892   1.764   0.172
  876SOL     MW 3504   0.872   1.708   0.108
  877SOL     OW 3505   2.256   3.829   1.221
  877SOL    HW1 3506   2.250   3.900   1.285
  877SOL    HW2 3507   2.270   3.750   1.273
  877SOL     MW 3508   2.257   3.828   1.236
  878SOL     OW 3509   4.813   3.556   4.998
  878SOL    HW1 3510   4.829   3.468   4.966
  878SOL    HW2 3511   4.892   3.605   4.975
  878SOL     MW 3512   4.825   3.551   4.991
  879SOL     OW 3513   2.427   4.955   2.903
  879SOL    HW1 3514   2.508   4.943   2.853
  879SOL    HW2 3515   2.453   4.945   2.994
  879SOL     MW 3516   2.440   4.952   2.908
  880SOL     OW 3517   4.830   5.396   1.591
  880SOL    HW1 3518   4.816   5.322   1.532
  880SOL    HW2 3519   4.885   5.360   1.661
  880SOL     MW 3520   4.835   5.382   1.593
  881SOL     OW 3521   2.435   4.084   4.309
  881SOL    HW1 3522   2.403   4.006   4.354
  881SOL    HW2 3523   2.513   4.054   4.262
  881SOL     MW 3524   2.441   4.070   4.309
  882SOL     OW 3525   0.880   4.430   3.607
  882SOL    HW1 3526   0.883   4.452   3.514
  882SOL    HW2 3527   0.788   4.439   3.631
  882SOL     MW 3528   0.869   4.434   3.598
  883SOL     OW 3529   0.168   3.651   2.458
  883SOL    HW1 3530   0.215   3.728   2.427
  883SOL    HW2 3531   0.212   3.626   2.539
  883SOL     MW 3532   0.180   3.658   2.464
  884SOL     OW 3533   0.549   4.364   1.628
  884SOL    HW1 3534   0.568   4.321   1.712
  884SOL    HW2 3535   0.631   4.360   1.580
  884SOL     MW 3536   0.562   4.358   1.633
  885SOL     OW 3537   1.085   2.986   0.242
  885SOL    HW1 3538   1.069   2.893   0.225
  885SOL    HW2 3539   1.004   3.017   0.283
  885SOL     MW 3540   1.073   2.978   0.245
  886SOL     OW 3541   0.798   5.186   3.129
  886SOL    HW1 3542   0.873   5.163   3.074
  886SOL    HW2 3543   0.796   5.117   3.196
  886SOL     MW 3544   0.808   5.174   3.131
  887SOL     OW 3545   1.041   1.470   5.459
  887SOL    HW1 3546   0.960   1.518   5.474
  887SOL    HW2 3547   1.014   1.387   5.420
  887SOL     MW 3548   1.027   1.466   5.456
  888SOL     OW 3549   0.047   4.931   3.763
  888SOL    HW1 3550   0.093   4.958   3.843
  888SOL    HW2 3551   0.024   5.013   3.719
  888SOL     MW 3552   0.050   4.945   3.768
  889SOL     OW 3553   0.139   0.396   1.263
  889SOL    HW1 3554   0.104   0.472   1.310
  889SOL    HW2 3555   0.195   0.434   1.195
  889SOL     MW 3556   0.141   0.411   1.260
  890SOL     OW 3557   4.136   4.388   1.331
  890SOL    HW1 3558   4.095   4.347   1.255
  890SOL    HW2 3559   4.227   4.401   1.306
  890SOL     MW 3560   4.142   4.385   1.318
  891SOL     OW 3561   2.805   3.053   4.607
  891SOL    HW1 3562   2.781   3.099   4.526
  891SOL    HW2 3563   2.811   2.961   4.581
  891SOL     MW 3564   2.802   3.047   4.593
  892SOL     OW 3565   0.564   5.386   5.379
  892SOL    HW1 3566   0.575   5.480   5.393
  892SOL    HW2 3567   0.510   5.357   5.452
  892SOL     MW 3568   0.559   5.395   5.390
  893SOL     OW 3569   4.032   3.282   2.691
  893SOL    HW1 3570   4.083   3.231   2.754
  893SOL    HW2 3571   3.988   3.216   2.637
  893SOL     MW 3572   4.033   3.267   2.692
  894SOL     OW 3573   2.925   4.845   5.057
  894SOL    HW1 3574   2.867   4.769   5.068
  894SOL    HW2 3575   3.013   4.809   5.067
  894SOL     MW 3576   2.929   4.830   5.059
  895SOL     OW 3577   4.432   0.884   1.604
  895SOL    HW1 3578   4.496   0.815   1.589
  895SOL    HW2 3579   4.479   0.965   1.587
  895SOL     MW 3580   4.446   0.885   1.600
  896SOL     OW 3581   5.416   0.726   0.712
  896SOL    HW1 3582   5.385   0.793   0.773
  896SOL    HW2 3583   5.453   0.775   0.639
  896SOL     MW 3584   5.417   0.741   0.711
  897SOL     OW 3585   3.653   3.102   4.695
  897SOL    HW1 3586   3.637   3.044   4.769
  897SOL    HW2 3587   3.578   3.087   4.637
  897SOL     MW 3588   3.642   3.092   4.697
  898SOL     OW 3589   0.519   3.697   4.200
  898SOL    HW1 3590   0.556   3.629   4.143
  898SOL    HW2 3591   0.447   3.734   4.148
  898SOL     MW 3592   0.515   3.693   4.186
  899SOL     OW 3593   4.226   0.557   0.299
  899SOL    HW1 3594   4.282   0.587   0.371
  899SOL    HW2 3595   4.263   0.472   0.274
  899SOL     MW 3596   4.238   0.550   0.305
  900SOL     OW 3597   1.995   3.086   2.596
  900SOL    HW1 3598   2.011   3.139   2.518
  900SOL    HW2 3599   1.926   3.132   2.643
  900SOL     MW 3600   1.988   3.098   2.592
  901SOL     OW 3601   0.670   0.611   3.042
  901SOL    HW1 3602   0.641   0.672   3.110
  901SOL    HW2 3603   0.596   0.607   2.981
  901SOL     MW 3604   0.657   0.618   3.043
  902SOL     OW 3605   0.604   0.318   4.775
  902SOL    HW1 3606   0.611   0.365   4.858
  902SOL    HW2 3607   0.513   0.288   4.772
  902SOL     MW 3608   0.593   0.320   4.785
  903SOL     OW 3609   3.946   0.582   0.304
  903SOL    HW1 3610   3.927   0.673   0.326
  903SOL    HW2 3611   4.040   0.574   0.315
  903SOL     MW 3612   3.955   0.593   0.308
  904SOL     OW 3613   1.135   5.441   0.016
  904SOL    HW1 3614   1.152   5.426  -0.077
  904SOL    HW2 3615   1.216   5.417   0.060
  904SOL     MW 3616   1.147   5.436   0.009
  905SOL     OW 3617   5.287   2.693   4.301
  905SOL    HW1 3618   5.287   2.597   4.300
  905SOL    HW2 3619   5.331   2.718   4.219
  905SOL     MW 3620   5.293   2.684   4.290
  906SOL     OW 3621   1.093   0.798   4.567
  906SOL    HW1 3622   1.112   0.712   4.605
  906SOL    HW2 3623   1.126   0.793   4.478
  906SOL     MW 3624   1.100   0.786   4.561
  907SOL     OW 3625   2.447   2.445   3.205
  907SOL    HW1 3626   2.489   2.432   3.290
  907SOL    HW2 3627   2.362   2.403   3.214
  907SOL     MW 3628   2.442   2.438   3.217
  908SOL     OW 3629   3.089   2.069   0.701
  908SOL    HW1 3630   3.064   2.037   0.615
  908SOL    HW2 3631   3.098   1.989   0.754
  908SOL     MW 3632   3.087   2.055   0.697
  909SOL     OW 3633   4.719   1.169   0.269
  909SOL    HW1 3634   4.717   1.119   0.351
  909SOL    HW2 3635   4.699   1.104   0.201
  909SOL     MW 3636   4.716   1.154   0.271
  910SOL     OW 3637   3.003   5.025   0.792
  910SOL    HW1 3638   2.978   4.963   0.860
  910SOL    HW2 3639   2.967   5.109   0.822
  910SOL     MW 3640   2.995   5.028   0.805
  911SOL     OW 3641   2.282   1.291   2.350
  911SOL    HW1 3642   2.275   1.238   2.270
  911SOL    HW2 3643   2.201   1.342   2.352
  911SOL     MW 3644   2.271   1.291   2.340
  912SOL     OW 3645   1.946   4.730   4.715
  912SOL    HW1 3646   1.968   4.638   4.703
  912SOL    HW2 3647   2.009   4.777   4.660
  912SOL     MW 3648   1.957   4.724   4.706
  913SOL     OW 3649   3.319   1.134   0.051
  913SOL    HW1 3650   3.245   1.119   0.110
  913SOL    HW2 3651   3.380   1.186   0.103
  913SOL     MW 3652   3.317   1.139   0.065
  914SOL     OW 3653   4.266   2.710   2.128
  914SOL    HW1 3654   4.187   2.744   2.171
  914SOL    HW2 3655   4.305   2.786   2.085
  914SOL     MW 3656   4.260   2.724   2.128
  915SOL     OW 3657   1.053   1.365   2.307
  915SOL    HW1 3658   1.012   1.437   2.354
  915SOL    HW2 3659   1.097   1.313   2.375
  915SOL     MW 3660   1.053   1.367   2.321
  916SOL     OW 3661   1.376   1.427   1.580
  916SOL    HW1 3662   1.304   1.383   1.624
  916SOL    HW2 3663   1.333   1.488   1.520
  916SOL     MW 3664   1.362   1.429   1.578
  917SOL     OW 3665   1.240   0.317   4.997
  917SOL    HW1 3666   1.233   0.348   5.088
  917SOL    HW2 3667   1.320   0.356   4.964
  917SOL     MW 3668   1.249   0.326   5.005
  918SOL     OW 3669   2.924   0.558   1.600
  918SOL    HW1 3670   2.908   0.538   1.508
  918SOL    HW2 3671   2.946   0.651   1.601
  918SOL     MW 3672   2.925   0.567   1.589
  919SOL     OW 3673   3.792   1.448   4.870
  919SOL    HW1 3674   3.827   1.383   4.810
  919SOL    HW2 3675   3.866   1.470   4.927
  919SOL     MW 3676   3.806   1.443   4.870
  920SOL     OW 3677   5.100   1.161   3.392
  920SOL    HW1 3678   5.142   1.234   3.346
  920SOL    HW2 3679   5.165   1.131   3.455
  920SOL     MW 3680   5.113   1.167   3.394
  921SOL     OW 3681   0.524   1.073   3.449
  921SOL    HW1 3682   0.512   1.106   3.538
  921SOL    HW2 3683   0.617   1.052   3.444
  921SOL     MW 3684   0.534   1.074   3.460
  922SOL     OW 3685   2.680   0.079   0.967
  922SOL    HW1 3686   2.740   0.071   1.040
  922SOL    HW2 3687   2.634   0.162   0.982
  922SOL     MW 3688   2.682   0.089   0.978
  923SOL     OW 3689   1.931   0.851   2.389
  923SOL    HW1 3690   1.998   0.834   2.323
  923SOL    HW2 3691   1.850   0.818   2.350
  923SOL     MW 3692   1.929   0.844   2.375
  924SOL     OW 3693   1.581   2.948   5.094
  924SOL    HW1 3694   1.595   2.950   4.999
  924SOL    HW2 3695   1.642   3.013   5.128
  924SOL     MW 3696   1.590   2.956   5.086
  925SOL     OW 3697   4.513   0.066   5.288
  925SOL    HW1 3698   4.440   0.092   5.231
  925SOL    HW2 3699   4.591   0.086   5.236
  925SOL     MW 3700   4.514   0.072   5.274
  926SOL     OW 3701   2.207   1.914   1.147
  926SOL    HW1 3702   2.147   1.964   1.093
  926SOL    HW2 3703   2.274   1.883   1.086
  926SOL     MW 3704   2.208   1.916   1.132
  927SOL     OW 3705   3.472   3.680   3.689
  927SOL    HW1 3706   3.486   3.587   3.710
  927SOL    HW2 3707   3.388   3.681   3.642
  927SOL     MW 3708   3.463   3.668   3.686
  928SOL     OW 3709   3.501   2.784   0.912
  928SOL    HW1 3710   3.468   2.864   0.953
  928SOL    HW2 3711   3.544   2.813   0.832
  928SOL     MW 3712   3.502   2.798   0.907
  929SOL     OW 3713   1.086   3.985   4.167
  929SOL    HW1 3714   0.991   3.969   4.166
  929SOL    HW2 3715   1.108   3.988   4.260
  929SOL     MW 3716   1.077   3.984   4.179
  930SOL     OW 3717   2.147   1.536   3.775
  930SOL    HW1 3718   2.179   1.545   3.864
  930SOL    HW2 3719   2.053   1.557   3.781
  930SOL     MW 3720   2.139   1.540   3.787
  931SOL     OW 3721   0.678   1.343   4.683
  931SOL    HW1 3722   0.628   1.329   4.763
  931SOL    HW2 3723   0.637   1.418   4.641
  931SOL     MW 3724   0.667   1.351   4.688
  932SOL     OW 3725   4.277   0.112   0.796
  932SOL    HW1 3726   4.214   0.171   0.838
  932SOL    HW2 3727   4.223   0.056   0.740
  932SOL     MW 3728   4.262   0.112   0.794
  933SOL     OW 3729   0.875   3.130   0.347
  933SOL    HW1 3730   0.791   3.144   0.303
  933SOL    HW2 3731   0.921   3.213   0.336
  933SOL     MW 3732   0.870   3.143   0.340
  934SOL     OW 3733   1.669   4.800   3.649
  934SOL    HW1 3734   1.707   4.713   3.634
  934SOL    HW2 3735   1.681   4.815   3.743
  934SOL     MW 3736   1.676   4.791   3.659
  935SOL     OW 3737   0.037   2.412   1.198
  935SOL    HW1 3738   0.014   2.360   1.122
  935SOL    HW2 3739  -0.006   2.369   1.272
  935SOL     MW 3740   0.029   2.400   1.198
  936SOL     OW 3741   4.426   3.633   0.825
  936SOL    HW1 3742   4.520   3.646   0.839
  936SOL    HW2 3743   4.394   3.717   0.792
  936SOL     MW 3744   4.434   3.645   0.822
  937SOL     OW 3745   0.244   0.718   4.864
  937SOL    HW1 3746   0.332   0.737   4.832
  937SOL    HW2 3747   0.193   0.795   4.839
  937SOL     MW 3748   0.249   0.730   4.857
  938SOL     OW 3749   0.849   1.686   0.486
  938SOL    HW1 3750   0.765   1.718   0.520
  938SOL    HW2 3751   0.902   1.670   0.564
  938SOL     MW 3752   0.845   1.688   0.501
  939SOL     OW 3753   2.975   2.128   3.760
  939SOL    HW1 3754   2.967   2.137   3.855
  939SOL    HW2 3755   2.905   2.067   3.737
  939SOL     MW 3756   2.965   2.121   3.769
  940SOL     OW 3757   0.294   4.613   5.309
  940SOL    HW1 3758   0.203   4.635   5.329
  940SOL    HW2 3759   0.305   4.525   5.345
  940SOL     MW 3760   0.284   4.605   5.316
  941SOL     OW 3761   2.430   3.724   3.694
  941SOL    HW1 3762   2.487   3.751   3.766
  941SOL    HW2 3763   2.444   3.629   3.687
  941SOL     MW 3764   2.439   3.715   3.702
  942SOL     OW 3765   2.467   1.816   2.749
  942SOL    HW1 3766   2.467   1.911   2.736
  942SOL    HW2 3767   2.508   1.781   2.670
  942SOL     MW 3768   2.472   1.823   2.738
  943SOL     OW 3769   4.373   5.384   2.757
  943SOL    HW1 3770   4.352   5.460   2.811
  943SOL    HW2 3771   4.394   5.315   2.820
  943SOL     MW 3772   4.373   5.385   2.772
  944SOL     OW 3773   2.763   4.360   4.411
  944SOL    HW1 3774   2.667   4.369   4.414
  944SOL    HW2 3775   2.779   4.269   4.434
  944SOL     MW 3776   2.753   4.350   4.414
  945SOL     OW 3777   3.730   1.838   4.356
  945SOL    HW1 3778   3.710   1.915   4.301
  945SOL    HW2 3779   3.646   1.791   4.361
  945SOL     MW 3780   3.716   1.842   4.349
  946SOL     OW 3781   4.390   4.083   0.538
  946SOL    HW1 3782   4.474   4.094   0.494
  946SOL    HW2 3783   4.349   4.009   0.493
  946SOL     MW 3784   4.396   4.075   0.526
  947SOL     OW 3785   3.107   4.304   2.037
  947SOL    HW1 3786   3.083   4.213   2.056
  947SOL    HW2 3787   3.055   4.327   1.961
  947SOL     MW 3788   3.097   4.295   2.030
  948SOL     OW 3789   0.739   3.812   3.936
  948SOL    HW1 3790   0.759   3.777   3.849
  948SOL    HW2 3791   0.722   3.905   3.921
  948SOL     MW 3792   0.739   3.819   3.923
  949SOL     OW 3793   1.999   0.783   3.022
  949SOL    HW1 3794   1.997   0.707   2.964
  949SOL    HW2 3795   2.061   0.760   3.091
  949SOL     MW 3796   2.007   0.770   3.024
  950SOL     OW 3797   2.413   0.782   1.567
  950SOL    HW1 3798   2.414   0.699   1.520
  950SOL    HW2 3799   2.409   0.757   1.660
  950SOL     MW 3800   2.413   0.768   1.573
  951SOL     OW 3801   4.858   2.588   3.481
  951SOL    HW1 3802   4.785   2.545   3.526
  951SOL    HW2 3803   4.831   2.594   3.390
  951SOL     MW 3804   4.846   2.583   3.475
  952SOL     OW 3805   1.800   5.230   3.360
  952SOL    HW1 3806   1.810   5.299   3.295
  952SOL    HW2 3807   1.789   5.150   3.309
  952SOL     MW 3808   1.800   5.228   3.345
  953SOL     OW 3809   4.090   3.653   2.035
  953SOL    HW1 3810   4.174   3.635   2.076
  953SOL    HW2 3811   4.026   3.605   2.088
  953SOL     MW 3812   4.093   3.645   2.047
  954SOL     OW 3813   4.502   2.999   2.317
  954SOL    HW1 3814   4.445   2.991   2.394
  954SOL    HW2 3815   4.577   2.943   2.336
  954SOL     MW 3816   4.504   2.991   2.330
  955SOL     OW 3817   3.982   3.398   4.740
  955SOL    HW1 3818   3.891   3.373   4.719
  955SOL    HW2 3819   4.035   3.328   4.700
  955SOL     MW 3820   3.977   3.386   4.732
  956SOL     OW 3821   1.577   3.125   3.187
  956SOL    HW1 3822   1.642   3.067   3.227
  956SOL    HW2 3823   1.590   3.209   3.231
  956SOL     MW 3824   1.587   3.129   3.198
  957SOL     OW 3825   0.874   4.766   2.555
  957SOL    HW1 3826   0.913   4.696   2.503
  957SOL    HW2 3827   0.926   4.768   2.635
  957SOL     MW 3828   0.886   4.757   2.558
  958SOL     OW 3829   2.767   3.263   0.021
  958SOL    HW1 3830   2.749   3.259  -0.073
  958SOL    HW2 3831   2.681   3.260   0.062
  958SOL     MW 3832   2.754   3.262   0.015
  959SOL     OW 3833   3.185   0.503   3.227
  959SOL    HW1 3834   3.101   0.533   3.193
  959SOL    HW2 3835   3.164   0.464   3.312
  959SOL     MW 3836   3.171   0.502   3.233
  960SOL     OW 3837   4.661   4.485   4.388
  960SOL    HW1 3838   4.648   4.418   4.321
  960SOL    HW2 3839   4.740   4.458   4.433
  960SOL     MW 3840   4.669   4.473   4.385
  961SOL     OW 3841   2.279   5.235   0.120
  961SOL    HW1 3842   2.223   5.285   0.179
  961SOL    HW2 3843   2.235   5.150   0.111
  961SOL     MW 3844   2.266   5.230   0.126
  962SOL     OW 3845   2.107   5.353   1.938
  962SOL    HW1 3846   2.130   5.332   1.848
  962SOL    HW2 3847   2.047   5.284   1.965
  962SOL     MW 3848   2.102   5.342   1.930
  963SOL     OW 3849   0.937   1.354   4.237
  963SOL    HW1 3850   1.030   1.360   4.256
  963SOL    HW2 3851   0.932   1.339   4.142
  963SOL     MW 3852   0.948   1.353   4.227
  964SOL     OW 3853   3.769   1.095   4.308
  964SOL    HW1 3854   3.795   1.080   4.399
  964SOL    HW2 3855   3.674   1.084   4.308
  964SOL     MW 3856   3.760   1.092   4.320
  965SOL     OW 3857   0.775   3.673   2.755
  965SOL    HW1 3858   0.863   3.690   2.789
  965SOL    HW2 3859   0.756   3.583   2.781
  965SOL     MW 3860   0.784   3.664   2.762
  966SOL     OW 3861   0.763   4.159   5.341
  966SOL    HW1 3862   0.758   4.215   5.418
  966SOL    HW2 3863   0.810   4.081   5.372
  966SOL     MW 3864   0.768   4.156   5.355
  967SOL     OW 3865   5.214   3.539   3.452
  967SOL    HW1 3866   5.272   3.606   3.489
  967SOL    HW2 3867   5.265   3.498   3.383
  967SOL     MW 3868   5.228   3.543   3.448
  968SOL     OW 3869   4.529   4.966   0.140
  968SOL    HW1 3870   4.440   4.949   0.172
  968SOL    HW2 3871   4.524   4.947   0.046
  968SOL     MW 3872   4.517   4.961   0.132
  969SOL     OW 3873   4.029   2.869   3.232
  969SOL    HW1 3874   4.037   2.774   3.230
  969SOL    HW2 3875   4.055   2.897   3.145
  969SOL     MW 3876   4.033   2.860   3.221
  970SOL     OW 3877   1.163   1.178   3.987
  970SOL    HW1 3878   1.224   1.246   4.016
  970SOL    HW2 3879   1.213   1.128   3.923
  970SOL     MW 3880   1.177   1.181   3.983
  971SOL     OW 3881   0.320   5.183   1.364
  971SOL    HW1 3882   0.323   5.268   1.408
  971SOL    HW2 3883   0.368   5.197   1.282
  971SOL     MW 3884   0.327   5.195   1.359
  972SOL     OW 3885   2.571   3.654   3.218
  972SOL    HW1 3886   2.571   3.742   3.258
  972SOL    HW2 3887   2.543   3.669   3.128
  972SOL     MW 3888   2.568   3.668   3.211
  973SOL     OW 3889   2.369   4.927   0.944
  973SOL    HW1 3890   2.388   4.834   0.948
  973SOL    HW2 3891   2.303   4.941   1.012
  973SOL     MW 3892   2.363   4.917   0.953
  974SOL     OW 3893   0.246   2.509   3.596
  974SOL    HW1 3894   0.184   2.454   3.644
  974SOL    HW2 3895   0.236   2.596   3.635
  974SOL     MW 3896   0.237   2.513   3.607
  975SOL     OW 3897   4.387   2.900   1.961
  975SOL    HW1 3898   4.378   2.847   1.881
  975SOL    HW2 3899   4.434   2.978   1.933
  975SOL     MW 3900   4.392   2.903   1.947
  976SOL     OW 3901   4.708   1.859   2.194
  976SOL    HW1 3902   4.653   1.787   2.224
  976SOL    HW2 3903   4.797   1.829   2.209
  976SOL     MW 3904   4.712   1.846   2.200
  977SOL     OW 3905   5.418   3.717   3.500
  977SOL    HW1 3906   5.414   3.758   3.413
  977SOL    HW2 3907   5.356   3.767   3.553
  977SOL     MW 3908   5.409   3.728   3.496
  978SOL     OW 3909   4.679   3.459   1.942
  978SOL    HW1 3910   4.635   3.424   1.865
  978SOL    HW2 3911   4.722   3.383   1.981
  978SOL     MW 3912   4.679   3.445   1.937
  979SOL     OW 3913   3.252   1.464   0.948
  979SOL    HW1 3914   3.337   1.422   0.963
  979SOL    HW2 3915   3.227   1.498   1.034
  979SOL     MW 3916   3.260   1.463   0.961
  980SOL     OW 3917   1.672   3.701   4.850
  980SOL    HW1 3918   1.612   3.769   4.879
  980SOL    HW2 3919   1.716   3.671   4.930
  980SOL     MW 3920   1.670   3.706   4.864
  981SOL     OW 3921   4.316   2.188   0.511
  981SOL    HW1 3922   4.386   2.154   0.568
  981SOL    HW2 3923   4.273   2.255   0.564
  981SOL     MW 3924   4.320   2.192   0.525
  982SOL     OW 3925   3.438   1.040   3.102
  982SOL    HW1 3926   3.436   1.135   3.114
  982SOL    HW2 3927   3.378   1.024   3.030
  982SOL     MW 3928   3.430   1.050   3.095
  983SOL     OW 3929   3.621   1.231   4.078
  983SOL    HW1 3930   3.636   1.152   4.027
  983SOL    HW2 3931   3.704   1.248   4.122
  983SOL     MW 3932   3.634   1.223   4.077
  984SOL     OW 3933   2.522   0.685   4.628
  984SOL    HW1 3934   2.454   0.661   4.690
  984SOL    HW2 3935   2.477   0.740   4.564
  984SOL     MW 3936   2.507   0.689   4.628
  985SOL     OW 3937   3.977   0.786   4.774
  985SOL    HW1 3938   3.923   0.769   4.697
  985SOL    HW2 3939   3.916   0.820   4.839
  985SOL     MW 3940   3.963   0.788   4.772
  986SOL     OW 3941   1.593   4.069   1.467
  986SOL    HW1 3942   1.606   4.082   1.561
  986SOL    HW2 3943   1.534   4.140   1.441
  986SOL     MW 3944   1.588   4.080   1.476
  987SOL     OW 3945   2.865   0.048   2.706
  987SOL    HW1 3946   2.840   0.033   2.615
  987SOL    HW2 3947   2.787   0.086   2.747
  987SOL     MW 3948   2.852   0.051   2.700
  988SOL     OW 3949   0.953   3.736   0.912
  988SOL    HW1 3950   1.047   3.754   0.905
  988SOL    HW2 3951   0.928   3.770   0.998
  988SOL     MW 3952   0.962   3.742   0.922
  989SOL     OW 3953   1.497   1.190   3.629
  989SOL    HW1 3954   1.482   1.283   3.649
  989SOL    HW2 3955   1.454   1.143   3.700
  989SOL     MW 3956   1.490   1.196   3.641
  990SOL     OW 3957   1.092   1.530   5.024
  990SOL    HW1 3958   1.129   1.618   5.020
  990SOL    HW2 3959   1.151   1.482   5.083
  990SOL     MW 3960   1.105   1.535   5.031
  991SOL     OW 3961   5.145   3.319   2.484
  991SOL    HW1 3962   5.124   3.254   2.551
  991SOL    HW2 3963   5.171   3.397   2.533
  991SOL     MW 3964   5.146   3.320   2.498
  992SOL     OW 3965   3.300   3.208   4.711
  992SOL    HW1 3966   3.308   3.281   4.772
  992SOL    HW2 3967   3.287   3.131   4.767
  992SOL     MW 3968   3.299   3.208   4.726
  993SOL     OW 3969   2.873   2.388   3.747
  993SOL    HW1 3970   2.915   2.424   3.825
  993SOL    HW2 3971   2.908   2.299   3.740
  993SOL     MW 3972   2.883   2.381   3.756
  994SOL     OW 3973   2.142   1.498   4.575
  994SOL    HW1 3974   2.105   1.581   4.606
  994SOL    HW2 3975   2.068   1.437   4.577
  994SOL     MW 3976   2.128   1.501   4.579
  995SOL     OW 3977   3.355   2.353   1.817
  995SOL    HW1 3978   3.286   2.289   1.800
  995SOL    HW2 3979   3.353   2.412   1.742
  995SOL     MW 3980   3.346   2.352   1.806
  996SOL     OW 3981   4.408   1.026   0.517
  996SOL    HW1 3982   4.427   0.973   0.595
  996SOL    HW2 3983   4.449   1.111   0.535
  996SOL     MW 3984   4.416   1.030   0.530
  997SOL     OW 3985   1.765   5.316   5.423
  997SOL    HW1 3986   1.697   5.250   5.405
  997SOL    HW2 3987   1.745   5.387   5.362
  997SOL     MW 3988   1.753   5.317   5.412
  998SOL     OW 3989   0.921   0.026   3.880
  998SOL    HW1 3990   0.940  -0.061   3.845
  998SOL    HW2 3991   0.986   0.083   3.840
  998SOL     MW 3992   0.931   0.022   3.871
  999SOL     OW 3993   2.232   2.484   3.885
  999SOL    HW1 3994   2.142   2.516   3.883
  999SOL    HW2 3995   2.225   2.396   3.921
  999SOL     MW 3996   2.220   2.476   3.889
 1000SOL     OW 3997   3.287   0.513   1.953
 1000SOL    HW1 3998   3.325   0.438   1.997
 1000SOL    HW2 3999   3.347   0.532   1.881
 1000SOL     MW 4000   3.299   0.506   1.950
 1001SOL     OW 4001   2.145   3.972   0.511
 1001SOL    HW1 4002   2.183   3.978   0.424
 1001SOL    HW2 4003   2.060   4.016   0.504
 1001SOL     MW 4004   2.139   3.978   0.499
 1002SOL     OW 4005   2.471   4.466   1.910
 1002SOL    HW1 4006   2.487   4.531   1.979
 1002SOL    HW2 4007   2.419   4.513   1.844
 1002SOL     MW 4008   2.466   4.480   1.910
 1003SOL     OW 4009   0.239   0.869   1.289
 1003SOL    HW1 4010   0.249   0.787   1.339
 1003SOL    HW2 4011   0.323   0.914   1.301
 1003SOL     MW 4012   0.251   0.864   1.297
 1004SOL     OW 4013   1.304   4.204   4.515
 1004SOL    HW1 4014   1.397   4.224   4.520
 1004SOL    HW2 4015   1.266   4.278   4.467
 1004SOL     MW 4016   1.311   4.216   4.509
 1005SOL     OW 4017   3.745   4.141   4.579
 1005SOL    HW1 4018   3.715   4.231   4.577
 1005SOL    HW2 4019   3.826   4.144   4.630
 1005SOL     MW 4020   3.752   4.153   4.585
 1006SOL     OW 4021   0.445   2.143   2.979
 1006SOL    HW1 4022   0.465   2.148   2.886
 1006SOL    HW2 4023   0.399   2.060   2.990
 1006SOL     MW 4024   0.441   2.133   2.969
 1007SOL     OW 4025   2.406   0.558   4.844
 1007SOL    HW1 4026   2.322   0.539   4.885
 1007SOL    HW2 4027   2.452   0.613   4.907
 1007SOL     MW 4028   2.401   0.562   4.857
 1008SOL     OW 4029   1.529   4.514   3.160
 1008SOL    HW1 4030   1.435   4.502   3.145
 1008SOL    HW2 4031   1.571   4.473   3.084
 1008SOL     MW 4032   1.522   4.507   3.148
 1009SOL     OW 4033   4.780   4.004   1.222
 1009SOL    HW1 4034   4.690   3.975   1.209
 1009SOL    HW2 4035   4.772   4.092   1.258
 1009SOL     MW 4036   4.767   4.011   1.225
 1010SOL     OW 4037   4.226   3.183   3.169
 1010SOL    HW1 4038   4.142   3.223   3.193
 1010SOL    HW2 4039   4.222   3.176   3.074
 1010SOL     MW 4040   4.214   3.188   3.160
 1011SOL     OW 4041   0.879   0.204   2.618
 1011SOL    HW1 4042   0.887   0.110   2.634
 1011SOL    HW2 4043   0.790   0.226   2.645
 1011SOL     MW 4044   0.869   0.195   2.624
 1012SOL     OW 4045   0.243   4.676   4.116
 1012SOL    HW1 4046   0.235   4.716   4.203
 1012SOL    HW2 4047   0.332   4.639   4.115
 1012SOL     MW 4048   0.254   4.676   4.127
 1013SOL     OW 4049   5.424   2.928   3.397
 1013SOL    HW1 4050   5.355   2.934   3.331
 1013SOL    HW2 4051   5.397   2.989   3.465
 1013SOL     MW 4052   5.412   2.936   3.397
 1014SOL     OW 4053   4.763   0.630   0.617
 1014SOL    HW1 4054   4.791   0.573   0.545
 1014SOL    HW2 4055   4.834   0.694   0.626
 1014SOL     MW 4056   4.776   0.631   0.609
 1015SOL     OW 4057   4.567   0.067   4.843
 1015SOL    HW1 4058   4.544   0.145   4.893
 1015SOL    HW2 4059   4.559   0.093   4.751
 1015SOL     MW 4060   4.563   0.080   4.837
 1016SOL     OW 4061   4.209   0.827   0.236
 1016SOL    HW1 4062   4.301   0.854   0.238
 1016SOL    HW2 4063   4.212   0.731   0.240
 1016SOL     MW 4064   4.221   0.818   0.237
 1017SOL     OW 4065   0.967   4.890   1.603
 1017SOL    HW1 4066   0.944   4.804   1.567
 1017SOL    HW2 4067   1.059   4.881   1.629
 1017SOL     MW 4068   0.976   4.878   1.602
 1018SOL     OW 4069   2.070   0.493   1.103
 1018SOL    HW1 4070   2.085   0.404   1.070
 1018SOL    HW2 4071   2.060   0.546   1.024
 1018SOL     MW 4072   2.071   0.488   1.089
 1019SOL     OW 4073   1.930   4.807   5.463
 1019SOL    HW1 4074   1.877   4.841   5.392
 1019SOL    HW2 4075   1.916   4.868   5.536
 1019SOL     MW 4076   1.922   4.819   5.463
 1020SOL     OW 4077   2.932   1.409   4.196
 1020SOL    HW1 4078   2.870   1.400   4.268
 1020SOL    HW2 4079   2.884   1.457   4.129
 1020SOL     MW 4080   2.918   1.414   4.196
 1021SOL     OW 4081   2.779   2.738   1.231
 1021SOL    HW1 4082   2.811   2.659   1.189
 1021SOL    HW2 4083   2.784   2.805   1.164
 1021SOL     MW 4084   2.784   2.736   1.217
 1022SOL     OW 4085   0.577   2.860   0.154
 1022SOL    HW1 4086   0.600   2.946   0.189
 1022SOL    HW2 4087   0.637   2.848   0.080
 1022SOL     MW 4088   0.588   2.870   0.149
 1023SOL     OW 4089   3.564   2.790   2.237
 1023SOL    HW1 4090   3.555   2.793   2.142
 1023SOL    HW2 4091   3.623   2.717   2.254
 1023SOL     MW 4092   3.570   2.781   2.227
 1024SOL     OW 4093   1.749   4.468   2.516
 1024SOL    HW1 4094   1.777   4.401   2.454
 1024SOL    HW2 4095   1.830   4.501   2.554
 1024SOL     MW 4096   1.763   4.464   2.513
 1025SOL     OW 4097   3.252   3.968   3.415
 1025SOL    HW1 4098   3.266   3.884   3.458
 1025SOL    HW2 4099   3.158   3.984   3.422
 1025SOL     MW 4100   3.242   3.960   3.421
 1026SOL     OW 4101   1.927   2.578   3.035
 1026SOL    HW1 4102   1.845   2.594   2.988
 1026SOL    HW2 4103   1.908   2.602   3.126
 1026SOL     MW 4104   1.914   2.583   3.041
 1027SOL     OW 4105   5.257   3.278   5.209
 1027SOL    HW1 4106   5.234   3.206   5.150
 1027SOL    HW2 4107   5.210   3.354   5.175
 1027SOL     MW 4108   5.248   3.278   5.197
 1028SOL     OW 4109   3.719   0.521   3.215
 1028SOL    HW1 4110   3.749   0.597   3.165
 1028SOL    HW2 4111   3.623   0.531   3.218
 1028SOL     MW 4112   3.710   0.532   3.209
 1029SOL     OW 4113   2.657   3.722   4.500
 1029SOL    HW1 4114   2.637   3.687   4.586
 1029SOL    HW2 4115   2.628   3.813   4.503
 1029SOL     MW 4116   2.651   3.729   4.511
 1030SOL     OW 4117   4.240   1.507   4.716
 1030SOL    HW1 4118   4.277   1.419   4.715
 1030SOL    HW2 4119   4.245   1.534   4.808
 1030SOL     MW 4120   4.245   1.499   4.728
 1031SOL     OW 4121   5.358   2.461   0.098
 1031SOL    HW1 4122   5.375   2.389   0.158
 1031SOL    HW2 4123   5.423   2.527   0.120
 1031SOL     MW 4124   5.368   2.460   0.109
 1032SOL     OW 4125   4.186   4.761   1.634
 1032SOL    HW1 4126   4.106   4.774   1.583
 1032SOL    HW2 4127   4.248   4.722   1.573
 1032SOL     MW 4128   4.183   4.758   1.620
 1033SOL     OW 4129   2.275   1.064   4.490
 1033SOL    HW1 4130   2.202   1.057   4.428
 1033SOL    HW2 4131   2.332   0.990   4.469
 1033SOL     MW 4132   2.273   1.054   4.479
 1034SOL     OW 4133   3.556   0.258   1.435
 1034SOL    HW1 4134   3.553   0.171   1.395
 1034SOL    HW2 4135   3.532   0.318   1.365
 1034SOL     MW 4136   3.552   0.254   1.421
 1035SOL     OW 4137   0.511   4.199   5.238
 1035SOL    HW1 4138   0.463   4.117   5.223
 1035SOL    HW2 4139   0.593   4.171   5.280
 1035SOL     MW 4140   0.515   4.185   5.241
 1036SOL     OW 4141   3.722   0.460   1.782
 1036SOL    HW1 4142   3.792   0.486   1.841
 1036SOL    HW2 4143   3.714   0.365   1.793
 1036SOL     MW 4144   3.730   0.451   1.791
 1037SOL     OW 4145   4.146   4.529   1.775
 1037SOL    HW1 4146   4.160   4.614   1.734
 1037SOL    HW2 4147   4.062   4.499   1.740
 1037SOL     MW 4148   4.137   4.536   1.765
 1038SOL     OW 4149   2.474  -0.003   1.241
 1038SOL    HW1 4150   2.433   0.076   1.206
 1038SOL    HW2 4151   2.471   0.009   1.336
 1038SOL     MW 4152   2.468   0.009   1.249
 1039SOL     OW 4153   4.776   3.125   4.314
 1039SOL    HW1 4154   4.817   3.054   4.363
 1039SOL    HW2 4155   4.846   3.189   4.301
 1039SOL     MW 4156   4.790   3.124   4.318
 1040SOL     OW 4157   4.435   2.042   3.580
 1040SOL    HW1 4158   4.513   2.085   3.545
 1040SOL    HW2 4159   4.401   1.992   3.506
 1040SOL     MW 4160   4.441   2.041   3.566
 1041SOL     OW 4161   4.626   1.263   3.706
 1041SOL    HW1 4162   4.634   1.221   3.792
 1041SOL    HW2 4163   4.539   1.301   3.706
 1041SOL     MW 4164   4.616   1.263   3.717
 1042SOL     OW 4165   2.627   0.053   2.284
 1042SOL    HW1 4166   2.626   0.086   2.374
 1042SOL    HW2 4167   2.620  -0.042   2.293
 1042SOL     MW 4168   2.626   0.045   2.297
 1043SOL     OW 4169   2.268   4.180   5.437
 1043SOL    HW1 4170   2.283   4.265   5.397
 1043SOL    HW2 4171   2.199   4.196   5.502
 1043SOL     MW 4172   2.261   4.193   5.440
 1044SOL     OW 4173   3.391   2.991   2.930
 1044SOL    HW1 4174   3.337   3.048   2.985
 1044SOL    HW2 4175   3.332   2.919   2.907
 1044SOL     MW 4176   3.376   2.989   2.934
 1045SOL     OW 4177   2.996   1.877   1.238
 1045SOL    HW1 4178   2.980   1.955   1.185
 1045SOL    HW2 4179   2.914   1.861   1.284
 1045SOL     MW 4180   2.984   1.885   1.238
 1046SOL     OW 4181   4.390   3.494   4.084
 1046SOL    HW1 4182   4.484   3.496   4.065
 1046SOL    HW2 4183   4.373   3.404   4.111
 1046SOL     MW 4184   4.400   3.483   4.085
 1047SOL     OW 4185   4.189   5.353   2.146
 1047SOL    HW1 4186   4.126   5.400   2.201
 1047SOL    HW2 4187   4.142   5.336   2.065
 1047SOL     MW 4188   4.175   5.357   2.143
 1048SOL     OW 4189   0.155   3.362   2.005
 1048SOL    HW1 4190   0.250   3.356   2.013
 1048SOL    HW2 4191   0.129   3.422   2.075
 1048SOL     MW 4192   0.164   3.369   2.015
 1049SOL     OW 4193   3.694   1.085   3.695
 1049SOL    HW1 4194   3.780   1.125   3.690
 1049SOL    HW2 4195   3.698   1.012   3.633
 1049SOL     MW 4196   3.705   1.081   3.687
 1050SOL     OW 4197   2.876   4.265   0.228
 1050SOL    HW1 4198   2.868   4.313   0.310
 1050SOL    HW2 4199   2.916   4.327   0.168
 1050SOL     MW 4200   2.880   4.279   0.231
 1051SOL     OW 4201   4.073   0.041   4.223
 1051SOL    HW1 4202   4.022   0.115   4.256
 1051SOL    HW2 4203   4.013  -0.034   4.229
 1051SOL     MW 4204   4.059   0.041   4.228
 1052SOL     OW 4205   1.572   0.070   2.797
 1052SOL    HW1 4206   1.583   0.160   2.766
 1052SOL    HW2 4207   1.557   0.018   2.717
 1052SOL     MW 4208   1.571   0.075   2.783
 1053SOL     OW 4209   1.379   5.398   0.938
 1053SOL    HW1 4210   1.394   5.333   0.870
 1053SOL    HW2 4211   1.284   5.404   0.946
 1053SOL     MW 4212   1.368   5.391   0.931
 1054SOL     OW 4213   0.398   2.491   5.114
 1054SOL    HW1 4214   0.396   2.576   5.070
 1054SOL    HW2 4215   0.364   2.430   5.049
 1054SOL     MW 4216   0.394   2.494   5.100
 1055SOL     OW 4217   1.828   3.080   1.892
 1055SOL    HW1 4218   1.848   3.096   1.984
 1055SOL    HW2 4219   1.801   3.165   1.858
 1055SOL     MW 4220   1.827   3.093   1.899
 1056SOL     OW 4221   4.851   2.845   3.605
 1056SOL    HW1 4222   4.766   2.832   3.646
 1056SOL    HW2 4223   4.871   2.763   3.561
 1056SOL     MW 4224   4.843   2.833   3.605
 1057SOL     OW 4225   3.819   1.488   1.441
 1057SOL    HW1 4226   3.836   1.407   1.392
 1057SOL    HW2 4227   3.775   1.545   1.377
 1057SOL     MW 4228   3.815   1.485   1.426
 1058SOL     OW 4229   1.679   5.391   1.630
 1058SOL    HW1 4230   1.640   5.474   1.656
 1058SOL    HW2 4231   1.610   5.345   1.582
 1058SOL     MW 4232   1.665   5.396   1.627
 1059SOL     OW 4233   2.468   1.451   2.223
 1059SOL    HW1 4234   2.407   1.404   2.280
 1059SOL    HW2 4235   2.456   1.543   2.247
 1059SOL     MW 4236   2.459   1.457   2.234
 1060SOL     OW 4237   0.389   0.506   1.791
 1060SOL    HW1 4238   0.398   0.431   1.850
 1060SOL    HW2 4239   0.356   0.468   1.709
 1060SOL     MW 4240   0.386   0.491   1.788
 1061SOL     OW 4241   1.864   5.230   0.193
 1061SOL    HW1 4242   1.825   5.267   0.113
 1061SOL    HW2 4243   1.804   5.256   0.263
 1061SOL     MW 4244   1.851   5.238   0.191
 1062SOL     OW 4245   3.731   2.075   3.509
 1062SOL    HW1 4246   3.702   2.012   3.443
 1062SOL    HW2 4247   3.778   2.023   3.574
 1062SOL     MW 4248   3.733   2.061   3.509
 1063SOL     OW 4249   0.666   3.155   3.067
 1063SOL    HW1 4250   0.692   3.071   3.029
 1063SOL    HW2 4251   0.604   3.133   3.135
 1063SOL     MW 4252   0.662   3.142   3.071
 1064SOL     OW 4253   4.823   3.237   5.187
 1064SOL    HW1 4254   4.864   3.157   5.221
 1064SOL    HW2 4255   4.857   3.306   5.244
 1064SOL     MW 4256   4.833   3.236   5.199
 1065SOL     OW 4257   0.143   0.115   0.430
 1065SOL    HW1 4258   0.148   0.132   0.524
 1065SOL    HW2 4259   0.228   0.144   0.396
 1065SOL     MW 4260   0.155   0.121   0.438
 1066SOL     OW 4261   1.636   5.091   1.295
 1066SOL    HW1 4262   1.688   5.142   1.232
 1066SOL    HW2 4263   1.610   5.156   1.361
 1066SOL     MW 4264   1.639   5.106   1.295
 1067SOL     OW 4265   2.136   0.333   4.344
 1067SOL    HW1 4266   2.209   0.327   4.282
 1067SOL    HW2 4267   2.123   0.427   4.357
 1067SOL     MW 4268   2.144   0.344   4.338
 1068SOL     OW 4269   1.603   0.336   2.754
 1068SOL    HW1 4270   1.673   0.385   2.711
 1068SOL    HW2 4271   1.596   0.373   2.841
 1068SOL     MW 4272   1.611   0.347   2.760
 1069SOL     OW 4273   0.623   3.359   3.784
 1069SOL    HW1 4274   0.678   3.368   3.706
 1069SOL    HW2 4275   0.646   3.273   3.820
 1069SOL     MW 4276   0.633   3.349   3.779
 1070SOL     OW 4277   3.683   1.979   5.357
 1070SOL    HW1 4278   3.701   1.993   5.450
 1070SOL    HW2 4279   3.592   2.008   5.346
 1070SOL     MW 4280   3.673   1.985   5.367
 1071SOL     OW 4281   3.157   2.654   1.744
 1071SOL    HW1 4282   3.179   2.682   1.833
 1071SOL    HW2 4283   3.168   2.733   1.691
 1071SOL     MW 4284   3.161   2.668   1.749
 1072SOL     OW 4285   1.638   5.444   3.980
 1072SOL    HW1 4286   1.670   5.397   4.056
 1072SOL    HW2 4287   1.665   5.535   3.995
 1072SOL     MW 4288   1.646   5.450   3.991
 1073SOL     OW 4289   2.114   0.164   2.287
 1073SOL    HW1 4290   2.204   0.142   2.264
 1073SOL    HW2 4291   2.069   0.080   2.290
 1073SOL     MW 4292   2.120   0.151   2.284
 1074SOL     OW 4293   1.265   3.664   5.500
 1074SOL    HW1 4294   1.266   3.662   5.404
 1074SOL    HW2 4295   1.214   3.586   5.525
 1074SOL     MW 4296   1.259   3.653   5.491
 1075SOL     OW 4297   0.407   0.160   5.029
 1075SOL    HW1 4298   0.394   0.074   4.991
 1075SOL    HW2 4299   0.335   0.171   5.091
 1075SOL     MW 4300   0.396   0.150   5.032
 1076SOL     OW 4301   0.336   0.021   0.820
 1076SOL    HW1 4302   0.282  -0.048   0.858
 1076SOL    HW2 4303   0.409   0.031   0.881
 1076SOL     MW 4304   0.338   0.014   0.833
 1077SOL     OW 4305   1.010   3.122   2.285
 1077SOL    HW1 4306   1.013   3.193   2.349
 1077SOL    HW2 4307   1.101   3.109   2.259
 1077SOL     MW 4308   1.022   3.129   2.290
 1078SOL     OW 4309   1.431   2.070   3.581
 1078SOL    HW1 4310   1.450   1.986   3.539
 1078SOL    HW2 4311   1.503   2.083   3.643
 1078SOL     MW 4312   1.443   2.061   3.583
 1079SOL     OW 4313   0.268   0.743   2.474
 1079SOL    HW1 4314   0.247   0.807   2.406
 1079SOL    HW2 4315   0.197   0.750   2.537
 1079SOL     MW 4316   0.256   0.752   2.473
 1080SOL     OW 4317   4.312   4.911   5.063
 1080SOL    HW1 4318   4.334   5.004   5.057
 1080SOL    HW2 4319   4.381   4.867   5.013
 1080SOL     MW 4320   4.324   4.917   5.056
 1081SOL     OW 4321   4.935   0.828   2.755
 1081SOL    HW1 4322   4.896   0.741   2.745
 1081SOL    HW2 4323   5.028   0.815   2.737
 1081SOL     MW 4324   4.942   0.815   2.752
 1082SOL     OW 4325   1.952   3.667   1.192
 1082SOL    HW1 4326   1.975   3.750   1.151
 1082SOL    HW2 4327   1.892   3.625   1.130
 1082SOL     MW 4328   1.947   3.672   1.179
 1083SOL     OW 4329   3.925   1.001   2.470
 1083SOL    HW1 4330   3.862   1.060   2.511
 1083SOL    HW2 4331   3.950   1.045   2.389
 1083SOL     MW 4332   3.920   1.014   2.465
 1084SOL     OW 4333   1.341   2.310   2.985
 1084SOL    HW1 4334   1.328   2.216   2.980
 1084SOL    HW2 4335   1.387   2.324   3.068
 1084SOL     MW 4336   1.345   2.300   2.995
 1085SOL     OW 4337   0.107   3.833   0.019
 1085SOL    HW1 4338   0.113   3.753   0.070
 1085SOL    HW2 4339   0.191   3.877   0.031
 1085SOL     MW 4340   0.118   3.829   0.027
 1086SOL     OW 4341   2.332   2.078   0.103
 1086SOL    HW1 4342   2.303   2.066   0.194
 1086SOL    HW2 4343   2.347   2.172   0.095
 1086SOL     MW 4344   2.330   2.089   0.114
 1087SOL     OW 4345   2.140   1.964   4.635
 1087SOL    HW1 4346   2.126   2.045   4.587
 1087SOL    HW2 4347   2.198   1.912   4.580
 1087SOL     MW 4348   2.146   1.968   4.622
 1088SOL     OW 4349   1.209   1.613   0.424
 1088SOL    HW1 4350   1.209   1.583   0.334
 1088SOL    HW2 4351   1.286   1.572   0.464
 1088SOL     MW 4352   1.219   1.604   0.418
 1089SOL     OW 4353   0.973   2.742   5.191
 1089SOL    HW1 4354   1.047   2.730   5.250
 1089SOL    HW2 4355   1.011   2.779   5.111
 1089SOL     MW 4356   0.987   2.745   5.188
 1090SOL     OW 4357   2.336   2.847   1.009
 1090SOL    HW1 4358   2.364   2.795   1.084
 1090SOL    HW2 4359   2.258   2.893   1.039
 1090SOL     MW 4360   2.330   2.846   1.022
 1091SOL     OW 4361   3.545   4.276   4.238
 1091SOL    HW1 4362   3.477   4.253   4.175
 1091SOL    HW2 4363   3.626   4.240   4.200
 1091SOL     MW 4364   3.547   4.268   4.225
 1092SOL     OW 4365   4.586   3.498   4.549
 1092SOL    HW1 4366   4.646   3.423   4.544
 1092SOL    HW2 4367   4.508   3.463   4.592
 1092SOL     MW 4368   4.584   3.484   4.554
 1093SOL     OW 4369   3.799   1.756   5.244
 1093SOL    HW1 4370   3.795   1.702   5.323
 1093SOL    HW2 4371   3.747   1.833   5.265
 1093SOL     MW 4372   3.792   1.759   5.257
 1094SOL     OW 4373   5.483   0.430   4.199
 1094SOL    HW1 4374   5.405   0.462   4.245
 1094SOL    HW2 4375   5.489   0.485   4.121
 1094SOL     MW 4376   5.474   0.441   4.195
 1095SOL     OW 4377   0.553   3.733   2.293
 1095SOL    HW1 4378   0.538   3.649   2.337
 1095SOL    HW2 4379   0.647   3.735   2.276
 1095SOL     MW 4380   0.563   3.722   2.297
 1096SOL     OW 4381   1.210   4.031   1.337
 1096SOL    HW1 4382   1.179   3.945   1.308
 1096SOL    HW2 4383   1.166   4.093   1.279
 1096SOL     MW 4384   1.201   4.028   1.326
 1097SOL     OW 4385   0.156   5.313   0.895
 1097SOL    HW1 4386   0.063   5.309   0.915
 1097SOL    HW2 4387   0.170   5.243   0.831
 1097SOL     MW 4388   0.146   5.303   0.889
 1098SOL     OW 4389   0.713   5.133   1.256
 1098SOL    HW1 4390   0.749   5.130   1.345
 1098SOL    HW2 4391   0.759   5.063   1.209
 1098SOL     MW 4392   0.724   5.124   1.261
 1099SOL     OW 4393   3.773   2.864   1.820
 1099SOL    HW1 4394   3.696   2.847   1.874
 1099SOL    HW2 4395   3.846   2.865   1.882
 1099SOL     MW 4396   3.772   2.862   1.835
 1100SOL     OW 4397   2.521   4.726   3.348
 1100SOL    HW1 4398   2.556   4.641   3.375
 1100SOL    HW2 4399   2.542   4.785   3.420
 1100SOL     MW 4400   2.528   4.723   3.361
 1101SOL     OW 4401   2.798   1.282   3.867
 1101SOL    HW1 4402   2.760   1.362   3.831
 1101SOL    HW2 4403   2.891   1.302   3.877
 1101SOL     MW 4404   2.805   1.295   3.864
 1102SOL     OW 4405   0.318   4.051   3.982
 1102SOL    HW1 4406   0.230   4.087   3.995
 1102SOL    HW2 4407   0.308   3.957   3.995
 1102SOL     MW 4408   0.306   4.044   3.985
 1103SOL     OW 4409   1.923   2.875   5.375
 1103SOL    HW1 4410   1.843   2.917   5.408
 1103SOL    HW2 4411   1.993   2.934   5.403
 1103SOL     MW 4412   1.922   2.888   5.383
 1104SOL     OW 4413   3.582   3.811   1.332
 1104SOL    HW1 4414   3.616   3.752   1.265
 1104SOL    HW2 4415   3.510   3.763   1.372
 1104SOL     MW 4416   3.577   3.798   1.328
 1105SOL     OW 4417   2.634   0.245   4.114
 1105SOL    HW1 4418   2.607   0.238   4.023
 1105SOL    HW2 4419   2.656   0.155   4.139
 1105SOL     MW 4420   2.634   0.232   4.106
 1106SOL     OW 4421   0.763   2.595   1.060
 1106SOL    HW1 4422   0.795   2.680   1.092
 1106SOL    HW2 4423   0.768   2.537   1.136
 1106SOL     MW 4424   0.768   2.599   1.074
 1107SOL     OW 4425   0.660   3.713   3.014
 1107SOL    HW1 4426   0.702   3.695   2.930
 1107SOL    HW2 4427   0.614   3.632   3.036
 1107SOL     MW 4428   0.660   3.701   3.006
 1108SOL     OW 4429   1.574   4.275   4.557
 1108SOL    HW1 4430   1.625   4.221   4.497
 1108SOL    HW2 4431   1.577   4.362   4.519
 1108SOL     MW 4432   1.581   4.279   4.544
 1109SOL     OW 4433   5.360   2.735   0.346
 1109SOL    HW1 4434   5.409   2.785   0.412
 1109SOL    HW2 4435   5.423   2.717   0.277
 1109SOL     MW 4436   5.374   2.739   0.346
 1110SOL     OW 4437   1.608   2.860   2.088
 1110SOL    HW1 4438   1.521   2.860   2.128
 1110SOL    HW2 4439   1.595   2.903   2.003
 1110SOL     MW 4440   1.595   2.866   2.082
 1111SOL     OW 4441   4.932   1.089   2.442
 1111SOL    HW1 4442   4.959   1.100   2.350
 1111SOL    HW2 4443   4.895   1.001   2.446
 1111SOL     MW 4444   4.931   1.079   2.431
 1112SOL     OW 4445   1.000   3.349   0.740
 1112SOL    HW1 4446   0.912   3.380   0.760
 1112SOL    HW2 4447   1.032   3.312   0.821
 1112SOL     MW 4448   0.993   3.349   0.753
 1113SOL     OW 4449   4.721   2.106   1.406
 1113SOL    HW1 4450   4.647   2.046   1.414
 1113SOL    HW2 4451   4.791   2.054   1.368
 1113SOL     MW 4452   4.720   2.092   1.402
 1114SOL     OW 4453   4.106   3.370   0.261
 1114SOL    HW1 4454   4.195   3.335   0.270
 1114SOL    HW2 4455   4.071   3.369   0.350
 1114SOL     MW 4456   4.113   3.365   0.273
 1115SOL     OW 4457   0.074   1.393   2.775
 1115SOL    HW1 4458   0.071   1.322   2.711
 1115SOL    HW2 4459  -0.017   1.402   2.804
 1115SOL     MW 4460   0.062   1.385   2.770
 1116SOL     OW 4461   0.602   2.393   4.564
 1116SOL    HW1 4462   0.577   2.473   4.610
 1116SOL    HW2 4463   0.616   2.420   4.473
 1116SOL     MW 4464   0.600   2.407   4.558
 1117SOL     OW 4465   5.330   5.248   3.917
 1117SOL    HW1 4466   5.242   5.219   3.893
 1117SOL    HW2 4467   5.329   5.342   3.901
 1117SOL     MW 4468   5.319   5.256   3.912
 1118SOL     OW 4469   1.359   5.067   2.885
 1118SOL    HW1 4470   1.299   5.002   2.921
 1118SOL    HW2 4471   1.306   5.146   2.874
 1118SOL     MW 4472   1.344   5.069   2.888
 1119SOL     OW 4473   0.204   2.895   3.470
 1119SOL    HW1 4474   0.116   2.916   3.440
 1119SOL    HW2 4475   0.239   2.836   3.404
 1119SOL     MW 4476   0.197   2.890   3.458
 1120SOL     OW 4477   5.004   3.186   0.207
 1120SOL    HW1 4478   4.978   3.102   0.169
 1120SOL    HW2 4479   5.068   3.221   0.145
 1120SOL     MW 4480   5.009   3.179   0.194
 1121SOL     OW 4481   5.350   4.157   3.651
 1121SOL    HW1 4482   5.407   4.232   3.672
 1121SOL    HW2 4483   5.287   4.192   3.589
 1121SOL     MW 4484   5.350   4.171   3.646
 1122SOL     OW 4485   4.007   0.758   2.345
 1122SOL    HW1 4486   3.992   0.682   2.402
 1122SOL    HW2 4487   3.994   0.833   2.402
 1122SOL     MW 4488   4.003   0.758   2.360
 1123SOL     OW 4489   3.361   4.357   3.588
 1123SOL    HW1 4490   3.363   4.290   3.657
 1123SOL    HW2 4491   3.352   4.307   3.507
 1123SOL     MW 4492   3.360   4.342   3.586
 1124SOL     OW 4493   4.867   4.277   2.670
 1124SOL    HW1 4494   4.821   4.361   2.661
 1124SOL    HW2 4495   4.859   4.255   2.763
 1124SOL     MW 4496   4.860   4.285   2.681
 1125SOL     OW 4497   1.334   2.690   2.940
 1125SOL    HW1 4498   1.354   2.783   2.935
 1125SOL    HW2 4499   1.244   2.687   2.973
 1125SOL     MW 4500   1.325   2.701   2.944
 1126SOL     OW 4501   4.988   0.503   2.933
 1126SOL    HW1 4502   4.953   0.525   2.846
 1126SOL    HW2 4503   4.922   0.536   2.994
 1126SOL     MW 4504   4.975   0.510   2.929
 1127SOL     OW 4505   2.967   2.768   4.342
 1127SOL    HW1 4506   2.972   2.679   4.307
 1127SOL    HW2 4507   3.019   2.766   4.422
 1127SOL     MW 4508   2.974   2.756   4.348
 1128SOL     OW 4509   3.829   1.977   2.632
 1128SOL    HW1 4510   3.767   1.912   2.598
 1128SOL    HW2 4511   3.823   1.967   2.728
 1128SOL     MW 4512   3.820   1.967   2.640
 1129SOL     OW 4513   3.471   4.023   1.568
 1129SOL    HW1 4514   3.407   4.067   1.512
 1129SOL    HW2 4515   3.421   3.999   1.646
 1129SOL     MW 4516   3.456   4.026   1.571
 1130SOL     OW 4517   4.132   0.288   0.040
 1130SOL    HW1 4518   4.196   0.282   0.110
 1130SOL    HW2 4519   4.054   0.324   0.082
 1130SOL     MW 4520   4.130   0.292   0.054
 1131SOL     OW 4521   1.805   0.416   0.246
 1131SOL    HW1 4522   1.731   0.476   0.241
 1131SOL    HW2 4523   1.874   0.457   0.194
 1131SOL     MW 4524   1.804   0.429   0.239
 1132SOL     OW 4525   5.267   0.442   2.230
 1132SOL    HW1 4526   5.328   0.380   2.190
 1132SOL    HW2 4527   5.182   0.422   2.189
 1132SOL     MW 4528   5.264   0.431   2.220
 1133SOL     OW 4529   3.150   3.871   2.399
 1133SOL    HW1 4530   3.201   3.796   2.429
 1133SOL    HW2 4531   3.203   3.947   2.423
 1133SOL     MW 4532   3.163   3.871   2.406
 1134SOL     OW 4533   4.493   4.113   1.768
 1134SOL    HW1 4534   4.565   4.156   1.722
 1134SOL    HW2 4535   4.427   4.181   1.779
 1134SOL     MW 4536   4.494   4.127   1.764
 1135SOL     OW 4537   1.423   2.962   5.472
 1135SOL    HW1 4538   1.396   3.040   5.521
 1135SOL    HW2 4539   1.388   2.976   5.384
 1135SOL     MW 4540   1.415   2.974   5.467
 1136SOL     OW 4541   2.967   4.586   1.681
 1136SOL    HW1 4542   2.926   4.508   1.719
 1136SOL    HW2 4543   3.008   4.630   1.756
 1136SOL     MW 4544   2.967   4.582   1.696
 1137SOL     OW 4545   0.989   5.432   1.236
 1137SOL    HW1 4546   1.063   5.475   1.278
 1137SOL    HW2 4547   0.999   5.339   1.256
 1137SOL     MW 4548   0.999   5.426   1.244
 1138SOL     OW 4549   1.389   4.777   3.610
 1138SOL    HW1 4550   1.375   4.686   3.583
 1138SOL    HW2 4551   1.483   4.783   3.625
 1138SOL     MW 4552   1.399   4.766   3.608
 1139SOL     OW 4553   2.271   2.948   2.355
 1139SOL    HW1 4554   2.259   2.968   2.448
 1139SOL    HW2 4555   2.328   3.018   2.322
 1139SOL     MW 4556   2.277   2.959   2.362
 1140SOL     OW 4557   1.293   4.345   2.176
 1140SOL    HW1 4558   1.246   4.359   2.259
 1140SOL    HW2 4559   1.283   4.251   2.159
 1140SOL     MW 4560   1.286   4.335   2.185
 1141SOL     OW 4561   3.337   0.438   1.146
 1141SOL    HW1 4562   3.403   0.495   1.185
 1141SOL    HW2 4563   3.387   0.384   1.084
 1141SOL     MW 4564   3.352   0.438   1.143
 1142SOL     OW 4565   5.227   1.218   4.492
 1142SOL    HW1 4566   5.263   1.302   4.467
 1142SOL    HW2 4567   5.145   1.239   4.536
 1142SOL     MW 4568   5.221   1.231   4.494
 1143SOL     OW 4569   1.385   0.245   0.344
 1143SOL    HW1 4570   1.415   0.228   0.255
 1143SOL    HW2 4571   1.351   0.161   0.375
 1143SOL     MW 4572   1.384   0.232   0.337
 1144SOL     OW 4573   2.614   3.895   3.345
 1144SOL    HW1 4574   2.564   3.920   3.423
 1144SOL    HW2 4575   2.691   3.849   3.380
 1144SOL     MW 4576   2.618   3.892   3.360
 1145SOL     OW 4577   2.232   1.020   5.403
 1145SOL    HW1 4578   2.269   1.084   5.343
 1145SOL    HW2 4579   2.143   1.050   5.420
 1145SOL     MW 4580   2.225   1.032   5.398
 1146SOL     OW 4581   0.127   5.336   2.444
 1146SOL    HW1 4582   0.100   5.424   2.471
 1146SOL    HW2 4583   0.067   5.314   2.373
 1146SOL     MW 4584   0.116   5.345   2.438
 1147SOL     OW 4585   5.179   3.250   0.955
 1147SOL    HW1 4586   5.188   3.324   1.014
 1147SOL    HW2 4587   5.091   3.258   0.918
 1147SOL     MW 4588   5.169   3.260   0.958
 1148SOL     OW 4589   3.017   3.178   3.487
 1148SOL    HW1 4590   3.001   3.166   3.580
 1148SOL    HW2 4591   3.017   3.088   3.452
 1148SOL     MW 4592   3.015   3.165   3.494
 1149SOL     OW 4593   1.743   3.637   5.108
 1149SOL    HW1 4594   1.746   3.730   5.127
 1149SOL    HW2 4595   1.823   3.602   5.148
 1149SOL     MW 4596   1.754   3.644   5.116
 1150SOL     OW 4597   2.115   0.739   2.211
 1150SOL    HW1 4598   2.203   0.737   2.174
 1150SOL    HW2 4599   2.118   0.677   2.284
 1150SOL     MW 4600   2.126   0.731   2.216
 1151SOL     OW 4601   4.774   1.342   3.206
 1151SOL    HW1 4602   4.789   1.323   3.298
 1151SOL    HW2 4603   4.778   1.257   3.162
 1151SOL     MW 4604   4.776   1.329   3.212
 1152SOL     OW 4605   0.849   1.738   4.766
 1152SOL    HW1 4606   0.902   1.818   4.762
 1152SOL    HW2 4607   0.839   1.720   4.859
 1152SOL     MW 4608   0.855   1.746   4.777
 1153SOL     OW 4609   1.264   3.631   1.026
 1153SOL    HW1 4610   1.350   3.672   1.015
 1153SOL    HW2 4611   1.245   3.592   0.941
 1153SOL     MW 4612   1.273   3.631   1.014
 1154SOL     OW 4613   4.832   4.731   0.465
 1154SOL    HW1 4614   4.868   4.708   0.550
 1154SOL    HW2 4615   4.799   4.820   0.476
 1154SOL     MW 4616   4.833   4.739   0.477
 1155SOL     OW 4617   5.324   1.820   2.625
 1155SOL    HW1 4618   5.282   1.887   2.571
 1155SOL    HW2 4619   5.363   1.759   2.562
 1155SOL     MW 4620   5.324   1.821   2.610
 1156SOL     OW 4621   1.451   0.479   3.504
 1156SOL    HW1 4622   1.483   0.559   3.544
 1156SOL    HW2 4623   1.495   0.408   3.551
 1156SOL     MW 4624   1.461   0.480   3.515
 1157SOL     OW 4625   0.990   1.229   4.985
 1157SOL    HW1 4626   0.973   1.243   4.891
 1157SOL    HW2 4627   0.978   1.315   5.024
 1157SOL     MW 4628   0.986   1.242   4.978
 1158SOL     OW 4629   1.734   3.094   0.793
 1158SOL    HW1 4630   1.755   3.094   0.887
 1158SOL    HW2 4631   1.818   3.078   0.750
 1158SOL     MW 4632   1.748   3.092   0.800
 1159SOL     OW 4633   2.345   0.620   4.315
 1159SOL    HW1 4634   2.389   0.546   4.355
 1159SOL    HW2 4635   2.387   0.630   4.229
 1159SOL     MW 4636   2.356   0.612   4.309
 1160SOL     OW 4637   4.616   3.554   3.231
 1160SOL    HW1 4638   4.541   3.594   3.275
 1160SOL    HW2 4639   4.580   3.516   3.151
 1160SOL     MW 4640   4.602   3.554   3.227
 1161SOL     OW 4641   4.569   4.322   4.191
 1161SOL    HW1 4642   4.618   4.243   4.169
 1161SOL    HW2 4643   4.574   4.376   4.112
 1161SOL     MW 4644   4.576   4.319   4.178
 1162SOL     OW 4645   1.658   0.650   5.226
 1162SOL    HW1 4646   1.624   0.596   5.297
 1162SOL    HW2 4647   1.582   0.699   5.195
 1162SOL     MW 4648   1.644   0.650   5.231
 1163SOL     OW 4649   1.603   1.639   3.827
 1163SOL    HW1 4650   1.690   1.646   3.788
 1163SOL    HW2 4651   1.555   1.582   3.766
 1163SOL     MW 4652   1.608   1.632   3.814
 1164SOL     OW 4653   4.164   3.833   1.632
 1164SOL    HW1 4654   4.106   3.810   1.559
 1164SOL    HW2 4655   4.248   3.851   1.591
 1164SOL     MW 4656   4.168   3.832   1.618
 1165SOL     OW 4657   1.168   4.366   2.414
 1165SOL    HW1 4658   1.219   4.352   2.494
 1165SOL    HW2 4659   1.112   4.289   2.407
 1165SOL     MW 4660   1.167   4.355   2.423
 1166SOL     OW 4661   4.599   2.552   1.144
 1166SOL    HW1 4662   4.672   2.575   1.086
 1166SOL    HW2 4663   4.625   2.470   1.185
 1166SOL     MW 4664   4.612   2.545   1.142
 1167SOL     OW 4665   0.338   2.668   1.079
 1167SOL    HW1 4666   0.349   2.741   1.017
 1167SOL    HW2 4667   0.391   2.598   1.042
 1167SOL     MW 4668   0.346   2.669   1.066
 1168SOL     OW 4669   2.480   3.868   0.842
 1168SOL    HW1 4670   2.410   3.834   0.787
 1168SOL    HW2 4671   2.514   3.791   0.889
 1168SOL     MW 4672   2.475   3.854   0.841
 1169SOL     OW 4673   5.098   0.767   2.301
 1169SOL    HW1 4674   5.149   0.844   2.325
 1169SOL    HW2 4675   5.138   0.735   2.221
 1169SOL     MW 4676   5.109   0.773   2.294
 1170SOL     OW 4677   4.032   4.865   1.116
 1170SOL    HW1 4678   4.044   4.799   1.184
 1170SOL    HW2 4679   4.085   4.940   1.145
 1170SOL     MW 4680   4.041   4.866   1.128
 1171SOL     OW 4681   4.119   0.450   4.925
 1171SOL    HW1 4682   4.042   0.494   4.961
 1171SOL    HW2 4683   4.189   0.515   4.930
 1171SOL     MW 4684   4.118   0.464   4.930
 1172SOL     OW 4685   0.952   5.165   2.059
 1172SOL    HW1 4686   1.013   5.219   2.110
 1172SOL    HW2 4687   0.973   5.185   1.968
 1172SOL     MW 4688   0.962   5.175   2.054
 1173SOL     OW 4689   2.740   0.814   3.060
 1173SOL    HW1 4690   2.648   0.840   3.064
 1173SOL    HW2 4691   2.765   0.801   3.152
 1173SOL     MW 4692   2.731   0.816   3.072
 1174SOL     OW 4693   4.142   2.397   2.369
 1174SOL    HW1 4694   4.047   2.393   2.376
 1174SOL    HW2 4695   4.174   2.379   2.457
 1174SOL     MW 4696   4.134   2.394   2.381
 1175SOL     OW 4697   2.859   3.924   0.831
 1175SOL    HW1 4698   2.854   3.956   0.740
 1175SOL    HW2 4699   2.952   3.933   0.854
 1175SOL     MW 4700   2.870   3.929   0.822
 1176SOL     OW 4701   3.704   2.485   3.650
 1176SOL    HW1 4702   3.719   2.575   3.620
 1176SOL    HW2 4703   3.630   2.493   3.711
 1176SOL     MW 4704   3.696   2.498   3.654
 1177SOL     OW 4705   5.061   1.027   0.901
 1177SOL    HW1 4706   5.059   1.112   0.856
 1177SOL    HW2 4707   5.149   0.993   0.884
 1177SOL     MW 4708   5.072   1.034   0.893
 1178SOL     OW 4709   2.454   4.030   0.088
 1178SOL    HW1 4710   2.395   4.089   0.041
 1178SOL    HW2 4711   2.538   4.075   0.087
 1178SOL     MW 4712   2.457   4.043   0.082
 1179SOL     OW 4713   3.391   4.163   3.779
 1179SOL    HW1 4714   3.480   4.134   3.760
 1179SOL    HW2 4715   3.338   4.084   3.773
 1179SOL     MW 4716   3.395   4.149   3.776
 1180SOL     OW 4717   0.071   5.275   1.583
 1180SOL    HW1 4718   0.036   5.266   1.495
 1180SOL    HW2 4719   0.015   5.340   1.625
 1180SOL     MW 4720   0.060   5.282   1.577
 1181SOL     OW 4721   2.889   3.395   2.325
 1181SOL    HW1 4722   2.945   3.401   2.403
 1181SOL    HW2 4723   2.812   3.347   2.355
 1181SOL     MW 4724   2.886   3.389   2.339
 1182SOL     OW 4725   3.891   3.740   5.026
 1182SOL    HW1 4726   3.832   3.812   5.002
 1182SOL    HW2 4727   3.965   3.783   5.069
 1182SOL     MW 4728   3.893   3.755   5.028
 1183SOL     OW 4729   0.737   2.482   3.091
 1183SOL    HW1 4730   0.654   2.513   3.126
 1183SOL    HW2 4731   0.802   2.508   3.156
 1183SOL     MW 4732   0.735   2.489   3.104
 1184SOL     OW 4733   2.718   0.324   1.247
 1184SOL    HW1 4734   2.775   0.249   1.233
 1184SOL    HW2 4735   2.675   0.306   1.331
 1184SOL     MW 4736   2.720   0.312   1.256
 1185SOL     OW 4737   0.116   1.547   4.449
 1185SOL    HW1 4738   0.087   1.637   4.458
 1185SOL    HW2 4739   0.205   1.554   4.412
 1185SOL     MW 4740   0.124   1.559   4.445
 1186SOL     OW 4741   1.231   1.510   3.101
 1186SOL    HW1 4742   1.196   1.570   3.035
 1186SOL    HW2 4743   1.242   1.427   3.054
 1186SOL     MW 4744   1.228   1.507   3.086
 1187SOL     OW 4745   4.033   4.376   5.338
 1187SOL    HW1 4746   3.983   4.439   5.286
 1187SOL    HW2 4747   4.007   4.392   5.428
 1187SOL     MW 4748   4.023   4.386   5.343
 1188SOL     OW 4749   3.865   3.729   0.134
 1188SOL    HW1 4750   3.777   3.691   0.145
 1188SOL    HW2 4751   3.856   3.790   0.062
 1188SOL     MW 4752   3.853   3.732   0.126
 1189SOL     OW 4753   4.490   0.523   4.408
 1189SOL    HW1 4754   4.579   0.519   4.373
 1189SOL    HW2 4755   4.445   0.448   4.369
 1189SOL     MW 4756   4.496   0.513   4.399
 1190SOL     OW 4757   3.452   0.509   1.730
 1190SOL    HW1 4758   3.545   0.503   1.753
 1190SOL    HW2 4759   3.450   0.563   1.651
 1190SOL     MW 4760   3.464   0.515   1.723
 1191SOL     OW 4761   1.703   1.175   4.585
 1191SOL    HW1 4762   1.615   1.139   4.593
 1191SOL    HW2 4763   1.733   1.145   4.499
 1191SOL     MW 4764   1.696   1.166   4.575
 1192SOL     OW 4765   3.080   3.377   4.187
 1192SOL    HW1 4766   3.045   3.358   4.275
 1192SOL    HW2 4767   3.162   3.423   4.203
 1192SOL     MW 4768   3.086   3.380   4.201
 1193SOL     OW 4769   2.745   5.005   1.050
 1193SOL    HW1 4770   2.691   4.960   1.115
 1193SOL    HW2 4771   2.687   5.017   0.974
 1193SOL     MW 4772   2.730   5.001   1.048
 1194SOL     OW 4773   0.349   3.144   0.300
 1194SOL    HW1 4774   0.296   3.218   0.329
 1194SOL    HW2 4775   0.342   3.079   0.369
 1194SOL     MW 4776   0.342   3.145   0.312
 1195SOL     OW 4777   2.472   0.944   4.044
 1195SOL    HW1 4778   2.436   1.014   4.098
 1195SOL    HW2 4779   2.404   0.927   3.978
 1195SOL     MW 4780   2.459   0.951   4.042
 1196SOL     OW 4781   3.812   2.382   1.576
 1196SOL    HW1 4782   3.868   2.314   1.538
 1196SOL    HW2 4783   3.748   2.333   1.629
 1196SOL     MW 4784   3.811   2.367   1.578
 1197SOL     OW 4785   0.583   1.695   5.464
 1197SOL    HW1 4786   0.499   1.740   5.454
 1197SOL    HW2 4787   0.560   1.603   5.473
 1197SOL     MW 4788   0.569   1.689   5.464
 1198SOL     OW 4789   3.201   3.869   2.010
 1198SOL    HW1 4790   3.141   3.939   2.036
 1198SOL    HW2 4791   3.267   3.868   2.079
 1198SOL     MW 4792   3.202   3.878   2.023
 1199SOL     OW 4793   4.298   0.127   2.903
 1199SOL    HW1 4794   4.329   0.124   2.994
 1199SOL    HW2 4795   4.205   0.107   2.908
 1199SOL     MW 4796   4.290   0.124   2.915
 1200SOL     OW 4797   1.841   0.424   3.077
 1200SOL    HW1 4798   1.823   0.511   3.112
 1200SOL    HW2 4799   1.873   0.374   3.152
 1200SOL     MW 4800   1.842   0.429   3.091
 1201SOL     OW 4801   0.332   3.577   5.130
 1201SOL    HW1 4802   0.274   3.638   5.176
 1201SOL    HW2 4803   0.295   3.490   5.148
 1201SOL     MW 4804   0.320   3.573   5.139
 1202SOL     OW 4805   2.507   2.302   2.863
 1202SOL    HW1 4806   2.564   2.354   2.807
 1202SOL    HW2 4807   2.438   2.363   2.889
 1202SOL     MW 4808   2.505   2.317   2.859
 1203SOL     OW 4809   4.805   4.910   2.780
 1203SOL    HW1 4810   4.775   4.827   2.744
 1203SOL    HW2 4811   4.892   4.891   2.816
 1203SOL     MW 4812   4.812   4.897   2.780
 1204SOL     OW 4813   5.299   5.177   4.605
 1204SOL    HW1 4814   5.215   5.211   4.576
 1204SOL    HW2 4815   5.344   5.152   4.524
 1204SOL     MW 4816   5.294   5.178   4.590
 1205SOL     OW 4817   3.491   1.323   0.946
 1205SOL    HW1 4818   3.575   1.317   0.993
 1205SOL    HW2 4819   3.516   1.325   0.854
 1205SOL     MW 4820   3.505   1.322   0.940
 1206SOL     OW 4821   1.254   3.419   1.200
 1206SOL    HW1 4822   1.168   3.439   1.236
 1206SOL    HW2 4823   1.271   3.490   1.137
 1206SOL     MW 4824   1.245   3.431   1.197
 1207SOL     OW 4825   2.830   3.033   2.421
 1207SOL    HW1 4826   2.913   3.034   2.373
 1207SOL    HW2 4827   2.830   2.951   2.470
 1207SOL     MW 4828   2.840   3.023   2.421
 1208SOL     OW 4829   3.979   3.284   3.248
 1208SOL    HW1 4830   3.980   3.334   3.329
 1208SOL    HW2 4831   3.946   3.345   3.182
 1208SOL     MW 4832   3.975   3.298   3.250
 1209SOL     OW 4833   1.717   4.823   2.163
 1209SOL    HW1 4834   1.798   4.854   2.204
 1209SOL    HW2 4835   1.652   4.890   2.183
 1209SOL     MW 4836   1.719   4.835   2.171
 1210SOL     OW 4837   1.499   1.684   5.108
 1210SOL    HW1 4838   1.541   1.614   5.058
 1210SOL    HW2 4839   1.408   1.684   5.077
 1210SOL     MW 4840   1.493   1.675   5.097
 1211SOL     OW 4841   4.337   4.882   2.559
 1211SOL    HW1 4842   4.413   4.881   2.500
 1211SOL    HW2 4843   4.276   4.943   2.518
 1211SOL     MW 4844   4.339   4.890   2.546
 1212SOL     OW 4845   3.798   5.364   3.862
 1212SOL    HW1 4846   3.886   5.338   3.889
 1212SOL    HW2 4847   3.811   5.408   3.777
 1212SOL     MW 4848   3.811   5.367   3.854
 1213SOL     OW 4849   4.533   2.519   0.348
 1213SOL    HW1 4850   4.518   2.520   0.443
 1213SOL    HW2 4851   4.452   2.481   0.312
 1213SOL     MW 4852   4.521   2.514   0.356
 1214SOL     OW 4853   2.945   4.712   2.534
 1214SOL    HW1 4854   2.986   4.759   2.606
 1214SOL    HW2 4855   2.900   4.639   2.576
 1214SOL     MW 4856   2.944   4.709   2.548
 1215SOL     OW 4857   3.866   3.466   2.800
 1215SOL    HW1 4858   3.920   3.398   2.759
 1215SOL    HW2 4859   3.903   3.549   2.768
 1215SOL     MW 4860   3.878   3.468   2.790
 1216SOL     OW 4861   2.010   2.681   0.061
 1216SOL    HW1 4862   1.975   2.737  -0.009
 1216SOL    HW2 4863   1.980   2.722   0.142
 1216SOL     MW 4864   2.002   2.694   0.062
 1217SOL     OW 4865   3.408   0.531   4.465
 1217SOL    HW1 4866   3.393   0.501   4.555
 1217SOL    HW2 4867   3.482   0.478   4.434
 1217SOL     MW 4868   3.416   0.520   4.473
 1218SOL     OW 4869   0.681   2.076   3.092
 1218SOL    HW1 4870   0.605   2.110   3.044
 1218SOL    HW2 4871   0.652   2.074   3.183
 1218SOL     MW 4872   0.667   2.080   3.098
 1219SOL     OW 4873   4.764   1.700   0.425
 1219SOL    HW1 4874   4.679   1.664   0.401
 1219SOL    HW2 4875   4.825   1.663   0.361
 1219SOL     MW 4876   4.761   1.691   0.413
 1220SOL     OW 4877   4.254   0.742   1.763
 1220SOL    HW1 4878   4.317   0.799   1.718
 1220SOL    HW2 4879   4.237   0.785   1.846
 1220SOL     MW 4880   4.260   0.755   1.768
 1221SOL     OW 4881   2.912   1.058   2.350
 1221SOL    HW1 4882   2.880   1.126   2.410
 1221SOL    HW2 4883   2.833   1.018   2.315
 1221SOL     MW 4884   2.898   1.062   2.353
 1222SOL     OW 4885   2.495   4.637   3.664
 1222SOL    HW1 4886   2.509   4.730   3.645
 1222SOL    HW2 4887   2.526   4.626   3.754
 1222SOL     MW 4888   2.501   4.648   3.673
 1223SOL     OW 4889   5.116   5.364   3.401
 1223SOL    HW1 4890   5.209   5.371   3.423
 1223SOL    HW2 4891   5.113   5.303   3.327
 1223SOL     MW 4892   5.127   5.357   3.395
 1224SOL     OW 4893   3.571   5.141   2.270
 1224SOL    HW1 4894   3.528   5.098   2.196
 1224SOL    HW2 4895   3.508   5.136   2.341
 1224SOL     MW 4896   3.558   5.135   2.270
 1225SOL     OW 4897   4.737   2.438   1.658
 1225SOL    HW1 4898   4.782   2.355   1.639
 1225SOL    HW2 4899   4.652   2.430   1.615
 1225SOL     MW 4900   4.732   2.426   1.650
 1226SOL     OW 4901   4.925   4.995   0.098
 1226SOL    HW1 4902   4.914   5.038   0.183
 1226SOL    HW2 4903   4.870   5.046   0.038
 1226SOL     MW 4904   4.917   5.007   0.101
 1227SOL     OW 4905   2.645   3.337   4.830
 1227SOL    HW1 4906   2.563   3.358   4.786
 1227SOL    HW2 4907   2.637   3.376   4.917
 1227SOL     MW 4908   2.633   3.345   4.836
 1228SOL     OW 4909   5.319   3.628   4.441
 1228SOL    HW1 4910   5.414   3.637   4.429
 1228SOL    HW2 4911   5.281   3.684   4.373
 1228SOL     MW 4912   5.327   3.636   4.431
 1229SOL     OW 4913   5.059   3.945   5.035
 1229SOL    HW1 4914   4.981   3.967   5.087
 1229SOL    HW2 4915   5.125   3.923   5.100
 1229SOL     MW 4916   5.057   3.945   5.050
 1230SOL     OW 4917   0.264   1.127   1.552
 1230SOL    HW1 4918   0.337   1.181   1.582
 1230SOL    HW2 4919   0.262   1.054   1.613
 1230SOL     MW 4920   0.273   1.125   1.563
 1231SOL     OW 4921   1.277   2.613   0.343
 1231SOL    HW1 4922   1.295   2.632   0.435
 1231SOL    HW2 4923   1.212   2.543   0.345
 1231SOL     MW 4924   1.271   2.607   0.355
 1232SOL     OW 4925   3.093   4.698   1.894
 1232SOL    HW1 4926   3.099   4.788   1.861
 1232SOL    HW2 4927   3.176   4.657   1.867
 1232SOL     MW 4928   3.104   4.704   1.886
 1233SOL     OW 4929   2.330   0.543   5.218
 1233SOL    HW1 4930   2.388   0.467   5.215
 1233SOL    HW2 4931   2.304   0.549   5.310
 1233SOL     MW 4932   2.334   0.534   5.229
 1234SOL     OW 4933   2.502   3.537   0.732
 1234SOL    HW1 4934   2.578   3.595   0.729
 1234SOL    HW2 4935   2.535   3.456   0.770
 1234SOL     MW 4936   2.516   3.534   0.736
 1235SOL     OW 4937   4.461   5.372   1.699
 1235SOL    HW1 4938   4.381   5.319   1.692
 1235SOL    HW2 4939   4.430   5.458   1.726
 1235SOL     MW 4940   4.447   5.376   1.702
 1236SOL     OW 4941   3.864   0.087   0.170
 1236SOL    HW1 4942   3.872   0.182   0.175
 1236SOL    HW2 4943   3.893   0.064   0.082
 1236SOL     MW 4944   3.869   0.096   0.160
 1237SOL     OW 4945   3.484   0.637   2.569
 1237SOL    HW1 4946   3.469   0.730   2.554
 1237SOL    HW2 4947   3.398   0.603   2.596
 1237SOL     MW 4948   3.471   0.644   2.571
 1238SOL     OW 4949   4.890   0.655   4.804
 1238SOL    HW1 4950   4.873   0.609   4.722
 1238SOL    HW2 4951   4.819   0.627   4.862
 1238SOL     MW 4952   4.879   0.646   4.801
 1239SOL     OW 4953   0.703   1.077   0.993
 1239SOL    HW1 4954   0.667   1.009   0.934
 1239SOL    HW2 4955   0.638   1.147   0.990
 1239SOL     MW 4956   0.690   1.077   0.985
 1240SOL     OW 4957   1.818   1.134   4.337
 1240SOL    HW1 4958   1.910   1.108   4.340
 1240SOL    HW2 4959   1.820   1.226   4.311
 1240SOL     MW 4960   1.830   1.142   4.334
 1241SOL     OW 4961   5.353   0.769   5.183
 1241SOL    HW1 4962   5.272   0.768   5.234
 1241SOL    HW2 4963   5.387   0.858   5.193
 1241SOL     MW 4964   5.347   0.780   5.191
 1242SOL     OW 4965   3.465   2.874   4.064
 1242SOL    HW1 4966   3.458   2.946   4.002
 1242SOL    HW2 4967   3.437   2.911   4.148
 1242SOL     MW 4968   3.461   2.888   4.067
 1243SOL     OW 4969   2.758   5.110   5.494
 1243SOL    HW1 4970   2.663   5.109   5.480
 1243SOL    HW2 4971   2.796   5.102   5.406
 1243SOL     MW 4972   2.751   5.109   5.481
 1244SOL     OW 4973   2.330   2.495   2.959
 1244SOL    HW1 4974   2.308   2.587   2.972
 1244SOL    HW2 4975   2.375   2.470   3.040
 1244SOL     MW 4976   2.333   2.504   2.971
 1245SOL     OW 4977   4.095   2.318   5.263
 1245SOL    HW1 4978   4.005   2.328   5.295
 1245SOL    HW2 4979   4.092   2.238   5.210
 1245SOL     MW 4980   4.083   2.309   5.260
 1246SOL     OW 4981   0.254   2.038   3.644
 1246SOL    HW1 4982   0.252   1.942   3.642
 1246SOL    HW2 4983   0.259   2.064   3.552
 1246SOL     MW 4984   0.254   2.029   3.632
 1247SOL     OW 4985   5.317   2.430   4.229
 1247SOL    HW1 4986   5.281   2.460   4.145
 1247SOL    HW2 4987   5.273   2.346   4.245
 1247SOL     MW 4988   5.307   2.423   4.220
 1248SOL     OW 4989   3.112   1.650   1.439
 1248SOL    HW1 4990   3.020   1.675   1.439
 1248SOL    HW2 4991   3.159   1.733   1.438
 1248SOL     MW 4992   3.106   1.664   1.439
 1249SOL     OW 4993   4.721   4.295   0.562
 1249SOL    HW1 4994   4.690   4.292   0.653
 1249SOL    HW2 4995   4.811   4.264   0.566
 1249SOL     MW 4996   4.729   4.291   0.575
 1250SOL     OW 4997   0.725   5.486   0.736
 1250SOL    HW1 4998   0.683   5.506   0.819
 1250SOL    HW2 4999   0.796   5.426   0.758
 1250SOL     MW 5000   0.729   5.481   0.749
 1251SOL     OW 5001   4.597   0.418   2.986
 1251SOL    HW1 5002   4.668   0.461   3.033
 1251SOL    HW2 5003   4.527   0.483   2.982
 1251SOL     MW 5004   4.597   0.432   2.991
 1252SOL     OW 5005   4.788   5.440   0.638
 1252SOL    HW1 5006   4.770   5.481   0.554
 1252SOL    HW2 5007   4.736   5.359   0.637
 1252SOL     MW 5008   4.779   5.435   0.627
 1253SOL     OW 5009   0.168   0.782   3.630
 1253SOL    HW1 5010   0.166   0.699   3.583
 1253SOL    HW2 5011   0.198   0.759   3.718
 1253SOL     MW 5012   0.172   0.768   3.636
 1254SOL     OW 5013   4.885   0.554   2.670
 1254SOL    HW1 5014   4.965   0.562   2.617
 1254SOL    HW2 5015   4.856   0.464   2.655
 1254SOL     MW 5016   4.892   0.543   2.661
 1255SOL     OW 5017   0.575   0.922   0.807
 1255SOL    HW1 5018   0.576   0.826   0.811
 1255SOL    HW2 5019   0.492   0.946   0.848
 1255SOL     MW 5020   0.564   0.913   0.813
 1256SOL     OW 5021   2.341   4.446   2.467
 1256SOL    HW1 5022   2.253   4.409   2.457
 1256SOL    HW2 5023   2.399   4.378   2.433
 1256SOL     MW 5024   2.337   4.433   2.461
 1257SOL     OW 5025   1.900   5.034   5.104
 1257SOL    HW1 5026   1.934   4.958   5.056
 1257SOL    HW2 5027   1.828   5.066   5.050
 1257SOL     MW 5028   1.895   5.028   5.091
 1258SOL     OW 5029   4.383   0.139   3.165
 1258SOL    HW1 5030   4.446   0.192   3.214
 1258SOL    HW2 5031   4.372   0.060   3.218
 1258SOL     MW 5032   4.389   0.136   3.178
 1259SOL     OW 5033   1.322   3.268   0.778
 1259SOL    HW1 5034   1.296   3.359   0.763
 1259SOL    HW2 5035   1.407   3.259   0.735
 1259SOL     MW 5036   1.329   3.278   0.771
 1260SOL     OW 5037   2.120   5.447   2.798
 1260SOL    HW1 5038   2.139   5.389   2.724
 1260SOL    HW2 5039   2.031   5.478   2.782
 1260SOL     MW 5040   2.111   5.444   2.786
 1261SOL     OW 5041   0.245   4.137   4.511
 1261SOL    HW1 5042   0.282   4.199   4.449
 1261SOL    HW2 5043   0.231   4.187   4.591
 1261SOL     MW 5044   0.248   4.151   4.514
 1262SOL     OW 5045   2.617   0.911   3.468
 1262SOL    HW1 5046   2.601   0.966   3.544
 1262SOL    HW2 5047   2.551   0.939   3.404
 1262SOL     MW 5048   2.607   0.922   3.469
 1263SOL     OW 5049   4.668   3.076   0.044
 1263SOL    HW1 5050   4.597   3.044   0.100
 1263SOL    HW2 5051   4.744   3.024   0.068
 1263SOL     MW 5052   4.668   3.065   0.054
 1264SOL     OW 5053   0.354   3.026   2.062
 1264SOL    HW1 5054   0.320   3.054   1.977
 1264SOL    HW2 5055   0.444   2.999   2.043
 1264SOL     MW 5056   0.362   3.026   2.048
 1265SOL     OW 5057   2.744   1.390   4.901
 1265SOL    HW1 5058   2.707   1.301   4.898
 1265SOL    HW2 5059   2.832   1.381   4.865
 1265SOL     MW 5060   2.751   1.377   4.896
 1266SOL     OW 5061   3.561   1.332   3.690
 1266SOL    HW1 5062   3.527   1.329   3.601
 1266SOL    HW2 5063   3.603   1.246   3.702
 1266SOL     MW 5064   3.562   1.320   3.680
 1267SOL     OW 5065   2.911   4.417   1.173
 1267SOL    HW1 5066   2.939   4.506   1.195
 1267SOL    HW2 5067   2.816   4.422   1.168
 1267SOL     MW 5068   2.903   4.429   1.175
 1268SOL     OW 5069   1.282   2.052   2.912
 1268SOL    HW1 5070   1.204   2.018   2.956
 1268SOL    HW2 5071   1.255   2.065   2.821
 1268SOL     MW 5072   1.269   2.049   2.906
 1269SOL     OW 5073   0.434   1.901   1.822
 1269SOL    HW1 5074   0.474   1.820   1.789
 1269SOL    HW2 5075   0.404   1.946   1.743
 1269SOL     MW 5076   0.435   1.896   1.807
 1270SOL     OW 5077   0.647   4.657   0.243
 1270SOL    HW1 5078   0.650   4.665   0.339
 1270SOL    HW2 5079   0.554   4.665   0.222
 1270SOL     MW 5080   0.635   4.659   0.253
 1271SOL     OW 5081   2.344   1.065   0.174
 1271SOL    HW1 5082   2.304   1.006   0.237
 1271SOL    HW2 5083   2.298   1.047   0.092
 1271SOL     MW 5084   2.333   1.055   0.171
 1272SOL     OW 5085   4.205   3.488   0.919
 1272SOL    HW1 5086   4.284   3.536   0.897
 1272SOL    HW2 5087   4.148   3.552   0.961
 1272SOL     MW 5088   4.208   3.502   0.922
 1273SOL     OW 5089   5.311   3.498   0.488
 1273SOL    HW1 5090   5.299   3.407   0.460
 1273SOL    HW2 5091   5.405   3.514   0.478
 1273SOL     MW 5092   5.322   3.488   0.483
 1274SOL     OW 5093   5.336   0.035   3.855
 1274SOL    HW1 5094   5.293   0.082   3.926
 1274SOL    HW2 5095   5.314   0.084   3.776
 1274SOL     MW 5096   5.328   0.047   3.854
 1275SOL     OW 5097   4.435   2.875   2.920
 1275SOL    HW1 5098   4.394   2.825   2.850
 1275SOL    HW2 5099   4.429   2.818   2.997
 1275SOL     MW 5100   4.429   2.861   2.921
 1276SOL     OW 5101   5.056   4.351   1.799
 1276SOL    HW1 5102   5.128   4.407   1.770
 1276SOL    HW2 5103   5.011   4.326   1.718
 1276SOL     MW 5104   5.059   4.355   1.785
 1277SOL     OW 5105   5.291   1.693   4.039
 1277SOL    HW1 5106   5.321   1.765   3.983
 1277SOL    HW2 5107   5.301   1.726   4.128
 1277SOL     MW 5108   5.296   1.706   4.043
 1278SOL     OW 5109   1.821   0.443   4.824
 1278SOL    HW1 5110   1.808   0.406   4.736
 1278SOL    HW2 5111   1.795   0.535   4.816
 1278SOL     MW 5112   1.816   0.450   4.812
 1279SOL     OW 5113   0.577   0.526   2.634
 1279SOL    HW1 5114   0.550   0.567   2.552
 1279SOL    HW2 5115   0.665   0.560   2.649
 1279SOL     MW 5116   0.585   0.535   2.625
 1280SOL     OW 5117   4.824   0.125   2.266
 1280SOL    HW1 5118   4.883   0.133   2.340
 1280SOL    HW2 5119   4.786   0.037   2.275
 1280SOL     MW 5120   4.827   0.114   2.276
 1281SOL     OW 5121   0.004   0.223   1.102
 1281SOL    HW1 5122   0.015   0.258   1.013
 1281SOL    HW2 5123   0.049   0.286   1.158
 1281SOL     MW 5124   0.011   0.236   1.097
 1282SOL     OW 5125   5.158   3.648   4.671
 1282SOL    HW1 5126   5.082   3.696   4.637
 1282SOL    HW2 5127   5.215   3.638   4.595
 1282SOL     MW 5128   5.155   3.653   4.657
 1283SOL     OW 5129   0.356   4.894   2.160
 1283SOL    HW1 5130   0.272   4.892   2.116
 1283SOL    HW2 5131   0.420   4.904   2.090
 1283SOL     MW 5132   0.354   4.895   2.145
 1284SOL     OW 5133   3.471   2.967   0.329
 1284SOL    HW1 5134   3.561   2.936   0.328
 1284SOL    HW2 5135   3.456   3.000   0.240
 1284SOL     MW 5136   3.480   2.967   0.317
 1285SOL     OW 5137   4.804   3.328   3.753
 1285SOL    HW1 5138   4.828   3.236   3.749
 1285SOL    HW2 5139   4.827   3.362   3.667
 1285SOL     MW 5140   4.810   3.321   3.742
 1286SOL     OW 5141   5.186   4.590   1.166
 1286SOL    HW1 5142   5.148   4.607   1.080
 1286SOL    HW2 5143   5.266   4.643   1.168
 1286SOL     MW 5144   5.191   4.599   1.155
 1287SOL     OW 5145   2.707   2.035   3.975
 1287SOL    HW1 5146   2.677   2.003   4.061
 1287SOL    HW2 5147   2.792   2.075   3.992
 1287SOL     MW 5148   2.714   2.036   3.988
 1288SOL     OW 5149   3.165   5.030   4.788
 1288SOL    HW1 5150   3.238   4.969   4.795
 1288SOL    HW2 5151   3.158   5.069   4.875
 1288SOL     MW 5152   3.173   5.027   4.800
 1289SOL     OW 5153   1.595   4.017   2.602
 1289SOL    HW1 5154   1.547   4.024   2.519
 1289SOL    HW2 5155   1.612   4.107   2.628
 1289SOL     MW 5156   1.591   4.029   2.595
 1290SOL     OW 5157   4.289   4.924   2.835
 1290SOL    HW1 5158   4.321   5.010   2.864
 1290SOL    HW2 5159   4.320   4.917   2.745
 1290SOL     MW 5160   4.297   4.934   2.828
 1291SOL     OW 5161   3.547   0.126   2.446
 1291SOL    HW1 5162   3.641   0.129   2.431
 1291SOL    HW2 5163   3.509   0.097   2.363
 1291SOL     MW 5164   3.554   0.123   2.434
 1292SOL     OW 5165   1.822   1.108   0.864
 1292SOL    HW1 5166   1.746   1.139   0.815
 1292SOL    HW2 5167   1.792   1.029   0.908
 1292SOL     MW 5168   1.809   1.102   0.863
 1293SOL     OW 5169   4.143   3.931   2.988
 1293SOL    HW1 5170   4.070   3.984   3.020
 1293SOL    HW2 5171   4.172   3.881   3.064
 1293SOL     MW 5172   4.137   3.932   3.002
 1294SOL     OW 5173   0.449   1.046   0.426
 1294SOL    HW1 5174   0.409   1.116   0.478
 1294SOL    HW2 5175   0.384   0.976   0.425
 1294SOL     MW 5176   0.435   1.046   0.433
 1295SOL     OW 5177   1.255   1.229   1.975
 1295SOL    HW1 5178   1.284   1.137   1.971
 1295SOL    HW2 5179   1.335   1.278   1.993
 1295SOL     MW 5180   1.269   1.223   1.976
 1296SOL     OW 5181   5.195   0.561   0.653
 1296SOL    HW1 5182   5.159   0.602   0.573
 1296SOL    HW2 5183   5.270   0.616   0.675
 1296SOL     MW 5184   5.200   0.574   0.645
 1297SOL     OW 5185   2.277   1.859   4.994
 1297SOL    HW1 5186   2.329   1.903   4.927
 1297SOL    HW2 5187   2.341   1.822   5.054
 1297SOL     MW 5188   2.292   1.860   4.993
 1298SOL     OW 5189   1.626   0.916   2.669
 1298SOL    HW1 5190   1.619   0.827   2.635
 1298SOL    HW2 5191   1.717   0.941   2.652
 1298SOL     MW 5192   1.637   0.907   2.663
 1299SOL     OW 5193   1.826   4.059   1.318
 1299SOL    HW1 5194   1.746   4.059   1.371
 1299SOL    HW2 5195   1.893   4.096   1.374
 1299SOL     MW 5196   1.824   4.064   1.332
 1300SOL     OW 5197   0.738   0.343   2.958
 1300SOL    HW1 5198   0.719   0.425   3.004
 1300SOL    HW2 5199   0.826   0.356   2.922
 1300SOL     MW 5200   0.747   0.355   2.960
 1301SOL     OW 5201   4.107   4.704   2.265
 1301SOL    HW1 5202   4.104   4.637   2.333
 1301SOL    HW2 5203   4.115   4.654   2.183
 1301SOL     MW 5204   4.107   4.689   2.263
 1302SOL     OW 5205   0.597   1.761   0.530
 1302SOL    HW1 5206   0.573   1.842   0.574
 1302SOL    HW2 5207   0.576   1.776   0.438
 1302SOL     MW 5208   0.591   1.773   0.524
 1303SOL     OW 5209   3.629   2.250   1.736
 1303SOL    HW1 5210   3.535   2.256   1.718
 1303SOL    HW2 5211   3.635   2.246   1.832
 1303SOL     MW 5212   3.617   2.250   1.746
 1304SOL     OW 5213   3.312   3.397   4.491
 1304SOL    HW1 5214   3.353   3.343   4.423
 1304SOL    HW2 5215   3.304   3.338   4.566
 1304SOL     MW 5216   3.316   3.382   4.492
 1305SOL     OW 5217   5.121   4.054   1.874
 1305SOL    HW1 5218   5.080   4.107   1.943
 1305SOL    HW2 5219   5.048   4.032   1.815
 1305SOL     MW 5220   5.106   4.058   1.875
 1306SOL     OW 5221   1.308   0.384   4.351
 1306SOL    HW1 5222   1.287   0.465   4.304
 1306SOL    HW2 5223   1.387   0.351   4.308
 1306SOL     MW 5224   1.315   0.390   4.339
 1307SOL     OW 5225   3.769   2.205   4.712
 1307SOL    HW1 5226   3.755   2.164   4.797
 1307SOL    HW2 5227   3.719   2.287   4.716
 1307SOL     MW 5228   3.761   2.210   4.723
 1308SOL     OW 5229   0.107   1.348   0.443
 1308SOL    HW1 5230   0.170   1.347   0.371
 1308SOL    HW2 5231   0.142   1.285   0.506
 1308SOL     MW 5232   0.119   1.340   0.442
 1309SOL     OW 5233   1.982   3.966   1.629
 1309SOL    HW1 5234   2.043   3.906   1.586
 1309SOL    HW2 5235   1.953   3.918   1.707
 1309SOL     MW 5236   1.986   3.952   1.634
 1310SOL     OW 5237   5.461   1.666   3.078
 1310SOL    HW1 5238   5.542   1.642   3.033
 1310SOL    HW2 5239   5.403   1.697   3.009
 1310SOL     MW 5240   5.464   1.667   3.064
 1311SOL     OW 5241   4.893   1.699   1.767
 1311SOL    HW1 5242   4.832   1.745   1.825
 1311SOL    HW2 5243   4.882   1.742   1.682
 1311SOL     MW 5244   4.884   1.710   1.764
 1312SOL     OW 5245   4.927   2.030   0.836
 1312SOL    HW1 5246   4.848   1.981   0.815
 1312SOL    HW2 5247   4.995   1.990   0.783
 1312SOL     MW 5248   4.925   2.019   0.827
 1313SOL     OW 5249   0.039   0.102   2.531
 1313SOL    HW1 5250  -0.055   0.096   2.514
 1313SOL    HW2 5251   0.068   0.175   2.477
 1313SOL     MW 5252   0.030   0.110   2.522
 1314SOL     OW 5253   3.340   3.347   1.865
 1314SOL    HW1 5254   3.286   3.373   1.790
 1314SOL    HW2 5255   3.412   3.409   1.865
 1314SOL     MW 5256   3.342   3.358   1.855
 1315SOL     OW 5257   3.226   3.260   2.090
 1315SOL    HW1 5258   3.260   3.171   2.097
 1315SOL    HW2 5259   3.265   3.294   2.010
 1315SOL     MW 5260   3.236   3.253   2.081
 1316SOL     OW 5261   3.277   3.258   1.365
 1316SOL    HW1 5262   3.238   3.201   1.299
 1316SOL    HW2 5263   3.311   3.333   1.315
 1316SOL     MW 5264   3.276   3.260   1.350
 1317SOL     OW 5265   1.735   5.026   3.180
 1317SOL    HW1 5266   1.679   5.072   3.117
 1317SOL    HW2 5267   1.694   4.939   3.188
 1317SOL     MW 5268   1.722   5.021   3.173
 1318SOL     OW 5269   1.857   3.775   2.687
 1318SOL    HW1 5270   1.830   3.866   2.675
 1318SOL    HW2 5271   1.833   3.755   2.778
 1318SOL     MW 5272   1.850   3.784   2.697
 1319SOL     OW 5273   4.026   2.264   4.767
 1319SOL    HW1 5274   4.035   2.354   4.735
 1319SOL    HW2 5275   3.938   2.238   4.739
 1319SOL     MW 5276   4.016   2.272   4.759
 1320SOL     OW 5277   5.330   1.457   2.273
 1320SOL    HW1 5278   5.344   1.536   2.325
 1320SOL    HW2 5279   5.388   1.468   2.197
 1320SOL     MW 5280   5.339   1.469   2.270
 1321SOL     OW 5281   5.072   1.106   0.283
 1321SOL    HW1 5282   5.045   1.112   0.374
 1321SOL    HW2 5283   5.150   1.050   0.285
 1321SOL     MW 5284   5.079   1.100   0.295
 1322SOL     OW 5285   3.202   1.538   3.468
 1322SOL    HW1 5286   3.213   1.444   3.457
 1322SOL    HW2 5287   3.269   1.564   3.531
 1322SOL     MW 5288   3.212   1.530   3.474
 1323SOL     OW 5289   2.669   4.658   1.060
 1323SOL    HW1 5290   2.591   4.666   1.005
 1323SOL    HW2 5291   2.660   4.573   1.102
 1323SOL     MW 5292   2.658   4.648   1.059
 1324SOL     OW 5293   0.276   3.638   3.545
 1324SOL    HW1 5294   0.371   3.647   3.535
 1324SOL    HW2 5295   0.265   3.584   3.623
 1324SOL     MW 5296   0.287   3.632   3.554
 1325SOL     OW 5297   1.706   3.696   1.542
 1325SOL    HW1 5298   1.658   3.746   1.476
 1325SOL    HW2 5299   1.798   3.707   1.520
 1325SOL     MW 5300   1.712   3.703   1.531
 1326SOL     OW 5301   3.532   5.143   4.570
 1326SOL    HW1 5302   3.621   5.177   4.570
 1326SOL    HW2 5303   3.500   5.159   4.481
 1326SOL     MW 5304   3.539   5.150   4.558
 1327SOL     OW 5305   0.199   4.585   3.236
 1327SOL    HW1 5306   0.281   4.627   3.262
 1327SOL    HW2 5307   0.145   4.657   3.203
 1327SOL     MW 5308   0.203   4.600   3.235
 1328SOL     OW 5309   1.115   5.069   3.666
 1328SOL    HW1 5310   1.166   5.017   3.728
 1328SOL    HW2 5311   1.177   5.091   3.597
 1328SOL     MW 5312   1.129   5.065   3.665
 1329SOL     OW 5313   2.520   0.536   3.175
 1329SOL    HW1 5314   2.595   0.512   3.229
 1329SOL    HW2 5315   2.557   0.550   3.088
 1329SOL     MW 5316   2.534   0.535   3.171
 1330SOL     OW 5317   0.534   1.405   2.057
 1330SOL    HW1 5318   0.488   1.483   2.088
 1330SOL    HW2 5319   0.608   1.438   2.007
 1330SOL     MW 5320   0.537   1.419   2.054
 1331SOL     OW 5321   2.664   1.791   0.979
 1331SOL    HW1 5322   2.653   1.696   0.975
 1331SOL    HW2 5323   2.676   1.817   0.887
 1331SOL     MW 5324   2.664   1.782   0.967
 1332SOL     OW 5325   0.825   0.842   4.538
 1332SOL    HW1 5326   0.920   0.834   4.550
 1332SOL    HW2 5327   0.806   0.934   4.551
 1332SOL     MW 5328   0.835   0.852   4.541
 1333SOL     OW 5329   2.855   1.997   4.745
 1333SOL    HW1 5330   2.891   2.032   4.827
 1333SOL    HW2 5331   2.881   2.061   4.679
 1333SOL     MW 5332   2.863   2.010   4.747
 1334SOL     OW 5333   4.655   2.500   2.787
 1334SOL    HW1 5334   4.640   2.442   2.861
 1334SOL    HW2 5335   4.724   2.560   2.817
 1334SOL     MW 5336   4.662   2.501   2.800
 1335SOL     OW 5337   3.198   1.536   0.499
 1335SOL    HW1 5338   3.104   1.519   0.499
 1335SOL    HW2 5339   3.217   1.573   0.585
 1335SOL     MW 5340   3.189   1.539   0.510
 1336SOL     OW 5341   4.601   0.388   1.634
 1336SOL    HW1 5342   4.619   0.416   1.724
 1336SOL    HW2 5343   4.667   0.322   1.615
 1336SOL     MW 5344   4.611   0.383   1.643
 1337SOL     OW 5345   1.439   4.156   0.853
 1337SOL    HW1 5346   1.427   4.206   0.933
 1337SOL    HW2 5347   1.510   4.094   0.874
 1337SOL     MW 5348   1.447   4.154   0.866
 1338SOL     OW 5349   3.611   2.085   0.142
 1338SOL    HW1 5350   3.558   2.149   0.188
 1338SOL    HW2 5351   3.639   2.023   0.210
 1338SOL     MW 5352   3.608   2.085   0.157
 1339SOL     OW 5353   4.615   0.294   0.188
 1339SOL    HW1 5354   4.708   0.283   0.206
 1339SOL    HW2 5355   4.609   0.296   0.093
 1339SOL     MW 5356   4.626   0.293   0.178
 1340SOL     OW 5357   4.391   3.797   5.456
 1340SOL    HW1 5358   4.436   3.827   5.376
 1340SOL    HW2 5359   4.312   3.754   5.423
 1340SOL     MW 5360   4.387   3.795   5.441
 1341SOL     OW 5361   2.828   3.940   3.998
 1341SOL    HW1 5362   2.851   3.863   4.050
 1341SOL    HW2 5363   2.752   3.912   3.947
 1341SOL     MW 5364   2.821   3.926   3.998
 1342SOL     OW 5365   2.445   4.050   5.040
 1342SOL    HW1 5366   2.537   4.062   5.061
 1342SOL    HW2 5367   2.437   3.957   5.019
 1342SOL     MW 5368   2.455   4.039   5.040
 1343SOL     OW 5369   0.345   2.902   5.474
 1343SOL    HW1 5370   0.397   2.892   5.394
 1343SOL    HW2 5371   0.407   2.885   5.545
 1343SOL     MW 5372   0.360   2.899   5.473
 1344SOL     OW 5373   3.167   0.193   2.139
 1344SOL    HW1 5374   3.078   0.160   2.152
 1344SOL    HW2 5375   3.178   0.197   2.044
 1344SOL     MW 5376   3.157   0.189   2.129
 1345SOL     OW 5377   0.179   4.335   2.241
 1345SOL    HW1 5378   0.105   4.293   2.283
 1345SOL    HW2 5379   0.253   4.277   2.260
 1345SOL     MW 5380   0.179   4.322   2.248
 1346SOL     OW 5381   3.464   1.280   0.666
 1346SOL    HW1 5382   3.376   1.244   0.677
 1346SOL    HW2 5383   3.457   1.335   0.587
 1346SOL     MW 5384   3.452   1.283   0.657
 1347SOL     OW 5385   1.654   2.022   4.458
 1347SOL    HW1 5386   1.693   2.043   4.543
 1347SOL    HW2 5387   1.643   2.107   4.415
 1347SOL     MW 5388   1.657   2.036   4.463
 1348SOL     OW 5389   3.008   2.584   5.094
 1348SOL    HW1 5390   2.941   2.632   5.144
 1348SOL    HW2 5391   2.965   2.502   5.070
 1348SOL     MW 5392   2.994   2.580   5.097
 1349SOL     OW 5393   3.240   1.536   3.862
 1349SOL    HW1 5394   3.210   1.606   3.919
 1349SOL    HW2 5395   3.315   1.498   3.909
 1349SOL     MW 5396   3.246   1.540   3.876
 1350SOL     OW 5397   3.997   2.209   1.474
 1350SOL    HW1 5398   4.080   2.226   1.429
 1350SOL    HW2 5399   4.015   2.133   1.529
 1350SOL     MW 5400   4.010   2.201   1.475
 1351SOL     OW 5401   4.024   1.017   0.178
 1351SOL    HW1 5402   4.055   1.096   0.224
 1351SOL    HW2 5403   4.095   0.954   0.189
 1351SOL     MW 5404   4.037   1.019   0.185
 1352SOL     OW 5405   0.163   0.401   5.434
 1352SOL    HW1 5406   0.085   0.359   5.469
 1352SOL    HW2 5407   0.130   0.471   5.378
 1352SOL     MW 5408   0.149   0.405   5.431
 1353SOL     OW 5409   3.811   3.925   3.567
 1353SOL    HW1 5410   3.738   3.874   3.533
 1353SOL    HW2 5411   3.849   3.870   3.635
 1353SOL     MW 5412   3.807   3.912   3.571
 1354SOL     OW 5413   2.779   2.372   0.013
 1354SOL    HW1 5414   2.765   2.341  -0.076
 1354SOL    HW2 5415   2.730   2.311   0.068
 1354SOL     MW 5416   2.771   2.360   0.009
 1355SOL     OW 5417   4.271   1.990   4.591
 1355SOL    HW1 5418   4.189   2.011   4.546
 1355SOL    HW2 5419   4.295   1.903   4.560
 1355SOL     MW 5420   4.264   1.982   4.582
 1356SOL     OW 5421   4.207   0.639   2.625
 1356SOL    HW1 5422   4.175   0.676   2.707
 1356SOL    HW2 5423   4.130   0.598   2.586
 1356SOL     MW 5424   4.193   0.639   2.630
 1357SOL     OW 5425   1.472   5.098   1.904
 1357SOL    HW1 5426   1.483   5.175   1.960
 1357SOL    HW2 5427   1.412   5.041   1.952
 1357SOL     MW 5428   1.466   5.101   1.917
 1358SOL     OW 5429   1.278   3.173   3.042
 1358SOL    HW1 5430   1.339   3.242   3.018
 1358SOL    HW2 5431   1.195   3.200   3.003
 1358SOL     MW 5432   1.275   3.185   3.034
 1359SOL     OW 5433   1.905   4.202   5.266
 1359SOL    HW1 5434   1.856   4.263   5.322
 1359SOL    HW2 5435   1.911   4.122   5.317
 1359SOL     MW 5436   1.900   4.200   5.279
 1360SOL     OW 5437   3.617   0.809   0.280
 1360SOL    HW1 5438   3.543   0.857   0.246
 1360SOL    HW2 5439   3.603   0.719   0.251
 1360SOL     MW 5440   3.606   0.803   0.272
 1361SOL     OW 5441   4.887   5.364   2.009
 1361SOL    HW1 5442   4.805   5.316   2.021
 1361SOL    HW2 5443   4.947   5.327   2.074
 1361SOL     MW 5444   4.884   5.353   2.019
 1362SOL     OW 5445   1.282   1.622   3.923
 1362SOL    HW1 5446   1.254   1.583   3.840
 1362SOL    HW2 5447   1.203   1.662   3.959
 1362SOL     MW 5448   1.268   1.622   3.917
 1363SOL     OW 5449   0.978   0.323   5.340
 1363SOL    HW1 5450   0.941   0.236   5.354
 1363SOL    HW2 5451   0.930   0.359   5.266
 1363SOL     MW 5452   0.967   0.316   5.332
 1364SOL     OW 5453   3.625   2.721   4.696
 1364SOL    HW1 5454   3.712   2.722   4.735
 1364SOL    HW2 5455   3.637   2.757   4.609
 1364SOL     MW 5456   3.638   2.726   4.690
 1365SOL     OW 5457   4.048   4.749   0.867
 1365SOL    HW1 5458   4.051   4.799   0.949
 1365SOL    HW2 5459   4.066   4.813   0.799
 1365SOL     MW 5460   4.051   4.763   0.869
 1366SOL     OW 5461   1.051   1.607   0.657
 1366SOL    HW1 5462   1.089   1.593   0.570
 1366SOL    HW2 5463   1.099   1.683   0.691
 1366SOL     MW 5464   1.062   1.615   0.650
 1367SOL     OW 5465   5.411   0.865   4.345
 1367SOL    HW1 5466   5.359   0.808   4.402
 1367SOL    HW2 5467   5.394   0.833   4.257
 1367SOL     MW 5468   5.403   0.853   4.341
 1368SOL     OW 5469   2.303   1.940   3.460
 1368SOL    HW1 5470   2.396   1.946   3.483
 1368SOL    HW2 5471   2.269   1.868   3.513
 1368SOL     MW 5472   2.311   1.932   3.470
 1369SOL     OW 5473   2.317   2.546   4.143
 1369SOL    HW1 5474   2.311   2.529   4.049
 1369SOL    HW2 5475   2.229   2.571   4.169
 1369SOL     MW 5476   2.305   2.547   4.134
 1370SOL     OW 5477   0.387   3.951   5.232
 1370SOL    HW1 5478   0.393   3.936   5.327
 1370SOL    HW2 5479   0.309   3.903   5.205
 1370SOL     MW 5480   0.378   3.943   5.241
 1371SOL     OW 5481   1.266   4.040   1.605
 1371SOL    HW1 5482   1.244   4.041   1.511
 1371SOL    HW2 5483   1.187   4.073   1.648
 1371SOL     MW 5484   1.253   4.044   1.598
 1372SOL     OW 5485   2.573   0.331   1.018
 1372SOL    HW1 5486   2.620   0.339   1.101
 1372SOL    HW2 5487   2.634   0.365   0.953
 1372SOL     MW 5488   2.587   0.336   1.021
 1373SOL     OW 5489   3.876   4.547   2.804
 1373SOL    HW1 5490   3.918   4.462   2.814
 1373SOL    HW2 5491   3.947   4.611   2.812
 1373SOL     MW 5492   3.890   4.544   2.806
 1374SOL     OW 5493   0.186   0.561   2.922
 1374SOL    HW1 5494   0.218   0.498   2.987
 1374SOL    HW2 5495   0.165   0.639   2.972
 1374SOL     MW 5496   0.187   0.563   2.937
 1375SOL     OW 5497   1.889   2.891   1.242
 1375SOL    HW1 5498   1.886   2.953   1.315
 1375SOL    HW2 5499   1.947   2.822   1.272
 1375SOL     MW 5500   1.896   2.890   1.255
 1376SOL     OW 5501   2.011   4.339   3.225
 1376SOL    HW1 5502   2.075   4.280   3.186
 1376SOL    HW2 5503   2.013   4.417   3.170
 1376SOL     MW 5504   2.019   4.341   3.213
 1377SOL     OW 5505   2.857   1.432   0.044
 1377SOL    HW1 5506   2.946   1.454   0.071
 1377SOL    HW2 5507   2.864   1.346   0.004
 1377SOL     MW 5508   2.869   1.424   0.043
 1378SOL     OW 5509   3.511   2.452   3.845
 1378SOL    HW1 5510   3.441   2.400   3.805
 1378SOL    HW2 5511   3.466   2.527   3.884
 1378SOL     MW 5512   3.496   2.455   3.845
 1379SOL     OW 5513   3.863   0.046   3.632
 1379SOL    HW1 5514   3.806   0.118   3.659
 1379SOL    HW2 5515   3.888   0.069   3.542
 1379SOL     MW 5516   3.859   0.058   3.624
 1380SOL     OW 5517   1.715   0.649   1.898
 1380SOL    HW1 5518   1.697   0.560   1.869
 1380SOL    HW2 5519   1.808   0.649   1.919
 1380SOL     MW 5520   1.724   0.638   1.897
 1381SOL     OW 5521   3.430   2.093   2.546
 1381SOL    HW1 5522   3.512   2.117   2.501
 1381SOL    HW2 5523   3.454   2.086   2.638
 1381SOL     MW 5524   3.444   2.095   2.552
 1382SOL     OW 5525   1.735   2.918   3.270
 1382SOL    HW1 5526   1.711   2.868   3.349
 1382SOL    HW2 5527   1.699   2.867   3.198
 1382SOL     MW 5528   1.727   2.905   3.271
 1383SOL     OW 5529   3.400   4.850   3.509
 1383SOL    HW1 5530   3.391   4.804   3.593
 1383SOL    HW2 5531   3.406   4.780   3.444
 1383SOL     MW 5532   3.400   4.835   3.512
 1384SOL     OW 5533   3.488   1.424   5.386
 1384SOL    HW1 5534   3.452   1.385   5.466
 1384SOL    HW2 5535   3.418   1.415   5.322
 1384SOL     MW 5536   3.474   1.418   5.388
 1385SOL     OW 5537   3.549   4.653   2.461
 1385SOL    HW1 5538   3.634   4.616   2.484
 1385SOL    HW2 5539   3.542   4.641   2.367
 1385SOL     MW 5540   3.559   4.647   2.452
 1386SOL     OW 5541   0.875   0.476   5.131
 1386SOL    HW1 5542   0.933   0.474   5.055
 1386SOL    HW2 5543   0.787   0.471   5.093
 1386SOL     MW 5544   0.871   0.475   5.116
 1387SOL     OW 5545   5.385   1.013   2.896
 1387SOL    HW1 5546   5.317   1.060   2.946
 1387SOL    HW2 5547   5.361   1.025   2.805
 1387SOL     MW 5548   5.373   1.021   2.891
 1388SOL     OW 5549   1.038   1.136   0.721
 1388SOL    HW1 5550   1.125   1.168   0.699
 1388SOL    HW2 5551   0.979   1.182   0.661
 1388SOL     MW 5552   1.041   1.146   0.711
 1389SOL     OW 5553   0.097   1.628   1.400
 1389SOL    HW1 5554   0.084   1.540   1.435
 1389SOL    HW2 5555   0.097   1.617   1.305
 1389SOL     MW 5556   0.095   1.616   1.393
 1390SOL     OW 5557   3.376   4.960   5.317
 1390SOL    HW1 5558   3.398   4.876   5.276
 1390SOL    HW2 5559   3.291   4.946   5.358
 1390SOL     MW 5560   3.368   4.948   5.317
 1391SOL     OW 5561   3.887   3.352   1.481
 1391SOL    HW1 5562   3.834   3.271   1.479
 1391SOL    HW2 5563   3.865   3.392   1.565
 1391SOL     MW 5564   3.877   3.346   1.492
 1392SOL     OW 5565   0.769   3.747   5.230
 1392SOL    HW1 5566   0.700   3.685   5.254
 1392SOL    HW2 5567   0.836   3.694   5.187
 1392SOL     MW 5568   0.768   3.732   5.228
 1393SOL     OW 5569   4.652   4.729   3.813
 1393SOL    HW1 5570   4.607   4.810   3.836
 1393SOL    HW2 5571   4.622   4.665   3.879
 1393SOL     MW 5572   4.642   4.731   3.825
 1394SOL     OW 5573   3.815   4.661   0.099
 1394SOL    HW1 5574   3.774   4.619   0.023
 1394SOL    HW2 5575   3.802   4.599   0.171
 1394SOL     MW 5576   3.808   4.648   0.098
 1395SOL     OW 5577   4.051   3.614   1.767
 1395SOL    HW1 5578   4.071   3.616   1.861
 1395SOL    HW2 5579   4.070   3.702   1.737
 1395SOL     MW 5580   4.056   3.625   1.775
 1396SOL     OW 5581   3.782   0.706   5.204
 1396SOL    HW1 5582   3.749   0.792   5.231
 1396SOL    HW2 5583   3.714   0.644   5.232
 1396SOL     MW 5584   3.769   0.709   5.211
 1397SOL     OW 5585   3.043   4.756   0.600
 1397SOL    HW1 5586   3.114   4.802   0.644
 1397SOL    HW2 5587   2.982   4.825   0.573
 1397SOL     MW 5588   3.045   4.771   0.602
 1398SOL     OW 5589   4.189   2.211   4.269
 1398SOL    HW1 5590   4.167   2.296   4.307
 1398SOL    HW2 5591   4.151   2.147   4.328
 1398SOL     MW 5592   4.181   2.214   4.281
 1399SOL     OW 5593   0.187   1.494   5.459
 1399SOL    HW1 5594   0.110   1.514   5.512
 1399SOL    HW2 5595   0.179   1.549   5.381
 1399SOL     MW 5596   0.176   1.503   5.456
 1400SOL     OW 5597   4.513   1.229   2.522
 1400SOL    HW1 5598   4.488   1.206   2.432
 1400SOL    HW2 5599   4.547   1.148   2.558
 1400SOL     MW 5600   4.514   1.216   2.515
 1401SOL     OW 5601   3.821   0.057   0.960
 1401SOL    HW1 5602   3.771   0.064   0.879
 1401SOL    HW2 5603   3.799  -0.030   0.994
 1401SOL     MW 5604   3.812   0.047   0.954
 1402SOL     OW 5605   1.620   0.724   4.418
 1402SOL    HW1 5606   1.649   0.634   4.433
 1402SOL    HW2 5607   1.670   0.776   4.481
 1402SOL     MW 5608   1.630   0.719   4.428
 1403SOL     OW 5609   2.788   2.921   3.541
 1403SOL    HW1 5610   2.733   2.853   3.502
 1403SOL    HW2 5611   2.742   3.003   3.522
 1403SOL     MW 5612   2.775   2.923   3.533
 1404SOL     OW 5613   5.396   1.778   5.136
 1404SOL    HW1 5614   5.317   1.727   5.120
 1404SOL    HW2 5615   5.401   1.839   5.062
 1404SOL     MW 5616   5.387   1.780   5.125
 1405SOL     OW 5617   3.785   3.544   5.176
 1405SOL    HW1 5618   3.831   3.617   5.134
 1405SOL    HW2 5619   3.795   3.471   5.115
 1405SOL     MW 5620   3.792   3.544   5.163
 1406SOL     OW 5621   2.741   2.329   1.670
 1406SOL    HW1 5622   2.797   2.405   1.656
 1406SOL    HW2 5623   2.654   2.366   1.688
 1406SOL     MW 5624   2.737   2.343   1.671
 1407SOL     OW 5625   2.206   3.966   5.281
 1407SOL    HW1 5626   2.281   3.910   5.300
 1407SOL    HW2 5627   2.225   4.048   5.327
 1407SOL     MW 5628   2.218   3.969   5.289
 1408SOL     OW 5629   4.026   2.544   2.930
 1408SOL    HW1 5630   4.005   2.548   2.837
 1408SOL    HW2 5631   3.971   2.474   2.964
 1408SOL     MW 5632   4.016   2.535   2.923
 1409SOL     OW 5633   4.089   0.734   0.929
 1409SOL    HW1 5634   4.124   0.713   0.843
 1409SOL    HW2 5635   4.042   0.655   0.956
 1409SOL     MW 5636   4.087   0.721   0.922
 1410SOL     OW 5637   2.288   1.410   3.568
 1410SOL    HW1 5638   2.228   1.427   3.496
 1410SOL    HW2 5639   2.242   1.441   3.646
 1410SOL     MW 5640   2.274   1.416   3.569
 1411SOL     OW 5641   1.693   0.253   1.306
 1411SOL    HW1 5642   1.604   0.273   1.277
 1411SOL    HW2 5643   1.736   0.338   1.313
 1411SOL     MW 5644   1.687   0.266   1.303
 1412SOL     OW 5645   1.348   5.226   4.567
 1412SOL    HW1 5646   1.258   5.249   4.543
 1412SOL    HW2 5647   1.341   5.136   4.600
 1412SOL     MW 5648   1.335   5.217   4.568
 1413SOL     OW 5649   2.982   5.441   4.281
 1413SOL    HW1 5650   3.033   5.360   4.278
 1413SOL    HW2 5651   3.046   5.509   4.301
 1413SOL     MW 5652   2.997   5.439   4.283
 1414SOL     OW 5653   2.594   1.100   5.334
 1414SOL    HW1 5654   2.566   1.028   5.391
 1414SOL    HW2 5655   2.540   1.091   5.255
 1414SOL     MW 5656   2.584   1.089   5.331
 1415SOL     OW 5657   1.388   0.059   4.324
 1415SOL    HW1 5658   1.326   0.025   4.260
 1415SOL    HW2 5659   1.337   0.071   4.404
 1415SOL     MW 5660   1.374   0.056   4.326
 1416SOL     OW 5661   1.530   4.975   4.434
 1416SOL    HW1 5662   1.476   5.025   4.373
 1416SOL    HW2 5663   1.476   4.965   4.512
 1416SOL     MW 5664   1.516   4.980   4.436
 1417SOL     OW 5665   1.832   0.761   1.201
 1417SOL    HW1 5666   1.826   0.669   1.226
 1417SOL    HW2 5667   1.916   0.790   1.236
 1417SOL     MW 5668   1.842   0.753   1.209
 1418SOL     OW 5669   1.262   4.808   2.636
 1418SOL    HW1 5670   1.353   4.815   2.666
 1418SOL    HW2 5671   1.267   4.765   2.551
 1418SOL     MW 5672   1.275   4.804   2.629
 1419SOL     OW 5673   1.188   0.387   3.569
 1419SOL    HW1 5674   1.123   0.456   3.580
 1419SOL    HW2 5675   1.265   0.432   3.534
 1419SOL     MW 5676   1.190   0.401   3.566
 1420SOL     OW 5677   2.649   1.613   4.439
 1420SOL    HW1 5678   2.677   1.524   4.420
 1420SOL    HW2 5679   2.616   1.609   4.529
 1420SOL     MW 5680   2.648   1.601   4.448
 1421SOL     OW 5681   3.586   5.436   4.277
 1421SOL    HW1 5682   3.656   5.473   4.331
 1421SOL    HW2 5683   3.594   5.341   4.290
 1421SOL     MW 5684   3.596   5.429   4.286
 1422SOL     OW 5685   3.274   4.679   3.099
 1422SOL    HW1 5686   3.306   4.661   3.011
 1422SOL    HW2 5687   3.200   4.619   3.111
 1422SOL     MW 5688   3.268   4.669   3.089
 1423SOL     OW 5689   0.099   2.894   1.034
 1423SOL    HW1 5690   0.189   2.892   1.002
 1423SOL    HW2 5691   0.091   2.817   1.090
 1423SOL     MW 5692   0.110   2.884   1.037
 1424SOL     OW 5693   2.269   5.426   5.395
 1424SOL    HW1 5694   2.279   5.366   5.469
 1424SOL    HW2 5695   2.181   5.409   5.362
 1424SOL     MW 5696   2.259   5.416   5.400
 1425SOL     OW 5697   4.258   5.418   1.006
 1425SOL    HW1 5698   4.285   5.477   0.936
 1425SOL    HW2 5699   4.198   5.469   1.060
 1425SOL     MW 5700   4.254   5.432   1.004
 1426SOL     OW 5701   0.727   4.050   1.498
 1426SOL    HW1 5702   0.743   4.145   1.499
 1426SOL    HW2 5703   0.789   4.015   1.562
 1426SOL     MW 5704   0.737   4.058   1.506
 1427SOL     OW 5705   0.885   4.901   0.880
 1427SOL    HW1 5706   0.921   4.961   0.815
 1427SOL    HW2 5707   0.920   4.815   0.856
 1427SOL     MW 5708   0.894   4.898   0.869
 1428SOL     OW 5709   5.208   3.411   4.315
 1428SOL    HW1 5710   5.254   3.486   4.353
 1428SOL    HW2 5711   5.262   3.384   4.241
 1428SOL     MW 5712   5.221   3.417   4.311
 1429SOL     OW 5713   0.939   0.148   4.937
 1429SOL    HW1 5714   0.884   0.126   5.012
 1429SOL    HW2 5715   0.947   0.244   4.940
 1429SOL     MW 5716   0.933   0.158   4.947
 1430SOL     OW 5717   0.951   3.630   3.965
 1430SOL    HW1 5718   0.928   3.558   4.023
 1430SOL    HW2 5719   0.877   3.691   3.972
 1430SOL     MW 5720   0.938   3.629   3.973
 1431SOL     OW 5721   5.342   4.716   3.571
 1431SOL    HW1 5722   5.424   4.739   3.528
 1431SOL    HW2 5723   5.362   4.718   3.664
 1431SOL     MW 5724   5.355   4.719   3.577
 1432SOL     OW 5725   3.169   4.937   1.118
 1432SOL    HW1 5726   3.095   4.908   1.065
 1432SOL    HW2 5727   3.136   4.937   1.208
 1432SOL     MW 5728   3.156   4.933   1.123
 1433SOL     OW 5729   4.790   1.707   5.037
 1433SOL    HW1 5730   4.729   1.671   4.973
 1433SOL    HW2 5731   4.798   1.639   5.104
 1433SOL     MW 5732   4.783   1.694   5.038
 1434SOL     OW 5733   3.430   3.071   3.591
 1434SOL    HW1 5734   3.364   3.091   3.524
 1434SOL    HW2 5735   3.486   3.006   3.551
 1434SOL     MW 5736   3.429   3.065   3.577
 1435SOL     OW 5737   2.793   1.883   0.467
 1435SOL    HW1 5738   2.781   1.818   0.398
 1435SOL    HW2 5739   2.881   1.918   0.453
 1435SOL     MW 5740   2.803   1.879   0.457
 1436SOL     OW 5741   4.087   0.440   3.082
 1436SOL    HW1 5742   4.052   0.482   3.161
 1436SOL    HW2 5743   4.009   0.416   3.031
 1436SOL     MW 5744   4.073   0.442   3.085
 1437SOL     OW 5745   1.648   4.400   1.082
 1437SOL    HW1 5746   1.709   4.326   1.085
 1437SOL    HW2 5747   1.651   4.437   1.170
 1437SOL     MW 5748   1.656   4.395   1.094
 1438SOL     OW 5749   3.164   4.717   5.117
 1438SOL    HW1 5750   3.254   4.724   5.148
 1438SOL    HW2 5751   3.113   4.696   5.195
 1438SOL     MW 5752   3.169   4.715   5.131
 1439SOL     OW 5753   4.048   1.511   2.235
 1439SOL    HW1 5754   4.136   1.516   2.273
 1439SOL    HW2 5755   4.062   1.524   2.141
 1439SOL     MW 5756   4.061   1.513   2.228
 1440SOL     OW 5757   4.930   2.650   3.882
 1440SOL    HW1 5758   4.837   2.630   3.868
 1440SOL    HW2 5759   4.946   2.624   3.973
 1440SOL     MW 5760   4.920   2.644   3.892
 1441SOL     OW 5761   1.245   0.609   1.720
 1441SOL    HW1 5762   1.239   0.687   1.664
 1441SOL    HW2 5763   1.317   0.628   1.780
 1441SOL     MW 5764   1.253   0.621   1.720
 1442SOL     OW 5765   3.774   4.423   1.074
 1442SOL    HW1 5766   3.857   4.377   1.088
 1442SOL    HW2 5767   3.748   4.453   1.161
 1442SOL     MW 5768   3.781   4.421   1.087
 1443SOL     OW 5769   0.040   5.442   4.125
 1443SOL    HW1 5770  -0.036   5.390   4.150
 1443SOL    HW2 5771   0.115   5.389   4.151
 1443SOL     MW 5772   0.040   5.429   4.131
 1444SOL     OW 5773   4.239   1.045   4.292
 1444SOL    HW1 5774   4.302   1.078   4.228
 1444SOL    HW2 5775   4.175   0.997   4.240
 1444SOL     MW 5776   4.239   1.043   4.277
 1445SOL     OW 5777   4.153   5.241   2.676
 1445SOL    HW1 5778   4.229   5.298   2.689
 1445SOL    HW2 5779   4.125   5.219   2.765
 1445SOL     MW 5780   4.159   5.245   2.689
 1446SOL     OW 5781   0.772   4.522   5.270
 1446SOL    HW1 5782   0.741   4.488   5.353
 1446SOL    HW2 5783   0.761   4.449   5.208
 1446SOL     MW 5784   0.767   4.508   5.273
 1447SOL     OW 5785   1.500   3.857   4.551
 1447SOL    HW1 5786   1.503   3.935   4.606
 1447SOL    HW2 5787   1.433   3.801   4.591
 1447SOL     MW 5788   1.492   3.860   4.563
 1448SOL     OW 5789   0.735   1.278   5.267
 1448SOL    HW1 5790   0.822   1.262   5.302
 1448SOL    HW2 5791   0.703   1.192   5.241
 1448SOL     MW 5792   0.742   1.265   5.268
 1449SOL     OW 5793   4.233   4.492   4.766
 1449SOL    HW1 5794   4.229   4.439   4.687
 1449SOL    HW2 5795   4.235   4.583   4.734
 1449SOL     MW 5796   4.233   4.497   4.752
 1450SOL     OW 5797   3.051   0.112   4.798
 1450SOL    HW1 5798   3.084   0.022   4.810
 1450SOL    HW2 5799   2.990   0.125   4.871
 1450SOL     MW 5800   3.048   0.102   4.809
 1451SOL     OW 5801   1.605   0.051   0.858
 1451SOL    HW1 5802   1.596   0.054   0.763
 1451SOL    HW2 5803   1.521   0.016   0.889
 1451SOL     MW 5804   1.593   0.047   0.850
 1452SOL     OW 5805   4.350   0.304   4.303
 1452SOL    HW1 5806   4.324   0.228   4.355
 1452SOL    HW2 5807   4.270   0.329   4.257
 1452SOL     MW 5808   4.336   0.297   4.304
 1453SOL     OW 5809   0.117   1.443   3.409
 1453SOL    HW1 5810   0.183   1.394   3.457
 1453SOL    HW2 5811   0.129   1.417   3.318
 1453SOL     MW 5812   0.127   1.434   3.403
 1454SOL     OW 5813   2.155   2.388   2.183
 1454SOL    HW1 5814   2.135   2.466   2.235
 1454SOL    HW2 5815   2.107   2.401   2.101
 1454SOL     MW 5816   2.146   2.400   2.179
 1455SOL     OW 5817   1.678   4.228   5.107
 1455SOL    HW1 5818   1.687   4.322   5.089
 1455SOL    HW2 5819   1.753   4.207   5.162
 1455SOL     MW 5820   1.688   4.238   5.112
 1456SOL     OW 5821   4.035   2.792   2.711
 1456SOL    HW1 5822   3.944   2.804   2.736
 1456SOL    HW2 5823   4.043   2.838   2.627
 1456SOL     MW 5824   4.024   2.800   2.704
 1457SOL     OW 5825   1.297   2.517   4.447
 1457SOL    HW1 5826   1.365   2.528   4.380
 1457SOL    HW2 5827   1.266   2.606   4.464
 1457SOL     MW 5828   1.302   2.530   4.440
 1458SOL     OW 5829   4.598   0.772   3.050
 1458SOL    HW1 5830   4.608   0.849   2.995
 1458SOL    HW2 5831   4.523   0.725   3.012
 1458SOL     MW 5832   4.590   0.776   3.038
 1459SOL     OW 5833   2.760   4.076   2.844
 1459SOL    HW1 5834   2.782   4.143   2.779
 1459SOL    HW2 5835   2.790   4.112   2.927
 1459SOL     MW 5836   2.766   4.089   2.846
 1460SOL     OW 5837   2.300   0.593   0.413
 1460SOL    HW1 5838   2.332   0.522   0.356
 1460SOL    HW2 5839   2.219   0.560   0.450
 1460SOL     MW 5840   2.294   0.580   0.410
 1461SOL     OW 5841   0.943   4.683   1.239
 1461SOL    HW1 5842   0.920   4.773   1.215
 1461SOL    HW2 5843   1.017   4.661   1.182
 1461SOL     MW 5844   0.949   4.692   1.229
 1462SOL     OW 5845   5.111   3.644   1.806
 1462SOL    HW1 5846   5.034   3.670   1.857
 1462SOL    HW2 5847   5.123   3.551   1.827
 1462SOL     MW 5848   5.103   3.635   1.815
 1463SOL     OW 5849   4.370   4.610   3.606
 1463SOL    HW1 5850   4.436   4.556   3.649
 1463SOL    HW2 5851   4.419   4.681   3.565
 1463SOL     MW 5852   4.384   4.612   3.606
 1464SOL     OW 5853   0.840   4.669   4.855
 1464SOL    HW1 5854   0.811   4.731   4.789
 1464SOL    HW2 5855   0.839   4.584   4.811
 1464SOL     MW 5856   0.836   4.666   4.841
 1465SOL     OW 5857   1.239   2.991   3.728
 1465SOL    HW1 5858   1.189   2.948   3.797
 1465SOL    HW2 5859   1.274   3.070   3.768
 1465SOL     MW 5860   1.237   2.996   3.742
 1466SOL     OW 5861   0.452   4.487   2.221
 1466SOL    HW1 5862   0.472   4.479   2.128
 1466SOL    HW2 5863   0.366   4.529   2.224
 1466SOL     MW 5864   0.443   4.491   2.210
 1467SOL     OW 5865   4.740   3.272   4.545
 1467SOL    HW1 5866   4.739   3.223   4.462
 1467SOL    HW2 5867   4.741   3.204   4.612
 1467SOL     MW 5868   4.740   3.257   4.543
 1468SOL     OW 5869   0.031   3.341   0.151
 1468SOL    HW1 5870  -0.000   3.252   0.136
 1468SOL    HW2 5871  -0.044   3.397   0.129
 1468SOL     MW 5872   0.017   3.337   0.146
 1469SOL     OW 5873   5.270   3.833   1.926
 1469SOL    HW1 5874   5.218   3.911   1.908
 1469SOL    HW2 5875   5.218   3.760   1.891
 1469SOL     MW 5876   5.257   3.833   1.919
 1470SOL     OW 5877   3.201   3.275   2.371
 1470SOL    HW1 5878   3.185   3.280   2.277
 1470SOL    HW2 5879   3.274   3.214   2.381
 1470SOL     MW 5880   3.208   3.268   2.361
 1471SOL     OW 5881   1.517   4.468   2.068
 1471SOL    HW1 5882   1.556   4.502   2.148
 1471SOL    HW2 5883   1.436   4.425   2.096
 1471SOL     MW 5884   1.512   4.467   2.082
 1472SOL     OW 5885   4.292   2.348   1.760
 1472SOL    HW1 5886   4.287   2.396   1.842
 1472SOL    HW2 5887   4.337   2.266   1.783
 1472SOL     MW 5888   4.297   2.343   1.773
 1473SOL     OW 5889   3.859   2.716   4.825
 1473SOL    HW1 5890   3.836   2.739   4.915
 1473SOL    HW2 5891   3.927   2.778   4.801
 1473SOL     MW 5892   3.865   2.727   4.834
 1474SOL     OW 5893   4.787   0.192   1.553
 1474SOL    HW1 5894   4.772   0.182   1.459
 1474SOL    HW2 5895   4.801   0.102   1.585
 1474SOL     MW 5896   4.787   0.179   1.545
 1475SOL     OW 5897   2.740   1.492   2.564
 1475SOL    HW1 5898   2.815   1.545   2.537
 1475SOL    HW2 5899   2.730   1.511   2.658
 1475SOL     MW 5900   2.748   1.501   2.573
 1476SOL     OW 5901   4.936   2.125   0.062
 1476SOL    HW1 5902   4.873   2.092   0.127
 1476SOL    HW2 5903   4.882   2.146  -0.014
 1476SOL     MW 5904   4.921   2.124   0.061
 1477SOL     OW 5905   3.937   2.831   0.978
 1477SOL    HW1 5906   3.989   2.867   1.049
 1477SOL    HW2 5907   3.950   2.736   0.984
 1477SOL     MW 5908   3.945   2.823   0.988
 1478SOL     OW 5909   4.653   3.479   2.567
 1478SOL    HW1 5910   4.619   3.443   2.485
 1478SOL    HW2 5911   4.621   3.418   2.634
 1478SOL     MW 5912   4.644   3.466   2.565
 1479SOL     OW 5913   3.309   2.967   4.869
 1479SOL    HW1 5914   3.404   2.957   4.880
 1479SOL    HW2 5915   3.278   2.880   4.846
 1479SOL     MW 5916   3.318   2.955   4.867
 1480SOL     OW 5917   5.253   4.831   2.159
 1480SOL    HW1 5918   5.278   4.753   2.109
 1480SOL    HW2 5919   5.163   4.814   2.186
 1480SOL     MW 5920   5.245   4.819   2.156
 1481SOL     OW 5921   4.096   4.297   2.146
 1481SOL    HW1 5922   4.167   4.311   2.209
 1481SOL    HW2 5923   4.123   4.220   2.096
 1481SOL     MW 5924   4.109   4.289   2.148
 1482SOL     OW 5925   1.911   4.948   2.558
 1482SOL    HW1 5926   1.821   4.920   2.540
 1482SOL    HW2 5927   1.905   5.042   2.572
 1482SOL     MW 5928   1.899   4.956   2.558
 1483SOL     OW 5929   2.783   3.140   0.441
 1483SOL    HW1 5930   2.864   3.166   0.486
 1483SOL    HW2 5931   2.812   3.108   0.356
 1483SOL     MW 5932   2.797   3.139   0.436
 1484SOL     OW 5933   5.212   5.186   2.400
 1484SOL    HW1 5934   5.202   5.239   2.478
 1484SOL    HW2 5935   5.151   5.114   2.411
 1484SOL     MW 5936   5.203   5.184   2.411
 1485SOL     OW 5937   2.077   0.826   1.305
 1485SOL    HW1 5938   2.105   0.915   1.329
 1485SOL    HW2 5939   2.149   0.793   1.250
 1485SOL     MW 5940   2.090   0.833   1.301
 1486SOL     OW 5941   4.282   4.285   1.025
 1486SOL    HW1 5942   4.307   4.250   0.939
 1486SOL    HW2 5943   4.225   4.359   1.005
 1486SOL     MW 5944   4.278   4.290   1.011
 1487SOL     OW 5945   0.073   3.268   2.571
 1487SOL    HW1 5946   0.008   3.238   2.507
 1487SOL    HW2 5947   0.153   3.279   2.521
 1487SOL     MW 5948   0.075   3.266   2.557
 1488SOL     OW 5949   3.943   4.269   2.545
 1488SOL    HW1 5950   3.996   4.340   2.508
 1488SOL    HW2 5951   3.953   4.278   2.639
 1488SOL     MW 5952   3.951   4.279   2.552
 1489SOL     OW 5953   1.319   3.598   1.460
 1489SOL    HW1 5954   1.327   3.652   1.539
 1489SOL    HW2 5955   1.334   3.509   1.491
 1489SOL     MW 5956   1.322   3.594   1.474
 1490SOL     OW 5957   4.532   1.660   2.290
 1490SOL    HW1 5958   4.474   1.729   2.323
 1490SOL    HW2 5959   4.584   1.634   2.367
 1490SOL     MW 5960   4.532   1.665   2.304
 1491SOL     OW 5961   3.158   0.680   0.045
 1491SOL    HW1 5962   3.237   0.687  -0.009
 1491SOL    HW2 5963   3.154   0.588   0.069
 1491SOL     MW 5964   3.168   0.669   0.041
 1492SOL     OW 5965   1.770   1.139   1.274
 1492SOL    HW1 5966   1.701   1.073   1.266
 1492SOL    HW2 5967   1.819   1.113   1.353
 1492SOL     MW 5968   1.768   1.127   1.283
 1493SOL     OW 5969   3.313   4.233   3.349
 1493SOL    HW1 5970   3.228   4.256   3.312
 1493SOL    HW2 5971   3.307   4.139   3.367
 1493SOL     MW 5972   3.301   4.224   3.346
 1494SOL     OW 5973   2.496   4.340   4.372
 1494SOL    HW1 5974   2.417   4.382   4.407
 1494SOL    HW2 5975   2.475   4.247   4.371
 1494SOL     MW 5976   2.483   4.334   4.377
 1495SOL     OW 5977   4.814   2.788   0.798
 1495SOL    HW1 5978   4.804   2.730   0.873
 1495SOL    HW2 5979   4.873   2.857   0.829
 1495SOL     MW 5980   4.820   2.790   0.811
 1496SOL     OW 5981   0.792   0.762   1.898
 1496SOL    HW1 5982   0.746   0.713   1.966
 1496SOL    HW2 5983   0.884   0.741   1.910
 1496SOL     MW 5984   0.798   0.753   1.908
 1497SOL     OW 5985   0.044   2.860   2.209
 1497SOL    HW1 5986   0.090   2.844   2.126
 1497SOL    HW2 5987  -0.030   2.916   2.185
 1497SOL     MW 5988   0.041   2.865   2.195
 1498SOL     OW 5989   1.031   3.921   2.155
 1498SOL    HW1 5990   0.998   3.993   2.100
 1498SOL    HW2 5991   0.953   3.869   2.175
 1498SOL     MW 5992   1.017   3.924   2.151
 1499SOL     OW 5993   3.697   4.319   5.469
 1499SOL    HW1 5994   3.693   4.405   5.427
 1499SOL    HW2 5995   3.718   4.259   5.397
 1499SOL     MW 5996   3.699   4.322   5.454
 1500SOL     OW 5997   3.121   2.083   5.195
 1500SOL    HW1 5998   3.145   2.172   5.219
 1500SOL    HW2 5999   3.080   2.047   5.274
 1500SOL     MW 6000   3.119   2.090   5.208
 1501SOL     OW 6001   2.579   1.677   1.365
 1501SOL    HW1 6002   2.614   1.750   1.315
 1501SOL    HW2 6003   2.529   1.718   1.436
 1501SOL     MW 6004   2.577   1.691   1.368
 1502SOL     OW 6005   0.357   1.001   0.952
 1502SOL    HW1 6006   0.319   0.918   0.980
 1502SOL    HW2 6007   0.282   1.056   0.929
 1502SOL     MW 6008   0.343   0.997   0.953
 1503SOL     OW 6009   1.442   1.141   5.436
 1503SOL    HW1 6010   1.523   1.138   5.385
 1503SOL    HW2 6011   1.452   1.217   5.493
 1503SOL     MW 6012   1.453   1.150   5.436
 1504SOL     OW 6013   2.442   1.396   0.826
 1504SOL    HW1 6014   2.504   1.361   0.762
 1504SOL    HW2 6015   2.379   1.447   0.774
 1504SOL     MW 6016   2.442   1.398   0.811
 1505SOL     OW 6017   3.267   0.574   0.922
 1505SOL    HW1 6018   3.285   0.531   1.005
 1505SOL    HW2 6019   3.354   0.591   0.884
 1505SOL     MW 6020   3.281   0.571   0.928
 1506SOL     OW 6021   2.996   5.449   0.073
 1506SOL    HW1 6022   2.914   5.409   0.099
 1506SOL    HW2 6023   2.974   5.500  -0.006
 1506SOL     MW 6024   2.983   5.450   0.066
 1507SOL     OW 6025   3.573   3.178   2.028
 1507SOL    HW1 6026   3.536   3.259   2.064
 1507SOL    HW2 6027   3.598   3.126   2.105
 1507SOL     MW 6028   3.572   3.181   2.043
 1508SOL     OW 6029   0.404   4.476   3.551
 1508SOL    HW1 6030   0.371   4.478   3.641
 1508SOL    HW2 6031   0.402   4.383   3.527
 1508SOL     MW 6032   0.399   4.464   3.560
 1509SOL     OW 6033   1.193   3.041   4.835
 1509SOL    HW1 6034   1.189   3.100   4.910
 1509SOL    HW2 6035   1.173   3.097   4.759
 1509SOL     MW 6036   1.190   3.056   4.834
 1510SOL     OW 6037   2.393   0.093   1.797
 1510SOL    HW1 6038   2.390   0.119   1.705
 1510SOL    HW2 6039   2.342   0.159   1.844
 1510SOL     MW 6040   2.386   0.104   1.791
 1511SOL     OW 6041   0.159   4.247   2.741
 1511SOL    HW1 6042   0.253   4.256   2.725
 1511SOL    HW2 6043   0.123   4.332   2.714
 1511SOL     MW 6044   0.166   4.259   2.735
 1512SOL     OW 6045   2.332   5.382   3.598
 1512SOL    HW1 6046   2.366   5.345   3.516
 1512SOL    HW2 6047   2.342   5.312   3.662
 1512SOL     MW 6048   2.338   5.368   3.596
 1513SOL     OW 6049   5.432   1.541   0.097
 1513SOL    HW1 6050   5.390   1.508   0.017
 1513SOL    HW2 6051   5.427   1.636   0.089
 1513SOL     MW 6052   5.426   1.549   0.085
 1514SOL     OW 6053   0.251   0.007   1.863
 1514SOL    HW1 6054   0.254   0.034   1.955
 1514SOL    HW2 6055   0.210   0.081   1.818
 1514SOL     MW 6056   0.246   0.020   1.869
 1515SOL     OW 6057   2.152   1.916   2.191
 1515SOL    HW1 6058   2.097   1.842   2.216
 1515SOL    HW2 6059   2.100   1.994   2.212
 1515SOL     MW 6060   2.138   1.917   2.197
 1516SOL     OW 6061   1.280   3.529   4.037
 1516SOL    HW1 6062   1.253   3.621   4.044
 1516SOL    HW2 6063   1.366   3.526   4.080
 1516SOL     MW 6064   1.288   3.541   4.043
 1517SOL     OW 6065   4.558   0.179   0.987
 1517SOL    HW1 6066   4.568   0.252   1.048
 1517SOL    HW2 6067   4.616   0.202   0.914
 1517SOL     MW 6068   4.567   0.192   0.985
 1518SOL     OW 6069   2.784   3.971   3.607
 1518SOL    HW1 6070   2.782   3.883   3.567
 1518SOL    HW2 6071   2.855   3.966   3.671
 1518SOL     MW 6072   2.793   3.959   3.610
 1519SOL     OW 6073   1.049   4.156   1.741
 1519SOL    HW1 6074   1.049   4.245   1.705
 1519SOL    HW2 6075   1.053   4.169   1.836
 1519SOL     MW 6076   1.049   4.169   1.748
 1520SOL     OW 6077   4.538   4.981   3.839
 1520SOL    HW1 6078   4.603   5.015   3.777
 1520SOL    HW2 6079   4.460   4.965   3.787
 1520SOL     MW 6080   4.537   4.983   3.825
 1521SOL     OW 6081   5.337   1.133   1.288
 1521SOL    HW1 6082   5.311   1.214   1.331
 1521SOL    HW2 6083   5.255   1.096   1.256
 1521SOL     MW 6084   5.323   1.138   1.289
 1522SOL     OW 6085   1.178   0.891   5.492
 1522SOL    HW1 6086   1.108   0.834   5.523
 1522SOL    HW2 6087   1.173   0.885   5.397
 1522SOL     MW 6088   1.168   0.883   5.484
 1523SOL     OW 6089   4.092   4.324   3.196
 1523SOL    HW1 6090   4.035   4.334   3.272
 1523SOL    HW2 6091   4.103   4.413   3.162
 1523SOL     MW 6092   4.086   4.336   3.201
 1524SOL     OW 6093   0.008   3.341   3.651
 1524SOL    HW1 6094   0.087   3.379   3.690
 1524SOL    HW2 6095   0.023   3.246   3.654
 1524SOL     MW 6096   0.020   3.334   3.656
 1525SOL     OW 6097   4.615   4.509   0.052
 1525SOL    HW1 6098   4.605   4.569   0.126
 1525SOL    HW2 6099   4.569   4.430   0.078
 1525SOL     MW 6100   4.608   4.507   0.065
 1526SOL     OW 6101   3.335   2.870   4.337
 1526SOL    HW1 6102   3.257   2.924   4.329
 1526SOL    HW2 6103   3.317   2.793   4.283
 1526SOL     MW 6104   3.323   2.867   4.329
 1527SOL     OW 6105   4.434   0.814   5.110
 1527SOL    HW1 6106   4.481   0.888   5.071
 1527SOL    HW2 6107   4.446   0.825   5.204
 1527SOL     MW 6108   4.441   0.825   5.117
 1528SOL     OW 6109   0.883   3.813   1.162
 1528SOL    HW1 6110   0.832   3.892   1.181
 1528SOL    HW2 6111   0.900   3.774   1.247
 1528SOL     MW 6112   0.878   3.818   1.175
 1529SOL     OW 6113   1.338   1.972   4.899
 1529SOL    HW1 6114   1.426   1.934   4.899
 1529SOL    HW2 6115   1.348   2.055   4.945
 1529SOL     MW 6116   1.351   1.977   4.905
 1530SOL     OW 6117   3.347   2.347   4.196
 1530SOL    HW1 6118   3.271   2.324   4.250
 1530SOL    HW2 6119   3.352   2.442   4.202
 1530SOL     MW 6120   3.338   2.356   4.204
 1531SOL     OW 6121   4.008   4.776   0.443
 1531SOL    HW1 6122   4.009   4.683   0.466
 1531SOL    HW2 6123   3.915   4.799   0.442
 1531SOL     MW 6124   3.996   4.767   0.446
 1532SOL     OW 6125   0.769   2.458   1.299
 1532SOL    HW1 6126   0.750   2.542   1.339
 1532SOL    HW2 6127   0.685   2.412   1.297
 1532SOL     MW 6128   0.756   2.463   1.304
 1533SOL     OW 6129   4.480   1.808   4.124
 1533SOL    HW1 6130   4.395   1.843   4.096
 1533SOL    HW2 6131   4.537   1.885   4.127
 1533SOL     MW 6132   4.476   1.823   4.121
 1534SOL     OW 6133   4.129   1.666   4.011
 1534SOL    HW1 6134   4.147   1.636   4.100
 1534SOL    HW2 6135   4.168   1.753   4.006
 1534SOL     MW 6136   4.136   1.673   4.022
 1535SOL     OW 6137   3.779   2.149   4.441
 1535SOL    HW1 6138   3.691   2.172   4.411
 1535SOL    HW2 6139   3.776   2.162   4.536
 1535SOL     MW 6140   3.767   2.154   4.449
 1536SOL     OW 6141   2.505   4.249   2.370
 1536SOL    HW1 6142   2.563   4.236   2.445
 1536SOL    HW2 6143   2.564   4.258   2.295
 1536SOL     MW 6144   2.520   4.248   2.370
 1537SOL     OW 6145   4.305   4.076   1.227
 1537SOL    HW1 6146   4.286   4.149   1.169
 1537SOL    HW2 6147   4.269   4.102   1.311
 1537SOL     MW 6148   4.298   4.088   1.230
 1538SOL     OW 6149   4.745   0.158   5.173
 1538SOL    HW1 6150   4.780   0.171   5.261
 1538SOL    HW2 6151   4.816   0.181   5.114
 1538SOL     MW 6152   4.758   0.162   5.177
 1539SOL     OW 6153   2.145   2.259   1.770
 1539SOL    HW1 6154   2.216   2.201   1.800
 1539SOL    HW2 6155   2.137   2.241   1.677
 1539SOL     MW 6156   2.153   2.249   1.762
 1540SOL     OW 6157   4.561   4.519   3.987
 1540SOL    HW1 6158   4.558   4.479   3.900
 1540SOL    HW2 6159   4.470   4.543   4.005
 1540SOL     MW 6160   4.549   4.517   3.978
 1541SOL     OW 6161   4.021   1.602   0.892
 1541SOL    HW1 6162   4.113   1.581   0.872
 1541SOL    HW2 6163   3.985   1.631   0.809
 1541SOL     MW 6164   4.028   1.603   0.879
 1542SOL     OW 6165   4.629   1.795   2.916
 1542SOL    HW1 6166   4.679   1.870   2.949
 1542SOL    HW2 6167   4.627   1.733   2.989
 1542SOL     MW 6168   4.635   1.796   2.929
 1543SOL     OW 6169   3.609   1.022   2.362
 1543SOL    HW1 6170   3.645   1.066   2.439
 1543SOL    HW2 6171   3.658   0.940   2.357
 1543SOL     MW 6172   3.620   1.017   2.371
 1544SOL     OW 6173   5.092   4.814   5.109
 1544SOL    HW1 6174   5.006   4.796   5.147
 1544SOL    HW2 6175   5.104   4.746   5.043
 1544SOL     MW 6176   5.083   4.803   5.105
 1545SOL     OW 6177   1.828   2.756   2.459
 1545SOL    HW1 6178   1.758   2.727   2.518
 1545SOL    HW2 6179   1.909   2.734   2.506
 1545SOL     MW 6180   1.829   2.749   2.473
 1546SOL     OW 6181   2.159   3.674   3.702
 1546SOL    HW1 6182   2.132   3.682   3.794
 1546SOL    HW2 6183   2.252   3.696   3.702
 1546SOL     MW 6184   2.167   3.678   3.714
 1547SOL     OW 6185   4.192   2.860   5.343
 1547SOL    HW1 6186   4.266   2.798   5.341
 1547SOL    HW2 6187   4.220   2.932   5.287
 1547SOL     MW 6188   4.205   2.861   5.336
 1548SOL     OW 6189   1.631   2.806   3.048
 1548SOL    HW1 6190   1.644   2.732   2.988
 1548SOL    HW2 6191   1.632   2.883   2.992
 1548SOL     MW 6192   1.633   2.806   3.033
 1549SOL     OW 6193   3.752   0.655   4.268
 1549SOL    HW1 6194   3.679   0.688   4.322
 1549SOL    HW2 6195   3.775   0.729   4.212
 1549SOL     MW 6196   3.745   0.669   4.268
 1550SOL     OW 6197   1.488   2.009   2.479
 1550SOL    HW1 6198   1.435   2.037   2.404
 1550SOL    HW2 6199   1.570   2.056   2.470
 1550SOL     MW 6200   1.492   2.019   2.468
 1551SOL     OW 6201   4.209   1.081   5.332
 1551SOL    HW1 6202   4.205   1.043   5.243
 1551SOL    HW2 6203   4.118   1.078   5.362
 1551SOL     MW 6204   4.196   1.076   5.324
 1552SOL     OW 6205   1.751   1.995   0.866
 1552SOL    HW1 6206   1.711   1.943   0.935
 1552SOL    HW2 6207   1.683   2.057   0.840
 1552SOL     MW 6208   1.737   1.996   0.872
 1553SOL     OW 6209   3.204   0.314   0.362
 1553SOL    HW1 6210   3.119   0.332   0.402
 1553SOL    HW2 6211   3.194   0.339   0.270
 1553SOL     MW 6212   3.192   0.320   0.355
 1554SOL     OW 6213   1.274   3.100   2.226
 1554SOL    HW1 6214   1.298   3.093   2.319
 1554SOL    HW2 6215   1.310   3.184   2.198
 1554SOL     MW 6216   1.282   3.110   2.234
 1555SOL     OW 6217   1.582   2.983   1.838
 1555SOL    HW1 6218   1.671   3.014   1.857
 1555SOL    HW2 6219   1.532   3.062   1.818
 1555SOL     MW 6220   1.587   2.997   1.838
 1556SOL     OW 6221   5.063   5.213   3.178
 1556SOL    HW1 6222   5.058   5.119   3.158
 1556SOL    HW2 6223   5.109   5.250   3.103
 1556SOL     MW 6224   5.068   5.206   3.166
 1557SOL     OW 6225   3.839   4.225   2.062
 1557SOL    HW1 6226   3.922   4.252   2.102
 1557SOL    HW2 6227   3.786   4.305   2.061
 1557SOL     MW 6228   3.843   4.239   2.067
 1558SOL     OW 6229   3.561   3.424   0.979
 1558SOL    HW1 6230   3.571   3.422   0.884
 1558SOL    HW2 6231   3.592   3.338   1.008
 1558SOL     MW 6232   3.566   3.413   0.971
 1559SOL     OW 6233   3.697   4.515   1.317
 1559SOL    HW1 6234   3.612   4.547   1.288
 1559SOL    HW2 6235   3.679   4.468   1.399
 1559SOL     MW 6236   3.684   4.513   1.324
 1560SOL     OW 6237   5.306   0.591   3.332
 1560SOL    HW1 6238   5.332   0.523   3.393
 1560SOL    HW2 6239   5.279   0.544   3.253
 1560SOL     MW 6240   5.306   0.577   3.330
 1561SOL     OW 6241   2.828   4.031   0.582
 1561SOL    HW1 6242   2.857   3.990   0.501
 1561SOL    HW2 6243   2.732   4.029   0.578
 1561SOL     MW 6244   2.819   4.026   0.571
 1562SOL     OW 6245   1.885   4.041   0.900
 1562SOL    HW1 6246   1.798   4.002   0.888
 1562SOL    HW2 6247   1.935   3.973   0.944
 1562SOL     MW 6248   1.880   4.027   0.904
 1563SOL     OW 6249   3.758   0.119   4.425
 1563SOL    HW1 6250   3.807   0.080   4.497
 1563SOL    HW2 6251   3.699   0.182   4.467
 1563SOL     MW 6252   3.757   0.122   4.439
 1564SOL     OW 6253   0.240   5.352   4.650
 1564SOL    HW1 6254   0.188   5.283   4.691
 1564SOL    HW2 6255   0.305   5.375   4.717
 1564SOL     MW 6256   0.242   5.346   4.664
 1565SOL     OW 6257   0.489   3.165   2.607
 1565SOL    HW1 6258   0.561   3.154   2.545
 1565SOL    HW2 6259   0.478   3.078   2.647
 1565SOL     MW 6260   0.497   3.152   2.605
 1566SOL     OW 6261   1.996   2.056   0.995
 1566SOL    HW1 6262   1.923   2.025   0.942
 1566SOL    HW2 6263   1.987   2.152   0.994
 1566SOL     MW 6264   1.985   2.064   0.988
 1567SOL     OW 6265   1.006   2.769   3.615
 1567SOL    HW1 6266   1.075   2.749   3.552
 1567SOL    HW2 6267   0.941   2.818   3.565
 1567SOL     MW 6268   1.006   2.773   3.601
 1568SOL     OW 6269   5.351   2.726   2.762
 1568SOL    HW1 6270   5.317   2.802   2.714
 1568SOL    HW2 6271   5.429   2.700   2.714
 1568SOL     MW 6272   5.357   2.733   2.750
 1569SOL     OW 6273   5.161   4.266   3.477
 1569SOL    HW1 6274   5.174   4.344   3.530
 1569SOL    HW2 6275   5.074   4.279   3.437
 1569SOL     MW 6276   5.151   4.277   3.479
 1570SOL     OW 6277   2.867   3.067   0.189
 1570SOL    HW1 6278   2.835   3.130   0.125
 1570SOL    HW2 6279   2.961   3.080   0.191
 1570SOL     MW 6280   2.875   3.077   0.181
 1571SOL     OW 6281   3.366   5.071   2.442
 1571SOL    HW1 6282   3.287   5.062   2.389
 1571SOL    HW2 6283   3.343   5.135   2.509
 1571SOL     MW 6284   3.353   5.078   2.444
 1572SOL     OW 6285   1.528   3.832   1.361
 1572SOL    HW1 6286   1.553   3.913   1.406
 1572SOL    HW2 6287   1.466   3.860   1.294
 1572SOL     MW 6288   1.523   3.846   1.358
 1573SOL     OW 6289   4.239   2.949   0.510
 1573SOL    HW1 6290   4.275   2.900   0.436
 1573SOL    HW2 6291   4.306   3.014   0.530
 1573SOL     MW 6292   4.252   2.951   0.503
 1574SOL     OW 6293   0.269   4.965   5.056
 1574SOL    HW1 6294   0.182   4.951   5.093
 1574SOL    HW2 6295   0.325   4.901   5.100
 1574SOL     MW 6296   0.265   4.955   5.066
 1575SOL     OW 6297   0.050   2.027   3.077
 1575SOL    HW1 6298   0.136   1.986   3.077
 1575SOL    HW2 6299   0.043   2.067   3.164
 1575SOL     MW 6300   0.060   2.027   3.088
 1576SOL     OW 6301   4.584   1.067   3.502
 1576SOL    HW1 6302   4.545   1.112   3.426
 1576SOL    HW2 6303   4.609   1.138   3.561
 1576SOL     MW 6304   4.582   1.082   3.500
 1577SOL     OW 6305   0.873   1.837   2.867
 1577SOL    HW1 6306   0.898   1.746   2.856
 1577SOL    HW2 6307   0.795   1.835   2.922
 1577SOL     MW 6308   0.866   1.825   2.873
 1578SOL     OW 6309   0.651   4.698   1.609
 1578SOL    HW1 6310   0.643   4.793   1.600
 1578SOL    HW2 6311   0.739   4.678   1.578
 1578SOL     MW 6312   0.661   4.708   1.604
 1579SOL     OW 6313   0.100   2.676   1.210
 1579SOL    HW1 6314   0.185   2.667   1.167
 1579SOL    HW2 6315   0.063   2.588   1.210
 1579SOL     MW 6316   0.106   2.664   1.205
 1580SOL     OW 6317   1.145   5.327   2.172
 1580SOL    HW1 6318   1.196   5.408   2.168
 1580SOL    HW2 6319   1.206   5.262   2.207
 1580SOL     MW 6320   1.159   5.329   2.176
 1581SOL     OW 6321   2.710   4.478   4.718
 1581SOL    HW1 6322   2.792   4.450   4.677
 1581SOL    HW2 6323   2.726   4.569   4.743
 1581SOL     MW 6324   2.723   4.486   4.716
 1582SOL     OW 6325   1.830   0.696   4.005
 1582SOL    HW1 6326   1.876   0.613   3.996
 1582SOL    HW2 6327   1.855   0.728   4.092
 1582SOL     MW 6328   1.839   0.690   4.015
 1583SOL     OW 6329   1.975   0.581   4.391
 1583SOL    HW1 6330   1.964   0.663   4.342
 1583SOL    HW2 6331   1.893   0.535   4.379
 1583SOL     MW 6332   1.963   0.586   4.384
 1584SOL     OW 6333   1.341   2.189   4.233
 1584SOL    HW1 6334   1.283   2.258   4.267
 1584SOL    HW2 6335   1.343   2.123   4.302
 1584SOL     MW 6336   1.333   2.189   4.246
 1585SOL     OW 6337   0.465   0.815   1.559
 1585SOL    HW1 6338   0.480   0.881   1.491
 1585SOL    HW2 6339   0.414   0.747   1.515
 1585SOL     MW 6340   0.460   0.815   1.544
 1586SOL     OW 6341   3.820   2.005   2.907
 1586SOL    HW1 6342   3.910   2.026   2.932
 1586SOL    HW2 6343   3.779   2.090   2.892
 1586SOL     MW 6344   3.826   2.019   2.909
 1587SOL     OW 6345   5.050   3.276   0.470
 1587SOL    HW1 6346   4.970   3.265   0.521
 1587SOL    HW2 6347   5.032   3.233   0.386
 1587SOL     MW 6348   5.038   3.269   0.466
 1588SOL     OW 6349   5.348   3.716   2.803
 1588SOL    HW1 6350   5.330   3.810   2.808
 1588SOL    HW2 6351   5.444   3.711   2.804
 1588SOL     MW 6352   5.358   3.728   2.804
 1589SOL     OW 6353   4.952   4.994   1.586
 1589SOL    HW1 6354   5.040   4.967   1.561
 1589SOL    HW2 6355   4.909   4.914   1.616
 1589SOL     MW 6356   4.958   4.980   1.586
 1590SOL     OW 6357   4.422   4.377   1.239
 1590SOL    HW1 6358   4.382   4.346   1.157
 1590SOL    HW2 6359   4.513   4.347   1.232
 1590SOL     MW 6360   4.429   4.369   1.227
 1591SOL     OW 6361   1.179   4.075   2.565
 1591SOL    HW1 6362   1.228   4.017   2.623
 1591SOL    HW2 6363   1.099   4.025   2.544
 1591SOL     MW 6364   1.175   4.061   2.570
 1592SOL     OW 6365   4.303   5.411   3.321
 1592SOL    HW1 6366   4.258   5.327   3.327
 1592SOL    HW2 6367   4.272   5.460   3.397
 1592SOL     MW 6368   4.293   5.406   3.332
 1593SOL     OW 6369   5.053   5.229   2.179
 1593SOL    HW1 6370   5.104   5.168   2.125
 1593SOL    HW2 6371   5.106   5.243   2.257
 1593SOL     MW 6372   5.066   5.223   2.182
 1594SOL     OW 6373   4.703   5.369   2.342
 1594SOL    HW1 6374   4.677   5.279   2.321
 1594SOL    HW2 6375   4.627   5.408   2.385
 1594SOL     MW 6376   4.690   5.363   2.344
 1595SOL     OW 6377   4.378   4.015   0.148
 1595SOL    HW1 6378   4.337   3.981   0.228
 1595SOL    HW2 6379   4.369   3.943   0.085
 1595SOL     MW 6380   4.371   4.001   0.151
 1596SOL     OW 6381   4.328   0.472   2.081
 1596SOL    HW1 6382   4.298   0.489   1.992
 1596SOL    HW2 6383   4.248   0.473   2.134
 1596SOL     MW 6384   4.314   0.474   2.076
 1597SOL     OW 6385   3.787   3.713   2.985
 1597SOL    HW1 6386   3.726   3.659   2.935
 1597SOL    HW2 6387   3.844   3.651   3.030
 1597SOL     MW 6388   3.786   3.699   2.985
 1598SOL     OW 6389   4.731   4.468   3.354
 1598SOL    HW1 6390   4.732   4.563   3.339
 1598SOL    HW2 6391   4.747   4.459   3.448
 1598SOL     MW 6392   4.733   4.479   3.364
 1599SOL     OW 6393   5.174   1.204   2.012
 1599SOL    HW1 6394   5.249   1.176   2.065
 1599SOL    HW2 6395   5.155   1.127   1.957
 1599SOL     MW 6396   5.181   1.190   2.012
 1600SOL     OW 6397   3.584   1.903   1.599
 1600SOL    HW1 6398   3.645   1.918   1.672
 1600SOL    HW2 6399   3.505   1.952   1.624
 1600SOL     MW 6400   3.581   1.911   1.612
 1601SOL     OW 6401   4.231   2.663   5.012
 1601SOL    HW1 6402   4.249   2.614   5.093
 1601SOL    HW2 6403   4.141   2.694   5.023
 1601SOL     MW 6404   4.222   2.660   5.024
 1602SOL     OW 6405   4.208   5.103   3.928
 1602SOL    HW1 6406   4.292   5.104   3.975
 1602SOL    HW2 6407   4.229   5.063   3.844
 1602SOL     MW 6408   4.222   5.098   3.924
 1603SOL     OW 6409   2.667   0.255   0.206
 1603SOL    HW1 6410   2.611   0.219   0.275
 1603SOL    HW2 6411   2.606   0.278   0.136
 1603SOL     MW 6412   2.652   0.253   0.206
 1604SOL     OW 6413   5.393   5.414   0.718
 1604SOL    HW1 6414   5.313   5.408   0.664
 1604SOL    HW2 6415   5.461   5.374   0.664
 1604SOL     MW 6416   5.391   5.408   0.704
 1605SOL     OW 6417   2.224   5.345   2.316
 1605SOL    HW1 6418   2.154   5.298   2.271
 1605SOL    HW2 6419   2.202   5.339   2.409
 1605SOL     MW 6420   2.212   5.338   2.322
 1606SOL     OW 6421   3.082   3.886   4.328
 1606SOL    HW1 6422   3.021   3.838   4.272
 1606SOL    HW2 6423   3.062   3.978   4.310
 1606SOL     MW 6424   3.072   3.892   4.319
 1607SOL     OW 6425   0.556   5.010   5.315
 1607SOL    HW1 6426   0.562   4.987   5.407
 1607SOL    HW2 6427   0.518   4.933   5.273
 1607SOL     MW 6428   0.552   4.997   5.321
 1608SOL     OW 6429   1.129   4.804   0.234
 1608SOL    HW1 6430   1.156   4.744   0.304
 1608SOL    HW2 6431   1.034   4.791   0.227
 1608SOL     MW 6432   1.120   4.795   0.242
 1609SOL     OW 6433   4.032   4.469   4.950
 1609SOL    HW1 6434   4.065   4.389   4.989
 1609SOL    HW2 6435   4.096   4.492   4.883
 1609SOL     MW 6436   4.044   4.462   4.946
 1610SOL     OW 6437   3.431   0.922   5.162
 1610SOL    HW1 6438   3.376   0.997   5.185
 1610SOL    HW2 6439   3.518   0.946   5.191
 1610SOL     MW 6440   3.435   0.934   5.169
 1611SOL     OW 6441   0.238   2.812   2.919
 1611SOL    HW1 6442   0.148   2.803   2.950
 1611SOL    HW2 6443   0.276   2.725   2.930
 1611SOL     MW 6444   0.232   2.800   2.925
 1612SOL     OW 6445   3.785   4.807   4.961
 1612SOL    HW1 6446   3.703   4.786   4.917
 1612SOL    HW2 6447   3.765   4.884   5.014
 1612SOL     MW 6448   3.772   4.814   4.962
 1613SOL     OW 6449   4.228   1.446   3.102
 1613SOL    HW1 6450   4.164   1.406   3.161
 1613SOL    HW2 6451   4.311   1.443   3.149
 1613SOL     MW 6452   4.230   1.441   3.115
 1614SOL     OW 6453   0.442   4.810   1.314
 1614SOL    HW1 6454   0.487   4.731   1.344
 1614SOL    HW2 6455   0.430   4.862   1.393
 1614SOL     MW 6456   0.446   4.807   1.328
 1615SOL     OW 6457   4.612   3.790   0.389
 1615SOL    HW1 6458   4.620   3.880   0.419
 1615SOL    HW2 6459   4.615   3.796   0.293
 1615SOL     MW 6460   4.613   3.802   0.380
 1616SOL     OW 6461   3.369   0.522   0.409
 1616SOL    HW1 6462   3.313   0.446   0.394
 1616SOL    HW2 6463   3.316   0.596   0.380
 1616SOL     MW 6464   3.355   0.522   0.403
 1617SOL     OW 6465   3.221   2.341   5.237
 1617SOL    HW1 6466   3.170   2.421   5.247
 1617SOL    HW2 6467   3.281   2.342   5.311
 1617SOL     MW 6468   3.222   2.351   5.248
 1618SOL     OW 6469   5.256   3.322   2.862
 1618SOL    HW1 6470   5.218   3.393   2.810
 1618SOL    HW2 6471   5.350   3.336   2.858
 1618SOL     MW 6472   5.263   3.333   2.855
 1619SOL     OW 6473   2.168   5.287   2.579
 1619SOL    HW1 6474   2.218   5.206   2.589
 1619SOL    HW2 6475   2.077   5.259   2.580
 1619SOL     MW 6476   2.163   5.273   2.580
 1620SOL     OW 6477   0.803   2.393   2.460
 1620SOL    HW1 6478   0.784   2.461   2.524
 1620SOL    HW2 6479   0.792   2.310   2.507
 1620SOL     MW 6480   0.799   2.391   2.474
 1621SOL     OW 6481   1.248   1.536   1.945
 1621SOL    HW1 6482   1.261   1.530   2.040
 1621SOL    HW2 6483   1.337   1.531   1.909
 1621SOL     MW 6484   1.261   1.534   1.952
 1622SOL     OW 6485   5.169   4.643   0.528
 1622SOL    HW1 6486   5.174   4.594   0.446
 1622SOL    HW2 6487   5.204   4.584   0.594
 1622SOL     MW 6488   5.174   4.630   0.526
 1623SOL     OW 6489   0.289   3.576   1.267
 1623SOL    HW1 6490   0.286   3.630   1.188
 1623SOL    HW2 6491   0.245   3.629   1.334
 1623SOL     MW 6492   0.283   3.589   1.265
 1624SOL     OW 6493   1.156   0.213   4.196
 1624SOL    HW1 6494   1.075   0.259   4.173
 1624SOL    HW2 6495   1.198   0.270   4.260
 1624SOL     MW 6496   1.151   0.226   4.201
 1625SOL     OW 6497   1.548   1.553   2.934
 1625SOL    HW1 6498   1.537   1.460   2.914
 1625SOL    HW2 6499   1.479   1.596   2.884
 1625SOL     MW 6500   1.538   1.546   2.925
 1626SOL     OW 6501   0.288   4.786   3.714
 1626SOL    HW1 6502   0.341   4.829   3.781
 1626SOL    HW2 6503   0.203   4.830   3.719
 1626SOL     MW 6504   0.284   4.797   3.723
 1627SOL     OW 6505   1.188   3.628   3.057
 1627SOL    HW1 6506   1.142   3.569   3.117
 1627SOL    HW2 6507   1.276   3.634   3.094
 1627SOL     MW 6508   1.193   3.621   3.070
 1628SOL     OW 6509   5.179   1.136   3.026
 1628SOL    HW1 6510   5.178   1.069   3.094
 1628SOL    HW2 6511   5.103   1.116   2.970
 1628SOL     MW 6512   5.169   1.125   3.027
 1629SOL     OW 6513   2.845   1.903   2.182
 1629SOL    HW1 6514   2.797   1.891   2.100
 1629SOL    HW2 6515   2.923   1.849   2.172
 1629SOL     MW 6516   2.849   1.894   2.170
 1630SOL     OW 6517   3.597   4.875   4.569
 1630SOL    HW1 6518   3.692   4.862   4.562
 1630SOL    HW2 6519   3.586   4.970   4.579
 1630SOL     MW 6520   3.608   4.886   4.570
 1631SOL     OW 6521   4.903   1.025   4.521
 1631SOL    HW1 6522   4.840   0.966   4.563
 1631SOL    HW2 6523   4.906   0.995   4.430
 1631SOL     MW 6524   4.895   1.014   4.515
 1632SOL     OW 6525   0.063   2.094   4.475
 1632SOL    HW1 6526   0.139   2.132   4.432
 1632SOL    HW2 6527   0.078   1.999   4.471
 1632SOL     MW 6528   0.075   2.086   4.469
 1633SOL     OW 6529   2.629   1.846   4.716
 1633SOL    HW1 6530   2.713   1.888   4.730
 1633SOL    HW2 6531   2.642   1.755   4.742
 1633SOL     MW 6532   2.641   1.840   4.721
 1634SOL     OW 6533   1.552   2.032   0.468
 1634SOL    HW1 6534   1.540   2.061   0.377
 1634SOL    HW2 6535   1.646   2.041   0.484
 1634SOL     MW 6536   1.562   2.037   0.458
 1635SOL     OW 6537   3.436   2.082   5.340
 1635SOL    HW1 6538   3.402   2.037   5.263
 1635SOL    HW2 6539   3.402   2.031   5.414
 1635SOL     MW 6540   3.427   2.069   5.340
 1636SOL     OW 6541   2.125   0.688   3.260
 1636SOL    HW1 6542   2.176   0.610   3.236
 1636SOL    HW2 6543   2.185   0.739   3.315
 1636SOL     MW 6544   2.139   0.684   3.264
 1637SOL     OW 6545   1.319   4.638   1.482
 1637SOL    HW1 6546   1.338   4.707   1.419
 1637SOL    HW2 6547   1.276   4.569   1.431
 1637SOL     MW 6548   1.316   4.638   1.468
 1638SOL     OW 6549   3.827   4.828   2.701
 1638SOL    HW1 6550   3.837   4.765   2.630
 1638SOL    HW2 6551   3.743   4.806   2.742
 1638SOL     MW 6552   3.818   4.817   2.697
 1639SOL     OW 6553   3.333   0.359   5.411
 1639SOL    HW1 6554   3.398   0.290   5.422
 1639SOL    HW2 6555   3.320   0.365   5.317
 1639SOL     MW 6556   3.339   0.351   5.401
 1640SOL     OW 6557   1.706   3.650   0.761
 1640SOL    HW1 6558   1.742   3.577   0.711
 1640SOL    HW2 6559   1.755   3.726   0.731
 1640SOL     MW 6560   1.717   3.650   0.751
 1641SOL     OW 6561   5.074   2.512   2.168
 1641SOL    HW1 6562   4.987   2.489   2.137
 1641SOL    HW2 6563   5.083   2.466   2.252
 1641SOL     MW 6564   5.064   2.503   2.175
 1642SOL     OW 6565   5.410   0.420   3.536
 1642SOL    HW1 6566   5.385   0.462   3.619
 1642SOL    HW2 6567   5.498   0.455   3.518
 1642SOL     MW 6568   5.418   0.430   3.544
 1643SOL     OW 6569   5.317   5.177   5.419
 1643SOL    HW1 6570   5.403   5.147   5.448
 1643SOL    HW2 6571   5.285   5.106   5.364
 1643SOL     MW 6572   5.324   5.164   5.416
 1644SOL     OW 6573   1.850   1.318   3.082
 1644SOL    HW1 6574   1.859   1.289   2.991
 1644SOL    HW2 6575   1.927   1.281   3.126
 1644SOL     MW 6576   1.861   1.310   3.076
 1645SOL     OW 6577   1.457   0.887   1.084
 1645SOL    HW1 6578   1.535   0.918   1.039
 1645SOL    HW2 6579   1.406   0.966   1.103
 1645SOL     MW 6580   1.460   0.901   1.081
 1646SOL     OW 6581   1.994   2.314   3.039
 1646SOL    HW1 6582   1.981   2.408   3.030
 1646SOL    HW2 6583   2.044   2.289   2.961
 1646SOL     MW 6584   1.999   2.323   3.028
 1647SOL     OW 6585   5.158   5.071   1.020
 1647SOL    HW1 6586   5.096   5.114   1.079
 1647SOL    HW2 6587   5.220   5.140   0.997
 1647SOL     MW 6588   5.158   5.086   1.025
 1648SOL     OW 6589   4.685   2.985   0.650
 1648SOL    HW1 6590   4.700   2.972   0.557
 1648SOL    HW2 6591   4.725   2.909   0.692
 1648SOL     MW 6592   4.692   2.973   0.644
 1649SOL     OW 6593   4.999   3.650   4.099
 1649SOL    HW1 6594   4.947   3.697   4.033
 1649SOL    HW2 6595   4.943   3.647   4.176
 1649SOL     MW 6596   4.985   3.656   4.100
 1650SOL     OW 6597   0.362   0.220   0.303
 1650SOL    HW1 6598   0.330   0.306   0.274
 1650SOL    HW2 6599   0.423   0.240   0.374
 1650SOL     MW 6600   0.365   0.234   0.309
 1651SOL     OW 6601   5.193   5.416   5.412
 1651SOL    HW1 6602   5.241   5.333   5.417
 1651SOL    HW2 6603   5.107   5.393   5.379
 1651SOL     MW 6604   5.188   5.403   5.409
 1652SOL     OW 6605   5.330   4.483   3.980
 1652SOL    HW1 6606   5.316   4.570   3.941
 1652SOL    HW2 6607   5.424   4.467   3.971
 1652SOL     MW 6608   5.340   4.492   3.974
 1653SOL     OW 6609   5.063   1.471   0.027
 1653SOL    HW1 6610   5.001   1.401   0.007
 1653SOL    HW2 6611   5.120   1.434   0.094
 1653SOL     MW 6612   5.062   1.457   0.033
 1654SOL     OW 6613   4.413   2.183   4.732
 1654SOL    HW1 6614   4.372   2.114   4.680
 1654SOL    HW2 6615   4.389   2.163   4.823
 1654SOL     MW 6616   4.405   2.171   4.737
 1655SOL     OW 6617   1.328   2.363   3.864
 1655SOL    HW1 6618   1.264   2.419   3.909
 1655SOL    HW2 6619   1.357   2.416   3.789
 1655SOL     MW 6620   1.324   2.377   3.860
 1656SOL     OW 6621   3.628   4.870   3.283
 1656SOL    HW1 6622   3.583   4.942   3.240
 1656SOL    HW2 6623   3.643   4.901   3.373
 1656SOL     MW 6624   3.624   4.883   3.289
 1657SOL     OW 6625   4.556   1.626   0.084
 1657SOL    HW1 6626   4.581   1.711   0.047
 1657SOL    HW2 6627   4.600   1.562   0.028
 1657SOL     MW 6628   4.565   1.629   0.072
 1658SOL     OW 6629   3.291   1.851   2.802
 1658SOL    HW1 6630   3.212   1.883   2.758
 1658SOL    HW2 6631   3.264   1.831   2.891
 1658SOL     MW 6632   3.278   1.853   2.808
 1659SOL     OW 6633   4.367   1.842   3.110
 1659SOL    HW1 6634   4.397   1.834   3.019
 1659SOL    HW2 6635   4.272   1.845   3.104
 1659SOL     MW 6636   4.359   1.842   3.097
 1660SOL     OW 6637   0.770   1.914   5.387
 1660SOL    HW1 6638   0.825   1.892   5.311
 1660SOL    HW2 6639   0.768   1.833   5.439
 1660SOL     MW 6640   0.777   1.901   5.384
 1661SOL     OW 6641   3.335   2.692   2.375
 1661SOL    HW1 6642   3.407   2.730   2.325
 1661SOL    HW2 6643   3.370   2.609   2.409
 1661SOL     MW 6644   3.349   2.686   2.373
 1662SOL     OW 6645   3.151   2.569   5.427
 1662SOL    HW1 6646   3.192   2.617   5.355
 1662SOL    HW2 6647   3.096   2.633   5.470
 1662SOL     MW 6648   3.149   2.583   5.423
 1663SOL     OW 6649   5.068   1.717   3.055
 1663SOL    HW1 6650   5.141   1.713   2.993
 1663SOL    HW2 6651   5.052   1.811   3.066
 1663SOL     MW 6652   5.075   1.729   3.048
 1664SOL     OW 6653   0.012   3.411   5.134
 1664SOL    HW1 6654  -0.064   3.362   5.163
 1664SOL    HW2 6655   0.085   3.375   5.184
 1664SOL     MW 6656   0.012   3.400   5.144
 1665SOL     OW 6657   2.312   5.038   3.476
 1665SOL    HW1 6658   2.357   5.112   3.436
 1665SOL    HW2 6659   2.242   5.078   3.527
 1665SOL     MW 6660   2.309   5.052   3.477
 1666SOL     OW 6661   0.054   4.959   2.977
 1666SOL    HW1 6662   0.085   5.020   3.044
 1666SOL    HW2 6663  -0.027   4.997   2.945
 1666SOL     MW 6664   0.048   4.971   2.981
 1667SOL     OW 6665   3.013   4.051   2.082
 1667SOL    HW1 6666   2.976   4.021   2.165
 1667SOL    HW2 6667   2.937   4.066   2.026
 1667SOL     MW 6668   2.998   4.049   2.085
 1668SOL     OW 6669   2.110   2.223   2.811
 1668SOL    HW1 6670   2.085   2.130   2.815
 1668SOL    HW2 6671   2.173   2.228   2.739
 1668SOL     MW 6672   2.114   2.212   2.802
 1669SOL     OW 6673   2.878   0.043   0.780
 1669SOL    HW1 6674   2.941   0.114   0.792
 1669SOL    HW2 6675   2.812   0.059   0.848
 1669SOL     MW 6676   2.878   0.054   0.791
 1670SOL     OW 6677   4.156   5.108   1.161
 1670SOL    HW1 6678   4.245   5.125   1.132
 1670SOL    HW2 6679   4.135   5.181   1.219
 1670SOL     MW 6680   4.164   5.119   1.165
 1671SOL     OW 6681   1.670   3.590   2.602
 1671SOL    HW1 6682   1.728   3.665   2.619
 1671SOL    HW2 6683   1.597   3.627   2.553
 1671SOL     MW 6684   1.668   3.604   2.598
 1672SOL     OW 6685   3.180   0.164   4.304
 1672SOL    HW1 6686   3.169   0.168   4.209
 1672SOL    HW2 6687   3.180   0.256   4.332
 1672SOL     MW 6688   3.179   0.177   4.295
 1673SOL     OW 6689   2.489   2.257   1.995
 1673SOL    HW1 6690   2.462   2.267   2.086
 1673SOL    HW2 6691   2.431   2.189   1.961
 1673SOL     MW 6692   2.478   2.249   2.002
 1674SOL     OW 6693   1.826   4.495   3.382
 1674SOL    HW1 6694   1.870   4.430   3.327
 1674SOL    HW2 6695   1.735   4.467   3.385
 1674SOL     MW 6696   1.820   4.483   3.376
 1675SOL     OW 6697   2.262   4.733   0.450
 1675SOL    HW1 6698   2.327   4.667   0.428
 1675SOL    HW2 6699   2.289   4.811   0.401
 1675SOL     MW 6700   2.274   4.735   0.441
 1676SOL     OW 6701   1.428   1.541   0.589
 1676SOL    HW1 6702   1.439   1.636   0.594
 1676SOL    HW2 6703   1.504   1.506   0.636
 1676SOL     MW 6704   1.439   1.549   0.596
 1677SOL     OW 6705   1.289   4.562   5.353
 1677SOL    HW1 6706   1.194   4.551   5.355
 1677SOL    HW2 6707   1.308   4.620   5.427
 1677SOL     MW 6708   1.279   4.568   5.363
 1678SOL     OW 6709   0.203   2.029   4.827
 1678SOL    HW1 6710   0.125   2.060   4.782
 1678SOL    HW2 6711   0.211   2.087   4.903
 1678SOL     MW 6712   0.194   2.041   4.831
 1679SOL     OW 6713   2.300   3.546   0.921
 1679SOL    HW1 6714   2.221   3.512   0.880
 1679SOL    HW2 6715   2.366   3.545   0.851
 1679SOL     MW 6716   2.298   3.541   0.907
 1680SOL     OW 6717   3.226   1.142   0.727
 1680SOL    HW1 6718   3.290   1.098   0.783
 1680SOL    HW2 6719   3.164   1.182   0.788
 1680SOL     MW 6720   3.226   1.142   0.742
 1681SOL     OW 6721   0.451   0.114   2.571
 1681SOL    HW1 6722   0.502   0.074   2.500
 1681SOL    HW2 6723   0.515   0.163   2.622
 1681SOL     MW 6724   0.466   0.115   2.568
 1682SOL     OW 6725   4.456   2.517   2.600
 1682SOL    HW1 6726   4.517   2.507   2.674
 1682SOL    HW2 6727   4.415   2.602   2.615
 1682SOL     MW 6728   4.459   2.527   2.612
 1683SOL     OW 6729   4.237   4.289   4.540
 1683SOL    HW1 6730   4.228   4.198   4.512
 1683SOL    HW2 6731   4.330   4.300   4.557
 1683SOL     MW 6732   4.247   4.278   4.538
 1684SOL     OW 6733   0.631   0.271   2.709
 1684SOL    HW1 6734   0.608   0.358   2.676
 1684SOL    HW2 6735   0.654   0.285   2.801
 1684SOL     MW 6736   0.631   0.284   2.717
 1685SOL     OW 6737   4.725   3.003   0.375
 1685SOL    HW1 6738   4.646   2.974   0.329
 1685SOL    HW2 6739   4.712   3.098   0.386
 1685SOL     MW 6740   4.713   3.012   0.371
 1686SOL     OW 6741   0.960   3.593   5.108
 1686SOL    HW1 6742   1.030   3.539   5.145
 1686SOL    HW2 6743   0.949   3.560   5.019
 1686SOL     MW 6744   0.968   3.582   5.102
 1687SOL     OW 6745   3.016   4.224   0.630
 1687SOL    HW1 6746   2.945   4.162   0.615
 1687SOL    HW2 6747   2.990   4.272   0.708
 1687SOL     MW 6748   3.004   4.222   0.638
 1688SOL     OW 6749   0.366   1.894   4.001
 1688SOL    HW1 6750   0.456   1.873   4.026
 1688SOL    HW2 6751   0.373   1.979   3.958
 1688SOL     MW 6752   0.379   1.902   3.999
 1689SOL     OW 6753   0.199   0.766   4.369
 1689SOL    HW1 6754   0.112   0.802   4.350
 1689SOL    HW2 6755   0.189   0.721   4.453
 1689SOL     MW 6756   0.186   0.765   4.377
 1690SOL     OW 6757   0.884   0.785   0.839
 1690SOL    HW1 6758   0.878   0.808   0.746
 1690SOL    HW2 6759   0.922   0.863   0.880
 1690SOL     MW 6760   0.888   0.798   0.832
 1691SOL     OW 6761   1.294   4.944   2.074
 1691SOL    HW1 6762   1.200   4.929   2.083
 1691SOL    HW2 6763   1.334   4.862   2.103
 1691SOL     MW 6764   1.287   4.932   2.079
 1692SOL     OW 6765   4.223   3.873   4.202
 1692SOL    HW1 6766   4.302   3.906   4.159
 1692SOL    HW2 6767   4.252   3.795   4.249
 1692SOL     MW 6768   4.237   3.867   4.202
 1693SOL     OW 6769   3.055   4.946   4.354
 1693SOL    HW1 6770   3.032   4.906   4.270
 1693SOL    HW2 6771   2.971   4.973   4.391
 1693SOL     MW 6772   3.041   4.944   4.348
 1694SOL     OW 6773   4.431   0.368   4.717
 1694SOL    HW1 6774   4.463   0.304   4.653
 1694SOL    HW2 6775   4.369   0.423   4.669
 1694SOL     MW 6776   4.427   0.367   4.703
 1695SOL     OW 6777   0.730   4.437   2.740
 1695SOL    HW1 6778   0.688   4.522   2.721
 1695SOL    HW2 6779   0.813   4.460   2.781
 1695SOL     MW 6780   0.735   4.451   2.743
 1696SOL     OW 6781   1.994   0.589   5.342
 1696SOL    HW1 6782   1.994   0.568   5.435
 1696SOL    HW2 6783   1.956   0.512   5.300
 1696SOL     MW 6784   1.989   0.577   5.348
 1697SOL     OW 6785   1.199   4.161   3.813
 1697SOL    HW1 6786   1.225   4.180   3.904
 1697SOL    HW2 6787   1.240   4.076   3.795
 1697SOL     MW 6788   1.208   4.152   3.823
 1698SOL     OW 6789   3.479   3.418   2.454
 1698SOL    HW1 6790   3.462   3.352   2.521
 1698SOL    HW2 6791   3.552   3.470   2.489
 1698SOL     MW 6792   3.486   3.416   2.467
 1699SOL     OW 6793   2.712   4.636   2.885
 1699SOL    HW1 6794   2.790   4.671   2.927
 1699SOL    HW2 6795   2.704   4.547   2.921
 1699SOL     MW 6796   2.721   4.629   2.895
 1700SOL     OW 6797   2.764   0.451   3.273
 1700SOL    HW1 6798   2.814   0.403   3.339
 1700SOL    HW2 6799   2.826   0.515   3.239
 1700SOL     MW 6800   2.778   0.453   3.277
 1701SOL     OW 6801   5.385   3.117   4.329
 1701SOL    HW1 6802   5.319   3.141   4.394
 1701SOL    HW2 6803   5.402   3.024   4.345
 1701SOL     MW 6804   5.378   3.108   4.339
 1702SOL     OW 6805   0.178   2.004   0.405
 1702SOL    HW1 6806   0.114   1.993   0.335
 1702SOL    HW2 6807   0.178   1.920   0.451
 1702SOL     MW 6808   0.170   1.992   0.402
 1703SOL     OW 6809   4.581   0.314   3.583
 1703SOL    HW1 6810   4.569   0.312   3.488
 1703SOL    HW2 6811   4.667   0.274   3.598
 1703SOL     MW 6812   4.590   0.309   3.573
 1704SOL     OW 6813   4.575   2.516   4.831
 1704SOL    HW1 6814   4.611   2.431   4.807
 1704SOL    HW2 6815   4.545   2.505   4.922
 1704SOL     MW 6816   4.576   2.504   4.840
 1705SOL     OW 6817   2.182   2.806   4.892
 1705SOL    HW1 6818   2.111   2.758   4.849
 1705SOL    HW2 6819   2.170   2.787   4.986
 1705SOL     MW 6820   2.171   2.797   4.899
 1706SOL     OW 6821   2.585   4.478   3.458
 1706SOL    HW1 6822   2.623   4.395   3.487
 1706SOL    HW2 6823   2.554   4.520   3.538
 1706SOL     MW 6824   2.586   4.473   3.472
 1707SOL     OW 6825   4.785   5.196   3.164
 1707SOL    HW1 6826   4.881   5.204   3.169
 1707SOL    HW2 6827   4.753   5.286   3.162
 1707SOL     MW 6828   4.793   5.208   3.164
 1708SOL     OW 6829   1.437   3.721   1.905
 1708SOL    HW1 6830   1.389   3.741   1.825
 1708SOL    HW2 6831   1.405   3.784   1.969
 1708SOL     MW 6832   1.427   3.731   1.903
 1709SOL     OW 6833   3.469   3.879   5.324
 1709SOL    HW1 6834   3.410   3.923   5.385
 1709SOL    HW2 6835   3.426   3.887   5.239
 1709SOL     MW 6836   3.456   3.886   5.321
 1710SOL     OW 6837   2.570   2.660   1.399
 1710SOL    HW1 6838   2.645   2.686   1.346
 1710SOL    HW2 6839   2.494   2.686   1.348
 1710SOL     MW 6840   2.570   2.667   1.386
 1711SOL     OW 6841   4.123   2.740   1.792
 1711SOL    HW1 6842   4.085   2.658   1.758
 1711SOL    HW2 6843   4.216   2.732   1.775
 1711SOL     MW 6844   4.130   2.728   1.786
 1712SOL     OW 6845   3.223   1.830   0.319
 1712SOL    HW1 6846   3.284   1.777   0.371
 1712SOL    HW2 6847   3.278   1.870   0.252
 1712SOL     MW 6848   3.238   1.828   0.317
 1713SOL     OW 6849   1.474   0.649   0.936
 1713SOL    HW1 6850   1.447   0.727   0.986
 1713SOL    HW2 6851   1.518   0.593   1.000
 1713SOL     MW 6852   1.476   0.652   0.950
 1714SOL     OW 6853   0.792   3.525   0.317
 1714SOL    HW1 6854   0.799   3.594   0.382
 1714SOL    HW2 6855   0.712   3.478   0.342
 1714SOL     MW 6856   0.782   3.528   0.329
 1715SOL     OW 6857   1.167   2.681   5.381
 1715SOL    HW1 6858   1.262   2.693   5.384
 1715SOL    HW2 6859   1.137   2.702   5.469
 1715SOL     MW 6860   1.176   2.685   5.392
 1716SOL     OW 6861   1.341   5.166   3.497
 1716SOL    HW1 6862   1.370   5.183   3.587
 1716SOL    HW2 6863   1.290   5.244   3.474
 1716SOL     MW 6864   1.338   5.178   3.505
 1717SOL     OW 6865   5.086   3.758   2.351
 1717SOL    HW1 6866   5.140   3.682   2.372
 1717SOL    HW2 6867   5.144   3.833   2.367
 1717SOL     MW 6868   5.101   3.758   2.356
 1718SOL     OW 6869   4.716   1.472   4.279
 1718SOL    HW1 6870   4.780   1.467   4.208
 1718SOL    HW2 6871   4.766   1.503   4.355
 1718SOL     MW 6872   4.730   1.476   4.280
 1719SOL     OW 6873   4.119   4.551   2.046
 1719SOL    HW1 6874   4.110   4.459   2.071
 1719SOL    HW2 6875   4.126   4.550   1.950
 1719SOL     MW 6876   4.119   4.539   2.037
 1720SOL     OW 6877   0.693   4.240   3.083
 1720SOL    HW1 6878   0.756   4.312   3.080
 1720SOL    HW2 6879   0.736   4.173   3.136
 1720SOL     MW 6880   0.707   4.240   3.089
 1721SOL     OW 6881   4.578   1.112   1.545
 1721SOL    HW1 6882   4.648   1.175   1.561
 1721SOL    HW2 6883   4.523   1.153   1.478
 1721SOL     MW 6884   4.580   1.125   1.538
 1722SOL     OW 6885   2.488   4.412   0.022
 1722SOL    HW1 6886   2.446   4.412  -0.063
 1722SOL    HW2 6887   2.418   4.431   0.085
 1722SOL     MW 6888   2.474   4.414   0.019
 1723SOL     OW 6889   3.417   3.756   0.301
 1723SOL    HW1 6890   3.434   3.847   0.278
 1723SOL    HW2 6891   3.434   3.752   0.395
 1723SOL     MW 6892   3.421   3.767   0.310
 1724SOL     OW 6893   0.950   0.648   3.859
 1724SOL    HW1 6894   0.863   0.626   3.891
 1724SOL    HW2 6895   0.952   0.744   3.855
 1724SOL     MW 6896   0.939   0.657   3.862
 1725SOL     OW 6897   1.497   1.031   5.016
 1725SOL    HW1 6898   1.569   1.014   4.955
 1725SOL    HW2 6899   1.493   0.953   5.071
 1725SOL     MW 6900   1.506   1.019   5.015
 1726SOL     OW 6901   2.028   1.961   2.819
 1726SOL    HW1 6902   2.022   1.918   2.904
 1726SOL    HW2 6903   1.941   1.953   2.782
 1726SOL     MW 6904   2.016   1.954   2.825
 1727SOL     OW 6905   4.043   2.478   0.268
 1727SOL    HW1 6906   3.951   2.486   0.292
 1727SOL    HW2 6907   4.047   2.511   0.178
 1727SOL     MW 6908   4.032   2.483   0.260
 1728SOL     OW 6909   0.224   2.198   5.039
 1728SOL    HW1 6910   0.298   2.147   5.073
 1728SOL    HW2 6911   0.150   2.171   5.093
 1728SOL     MW 6912   0.224   2.188   5.050
 1729SOL     OW 6913   2.271   2.504   2.683
 1729SOL    HW1 6914   2.272   2.493   2.779
 1729SOL    HW2 6915   2.183   2.536   2.664
 1729SOL     MW 6916   2.260   2.507   2.693
 1730SOL     OW 6917   5.023   1.287   0.786
 1730SOL    HW1 6918   5.034   1.373   0.743
 1730SOL    HW2 6919   4.935   1.290   0.822
 1730SOL     MW 6920   5.013   1.299   0.785
 1731SOL     OW 6921   4.646   2.683   1.770
 1731SOL    HW1 6922   4.670   2.742   1.698
 1731SOL    HW2 6923   4.678   2.597   1.741
 1731SOL     MW 6924   4.653   2.679   1.757
 1732SOL     OW 6925   0.967   4.991   4.622
 1732SOL    HW1 6926   0.887   4.950   4.656
 1732SOL    HW2 6927   0.970   5.076   4.666
 1732SOL     MW 6928   0.957   4.997   4.632
 1733SOL     OW 6929   4.205   4.655   2.633
 1733SOL    HW1 6930   4.247   4.733   2.598
 1733SOL    HW2 6931   4.160   4.684   2.712
 1733SOL     MW 6932   4.205   4.668   2.639
 1734SOL     OW 6933   3.892   5.085   2.751
 1734SOL    HW1 6934   3.810   5.135   2.750
 1734SOL    HW2 6935   3.867   4.997   2.725
 1734SOL     MW 6936   3.878   5.080   2.748
 1735SOL     OW 6937   0.422   3.042   3.541
 1735SOL    HW1 6938   0.455   2.976   3.601
 1735SOL    HW2 6939   0.336   3.010   3.515
 1735SOL     MW 6940   0.415   3.030   3.545
 1736SOL     OW 6941   5.394   0.832   3.712
 1736SOL    HW1 6942   5.481   0.814   3.677
 1736SOL    HW2 6943   5.359   0.746   3.733
 1736SOL     MW 6944   5.401   0.819   3.710
 1737SOL     OW 6945   4.700   4.988   0.506
 1737SOL    HW1 6946   4.674   5.076   0.531
 1737SOL    HW2 6947   4.618   4.946   0.477
 1737SOL     MW 6948   4.686   4.993   0.505
 1738SOL     OW 6949   0.122   1.729   5.319
 1738SOL    HW1 6950   0.063   1.737   5.244
 1738SOL    HW2 6951   0.069   1.753   5.394
 1738SOL     MW 6952   0.108   1.733   5.319
 1739SOL     OW 6953   4.365   0.222   1.335
 1739SOL    HW1 6954   4.396   0.136   1.363
 1739SOL    HW2 6955   4.442   0.265   1.299
 1739SOL     MW 6956   4.379   0.216   1.334
 1740SOL     OW 6957   3.529   0.024   1.284
 1740SOL    HW1 6958   3.468   0.046   1.214
 1740SOL    HW2 6959   3.513  -0.068   1.303
 1740SOL     MW 6960   3.519   0.015   1.278
 1741SOL     OW 6961   1.060   0.570   0.384
 1741SOL    HW1 6962   1.099   0.607   0.463
 1741SOL    HW2 6963   1.069   0.475   0.395
 1741SOL     MW 6964   1.066   0.563   0.395
 1742SOL     OW 6965   5.216   5.396   1.153
 1742SOL    HW1 6966   5.227   5.469   1.214
 1742SOL    HW2 6967   5.127   5.407   1.119
 1742SOL     MW 6968   5.206   5.407   1.157
 1743SOL     OW 6969   4.068   2.319   3.212
 1743SOL    HW1 6970   4.158   2.287   3.211
 1743SOL    HW2 6971   4.019   2.252   3.260
 1743SOL     MW 6972   4.073   2.306   3.218
 1744SOL     OW 6973   5.306   2.963   2.620
 1744SOL    HW1 6974   5.315   3.006   2.535
 1744SOL    HW2 6975   5.379   2.996   2.672
 1744SOL     MW 6976   5.316   2.973   2.616
 1745SOL     OW 6977   1.849   1.465   5.200
 1745SOL    HW1 6978   1.903   1.413   5.140
 1745SOL    HW2 6979   1.876   1.556   5.183
 1745SOL     MW 6980   1.860   1.470   5.190
 1746SOL     OW 6981   4.358   3.260   0.257
 1746SOL    HW1 6982   4.409   3.180   0.271
 1746SOL    HW2 6983   4.417   3.318   0.209
 1746SOL     MW 6984   4.372   3.257   0.253
 1747SOL     OW 6985   4.045   4.031   3.835
 1747SOL    HW1 6986   4.022   4.079   3.756
 1747SOL    HW2 6987   4.003   3.946   3.824
 1747SOL     MW 6988   4.036   4.026   3.824
 1748SOL     OW 6989   0.937   1.753   3.381
 1748SOL    HW1 6990   0.939   1.685   3.313
 1748SOL    HW2 6991   0.847   1.787   3.377
 1748SOL     MW 6992   0.926   1.749   3.372
 1749SOL     OW 6993   4.907   3.504   2.683
 1749SOL    HW1 6994   4.883   3.526   2.773
 1749SOL    HW2 6995   4.824   3.508   2.635
 1749SOL     MW 6996   4.893   3.507   2.688
 1750SOL     OW 6997   4.440   0.643   0.876
 1750SOL    HW1 6998   4.420   0.636   0.969
 1750SOL    HW2 6999   4.371   0.592   0.833
 1750SOL     MW 7000   4.429   0.636   0.882
 1751SOL     OW 7001   1.888   1.057   1.507
 1751SOL    HW1 7002   1.897   0.965   1.530
 1751SOL    HW2 7003   1.976   1.084   1.480
 1751SOL     MW 7004   1.900   1.049   1.507
 1752SOL     OW 7005   2.975   4.451   4.653
 1752SOL    HW1 7006   2.993   4.432   4.745
 1752SOL    HW2 7007   2.990   4.546   4.645
 1752SOL     MW 7008   2.979   4.461   4.663
 1753SOL     OW 7009   2.206   0.522   1.948
 1753SOL    HW1 7010   2.217   0.427   1.944
 1753SOL    HW2 7011   2.253   0.547   2.028
 1753SOL     MW 7012   2.214   0.513   1.958
 1754SOL     OW 7013   4.616   4.337   5.062
 1754SOL    HW1 7014   4.586   4.298   5.144
 1754SOL    HW2 7015   4.621   4.264   5.001
 1754SOL     MW 7016   4.612   4.323   5.065
 1755SOL     OW 7017   1.758   0.809   0.123
 1755SOL    HW1 7018   1.730   0.892   0.159
 1755SOL    HW2 7019   1.767   0.825   0.029
 1755SOL     MW 7020   1.756   0.821   0.115
 1756SOL     OW 7021   5.039   0.421   2.063
 1756SOL    HW1 7022   4.959   0.472   2.055
 1756SOL    HW2 7023   5.010   0.330   2.060
 1756SOL     MW 7024   5.025   0.416   2.061
 1757SOL     OW 7025   3.299   4.148   0.948
 1757SOL    HW1 7026   3.377   4.152   0.893
 1757SOL    HW2 7027   3.255   4.232   0.932
 1757SOL     MW 7028   3.304   4.159   0.939
 1758SOL     OW 7029   2.089   3.838   4.423
 1758SOL    HW1 7030   2.113   3.787   4.501
 1758SOL    HW2 7031   2.107   3.929   4.449
 1758SOL     MW 7032   2.094   3.843   4.436
 1759SOL     OW 7033   1.140   3.998   4.433
 1759SOL    HW1 7034   1.063   4.008   4.488
 1759SOL    HW2 7035   1.199   4.068   4.460
 1759SOL     MW 7036   1.138   4.008   4.444
 1760SOL     OW 7037   0.035   2.582   2.133
 1760SOL    HW1 7038  -0.001   2.514   2.191
 1760SOL    HW2 7039   0.025   2.663   2.182
 1760SOL     MW 7040   0.029   2.584   2.146
 1761SOL     OW 7041  -0.026   4.021   5.328
 1761SOL    HW1 7042   0.029   3.965   5.383
 1761SOL    HW2 7043   0.027   4.098   5.312
 1761SOL     MW 7044  -0.012   4.023   5.333
 1762SOL     OW 7045   5.379   0.716   2.879
 1762SOL    HW1 7046   5.377   0.796   2.932
 1762SOL    HW2 7047   5.343   0.649   2.937
 1762SOL     MW 7048   5.374   0.718   2.893
 1763SOL     OW 7049   5.305   0.553   3.771
 1763SOL    HW1 7050   5.267   0.500   3.841
 1763SOL    HW2 7051   5.233   0.564   3.708
 1763SOL     MW 7052   5.291   0.548   3.772
 1764SOL     OW 7053   0.142   2.481   0.744
 1764SOL    HW1 7054   0.161   2.452   0.655
 1764SOL    HW2 7055   0.207   2.549   0.762
 1764SOL     MW 7056   0.153   2.486   0.735
 1765SOL     OW 7057   2.446   4.761   4.132
 1765SOL    HW1 7058   2.387   4.789   4.203
 1765SOL    HW2 7059   2.388   4.732   4.062
 1765SOL     MW 7060   2.431   4.761   4.132
 1766SOL     OW 7061   4.046   0.063   1.130
 1766SOL    HW1 7062   3.978   0.065   1.063
 1766SOL    HW2 7063   4.022   0.134   1.190
 1766SOL     MW 7064   4.034   0.073   1.129
 1767SOL     OW 7065   4.798   1.090   3.105
 1767SOL    HW1 7066   4.730   1.053   3.048
 1767SOL    HW2 7067   4.796   1.035   3.183
 1767SOL     MW 7068   4.789   1.078   3.107
 1768SOL     OW 7069   2.131   0.304   1.539
 1768SOL    HW1 7070   2.189   0.351   1.598
 1768SOL    HW2 7071   2.156   0.335   1.452
 1768SOL     MW 7072   2.142   0.314   1.535
 1769SOL     OW 7073   0.569   1.042   2.806
 1769SOL    HW1 7074   0.532   0.969   2.755
 1769SOL    HW2 7075   0.589   1.108   2.740
 1769SOL     MW 7076   0.567   1.041   2.791
 1770SOL     OW 7077   5.276   3.732   1.353
 1770SOL    HW1 7078   5.221   3.752   1.429
 1770SOL    HW2 7079   5.321   3.651   1.376
 1770SOL     MW 7080   5.275   3.725   1.365
 1771SOL     OW 7081   1.000   2.488   4.848
 1771SOL    HW1 7082   0.980   2.397   4.830
 1771SOL    HW2 7083   0.936   2.514   4.915
 1771SOL     MW 7084   0.989   2.480   4.855
 1772SOL     OW 7085   2.453   5.116   0.604
 1772SOL    HW1 7086   2.430   5.206   0.623
 1772SOL    HW2 7087   2.501   5.087   0.682
 1772SOL     MW 7088   2.456   5.124   0.617
 1773SOL     OW 7089   1.463   5.052   5.120
 1773SOL    HW1 7090   1.373   5.076   5.142
 1773SOL    HW2 7091   1.454   4.990   5.047
 1773SOL     MW 7092   1.451   5.047   5.113
 1774SOL     OW 7093   0.885   0.170   0.585
 1774SOL    HW1 7094   0.906   0.243   0.644
 1774SOL    HW2 7095   0.821   0.119   0.633
 1774SOL     MW 7096   0.880   0.173   0.599
 1775SOL     OW 7097   2.818   4.513   2.659
 1775SOL    HW1 7098   2.778   4.551   2.736
 1775SOL    HW2 7099   2.859   4.433   2.690
 1775SOL     MW 7100   2.818   4.508   2.673
 1776SOL     OW 7101   1.089   4.422   2.006
 1776SOL    HW1 7102   1.166   4.404   2.062
 1776SOL    HW2 7103   1.021   4.447   2.068
 1776SOL     MW 7104   1.090   4.423   2.021
 1777SOL     OW 7105   1.280   2.643   1.527
 1777SOL    HW1 7106   1.329   2.575   1.481
 1777SOL    HW2 7107   1.341   2.677   1.592
 1777SOL     MW 7108   1.294   2.639   1.529
 1778SOL     OW 7109   2.967   3.509   1.889
 1778SOL    HW1 7110   2.928   3.441   1.945
 1778SOL    HW2 7111   2.900   3.527   1.823
 1778SOL     MW 7112   2.953   3.502   1.888
 1779SOL     OW 7113   4.397   0.650   0.496
 1779SOL    HW1 7114   4.463   0.719   0.490
 1779SOL    HW2 7115   4.446   0.569   0.483
 1779SOL     MW 7116   4.412   0.649   0.493
 1780SOL     OW 7117   2.797   2.196   4.257
 1780SOL    HW1 7118   2.733   2.126   4.250
 1780SOL    HW2 7119   2.745   2.276   4.263
 1780SOL     MW 7120   2.782   2.197   4.257
 1781SOL     OW 7121   2.476   0.307   0.016
 1781SOL    HW1 7122   2.425   0.339   0.090
 1781SOL    HW2 7123   2.521   0.385  -0.018
 1781SOL     MW 7124   2.475   0.321   0.021
 1782SOL     OW 7125   3.611   1.924   4.797
 1782SOL    HW1 7126   3.675   1.895   4.731
 1782SOL    HW2 7127   3.556   1.847   4.813
 1782SOL     MW 7128   3.612   1.910   4.790
 1783SOL     OW 7129   0.211   2.805   1.997
 1783SOL    HW1 7130   0.250   2.718   2.012
 1783SOL    HW2 7131   0.275   2.866   2.034
 1783SOL     MW 7132   0.224   2.801   2.004
 1784SOL     OW 7133   0.879   0.124   4.484
 1784SOL    HW1 7134   0.930   0.084   4.412
 1784SOL    HW2 7135   0.921   0.092   4.563
 1784SOL     MW 7136   0.891   0.115   4.485
 1785SOL     OW 7137   5.265   2.910   1.687
 1785SOL    HW1 7138   5.340   2.969   1.689
 1785SOL    HW2 7139   5.262   2.872   1.775
 1785SOL     MW 7140   5.274   2.913   1.699
 1786SOL     OW 7141   3.106   0.914   2.668
 1786SOL    HW1 7142   3.041   0.978   2.696
 1786SOL    HW2 7143   3.155   0.958   2.599
 1786SOL     MW 7144   3.104   0.928   2.663
 1787SOL     OW 7145   4.769   2.054   2.398
 1787SOL    HW1 7146   4.859   2.082   2.380
 1787SOL    HW2 7147   4.750   1.990   2.330
 1787SOL     MW 7148   4.778   2.050   2.387
 1788SOL     OW 7149   4.084   0.596   1.602
 1788SOL    HW1 7150   4.128   0.593   1.517
 1788SOL    HW2 7151   4.142   0.647   1.658
 1788SOL     MW 7152   4.097   0.602   1.598
 1789SOL     OW 7153   0.002   3.892   0.347
 1789SOL    HW1 7154   0.097   3.893   0.348
 1789SOL    HW2 7155  -0.023   3.967   0.294
 1789SOL     MW 7156   0.011   3.902   0.340
 1790SOL     OW 7157   5.309   2.229   0.678
 1790SOL    HW1 7158   5.252   2.208   0.751
 1790SOL    HW2 7159   5.325   2.323   0.685
 1790SOL     MW 7160   5.304   2.239   0.688
 1791SOL     OW 7161   1.282   0.345   4.619
 1791SOL    HW1 7162   1.369   0.317   4.647
 1791SOL    HW2 7163   1.292   0.365   4.526
 1791SOL     MW 7164   1.295   0.344   4.611
 1792SOL     OW 7165   0.514   0.684   5.424
 1792SOL    HW1 7166   0.541   0.659   5.336
 1792SOL    HW2 7167   0.483   0.774   5.415
 1792SOL     MW 7168   0.514   0.693   5.412
 1793SOL     OW 7169   0.984   0.449   2.514
 1793SOL    HW1 7170   0.954   0.366   2.549
 1793SOL    HW2 7171   1.000   0.432   2.421
 1793SOL     MW 7172   0.982   0.437   2.507
 1794SOL     OW 7173   0.743   3.181   1.200
 1794SOL    HW1 7174   0.716   3.102   1.248
 1794SOL    HW2 7175   0.838   3.184   1.212
 1794SOL     MW 7176   0.752   3.171   1.208
 1795SOL     OW 7177   2.522   2.430   5.175
 1795SOL    HW1 7178   2.505   2.478   5.094
 1795SOL    HW2 7179   2.493   2.489   5.245
 1795SOL     MW 7180   2.516   2.444   5.174
 1796SOL     OW 7181   4.276   4.049   5.242
 1796SOL    HW1 7182   4.356   3.996   5.241
 1796SOL    HW2 7183   4.213   3.997   5.192
 1796SOL     MW 7184   4.278   4.036   5.235
 1797SOL     OW 7185   2.473   4.573   0.368
 1797SOL    HW1 7186   2.542   4.539   0.424
 1797SOL    HW2 7187   2.519   4.628   0.304
 1797SOL     MW 7188   2.488   4.576   0.367
 1798SOL     OW 7189   3.392   0.262   3.232
 1798SOL    HW1 7190   3.368   0.235   3.320
 1798SOL    HW2 7191   3.417   0.354   3.241
 1798SOL     MW 7192   3.392   0.271   3.244
 1799SOL     OW 7193   2.010   2.563   1.641
 1799SOL    HW1 7194   2.064   2.601   1.710
 1799SOL    HW2 7195   1.957   2.496   1.685
 1799SOL     MW 7196   2.010   2.559   1.655
 1800SOL     OW 7197   4.788   5.457   0.087
 1800SOL    HW1 7198   4.876   5.467   0.125
 1800SOL    HW2 7199   4.744   5.395   0.146
 1800SOL     MW 7200   4.794   5.451   0.100
 1801SOL     OW 7201   0.656   5.041   3.535
 1801SOL    HW1 7202   0.594   4.969   3.521
 1801SOL    HW2 7203   0.708   5.012   3.610
 1801SOL     MW 7204   0.655   5.028   3.543
 1802SOL     OW 7205   3.118   3.474   1.087
 1802SOL    HW1 7206   3.051   3.475   1.018
 1802SOL    HW2 7207   3.071   3.503   1.166
 1802SOL     MW 7208   3.103   3.478   1.088
 1803SOL     OW 7209   0.496   2.586   4.079
 1803SOL    HW1 7210   0.566   2.576   4.015
 1803SOL    HW2 7211   0.439   2.510   4.065
 1803SOL     MW 7212   0.498   2.575   4.069
 1804SOL     OW 7213   1.238   2.318   2.175
 1804SOL    HW1 7214   1.256   2.285   2.087
 1804SOL    HW2 7215   1.265   2.410   2.172
 1804SOL     MW 7216   1.244   2.326   2.163
 1805SOL     OW 7217   2.457   3.453   3.686
 1805SOL    HW1 7218   2.490   3.451   3.596
 1805SOL    HW2 7219   2.376   3.402   3.682
 1805SOL     MW 7220   2.451   3.446   3.674
 1806SOL     OW 7221   0.801   0.267   2.085
 1806SOL    HW1 7222   0.865   0.324   2.045
 1806SOL    HW2 7223   0.843   0.181   2.088
 1806SOL     MW 7224   0.814   0.263   2.080
 1807SOL     OW 7225   3.418   3.997   1.223
 1807SOL    HW1 7226   3.479   3.941   1.271
 1807SOL    HW2 7227   3.474   4.063   1.181
 1807SOL     MW 7228   3.433   3.998   1.224
 1808SOL     OW 7229   3.984   2.520   2.658
 1808SOL    HW1 7230   4.000   2.614   2.651
 1808SOL    HW2 7231   4.071   2.480   2.648
 1808SOL     MW 7232   3.997   2.527   2.656
 1809SOL     OW 7233   4.895   3.260   3.017
 1809SOL    HW1 7234   4.810   3.239   3.056
 1809SOL    HW2 7235   4.881   3.248   2.923
 1809SOL     MW 7236   4.882   3.256   3.010
 1810SOL     OW 7237   2.775   4.115   1.395
 1810SOL    HW1 7238   2.775   4.032   1.442
 1810SOL    HW2 7239   2.762   4.181   1.463
 1810SOL     MW 7240   2.773   4.113   1.410
 1811SOL     OW 7241   2.469   4.572   3.053
 1811SOL    HW1 7242   2.532   4.635   3.018
 1811SOL    HW2 7243   2.388   4.622   3.064
 1811SOL     MW 7244   2.467   4.586   3.050
 1812SOL     OW 7245   2.838   3.656   2.289
 1812SOL    HW1 7246   2.901   3.684   2.223
 1812SOL    HW2 7247   2.861   3.565   2.307
 1812SOL     MW 7248   2.849   3.648   2.283
 1813SOL     OW 7249   0.140   1.728   2.057
 1813SOL    HW1 7250   0.103   1.640   2.057
 1813SOL    HW2 7251   0.077   1.780   2.108
 1813SOL     MW 7252   0.127   1.723   2.063
 1814SOL     OW 7253   3.550   5.279   0.367
 1814SOL    HW1 7254   3.565   5.369   0.340
 1814SOL    HW2 7255   3.637   5.243   0.381
 1814SOL     MW 7256   3.563   5.286   0.366
 1815SOL     OW 7257   1.099   4.995   3.344
 1815SOL    HW1 7258   1.186   4.963   3.366
 1815SOL    HW2 7259   1.114   5.064   3.279
 1815SOL     MW 7260   1.112   5.000   3.339
 1816SOL     OW 7261   0.455   4.462   4.538
 1816SOL    HW1 7262   0.528   4.516   4.506
 1816SOL    HW2 7263   0.436   4.402   4.466
 1816SOL     MW 7264   0.462   4.461   4.525
 1817SOL     OW 7265   0.561   3.627   1.304
 1817SOL    HW1 7266   0.469   3.602   1.301
 1817SOL    HW2 7267   0.605   3.565   1.245
 1817SOL     MW 7268   0.555   3.616   1.296
 1818SOL     OW 7269   5.061   4.085   0.276
 1818SOL    HW1 7270   5.042   4.024   0.204
 1818SOL    HW2 7271   5.020   4.167   0.248
 1818SOL     MW 7272   5.053   4.087   0.263
 1819SOL     OW 7273   0.448   4.644   3.335
 1819SOL    HW1 7274   0.441   4.578   3.404
 1819SOL    HW2 7275   0.453   4.727   3.381
 1819SOL     MW 7276   0.448   4.646   3.349
 1820SOL     OW 7277   0.433   1.224   3.242
 1820SOL    HW1 7278   0.449   1.169   3.319
 1820SOL    HW2 7279   0.338   1.222   3.230
 1820SOL     MW 7280   0.423   1.216   3.250
 1821SOL     OW 7281   0.637   0.711   0.345
 1821SOL    HW1 7282   0.701   0.742   0.410
 1821SOL    HW2 7283   0.661   0.757   0.264
 1821SOL     MW 7284   0.649   0.721   0.343
 1822SOL     OW 7285   3.103   5.336   0.460
 1822SOL    HW1 7286   3.158   5.305   0.389
 1822SOL    HW2 7287   3.150   5.312   0.540
 1822SOL     MW 7288   3.116   5.329   0.461
 1823SOL     OW 7289   2.375   3.177   2.763
 1823SOL    HW1 7290   2.320   3.183   2.841
 1823SOL    HW2 7291   2.400   3.267   2.743
 1823SOL     MW 7292   2.371   3.189   2.770
 1824SOL     OW 7293   3.090   0.988   0.541
 1824SOL    HW1 7294   3.146   1.038   0.601
 1824SOL    HW2 7295   3.114   0.897   0.557
 1824SOL     MW 7296   3.100   0.983   0.551
 1825SOL     OW 7297   2.939   2.105   4.989
 1825SOL    HW1 7298   3.006   2.091   5.056
 1825SOL    HW2 7299   2.922   2.199   4.992
 1825SOL     MW 7300   2.946   2.115   4.998
 1826SOL     OW 7301   0.858   0.678   5.325
 1826SOL    HW1 7302   0.857   0.767   5.291
 1826SOL    HW2 7303   0.865   0.622   5.248
 1826SOL     MW 7304   0.859   0.682   5.311
 1827SOL     OW 7305   4.801   1.646   0.688
 1827SOL    HW1 7306   4.790   1.666   0.595
 1827SOL    HW2 7307   4.780   1.728   0.733
 1827SOL     MW 7308   4.797   1.659   0.682
 1828SOL     OW 7309   0.401   1.560   1.569
 1828SOL    HW1 7310   0.322   1.555   1.623
 1828SOL    HW2 7311   0.462   1.612   1.622
 1828SOL     MW 7312   0.399   1.566   1.583
 1829SOL     OW 7313   2.349   1.449   4.743
 1829SOL    HW1 7314   2.279   1.463   4.679
 1829SOL    HW2 7315   2.323   1.504   4.818
 1829SOL     MW 7316   2.336   1.458   4.744
 1830SOL     OW 7317   3.663   4.970   0.805
 1830SOL    HW1 7318   3.721   4.961   0.881
 1830SOL    HW2 7319   3.628   4.882   0.792
 1830SOL     MW 7320   3.666   4.957   0.813
 1831SOL     OW 7321   0.022   0.752   1.643
 1831SOL    HW1 7322   0.106   0.776   1.682
 1831SOL    HW2 7323  -0.001   0.828   1.588
 1831SOL     MW 7324   0.030   0.765   1.641
 1832SOL     OW 7325   0.283   3.900   4.361
 1832SOL    HW1 7326   0.250   3.972   4.415
 1832SOL    HW2 7327   0.350   3.941   4.305
 1832SOL     MW 7328   0.288   3.915   4.361
 1833SOL     OW 7329   5.136   1.641   4.675
 1833SOL    HW1 7330   5.135   1.635   4.580
 1833SOL    HW2 7331   5.225   1.670   4.697
 1833SOL     MW 7332   5.147   1.644   4.666
 1834SOL     OW 7333   4.797   4.926   4.783
 1834SOL    HW1 7334   4.728   4.959   4.841
 1834SOL    HW2 7335   4.750   4.869   4.721
 1834SOL     MW 7336   4.782   4.923   4.782
 1835SOL     OW 7337   0.027   2.210   3.306
 1835SOL    HW1 7338  -0.010   2.244   3.388
 1835SOL    HW2 7339  -0.006   2.269   3.239
 1835SOL     MW 7340   0.018   2.222   3.308
 1836SOL     OW 7341   0.561   2.281   5.412
 1836SOL    HW1 7342   0.536   2.191   5.391
 1836SOL    HW2 7343   0.590   2.277   5.503
 1836SOL     MW 7344   0.561   2.269   5.421
 1837SOL     OW 7345   0.060   2.653   0.163
 1837SOL    HW1 7346   0.142   2.624   0.202
 1837SOL    HW2 7347   0.086   2.702   0.084
 1837SOL     MW 7348   0.074   2.656   0.158
 1838SOL     OW 7349   2.264   1.974   0.624
 1838SOL    HW1 7350   2.321   1.900   0.645
 1838SOL    HW2 7351   2.260   2.025   0.705
 1838SOL     MW 7352   2.271   1.971   0.637
 1839SOL     OW 7353   4.631   1.224   5.188
 1839SOL    HW1 7354   4.671   1.273   5.116
 1839SOL    HW2 7355   4.693   1.154   5.206
 1839SOL     MW 7356   4.644   1.221   5.181
 1840SOL     OW 7357   3.935   0.249   1.299
 1840SOL    HW1 7358   3.850   0.237   1.256
 1840SOL    HW2 7359   3.947   0.344   1.303
 1840SOL     MW 7360   3.926   0.259   1.294
 1841SOL     OW 7361   4.779   3.965   4.396
 1841SOL    HW1 7362   4.831   3.896   4.436
 1841SOL    HW2 7363   4.830   4.045   4.411
 1841SOL     MW 7364   4.792   3.967   4.403
 1842SOL     OW 7365   4.404   0.896   0.762
 1842SOL    HW1 7366   4.324   0.855   0.728
 1842SOL    HW2 7367   4.453   0.824   0.801
 1842SOL     MW 7368   4.400   0.881   0.762
 1843SOL     OW 7369   2.917   0.561   2.681
 1843SOL    HW1 7370   2.957   0.596   2.601
 1843SOL    HW2 7371   2.949   0.472   2.687
 1843SOL     MW 7372   2.926   0.554   2.671
 1844SOL     OW 7373   2.233   5.491   4.063
 1844SOL    HW1 7374   2.220   5.474   4.157
 1844SOL    HW2 7375   2.303   5.431   4.037
 1844SOL     MW 7376   2.240   5.481   4.072
 1845SOL     OW 7377   0.873   2.832   1.159
 1845SOL    HW1 7378   0.826   2.871   1.233
 1845SOL    HW2 7379   0.957   2.878   1.158
 1845SOL     MW 7380   0.878   2.843   1.169
 1846SOL     OW 7381   5.092   1.902   4.943
 1846SOL    HW1 7382   5.186   1.918   4.934
 1846SOL    HW2 7383   5.056   1.921   4.856
 1846SOL     MW 7384   5.099   1.906   4.931
 1847SOL     OW 7385   4.073   2.978   3.489
 1847SOL    HW1 7386   4.122   3.059   3.475
 1847SOL    HW2 7387   4.061   2.942   3.402
 1847SOL     MW 7388   4.078   2.984   3.476
 1848SOL     OW 7389   1.042   2.268   1.856
 1848SOL    HW1 7390   1.132   2.241   1.877
 1848SOL    HW2 7391   0.997   2.268   1.941
 1848SOL     MW 7392   1.048   2.265   1.870
 1849SOL     OW 7393   5.399   4.247   2.886
 1849SOL    HW1 7394   5.374   4.155   2.879
 1849SOL    HW2 7395   5.488   4.250   2.851
 1849SOL     MW 7396   5.407   4.236   2.881
 1850SOL     OW 7397   3.645   4.509   4.332
 1850SOL    HW1 7398   3.569   4.565   4.317
 1850SOL    HW2 7399   3.618   4.423   4.300
 1850SOL     MW 7400   3.632   4.505   4.326
 1851SOL     OW 7401   4.580   2.207   5.155
 1851SOL    HW1 7402   4.530   2.161   5.088
 1851SOL    HW2 7403   4.542   2.178   5.238
 1851SOL     MW 7404   4.569   2.198   5.157
 1852SOL     OW 7405   1.838   1.475   0.931
 1852SOL    HW1 7406   1.814   1.530   1.005
 1852SOL    HW2 7407   1.875   1.396   0.970
 1852SOL     MW 7408   1.840   1.472   0.945
 1853SOL     OW 7409   4.898   1.893   2.725
 1853SOL    HW1 7410   4.903   1.852   2.639
 1853SOL    HW2 7411   4.927   1.825   2.786
 1853SOL     MW 7412   4.902   1.879   2.722
 1854SOL     OW 7413   2.122   0.276   5.102
 1854SOL    HW1 7414   2.186   0.269   5.173
 1854SOL    HW2 7415   2.141   0.360   5.061
 1854SOL     MW 7416   2.133   0.286   5.106
 1855SOL     OW 7417   2.367   1.293   1.474
 1855SOL    HW1 7418   2.380   1.243   1.393
 1855SOL    HW2 7419   2.273   1.310   1.477
 1855SOL     MW 7420   2.357   1.289   1.464
 1856SOL     OW 7421   1.503   2.127   0.724
 1856SOL    HW1 7422   1.423   2.180   0.726
 1856SOL    HW2 7423   1.515   2.105   0.632
 1856SOL     MW 7424   1.494   2.131   0.712
 1857SOL     OW 7425   3.341   0.433   4.712
 1857SOL    HW1 7426   3.380   0.462   4.795
 1857SOL    HW2 7427   3.354   0.338   4.712
 1857SOL     MW 7428   3.348   0.424   4.723
 1858SOL     OW 7429   3.031   5.126   3.571
 1858SOL    HW1 7430   3.030   5.211   3.527
 1858SOL    HW2 7431   3.044   5.147   3.664
 1858SOL     MW 7432   3.033   5.139   3.577
 1859SOL     OW 7433   0.126   1.357   1.488
 1859SOL    HW1 7434   0.154   1.366   1.397
 1859SOL    HW2 7435   0.161   1.272   1.516
 1859SOL     MW 7436   0.135   1.347   1.480
 1860SOL     OW 7437   5.084   4.248   3.122
 1860SOL    HW1 7438   5.166   4.281   3.158
 1860SOL    HW2 7439   5.043   4.325   3.081
 1860SOL     MW 7440   5.089   4.262   3.121
 1861SOL     OW 7441   2.035   0.225   3.777
 1861SOL    HW1 7442   1.991   0.201   3.695
 1861SOL    HW2 7443   2.009   0.156   3.839
 1861SOL     MW 7444   2.026   0.213   3.774
 1862SOL     OW 7445   4.723   0.243   4.226
 1862SOL    HW1 7446   4.644   0.193   4.208
 1862SOL    HW2 7447   4.757   0.206   4.308
 1862SOL     MW 7448   4.718   0.232   4.235
 1863SOL     OW 7449   3.729   3.166   0.144
 1863SOL    HW1 7450   3.824   3.169   0.154
 1863SOL    HW2 7451   3.696   3.240   0.195
 1863SOL     MW 7452   3.737   3.176   0.152
 1864SOL     OW 7453   3.339   3.139   1.607
 1864SOL    HW1 7454   3.276   3.068   1.599
 1864SOL    HW2 7455   3.314   3.201   1.538
 1864SOL     MW 7456   3.328   3.138   1.597
 1865SOL     OW 7457   0.314   3.974   3.142
 1865SOL    HW1 7458   0.258   3.985   3.218
 1865SOL    HW2 7459   0.258   3.998   3.067
 1865SOL     MW 7460   0.300   3.978   3.142
 1866SOL     OW 7461   2.682   0.804   2.540
 1866SOL    HW1 7462   2.661   0.717   2.575
 1866SOL    HW2 7463   2.777   0.808   2.539
 1866SOL     MW 7464   2.691   0.794   2.545
 1867SOL     OW 7465   3.242   5.432   3.280
 1867SOL    HW1 7466   3.225   5.498   3.212
 1867SOL    HW2 7467   3.332   5.448   3.308
 1867SOL     MW 7468   3.252   5.442   3.275
 1868SOL     OW 7469   2.849   1.615   1.715
 1868SOL    HW1 7470   2.867   1.523   1.695
 1868SOL    HW2 7471   2.926   1.645   1.762
 1868SOL     MW 7472   2.861   1.607   1.718
 1869SOL     OW 7473   3.415   2.275   0.839
 1869SOL    HW1 7474   3.454   2.188   0.846
 1869SOL    HW2 7475   3.371   2.275   0.754
 1869SOL     MW 7476   3.415   2.264   0.829
 1870SOL     OW 7477   5.109   5.025   4.931
 1870SOL    HW1 7478   5.198   5.057   4.945
 1870SOL    HW2 7479   5.099   4.955   4.996
 1870SOL     MW 7480   5.119   5.020   4.941
 1871SOL     OW 7481   3.913   0.811   1.604
 1871SOL    HW1 7482   3.926   0.834   1.512
 1871SOL    HW2 7483   3.959   0.728   1.614
 1871SOL     MW 7484   3.921   0.803   1.593
 1872SOL     OW 7485   1.448   1.861   3.976
 1872SOL    HW1 7486   1.402   1.848   4.059
 1872SOL    HW2 7487   1.445   1.776   3.933
 1872SOL     MW 7488   1.442   1.849   3.981
 1873SOL     OW 7489   5.200   2.931   5.213
 1873SOL    HW1 7490   5.167   2.924   5.124
 1873SOL    HW2 7491   5.241   2.846   5.229
 1873SOL     MW 7492   5.201   2.919   5.204
 1874SOL     OW 7493   4.669   2.557   3.859
 1874SOL    HW1 7494   4.637   2.640   3.824
 1874SOL    HW2 7495   4.610   2.538   3.932
 1874SOL     MW 7496   4.657   2.565   3.864
 1875SOL     OW 7497   0.351   4.350   5.397
 1875SOL    HW1 7498   0.412   4.303   5.340
 1875SOL    HW2 7499   0.384   4.336   5.485
 1875SOL     MW 7500   0.363   4.343   5.401
 1876SOL     OW 7501   1.549   5.322   3.405
 1876SOL    HW1 7502   1.484   5.260   3.437
 1876SOL    HW2 7503   1.629   5.272   3.397
 1876SOL     MW 7504   1.551   5.308   3.408
 1877SOL     OW 7505   0.863   5.411   2.654
 1877SOL    HW1 7506   0.800   5.419   2.726
 1877SOL    HW2 7507   0.811   5.377   2.581
 1877SOL     MW 7508   0.848   5.408   2.654
 1878SOL     OW 7509   2.217   2.494   4.878
 1878SOL    HW1 7510   2.230   2.417   4.934
 1878SOL    HW2 7511   2.229   2.462   4.789
 1878SOL     MW 7512   2.220   2.480   4.874
 1879SOL     OW 7513   0.733   3.901   3.442
 1879SOL    HW1 7514   0.748   3.834   3.375
 1879SOL    HW2 7515   0.814   3.901   3.494
 1879SOL     MW 7516   0.745   3.892   3.440
 1880SOL     OW 7517   1.582   0.723   3.878
 1880SOL    HW1 7518   1.593   0.728   3.784
 1880SOL    HW2 7519   1.672   0.715   3.912
 1880SOL     MW 7520   1.595   0.722   3.871
 1881SOL     OW 7521   0.178   5.024   3.978
 1881SOL    HW1 7522   0.095   5.035   4.024
 1881SOL    HW2 7523   0.196   5.109   3.938
 1881SOL     MW 7524   0.170   5.036   3.979
 1882SOL     OW 7525   4.838   5.189   3.906
 1882SOL    HW1 7526   4.857   5.271   3.953
 1882SOL    HW2 7527   4.799   5.132   3.973
 1882SOL     MW 7528   4.835   5.192   3.921
 1883SOL     OW 7529   4.109   3.233   2.298
 1883SOL    HW1 7530   4.144   3.168   2.237
 1883SOL    HW2 7531   4.020   3.250   2.266
 1883SOL     MW 7532   4.102   3.227   2.286
 1884SOL     OW 7533   4.758   0.680   3.377
 1884SOL    HW1 7534   4.667   0.654   3.365
 1884SOL    HW2 7535   4.760   0.773   3.355
 1884SOL     MW 7536   4.747   0.689   3.373
 1885SOL     OW 7537   4.961   4.586   0.259
 1885SOL    HW1 7538   4.910   4.640   0.319
 1885SOL    HW2 7539   4.996   4.648   0.195
 1885SOL     MW 7540   4.959   4.601   0.258
 1886SOL     OW 7541   4.168   3.057   2.081
 1886SOL    HW1 7542   4.252   3.026   2.049
 1886SOL    HW2 7543   4.154   3.140   2.035
 1886SOL     MW 7544   4.177   3.064   2.071
 1887SOL     OW 7545   0.635   2.152   1.701
 1887SOL    HW1 7546   0.718   2.194   1.676
 1887SOL    HW2 7547   0.654   2.109   1.784
 1887SOL     MW 7548   0.648   2.152   1.709
 1888SOL     OW 7549   1.248   1.021   4.898
 1888SOL    HW1 7550   1.325   1.023   4.954
 1888SOL    HW2 7551   1.175   1.002   4.957
 1888SOL     MW 7552   1.248   1.019   4.912
 1889SOL     OW 7553   2.172   4.938   1.139
 1889SOL    HW1 7554   2.191   4.864   1.196
 1889SOL    HW2 7555   2.129   5.002   1.196
 1889SOL     MW 7556   2.169   4.937   1.153
 1890SOL     OW 7557   3.189   5.263  -0.012
 1890SOL    HW1 7558   3.129   5.330   0.021
 1890SOL    HW2 7559   3.252   5.250   0.060
 1890SOL     MW 7560   3.189   5.270   0.002
 1891SOL     OW 7561   3.896   0.360   0.153
 1891SOL    HW1 7562   3.822   0.386   0.098
 1891SOL    HW2 7563   3.911   0.436   0.209
 1891SOL     MW 7564   3.888   0.373   0.153
 1892SOL     OW 7565   0.574   0.056   0.964
 1892SOL    HW1 7566   0.569   0.149   0.985
 1892SOL    HW2 7567   0.623   0.017   1.036
 1892SOL     MW 7568   0.580   0.063   0.976
 1893SOL     OW 7569   3.070   1.263   0.937
 1893SOL    HW1 7570   3.128   1.339   0.933
 1893SOL    HW2 7571   3.023   1.274   1.020
 1893SOL     MW 7572   3.071   1.274   0.947
 1894SOL     OW 7573   2.177   1.501   5.191
 1894SOL    HW1 7574   2.208   1.437   5.255
 1894SOL    HW2 7575   2.117   1.453   5.135
 1894SOL     MW 7576   2.173   1.487   5.192
 1895SOL     OW 7577   1.381   3.307   5.287
 1895SOL    HW1 7578   1.432   3.306   5.206
 1895SOL    HW2 7579   1.298   3.348   5.261
 1895SOL     MW 7580   1.377   3.312   5.273
 1896SOL     OW 7581   1.199   5.374   3.356
 1896SOL    HW1 7582   1.217   5.457   3.311
 1896SOL    HW2 7583   1.122   5.392   3.409
 1896SOL     MW 7584   1.192   5.387   3.357
 1897SOL     OW 7585   3.823   1.288   3.422
 1897SOL    HW1 7586   3.729   1.272   3.428
 1897SOL    HW2 7587   3.853   1.291   3.513
 1897SOL     MW 7588   3.815   1.286   3.435
 1898SOL     OW 7589   1.694   3.013   5.442
 1898SOL    HW1 7590   1.703   3.060   5.525
 1898SOL    HW2 7591   1.601   2.990   5.437
 1898SOL     MW 7592   1.683   3.016   5.452
 1899SOL     OW 7593   2.110   2.209   1.499
 1899SOL    HW1 7594   2.122   2.298   1.465
 1899SOL    HW2 7595   2.015   2.199   1.508
 1899SOL     MW 7596   2.100   2.219   1.496
 1900SOL     OW 7597   0.978   3.492   3.728
 1900SOL    HW1 7598   1.070   3.467   3.730
 1900SOL    HW2 7599   0.963   3.534   3.813
 1900SOL     MW 7600   0.987   3.494   3.739
 1901SOL     OW 7601   5.439   1.274   4.690
 1901SOL    HW1 7602   5.430   1.208   4.622
 1901SOL    HW2 7603   5.352   1.312   4.699
 1901SOL     MW 7604   5.427   1.270   4.683
 1902SOL     OW 7605   4.421   2.821   4.583
 1902SOL    HW1 7606   4.373   2.754   4.632
 1902SOL    HW2 7607   4.474   2.865   4.648
 1902SOL     MW 7608   4.421   2.818   4.597
 1903SOL     OW 7609   5.459   1.547   0.575
 1903SOL    HW1 7610   5.512   1.484   0.525
 1903SOL    HW2 7611   5.379   1.557   0.523
 1903SOL     MW 7612   5.456   1.540   0.562
 1904SOL     OW 7613   1.522   4.633   0.735
 1904SOL    HW1 7614   1.496   4.542   0.726
 1904SOL    HW2 7615   1.604   4.640   0.686
 1904SOL     MW 7616   1.529   4.622   0.728
 1905SOL     OW 7617   1.230   2.192   0.809
 1905SOL    HW1 7618   1.167   2.254   0.773
 1905SOL    HW2 7619   1.212   2.191   0.903
 1905SOL     MW 7620   1.219   2.199   0.816
 1906SOL     OW 7621   5.105   2.667   0.448
 1906SOL    HW1 7622   5.194   2.685   0.419
 1906SOL    HW2 7623   5.057   2.748   0.428
 1906SOL     MW 7624   5.110   2.680   0.442
 1907SOL     OW 7625   4.296   5.170   4.698
 1907SOL    HW1 7626   4.254   5.240   4.647
 1907SOL    HW2 7627   4.386   5.200   4.708
 1907SOL     MW 7628   4.302   5.183   4.693
 1908SOL     OW 7629   1.735   3.461   1.393
 1908SOL    HW1 7630   1.728   3.535   1.452
 1908SOL    HW2 7631   1.673   3.480   1.322
 1908SOL     MW 7632   1.726   3.473   1.391
 1909SOL     OW 7633   1.490   1.619   0.947
 1909SOL    HW1 7634   1.532   1.555   0.888
 1909SOL    HW2 7635   1.497   1.579   1.033
 1909SOL     MW 7636   1.496   1.605   0.950
 1910SOL     OW 7637   1.756   1.097   0.505
 1910SOL    HW1 7638   1.844   1.135   0.510
 1910SOL    HW2 7639   1.769   1.004   0.521
 1910SOL     MW 7640   1.769   1.090   0.508
 1911SOL     OW 7641   0.986   4.653   0.811
 1911SOL    HW1 7642   1.058   4.605   0.850
 1911SOL    HW2 7643   0.963   4.602   0.732
 1911SOL     MW 7644   0.992   4.640   0.806
 1912SOL     OW 7645   2.609   0.376   4.857
 1912SOL    HW1 7646   2.618   0.327   4.776
 1912SOL    HW2 7647   2.528   0.426   4.846
 1912SOL     MW 7648   2.600   0.376   4.846
 1913SOL     OW 7649   4.281   0.684   3.202
 1913SOL    HW1 7650   4.290   0.649   3.114
 1913SOL    HW2 7651   4.220   0.625   3.246
 1913SOL     MW 7652   4.274   0.672   3.196
 1914SOL     OW 7653   0.462   1.480   2.962
 1914SOL    HW1 7654   0.367   1.487   2.966
 1914SOL    HW2 7655   0.482   1.475   2.868
 1914SOL     MW 7656   0.452   1.480   2.951
 1915SOL     OW 7657   1.558   5.352   4.423
 1915SOL    HW1 7658   1.497   5.295   4.469
 1915SOL    HW2 7659   1.505   5.422   4.388
 1915SOL     MW 7660   1.544   5.353   4.425
 1916SOL     OW 7661   4.601   3.312   2.779
 1916SOL    HW1 7662   4.539   3.240   2.771
 1916SOL    HW2 7663   4.687   3.272   2.767
 1916SOL     MW 7664   4.604   3.298   2.776
 1917SOL     OW 7665   0.349   4.570   0.474
 1917SOL    HW1 7666   0.319   4.570   0.564
 1917SOL    HW2 7667   0.299   4.501   0.431
 1917SOL     MW 7668   0.339   4.561   0.480
 1918SOL     OW 7669   5.110   5.153   3.584
 1918SOL    HW1 7670   5.104   5.228   3.525
 1918SOL    HW2 7671   5.173   5.094   3.542
 1918SOL     MW 7672   5.117   5.155   3.571
 1919SOL     OW 7673   2.354   1.179   4.131
 1919SOL    HW1 7674   2.263   1.204   4.117
 1919SOL    HW2 7675   2.397   1.195   4.046
 1919SOL     MW 7676   2.348   1.184   4.118
 1920SOL     OW 7677   4.337   2.861   3.907
 1920SOL    HW1 7678   4.318   2.862   3.813
 1920SOL    HW2 7679   4.272   2.802   3.945
 1920SOL     MW 7680   4.326   2.853   3.900
 1921SOL     OW 7681   0.650   4.690   1.885
 1921SOL    HW1 7682   0.597   4.615   1.911
 1921SOL    HW2 7683   0.646   4.690   1.789
 1921SOL     MW 7684   0.643   4.681   1.876
 1922SOL     OW 7685   2.440   1.410   2.800
 1922SOL    HW1 7686   2.409   1.358   2.726
 1922SOL    HW2 7687   2.461   1.346   2.868
 1922SOL     MW 7688   2.439   1.395   2.799
 1923SOL     OW 7689   4.982   0.070   3.240
 1923SOL    HW1 7690   5.028   0.013   3.301
 1923SOL    HW2 7691   5.046   0.086   3.170
 1923SOL     MW 7692   4.996   0.064   3.239
 1924SOL     OW 7693   4.476   3.408   0.669
 1924SOL    HW1 7694   4.444   3.484   0.717
 1924SOL    HW2 7695   4.494   3.441   0.581
 1924SOL     MW 7696   4.475   3.422   0.664
 1925SOL     OW 7697   3.265   0.873   4.714
 1925SOL    HW1 7698   3.240   0.965   4.707
 1925SOL    HW2 7699   3.211   0.838   4.784
 1925SOL     MW 7700   3.255   0.881   4.722
 1926SOL     OW 7701   2.041   1.514   4.203
 1926SOL    HW1 7702   2.005   1.576   4.140
 1926SOL    HW2 7703   1.964   1.470   4.239
 1926SOL     MW 7704   2.026   1.516   4.200
 1927SOL     OW 7705   2.833   4.191   3.080
 1927SOL    HW1 7706   2.769   4.258   3.056
 1927SOL    HW2 7707   2.918   4.227   3.053
 1927SOL     MW 7708   2.836   4.204   3.074
 1928SOL     OW 7709   0.529   2.851   3.702
 1928SOL    HW1 7710   0.465   2.796   3.748
 1928SOL    HW2 7711   0.578   2.895   3.772
 1928SOL     MW 7712   0.527   2.849   3.717
 1929SOL     OW 7713   4.308   2.605   3.348
 1929SOL    HW1 7714   4.230   2.610   3.294
 1929SOL    HW2 7715   4.279   2.561   3.428
 1929SOL     MW 7716   4.294   2.600   3.352
 1930SOL     OW 7717   1.618   4.225   0.477
 1930SOL    HW1 7718   1.701   4.191   0.511
 1930SOL    HW2 7719   1.566   4.147   0.457
 1930SOL     MW 7720   1.622   4.211   0.479
 1931SOL     OW 7721   3.810   5.041   4.141
 1931SOL    HW1 7722   3.741   4.994   4.093
 1931SOL    HW2 7723   3.884   4.981   4.141
 1931SOL     MW 7724   3.811   5.027   4.135
 1932SOL     OW 7725   1.284   4.066   2.156
 1932SOL    HW1 7726   1.325   4.042   2.240
 1932SOL    HW2 7727   1.201   4.018   2.156
 1932SOL     MW 7728   1.279   4.056   2.167
 1933SOL     OW 7729   3.959   2.118   3.363
 1933SOL    HW1 7730   3.878   2.120   3.414
 1933SOL    HW2 7731   4.027   2.145   3.425
 1933SOL     MW 7732   3.957   2.122   3.378
 1934SOL     OW 7733   2.988   3.711   2.066
 1934SOL    HW1 7734   3.072   3.754   2.053
 1934SOL    HW2 7735   2.989   3.636   2.007
 1934SOL     MW 7736   2.999   3.707   2.057
 1935SOL     OW 7737   4.958   1.776   2.247
 1935SOL    HW1 7738   4.999   1.694   2.217
 1935SOL    HW2 7739   4.955   1.767   2.342
 1935SOL     MW 7740   4.963   1.764   2.255
 1936SOL     OW 7741   1.844   3.025   3.683
 1936SOL    HW1 7742   1.802   3.096   3.635
 1936SOL    HW2 7743   1.792   3.016   3.763
 1936SOL     MW 7744   1.832   3.033   3.687
 1937SOL     OW 7745   3.732   4.285   0.674
 1937SOL    HW1 7746   3.694   4.305   0.589
 1937SOL    HW2 7747   3.821   4.320   0.669
 1937SOL     MW 7748   3.739   4.292   0.662
 1938SOL     OW 7749   2.144   3.020   5.450
 1938SOL    HW1 7750   2.175   3.060   5.368
 1938SOL    HW2 7751   2.203   2.946   5.465
 1938SOL     MW 7752   2.155   3.016   5.441
 1939SOL     OW 7753   4.946   4.279   1.556
 1939SOL    HW1 7754   4.991   4.339   1.497
 1939SOL    HW2 7755   4.985   4.194   1.539
 1939SOL     MW 7756   4.957   4.276   1.546
 1940SOL     OW 7757   0.289   1.502   4.098
 1940SOL    HW1 7758   0.206   1.548   4.086
 1940SOL    HW2 7759   0.321   1.531   4.184
 1940SOL     MW 7760   0.282   1.512   4.108
 1941SOL     OW 7761   2.424   0.992   0.583
 1941SOL    HW1 7762   2.511   0.991   0.544
 1941SOL    HW2 7763   2.433   0.946   0.666
 1941SOL     MW 7764   2.436   0.986   0.589
 1942SOL     OW 7765   0.812   0.041   1.834
 1942SOL    HW1 7766   0.733   0.094   1.838
 1942SOL    HW2 7767   0.837   0.027   1.925
 1942SOL     MW 7768   0.805   0.046   1.846
 1943SOL     OW 7769   2.649   2.575   3.058
 1943SOL    HW1 7770   2.608   2.660   3.041
 1943SOL    HW2 7771   2.583   2.527   3.108
 1943SOL     MW 7772   2.635   2.580   3.062
 1944SOL     OW 7773   3.456   4.013   0.229
 1944SOL    HW1 7774   3.418   4.069   0.297
 1944SOL    HW2 7775   3.392   4.014   0.158
 1944SOL     MW 7776   3.443   4.020   0.229
 1945SOL     OW 7777   0.884   0.954   5.286
 1945SOL    HW1 7778   0.795   0.976   5.256
 1945SOL    HW2 7779   0.916   1.034   5.326
 1945SOL     MW 7780   0.877   0.967   5.287
 1946SOL     OW 7781   5.186   1.930   1.441
 1946SOL    HW1 7782   5.211   1.883   1.522
 1946SOL    HW2 7783   5.164   2.018   1.471
 1946SOL     MW 7784   5.187   1.935   1.455
 1947SOL     OW 7785   3.352   4.205   4.047
 1947SOL    HW1 7786   3.259   4.225   4.057
 1947SOL    HW2 7787   3.366   4.202   3.952
 1947SOL     MW 7788   3.342   4.207   4.036
 1948SOL     OW 7789   2.809   3.356   3.415
 1948SOL    HW1 7790   2.830   3.419   3.346
 1948SOL    HW2 7791   2.890   3.306   3.426
 1948SOL     MW 7792   2.822   3.357   3.408
 1949SOL     OW 7793   5.431   5.264   2.253
 1949SOL    HW1 7794   5.357   5.225   2.301
 1949SOL    HW2 7795   5.457   5.195   2.191
 1949SOL     MW 7796   5.425   5.250   2.251
 1950SOL     OW 7797   2.268   0.721   3.683
 1950SOL    HW1 7798   2.264   0.791   3.749
 1950SOL    HW2 7799   2.179   0.685   3.682
 1950SOL     MW 7800   2.256   0.725   3.692
 1951SOL     OW 7801   5.097   1.590   4.404
 1951SOL    HW1 7802   5.079   1.620   4.315
 1951SOL    HW2 7803   5.179   1.541   4.396
 1951SOL     MW 7804   5.106   1.588   4.392
 1952SOL     OW 7805   1.446   0.792   5.134
 1952SOL    HW1 7806   1.358   0.818   5.160
 1952SOL    HW2 7807   1.436   0.758   5.045
 1952SOL     MW 7808   1.434   0.791   5.126
 1953SOL     OW 7809   0.492   0.658   3.763
 1953SOL    HW1 7810   0.484   0.724   3.695
 1953SOL    HW2 7811   0.421   0.678   3.825
 1953SOL     MW 7812   0.482   0.669   3.762
 1954SOL     OW 7813   3.260   5.133   4.043
 1954SOL    HW1 7814   3.280   5.040   4.050
 1954SOL    HW2 7815   3.233   5.158   4.131
 1954SOL     MW 7816   3.259   5.124   4.055
 1955SOL     OW 7817   1.460   2.619   4.880
 1955SOL    HW1 7818   1.400   2.546   4.891
 1955SOL    HW2 7819   1.498   2.634   4.967
 1955SOL     MW 7820   1.457   2.612   4.892
 1956SOL     OW 7821   3.989   0.530   4.189
 1956SOL    HW1 7822   3.913   0.576   4.226
 1956SOL    HW2 7823   3.983   0.442   4.227
 1956SOL     MW 7824   3.978   0.525   4.199
 1957SOL     OW 7825   1.767   2.818   0.595
 1957SOL    HW1 7826   1.727   2.786   0.514
 1957SOL    HW2 7827   1.694   2.829   0.656
 1957SOL     MW 7828   1.752   2.816   0.592
 1958SOL     OW 7829   3.875   4.375   3.377
 1958SOL    HW1 7830   3.821   4.332   3.444
 1958SOL    HW2 7831   3.872   4.468   3.399
 1958SOL     MW 7832   3.868   4.381   3.388
 1959SOL     OW 7833   0.393   1.193   0.024
 1959SOL    HW1 7834   0.421   1.280  -0.006
 1959SOL    HW2 7835   0.314   1.210   0.075
 1959SOL     MW 7836   0.387   1.207   0.026
 1960SOL     OW 7837   1.939   1.650   0.741
 1960SOL    HW1 7838   1.947   1.594   0.663
 1960SOL    HW2 7839   1.919   1.589   0.812
 1960SOL     MW 7840   1.937   1.635   0.740
 1961SOL     OW 7841   1.220   3.215   4.370
 1961SOL    HW1 7842   1.260   3.128   4.377
 1961SOL    HW2 7843   1.283   3.274   4.412
 1961SOL     MW 7844   1.233   3.211   4.376
 1962SOL     OW 7845   3.584   2.463   0.701
 1962SOL    HW1 7846   3.527   2.411   0.758
 1962SOL    HW2 7847   3.527   2.530   0.665
 1962SOL     MW 7848   3.570   2.465   0.704
 1963SOL     OW 7849   1.767   0.329   4.579
 1963SOL    HW1 7850   1.748   0.370   4.494
 1963SOL    HW2 7851   1.840   0.271   4.561
 1963SOL     MW 7852   1.774   0.327   4.566
 1964SOL     OW 7853   3.998   3.133   0.192
 1964SOL    HW1 7854   4.070   3.083   0.154
 1964SOL    HW2 7855   4.035   3.217   0.215
 1964SOL     MW 7856   4.012   3.137   0.190
 1965SOL     OW 7857   3.684   1.820   3.057
 1965SOL    HW1 7858   3.740   1.886   3.015
 1965SOL    HW2 7859   3.730   1.738   3.042
 1965SOL     MW 7860   3.697   1.818   3.050
 1966SOL     OW 7861   1.293   4.665   5.082
 1966SOL    HW1 7862   1.276   4.632   5.170
 1966SOL    HW2 7863   1.213   4.711   5.057
 1966SOL     MW 7864   1.281   4.667   5.090
 1967SOL     OW 7865   1.238   2.219   0.371
 1967SOL    HW1 7866   1.299   2.262   0.430
 1967SOL    HW2 7867   1.261   2.252   0.284
 1967SOL     MW 7868   1.249   2.229   0.367
 1968SOL     OW 7869   0.608   2.014   4.304
 1968SOL    HW1 7870   0.693   1.996   4.344
 1968SOL    HW2 7871   0.608   1.963   4.223
 1968SOL     MW 7872   0.619   2.005   4.299
 1969SOL     OW 7873   5.367   1.172   2.200
 1969SOL    HW1 7874   5.340   1.099   2.256
 1969SOL    HW2 7875   5.335   1.250   2.245
 1969SOL     MW 7876   5.360   1.173   2.213
 1970SOL     OW 7877   1.687   2.399   3.349
 1970SOL    HW1 7878   1.731   2.323   3.313
 1970SOL    HW2 7879   1.673   2.377   3.441
 1970SOL     MW 7880   1.691   2.387   3.356
 1971SOL     OW 7881   0.391   2.130   3.868
 1971SOL    HW1 7882   0.479   2.163   3.851
 1971SOL    HW2 7883   0.354   2.113   3.782
 1971SOL     MW 7884   0.397   2.132   3.855
 1972SOL     OW 7885   0.986   1.628   3.607
 1972SOL    HW1 7886   0.972   1.673   3.524
 1972SOL    HW2 7887   0.913   1.656   3.663
 1972SOL     MW 7888   0.975   1.637   3.604
 1973SOL     OW 7889   4.821   4.065   5.141
 1973SOL    HW1 7890   4.821   4.071   5.236
 1973SOL    HW2 7891   4.850   4.152   5.112
 1973SOL     MW 7892   4.825   4.077   5.149
 1974SOL     OW 7893   0.327   3.018   3.080
 1974SOL    HW1 7894   0.303   2.949   3.018
 1974SOL    HW2 7895   0.302   3.099   3.037
 1974SOL     MW 7896   0.321   3.019   3.067
 1975SOL     OW 7897   3.641   2.241   2.006
 1975SOL    HW1 7898   3.684   2.161   2.037
 1975SOL    HW2 7899   3.610   2.284   2.086
 1975SOL     MW 7900   3.643   2.236   2.021
 1976SOL     OW 7901   1.024   0.881   0.406
 1976SOL    HW1 7902   1.101   0.889   0.462
 1976SOL    HW2 7903   1.047   0.813   0.343
 1976SOL     MW 7904   1.037   0.873   0.406
 1977SOL     OW 7905   2.953   2.511   0.596
 1977SOL    HW1 7906   2.974   2.596   0.634
 1977SOL    HW2 7907   2.859   2.501   0.610
 1977SOL     MW 7908   2.944   2.521   0.603
 1978SOL     OW 7909   0.357   2.389   3.345
 1978SOL    HW1 7910   0.416   2.334   3.396
 1978SOL    HW2 7911   0.306   2.438   3.410
 1978SOL     MW 7912   0.358   2.388   3.360
 1979SOL     OW 7913   0.173   5.216   5.302
 1979SOL    HW1 7914   0.265   5.213   5.274
 1979SOL    HW2 7915   0.157   5.309   5.319
 1979SOL     MW 7916   0.183   5.228   5.300
 1980SOL     OW 7917   2.833   5.410   3.243
 1980SOL    HW1 7918   2.867   5.492   3.208
 1980SOL    HW2 7919   2.756   5.436   3.293
 1980SOL     MW 7920   2.828   5.424   3.245
 1981SOL     OW 7921   2.710   3.579   4.278
 1981SOL    HW1 7922   2.652   3.502   4.286
 1981SOL    HW2 7923   2.699   3.626   4.360
 1981SOL     MW 7924   2.701   3.575   4.289
 1982SOL     OW 7925   4.408   0.613   2.927
 1982SOL    HW1 7926   4.349   0.539   2.909
 1982SOL    HW2 7927   4.442   0.637   2.841
 1982SOL     MW 7928   4.404   0.606   2.913
 1983SOL     OW 7929   3.146   2.163   2.294
 1983SOL    HW1 7930   3.141   2.213   2.376
 1983SOL    HW2 7931   3.061   2.177   2.253
 1983SOL     MW 7932   3.134   2.171   2.299
 1984SOL     OW 7933   4.331   3.910   2.127
 1984SOL    HW1 7934   4.334   3.815   2.138
 1984SOL    HW2 7935   4.356   3.945   2.212
 1984SOL     MW 7936   4.335   3.902   2.139
 1985SOL     OW 7937   0.428   2.870   4.595
 1985SOL    HW1 7938   0.521   2.884   4.609
 1985SOL    HW2 7939   0.400   2.942   4.539
 1985SOL     MW 7940   0.436   2.881   4.590
 1986SOL     OW 7941   2.397   2.903   3.736
 1986SOL    HW1 7942   2.489   2.881   3.747
 1986SOL    HW2 7943   2.374   2.868   3.650
 1986SOL     MW 7944   2.406   2.896   3.727
 1987SOL     OW 7945   4.556   0.599   4.814
 1987SOL    HW1 7946   4.543   0.516   4.768
 1987SOL    HW2 7947   4.470   0.620   4.851
 1987SOL     MW 7948   4.543   0.591   4.813
 1988SOL     OW 7949   1.380   5.095   1.202
 1988SOL    HW1 7950   1.474   5.094   1.220
 1988SOL    HW2 7951   1.373   5.074   1.109
 1988SOL     MW 7952   1.391   5.092   1.193
 1989SOL     OW 7953   2.373   1.112   1.260
 1989SOL    HW1 7954   2.431   1.037   1.273
 1989SOL    HW2 7955   2.377   1.130   1.166
 1989SOL     MW 7956   2.381   1.105   1.250
 1990SOL     OW 7957   3.523   1.668   0.355
 1990SOL    HW1 7958   3.606   1.630   0.325
 1990SOL    HW2 7959   3.460   1.645   0.287
 1990SOL     MW 7960   3.525   1.660   0.343
 1991SOL     OW 7961   0.506   0.266   0.536
 1991SOL    HW1 7962   0.568   0.300   0.601
 1991SOL    HW2 7963   0.499   0.173   0.555
 1991SOL     MW 7964   0.513   0.259   0.547
 1992SOL     OW 7965   4.759   4.632   2.247
 1992SOL    HW1 7966   4.775   4.564   2.182
 1992SOL    HW2 7967   4.675   4.608   2.286
 1992SOL     MW 7968   4.750   4.620   2.244
 1993SOL     OW 7969   1.843   5.315   1.406
 1993SOL    HW1 7970   1.786   5.367   1.349
 1993SOL    HW2 7971   1.810   5.332   1.495
 1993SOL     MW 7972   1.831   5.324   1.410
 1994SOL     OW 7973   2.512   3.488   1.693
 1994SOL    HW1 7974   2.605   3.508   1.702
 1994SOL    HW2 7975   2.469   3.545   1.756
 1994SOL     MW 7976   2.518   3.498   1.702
 1995SOL     OW 7977   0.664   4.688   3.862
 1995SOL    HW1 7978   0.757   4.685   3.884
 1995SOL    HW2 7979   0.652   4.617   3.799
 1995SOL     MW 7980   0.674   4.679   3.857
 1996SOL     OW 7981   5.213   1.050   4.286
 1996SOL    HW1 7982   5.213   1.106   4.364
 1996SOL    HW2 7983   5.281   0.985   4.303
 1996SOL     MW 7984   5.221   1.049   4.298
 1997SOL     OW 7985   4.338   5.228   2.339
 1997SOL    HW1 7986   4.270   5.180   2.388
 1997SOL    HW2 7987   4.290   5.271   2.268
 1997SOL     MW 7988   4.323   5.227   2.336
 1998SOL     OW 7989   0.191   3.894   3.612
 1998SOL    HW1 7990   0.209   3.804   3.586
 1998SOL    HW2 7991   0.162   3.937   3.532
 1998SOL     MW 7992   0.190   3.888   3.599
 1999SOL     OW 7993   1.365   3.374   2.190
 1999SOL    HW1 7994   1.284   3.422   2.205
 1999SOL    HW2 7995   1.398   3.353   2.277
 1999SOL     MW 7996   1.359   3.377   2.203
 2000SOL     OW 7997   0.735   3.451   3.304
 2000SOL    HW1 7998   0.788   3.386   3.257
 2000SOL    HW2 7999   0.747   3.429   3.396
 2000SOL     MW 8000   0.744   3.440   3.310
 2001SOL     OW 8001   2.293   2.753   2.071
 2001SOL    HW1 8002   2.372   2.699   2.071
 2001SOL    HW2 8003   2.325   2.842   2.056
 2001SOL     MW 8004   2.307   2.758   2.069
 2002SOL     OW 8005   4.868   2.197   1.616
 2002SOL    HW1 8006   4.952   2.201   1.569
 2002SOL    HW2 8007   4.807   2.160   1.553
 2002SOL     MW 8008   4.871   2.193   1.602
 2003SOL     OW 8009   1.817   2.856   4.873
 2003SOL    HW1 8010   1.791   2.887   4.786
 2003SOL    HW2 8011   1.861   2.772   4.856
 2003SOL     MW 8012   1.819   2.849   4.859
 2004SOL     OW 8013   2.678   4.202   2.575
 2004SOL    HW1 8014   2.679   4.108   2.558
 2004SOL    HW2 8015   2.753   4.237   2.527
 2004SOL     MW 8016   2.688   4.195   2.567
 2005SOL     OW 8017   3.428   0.461   2.933
 2005SOL    HW1 8018   3.426   0.471   3.028
 2005SOL    HW2 8019   3.446   0.549   2.900
 2005SOL     MW 8020   3.430   0.474   2.941
 2006SOL     OW 8021   5.362   4.613   4.602
 2006SOL    HW1 8022   5.341   4.559   4.678
 2006SOL    HW2 8023   5.283   4.611   4.549
 2006SOL     MW 8024   5.349   4.605   4.605
 2007SOL     OW 8025   5.343   1.273   4.186
 2007SOL    HW1 8026   5.348   1.265   4.091
 2007SOL    HW2 8027   5.299   1.192   4.214
 2007SOL     MW 8028   5.338   1.261   4.178
 2008SOL     OW 8029   0.853   2.752   4.054
 2008SOL    HW1 8030   0.806   2.685   4.003
 2008SOL    HW2 8031   0.920   2.785   3.995
 2008SOL     MW 8032   0.856   2.747   4.040
 2009SOL     OW 8033   4.012   3.412   5.292
 2009SOL    HW1 8034   3.931   3.450   5.257
 2009SOL    HW2 8035   4.016   3.444   5.382
 2009SOL     MW 8036   4.002   3.421   5.299
 2010SOL     OW 8037   3.605   3.773   3.474
 2010SOL    HW1 8038   3.566   3.740   3.555
 2010SOL    HW2 8039   3.538   3.758   3.407
 2010SOL     MW 8040   3.591   3.767   3.476
 2011SOL     OW 8041   2.483   1.383   4.261
 2011SOL    HW1 8042   2.417   1.441   4.301
 2011SOL    HW2 8043   2.434   1.305   4.235
 2011SOL     MW 8044   2.468   1.381   4.263
 2012SOL     OW 8045   4.658   2.331   1.903
 2012SOL    HW1 8046   4.591   2.265   1.886
 2012SOL    HW2 8047   4.682   2.363   1.816
 2012SOL     MW 8048   4.653   2.326   1.889
 2013SOL     OW 8049   2.742   4.244   5.274
 2013SOL    HW1 8050   2.819   4.300   5.268
 2013SOL    HW2 8051   2.731   4.227   5.368
 2013SOL     MW 8052   2.750   4.249   5.286
 2014SOL     OW 8053   4.084   4.498   2.449
 2014SOL    HW1 8054   4.154   4.452   2.403
 2014SOL    HW2 8055   4.128   4.546   2.518
 2014SOL     MW 8056   4.098   4.498   2.452
 2015SOL     OW 8057   3.491   2.113   3.274
 2015SOL    HW1 8058   3.447   2.189   3.311
 2015SOL    HW2 8059   3.488   2.127   3.179
 2015SOL     MW 8060   3.485   2.124   3.267
 2016SOL     OW 8061   4.577   4.732   1.910
 2016SOL    HW1 8062   4.497   4.778   1.937
 2016SOL    HW2 8063   4.647   4.797   1.922
 2016SOL     MW 8064   4.576   4.747   1.915
 2017SOL     OW 8065   2.016   3.001   4.562
 2017SOL    HW1 8066   2.097   2.953   4.542
 2017SOL    HW2 8067   2.005   3.060   4.487
 2017SOL     MW 8068   2.025   3.003   4.550
 2018SOL     OW 8069   0.874   3.917   5.420
 2018SOL    HW1 8070   0.844   3.856   5.352
 2018SOL    HW2 8071   0.964   3.892   5.438
 2018SOL     MW 8072   0.881   3.906   5.414
 2019SOL     OW 8073   3.324   2.009   1.630
 2019SOL    HW1 8074   3.285   1.973   1.550
 2019SOL    HW2 8075   3.259   2.072   1.662
 2019SOL     MW 8076   3.311   2.012   1.624
 2020SOL     OW 8077   1.680   0.883   2.035
 2020SOL    HW1 8078   1.698   0.807   1.979
 2020SOL    HW2 8079   1.601   0.922   1.999
 2020SOL     MW 8080   1.672   0.878   2.023
 2021SOL     OW 8081   1.148   2.972   2.695
 2021SOL    HW1 8082   1.063   2.986   2.655
 2021SOL    HW2 8083   1.167   2.879   2.680
 2021SOL     MW 8084   1.140   2.962   2.688
 2022SOL     OW 8085   0.250   2.638   2.376
 2022SOL    HW1 8086   0.187   2.657   2.446
 2022SOL    HW2 8087   0.335   2.655   2.416
 2022SOL     MW 8088   0.253   2.643   2.390
 2023SOL     OW 8089   3.963   3.883   1.955
 2023SOL    HW1 8090   4.021   3.956   1.978
 2023SOL    HW2 8091   4.014   3.804   1.977
 2023SOL     MW 8092   3.977   3.882   1.961
 2024SOL     OW 8093   0.127   0.949   4.774
 2024SOL    HW1 8094   0.105   1.023   4.830
 2024SOL    HW2 8095   0.088   0.971   4.689
 2024SOL     MW 8096   0.119   0.962   4.770
 2025SOL     OW 8097   1.309   3.034   0.394
 2025SOL    HW1 8098   1.322   3.128   0.401
 2025SOL    HW2 8099   1.228   3.023   0.345
 2025SOL     MW 8100   1.301   3.045   0.389
 2026SOL     OW 8101   4.545   3.387   1.707
 2026SOL    HW1 8102   4.533   3.474   1.669
 2026SOL    HW2 8103   4.591   3.337   1.640
 2026SOL     MW 8104   4.549   3.392   1.694
 2027SOL     OW 8105   1.143   0.314   0.442
 2027SOL    HW1 8106   1.088   0.248   0.400
 2027SOL    HW2 8107   1.227   0.308   0.396
 2027SOL     MW 8108   1.147   0.304   0.431
 2028SOL     OW 8109   3.572   0.334   4.089
 2028SOL    HW1 8110   3.532   0.248   4.076
 2028SOL    HW2 8111   3.666   0.319   4.077
 2028SOL     MW 8112   3.579   0.321   4.086
 2029SOL     OW 8113   2.608   1.232   3.357
 2029SOL    HW1 8114   2.582   1.301   3.295
 2029SOL    HW2 8115   2.545   1.162   3.343
 2029SOL     MW 8116   2.597   1.232   3.347
 2030SOL     OW 8117   3.963   4.827   5.233
 2030SOL    HW1 8118   4.047   4.806   5.274
 2030SOL    HW2 8119   3.905   4.848   5.307
 2030SOL     MW 8120   3.966   4.827   5.248
 2031SOL     OW 8121   2.001   4.104   4.119
 2031SOL    HW1 8122   2.075   4.150   4.158
 2031SOL    HW2 8123   1.943   4.174   4.089
 2031SOL     MW 8124   2.003   4.119   4.121
 2032SOL     OW 8125   5.427   3.051   3.658
 2032SOL    HW1 8126   5.414   2.958   3.678
 2032SOL    HW2 8127   5.342   3.091   3.674
 2032SOL     MW 8128   5.414   3.044   3.663
 2033SOL     OW 8129   1.186   1.385   3.451
 2033SOL    HW1 8130   1.142   1.300   3.454
 2033SOL    HW2 8131   1.188   1.414   3.542
 2033SOL     MW 8132   1.181   1.378   3.463
 2034SOL     OW 8133   2.790   4.745   4.746
 2034SOL    HW1 8134   2.838   4.826   4.762
 2034SOL    HW2 8135   2.751   4.757   4.659
 2034SOL     MW 8136   2.792   4.757   4.737
 2035SOL     OW 8137   3.916   0.049   4.868
 2035SOL    HW1 8138   3.897   0.039   4.961
 2035SOL    HW2 8139   3.850   0.111   4.837
 2035SOL     MW 8140   3.905   0.055   4.876
 2036SOL     OW 8141   1.091   2.721   0.163
 2036SOL    HW1 8142   1.156   2.693   0.229
 2036SOL    HW2 8143   1.019   2.659   0.172
 2036SOL     MW 8144   1.090   2.709   0.173
 2037SOL     OW 8145   4.271   0.396   5.316
 2037SOL    HW1 8146   4.359   0.371   5.345
 2037SOL    HW2 8147   4.213   0.364   5.385
 2037SOL     MW 8148   4.275   0.389   5.328
 2038SOL     OW 8149   0.279   3.876   0.387
 2038SOL    HW1 8150   0.327   3.796   0.408
 2038SOL    HW2 8151   0.277   3.925   0.469
 2038SOL     MW 8152   0.285   3.872   0.401
 2039SOL     OW 8153   4.004   1.498   5.036
 2039SOL    HW1 8154   4.078   1.548   5.001
 2039SOL    HW2 8155   4.007   1.512   5.131
 2039SOL     MW 8156   4.014   1.506   5.044
 2040SOL     OW 8157   2.912   0.534   4.990
 2040SOL    HW1 8158   2.985   0.484   4.953
 2040SOL    HW2 8159   2.867   0.571   4.914
 2040SOL     MW 8160   2.915   0.532   4.975
 2041SOL     OW 8161   4.979   4.803   2.202
 2041SOL    HW1 8162   4.972   4.875   2.264
 2041SOL    HW2 8163   4.909   4.743   2.228
 2041SOL     MW 8164   4.969   4.805   2.213
 2042SOL     OW 8165   4.797   2.245   4.543
 2042SOL    HW1 8166   4.745   2.166   4.526
 2042SOL    HW2 8167   4.888   2.217   4.534
 2042SOL     MW 8168   4.802   2.231   4.540
 2043SOL     OW 8169   0.200   3.717   3.128
 2043SOL    HW1 8170   0.128   3.732   3.188
 2043SOL    HW2 8171   0.255   3.795   3.135
 2043SOL     MW 8172   0.198   3.729   3.136
 2044SOL     OW 8173   1.836   4.717   1.936
 2044SOL    HW1 8174   1.783   4.654   1.886
 2044SOL    HW2 8175   1.774   4.754   1.999
 2044SOL     MW 8176   1.821   4.714   1.938
 2045SOL     OW 8177   1.239   1.166   5.259
 2045SOL    HW1 8178   1.310   1.155   5.322
 2045SOL    HW2 8179   1.252   1.253   5.222
 2045SOL     MW 8180   1.250   1.176   5.262
 2046SOL     OW 8181   0.825   5.002   3.748
 2046SOL    HW1 8182   0.858   5.089   3.770
 2046SOL    HW2 8183   0.903   4.952   3.725
 2046SOL     MW 8184   0.839   5.007   3.748
 2047SOL     OW 8185   4.886   2.904   4.449
 2047SOL    HW1 8186   4.894   2.825   4.504
 2047SOL    HW2 8187   4.972   2.914   4.409
 2047SOL     MW 8188   4.898   2.895   4.451
 2048SOL     OW 8189   4.992   2.971   0.880
 2048SOL    HW1 8190   5.041   2.994   0.801
 2048SOL    HW2 8191   5.049   2.909   0.926
 2048SOL     MW 8192   5.006   2.966   0.876
 2049SOL     OW 8193   3.033   3.892   1.638
 2049SOL    HW1 8194   3.068   3.981   1.640
 2049SOL    HW2 8195   2.946   3.901   1.600
 2049SOL     MW 8196   3.026   3.904   1.633
 2050SOL     OW 8197   3.776   3.870   0.978
 2050SOL    HW1 8198   3.827   3.845   0.901
 2050SOL    HW2 8199   3.752   3.787   1.019
 2050SOL     MW 8200   3.780   3.856   0.973
 2051SOL     OW 8201   0.121   3.103   5.130
 2051SOL    HW1 8202   0.062   3.075   5.201
 2051SOL    HW2 8203   0.078   3.073   5.050
 2051SOL     MW 8204   0.108   3.096   5.129
 2052SOL     OW 8205   0.656   0.328   0.155
 2052SOL    HW1 8206   0.723   0.386   0.118
 2052SOL    HW2 8207   0.621   0.376   0.230
 2052SOL     MW 8208   0.660   0.341   0.160
 2053SOL     OW 8209   0.305   2.704   3.310
 2053SOL    HW1 8210   0.224   2.673   3.270
 2053SOL    HW2 8211   0.374   2.670   3.253
 2053SOL     MW 8212   0.303   2.696   3.298
 2054SOL     OW 8213   1.652   1.329   1.771
 2054SOL    HW1 8214   1.740   1.349   1.738
 2054SOL    HW2 8215   1.605   1.413   1.766
 2054SOL     MW 8216   1.657   1.343   1.766
 2055SOL     OW 8217   5.040   3.020   3.027
 2055SOL    HW1 8218   5.007   3.110   3.030
 2055SOL    HW2 8219   4.972   2.968   3.069
 2055SOL     MW 8220   5.027   3.025   3.033
 2056SOL     OW 8221   4.834   2.540   2.469
 2056SOL    HW1 8222   4.806   2.461   2.514
 2056SOL    HW2 8223   4.772   2.550   2.396
 2056SOL     MW 8224   4.822   2.531   2.465
 2057SOL     OW 8225   0.905   2.736   4.722
 2057SOL    HW1 8226   0.935   2.647   4.737
 2057SOL    HW2 8227   0.924   2.753   4.630
 2057SOL     MW 8228   0.911   2.727   4.712
 2058SOL     OW 8229   2.475   1.307   1.993
 2058SOL    HW1 8230   2.563   1.272   1.978
 2058SOL    HW2 8231   2.484   1.364   2.069
 2058SOL     MW 8232   2.488   1.310   2.000
 2059SOL     OW 8233   2.993   4.878   3.850
 2059SOL    HW1 8234   3.038   4.826   3.783
 2059SOL    HW2 8235   2.900   4.860   3.836
 2059SOL     MW 8236   2.987   4.869   3.840
 2060SOL     OW 8237   4.973   2.856   2.801
 2060SOL    HW1 8238   5.025   2.915   2.856
 2060SOL    HW2 8239   4.882   2.881   2.816
 2060SOL     MW 8240   4.968   2.866   2.810
 2061SOL     OW 8241   4.760   0.651   0.045
 2061SOL    HW1 8242   4.670   0.617   0.048
 2061SOL    HW2 8243   4.770   0.682  -0.045
 2061SOL     MW 8244   4.749   0.651   0.034
 2062SOL     OW 8245   0.195   4.608   2.254
 2062SOL    HW1 8246   0.180   4.514   2.261
 2062SOL    HW2 8247   0.250   4.629   2.329
 2062SOL     MW 8248   0.201   4.599   2.264
 2063SOL     OW 8249   0.727   2.836   2.736
 2063SOL    HW1 8250   0.635   2.855   2.719
 2063SOL    HW2 8251   0.738   2.855   2.830
 2063SOL     MW 8252   0.717   2.841   2.746
 2064SOL     OW 8253   0.389   4.155   2.274
 2064SOL    HW1 8254   0.420   4.092   2.209
 2064SOL    HW2 8255   0.415   4.117   2.358
 2064SOL     MW 8256   0.397   4.142   2.277
 2065SOL     OW 8257   4.754   4.150   3.687
 2065SOL    HW1 8258   4.782   4.102   3.766
 2065SOL    HW2 8259   4.659   4.147   3.690
 2065SOL     MW 8260   4.745   4.143   3.698
 2066SOL     OW 8261   3.435   2.664   0.592
 2066SOL    HW1 8262   3.487   2.743   0.602
 2066SOL    HW2 8263   3.358   2.678   0.648
 2066SOL     MW 8264   3.432   2.676   0.601
 2067SOL     OW 8265   1.618   0.898   1.304
 2067SOL    HW1 8266   1.552   0.885   1.236
 2067SOL    HW2 8267   1.693   0.846   1.275
 2067SOL     MW 8268   1.619   0.889   1.292
 2068SOL     OW 8269   2.336   4.397   5.265
 2068SOL    HW1 8270   2.414   4.396   5.209
 2068SOL    HW2 8271   2.271   4.347   5.216
 2068SOL     MW 8272   2.338   4.390   5.252
 2069SOL     OW 8273   1.287   4.525   4.840
 2069SOL    HW1 8274   1.294   4.569   4.925
 2069SOL    HW2 8275   1.207   4.473   4.847
 2069SOL     MW 8276   1.278   4.524   4.852
 2070SOL     OW 8277   2.871   3.200   4.126
 2070SOL    HW1 8278   2.958   3.237   4.137
 2070SOL    HW2 8279   2.885   3.105   4.121
 2070SOL     MW 8280   2.884   3.192   4.127
 2071SOL     OW 8281   5.216   0.271   1.128
 2071SOL    HW1 8282   5.196   0.224   1.208
 2071SOL    HW2 8283   5.311   0.261   1.117
 2071SOL     MW 8284   5.226   0.264   1.137
 2072SOL     OW 8285   1.551   2.092   0.200
 2072SOL    HW1 8286   1.607   2.048   0.135
 2072SOL    HW2 8287   1.462   2.076   0.169
 2072SOL     MW 8288   1.547   2.084   0.188
 2073SOL     OW 8289   4.744   4.738   4.589
 2073SOL    HW1 8290   4.839   4.745   4.600
 2073SOL    HW2 8291   4.724   4.803   4.521
 2073SOL     MW 8292   4.754   4.747   4.582
 2074SOL     OW 8293   1.087   1.858   5.446
 2074SOL    HW1 8294   1.024   1.799   5.485
 2074SOL    HW2 8295   1.059   1.946   5.474
 2074SOL     MW 8296   1.075   1.862   5.454
 2075SOL     OW 8297   2.243   1.595   4.941
 2075SOL    HW1 8298   2.239   1.564   5.032
 2075SOL    HW2 8299   2.256   1.689   4.949
 2075SOL     MW 8300   2.244   1.603   4.954
 2076SOL     OW 8301   1.667   0.951   4.207
 2076SOL    HW1 8302   1.715   1.024   4.249
 2076SOL    HW2 8303   1.584   0.948   4.254
 2076SOL     MW 8304   1.663   0.960   4.218
 2077SOL     OW 8305   4.316   1.508   0.006
 2077SOL    HW1 8306   4.395   1.553   0.033
 2077SOL    HW2 8307   4.246   1.549   0.057
 2077SOL     MW 8308   4.317   1.519   0.016
 2078SOL     OW 8309   0.920   2.647   0.445
 2078SOL    HW1 8310   0.844   2.601   0.479
 2078SOL    HW2 8311   0.981   2.578   0.419
 2078SOL     MW 8312   0.918   2.632   0.446
 2079SOL     OW 8313   1.845   3.579   4.442
 2079SOL    HW1 8314   1.821   3.652   4.498
 2079SOL    HW2 8315   1.904   3.526   4.495
 2079SOL     MW 8316   1.849   3.581   4.456
 2080SOL     OW 8317   2.088   2.423   0.011
 2080SOL    HW1 8318   2.014   2.365   0.026
 2080SOL    HW2 8319   2.055   2.510   0.033
 2080SOL     MW 8320   2.074   2.427   0.015
 2081SOL     OW 8321   5.316   4.209   1.438
 2081SOL    HW1 8322   5.358   4.146   1.380
 2081SOL    HW2 8323   5.247   4.159   1.481
 2081SOL     MW 8324   5.312   4.194   1.436
 2082SOL     OW 8325   4.472   1.205   2.255
 2082SOL    HW1 8326   4.383   1.210   2.221
 2082SOL    HW2 8327   4.514   1.286   2.224
 2082SOL     MW 8328   4.466   1.216   2.246
 2083SOL     OW 8329   0.487   3.908   2.081
 2083SOL    HW1 8330   0.416   3.860   2.037
 2083SOL    HW2 8331   0.519   3.847   2.148
 2083SOL     MW 8332   0.482   3.894   2.084
 2084SOL     OW 8333   2.938   0.170   3.171
 2084SOL    HW1 8334   3.027   0.167   3.137
 2084SOL    HW2 8335   2.890   0.222   3.106
 2084SOL     MW 8336   2.943   0.176   3.158
 2085SOL     OW 8337   4.271   0.660   5.389
 2085SOL    HW1 8338   4.269   0.571   5.353
 2085SOL    HW2 8339   4.185   0.697   5.369
 2085SOL     MW 8340   4.260   0.653   5.382
 2086SOL     OW 8341   2.379   4.205   0.664
 2086SOL    HW1 8342   2.448   4.270   0.676
 2086SOL    HW2 8343   2.302   4.255   0.638
 2086SOL     MW 8344   2.378   4.219   0.663
 2087SOL     OW 8345   1.899   0.264   4.219
 2087SOL    HW1 8346   1.898   0.169   4.231
 2087SOL    HW2 8347   1.986   0.291   4.249
 2087SOL     MW 8348   1.910   0.255   4.224
 2088SOL     OW 8349   1.572   3.372   0.237
 2088SOL    HW1 8350   1.606   3.285   0.214
 2088SOL    HW2 8351   1.539   3.407   0.154
 2088SOL     MW 8352   1.572   3.365   0.223
 2089SOL     OW 8353   5.322   4.600   2.036
 2089SOL    HW1 8354   5.240   4.551   2.037
 2089SOL    HW2 8355   5.388   4.535   2.012
 2089SOL     MW 8356   5.320   4.585   2.033
 2090SOL     OW 8357   5.056   1.537   0.681
 2090SOL    HW1 8358   4.969   1.577   0.682
 2090SOL    HW2 8359   5.109   1.594   0.736
 2090SOL     MW 8360   5.051   1.549   0.688
 2091SOL     OW 8361   4.996   1.260   4.631
 2091SOL    HW1 8362   4.945   1.185   4.599
 2091SOL    HW2 8363   4.929   1.321   4.663
 2091SOL     MW 8364   4.981   1.258   4.631
 2092SOL     OW 8365   4.403   1.845   0.385
 2092SOL    HW1 8366   4.382   1.880   0.299
 2092SOL    HW2 8367   4.443   1.759   0.367
 2092SOL     MW 8368   4.406   1.838   0.372
 2093SOL     OW 8369   3.866   2.944   3.672
 2093SOL    HW1 8370   3.937   2.971   3.614
 2093SOL    HW2 8371   3.841   2.858   3.641
 2093SOL     MW 8372   3.872   2.937   3.661
 2094SOL     OW 8373   3.720   2.798   3.986
 2094SOL    HW1 8374   3.634   2.807   4.026
 2094SOL    HW2 8375   3.734   2.881   3.940
 2094SOL     MW 8376   3.711   2.810   3.986
 2095SOL     OW 8377   1.951   1.904   3.666
 2095SOL    HW1 8378   2.004   1.980   3.639
 2095SOL    HW2 8379   1.884   1.896   3.598
 2095SOL     MW 8380   1.950   1.913   3.654
 2096SOL     OW 8381   5.163   3.120   3.694
 2096SOL    HW1 8382   5.134   3.071   3.617
 2096SOL    HW2 8383   5.142   3.211   3.673
 2096SOL     MW 8384   5.157   3.125   3.681
 2097SOL     OW 8385   4.567   4.843   2.362
 2097SOL    HW1 8386   4.524   4.758   2.360
 2097SOL    HW2 8387   4.654   4.827   2.327
 2097SOL     MW 8388   4.572   4.830   2.358
 2098SOL     OW 8389   3.193   2.438   4.746
 2098SOL    HW1 8390   3.201   2.532   4.764
 2098SOL    HW2 8391   3.222   2.396   4.827
 2098SOL     MW 8392   3.198   2.445   4.759
 2099SOL     OW 8393   0.142   4.349   4.220
 2099SOL    HW1 8394   0.096   4.409   4.279
 2099SOL    HW2 8395   0.147   4.395   4.137
 2099SOL     MW 8396   0.137   4.362   4.217
 2100SOL     OW 8397   2.908   2.513   1.147
 2100SOL    HW1 8398   2.892   2.433   1.196
 2100SOL    HW2 8399   2.991   2.547   1.183
 2100SOL     MW 8400   2.917   2.507   1.158
 2101SOL     OW 8401   2.302   2.125   3.817
 2101SOL    HW1 8402   2.246   2.130   3.739
 2101SOL    HW2 8403   2.249   2.161   3.888
 2101SOL     MW 8404   2.288   2.130   3.816
 2102SOL     OW 8405   4.934   1.499   1.584
 2102SOL    HW1 8406   4.880   1.421   1.593
 2102SOL    HW2 8407   4.918   1.549   1.664
 2102SOL     MW 8408   4.925   1.495   1.596
 2103SOL     OW 8409  -0.023   1.028   5.228
 2103SOL    HW1 8410  -0.002   1.119   5.205
 2103SOL    HW2 8411   0.059   0.993   5.263
 2103SOL     MW 8412  -0.010   1.035   5.229
 2104SOL     OW 8413   5.128   2.125   1.158
 2104SOL    HW1 8414   5.182   2.051   1.128
 2104SOL    HW2 8415   5.122   2.182   1.081
 2104SOL     MW 8416   5.134   2.122   1.144
 2105SOL     OW 8417   1.579   5.041   2.274
 2105SOL    HW1 8418   1.492   5.079   2.268
 2105SOL    HW2 8419   1.638   5.112   2.247
 2105SOL     MW 8420   1.576   5.055   2.270
 2106SOL     OW 8421   4.257   3.451   2.897
 2106SOL    HW1 8422   4.350   3.462   2.918
 2106SOL    HW2 8423   4.249   3.479   2.806
 2106SOL     MW 8424   4.268   3.456   2.888
 2107SOL     OW 8425   0.074   4.327   1.505
 2107SOL    HW1 8426  -0.016   4.297   1.490
 2107SOL    HW2 8427   0.101   4.282   1.585
 2107SOL     MW 8428   0.066   4.317   1.513
 2108SOL     OW 8429   4.812   5.082   2.562
 2108SOL    HW1 8430   4.720   5.084   2.535
 2108SOL    HW2 8431   4.813   5.022   2.637
 2108SOL     MW 8432   4.800   5.075   2.568
 2109SOL     OW 8433   4.270   3.889   0.390
 2109SOL    HW1 8434   4.186   3.888   0.435
 2109SOL    HW2 8435   4.302   3.798   0.396
 2109SOL     MW 8436   4.263   3.877   0.396
 2110SOL     OW 8437   2.283   1.829   4.432
 2110SOL    HW1 8438   2.289   1.737   4.404
 2110SOL    HW2 8439   2.226   1.870   4.368
 2110SOL     MW 8440   2.277   1.822   4.421
 2111SOL     OW 8441   2.420   5.408   2.638
 2111SOL    HW1 8442   2.434   5.352   2.715
 2111SOL    HW2 8443   2.335   5.381   2.603
 2111SOL     MW 8444   2.411   5.397   2.644
 2112SOL     OW 8445   4.683   4.285   1.224
 2112SOL    HW1 8446   4.717   4.273   1.135
 2112SOL    HW2 8447   4.723   4.366   1.254
 2112SOL     MW 8448   4.692   4.294   1.217
 2113SOL     OW 8449   1.648   2.072   1.728
 2113SOL    HW1 8450   1.555   2.060   1.712
 2113SOL    HW2 8451   1.681   1.984   1.747
 2113SOL     MW 8452   1.641   2.060   1.728
 2114SOL     OW 8453   1.423   2.942   3.527
 2114SOL    HW1 8454   1.357   2.933   3.596
 2114SOL    HW2 8455   1.440   3.036   3.524
 2114SOL     MW 8456   1.417   2.953   3.536
 2115SOL     OW 8457   2.294   5.063   1.895
 2115SOL    HW1 8458   2.265   5.044   1.984
 2115SOL    HW2 8459   2.382   5.098   1.905
 2115SOL     MW 8460   2.301   5.065   1.907
 2116SOL     OW 8461   4.232   0.932   1.424
 2116SOL    HW1 8462   4.294   0.913   1.494
 2116SOL    HW2 8463   4.202   1.021   1.442
 2116SOL     MW 8464   4.236   0.941   1.435
 2117SOL     OW 8465   1.732   5.151   3.755
 2117SOL    HW1 8466   1.774   5.103   3.684
 2117SOL    HW2 8467   1.732   5.242   3.726
 2117SOL     MW 8468   1.737   5.156   3.742
 2118SOL     OW 8469   1.258   3.900   3.213
 2118SOL    HW1 8470   1.282   3.978   3.264
 2118SOL    HW2 8471   1.298   3.915   3.127
 2118SOL     MW 8472   1.266   3.912   3.209
 2119SOL     OW 8473   0.363   4.845   3.060
 2119SOL    HW1 8474   0.428   4.775   3.057
 2119SOL    HW2 8475   0.336   4.857   2.969
 2119SOL     MW 8476   0.368   4.838   3.048
 2120SOL     OW 8477   2.257   4.781   3.379
 2120SOL    HW1 8478   2.265   4.872   3.407
 2120SOL    HW2 8479   2.347   4.750   3.370
 2120SOL     MW 8480   2.269   4.789   3.381
 2121SOL     OW 8481   5.165   2.674   1.555
 2121SOL    HW1 8482   5.160   2.705   1.465
 2121SOL    HW2 8483   5.201   2.747   1.604
 2121SOL     MW 8484   5.169   2.687   1.550
 2122SOL     OW 8485   3.977   3.456   3.463
 2122SOL    HW1 8486   3.935   3.419   3.541
 2122SOL    HW2 8487   3.916   3.524   3.434
 2122SOL     MW 8488   3.964   3.460   3.470
 2123SOL     OW 8489   2.918   3.277   1.625
 2123SOL    HW1 8490   3.002   3.318   1.645
 2123SOL    HW2 8491   2.935   3.225   1.546
 2123SOL     MW 8492   2.931   3.276   1.618
 2124SOL     OW 8493   4.431   1.884   3.803
 2124SOL    HW1 8494   4.432   1.936   3.722
 2124SOL    HW2 8495   4.522   1.861   3.819
 2124SOL     MW 8496   4.442   1.888   3.795
 2125SOL     OW 8497   3.248   5.284   0.686
 2125SOL    HW1 8498   3.319   5.223   0.707
 2125SOL    HW2 8499   3.214   5.312   0.771
 2125SOL     MW 8500   3.253   5.280   0.700
 2126SOL     OW 8501   1.439   1.049   2.512
 2126SOL    HW1 8502   1.495   1.001   2.573
 2126SOL    HW2 8503   1.441   0.997   2.432
 2126SOL     MW 8504   1.447   1.036   2.510
 2127SOL     OW 8505   2.144   4.313   1.938
 2127SOL    HW1 8506   2.176   4.347   1.854
 2127SOL    HW2 8507   2.052   4.338   1.941
 2127SOL     MW 8508   2.136   4.320   1.928
 2128SOL     OW 8509   4.264   0.468   0.756
 2128SOL    HW1 8510   4.196   0.482   0.690
 2128SOL    HW2 8511   4.327   0.410   0.713
 2128SOL     MW 8512   4.263   0.463   0.742
 2129SOL     OW 8513   1.719   1.908   0.051
 2129SOL    HW1 8514   1.670   1.851   0.110
 2129SOL    HW2 8515   1.781   1.953   0.107
 2129SOL     MW 8516   1.720   1.907   0.065
 2130SOL     OW 8517   4.982   5.361   0.377
 2130SOL    HW1 8518   4.953   5.270   0.371
 2130SOL    HW2 8519   5.054   5.359   0.440
 2130SOL     MW 8520   4.988   5.349   0.384
 2131SOL     OW 8521   0.846   5.104   0.451
 2131SOL    HW1 8522   0.848   5.092   0.356
 2131SOL    HW2 8523   0.767   5.057   0.479
 2131SOL     MW 8524   0.836   5.096   0.443
 2132SOL     OW 8525   0.617   2.291   3.957
 2132SOL    HW1 8526   0.668   2.261   4.033
 2132SOL    HW2 8527   0.530   2.309   3.993
 2132SOL     MW 8528   0.612   2.289   3.972
 2133SOL     OW 8529   0.216   2.550   5.308
 2133SOL    HW1 8530   0.270   2.528   5.232
 2133SOL    HW2 8531   0.259   2.509   5.382
 2133SOL     MW 8532   0.228   2.542   5.308
 2134SOL     OW 8533   1.605   0.236   2.420
 2134SOL    HW1 8534   1.623   0.252   2.328
 2134SOL    HW2 8535   1.688   0.207   2.457
 2134SOL     MW 8536   1.618   0.234   2.413
 2135SOL     OW 8537   3.342   3.919   5.081
 2135SOL    HW1 8538   3.270   3.977   5.105
 2135SOL    HW2 8539   3.303   3.832   5.080
 2135SOL     MW 8540   3.328   3.916   5.084
 2136SOL     OW 8541   1.990   1.108  -0.015
 2136SOL    HW1 8542   1.999   1.087   0.078
 2136SOL    HW2 8543   1.998   1.203  -0.018
 2136SOL     MW 8544   1.992   1.117  -0.003
 2137SOL     OW 8545   2.913   5.358   1.330
 2137SOL    HW1 8546   2.872   5.316   1.254
 2137SOL    HW2 8547   2.869   5.318   1.405
 2137SOL     MW 8548   2.902   5.347   1.330
 2138SOL     OW 8549   4.212   4.840   4.288
 2138SOL    HW1 8550   4.201   4.745   4.292
 2138SOL    HW2 8551   4.182   4.871   4.373
 2138SOL     MW 8552   4.207   4.832   4.299
 2139SOL     OW 8553   3.032   2.918   3.415
 2139SOL    HW1 8554   3.028   2.920   3.319
 2139SOL    HW2 8555   2.941   2.903   3.442
 2139SOL     MW 8556   3.020   2.916   3.406
 2140SOL     OW 8557   5.121   1.657   1.918
 2140SOL    HW1 8558   5.152   1.747   1.917
 2140SOL    HW2 8559   5.040   1.658   1.867
 2140SOL     MW 8560   5.115   1.668   1.911
 2141SOL     OW 8561   4.925   3.377   1.451
 2141SOL    HW1 8562   4.968   3.325   1.383
 2141SOL    HW2 8563   4.902   3.313   1.519
 2141SOL     MW 8564   4.928   3.362   1.451
 2142SOL     OW 8565   0.378   3.028   4.815
 2142SOL    HW1 8566   0.393   2.961   4.748
 2142SOL    HW2 8567   0.465   3.050   4.847
 2142SOL     MW 8568   0.391   3.022   4.811
 2143SOL     OW 8569   1.195   1.882   0.358
 2143SOL    HW1 8570   1.196   1.933   0.439
 2143SOL    HW2 8571   1.204   1.791   0.386
 2143SOL     MW 8572   1.196   1.877   0.372
 2144SOL     OW 8573   4.044   1.970   1.147
 2144SOL    HW1 8574   3.978   2.023   1.192
 2144SOL    HW2 8575   4.059   2.016   1.064
 2144SOL     MW 8576   4.037   1.983   1.142
 2145SOL     OW 8577   4.199   1.597   4.264
 2145SOL    HW1 8578   4.292   1.604   4.285
 2145SOL    HW2 8579   4.158   1.670   4.311
 2145SOL     MW 8580   4.206   1.607   4.273
 2146SOL     OW 8581   0.186   4.017   2.910
 2146SOL    HW1 8582   0.156   3.937   2.868
 2146SOL    HW2 8583   0.169   4.086   2.846
 2146SOL     MW 8584   0.180   4.016   2.896
 2147SOL     OW 8585   2.988   3.306   4.432
 2147SOL    HW1 8586   2.894   3.293   4.442
 2147SOL    HW2 8587   3.007   3.386   4.480
 2147SOL     MW 8588   2.978   3.314   4.439
 2148SOL     OW 8589   2.375   2.699   2.386
 2148SOL    HW1 8590   2.391   2.708   2.480
 2148SOL    HW2 8591   2.347   2.786   2.358
 2148SOL     MW 8592   2.374   2.711   2.394
 2149SOL     OW 8593   2.684   0.200   3.594
 2149SOL    HW1 8594   2.747   0.230   3.659
 2149SOL    HW2 8595   2.611   0.165   3.646
 2149SOL     MW 8596   2.682   0.199   3.609
 2150SOL     OW 8597   1.294   3.690   5.235
 2150SOL    HW1 8598   1.358   3.633   5.192
 2150SOL    HW2 8599   1.328   3.778   5.224
 2150SOL     MW 8600   1.306   3.694   5.228
 2151SOL     OW 8601   5.069   2.406   2.424
 2151SOL    HW1 8602   4.988   2.454   2.439
 2151SOL    HW2 8603   5.125   2.429   2.498
 2151SOL     MW 8604   5.066   2.415   2.435
 2152SOL     OW 8605   3.876   0.853   0.339
 2152SOL    HW1 8606   3.920   0.901   0.269
 2152SOL    HW2 8607   3.787   0.838   0.306
 2152SOL     MW 8608   3.870   0.857   0.326
 2153SOL     OW 8609   5.077   0.981   1.878
 2153SOL    HW1 8610   5.005   0.939   1.925
 2153SOL    HW2 8611   5.138   0.909   1.859
 2153SOL     MW 8612   5.075   0.966   1.882
 2154SOL     OW 8613   2.398   4.121   0.921
 2154SOL    HW1 8614   2.434   4.033   0.910
 2154SOL    HW2 8615   2.383   4.153   0.832
 2154SOL     MW 8616   2.401   4.114   0.908
 2155SOL     OW 8617   2.375   5.388   1.996
 2155SOL    HW1 8618   2.282   5.366   1.988
 2155SOL    HW2 8619   2.392   5.448   1.924
 2155SOL     MW 8620   2.365   5.393   1.986
 2156SOL     OW 8621   3.027   2.950   3.145
 2156SOL    HW1 8622   3.038   2.871   3.092
 2156SOL    HW2 8623   2.945   2.988   3.114
 2156SOL     MW 8624   3.018   2.945   3.134
 2157SOL     OW 8625   3.561   4.045   1.926
 2157SOL    HW1 8626   3.586   4.130   1.890
 2157SOL    HW2 8627   3.592   4.048   2.016
 2157SOL     MW 8628   3.568   4.057   1.933
 2158SOL     OW 8629   3.417   1.605   4.154
 2158SOL    HW1 8630   3.443   1.534   4.096
 2158SOL    HW2 8631   3.328   1.583   4.181
 2158SOL     MW 8632   3.409   1.593   4.150
 2159SOL     OW 8633   2.687   0.905   4.681
 2159SOL    HW1 8634   2.649   0.964   4.746
 2159SOL    HW2 8635   2.618   0.840   4.666
 2159SOL     MW 8636   2.673   0.904   4.687
 2160SOL     OW 8637   2.602   1.724   2.522
 2160SOL    HW1 8638   2.676   1.782   2.504
 2160SOL    HW2 8639   2.642   1.638   2.532
 2160SOL     MW 8640   2.617   1.720   2.521
 2161SOL     OW 8641   5.342   4.036   0.542
 2161SOL    HW1 8642   5.277   3.967   0.545
 2161SOL    HW2 8643   5.409   4.004   0.480
 2161SOL     MW 8644   5.342   4.023   0.534
 2162SOL     OW 8645   5.383   4.931   0.322
 2162SOL    HW1 8646   5.389   4.889   0.236
 2162SOL    HW2 8647   5.289   4.941   0.337
 2162SOL     MW 8648   5.372   4.927   0.313
 2163SOL     OW 8649   3.572   1.285   4.910
 2163SOL    HW1 8650   3.593   1.239   4.992
 2163SOL    HW2 8651   3.633   1.359   4.909
 2163SOL     MW 8652   3.583   1.288   4.921
 2164SOL     OW 8653   0.107   4.614   0.140
 2164SOL    HW1 8654   0.199   4.635   0.159
 2164SOL    HW2 8655   0.070   4.589   0.225
 2164SOL     MW 8656   0.114   4.614   0.154
 2165SOL     OW 8657   5.339   3.673   0.876
 2165SOL    HW1 8658   5.407   3.608   0.891
 2165SOL    HW2 8659   5.352   3.738   0.946
 2165SOL     MW 8660   5.349   3.673   0.887
 2166SOL     OW 8661   0.142   3.788   1.372
 2166SOL    HW1 8662   0.172   3.812   1.284
 2166SOL    HW2 8663   0.055   3.827   1.380
 2166SOL     MW 8664   0.135   3.796   1.362
 2167SOL     OW 8665   1.188   3.427   4.774
 2167SOL    HW1 8666   1.256   3.473   4.824
 2167SOL    HW2 8667   1.106   3.469   4.800
 2167SOL     MW 8668   1.186   3.438   4.784
 2168SOL     OW 8669   5.359   1.928   4.908
 2168SOL    HW1 8670   5.384   1.998   4.847
 2168SOL    HW2 8671   5.370   1.847   4.857
 2168SOL     MW 8672   5.363   1.927   4.894
 2169SOL     OW 8673   5.076   4.802   4.254
 2169SOL    HW1 8674   5.117   4.842   4.178
 2169SOL    HW2 8675   4.982   4.818   4.242
 2169SOL     MW 8676   5.069   4.809   4.243
 2170SOL     OW 8677   0.520   0.605   1.254
 2170SOL    HW1 8678   0.612   0.630   1.238
 2170SOL    HW2 8679   0.523   0.511   1.268
 2170SOL     MW 8680   0.533   0.596   1.254
 2171SOL     OW 8681   1.246   4.891   3.832
 2171SOL    HW1 8682   1.320   4.879   3.891
 2171SOL    HW2 8683   1.267   4.835   3.757
 2171SOL     MW 8684   1.259   4.882   3.830
 2172SOL     OW 8685   0.468   1.008   1.362
 2172SOL    HW1 8686   0.423   1.082   1.402
 2172SOL    HW2 8687   0.551   1.044   1.331
 2172SOL     MW 8688   0.473   1.022   1.363
 2173SOL     OW 8689   1.627   2.370   3.613
 2173SOL    HW1 8690   1.537   2.404   3.613
 2173SOL    HW2 8691   1.621   2.287   3.661
 2173SOL     MW 8692   1.614   2.364   3.619
 2174SOL     OW 8693   4.790   2.058   0.289
 2174SOL    HW1 8694   4.747   2.143   0.290
 2174SOL    HW2 8695   4.720   1.995   0.303
 2174SOL     MW 8696   4.776   2.061   0.291
 2175SOL     OW 8697   0.503   4.473   1.956
 2175SOL    HW1 8698   0.540   4.388   1.933
 2175SOL    HW2 8699   0.429   4.483   1.896
 2175SOL     MW 8700   0.498   4.463   1.945
 2176SOL     OW 8701   5.060   3.644   3.118
 2176SOL    HW1 8702   5.026   3.582   3.184
 2176SOL    HW2 8703   5.077   3.724   3.167
 2176SOL     MW 8704   5.058   3.646   3.133
 2177SOL     OW 8705   0.162   1.755   3.885
 2177SOL    HW1 8706   0.234   1.798   3.931
 2177SOL    HW2 8707   0.193   1.749   3.794
 2177SOL     MW 8708   0.175   1.760   3.879
 2178SOL     OW 8709   2.829   4.619   4.351
 2178SOL    HW1 8710   2.912   4.643   4.393
 2178SOL    HW2 8711   2.811   4.530   4.381
 2178SOL     MW 8712   2.837   4.611   4.360
 2179SOL     OW 8713   2.243   4.506   3.489
 2179SOL    HW1 8714   2.230   4.599   3.474
 2179SOL    HW2 8715   2.291   4.476   3.411
 2179SOL     MW 8716   2.248   4.514   3.477
 2180SOL     OW 8717   3.082   2.621   2.508
 2180SOL    HW1 8718   3.041   2.539   2.480
 2180SOL    HW2 8719   3.154   2.633   2.446
 2180SOL     MW 8720   3.086   2.612   2.496
 2181SOL     OW 8721   4.236   4.775   4.746
 2181SOL    HW1 8722   4.311   4.765   4.805
 2181SOL    HW2 8723   4.166   4.808   4.802
 2181SOL     MW 8724   4.237   4.778   4.761
 2182SOL     OW 8725   0.900   2.547   3.304
 2182SOL    HW1 8726   0.867   2.531   3.392
 2182SOL    HW2 8727   0.976   2.604   3.317
 2182SOL     MW 8728   0.906   2.552   3.317
 2183SOL     OW 8729   2.820   2.986   5.228
 2183SOL    HW1 8730   2.841   2.975   5.135
 2183SOL    HW2 8731   2.900   3.021   5.267
 2183SOL     MW 8732   2.833   2.989   5.221
 2184SOL     OW 8733   4.193   4.781   3.902
 2184SOL    HW1 8734   4.122   4.819   3.954
 2184SOL    HW2 8735   4.149   4.735   3.830
 2184SOL     MW 8736   4.179   4.780   3.899
 2185SOL     OW 8737   5.216   0.157   4.070
 2185SOL    HW1 8738   5.142   0.105   4.102
 2185SOL    HW2 8739   5.276   0.163   4.144
 2185SOL     MW 8740   5.214   0.151   4.084
 2186SOL     OW 8741   4.108   2.444   3.969
 2186SOL    HW1 8742   4.034   2.448   3.909
 2186SOL    HW2 8743   4.185   2.446   3.911
 2186SOL     MW 8744   4.109   2.445   3.954
 2187SOL     OW 8745   0.499   3.309   4.326
 2187SOL    HW1 8746   0.570   3.367   4.354
 2187SOL    HW2 8747   0.518   3.291   4.233
 2187SOL     MW 8748   0.510   3.314   4.317
 2188SOL     OW 8749   2.385   0.134   2.865
 2188SOL    HW1 8750   2.332   0.074   2.813
 2188SOL    HW2 8751   2.322   0.183   2.917
 2188SOL     MW 8752   2.370   0.133   2.865
 2189SOL     OW 8753   2.331   4.326   1.434
 2189SOL    HW1 8754   2.288   4.346   1.517
 2189SOL    HW2 8755   2.298   4.239   1.410
 2189SOL     MW 8756   2.321   4.317   1.441
 2190SOL     OW 8757   0.428   5.230   5.205
 2190SOL    HW1 8758   0.464   5.146   5.232
 2190SOL    HW2 8759   0.474   5.295   5.258
 2190SOL     MW 8760   0.438   5.227   5.215
 2191SOL     OW 8761   0.854   1.391   3.511
 2191SOL    HW1 8762   0.887   1.478   3.533
 2191SOL    HW2 8763   0.802   1.404   3.433
 2191SOL     MW 8764   0.852   1.403   3.504
 2192SOL     OW 8765   3.952   3.577   1.251
 2192SOL    HW1 8766   4.014   3.505   1.263
 2192SOL    HW2 8767   3.967   3.608   1.162
 2192SOL     MW 8768   3.962   3.572   1.241
 2193SOL     OW 8769   1.752   1.729   2.905
 2193SOL    HW1 8770   1.741   1.785   2.982
 2193SOL    HW2 8771   1.678   1.669   2.908
 2193SOL     MW 8772   1.741   1.729   2.915
 2194SOL     OW 8773   2.567   4.749   0.173
 2194SOL    HW1 8774   2.511   4.812   0.218
 2194SOL    HW2 8775   2.550   4.763   0.080
 2194SOL     MW 8776   2.558   4.759   0.167
 2195SOL     OW 8777   0.506   2.852   5.264
 2195SOL    HW1 8778   0.593   2.890   5.252
 2195SOL    HW2 8779   0.523   2.760   5.287
 2195SOL     MW 8780   0.519   2.845   5.265
 2196SOL     OW 8781   3.137   1.084   0.279
 2196SOL    HW1 8782   3.119   1.057   0.368
 2196SOL    HW2 8783   3.050   1.094   0.239
 2196SOL     MW 8784   3.123   1.082   0.285
 2197SOL     OW 8785   3.238   4.640   1.363
 2197SOL    HW1 8786   3.222   4.567   1.423
 2197SOL    HW2 8787   3.162   4.640   1.304
 2197SOL     MW 8788   3.226   4.631   1.363
 2198SOL     OW 8789   1.248   2.035   4.648
 2198SOL    HW1 8790   1.252   2.130   4.648
 2198SOL    HW2 8791   1.283   2.009   4.734
 2198SOL     MW 8792   1.253   2.044   4.659
 2199SOL     OW 8793   1.417   5.255   4.006
 2199SOL    HW1 8794   1.426   5.220   3.917
 2199SOL    HW2 8795   1.479   5.328   4.009
 2199SOL     MW 8796   1.426   5.260   3.995
 2200SOL     OW 8797   1.979   2.571   1.064
 2200SOL    HW1 8798   1.978   2.479   1.039
 2200SOL    HW2 8799   1.904   2.609   1.018
 2200SOL     MW 8800   1.969   2.564   1.055
 2201SOL     OW 8801   2.656   4.956   2.054
 2201SOL    HW1 8802   2.611   5.035   2.023
 2201SOL    HW2 8803   2.708   4.985   2.129
 2201SOL     MW 8804   2.657   4.970   2.060
 2202SOL     OW 8805   0.495   3.886   1.235
 2202SOL    HW1 8806   0.464   3.919   1.320
 2202SOL    HW2 8807   0.532   3.800   1.256
 2202SOL     MW 8808   0.496   3.879   1.249
 2203SOL     OW 8809   4.823   0.208   4.502
 2203SOL    HW1 8810   4.904   0.255   4.483
 2203SOL    HW2 8811   4.828   0.186   4.595
 2203SOL     MW 8812   4.834   0.211   4.511
 2204SOL     OW 8813   3.240   4.888   0.732
 2204SOL    HW1 8814   3.263   4.845   0.814
 2204SOL    HW2 8815   3.176   4.955   0.757
 2204SOL     MW 8816   3.234   4.891   0.746
 2205SOL     OW 8817   0.911   4.034   4.583
 2205SOL    HW1 8818   0.856   4.109   4.562
 2205SOL    HW2 8819   0.849   3.962   4.595
 2205SOL     MW 8820   0.896   4.034   4.582
 2206SOL     OW 8821   4.843   3.288   4.920
 2206SOL    HW1 8822   4.828   3.210   4.865
 2206SOL    HW2 8823   4.835   3.256   5.010
 2206SOL     MW 8824   4.840   3.274   4.924
 2207SOL     OW 8825   2.558   3.358   4.278
 2207SOL    HW1 8826   2.600   3.279   4.311
 2207SOL    HW2 8827   2.483   3.326   4.228
 2207SOL     MW 8828   2.554   3.343   4.276
 2208SOL     OW 8829   0.988   0.730   3.182
 2208SOL    HW1 8830   0.957   0.741   3.092
 2208SOL    HW2 8831   1.058   0.666   3.175
 2208SOL     MW 8832   0.993   0.724   3.169
 2209SOL     OW 8833   3.042   3.119   5.304
 2209SOL    HW1 8834   3.013   3.203   5.339
 2209SOL    HW2 8835   3.054   3.135   5.211
 2209SOL     MW 8836   3.040   3.132   5.297
 2210SOL     OW 8837   5.400   5.469   1.703
 2210SOL    HW1 8838   5.373   5.434   1.788
 2210SOL    HW2 8839   5.322   5.461   1.648
 2210SOL     MW 8840   5.387   5.463   1.707
 2211SOL     OW 8841   5.174   0.961   3.227
 2211SOL    HW1 8842   5.146   1.033   3.284
 2211SOL    HW2 8843   5.148   0.882   3.275
 2211SOL     MW 8844   5.167   0.960   3.241
 2212SOL     OW 8845   0.949   0.591   4.206
 2212SOL    HW1 8846   1.025   0.645   4.226
 2212SOL    HW2 8847   0.874   0.647   4.225
 2212SOL     MW 8848   0.949   0.605   4.211
 2213SOL     OW 8849   5.384   1.790   3.316
 2213SOL    HW1 8850   5.320   1.728   3.353
 2213SOL    HW2 8851   5.403   1.756   3.229
 2213SOL     MW 8852   5.378   1.778   3.310
 2214SOL     OW 8853   0.776   5.239   4.381
 2214SOL    HW1 8854   0.800   5.282   4.299
 2214SOL    HW2 8855   0.744   5.153   4.355
 2214SOL     MW 8856   0.775   5.234   4.367
 2215SOL     OW 8857   5.216   0.662   2.072
 2215SOL    HW1 8858   5.143   0.615   2.033
 2215SOL    HW2 8859   5.259   0.598   2.128
 2215SOL     MW 8860   5.212   0.648   2.074
 2216SOL     OW 8861   5.361   2.801   3.744
 2216SOL    HW1 8862   5.332   2.850   3.820
 2216SOL    HW2 8863   5.289   2.740   3.725
 2216SOL     MW 8864   5.348   2.799   3.751
 2217SOL     OW 8865   1.520   1.990   1.265
 2217SOL    HW1 8866   1.429   1.990   1.237
 2217SOL    HW2 8867   1.570   1.967   1.187
 2217SOL     MW 8868   1.515   1.987   1.252
 2218SOL     OW 8869   3.377   3.560   2.737
 2218SOL    HW1 8870   3.358   3.589   2.648
 2218SOL    HW2 8871   3.292   3.564   2.782
 2218SOL     MW 8872   3.364   3.564   2.732
 2219SOL     OW 8873   3.729   0.776   2.349
 2219SOL    HW1 8874   3.819   0.764   2.319
 2219SOL    HW2 8875   3.733   0.756   2.443
 2219SOL     MW 8876   3.741   0.772   2.357
 2220SOL     OW 8877   2.409   2.990   2.010
 2220SOL    HW1 8878   2.492   2.955   1.977
 2220SOL    HW2 8879   2.360   3.015   1.931
 2220SOL     MW 8880   2.413   2.989   1.996
 2221SOL     OW 8881   4.298   1.928   0.143
 2221SOL    HW1 8882   4.240   1.852   0.139
 2221SOL    HW2 8883   4.270   1.983   0.069
 2221SOL     MW 8884   4.287   1.925   0.133
 2222SOL     OW 8885   0.568   0.359   2.191
 2222SOL    HW1 8886   0.509   0.345   2.117
 2222SOL    HW2 8887   0.649   0.316   2.166
 2222SOL     MW 8888   0.571   0.352   2.178
 2223SOL     OW 8889   4.497   4.366   4.568
 2223SOL    HW1 8890   4.559   4.302   4.603
 2223SOL    HW2 8891   4.545   4.411   4.498
 2223SOL     MW 8892   4.511   4.364   4.563
 2224SOL     OW 8893   3.809   2.992   4.503
 2224SOL    HW1 8894   3.827   3.070   4.451
 2224SOL    HW2 8895   3.764   3.025   4.580
 2224SOL     MW 8896   3.805   3.006   4.506
 2225SOL     OW 8897   0.734   2.837   0.707
 2225SOL    HW1 8898   0.821   2.859   0.674
 2225SOL    HW2 8899   0.732   2.874   0.796
 2225SOL     MW 8900   0.745   2.845   0.715
 2226SOL     OW 8901   4.822   0.196   3.599
 2226SOL    HW1 8902   4.822   0.105   3.570
 2226SOL    HW2 8903   4.910   0.211   3.634
 2226SOL     MW 8904   4.833   0.187   3.600
 2227SOL     OW 8905   5.128   2.417   3.120
 2227SOL    HW1 8906   5.223   2.414   3.116
 2227SOL    HW2 8907   5.108   2.509   3.138
 2227SOL     MW 8908   5.137   2.428   3.122
 2228SOL     OW 8909   1.508   2.903   0.271
 2228SOL    HW1 8910   1.439   2.944   0.322
 2228SOL    HW2 8911   1.473   2.899   0.182
 2228SOL     MW 8912   1.495   2.907   0.266
 2229SOL     OW 8913   3.311   4.586   1.772
 2229SOL    HW1 8914   3.382   4.641   1.741
 2229SOL    HW2 8915   3.275   4.545   1.693
 2229SOL     MW 8916   3.315   4.588   1.758
 2230SOL     OW 8917   1.782   4.454   0.835
 2230SOL    HW1 8918   1.730   4.427   0.910
 2230SOL    HW2 8919   1.824   4.373   0.804
 2230SOL     MW 8920   1.781   4.440   0.841
 2231SOL     OW 8921   1.439   0.286   1.179
 2231SOL    HW1 8922   1.359   0.328   1.147
 2231SOL    HW2 8923   1.417   0.192   1.182
 2231SOL     MW 8924   1.426   0.279   1.175
 2232SOL     OW 8925   3.933   5.026   3.427
 2232SOL    HW1 8926   3.880   4.993   3.355
 2232SOL    HW2 8927   4.009   5.066   3.385
 2232SOL     MW 8928   3.936   5.027   3.412
 2233SOL     OW 8929   4.826   2.323   3.925
 2233SOL    HW1 8930   4.915   2.342   3.895
 2233SOL    HW2 8931   4.778   2.404   3.907
 2233SOL     MW 8932   4.831   2.336   3.919
 2234SOL     OW 8933   3.575   1.912   2.248
 2234SOL    HW1 8934   3.526   1.831   2.231
 2234SOL    HW2 8935   3.509   1.981   2.248
 2234SOL     MW 8936   3.560   1.910   2.246
 2235SOL     OW 8937   0.474   2.014   1.351
 2235SOL    HW1 8938   0.528   1.936   1.337
 2235SOL    HW2 8939   0.426   2.025   1.269
 2235SOL     MW 8940   0.474   2.005   1.339
 2236SOL     OW 8941   1.989   5.495   3.956
 2236SOL    HW1 8942   1.978   5.407   3.919
 2236SOL    HW2 8943   2.079   5.497   3.987
 2236SOL     MW 8944   1.999   5.484   3.955
 2237SOL     OW 8945   1.058   4.563   4.558
 2237SOL    HW1 8946   1.096   4.649   4.575
 2237SOL    HW2 8947   0.990   4.579   4.492
 2237SOL     MW 8948   1.054   4.576   4.551
 2238SOL     OW 8949   3.018   2.753   0.108
 2238SOL    HW1 8950   3.067   2.825   0.069
 2238SOL    HW2 8951   3.017   2.773   0.202
 2238SOL     MW 8952   3.024   2.765   0.115
 2239SOL     OW 8953   0.259   1.258   3.570
 2239SOL    HW1 8954   0.304   1.196   3.627
 2239SOL    HW2 8955   0.183   1.210   3.538
 2239SOL     MW 8956   0.255   1.244   3.573
 2240SOL     OW 8957   1.887   1.668   4.038
 2240SOL    HW1 8958   1.841   1.750   4.056
 2240SOL    HW2 8959   1.821   1.600   4.047
 2240SOL     MW 8960   1.873   1.670   4.042
 2241SOL     OW 8961   0.645   4.253   1.869
 2241SOL    HW1 8962   0.727   4.265   1.918
 2241SOL    HW2 8963   0.632   4.158   1.869
 2241SOL     MW 8964   0.654   4.242   1.876
 2242SOL     OW 8965   1.183   1.300   1.724
 2242SOL    HW1 8966   1.123   1.374   1.726
 2242SOL    HW2 8967   1.211   1.288   1.814
 2242SOL     MW 8968   1.179   1.308   1.735
 2243SOL     OW 8969   1.913   0.178   1.149
 2243SOL    HW1 8970   1.879   0.103   1.100
 2243SOL    HW2 8971   1.839   0.209   1.201
 2243SOL     MW 8972   1.899   0.173   1.149
 2244SOL     OW 8973   4.833   1.557   3.462
 2244SOL    HW1 8974   4.840   1.463   3.480
 2244SOL    HW2 8975   4.870   1.567   3.374
 2244SOL     MW 8976   4.839   1.546   3.453
 2245SOL     OW 8977   5.330   3.633   3.065
 2245SOL    HW1 8978   5.339   3.653   2.972
 2245SOL    HW2 8979   5.235   3.632   3.080
 2245SOL     MW 8980   5.319   3.636   3.055
 2246SOL     OW 8981   0.302   2.548   2.069
 2246SOL    HW1 8982   0.300   2.466   2.020
 2246SOL    HW2 8983   0.216   2.555   2.110
 2246SOL     MW 8984   0.291   2.539   2.068
 2247SOL     OW 8985   4.399   2.011   2.571
 2247SOL    HW1 8986   4.421   2.101   2.550
 2247SOL    HW2 8987   4.483   1.971   2.597
 2247SOL     MW 8988   4.413   2.017   2.571
 2248SOL     OW 8989   3.255   0.836   1.465
 2248SOL    HW1 8990   3.315   0.762   1.474
 2248SOL    HW2 8991   3.306   0.912   1.493
 2248SOL     MW 8992   3.269   0.836   1.470
 2249SOL     OW 8993   3.687   3.092   2.765
 2249SOL    HW1 8994   3.609   3.135   2.729
 2249SOL    HW2 8995   3.680   3.105   2.860
 2249SOL     MW 8996   3.676   3.099   2.773
 2250SOL     OW 8997   1.885   1.775   2.475
 2250SOL    HW1 8998   1.827   1.700   2.486
 2250SOL    HW2 8999   1.919   1.766   2.386
 2250SOL     MW 9000   1.882   1.764   2.465
 2251SOL     OW 9001   1.737   1.058   0.232
 2251SOL    HW1 9002   1.721   1.085   0.323
 2251SOL    HW2 9003   1.726   1.138   0.181
 2251SOL     MW 9004   1.733   1.072   0.237
 2252SOL     OW 9005   3.995   5.058   1.698
 2252SOL    HW1 9006   3.953   5.142   1.716
 2252SOL    HW2 9007   4.019   5.025   1.785
 2252SOL     MW 9008   3.992   5.064   1.712
 2253SOL     OW 9009   2.585   0.138   2.550
 2253SOL    HW1 9010   2.524   0.065   2.566
 2253SOL    HW2 9011   2.610   0.168   2.637
 2253SOL     MW 9012   2.580   0.132   2.563
 2254SOL     OW 9013   2.888   1.575   4.675
 2254SOL    HW1 9014   2.912   1.611   4.590
 2254SOL    HW2 9015   2.793   1.564   4.671
 2254SOL     MW 9016   2.879   1.578   4.663
 2255SOL     OW 9017   0.607   1.273   2.316
 2255SOL    HW1 9018   0.616   1.308   2.228
 2255SOL    HW2 9019   0.529   1.218   2.313
 2255SOL     MW 9020   0.598   1.271   2.305
 2256SOL     OW 9021   4.029   1.892   5.287
 2256SOL    HW1 9022   4.100   1.829   5.274
 2256SOL    HW2 9023   3.950   1.846   5.259
 2256SOL     MW 9024   4.028   1.878   5.282
 2257SOL     OW 9025   2.736   2.083   0.913
 2257SOL    HW1 9026   2.669   2.046   0.971
 2257SOL    HW2 9027   2.726   2.035   0.831
 2257SOL     MW 9028   2.726   2.072   0.910
 2258SOL     OW 9029   0.444   1.695   3.159
 2258SOL    HW1 9030   0.449   1.619   3.100
 2258SOL    HW2 9031   0.470   1.661   3.244
 2258SOL     MW 9032   0.448   1.681   3.162
 2259SOL     OW 9033   2.917   1.673   4.424
 2259SOL    HW1 9034   2.822   1.671   4.417
 2259SOL    HW2 9035   2.941   1.763   4.402
 2259SOL     MW 9036   2.908   1.684   4.420
 2260SOL     OW 9037   3.155   0.405   3.480
 2260SOL    HW1 9038   3.070   0.359   3.474
 2260SOL    HW2 9039   3.219   0.335   3.492
 2260SOL     MW 9040   3.152   0.390   3.481
 2261SOL     OW 9041   3.303   3.644   5.079
 2261SOL    HW1 9042   3.281   3.581   5.011
 2261SOL    HW2 9043   3.399   3.649   5.077
 2261SOL     MW 9044   3.312   3.637   5.070
 2262SOL     OW 9045   3.893   2.823   5.305
 2262SOL    HW1 9046   3.988   2.830   5.319
 2262SOL    HW2 9047   3.858   2.795   5.390
 2262SOL     MW 9048   3.901   2.820   5.318
 2263SOL     OW 9049   5.062   2.415   3.559
 2263SOL    HW1 9050   5.069   2.351   3.489
 2263SOL    HW2 9051   4.992   2.474   3.532
 2263SOL     MW 9052   5.054   2.415   3.547
 2264SOL     OW 9053   3.954   4.095   3.126
 2264SOL    HW1 9054   3.865   4.130   3.128
 2264SOL    HW2 9055   4.010   4.170   3.145
 2264SOL     MW 9056   3.950   4.109   3.128
 2265SOL     OW 9057   1.661   2.761   3.762
 2265SOL    HW1 9058   1.679   2.781   3.670
 2265SOL    HW2 9059   1.680   2.842   3.808
 2265SOL     MW 9060   1.666   2.774   3.756
 2266SOL     OW 9061   0.846   0.325   3.872
 2266SOL    HW1 9062   0.788   0.401   3.873
 2266SOL    HW2 9063   0.789   0.252   3.850
 2266SOL     MW 9064   0.831   0.326   3.870
 2267SOL     OW 9065   3.506   0.593   0.790
 2267SOL    HW1 9066   3.524   0.654   0.719
 2267SOL    HW2 9067   3.503   0.507   0.748
 2267SOL     MW 9068   3.508   0.590   0.776
 2268SOL     OW 9069   0.303   0.083   2.128
 2268SOL    HW1 9070   0.321   0.139   2.204
 2268SOL    HW2 9071   0.315  -0.006   2.162
 2268SOL     MW 9072   0.307   0.079   2.142
 2269SOL     OW 9073   2.768   4.083   4.429
 2269SOL    HW1 9074   2.731   4.042   4.351
 2269SOL    HW2 9075   2.711   4.055   4.500
 2269SOL     MW 9076   2.756   4.074   4.428
 2270SOL     OW 9077   0.921   3.972   2.492
 2270SOL    HW1 9078   0.838   3.999   2.454
 2270SOL    HW2 9079   0.919   3.876   2.490
 2270SOL     MW 9080   0.910   3.963   2.487
 2271SOL     OW 9081   3.951   3.665   4.764
 2271SOL    HW1 9082   3.919   3.683   4.853
 2271SOL    HW2 9083   3.965   3.570   4.762
 2271SOL     MW 9084   3.949   3.655   4.775
 2272SOL     OW 9085   2.305   3.834   3.277
 2272SOL    HW1 9086   2.369   3.893   3.238
 2272SOL    HW2 9087   2.264   3.884   3.347
 2272SOL     MW 9088   2.308   3.848   3.281
 2273SOL     OW 9089   5.103   3.214   3.996
 2273SOL    HW1 9090   5.035   3.282   3.993
 2273SOL    HW2 9091   5.062   3.141   4.041
 2273SOL     MW 9092   5.089   3.214   4.001
 2274SOL     OW 9093   2.851   5.258   4.836
 2274SOL    HW1 9094   2.870   5.286   4.747
 2274SOL    HW2 9095   2.855   5.162   4.833
 2274SOL     MW 9096   2.854   5.249   4.825
 2275SOL     OW 9097   0.634   2.734   4.903
 2275SOL    HW1 9098   0.698   2.676   4.945
 2275SOL    HW2 9099   0.602   2.685   4.828
 2275SOL     MW 9100   0.638   2.720   4.899
 2276SOL     OW 9101   4.617   1.456   0.769
 2276SOL    HW1 9102   4.671   1.392   0.815
 2276SOL    HW2 9103   4.679   1.521   0.737
 2276SOL     MW 9104   4.632   1.456   0.771
 2277SOL     OW 9105   0.173   3.964   2.133
 2277SOL    HW1 9106   0.208   3.903   2.069
 2277SOL    HW2 9107   0.217   3.942   2.215
 2277SOL     MW 9108   0.183   3.953   2.135
 2278SOL     OW 9109   2.462   2.597   4.961
 2278SOL    HW1 9110   2.517   2.593   4.882
 2278SOL    HW2 9111   2.375   2.574   4.929
 2278SOL     MW 9112   2.458   2.593   4.947
 2279SOL     OW 9113   3.178   4.243   5.443
 2279SOL    HW1 9114   3.109   4.304   5.469
 2279SOL    HW2 9115   3.259   4.293   5.450
 2279SOL     MW 9116   3.179   4.257   5.447
 2280SOL     OW 9117   3.715   1.151   2.583
 2280SOL    HW1 9118   3.706   1.244   2.561
 2280SOL    HW2 9119   3.640   1.132   2.638
 2280SOL     MW 9120   3.705   1.160   2.587
 2281SOL     OW 9121   2.646   3.850   2.204
 2281SOL    HW1 9122   2.708   3.790   2.246
 2281SOL    HW2 9123   2.686   3.936   2.216
 2281SOL     MW 9124   2.659   3.853   2.211
 2282SOL     OW 9125   3.787   2.181   0.877
 2282SOL    HW1 9126   3.877   2.177   0.910
 2282SOL    HW2 9127   3.739   2.231   0.943
 2282SOL     MW 9128   3.792   2.187   0.889
 2283SOL     OW 9129   2.424   1.797   1.558
 2283SOL    HW1 9130   2.378   1.715   1.575
 2283SOL    HW2 9131   2.358   1.854   1.519
 2283SOL     MW 9132   2.409   1.794   1.555
 2284SOL     OW 9133   1.836   4.035   3.871
 2284SOL    HW1 9134   1.826   4.126   3.898
 2284SOL    HW2 9135   1.930   4.018   3.876
 2284SOL     MW 9136   1.846   4.044   3.875
 2285SOL     OW 9137   0.537   4.647   0.740
 2285SOL    HW1 9138   0.561   4.730   0.782
 2285SOL    HW2 9139   0.441   4.648   0.739
 2285SOL     MW 9140   0.528   4.658   0.746
 2286SOL     OW 9141   5.405   3.088   0.116
 2286SOL    HW1 9142   5.328   3.038   0.142
 2286SOL    HW2 9143   5.417   3.068   0.023
 2286SOL     MW 9144   5.396   3.079   0.107
 2287SOL     OW 9145   0.022   0.336   0.857
 2287SOL    HW1 9146   0.070   0.280   0.795
 2287SOL    HW2 9147   0.062   0.423   0.846
 2287SOL     MW 9148   0.033   0.340   0.847
 2288SOL     OW 9149   1.673   4.105   1.726
 2288SOL    HW1 9150   1.674   4.013   1.754
 2288SOL    HW2 9151   1.671   4.155   1.807
 2288SOL     MW 9152   1.673   4.099   1.740
 2289SOL     OW 9153   1.941   4.594   5.163
 2289SOL    HW1 9154   1.867   4.544   5.126
 2289SOL    HW2 9155   1.948   4.670   5.105
 2289SOL     MW 9156   1.932   4.597   5.151
 2290SOL     OW 9157   4.519   5.393   4.458
 2290SOL    HW1 9158   4.599   5.364   4.414
 2290SOL    HW2 9159   4.517   5.345   4.540
 2290SOL     MW 9160   4.529   5.383   4.463
 2291SOL     OW 9161   5.117   2.387  -0.001
 2291SOL    HW1 9162   5.194   2.423   0.042
 2291SOL    HW2 9163   5.136   2.293  -0.010
 2291SOL     MW 9164   5.129   2.379   0.003
 2292SOL     OW 9165   4.579   3.053   3.807
 2292SOL    HW1 9166   4.639   3.071   3.879
 2292SOL    HW2 9167   4.496   3.090   3.835
 2292SOL     MW 9168   4.576   3.060   3.820
 2293SOL     OW 9169   4.283   3.249   4.160
 2293SOL    HW1 9170   4.194   3.270   4.130
 2293SOL    HW2 9171   4.320   3.198   4.088
 2293SOL     MW 9172   4.276   3.245   4.147
 2294SOL     OW 9173   3.906   4.658   4.764
 2294SOL    HW1 9174   3.868   4.713   4.833
 2294SOL    HW2 9175   3.921   4.573   4.807
 2294SOL     MW 9176   3.903   4.654   4.779
 2295SOL     OW 9177   1.300   0.589   5.440
 2295SOL    HW1 9178   1.309   0.679   5.409
 2295SOL    HW2 9179   1.389   0.554   5.437
 2295SOL     MW 9180   1.313   0.596   5.436
 2296SOL     OW 9181   5.373   0.699   0.346
 2296SOL    HW1 9182   5.376   0.645   0.267
 2296SOL    HW2 9183   5.449   0.670   0.397
 2296SOL     MW 9184   5.383   0.689   0.342
 2297SOL     OW 9185   4.998   1.658   1.014
 2297SOL    HW1 9186   4.936   1.725   1.044
 2297SOL    HW2 9187   4.962   1.576   1.049
 2297SOL     MW 9188   4.985   1.656   1.023
 2298SOL     OW 9189   3.623   2.752   1.263
 2298SOL    HW1 9190   3.637   2.701   1.183
 2298SOL    HW2 9191   3.646   2.691   1.334
 2298SOL     MW 9192   3.628   2.737   1.262
 2299SOL     OW 9193   3.541   2.632   3.205
 2299SOL    HW1 9194   3.577   2.686   3.134
 2299SOL    HW2 9195   3.578   2.545   3.189
 2299SOL     MW 9196   3.551   2.627   3.194
 2300SOL     OW 9197   2.606   3.344   0.363
 2300SOL    HW1 9198   2.664   3.277   0.397
 2300SOL    HW2 9199   2.570   3.307   0.282
 2300SOL     MW 9200   2.609   3.331   0.357
 2301SOL     OW 9201   3.298   3.532   3.039
 2301SOL    HW1 9202   3.327   3.617   3.006
 2301SOL    HW2 9203   3.356   3.469   2.997
 2301SOL     MW 9204   3.309   3.535   3.029
 2302SOL     OW 9205   0.410   0.244   3.508
 2302SOL    HW1 9206   0.361   0.171   3.546
 2302SOL    HW2 9207   0.397   0.316   3.570
 2302SOL     MW 9208   0.402   0.244   3.521
 2303SOL     OW 9209   1.972   1.923   1.479
 2303SOL    HW1 9210   2.068   1.927   1.473
 2303SOL    HW2 9211   1.943   1.920   1.388
 2303SOL     MW 9212   1.981   1.923   1.466
 2304SOL     OW 9213   0.054   2.121   3.819
 2304SOL    HW1 9214   0.004   2.045   3.846
 2304SOL    HW2 9215   0.119   2.087   3.758
 2304SOL     MW 9216   0.056   2.107   3.815
 2305SOL     OW 9217   3.847   3.366   4.980
 2305SOL    HW1 9218   3.849   3.270   4.982
 2305SOL    HW2 9219   3.915   3.390   4.917
 2305SOL     MW 9220   3.856   3.356   4.972
 2306SOL     OW 9221   2.340   1.639   2.918
 2306SOL    HW1 9222   2.356   1.558   2.870
 2306SOL    HW2 9223   2.365   1.708   2.857
 2306SOL     MW 9224   2.345   1.637   2.904
 2307SOL     OW 9225   0.820   4.247   1.075
 2307SOL    HW1 9226   0.784   4.173   1.123
 2307SOL    HW2 9227   0.799   4.323   1.130
 2307SOL     MW 9228   0.813   4.247   1.088
 2308SOL     OW 9229   3.106   0.112   1.035
 2308SOL    HW1 9230   3.200   0.120   1.056
 2308SOL    HW2 9231   3.091   0.181   0.970
 2308SOL     MW 9232   3.116   0.122   1.029
 2309SOL     OW 9233   1.695   5.024   4.129
 2309SOL    HW1 9234   1.775   5.018   4.182
 2309SOL    HW2 9235   1.632   4.967   4.173
 2309SOL     MW 9236   1.697   5.016   4.141
 2310SOL     OW 9237   5.392   0.568   4.689
 2310SOL    HW1 9238   5.381   0.606   4.775
 2310SOL    HW2 9239   5.482   0.589   4.665
 2310SOL     MW 9240   5.402   0.575   4.697
 2311SOL     OW 9241   5.413   3.824   3.241
 2311SOL    HW1 9242   5.400   3.762   3.170
 2311SOL    HW2 9243   5.325   3.857   3.260
 2311SOL     MW 9244   5.400   3.821   3.235
 2312SOL     OW 9245   0.492   0.958   5.425
 2312SOL    HW1 9246   0.457   1.042   5.454
 2312SOL    HW2 9247   0.563   0.940   5.486
 2312SOL     MW 9248   0.496   0.966   5.437
 2313SOL     OW 9249   2.058   3.581   2.356
 2313SOL    HW1 9250   2.135   3.556   2.305
 2313SOL    HW2 9251   2.093   3.600   2.443
 2313SOL     MW 9252   2.073   3.580   2.361
 2314SOL     OW 9253   2.716   4.032   5.107
 2314SOL    HW1 9254   2.776   4.053   5.036
 2314SOL    HW2 9255   2.730   4.101   5.172
 2314SOL     MW 9256   2.725   4.043   5.106
 2315SOL     OW 9257   1.554   0.147   1.712
 2315SOL    HW1 9258   1.490   0.177   1.647
 2315SOL    HW2 9259   1.502   0.109   1.782
 2315SOL     MW 9260   1.540   0.146   1.712
 2316SOL     OW 9261   0.859   1.986   3.744
 2316SOL    HW1 9262   0.772   2.010   3.711
 2316SOL    HW2 9263   0.920   2.031   3.686
 2316SOL     MW 9264   0.856   1.995   3.732
 2317SOL     OW 9265   0.232   1.401   5.127
 2317SOL    HW1 9266   0.321   1.395   5.161
 2317SOL    HW2 9267   0.243   1.408   5.032
 2317SOL     MW 9268   0.245   1.401   5.119
 2318SOL     OW 9269   0.347   2.443   1.504
 2318SOL    HW1 9270   0.281   2.375   1.517
 2318SOL    HW2 9271   0.296   2.522   1.486
 2318SOL     MW 9272   0.332   2.444   1.503
 2319SOL     OW 9273   2.706   2.158   1.456
 2319SOL    HW1 9274   2.710   2.220   1.529
 2319SOL    HW2 9275   2.734   2.074   1.494
 2319SOL     MW 9276   2.710   2.155   1.471
 2320SOL     OW 9277   3.440   4.759   3.769
 2320SOL    HW1 9278   3.381   4.773   3.843
 2320SOL    HW2 9279   3.497   4.836   3.769
 2320SOL     MW 9280   3.440   4.771   3.778
 2321SOL     OW 9281   2.607   5.383   4.837
 2321SOL    HW1 9282   2.690   5.336   4.833
 2321SOL    HW2 9283   2.541   5.314   4.845
 2321SOL     MW 9284   2.609   5.368   4.838
 2322SOL     OW 9285   1.954   0.747   0.301
 2322SOL    HW1 9286   1.885   0.765   0.237
 2322SOL    HW2 9287   1.910   0.755   0.386
 2322SOL     MW 9288   1.939   0.750   0.304
 2323SOL     OW 9289   2.721   1.991   5.108
 2323SOL    HW1 9290   2.791   2.042   5.067
 2323SOL    HW2 9291   2.644   2.047   5.102
 2323SOL     MW 9292   2.720   2.005   5.102
 2324SOL     OW 9293   3.771   1.605   2.361
 2324SOL    HW1 9294   3.732   1.682   2.403
 2324SOL    HW2 9295   3.811   1.640   2.281
 2324SOL     MW 9296   3.772   1.620   2.356
 2325SOL     OW 9297   0.532   2.057   3.324
 2325SOL    HW1 9298   0.436   2.054   3.322
 2325SOL    HW2 9299   0.552   2.129   3.383
 2325SOL     MW 9300   0.522   2.066   3.331
 2326SOL     OW 9301   3.461   0.795   4.915
 2326SOL    HW1 9302   3.401   0.824   4.846
 2326SOL    HW2 9303   3.434   0.844   4.993
 2326SOL     MW 9304   3.449   0.805   4.916
 2327SOL     OW 9305   1.595   2.498   1.656
 2327SOL    HW1 9306   1.558   2.582   1.682
 2327SOL    HW2 9307   1.647   2.470   1.732
 2327SOL     MW 9308   1.597   2.505   1.669
 2328SOL     OW 9309   4.651   5.038   2.975
 2328SOL    HW1 9310   4.710   5.010   2.905
 2328SOL    HW2 9311   4.706   5.094   3.031
 2328SOL     MW 9312   4.666   5.042   2.973
 2329SOL     OW 9313   0.572   1.415   0.705
 2329SOL    HW1 9314   0.609   1.436   0.619
 2329SOL    HW2 9315   0.640   1.443   0.767
 2329SOL     MW 9316   0.586   1.421   0.702
 2330SOL     OW 9317   3.435   4.541   4.725
 2330SOL    HW1 9318   3.368   4.519   4.789
 2330SOL    HW2 9319   3.478   4.619   4.760
 2330SOL     MW 9320   3.432   4.549   4.737
 2331SOL     OW 9321   1.657   0.564   1.577
 2331SOL    HW1 9322   1.572   0.537   1.542
 2331SOL    HW2 9323   1.650   0.658   1.588
 2331SOL     MW 9324   1.645   0.572   1.574
 2332SOL     OW 9325   2.505   1.466   4.005
 2332SOL    HW1 9326   2.499   1.439   4.097
 2332SOL    HW2 9327   2.456   1.548   4.001
 2332SOL     MW 9328   2.498   1.473   4.016
 2333SOL     OW 9329   4.183   3.417   1.270
 2333SOL    HW1 9330   4.217   3.505   1.285
 2333SOL    HW2 9331   4.249   3.376   1.214
 2333SOL     MW 9332   4.196   3.423   1.265
 2334SOL     OW 9333   3.427   2.690   3.459
 2334SOL    HW1 9334   3.465   2.651   3.380
 2334SOL    HW2 9335   3.485   2.763   3.480
 2334SOL     MW 9336   3.439   2.695   3.451
 2335SOL     OW 9337   4.587   0.336   1.225
 2335SOL    HW1 9338   4.639   0.259   1.248
 2335SOL    HW2 9339   4.626   0.407   1.276
 2335SOL     MW 9340   4.599   0.335   1.235
 2336SOL     OW 9341   4.539   3.515   0.407
 2336SOL    HW1 9342   4.520   3.501   0.314
 2336SOL    HW2 9343   4.568   3.606   0.412
 2336SOL     MW 9344   4.540   3.525   0.395
 2337SOL     OW 9345   2.653   2.961   4.821
 2337SOL    HW1 9346   2.560   2.948   4.802
 2337SOL    HW2 9347   2.686   3.009   4.744
 2337SOL     MW 9348   2.645   2.966   4.808
 2338SOL     OW 9349   2.393   1.868   3.807
 2338SOL    HW1 9350   2.370   1.960   3.819
 2338SOL    HW2 9351   2.321   1.832   3.754
 2338SOL     MW 9352   2.381   1.875   3.802
 2339SOL     OW 9353   2.476   1.708   2.007
 2339SOL    HW1 9354   2.552   1.649   1.999
 2339SOL    HW2 9355   2.466   1.721   2.101
 2339SOL     MW 9356   2.484   1.702   2.018
 2340SOL     OW 9357   0.018   0.389   2.772
 2340SOL    HW1 9358  -0.021   0.425   2.693
 2340SOL    HW2 9359   0.070   0.461   2.809
 2340SOL     MW 9360   0.020   0.403   2.767
 2341SOL     OW 9361   3.607   3.173   1.068
 2341SOL    HW1 9362   3.584   3.159   1.160
 2341SOL    HW2 9363   3.552   3.110   1.020
 2341SOL     MW 9364   3.597   3.163   1.074
 2342SOL     OW 9365   0.270   0.390   4.546
 2342SOL    HW1 9366   0.351   0.392   4.495
 2342SOL    HW2 9367   0.216   0.323   4.503
 2342SOL     MW 9368   0.273   0.381   4.534
 2343SOL     OW 9369   1.019  -0.001   4.286
 2343SOL    HW1 9370   1.078   0.071   4.263
 2343SOL    HW2 9371   0.946   0.007   4.225
 2343SOL     MW 9372   1.017   0.009   4.276
 2344SOL     OW 9373   3.709   3.365   4.728
 2344SOL    HW1 9374   3.709   3.378   4.823
 2344SOL    HW2 9375   3.688   3.273   4.716
 2344SOL     MW 9376   3.707   3.355   4.739
 2345SOL     OW 9377   0.747   4.245   4.513
 2345SOL    HW1 9378   0.661   4.207   4.531
 2345SOL    HW2 9379   0.754   4.244   4.418
 2345SOL     MW 9380   0.737   4.240   4.504
 2346SOL     OW 9381   1.374   2.662   3.209
 2346SOL    HW1 9382   1.402   2.751   3.230
 2346SOL    HW2 9383   1.375   2.658   3.114
 2346SOL     MW 9384   1.378   2.673   3.200
 2347SOL     OW 9385   0.558   4.395   0.848
 2347SOL    HW1 9386   0.534   4.396   0.940
 2347SOL    HW2 9387   0.559   4.488   0.822
 2347SOL     MW 9388   0.555   4.407   0.856
 2348SOL     OW 9389   3.217   0.762   2.867
 2348SOL    HW1 9390   3.180   0.783   2.953
 2348SOL    HW2 9391   3.176   0.824   2.807
 2348SOL     MW 9392   3.207   0.773   2.870
 2349SOL     OW 9393   2.929   3.293   2.733
 2349SOL    HW1 9394   2.913   3.312   2.826
 2349SOL    HW2 9395   2.861   3.229   2.710
 2349SOL     MW 9396   2.918   3.288   2.742
 2350SOL     OW 9397   1.444   3.211   3.520
 2350SOL    HW1 9398   1.383   3.236   3.452
 2350SOL    HW2 9399   1.399   3.230   3.602
 2350SOL     MW 9400   1.431   3.216   3.522
 2351SOL     OW 9401   3.993   4.610   1.248
 2351SOL    HW1 9402   3.902   4.597   1.275
 2351SOL    HW2 9403   4.043   4.545   1.298
 2351SOL     MW 9404   3.988   4.600   1.258
 2352SOL     OW 9405   3.671   0.996   0.802
 2352SOL    HW1 9406   3.697   1.070   0.747
 2352SOL    HW2 9407   3.741   0.932   0.793
 2352SOL     MW 9408   3.683   0.998   0.794
 2353SOL     OW 9409   4.124   0.207   3.218
 2353SOL    HW1 9410   4.215   0.182   3.203
 2353SOL    HW2 9411   4.112   0.287   3.165
 2353SOL     MW 9412   4.134   0.214   3.209
 2354SOL     OW 9413   1.060   0.683   1.930
 2354SOL    HW1 9414   1.118   0.668   1.855
 2354SOL    HW2 9415   1.038   0.595   1.961
 2354SOL     MW 9416   1.065   0.670   1.924
 2355SOL     OW 9417   2.284   4.484   0.193
 2355SOL    HW1 9418   2.209   4.447   0.239
 2355SOL    HW2 9419   2.345   4.508   0.262
 2355SOL     MW 9420   2.282   4.482   0.208
 2356SOL     OW 9421   1.145   1.025   1.726
 2356SOL    HW1 9422   1.170   1.117   1.716
 2356SOL    HW2 9423   1.201   0.978   1.665
 2356SOL     MW 9424   1.156   1.031   1.717
 2357SOL     OW 9425   3.500   4.142   4.728
 2357SOL    HW1 9426   3.464   4.055   4.744
 2357SOL    HW2 9427   3.572   4.127   4.666
 2357SOL     MW 9428   3.505   4.129   4.722
 2358SOL     OW 9429   4.518   0.320   5.399
 2358SOL    HW1 9430   4.566   0.358   5.325
 2358SOL    HW2 9431   4.515   0.227   5.380
 2358SOL     MW 9432   4.524   0.313   5.387
 2359SOL     OW 9433   0.480   2.378   1.737
 2359SOL    HW1 9434   0.532   2.299   1.722
 2359SOL    HW2 9435   0.442   2.399   1.651
 2359SOL     MW 9436   0.482   2.371   1.724
 2360SOL     OW 9437   3.343   2.621   4.216
 2360SOL    HW1 9438   3.438   2.617   4.231
 2360SOL    HW2 9439   3.335   2.629   4.121
 2360SOL     MW 9440   3.354   2.622   4.205
 2361SOL     OW 9441   2.250   1.868   3.200
 2361SOL    HW1 9442   2.264   1.898   3.290
 2361SOL    HW2 9443   2.265   1.773   3.204
 2361SOL     MW 9444   2.254   1.860   3.212
 2362SOL     OW 9445   4.101   2.446   4.390
 2362SOL    HW1 9446   4.147   2.433   4.473
 2362SOL    HW2 9447   4.120   2.537   4.366
 2362SOL     MW 9448   4.109   2.456   4.397
 2363SOL     OW 9449   0.184   2.675   4.598
 2363SOL    HW1 9450   0.093   2.681   4.628
 2363SOL    HW2 9451   0.221   2.761   4.618
 2363SOL     MW 9452   0.177   2.687   4.604
 2364SOL     OW 9453   4.114   0.331   3.500
 2364SOL    HW1 9454   4.071   0.346   3.585
 2364SOL    HW2 9455   4.051   0.281   3.449
 2364SOL     MW 9456   4.101   0.327   3.505
 2365SOL     OW 9457   2.262   3.647   4.566
 2365SOL    HW1 9458   2.322   3.709   4.524
 2365SOL    HW2 9459   2.319   3.588   4.615
 2365SOL     MW 9460   2.277   3.648   4.567
 2366SOL     OW 9461   2.446   3.130   2.245
 2366SOL    HW1 9462   2.429   3.100   2.156
 2366SOL    HW2 9463   2.390   3.206   2.256
 2366SOL     MW 9464   2.437   3.136   2.235
 2367SOL     OW 9465   3.539   5.217   3.433
 2367SOL    HW1 9466   3.456   5.218   3.481
 2367SOL    HW2 9467   3.516   5.181   3.348
 2367SOL     MW 9468   3.525   5.213   3.429
 2368SOL     OW 9469   4.462   4.723   4.909
 2368SOL    HW1 9470   4.435   4.644   4.956
 2368SOL    HW2 9471   4.486   4.692   4.822
 2368SOL     MW 9472   4.462   4.709   4.904
 2369SOL     OW 9473   2.243   3.931   2.827
 2369SOL    HW1 9474   2.237   3.932   2.732
 2369SOL    HW2 9475   2.330   3.963   2.847
 2369SOL     MW 9476   2.253   3.935   2.817
 2370SOL     OW 9477   0.793   4.731   3.230
 2370SOL    HW1 9478   0.786   4.822   3.260
 2370SOL    HW2 9479   0.734   4.726   3.155
 2370SOL     MW 9480   0.784   4.742   3.224
 2371SOL     OW 9481   1.377   5.074   4.225
 2371SOL    HW1 9482   1.283   5.088   4.232
 2371SOL    HW2 9483   1.405   5.129   4.151
 2371SOL     MW 9484   1.369   5.083   4.216
 2372SOL     OW 9485  -0.001   4.020   4.794
 2372SOL    HW1 9486   0.093   4.028   4.808
 2372SOL    HW2 9487  -0.015   4.051   4.705
 2372SOL     MW 9488   0.009   4.025   4.784
 2373SOL     OW 9489   5.430   5.090   4.368
 2373SOL    HW1 9490   5.412   4.997   4.378
 2373SOL    HW2 9491   5.525   5.098   4.379
 2373SOL     MW 9492   5.440   5.079   4.370
 2374SOL     OW 9493   4.456   4.806   3.422
 2374SOL    HW1 9494   4.449   4.900   3.440
 2374SOL    HW2 9495   4.387   4.789   3.357
 2374SOL     MW 9496   4.446   4.816   3.416
 2375SOL     OW 9497   2.675   1.879   0.721
 2375SOL    HW1 9498   2.722   1.874   0.637
 2375SOL    HW2 9499   2.588   1.843   0.701
 2375SOL     MW 9500   2.670   1.873   0.708
 2376SOL     OW 9501   0.409   4.012   3.728
 2376SOL    HW1 9502   0.377   4.043   3.812
 2376SOL    HW2 9503   0.331   3.982   3.682
 2376SOL     MW 9504   0.395   4.012   3.733
 2377SOL     OW 9505   1.248   3.489   3.766
 2377SOL    HW1 9506   1.260   3.509   3.859
 2377SOL    HW2 9507   1.243   3.574   3.724
 2377SOL     MW 9508   1.249   3.502   3.773
 2378SOL     OW 9509   1.275   1.973   1.125
 2378SOL    HW1 9510   1.218   1.905   1.088
 2378SOL    HW2 9511   1.223   2.053   1.119
 2378SOL     MW 9512   1.261   1.975   1.120
 2379SOL     OW 9513   0.024   1.482   2.066
 2379SOL    HW1 9514   0.074   1.402   2.080
 2379SOL    HW2 9515  -0.039   1.459   1.998
 2379SOL     MW 9516   0.022   1.469   2.059
 2380SOL     OW 9517   0.107   2.488   4.198
 2380SOL    HW1 9518   0.014   2.464   4.207
 2380SOL    HW2 9519   0.118   2.504   4.104
 2380SOL     MW 9520   0.096   2.487   4.187
 2381SOL     OW 9521   2.779   1.849   0.008
 2381SOL    HW1 9522   2.775   1.774  -0.051
 2381SOL    HW2 9523   2.765   1.812   0.095
 2381SOL     MW 9524   2.776   1.835   0.011
 2382SOL     OW 9525   4.610   3.597   2.164
 2382SOL    HW1 9526   4.626   3.553   2.080
 2382SOL    HW2 9527   4.697   3.621   2.195
 2382SOL     MW 9528   4.623   3.595   2.157
 2383SOL     OW 9529   5.460   4.451   5.442
 2383SOL    HW1 9530   5.370   4.439   5.473
 2383SOL    HW2 9531   5.504   4.497   5.513
 2383SOL     MW 9532   5.454   4.456   5.455
 2384SOL     OW 9533   1.738   0.169   0.157
 2384SOL    HW1 9534   1.739   0.187   0.063
 2384SOL    HW2 9535   1.753   0.255   0.198
 2384SOL     MW 9536   1.740   0.182   0.150
 2385SOL     OW 9537   3.647   0.995   3.948
 2385SOL    HW1 9538   3.669   1.019   3.858
 2385SOL    HW2 9539   3.556   0.964   3.944
 2385SOL     MW 9540   3.638   0.994   3.936
 2386SOL     OW 9541   0.169   4.329   1.107
 2386SOL    HW1 9542   0.112   4.308   1.034
 2386SOL    HW2 9543   0.125   4.400   1.153
 2386SOL     MW 9544   0.156   4.336   1.104
 2387SOL     OW 9545   2.068   3.594   2.642
 2387SOL    HW1 9546   2.015   3.518   2.619
 2387SOL    HW2 9547   2.005   3.664   2.656
 2387SOL     MW 9548   2.053   3.593   2.641
 2388SOL     OW 9549   1.615   2.918   1.564
 2388SOL    HW1 9550   1.625   2.951   1.653
 2388SOL    HW2 9551   1.694   2.867   1.548
 2388SOL     MW 9552   1.626   2.915   1.573
 2389SOL     OW 9553   3.475   1.146   2.714
 2389SOL    HW1 9554   3.415   1.192   2.655
 2389SOL    HW2 9555   3.494   1.209   2.783
 2389SOL     MW 9556   3.470   1.160   2.715
 2390SOL     OW 9557   1.376   2.017   1.745
 2390SOL    HW1 9558   1.386   1.940   1.800
 2390SOL    HW2 9559   1.295   2.002   1.696
 2390SOL     MW 9560   1.367   2.006   1.746
 2391SOL     OW 9561   1.775   4.681   4.127
 2391SOL    HW1 9562   1.755   4.729   4.046
 2391SOL    HW2 9563   1.859   4.717   4.156
 2391SOL     MW 9564   1.783   4.692   4.121
 2392SOL     OW 9565   1.757   0.006   2.083
 2392SOL    HW1 9566   1.705   0.083   2.106
 2392SOL    HW2 9567   1.826   0.040   2.026
 2392SOL     MW 9568   1.759   0.020   2.079
 2393SOL     OW 9569   2.299   1.931   2.415
 2393SOL    HW1 9570   2.246   1.881   2.477
 2393SOL    HW2 9571   2.246   1.932   2.335
 2393SOL     MW 9572   2.285   1.925   2.413
 2394SOL     OW 9573   3.010   1.295   1.213
 2394SOL    HW1 9574   2.921   1.271   1.235
 2394SOL    HW2 9575   3.064   1.254   1.281
 2394SOL     MW 9576   3.006   1.287   1.225
 2395SOL     OW 9577   2.526   1.948   4.482
 2395SOL    HW1 9578   2.445   1.900   4.466
 2395SOL    HW2 9579   2.566   1.902   4.556
 2395SOL     MW 9580   2.521   1.936   4.490
 2396SOL     OW 9581   1.911   1.416   2.607
 2396SOL    HW1 9582   1.837   1.473   2.588
 2396SOL    HW2 9583   1.879   1.355   2.673
 2396SOL     MW 9584   1.898   1.415   2.613
 2397SOL     OW 9585   4.860   4.761   1.686
 2397SOL    HW1 9586   4.782   4.739   1.635
 2397SOL    HW2 9587   4.928   4.702   1.652
 2397SOL     MW 9588   4.859   4.751   1.675
 2398SOL     OW 9589   5.015   5.090   0.789
 2398SOL    HW1 9590   5.011   5.185   0.779
 2398SOL    HW2 9591   5.064   5.076   0.870
 2398SOL     MW 9592   5.020   5.100   0.798
 2399SOL     OW 9593   3.012   0.389   4.564
 2399SOL    HW1 9594   3.042   0.384   4.655
 2399SOL    HW2 9595   2.971   0.475   4.556
 2399SOL     MW 9596   3.010   0.399   4.575
 2400SOL     OW 9597   2.076   4.362   0.339
 2400SOL    HW1 9598   2.072   4.289   0.278
 2400SOL    HW2 9599   1.985   4.385   0.356
 2400SOL     MW 9600   2.064   4.355   0.334
 2401SOL     OW 9601   2.493   5.327   3.110
 2401SOL    HW1 9602   2.575   5.369   3.086
 2401SOL    HW2 9603   2.432   5.399   3.126
 2401SOL     MW 9604   2.495   5.341   3.109
 2402SOL     OW 9605   4.327   2.223   3.274
 2402SOL    HW1 9606   4.378   2.173   3.211
 2402SOL    HW2 9607   4.388   2.287   3.310
 2402SOL     MW 9608   4.341   2.225   3.270
 2403SOL     OW 9609   0.965   1.405   1.511
 2403SOL    HW1 9610   0.987   1.424   1.419
 2403SOL    HW2 9611   1.010   1.473   1.560
 2403SOL     MW 9612   0.974   1.416   1.505
 2404SOL     OW 9613   0.737   2.961   1.382
 2404SOL    HW1 9614   0.669   3.007   1.432
 2404SOL    HW2 9615   0.719   2.868   1.397
 2404SOL     MW 9616   0.726   2.955   1.390
 2405SOL     OW 9617   4.178   2.574   0.842
 2405SOL    HW1 9618   4.249   2.588   0.905
 2405SOL    HW2 9619   4.167   2.659   0.799
 2405SOL     MW 9620   4.186   2.587   0.845
 2406SOL     OW 9621   0.431   0.841   3.572
 2406SOL    HW1 9622   0.336   0.831   3.567
 2406SOL    HW2 9623   0.453   0.906   3.504
 2406SOL     MW 9624   0.422   0.848   3.562
 2407SOL     OW 9625   0.515   5.104   0.239
 2407SOL    HW1 9626   0.607   5.105   0.214
 2407SOL    HW2 9627   0.510   5.160   0.316
 2407SOL     MW 9628   0.526   5.111   0.246
 2408SOL     OW 9629   1.575   1.144   2.194
 2408SOL    HW1 9630   1.665   1.120   2.171
 2408SOL    HW2 9631   1.534   1.062   2.218
 2408SOL     MW 9632   1.582   1.131   2.194
 2409SOL     OW 9633   3.466   3.389   2.173
 2409SOL    HW1 9634   3.475   3.398   2.268
 2409SOL    HW2 9635   3.375   3.364   2.160
 2409SOL     MW 9636   3.456   3.387   2.184
 2410SOL     OW 9637   1.547   0.611   4.166
 2410SOL    HW1 9638   1.577   0.675   4.230
 2410SOL    HW2 9639   1.567   0.650   4.081
 2410SOL     MW 9640   1.553   0.624   4.163
 2411SOL     OW 9641   1.817   4.001   2.338
 2411SOL    HW1 9642   1.755   3.929   2.347
 2411SOL    HW2 9643   1.859   4.007   2.424
 2411SOL     MW 9644   1.814   3.992   2.351
 2412SOL     OW 9645   3.635   0.482   3.863
 2412SOL    HW1 9646   3.602   0.438   3.941
 2412SOL    HW2 9647   3.560   0.531   3.828
 2412SOL     MW 9648   3.621   0.483   3.869
 2413SOL     OW 9649   1.888   1.653   3.772
 2413SOL    HW1 9650   1.907   1.741   3.740
 2413SOL    HW2 9651   1.888   1.662   3.867
 2413SOL     MW 9652   1.890   1.665   3.780
 2414SOL     OW 9653   2.039   3.940   2.172
 2414SOL    HW1 9654   1.961   3.963   2.223
 2414SOL    HW2 9655   2.056   3.848   2.195
 2414SOL     MW 9656   2.031   3.931   2.182
 2415SOL     OW 9657   5.275   1.700   2.868
 2415SOL    HW1 9658   5.306   1.738   2.786
 2415SOL    HW2 9659   5.294   1.606   2.859
 2415SOL     MW 9660   5.282   1.693   2.857
 2416SOL     OW 9661   4.697   4.203   4.650
 2416SOL    HW1 9662   4.697   4.188   4.745
 2416SOL    HW2 9663   4.761   4.273   4.637
 2416SOL     MW 9664   4.706   4.210   4.660
 2417SOL     OW 9665   1.203   0.084   2.528
 2417SOL    HW1 9666   1.208  -0.011   2.534
 2417SOL    HW2 9667   1.232   0.116   2.613
 2417SOL     MW 9668   1.207   0.076   2.539
 2418SOL     OW 9669   4.963   4.168   4.409
 2418SOL    HW1 9670   5.012   4.111   4.350
 2418SOL    HW2 9671   4.975   4.256   4.373
 2418SOL     MW 9672   4.970   4.172   4.397
 2419SOL     OW 9673   5.381   0.122   5.335
 2419SOL    HW1 9674   5.465   0.076   5.336
 2419SOL    HW2 9675   5.316   0.054   5.352
 2419SOL     MW 9676   5.384   0.108   5.337
 2420SOL     OW 9677   4.329   1.863   4.842
 2420SOL    HW1 9678   4.277   1.888   4.766
 2420SOL    HW2 9679   4.419   1.862   4.811
 2420SOL     MW 9680   4.333   1.866   4.828
 2421SOL     OW 9681   4.556   2.521   4.325
 2421SOL    HW1 9682   4.527   2.598   4.374
 2421SOL    HW2 9683   4.528   2.446   4.378
 2421SOL     MW 9684   4.549   2.521   4.338
 2422SOL     OW 9685   0.088   5.333   0.527
 2422SOL    HW1 9686   0.115   5.248   0.491
 2422SOL    HW2 9687   0.149   5.395   0.488
 2422SOL     MW 9688   0.100   5.330   0.517
 2423SOL     OW 9689   3.913   0.564   3.917
 2423SOL    HW1 9690   3.820   0.544   3.911
 2423SOL    HW2 9691   3.936   0.544   4.008
 2423SOL     MW 9692   3.904   0.559   3.928
 2424SOL     OW 9693   0.780   4.220   4.239
 2424SOL    HW1 9694   0.806   4.129   4.222
 2424SOL    HW2 9695   0.861   4.270   4.226
 2424SOL     MW 9696   0.794   4.215   4.235
 2425SOL     OW 9697   1.188   3.008   0.774
 2425SOL    HW1 9698   1.232   3.091   0.753
 2425SOL    HW2 9699   1.138   2.987   0.695
 2425SOL     MW 9700   1.187   3.016   0.761
 2426SOL     OW 9701   4.644   2.990   5.271
 2426SOL    HW1 9702   4.653   3.022   5.360
 2426SOL    HW2 9703   4.605   3.063   5.222
 2426SOL     MW 9704   4.640   3.004   5.276
 2427SOL     OW 9705   2.804   0.151   0.537
 2427SOL    HW1 9706   2.775   0.082   0.476
 2427SOL    HW2 9707   2.842   0.103   0.611
 2427SOL     MW 9708   2.805   0.136   0.538
 2428SOL     OW 9709   5.057   2.995   3.478
 2428SOL    HW1 9710   5.043   3.065   3.415
 2428SOL    HW2 9711   4.969   2.964   3.500
 2428SOL     MW 9712   5.044   3.000   3.473
 2429SOL     OW 9713   4.632   4.058   2.768
 2429SOL    HW1 9714   4.690   4.105   2.828
 2429SOL    HW2 9715   4.554   4.039   2.820
 2429SOL     MW 9716   4.630   4.061   2.782
 2430SOL     OW 9717   4.962   0.151   2.035
 2430SOL    HW1 9718   4.918   0.156   2.120
 2430SOL    HW2 9719   4.941   0.063   2.003
 2430SOL     MW 9720   4.954   0.140   2.042
 2431SOL     OW 9721   4.623   4.685   4.201
 2431SOL    HW1 9722   4.635   4.625   4.274
 2431SOL    HW2 9723   4.614   4.628   4.124
 2431SOL     MW 9724   4.623   4.670   4.200
 2432SOL     OW 9725   0.571   0.681   5.149
 2432SOL    HW1 9726   0.494   0.733   5.127
 2432SOL    HW2 9727   0.644   0.726   5.107
 2432SOL     MW 9728   0.570   0.693   5.141
 2433SOL     OW 9729   2.682   1.531   2.829
 2433SOL    HW1 9730   2.597   1.490   2.812
 2433SOL    HW2 9731   2.662   1.601   2.892
 2433SOL     MW 9732   2.668   1.535   2.835
 2434SOL     OW 9733   2.207   2.492   5.251
 2434SOL    HW1 9734   2.222   2.418   5.191
 2434SOL    HW2 9735   2.155   2.454   5.322
 2434SOL     MW 9736   2.202   2.477   5.252
 2435SOL     OW 9737   4.658   2.941   3.327
 2435SOL    HW1 9738   4.596   2.881   3.369
 2435SOL    HW2 9739   4.602   3.009   3.288
 2435SOL     MW 9740   4.643   2.942   3.327
 2436SOL     OW 9741   4.991   3.345   4.629
 2436SOL    HW1 9742   4.999   3.440   4.618
 2436SOL    HW2 9743   4.905   3.324   4.593
 2436SOL     MW 9744   4.981   3.354   4.623
 2437SOL     OW 9745   0.268   4.655   2.706
 2437SOL    HW1 9746   0.317   4.604   2.771
 2437SOL    HW2 9747   0.271   4.745   2.739
 2437SOL     MW 9748   0.275   4.660   2.719
 2438SOL     OW 9749   4.625   4.726   0.779
 2438SOL    HW1 9750   4.672   4.809   0.773
 2438SOL    HW2 9751   4.647   4.680   0.697
 2438SOL     MW 9752   4.634   4.731   0.767
 2439SOL     OW 9753   3.201   1.658   4.768
 2439SOL    HW1 9754   3.214   1.570   4.803
 2439SOL    HW2 9755   3.129   1.694   4.819
 2439SOL     MW 9756   3.194   1.652   4.779
 2440SOL     OW 9757   4.401   5.194   1.069
 2440SOL    HW1 9758   4.452   5.211   1.149
 2440SOL    HW2 9759   4.358   5.276   1.050
 2440SOL     MW 9760   4.402   5.206   1.077
 2441SOL     OW 9761   1.055   0.979   2.324
 2441SOL    HW1 9762   0.987   1.032   2.282
 2441SOL    HW2 9763   1.016   0.953   2.408
 2441SOL     MW 9764   1.041   0.983   2.330
 2442SOL     OW 9765   4.868   4.834   3.683
 2442SOL    HW1 9766   4.797   4.785   3.724
 2442SOL    HW2 9767   4.833   4.922   3.672
 2442SOL     MW 9768   4.855   4.839   3.687
 2443SOL     OW 9769   3.999   4.386   0.699
 2443SOL    HW1 9770   4.077   4.439   0.712
 2443SOL    HW2 9771   4.014   4.306   0.749
 2443SOL     MW 9772   4.011   4.383   0.707
 2444SOL     OW 9773   4.026   5.070   0.350
 2444SOL    HW1 9774   4.045   4.976   0.357
 2444SOL    HW2 9775   4.066   5.096   0.267
 2444SOL     MW 9776   4.034   5.061   0.340
 2445SOL     OW 9777   0.841   1.002   2.815
 2445SOL    HW1 9778   0.746   1.009   2.817
 2445SOL    HW2 9779   0.861   0.920   2.860
 2445SOL     MW 9780   0.832   0.993   2.821
 2446SOL     OW 9781   0.420   1.780   2.487
 2446SOL    HW1 9782   0.502   1.730   2.484
 2446SOL    HW2 9783   0.353   1.716   2.461
 2446SOL     MW 9784   0.422   1.765   2.483
 2447SOL     OW 9785   4.262   2.457   2.008
 2447SOL    HW1 9786   4.324   2.437   2.078
 2447SOL    HW2 9787   4.241   2.550   2.020
 2447SOL     MW 9788   4.267   2.467   2.018
 2448SOL     OW 9789   2.496   3.234   1.765
 2448SOL    HW1 9790   2.503   3.327   1.744
 2448SOL    HW2 9791   2.585   3.208   1.787
 2448SOL     MW 9792   2.508   3.242   1.765
 2449SOL     OW 9793   5.490   2.374   4.833
 2449SOL    HW1 9794   5.497   2.367   4.928
 2449SOL    HW2 9795   5.405   2.415   4.818
 2449SOL     MW 9796   5.480   2.379   4.843
 2450SOL     OW 9797   1.987   4.845   0.968
 2450SOL    HW1 9798   2.051   4.879   1.030
 2450SOL    HW2 9799   1.998   4.750   0.971
 2450SOL     MW 9800   1.996   4.838   0.976
 2451SOL     OW 9801   0.780   5.076   0.182
 2451SOL    HW1 9802   0.809   4.986   0.173
 2451SOL    HW2 9803   0.849   5.127   0.138
 2451SOL     MW 9804   0.793   5.071   0.175
 2452SOL     OW 9805   0.315   3.862   2.365
 2452SOL    HW1 9806   0.396   3.819   2.337
 2452SOL    HW2 9807   0.343   3.926   2.430
 2452SOL     MW 9808   0.329   3.865   2.370
 2453SOL     OW 9809   4.858   1.989   3.634
 2453SOL    HW1 9810   4.796   2.047   3.590
 2453SOL    HW2 9811   4.839   2.000   3.727
 2453SOL     MW 9812   4.848   1.998   3.640
 2454SOL     OW 9813   0.355   2.823   4.130
 2454SOL    HW1 9814   0.407   2.749   4.100
 2454SOL    HW2 9815   0.313   2.792   4.211
 2454SOL     MW 9816   0.356   2.810   4.137
 2455SOL     OW 9817   5.474   3.099   3.018
 2455SOL    HW1 9818   5.471   3.006   3.038
 2455SOL    HW2 9819   5.398   3.136   3.062
 2455SOL     MW 9820   5.464   3.092   3.026
 2456SOL     OW 9821   3.038   4.547   3.131
 2456SOL    HW1 9822   3.002   4.551   3.220
 2456SOL    HW2 9823   2.993   4.617   3.084
 2456SOL     MW 9824   3.028   4.557   3.137
 2457SOL     OW 9825   4.712   0.726   2.531
 2457SOL    HW1 9826   4.625   0.698   2.561
 2457SOL    HW2 9827   4.773   0.666   2.574
 2457SOL     MW 9828   4.708   0.715   2.541
 2458SOL     OW 9829   4.904   3.404   4.000
 2458SOL    HW1 9830   4.876   3.393   3.909
 2458SOL    HW2 9831   4.952   3.488   4.000
 2458SOL     MW 9832   4.907   3.414   3.988
 2459SOL     OW 9833   1.701   3.250   3.598
 2459SOL    HW1 9834   1.613   3.239   3.562
 2459SOL    HW2 9835   1.732   3.332   3.561
 2459SOL     MW 9836   1.694   3.259   3.589
 2460SOL     OW 9837   3.929   1.345   0.926
 2460SOL    HW1 9838   3.965   1.433   0.937
 2460SOL    HW2 9839   3.999   1.286   0.952
 2460SOL     MW 9840   3.943   1.349   0.931
 2461SOL     OW 9841   0.545   2.592   5.331
 2461SOL    HW1 9842   0.493   2.560   5.405
 2461SOL    HW2 9843   0.511   2.545   5.255
 2461SOL     MW 9844   0.534   2.582   5.331
 2462SOL     OW 9845   1.682   1.126   5.299
 2462SOL    HW1 9846   1.717   1.174   5.375
 2462SOL    HW2 9847   1.712   1.036   5.312
 2462SOL     MW 9848   1.690   1.120   5.311
 2463SOL     OW 9849   1.113   0.043   2.972
 2463SOL    HW1 9850   1.020   0.066   2.975
 2463SOL    HW2 9851   1.147   0.067   3.058
 2463SOL     MW 9852   1.105   0.049   2.983
 2464SOL     OW 9853   0.181   3.628   4.733
 2464SOL    HW1 9854   0.095   3.668   4.743
 2464SOL    HW2 9855   0.227   3.685   4.671
 2464SOL     MW 9856   0.176   3.641   4.727
 2465SOL     OW 9857   0.351   2.067   2.032
 2465SOL    HW1 9858   0.362   2.003   1.961
 2465SOL    HW2 9859   0.281   2.030   2.086
 2465SOL     MW 9860   0.343   2.054   2.029
 2466SOL     OW 9861   1.559   2.672   5.153
 2466SOL    HW1 9862   1.528   2.675   5.243
 2466SOL    HW2 9863   1.574   2.764   5.130
 2466SOL     MW 9864   1.557   2.684   5.162
 2467SOL     OW 9865   3.504   2.529   0.349
 2467SOL    HW1 9866   3.481   2.574   0.430
 2467SOL    HW2 9867   3.443   2.564   0.284
 2467SOL     MW 9868   3.493   2.540   0.351
 2468SOL     OW 9869   1.475   1.526   1.206
 2468SOL    HW1 9870   1.502   1.606   1.250
 2468SOL    HW2 9871   1.534   1.459   1.240
 2468SOL     MW 9872   1.486   1.527   1.216
 2469SOL     OW 9873   3.159   5.339   0.941
 2469SOL    HW1 9874   3.070   5.308   0.925
 2469SOL    HW2 9875   3.148   5.428   0.975
 2469SOL     MW 9876   3.146   5.347   0.943
 2470SOL     OW 9877   1.710   0.232   4.015
 2470SOL    HW1 9878   1.789   0.243   4.067
 2470SOL    HW2 9879   1.639   0.252   4.076
 2470SOL     MW 9880   1.711   0.236   4.029
 2471SOL     OW 9881   2.867   3.324   3.006
 2471SOL    HW1 9882   2.780   3.363   3.005
 2471SOL    HW2 9883   2.854   3.235   3.040
 2471SOL     MW 9884   2.854   3.317   3.010
 2472SOL     OW 9885   0.833   0.547   0.970
 2472SOL    HW1 9886   0.868   0.487   0.905
 2472SOL    HW2 9887   0.851   0.634   0.935
 2472SOL     MW 9888   0.840   0.550   0.957
 2473SOL     OW 9889   5.266   2.012   2.430
 2473SOL    HW1 9890   5.185   2.057   2.406
 2473SOL    HW2 9891   5.292   1.966   2.350
 2473SOL     MW 9892   5.259   2.012   2.417
 2474SOL     OW 9893   1.303   3.711   4.671
 2474SOL    HW1 9894   1.258   3.655   4.607
 2474SOL    HW2 9895   1.351   3.649   4.727
 2474SOL     MW 9896   1.304   3.696   4.670
 2475SOL     OW 9897   0.533   4.770   4.242
 2475SOL    HW1 9898   0.532   4.700   4.177
 2475SOL    HW2 9899   0.467   4.832   4.212
 2475SOL     MW 9900   0.525   4.769   4.230
 2476SOL     OW 9901   4.507   2.088   0.682
 2476SOL    HW1 9902   4.586   2.039   0.706
 2476SOL    HW2 9903   4.454   2.089   0.762
 2476SOL     MW 9904   4.510   2.082   0.695
 2477SOL     OW 9905   4.542   3.717   5.027
 2477SOL    HW1 9906   4.595   3.671   5.092
 2477SOL    HW2 9907   4.591   3.707   4.945
 2477SOL     MW 9908   4.555   3.710   5.025
 2478SOL     OW 9909   2.201   3.341   3.702
 2478SOL    HW1 9910   2.210   3.392   3.783
 2478SOL    HW2 9911   2.155   3.400   3.643
 2478SOL     MW 9912   2.196   3.355   3.705
 2479SOL     OW 9913   1.871   4.075   0.505
 2479SOL    HW1 9914   1.861   3.994   0.555
 2479SOL    HW2 9915   1.841   4.052   0.417
 2479SOL     MW 9916   1.866   4.062   0.500
 2480SOL     OW 9917   3.217   1.535   2.206
 2480SOL    HW1 9918   3.240   1.457   2.155
 2480SOL    HW2 9919   3.192   1.502   2.292
 2480SOL     MW 9920   3.217   1.521   2.210
 2481SOL     OW 9921   5.079   2.975   2.029
 2481SOL    HW1 9922   5.121   2.900   1.986
 2481SOL    HW2 9923   5.022   2.936   2.095
 2481SOL     MW 9924   5.077   2.961   2.032
 2482SOL     OW 9925   1.197   0.820   2.138
 2482SOL    HW1 9926   1.141   0.867   2.200
 2482SOL    HW2 9927   1.137   0.778   2.078
 2482SOL     MW 9928   1.182   0.821   2.138
 2483SOL     OW 9929   4.781   1.289   0.901
 2483SOL    HW1 9930   4.810   1.347   0.972
 2483SOL    HW2 9931   4.773   1.203   0.943
 2483SOL     MW 9932   4.784   1.285   0.916
 2484SOL     OW 9933   1.276   3.679   3.374
 2484SOL    HW1 9934   1.338   3.622   3.329
 2484SOL    HW2 9935   1.274   3.759   3.321
 2484SOL     MW 9936   1.284   3.682   3.361
 2485SOL     OW 9937   3.544   4.984   0.050
 2485SOL    HW1 9938   3.535   4.903   0.100
 2485SOL    HW2 9939   3.486   4.973  -0.025
 2485SOL     MW 9940   3.535   4.972   0.047
 2486SOL     OW 9941   0.892   0.073   5.412
 2486SOL    HW1 9942   0.839   0.071   5.492
 2486SOL    HW2 9943   0.976   0.035   5.439
 2486SOL     MW 9944   0.896   0.068   5.426
 2487SOL     OW 9945   2.339   2.359   0.107
 2487SOL    HW1 9946   2.250   2.380   0.079
 2487SOL    HW2 9947   2.394   2.415   0.053
 2487SOL     MW 9948   2.335   2.369   0.096
 2488SOL     OW 9949   3.185   3.010   1.256
 2488SOL    HW1 9950   3.258   2.964   1.298
 2488SOL    HW2 9951   3.172   2.963   1.174
 2488SOL     MW 9952   3.192   2.998   1.251
 2489SOL     OW 9953   3.248   1.921   3.291
 2489SOL    HW1 9954   3.245   1.995   3.230
 2489SOL    HW2 9955   3.273   1.960   3.374
 2489SOL     MW 9956   3.251   1.935   3.293
 2490SOL     OW 9957   3.149   0.420   0.116
 2490SOL    HW1 9958   3.066   0.379   0.093
 2490SOL    HW2 9959   3.211   0.391   0.049
 2490SOL     MW 9960   3.147   0.411   0.104
 2491SOL     OW 9961   0.981   4.490   2.839
 2491SOL    HW1 9962   1.019   4.408   2.805
 2491SOL    HW2 9963   0.962   4.471   2.931
 2491SOL     MW 9964   0.983   4.477   2.846
 2492SOL     OW 9965   1.751   3.996   0.273
 2492SOL    HW1 9966   1.714   4.060   0.211
 2492SOL    HW2 9967   1.787   3.927   0.218
 2492SOL     MW 9968   1.751   3.996   0.258
 2493SOL     OW 9969   0.355   1.434   0.883
 2493SOL    HW1 9970   0.362   1.522   0.921
 2493SOL    HW2 9971   0.417   1.435   0.811
 2493SOL     MW 9972   0.364   1.445   0.878
 2494SOL     OW 9973   0.894   4.622   4.349
 2494SOL    HW1 9974   0.929   4.708   4.325
 2494SOL    HW2 9975   0.927   4.563   4.281
 2494SOL     MW 9976   0.903   4.626   4.337
 2495SOL     OW 9977   4.823   0.276   3.334
 2495SOL    HW1 9978   4.831   0.260   3.428
 2495SOL    HW2 9979   4.883   0.214   3.294
 2495SOL     MW 9980   4.831   0.266   3.341
 2496SOL     OW 9981   1.539   4.958   0.453
 2496SOL    HW1 9982   1.475   4.901   0.495
 2496SOL    HW2 9983   1.605   4.898   0.418
 2496SOL     MW 9984   1.540   4.943   0.454
 2497SOL     OW 9985   1.338   2.582   2.140
 2497SOL    HW1 9986   1.341   2.667   2.184
 2497SOL    HW2 9987   1.428   2.566   2.113
 2497SOL     MW 9988   1.350   2.591   2.142
 2498SOL     OW 9989   2.350   2.773   0.298
 2498SOL    HW1 9990   2.394   2.857   0.300
 2498SOL    HW2 9991   2.319   2.763   0.208
 2498SOL     MW 9992   2.351   2.782   0.287
 2499SOL     OW 9993   0.281   3.772   4.938
 2499SOL    HW1 9994   0.244   3.720   4.866
 2499SOL    HW2 9995   0.315   3.707   5.000
 2499SOL     MW 9996   0.281   3.757   4.937
 2500SOL     OW 9997   0.860   4.819   0.165
 2500SOL    HW1 9998   0.784   4.761   0.178
 2500SOL    HW2 9999   0.875   4.818   0.070
 2500SOL     MW10000   0.852   4.811   0.154
 2501SOL     OW10001   4.480   0.634   2.663
 2501SOL    HW110002   4.505   0.543   2.674
 2501SOL    HW210003   4.387   0.631   2.643
 2501SOL     MW10004   4.471   0.622   2.662
 2502SOL     OW10005   1.014   3.373   0.334
 2502SOL    HW110006   0.939   3.432   0.328
 2502SOL    HW210007   1.078   3.421   0.386
 2502SOL     MW10008   1.012   3.387   0.340
 2503SOL     OW10009   2.847   0.147   5.394
 2503SOL    HW110010   2.875   0.206   5.464
 2503SOL    HW210011   2.830   0.205   5.320
 2503SOL     MW10012   2.848   0.162   5.394
 2504SOL     OW10013   4.694   2.578   3.135
 2504SOL    HW110014   4.683   2.487   3.108
 2504SOL    HW210015   4.756   2.615   3.072
 2504SOL     MW10016   4.700   2.571   3.123
 2505SOL     OW10017   4.382   4.487   5.013
 2505SOL    HW110018   4.462   4.435   5.018
 2505SOL    HW210019   4.341   4.460   4.931
 2505SOL     MW10020   4.387   4.477   5.003
 2506SOL     OW10021   4.602   3.943   0.905
 2506SOL    HW110022   4.539   4.001   0.862
 2506SOL    HW210023   4.570   3.937   0.996
 2506SOL     MW10024   4.590   3.950   0.911
 2507SOL     OW10025   3.118   5.168   5.023
 2507SOL    HW110026   3.033   5.172   5.068
 2507SOL    HW210027   3.183   5.179   5.093
 2507SOL     MW10028   3.115   5.170   5.038
 2508SOL     OW10029   2.040   0.847   5.272
 2508SOL    HW110030   2.120   0.882   5.311
 2508SOL    HW210031   2.039   0.755   5.297
 2508SOL     MW10032   2.050   0.840   5.280
 2509SOL     OW10033   5.182   3.453   1.140
 2509SOL    HW110034   5.127   3.531   1.132
 2509SOL    HW210035   5.271   3.488   1.142
 2509SOL     MW10036   5.187   3.468   1.139
 2510SOL     OW10037   4.757   4.974   0.777
 2510SOL    HW110038   4.736   4.987   0.685
 2510SOL    HW210039   4.846   5.008   0.787
 2510SOL     MW10040   4.765   4.980   0.767
 2511SOL     OW10041   4.403   2.361   0.831
 2511SOL    HW110042   4.376   2.271   0.851
 2511SOL    HW210043   4.497   2.362   0.848
 2511SOL     MW10044   4.412   2.350   0.836
 2512SOL     OW10045   0.530   3.268   1.747
 2512SOL    HW110046   0.486   3.347   1.715
 2512SOL    HW210047   0.622   3.293   1.753
 2512SOL     MW10048   0.536   3.281   1.744
 2513SOL     OW10049   1.978   0.165   4.524
 2513SOL    HW110050   2.025   0.145   4.605
 2513SOL    HW210051   2.041   0.214   4.471
 2513SOL     MW10052   1.992   0.168   4.528
 2514SOL     OW10053   0.434   4.870   3.492
 2514SOL    HW110054   0.368   4.919   3.442
 2514SOL    HW210055   0.386   4.836   3.568
 2514SOL     MW10056   0.419   4.872   3.495
 2515SOL     OW10057   0.977   5.356   5.017
 2515SOL    HW110058   0.898   5.385   5.064
 2515SOL    HW210059   1.009   5.435   4.974
 2515SOL     MW10060   0.971   5.370   5.018
 2516SOL     OW10061   4.702   2.623   5.206
 2516SOL    HW110062   4.644   2.558   5.167
 2516SOL    HW210063   4.714   2.594   5.296
 2516SOL     MW10064   4.696   2.611   5.213
 2517SOL     OW10065   4.798   0.750   5.262
 2517SOL    HW110066   4.893   0.737   5.257
 2517SOL    HW210067   4.764   0.705   5.185
 2517SOL     MW10068   4.806   0.742   5.251
 2518SOL     OW10069   1.247   5.304   2.621
 2518SOL    HW110070   1.209   5.293   2.708
 2518SOL    HW210071   1.254   5.215   2.587
 2518SOL     MW10072   1.243   5.291   2.628
 2519SOL     OW10073   1.415   4.997   0.042
 2519SOL    HW110074   1.457   5.051  -0.025
 2519SOL    HW210075   1.321   5.011   0.030
 2519SOL     MW10076   1.409   5.005   0.032
 2520SOL     OW10077   3.660   0.908   2.799
 2520SOL    HW110078   3.594   0.841   2.815
 2520SOL    HW210079   3.681   0.943   2.885
 2520SOL     MW10080   3.654   0.904   2.812
 2521SOL     OW10081   1.307   2.593   0.628
 2521SOL    HW110082   1.372   2.587   0.698
 2521SOL    HW210083   1.223   2.602   0.674
 2521SOL     MW10084   1.305   2.594   0.643
 2522SOL     OW10085   3.631   2.343   5.024
 2522SOL    HW110086   3.715   2.374   4.990
 2522SOL    HW210087   3.653   2.288   5.099
 2522SOL     MW10088   3.644   2.340   5.029
 2523SOL     OW10089   3.715   1.216   2.196
 2523SOL    HW110090   3.790   1.247   2.247
 2523SOL    HW210091   3.678   1.145   2.250
 2523SOL     MW10092   3.720   1.211   2.210
 2524SOL     OW10093   5.355   0.360   5.196
 2524SOL    HW110094   5.366   0.276   5.240
 2524SOL    HW210095   5.351   0.337   5.103
 2524SOL     MW10096   5.356   0.347   5.189
 2525SOL     OW10097   0.551   3.696   3.555
 2525SOL    HW110098   0.527   3.724   3.644
 2525SOL    HW210099   0.586   3.775   3.514
 2525SOL     MW10100   0.552   3.709   3.562
 2526SOL     OW10101   2.538   4.898   3.559
 2526SOL    HW110102   2.612   4.960   3.556
 2526SOL    HW210103   2.461   4.952   3.541
 2526SOL     MW10104   2.538   4.913   3.556
 2527SOL     OW10105   2.460   4.668   2.333
 2527SOL    HW110106   2.546   4.683   2.371
 2527SOL    HW210107   2.425   4.594   2.382
 2527SOL     MW10108   2.466   4.661   2.345
 2528SOL     OW10109   4.636   2.023   4.522
 2528SOL    HW110110   4.614   1.976   4.603
 2528SOL    HW210111   4.681   1.958   4.468
 2528SOL     MW10112   4.639   2.008   4.526
 2529SOL     OW10113   3.772   1.107   0.376
 2529SOL    HW110114   3.813   1.021   0.369
 2529SOL    HW210115   3.792   1.150   0.293
 2529SOL     MW10116   3.780   1.102   0.365
 2530SOL     OW10117   1.971   4.421   3.824
 2530SOL    HW110118   2.065   4.428   3.807
 2530SOL    HW210119   1.934   4.386   3.743
 2530SOL     MW10120   1.978   4.417   3.812
 2531SOL     OW10121   1.809   0.479   2.624
 2531SOL    HW110122   1.866   0.504   2.697
 2531SOL    HW210123   1.869   0.438   2.561
 2531SOL     MW10124   1.824   0.477   2.625
 2532SOL     OW10125   4.539   4.431   3.731
 2532SOL    HW110126   4.627   4.436   3.693
 2532SOL    HW210127   4.509   4.342   3.710
 2532SOL     MW10128   4.546   4.420   3.724
 2533SOL     OW10129   2.884   3.470   3.796
 2533SOL    HW110130   2.837   3.427   3.725
 2533SOL    HW210131   2.828   3.457   3.873
 2533SOL     MW10132   2.871   3.463   3.797
 2534SOL     OW10133   3.473   4.377   3.172
 2534SOL    HW110134   3.478   4.462   3.213
 2534SOL    HW210135   3.425   4.322   3.234
 2534SOL     MW10136   3.467   4.381   3.185
 2535SOL     OW10137   1.576   1.670   4.713
 2535SOL    HW110138   1.639   1.612   4.672
 2535SOL    HW210139   1.491   1.632   4.691
 2535SOL     MW10140   1.573   1.658   4.705
 2536SOL     OW10141   0.395   1.869   4.403
 2536SOL    HW110142   0.470   1.924   4.384
 2536SOL    HW210143   0.404   1.847   4.496
 2536SOL     MW10144   0.405   1.873   4.412
 2537SOL     OW10145   0.666   2.212   4.770
 2537SOL    HW110146   0.603   2.140   4.762
 2537SOL    HW210147   0.646   2.270   4.697
 2537SOL     MW10148   0.655   2.210   4.760
 2538SOL     OW10149   1.590   0.295   0.523
 2538SOL    HW110150   1.632   0.210   0.538
 2538SOL    HW210151   1.520   0.275   0.459
 2538SOL     MW10152   1.586   0.281   0.516
 2539SOL     OW10153   0.336   4.531   1.745
 2539SOL    HW110154   0.354   4.625   1.744
 2539SOL    HW210155   0.406   4.493   1.691
 2539SOL     MW10156   0.348   4.538   1.738
 2540SOL     OW10157   4.202   4.261   3.480
 2540SOL    HW110158   4.224   4.295   3.567
 2540SOL    HW210159   4.265   4.189   3.467
 2540SOL     MW10160   4.213   4.256   3.490
 2541SOL     OW10161   2.619   0.016   3.392
 2541SOL    HW110162   2.545   0.062   3.352
 2541SOL    HW210163   2.643   0.070   3.467
 2541SOL     MW10164   2.612   0.029   3.397
 2542SOL     OW10165   2.339   0.778   5.070
 2542SOL    HW110166   2.339   0.712   5.139
 2542SOL    HW210167   2.430   0.787   5.044
 2542SOL     MW10168   2.350   0.771   5.075
 2543SOL     OW10169   3.242   0.694   3.982
 2543SOL    HW110170   3.288   0.778   3.974
 2543SOL    HW210171   3.212   0.692   4.073
 2543SOL     MW10172   3.244   0.705   3.993
 2544SOL     OW10173   3.618   3.130   3.079
 2544SOL    HW110174   3.698   3.101   3.122
 2544SOL    HW210175   3.550   3.072   3.114
 2544SOL     MW10176   3.620   3.119   3.089
 2545SOL     OW10177   5.442   1.881   2.216
 2545SOL    HW110178   5.518   1.925   2.254
 2545SOL    HW210179   5.401   1.948   2.161
 2545SOL     MW10180   5.446   1.896   2.214
 2546SOL     OW10181   1.786   3.420   2.062
 2546SOL    HW110182   1.712   3.471   2.095
 2546SOL    HW210183   1.759   3.393   1.975
 2546SOL     MW10184   1.773   3.423   2.055
 2547SOL     OW10185   2.363   5.025   5.242
 2547SOL    HW110186   2.337   5.101   5.188
 2547SOL    HW210187   2.406   5.064   5.318
 2547SOL     MW10188   2.365   5.040   5.245
 2548SOL     OW10189   0.573   3.215   5.453
 2548SOL    HW110190   0.480   3.203   5.468
 2548SOL    HW210191   0.580   3.244   5.362
 2548SOL     MW10192   0.562   3.217   5.443
 2549SOL     OW10193   3.110   4.024   4.757
 2549SOL    HW110194   3.154   4.107   4.739
 2549SOL    HW210195   3.034   4.049   4.810
 2549SOL     MW10196   3.106   4.038   4.762
 2550SOL     OW10197   1.092   4.177   5.358
 2550SOL    HW110198   1.055   4.169   5.270
 2550SOL    HW210199   1.106   4.087   5.386
 2550SOL     MW10200   1.089   4.165   5.350
 2551SOL     OW10201   3.352   0.109   2.708
 2551SOL    HW110202   3.328   0.121   2.616
 2551SOL    HW210203   3.310   0.183   2.753
 2551SOL     MW10204   3.344   0.120   2.702
 2552SOL     OW10205   2.658   5.266   2.387
 2552SOL    HW110206   2.740   5.313   2.402
 2552SOL    HW210207   2.646   5.214   2.466
 2552SOL     MW10208   2.667   5.266   2.399
 2553SOL     OW10209   4.724   3.085   4.042
 2553SOL    HW110210   4.814   3.075   4.010
 2553SOL    HW210211   4.733   3.104   4.135
 2553SOL     MW10212   4.736   3.086   4.050
 2554SOL     OW10213   4.027   0.442   4.670
 2554SOL    HW110214   4.063   0.446   4.759
 2554SOL    HW210215   4.098   0.473   4.614
 2554SOL     MW10216   4.040   0.447   4.674
 2555SOL     OW10217   5.181   2.050   2.860
 2555SOL    HW110218   5.122   2.095   2.800
 2555SOL    HW210219   5.236   1.996   2.803
 2555SOL     MW10220   5.181   2.049   2.845
 2556SOL     OW10221   4.998   4.345   5.330
 2556SOL    HW110222   5.076   4.357   5.384
 2556SOL    HW210223   4.942   4.419   5.351
 2556SOL     MW10224   5.001   4.356   5.339
 2557SOL     OW10225   2.139   1.429   1.197
 2557SOL    HW110226   2.120   1.416   1.290
 2557SOL    HW210227   2.082   1.366   1.153
 2557SOL     MW10228   2.129   1.419   1.203
 2558SOL     OW10229   4.084   2.932   2.966
 2558SOL    HW110230   4.118   3.017   2.940
 2558SOL    HW210231   4.066   2.887   2.884
 2558SOL     MW10232   4.086   2.937   2.953
 2559SOL     OW10233   0.872   3.953   1.708
 2559SOL    HW110234   0.805   3.961   1.776
 2559SOL    HW210235   0.931   4.027   1.725
 2559SOL     MW10236   0.871   3.964   1.719
 2560SOL     OW10237   2.296   5.250   5.106
 2560SOL    HW110238   2.331   5.239   5.018
 2560SOL    HW210239   2.203   5.267   5.093
 2560SOL     MW10240   2.289   5.251   5.093
 2561SOL     OW10241   1.589   0.715   3.594
 2561SOL    HW110242   1.671   0.665   3.599
 2561SOL    HW210243   1.609   0.785   3.531
 2561SOL     MW10244   1.602   0.718   3.586
 2562SOL     OW10245   2.706   0.855   4.333
 2562SOL    HW110246   2.769   0.899   4.391
 2562SOL    HW210247   2.714   0.762   4.355
 2562SOL     MW10248   2.715   0.849   4.343
 2563SOL     OW10249   0.025   3.300   4.875
 2563SOL    HW110250  -0.056   3.339   4.842
 2563SOL    HW210251   0.034   3.333   4.964
 2563SOL     MW10252   0.016   3.309   4.882
 2564SOL     OW10253   3.779   4.185   4.139
 2564SOL    HW110254   3.745   4.108   4.093
 2564SOL    HW210255   3.827   4.149   4.213
 2564SOL     MW10256   3.781   4.170   4.142
 2565SOL     OW10257   5.449   1.934   1.358
 2565SOL    HW110258   5.497   1.912   1.438
 2565SOL    HW210259   5.360   1.953   1.389
 2565SOL     MW10260   5.444   1.933   1.372
 2566SOL     OW10261   2.216   4.661   4.974
 2566SOL    HW110262   2.228   4.656   5.069
 2566SOL    HW210263   2.200   4.571   4.948
 2566SOL     MW10264   2.216   4.649   4.983
 2567SOL     OW10265   0.776   1.718   3.749
 2567SOL    HW110266   0.779   1.677   3.835
 2567SOL    HW210267   0.809   1.807   3.763
 2567SOL     MW10268   0.781   1.724   3.762
 2568SOL     OW10269   1.631   0.240   2.146
 2568SOL    HW110270   1.550   0.264   2.101
 2568SOL    HW210271   1.699   0.290   2.101
 2568SOL     MW10272   1.629   0.249   2.135
 2569SOL     OW10273   5.066   2.199   4.512
 2569SOL    HW110274   5.081   2.285   4.553
 2569SOL    HW210275   5.109   2.206   4.427
 2569SOL     MW10276   5.073   2.211   4.506
 2570SOL     OW10277   3.048   4.602   0.376
 2570SOL    HW110278   3.053   4.657   0.454
 2570SOL    HW210279   2.995   4.527   0.403
 2570SOL     MW10280   3.042   4.599   0.389
 2571SOL     OW10281   0.107   0.299   2.361
 2571SOL    HW110282   0.201   0.286   2.351
 2571SOL    HW210283   0.097   0.393   2.371
 2571SOL     MW10284   0.118   0.309   2.361
 2572SOL     OW10285   3.740   5.329   2.162
 2572SOL    HW110286   3.787   5.266   2.108
 2572SOL    HW210287   3.679   5.276   2.213
 2572SOL     MW10288   3.738   5.314   2.161
 2573SOL     OW10289   0.678   4.324   2.271
 2573SOL    HW110290   0.591   4.360   2.258
 2573SOL    HW210291   0.702   4.348   2.360
 2573SOL     MW10292   0.670   4.332   2.280
 2574SOL     OW10293   2.887   2.170   2.178
 2574SOL    HW110294   2.837   2.204   2.104
 2574SOL    HW210295   2.878   2.075   2.172
 2574SOL     MW10296   2.880   2.162   2.168
 2575SOL     OW10297   3.542   5.346   3.036
 2575SOL    HW110298   3.531   5.275   3.099
 2575SOL    HW210299   3.591   5.413   3.083
 2575SOL     MW10300   3.547   5.345   3.050
 2576SOL     OW10301   4.257   4.249   2.835
 2576SOL    HW110302   4.293   4.318   2.891
 2576SOL    HW210303   4.304   4.170   2.860
 2576SOL     MW10304   4.267   4.248   2.845
 2577SOL     OW10305   2.014   4.107   2.835
 2577SOL    HW110306   2.092   4.052   2.840
 2577SOL    HW210307   2.047   4.196   2.849
 2577SOL     MW10308   2.028   4.111   2.838
 2578SOL     OW10309   2.389   1.783   0.982
 2578SOL    HW110310   2.483   1.800   0.984
 2578SOL    HW210311   2.377   1.707   1.039
 2578SOL     MW10312   2.400   1.775   0.990
 2579SOL     OW10313   1.434   0.699   1.891
 2579SOL    HW110314   1.414   0.793   1.893
 2579SOL    HW210315   1.529   0.695   1.883
 2579SOL     MW10316   1.444   0.711   1.890
 2580SOL     OW10317   5.049   3.687   4.934
 2580SOL    HW110318   5.053   3.779   4.960
 2580SOL    HW210319   5.091   3.684   4.848
 2580SOL     MW10320   5.055   3.698   4.926
 2581SOL     OW10321   1.576   2.216   5.173
 2581SOL    HW110322   1.615   2.175   5.095
 2581SOL    HW210323   1.558   2.142   5.231
 2581SOL     MW10324   1.578   2.201   5.170
 2582SOL     OW10325   5.302   0.198   0.297
 2582SOL    HW110326   5.361   0.266   0.329
 2582SOL    HW210327   5.231   0.246   0.255
 2582SOL     MW10328   5.300   0.213   0.295
 2583SOL     OW10329   4.985   5.025   2.358
 2583SOL    HW110330   4.975   5.100   2.298
 2583SOL    HW210331   4.925   5.044   2.430
 2583SOL     MW10332   4.976   5.037   2.359
 2584SOL     OW10333   3.541   0.182   0.022
 2584SOL    HW110334   3.585   0.119  -0.035
 2584SOL    HW210335   3.547   0.144   0.109
 2584SOL     MW10336   3.547   0.169   0.025
 2585SOL     OW10337   1.145   4.552   3.306
 2585SOL    HW110338   1.131   4.642   3.276
 2585SOL    HW210339   1.213   4.559   3.373
 2585SOL     MW10340   1.152   4.565   3.311
 2586SOL     OW10341   2.239   2.098   0.865
 2586SOL    HW110342   2.292   2.133   0.937
 2586SOL    HW210343   2.152   2.085   0.904
 2586SOL     MW10344   2.235   2.101   0.879
 2587SOL     OW10345   2.251   2.984   1.335
 2587SOL    HW110346   2.204   2.992   1.252
 2587SOL    HW210347   2.341   3.009   1.314
 2587SOL     MW10348   2.257   2.988   1.322
 2588SOL     OW10349   1.126   2.075   4.086
 2588SOL    HW110350   1.206   2.104   4.129
 2588SOL    HW210351   1.155   2.030   4.007
 2588SOL     MW10352   1.140   2.073   4.082
 2589SOL     OW10353   3.549   4.723   0.805
 2589SOL    HW110354   3.583   4.635   0.823
 2589SOL    HW210355   3.483   4.737   0.874
 2589SOL     MW10356   3.545   4.713   0.816
 2590SOL     OW10357   2.633   0.257   4.616
 2590SOL    HW110358   2.570   0.188   4.637
 2590SOL    HW210359   2.715   0.211   4.599
 2590SOL     MW10360   2.636   0.243   4.617
 2591SOL     OW10361   2.587   3.078   2.900
 2591SOL    HW110362   2.564   2.988   2.922
 2591SOL    HW210363   2.518   3.106   2.840
 2591SOL     MW10364   2.575   3.070   2.895
 2592SOL     OW10365   1.822   2.062   0.492
 2592SOL    HW110366   1.872   1.996   0.539
 2592SOL    HW210367   1.882   2.136   0.481
 2592SOL     MW10368   1.836   2.063   0.496
 2593SOL     OW10369   4.167   1.353   4.376
 2593SOL    HW110370   4.174   1.440   4.336
 2593SOL    HW210371   4.256   1.330   4.399
 2593SOL     MW10372   4.179   1.361   4.374
 2594SOL     OW10373   0.660   3.934   0.114
 2594SOL    HW110374   0.646   3.843   0.141
 2594SOL    HW210375   0.735   3.929   0.054
 2594SOL     MW10376   0.668   3.922   0.110
 2595SOL     OW10377   1.466   1.306   5.007
 2595SOL    HW110378   1.494   1.216   5.024
 2595SOL    HW210379   1.548   1.356   5.001
 2595SOL     MW10380   1.480   1.301   5.008
 2596SOL     OW10381   1.175   0.516   3.950
 2596SOL    HW110382   1.089   0.554   3.931
 2596SOL    HW210383   1.198   0.552   4.036
 2596SOL     MW10384   1.167   0.526   3.959
 2597SOL     OW10385   3.266   3.154   3.378
 2597SOL    HW110386   3.180   3.169   3.418
 2597SOL    HW210387   3.249   3.160   3.284
 2597SOL     MW10388   3.253   3.157   3.371
 2598SOL     OW10389   0.179   1.755   4.803
 2598SOL    HW110390   0.183   1.850   4.820
 2598SOL    HW210391   0.212   1.716   4.884
 2598SOL     MW10392   0.184   1.762   4.816
 2599SOL     OW10393   2.613   5.122   2.619
 2599SOL    HW110394   2.517   5.119   2.621
 2599SOL    HW210395   2.641   5.039   2.658
 2599SOL     MW10396   2.604   5.111   2.624
 2600SOL     OW10397   0.739   0.485   1.456
 2600SOL    HW110398   0.685   0.535   1.518
 2600SOL    HW210399   0.812   0.453   1.509
 2600SOL     MW10400   0.741   0.488   1.471
 2601SOL     OW10401   3.698   3.328   3.878
 2601SOL    HW110402   3.621   3.346   3.825
 2601SOL    HW210403   3.709   3.233   3.873
 2601SOL     MW10404   3.690   3.318   3.871
 2602SOL     OW10405   2.704   3.236   5.233
 2602SOL    HW110406   2.742   3.148   5.226
 2602SOL    HW210407   2.611   3.223   5.216
 2602SOL     MW10408   2.697   3.223   5.230
 2603SOL     OW10409   5.034   2.144   2.337
 2603SOL    HW110410   5.045   2.232   2.373
 2603SOL    HW210411   5.029   2.157   2.243
 2603SOL     MW10412   5.035   2.157   2.330
 2604SOL     OW10413   2.885   1.524   0.822
 2604SOL    HW110414   2.903   1.559   0.735
 2604SOL    HW210415   2.921   1.590   0.882
 2604SOL     MW10416   2.892   1.537   0.819
 2605SOL     OW10417   3.148   5.233   4.586
 2605SOL    HW110418   3.057   5.258   4.574
 2605SOL    HW210419   3.145   5.148   4.630
 2605SOL     MW10420   3.136   5.225   4.590
 2606SOL     OW10421   2.889   1.272   0.677
 2606SOL    HW110422   2.894   1.177   0.684
 2606SOL    HW210423   2.922   1.303   0.762
 2606SOL     MW10424   2.894   1.264   0.689
 2607SOL     OW10425   4.823   3.895   2.660
 2607SOL    HW110426   4.756   3.959   2.683
 2607SOL    HW210427   4.837   3.908   2.566
 2607SOL     MW10428   4.816   3.905   2.651
 2608SOL     OW10429   5.262   3.411   4.814
 2608SOL    HW110430   5.197   3.374   4.873
 2608SOL    HW210431   5.215   3.478   4.765
 2608SOL     MW10432   5.248   3.415   4.815
 2609SOL     OW10433   4.122   2.088   5.124
 2609SOL    HW110434   4.092   2.021   5.186
 2609SOL    HW210435   4.088   2.061   5.039
 2609SOL     MW10436   4.114   2.076   5.121
 2610SOL     OW10437   4.343   3.551   4.933
 2610SOL    HW110438   4.308   3.516   5.015
 2610SOL    HW210439   4.415   3.607   4.960
 2610SOL     MW10440   4.348   3.554   4.947
 2611SOL     OW10441   2.067   2.869   3.672
 2611SOL    HW110442   1.987   2.920   3.682
 2611SOL    HW210443   2.098   2.856   3.761
 2611SOL     MW10444   2.061   2.874   3.684
 2612SOL     OW10445   1.763   3.301   0.454
 2612SOL    HW110446   1.813   3.225   0.426
 2612SOL    HW210447   1.725   3.337   0.374
 2612SOL     MW10448   1.764   3.296   0.440
 2613SOL     OW10449   3.548   5.345   1.966
 2613SOL    HW110450   3.620   5.362   2.027
 2613SOL    HW210451   3.472   5.328   2.022
 2613SOL     MW10452   3.548   5.345   1.981
 2614SOL     OW10453   4.889   4.890   1.161
 2614SOL    HW110454   4.925   4.977   1.178
 2614SOL    HW210455   4.932   4.833   1.225
 2614SOL     MW10456   4.899   4.894   1.171
 2615SOL     OW10457   3.149   2.225   0.923
 2615SOL    HW110458   3.118   2.179   0.845
 2615SOL    HW210459   3.244   2.232   0.911
 2615SOL     MW10460   3.157   2.220   0.911
 2616SOL     OW10461   2.644   2.904   4.297
 2616SOL    HW110462   2.716   2.905   4.234
 2616SOL    HW210463   2.679   2.859   4.373
 2616SOL     MW10464   2.657   2.898   4.298
 2617SOL     OW10465   1.325   0.871   4.689
 2617SOL    HW110466   1.296   0.920   4.766
 2617SOL    HW210467   1.245   0.845   4.644
 2617SOL     MW10468   1.311   0.874   4.693
 2618SOL     OW10469   5.289   3.700   0.306
 2618SOL    HW110470   5.366   3.751   0.330
 2618SOL    HW210471   5.288   3.627   0.368
 2618SOL     MW10472   5.298   3.698   0.317
 2619SOL     OW10473   0.242   0.686   1.943
 2619SOL    HW110474   0.292   0.636   1.878
 2619SOL    HW210475   0.309   0.726   1.999
 2619SOL     MW10476   0.257   0.685   1.942
 2620SOL     OW10477   2.070   1.096   1.970
 2620SOL    HW110478   2.151   1.101   2.022
 2620SOL    HW210479   2.076   1.013   1.923
 2620SOL     MW10480   2.081   1.086   1.971
 2621SOL     OW10481   3.955   2.382   1.177
 2621SOL    HW110482   3.906   2.301   1.188
 2621SOL    HW210483   3.922   2.440   1.247
 2621SOL     MW10484   3.944   2.379   1.188
 2622SOL     OW10485   1.920   2.813   0.284
 2622SOL    HW110486   1.839   2.770   0.311
 2622SOL    HW210487   1.986   2.782   0.346
 2622SOL     MW10488   1.918   2.804   0.296
 2623SOL     OW10489   1.023   4.637   5.264
 2623SOL    HW110490   1.025   4.675   5.176
 2623SOL    HW210491   0.940   4.589   5.268
 2623SOL     MW10492   1.013   4.636   5.253
 2624SOL     OW10493   4.637   4.945   4.436
 2624SOL    HW110494   4.581   4.943   4.359
 2624SOL    HW210495   4.577   4.953   4.510
 2624SOL     MW10496   4.622   4.946   4.436
 2625SOL     OW10497   0.811   3.942   4.188
 2625SOL    HW110498   0.788   3.884   4.261
 2625SOL    HW210499   0.783   3.894   4.110
 2625SOL     MW10500   0.805   3.928   4.187
 2626SOL     OW10501   3.349   1.950   5.121
 2626SOL    HW110502   3.389   2.004   5.053
 2626SOL    HW210503   3.262   1.988   5.135
 2626SOL     MW10504   3.343   1.961   5.114
 2627SOL     OW10505   4.954   2.693   4.615
 2627SOL    HW110506   4.883   2.694   4.678
 2627SOL    HW210507   5.025   2.743   4.656
 2627SOL     MW10508   4.954   2.699   4.628
 2628SOL     OW10509   0.845   1.291   2.812
 2628SOL    HW110510   0.789   1.295   2.889
 2628SOL    HW210511   0.884   1.204   2.815
 2628SOL     MW10512   0.843   1.281   2.822
 2629SOL     OW10513   4.553   0.307   3.313
 2629SOL    HW110514   4.540   0.401   3.301
 2629SOL    HW210515   4.648   0.294   3.304
 2629SOL     MW10516   4.564   0.317   3.310
 2630SOL     OW10517   4.603   4.144   3.100
 2630SOL    HW110518   4.619   4.079   3.168
 2630SOL    HW210519   4.511   4.167   3.111
 2630SOL     MW10520   4.594   4.139   3.110
 2631SOL     OW10521   2.330   4.625   1.741
 2631SOL    HW110522   2.287   4.549   1.702
 2631SOL    HW210523   2.284   4.640   1.823
 2631SOL     MW10524   2.319   4.617   1.746
 2632SOL     OW10525   0.721   1.417   1.639
 2632SOL    HW110526   0.688   1.501   1.608
 2632SOL    HW210527   0.803   1.403   1.591
 2632SOL     MW10528   0.728   1.426   1.629
 2633SOL     OW10529   4.800   4.529   1.242
 2633SOL    HW110530   4.865   4.584   1.286
 2633SOL    HW210531   4.782   4.574   1.160
 2633SOL     MW10532   4.806   4.542   1.237
 2634SOL     OW10533   4.741   4.965   1.912
 2634SOL    HW110534   4.712   5.037   1.968
 2634SOL    HW210535   4.689   4.974   1.832
 2634SOL     MW10536   4.730   4.975   1.909
 2635SOL     OW10537   3.993   1.595   1.616
 2635SOL    HW110538   3.927   1.547   1.564
 2635SOL    HW210539   3.947   1.618   1.697
 2635SOL     MW10540   3.978   1.592   1.620
 2636SOL     OW10541   4.314   0.647   4.923
 2636SOL    HW110542   4.285   0.711   4.857
 2636SOL    HW210543   4.350   0.701   4.994
 2636SOL     MW10544   4.315   0.662   4.924
 2637SOL     OW10545   2.389   5.369   0.670
 2637SOL    HW110546   2.358   5.410   0.590
 2637SOL    HW210547   2.318   5.381   0.733
 2637SOL     MW10548   2.376   5.376   0.668
 2638SOL     OW10549   1.471   1.800   3.497
 2638SOL    HW110550   1.448   1.773   3.408
 2638SOL    HW210551   1.391   1.787   3.548
 2638SOL     MW10552   1.458   1.795   3.492
 2639SOL     OW10553   3.455   1.797   1.242
 2639SOL    HW110554   3.418   1.810   1.154
 2639SOL    HW210555   3.531   1.740   1.227
 2639SOL     MW10556   3.460   1.791   1.229
 2640SOL     OW10557   3.451   5.134   0.803
 2640SOL    HW110558   3.531   5.081   0.808
 2640SOL    HW210559   3.407   5.120   0.886
 2640SOL     MW10560   3.456   5.126   0.814
 2641SOL     OW10561   1.606   2.400   2.538
 2641SOL    HW110562   1.536   2.374   2.598
 2641SOL    HW210563   1.627   2.321   2.489
 2641SOL     MW10564   1.599   2.387   2.539
 2642SOL     OW10565   2.953   2.712   1.440
 2642SOL    HW110566   2.943   2.789   1.497
 2642SOL    HW210567   2.892   2.728   1.368
 2642SOL     MW10568   2.944   2.724   1.438
 2643SOL     OW10569   4.028   0.987   1.797
 2643SOL    HW110570   3.994   0.930   1.729
 2643SOL    HW210571   3.953   1.004   1.855
 2643SOL     MW10572   4.014   0.982   1.796
 2644SOL     OW10573   0.795   3.716   3.250
 2644SOL    HW110574   0.746   3.718   3.168
 2644SOL    HW210575   0.787   3.626   3.281
 2644SOL     MW10576   0.788   3.705   3.243
 2645SOL     OW10577   5.499   3.677   1.957
 2645SOL    HW110578   5.505   3.635   2.042
 2645SOL    HW210579   5.423   3.735   1.964
 2645SOL     MW10580   5.490   3.679   1.969
 2646SOL     OW10581   4.535   3.359   3.686
 2646SOL    HW110582   4.621   3.347   3.725
 2646SOL    HW210583   4.528   3.290   3.620
 2646SOL     MW10584   4.545   3.349   3.683
 2647SOL     OW10585   2.754   0.579   4.094
 2647SOL    HW110586   2.811   0.505   4.074
 2647SOL    HW210587   2.811   0.656   4.091
 2647SOL     MW10588   2.768   0.579   4.091
 2648SOL     OW10589   0.612   4.891   0.841
 2648SOL    HW110590   0.579   4.906   0.930
 2648SOL    HW210591   0.707   4.895   0.850
 2648SOL     MW10592   0.620   4.894   0.853
 2649SOL     OW10593   0.864   1.967   4.383
 2649SOL    HW110594   0.926   1.909   4.338
 2649SOL    HW210595   0.908   2.052   4.384
 2649SOL     MW10596   0.878   1.970   4.378
 2650SOL     OW10597   3.213   0.213   1.867
 2650SOL    HW110598   3.165   0.289   1.835
 2650SOL    HW210599   3.283   0.199   1.803
 2650SOL     MW10600   3.216   0.221   1.855
 2651SOL     OW10601   3.315   1.208   1.694
 2651SOL    HW110602   3.322   1.282   1.633
 2651SOL    HW210603   3.370   1.140   1.655
 2651SOL     MW10604   3.323   1.209   1.681
 2652SOL     OW10605   4.810   2.221   4.182
 2652SOL    HW110606   4.825   2.259   4.096
 2652SOL    HW210607   4.812   2.295   4.242
 2652SOL     MW10608   4.812   2.235   4.179
 2653SOL     OW10609   5.435   4.239   2.371
 2653SOL    HW110610   5.398   4.315   2.416
 2653SOL    HW210611   5.444   4.173   2.440
 2653SOL     MW10612   5.431   4.240   2.386
 2654SOL     OW10613   0.226   4.369   3.079
 2654SOL    HW110614   0.303   4.323   3.113
 2654SOL    HW210615   0.220   4.449   3.131
 2654SOL     MW10616   0.235   4.373   3.090
 2655SOL     OW10617   5.092   0.546   3.607
 2655SOL    HW110618   5.010   0.594   3.612
 2655SOL    HW210619   5.067   0.455   3.625
 2655SOL     MW10620   5.078   0.540   3.610
 2656SOL     OW10621   1.885   1.565   0.147
 2656SOL    HW110622   1.919   1.496   0.204
 2656SOL    HW210623   1.929   1.644   0.176
 2656SOL     MW10624   1.895   1.566   0.158
 2657SOL     OW10625   1.951   1.567   3.003
 2657SOL    HW110626   1.907   1.494   3.047
 2657SOL    HW210627   1.880   1.615   2.960
 2657SOL     MW10628   1.936   1.564   3.003
 2658SOL     OW10629   1.902   5.220   2.598
 2658SOL    HW110630   1.874   5.217   2.690
 2658SOL    HW210631   1.836   5.274   2.555
 2658SOL     MW10632   1.890   5.226   2.604
 2659SOL     OW10633   2.017   3.822   3.520
 2659SOL    HW110634   2.063   3.763   3.579
 2659SOL    HW210635   1.937   3.845   3.568
 2659SOL     MW10636   2.012   3.818   3.534
 2660SOL     OW10637   4.625   4.774   1.535
 2660SOL    HW110638   4.640   4.818   1.452
 2660SOL    HW210639   4.605   4.845   1.596
 2660SOL     MW10640   4.624   4.789   1.532
 2661SOL     OW10641   1.751   4.268   2.319
 2661SOL    HW110642   1.772   4.175   2.327
 2661SOL    HW210643   1.800   4.297   2.242
 2661SOL     MW10644   1.760   4.260   2.310
 2662SOL     OW10645   5.104   4.119   0.831
 2662SOL    HW110646   5.057   4.181   0.775
 2662SOL    HW210647   5.035   4.068   0.873
 2662SOL     MW10648   5.089   4.120   0.829
 2663SOL     OW10649   3.412   1.677   5.183
 2663SOL    HW110650   3.494   1.652   5.139
 2663SOL    HW210651   3.391   1.763   5.146
 2663SOL     MW10652   3.420   1.685   5.173
 2664SOL     OW10653   1.618   2.586   2.095
 2664SOL    HW110654   1.660   2.566   2.178
 2664SOL    HW210655   1.624   2.681   2.086
 2664SOL     MW10656   1.624   2.596   2.104
 2665SOL     OW10657   1.725   5.089   4.587
 2665SOL    HW110658   1.670   5.149   4.638
 2665SOL    HW210659   1.663   5.045   4.528
 2665SOL     MW10660   1.710   5.091   4.586
 2666SOL     OW10661   4.769   3.552   1.294
 2666SOL    HW110662   4.814   3.488   1.350
 2666SOL    HW210663   4.771   3.513   1.207
 2666SOL     MW10664   4.775   3.539   1.290
 2667SOL     OW10665   2.283   3.652   2.812
 2667SOL    HW110666   2.266   3.746   2.815
 2667SOL    HW210667   2.213   3.617   2.757
 2667SOL     MW10668   2.272   3.659   2.805
 2668SOL     OW10669   1.201   3.459   2.851
 2668SOL    HW110670   1.136   3.392   2.872
 2668SOL    HW210671   1.191   3.525   2.920
 2668SOL     MW10672   1.191   3.459   2.863
 2669SOL     OW10673   5.082   2.349   3.837
 2669SOL    HW110674   5.083   2.366   3.743
 2669SOL    HW210675   5.131   2.423   3.875
 2669SOL     MW10676   5.089   2.361   3.830
 2670SOL     OW10677   1.242   4.691   2.396
 2670SOL    HW110678   1.282   4.695   2.309
 2670SOL    HW210679   1.152   4.663   2.380
 2670SOL     MW10680   1.236   4.688   2.382
 2671SOL     OW10681   2.409   4.802   0.671
 2671SOL    HW110682   2.350   4.774   0.601
 2671SOL    HW210683   2.357   4.863   0.724
 2671SOL     MW10684   2.395   4.806   0.669
 2672SOL     OW10685   1.194   3.731   3.632
 2672SOL    HW110686   1.248   3.721   3.553
 2672SOL    HW210687   1.239   3.797   3.684
 2672SOL     MW10688   1.207   3.738   3.628
 2673SOL     OW10689   0.951   2.795   4.454
 2673SOL    HW110690   0.915   2.873   4.411
 2673SOL    HW210691   0.922   2.722   4.399
 2673SOL     MW10692   0.942   2.796   4.441
 2674SOL     OW10693   2.596   0.196   0.706
 2674SOL    HW110694   2.622   0.128   0.769
 2674SOL    HW210695   2.653   0.181   0.631
 2674SOL     MW10696   2.607   0.185   0.704
 2675SOL     OW10697   3.710   1.847   0.868
 2675SOL    HW110698   3.763   1.821   0.943
 2675SOL    HW210699   3.722   1.776   0.805
 2675SOL     MW10700   3.718   1.835   0.870
 2676SOL     OW10701   1.641   3.388   3.281
 2676SOL    HW110702   1.672   3.424   3.364
 2676SOL    HW210703   1.720   3.374   3.229
 2676SOL     MW10704   1.655   3.391   3.285
 2677SOL     OW10705   4.067   2.097   2.967
 2677SOL    HW110706   4.099   2.016   3.005
 2677SOL    HW210707   4.144   2.139   2.929
 2677SOL     MW10708   4.081   2.092   2.967
 2678SOL     OW10709   3.463   3.228   2.676
 2678SOL    HW110710   3.393   3.163   2.671
 2678SOL    HW210711   3.449   3.271   2.761
 2678SOL     MW10712   3.452   3.225   2.687
 2679SOL     OW10713   2.377   1.585   1.165
 2679SOL    HW110714   2.313   1.517   1.187
 2679SOL    HW210715   2.435   1.589   1.241
 2679SOL     MW10716   2.377   1.576   1.177
 2680SOL     OW10717   3.307   3.310   0.964
 2680SOL    HW110718   3.390   3.355   0.978
 2680SOL    HW210719   3.244   3.359   1.016
 2680SOL     MW10720   3.310   3.322   0.972
 2681SOL     OW10721   3.444   1.855   3.759
 2681SOL    HW110722   3.483   1.830   3.843
 2681SOL    HW210723   3.354   1.879   3.781
 2681SOL     MW10724   3.437   1.855   3.773
 2682SOL     OW10725   2.215   2.773   3.890
 2682SOL    HW110726   2.242   2.682   3.884
 2682SOL    HW210727   2.285   2.821   3.844
 2682SOL     MW10728   2.228   2.768   3.883
 2683SOL     OW10729   0.069   0.787   2.662
 2683SOL    HW110730   0.113   0.867   2.692
 2683SOL    HW210731   0.025   0.754   2.740
 2683SOL     MW10732   0.069   0.793   2.676
 2684SOL     OW10733   2.552   2.539   2.261
 2684SOL    HW110734   2.492   2.597   2.307
 2684SOL    HW210735   2.638   2.581   2.271
 2684SOL     MW10736   2.555   2.552   2.268
 2685SOL     OW10737   2.185   3.093   3.553
 2685SOL    HW110738   2.203   3.156   3.622
 2685SOL    HW210739   2.151   3.016   3.599
 2685SOL     MW10740   2.183   3.092   3.568
 2686SOL     OW10741   2.275   1.451   1.848
 2686SOL    HW110742   2.349   1.413   1.896
 2686SOL    HW210743   2.225   1.375   1.818
 2686SOL     MW10744   2.278   1.436   1.850
 2687SOL     OW10745   4.433   5.271   1.962
 2687SOL    HW110746   4.368   5.326   2.006
 2687SOL    HW210747   4.443   5.310   1.875
 2687SOL     MW10748   4.426   5.283   1.956
 2688SOL     OW10749   4.731   1.860   1.917
 2688SOL    HW110750   4.789   1.933   1.896
 2688SOL    HW210751   4.731   1.856   2.013
 2688SOL     MW10752   4.738   1.869   1.927
 2689SOL     OW10753   4.277   4.225   2.561
 2689SOL    HW110754   4.220   4.151   2.544
 2689SOL    HW210755   4.266   4.244   2.654
 2689SOL     MW10756   4.269   4.218   2.570
 2690SOL     OW10757   4.184   2.935   4.492
 2690SOL    HW110758   4.131   2.917   4.570
 2690SOL    HW210759   4.274   2.914   4.518
 2690SOL     MW10760   4.189   2.930   4.505
 2691SOL     OW10761   4.547   3.307   0.927
 2691SOL    HW110762   4.619   3.362   0.959
 2691SOL    HW210763   4.532   3.337   0.838
 2691SOL     MW10764   4.554   3.318   0.920
 2692SOL     OW10765   5.281   1.770   1.651
 2692SOL    HW110766   5.363   1.754   1.697
 2692SOL    HW210767   5.253   1.683   1.622
 2692SOL     MW10768   5.288   1.756   1.653
 2693SOL     OW10769   2.983   1.497   3.618
 2693SOL    HW110770   3.013   1.433   3.683
 2693SOL    HW210771   3.061   1.516   3.566
 2693SOL     MW10772   2.997   1.491   3.620
 2694SOL     OW10773   4.176   5.169   3.369
 2694SOL    HW110774   4.258   5.135   3.406
 2694SOL    HW210775   4.133   5.213   3.442
 2694SOL     MW10776   4.181   5.170   3.383
 2695SOL     OW10777   3.246   0.424   5.147
 2695SOL    HW110778   3.192   0.502   5.158
 2695SOL    HW210779   3.309   0.446   5.079
 2695SOL     MW10780   3.247   0.437   5.140
 2696SOL     OW10781   2.583   3.343   3.001
 2696SOL    HW110782   2.518   3.351   3.071
 2696SOL    HW210783   2.582   3.251   2.977
 2696SOL     MW10784   2.574   3.333   3.007
 2697SOL     OW10785   0.096   4.400   5.070
 2697SOL    HW110786   0.111   4.353   5.152
 2697SOL    HW210787   0.038   4.342   5.020
 2697SOL     MW10788   0.090   4.386   5.074
 2698SOL     OW10789   4.263   0.945   0.991
 2698SOL    HW110790   4.201   0.873   0.985
 2698SOL    HW210791   4.317   0.937   0.913
 2698SOL     MW10792   4.262   0.935   0.981
 2699SOL     OW10793   3.297   3.524   4.236
 2699SOL    HW110794   3.319   3.506   4.327
 2699SOL    HW210795   3.309   3.619   4.227
 2699SOL     MW10796   3.302   3.534   4.246
 2700SOL     OW10797   1.873   4.977   3.586
 2700SOL    HW110798   1.909   4.947   3.502
 2700SOL    HW210799   1.802   4.916   3.604
 2700SOL     MW10800   1.869   4.965   3.577
 2701SOL     OW10801   2.802   2.715   5.229
 2701SOL    HW110802   2.773   2.686   5.316
 2701SOL    HW210803   2.812   2.810   5.238
 2701SOL     MW10804   2.800   2.724   5.242
 2702SOL     OW10805   4.354   5.196   5.069
 2702SOL    HW110806   4.308   5.267   5.024
 2702SOL    HW210807   4.339   5.213   5.162
 2702SOL     MW10808   4.346   5.207   5.075
 2703SOL     OW10809   3.423   5.085   1.507
 2703SOL    HW110810   3.417   5.136   1.427
 2703SOL    HW210811   3.363   5.012   1.494
 2703SOL     MW10812   3.414   5.082   1.495
 2704SOL     OW10813   1.016   2.496   1.439
 2704SOL    HW110814   1.007   2.571   1.499
 2704SOL    HW210815   0.926   2.474   1.414
 2704SOL     MW10816   1.003   2.503   1.443
 2705SOL     OW10817   2.997   0.298   2.682
 2705SOL    HW110818   2.955   0.214   2.700
 2705SOL    HW210819   3.074   0.299   2.738
 2705SOL     MW10820   3.001   0.287   2.691
 2706SOL     OW10821   4.551   3.226   5.166
 2706SOL    HW110822   4.540   3.244   5.073
 2706SOL    HW210823   4.644   3.238   5.182
 2706SOL     MW10824   4.561   3.230   5.156
 2707SOL     OW10825   5.420   0.173   4.262
 2707SOL    HW110826   5.447   0.259   4.229
 2707SOL    HW210827   5.466   0.110   4.206
 2707SOL     MW10828   5.429   0.176   4.251
 2708SOL     OW10829   3.606   3.376   0.267
 2708SOL    HW110830   3.650   3.401   0.348
 2708SOL    HW210831   3.605   3.456   0.214
 2708SOL     MW10832   3.611   3.390   0.271
 2709SOL     OW10833   2.909   1.382   2.007
 2709SOL    HW110834   2.980   1.390   1.943
 2709SOL    HW210835   2.853   1.313   1.971
 2709SOL     MW10836   2.911   1.374   1.994
 2710SOL     OW10837   0.068   1.153   0.650
 2710SOL    HW110838   0.118   1.165   0.731
 2710SOL    HW210839  -0.011   1.206   0.663
 2710SOL     MW10840   0.064   1.161   0.662
 2711SOL     OW10841   4.469   0.830   4.202
 2711SOL    HW110842   4.388   0.778   4.198
 2711SOL    HW210843   4.535   0.775   4.160
 2711SOL     MW10844   4.467   0.816   4.196
 2712SOL     OW10845   0.253   5.297   4.203
 2712SOL    HW110846   0.245   5.224   4.265
 2712SOL    HW210847   0.302   5.364   4.250
 2712SOL     MW10848   0.259   5.296   4.217
 2713SOL     OW10849   1.932   3.341   4.161
 2713SOL    HW110850   1.954   3.433   4.173
 2713SOL    HW210851   1.943   3.326   4.067
 2713SOL     MW10852   1.937   3.351   4.150
 2714SOL     OW10853   1.255   4.166   4.780
 2714SOL    HW110854   1.225   4.075   4.791
 2714SOL    HW210855   1.261   4.177   4.685
 2714SOL     MW10856   1.252   4.156   4.769
 2715SOL     OW10857   0.213   1.629   2.385
 2715SOL    HW110858   0.192   1.538   2.405
 2715SOL    HW210859   0.257   1.626   2.300
 2715SOL     MW10860   0.216   1.617   2.377
 2716SOL     OW10861   4.865   4.017   0.959
 2716SOL    HW110862   4.782   3.989   0.920
 2716SOL    HW210863   4.852   4.006   1.054
 2716SOL     MW10864   4.853   4.012   0.966
 2717SOL     OW10865   0.584   0.798   3.226
 2717SOL    HW110866   0.583   0.882   3.181
 2717SOL    HW210867   0.651   0.807   3.293
 2717SOL     MW10868   0.592   0.810   3.229
 2718SOL     OW10869   0.167   4.896   2.485
 2718SOL    HW110870   0.216   4.978   2.485
 2718SOL    HW210871   0.127   4.891   2.399
 2718SOL     MW10872   0.168   4.906   2.474
 2719SOL     OW10873   3.260   4.134   2.446
 2719SOL    HW110874   3.214   4.202   2.398
 2719SOL    HW210875   3.352   4.147   2.423
 2719SOL     MW10876   3.266   4.145   2.437
 2720SOL     OW10877   2.596   2.321   0.941
 2720SOL    HW110878   2.525   2.280   0.989
 2720SOL    HW210879   2.656   2.249   0.920
 2720SOL     MW10880   2.595   2.307   0.944
 2721SOL     OW10881   0.730   4.889   4.716
 2721SOL    HW110882   0.715   4.929   4.801
 2721SOL    HW210883   0.668   4.933   4.658
 2721SOL     MW10884   0.720   4.900   4.719
 2722SOL     OW10885   0.739   0.696   4.752
 2722SOL    HW110886   0.767   0.608   4.730
 2722SOL    HW210887   0.771   0.750   4.679
 2722SOL     MW10888   0.746   0.692   4.740
 2723SOL     OW10889   2.298   1.127   3.559
 2723SOL    HW110890   2.387   1.105   3.584
 2723SOL    HW210891   2.303   1.219   3.533
 2723SOL     MW10892   2.310   1.136   3.559
 2724SOL     OW10893   1.992   4.575   0.949
 2724SOL    HW110894   2.044   4.499   0.974
 2724SOL    HW210895   1.913   4.539   0.908
 2724SOL     MW10896   1.989   4.561   0.947
 2725SOL     OW10897   1.756   0.869   4.606
 2725SOL    HW110898   1.849   0.846   4.605
 2725SOL    HW210899   1.749   0.940   4.670
 2725SOL     MW10900   1.767   0.875   4.614
 2726SOL     OW10901   5.403   2.392   3.127
 2726SOL    HW110902   5.458   2.469   3.145
 2726SOL    HW210903   5.442   2.353   3.049
 2726SOL     MW10904   5.415   2.397   3.119
 2727SOL     OW10905   1.008   1.236   3.203
 2727SOL    HW110906   0.954   1.215   3.127
 2727SOL    HW210907   1.001   1.331   3.213
 2727SOL     MW10908   1.000   1.245   3.194
 2728SOL     OW10909   0.414   1.458   0.362
 2728SOL    HW110910   0.454   1.387   0.312
 2728SOL    HW210911   0.488   1.504   0.402
 2728SOL     MW10912   0.429   1.455   0.360
 2729SOL     OW10913   2.981   2.766   2.110
 2729SOL    HW110914   2.904   2.739   2.159
 2729SOL    HW210915   2.947   2.814   2.034
 2729SOL     MW10916   2.967   2.769   2.107
 2730SOL     OW10917   1.228   1.560   0.153
 2730SOL    HW110918   1.266   1.635   0.108
 2730SOL    HW210919   1.158   1.530   0.095
 2730SOL     MW10920   1.224   1.565   0.140
 2731SOL     OW10921   5.291   0.356   1.620
 2731SOL    HW110922   5.233   0.327   1.690
 2731SOL    HW210923   5.236   0.411   1.564
 2731SOL     MW10924   5.277   0.359   1.622
 2732SOL     OW10925   0.301   1.221   4.133
 2732SOL    HW110926   0.284   1.311   4.107
 2732SOL    HW210927   0.342   1.228   4.219
 2732SOL     MW10928   0.304   1.233   4.141
 2733SOL     OW10929   4.528   1.907   5.111
 2733SOL    HW110930   4.609   1.931   5.065
 2733SOL    HW210931   4.461   1.964   5.073
 2733SOL     MW10932   4.530   1.918   5.100
 2734SOL     OW10933   5.170   2.339   1.872
 2734SOL    HW110934   5.111   2.314   1.944
 2734SOL    HW210935   5.222   2.411   1.908
 2734SOL     MW10936   5.169   2.345   1.886
 2735SOL     OW10937   1.677   4.292   1.941
 2735SOL    HW110938   1.755   4.293   1.996
 2735SOL    HW210939   1.618   4.355   1.982
 2735SOL     MW10940   1.679   4.300   1.954
 2736SOL     OW10941   3.755   2.247   2.782
 2736SOL    HW110942   3.796   2.288   2.858
 2736SOL    HW210943   3.828   2.221   2.726
 2736SOL     MW10944   3.769   2.249   2.785
 2737SOL     OW10945   0.477   4.895   3.880
 2737SOL    HW110946   0.466   4.914   3.974
 2737SOL    HW210947   0.551   4.835   3.877
 2737SOL     MW10948   0.485   4.890   3.892
 2738SOL     OW10949   2.877   4.239   2.381
 2738SOL    HW110950   2.896   4.146   2.367
 2738SOL    HW210951   2.960   4.283   2.363
 2738SOL     MW10952   2.890   4.233   2.377
 2739SOL     OW10953   3.825   2.501   1.898
 2739SOL    HW110954   3.743   2.529   1.857
 2739SOL    HW210955   3.891   2.511   1.829
 2739SOL     MW10956   3.823   2.506   1.884
 2740SOL     OW10957   2.137   4.102   4.459
 2740SOL    HW110958   2.064   4.152   4.496
 2740SOL    HW210959   2.166   4.155   4.384
 2740SOL     MW10960   2.131   4.115   4.454
 2741SOL     OW10961   1.862   1.584   1.837
 2741SOL    HW110962   1.802   1.561   1.908
 2741SOL    HW210963   1.945   1.603   1.881
 2741SOL     MW10964   1.865   1.583   1.852
 2742SOL     OW10965   1.214   1.900   2.096
 2742SOL    HW110966   1.205   1.841   2.170
 2742SOL    HW210967   1.134   1.953   2.099
 2742SOL     MW10968   1.202   1.900   2.106
 2743SOL     OW10969   3.104   4.135   0.312
 2743SOL    HW110970   3.065   4.049   0.327
 2743SOL    HW210971   3.033   4.188   0.277
 2743SOL     MW10972   3.090   4.131   0.310
 2744SOL     OW10973   5.397   1.176   1.010
 2744SOL    HW110974   5.382   1.164   1.103
 2744SOL    HW210975   5.342   1.251   0.986
 2744SOL     MW10976   5.388   1.184   1.019
 2745SOL     OW10977   4.647   3.627   4.304
 2745SOL    HW110978   4.596   3.708   4.313
 2745SOL    HW210979   4.624   3.576   4.382
 2745SOL     MW10980   4.637   3.631   4.315
 2746SOL     OW10981   1.792   0.673   3.173
 2746SOL    HW110982   1.835   0.645   3.254
 2746SOL    HW210983   1.858   0.726   3.128
 2746SOL     MW10984   1.806   0.677   3.178
 2747SOL     OW10985   0.953   5.240   3.804
 2747SOL    HW110986   1.002   5.233   3.886
 2747SOL    HW210987   1.007   5.196   3.739
 2747SOL     MW10988   0.966   5.234   3.806
 2748SOL     OW10989   3.831   0.441   2.239
 2748SOL    HW110990   3.847   0.351   2.211
 2748SOL    HW210991   3.744   0.438   2.280
 2748SOL     MW10992   3.822   0.429   2.241
 2749SOL     OW10993   2.280   3.552   3.349
 2749SOL    HW110994   2.363   3.531   3.392
 2749SOL    HW210995   2.290   3.642   3.319
 2749SOL     MW10996   2.292   3.561   3.351
 2750SOL     OW10997   4.787   4.680   1.008
 2750SOL    HW110998   4.725   4.695   0.938
 2750SOL    HW210999   4.796   4.764   1.052
 2750SOL     MW11000   4.780   4.692   1.005
 2751SOL     OW11001   4.817   5.320   5.113
 2751SOL    HW111002   4.874   5.290   5.042
 2751SOL    HW211003   4.728   5.313   5.077
 2751SOL     MW11004   4.813   5.316   5.099
 2752SOL     OW11005   1.743   2.658   0.949
 2752SOL    HW111006   1.714   2.675   1.039
 2752SOL    HW211007   1.675   2.602   0.912
 2752SOL     MW11008   1.731   2.653   0.956
 2753SOL     OW11009   1.388   4.887   1.377
 2753SOL    HW111010   1.406   4.927   1.462
 2753SOL    HW211011   1.364   4.960   1.321
 2753SOL     MW11012   1.387   4.902   1.381
 2754SOL     OW11013   2.875   3.540   0.541
 2754SOL    HW111014   2.838   3.469   0.594
 2754SOL    HW211015   2.806   3.562   0.479
 2754SOL     MW11016   2.861   3.534   0.540
 2755SOL     OW11017   1.695   2.521   1.396
 2755SOL    HW111018   1.663   2.512   1.485
 2755SOL    HW211019   1.693   2.432   1.360
 2755SOL     MW11020   1.691   2.509   1.403
 2756SOL     OW11021   3.654   5.471   5.345
 2756SOL    HW111022   3.641   5.401   5.409
 2756SOL    HW211023   3.588   5.455   5.277
 2756SOL     MW11024   3.644   5.460   5.344
 2757SOL     OW11025   3.534   0.311   5.135
 2757SOL    HW111026   3.500   0.223   5.149
 2757SOL    HW211027   3.620   0.298   5.095
 2757SOL     MW11028   3.541   0.298   5.132
 2758SOL     OW11029   2.027   4.548   3.051
 2758SOL    HW111030   2.056   4.485   2.984
 2758SOL    HW211031   2.106   4.599   3.071
 2758SOL     MW11032   2.041   4.546   3.045
 2759SOL     OW11033   2.110   2.074   4.969
 2759SOL    HW111034   2.091   2.067   4.875
 2759SOL    HW211035   2.165   1.998   4.987
 2759SOL     MW11036   2.115   2.063   4.959
 2760SOL     OW11037   5.096   1.055   1.174
 2760SOL    HW111038   5.049   0.986   1.221
 2760SOL    HW211039   5.083   1.033   1.081
 2760SOL     MW11040   5.088   1.043   1.168
 2761SOL     OW11041   1.875   3.489   0.615
 2761SOL    HW111042   1.940   3.457   0.677
 2761SOL    HW211043   1.845   3.411   0.569
 2761SOL     MW11044   1.879   3.475   0.617
 2762SOL     OW11045   2.326   3.272   4.504
 2762SOL    HW111046   2.365   3.199   4.457
 2762SOL    HW211047   2.267   3.232   4.568
 2762SOL     MW11048   2.323   3.258   4.506
 2763SOL     OW11049   4.670   0.078   0.415
 2763SOL    HW111050   4.576   0.089   0.425
 2763SOL    HW211051   4.691   0.115   0.330
 2763SOL     MW11052   4.661   0.084   0.406
 2764SOL     OW11053   3.351   1.670   3.278
 2764SOL    HW111054   3.289   1.623   3.334
 2764SOL    HW211055   3.327   1.762   3.287
 2764SOL     MW11056   3.340   1.676   3.286
 2765SOL     OW11057   5.254   2.775   1.941
 2765SOL    HW111058   5.251   2.768   2.036
 2765SOL    HW211059   5.290   2.692   1.911
 2765SOL     MW11060   5.258   2.764   1.949
 2766SOL     OW11061   5.422   1.681   2.404
 2766SOL    HW111062   5.516   1.662   2.409
 2766SOL    HW211063   5.414   1.748   2.336
 2766SOL     MW11064   5.433   1.687   2.396
 2767SOL     OW11065   3.899   0.515   1.979
 2767SOL    HW111066   3.874   0.505   2.071
 2767SOL    HW211067   3.976   0.460   1.969
 2767SOL     MW11068   3.906   0.507   1.990
 2768SOL     OW11069   4.500   0.570   0.048
 2768SOL    HW111070   4.502   0.480   0.015
 2768SOL    HW211071   4.415   0.604   0.019
 2768SOL     MW11072   4.489   0.562   0.040
 2769SOL     OW11073   1.059   4.782   3.189
 2769SOL    HW111074   1.069   4.858   3.247
 2769SOL    HW211075   0.965   4.764   3.188
 2769SOL     MW11076   1.048   4.790   3.196
 2770SOL     OW11077   2.575   4.441   1.425
 2770SOL    HW111078   2.488   4.403   1.434
 2770SOL    HW211079   2.594   4.437   1.332
 2770SOL     MW11080   2.566   4.436   1.414
 2771SOL     OW11081   2.081   2.696   1.278
 2771SOL    HW111082   2.047   2.652   1.200
 2771SOL    HW211083   2.095   2.626   1.341
 2771SOL     MW11084   2.079   2.682   1.276
 2772SOL     OW11085   3.925   3.703   2.682
 2772SOL    HW111086   4.018   3.725   2.691
 2772SOL    HW211087   3.879   3.781   2.711
 2772SOL     MW11088   3.931   3.716   2.687
 2773SOL     OW11089   4.891   1.268   5.442
 2773SOL    HW111090   4.801   1.299   5.444
 2773SOL    HW211091   4.889   1.185   5.490
 2773SOL     MW11092   4.879   1.261   5.448
 2774SOL     OW11093   3.123   2.698   3.810
 2774SOL    HW111094   3.131   2.696   3.714
 2774SOL    HW211095   3.038   2.738   3.826
 2774SOL     MW11096   3.113   2.703   3.799
 2775SOL     OW11097   0.129   2.160   0.628
 2775SOL    HW111098   0.037   2.152   0.651
 2775SOL    HW211099   0.142   2.100   0.555
 2775SOL     MW11100   0.119   2.151   0.622
 2776SOL     OW11101   2.180   2.643   3.280
 2776SOL    HW111102   2.199   2.550   3.266
 2776SOL    HW211103   2.089   2.645   3.310
 2776SOL     MW11104   2.171   2.631   3.282
 2777SOL     OW11105   2.911   0.063   2.202
 2777SOL    HW111106   2.933  -0.018   2.155
 2777SOL    HW211107   2.815   0.066   2.201
 2777SOL     MW11108   2.902   0.053   2.196
 2778SOL     OW11109   4.090   0.208   4.003
 2778SOL    HW111110   4.105   0.165   3.919
 2778SOL    HW211111   4.097   0.137   4.068
 2778SOL     MW11112   4.093   0.193   4.001
 2779SOL     OW11113   2.732   4.626   5.115
 2779SOL    HW111114   2.678   4.673   5.051
 2779SOL    HW211115   2.726   4.680   5.194
 2779SOL     MW11116   2.724   4.639   5.117
 2780SOL     OW11117   0.883   4.481   2.172
 2780SOL    HW111118   0.806   4.431   2.196
 2780SOL    HW211119   0.849   4.565   2.140
 2780SOL     MW11120   0.869   4.486   2.171
 2781SOL     OW11121   2.515   0.457   4.468
 2781SOL    HW111122   2.513   0.526   4.535
 2781SOL    HW211123   2.555   0.382   4.513
 2781SOL     MW11124   2.520   0.456   4.483
 2782SOL     OW11125   5.344   1.328   0.696
 2782SOL    HW111126   5.313   1.360   0.781
 2782SOL    HW211127   5.379   1.405   0.652
 2782SOL     MW11128   5.344   1.342   0.701
 2783SOL     OW11129   0.319   0.091   0.060
 2783SOL    HW111130   0.329   0.136   0.144
 2783SOL    HW211131   0.346   0.001   0.078
 2783SOL     MW11132   0.324   0.086   0.073
 2784SOL     OW11133   2.297   4.471   4.158
 2784SOL    HW111134   2.392   4.465   4.146
 2784SOL    HW211135   2.286   4.490   4.251
 2784SOL     MW11136   2.308   4.473   4.169
 2785SOL     OW11137   2.252   0.998   1.645
 2785SOL    HW111138   2.195   0.952   1.707
 2785SOL    HW211139   2.314   0.932   1.615
 2785SOL     MW11140   2.252   0.984   1.649
 2786SOL     OW11141   0.721   3.368   0.734
 2786SOL    HW111142   0.755   3.295   0.683
 2786SOL    HW211143   0.677   3.328   0.809
 2786SOL     MW11144   0.719   3.354   0.737
 2787SOL     OW11145   3.083   0.837   2.182
 2787SOL    HW111146   3.162   0.783   2.172
 2787SOL    HW211147   3.010   0.776   2.171
 2787SOL     MW11148   3.084   0.823   2.179
 2788SOL     OW11149   1.933   5.147   1.984
 2788SOL    HW111150   1.855   5.168   1.933
 2788SOL    HW211151   1.964   5.064   1.948
 2788SOL     MW11152   1.927   5.139   1.973
 2789SOL     OW11153   4.053   3.891   2.302
 2789SOL    HW111154   3.982   3.827   2.298
 2789SOL    HW211155   4.108   3.871   2.226
 2789SOL     MW11156   4.051   3.880   2.291
 2790SOL     OW11157   2.543   1.368   5.310
 2790SOL    HW111158   2.615   1.392   5.253
 2790SOL    HW211159   2.563   1.278   5.337
 2790SOL     MW11160   2.555   1.359   5.306
 2791SOL     OW11161   2.723   1.724   0.251
 2791SOL    HW111162   2.722   1.630   0.267
 2791SOL    HW211163   2.631   1.747   0.236
 2791SOL     MW11164   2.711   1.715   0.251
 2792SOL     OW11165   1.719   0.426   0.829
 2792SOL    HW111166   1.805   0.391   0.807
 2792SOL    HW211167   1.724   0.519   0.809
 2792SOL     MW11168   1.730   0.433   0.824
 2793SOL     OW11169   3.214   0.296   2.852
 2793SOL    HW111170   3.278   0.365   2.868
 2793SOL    HW211171   3.203   0.254   2.938
 2793SOL     MW11172   3.221   0.299   2.865
 2794SOL     OW11173   2.494   0.677   4.096
 2794SOL    HW111174   2.586   0.651   4.097
 2794SOL    HW211175   2.495   0.771   4.079
 2794SOL     MW11176   2.506   0.685   4.094
 2795SOL     OW11177   4.120   1.021   4.546
 2795SOL    HW111178   4.156   1.029   4.458
 2795SOL    HW211179   4.169   0.948   4.585
 2795SOL     MW11180   4.131   1.013   4.540
 2796SOL     OW11181   4.371   2.107   1.163
 2796SOL    HW111182   4.338   2.028   1.204
 2796SOL    HW211183   4.322   2.178   1.204
 2796SOL     MW11184   4.360   2.106   1.173
 2797SOL     OW11185   2.319   0.107   4.468
 2797SOL    HW111186   2.349   0.103   4.559
 2797SOL    HW211187   2.309   0.201   4.450
 2797SOL     MW11188   2.322   0.119   4.477
 2798SOL     OW11189   1.181   5.440   1.692
 2798SOL    HW111190   1.122   5.515   1.687
 2798SOL    HW211191   1.205   5.422   1.601
 2798SOL     MW11192   1.177   5.447   1.680
 2799SOL     OW11193   3.574   4.797   2.803
 2799SOL    HW111194   3.587   4.869   2.865
 2799SOL    HW211195   3.555   4.840   2.720
 2799SOL     MW11196   3.573   4.812   2.801
 2800SOL     OW11197   2.352   2.735   3.501
 2800SOL    HW111198   2.335   2.652   3.545
 2800SOL    HW211199   2.296   2.734   3.423
 2800SOL     MW11200   2.343   2.725   3.496
 2801SOL     OW11201   3.643   1.895   3.325
 2801SOL    HW111202   3.665   1.857   3.239
 2801SOL    HW211203   3.578   1.962   3.306
 2801SOL     MW11204   3.638   1.899   3.311
 2802SOL     OW11205   4.273   0.555   4.582
 2802SOL    HW111206   4.341   0.556   4.514
 2802SOL    HW211207   4.272   0.644   4.616
 2802SOL     MW11208   4.282   0.567   4.578
 2803SOL     OW11209   4.645   1.389   5.413
 2803SOL    HW111210   4.619   1.330   5.343
 2803SOL    HW211211   4.597   1.357   5.490
 2803SOL     MW11212   4.635   1.377   5.414
 2804SOL     OW11213   1.712   1.404   1.325
 2804SOL    HW111214   1.723   1.311   1.306
 2804SOL    HW211215   1.732   1.412   1.419
 2804SOL     MW11216   1.716   1.393   1.335
 2805SOL     OW11217   4.710   1.202   4.231
 2805SOL    HW111218   4.786   1.164   4.276
 2805SOL    HW211219   4.710   1.294   4.259
 2805SOL     MW11220   4.720   1.209   4.241
 2806SOL     OW11221   5.174   3.824   0.529
 2806SOL    HW111222   5.175   3.747   0.586
 2806SOL    HW211223   5.192   3.789   0.442
 2806SOL     MW11224   5.176   3.810   0.525
 2807SOL     OW11225   4.254   3.481   5.183
 2807SOL    HW111226   4.175   3.438   5.217
 2807SOL    HW211227   4.323   3.457   5.244
 2807SOL     MW11228   4.253   3.472   5.195
 2808SOL     OW11229   1.794   3.195   2.772
 2808SOL    HW111230   1.729   3.139   2.814
 2808SOL    HW211231   1.762   3.284   2.786
 2808SOL     MW11232   1.782   3.199   2.779
 2809SOL     OW11233   1.780   5.188   1.080
 2809SOL    HW111234   1.738   5.140   1.008
 2809SOL    HW211235   1.864   5.144   1.093
 2809SOL     MW11236   1.785   5.176   1.072
 2810SOL     OW11237   3.910   5.460   4.606
 2810SOL    HW111238   3.860   5.379   4.596
 2810SOL    HW211239   3.914   5.475   4.700
 2810SOL     MW11240   3.904   5.452   4.617
 2811SOL     OW11241   0.458   0.568   2.878
 2811SOL    HW111242   0.364   0.583   2.869
 2811SOL    HW211243   0.489   0.557   2.788
 2811SOL     MW11244   0.450   0.568   2.865
 2812SOL     OW11245   4.332   3.639   2.169
 2812SOL    HW111246   4.305   3.579   2.240
 2812SOL    HW211247   4.427   3.626   2.162
 2812SOL     MW11248   4.341   3.629   2.177
 2813SOL     OW11249   3.182   5.401   1.390
 2813SOL    HW111250   3.188   5.493   1.413
 2813SOL    HW211251   3.090   5.388   1.366
 2813SOL     MW11252   3.171   5.411   1.390
 2814SOL     OW11253   1.108   5.108   4.240
 2814SOL    HW111254   1.063   5.026   4.262
 2814SOL    HW211255   1.095   5.164   4.316
 2814SOL     MW11256   1.100   5.105   4.252
 2815SOL     OW11257   4.477   3.637   1.624
 2815SOL    HW111258   4.388   3.603   1.615
 2815SOL    HW211259   4.467   3.732   1.613
 2815SOL     MW11260   4.464   3.645   1.621
 2816SOL     OW11261   3.359   3.798   2.955
 2816SOL    HW111262   3.318   3.845   3.028
 2816SOL    HW211263   3.447   3.834   2.949
 2816SOL     MW11264   3.365   3.808   2.964
 2817SOL     OW11265   3.772   2.829   2.770
 2817SOL    HW111266   3.740   2.918   2.757
 2817SOL    HW211267   3.736   2.779   2.697
 2817SOL     MW11268   3.763   2.834   2.759
 2818SOL     OW11269   0.695   0.548   3.914
 2818SOL    HW111270   0.628   0.596   3.864
 2818SOL    HW211271   0.645   0.496   3.976
 2818SOL     MW11272   0.680   0.548   3.916
 2819SOL     OW11273   4.954   5.372   1.060
 2819SOL    HW111274   4.971   5.370   0.966
 2819SOL    HW211275   4.872   5.421   1.068
 2819SOL     MW11276   4.946   5.378   1.049
 2820SOL     OW11277   5.323   3.040   1.091
 2820SOL    HW111278   5.399   3.030   1.033
 2820SOL    HW211279   5.268   3.104   1.047
 2820SOL     MW11280   5.326   3.047   1.078
 2821SOL     OW11281   3.873   0.610   2.824
 2821SOL    HW111282   3.847   0.663   2.749
 2821SOL    HW211283   3.834   0.653   2.899
 2821SOL     MW11284   3.865   0.622   2.824
 2822SOL     OW11285   0.402   4.985   1.534
 2822SOL    HW111286   0.462   5.025   1.597
 2822SOL    HW211287   0.382   5.054   1.472
 2822SOL     MW11288   0.407   4.999   1.534
 2823SOL     OW11289   5.127   2.022   3.563
 2823SOL    HW111290   5.169   1.947   3.606
 2823SOL    HW211291   5.036   2.019   3.593
 2823SOL     MW11292   5.121   2.012   3.572
 2824SOL     OW11293   2.120   4.887   4.562
 2824SOL    HW111294   2.166   4.868   4.479
 2824SOL    HW211295   2.066   4.964   4.543
 2824SOL     MW11296   2.119   4.894   4.549
 2825SOL     OW11297   3.444   0.907   2.555
 2825SOL    HW111298   3.489   0.949   2.481
 2825SOL    HW211299   3.453   0.970   2.627
 2825SOL     MW11300   3.451   0.921   2.555
 2826SOL     OW11301   0.556   5.089   1.739
 2826SOL    HW111302   0.485   5.151   1.755
 2826SOL    HW211303   0.558   5.034   1.817
 2826SOL     MW11304   0.547   5.090   1.751
 2827SOL     OW11305   0.845   3.166   1.690
 2827SOL    HW111306   0.882   3.123   1.613
 2827SOL    HW211307   0.919   3.175   1.750
 2827SOL     MW11308   0.859   3.162   1.688
 2828SOL     OW11309   0.711   0.445   1.820
 2828SOL    HW111310   0.669   0.359   1.817
 2828SOL    HW211311   0.650   0.503   1.773
 2828SOL     MW11312   0.697   0.442   1.814
 2829SOL     OW11313   4.865   1.373   2.107
 2829SOL    HW111314   4.904   1.290   2.133
 2829SOL    HW211315   4.932   1.439   2.126
 2829SOL     MW11316   4.878   1.371   2.113
 2830SOL     OW11317   0.861   1.244   0.537
 2830SOL    HW111318   0.917   1.213   0.465
 2830SOL    HW211319   0.796   1.174   0.549
 2830SOL     MW11320   0.860   1.231   0.529
 2831SOL     OW11321   0.129   1.787   0.569
 2831SOL    HW111322   0.091   1.700   0.559
 2831SOL    HW211323   0.160   1.790   0.660
 2831SOL     MW11324   0.128   1.776   0.580
 2832SOL     OW11325   1.774   1.735   0.412
 2832SOL    HW111326   1.701   1.758   0.354
 2832SOL    HW211327   1.749   1.772   0.497
 2832SOL     MW11328   1.761   1.743   0.415
 2833SOL     OW11329   4.829   4.045   3.449
 2833SOL    HW111330   4.801   4.074   3.536
 2833SOL    HW211331   4.855   4.125   3.404
 2833SOL     MW11332   4.829   4.059   3.454
 2834SOL     OW11333   3.783   2.065   4.953
 2834SOL    HW111334   3.724   2.000   4.914
 2834SOL    HW211335   3.871   2.036   4.929
 2834SOL     MW11336   3.786   2.053   4.945
 2835SOL     OW11337   3.610   0.062   0.273
 2835SOL    HW111338   3.621   0.125   0.345
 2835SOL    HW211339   3.697   0.057   0.233
 2835SOL     MW11340   3.623   0.069   0.277
 2836SOL     OW11341   1.283   0.789   2.986
 2836SOL    HW111342   1.246   0.721   3.042
 2836SOL    HW211343   1.351   0.830   3.040
 2836SOL     MW11344   1.287   0.786   3.000
 2837SOL     OW11345   5.452   0.272   2.127
 2837SOL    HW111346   5.504   0.272   2.208
 2837SOL    HW211347   5.413   0.185   2.124
 2837SOL     MW11348   5.454   0.261   2.137
 2838SOL     OW11349   4.033   2.127   0.160
 2838SOL    HW111350   3.959   2.187   0.163
 2838SOL    HW211351   4.055   2.112   0.252
 2838SOL     MW11352   4.026   2.133   0.172
 2839SOL     OW11353   2.942   2.333   4.685
 2839SOL    HW111354   2.953   2.274   4.610
 2839SOL    HW211355   3.029   2.367   4.703
 2839SOL     MW11356   2.954   2.330   4.678
 2840SOL     OW11357   2.550   4.912   3.148
 2840SOL    HW111358   2.624   4.959   3.185
 2840SOL    HW211359   2.535   4.839   3.208
 2840SOL     MW11360   2.557   4.908   3.160
 2841SOL     OW11361   3.571   0.424   2.020
 2841SOL    HW111362   3.567   0.499   2.080
 2841SOL    HW211363   3.633   0.451   1.953
 2841SOL     MW11364   3.578   0.437   2.019
 2842SOL     OW11365   5.402   2.735   4.059
 2842SOL    HW111366   5.444   2.821   4.066
 2842SOL    HW211367   5.463   2.682   4.008
 2842SOL     MW11368   5.415   2.739   4.054
 2843SOL     OW11369   0.782   3.364   3.564
 2843SOL    HW111370   0.866   3.375   3.609
 2843SOL    HW211371   0.768   3.269   3.563
 2843SOL     MW11372   0.791   3.353   3.570
 2844SOL     OW11373   2.788   2.944   1.031
 2844SOL    HW111374   2.701   2.975   1.003
 2844SOL    HW211375   2.848   2.980   0.966
 2844SOL     MW11376   2.784   2.953   1.019
 2845SOL     OW11377   5.095   3.039   0.628
 2845SOL    HW111378   5.063   2.985   0.555
 2845SOL    HW211379   5.098   3.128   0.592
 2845SOL     MW11380   5.091   3.044   0.614
 2846SOL     OW11381   4.673   1.096   2.116
 2846SOL    HW111382   4.598   1.123   2.169
 2846SOL    HW211383   4.746   1.149   2.149
 2846SOL     MW11384   4.672   1.107   2.127
 2847SOL     OW11385   1.982   5.115   4.516
 2847SOL    HW111386   1.890   5.101   4.541
 2847SOL    HW211387   2.012   5.186   4.573
 2847SOL     MW11388   1.974   5.123   4.527
 2848SOL     OW11389   2.025   0.538   0.133
 2848SOL    HW111390   2.060   0.459   0.174
 2848SOL    HW211391   2.017   0.601   0.205
 2848SOL     MW11392   2.029   0.536   0.147
 2849SOL     OW11393   1.394   2.712   3.776
 2849SOL    HW111394   1.487   2.732   3.767
 2849SOL    HW211395   1.382   2.692   3.869
 2849SOL     MW11396   1.404   2.712   3.787
 2850SOL     OW11397   2.731   4.575   0.616
 2850SOL    HW111398   2.704   4.659   0.579
 2850SOL    HW211399   2.776   4.597   0.698
 2850SOL     MW11400   2.734   4.588   0.622
 2851SOL     OW11401   5.471   0.579   1.414
 2851SOL    HW111402   5.460   0.655   1.357
 2851SOL    HW211403   5.492   0.616   1.499
 2851SOL     MW11404   5.473   0.594   1.417
 2852SOL     OW11405   0.442   3.336   2.000
 2852SOL    HW111406   0.497   3.286   2.060
 2852SOL    HW211407   0.465   3.304   1.913
 2852SOL     MW11408   0.452   3.326   1.997
 2853SOL     OW11409   4.948   1.582   0.255
 2853SOL    HW111410   4.937   1.501   0.305
 2853SOL    HW211411   4.978   1.553   0.169
 2853SOL     MW11412   4.950   1.568   0.251
 2854SOL     OW11413   3.807   0.732   3.063
 2854SOL    HW111414   3.893   0.755   3.099
 2854SOL    HW211415   3.759   0.815   3.061
 2854SOL     MW11416   3.812   0.746   3.068
 2855SOL     OW11417   0.915   0.329   4.137
 2855SOL    HW111418   0.894   0.330   4.043
 2855SOL    HW211419   0.929   0.421   4.159
 2855SOL     MW11420   0.914   0.341   4.128
 2856SOL     OW11421   1.980   0.674   1.976
 2856SOL    HW111422   2.042   0.606   1.950
 2856SOL    HW211423   2.006   0.698   2.065
 2856SOL     MW11424   1.991   0.669   1.984
 2857SOL     OW11425   2.088   5.368   0.275
 2857SOL    HW111426   2.019   5.306   0.252
 2857SOL    HW211427   2.042   5.451   0.290
 2857SOL     MW11428   2.073   5.371   0.274
 2858SOL     OW11429   3.109   0.813   4.488
 2858SOL    HW111430   3.046   0.749   4.522
 2858SOL    HW211431   3.171   0.827   4.559
 2858SOL     MW11432   3.109   0.806   4.501
 2859SOL     OW11433   2.746   1.729   5.080
 2859SOL    HW111434   2.766   1.703   5.170
 2859SOL    HW211435   2.739   1.824   5.083
 2859SOL     MW11436   2.748   1.738   5.092
 2860SOL     OW11437   0.974   2.685   1.647
 2860SOL    HW111438   1.030   2.622   1.692
 2860SOL    HW211439   1.002   2.770   1.680
 2860SOL     MW11440   0.985   2.688   1.657
 2861SOL     OW11441   1.616   1.446   0.771
 2861SOL    HW111442   1.609   1.352   0.755
 2861SOL    HW211443   1.698   1.456   0.820
 2861SOL     MW11444   1.626   1.435   0.775
 2862SOL     OW11445   1.021   0.297   1.220
 2862SOL    HW111446   1.076   0.350   1.162
 2862SOL    HW211447   0.932   0.327   1.201
 2862SOL     MW11448   1.017   0.308   1.210
 2863SOL     OW11449   0.505   2.901   2.395
 2863SOL    HW111450   0.419   2.919   2.357
 2863SOL    HW211451   0.547   2.842   2.333
 2863SOL     MW11452   0.499   2.896   2.382
 2864SOL     OW11453   4.106   5.020   3.146
 2864SOL    HW111454   4.136   5.078   3.216
 2864SOL    HW211455   4.099   5.076   3.069
 2864SOL     MW11456   4.109   5.035   3.145
 2865SOL     OW11457   1.845   0.139   2.516
 2865SOL    HW111458   1.903   0.212   2.499
 2865SOL    HW211459   1.852   0.124   2.610
 2865SOL     MW11460   1.853   0.146   2.526
 2866SOL     OW11461   3.866   2.380   2.451
 2866SOL    HW111462   3.898   2.429   2.526
 2866SOL    HW211463   3.811   2.442   2.403
 2866SOL     MW11464   3.863   2.394   2.454
 2867SOL     OW11465   2.780   0.324   5.199
 2867SOL    HW111466   2.689   0.310   5.175
 2867SOL    HW211467   2.830   0.292   5.124
 2867SOL     MW11468   2.775   0.318   5.187
 2868SOL     OW11469   0.674   1.994   1.912
 2868SOL    HW111470   0.662   2.024   2.002
 2868SOL    HW211471   0.590   1.956   1.888
 2868SOL     MW11472   0.662   1.993   1.921
 2869SOL     OW11473   4.052   1.821   2.575
 2869SOL    HW111474   3.982   1.880   2.602
 2869SOL    HW211475   4.063   1.838   2.481
 2869SOL     MW11476   4.045   1.831   2.566
 2870SOL     OW11477   2.110   4.263   3.468
 2870SOL    HW111478   2.160   4.341   3.492
 2870SOL    HW211479   2.074   4.283   3.382
 2870SOL     MW11480   2.112   4.276   3.460
 2871SOL     OW11481   4.821   2.197   5.304
 2871SOL    HW111482   4.883   2.157   5.243
 2871SOL    HW211483   4.735   2.180   5.265
 2871SOL     MW11484   4.818   2.190   5.291
 2872SOL     OW11485   4.184   2.684   1.250
 2872SOL    HW111486   4.145   2.771   1.235
 2872SOL    HW211487   4.244   2.672   1.176
 2872SOL     MW11488   4.186   2.694   1.238
 2873SOL     OW11489   5.423   2.387   2.296
 2873SOL    HW111490   5.390   2.462   2.347
 2873SOL    HW211491   5.513   2.376   2.327
 2873SOL     MW11492   5.430   2.395   2.307
 2874SOL     OW11493   1.571   4.411   3.406
 2874SOL    HW111494   1.595   4.318   3.406
 2874SOL    HW211495   1.555   4.431   3.313
 2874SOL     MW11496   1.572   4.402   3.394
 2875SOL     OW11497   1.175   0.830   2.723
 2875SOL    HW111498   1.202   0.819   2.814
 2875SOL    HW211499   1.207   0.752   2.679
 2875SOL     MW11500   1.183   0.819   2.729
 2876SOL     OW11501   4.298   3.043   5.160
 2876SOL    HW111502   4.351   2.978   5.112
 2876SOL    HW211503   4.358   3.117   5.173
 2876SOL     MW11504   4.313   3.044   5.156
 2877SOL     OW11505   4.563   1.572   3.998
 2877SOL    HW111506   4.535   1.651   4.046
 2877SOL    HW211507   4.532   1.499   4.052
 2877SOL     MW11508   4.555   1.573   4.011
 2878SOL     OW11509   2.271   1.592   3.186
 2878SOL    HW111510   2.358   1.557   3.207
 2878SOL    HW211511   2.273   1.604   3.091
 2878SOL     MW11512   2.283   1.589   3.176
 2879SOL     OW11513   2.373   0.119   2.171
 2879SOL    HW111514   2.459   0.116   2.214
 2879SOL    HW211515   2.368   0.037   2.121
 2879SOL     MW11516   2.384   0.108   2.170
 2880SOL     OW11517   0.776   2.232   0.499
 2880SOL    HW111518   0.720   2.168   0.457
 2880SOL    HW211519   0.790   2.198   0.588
 2880SOL     MW11520   0.771   2.220   0.505
 2881SOL     OW11521   0.581   2.252   0.927
 2881SOL    HW111522   0.501   2.209   0.897
 2881SOL    HW211523   0.602   2.207   1.009
 2881SOL     MW11524   0.573   2.240   0.934
 2882SOL     OW11525   0.288   0.390   1.563
 2882SOL    HW111526   0.240   0.315   1.598
 2882SOL    HW211527   0.352   0.351   1.503
 2882SOL     MW11528   0.290   0.376   1.560
 2883SOL     OW11529   4.527   3.872   4.341
 2883SOL    HW111530   4.502   3.907   4.256
 2883SOL    HW211531   4.612   3.913   4.360
 2883SOL     MW11532   4.535   3.882   4.333
 2884SOL     OW11533   5.166   4.814   3.284
 2884SOL    HW111534   5.094   4.786   3.340
 2884SOL    HW211535   5.224   4.738   3.280
 2884SOL     MW11536   5.165   4.801   3.291
 2885SOL     OW11537   3.237   2.881   1.614
 2885SOL    HW111538   3.275   2.861   1.528
 2885SOL    HW211539   3.311   2.885   1.674
 2885SOL     MW11540   3.251   2.879   1.611
 2886SOL     OW11541   1.792   0.034   0.550
 2886SOL    HW111542   1.841  -0.004   0.623
 2886SOL    HW211543   1.749  -0.041   0.509
 2886SOL     MW11544   1.793   0.020   0.554
 2887SOL     OW11545   5.347   2.137   1.888
 2887SOL    HW111546   5.280   2.204   1.879
 2887SOL    HW211547   5.377   2.144   1.979
 2887SOL     MW11548   5.343   2.146   1.899
 2888SOL     OW11549   1.981   0.373   0.762
 2888SOL    HW111550   1.962   0.381   0.668
 2888SOL    HW211551   2.022   0.457   0.785
 2888SOL     MW11552   1.983   0.385   0.753
 2889SOL     OW11553   0.671   4.979   4.968
 2889SOL    HW111554   0.672   4.897   5.019
 2889SOL    HW211555   0.695   5.047   5.031
 2889SOL     MW11556   0.674   4.977   4.983
 2890SOL     OW11557   4.027   4.945   1.952
 2890SOL    HW111558   4.089   4.941   2.025
 2890SOL    HW211559   3.960   5.007   1.981
 2890SOL     MW11560   4.026   4.952   1.965
 2891SOL     OW11561   1.783   5.433   4.576
 2891SOL    HW111562   1.715   5.402   4.515
 2891SOL    HW211563   1.834   5.496   4.525
 2891SOL     MW11564   1.781   5.437   4.562
 2892SOL     OW11565   1.102   0.013   0.610
 2892SOL    HW111566   1.025   0.066   0.590
 2892SOL    HW211567   1.162   0.075   0.652
 2892SOL     MW11568   1.100   0.028   0.613
 2893SOL     OW11569   4.667   4.156   2.343
 2893SOL    HW111570   4.630   4.183   2.427
 2893SOL    HW211571   4.619   4.209   2.279
 2893SOL     MW11572   4.656   4.166   2.346
 2894SOL     OW11573   1.870   3.928   4.276
 2894SOL    HW111574   1.922   3.991   4.226
 2894SOL    HW211575   1.933   3.883   4.332
 2894SOL     MW11576   1.885   3.930   4.277
 2895SOL     OW11577   5.393   4.240   4.939
 2895SOL    HW111578   5.428   4.170   4.884
 2895SOL    HW211579   5.335   4.195   5.001
 2895SOL     MW11580   5.390   4.225   4.940
 2896SOL     OW11581   0.551   3.217   0.891
 2896SOL    HW111582   0.546   3.167   0.973
 2896SOL    HW211583   0.466   3.258   0.882
 2896SOL     MW11584   0.540   3.216   0.900
 2897SOL     OW11585   0.229   4.372   0.336
 2897SOL    HW111586   0.137   4.401   0.336
 2897SOL    HW211587   0.229   4.294   0.391
 2897SOL     MW11588   0.217   4.366   0.343
 2898SOL     OW11589   3.705   5.052   5.066
 2898SOL    HW111590   3.734   5.088   4.983
 2898SOL    HW211591   3.724   5.120   5.130
 2898SOL     MW11592   3.711   5.065   5.064
 2899SOL     OW11593   0.119   5.475   3.373
 2899SOL    HW111594   0.191   5.419   3.346
 2899SOL    HW211595   0.097   5.526   3.295
 2899SOL     MW11596   0.125   5.475   3.360
 2900SOL     OW11597   4.672   5.183   3.424
 2900SOL    HW111598   4.712   5.170   3.338
 2900SOL    HW211599   4.687   5.276   3.443
 2900SOL     MW11600   4.679   5.194   3.415
 2901SOL     OW11601   2.848   2.112   3.446
 2901SOL    HW111602   2.913   2.165   3.493
 2901SOL    HW211603   2.897   2.038   3.412
 2901SOL     MW11604   2.863   2.110   3.448
 2902SOL     OW11605   1.951   3.192   4.378
 2902SOL    HW111606   1.859   3.171   4.396
 2902SOL    HW211607   1.948   3.249   4.301
 2902SOL     MW11608   1.939   3.196   4.370
 2903SOL     OW11609   0.487   1.026   4.477
 2903SOL    HW111610   0.469   1.106   4.427
 2903SOL    HW211611   0.438   1.039   4.559
 2903SOL     MW11612   0.478   1.038   4.481
 2904SOL     OW11613   2.449   4.664   0.907
 2904SOL    HW111614   2.435   4.689   0.815
 2904SOL    HW211615   2.420   4.573   0.912
 2904SOL     MW11616   2.443   4.656   0.896
 2905SOL     OW11617   2.874   2.772   3.909
 2905SOL    HW111618   2.852   2.682   3.935
 2905SOL    HW211619   2.794   2.805   3.867
 2905SOL     MW11620   2.861   2.765   3.907
 2906SOL     OW11621   4.330   0.295   0.234
 2906SOL    HW111622   4.331   0.232   0.307
 2906SOL    HW211623   4.421   0.304   0.208
 2906SOL     MW11624   4.342   0.288   0.240
 2907SOL     OW11625   0.091   2.947   4.650
 2907SOL    HW111626   0.055   2.934   4.562
 2907SOL    HW211627   0.120   3.038   4.650
 2907SOL     MW11628   0.090   2.957   4.638
 2908SOL     OW11629   3.351   4.169   0.430
 2908SOL    HW111630   3.331   4.123   0.512
 2908SOL    HW211631   3.266   4.175   0.386
 2908SOL     MW11632   3.337   4.164   0.435
 2909SOL     OW11633   1.037   2.348   0.708
 2909SOL    HW111634   1.047   2.440   0.733
 2909SOL    HW211635   0.952   2.323   0.743
 2909SOL     MW11636   1.028   2.357   0.716
 2910SOL     OW11637   1.981   3.380   4.580
 2910SOL    HW111638   1.965   3.317   4.509
 2910SOL    HW211639   1.911   3.364   4.643
 2910SOL     MW11640   1.970   3.370   4.579
 2911SOL     OW11641   3.216   3.538   3.356
 2911SOL    HW111642   3.169   3.489   3.288
 2911SOL    HW211643   3.284   3.477   3.386
 2911SOL     MW11644   3.219   3.524   3.351
 2912SOL     OW11645   0.529   2.208   2.726
 2912SOL    HW111646   0.551   2.293   2.765
 2912SOL    HW211647   0.452   2.225   2.673
 2912SOL     MW11648   0.522   2.221   2.724
 2913SOL     OW11649   0.161   3.599   0.164
 2913SOL    HW111650   0.125   3.513   0.144
 2913SOL    HW211651   0.144   3.611   0.258
 2913SOL     MW11652   0.154   3.590   0.174
 2914SOL     OW11653   2.708   4.235   3.524
 2914SOL    HW111654   2.711   4.142   3.548
 2914SOL    HW211655   2.776   4.246   3.458
 2914SOL     MW11656   2.717   4.225   3.519
 2915SOL     OW11657   0.332   2.023   1.594
 2915SOL    HW111658   0.265   1.957   1.576
 2915SOL    HW211659   0.386   2.025   1.515
 2915SOL     MW11660   0.330   2.015   1.582
 2916SOL     OW11661   1.608   4.683   4.730
 2916SOL    HW111662   1.526   4.666   4.683
 2916SOL    HW211663   1.590   4.762   4.781
 2916SOL     MW11664   1.595   4.691   4.730
 2917SOL     OW11665   2.050   2.847   2.221
 2917SOL    HW111666   2.101   2.825   2.143
 2917SOL    HW211667   2.110   2.899   2.275
 2917SOL     MW11668   2.064   2.851   2.218
 2918SOL     OW11669   1.242   1.443   0.771
 2918SOL    HW111670   1.164   1.486   0.737
 2918SOL    HW211671   1.315   1.485   0.725
 2918SOL     MW11672   1.241   1.454   0.760
 2919SOL     OW11673   4.089   1.530   1.966
 2919SOL    HW111674   4.050   1.444   1.950
 2919SOL    HW211675   4.029   1.592   1.926
 2919SOL     MW11676   4.077   1.527   1.959
 2920SOL     OW11677   4.295   1.715   4.541
 2920SOL    HW111678   4.287   1.642   4.602
 2920SOL    HW211679   4.367   1.691   4.482
 2920SOL     MW11680   4.303   1.703   4.541
 2921SOL     OW11681   2.934   1.731   1.004
 2921SOL    HW111682   2.966   1.754   1.091
 2921SOL    HW211683   2.843   1.760   1.004
 2921SOL     MW11684   2.926   1.738   1.015
 2922SOL     OW11685   1.814   4.039   3.038
 2922SOL    HW111686   1.865   3.987   3.101
 2922SOL    HW211687   1.878   4.064   2.971
 2922SOL     MW11688   1.829   4.036   3.037
 2923SOL     OW11689   5.195   1.354   0.236
 2923SOL    HW111690   5.197   1.413   0.312
 2923SOL    HW211691   5.141   1.280   0.265
 2923SOL     MW11692   5.188   1.352   0.250
 2924SOL     OW11693   5.100   2.581   5.292
 2924SOL    HW111694   5.107   2.505   5.350
 2924SOL    HW211695   5.190   2.612   5.281
 2924SOL     MW11696   5.112   2.575   5.298
 2925SOL     OW11697   0.629   4.461   3.706
 2925SOL    HW111698   0.560   4.472   3.641
 2925SOL    HW211699   0.612   4.375   3.745
 2925SOL     MW11700   0.618   4.451   3.703
 2926SOL     OW11701   4.197   3.962   0.884
 2926SOL    HW111702   4.208   3.923   0.971
 2926SOL    HW211703   4.278   4.011   0.869
 2926SOL     MW11704   4.209   3.963   0.893
 2927SOL     OW11705   1.377   2.488   3.628
 2927SOL    HW111706   1.376   2.573   3.671
 2927SOL    HW211707   1.286   2.471   3.605
 2927SOL     MW11708   1.366   2.496   3.631
 2928SOL     OW11709   5.197   2.901   0.198
 2928SOL    HW111710   5.152   2.837   0.142
 2928SOL    HW211711   5.257   2.848   0.250
 2928SOL     MW11712   5.199   2.886   0.197
 2929SOL     OW11713   1.125   2.964   3.218
 2929SOL    HW111714   1.102   2.966   3.125
 2929SOL    HW211715   1.220   2.968   3.219
 2929SOL     MW11716   1.134   2.965   3.206
 2930SOL     OW11717   4.160   4.248   5.051
 2930SOL    HW111718   4.194   4.246   5.140
 2930SOL    HW211719   4.076   4.203   5.055
 2930SOL     MW11720   4.154   4.242   5.063
 2931SOL     OW11721   0.292   2.315   1.924
 2931SOL    HW111722   0.360   2.331   1.859
 2931SOL    HW211723   0.315   2.231   1.963
 2931SOL     MW11724   0.303   2.306   1.921
 2932SOL     OW11725   5.228   1.384   0.942
 2932SOL    HW111726   5.198   1.458   0.995
 2932SOL    HW211727   5.147   1.349   0.903
 2932SOL     MW11728   5.214   1.389   0.944
 2933SOL     OW11729   3.861   3.703   2.413
 2933SOL    HW111730   3.915   3.708   2.491
 2933SOL    HW211731   3.781   3.657   2.441
 2933SOL     MW11732   3.858   3.697   2.426
 2934SOL     OW11733   0.062   2.620   3.200
 2934SOL    HW111734   0.029   2.686   3.139
 2934SOL    HW211735   0.005   2.628   3.277
 2934SOL     MW11736   0.050   2.630   3.202
 2935SOL     OW11737   0.727   2.237   4.201
 2935SOL    HW111738   0.676   2.166   4.239
 2935SOL    HW211739   0.689   2.316   4.238
 2935SOL     MW11740   0.716   2.238   4.211
 2936SOL     OW11741   2.333   5.310   1.083
 2936SOL    HW111742   2.399   5.296   1.015
 2936SOL    HW211743   2.375   5.371   1.144
 2936SOL     MW11744   2.347   5.316   1.082
 2937SOL     OW11745   4.787   0.956   3.354
 2937SOL    HW111746   4.860   0.959   3.416
 2937SOL    HW211747   4.713   0.995   3.401
 2937SOL     MW11748   4.787   0.962   3.368
 2938SOL     OW11749   1.833   1.099   2.101
 2938SOL    HW111750   1.793   1.018   2.070
 2938SOL    HW211751   1.919   1.102   2.058
 2938SOL     MW11752   1.839   1.089   2.091
 2939SOL     OW11753   0.452   0.344   1.334
 2939SOL    HW111754   0.510   0.268   1.333
 2939SOL    HW211755   0.378   0.317   1.279
 2939SOL     MW11756   0.450   0.331   1.327
 2940SOL     OW11757   2.836   3.664   2.577
 2940SOL    HW111758   2.847   3.672   2.482
 2940SOL    HW211759   2.881   3.741   2.612
 2940SOL     MW11760   2.844   3.675   2.569
 2941SOL     OW11761   3.521   4.180   2.378
 2941SOL    HW111762   3.562   4.138   2.303
 2941SOL    HW211763   3.593   4.224   2.424
 2941SOL     MW11764   3.535   4.180   2.374
 2942SOL     OW11765   3.096   3.796   5.461
 2942SOL    HW111766   3.110   3.723   5.401
 2942SOL    HW211767   3.111   3.758   5.548
 2942SOL     MW11768   3.100   3.781   5.465
 2943SOL     OW11769   2.757   0.330   3.027
 2943SOL    HW111770   2.734   0.408   2.977
 2943SOL    HW211771   2.749   0.358   3.119
 2943SOL     MW11772   2.753   0.344   3.033
 2944SOL     OW11773   4.295   4.949   3.714
 2944SOL    HW111774   4.268   4.887   3.781
 2944SOL    HW211775   4.245   4.924   3.636
 2944SOL     MW11776   4.285   4.938   3.712
 2945SOL     OW11777   4.914   3.305   0.893
 2945SOL    HW111778   4.881   3.279   0.807
 2945SOL    HW211779   4.887   3.233   0.951
 2945SOL     MW11780   4.906   3.292   0.889
 2946SOL     OW11781   1.900   2.782   4.050
 2946SOL    HW111782   1.927   2.869   4.020
 2946SOL    HW211783   1.968   2.756   4.112
 2946SOL     MW11784   1.912   2.790   4.054
 2947SOL     OW11785   4.932   1.685   3.839
 2947SOL    HW111786   4.968   1.702   3.752
 2947SOL    HW211787   4.889   1.600   3.831
 2947SOL     MW11788   4.931   1.676   3.827
 2948SOL     OW11789   0.356   3.615   2.683
 2948SOL    HW111790   0.415   3.690   2.690
 2948SOL    HW211791   0.393   3.550   2.743
 2948SOL     MW11792   0.368   3.616   2.691
 2949SOL     OW11793   1.960   1.722   4.377
 2949SOL    HW111794   1.999   1.797   4.334
 2949SOL    HW211795   1.991   1.646   4.326
 2949SOL     MW11796   1.969   1.722   4.365
 2950SOL     OW11797   3.169   1.333   3.161
 2950SOL    HW111798   3.115   1.413   3.159
 2950SOL    HW211799   3.139   1.282   3.086
 2950SOL     MW11800   3.158   1.337   3.152
 2951SOL     OW11801   5.247   5.083   0.632
 2951SOL    HW111802   5.281   4.995   0.621
 2951SOL    HW211803   5.165   5.072   0.680
 2951SOL     MW11804   5.241   5.070   0.637
 2952SOL     OW11805   4.096   2.079   3.839
 2952SOL    HW111806   4.104   2.019   3.765
 2952SOL    HW211807   4.004   2.105   3.840
 2952SOL     MW11808   4.085   2.075   3.829
 2953SOL     OW11809   0.349   0.833   5.096
 2953SOL    HW111810   0.290   0.851   5.168
 2953SOL    HW211811   0.294   0.791   5.029
 2953SOL     MW11812   0.335   0.830   5.096
 2954SOL     OW11813   0.528   3.930   0.621
 2954SOL    HW111814   0.598   3.898   0.678
 2954SOL    HW211815   0.572   3.954   0.540
 2954SOL     MW11816   0.543   3.929   0.618
 2955SOL     OW11817   3.382   0.922   3.907
 2955SOL    HW111818   3.383   0.906   3.812
 2955SOL    HW211819   3.320   0.993   3.918
 2955SOL     MW11820   3.374   0.929   3.896
 2956SOL     OW11821   3.916   0.123   1.545
 2956SOL    HW111822   3.951   0.192   1.603
 2956SOL    HW211823   3.913   0.163   1.459
 2956SOL     MW11824   3.920   0.137   1.542
 2957SOL     OW11825   0.970   0.127   2.365
 2957SOL    HW111826   0.911   0.150   2.437
 2957SOL    HW211827   1.052   0.101   2.408
 2957SOL     MW11828   0.973   0.127   2.379
 2958SOL     OW11829   0.066   0.074   4.666
 2958SOL    HW111830   0.131   0.004   4.664
 2958SOL    HW211831   0.094   0.132   4.736
 2958SOL     MW11832   0.078   0.073   4.675
 2959SOL     OW11833   4.295   3.632   4.303
 2959SOL    HW111834   4.278   3.567   4.371
 2959SOL    HW211835   4.335   3.582   4.232
 2959SOL     MW11836   4.298   3.617   4.303
 2960SOL     OW11837   5.082   1.704   5.353
 2960SOL    HW111838   5.069   1.622   5.401
 2960SOL    HW211839   5.158   1.744   5.394
 2960SOL     MW11840   5.090   1.698   5.365
 2961SOL     OW11841   1.674   0.392   1.791
 2961SOL    HW111842   1.634   0.308   1.768
 2961SOL    HW211843   1.671   0.443   1.711
 2961SOL     MW11844   1.668   0.388   1.778
 2962SOL     OW11845   1.349   1.573   4.602
 2962SOL    HW111846   1.373   1.491   4.559
 2962SOL    HW211847   1.276   1.548   4.660
 2962SOL     MW11848   1.343   1.559   4.604
 2963SOL     OW11849   0.284   2.559   0.295
 2963SOL    HW111850   0.254   2.485   0.349
 2963SOL    HW211851   0.336   2.518   0.226
 2963SOL     MW11852   0.287   2.544   0.293
 2964SOL     OW11853   0.131   0.589   0.854
 2964SOL    HW111854   0.069   0.634   0.797
 2964SOL    HW211855   0.163   0.657   0.913
 2964SOL     MW11856   0.127   0.603   0.854
 2965SOL     OW11857   0.504   4.943   1.083
 2965SOL    HW111858   0.413   4.959   1.057
 2965SOL    HW211859   0.497   4.897   1.167
 2965SOL     MW11860   0.491   4.939   1.091
 2966SOL     OW11861   4.153   1.262   0.261
 2966SOL    HW111862   4.216   1.221   0.201
 2966SOL    HW211863   4.208   1.302   0.329
 2966SOL     MW11864   4.168   1.262   0.262
 2967SOL     OW11865   4.140   5.414   0.628
 2967SOL    HW111866   4.125   5.452   0.541
 2967SOL    HW211867   4.170   5.325   0.610
 2967SOL     MW11868   4.142   5.407   0.614
 2968SOL     OW11869   0.415   1.079   3.708
 2968SOL    HW111870   0.453   1.072   3.796
 2968SOL    HW211871   0.415   0.989   3.675
 2968SOL     MW11872   0.420   1.067   3.715
 2969SOL     OW11873   3.308   2.599   0.173
 2969SOL    HW111874   3.264   2.576   0.091
 2969SOL    HW211875   3.241   2.584   0.240
 2969SOL     MW11876   3.293   2.594   0.171
 2970SOL     OW11877   3.467   1.634   1.855
 2970SOL    HW111878   3.558   1.621   1.830
 2970SOL    HW211879   3.433   1.546   1.872
 2970SOL     MW11880   3.474   1.621   1.854
 2971SOL     OW11881   4.755   4.402   2.082
 2971SOL    HW111882   4.837   4.354   2.066
 2971SOL    HW211883   4.725   4.426   1.994
 2971SOL     MW11884   4.762   4.399   2.068
 2972SOL     OW11885   4.783   1.833   4.390
 2972SOL    HW111886   4.789   1.748   4.434
 2972SOL    HW211887   4.873   1.865   4.388
 2972SOL     MW11888   4.795   1.826   4.396
 2973SOL     OW11889   1.482   2.559   0.170
 2973SOL    HW111890   1.411   2.579   0.230
 2973SOL    HW211891   1.561   2.589   0.215
 2973SOL     MW11892   1.483   2.565   0.183
 2974SOL     OW11893   3.913   3.482   3.071
 2974SOL    HW111894   3.910   3.467   2.977
 2974SOL    HW211895   4.004   3.506   3.089
 2974SOL     MW11896   3.924   3.483   3.061
 2975SOL     OW11897   4.624   1.240   1.857
 2975SOL    HW111898   4.649   1.262   1.947
 2975SOL    HW211899   4.657   1.151   1.844
 2975SOL     MW11900   4.632   1.231   1.867
 2976SOL     OW11901   3.470   3.058   3.862
 2976SOL    HW111902   3.443   3.063   3.770
 2976SOL    HW211903   3.416   3.122   3.907
 2976SOL     MW11904   3.460   3.067   3.856
 2977SOL     OW11905   2.406   3.046   4.356
 2977SOL    HW111906   2.343   3.054   4.283
 2977SOL    HW211907   2.478   2.995   4.320
 2977SOL     MW11908   2.407   3.040   4.342
 2978SOL     OW11909   1.442   5.252   0.709
 2978SOL    HW111910   1.377   5.185   0.690
 2978SOL    HW211911   1.526   5.213   0.684
 2978SOL     MW11912   1.444   5.238   0.703
 2979SOL     OW11913   1.985   4.868   3.362
 2979SOL    HW111914   1.934   4.816   3.299
 2979SOL    HW211915   2.070   4.825   3.364
 2979SOL     MW11916   1.989   4.856   3.354
 2980SOL     OW11917   4.091   2.062   0.418
 2980SOL    HW111918   4.168   2.104   0.457
 2980SOL    HW211919   4.108   1.969   0.425
 2980SOL     MW11920   4.103   2.056   0.424
 2981SOL     OW11921   5.379   4.851   0.045
 2981SOL    HW111922   5.434   4.928   0.034
 2981SOL    HW211923   5.429   4.780   0.004
 2981SOL     MW11924   5.392   4.852   0.038
 2982SOL     OW11925   2.457   3.961   3.565
 2982SOL    HW111926   2.372   3.982   3.527
 2982SOL    HW211927   2.446   3.873   3.602
 2982SOL     MW11928   2.445   3.952   3.565
 2983SOL     OW11929   3.812   1.586   2.995
 2983SOL    HW111930   3.907   1.589   2.979
 2983SOL    HW211931   3.804   1.552   3.084
 2983SOL     MW11932   3.823   1.582   3.004
 2984SOL     OW11933   4.816   0.210   5.426
 2984SOL    HW111934   4.911   0.208   5.414
 2984SOL    HW211935   4.798   0.135   5.483
 2984SOL     MW11936   4.826   0.200   5.431
 2985SOL     OW11937   1.471   4.359   0.674
 2985SOL    HW111938   1.456   4.288   0.736
 2985SOL    HW211939   1.524   4.320   0.605
 2985SOL     MW11940   1.476   4.345   0.673
 2986SOL     OW11941   3.189   0.185   1.481
 2986SOL    HW111942   3.109   0.176   1.533
 2986SOL    HW211943   3.257   0.206   1.546
 2986SOL     MW11944   3.187   0.186   1.496
 2987SOL     OW11945   3.001   4.153   4.304
 2987SOL    HW111946   2.927   4.123   4.356
 2987SOL    HW211947   2.961   4.204   4.233
 2987SOL     MW11948   2.986   4.156   4.301
 2988SOL     OW11949   4.316   5.433   4.918
 2988SOL    HW111950   4.249   5.502   4.911
 2988SOL    HW211951   4.392   5.469   4.874
 2988SOL     MW11952   4.317   5.447   4.912
 2989SOL     OW11953   1.946   1.179   3.882
 2989SOL    HW111954   1.937   1.084   3.890
 2989SOL    HW211955   1.878   1.205   3.820
 2989SOL     MW11956   1.937   1.170   3.875
 2990SOL     OW11957   0.505   1.760   3.728
 2990SOL    HW111958   0.478   1.702   3.799
 2990SOL    HW211959   0.598   1.744   3.718
 2990SOL     MW11960   0.513   1.750   3.736
 2991SOL     OW11961   0.571   3.359   4.935
 2991SOL    HW111962   0.559   3.349   5.030
 2991SOL    HW211963   0.483   3.377   4.901
 2991SOL     MW11964   0.558   3.360   4.943
 2992SOL     OW11965   0.311   3.762   1.674
 2992SOL    HW111966   0.391   3.809   1.652
 2992SOL    HW211967   0.245   3.797   1.614
 2992SOL     MW11968   0.313   3.772   1.663
 2993SOL     OW11969   0.073   4.158   4.030
 2993SOL    HW111970   0.087   4.214   4.106
 2993SOL    HW211971   0.051   4.218   3.959
 2993SOL     MW11972   0.072   4.173   4.030
 2994SOL     OW11973   0.953   5.337   0.778
 2994SOL    HW111974   0.960   5.246   0.752
 2994SOL    HW211975   1.009   5.385   0.716
 2994SOL     MW11976   0.961   5.332   0.767
 2995SOL     OW11977   3.917   4.094   4.360
 2995SOL    HW111978   3.864   4.119   4.436
 2995SOL    HW211979   4.006   4.089   4.394
 2995SOL     MW11980   3.922   4.096   4.374
 2996SOL     OW11981   2.503   2.673   4.589
 2996SOL    HW111982   2.585   2.711   4.556
 2996SOL    HW211983   2.517   2.579   4.586
 2996SOL     MW11984   2.516   2.666   4.585
 2997SOL     OW11985   0.804   3.739   0.483
 2997SOL    HW111986   0.758   3.725   0.566
 2997SOL    HW211987   0.890   3.772   0.509
 2997SOL     MW11988   0.809   3.742   0.497
 2998SOL     OW11989   1.168   1.749   2.317
 2998SOL    HW111990   1.215   1.778   2.395
 2998SOL    HW211991   1.212   1.668   2.291
 2998SOL     MW11992   1.179   1.742   2.324
 2999SOL     OW11993   5.389   1.685   4.790
 2999SOL    HW111994   5.383   1.615   4.855
 2999SOL    HW211995   5.483   1.696   4.777
 2999SOL     MW11996   5.401   1.677   4.797
 3000SOL     OW11997   0.447   5.216   1.123
 3000SOL    HW111998   0.508   5.288   1.111
 3000SOL    HW211999   0.502   5.138   1.127
 3000SOL     MW12000   0.462   5.215   1.122
 3001SOL     OW12001   2.574  -0.009   4.436
 3001SOL    HW112002   2.617   0.002   4.352
 3001SOL    HW212003   2.489   0.033   4.426
 3001SOL     MW12004   2.568  -0.002   4.424
 3002SOL     OW12005   3.214   0.129   2.462
 3002SOL    HW112006   3.267   0.098   2.389
 3002SOL    HW212007   3.160   0.198   2.425
 3002SOL     MW12008   3.214   0.134   2.448
 3003SOL     OW12009   4.500   2.125   5.401
 3003SOL    HW112010   4.534   2.036   5.417
 3003SOL    HW212011   4.407   2.119   5.421
 3003SOL     MW12012   4.493   2.113   5.405
 3004SOL     OW12013   1.462   5.207   3.740
 3004SOL    HW112014   1.552   5.173   3.747
 3004SOL    HW212015   1.472   5.301   3.730
 3004SOL     MW12016   1.475   5.215   3.740
 3005SOL     OW12017   4.830   4.280   0.989
 3005SOL    HW112018   4.899   4.299   1.052
 3005SOL    HW212019   4.840   4.186   0.970
 3005SOL     MW12020   4.840   4.270   0.995
 3006SOL     OW12021   3.905   2.388   4.985
 3006SOL    HW112022   3.970   2.390   5.054
 3006SOL    HW212023   3.950   2.348   4.910
 3006SOL     MW12024   3.919   2.383   4.984
 3007SOL     OW12025   2.650   0.175   2.819
 3007SOL    HW112026   2.558   0.158   2.838
 3007SOL    HW212027   2.682   0.225   2.894
 3007SOL     MW12028   2.642   0.180   2.831
 3008SOL     OW12029   3.514   4.632   2.187
 3008SOL    HW112030   3.530   4.542   2.159
 3008SOL    HW212031   3.575   4.685   2.136
 3008SOL     MW12032   3.524   4.628   2.177
 3009SOL     OW12033   2.531   2.753   5.178
 3009SOL    HW112034   2.507   2.713   5.095
 3009SOL    HW212035   2.626   2.744   5.183
 3009SOL     MW12036   2.540   2.747   5.168
 3010SOL     OW12037   1.509   1.289   2.884
 3010SOL    HW112038   1.417   1.280   2.908
 3010SOL    HW212039   1.556   1.242   2.953
 3010SOL     MW12040   1.503   1.282   2.896
 3011SOL     OW12041   3.588   3.639   5.368
 3011SOL    HW112042   3.666   3.628   5.314
 3011SOL    HW212043   3.555   3.726   5.345
 3011SOL     MW12044   3.593   3.649   5.358
 3012SOL     OW12045   2.574   2.653   4.178
 3012SOL    HW112046   2.574   2.742   4.212
 3012SOL    HW212047   2.481   2.633   4.165
 3012SOL     MW12048   2.562   2.662   4.180
 3013SOL     OW12049   2.347   0.459   0.869
 3013SOL    HW112050   2.420   0.453   0.930
 3013SOL    HW212051   2.382   0.508   0.794
 3013SOL     MW12052   2.361   0.465   0.867
 3014SOL     OW12053   5.302   0.960   0.270
 3014SOL    HW112054   5.347   0.885   0.308
 3014SOL    HW212055   5.363   1.033   0.281
 3014SOL     MW12056   5.315   0.960   0.276
 3015SOL     OW12057   1.897   1.919   1.219
 3015SOL    HW112058   1.943   1.837   1.201
 3015SOL    HW212059   1.921   1.977   1.147
 3015SOL     MW12060   1.906   1.916   1.208
 3016SOL     OW12061   0.288   4.034   4.870
 3016SOL    HW112062   0.382   4.047   4.863
 3016SOL    HW212063   0.278   3.944   4.902
 3016SOL     MW12064   0.299   4.024   4.874
 3017SOL     OW12065   1.724   1.271   0.057
 3017SOL    HW112066   1.679   1.354   0.074
 3017SOL    HW212067   1.811   1.296   0.027
 3017SOL     MW12068   1.729   1.285   0.055
 3018SOL     OW12069   3.540   0.590   1.247
 3018SOL    HW112070   3.598   0.561   1.176
 3018SOL    HW212071   3.523   0.683   1.228
 3018SOL     MW12072   3.545   0.599   1.235
 3019SOL     OW12073   0.249   1.951   2.624
 3019SOL    HW112074   0.303   1.896   2.567
 3019SOL    HW212075   0.288   2.037   2.618
 3019SOL     MW12076   0.261   1.955   2.616
 3020SOL     OW12077   4.013   1.851   3.345
 3020SOL    HW112078   3.985   1.943   3.348
 3020SOL    HW212079   3.948   1.805   3.398
 3020SOL     MW12080   4.001   1.857   3.352
 3021SOL     OW12081   2.987   1.343   4.781
 3021SOL    HW112082   3.070   1.364   4.823
 3021SOL    HW212083   2.967   1.419   4.726
 3021SOL     MW12084   2.995   1.355   4.779
 3022SOL     OW12085   3.467   1.698   4.812
 3022SOL    HW112086   3.500   1.641   4.742
 3022SOL    HW212087   3.372   1.693   4.804
 3022SOL     MW12088   3.459   1.690   4.802
 3023SOL     OW12089   2.182   4.115   1.083
 3023SOL    HW112090   2.259   4.107   1.026
 3023SOL    HW212091   2.129   4.037   1.063
 3023SOL     MW12092   2.185   4.104   1.073
 3024SOL     OW12093   1.569   0.842   1.568
 3024SOL    HW112094   1.590   0.929   1.602
 3024SOL    HW212095   1.582   0.850   1.473
 3024SOL     MW12096   1.573   0.855   1.560
 3025SOL     OW12097   5.447   0.231   1.433
 3025SOL    HW112098   5.506   0.297   1.396
 3025SOL    HW212099   5.404   0.275   1.506
 3025SOL     MW12100   5.449   0.245   1.438
 3026SOL     OW12101   2.012   2.241   0.429
 3026SOL    HW112102   2.088   2.187   0.407
 3026SOL    HW212103   2.049   2.326   0.453
 3026SOL     MW12104   2.026   2.245   0.429
 3027SOL     OW12105   1.450   0.703   4.877
 3027SOL    HW112106   1.398   0.737   4.804
 3027SOL    HW212107   1.437   0.608   4.873
 3027SOL     MW12108   1.442   0.695   4.867
 3028SOL     OW12109   1.757   2.949   4.619
 3028SOL    HW112110   1.850   2.960   4.602
 3028SOL    HW212111   1.732   2.873   4.567
 3028SOL     MW12112   1.765   2.941   4.610
 3029SOL     OW12113   1.919   5.056   0.487
 3029SOL    HW112114   2.011   5.070   0.510
 3029SOL    HW212115   1.921   5.015   0.400
 3029SOL     MW12116   1.931   5.053   0.479
 3030SOL     OW12117   2.525   5.340   5.256
 3030SOL    HW112118   2.525   5.413   5.317
 3030SOL    HW212119   2.437   5.338   5.220
 3030SOL     MW12120   2.514   5.349   5.259
 3031SOL     OW12121   4.941   4.764   3.426
 3031SOL    HW112122   4.921   4.786   3.517
 3031SOL    HW212123   4.855   4.758   3.383
 3031SOL     MW12124   4.927   4.766   3.432
 3032SOL     OW12125   1.386   3.974   1.140
 3032SOL    HW112126   1.328   3.977   1.064
 3032SOL    HW212127   1.331   4.001   1.214
 3032SOL     MW12128   1.372   3.978   1.140
 3033SOL     OW12129   4.057   5.183   2.936
 3033SOL    HW112130   3.998   5.136   2.877
 3033SOL    HW212131   4.003   5.254   2.972
 3033SOL     MW12132   4.042   5.186   2.933
 3034SOL     OW12133   2.090   0.913   0.613
 3034SOL    HW112134   2.151   0.889   0.543
 3034SOL    HW212135   2.137   0.893   0.694
 3034SOL     MW12136   2.104   0.907   0.614
 3035SOL     OW12137   0.086   0.028   1.291
 3035SOL    HW112138   0.045   0.088   1.354
 3035SOL    HW212139   0.074   0.071   1.206
 3035SOL     MW12140   0.079   0.041   1.288
 3036SOL     OW12141   0.893   4.511   0.574
 3036SOL    HW112142   0.835   4.583   0.550
 3036SOL    HW212143   0.834   4.442   0.603
 3036SOL     MW12144   0.878   4.511   0.575
 3037SOL     OW12145   0.308   1.911   3.039
 3037SOL    HW112146   0.305   1.866   2.955
 3037SOL    HW212147   0.352   1.850   3.098
 3037SOL     MW12148   0.313   1.898   3.036
 3038SOL     OW12149   0.877   2.601   4.280
 3038SOL    HW112150   0.875   2.652   4.199
 3038SOL    HW212151   0.955   2.546   4.272
 3038SOL     MW12152   0.887   2.600   4.269
 3039SOL     OW12153   3.047   1.562   2.722
 3039SOL    HW112154   3.005   1.513   2.793
 3039SOL    HW212155   3.141   1.558   2.742
 3039SOL     MW12156   3.054   1.555   2.734
 3040SOL     OW12157   1.689   3.328   1.099
 3040SOL    HW112158   1.736   3.245   1.094
 3040SOL    HW212159   1.598   3.303   1.115
 3040SOL     MW12160   1.683   3.314   1.100
 3041SOL     OW12161   4.597   1.421   2.143
 3041SOL    HW112162   4.692   1.413   2.139
 3041SOL    HW212163   4.581   1.508   2.178
 3041SOL     MW12164   4.607   1.431   2.147
 3042SOL     OW12165   1.661   4.879   2.487
 3042SOL    HW112166   1.625   4.937   2.420
 3042SOL    HW212167   1.603   4.890   2.562
 3042SOL     MW12168   1.649   4.888   2.488
 3043SOL     OW12169   5.104   2.193   1.470
 3043SOL    HW112170   5.150   2.267   1.510
 3043SOL    HW212171   5.118   2.204   1.376
 3043SOL     MW12172   5.112   2.204   1.463
 3044SOL     OW12173   1.306   3.792   4.355
 3044SOL    HW112174   1.242   3.857   4.385
 3044SOL    HW212175   1.388   3.816   4.398
 3044SOL     MW12176   1.308   3.803   4.364
 3045SOL     OW12177   0.044   4.843   2.240
 3045SOL    HW112178   0.085   4.756   2.235
 3045SOL    HW212179  -0.049   4.825   2.234
 3045SOL     MW12180   0.038   4.829   2.239
 3046SOL     OW12181   5.317   1.731   1.228
 3046SOL    HW112182   5.241   1.716   1.284
 3046SOL    HW212183   5.374   1.789   1.280
 3046SOL     MW12184   5.315   1.737   1.242
 3047SOL     OW12185   1.078   4.193   3.160
 3047SOL    HW112186   1.001   4.156   3.205
 3047SOL    HW212187   1.082   4.145   3.077
 3047SOL     MW12188   1.069   4.182   3.155
 3048SOL     OW12189   4.315   1.412   2.587
 3048SOL    HW112190   4.232   1.364   2.588
 3048SOL    HW212191   4.380   1.346   2.565
 3048SOL     MW12192   4.312   1.398   2.584
 3049SOL     OW12193   2.575   1.672   3.052
 3049SOL    HW112194   2.578   1.762   3.086
 3049SOL    HW212195   2.494   1.669   3.001
 3049SOL     MW12196   2.565   1.683   3.050
 3050SOL     OW12197   2.014   4.565   4.383
 3050SOL    HW112198   1.953   4.505   4.340
 3050SOL    HW212199   2.027   4.636   4.320
 3050SOL     MW12200   2.008   4.566   4.370
 3051SOL     OW12201   5.298   0.810   1.840
 3051SOL    HW112202   5.362   0.764   1.786
 3051SOL    HW212203   5.290   0.756   1.919
 3051SOL     MW12204   5.305   0.797   1.844
 3052SOL     OW12205   1.533   1.743   1.372
 3052SOL    HW112206   1.529   1.831   1.335
 3052SOL    HW212207   1.610   1.744   1.429
 3052SOL     MW12208   1.542   1.754   1.375
 3053SOL     OW12209   3.143   2.097   0.141
 3053SOL    HW112210   3.125   2.173   0.086
 3053SOL    HW212211   3.231   2.069   0.115
 3053SOL     MW12212   3.152   2.103   0.131
 3054SOL     OW12213   1.085   3.443   3.224
 3054SOL    HW112214   1.013   3.386   3.200
 3054SOL    HW212215   1.056   3.485   3.305
 3054SOL     MW12216   1.072   3.441   3.232
 3055SOL     OW12217   0.400   0.673   0.203
 3055SOL    HW112218   0.478   0.681   0.257
 3055SOL    HW212219   0.433   0.667   0.113
 3055SOL     MW12220   0.414   0.674   0.198
 3056SOL     OW12221   3.649   1.595   5.079
 3056SOL    HW112222   3.693   1.570   4.998
 3056SOL    HW212223   3.713   1.647   5.126
 3056SOL     MW12224   3.663   1.598   5.075
 3057SOL     OW12225   4.651   2.187   3.488
 3057SOL    HW112226   4.596   2.251   3.442
 3057SOL    HW212227   4.720   2.166   3.425
 3057SOL     MW12228   4.653   2.193   3.474
 3058SOL     OW12229   1.359   2.678   4.054
 3058SOL    HW112230   1.403   2.624   4.119
 3058SOL    HW212231   1.276   2.635   4.038
 3058SOL     MW12232   1.354   2.666   4.060
 3059SOL     OW12233   1.279   2.307   4.640
 3059SOL    HW112234   1.277   2.346   4.727
 3059SOL    HW212235   1.276   2.381   4.579
 3059SOL     MW12236   1.279   2.321   4.643
 3060SOL     OW12237   2.238   3.422   4.905
 3060SOL    HW112238   2.210   3.335   4.935
 3060SOL    HW212239   2.157   3.470   4.889
 3060SOL     MW12240   2.224   3.417   4.907
 3061SOL     OW12241   2.612   0.642   3.513
 3061SOL    HW112242   2.616   0.737   3.504
 3061SOL    HW212243   2.690   0.618   3.562
 3061SOL     MW12244   2.622   0.651   3.518
 3062SOL     OW12245   0.606   3.689   0.208
 3062SOL    HW112246   0.680   3.631   0.227
 3062SOL    HW212247   0.554   3.688   0.288
 3062SOL     MW12248   0.609   3.681   0.221
 3063SOL     OW12249   0.432   4.279   2.690
 3063SOL    HW112250   0.466   4.341   2.626
 3063SOL    HW212251   0.510   4.248   2.736
 3063SOL     MW12252   0.447   4.283   2.688
 3064SOL     OW12253   2.570   1.087   3.673
 3064SOL    HW112254   2.665   1.081   3.684
 3064SOL    HW212255   2.540   1.134   3.751
 3064SOL     MW12256   2.579   1.093   3.684
 3065SOL     OW12257   3.488   0.852   1.191
 3065SOL    HW112258   3.504   0.934   1.236
 3065SOL    HW212259   3.393   0.850   1.179
 3065SOL     MW12260   3.478   0.862   1.195
 3066SOL     OW12261   3.678   5.175   1.797
 3066SOL    HW112262   3.712   5.226   1.723
 3066SOL    HW212263   3.626   5.237   1.848
 3066SOL     MW12264   3.676   5.189   1.794
 3067SOL     OW12265   0.547   3.046   0.678
 3067SOL    HW112266   0.557   3.097   0.758
 3067SOL    HW212267   0.631   3.001   0.667
 3067SOL     MW12268   0.559   3.047   0.687
 3068SOL     OW12269   4.080   1.049   2.182
 3068SOL    HW112270   4.126   0.981   2.133
 3068SOL    HW212271   4.124   1.131   2.157
 3068SOL     MW12272   4.092   1.051   2.173
 3069SOL     OW12273   3.423   3.711   3.283
 3069SOL    HW112274   3.343   3.658   3.281
 3069SOL    HW212275   3.487   3.660   3.234
 3069SOL     MW12276   3.421   3.698   3.277
 3070SOL     OW12277   3.903   0.858   0.774
 3070SOL    HW112278   3.955   0.934   0.748
 3070SOL    HW212279   3.956   0.815   0.842
 3070SOL     MW12280   3.917   0.862   0.779
 3071SOL     OW12281   4.411   0.597   1.144
 3071SOL    HW112282   4.368   0.512   1.139
 3071SOL    HW212283   4.368   0.641   1.218
 3071SOL     MW12284   4.400   0.592   1.153
 3072SOL     OW12285   4.589   1.875   4.761
 3072SOL    HW112286   4.649   1.919   4.821
 3072SOL    HW212287   4.598   1.782   4.781
 3072SOL     MW12288   4.598   1.869   4.771
 3073SOL     OW12289   4.723   4.558   2.966
 3073SOL    HW112290   4.679   4.639   2.992
 3073SOL    HW212291   4.671   4.488   3.006
 3073SOL     MW12292   4.711   4.559   2.974
 3074SOL     OW12293   2.938   3.896   3.153
 3074SOL    HW112294   2.926   3.821   3.095
 3074SOL    HW212295   2.892   3.968   3.111
 3074SOL     MW12296   2.931   3.896   3.140
 3075SOL     OW12297   1.115   1.785   0.984
 3075SOL    HW112298   1.160   1.799   0.901
 3075SOL    HW212299   1.143   1.698   1.013
 3075SOL     MW12300   1.124   1.776   0.977
 3076SOL     OW12301   2.216   4.382   1.676
 3076SOL    HW112302   2.203   4.287   1.675
 3076SOL    HW212303   2.129   4.419   1.662
 3076SOL     MW12304   2.203   4.375   1.674
 3077SOL     OW12305   2.905   3.576   1.248
 3077SOL    HW112306   2.857   3.497   1.224
 3077SOL    HW212307   2.884   3.639   1.179
 3077SOL     MW12308   2.896   3.574   1.236
 3078SOL     OW12309   5.289   1.041   2.634
 3078SOL    HW112310   5.259   0.951   2.649
 3078SOL    HW212311   5.211   1.095   2.646
 3078SOL     MW12312   5.275   1.036   2.638
 3079SOL     OW12313   2.463   1.247   4.577
 3079SOL    HW112314   2.420   1.308   4.638
 3079SOL    HW212315   2.392   1.191   4.546
 3079SOL     MW12316   2.448   1.248   4.581
 3080SOL     OW12317   3.740   3.125   1.483
 3080SOL    HW112318   3.779   3.060   1.425
 3080SOL    HW212319   3.655   3.144   1.445
 3080SOL     MW12320   3.734   3.119   1.471
 3081SOL     OW12321   1.895   1.370   4.600
 3081SOL    HW112322   1.847   1.288   4.611
 3081SOL    HW212323   1.832   1.430   4.561
 3081SOL     MW12324   1.881   1.367   4.597
 3082SOL     OW12325   5.061   0.770   4.105
 3082SOL    HW112326   4.999   0.765   4.032
 3082SOL    HW212327   5.023   0.834   4.165
 3082SOL     MW12328   5.048   0.778   4.103
 3083SOL     OW12329   1.448   3.556   3.182
 3083SOL    HW112330   1.498   3.633   3.155
 3083SOL    HW212331   1.512   3.499   3.224
 3083SOL     MW12332   1.462   3.559   3.184
 3084SOL     OW12333   2.209   4.006   3.468
 3084SOL    HW112334   2.136   3.954   3.500
 3084SOL    HW212335   2.176   4.096   3.468
 3084SOL     MW12336   2.195   4.011   3.472
 3085SOL     OW12337   0.787   4.178   4.879
 3085SOL    HW112338   0.870   4.134   4.890
 3085SOL    HW212339   0.771   4.220   4.963
 3085SOL     MW12340   0.795   4.178   4.891
 3086SOL     OW12341   5.153   1.663   5.087
 3086SOL    HW112342   5.112   1.734   5.036
 3086SOL    HW212343   5.116   1.673   5.174
 3086SOL     MW12344   5.143   1.674   5.091
 3087SOL     OW12345   0.462   1.540   3.890
 3087SOL    HW112346   0.398   1.527   3.960
 3087SOL    HW212347   0.544   1.503   3.925
 3087SOL     MW12348   0.465   1.533   3.903
 3088SOL     OW12349   4.151   0.952   0.481
 3088SOL    HW112350   4.240   0.986   0.487
 3088SOL    HW212351   4.150   0.901   0.400
 3088SOL     MW12352   4.162   0.950   0.471
 3089SOL     OW12353   4.359   0.938   2.542
 3089SOL    HW112354   4.311   1.012   2.503
 3089SOL    HW212355   4.345   0.866   2.481
 3089SOL     MW12356   4.351   0.939   2.529
 3090SOL     OW12357   5.162   4.948   2.669
 3090SOL    HW112358   5.256   4.943   2.650
 3090SOL    HW212359   5.123   4.876   2.619
 3090SOL     MW12360   5.169   4.938   2.660
 3091SOL     OW12361   3.949   1.285   4.216
 3091SOL    HW112362   3.897   1.216   4.256
 3091SOL    HW212363   4.031   1.286   4.266
 3091SOL     MW12364   3.953   1.276   4.228
 3092SOL     OW12365   0.088   1.384   2.405
 3092SOL    HW112366  -0.002   1.402   2.380
 3092SOL    HW212367   0.081   1.316   2.473
 3092SOL     MW12368   0.076   1.377   2.411
 3093SOL     OW12369   2.230   1.327   0.153
 3093SOL    HW112370   2.286   1.400   0.177
 3093SOL    HW212371   2.280   1.249   0.179
 3093SOL     MW12372   2.243   1.326   0.159
 3094SOL     OW12373   0.817   2.614   5.392
 3094SOL    HW112374   0.863   2.655   5.318
 3094SOL    HW212375   0.729   2.599   5.359
 3094SOL     MW12376   0.812   2.618   5.378
 3095SOL     OW12377   4.731   1.852   3.323
 3095SOL    HW112378   4.785   1.927   3.348
 3095SOL    HW212379   4.694   1.820   3.405
 3095SOL     MW12380   4.733   1.857   3.336
 3096SOL     OW12381   2.303   0.663   2.979
 3096SOL    HW112382   2.365   0.716   3.030
 3096SOL    HW212383   2.297   0.581   3.027
 3096SOL     MW12384   2.310   0.659   2.992
 3097SOL     OW12385   3.879   3.828   4.331
 3097SOL    HW112386   3.902   3.920   4.335
 3097SOL    HW212387   3.853   3.813   4.240
 3097SOL     MW12388   3.878   3.838   4.320
 3098SOL     OW12389   2.749   5.089   3.566
 3098SOL    HW112390   2.713   5.103   3.654
 3098SOL    HW212391   2.844   5.102   3.577
 3098SOL     MW12392   2.757   5.093   3.579
 3099SOL     OW12393   3.139   4.159   1.644
 3099SOL    HW112394   3.180   4.149   1.558
 3099SOL    HW212395   3.206   4.129   1.705
 3099SOL     MW12396   3.153   4.154   1.641
 3100SOL     OW12397   2.322   1.520   0.607
 3100SOL    HW112398   2.318   1.428   0.579
 3100SOL    HW212399   2.275   1.568   0.539
 3100SOL     MW12400   2.315   1.514   0.595
 3101SOL     OW12401   2.131   3.256   0.349
 3101SOL    HW112402   2.186   3.260   0.428
 3101SOL    HW212403   2.105   3.346   0.333
 3101SOL     MW12404   2.135   3.268   0.357
 3102SOL     OW12405   2.550   3.480   3.428
 3102SOL    HW112406   2.634   3.435   3.429
 3102SOL    HW212407   2.555   3.538   3.352
 3102SOL     MW12408   2.561   3.482   3.418
 3103SOL     OW12409   4.717   5.447   3.464
 3103SOL    HW112410   4.707   5.467   3.371
 3103SOL    HW212411   4.635   5.473   3.504
 3103SOL     MW12412   4.705   5.453   3.457
 3104SOL     OW12413   2.548   0.911   1.361
 3104SOL    HW112414   2.501   0.862   1.428
 3104SOL    HW212415   2.581   0.988   1.407
 3104SOL     MW12416   2.546   0.915   1.376
 3105SOL     OW12417   1.271   2.423   4.894
 3105SOL    HW112418   1.180   2.455   4.889
 3105SOL    HW212419   1.286   2.411   4.988
 3105SOL     MW12420   1.261   2.426   4.906
 3106SOL     OW12421   2.375   4.040   3.823
 3106SOL    HW112422   2.400   4.131   3.840
 3106SOL    HW212423   2.392   4.027   3.729
 3106SOL     MW12424   2.380   4.050   3.813
 3107SOL     OW12425   5.328   1.482   4.977
 3107SOL    HW112426   5.281   1.439   4.906
 3107SOL    HW212427   5.262   1.536   5.020
 3107SOL     MW12428   5.313   1.483   4.973
 3108SOL     OW12429   0.389   3.575   0.806
 3108SOL    HW112430   0.312   3.611   0.761
 3108SOL    HW212431   0.367   3.483   0.818
 3108SOL     MW12432   0.376   3.568   0.802
 3109SOL     OW12433   2.537   0.915   0.050
 3109SOL    HW112434   2.513   0.825   0.073
 3109SOL    HW212435   2.475   0.969   0.098
 3109SOL     MW12436   2.526   0.910   0.059
 3110SOL     OW12437   2.239   3.191   3.002
 3110SOL    HW112438   2.145   3.192   2.983
 3110SOL    HW212439   2.250   3.117   3.061
 3110SOL     MW12440   2.228   3.181   3.007
 3111SOL     OW12441   3.098   5.405   2.596
 3111SOL    HW112442   3.041   5.444   2.661
 3111SOL    HW212443   3.139   5.479   2.551
 3111SOL     MW12444   3.096   5.419   2.598
 3112SOL     OW12445   2.759   1.854   1.929
 3112SOL    HW112446   2.678   1.876   1.882
 3112SOL    HW212447   2.752   1.759   1.944
 3112SOL     MW12448   2.748   1.844   1.925
 3113SOL     OW12449   4.968   3.714   0.863
 3113SOL    HW112450   5.016   3.728   0.944
 3113SOL    HW212451   5.027   3.662   0.809
 3113SOL     MW12452   4.982   3.709   0.867
 3114SOL     OW12453   1.699   1.534   2.052
 3114SOL    HW112454   1.757   1.481   2.107
 3114SOL    HW212455   1.622   1.478   2.037
 3114SOL     MW12456   1.696   1.520   2.057
 3115SOL     OW12457   4.316   2.408   0.222
 3115SOL    HW112458   4.345   2.316   0.220
 3115SOL    HW212459   4.225   2.404   0.252
 3115SOL     MW12460   4.308   2.396   0.225
 3116SOL     OW12461   4.493   5.474   1.436
 3116SOL    HW112462   4.505   5.395   1.382
 3116SOL    HW212463   4.495   5.441   1.526
 3116SOL     MW12464   4.495   5.459   1.441
 3117SOL     OW12465   2.876   2.305   2.818
 3117SOL    HW112466   2.815   2.361   2.771
 3117SOL    HW212467   2.848   2.216   2.797
 3117SOL     MW12468   2.864   2.300   2.810
 3118SOL     OW12469   1.872   3.664   0.410
 3118SOL    HW112470   1.780   3.657   0.383
 3118SOL    HW212471   1.879   3.600   0.482
 3118SOL     MW12472   1.861   3.655   0.416
 3119SOL     OW12473   5.239   2.504   2.626
 3119SOL    HW112474   5.308   2.441   2.648
 3119SOL    HW212475   5.252   2.577   2.686
 3119SOL     MW12476   5.249   2.505   2.636
 3120SOL     OW12477   1.532   2.565   4.618
 3120SOL    HW112478   1.445   2.549   4.579
 3120SOL    HW212479   1.513   2.587   4.709
 3120SOL     MW12480   1.518   2.566   4.625
 3121SOL     OW12481   2.057   3.450   3.487
 3121SOL    HW112482   2.052   3.365   3.443
 3121SOL    HW212483   2.125   3.497   3.439
 3121SOL     MW12484   2.065   3.445   3.475
 3122SOL     OW12485   2.642   4.133   1.159
 3122SOL    HW112486   2.690   4.118   1.240
 3122SOL    HW212487   2.571   4.068   1.160
 3122SOL     MW12488   2.639   4.123   1.169
 3123SOL     OW12489   4.674   1.767   3.823
 3123SOL    HW112490   4.768   1.758   3.839
 3123SOL    HW212491   4.635   1.695   3.873
 3123SOL     MW12492   4.681   1.757   3.832
 3124SOL     OW12493   2.950   0.604   3.136
 3124SOL    HW112494   2.995   0.688   3.140
 3124SOL    HW212495   2.928   0.593   3.044
 3124SOL     MW12496   2.953   0.613   3.125
 3125SOL     OW12497   4.305   4.580   4.040
 3125SOL    HW112498   4.265   4.499   4.010
 3125SOL    HW212499   4.267   4.648   3.984
 3125SOL     MW12500   4.295   4.578   4.029
 3126SOL     OW12501   4.011   0.803   1.336
 3126SOL    HW112502   3.981   0.867   1.272
 3126SOL    HW212503   4.089   0.843   1.375
 3126SOL     MW12504   4.017   0.816   1.332
 3127SOL     OW12505   4.158   1.101   3.125
 3127SOL    HW112506   4.237   1.134   3.084
 3127SOL    HW212507   4.188   1.040   3.192
 3127SOL     MW12508   4.172   1.097   3.128
 3128SOL     OW12509   3.718   0.873   4.858
 3128SOL    HW112510   3.631   0.850   4.889
 3128SOL    HW212511   3.718   0.847   4.765
 3128SOL     MW12512   3.707   0.866   4.850
 3129SOL     OW12513   1.076   2.620   0.775
 3129SOL    HW112514   0.981   2.615   0.786
 3129SOL    HW212515   1.106   2.673   0.848
 3129SOL     MW12516   1.067   2.626   0.786
 3130SOL     OW12517   3.182   5.478   3.615
 3130SOL    HW112518   3.241   5.402   3.618
 3130SOL    HW212519   3.115   5.454   3.552
 3130SOL     MW12520   3.181   5.465   3.607
 3131SOL     OW12521   2.285   4.532   2.723
 3131SOL    HW112522   2.304   4.626   2.718
 3131SOL    HW212523   2.316   4.497   2.640
 3131SOL     MW12524   2.291   4.540   2.712
 3132SOL     OW12525   2.695   0.737   0.329
 3132SOL    HW112526   2.744   0.771   0.254
 3132SOL    HW212527   2.760   0.689   0.381
 3132SOL     MW12528   2.710   0.735   0.326
 3133SOL     OW12529   2.790   4.948   1.812
 3133SOL    HW112530   2.750   4.953   1.899
 3133SOL    HW212531   2.847   5.024   1.807
 3133SOL     MW12532   2.792   4.958   1.822
 3134SOL     OW12533   3.181   3.885   2.765
 3134SOL    HW112534   3.193   3.979   2.752
 3134SOL    HW212535   3.244   3.861   2.832
 3134SOL     MW12536   3.190   3.894   2.772
 3135SOL     OW12537   1.218   4.395   0.268
 3135SOL    HW112538   1.176   4.398   0.182
 3135SOL    HW212539   1.311   4.379   0.249
 3135SOL     MW12540   1.225   4.393   0.254
 3136SOL     OW12541   1.971   3.661   1.477
 3136SOL    HW112542   2.056   3.698   1.498
 3136SOL    HW212543   1.967   3.662   1.381
 3136SOL     MW12544   1.981   3.666   1.467
 3137SOL     OW12545   4.765   5.284   4.399
 3137SOL    HW112546   4.780   5.225   4.472
 3137SOL    HW212547   4.848   5.282   4.350
 3137SOL     MW12548   4.778   5.276   4.402
 3138SOL     OW12549   2.579   5.061   0.843
 3138SOL    HW112550   2.502   5.020   0.880
 3138SOL    HW212551   2.570   5.154   0.865
 3138SOL     MW12552   2.568   5.068   0.850
 3139SOL     OW12553   4.757   1.985   3.081
 3139SOL    HW112554   4.851   1.986   3.064
 3139SOL    HW212555   4.747   1.922   3.153
 3139SOL     MW12556   4.768   1.977   3.088
 3140SOL     OW12557   2.735   3.847   0.244
 3140SOL    HW112558   2.729   3.754   0.268
 3140SOL    HW212559   2.757   3.846   0.151
 3140SOL     MW12560   2.737   3.835   0.235
 3141SOL     OW12561   0.484   0.346   4.388
 3141SOL    HW112562   0.559   0.405   4.381
 3141SOL    HW212563   0.519   0.267   4.431
 3141SOL     MW12564   0.498   0.343   4.393
 3142SOL     OW12565   3.725   1.285   1.104
 3142SOL    HW112566   3.772   1.276   1.187
 3142SOL    HW212567   3.794   1.302   1.040
 3142SOL     MW12568   3.740   1.286   1.107
 3143SOL     OW12569   3.819   2.144   3.821
 3143SOL    HW112570   3.849   2.234   3.805
 3143SOL    HW212571   3.744   2.154   3.880
 3143SOL     MW12572   3.813   2.157   3.826
 3144SOL     OW12573   5.471   2.346   5.357
 3144SOL    HW112574   5.422   2.394   5.424
 3144SOL    HW212575   5.482   2.409   5.286
 3144SOL     MW12576   5.466   2.360   5.357
 3145SOL     OW12577   2.132   4.346   0.952
 3145SOL    HW112578   2.223   4.369   0.931
 3145SOL    HW212579   2.138   4.263   0.998
 3145SOL     MW12580   2.145   4.339   0.955
 3146SOL     OW12581   1.986   4.619   1.397
 3146SOL    HW112582   1.984   4.542   1.341
 3146SOL    HW212583   1.898   4.655   1.391
 3146SOL     MW12584   1.975   4.614   1.389
 3147SOL     OW12585   2.279   0.212   5.325
 3147SOL    HW112586   2.345   0.253   5.382
 3147SOL    HW212587   2.290   0.118   5.341
 3147SOL     MW12588   2.289   0.206   5.335
 3148SOL     OW12589   4.151   5.065   2.466
 3148SOL    HW112590   4.058   5.045   2.455
 3148SOL    HW212591   4.154   5.120   2.545
 3148SOL     MW12592   4.139   5.070   2.475
 3149SOL     OW12593   3.542   1.545   4.594
 3149SOL    HW112594   3.636   1.531   4.582
 3149SOL    HW212595   3.518   1.603   4.523
 3149SOL     MW12596   3.551   1.551   4.584
 3150SOL     OW12597   0.335   4.019   0.797
 3150SOL    HW112598   0.332   4.114   0.784
 3150SOL    HW212599   0.404   3.988   0.738
 3150SOL     MW12600   0.343   4.027   0.788
 3151SOL     OW12601   2.289   3.791   0.657
 3151SOL    HW112602   2.245   3.860   0.608
 3151SOL    HW212603   2.324   3.732   0.590
 3151SOL     MW12604   2.288   3.792   0.643
 3152SOL     OW12605   3.226   2.903   2.507
 3152SOL    HW112606   3.270   2.827   2.469
 3152SOL    HW212607   3.190   2.872   2.590
 3152SOL     MW12608   3.227   2.889   2.512
 3153SOL     OW12609   0.853   1.567   2.776
 3153SOL    HW112610   0.761   1.590   2.764
 3153SOL    HW212611   0.853   1.473   2.792
 3153SOL     MW12612   0.841   1.558   2.777
 3154SOL     OW12613   0.080   4.706   4.790
 3154SOL    HW112614   0.024   4.677   4.718
 3154SOL    HW212615   0.149   4.640   4.795
 3154SOL     MW12616   0.082   4.694   4.782
 3155SOL     OW12617   4.498   2.403   3.389
 3155SOL    HW112618   4.543   2.437   3.466
 3155SOL    HW212619   4.440   2.474   3.362
 3155SOL     MW12620   4.497   2.416   3.395
 3156SOL     OW12621   2.110   3.968   3.911
 3156SOL    HW112622   2.091   4.020   3.990
 3156SOL    HW212623   2.197   3.997   3.883
 3156SOL     MW12624   2.119   3.978   3.918
 3157SOL     OW12625   5.185   3.515   2.678
 3157SOL    HW112626   5.093   3.538   2.683
 3157SOL    HW212627   5.232   3.592   2.710
 3157SOL     MW12628   5.179   3.527   2.682
 3158SOL     OW12629   1.500   5.230   1.498
 3158SOL    HW112630   1.423   5.264   1.453
 3158SOL    HW212631   1.467   5.157   1.550
 3158SOL     MW12632   1.486   5.225   1.498
 3159SOL     OW12633   3.987   2.948   0.395
 3159SOL    HW112634   4.072   2.951   0.438
 3159SOL    HW212635   3.990   3.021   0.332
 3159SOL     MW12636   3.998   2.958   0.392
 3160SOL     OW12637   2.440   3.789   4.946
 3160SOL    HW112638   2.494   3.746   4.879
 3160SOL    HW212639   2.415   3.718   5.005
 3160SOL     MW12640   2.444   3.774   4.945
 3161SOL     OW12641   4.856   1.746   1.495
 3161SOL    HW112642   4.891   1.657   1.500
 3161SOL    HW212643   4.764   1.735   1.474
 3161SOL     MW12644   4.849   1.734   1.493
 3162SOL     OW12645   3.130   0.221   4.043
 3162SOL    HW112646   3.184   0.288   4.003
 3162SOL    HW212647   3.106   0.163   3.970
 3162SOL     MW12648   3.134   0.222   4.028
 3163SOL     OW12649   4.694   3.689   0.879
 3163SOL    HW112650   4.665   3.780   0.886
 3163SOL    HW212651   4.788   3.695   0.862
 3163SOL     MW12652   4.703   3.701   0.878
 3164SOL     OW12653   2.050   1.437   2.366
 3164SOL    HW112654   1.982   1.406   2.306
 3164SOL    HW212655   2.010   1.430   2.453
 3164SOL     MW12656   2.036   1.432   2.370
 3165SOL     OW12657   1.157   1.472   4.763
 3165SOL    HW112658   1.209   1.392   4.772
 3165SOL    HW212659   1.131   1.494   4.852
 3165SOL     MW12660   1.160   1.464   4.775
 3166SOL     OW12661   0.775   0.324   3.385
 3166SOL    HW112662   0.742   0.388   3.447
 3166SOL    HW212663   0.699   0.296   3.335
 3166SOL     MW12664   0.761   0.328   3.387
 3167SOL     OW12665   0.589   2.058   2.165
 3167SOL    HW112666   0.624   2.144   2.187
 3167SOL    HW212667   0.506   2.076   2.120
 3167SOL     MW12668   0.582   2.071   2.162
 3168SOL     OW12669   2.983   4.899   3.418
 3168SOL    HW112670   2.903   4.929   3.374
 3168SOL    HW212671   3.014   4.975   3.467
 3168SOL     MW12672   2.977   4.912   3.419
 3169SOL     OW12673   2.892   1.265   2.534
 3169SOL    HW112674   2.825   1.333   2.544
 3169SOL    HW212675   2.973   1.314   2.517
 3169SOL     MW12676   2.894   1.280   2.533
 3170SOL     OW12677   0.059   2.259   2.933
 3170SOL    HW112678   0.042   2.171   2.967
 3170SOL    HW212679   0.139   2.287   2.976
 3170SOL     MW12680   0.067   2.251   2.943
 3171SOL     OW12681   2.405   2.653   1.779
 3171SOL    HW112682   2.450   2.660   1.862
 3171SOL    HW212683   2.312   2.665   1.800
 3171SOL     MW12684   2.399   2.655   1.792
 3172SOL     OW12685   1.679   1.497   4.050
 3172SOL    HW112686   1.654   1.411   4.016
 3172SOL    HW212687   1.639   1.559   3.989
 3172SOL     MW12688   1.671   1.494   4.038
 3173SOL     OW12689   3.591   0.539   0.249
 3173SOL    HW112690   3.509   0.523   0.296
 3173SOL    HW212691   3.660   0.515   0.311
 3173SOL     MW12692   3.590   0.534   0.263
 3174SOL     OW12693   3.851   1.539   4.254
 3174SOL    HW112694   3.924   1.601   4.257
 3174SOL    HW212695   3.892   1.454   4.240
 3174SOL     MW12696   3.866   1.536   4.252
 3175SOL     OW12697   0.202   1.385   1.228
 3175SOL    HW112698   0.132   1.428   1.179
 3175SOL    HW212699   0.186   1.292   1.216
 3175SOL     MW12700   0.191   1.379   1.220
 3176SOL     OW12701   2.340   3.320   2.001
 3176SOL    HW112702   2.402   3.296   1.932
 3176SOL    HW212703   2.254   3.306   1.962
 3176SOL     MW12704   2.337   3.315   1.987
 3177SOL     OW12705   3.657   1.818   2.490
 3177SOL    HW112706   3.632   1.862   2.409
 3177SOL    HW212707   3.576   1.780   2.524
 3177SOL     MW12708   3.643   1.818   2.484
 3178SOL     OW12709   3.623   2.245   3.993
 3178SOL    HW112710   3.658   2.284   4.073
 3178SOL    HW212711   3.579   2.317   3.949
 3178SOL     MW12712   3.622   2.259   3.998
 3179SOL     OW12713   0.597   2.450   2.848
 3179SOL    HW112714   0.654   2.457   2.925
 3179SOL    HW212715   0.643   2.498   2.779
 3179SOL     MW12716   0.611   2.457   2.849
 3180SOL     OW12717   4.501   4.457   3.204
 3180SOL    HW112718   4.582   4.451   3.255
 3180SOL    HW212719   4.435   4.486   3.267
 3180SOL     MW12720   4.503   4.460   3.219
 3181SOL     OW12721   1.098   1.604   2.633
 3181SOL    HW112722   1.091   1.700   2.633
 3181SOL    HW212723   1.037   1.575   2.701
 3181SOL     MW12724   1.089   1.613   2.642
 3182SOL     OW12725   3.612   3.913   2.937
 3182SOL    HW112726   3.596   3.960   3.018
 3182SOL    HW212727   3.678   3.848   2.959
 3182SOL     MW12728   3.618   3.911   2.950
 3183SOL     OW12729   3.812   3.947   2.735
 3183SOL    HW112730   3.734   3.949   2.791
 3183SOL    HW212731   3.779   3.968   2.648
 3183SOL     MW12732   3.798   3.950   2.731
 3184SOL     OW12733   5.096   3.782   1.556
 3184SOL    HW112734   5.088   3.730   1.635
 3184SOL    HW212735   5.017   3.762   1.506
 3184SOL     MW12736   5.085   3.773   1.559
 3185SOL     OW12737   1.127   2.511   1.780
 3185SOL    HW112738   1.187   2.488   1.709
 3185SOL    HW212739   1.092   2.427   1.810
 3185SOL     MW12740   1.130   2.497   1.775
 3186SOL     OW12741   5.200   0.550   1.430
 3186SOL    HW112742   5.295   0.549   1.419
 3186SOL    HW212743   5.165   0.534   1.342
 3186SOL     MW12744   5.207   0.548   1.417
 3187SOL     OW12745   1.846   4.698   3.195
 3187SOL    HW112746   1.902   4.652   3.133
 3187SOL    HW212747   1.829   4.635   3.264
 3187SOL     MW12748   1.851   4.684   3.196
 3188SOL     OW12749   0.483   1.421   2.683
 3188SOL    HW112750   0.481   1.474   2.604
 3188SOL    HW212751   0.548   1.353   2.666
 3188SOL     MW12752   0.491   1.419   2.671
 3189SOL     OW12753   5.378   3.692   2.385
 3189SOL    HW112754   5.356   3.784   2.401
 3189SOL    HW212755   5.461   3.679   2.429
 3189SOL     MW12756   5.385   3.702   2.392
 3190SOL     OW12757   0.203   3.193   4.699
 3190SOL    HW112758   0.260   3.139   4.754
 3190SOL    HW212759   0.136   3.226   4.759
 3190SOL     MW12760   0.202   3.190   4.714
 3191SOL     OW12761   0.818   2.571   5.036
 3191SOL    HW112762   0.781   2.506   5.096
 3191SOL    HW212763   0.871   2.628   5.092
 3191SOL     MW12764   0.820   2.570   5.051
 3192SOL     OW12765   3.480   1.726   4.393
 3192SOL    HW112766   3.448   1.816   4.385
 3192SOL    HW212767   3.459   1.686   4.308
 3192SOL     MW12768   3.473   1.732   4.381
 3193SOL     OW12769   5.035   1.381   2.845
 3193SOL    HW112770   5.043   1.321   2.771
 3193SOL    HW212771   4.958   1.349   2.894
 3193SOL     MW12772   5.026   1.369   2.842
 3194SOL     OW12773   0.081   5.064   0.026
 3194SOL    HW112774   0.121   5.102  -0.052
 3194SOL    HW212775   0.153   5.019   0.071
 3194SOL     MW12776   0.096   5.063   0.022
 3195SOL     OW12777   1.019   3.135   3.913
 3195SOL    HW112778   1.027   3.175   3.827
 3195SOL    HW212779   1.076   3.187   3.970
 3195SOL     MW12780   1.028   3.147   3.909
 3196SOL     OW12781   2.613   4.064   1.732
 3196SOL    HW112782   2.556   4.097   1.800
 3196SOL    HW212783   2.645   4.142   1.687
 3196SOL     MW12784   2.610   4.078   1.735
 3197SOL     OW12785   1.395   0.314   2.022
 3197SOL    HW112786   1.371   0.398   2.060
 3197SOL    HW212787   1.344   0.309   1.941
 3197SOL     MW12788   1.385   0.324   2.016
 3198SOL     OW12789   2.243   2.974   2.626
 3198SOL    HW112790   2.291   3.047   2.667
 3198SOL    HW212791   2.152   3.004   2.624
 3198SOL     MW12792   2.238   2.987   2.631
 3199SOL     OW12793   0.452   5.341   3.549
 3199SOL    HW112794   0.455   5.273   3.617
 3199SOL    HW212795   0.390   5.406   3.583
 3199SOL     MW12796   0.444   5.340   3.562
 3200SOL     OW12797   3.695   2.161   2.471
 3200SOL    HW112798   3.749   2.241   2.473
 3200SOL    HW212799   3.745   2.098   2.523
 3200SOL     MW12800   3.708   2.163   2.478
 3201SOL     OW12801   3.358   3.138   0.511
 3201SOL    HW112802   3.388   3.066   0.457
 3201SOL    HW212803   3.345   3.211   0.450
 3201SOL     MW12804   3.360   3.138   0.496
 3202SOL     OW12805   2.962   4.316   1.801
 3202SOL    HW112806   3.016   4.260   1.746
 3202SOL    HW212807   2.899   4.257   1.843
 3202SOL     MW12808   2.961   4.302   1.800
 3203SOL     OW12809   0.241   2.996   1.803
 3203SOL    HW112810   0.311   2.973   1.742
 3203SOL    HW212811   0.223   2.915   1.851
 3203SOL     MW12812   0.248   2.983   1.802
 3204SOL     OW12813   0.463   5.095   2.307
 3204SOL    HW112814   0.550   5.104   2.268
 3204SOL    HW212815   0.420   5.027   2.255
 3204SOL     MW12816   0.469   5.088   2.295
 3205SOL     OW12817   4.468   4.917   4.222
 3205SOL    HW112818   4.380   4.892   4.248
 3205SOL    HW212819   4.512   4.833   4.204
 3205SOL     MW12820   4.463   4.903   4.223
 3206SOL     OW12821   3.325   4.343   2.919
 3206SOL    HW112822   3.344   4.431   2.887
 3206SOL    HW212823   3.380   4.333   2.997
 3206SOL     MW12824   3.334   4.353   2.925
 3207SOL     OW12825   2.300   1.137   2.118
 3207SOL    HW112826   2.354   1.067   2.153
 3207SOL    HW212827   2.361   1.193   2.070
 3207SOL     MW12828   2.315   1.135   2.116
 3208SOL     OW12829   2.907   3.974   2.327
 3208SOL    HW112830   2.841   3.950   2.391
 3208SOL    HW212831   2.987   3.931   2.357
 3208SOL     MW12832   2.909   3.966   2.339
 3209SOL     OW12833   2.835   0.804   0.882
 3209SOL    HW112834   2.787   0.808   0.964
 3209SOL    HW212835   2.926   0.790   0.907
 3209SOL     MW12836   2.840   0.803   0.895
 3210SOL     OW12837   0.918   3.510   2.070
 3210SOL    HW112838   0.825   3.509   2.046
 3210SOL    HW212839   0.964   3.521   1.986
 3210SOL     MW12840   0.912   3.511   2.056
 3211SOL     OW12841   3.463   1.652   2.256
 3211SOL    HW112842   3.506   1.567   2.260
 3211SOL    HW212843   3.374   1.632   2.227
 3211SOL     MW12844   3.457   1.638   2.253
 3212SOL     OW12845   1.211   2.413   5.360
 3212SOL    HW112846   1.276   2.412   5.289
 3212SOL    HW212847   1.188   2.506   5.370
 3212SOL     MW12848   1.216   2.425   5.352
 3213SOL     OW12849   3.302   1.420   5.168
 3213SOL    HW112850   3.209   1.444   5.162
 3213SOL    HW212851   3.348   1.504   5.163
 3213SOL     MW12852   3.296   1.434   5.167
 3214SOL     OW12853   2.771   0.349   1.706
 3214SOL    HW112854   2.801   0.329   1.794
 3214SOL    HW212855   2.824   0.424   1.679
 3214SOL     MW12856   2.781   0.356   1.714
 3215SOL     OW12857   0.763   2.909   2.995
 3215SOL    HW112858   0.747   2.866   3.079
 3215SOL    HW212859   0.859   2.919   2.992
 3215SOL     MW12860   0.773   2.905   3.006
 3216SOL     OW12861   2.897   0.948   1.334
 3216SOL    HW112862   2.850   1.029   1.311
 3216SOL    HW212863   2.858   0.882   1.277
 3216SOL     MW12864   2.886   0.950   1.324
 3217SOL     OW12865   4.978   4.176   2.075
 3217SOL    HW112866   5.049   4.173   2.140
 3217SOL    HW212867   4.920   4.104   2.100
 3217SOL     MW12868   4.980   4.167   2.087
 3218SOL     OW12869   1.756   2.126   4.691
 3218SOL    HW112870   1.743   2.125   4.786
 3218SOL    HW212871   1.753   2.219   4.667
 3218SOL     MW12872   1.754   2.137   4.700
 3219SOL     OW12873   3.522   5.371   0.913
 3219SOL    HW112874   3.598   5.348   0.966
 3219SOL    HW212875   3.498   5.290   0.868
 3219SOL     MW12876   3.528   5.358   0.914
 3220SOL     OW12877   2.243   2.090   0.377
 3220SOL    HW112878   2.262   2.052   0.463
 3220SOL    HW212879   2.286   2.175   0.378
 3220SOL     MW12880   2.251   2.096   0.388
 3221SOL     OW12881   3.218   1.121   4.234
 3221SOL    HW112882   3.234   1.155   4.322
 3221SOL    HW212883   3.123   1.118   4.227
 3221SOL     MW12884   3.208   1.125   4.245
 3222SOL     OW12885   2.473   3.438   2.771
 3222SOL    HW112886   2.405   3.504   2.783
 3222SOL    HW212887   2.499   3.413   2.859
 3222SOL     MW12888   2.468   3.444   2.784
 3223SOL     OW12889   5.244   4.959   1.261
 3223SOL    HW112890   5.224   4.989   1.173
 3223SOL    HW212891   5.309   4.889   1.249
 3223SOL     MW12892   5.250   4.954   1.248
 3224SOL     OW12893   1.969   5.231   3.871
 3224SOL    HW112894   1.881   5.197   3.853
 3224SOL    HW212895   2.020   5.206   3.794
 3224SOL     MW12896   1.964   5.223   3.859
 3225SOL     OW12897   2.028   3.206   3.366
 3225SOL    HW112898   2.004   3.134   3.308
 3225SOL    HW212899   2.083   3.166   3.433
 3225SOL     MW12900   2.032   3.192   3.367
 3226SOL     OW12901   3.336   0.187   3.491
 3226SOL    HW112902   3.413   0.134   3.470
 3226SOL    HW212903   3.277   0.126   3.536
 3226SOL     MW12904   3.338   0.172   3.494
 3227SOL     OW12905   2.002   4.916   1.845
 3227SOL    HW112906   1.950   4.840   1.872
 3227SOL    HW212907   2.080   4.879   1.804
 3227SOL     MW12908   2.006   4.901   1.843
 3228SOL     OW12909   4.724   0.529   1.371
 3228SOL    HW112910   4.818   0.519   1.388
 3228SOL    HW212911   4.719   0.588   1.296
 3228SOL     MW12912   4.735   0.535   1.363
 3229SOL     OW12913   5.079   4.474   2.050
 3229SOL    HW112914   5.030   4.549   2.018
 3229SOL    HW212915   5.070   4.408   1.981
 3229SOL     MW12916   5.071   4.475   2.037
 3230SOL     OW12917   3.572   0.543   5.279
 3230SOL    HW112918   3.606   0.509   5.361
 3230SOL    HW212919   3.547   0.465   5.229
 3230SOL     MW12920   3.573   0.528   5.283
 3231SOL     OW12921   5.373   5.398   3.506
 3231SOL    HW112922   5.402   5.330   3.567
 3231SOL    HW212923   5.451   5.419   3.454
 3231SOL     MW12924   5.387   5.392   3.507
 3232SOL     OW12925   2.180   1.642   0.407
 3232SOL    HW112926   2.156   1.728   0.373
 3232SOL    HW212927   2.098   1.606   0.441
 3232SOL     MW12928   2.166   1.648   0.407
 3233SOL     OW12929   1.165   0.576   4.711
 3233SOL    HW112930   1.207   0.496   4.681
 3233SOL    HW212931   1.108   0.549   4.783
 3233SOL     MW12932   1.163   0.562   4.716
 3234SOL     OW12933   1.660   0.098   3.426
 3234SOL    HW112934   1.616   0.014   3.442
 3234SOL    HW212935   1.600   0.145   3.368
 3234SOL     MW12936   1.647   0.093   3.420
 3235SOL     OW12937   3.136   2.763   2.734
 3235SOL    HW112938   3.217   2.732   2.775
 3235SOL    HW212939   3.118   2.698   2.666
 3235SOL     MW12940   3.144   2.751   2.730
 3236SOL     OW12941   4.074   3.697   4.056
 3236SOL    HW112942   4.130   3.649   3.994
 3236SOL    HW212943   4.133   3.760   4.097
 3236SOL     MW12944   4.089   3.699   4.053
 3237SOL     OW12945   2.954   1.637   2.483
 3237SOL    HW112946   2.924   1.728   2.477
 3237SOL    HW212947   2.991   1.630   2.571
 3237SOL     MW12948   2.955   1.648   2.494
 3238SOL     OW12949   2.818   3.719   1.025
 3238SOL    HW112950   2.832   3.798   0.972
 3238SOL    HW212951   2.724   3.704   1.021
 3238SOL     MW12952   2.808   3.727   1.018
 3239SOL     OW12953   2.474   2.115   5.095
 3239SOL    HW112954   2.461   2.073   5.010
 3239SOL    HW212955   2.429   2.058   5.158
 3239SOL     MW12956   2.466   2.103   5.092
 3240SOL     OW12957   2.828   3.569   3.236
 3240SOL    HW112958   2.737   3.594   3.219
 3240SOL    HW212959   2.874   3.589   3.155
 3240SOL     MW12960   2.822   3.575   3.223
 3241SOL     OW12961   5.451   0.982   3.934
 3241SOL    HW112962   5.411   1.069   3.924
 3241SOL    HW212963   5.430   0.937   3.852
 3241SOL     MW12964   5.443   0.988   3.923
 3242SOL     OW12965   0.452   2.749   1.314
 3242SOL    HW112966   0.421   2.718   1.229
 3242SOL    HW212967   0.374   2.749   1.369
 3242SOL     MW12968   0.438   2.745   1.310
 3243SOL     OW12969   3.147   5.021   2.278
 3243SOL    HW112970   3.053   5.010   2.294
 3243SOL    HW212971   3.181   4.933   2.265
 3243SOL     MW12972   3.139   5.009   2.278
 3244SOL     OW12973   4.239   3.451   3.392
 3244SOL    HW112974   4.153   3.464   3.433
 3244SOL    HW212975   4.222   3.462   3.299
 3244SOL     MW12976   4.226   3.454   3.385
 3245SOL     OW12977   1.499   3.091   1.140
 3245SOL    HW112978   1.477   3.072   1.231
 3245SOL    HW212979   1.417   3.076   1.092
 3245SOL     MW12980   1.485   3.087   1.145
 3246SOL     OW12981   2.754   0.643   5.194
 3246SOL    HW112982   2.815   0.701   5.239
 3246SOL    HW212983   2.808   0.591   5.135
 3246SOL     MW12984   2.769   0.644   5.192
 3247SOL     OW12985   2.257   2.432   4.615
 3247SOL    HW112986   2.227   2.508   4.564
 3247SOL    HW212987   2.352   2.434   4.606
 3247SOL     MW12988   2.265   2.442   4.607
 3248SOL     OW12989   0.120   3.616   3.989
 3248SOL    HW112990   0.048   3.561   3.958
 3248SOL    HW212991   0.109   3.620   4.084
 3248SOL     MW12992   0.109   3.609   3.997
 3249SOL     OW12993   3.941   0.515   1.013
 3249SOL    HW112994   3.995   0.439   0.994
 3249SOL    HW212995   3.934   0.516   1.108
 3249SOL     MW12996   3.947   0.506   1.023
 3250SOL     OW12997   5.104   4.793   0.129
 3250SOL    HW112998   5.187   4.812   0.087
 3250SOL    HW212999   5.045   4.861   0.097
 3250SOL     MW13000   5.107   4.804   0.120
 3251SOL     OW13001   3.281   4.566   4.498
 3251SOL    HW113002   3.334   4.557   4.578
 3251SOL    HW213003   3.244   4.479   4.485
 3251SOL     MW13004   3.283   4.554   4.507
 3252SOL     OW13005   0.296   2.330   1.125
 3252SOL    HW113006   0.217   2.351   1.176
 3252SOL    HW213007   0.305   2.235   1.133
 3252SOL     MW13008   0.287   2.321   1.133
 3253SOL     OW13009   1.679   1.505   4.491
 3253SOL    HW113010   1.601   1.450   4.482
 3253SOL    HW213011   1.652   1.590   4.458
 3253SOL     MW13012   1.666   1.509   4.485
 3254SOL     OW13013   0.549   4.648   3.073
 3254SOL    HW113014   0.508   4.582   3.018
 3254SOL    HW213015   0.521   4.627   3.162
 3254SOL     MW13016   0.540   4.637   3.077
 3255SOL     OW13017   0.475   0.021   3.162
 3255SOL    HW113018   0.485   0.107   3.203
 3255SOL    HW213019   0.562  -0.019   3.170
 3255SOL     MW13020   0.488   0.027   3.168
 3256SOL     OW13021   3.437   2.042   4.010
 3256SOL    HW113022   3.493   1.964   4.014
 3256SOL    HW213023   3.499   2.115   4.008
 3256SOL     MW13024   3.452   2.041   4.010
 3257SOL     OW13025   5.058   4.032   4.627
 3257SOL    HW113026   5.032   4.072   4.710
 3257SOL    HW213027   5.021   4.090   4.560
 3257SOL     MW13028   5.050   4.045   4.629
 3258SOL     OW13029   4.455   4.275   0.085
 3258SOL    HW113030   4.389   4.338   0.115
 3258SOL    HW213031   4.416   4.190   0.104
 3258SOL     MW13032   4.442   4.272   0.091
 3259SOL     OW13033   3.332   3.795   4.253
 3259SOL    HW113034   3.382   3.771   4.331
 3259SOL    HW213035   3.249   3.828   4.288
 3259SOL     MW13036   3.327   3.796   4.268
 3260SOL     OW13037   3.288   2.996   2.144
 3260SOL    HW113038   3.204   2.990   2.189
 3260SOL    HW213039   3.287   2.923   2.082
 3260SOL     MW13040   3.277   2.986   2.141
 3261SOL     OW13041   3.231   1.955   4.169
 3261SOL    HW113042   3.283   1.966   4.248
 3261SOL    HW213043   3.284   1.997   4.100
 3261SOL     MW13044   3.244   1.962   4.170
 3262SOL     OW13045   5.456   1.302   5.136
 3262SOL    HW113046   5.411   1.366   5.080
 3262SOL    HW213047   5.543   1.339   5.148
 3262SOL     MW13048   5.461   1.315   5.130
 3263SOL     OW13049   4.220   5.255   1.709
 3263SOL    HW113050   4.177   5.291   1.631
 3263SOL    HW213051   4.224   5.161   1.694
 3263SOL     MW13052   4.215   5.248   1.697
 3264SOL     OW13053   3.048   1.512   5.133
 3264SOL    HW113054   3.029   1.563   5.054
 3264SOL    HW213055   2.973   1.454   5.142
 3264SOL     MW13056   3.036   1.511   5.124
 3265SOL     OW13057   0.959   0.743   0.090
 3265SOL    HW113058   0.938   0.722  -0.001
 3265SOL    HW213059   0.955   0.659   0.135
 3265SOL     MW13060   0.956   0.730   0.084
 3266SOL     OW13061   1.740   2.442   1.894
 3266SOL    HW113062   1.703   2.498   1.962
 3266SOL    HW213063   1.833   2.433   1.917
 3266SOL     MW13064   1.747   2.448   1.906
 3267SOL     OW13065   2.364   5.169   3.770
 3267SOL    HW113066   2.367   5.209   3.857
 3267SOL    HW213067   2.274   5.139   3.760
 3267SOL     MW13068   2.353   5.170   3.780
 3268SOL     OW13069   1.236   3.985   0.907
 3268SOL    HW113070   1.158   4.039   0.914
 3268SOL    HW213071   1.304   4.044   0.874
 3268SOL     MW13072   1.235   3.999   0.904
 3269SOL     OW13073   2.517   3.226   0.138
 3269SOL    HW113074   2.509   3.141   0.182
 3269SOL    HW213075   2.428   3.247   0.111
 3269SOL     MW13076   2.505   3.217   0.140
 3270SOL     OW13077   1.509   2.363   1.014
 3270SOL    HW113078   1.507   2.268   1.008
 3270SOL    HW213079   1.446   2.385   1.083
 3270SOL     MW13080   1.501   2.354   1.022
 3271SOL     OW13081   4.073   0.974   3.846
 3271SOL    HW113082   4.149   1.029   3.830
 3271SOL    HW213083   4.073   0.960   3.941
 3271SOL     MW13084   4.083   0.979   3.856
 3272SOL     OW13085   1.979   4.453   4.706
 3272SOL    HW113086   1.890   4.446   4.741
 3272SOL    HW213087   2.036   4.429   4.779
 3272SOL     MW13088   1.975   4.449   4.720
 3273SOL     OW13089   3.371   4.611   2.847
 3273SOL    HW113090   3.450   4.665   2.843
 3273SOL    HW213091   3.334   4.616   2.759
 3273SOL     MW13092   3.376   4.619   2.835
 3274SOL     OW13093   5.000   2.765   2.532
 3274SOL    HW113094   4.993   2.796   2.622
 3274SOL    HW213095   4.939   2.691   2.527
 3274SOL     MW13096   4.991   2.759   2.543
 3275SOL     OW13097   2.099   5.053   5.330
 3275SOL    HW113098   2.036   5.040   5.259
 3275SOL    HW213099   2.184   5.034   5.290
 3275SOL     MW13100   2.102   5.049   5.316
 3276SOL     OW13101   5.287   3.832   0.067
 3276SOL    HW113102   5.281   3.790   0.153
 3276SOL    HW213103   5.381   3.843   0.053
 3276SOL     MW13104   5.298   3.828   0.076
 3277SOL     OW13105   5.479   4.752   3.153
 3277SOL    HW113106   5.436   4.679   3.108
 3277SOL    HW213107   5.499   4.815   3.083
 3277SOL     MW13108   5.476   4.751   3.138
 3278SOL     OW13109   5.371   1.920   0.559
 3278SOL    HW113110   5.365   1.926   0.464
 3278SOL    HW213111   5.453   1.875   0.576
 3278SOL     MW13112   5.381   1.915   0.549
 3279SOL     OW13113   3.789   1.923   1.794
 3279SOL    HW113114   3.793   1.967   1.879
 3279SOL    HW213115   3.868   1.953   1.748
 3279SOL     MW13116   3.800   1.933   1.799
 3280SOL     OW13117   0.688   2.835   3.255
 3280SOL    HW113118   0.647   2.764   3.305
 3280SOL    HW213119   0.623   2.905   3.257
 3280SOL     MW13120   0.674   2.835   3.262
 3281SOL     OW13121   1.297   5.477   0.415
 3281SOL    HW113122   1.371   5.474   0.476
 3281SOL    HW213123   1.220   5.475   0.471
 3281SOL     MW13124   1.297   5.476   0.430
 3282SOL     OW13125   3.795   1.809   4.619
 3282SOL    HW113126   3.794   1.713   4.609
 3282SOL    HW213127   3.772   1.842   4.533
 3282SOL     MW13128   3.792   1.801   4.607
 3283SOL     OW13129   3.038   5.045   2.024
 3283SOL    HW113130   3.090   5.011   1.951
 3283SOL    HW213131   3.098   5.045   2.098
 3283SOL     MW13132   3.052   5.041   2.024
 3284SOL     OW13133   2.111   1.415   1.470
 3284SOL    HW113134   2.034   1.408   1.526
 3284SOL    HW213135   2.166   1.480   1.514
 3284SOL     MW13136   2.108   1.423   1.482
 3285SOL     OW13137   2.196   1.771   3.646
 3285SOL    HW113138   2.183   1.682   3.679
 3285SOL    HW213139   2.108   1.811   3.650
 3285SOL     MW13140   2.183   1.765   3.651
 3286SOL     OW13141   2.353   2.336   0.384
 3286SOL    HW113142   2.442   2.323   0.417
 3286SOL    HW213143   2.364   2.354   0.291
 3286SOL     MW13144   2.366   2.337   0.376
 3287SOL     OW13145   3.423   0.352   0.656
 3287SOL    HW113146   3.423   0.256   0.659
 3287SOL    HW213147   3.435   0.373   0.563
 3287SOL     MW13148   3.424   0.342   0.645
 3288SOL     OW13149   4.819   2.809   4.191
 3288SOL    HW113150   4.728   2.815   4.162
 3288SOL    HW213151   4.816   2.835   4.283
 3288SOL     MW13152   4.807   2.813   4.199
 3289SOL     OW13153   3.305   5.430   2.926
 3289SOL    HW113154   3.391   5.408   2.961
 3289SOL    HW213155   3.323   5.474   2.843
 3289SOL     MW13156   3.318   5.433   2.920
 3290SOL     OW13157   3.789   1.298   0.140
 3290SOL    HW113158   3.766   1.287   0.048
 3290SOL    HW213159   3.873   1.343   0.139
 3290SOL     MW13160   3.796   1.302   0.128
 3291SOL     OW13161   2.595   0.712   4.982
 3291SOL    HW113162   2.644   0.696   5.062
 3291SOL    HW213163   2.655   0.690   4.911
 3291SOL     MW13164   2.609   0.707   4.983
 3292SOL     OW13165   5.154   0.126   5.101
 3292SOL    HW113166   5.216   0.178   5.051
 3292SOL    HW213167   5.185   0.036   5.092
 3292SOL     MW13168   5.166   0.121   5.094
 3293SOL     OW13169   3.062   0.436   1.819
 3293SOL    HW113170   3.041   0.487   1.741
 3293SOL    HW213171   3.134   0.484   1.860
 3293SOL     MW13172   3.068   0.449   1.814
 3294SOL     OW13173   1.378   5.013   0.942
 3294SOL    HW113174   1.377   4.917   0.949
 3294SOL    HW213175   1.468   5.034   0.917
 3294SOL     MW13176   1.389   5.003   0.940
 3295SOL     OW13177   2.505   3.983   2.906
 3295SOL    HW113178   2.589   4.015   2.873
 3295SOL    HW213179   2.519   3.889   2.919
 3295SOL     MW13180   2.518   3.975   2.903
 3296SOL     OW13181   3.515   1.378   2.290
 3296SOL    HW113182   3.589   1.332   2.250
 3296SOL    HW213183   3.537   1.381   2.384
 3296SOL     MW13184   3.527   1.373   2.297
 3297SOL     OW13185   0.988   1.865   5.191
 3297SOL    HW113186   0.983   1.955   5.159
 3297SOL    HW213187   1.032   1.871   5.275
 3297SOL     MW13188   0.993   1.877   5.197
 3298SOL     OW13189   4.544   5.302   5.420
 3298SOL    HW113190   4.539   5.389   5.379
 3298SOL    HW213191   4.463   5.258   5.393
 3298SOL     MW13192   4.533   5.308   5.411
 3299SOL     OW13193   2.885   1.098   0.177
 3299SOL    HW113194   2.805   1.133   0.217
 3299SOL    HW213195   2.861   1.009   0.150
 3299SOL     MW13196   2.871   1.091   0.179
 3300SOL     OW13197   4.651   4.104   4.915
 3300SOL    HW113198   4.690   4.071   4.996
 3300SOL    HW213199   4.557   4.094   4.928
 3300SOL     MW13200   4.644   4.098   4.927
 3301SOL     OW13201   4.194   2.566   0.478
 3301SOL    HW113202   4.135   2.540   0.406
 3301SOL    HW213203   4.174   2.503   0.548
 3301SOL     MW13204   4.184   2.554   0.478
 3302SOL     OW13205   2.909   2.523   3.115
 3302SOL    HW113206   2.915   2.558   3.204
 3302SOL    HW213207   2.817   2.533   3.091
 3302SOL     MW13208   2.898   2.528   3.123
 3303SOL     OW13209   2.471   1.828   0.213
 3303SOL    HW113210   2.442   1.878   0.136
 3303SOL    HW213211   2.493   1.895   0.278
 3303SOL     MW13212   2.470   1.843   0.211
 3304SOL     OW13213   2.010   3.570   5.165
 3304SOL    HW113214   2.024   3.664   5.155
 3304SOL    HW213215   2.088   3.539   5.212
 3304SOL     MW13216   2.022   3.578   5.170
 3305SOL     OW13217   3.579   4.019   3.185
 3305SOL    HW113218   3.558   3.989   3.273
 3305SOL    HW213219   3.628   4.100   3.198
 3305SOL     MW13220   3.582   4.026   3.198
 3306SOL     OW13221   0.613   3.141   0.230
 3306SOL    HW113222   0.521   3.137   0.256
 3306SOL    HW213223   0.611   3.167   0.138
 3306SOL     MW13224   0.601   3.144   0.222
 3307SOL     OW13225   3.498   2.015   0.830
 3307SOL    HW113226   3.496   2.017   0.734
 3307SOL    HW213227   3.579   1.971   0.852
 3307SOL     MW13228   3.508   2.010   0.820
 3308SOL     OW13229   4.422   5.316   0.454
 3308SOL    HW113230   4.457   5.290   0.369
 3308SOL    HW213231   4.351   5.254   0.470
 3308SOL     MW13232   4.418   5.304   0.445
 3309SOL     OW13233   3.886   1.770   1.060
 3309SOL    HW113234   3.945   1.839   1.090
 3309SOL    HW213235   3.942   1.710   1.011
 3309SOL     MW13236   3.901   1.771   1.057
 3310SOL     OW13237   3.852   3.140   0.624
 3310SOL    HW113238   3.758   3.146   0.639
 3310SOL    HW213239   3.873   3.048   0.639
 3310SOL     MW13240   3.843   3.129   0.628
 3311SOL     OW13241   1.924   2.542   3.367
 3311SOL    HW113242   1.835   2.507   3.366
 3311SOL    HW213243   1.937   2.571   3.458
 3311SOL     MW13244   1.914   2.541   3.379
 3312SOL     OW13245   1.975   0.797   1.560
 3312SOL    HW113246   1.960   0.704   1.579
 3312SOL    HW213247   2.018   0.798   1.475
 3312SOL     MW13248   1.978   0.785   1.552
 3313SOL     OW13249   1.781   1.803   3.225
 3313SOL    HW113250   1.863   1.806   3.176
 3313SOL    HW213251   1.748   1.714   3.212
 3313SOL     MW13252   1.788   1.792   3.217
 3314SOL     OW13253   2.165   5.225   1.706
 3314SOL    HW113254   2.206   5.163   1.766
 3314SOL    HW213255   2.083   5.181   1.680
 3314SOL     MW13256   2.160   5.211   1.710
 3315SOL     OW13257   3.451   2.973   3.245
 3315SOL    HW113258   3.386   3.031   3.284
 3315SOL    HW213259   3.400   2.901   3.209
 3315SOL     MW13260   3.437   2.971   3.245
 3316SOL     OW13261   1.404   5.012   1.643
 3316SOL    HW113262   1.336   4.946   1.659
 3316SOL    HW213263   1.429   5.043   1.730
 3316SOL     MW13264   1.399   5.008   1.656
 3317SOL     OW13265   5.053   1.002   5.315
 3317SOL    HW113266   4.970   1.015   5.269
 3317SOL    HW213267   5.072   0.908   5.304
 3317SOL     MW13268   5.045   0.991   5.308
 3318SOL     OW13269   1.294   4.246   2.931
 3318SOL    HW113270   1.232   4.257   2.859
 3318SOL    HW213271   1.274   4.318   2.991
 3318SOL     MW13272   1.283   4.257   2.930
 3319SOL     OW13273   3.649   3.063   2.270
 3319SOL    HW113274   3.572   3.088   2.321
 3319SOL    HW213275   3.642   2.968   2.261
 3319SOL     MW13276   3.638   3.055   2.276
 3320SOL     OW13277   0.487   1.241   1.022
 3320SOL    HW113278   0.438   1.308   0.973
 3320SOL    HW213279   0.435   1.161   1.012
 3320SOL     MW13280   0.474   1.239   1.014
 3321SOL     OW13281   0.118   4.198   1.738
 3321SOL    HW113282   0.027   4.197   1.764
 3321SOL    HW213283   0.167   4.204   1.820
 3321SOL     MW13284   0.113   4.199   1.751
 3322SOL     OW13285   2.424   4.685   4.533
 3322SOL    HW113286   2.515   4.711   4.521
 3322SOL    HW213287   2.405   4.704   4.625
 3322SOL     MW13288   2.433   4.691   4.543
 3323SOL     OW13289   2.030   0.198   5.428
 3323SOL    HW113290   1.978   0.253   5.370
 3323SOL    HW213291   2.119   0.205   5.394
 3323SOL     MW13292   2.035   0.206   5.416
 3324SOL     OW13293   1.485   2.094   0.991
 3324SOL    HW113294   1.473   2.090   0.896
 3324SOL    HW213295   1.411   2.044   1.026
 3324SOL     MW13296   1.474   2.087   0.984
 3325SOL     OW13297   0.487   5.245   0.465
 3325SOL    HW113298   0.481   5.187   0.540
 3325SOL    HW213299   0.487   5.333   0.503
 3325SOL     MW13300   0.486   5.249   0.479
 3326SOL     OW13301   4.331   0.119   1.762
 3326SOL    HW113302   4.349   0.194   1.705
 3326SOL    HW213303   4.350   0.151   1.851
 3326SOL     MW13304   4.336   0.133   1.766
 3327SOL     OW13305   1.630   2.230   1.368
 3327SOL    HW113306   1.702   2.200   1.423
 3327SOL    HW213307   1.596   2.150   1.327
 3327SOL     MW13308   1.635   2.216   1.370
 3328SOL     OW13309   4.786   0.584   3.105
 3328SOL    HW113310   4.801   0.591   3.199
 3328SOL    HW213311   4.728   0.657   3.084
 3328SOL     MW13312   4.781   0.594   3.115
 3329SOL     OW13313   0.642   0.764   2.254
 3329SOL    HW113314   0.676   0.693   2.199
 3329SOL    HW213315   0.564   0.794   2.208
 3329SOL     MW13316   0.636   0.759   2.241
 3330SOL     OW13317   3.306   5.211   5.221
 3330SOL    HW113318   3.266   5.242   5.303
 3330SOL    HW213319   3.340   5.125   5.241
 3330SOL     MW13320   3.305   5.204   5.234
 3331SOL     OW13321   1.219   2.770   4.496
 3331SOL    HW113322   1.224   2.763   4.592
 3331SOL    HW213323   1.126   2.786   4.478
 3331SOL     MW13324   1.207   2.771   4.506
 3332SOL     OW13325   0.898   4.643   1.509
 3332SOL    HW113326   0.918   4.653   1.416
 3332SOL    HW213327   0.946   4.564   1.535
 3332SOL     MW13328   0.907   4.634   1.501
 3333SOL     OW13329   4.571   2.854   4.074
 3333SOL    HW113330   4.607   2.941   4.060
 3333SOL    HW213331   4.492   2.851   4.021
 3333SOL     MW13332   4.566   2.864   4.065
 3334SOL     OW13333   2.870   0.302   1.962
 3334SOL    HW113334   2.943   0.354   1.927
 3334SOL    HW213335   2.899   0.211   1.952
 3334SOL     MW13336   2.883   0.297   1.956
 3335SOL     OW13337   3.180   4.462   1.568
 3335SOL    HW113338   3.098   4.499   1.600
 3335SOL    HW213339   3.175   4.369   1.591
 3335SOL     MW13340   3.169   4.455   1.575
 3336SOL     OW13341   2.998   1.806   3.099
 3336SOL    HW113342   3.090   1.780   3.089
 3336SOL    HW213343   2.991   1.835   3.189
 3336SOL     MW13344   3.009   1.806   3.109
 3337SOL     OW13345   4.109   0.738   2.859
 3337SOL    HW113346   4.073   0.825   2.880
 3337SOL    HW213347   4.032   0.681   2.853
 3337SOL     MW13348   4.095   0.742   2.861
 3338SOL     OW13349   1.067   1.566   1.735
 3338SOL    HW113350   1.030   1.654   1.735
 3338SOL    HW213351   1.126   1.565   1.811
 3338SOL     MW13352   1.070   1.577   1.745
 3339SOL     OW13353   2.464   0.884   0.838
 3339SOL    HW113354   2.490   0.809   0.890
 3339SOL    HW213355   2.536   0.946   0.847
 3339SOL     MW13356   2.476   0.882   0.846
 3340SOL     OW13357   3.450   2.281   0.230
 3340SOL    HW113358   3.425   2.314   0.143
 3340SOL    HW213359   3.466   2.360   0.282
 3340SOL     MW13360   3.449   2.295   0.226
 3341SOL     OW13361   1.210   1.819   0.728
 3341SOL    HW113362   1.302   1.811   0.706
 3341SOL    HW213363   1.182   1.900   0.685
 3341SOL     MW13364   1.218   1.829   0.720
 3342SOL     OW13365   1.256   0.665   0.225
 3342SOL    HW113366   1.262   0.627   0.137
 3342SOL    HW213367   1.184   0.617   0.266
 3342SOL     MW13368   1.247   0.654   0.219
 3343SOL     OW13369   0.733   2.373   5.211
 3343SOL    HW113370   0.670   2.353   5.281
 3343SOL    HW213371   0.818   2.353   5.249
 3343SOL     MW13372   0.736   2.368   5.225
 3344SOL     OW13373   0.863   0.117   1.449
 3344SOL    HW113374   0.914   0.063   1.388
 3344SOL    HW213375   0.921   0.129   1.525
 3344SOL     MW13376   0.877   0.111   1.451
 3345SOL     OW13377   2.880   0.345   4.034
 3345SOL    HW113378   2.808   0.299   4.075
 3345SOL    HW213379   2.958   0.296   4.059
 3345SOL     MW13380   2.881   0.333   4.042
 3346SOL     OW13381   2.005   5.419   5.322
 3346SOL    HW113382   1.937   5.369   5.368
 3346SOL    HW213383   2.002   5.505   5.363
 3346SOL     MW13384   1.996   5.424   5.334
 3347SOL     OW13385   0.499   1.020   4.965
 3347SOL    HW113386   0.507   0.982   4.877
 3347SOL    HW213387   0.436   0.964   5.010
 3347SOL     MW13388   0.492   1.008   4.959
 3348SOL     OW13389   5.437   1.397   3.127
 3348SOL    HW113390   5.444   1.492   3.119
 3348SOL    HW213391   5.353   1.382   3.169
 3348SOL     MW13392   5.427   1.407   3.131
 3349SOL     OW13393   1.615   4.284   2.677
 3349SOL    HW113394   1.525   4.313   2.662
 3349SOL    HW213395   1.668   4.348   2.630
 3349SOL     MW13396   1.610   4.296   2.669
 3350SOL     OW13397   0.729   1.489   0.186
 3350SOL    HW113398   0.675   1.418   0.151
 3350SOL    HW213399   0.724   1.478   0.281
 3350SOL     MW13400   0.721   1.478   0.194
 3351SOL     OW13401   1.858   0.082   2.794
 3351SOL    HW113402   1.887   0.110   2.881
 3351SOL    HW213403   1.765   0.062   2.805
 3351SOL     MW13404   1.850   0.083   2.806
 3352SOL     OW13405   2.951   4.840   0.986
 3352SOL    HW113406   2.919   4.767   0.932
 3352SOL    HW213407   2.872   4.887   1.012
 3352SOL     MW13408   2.937   4.837   0.982
 3353SOL     OW13409   1.701   2.600   2.879
 3353SOL    HW113410   1.675   2.629   2.792
 3353SOL    HW213411   1.707   2.505   2.873
 3353SOL     MW13412   1.698   2.592   2.867
 3354SOL     OW13413   5.252   5.351   1.920
 3354SOL    HW113414   5.266   5.264   1.957
 3354SOL    HW213415   5.171   5.342   1.869
 3354SOL     MW13416   5.243   5.338   1.918
 3355SOL     OW13417   2.319   1.547   1.595
 3355SOL    HW113418   2.309   1.523   1.687
 3355SOL    HW213419   2.369   1.474   1.557
 3355SOL     MW13420   2.324   1.534   1.602
 3356SOL     OW13421   0.372   1.598   4.349
 3356SOL    HW113422   0.438   1.567   4.411
 3356SOL    HW213423   0.377   1.693   4.354
 3356SOL     MW13424   0.381   1.606   4.357
 3357SOL     OW13425   5.430   3.828   1.086
 3357SOL    HW113426   5.503   3.839   1.025
 3357SOL    HW213427   5.441   3.740   1.121
 3357SOL     MW13428   5.441   3.818   1.082
 3358SOL     OW13429   1.131   1.688   2.931
 3358SOL    HW113430   1.207   1.697   2.874
 3358SOL    HW213431   1.120   1.774   2.971
 3358SOL     MW13432   1.139   1.700   2.929
 3359SOL     OW13433   3.936   0.270   4.282
 3359SOL    HW113434   3.894   0.267   4.196
 3359SOL    HW213435   3.872   0.232   4.341
 3359SOL     MW13436   3.923   0.265   4.278
 3360SOL     OW13437   1.794   4.698   4.476
 3360SOL    HW113438   1.808   4.724   4.567
 3360SOL    HW213439   1.875   4.653   4.451
 3360SOL     MW13440   1.806   4.695   4.484
 3361SOL     OW13441   3.883   3.548   2.184
 3361SOL    HW113442   3.884   3.587   2.272
 3361SOL    HW213443   3.864   3.456   2.199
 3361SOL     MW13444   3.881   3.541   2.197
 3362SOL     OW13445   0.060   3.551   2.201
 3362SOL    HW113446   0.129   3.563   2.266
 3362SOL    HW213447  -0.019   3.584   2.245
 3362SOL     MW13448   0.058   3.557   2.215
 3363SOL     OW13449   3.383   5.189   0.173
 3363SOL    HW113450   3.427   5.109   0.144
 3363SOL    HW213451   3.435   5.219   0.248
 3363SOL     MW13452   3.395   5.183   0.179
 3364SOL     OW13453   4.287   0.729   2.382
 3364SOL    HW113454   4.205   0.744   2.335
 3364SOL    HW213455   4.260   0.694   2.467
 3364SOL     MW13456   4.273   0.727   2.387
 3365SOL     OW13457   3.411   1.323   4.691
 3365SOL    HW113458   3.455   1.398   4.651
 3365SOL    HW213459   3.470   1.297   4.762
 3365SOL     MW13460   3.424   1.329   4.695
 3366SOL     OW13461   3.309   1.245   2.519
 3366SOL    HW113462   3.246   1.315   2.500
 3366SOL    HW213463   3.270   1.167   2.482
 3366SOL     MW13464   3.296   1.244   2.512
 3367SOL     OW13465   2.479   4.806   5.390
 3367SOL    HW113466   2.441   4.867   5.327
 3367SOL    HW213467   2.403   4.764   5.431
 3367SOL     MW13468   2.464   4.808   5.387
 3368SOL     OW13469   2.127   1.823   2.597
 3368SOL    HW113470   2.106   1.867   2.679
 3368SOL    HW213471   2.042   1.801   2.558
 3368SOL     MW13472   2.113   1.826   2.602
 3369SOL     OW13473   4.552   3.620   3.615
 3369SOL    HW113474   4.543   3.671   3.696
 3369SOL    HW213475   4.531   3.530   3.641
 3369SOL     MW13476   4.548   3.615   3.629
 3370SOL     OW13477   2.965   1.668   4.922
 3370SOL    HW113478   2.933   1.641   4.836
 3370SOL    HW213479   2.888   1.700   4.968
 3370SOL     MW13480   2.951   1.668   4.917
 3371SOL     OW13481   4.543   4.704   0.231
 3371SOL    HW113482   4.523   4.732   0.321
 3371SOL    HW213483   4.559   4.786   0.184
 3371SOL     MW13484   4.542   4.718   0.237
 3372SOL     OW13485   3.404   0.617   3.761
 3372SOL    HW113486   3.333   0.627   3.697
 3372SOL    HW213487   3.362   0.631   3.846
 3372SOL     MW13488   3.389   0.620   3.764
 3373SOL     OW13489   4.919   5.335   2.502
 3373SOL    HW113490   4.899   5.255   2.549
 3373SOL    HW213491   4.844   5.350   2.445
 3373SOL     MW13492   4.907   5.327   2.500
 3374SOL     OW13493   0.952   3.882   3.611
 3374SOL    HW113494   1.038   3.841   3.604
 3374SOL    HW213495   0.895   3.813   3.644
 3374SOL     MW13496   0.956   3.868   3.614
 3375SOL     OW13497   3.669   0.868   3.510
 3375SOL    HW113498   3.626   0.784   3.520
 3375SOL    HW213499   3.612   0.918   3.452
 3375SOL     MW13500   3.656   0.864   3.504
 3376SOL     OW13501   4.965   1.318   5.182
 3376SOL    HW113502   5.047   1.274   5.159
 3376SOL    HW213503   4.944   1.285   5.270
 3376SOL     MW13504   4.973   1.308   5.190
 3377SOL     OW13505   0.925   0.357   0.789
 3377SOL    HW113506   1.009   0.403   0.785
 3377SOL    HW213507   0.938   0.288   0.854
 3377SOL     MW13508   0.937   0.354   0.797
 3378SOL     OW13509   3.713   0.072   0.705
 3378SOL    HW113510   3.619   0.058   0.708
 3378SOL    HW213511   3.748  -0.006   0.662
 3378SOL     MW13512   3.706   0.060   0.700
 3379SOL     OW13513   2.845   4.625   0.859
 3379SOL    HW113514   2.880   4.536   0.862
 3379SOL    HW213515   2.779   4.628   0.927
 3379SOL     MW13516   2.841   4.614   0.868
 3380SOL     OW13517   4.355   0.938   3.591
 3380SOL    HW113518   4.445   0.962   3.570
 3380SOL    HW213519   4.362   0.852   3.632
 3380SOL     MW13520   4.367   0.930   3.594
 3381SOL     OW13521   4.342   2.956   2.544
 3381SOL    HW113522   4.352   2.870   2.586
 3381SOL    HW213523   4.252   2.955   2.511
 3381SOL     MW13524   4.332   2.945   2.545
 3382SOL     OW13525   3.919   0.131   3.376
 3382SOL    HW113526   3.844   0.109   3.321
 3382SOL    HW213527   3.991   0.143   3.314
 3382SOL     MW13528   3.919   0.130   3.361
 3383SOL     OW13529   0.583   1.051   3.087
 3383SOL    HW113530   0.515   1.104   3.129
 3383SOL    HW213531   0.557   1.046   2.995
 3383SOL     MW13532   0.571   1.057   3.081
 3384SOL     OW13533   0.144   0.007   5.340
 3384SOL    HW113534   0.202   0.047   5.405
 3384SOL    HW213535   0.163   0.056   5.259
 3384SOL     MW13536   0.154   0.019   5.338
 3385SOL     OW13537   1.711   1.881   4.055
 3385SOL    HW113538   1.621   1.871   4.024
 3385SOL    HW213539   1.703   1.910   4.145
 3385SOL     MW13540   1.699   1.883   4.062
 3386SOL     OW13541   4.246   4.518   0.705
 3386SOL    HW113542   4.285   4.493   0.621
 3386SOL    HW213543   4.317   4.507   0.769
 3386SOL     MW13544   4.260   4.513   0.703
 3387SOL     OW13545   0.345   3.112   4.465
 3387SOL    HW113546   0.305   3.157   4.539
 3387SOL    HW213547   0.408   3.175   4.429
 3387SOL     MW13548   0.348   3.126   4.470
 3388SOL     OW13549   3.813   0.787   2.617
 3388SOL    HW113550   3.756   0.831   2.679
 3388SOL    HW213551   3.865   0.857   2.578
 3388SOL     MW13552   3.812   0.802   2.620
 3389SOL     OW13553   0.807   0.806   0.555
 3389SOL    HW113554   0.761   0.890   0.561
 3389SOL    HW213555   0.886   0.824   0.505
 3389SOL     MW13556   0.811   0.819   0.550
 3390SOL     OW13557   4.056   1.807   4.703
 3390SOL    HW113558   4.108   1.767   4.634
 3390SOL    HW213559   3.966   1.806   4.669
 3390SOL     MW13560   4.051   1.802   4.690
 3391SOL     OW13561   1.952   0.142   1.676
 3391SOL    HW113562   2.013   0.194   1.623
 3391SOL    HW213563   1.895   0.100   1.612
 3391SOL     MW13564   1.953   0.144   1.661
 3392SOL     OW13565   2.146   3.195   4.696
 3392SOL    HW113566   2.101   3.120   4.659
 3392SOL    HW213567   2.096   3.271   4.667
 3392SOL     MW13568   2.134   3.195   4.688
 3393SOL     OW13569   2.668   3.797   5.240
 3393SOL    HW113570   2.674   3.725   5.177
 3393SOL    HW213571   2.686   3.876   5.189
 3393SOL     MW13572   2.671   3.798   5.225
 3394SOL     OW13573   5.429   1.811   0.042
 3394SOL    HW113574   5.395   1.875  -0.021
 3394SOL    HW213575   5.416   1.852   0.127
 3394SOL     MW13576   5.423   1.824   0.045
 3395SOL     OW13577   2.229   1.182   2.951
 3395SOL    HW113578   2.182   1.114   2.904
 3395SOL    HW213579   2.204   1.263   2.906
 3395SOL     MW13580   2.220   1.184   2.939
 3396SOL     OW13581   1.348   3.039   5.222
 3396SOL    HW113582   1.363   3.131   5.240
 3396SOL    HW213583   1.421   3.013   5.165
 3396SOL     MW13584   1.359   3.047   5.217
 3397SOL     OW13585   2.078   1.207   3.175
 3397SOL    HW113586   2.132   1.190   3.098
 3397SOL    HW213587   2.092   1.131   3.232
 3397SOL     MW13588   2.087   1.195   3.173
 3398SOL     OW13589   1.217   0.656   0.595
 3398SOL    HW113590   1.224   0.751   0.601
 3398SOL    HW213591   1.301   0.628   0.558
 3398SOL     MW13592   1.229   0.664   0.591
 3399SOL     OW13593   0.311   0.638   1.422
 3399SOL    HW113594   0.293   0.554   1.464
 3399SOL    HW213595   0.382   0.619   1.360
 3399SOL     MW13596   0.318   0.625   1.420
 3400SOL     OW13597   3.514   3.128   1.327
 3400SOL    HW113598   3.439   3.184   1.347
 3400SOL    HW213599   3.485   3.040   1.349
 3400SOL     MW13600   3.501   3.124   1.333
 3401SOL     OW13601   4.915   1.015   0.080
 3401SOL    HW113602   4.975   0.996   0.008
 3401SOL    HW213603   4.971   1.046   0.151
 3401SOL     MW13604   4.930   1.017   0.080
 3402SOL     OW13605   0.334   1.223   2.563
 3402SOL    HW113606   0.373   1.296   2.610
 3402SOL    HW213607   0.316   1.158   2.630
 3402SOL     MW13608   0.336   1.224   2.577
 3403SOL     OW13609   0.643   4.638   4.457
 3403SOL    HW113610   0.597   4.688   4.390
 3403SOL    HW213611   0.732   4.627   4.422
 3403SOL     MW13612   0.649   4.643   4.444
 3404SOL     OW13613   2.913   3.741   4.164
 3404SOL    HW113614   2.964   3.681   4.109
 3404SOL    HW213615   2.850   3.684   4.208
 3404SOL     MW13616   2.912   3.726   4.162
 3405SOL     OW13617   4.572   5.274   1.271
 3405SOL    HW113618   4.616   5.324   1.202
 3405SOL    HW213619   4.643   5.228   1.316
 3405SOL     MW13620   4.587   5.275   1.268
 3406SOL     OW13621   4.362   4.358   1.772
 3406SOL    HW113622   4.286   4.414   1.783
 3406SOL    HW213623   4.384   4.366   1.679
 3406SOL     MW13624   4.355   4.366   1.761
 3407SOL     OW13625   4.699   2.560  -0.009
 3407SOL    HW113626   4.769   2.523   0.045
 3407SOL    HW213627   4.656   2.624   0.049
 3407SOL     MW13628   4.702   2.564   0.006
 3408SOL     OW13629   5.012   4.954   3.118
 3408SOL    HW113630   5.070   4.902   3.173
 3408SOL    HW213631   4.924   4.938   3.153
 3408SOL     MW13632   5.008   4.946   3.129
 3409SOL     OW13633   3.999   3.506   4.237
 3409SOL    HW113634   4.007   3.541   4.326
 3409SOL    HW213635   4.042   3.571   4.181
 3409SOL     MW13636   4.005   3.519   4.241
 3410SOL     OW13637   3.528   2.088   2.798
 3410SOL    HW113638   3.556   1.996   2.798
 3410SOL    HW213639   3.608   2.136   2.777
 3410SOL     MW13640   3.542   2.082   2.795
 3411SOL     OW13641   1.442   2.693   5.408
 3411SOL    HW113642   1.459   2.642   5.487
 3411SOL    HW213643   1.441   2.784   5.437
 3411SOL     MW13644   1.444   2.698   5.421
 3412SOL     OW13645   1.923   5.087   1.653
 3412SOL    HW113646   1.952   5.017   1.711
 3412SOL    HW213647   1.850   5.127   1.699
 3412SOL     MW13648   1.917   5.083   1.666
 3413SOL     OW13649   4.411   1.214   1.345
 3413SOL    HW113650   4.323   1.218   1.383
 3413SOL    HW213651   4.411   1.133   1.295
 3413SOL     MW13652   4.399   1.204   1.344
 3414SOL     OW13653   3.011   3.378   0.133
 3414SOL    HW113654   3.046   3.291   0.148
 3414SOL    HW213655   2.924   3.363   0.097
 3414SOL     MW13656   3.004   3.365   0.130
 3415SOL     OW13657   4.346   0.325   1.584
 3415SOL    HW113658   4.437   0.351   1.597
 3415SOL    HW213659   4.342   0.294   1.494
 3415SOL     MW13660   4.357   0.324   1.574
 3416SOL     OW13661   5.112   0.703   0.429
 3416SOL    HW113662   5.067   0.670   0.351
 3416SOL    HW213663   5.203   0.709   0.403
 3416SOL     MW13664   5.118   0.699   0.415
 3417SOL     OW13665   4.381   3.399   4.707
 3417SOL    HW113666   4.360   3.459   4.779
 3417SOL    HW213667   4.316   3.419   4.639
 3417SOL     MW13668   4.370   3.410   4.708
 3418SOL     OW13669   0.143   3.742   2.849
 3418SOL    HW113670   0.159   3.721   2.941
 3418SOL    HW213671   0.207   3.689   2.801
 3418SOL     MW13672   0.154   3.732   2.855
 3419SOL     OW13673   5.192   5.219   1.361
 3419SOL    HW113674   5.240   5.138   1.345
 3419SOL    HW213675   5.220   5.277   1.290
 3419SOL     MW13676   5.202   5.216   1.350
 3420SOL     OW13677   3.067   1.332   3.830
 3420SOL    HW113678   3.126   1.404   3.851
 3420SOL    HW213679   3.111   1.254   3.864
 3420SOL     MW13680   3.080   1.331   3.837
 3421SOL     OW13681   2.277   1.319   5.363
 3421SOL    HW113682   2.254   1.325   5.456
 3421SOL    HW213683   2.371   1.338   5.360
 3421SOL     MW13684   2.286   1.322   5.375
 3422SOL     OW13685   1.716   0.024   5.228
 3422SOL    HW113686   1.654  -0.012   5.164
 3422SOL    HW213687   1.794   0.045   5.176
 3422SOL     MW13688   1.718   0.022   5.213
 3423SOL     OW13689   4.983   1.526   3.227
 3423SOL    HW113690   4.998   1.593   3.160
 3423SOL    HW213691   4.906   1.478   3.197
 3423SOL     MW13692   4.975   1.529   3.215
 3424SOL     OW13693   1.759   3.062   1.063
 3424SOL    HW113694   1.668   3.061   1.092
 3424SOL    HW213695   1.805   3.004   1.125
 3424SOL     MW13696   1.753   3.054   1.075
 3425SOL     OW13697   3.047   1.263   2.209
 3425SOL    HW113698   2.997   1.305   2.139
 3425SOL    HW213699   2.998   1.183   2.229
 3425SOL     MW13700   3.034   1.258   2.202
 3426SOL     OW13701   5.045   4.826   2.881
 3426SOL    HW113702   5.044   4.879   2.961
 3426SOL    HW213703   5.094   4.879   2.818
 3426SOL     MW13704   5.052   4.840   2.883
 3427SOL     OW13705   0.607   1.383   1.220
 3427SOL    HW113706   0.542   1.445   1.252
 3427SOL    HW213707   0.561   1.335   1.150
 3427SOL     MW13708   0.592   1.384   1.215
 3428SOL     OW13709   0.223   0.917   2.265
 3428SOL    HW113710   0.270   1.000   2.279
 3428SOL    HW213711   0.171   0.933   2.187
 3428SOL     MW13712   0.223   0.930   2.257
 3429SOL     OW13713   4.472   0.285   4.975
 3429SOL    HW113714   4.395   0.253   5.021
 3429SOL    HW213715   4.439   0.320   4.893
 3429SOL     MW13716   4.458   0.285   4.971
 3430SOL     OW13717   0.977   4.191   2.327
 3430SOL    HW113718   0.971   4.102   2.363
 3430SOL    HW213719   0.912   4.241   2.376
 3430SOL     MW13720   0.968   4.186   2.338
 3431SOL     OW13721   1.554   4.339   2.939
 3431SOL    HW113722   1.462   4.316   2.926
 3431SOL    HW213723   1.596   4.321   2.855
 3431SOL     MW13724   1.547   4.334   2.927
 3432SOL     OW13725   3.748   1.684   0.025
 3432SOL    HW113726   3.657   1.707   0.007
 3432SOL    HW213727   3.790   1.766   0.049
 3432SOL     MW13728   3.742   1.697   0.026
 3433SOL     OW13729   5.085   3.738   1.158
 3433SOL    HW113730   5.012   3.748   1.219
 3433SOL    HW213731   5.162   3.731   1.214
 3433SOL     MW13732   5.085   3.738   1.173
 3434SOL     OW13733   0.682   1.308   3.031
 3434SOL    HW113734   0.653   1.220   3.053
 3434SOL    HW213735   0.602   1.356   3.012
 3434SOL     MW13736   0.668   1.303   3.031
 3435SOL     OW13737   2.078   4.158   0.154
 3435SOL    HW113738   2.133   4.090   0.194
 3435SOL    HW213739   2.024   4.111   0.091
 3435SOL     MW13740   2.078   4.143   0.151
 3436SOL     OW13741   2.218   4.219   4.221
 3436SOL    HW113742   2.300   4.172   4.239
 3436SOL    HW213743   2.246   4.307   4.196
 3436SOL     MW13744   2.232   4.224   4.220
 3437SOL     OW13745   4.945   3.012   5.291
 3437SOL    HW113746   5.032   2.981   5.266
 3437SOL    HW213747   4.885   2.948   5.254
 3437SOL     MW13748   4.949   3.000   5.283
 3438SOL     OW13749   4.052   1.691   3.749
 3438SOL    HW113750   3.974   1.746   3.762
 3438SOL    HW213751   4.084   1.674   3.838
 3438SOL     MW13752   4.046   1.696   3.762
 3439SOL     OW13753   3.124   0.685   4.242
 3439SOL    HW113754   3.137   0.594   4.270
 3439SOL    HW213755   3.136   0.737   4.322
 3439SOL     MW13756   3.127   0.680   4.256
 3440SOL     OW13757   0.533   3.323   5.203
 3440SOL    HW113758   0.549   3.412   5.236
 3440SOL    HW213759   0.439   3.310   5.213
 3440SOL     MW13760   0.523   3.333   5.209
 3441SOL     OW13761   0.988   0.918   3.833
 3441SOL    HW113762   1.038   0.942   3.756
 3441SOL    HW213763   0.914   0.979   3.834
 3441SOL     MW13764   0.985   0.929   3.824
 3442SOL     OW13765   3.881   1.675   1.862
 3442SOL    HW113766   3.840   1.757   1.835
 3442SOL    HW213767   3.809   1.612   1.862
 3442SOL     MW13768   3.867   1.677   1.858
 3443SOL     OW13769   3.564   4.530   3.649
 3443SOL    HW113770   3.490   4.474   3.625
 3443SOL    HW213771   3.524   4.602   3.698
 3443SOL     MW13772   3.549   4.532   3.652
 3444SOL     OW13773   1.392   2.422   5.151
 3444SOL    HW113774   1.454   2.349   5.157
 3444SOL    HW213775   1.448   2.500   5.154
 3444SOL     MW13776   1.407   2.423   5.152
 3445SOL     OW13777   5.157   4.578   2.865
 3445SOL    HW113778   5.117   4.665   2.874
 3445SOL    HW213779   5.218   4.573   2.939
 3445SOL     MW13780   5.160   4.589   2.876
 3446SOL     OW13781   2.397   3.553   5.086
 3446SOL    HW113782   2.345   3.506   5.021
 3446SOL    HW213783   2.351   3.537   5.169
 3446SOL     MW13784   2.384   3.544   5.088
 3447SOL     OW13785   4.484   3.437   5.332
 3447SOL    HW113786   4.505   3.359   5.281
 3447SOL    HW213787   4.550   3.501   5.306
 3447SOL     MW13788   4.495   3.435   5.322
 3448SOL     OW13789   1.455   4.075   3.569
 3448SOL    HW113790   1.401   4.096   3.493
 3448SOL    HW213791   1.394   4.039   3.633
 3448SOL     MW13792   1.441   4.073   3.568
 3449SOL     OW13793   4.522   1.318   0.165
 3449SOL    HW113794   4.592   1.266   0.204
 3449SOL    HW213795   4.459   1.254   0.132
 3449SOL     MW13796   4.523   1.304   0.166
 3450SOL     OW13797   3.384   1.982   4.394
 3450SOL    HW113798   3.328   1.990   4.471
 3450SOL    HW213799   3.430   2.066   4.388
 3450SOL     MW13800   3.383   1.994   4.404
 3451SOL     OW13801   4.968   2.586   4.152
 3451SOL    HW113802   4.933   2.523   4.215
 3451SOL    HW213803   4.918   2.666   4.169
 3451SOL     MW13804   4.957   2.588   4.162
 3452SOL     OW13805   3.303   2.692   4.813
 3452SOL    HW113806   3.370   2.645   4.862
 3452SOL    HW213807   3.334   2.691   4.722
 3452SOL     MW13808   3.315   2.686   4.807
 3453SOL     OW13809   2.530   3.564   3.940
 3453SOL    HW113810   2.602   3.510   3.972
 3453SOL    HW213811   2.495   3.515   3.866
 3453SOL     MW13812   2.535   3.551   3.935
 3454SOL     OW13813   4.286   0.056   4.398
 3454SOL    HW113814   4.227   0.032   4.326
 3454SOL    HW213815   4.361  -0.003   4.388
 3454SOL     MW13816   4.288   0.045   4.387
 3455SOL     OW13817   2.372   0.706   2.106
 3455SOL    HW113818   2.402   0.785   2.150
 3455SOL    HW213819   2.383   0.724   2.013
 3455SOL     MW13820   2.377   0.718   2.100
 3456SOL     OW13821   3.590   2.793   2.974
 3456SOL    HW113822   3.544   2.876   2.968
 3456SOL    HW213823   3.661   2.800   2.910
 3456SOL     MW13824   3.593   2.804   2.965
 3457SOL     OW13825   1.627   0.669   2.533
 3457SOL    HW113826   1.694   0.608   2.565
 3457SOL    HW213827   1.655   0.690   2.444
 3457SOL     MW13828   1.639   0.664   2.526
 3458SOL     OW13829   4.629   3.101   1.607
 3458SOL    HW113830   4.590   3.103   1.694
 3458SOL    HW213831   4.651   3.009   1.592
 3458SOL     MW13832   4.627   3.089   1.616
 3459SOL     OW13833   1.785   3.495   3.502
 3459SOL    HW113834   1.880   3.488   3.494
 3459SOL    HW213835   1.768   3.589   3.507
 3459SOL     MW13836   1.795   3.506   3.502
 3460SOL     OW13837   3.476   1.420   3.946
 3460SOL    HW113838   3.495   1.397   3.855
 3460SOL    HW213839   3.523   1.355   3.998
 3460SOL     MW13840   3.484   1.409   3.941
 3461SOL     OW13841   3.661   0.509   1.011
 3461SOL    HW113842   3.756   0.508   0.998
 3461SOL    HW213843   3.626   0.550   0.931
 3461SOL     MW13844   3.668   0.514   0.999
 3462SOL     OW13845   4.749   3.488   3.466
 3462SOL    HW113846   4.702   3.494   3.383
 3462SOL    HW213847   4.697   3.543   3.526
 3462SOL     MW13848   4.736   3.496   3.463
 3463SOL     OW13849   0.573   5.371   4.513
 3463SOL    HW113850   0.596   5.464   4.524
 3463SOL    HW213851   0.646   5.334   4.463
 3463SOL     MW13852   0.585   5.378   4.508
 3464SOL     OW13853   2.887   4.402   0.464
 3464SOL    HW113854   2.938   4.346   0.523
 3464SOL    HW213855   2.835   4.457   0.522
 3464SOL     MW13856   2.887   4.402   0.479
 3465SOL     OW13857   1.384   5.504   1.887
 3465SOL    HW113858   1.316   5.466   1.831
 3465SOL    HW213859   1.421   5.429   1.934
 3465SOL     MW13860   1.380   5.490   1.886
 3466SOL     OW13861   1.354   5.375   0.172
 3466SOL    HW113862   1.400   5.293   0.190
 3466SOL    HW213863   1.327   5.407   0.258
 3466SOL     MW13864   1.357   5.369   0.185
 3467SOL     OW13865   2.223   4.717   1.290
 3467SOL    HW113866   2.147   4.695   1.343
 3467SOL    HW213867   2.293   4.731   1.353
 3467SOL     MW13868   2.222   4.716   1.305
 3468SOL     OW13869   0.997   2.839   0.623
 3468SOL    HW113870   1.040   2.775   0.679
 3468SOL    HW213871   0.974   2.791   0.543
 3468SOL     MW13872   0.999   2.825   0.620
 3469SOL     OW13873   0.785   3.690   3.696
 3469SOL    HW113874   0.709   3.672   3.640
 3469SOL    HW213875   0.838   3.611   3.691
 3469SOL     MW13876   0.782   3.678   3.688
 3470SOL     OW13877   0.361   2.108   0.833
 3470SOL    HW113878   0.287   2.128   0.776
 3470SOL    HW213879   0.420   2.056   0.779
 3470SOL     MW13880   0.359   2.104   0.819
 3471SOL     OW13881   4.376   3.273   1.138
 3471SOL    HW113882   4.434   3.280   1.062
 3471SOL    HW213883   4.428   3.228   1.204
 3471SOL     MW13884   4.390   3.268   1.137
 3472SOL     OW13885   0.958   3.313   5.409
 3472SOL    HW113886   0.995   3.226   5.428
 3472SOL    HW213887   0.863   3.300   5.411
 3472SOL     MW13888   0.951   3.300   5.411
 3473SOL     OW13889   5.021   1.165   1.679
 3473SOL    HW113890   5.107   1.205   1.674
 3473SOL    HW213891   5.030   1.095   1.743
 3473SOL     MW13892   5.033   1.161   1.687
 3474SOL     OW13893   1.583   1.857   4.916
 3474SOL    HW113894   1.592   1.796   4.844
 3474SOL    HW213895   1.566   1.803   4.993
 3474SOL     MW13896   1.582   1.843   4.917
 3475SOL     OW13897   2.736   4.813   3.798
 3475SOL    HW113898   2.767   4.774   3.717
 3475SOL    HW213899   2.701   4.739   3.849
 3475SOL     MW13900   2.736   4.798   3.794
 3476SOL     OW13901   1.512   2.234   4.015
 3476SOL    HW113902   1.460   2.297   3.966
 3476SOL    HW213903   1.453   2.201   4.082
 3476SOL     MW13904   1.498   2.238   4.017
 3477SOL     OW13905   3.238   4.169   5.185
 3477SOL    HW113906   3.333   4.163   5.191
 3477SOL    HW213907   3.209   4.186   5.274
 3477SOL     MW13908   3.247   4.170   5.197
 3478SOL     OW13909   0.493   3.302   0.591
 3478SOL    HW113910   0.510   3.209   0.605
 3478SOL    HW213911   0.562   3.346   0.640
 3478SOL     MW13912   0.504   3.296   0.599
 3479SOL     OW13913   3.284   3.994   0.016
 3479SOL    HW113914   3.240   4.078   0.007
 3479SOL    HW213915   3.215   3.929   0.003
 3479SOL     MW13916   3.269   3.996   0.013
 3480SOL     OW13917   5.287   1.430   1.906
 3480SOL    HW113918   5.228   1.505   1.898
 3480SOL    HW213919   5.234   1.361   1.945
 3480SOL     MW13920   5.273   1.431   1.910
 3481SOL     OW13921   4.832   0.152   4.773
 3481SOL    HW113922   4.755   0.104   4.803
 3481SOL    HW213923   4.901   0.086   4.768
 3481SOL     MW13924   4.831   0.138   4.776
 3482SOL     OW13925   0.177   1.201   0.896
 3482SOL    HW113926   0.095   1.208   0.945
 3482SOL    HW213927   0.214   1.290   0.897
 3482SOL     MW13928   0.172   1.213   0.902
 3483SOL     OW13929   0.354   1.302   1.871
 3483SOL    HW113930   0.414   1.337   1.937
 3483SOL    HW213931   0.406   1.303   1.790
 3483SOL     MW13932   0.369   1.307   1.869
 3484SOL     OW13933   3.139   1.417   1.575
 3484SOL    HW113934   3.143   1.502   1.531
 3484SOL    HW213935   3.150   1.437   1.668
 3484SOL     MW13936   3.141   1.430   1.581
 3485SOL     OW13937   4.170   4.152   1.457
 3485SOL    HW113938   4.087   4.107   1.439
 3485SOL    HW213939   4.157   4.240   1.422
 3485SOL     MW13940   4.157   4.157   1.450
 3486SOL     OW13941   4.335   1.619   1.336
 3486SOL    HW113942   4.295   1.585   1.416
 3486SOL    HW213943   4.425   1.638   1.360
 3486SOL     MW13944   4.341   1.617   1.349
 3487SOL     OW13945   3.331   0.057   4.960
 3487SOL    HW113946   3.279  -0.016   4.925
 3487SOL    HW213947   3.361   0.104   4.883
 3487SOL     MW13948   3.328   0.053   4.946
 3488SOL     OW13949   3.616   2.333   1.032
 3488SOL    HW113950   3.630   2.427   1.037
 3488SOL    HW213951   3.537   2.324   0.979
 3488SOL     MW13952   3.608   2.344   1.026
 3489SOL     OW13953   4.657   1.525   2.740
 3489SOL    HW113954   4.715   1.566   2.805
 3489SOL    HW213955   4.596   1.595   2.716
 3489SOL     MW13956   4.657   1.539   2.746
 3490SOL     OW13957   5.398   3.219   1.952
 3490SOL    HW113958   5.423   3.168   1.875
 3490SOL    HW213959   5.479   3.264   1.977
 3490SOL     MW13960   5.412   3.219   1.945
 3491SOL     OW13961   4.516   3.643   1.228
 3491SOL    HW113962   4.597   3.610   1.266
 3491SOL    HW213963   4.497   3.583   1.156
 3491SOL     MW13964   4.524   3.631   1.224
 3492SOL     OW13965   1.188   0.822   4.309
 3492SOL    HW113966   1.270   0.869   4.321
 3492SOL    HW213967   1.137   0.878   4.251
 3492SOL     MW13968   1.192   0.835   4.303
 3493SOL     OW13969   2.524   1.928   3.155
 3493SOL    HW113970   2.550   2.008   3.202
 3493SOL    HW213971   2.429   1.928   3.160
 3493SOL     MW13972   2.515   1.938   3.162
 3494SOL     OW13973   3.982   4.496   0.448
 3494SOL    HW113974   4.033   4.439   0.389
 3494SOL    HW213975   3.989   4.453   0.534
 3494SOL     MW13976   3.990   4.483   0.452
 3495SOL     OW13977   4.918   2.052   1.855
 3495SOL    HW113978   5.002   2.008   1.842
 3495SOL    HW213979   4.904   2.101   1.774
 3495SOL     MW13980   4.927   2.053   1.843
 3496SOL     OW13981   4.237   1.266   2.128
 3496SOL    HW113982   4.279   1.280   2.043
 3496SOL    HW213983   4.250   1.349   2.175
 3496SOL     MW13984   4.244   1.278   2.123
 3497SOL     OW13985   4.237   0.814   4.715
 3497SOL    HW113986   4.265   0.891   4.764
 3497SOL    HW213987   4.144   0.804   4.738
 3497SOL     MW13988   4.229   0.823   4.724
 3498SOL     OW13989   1.718   0.993   4.862
 3498SOL    HW113990   1.763   0.916   4.896
 3498SOL    HW213991   1.759   1.067   4.908
 3498SOL     MW13992   1.729   0.993   4.872
 3499SOL     OW13993   2.187   1.022   4.750
 3499SOL    HW113994   2.216   1.040   4.660
 3499SOL    HW213995   2.215   1.099   4.800
 3499SOL     MW13996   2.194   1.034   4.745
 3500SOL     OW13997   1.112   4.789   4.061
 3500SOL    HW113998   1.038   4.736   4.029
 3500SOL    HW213999   1.150   4.826   3.981
 3500SOL     MW14000   1.107   4.787   4.046
 3501SOL     OW14001   4.055   1.314   2.586
 3501SOL    HW114002   4.008   1.279   2.661
 3501SOL    HW214003   4.026   1.405   2.580
 3501SOL     MW14004   4.046   1.322   2.595
 3502SOL     OW14005   4.448   1.486   5.073
 3502SOL    HW114006   4.375   1.534   5.034
 3502SOL    HW214007   4.407   1.421   5.129
 3502SOL     MW14008   4.433   1.484   5.076
 3503SOL     OW14009   2.001   3.571   1.979
 3503SOL    HW114010   2.016   3.529   1.894
 3503SOL    HW214011   1.930   3.520   2.018
 3503SOL     MW14012   1.994   3.559   1.973
 3504SOL     OW14013   5.082   2.763   1.040
 3504SOL    HW114014   5.004   2.708   1.037
 3504SOL    HW214015   5.098   2.778   1.134
 3504SOL     MW14016   5.074   2.758   1.052
 3505SOL     OW14017   4.161   2.701   4.047
 3505SOL    HW114018   4.142   2.610   4.024
 3505SOL    HW214019   4.190   2.696   4.139
 3505SOL     MW14020   4.163   2.688   4.056
 3506SOL     OW14021   0.535   5.188   4.021
 3506SOL    HW114022   0.484   5.268   4.010
 3506SOL    HW214023   0.478   5.131   4.073
 3506SOL     MW14024   0.521   5.191   4.027
 3507SOL     OW14025   0.774   3.426   1.734
 3507SOL    HW114026   0.750   3.486   1.663
 3507SOL    HW214027   0.804   3.347   1.690
 3507SOL     MW14028   0.774   3.424   1.719
 3508SOL     OW14029   3.589   3.779   1.822
 3508SOL    HW114030   3.637   3.790   1.740
 3508SOL    HW214031   3.588   3.867   1.861
 3508SOL     MW14032   3.595   3.792   1.816
 3509SOL     OW14033   3.647   0.850   1.664
 3509SOL    HW114034   3.736   0.819   1.650
 3509SOL    HW214035   3.637   0.853   1.759
 3509SOL     MW14036   3.657   0.847   1.674
 3510SOL     OW14037   1.227   0.088   4.545
 3510SOL    HW114038   1.238   0.178   4.578
 3510SOL    HW214039   1.157   0.051   4.599
 3510SOL     MW14040   1.220   0.095   4.556
 3511SOL     OW14041   1.167   1.117   2.749
 3511SOL    HW114042   1.165   1.147   2.658
 3511SOL    HW214043   1.175   1.022   2.742
 3511SOL     MW14044   1.168   1.108   2.736
 3512SOL     OW14045   3.596   2.529   5.376
 3512SOL    HW114046   3.574   2.552   5.286
 3512SOL    HW214047   3.571   2.606   5.427
 3512SOL     MW14048   3.590   2.542   5.371
 3513SOL     OW14049   1.933   1.252   1.069
 3513SOL    HW114050   1.882   1.217   1.141
 3513SOL    HW214051   1.906   1.200   0.993
 3513SOL     MW14052   1.923   1.240   1.068
 3514SOL     OW14053   0.884   4.501   3.344
 3514SOL    HW114054   0.977   4.518   3.337
 3514SOL    HW214055   0.842   4.583   3.317
 3514SOL     MW14056   0.890   4.514   3.340
 3515SOL     OW14057   2.595   0.053   5.437
 3515SOL    HW114058   2.682   0.087   5.416
 3515SOL    HW214059   2.545   0.131   5.462
 3515SOL     MW14060   2.600   0.067   5.438
 3516SOL     OW14061   3.136   3.431   1.691
 3516SOL    HW114062   3.089   3.462   1.768
 3516SOL    HW214063   3.140   3.506   1.632
 3516SOL     MW14064   3.131   3.444   1.693
 3517SOL     OW14065   3.203   3.152   0.744
 3517SOL    HW114066   3.241   3.219   0.800
 3517SOL    HW214067   3.262   3.148   0.668
 3517SOL     MW14068   3.216   3.160   0.741
 3518SOL     OW14069   1.201   4.399   1.393
 3518SOL    HW114070   1.286   4.356   1.403
 3518SOL    HW214071   1.161   4.356   1.317
 3518SOL     MW14072   1.207   4.388   1.384
 3519SOL     OW14073   4.548   0.806   4.472
 3519SOL    HW114074   4.532   0.824   4.379
 3519SOL    HW214075   4.528   0.713   4.481
 3519SOL     MW14076   4.543   0.797   4.461
 3520SOL     OW14077   3.247   2.917   5.137
 3520SOL    HW114078   3.290   2.984   5.190
 3520SOL    HW214079   3.260   2.947   5.047
 3520SOL     MW14080   3.255   2.930   5.132
 3521SOL     OW14081   5.107   4.324   4.661
 3521SOL    HW114082   5.157   4.266   4.605
 3521SOL    HW214083   5.082   4.269   4.736
 3521SOL     MW14084   5.110   4.309   4.664
 3522SOL     OW14085   3.839   4.836   3.673
 3522SOL    HW114086   3.837   4.754   3.622
 3522SOL    HW214087   3.792   4.899   3.618
 3522SOL     MW14088   3.833   4.833   3.659
 3523SOL     OW14089   1.701   4.839   3.917
 3523SOL    HW114090   1.711   4.920   3.967
 3523SOL    HW214091   1.610   4.813   3.931
 3523SOL     MW14092   1.690   4.846   3.925
 3524SOL     OW14093   2.014   4.771   4.206
 3524SOL    HW114094   1.989   4.856   4.242
 3524SOL    HW214095   2.047   4.791   4.118
 3524SOL     MW14096   2.015   4.784   4.199
 3525SOL     OW14097   5.049   4.690   0.940
 3525SOL    HW114098   5.069   4.782   0.957
 3525SOL    HW214099   4.958   4.679   0.969
 3525SOL     MW14100   5.040   4.700   0.946
 3526SOL     OW14101   4.277   4.914   0.233
 3526SOL    HW114102   4.225   4.838   0.207
 3526SOL    HW214103   4.235   4.988   0.188
 3526SOL     MW14104   4.265   4.913   0.224
 3527SOL     OW14105   5.448   2.122   4.731
 3527SOL    HW114106   5.473   2.123   4.638
 3527SOL    HW214107   5.461   2.213   4.760
 3527SOL     MW14108   5.453   2.134   4.723
 3528SOL     OW14109   1.816   0.568   3.628
 3528SOL    HW114110   1.841   0.543   3.539
 3528SOL    HW214111   1.774   0.490   3.665
 3528SOL     MW14112   1.814   0.555   3.622
 3529SOL     OW14113   1.728   4.142   4.377
 3529SOL    HW114114   1.764   4.057   4.350
 3529SOL    HW214115   1.799   4.183   4.427
 3529SOL     MW14116   1.742   4.136   4.380
 3530SOL     OW14117   4.855   4.124   5.410
 3530SOL    HW114118   4.921   4.064   5.443
 3530SOL    HW214119   4.903   4.205   5.391
 3530SOL     MW14120   4.869   4.127   5.411
 3531SOL     OW14121   2.061   3.212   2.357
 3531SOL    HW114122   2.013   3.196   2.276
 3531SOL    HW214123   2.135   3.266   2.331
 3531SOL     MW14124   2.064   3.217   2.343
 3532SOL     OW14125   2.533   3.047   0.999
 3532SOL    HW114126   2.514   3.073   1.089
 3532SOL    HW214127   2.470   2.976   0.982
 3532SOL     MW14128   2.522   3.041   1.008
 3533SOL     OW14129   3.836   4.733   2.264
 3533SOL    HW114130   3.816   4.708   2.354
 3533SOL    HW214131   3.931   4.728   2.258
 3533SOL     MW14132   3.845   4.729   2.275
 3534SOL     OW14133   5.213   3.765   4.233
 3534SOL    HW114134   5.288   3.794   4.181
 3534SOL    HW214135   5.157   3.719   4.170
 3534SOL     MW14136   5.216   3.763   4.218
 3535SOL     OW14137   5.170   4.938   4.033
 3535SOL    HW114138   5.139   5.007   3.975
 3535SOL    HW214139   5.260   4.963   4.054
 3535SOL     MW14140   5.178   4.950   4.028
 3536SOL     OW14141   2.505   3.833   0.391
 3536SOL    HW114142   2.516   3.892   0.466
 3536SOL    HW214143   2.573   3.859   0.330
 3536SOL     MW14144   2.515   3.844   0.393
 3537SOL     OW14145   1.840   2.041   3.876
 3537SOL    HW114146   1.878   1.988   3.805
 3537SOL    HW214147   1.791   1.978   3.929
 3537SOL     MW14148   1.839   2.026   3.874
 3538SOL     OW14149   5.005   2.955   4.054
 3538SOL    HW114150   4.980   2.958   3.962
 3538SOL    HW214151   4.935   2.904   4.097
 3538SOL     MW14152   4.993   2.949   4.048
 3539SOL     OW14153   1.809   3.368   4.791
 3539SOL    HW114154   1.816   3.303   4.861
 3539SOL    HW214155   1.861   3.442   4.822
 3539SOL     MW14156   1.816   3.369   4.804
 3540SOL     OW14157   2.640   2.192   0.160
 3540SOL    HW114158   2.622   2.140   0.082
 3540SOL    HW214159   2.619   2.134   0.233
 3540SOL     MW14160   2.635   2.178   0.159
 3541SOL     OW14161   4.024   0.085   2.897
 3541SOL    HW114162   3.983   0.056   2.815
 3541SOL    HW214163   3.992   0.175   2.909
 3541SOL     MW14164   4.014   0.093   2.888
 3542SOL     OW14165   1.843   0.515   2.233
 3542SOL    HW114166   1.890   0.459   2.295
 3542SOL    HW214167   1.850   0.468   2.150
 3542SOL     MW14168   1.850   0.502   2.231
 3543SOL     OW14169   4.620   2.043   4.110
 3543SOL    HW114170   4.687   2.100   4.148
 3543SOL    HW214171   4.543   2.099   4.101
 3543SOL     MW14172   4.619   2.058   4.113
 3544SOL     OW14173   4.425   2.160   0.256
 3544SOL    HW114174   4.383   2.083   0.218
 3544SOL    HW214175   4.394   2.163   0.347
 3544SOL     MW14176   4.416   2.151   0.263
 3545SOL     OW14177   5.102   4.010   4.243
 3545SOL    HW114178   5.094   4.031   4.150
 3545SOL    HW214179   5.132   3.919   4.245
 3545SOL     MW14180   5.105   4.001   4.232
 3546SOL     OW14181   4.176   2.193   3.507
 3546SOL    HW114182   4.231   2.193   3.429
 3546SOL    HW214183   4.200   2.113   3.553
 3546SOL     MW14184   4.186   2.183   3.503
 3547SOL     OW14185   3.739   3.056   3.884
 3547SOL    HW114186   3.782   3.026   3.804
 3547SOL    HW214187   3.646   3.049   3.866
 3547SOL     MW14188   3.733   3.051   3.872
 3548SOL     OW14189   4.951   3.322   4.262
 3548SOL    HW114190   5.038   3.355   4.284
 3548SOL    HW214191   4.933   3.357   4.175
 3548SOL     MW14192   4.960   3.331   4.254
 3549SOL     OW14193   2.545   2.823   3.002
 3549SOL    HW114194   2.452   2.801   3.010
 3549SOL    HW214195   2.568   2.860   3.088
 3549SOL     MW14196   2.536   2.825   3.014
 3550SOL     OW14197   3.506   2.053   0.563
 3550SOL    HW114198   3.578   2.115   0.575
 3550SOL    HW214199   3.427   2.108   0.559
 3550SOL     MW14200   3.505   2.068   0.564
 3551SOL     OW14201   0.979   3.030   1.489
 3551SOL    HW114202   1.048   2.967   1.471
 3551SOL    HW214203   0.900   2.990   1.453
 3551SOL     MW14204   0.977   3.017   1.482
 3552SOL     OW14205   4.493   2.079   3.103
 3552SOL    HW114206   4.446   1.995   3.107
 3552SOL    HW214207   4.585   2.055   3.106
 3552SOL     MW14208   4.499   2.065   3.104
 3553SOL     OW14209   4.668   2.300   0.246
 3553SOL    HW114210   4.637   2.378   0.292
 3553SOL    HW214211   4.588   2.249   0.230
 3553SOL     MW14212   4.654   2.304   0.250
 3554SOL     OW14213   0.446   1.457   3.625
 3554SOL    HW114214   0.440   1.483   3.717
 3554SOL    HW214215   0.376   1.392   3.614
 3554SOL     MW14216   0.436   1.452   3.635
 3555SOL     OW14217   0.244   5.240   3.822
 3555SOL    HW114218   0.288   5.315   3.862
 3555SOL    HW214219   0.313   5.191   3.778
 3555SOL     MW14220   0.258   5.243   3.822
 3556SOL     OW14221   1.776   3.681   2.931
 3556SOL    HW114222   1.704   3.719   2.981
 3556SOL    HW214223   1.743   3.595   2.904
 3556SOL     MW14224   1.762   3.675   2.934
 3557SOL     OW14225   0.990   5.444   3.519
 3557SOL    HW114226   0.986   5.535   3.490
 3557SOL    HW214227   0.899   5.414   3.515
 3557SOL     MW14228   0.978   5.452   3.514
 3558SOL     OW14229   4.938   1.978   1.292
 3558SOL    HW114230   4.999   2.033   1.243
 3558SOL    HW214231   4.992   1.934   1.357
 3558SOL     MW14232   4.952   1.980   1.294
 3559SOL     OW14233   3.557   4.118   0.817
 3559SOL    HW114234   3.575   4.137   0.910
 3559SOL    HW214235   3.617   4.175   0.769
 3559SOL     MW14236   3.567   4.128   0.823
 3560SOL     OW14237   2.214   4.193   3.107
 3560SOL    HW114238   2.184   4.103   3.100
 3560SOL    HW214239   2.298   4.187   3.151
 3560SOL     MW14240   2.221   4.181   3.112
 3561SOL     OW14241   2.241   3.623   2.111
 3561SOL    HW114242   2.154   3.607   2.075
 3561SOL    HW214243   2.301   3.609   2.038
 3561SOL     MW14244   2.238   3.619   2.097
 3562SOL     OW14245   1.710   2.093   4.968
 3562SOL    HW114246   1.674   2.006   4.950
 3562SOL    HW214247   1.783   2.076   5.027
 3562SOL     MW14248   1.715   2.080   4.973
 3563SOL     OW14249   3.406   3.936   4.032
 3563SOL    HW114250   3.382   3.884   4.110
 3563SOL    HW214251   3.383   4.026   4.055
 3563SOL     MW14252   3.400   3.941   4.045
 3564SOL     OW14253   5.362   5.124   4.961
 3564SOL    HW114254   5.423   5.140   4.890
 3564SOL    HW214255   5.404   5.057   5.015
 3564SOL     MW14256   5.375   5.117   4.959
 3565SOL     OW14257   1.704   2.165   2.427
 3565SOL    HW114258   1.702   2.134   2.337
 3565SOL    HW214259   1.794   2.152   2.456
 3565SOL     MW14260   1.715   2.160   2.419
 3566SOL     OW14261   4.715   0.487   3.763
 3566SOL    HW114262   4.748   0.424   3.827
 3566SOL    HW214263   4.658   0.435   3.706
 3566SOL     MW14264   4.712   0.472   3.764
 3567SOL     OW14265   4.395   3.908   2.608
 3567SOL    HW114266   4.462   3.840   2.613
 3567SOL    HW214267   4.313   3.862   2.626
 3567SOL     MW14268   4.393   3.893   2.611
 3568SOL     OW14269   3.296   5.388   1.836
 3568SOL    HW114270   3.273   5.339   1.756
 3568SOL    HW214271   3.391   5.393   1.834
 3568SOL     MW14272   3.305   5.382   1.825
 3569SOL     OW14273   3.749   3.952   4.935
 3569SOL    HW114274   3.710   4.039   4.924
 3569SOL    HW214275   3.702   3.897   4.872
 3569SOL     MW14276   3.738   3.956   4.926
 3570SOL     OW14277   4.130   4.529   1.017
 3570SOL    HW114278   4.070   4.549   1.088
 3570SOL    HW214279   4.105   4.590   0.947
 3570SOL     MW14280   4.119   4.540   1.017
 3571SOL     OW14281   5.193   3.794   3.647
 3571SOL    HW114282   5.226   3.846   3.720
 3571SOL    HW214283   5.150   3.858   3.590
 3571SOL     MW14284   5.192   3.809   3.649
 3572SOL     OW14285   5.302   4.345   3.256
 3572SOL    HW114286   5.259   4.323   3.339
 3572SOL    HW214287   5.390   4.308   3.264
 3572SOL     MW14288   5.308   4.337   3.268
 3573SOL     OW14289   1.027   0.217   3.408
 3573SOL    HW114290   1.076   0.280   3.460
 3573SOL    HW214291   0.941   0.257   3.396
 3573SOL     MW14292   1.022   0.230   3.413
 3574SOL     OW14293   4.077   1.866   2.306
 3574SOL    HW114294   4.041   1.953   2.290
 3574SOL    HW214295   4.024   1.808   2.252
 3574SOL     MW14296   4.066   1.870   2.297
 3575SOL     OW14297   1.680   4.162   3.447
 3575SOL    HW114298   1.746   4.198   3.506
 3575SOL    HW214299   1.611   4.130   3.505
 3575SOL     MW14300   1.680   4.162   3.462
 3576SOL     OW14301   2.943   4.750   2.975
 3576SOL    HW114302   2.979   4.812   3.039
 3576SOL    HW214303   2.994   4.766   2.896
 3576SOL     MW14304   2.954   4.760   2.973
 3577SOL     OW14305   3.442   1.306   3.155
 3577SOL    HW114306   3.350   1.331   3.148
 3577SOL    HW214307   3.480   1.333   3.071
 3577SOL     MW14308   3.435   1.313   3.143
 3578SOL     OW14309   3.583   2.911   4.889
 3578SOL    HW114310   3.643   2.874   4.953
 3578SOL    HW214311   3.581   2.847   4.818
 3578SOL     MW14312   3.590   2.898   4.888
 3579SOL     OW14313   5.091   4.052   1.487
 3579SOL    HW114314   5.095   3.966   1.528
 3579SOL    HW214315   5.100   4.034   1.394
 3579SOL     MW14316   5.093   4.039   1.481
 3580SOL     OW14317   2.401   2.742   2.652
 3580SOL    HW114318   2.350   2.663   2.671
 3580SOL    HW214319   2.337   2.813   2.656
 3580SOL     MW14320   2.386   2.741   2.655
 3581SOL     OW14321   0.458   0.860   2.630
 3581SOL    HW114322   0.543   0.848   2.589
 3581SOL    HW214323   0.397   0.814   2.573
 3581SOL     MW14324   0.461   0.853   2.618
 3582SOL     OW14325   1.675   3.001   3.900
 3582SOL    HW114326   1.584   2.988   3.924
 3582SOL    HW214327   1.690   3.095   3.912
 3582SOL     MW14328   1.666   3.011   3.904
 3583SOL     OW14329   1.680   0.660   2.874
 3583SOL    HW114330   1.594   0.655   2.832
 3583SOL    HW214331   1.684   0.749   2.909
 3583SOL     MW14332   1.669   0.671   2.873
 3584SOL     OW14333   3.646   4.914   1.488
 3584SOL    HW114334   3.587   4.986   1.509
 3584SOL    HW214335   3.631   4.897   1.395
 3584SOL     MW14336   3.637   4.921   1.479
 3585SOL     OW14337   5.102   3.188   4.947
 3585SOL    HW114338   5.020   3.234   4.932
 3585SOL    HW214339   5.076   3.097   4.960
 3585SOL     MW14340   5.088   3.182   4.947
 3586SOL     OW14341   3.718   0.952   1.068
 3586SOL    HW114342   3.640   0.905   1.098
 3586SOL    HW214343   3.698   0.975   0.977
 3586SOL     MW14344   3.705   0.949   1.060
 3587SOL     OW14345   5.280   4.459   4.812
 3587SOL    HW114346   5.330   4.391   4.858
 3587SOL    HW214347   5.221   4.412   4.755
 3587SOL     MW14348   5.279   4.444   4.811
 3588SOL     OW14349   2.253   1.982   1.415
 3588SOL    HW114350   2.211   2.065   1.436
 3588SOL    HW214351   2.230   1.966   1.324
 3588SOL     MW14352   2.245   1.991   1.406
 3589SOL     OW14353   4.378   4.118   4.934
 3589SOL    HW114354   4.331   4.070   4.866
 3589SOL    HW214355   4.311   4.167   4.981
 3589SOL     MW14356   4.364   4.118   4.932
 3590SOL     OW14357   0.290   0.170   3.007
 3590SOL    HW114358   0.356   0.106   3.035
 3590SOL    HW214359   0.276   0.152   2.915
 3590SOL     MW14360   0.296   0.160   2.999
 3591SOL     OW14361   5.049   5.496   0.154
 3591SOL    HW114362   5.040   5.445   0.235
 3591SOL    HW214363   5.111   5.446   0.101
 3591SOL     MW14364   5.056   5.483   0.158
 3592SOL     OW14365   3.885   1.229   1.336
 3592SOL    HW114366   3.846   1.187   1.413
 3592SOL    HW214367   3.911   1.156   1.279
 3592SOL     MW14368   3.883   1.214   1.339
 3593SOL     OW14369   2.987   3.926   3.780
 3593SOL    HW114370   3.081   3.935   3.797
 3593SOL    HW214371   2.946   3.939   3.866
 3593SOL     MW14372   2.994   3.929   3.794
 3594SOL     OW14373   3.997   3.632   4.486
 3594SOL    HW114374   3.964   3.706   4.435
 3594SOL    HW214375   3.979   3.654   4.577
 3594SOL     MW14376   3.991   3.644   4.491
 3595SOL     OW14377   5.221   4.137   2.219
 3595SOL    HW114378   5.280   4.102   2.153
 3595SOL    HW214379   5.276   4.199   2.269
 3595SOL     MW14380   5.236   4.141   2.217
 3596SOL     OW14381   3.144   0.170   5.128
 3596SOL    HW114382   3.211   0.130   5.071
 3596SOL    HW214383   3.172   0.261   5.138
 3596SOL     MW14384   3.156   0.176   5.122
 3597SOL     OW14385   4.342   4.469   2.981
 3597SOL    HW114386   4.405   4.465   3.054
 3597SOL    HW214387   4.264   4.510   3.019
 3597SOL     MW14388   4.340   4.474   2.995
 3598SOL     OW14389   4.189   0.928   5.107
 3598SOL    HW114390   4.272   0.881   5.109
 3598SOL    HW214391   4.191   0.976   5.024
 3598SOL     MW14392   4.200   0.928   5.097
 3599SOL     OW14393   0.023   3.150   0.553
 3599SOL    HW114394   0.017   3.060   0.522
 3599SOL    HW214395   0.085   3.147   0.625
 3599SOL     MW14396   0.030   3.138   0.558
 3600SOL     OW14397   3.323   5.149   1.047
 3600SOL    HW114398   3.265   5.218   1.016
 3600SOL    HW214399   3.264   5.077   1.072
 3600SOL     MW14400   3.308   5.148   1.046
 3601SOL     OW14401   0.534   5.026   3.163
 3601SOL    HW114402   0.466   4.967   3.131
 3601SOL    HW214403   0.485   5.097   3.205
 3601SOL     MW14404   0.519   5.028   3.164
 3602SOL     OW14405   4.974   4.477   3.037
 3602SOL    HW114406   5.031   4.513   2.969
 3602SOL    HW214407   4.887   4.508   3.015
 3602SOL     MW14408   4.970   4.486   3.026
 3603SOL     OW14409   1.213   1.806   3.619
 3603SOL    HW114410   1.210   1.850   3.704
 3603SOL    HW214411   1.132   1.755   3.616
 3603SOL     MW14412   1.202   1.805   3.629
 3604SOL     OW14413   4.441   1.329   4.419
 3604SOL    HW114414   4.464   1.237   4.435
 3604SOL    HW214415   4.455   1.340   4.325
 3604SOL     MW14416   4.446   1.319   4.409
 3605SOL     OW14417   2.934   4.942   0.148
 3605SOL    HW114418   2.926   4.960   0.242
 3605SOL    HW214419   2.864   4.992   0.107
 3605SOL     MW14420   2.924   4.951   0.155
 3606SOL     OW14421   2.989   2.384   1.908
 3606SOL    HW114422   2.910   2.332   1.922
 3606SOL    HW214423   3.043   2.328   1.852
 3606SOL     MW14424   2.986   2.370   1.902
 3607SOL     OW14425   3.394   3.081   2.379
 3607SOL    HW114426   3.346   3.024   2.440
 3607SOL    HW214427   3.371   3.049   2.292
 3607SOL     MW14428   3.385   3.070   2.376
 3608SOL     OW14429   4.996   4.506   3.779
 3608SOL    HW114430   5.014   4.595   3.809
 3608SOL    HW214431   5.015   4.451   3.855
 3608SOL     MW14432   5.001   4.510   3.793
 3609SOL     OW14433   2.962   4.525   3.392
 3609SOL    HW114434   3.055   4.532   3.416
 3609SOL    HW214435   2.946   4.431   3.383
 3609SOL     MW14436   2.972   4.514   3.394
 3610SOL     OW14437   3.736   3.558   4.224
 3610SOL    HW114438   3.706   3.543   4.313
 3610SOL    HW214439   3.828   3.533   4.225
 3610SOL     MW14440   3.744   3.553   4.235
 3611SOL     OW14441   4.727   0.851   0.226
 3611SOL    HW114442   4.729   0.775   0.167
 3611SOL    HW214443   4.804   0.902   0.202
 3611SOL     MW14444   4.737   0.848   0.216
 3612SOL     OW14445   1.110   5.420   0.984
 3612SOL    HW114446   1.050   5.379   0.921
 3612SOL    HW214447   1.066   5.411   1.069
 3612SOL     MW14448   1.097   5.413   0.987
 3613SOL     OW14449   2.573   4.397   5.128
 3613SOL    HW114450   2.620   4.481   5.124
 3613SOL    HW214451   2.628   4.341   5.182
 3613SOL     MW14452   2.586   4.401   5.134
 3614SOL     OW14453   4.150   4.573   4.262
 3614SOL    HW114454   4.188   4.494   4.300
 3614SOL    HW214455   4.198   4.585   4.180
 3614SOL     MW14456   4.161   4.564   4.256
 3615SOL     OW14457   2.369   1.703   4.025
 3615SOL    HW114458   2.386   1.764   3.954
 3615SOL    HW214459   2.440   1.719   4.088
 3615SOL     MW14460   2.381   1.713   4.024
 3616SOL     OW14461   3.138   2.196   1.736
 3616SOL    HW114462   3.071   2.135   1.766
 3616SOL    HW214463   3.105   2.229   1.652
 3616SOL     MW14464   3.125   2.192   1.729
 3617SOL     OW14465   2.493   0.987   2.628
 3617SOL    HW114466   2.556   0.921   2.600
 3617SOL    HW214467   2.432   0.941   2.685
 3617SOL     MW14468   2.493   0.973   2.632
 3618SOL     OW14469   2.076   0.481   3.674
 3618SOL    HW114470   1.987   0.513   3.662
 3618SOL    HW214471   2.067   0.399   3.722
 3618SOL     MW14472   2.063   0.475   3.678
 3619SOL     OW14473   1.333   0.567   2.108
 3619SOL    HW114474   1.377   0.611   2.035
 3619SOL    HW214475   1.277   0.634   2.146
 3619SOL     MW14476   1.332   0.581   2.104
 3620SOL     OW14477   2.890   1.355   1.636
 3620SOL    HW114478   2.834   1.336   1.560
 3620SOL    HW214479   2.974   1.379   1.598
 3620SOL     MW14480   2.893   1.356   1.621
 3621SOL     OW14481   4.988   3.195   1.886
 3621SOL    HW114482   5.019   3.113   1.922
 3621SOL    HW214483   4.954   3.172   1.799
 3621SOL     MW14484   4.988   3.182   1.879
 3622SOL     OW14485   0.501   4.569   4.042
 3622SOL    HW114486   0.561   4.614   3.982
 3622SOL    HW214487   0.539   4.482   4.052
 3622SOL     MW14488   0.513   4.564   4.036
 3623SOL     OW14489   4.288   0.177   5.156
 3623SOL    HW114490   4.225   0.175   5.084
 3623SOL    HW214491   4.267   0.257   5.205
 3623SOL     MW14492   4.277   0.187   5.153
 3624SOL     OW14493   3.403   2.129   2.222
 3624SOL    HW114494   3.313   2.148   2.250
 3624SOL    HW214495   3.444   2.215   2.214
 3624SOL     MW14496   3.397   2.142   2.225
 3625SOL     OW14497   3.245   0.559   2.659
 3625SOL    HW114498   3.208   0.618   2.725
 3625SOL    HW214499   3.197   0.579   2.579
 3625SOL     MW14500   3.234   0.569   2.657
 3626SOL     OW14501   4.863   0.542   4.555
 3626SOL    HW114502   4.936   0.481   4.539
 3626SOL    HW214503   4.815   0.544   4.473
 3626SOL     MW14504   4.866   0.534   4.543
 3627SOL     OW14505   5.272   1.916   1.032
 3627SOL    HW114506   5.289   1.855   1.104
 3627SOL    HW214507   5.243   1.860   0.960
 3627SOL     MW14508   5.271   1.901   1.032
 3628SOL     OW14509   1.556   3.570   2.128
 3628SOL    HW114510   1.492   3.502   2.148
 3628SOL    HW214511   1.522   3.611   2.048
 3628SOL     MW14512   1.543   3.567   2.120
 3629SOL     OW14513   0.536   0.108   4.118
 3629SOL    HW114514   0.491   0.084   4.199
 3629SOL    HW214515   0.627   0.081   4.132
 3629SOL     MW14516   0.542   0.101   4.130
 3630SOL     OW14517   4.294   4.399   5.260
 3630SOL    HW114518   4.201   4.405   5.281
 3630SOL    HW214519   4.300   4.430   5.169
 3630SOL     MW14520   4.283   4.403   5.251
 3631SOL     OW14521   3.000   4.678   1.217
 3631SOL    HW114522   2.986   4.718   1.131
 3631SOL    HW214523   3.000   4.752   1.278
 3631SOL     MW14524   2.998   4.693   1.214
 3632SOL     OW14525   2.175   4.971   0.098
 3632SOL    HW114526   2.138   4.998   0.014
 3632SOL    HW214527   2.199   4.879   0.085
 3632SOL     MW14528   2.173   4.963   0.086
 3633SOL     OW14529   2.897   0.805   4.128
 3633SOL    HW114530   2.837   0.838   4.195
 3633SOL    HW214531   2.971   0.771   4.178
 3633SOL     MW14532   2.898   0.805   4.143
 3634SOL     OW14533   3.609   2.598   4.249
 3634SOL    HW114534   3.664   2.525   4.222
 3634SOL    HW214535   3.667   2.657   4.296
 3634SOL     MW14536   3.623   2.596   4.251
 3635SOL     OW14537   0.077   3.367   1.737
 3635SOL    HW114538   0.111   3.375   1.827
 3635SOL    HW214539   0.023   3.444   1.724
 3635SOL     MW14540   0.075   3.378   1.747
 3636SOL     OW14541   2.395   3.644   1.884
 3636SOL    HW114542   2.329   3.711   1.864
 3636SOL    HW214543   2.475   3.694   1.903
 3636SOL     MW14544   2.397   3.659   1.884
 3637SOL     OW14545   0.102   2.582   3.920
 3637SOL    HW114546   0.074   2.509   3.866
 3637SOL    HW214547   0.138   2.646   3.858
 3637SOL     MW14548   0.103   2.581   3.905
 3638SOL     OW14549   1.835   0.836   0.552
 3638SOL    HW114550   1.923   0.858   0.583
 3638SOL    HW214551   1.792   0.796   0.628
 3638SOL     MW14552   1.840   0.833   0.566
 3639SOL     OW14553   3.872   5.375   3.013
 3639SOL    HW114554   3.926   5.447   2.982
 3639SOL    HW214555   3.813   5.356   2.940
 3639SOL     MW14556   3.872   5.382   2.999
 3640SOL     OW14557   2.542   2.402   4.597
 3640SOL    HW114558   2.510   2.312   4.598
 3640SOL    HW214559   2.604   2.406   4.670
 3640SOL     MW14560   2.546   2.391   4.606
 3641SOL     OW14561   4.242   1.636   4.974
 3641SOL    HW114562   4.229   1.668   5.063
 3641SOL    HW214563   4.267   1.714   4.924
 3641SOL     MW14564   4.243   1.650   4.979
 3642SOL     OW14565   0.735   1.101   4.544
 3642SOL    HW114566   0.727   1.182   4.595
 3642SOL    HW214567   0.645   1.076   4.525
 3642SOL     MW14568   0.723   1.109   4.548
 3643SOL     OW14569   5.210   5.064   2.022
 3643SOL    HW114570   5.217   4.981   2.070
 3643SOL    HW214571   5.143   5.047   1.956
 3643SOL     MW14572   5.203   5.051   2.019
 3644SOL     OW14573   5.057   3.224   3.326
 3644SOL    HW114574   5.123   3.215   3.258
 3644SOL    HW214575   5.015   3.309   3.309
 3644SOL     MW14576   5.060   3.234   3.315
 3645SOL     OW14577   4.463   1.986   2.111
 3645SOL    HW114578   4.554   1.966   2.132
 3645SOL    HW214579   4.413   1.956   2.187
 3645SOL     MW14580   4.468   1.980   2.123
 3646SOL     OW14581   1.447   3.291   2.431
 3646SOL    HW114582   1.438   3.341   2.512
 3646SOL    HW214583   1.542   3.279   2.421
 3646SOL     MW14584   1.458   3.295   2.440
 3647SOL     OW14585   4.299   2.631   0.064
 3647SOL    HW114586   4.318   2.542   0.095
 3647SOL    HW214587   4.211   2.625   0.027
 3647SOL     MW14588   4.290   2.619   0.063
 3648SOL     OW14589   3.564   5.353   2.574
 3648SOL    HW114590   3.474   5.325   2.591
 3648SOL    HW214591   3.555   5.439   2.534
 3648SOL     MW14592   3.551   5.360   2.571
 3649SOL     OW14593   0.132   1.122   1.245
 3649SOL    HW114594   0.038   1.112   1.258
 3649SOL    HW214595   0.167   1.033   1.252
 3649SOL     MW14596   0.125   1.109   1.247
 3650SOL     OW14597   1.547   4.788   4.235
 3650SOL    HW114598   1.551   4.833   4.320
 3650SOL    HW214599   1.633   4.747   4.225
 3650SOL     MW14600   1.559   4.789   4.245
 3651SOL     OW14601   2.824   0.399   2.236
 3651SOL    HW114602   2.837   0.357   2.151
 3651SOL    HW214603   2.896   0.367   2.290
 3651SOL     MW14604   2.835   0.389   2.232
 3652SOL     OW14605   0.973   5.004   5.158
 3652SOL    HW114606   0.959   4.957   5.241
 3652SOL    HW214607   0.900   5.067   5.154
 3652SOL     MW14608   0.962   5.006   5.168
 3653SOL     OW14609   3.384   2.347   3.357
 3653SOL    HW114610   3.315   2.340   3.423
 3653SOL    HW214611   3.464   2.361   3.408
 3653SOL     MW14612   3.385   2.348   3.372
 3654SOL     OW14613   1.027   1.876   2.638
 3654SOL    HW114614   0.976   1.910   2.565
 3654SOL    HW214615   0.967   1.877   2.712
 3654SOL     MW14616   1.013   1.881   2.638
 3655SOL     OW14617   0.148   3.653   0.702
 3655SOL    HW114618   0.133   3.736   0.746
 3655SOL    HW214619   0.108   3.588   0.759
 3655SOL     MW14620   0.141   3.655   0.715
 3656SOL     OW14621   2.199   3.829   1.841
 3656SOL    HW114622   2.217   3.911   1.887
 3656SOL    HW214623   2.105   3.815   1.854
 3656SOL     MW14624   2.189   3.838   1.849
 3657SOL     OW14625   4.731   1.065   0.524
 3657SOL    HW114626   4.823   1.054   0.549
 3657SOL    HW214627   4.695   0.976   0.524
 3657SOL     MW14628   4.738   1.052   0.527
 3658SOL     OW14629   1.717   4.490   5.039
 3658SOL    HW114630   1.656   4.563   5.049
 3658SOL    HW214631   1.715   4.470   4.945
 3658SOL     MW14632   1.709   4.496   5.028
 3659SOL     OW14633   3.372   2.426   2.862
 3659SOL    HW114634   3.353   2.518   2.876
 3659SOL    HW214635   3.287   2.387   2.839
 3659SOL     MW14636   3.359   2.432   2.861
 3660SOL     OW14637   3.991   1.793   4.295
 3660SOL    HW114638   3.901   1.796   4.327
 3660SOL    HW214639   3.987   1.839   4.211
 3660SOL     MW14640   3.979   1.799   4.288
 3661SOL     OW14641   4.716   3.782   3.103
 3661SOL    HW114642   4.707   3.699   3.149
 3661SOL    HW214643   4.648   3.779   3.035
 3661SOL     MW14644   4.706   3.771   3.100
 3662SOL     OW14645   2.955   2.516   4.238
 3662SOL    HW114646   2.966   2.509   4.143
 3662SOL    HW214647   2.864   2.490   4.254
 3662SOL     MW14648   2.945   2.512   4.228
 3663SOL     OW14649   3.741   1.547   0.258
 3663SOL    HW114650   3.749   1.597   0.177
 3663SOL    HW214651   3.751   1.456   0.230
 3663SOL     MW14652   3.743   1.541   0.244
 3664SOL     OW14653   2.393   2.200   1.076
 3664SOL    HW114654   2.426   2.155   1.154
 3664SOL    HW214655   2.354   2.281   1.110
 3664SOL     MW14656   2.392   2.205   1.090
 3665SOL     OW14657   0.704   1.457   0.462
 3665SOL    HW114658   0.760   1.534   0.473
 3665SOL    HW214659   0.760   1.383   0.484
 3665SOL     MW14660   0.718   1.457   0.466
 3666SOL     OW14661   4.458   1.804   1.900
 3666SOL    HW114662   4.439   1.858   1.977
 3666SOL    HW214663   4.552   1.810   1.889
 3666SOL     MW14664   4.467   1.811   1.908
 3667SOL     OW14665   0.699   2.697   1.401
 3667SOL    HW114666   0.610   2.708   1.369
 3667SOL    HW214667   0.690   2.684   1.496
 3667SOL     MW14668   0.687   2.697   1.409
 3668SOL     OW14669   0.424   4.326   1.379
 3668SOL    HW114670   0.353   4.263   1.366
 3668SOL    HW214671   0.451   4.312   1.470
 3668SOL     MW14672   0.418   4.316   1.389
 3669SOL     OW14673   3.858   4.799   4.536
 3669SOL    HW114674   3.872   4.740   4.610
 3669SOL    HW214675   3.863   4.743   4.459
 3669SOL     MW14676   3.861   4.785   4.536
 3670SOL     OW14677   2.670   0.972   0.472
 3670SOL    HW114678   2.738   0.972   0.540
 3670SOL    HW214679   2.681   0.888   0.427
 3670SOL     MW14680   2.680   0.961   0.475
 3671SOL     OW14681   4.894   3.914   2.934
 3671SOL    HW114682   4.877   3.882   2.845
 3671SOL    HW214683   4.841   3.859   2.990
 3671SOL     MW14684   4.885   3.903   2.929
 3672SOL     OW14685   3.664   2.604   1.038
 3672SOL    HW114686   3.612   2.666   0.987
 3672SOL    HW214687   3.753   2.611   1.004
 3672SOL     MW14688   3.669   2.613   1.027
 3673SOL     OW14689   0.477   5.062   4.787
 3673SOL    HW114690   0.394   5.013   4.787
 3673SOL    HW214691   0.525   5.027   4.862
 3673SOL     MW14692   0.472   5.051   4.797
 3674SOL     OW14693   0.111   0.936   2.006
 3674SOL    HW114694   0.066   0.982   1.935
 3674SOL    HW214695   0.140   0.854   1.967
 3674SOL     MW14696   0.109   0.931   1.992
 3675SOL     OW14697   1.050   2.893   1.821
 3675SOL    HW114698   0.955   2.895   1.834
 3675SOL    HW214699   1.082   2.828   1.884
 3675SOL     MW14700   1.042   2.884   1.830
 3676SOL     OW14701   5.310   0.410   2.504
 3676SOL    HW114702   5.306   0.423   2.409
 3676SOL    HW214703   5.292   0.317   2.516
 3676SOL     MW14704   5.307   0.400   2.493
 3677SOL     OW14705   3.986   0.370   3.733
 3677SOL    HW114706   3.979   0.433   3.804
 3677SOL    HW214707   3.897   0.337   3.721
 3677SOL     MW14708   3.974   0.374   3.741
 3678SOL     OW14709   2.794   3.068   3.079
 3678SOL    HW114710   2.737   3.069   3.002
 3678SOL    HW214711   2.740   3.028   3.148
 3678SOL     MW14712   2.780   3.063   3.078
 3679SOL     OW14713   4.708   2.840   1.553
 3679SOL    HW114714   4.658   2.818   1.474
 3679SOL    HW214715   4.788   2.788   1.545
 3679SOL     MW14716   4.712   2.830   1.542
 3680SOL     OW14717   2.798   2.598   1.889
 3680SOL    HW114718   2.805   2.638   1.803
 3680SOL    HW214719   2.866   2.531   1.892
 3680SOL     MW14720   2.807   2.594   1.879
 3681SOL     OW14721   1.295   0.844   1.585
 3681SOL    HW114722   1.391   0.844   1.582
 3681SOL    HW214723   1.268   0.854   1.494
 3681SOL     MW14724   1.304   0.846   1.573
 3682SOL     OW14725   4.150   3.288   1.514
 3682SOL    HW114726   4.178   3.304   1.424
 3682SOL    HW214727   4.055   3.303   1.513
 3682SOL     MW14728   4.141   3.292   1.502
 3683SOL     OW14729   0.848   0.479   0.040
 3683SOL    HW114730   0.904   0.417  -0.008
 3683SOL    HW214731   0.827   0.547  -0.024
 3683SOL     MW14732   0.853   0.480   0.026
 3684SOL     OW14733   5.117   2.910   4.312
 3684SOL    HW114734   5.096   2.929   4.221
 3684SOL    HW214735   5.167   2.828   4.309
 3684SOL     MW14736   5.121   2.902   4.300
 3685SOL     OW14737   3.709   2.229   0.623
 3685SOL    HW114738   3.670   2.317   0.628
 3685SOL    HW214739   3.737   2.211   0.713
 3685SOL     MW14740   3.707   2.238   0.635
 3686SOL     OW14741   1.125   2.685   1.991
 3686SOL    HW114742   1.200   2.656   2.044
 3686SOL    HW214743   1.122   2.622   1.919
 3686SOL     MW14744   1.134   2.673   1.989
 3687SOL     OW14745   0.952   4.904   4.357
 3687SOL    HW114746   0.866   4.929   4.325
 3687SOL    HW214747   0.956   4.938   4.446
 3687SOL     MW14748   0.942   4.911   4.364
 3688SOL     OW14749   4.665   0.141   2.964
 3688SOL    HW114750   4.754   0.168   2.944
 3688SOL    HW214751   4.620   0.222   2.989
 3688SOL     MW14752   4.671   0.155   2.965
 3689SOL     OW14753   1.208   2.142   2.660
 3689SOL    HW114754   1.279   2.205   2.673
 3689SOL    HW214755   1.176   2.160   2.572
 3689SOL     MW14756   1.213   2.152   2.651
 3690SOL     OW14757   3.709   4.740   2.023
 3690SOL    HW114758   3.762   4.746   2.103
 3690SOL    HW214759   3.773   4.734   1.952
 3690SOL     MW14760   3.724   4.740   2.024
 3691SOL     OW14761   3.363   2.531   1.616
 3691SOL    HW114762   3.336   2.506   1.527
 3691SOL    HW214763   3.288   2.578   1.652
 3691SOL     MW14764   3.350   2.534   1.609
 3692SOL     OW14765   5.215   4.341   0.946
 3692SOL    HW114766   5.179   4.263   0.905
 3692SOL    HW214767   5.172   4.345   1.032
 3692SOL     MW14768   5.205   4.332   0.952
 3693SOL     OW14769   0.675   1.039   0.579
 3693SOL    HW114770   0.600   1.039   0.520
 3693SOL    HW214771   0.640   1.012   0.663
 3693SOL     MW14772   0.661   1.036   0.582
 3694SOL     OW14773   3.003   3.245   0.575
 3694SOL    HW114774   3.072   3.211   0.632
 3694SOL    HW214775   3.046   3.313   0.523
 3694SOL     MW14776   3.018   3.249   0.576
 3695SOL     OW14777   3.439   1.398   1.518
 3695SOL    HW114778   3.394   1.369   1.439
 3695SOL    HW214779   3.443   1.494   1.510
 3695SOL     MW14780   3.434   1.407   1.507
 3696SOL     OW14781   4.514   1.927   1.432
 3696SOL    HW114782   4.539   1.835   1.441
 3696SOL    HW214783   4.427   1.925   1.392
 3696SOL     MW14784   4.506   1.915   1.428
 3697SOL     OW14785   5.143   0.484   5.315
 3697SOL    HW114786   5.221   0.448   5.272
 3697SOL    HW214787   5.089   0.407   5.334
 3697SOL     MW14788   5.146   0.469   5.312
 3698SOL     OW14789   3.071   5.139   3.843
 3698SOL    HW114790   3.137   5.146   3.912
 3698SOL    HW214791   3.039   5.049   3.849
 3698SOL     MW14792   3.075   5.129   3.853
 3699SOL     OW14793   0.531   4.470   4.798
 3699SOL    HW114794   0.625   4.450   4.792
 3699SOL    HW214795   0.498   4.456   4.710
 3699SOL     MW14796   0.539   4.466   4.786
 3700SOL     OW14797   4.721   2.321   1.235
 3700SOL    HW114798   4.741   2.278   1.152
 3700SOL    HW214799   4.711   2.250   1.298
 3700SOL     MW14800   4.722   2.307   1.232
 3701SOL     OW14801   0.360   4.803   1.748
 3701SOL    HW114802   0.368   4.858   1.670
 3701SOL    HW214803   0.326   4.862   1.815
 3701SOL     MW14804   0.356   4.817   1.747
 3702SOL     OW14805   1.151   3.286   4.102
 3702SOL    HW114806   1.193   3.371   4.088
 3702SOL    HW214807   1.170   3.264   4.193
 3702SOL     MW14808   1.159   3.294   4.111
 3703SOL     OW14809   1.612   2.148   3.773
 3703SOL    HW114810   1.570   2.170   3.856
 3703SOL    HW214811   1.699   2.115   3.798
 3703SOL     MW14812   1.618   2.146   3.787
 3704SOL     OW14813   4.427   1.062   4.497
 3704SOL    HW114814   4.364   1.047   4.427
 3704SOL    HW214815   4.475   0.980   4.505
 3704SOL     MW14816   4.425   1.050   4.489
 3705SOL     OW14817   0.705   1.122   1.267
 3705SOL    HW114818   0.706   1.095   1.175
 3705SOL    HW214819   0.683   1.215   1.264
 3705SOL     MW14820   0.703   1.130   1.255
 3706SOL     OW14821   5.302   0.647   4.938
 3706SOL    HW114822   5.330   0.681   5.023
 3706SOL    HW214823   5.241   0.576   4.959
 3706SOL     MW14824   5.298   0.642   4.952
 3707SOL     OW14825   4.537   5.237   0.209
 3707SOL    HW114826   4.534   5.275   0.121
 3707SOL    HW214827   4.548   5.143   0.194
 3707SOL     MW14828   4.538   5.230   0.196
 3708SOL     OW14829   1.627   3.419   4.391
 3708SOL    HW114830   1.701   3.476   4.410
 3708SOL    HW214831   1.659   3.331   4.406
 3708SOL     MW14832   1.640   3.415   4.395
 3709SOL     OW14833   2.211   4.640   5.245
 3709SOL    HW114834   2.256   4.556   5.256
 3709SOL    HW214835   2.119   4.617   5.240
 3709SOL     MW14836   2.205   4.626   5.246
 3710SOL     OW14837   2.054   3.458   0.827
 3710SOL    HW114838   1.985   3.454   0.893
 3710SOL    HW214839   2.075   3.367   0.807
 3710SOL     MW14840   2.048   3.446   0.833
 3711SOL     OW14841   3.763   2.181   5.201
 3711SOL    HW114842   3.738   2.107   5.257
 3711SOL    HW214843   3.781   2.142   5.116
 3711SOL     MW14844   3.762   2.167   5.197
 3712SOL     OW14845   4.016   0.011   0.386
 3712SOL    HW114846   3.974   0.025   0.301
 3712SOL    HW214847   3.950  -0.034   0.439
 3712SOL     MW14848   4.002   0.007   0.382
 3713SOL     OW14849   1.742   4.361   5.417
 3713SOL    HW114850   1.676   4.412   5.370
 3713SOL    HW214851   1.767   4.417   5.491
 3713SOL     MW14852   1.737   4.375   5.420
 3714SOL     OW14853   2.607   5.064   0.389
 3714SOL    HW114854   2.681   5.124   0.387
 3714SOL    HW214855   2.555   5.093   0.465
 3714SOL     MW14856   2.610   5.075   0.399
 3715SOL     OW14857   1.917   4.227   4.558
 3715SOL    HW114858   1.912   4.157   4.623
 3715SOL    HW214859   1.946   4.304   4.607
 3715SOL     MW14860   1.920   4.228   4.573
 3716SOL     OW14861   3.422   4.358   5.421
 3716SOL    HW114862   3.420   4.382   5.328
 3716SOL    HW214863   3.513   4.337   5.438
 3716SOL     MW14864   3.433   4.359   5.411
 3717SOL     OW14865   3.194   4.156   2.712
 3717SOL    HW114866   3.256   4.211   2.760
 3717SOL    HW214867   3.226   4.156   2.622
 3717SOL     MW14868   3.206   4.163   2.707
 3718SOL     OW14869   3.875   3.097   1.722
 3718SOL    HW114870   3.832   3.021   1.762
 3718SOL    HW214871   3.825   3.114   1.642
 3718SOL     MW14872   3.863   3.089   1.717
 3719SOL     OW14873   4.848   0.684   3.638
 3719SOL    HW114874   4.800   0.613   3.681
 3719SOL    HW214875   4.821   0.680   3.547
 3719SOL     MW14876   4.838   0.674   3.632
 3720SOL     OW14877   3.685   3.181   3.526
 3720SOL    HW114878   3.595   3.176   3.560
 3720SOL    HW214879   3.675   3.224   3.441
 3720SOL     MW14880   3.672   3.186   3.519
 3721SOL     OW14881   2.983   4.009   3.408
 3721SOL    HW114882   2.959   3.955   3.333
 3721SOL    HW214883   2.916   3.990   3.475
 3721SOL     MW14884   2.971   4.000   3.407
 3722SOL     OW14885   2.975   5.093   2.890
 3722SOL    HW114886   2.915   5.152   2.845
 3722SOL    HW214887   2.961   5.111   2.983
 3722SOL     MW14888   2.965   5.103   2.896
 3723SOL     OW14889   4.541   3.193   2.131
 3723SOL    HW114890   4.636   3.202   2.123
 3723SOL    HW214891   4.529   3.122   2.194
 3723SOL     MW14892   4.552   3.185   2.138
 3724SOL     OW14893   2.272   4.485   4.428
 3724SOL    HW114894   2.316   4.555   4.476
 3724SOL    HW214895   2.179   4.508   4.433
 3724SOL     MW14896   2.266   4.497   4.435
 3725SOL     OW14897   4.176   3.759   4.892
 3725SOL    HW114898   4.104   3.724   4.840
 3725SOL    HW214899   4.237   3.686   4.900
 3725SOL     MW14900   4.175   3.745   4.887
 3726SOL     OW14901   1.876   3.795   0.136
 3726SOL    HW114902   1.898   3.750   0.218
 3726SOL    HW214903   1.828   3.730   0.085
 3726SOL     MW14904   1.873   3.781   0.140
 3727SOL     OW14905   3.872   2.413   3.844
 3727SOL    HW114906   3.812   2.424   3.918
 3727SOL    HW214907   3.823   2.446   3.769
 3727SOL     MW14908   3.858   2.419   3.844
 3728SOL     OW14909   3.782   5.150   0.444
 3728SOL    HW114910   3.861   5.114   0.405
 3728SOL    HW214911   3.735   5.074   0.479
 3728SOL     MW14912   3.786   5.136   0.444
 3729SOL     OW14913   4.474   1.569   0.977
 3729SOL    HW114914   4.525   1.521   0.912
 3729SOL    HW214915   4.435   1.501   1.032
 3729SOL     MW14916   4.475   1.554   0.976
 3730SOL     OW14917   1.142   5.006   0.050
 3730SOL    HW114918   1.139   4.948   0.126
 3730SOL    HW214919   1.098   5.086   0.079
 3730SOL     MW14920   1.136   5.008   0.063
 3731SOL     OW14921   4.266   2.987   0.891
 3731SOL    HW114922   4.209   3.049   0.937
 3731SOL    HW214923   4.206   2.932   0.842
 3731SOL     MW14924   4.251   2.988   0.891
 3732SOL     OW14925   5.004   2.011   0.450
 3732SOL    HW114926   5.071   2.074   0.426
 3732SOL    HW214927   4.932   2.028   0.389
 3732SOL     MW14928   5.003   2.022   0.439
 3733SOL     OW14929   4.777   1.282   1.630
 3733SOL    HW114930   4.731   1.285   1.714
 3733SOL    HW214931   4.857   1.233   1.647
 3733SOL     MW14932   4.781   1.276   1.643
 3734SOL     OW14933   2.683   3.606   0.366
 3734SOL    HW114934   2.607   3.654   0.399
 3734SOL    HW214935   2.652   3.517   0.352
 3734SOL     MW14936   2.670   3.601   0.368
 3735SOL     OW14937   0.513   4.463   2.502
 3735SOL    HW114938   0.536   4.547   2.541
 3735SOL    HW214939   0.487   4.484   2.412
 3735SOL     MW14940   0.512   4.476   2.495
 3736SOL     OW14941   3.484   3.412   5.266
 3736SOL    HW114942   3.550   3.352   5.303
 3736SOL    HW214943   3.509   3.498   5.300
 3736SOL     MW14944   3.496   3.415   5.275
 3737SOL     OW14945   3.835   1.690   0.666
 3737SOL    HW114946   3.884   1.772   0.681
 3737SOL    HW214947   3.810   1.693   0.574
 3737SOL     MW14948   3.838   1.701   0.656
 3738SOL     OW14949   2.832   3.332   2.047
 3738SOL    HW114950   2.878   3.323   2.130
 3738SOL    HW214951   2.760   3.393   2.065
 3738SOL     MW14952   2.828   3.339   2.060
 3739SOL     OW14953   3.834   2.583   0.703
 3739SOL    HW114954   3.869   2.568   0.791
 3739SOL    HW214955   3.748   2.541   0.703
 3739SOL     MW14956   3.828   2.576   0.714
 3740SOL     OW14957   0.119   3.876   0.867
 3740SOL    HW114958   0.194   3.930   0.840
 3740SOL    HW214959   0.043   3.929   0.843
 3740SOL     MW14960   0.119   3.890   0.861
 3741SOL     OW14961   0.369   0.247   2.340
 3741SOL    HW114962   0.447   0.288   2.302
 3741SOL    HW214963   0.400   0.209   2.423
 3741SOL     MW14964   0.383   0.247   2.346
 3742SOL     OW14965   5.120   3.146   2.697
 3742SOL    HW114966   5.177   3.073   2.675
 3742SOL    HW214967   5.171   3.198   2.759
 3742SOL     MW14968   5.134   3.144   2.702
 3743SOL     OW14969   4.266   1.517   0.803
 3743SOL    HW114970   4.271   1.422   0.794
 3743SOL    HW214971   4.337   1.539   0.863
 3743SOL     MW14972   4.276   1.508   0.810
 3744SOL     OW14973   3.685   4.566   5.351
 3744SOL    HW114974   3.747   4.566   5.278
 3744SOL    HW214975   3.606   4.606   5.316
 3744SOL     MW14976   3.683   4.571   5.337
 3745SOL     OW14977   4.063   5.329   1.301
 3745SOL    HW114978   4.056   5.401   1.238
 3745SOL    HW214979   4.099   5.369   1.380
 3745SOL     MW14980   4.066   5.343   1.303
 3746SOL     OW14981   3.004   4.556   4.060
 3746SOL    HW114982   3.100   4.554   4.059
 3746SOL    HW214983   2.982   4.644   4.091
 3746SOL     MW14984   3.014   4.567   4.064
 3747SOL     OW14985   1.209   0.898   5.217
 3747SOL    HW114986   1.136   0.894   5.156
 3747SOL    HW214987   1.228   0.992   5.226
 3747SOL     MW14988   1.202   0.910   5.211
 3748SOL     OW14989   3.678   3.255   5.372
 3748SOL    HW114990   3.737   3.203   5.318
 3748SOL    HW214991   3.705   3.237   5.462
 3748SOL     MW14992   3.689   3.246   5.377
 3749SOL     OW14993   4.747   0.509   4.289
 3749SOL    HW114994   4.735   0.418   4.264
 3749SOL    HW214995   4.714   0.559   4.215
 3749SOL     MW14996   4.741   0.504   4.277
 3750SOL     OW14997   1.534   3.491   4.142
 3750SOL    HW114998   1.561   3.468   4.231
 3750SOL    HW214999   1.606   3.544   4.108
 3750SOL     MW15000   1.547   3.495   4.149
 3751SOL     OW15001   1.833   4.955   1.429
 3751SOL    HW115002   1.762   5.008   1.391
 3751SOL    HW215003   1.857   5.000   1.509
 3751SOL     MW15004   1.827   4.967   1.434
 3752SOL     OW15005   0.785   0.788   5.008
 3752SOL    HW115006   0.858   0.848   5.001
 3752SOL    HW215007   0.773   0.752   4.920
 3752SOL     MW15008   0.793   0.791   4.996
 3753SOL     OW15009   4.085   1.615   2.945
 3753SOL    HW115010   4.134   1.626   2.864
 3753SOL    HW215011   4.138   1.555   2.997
 3753SOL     MW15012   4.098   1.609   2.942
 3754SOL     OW15013   3.662   1.414   2.529
 3754SOL    HW115014   3.658   1.463   2.611
 3754SOL    HW215015   3.706   1.473   2.468
 3754SOL     MW15016   3.667   1.428   2.532
 3755SOL     OW15017   2.097   5.141   3.643
 3755SOL    HW115018   2.029   5.076   3.626
 3755SOL    HW215019   2.064   5.222   3.604
 3755SOL     MW15020   2.084   5.143   3.636
 3756SOL     OW15021   1.443   0.973   0.380
 3756SOL    HW115022   1.413   1.064   0.383
 3756SOL    HW215023   1.446   0.952   0.286
 3756SOL     MW15024   1.439   0.982   0.368
 3757SOL     OW15025   1.480   3.228   1.748
 3757SOL    HW115026   1.518   3.237   1.661
 3757SOL    HW215027   1.413   3.296   1.753
 3757SOL     MW15028   1.476   3.238   1.738
 3758SOL     OW15029   1.610   3.050   2.921
 3758SOL    HW115030   1.600   3.089   3.008
 3758SOL    HW215031   1.522   3.022   2.897
 3758SOL     MW15032   1.598   3.051   2.929
 3759SOL     OW15033   0.741   5.156   5.173
 3759SOL    HW115034   0.714   5.247   5.189
 3759SOL    HW215035   0.686   5.104   5.231
 3759SOL     MW15036   0.730   5.161   5.182
 3760SOL     OW15037   2.625   4.583   3.902
 3760SOL    HW115038   2.659   4.507   3.855
 3760SOL    HW215039   2.599   4.548   3.987
 3760SOL     MW15040   2.626   4.569   3.907
 3761SOL     OW15041   4.533   3.713   4.717
 3761SOL    HW115042   4.563   3.644   4.658
 3761SOL    HW215043   4.598   3.782   4.708
 3761SOL     MW15044   4.545   3.713   4.709
 3762SOL     OW15045   5.046   4.263   1.155
 3762SOL    HW115046   5.064   4.310   1.237
 3762SOL    HW215047   5.080   4.175   1.171
 3762SOL     MW15048   5.053   4.258   1.168
 3763SOL     OW15049   2.742   2.703   4.790
 3763SOL    HW115050   2.702   2.787   4.813
 3763SOL    HW215051   2.832   2.710   4.821
 3763SOL     MW15052   2.748   2.714   4.797
 3764SOL     OW15053   3.965   3.762   1.456
 3764SOL    HW115054   3.961   3.695   1.387
 3764SOL    HW215055   3.881   3.754   1.501
 3764SOL     MW15056   3.954   3.752   1.453
 3765SOL     OW15057   2.417   3.442   4.700
 3765SOL    HW115058   2.349   3.427   4.765
 3765SOL    HW215059   2.394   3.383   4.628
 3765SOL     MW15060   2.405   3.432   4.699
 3766SOL     OW15061   3.357   1.849   0.994
 3766SOL    HW115062   3.268   1.852   0.959
 3766SOL    HW215063   3.406   1.910   0.938
 3766SOL     MW15064   3.352   1.857   0.982
 3767SOL     OW15065   0.607   5.180   2.915
 3767SOL    HW115066   0.513   5.173   2.932
 3767SOL    HW215067   0.648   5.159   3.000
 3767SOL     MW15068   0.600   5.176   2.928
 3768SOL     OW15069   3.318   1.259   2.138
 3768SOL    HW115070   3.230   1.245   2.175
 3768SOL    HW215071   3.369   1.293   2.211
 3768SOL     MW15072   3.313   1.262   2.152
 3769SOL     OW15073   2.566   1.434   3.539
 3769SOL    HW115074   2.471   1.437   3.551
 3769SOL    HW215075   2.581   1.352   3.492
 3769SOL     MW15076   2.556   1.424   3.534
 3770SOL     OW15077   3.969   3.889   3.328
 3770SOL    HW115078   3.955   3.959   3.264
 3770SOL    HW215079   3.928   3.921   3.408
 3770SOL     MW15080   3.962   3.902   3.330
 3771SOL     OW15081   1.410   5.492   1.195
 3771SOL    HW115082   1.501   5.474   1.217
 3771SOL    HW215083   1.400   5.456   1.106
 3771SOL     MW15084   1.420   5.485   1.186
 3772SOL     OW15085   0.451   5.120   4.518
 3772SOL    HW115086   0.479   5.211   4.515
 3772SOL    HW215087   0.451   5.097   4.612
 3772SOL     MW15088   0.455   5.128   4.530
 3773SOL     OW15089   3.164   2.605   1.184
 3773SOL    HW115090   3.168   2.552   1.104
 3773SOL    HW215091   3.207   2.551   1.250
 3773SOL     MW15092   3.170   2.591   1.182
 3774SOL     OW15093   0.650   1.194   4.105
 3774SOL    HW115094   0.588   1.134   4.064
 3774SOL    HW215095   0.705   1.138   4.160
 3774SOL     MW15096   0.650   1.180   4.107
 3775SOL     OW15097   1.536   2.001   5.340
 3775SOL    HW115098   1.461   1.945   5.360
 3775SOL    HW215099   1.607   1.966   5.395
 3775SOL     MW15100   1.536   1.989   5.349
 3776SOL     OW15101   4.626   3.954   3.296
 3776SOL    HW115102   4.701   3.977   3.350
 3776SOL    HW215103   4.658   3.887   3.236
 3776SOL     MW15104   4.639   3.949   3.295
 3777SOL     OW15105   0.831   4.361   2.497
 3777SOL    HW115106   0.878   4.443   2.479
 3777SOL    HW215107   0.787   4.376   2.581
 3777SOL     MW15108   0.831   4.374   2.505
 3778SOL     OW15109   2.439   0.849   4.426
 3778SOL    HW115110   2.524   0.863   4.385
 3778SOL    HW215111   2.401   0.774   4.379
 3778SOL     MW15112   2.445   0.841   4.414
 3779SOL     OW15113   0.897   2.523   0.153
 3779SOL    HW115114   0.874   2.545   0.063
 3779SOL    HW215115   0.815   2.536   0.202
 3779SOL     MW15116   0.883   2.527   0.148
 3780SOL     OW15117   4.675   5.425   1.066
 3780SOL    HW115118   4.628   5.502   1.034
 3780SOL    HW215119   4.661   5.359   0.998
 3780SOL     MW15120   4.667   5.427   1.053
 3781SOL     OW15121   5.186   2.193   4.265
 3781SOL    HW115122   5.270   2.148   4.257
 3781SOL    HW215123   5.143   2.180   4.181
 3781SOL     MW15124   5.191   2.186   4.253
 3782SOL     OW15125   0.346   5.339   2.279
 3782SOL    HW115126   0.383   5.251   2.282
 3782SOL    HW215127   0.273   5.335   2.342
 3782SOL     MW15128   0.341   5.327   2.288
 3783SOL     OW15129   4.222   4.318   4.011
 3783SOL    HW115130   4.128   4.302   4.009
 3783SOL    HW215131   4.245   4.315   4.104
 3783SOL     MW15132   4.213   4.315   4.023
 3784SOL     OW15133   5.314   0.935   0.870
 3784SOL    HW115134   5.357   1.007   0.915
 3784SOL    HW215135   5.297   0.870   0.938
 3784SOL     MW15136   5.317   0.936   0.884
 3785SOL     OW15137   2.770   5.017   3.292
 3785SOL    HW115138   2.829   5.075   3.245
 3785SOL    HW215139   2.749   5.065   3.372
 3785SOL     MW15140   2.774   5.030   3.296
 3786SOL     OW15141   1.695   0.433   5.067
 3786SOL    HW115142   1.743   0.451   4.986
 3786SOL    HW215143   1.687   0.518   5.110
 3786SOL     MW15144   1.700   0.446   5.062
 3787SOL     OW15145   1.270   1.513   2.231
 3787SOL    HW115146   1.323   1.507   2.311
 3787SOL    HW215147   1.196   1.454   2.246
 3787SOL     MW15148   1.267   1.505   2.243
 3788SOL     OW15149   2.896   0.458   5.415
 3788SOL    HW115150   2.867   0.422   5.331
 3788SOL    HW215151   2.926   0.546   5.394
 3788SOL     MW15152   2.896   0.465   5.402
 3789SOL     OW15153   3.556   4.909   2.556
 3789SOL    HW115154   3.486   4.961   2.516
 3789SOL    HW215155   3.554   4.825   2.510
 3789SOL     MW15156   3.547   4.905   2.545
 3790SOL     OW15157   1.510  -0.006   2.329
 3790SOL    HW115158   1.435   0.019   2.275
 3790SOL    HW215159   1.544   0.077   2.363
 3790SOL     MW15160   1.505   0.008   2.327
 3791SOL     OW15161   0.782   0.085   0.185
 3791SOL    HW115162   0.866   0.113   0.220
 3791SOL    HW215163   0.728   0.165   0.185
 3791SOL     MW15164   0.786   0.099   0.189
 3792SOL     OW15165   1.395   2.350   0.544
 3792SOL    HW115166   1.485   2.380   0.537
 3792SOL    HW215167   1.346   2.427   0.573
 3792SOL     MW15168   1.400   2.363   0.547
 3793SOL     OW15169   4.999   4.701   1.326
 3793SOL    HW115170   5.067   4.665   1.270
 3793SOL    HW215171   5.025   4.677   1.415
 3793SOL     MW15172   5.011   4.693   1.330
 3794SOL     OW15173   1.706   1.572   2.497
 3794SOL    HW115174   1.683   1.492   2.449
 3794SOL    HW215175   1.643   1.637   2.467
 3794SOL     MW15176   1.695   1.570   2.487
 3795SOL     OW15177   4.399   0.115   0.443
 3795SOL    HW115178   4.392   0.020   0.455
 3795SOL    HW215179   4.404   0.150   0.532
 3795SOL     MW15180   4.399   0.107   0.456
 3796SOL     OW15181   3.213   0.861   1.188
 3796SOL    HW115182   3.214   0.854   1.284
 3796SOL    HW215183   3.213   0.955   1.171
 3796SOL     MW15184   3.213   0.872   1.198
 3797SOL     OW15185   0.835   2.916   3.466
 3797SOL    HW115186   0.776   2.976   3.512
 3797SOL    HW215187   0.784   2.885   3.391
 3797SOL     MW15188   0.821   2.920   3.463
 3798SOL     OW15189   3.687   3.461   1.319
 3798SOL    HW115190   3.768   3.426   1.355
 3798SOL    HW215191   3.715   3.527   1.256
 3798SOL     MW15192   3.701   3.465   1.316
 3799SOL     OW15193   3.722   4.252   3.183
 3799SOL    HW115194   3.774   4.305   3.243
 3799SOL    HW215195   3.643   4.303   3.168
 3799SOL     MW15196   3.718   4.265   3.189
 3800SOL     OW15197   3.702   2.617   1.489
 3800SOL    HW115198   3.777   2.671   1.513
 3800SOL    HW215199   3.728   2.528   1.513
 3800SOL     MW15200   3.715   2.612   1.495
 3801SOL     OW15201   3.550   4.776   4.820
 3801SOL    HW115202   3.508   4.849   4.866
 3801SOL    HW215203   3.566   4.811   4.732
 3801SOL     MW15204   3.547   4.790   4.814
 3802SOL     OW15205   5.356   2.627   2.412
 3802SOL    HW115206   5.296   2.596   2.480
 3802SOL    HW215207   5.301   2.677   2.352
 3802SOL     MW15208   5.341   2.629   2.413
 3803SOL     OW15209   0.926   0.025   2.108
 3803SOL    HW115210   0.991  -0.044   2.098
 3803SOL    HW215211   0.929   0.048   2.201
 3803SOL     MW15212   0.935   0.019   2.119
 3804SOL     OW15213   0.656   3.428   1.135
 3804SOL    HW115214   0.686   3.341   1.163
 3804SOL    HW215215   0.725   3.460   1.078
 3804SOL     MW15216   0.668   3.421   1.131
 3805SOL     OW15217   0.141   1.889   1.151
 3805SOL    HW115218   0.096   1.928   1.076
 3805SOL    HW215219   0.086   1.911   1.226
 3805SOL     MW15220   0.128   1.897   1.151
 3806SOL     OW15221   4.648   2.586   2.252
 3806SOL    HW115222   4.561   2.550   2.267
 3806SOL    HW215223   4.638   2.638   2.172
 3806SOL     MW15224   4.635   2.588   2.244
 3807SOL     OW15225   1.305   3.447   1.774
 3807SOL    HW115226   1.211   3.456   1.785
 3807SOL    HW215227   1.342   3.520   1.824
 3807SOL     MW15228   1.298   3.458   1.782
 3808SOL     OW15229   3.988   2.879   1.985
 3808SOL    HW115230   4.043   2.825   1.928
 3808SOL    HW215231   4.045   2.951   2.011
 3808SOL     MW15232   4.003   2.881   1.981
 3809SOL     OW15233   2.103   1.916   4.233
 3809SOL    HW115234   2.053   1.993   4.207
 3809SOL    HW215235   2.155   1.894   4.156
 3809SOL     MW15236   2.103   1.923   4.220
 3810SOL     OW15237   3.847   3.942   5.444
 3810SOL    HW115238   3.799   3.991   5.510
 3810SOL    HW215239   3.929   3.990   5.433
 3810SOL     MW15240   3.851   3.954   5.451
 3811SOL     OW15241   0.881   4.356   3.874
 3811SOL    HW115242   0.908   4.265   3.863
 3811SOL    HW215243   0.886   4.393   3.786
 3811SOL     MW15244   0.885   4.349   3.861
 3812SOL     OW15245   4.375   4.622   1.096
 3812SOL    HW115246   4.283   4.602   1.079
 3812SOL    HW215247   4.398   4.569   1.173
 3812SOL     MW15248   4.366   4.612   1.104
 3813SOL     OW15249   2.036   2.620   2.597
 3813SOL    HW115250   1.973   2.548   2.605
 3813SOL    HW215251   2.067   2.615   2.507
 3813SOL     MW15252   2.032   2.610   2.587
 3814SOL     OW15253   1.386   3.727   2.507
 3814SOL    HW115254   1.324   3.754   2.439
 3814SOL    HW215255   1.376   3.793   2.576
 3814SOL     MW15256   1.376   3.739   2.507
 3815SOL     OW15257   2.651   3.155   3.515
 3815SOL    HW115258   2.703   3.223   3.472
 3815SOL    HW215259   2.571   3.149   3.464
 3815SOL     MW15260   2.648   3.163   3.503
 3816SOL     OW15261   3.946   5.269   4.208
 3816SOL    HW115262   3.892   5.200   4.171
 3816SOL    HW215263   3.980   5.233   4.290
 3816SOL     MW15264   3.944   5.256   4.214
 3817SOL     OW15265   2.645   5.230   4.533
 3817SOL    HW115266   2.617   5.318   4.507
 3817SOL    HW215267   2.575   5.173   4.502
 3817SOL     MW15268   2.632   5.234   4.526
 3818SOL     OW15269   1.903   0.808   4.244
 3818SOL    HW115270   1.816   0.848   4.249
 3818SOL    HW215271   1.964   0.880   4.257
 3818SOL     MW15272   1.900   0.822   4.246
 3819SOL     OW15273   0.196   3.061   0.755
 3819SOL    HW115274   0.118   3.005   0.758
 3819SOL    HW215275   0.239   3.038   0.673
 3819SOL     MW15276   0.191   3.051   0.745
 3820SOL     OW15277   5.209   4.342   2.717
 3820SOL    HW115278   5.277   4.313   2.777
 3820SOL    HW215279   5.171   4.419   2.759
 3820SOL     MW15280   5.213   4.348   2.730
 3821SOL     OW15281   5.091   4.648   1.579
 3821SOL    HW115282   5.139   4.730   1.573
 3821SOL    HW215283   5.155   4.586   1.616
 3821SOL     MW15284   5.106   4.651   1.583
 3822SOL     OW15285   0.831   3.990   2.753
 3822SOL    HW115286   0.852   3.998   2.660
 3822SOL    HW215287   0.760   4.051   2.768
 3822SOL     MW15288   0.825   3.999   2.743
 3823SOL     OW15289   4.070   4.900   4.927
 3823SOL    HW115290   4.143   4.896   4.990
 3823SOL    HW215291   3.998   4.855   4.972
 3823SOL     MW15292   4.070   4.893   4.941
 3824SOL     OW15293   4.099   1.849   3.084
 3824SOL    HW115294   4.055   1.837   3.169
 3824SOL    HW215295   4.087   1.766   3.039
 3824SOL     MW15296   4.092   1.837   3.089
 3825SOL     OW15297   5.358   0.269   2.972
 3825SOL    HW115298   5.419   0.224   3.029
 3825SOL    HW215299   5.412   0.305   2.902
 3825SOL     MW15300   5.372   0.268   2.970
 3826SOL     OW15301   3.054   1.104   4.665
 3826SOL    HW115302   3.024   1.188   4.699
 3826SOL    HW215303   2.994   1.084   4.593
 3826SOL     MW15304   3.042   1.112   4.660
 3827SOL     OW15305   2.603   4.775   4.935
 3827SOL    HW115306   2.671   4.771   4.867
 3827SOL    HW215307   2.521   4.765   4.887
 3827SOL     MW15308   2.601   4.774   4.920
 3828SOL     OW15309   3.301   5.294   2.088
 3828SOL    HW115310   3.321   5.201   2.086
 3828SOL    HW215311   3.287   5.318   1.996
 3828SOL     MW15312   3.302   5.285   2.076
 3829SOL     OW15313   0.994   3.867   3.138
 3829SOL    HW115314   1.082   3.862   3.176
 3829SOL    HW215315   0.945   3.797   3.180
 3829SOL     MW15316   0.999   3.857   3.148
 3830SOL     OW15317   4.354   4.227   3.193
 3830SOL    HW115318   4.263   4.256   3.194
 3830SOL    HW215319   4.405   4.307   3.205
 3830SOL     MW15320   4.349   4.241   3.194
 3831SOL     OW15321   1.880   3.430   2.513
 3831SOL    HW115322   1.927   3.471   2.440
 3831SOL    HW215323   1.806   3.488   2.530
 3831SOL     MW15324   1.876   3.442   2.506
 3832SOL     OW15325   5.343   4.221   1.837
 3832SOL    HW115326   5.256   4.183   1.827
 3832SOL    HW215327   5.379   4.179   1.915
 3832SOL     MW15328   5.336   4.211   1.846
 3833SOL     OW15329   4.935   0.255   5.004
 3833SOL    HW115330   4.902   0.221   4.921
 3833SOL    HW215331   5.007   0.197   5.027
 3833SOL     MW15332   4.940   0.243   4.996
 3834SOL     OW15333   3.537   0.626   3.510
 3834SOL    HW115334   3.613   0.567   3.508
 3834SOL    HW215335   3.499   0.614   3.597
 3834SOL     MW15336   3.542   0.617   3.521
 3835SOL     OW15337   5.415   0.292   0.060
 3835SOL    HW115338   5.390   0.247   0.141
 3835SOL    HW215339   5.397   0.228  -0.009
 3835SOL     MW15340   5.410   0.278   0.062
 3836SOL     OW15341   0.340   5.238   1.787
 3836SOL    HW115342   0.292   5.177   1.843
 3836SOL    HW215343   0.309   5.325   1.813
 3836SOL     MW15344   0.330   5.241   1.797
 3837SOL     OW15345   2.297   0.259   3.881
 3837SOL    HW115346   2.208   0.245   3.849
 3837SOL    HW215347   2.321   0.346   3.848
 3837SOL     MW15348   2.289   0.268   3.873
 3838SOL     OW15349   2.452   1.725   2.293
 3838SOL    HW115350   2.392   1.794   2.319
 3838SOL    HW215351   2.512   1.716   2.367
 3838SOL     MW15352   2.452   1.733   2.306
 3839SOL     OW15353   4.477   2.408   5.416
 3839SOL    HW115354   4.558   2.452   5.440
 3839SOL    HW215355   4.497   2.315   5.427
 3839SOL     MW15356   4.490   2.401   5.420
 3840SOL     OW15357   5.118   0.905   4.646
 3840SOL    HW115358   5.047   0.946   4.595
 3840SOL    HW215359   5.131   0.964   4.720
 3840SOL     MW15360   5.111   0.918   4.649
 3841SOL     OW15361   5.202   2.124   0.028
 3841SOL    HW115362   5.108   2.107   0.041
 3841SOL    HW215363   5.227   2.066  -0.044
 3841SOL     MW15364   5.193   2.115   0.021
 3842SOL     OW15365   4.728  -0.017   3.184
 3842SOL    HW115366   4.818   0.013   3.195
 3842SOL    HW215367   4.694   0.035   3.110
 3842SOL     MW15368   4.735  -0.007   3.176
 3843SOL     OW15369   0.689   4.690   0.513
 3843SOL    HW115370   0.633   4.667   0.586
 3843SOL    HW215371   0.673   4.783   0.498
 3843SOL     MW15372   0.680   4.699   0.520
 3844SOL     OW15373   3.746   4.132   5.280
 3844SOL    HW115374   3.773   4.052   5.324
 3844SOL    HW215375   3.807   4.142   5.207
 3844SOL     MW15376   3.757   4.123   5.276
 3845SOL     OW15377   3.809   2.729   0.082
 3845SOL    HW115378   3.786   2.652   0.134
 3845SOL    HW215379   3.788   2.803   0.137
 3845SOL     MW15380   3.804   2.728   0.096
 3846SOL     OW15381   2.088   1.023   4.275
 3846SOL    HW115382   2.086   1.100   4.218
 3846SOL    HW215383   2.160   0.970   4.242
 3846SOL     MW15384   2.097   1.026   4.264
 3847SOL     OW15385   3.448   4.654   3.303
 3847SOL    HW115386   3.523   4.712   3.289
 3847SOL    HW215387   3.392   4.668   3.226
 3847SOL     MW15388   3.451   4.663   3.291
 3848SOL     OW15389   0.631   4.680   2.647
 3848SOL    HW115390   0.597   4.759   2.689
 3848SOL    HW215391   0.714   4.708   2.607
 3848SOL     MW15392   0.638   4.694   2.647
 3849SOL     OW15393   0.257   2.063   3.367
 3849SOL    HW115394   0.184   2.121   3.345
 3849SOL    HW215395   0.222   1.974   3.353
 3849SOL     MW15396   0.243   2.059   3.362
 3850SOL     OW15397   2.915   1.423   2.917
 3850SOL    HW115398   2.828   1.453   2.890
 3850SOL    HW215399   2.931   1.470   2.999
 3850SOL     MW15400   2.906   1.433   2.924
 3851SOL     OW15401   2.162   3.082   4.207
 3851SOL    HW115402   2.092   3.120   4.261
 3851SOL    HW215403   2.211   3.157   4.175
 3851SOL     MW15404   2.159   3.096   4.210
 3852SOL     OW15405   3.224   5.247   1.613
 3852SOL    HW115406   3.209   5.304   1.538
 3852SOL    HW215407   3.298   5.192   1.587
 3852SOL     MW15408   3.232   5.248   1.600
 3853SOL     OW15409   4.769   0.283   3.949
 3853SOL    HW115410   4.771   0.269   4.044
 3853SOL    HW215411   4.804   0.202   3.912
 3853SOL     MW15412   4.773   0.271   3.957
 3854SOL     OW15413   2.346   3.609   0.030
 3854SOL    HW115414   2.339   3.631   0.123
 3854SOL    HW215415   2.381   3.688  -0.011
 3854SOL     MW15416   2.350   3.622   0.037
 3855SOL     OW15417   3.888   4.894   3.015
 3855SOL    HW115418   3.956   4.934   3.068
 3855SOL    HW215419   3.933   4.860   2.938
 3855SOL     MW15420   3.902   4.895   3.012
 3856SOL     OW15421   2.688   2.633   5.465
 3856SOL    HW115422   2.720   2.544   5.479
 3856SOL    HW215423   2.595   2.622   5.445
 3856SOL     MW15424   2.680   2.620   5.464
 3857SOL     OW15425   0.517   2.522   2.244
 3857SOL    HW115426   0.442   2.524   2.186
 3857SOL    HW215427   0.564   2.442   2.220
 3857SOL     MW15428   0.514   2.512   2.234
 3858SOL     OW15429   0.343   0.446   3.679
 3858SOL    HW115430   0.303   0.406   3.756
 3858SOL    HW215431   0.399   0.515   3.714
 3858SOL     MW15432   0.345   0.449   3.693
 3859SOL     OW15433   4.061   4.142   0.207
 3859SOL    HW115434   4.086   4.120   0.117
 3859SOL    HW215435   4.008   4.068   0.236
 3859SOL     MW15436   4.058   4.130   0.199
 3860SOL     OW15437   3.763   2.516   0.249
 3860SOL    HW115438   3.678   2.522   0.292
 3860SOL    HW215439   3.765   2.427   0.214
 3860SOL     MW15440   3.752   2.505   0.250
 3861SOL     OW15441   4.473   2.792   3.478
 3861SOL    HW115442   4.417   2.730   3.433
 3861SOL    HW215443   4.412   2.850   3.524
 3861SOL     MW15444   4.458   2.792   3.478
 3862SOL     OW15445   2.167   4.393   4.903
 3862SOL    HW115446   2.144   4.348   4.984
 3862SOL    HW215447   2.232   4.337   4.862
 3862SOL     MW15448   2.172   4.380   4.908
 3863SOL     OW15449   1.151   3.923   0.288
 3863SOL    HW115450   1.159   3.933   0.193
 3863SOL    HW215451   1.170   4.010   0.323
 3863SOL     MW15452   1.155   3.936   0.280
 3864SOL     OW15453   5.011   4.719   4.662
 3864SOL    HW115454   5.053   4.805   4.662
 3864SOL    HW215455   5.028   4.684   4.749
 3864SOL     MW15456   5.019   4.726   4.673
 3865SOL     OW15457   3.938   2.553   0.961
 3865SOL    HW115458   4.026   2.556   0.924
 3865SOL    HW215459   3.943   2.489   1.032
 3865SOL     MW15460   3.950   2.545   0.965
 3866SOL     OW15461   4.711   2.831   2.370
 3866SOL    HW115462   4.797   2.854   2.333
 3866SOL    HW215463   4.687   2.751   2.324
 3866SOL     MW15464   4.719   2.824   2.359
 3867SOL     OW15465   1.742   4.799   0.356
 3867SOL    HW115466   1.784   4.848   0.285
 3867SOL    HW215467   1.814   4.774   0.414
 3867SOL     MW15468   1.757   4.802   0.355
 3868SOL     OW15469   4.180   5.432   5.271
 3868SOL    HW115470   4.218   5.511   5.232
 3868SOL    HW215471   4.127   5.394   5.201
 3868SOL     MW15472   4.178   5.437   5.257
 3869SOL     OW15473   5.186   3.373   1.832
 3869SOL    HW115474   5.262   3.335   1.876
 3869SOL    HW215475   5.113   3.315   1.854
 3869SOL     MW15476   5.186   3.361   1.841
 3870SOL     OW15477   3.635   4.472   0.847
 3870SOL    HW115478   3.683   4.458   0.929
 3870SOL    HW215479   3.674   4.409   0.786
 3870SOL     MW15480   3.646   4.462   0.849
 3871SOL     OW15481   4.806   4.638   2.711
 3871SOL    HW115482   4.744   4.589   2.657
 3871SOL    HW215483   4.787   4.610   2.800
 3871SOL     MW15484   4.796   4.628   2.715
 3872SOL     OW15485   2.275   3.072   1.786
 3872SOL    HW115486   2.208   3.131   1.821
 3872SOL    HW215487   2.349   3.128   1.766
 3872SOL     MW15488   2.276   3.087   1.788
 3873SOL     OW15489   3.566   0.679   2.146
 3873SOL    HW115490   3.593   0.739   2.076
 3873SOL    HW215491   3.624   0.699   2.219
 3873SOL     MW15492   3.577   0.690   2.146
 3874SOL     OW15493   5.228   0.978   0.601
 3874SOL    HW115494   5.263   0.968   0.690
 3874SOL    HW215495   5.303   0.959   0.544
 3874SOL     MW15496   5.242   0.974   0.605
 3875SOL     OW15497   1.215   3.526   0.777
 3875SOL    HW115498   1.226   3.607   0.727
 3875SOL    HW215499   1.136   3.485   0.740
 3875SOL     MW15500   1.206   3.531   0.766
 3876SOL     OW15501   1.359   1.730   3.234
 3876SOL    HW115502   1.324   1.648   3.197
 3876SOL    HW215503   1.399   1.774   3.159
 3876SOL     MW15504   1.359   1.725   3.220
 3877SOL     OW15505   0.632   1.783   2.162
 3877SOL    HW115506   0.619   1.878   2.166
 3877SOL    HW215507   0.710   1.771   2.108
 3877SOL     MW15508   0.640   1.794   2.155
 3878SOL     OW15509   4.421   1.638   3.684
 3878SOL    HW115510   4.486   1.660   3.618
 3878SOL    HW215511   4.406   1.720   3.732
 3878SOL     MW15512   4.427   1.651   3.682
 3879SOL     OW15513   1.214   3.556   4.462
 3879SOL    HW115514   1.129   3.530   4.429
 3879SOL    HW215515   1.239   3.631   4.407
 3879SOL     MW15516   1.207   3.562   4.451
 3880SOL     OW15517   2.216   4.756   2.225
 3880SOL    HW115518   2.297   4.735   2.271
 3880SOL    HW215519   2.219   4.851   2.212
 3880SOL     MW15520   2.226   4.765   2.229
 3881SOL     OW15521   1.480   0.023   0.609
 3881SOL    HW115522   1.457  -0.060   0.649
 3881SOL    HW215523   1.414   0.085   0.643
 3881SOL     MW15524   1.468   0.021   0.618
 3882SOL     OW15525   1.131   3.392   5.211
 3882SOL    HW115526   1.130   3.317   5.152
 3882SOL    HW215527   1.065   3.371   5.278
 3882SOL     MW15528   1.122   3.380   5.212
 3883SOL     OW15529   0.133   1.843   1.560
 3883SOL    HW115530   0.131   1.767   1.502
 3883SOL    HW215531   0.103   1.810   1.644
 3883SOL     MW15532   0.129   1.829   1.563
 3884SOL     OW15533   1.990   3.286   3.893
 3884SOL    HW115534   2.033   3.282   3.808
 3884SOL    HW215535   1.897   3.285   3.873
 3884SOL     MW15536   1.984   3.286   3.880
 3885SOL     OW15537   3.044   2.005   0.438
 3885SOL    HW115538   3.098   1.937   0.399
 3885SOL    HW215539   3.084   2.087   0.410
 3885SOL     MW15540   3.056   2.007   0.429
 3886SOL     OW15541   4.007   1.295   3.944
 3886SOL    HW115542   3.985   1.280   4.036
 3886SOL    HW215543   4.095   1.334   3.947
 3886SOL     MW15544   4.016   1.298   3.956
 3887SOL     OW15545   5.194   2.002   3.301
 3887SOL    HW115546   5.265   1.937   3.296
 3887SOL    HW215547   5.167   2.000   3.393
 3887SOL     MW15548   5.200   1.993   3.312
 3888SOL     OW15549   1.895   3.089   1.432
 3888SOL    HW115550   1.966   3.058   1.488
 3888SOL    HW215551   1.929   3.169   1.392
 3888SOL     MW15552   1.909   3.095   1.434
 3889SOL     OW15553   3.003   2.988   0.857
 3889SOL    HW115554   3.051   2.937   0.923
 3889SOL    HW215555   3.068   3.050   0.823
 3889SOL     MW15556   3.018   2.990   0.861
 3890SOL     OW15557   1.138   3.156   5.078
 3890SOL    HW115558   1.052   3.116   5.085
 3890SOL    HW215559   1.195   3.099   5.131
 3890SOL     MW15560   1.135   3.143   5.086
 3891SOL     OW15561   0.551   4.936   1.970
 3891SOL    HW115562   0.615   4.972   2.032
 3891SOL    HW215563   0.586   4.851   1.946
 3891SOL     MW15564   0.563   4.930   1.975
 3892SOL     OW15565   4.945   0.833   0.616
 3892SOL    HW115566   5.013   0.804   0.555
 3892SOL    HW215567   4.994   0.868   0.691
 3892SOL     MW15568   4.960   0.834   0.618
 3893SOL     OW15569   2.483   2.093   2.691
 3893SOL    HW115570   2.485   2.160   2.759
 3893SOL    HW215571   2.396   2.101   2.652
 3893SOL     MW15572   2.472   2.103   2.695
 3894SOL     OW15573   5.039   4.401   4.282
 3894SOL    HW115574   5.042   4.478   4.339
 3894SOL    HW215575   5.130   4.378   4.266
 3894SOL     MW15576   5.051   4.408   4.287
 3895SOL     OW15577   0.491   2.565   3.175
 3895SOL    HW115578   0.451   2.497   3.229
 3895SOL    HW215579   0.441   2.564   3.094
 3895SOL     MW15580   0.480   2.556   3.172
 3896SOL     OW15581   5.494   4.594   0.626
 3896SOL    HW115582   5.424   4.542   0.667
 3896SOL    HW215583   5.458   4.682   0.617
 3896SOL     MW15584   5.480   4.598   0.630
 3897SOL     OW15585   0.554   3.394   0.348
 3897SOL    HW115586   0.528   3.360   0.433
 3897SOL    HW215587   0.574   3.317   0.296
 3897SOL     MW15588   0.553   3.380   0.352
 3898SOL     OW15589   3.147   2.835   1.032
 3898SOL    HW115590   3.145   2.763   1.095
 3898SOL    HW215591   3.187   2.797   0.954
 3898SOL     MW15592   3.151   2.821   1.030
 3899SOL     OW15593   4.474   0.122   4.140
 3899SOL    HW115594   4.429   0.183   4.197
 3899SOL    HW215595   4.409   0.056   4.119
 3899SOL     MW15596   4.460   0.121   4.145
 3900SOL     OW15597   5.187   1.342   3.208
 3900SOL    HW115598   5.113   1.403   3.205
 3900SOL    HW215599   5.169   1.279   3.139
 3900SOL     MW15600   5.175   1.342   3.199
 3901SOL     OW15601   4.696   4.155   0.152
 3901SOL    HW115602   4.744   4.142   0.070
 3901SOL    HW215603   4.615   4.199   0.126
 3901SOL     MW15604   4.692   4.159   0.139
 3902SOL     OW15605   1.624   2.115   2.811
 3902SOL    HW115606   1.676   2.048   2.766
 3902SOL    HW215607   1.553   2.136   2.750
 3902SOL     MW15608   1.622   2.109   2.798
 3903SOL     OW15609   3.056   2.329   3.259
 3903SOL    HW115610   3.000   2.367   3.192
 3903SOL    HW215611   3.112   2.267   3.213
 3903SOL     MW15612   3.056   2.326   3.245
 3904SOL     OW15613   2.111   0.598   0.856
 3904SOL    HW115614   2.195   0.553   0.858
 3904SOL    HW215615   2.134   0.691   0.844
 3904SOL     MW15616   2.125   0.604   0.855
 3905SOL     OW15617   1.625   2.666   2.619
 3905SOL    HW115618   1.572   2.728   2.569
 3905SOL    HW215619   1.607   2.581   2.579
 3905SOL     MW15620   1.616   2.663   2.608
 3906SOL     OW15621   0.142   5.018   1.637
 3906SOL    HW115622   0.229   5.012   1.596
 3906SOL    HW215623   0.116   5.109   1.624
 3906SOL     MW15624   0.150   5.029   1.630
 3907SOL     OW15625   4.867   3.242   2.749
 3907SOL    HW115626   4.945   3.191   2.727
 3907SOL    HW215627   4.887   3.330   2.717
 3907SOL     MW15628   4.880   3.247   2.742
 3908SOL     OW15629   2.536   5.175   1.930
 3908SOL    HW115630   2.492   5.253   1.963
 3908SOL    HW215631   2.553   5.195   1.838
 3908SOL     MW15632   2.533   5.188   1.923
 3909SOL     OW15633   2.253   2.988   3.185
 3909SOL    HW115634   2.268   2.908   3.136
 3909SOL    HW215635   2.158   2.989   3.202
 3909SOL     MW15636   2.242   2.978   3.181
 3910SOL     OW15637   2.447   3.128   3.334
 3910SOL    HW115638   2.368   3.077   3.320
 3910SOL    HW215639   2.431   3.211   3.289
 3910SOL     MW15640   2.435   3.132   3.326
 3911SOL     OW15641   4.650   2.983   1.167
 3911SOL    HW115642   4.592   2.958   1.095
 3911SOL    HW215643   4.594   3.038   1.223
 3911SOL     MW15644   4.635   2.987   1.165
 3912SOL     OW15645   3.827   0.259   4.037
 3912SOL    HW115646   3.782   0.176   4.023
 3912SOL    HW215647   3.916   0.244   4.005
 3912SOL     MW15648   3.832   0.246   4.031
 3913SOL     OW15649   4.681   2.336   3.004
 3913SOL    HW115650   4.636   2.267   2.955
 3913SOL    HW215651   4.772   2.328   2.977
 3913SOL     MW15652   4.687   2.326   2.994
 3914SOL     OW15653   4.400   1.137   2.985
 3914SOL    HW115654   4.413   1.219   2.936
 3914SOL    HW215655   4.363   1.077   2.921
 3914SOL     MW15656   4.397   1.140   2.970
 3915SOL     OW15657   1.152   4.894   2.963
 3915SOL    HW115658   1.119   4.858   3.045
 3915SOL    HW215659   1.107   4.845   2.895
 3915SOL     MW15660   1.142   4.883   2.965
 3916SOL     OW15661   5.442   3.012   5.334
 3916SOL    HW115662   5.484   2.928   5.349
 3916SOL    HW215663   5.358   2.991   5.294
 3916SOL     MW15664   5.437   2.999   5.330
 3917SOL     OW15665   3.259   2.705   0.813
 3917SOL    HW115666   3.220   2.625   0.848
 3917SOL    HW215667   3.344   2.712   0.856
 3917SOL     MW15668   3.265   2.696   0.823
 3918SOL     OW15669   1.684   0.696   0.769
 3918SOL    HW115670   1.604   0.689   0.821
 3918SOL    HW215671   1.665   0.651   0.687
 3918SOL     MW15672   1.672   0.689   0.765
 3919SOL     OW15673   4.299   2.524   2.910
 3919SOL    HW115674   4.343   2.566   2.984
 3919SOL    HW215675   4.206   2.533   2.930
 3919SOL     MW15676   4.293   2.531   2.922
 3920SOL     OW15677   3.960   1.797   1.438
 3920SOL    HW115678   3.889   1.766   1.383
 3920SOL    HW215679   3.980   1.724   1.495
 3920SOL     MW15680   3.954   1.784   1.438
 3921SOL     OW15681   3.942   4.373   0.116
 3921SOL    HW115682   3.979   4.293   0.153
 3921SOL    HW215683   3.855   4.348   0.086
 3921SOL     MW15684   3.935   4.360   0.117
 3922SOL     OW15685   2.681   5.233   4.026
 3922SOL    HW115686   2.658   5.172   3.955
 3922SOL    HW215687   2.760   5.277   3.995
 3922SOL     MW15688   2.688   5.231   4.013
 3923SOL     OW15689   0.036   0.357   0.361
 3923SOL    HW115690   0.073   0.274   0.390
 3923SOL    HW215691   0.100   0.390   0.298
 3923SOL     MW15692   0.049   0.351   0.356
 3924SOL     OW15693   3.262   3.923   3.799
 3924SOL    HW115694   3.301   3.859   3.740
 3924SOL    HW215695   3.309   3.911   3.881
 3924SOL     MW15696   3.273   3.913   3.802
 3925SOL     OW15697   4.537   1.257   0.590
 3925SOL    HW115698   4.616   1.205   0.578
 3925SOL    HW215699   4.563   1.327   0.650
 3925SOL     MW15700   4.550   1.259   0.596
 3926SOL     OW15701   3.067   1.696   1.869
 3926SOL    HW115702   3.142   1.752   1.848
 3926SOL    HW215703   3.050   1.714   1.962
 3926SOL     MW15704   3.074   1.705   1.878
 3927SOL     OW15705   2.129   1.901   1.925
 3927SOL    HW115706   2.140   1.911   2.020
 3927SOL    HW215707   2.045   1.942   1.906
 3927SOL     MW15708   2.120   1.907   1.935
 3928SOL     OW15709   4.098   2.955   1.616
 3928SOL    HW115710   4.040   3.019   1.658
 3928SOL    HW215711   4.118   2.892   1.686
 3928SOL     MW15712   4.093   2.955   1.631
 3929SOL     OW15713   4.133   4.178   0.473
 3929SOL    HW115714   4.124   4.170   0.379
 3929SOL    HW215715   4.227   4.174   0.490
 3929SOL     MW15716   4.144   4.177   0.463
 3930SOL     OW15717   3.912   0.708   3.501
 3930SOL    HW115718   3.843   0.774   3.501
 3930SOL    HW215719   3.958   0.721   3.584
 3930SOL     MW15720   3.909   0.718   3.512
 3931SOL     OW15721   0.166   2.044   2.296
 3931SOL    HW115722   0.120   2.079   2.372
 3931SOL    HW215723   0.258   2.042   2.322
 3931SOL     MW15724   0.172   2.048   2.309
 3932SOL     OW15725   0.885   3.268   3.164
 3932SOL    HW115726   0.910   3.212   3.238
 3932SOL    HW215727   0.806   3.227   3.129
 3932SOL     MW15728   0.879   3.255   3.169
 3933SOL     OW15729   2.086   2.489   0.769
 3933SOL    HW115730   2.161   2.513   0.822
 3933SOL    HW215731   2.044   2.572   0.748
 3933SOL     MW15732   2.090   2.503   0.773
 3934SOL     OW15733   1.739   4.500   1.770
 3934SOL    HW115734   1.721   4.429   1.831
 3934SOL    HW215735   1.656   4.515   1.726
 3934SOL     MW15736   1.726   4.493   1.772
 3935SOL     OW15737   2.595   4.354   0.725
 3935SOL    HW115738   2.647   4.427   0.693
 3935SOL    HW215739   2.657   4.302   0.777
 3935SOL     MW15740   2.610   4.356   0.727
 3936SOL     OW15741   1.317   2.212   1.929
 3936SOL    HW115742   1.408   2.232   1.951
 3936SOL    HW215743   1.323   2.142   1.864
 3936SOL     MW15744   1.329   2.205   1.924
 3937SOL     OW15745   4.899   4.319   5.068
 3937SOL    HW115746   4.809   4.352   5.074
 3937SOL    HW215747   4.937   4.339   5.154
 3937SOL     MW15748   4.893   4.326   5.080
 3938SOL     OW15749   4.925   4.310   0.211
 3938SOL    HW115750   4.836   4.276   0.197
 3938SOL    HW215751   4.914   4.405   0.210
 3938SOL     MW15752   4.912   4.318   0.209
 3939SOL     OW15753   5.372   3.440   3.256
 3939SOL    HW115754   5.372   3.507   3.188
 3939SOL    HW215755   5.454   3.453   3.303
 3939SOL     MW15756   5.382   3.450   3.254
 3940SOL     OW15757   1.161   0.115   1.383
 3940SOL    HW115758   1.118   0.187   1.336
 3940SOL    HW215759   1.226   0.157   1.439
 3940SOL     MW15760   1.164   0.130   1.384
 3941SOL     OW15761   2.729   4.542   0.048
 3941SOL    HW115762   2.708   4.620   0.100
 3941SOL    HW215763   2.645   4.500   0.033
 3941SOL     MW15764   2.715   4.547   0.053
 3942SOL     OW15765   3.089   3.484   0.380
 3942SOL    HW115766   3.016   3.513   0.435
 3942SOL    HW215767   3.047   3.449   0.301
 3942SOL     MW15768   3.074   3.484   0.377
 3943SOL     OW15769   1.723   2.375   4.562
 3943SOL    HW115770   1.661   2.439   4.598
 3943SOL    HW215771   1.676   2.334   4.490
 3943SOL     MW15772   1.709   2.378   4.558
 3944SOL     OW15773   2.711   4.359   3.766
 3944SOL    HW115774   2.715   4.314   3.682
 3944SOL    HW215775   2.799   4.394   3.778
 3944SOL     MW15776   2.723   4.358   3.757
 3945SOL     OW15777   2.247   0.920   3.878
 3945SOL    HW115778   2.245   1.012   3.850
 3945SOL    HW215779   2.156   0.900   3.899
 3945SOL     MW15780   2.235   0.929   3.877
 3946SOL     OW15781   5.060   0.359   4.495
 3946SOL    HW115782   5.122   0.395   4.431
 3946SOL    HW215783   5.112   0.347   4.574
 3946SOL     MW15784   5.075   0.362   4.497
 3947SOL     OW15785   1.418   2.935   3.958
 3947SOL    HW115786   1.385   2.912   3.871
 3947SOL    HW215787   1.395   2.860   4.013
 3947SOL     MW15788   1.411   2.923   3.954
 3948SOL     OW15789   0.333   3.783   4.021
 3948SOL    HW115790   0.389   3.769   3.944
 3948SOL    HW215791   0.260   3.723   4.008
 3948SOL     MW15792   0.331   3.774   4.009
 3949SOL     OW15793   0.852   4.470   0.251
 3949SOL    HW115794   0.877   4.461   0.343
 3949SOL    HW215795   0.781   4.534   0.251
 3949SOL     MW15796   0.846   4.477   0.262
 3950SOL     OW15797   4.359   0.209   2.026
 3950SOL    HW115798   4.437   0.183   2.075
 3950SOL    HW215799   4.352   0.304   2.040
 3950SOL     MW15800   4.368   0.218   2.034
 3951SOL     OW15801   1.776   3.117   5.204
 3951SOL    HW115802   1.753   3.081   5.289
 3951SOL    HW215803   1.845   3.060   5.171
 3951SOL     MW15804   1.782   3.105   5.210
 3952SOL     OW15805   2.203   0.089   3.427
 3952SOL    HW115806   2.208   0.180   3.455
 3952SOL    HW215807   2.232   0.039   3.503
 3952SOL     MW15808   2.207   0.094   3.440
 3953SOL     OW15809   2.545   3.036   0.546
 3953SOL    HW115810   2.543   2.961   0.605
 3953SOL    HW215811   2.638   3.057   0.535
 3953SOL     MW15812   2.556   3.029   0.552
 3954SOL     OW15813   3.223   0.726   0.314
 3954SOL    HW115814   3.275   0.806   0.313
 3954SOL    HW215815   3.192   0.717   0.224
 3954SOL     MW15816   3.226   0.735   0.302
 3955SOL     OW15817   1.614   1.517   0.106
 3955SOL    HW115818   1.705   1.543   0.107
 3955SOL    HW215819   1.584   1.538   0.017
 3955SOL     MW15820   1.622   1.523   0.094
 3956SOL     OW15821   3.848   3.267   2.201
 3956SOL    HW115822   3.849   3.265   2.106
 3956SOL    HW215823   3.781   3.203   2.226
 3956SOL     MW15824   3.840   3.258   2.192
 3957SOL     OW15825   4.706   0.109   1.302
 3957SOL    HW115826   4.638   0.064   1.352
 3957SOL    HW215827   4.713   0.060   1.221
 3957SOL     MW15828   4.698   0.097   1.298
 3958SOL     OW15829   4.046   1.002   2.889
 3958SOL    HW115830   4.132   1.003   2.847
 3958SOL    HW215831   4.064   1.024   2.981
 3958SOL     MW15832   4.059   1.005   2.896
 3959SOL     OW15833   2.816   1.627   5.328
 3959SOL    HW115834   2.802   1.561   5.396
 3959SOL    HW215835   2.909   1.647   5.332
 3959SOL     MW15836   2.826   1.621   5.337
 3960SOL     OW15837   3.372   0.950   0.298
 3960SOL    HW115838   3.419   0.993   0.370
 3960SOL    HW215839   3.293   1.003   0.287
 3960SOL     MW15840   3.368   0.962   0.306
 3961SOL     OW15841   0.414   1.776   4.661
 3961SOL    HW115842   0.329   1.760   4.701
 3961SOL    HW215843   0.452   1.847   4.713
 3961SOL     MW15844   0.408   1.783   4.673
 3962SOL     OW15845   5.127   4.399   1.372
 3962SOL    HW115846   5.203   4.345   1.395
 3962SOL    HW215847   5.162   4.466   1.313
 3962SOL     MW15848   5.141   4.401   1.367
 3963SOL     OW15849   3.016   4.189   1.286
 3963SOL    HW115850   2.991   4.270   1.242
 3963SOL    HW215851   2.936   4.156   1.326
 3963SOL     MW15852   3.003   4.195   1.286
 3964SOL     OW15853   0.706   0.813   2.515
 3964SOL    HW115854   0.690   0.800   2.422
 3964SOL    HW215855   0.788   0.863   2.519
 3964SOL     MW15856   0.714   0.818   2.504
 3965SOL     OW15857   4.015   4.165   0.865
 3965SOL    HW115858   4.077   4.092   0.867
 3965SOL    HW215859   3.929   4.124   0.864
 3965SOL     MW15860   4.012   4.150   0.865
 3966SOL     OW15861   0.532   3.068   1.539
 3966SOL    HW115862   0.466   3.088   1.473
 3966SOL    HW215863   0.524   3.140   1.603
 3966SOL     MW15864   0.523   3.080   1.539
 3967SOL     OW15865   5.111   4.898   0.376
 3967SOL    HW115866   5.099   4.822   0.434
 3967SOL    HW215867   5.104   4.862   0.288
 3967SOL     MW15868   5.108   4.883   0.373
 3968SOL     OW15869   3.256   0.085   0.506
 3968SOL    HW115870   3.192   0.018   0.485
 3968SOL    HW215871   3.237   0.157   0.446
 3968SOL     MW15872   3.246   0.086   0.496
 3969SOL     OW15873   1.999   1.359   0.296
 3969SOL    HW115874   2.079   1.350   0.244
 3969SOL    HW215875   2.006   1.289   0.362
 3969SOL     MW15876   2.010   1.349   0.298
 3970SOL     OW15877   1.223   1.630   4.368
 3970SOL    HW115878   1.281   1.689   4.319
 3970SOL    HW215879   1.263   1.624   4.455
 3970SOL     MW15880   1.236   1.637   4.373
 3971SOL     OW15881   3.741   2.921   0.265
 3971SOL    HW115882   3.820   2.923   0.319
 3971SOL    HW215883   3.736   3.008   0.226
 3971SOL     MW15884   3.750   2.932   0.267
 3972SOL     OW15885   2.092   1.463   3.381
 3972SOL    HW115886   2.132   1.510   3.308
 3972SOL    HW215887   2.023   1.522   3.413
 3972SOL     MW15888   2.089   1.477   3.376
 3973SOL     OW15889   2.720   2.431   4.803
 3973SOL    HW115890   2.797   2.394   4.760
 3973SOL    HW215891   2.733   2.525   4.801
 3973SOL     MW15892   2.731   2.438   4.797
 3974SOL     OW15893   3.035   0.685   3.795
 3974SOL    HW115894   3.087   0.679   3.715
 3974SOL    HW215895   3.099   0.675   3.866
 3974SOL     MW15896   3.050   0.683   3.794
 3975SOL     OW15897   4.141  -0.026   1.535
 3975SOL    HW115898   4.202   0.019   1.593
 3975SOL    HW215899   4.060   0.025   1.541
 3975SOL     MW15900   4.139  -0.014   1.543
 3976SOL     OW15901   0.640   1.033   5.203
 3976SOL    HW115902   0.598   1.021   5.118
 3976SOL    HW215903   0.575   1.003   5.267
 3976SOL     MW15904   0.627   1.027   5.200
 3977SOL     OW15905   0.510   3.928   2.951
 3977SOL    HW115906   0.442   3.940   3.017
 3977SOL    HW215907   0.565   3.857   2.985
 3977SOL     MW15908   0.509   3.920   2.964
 3978SOL     OW15909   4.805   1.043   4.896
 3978SOL    HW115910   4.780   0.989   4.821
 3978SOL    HW215911   4.901   1.049   4.889
 3978SOL     MW15912   4.814   1.037   4.885
 3979SOL     OW15913   4.022   2.775   2.236
 3979SOL    HW115914   4.001   2.822   2.155
 3979SOL    HW215915   3.995   2.685   2.219
 3979SOL     MW15916   4.016   2.769   2.223
 3980SOL     OW15917   3.272   2.434   1.373
 3980SOL    HW115918   3.326   2.363   1.339
 3980SOL    HW215919   3.197   2.390   1.414
 3980SOL     MW15920   3.269   2.419   1.374
 3981SOL     OW15921   2.517   1.888   1.805
 3981SOL    HW115922   2.488   1.852   1.721
 3981SOL    HW215923   2.488   1.824   1.870
 3981SOL     MW15924   2.509   1.875   1.802
 3982SOL     OW15925   0.368   0.418   3.094
 3982SOL    HW115926   0.419   0.453   3.021
 3982SOL    HW215927   0.340   0.331   3.064
 3982SOL     MW15928   0.371   0.411   3.081
 3983SOL     OW15929   0.200   1.910   4.220
 3983SOL    HW115930   0.268   1.911   4.288
 3983SOL    HW215931   0.249   1.907   4.137
 3983SOL     MW15932   0.215   1.910   4.218
 3984SOL     OW15933   1.884   1.597   3.498
 3984SOL    HW115934   1.831   1.674   3.477
 3984SOL    HW215935   1.879   1.589   3.593
 3984SOL     MW15936   1.877   1.606   3.508
 3985SOL     OW15937   4.199   3.491   2.630
 3985SOL    HW115938   4.139   3.416   2.638
 3985SOL    HW215939   4.228   3.488   2.539
 3985SOL     MW15940   4.195   3.481   2.620
 3986SOL     OW15941   3.278   4.591   4.054
 3986SOL    HW115942   3.322   4.601   4.138
 3986SOL    HW215943   3.335   4.533   4.004
 3986SOL     MW15944   3.291   4.585   4.058
 3987SOL     OW15945   4.760   2.213   0.981
 3987SOL    HW115946   4.829   2.166   0.933
 3987SOL    HW215947   4.727   2.278   0.919
 3987SOL     MW15948   4.765   2.215   0.967
 3988SOL     OW15949   3.311   4.716   0.011
 3988SOL    HW115950   3.383   4.711   0.074
 3988SOL    HW215951   3.232   4.710   0.065
 3988SOL     MW15952   3.310   4.714   0.026
 3989SOL     OW15953   4.122   4.587   3.099
 3989SOL    HW115954   4.155   4.645   3.167
 3989SOL    HW215955   4.027   4.597   3.103
 3989SOL     MW15956   4.114   4.596   3.108
 3990SOL     OW15957   2.853   2.256   0.434
 3990SOL    HW115958   2.903   2.177   0.411
 3990SOL    HW215959   2.902   2.296   0.504
 3990SOL     MW15960   2.865   2.251   0.440
 3991SOL     OW15961   4.007   4.152   4.672
 3991SOL    HW115962   4.061   4.227   4.646
 3991SOL    HW215963   4.069   4.088   4.708
 3991SOL     MW15964   4.022   4.153   4.673
 3992SOL     OW15965   0.703   5.395   1.172
 3992SOL    HW115966   0.793   5.425   1.180
 3992SOL    HW215967   0.705   5.304   1.203
 3992SOL     MW15968   0.714   5.387   1.177
 3993SOL     OW15969   0.501   2.609   4.699
 3993SOL    HW115970   0.466   2.686   4.653
 3993SOL    HW215971   0.423   2.565   4.733
 3993SOL     MW15972   0.486   2.613   4.698
 3994SOL     OW15973   2.023   2.604   3.617
 3994SOL    HW115974   2.110   2.566   3.607
 3994SOL    HW215975   2.039   2.698   3.628
 3994SOL     MW15976   2.036   2.611   3.617
 3995SOL     OW15977   3.485   0.303   0.955
 3995SOL    HW115978   3.481   0.303   0.860
 3995SOL    HW215979   3.563   0.354   0.976
 3995SOL     MW15980   3.494   0.309   0.946
 3996SOL     OW15981   0.049   2.381   3.739
 3996SOL    HW115982   0.049   2.292   3.776
 3996SOL    HW215983  -0.010   2.375   3.664
 3996SOL     MW15984   0.041   2.369   3.734
 3997SOL     OW15985   4.786   4.416   3.621
 3997SOL    HW115986   4.857   4.455   3.673
 3997SOL    HW215987   4.789   4.323   3.643
 3997SOL     MW15988   4.796   4.409   3.631
 3998SOL     OW15989   0.675   5.429   2.845
 3998SOL    HW115990   0.724   5.479   2.911
 3998SOL    HW215991   0.662   5.343   2.885
 3998SOL     MW15992   0.679   5.424   2.859
 3999SOL     OW15993   1.981   3.002   3.194
 3999SOL    HW115994   1.896   2.967   3.220
 3999SOL    HW215995   1.963   3.047   3.111
 3999SOL     MW15996   1.968   3.004   3.187
 4000SOL     OW15997   2.109   3.701   3.976
 4000SOL    HW115998   2.070   3.689   4.062
 4000SOL    HW215999   2.111   3.795   3.963
 4000SOL     MW16000   2.104   3.711   3.985
 4001SOL     OW16001   1.910   2.076   5.157
 4001SOL    HW116002   1.983   2.082   5.095
 4001SOL    HW216003   1.895   2.166   5.186
 4001SOL     MW16004   1.918   2.088   5.153
 4002SOL     OW16005   3.488   1.310   0.182
 4002SOL    HW116006   3.583   1.297   0.174
 4002SOL    HW216007   3.473   1.321   0.276
 4002SOL     MW16008   3.498   1.310   0.193
 4003SOL     OW16009   3.213   3.936   3.140
 4003SOL    HW116010   3.119   3.919   3.144
 4003SOL    HW216011   3.242   3.934   3.231
 4003SOL     MW16012   3.205   3.933   3.152
 4004SOL     OW16013   4.952   4.625   0.690
 4004SOL    HW116014   5.027   4.626   0.631
 4004SOL    HW216015   4.987   4.651   0.775
 4004SOL     MW16016   4.966   4.628   0.693
 4005SOL     OW16017   3.651   1.969   1.343
 4005SOL    HW116018   3.570   1.941   1.299
 4005SOL    HW216019   3.633   1.956   1.436
 4005SOL     MW16020   3.638   1.964   1.349
 4006SOL     OW16021   4.777   5.152   5.407
 4006SOL    HW116022   4.844   5.215   5.381
 4006SOL    HW216023   4.696   5.204   5.414
 4006SOL     MW16024   4.775   5.167   5.405
 4007SOL     OW16025   5.056   1.221   3.956
 4007SOL    HW116026   5.027   1.228   3.865
 4007SOL    HW216027   5.011   1.293   4.000
 4007SOL     MW16028   5.046   1.231   3.950
 4008SOL     OW16029   0.558   3.869   1.621
 4008SOL    HW116030   0.605   3.787   1.605
 4008SOL    HW216031   0.607   3.935   1.574
 4008SOL     MW16032   0.570   3.867   1.613
 4009SOL     OW16033   2.193   3.798   1.571
 4009SOL    HW116034   2.194   3.797   1.667
 4009SOL    HW216035   2.277   3.837   1.546
 4009SOL     MW16036   2.204   3.803   1.580
 4010SOL     OW16037   5.071   0.477   4.920
 4010SOL    HW116038   5.006   0.535   4.880
 4010SOL    HW216039   5.020   0.405   4.957
 4010SOL     MW16040   5.056   0.476   4.920
 4011SOL     OW16041   3.066   2.743   4.593
 4011SOL    HW116042   3.157   2.715   4.581
 4011SOL    HW216043   3.053   2.740   4.688
 4011SOL     MW16044   3.076   2.739   4.604
 4012SOL     OW16045   3.104   3.380   3.146
 4012SOL    HW116046   3.162   3.437   3.096
 4012SOL    HW216047   3.022   3.378   3.096
 4012SOL     MW16048   3.101   3.387   3.133
 4013SOL     OW16049   0.866   1.925   0.929
 4013SOL    HW116050   0.945   1.872   0.943
 4013SOL    HW216051   0.799   1.861   0.905
 4013SOL     MW16052   0.868   1.910   0.928
 4014SOL     OW16053   5.442   3.550   1.142
 4014SOL    HW116054   5.485   3.508   1.067
 4014SOL    HW216055   5.472   3.501   1.218
 4014SOL     MW16056   5.451   3.539   1.142
 4015SOL     OW16057   2.702   3.593   2.804
 4015SOL    HW116058   2.635   3.530   2.778
 4015SOL    HW216059   2.749   3.613   2.723
 4015SOL     MW16060   2.700   3.588   2.790
 4016SOL     OW16061   1.839   0.349   2.008
 4016SOL    HW116062   1.794   0.362   1.925
 4016SOL    HW216063   1.900   0.277   1.991
 4016SOL     MW16064   1.841   0.341   1.996
 4017SOL     OW16065   0.652   5.329   3.803
 4017SOL    HW116066   0.748   5.328   3.800
 4017SOL    HW216067   0.629   5.261   3.865
 4017SOL     MW16068   0.662   5.320   3.810
 4018SOL     OW16069   4.029   2.494   1.711
 4018SOL    HW116070   3.964   2.451   1.655
 4018SOL    HW216071   4.099   2.429   1.720
 4018SOL     MW16072   4.029   2.480   1.705
 4019SOL     OW16073   0.645   2.552   0.270
 4019SOL    HW116074   0.654   2.546   0.365
 4019SOL    HW216075   0.618   2.642   0.253
 4019SOL     MW16076   0.642   2.562   0.280
 4020SOL     OW16077   3.316   3.220   4.009
 4020SOL    HW116078   3.285   3.301   3.967
 4020SOL    HW216079   3.342   3.248   4.097
 4020SOL     MW16080   3.315   3.234   4.015
 4021SOL     OW16081   1.464   1.462   3.657
 4021SOL    HW116082   1.371   1.472   3.674
 4021SOL    HW216083   1.473   1.473   3.562
 4021SOL     MW16084   1.453   1.465   3.647
 4022SOL     OW16085   5.426   1.047   1.780
 4022SOL    HW116086   5.457   1.027   1.692
 4022SOL    HW216087   5.373   0.971   1.805
 4022SOL     MW16088   5.423   1.035   1.772
 4023SOL     OW16089   5.144   2.803   1.312
 4023SOL    HW116090   5.097   2.873   1.358
 4023SOL    HW216091   5.235   2.833   1.310
 4023SOL     MW16092   5.149   2.816   1.318
 4024SOL     OW16093   0.339   0.639   3.269
 4024SOL    HW116094   0.356   0.561   3.216
 4024SOL    HW216095   0.421   0.688   3.266
 4024SOL     MW16096   0.352   0.635   3.262
 4025SOL     OW16097   0.285   2.725   0.523
 4025SOL    HW116098   0.297   2.668   0.447
 4025SOL    HW216099   0.356   2.699   0.583
 4025SOL     MW16100   0.296   2.714   0.521
 4026SOL     OW16101   5.335   0.265   4.941
 4026SOL    HW116102   5.427   0.254   4.918
 4026SOL    HW216103   5.292   0.292   4.860
 4026SOL     MW16104   5.341   0.267   4.928
 4027SOL     OW16105   3.366   0.722   5.335
 4027SOL    HW116106   3.389   0.790   5.271
 4027SOL    HW216107   3.430   0.653   5.319
 4027SOL     MW16108   3.377   0.722   5.324
 4028SOL     OW16109   4.380   4.994   1.975
 4028SOL    HW116110   4.396   5.089   1.976
 4028SOL    HW216111   4.322   4.978   2.049
 4028SOL     MW16112   4.375   5.004   1.985
 4029SOL     OW16113   4.008   1.982   1.629
 4029SOL    HW116114   4.096   1.960   1.659
 4029SOL    HW216115   3.990   1.921   1.558
 4029SOL     MW16116   4.017   1.972   1.624
 4030SOL     OW16117   5.410   2.439   5.094
 4030SOL    HW116118   5.379   2.505   5.033
 4030SOL    HW216119   5.337   2.377   5.101
 4030SOL     MW16120   5.396   2.439   5.087
 4031SOL     OW16121   4.954   4.135   0.526
 4031SOL    HW116122   4.939   4.053   0.574
 4031SOL    HW216123   4.979   4.107   0.438
 4031SOL     MW16124   4.955   4.121   0.521
 4032SOL     OW16125   3.164   2.282   3.509
 4032SOL    HW116126   3.192   2.191   3.510
 4032SOL    HW216127   3.120   2.294   3.424
 4032SOL     MW16128   3.162   2.272   3.498
 4033SOL     OW16129   0.766   0.385   1.180
 4033SOL    HW116130   0.749   0.420   1.267
 4033SOL    HW216131   0.787   0.462   1.127
 4033SOL     MW16132   0.766   0.399   1.184
 4034SOL     OW16133   0.832   3.734   2.236
 4034SOL    HW116134   0.858   3.659   2.183
 4034SOL    HW216135   0.860   3.711   2.325
 4034SOL     MW16136   0.839   3.721   2.241
 4035SOL     OW16137   1.043   4.769   5.024
 4035SOL    HW116138   1.012   4.855   5.051
 4035SOL    HW216139   0.979   4.739   4.960
 4035SOL     MW16140   1.031   4.776   5.019
 4036SOL     OW16141   1.280   0.609   1.286
 4036SOL    HW116142   1.195   0.581   1.318
 4036SOL    HW216143   1.275   0.705   1.284
 4036SOL     MW16144   1.269   0.618   1.290
 4037SOL     OW16145   1.775   0.871   5.339
 4037SOL    HW116146   1.742   0.793   5.295
 4037SOL    HW216147   1.869   0.872   5.321
 4037SOL     MW16148   1.782   0.861   5.331
 4038SOL     OW16149   0.491   3.030   1.087
 4038SOL    HW116150   0.446   3.040   1.170
 4038SOL    HW216151   0.432   2.979   1.033
 4038SOL     MW16152   0.478   3.025   1.091
 4039SOL     OW16153   5.058   5.027   4.402
 4039SOL    HW116154   5.075   5.002   4.493
 4039SOL    HW216155   5.069   4.946   4.353
 4039SOL     MW16156   5.061   5.014   4.408
 4040SOL     OW16157   3.221   4.036   0.652
 4040SOL    HW116158   3.159   4.106   0.634
 4040SOL    HW216159   3.204   4.011   0.742
 4040SOL     MW16160   3.211   4.042   0.661
 4041SOL     OW16161   4.978   3.485   3.320
 4041SOL    HW116162   4.900   3.495   3.375
 4041SOL    HW216163   5.050   3.517   3.375
 4041SOL     MW16164   4.977   3.490   3.334
 4042SOL     OW16165   4.891   3.624   2.202
 4042SOL    HW116166   4.953   3.678   2.250
 4042SOL    HW216167   4.898   3.654   2.112
 4042SOL     MW16168   4.900   3.635   2.197
 4043SOL     OW16169   1.518   3.828   0.655
 4043SOL    HW116170   1.562   3.748   0.684
 4043SOL    HW216171   1.425   3.810   0.667
 4043SOL     MW16172   1.512   3.815   0.660
 4044SOL     OW16173   2.627   4.854   1.244
 4044SOL    HW116174   2.559   4.824   1.304
 4044SOL    HW216175   2.644   4.779   1.187
 4044SOL     MW16176   2.621   4.841   1.244
 4045SOL     OW16177   5.363   4.830   0.577
 4045SOL    HW116178   5.388   4.862   0.490
 4045SOL    HW216179   5.289   4.772   0.561
 4045SOL     MW16180   5.357   4.827   0.563
 4046SOL     OW16181   2.098   0.285   0.201
 4046SOL    HW116182   2.047   0.231   0.261
 4046SOL    HW216183   2.076   0.252   0.114
 4046SOL     MW16184   2.089   0.274   0.198
 4047SOL     OW16185   0.333   5.314   3.304
 4047SOL    HW116186   0.382   5.378   3.252
 4047SOL    HW216187   0.376   5.314   3.389
 4047SOL     MW16188   0.345   5.322   3.308
 4048SOL     OW16189   4.587   5.115   2.307
 4048SOL    HW116190   4.499   5.152   2.315
 4048SOL    HW216191   4.575   5.021   2.318
 4048SOL     MW16192   4.574   5.108   2.309
 4049SOL     OW16193   1.995   5.317   4.711
 4049SOL    HW116194   1.915   5.347   4.669
 4049SOL    HW216195   1.966   5.281   4.795
 4049SOL     MW16196   1.981   5.316   4.717
 4050SOL     OW16197   2.230   0.364   3.468
 4050SOL    HW116198   2.180   0.410   3.536
 4050SOL    HW216199   2.321   0.375   3.495
 4050SOL     MW16200   2.235   0.372   3.480
 4051SOL     OW16201   2.256   0.721   1.119
 4051SOL    HW116202   2.213   0.636   1.113
 4051SOL    HW216203   2.230   0.767   1.039
 4051SOL     MW16204   2.247   0.716   1.108
 4052SOL     OW16205   4.213   1.702   5.236
 4052SOL    HW116206   4.305   1.694   5.262
 4052SOL    HW216207   4.170   1.628   5.277
 4052SOL     MW16208   4.219   1.692   5.244
 4053SOL     OW16209   5.424   1.208   0.272
 4053SOL    HW116210   5.469   1.251   0.345
 4053SOL    HW216211   5.352   1.266   0.251
 4053SOL     MW16212   5.421   1.221   0.279
 4054SOL     OW16213   0.336   4.290   0.732
 4054SOL    HW116214   0.278   4.365   0.741
 4054SOL    HW216215   0.419   4.319   0.769
 4054SOL     MW16216   0.339   4.303   0.738
 4055SOL     OW16217   3.539   5.008   0.505
 4055SOL    HW116218   3.513   5.092   0.466
 4055SOL    HW216219   3.515   5.017   0.597
 4055SOL     MW16220   3.533   5.020   0.512
 4056SOL     OW16221   0.710   2.499   0.538
 4056SOL    HW116222   0.733   2.516   0.629
 4056SOL    HW216223   0.732   2.406   0.524
 4056SOL     MW16224   0.716   2.489   0.548
 4057SOL     OW16225   4.865   0.908   2.054
 4057SOL    HW116226   4.852   0.843   2.124
 4057SOL    HW216227   4.786   0.963   2.057
 4057SOL     MW16228   4.853   0.907   2.063
 4058SOL     OW16229   3.400   3.661   4.720
 4058SOL    HW116230   3.417   3.666   4.626
 4058SOL    HW216231   3.377   3.750   4.746
 4058SOL     MW16232   3.399   3.673   4.711
 4059SOL     OW16233   0.271   4.921   2.801
 4059SOL    HW116234   0.272   4.961   2.714
 4059SOL    HW216235   0.181   4.930   2.831
 4059SOL     MW16236   0.260   4.927   2.794
 4060SOL     OW16237   1.526   5.326   2.054
 4060SOL    HW116238   1.610   5.373   2.055
 4060SOL    HW216239   1.491   5.340   2.142
 4060SOL     MW16240   1.533   5.334   2.066
 4061SOL     OW16241   1.701   0.744   2.273
 4061SOL    HW116242   1.699   0.791   2.190
 4061SOL    HW216243   1.744   0.661   2.253
 4061SOL     MW16244   1.706   0.740   2.260
 4062SOL     OW16245   1.442   2.757   1.002
 4062SOL    HW116246   1.494   2.753   1.082
 4062SOL    HW216247   1.493   2.812   0.943
 4062SOL     MW16248   1.455   2.764   1.005
 4063SOL     OW16249   1.998   1.721   4.649
 4063SOL    HW116250   1.970   1.724   4.558
 4063SOL    HW216251   2.037   1.806   4.665
 4063SOL     MW16252   1.999   1.732   4.640
 4064SOL     OW16253   2.420   1.166   5.125
 4064SOL    HW116254   2.430   1.256   5.155
 4064SOL    HW216255   2.367   1.173   5.046
 4064SOL     MW16256   2.414   1.179   5.119
 4065SOL     OW16257   0.498   4.742   4.780
 4065SOL    HW116258   0.515   4.649   4.794
 4065SOL    HW216259   0.581   4.778   4.749
 4065SOL     MW16260   0.511   4.735   4.778
 4066SOL     OW16261   2.757   4.505   2.052
 4066SOL    HW116262   2.757   4.497   1.957
 4066SOL    HW216263   2.690   4.571   2.070
 4066SOL     MW16264   2.748   4.512   2.042
 4067SOL     OW16265   2.421   5.188   4.872
 4067SOL    HW116266   2.384   5.134   4.801
 4067SOL    HW216267   2.474   5.127   4.923
 4067SOL     MW16268   2.423   5.173   4.869
 4068SOL     OW16269   1.287   1.602   1.398
 4068SOL    HW116270   1.326   1.554   1.325
 4068SOL    HW216271   1.345   1.677   1.412
 4068SOL     MW16272   1.299   1.606   1.390
 4069SOL     OW16273   2.201   4.662   1.969
 4069SOL    HW116274   2.126   4.609   1.996
 4069SOL    HW216275   2.230   4.705   2.050
 4069SOL     MW16276   2.195   4.661   1.983
 4070SOL     OW16277   2.999   4.673   5.331
 4070SOL    HW116278   2.911   4.710   5.337
 4070SOL    HW216279   3.031   4.672   5.421
 4070SOL     MW16280   2.992   4.678   5.343
 4071SOL     OW16281   3.232   3.340   5.192
 4071SOL    HW116282   3.181   3.415   5.224
 4071SOL    HW216283   3.323   3.367   5.205
 4071SOL     MW16284   3.237   3.353   5.198
 4072SOL     OW16285   2.062   3.870   1.035
 4072SOL    HW116286   2.137   3.846   1.091
 4072SOL    HW216287   2.074   3.817   0.956
 4072SOL     MW16288   2.073   3.860   1.032
 4073SOL     OW16289   3.788   5.224   4.576
 4073SOL    HW116290   3.863   5.186   4.532
 4073SOL    HW216291   3.795   5.194   4.667
 4073SOL     MW16292   3.798   5.215   4.582
 4074SOL     OW16293   1.282   5.299   1.348
 4074SOL    HW116294   1.308   5.381   1.306
 4074SOL    HW216295   1.314   5.231   1.289
 4074SOL     MW16296   1.289   5.301   1.335
 4075SOL     OW16297   0.878   1.969   2.428
 4075SOL    HW116298   0.834   2.037   2.479
 4075SOL    HW216299   0.816   1.896   2.427
 4075SOL     MW16300   0.865   1.968   2.435
 4076SOL     OW16301   4.695   4.973   5.222
 4076SOL    HW116302   4.732   5.040   5.280
 4076SOL    HW216303   4.617   4.942   5.269
 4076SOL     MW16304   4.690   4.978   5.236
 4077SOL     OW16305   0.526   2.525   0.939
 4077SOL    HW116306   0.536   2.430   0.933
 4077SOL    HW216307   0.604   2.554   0.987
 4077SOL     MW16308   0.537   2.516   0.944
 4078SOL     OW16309   1.526   4.806   3.168
 4078SOL    HW116310   1.544   4.714   3.187
 4078SOL    HW216311   1.471   4.835   3.241
 4078SOL     MW16312   1.521   4.798   3.180
 4079SOL     OW16313   3.141   3.079   1.887
 4079SOL    HW116314   3.139   3.156   1.945
 4079SOL    HW216315   3.234   3.063   1.872
 4079SOL     MW16316   3.152   3.087   1.892
 4080SOL     OW16317   3.653   3.730   4.800
 4080SOL    HW116318   3.720   3.704   4.736
 4080SOL    HW216319   3.571   3.701   4.761
 4080SOL     MW16320   3.651   3.723   4.787
 4081SOL     OW16321   0.206   2.368   2.356
 4081SOL    HW116322   0.249   2.329   2.431
 4081SOL    HW216323   0.230   2.460   2.359
 4081SOL     MW16324   0.214   2.375   2.366
 4082SOL     OW16325   3.410   3.461   1.251
 4082SOL    HW116326   3.394   3.532   1.313
 4082SOL    HW216327   3.504   3.445   1.256
 4082SOL     MW16328   3.420   3.468   1.259
 4083SOL     OW16329   2.755   2.786   4.528
 4083SOL    HW116330   2.766   2.751   4.616
 4083SOL    HW216331   2.835   2.760   4.482
 4083SOL     MW16332   2.767   2.778   4.533
 4084SOL     OW16333   3.102   3.616   2.788
 4084SOL    HW116334   3.072   3.575   2.707
 4084SOL    HW216335   3.129   3.704   2.762
 4084SOL     MW16336   3.102   3.622   2.774
 4085SOL     OW16337   5.072   0.736   5.241
 4085SOL    HW116338   5.071   0.739   5.145
 4085SOL    HW216339   5.092   0.645   5.263
 4085SOL     MW16340   5.075   0.725   5.231
 4086SOL     OW16341   0.409   1.557   1.287
 4086SOL    HW116342   0.337   1.498   1.263
 4086SOL    HW216343   0.399   1.570   1.381
 4086SOL     MW16344   0.398   1.551   1.296
 4087SOL     OW16345   2.902   5.341   3.920
 4087SOL    HW116346   2.946   5.422   3.893
 4087SOL    HW216347   2.962   5.271   3.895
 4087SOL     MW16348   2.916   5.342   3.914
 4088SOL     OW16349   0.499   1.503   2.412
 4088SOL    HW116350   0.540   1.422   2.384
 4088SOL    HW216351   0.462   1.540   2.332
 4088SOL     MW16352   0.499   1.498   2.398
 4089SOL     OW16353   0.719   4.313   0.640
 4089SOL    HW116354   0.657   4.333   0.570
 4089SOL    HW216355   0.671   4.332   0.721
 4089SOL     MW16356   0.705   4.318   0.642
 4090SOL     OW16357   0.057   3.860   3.863
 4090SOL    HW116358   0.097   3.872   3.777
 4090SOL    HW216359   0.073   3.768   3.884
 4090SOL     MW16360   0.064   3.850   3.855
 4091SOL     OW16361   1.887   1.515   4.828
 4091SOL    HW116362   1.889   1.456   4.753
 4091SOL    HW216363   1.923   1.597   4.795
 4091SOL     MW16364   1.892   1.518   4.814
 4092SOL     OW16365   2.823   2.164   2.444
 4092SOL    HW116366   2.832   2.163   2.348
 4092SOL    HW216367   2.736   2.199   2.459
 4092SOL     MW16368   2.813   2.168   2.433
 4093SOL     OW16369   2.959   0.156   1.626
 4093SOL    HW116370   2.963   0.105   1.706
 4093SOL    HW216371   2.891   0.221   1.641
 4093SOL     MW16372   2.951   0.158   1.638
 4094SOL     OW16373   1.035   4.751   2.771
 4094SOL    HW116374   1.117   4.755   2.722
 4094SOL    HW216375   1.025   4.659   2.795
 4094SOL     MW16376   1.044   4.740   2.768
 4095SOL     OW16377   1.642   1.566   3.197
 4095SOL    HW116378   1.573   1.540   3.258
 4095SOL    HW216379   1.601   1.558   3.110
 4095SOL     MW16380   1.628   1.561   3.193
 4096SOL     OW16381   5.182   1.160   5.129
 4096SOL    HW116382   5.153   1.098   5.197
 4096SOL    HW216383   5.277   1.164   5.140
 4096SOL     MW16384   5.190   1.152   5.139
 4097SOL     OW16385   3.591   0.441   2.400
 4097SOL    HW116386   3.544   0.509   2.449
 4097SOL    HW216387   3.540   0.362   2.415
 4097SOL     MW16388   3.578   0.440   2.408
 4098SOL     OW16389   4.484   1.689   5.256
 4098SOL    HW116390   4.499   1.762   5.195
 4098SOL    HW216391   4.489   1.611   5.201
 4098SOL     MW16392   4.487   1.689   5.241
 4099SOL     OW16393   4.844   4.552   5.386
 4099SOL    HW116394   4.832   4.624   5.325
 4099SOL    HW216395   4.761   4.546   5.433
 4099SOL     MW16396   4.832   4.560   5.384
 4100SOL     OW16397   3.118   0.405   1.318
 4100SOL    HW116398   3.191   0.415   1.257
 4100SOL    HW216399   3.142   0.329   1.371
 4100SOL     MW16400   3.131   0.396   1.317
 4101SOL     OW16401   1.007   1.169   3.466
 4101SOL    HW116402   1.004   1.172   3.370
 4101SOL    HW216403   0.950   1.241   3.494
 4101SOL     MW16404   0.999   1.179   3.457
 4102SOL     OW16405   1.819   2.320   5.250
 4102SOL    HW116406   1.731   2.289   5.231
 4102SOL    HW216407   1.831   2.304   5.344
 4102SOL     MW16408   1.809   2.314   5.260
 4103SOL     OW16409   1.236   2.724   4.762
 4103SOL    HW116410   1.317   2.705   4.808
 4103SOL    HW216411   1.177   2.757   4.830
 4103SOL     MW16412   1.239   2.726   4.776
 4104SOL     OW16413   3.986   4.294   2.816
 4104SOL    HW116414   3.940   4.222   2.860
 4104SOL    HW216415   4.079   4.275   2.829
 4104SOL     MW16416   3.992   4.282   2.824
 4105SOL     OW16417   3.838   2.023   0.504
 4105SOL    HW116418   3.799   2.105   0.534
 4105SOL    HW216419   3.923   2.049   0.469
 4105SOL     MW16420   3.844   2.037   0.503
 4106SOL     OW16421   5.327   1.229   3.917
 4106SOL    HW116422   5.341   1.314   3.873
 4106SOL    HW216423   5.232   1.224   3.930
 4106SOL     MW16424   5.317   1.239   3.913
 4107SOL     OW16425   3.123   1.849   0.853
 4107SOL    HW116426   3.053   1.811   0.907
 4107SOL    HW216427   3.162   1.773   0.809
 4107SOL     MW16428   3.119   1.834   0.854
 4108SOL     OW16429   0.274   3.452   3.177
 4108SOL    HW116430   0.251   3.543   3.157
 4108SOL    HW216431   0.233   3.436   3.262
 4108SOL     MW16432   0.266   3.462   3.185
 4109SOL     OW16433   0.675   3.577   4.787
 4109SOL    HW116434   0.649   3.522   4.861
 4109SOL    HW216435   0.617   3.551   4.716
 4109SOL     MW16436   0.664   3.566   4.787
 4110SOL     OW16437   4.420   0.894   5.375
 4110SOL    HW116438   4.348   0.956   5.360
 4110SOL    HW216439   4.376   0.812   5.396
 4110SOL     MW16440   4.405   0.892   5.376
 4111SOL     OW16441   0.800   3.154   4.067
 4111SOL    HW116442   0.882   3.146   4.018
 4111SOL    HW216443   0.809   3.092   4.139
 4111SOL     MW16444   0.812   3.145   4.070
 4112SOL     OW16445   1.663   3.830   1.780
 4112SOL    HW116446   1.590   3.788   1.825
 4112SOL    HW216447   1.672   3.781   1.698
 4112SOL     MW16448   1.655   3.818   1.775
 4113SOL     OW16449   0.963   2.543   3.768
 4113SOL    HW116450   0.972   2.627   3.722
 4113SOL    HW216451   1.006   2.480   3.710
 4113SOL     MW16452   0.970   2.546   3.755
 4114SOL     OW16453   0.929   4.629   3.923
 4114SOL    HW116454   1.007   4.629   3.868
 4114SOL    HW216455   0.910   4.537   3.938
 4114SOL     MW16456   0.936   4.617   3.918
 4115SOL     OW16457   3.640   0.206   1.835
 4115SOL    HW116458   3.563   0.201   1.779
 4115SOL    HW216459   3.607   0.236   1.920
 4115SOL     MW16460   3.626   0.209   1.839
 4116SOL     OW16461   3.565   1.596   3.431
 4116SOL    HW116462   3.501   1.628   3.368
 4116SOL    HW216463   3.517   1.593   3.514
 4116SOL     MW16464   3.550   1.599   3.434
 4117SOL     OW16465   1.507   3.756   1.032
 4117SOL    HW116466   1.470   3.830   1.080
 4117SOL    HW216467   1.531   3.693   1.101
 4117SOL     MW16468   1.505   3.757   1.047
 4118SOL     OW16469   2.354   0.358   0.262
 4118SOL    HW116470   2.398   0.287   0.308
 4118SOL    HW216471   2.267   0.325   0.243
 4118SOL     MW16472   2.349   0.345   0.265
 4119SOL     OW16473   3.804   1.176   0.637
 4119SOL    HW116474   3.828   1.268   0.638
 4119SOL    HW216475   3.796   1.154   0.544
 4119SOL     MW16476   3.806   1.185   0.625
 4120SOL     OW16477   3.994   4.832   4.119
 4120SOL    HW116478   4.074   4.853   4.167
 4120SOL    HW216479   3.947   4.772   4.176
 4120SOL     MW16480   3.998   4.827   4.132
 4121SOL     OW16481   3.933   1.893   0.060
 4121SOL    HW116482   3.961   1.975   0.102
 4121SOL    HW216483   3.968   1.898  -0.029
 4121SOL     MW16484   3.941   1.904   0.054
 4122SOL     OW16485   4.494   2.471   4.054
 4122SOL    HW116486   4.469   2.380   4.068
 4122SOL    HW216487   4.513   2.505   4.142
 4122SOL     MW16488   4.493   2.464   4.067
 4123SOL     OW16489   4.226   2.141   5.451
 4123SOL    HW116490   4.197   2.204   5.385
 4123SOL    HW216491   4.160   2.145   5.520
 4123SOL     MW16492   4.214   2.150   5.451
 4124SOL     OW16493   0.767   3.870   0.748
 4124SOL    HW116494   0.813   3.947   0.715
 4124SOL    HW216495   0.831   3.826   0.805
 4124SOL     MW16496   0.781   3.874   0.751
 4125SOL     OW16497   2.368   0.143   1.525
 4125SOL    HW116498   2.344   0.050   1.525
 4125SOL    HW216499   2.284   0.190   1.527
 4125SOL     MW16500   2.354   0.137   1.526
 4126SOL     OW16501   2.074   4.322   2.470
 4126SOL    HW116502   2.044   4.237   2.505
 4126SOL    HW216503   2.086   4.306   2.376
 4126SOL     MW16504   2.072   4.309   2.462
 4127SOL     OW16505   3.868   3.082   4.131
 4127SOL    HW116506   3.902   2.993   4.144
 4127SOL    HW216507   3.818   3.078   4.050
 4127SOL     MW16508   3.866   3.070   4.123
 4128SOL     OW16509   1.560   4.713   5.114
 4128SOL    HW116510   1.466   4.704   5.097
 4128SOL    HW216511   1.574   4.662   5.194
 4128SOL     MW16512   1.550   4.705   5.122
 4129SOL     OW16513   2.204   2.206   4.469
 4129SOL    HW116514   2.248   2.225   4.386
 4129SOL    HW216515   2.203   2.290   4.515
 4129SOL     MW16516   2.209   2.219   4.464
 4130SOL     OW16517   3.973   3.355   0.503
 4130SOL    HW116518   3.943   3.276   0.547
 4130SOL    HW216519   4.009   3.410   0.572
 4130SOL     MW16520   3.974   3.352   0.517
 4131SOL     OW16521   4.149   0.176   4.927
 4131SOL    HW116522   4.064   0.136   4.906
 4131SOL    HW216523   4.134   0.270   4.918
 4131SOL     MW16524   4.136   0.183   4.923
 4132SOL     OW16525   0.391   3.074   3.989
 4132SOL    HW116526   0.383   2.996   4.044
 4132SOL    HW216527   0.321   3.064   3.924
 4132SOL     MW16528   0.381   3.062   3.988
 4133SOL     OW16529   2.047   1.689   1.180
 4133SOL    HW116530   2.089   1.603   1.181
 4133SOL    HW216531   2.120   1.751   1.169
 4133SOL     MW16532   2.062   1.686   1.179
 4134SOL     OW16533   1.241   0.851   3.964
 4134SOL    HW116534   1.147   0.866   3.952
 4134SOL    HW216535   1.261   0.782   3.901
 4134SOL     MW16536   1.231   0.844   3.954
 4135SOL     OW16537   3.366   3.110   5.291
 4135SOL    HW116538   3.439   3.110   5.229
 4135SOL    HW216539   3.311   3.183   5.263
 4135SOL     MW16540   3.368   3.119   5.279
 4136SOL     OW16541   2.913   2.935   1.886
 4136SOL    HW116542   2.996   2.984   1.890
 4136SOL    HW216543   2.846   3.003   1.880
 4136SOL     MW16544   2.915   2.950   1.886
 4137SOL     OW16545   5.213   0.362   4.721
 4137SOL    HW116546   5.280   0.427   4.700
 4137SOL    HW216547   5.156   0.406   4.784
 4137SOL     MW16548   5.215   0.376   4.726
 4138SOL     OW16549   2.745   4.744   1.640
 4138SOL    HW116550   2.756   4.812   1.707
 4138SOL    HW216551   2.828   4.696   1.642
 4138SOL     MW16552   2.757   4.747   1.649
 4139SOL     OW16553   2.467   0.109   3.724
 4139SOL    HW116554   2.405   0.154   3.782
 4139SOL    HW216555   2.416   0.036   3.687
 4139SOL     MW16556   2.452   0.105   3.727
 4140SOL     OW16557   2.402   5.017   1.528
 4140SOL    HW116558   2.333   4.980   1.583
 4140SOL    HW216559   2.355   5.065   1.460
 4140SOL     MW16560   2.387   5.019   1.526
 4141SOL     OW16561   3.540   4.736   0.165
 4141SOL    HW116562   3.499   4.683   0.234
 4141SOL    HW216563   3.630   4.704   0.161
 4141SOL     MW16564   3.546   4.725   0.174
 4142SOL     OW16565   4.924   1.726   2.511
 4142SOL    HW116566   4.850   1.667   2.495
 4142SOL    HW216567   4.973   1.683   2.581
 4142SOL     MW16568   4.921   1.713   2.518
 4143SOL     OW16569   1.831   2.195   3.232
 4143SOL    HW116570   1.888   2.227   3.162
 4143SOL    HW216571   1.775   2.131   3.189
 4143SOL     MW16572   1.831   2.191   3.218
 4144SOL     OW16573   3.247   1.705   3.031
 4144SOL    HW116574   3.270   1.633   2.972
 4144SOL    HW216575   3.293   1.686   3.113
 4144SOL     MW16576   3.256   1.694   3.034
 4145SOL     OW16577   4.834   0.278   2.633
 4145SOL    HW116578   4.894   0.227   2.579
 4145SOL    HW216579   4.756   0.224   2.642
 4145SOL     MW16580   4.832   0.265   2.627
 4146SOL     OW16581   2.331   0.428   1.671
 4146SOL    HW116582   2.402   0.431   1.734
 4146SOL    HW216583   2.366   0.472   1.594
 4146SOL     MW16584   2.344   0.434   1.669
 4147SOL     OW16585   4.517   1.605   0.353
 4147SOL    HW116586   4.533   1.603   0.258
 4147SOL    HW216587   4.464   1.527   0.369
 4147SOL     MW16588   4.512   1.594   0.343
 4148SOL     OW16589   2.037   2.150   2.254
 4148SOL    HW116590   2.006   2.163   2.344
 4148SOL    HW216591   2.074   2.234   2.229
 4148SOL     MW16592   2.038   2.162   2.262
 4149SOL     OW16593   2.775   3.896   1.551
 4149SOL    HW116594   2.747   3.810   1.522
 4149SOL    HW216595   2.722   3.914   1.629
 4149SOL     MW16596   2.765   3.887   1.558
 4150SOL     OW16597   3.565   1.819   2.808
 4150SOL    HW116598   3.470   1.824   2.810
 4150SOL    HW216599   3.591   1.814   2.900
 4150SOL     MW16600   3.556   1.819   2.820
 4151SOL     OW16601   2.848   4.339   4.152
 4151SOL    HW116602   2.900   4.415   4.126
 4151SOL    HW216603   2.823   4.356   4.242
 4151SOL     MW16604   2.851   4.351   4.160
 4152SOL     OW16605   3.456   4.998   4.951
 4152SOL    HW116606   3.532   5.013   5.008
 4152SOL    HW216607   3.444   5.080   4.904
 4152SOL     MW16608   3.464   5.010   4.952
 4153SOL     OW16609   4.799   2.049   3.897
 4153SOL    HW116610   4.817   2.143   3.902
 4153SOL    HW216611   4.723   2.035   3.953
 4153SOL     MW16612   4.792   2.059   3.904
 4154SOL     OW16613   1.076   4.409   0.036
 4154SOL    HW116614   1.065   4.328  -0.014
 4154SOL    HW216615   0.992   4.422   0.079
 4154SOL     MW16616   1.064   4.400   0.035
 4155SOL     OW16617   0.730   5.424   3.227
 4155SOL    HW116618   0.759   5.339   3.191
 4155SOL    HW216619   0.728   5.410   3.321
 4155SOL     MW16620   0.734   5.411   3.234
 4156SOL     OW16621   1.301   1.096   1.209
 4156SOL    HW116622   1.212   1.133   1.208
 4156SOL    HW216623   1.345   1.141   1.281
 4156SOL     MW16624   1.295   1.107   1.218
 4157SOL     OW16625   4.838   1.576   4.502
 4157SOL    HW116626   4.847   1.547   4.593
 4157SOL    HW216627   4.928   1.577   4.469
 4157SOL     MW16628   4.851   1.573   4.510
 4158SOL     OW16629   0.850   1.676   5.046
 4158SOL    HW116630   0.916   1.608   5.038
 4158SOL    HW216631   0.894   1.747   5.092
 4158SOL     MW16632   0.864   1.676   5.051
 4159SOL     OW16633   3.262   2.650   5.178
 4159SOL    HW116634   3.180   2.624   5.136
 4159SOL    HW216635   3.264   2.745   5.169
 4159SOL     MW16636   3.252   2.659   5.172
 4160SOL     OW16637   1.612   3.628   0.342
 4160SOL    HW116638   1.598   3.543   0.300
 4160SOL    HW216639   1.525   3.668   0.342
 4160SOL     MW16640   1.599   3.622   0.336
 4161SOL     OW16641   4.865   2.623   2.912
 4161SOL    HW116642   4.915   2.542   2.907
 4161SOL    HW216643   4.923   2.689   2.874
 4161SOL     MW16644   4.879   2.621   2.906
 4162SOL     OW16645   3.054   2.315   0.013
 4162SOL    HW116646   2.959   2.327   0.005
 4162SOL    HW216647   3.090   2.399  -0.016
 4162SOL     MW16648   3.046   2.327   0.008
 4163SOL     OW16649   2.007   5.195   2.236
 4163SOL    HW116650   1.974   5.184   2.147
 4163SOL    HW216651   1.963   5.273   2.269
 4163SOL     MW16652   1.997   5.203   2.229
 4164SOL     OW16653   3.917   0.202   2.119
 4164SOL    HW116654   3.980   0.160   2.177
 4164SOL    HW216655   3.970   0.247   2.053
 4164SOL     MW16656   3.932   0.202   2.118
 4165SOL     OW16657   2.977   4.826   4.119
 4165SOL    HW116658   2.882   4.821   4.124
 4165SOL    HW216659   2.995   4.849   4.028
 4165SOL     MW16660   2.967   4.828   4.108
 4166SOL     OW16661   5.298   0.169   3.619
 4166SOL    HW116662   5.323   0.091   3.568
 4166SOL    HW216663   5.348   0.240   3.578
 4166SOL     MW16664   5.308   0.168   3.607
 4167SOL     OW16665   5.414   0.817   3.215
 4167SOL    HW116666   5.339   0.877   3.220
 4167SOL    HW216667   5.383   0.738   3.259
 4167SOL     MW16668   5.400   0.814   3.221
 4168SOL     OW16669   0.852   4.086   0.581
 4168SOL    HW116670   0.808   4.053   0.503
 4168SOL    HW216671   0.797   4.158   0.611
 4168SOL     MW16672   0.839   4.091   0.575
 4169SOL     OW16673   0.458   4.061   4.214
 4169SOL    HW116674   0.417   4.064   4.128
 4169SOL    HW216675   0.551   4.045   4.195
 4169SOL     MW16676   0.465   4.059   4.201
 4170SOL     OW16677   1.445   4.276   1.364
 4170SOL    HW116678   1.438   4.258   1.270
 4170SOL    HW216679   1.516   4.340   1.371
 4170SOL     MW16680   1.453   4.282   1.353
 4171SOL     OW16681   5.015   0.513   4.170
 4171SOL    HW116682   5.027   0.606   4.150
 4171SOL    HW216683   4.929   0.509   4.212
 4171SOL     MW16684   5.005   0.525   4.173
 4172SOL     OW16685   4.685   3.608   5.238
 4172SOL    HW116686   4.748   3.581   5.171
 4172SOL    HW216687   4.734   3.667   5.295
 4172SOL     MW16688   4.699   3.612   5.237
 4173SOL     OW16689   2.009   1.881   0.591
 4173SOL    HW116690   2.096   1.912   0.614
 4173SOL    HW216691   1.993   1.809   0.652
 4173SOL     MW16692   2.018   1.876   0.602
 4174SOL     OW16693   3.273   3.612   2.483
 4174SOL    HW116694   3.196   3.557   2.499
 4174SOL    HW216695   3.340   3.551   2.453
 4174SOL     MW16696   3.271   3.597   2.481
 4175SOL     OW16697   4.129   0.316   2.639
 4175SOL    HW116698   4.181   0.360   2.706
 4175SOL    HW216699   4.089   0.388   2.590
 4175SOL     MW16700   4.130   0.331   2.642
 4176SOL     OW16701   3.606   5.268   0.033
 4176SOL    HW116702   3.523   5.268   0.080
 4176SOL    HW216703   3.630   5.175   0.027
 4176SOL     MW16704   3.598   5.256   0.038
 4177SOL     OW16705   1.745   2.975   2.304
 4177SOL    HW116706   1.800   2.907   2.345
 4177SOL    HW216707   1.710   2.933   2.226
 4177SOL     MW16708   1.748   2.961   2.299
 4178SOL     OW16709   0.233   5.074   4.367
 4178SOL    HW116710   0.224   4.979   4.369
 4178SOL    HW216711   0.302   5.093   4.431
 4178SOL     MW16712   0.241   5.064   4.376
 4179SOL     OW16713   1.187   1.171   2.472
 4179SOL    HW116714   1.276   1.139   2.485
 4179SOL    HW216715   1.145   1.104   2.419
 4179SOL     MW16716   1.193   1.159   2.467
 4180SOL     OW16717   0.708   4.356   0.048
 4180SOL    HW116718   0.760   4.386   0.123
 4180SOL    HW216719   0.619   4.349   0.083
 4180SOL     MW16720   0.703   4.359   0.062
 4181SOL     OW16721   2.349   0.292   4.169
 4181SOL    HW116722   2.444   0.287   4.169
 4181SOL    HW216723   2.322   0.264   4.082
 4181SOL     MW16724   2.357   0.288   4.158
 4182SOL     OW16725   2.238   4.083   1.348
 4182SOL    HW116726   2.219   4.099   1.256
 4182SOL    HW216727   2.157   4.108   1.394
 4182SOL     MW16728   2.225   4.088   1.342
 4183SOL     OW16729   1.125   2.039   1.626
 4183SOL    HW116730   1.065   2.024   1.553
 4183SOL    HW216731   1.147   2.132   1.621
 4183SOL     MW16732   1.120   2.049   1.616
 4184SOL     OW16733   4.056   3.530   0.693
 4184SOL    HW116734   4.109   3.506   0.769
 4184SOL    HW216735   4.016   3.614   0.717
 4184SOL     MW16736   4.058   3.538   0.706
 4185SOL     OW16737   1.293   1.419   5.180
 4185SOL    HW116738   1.343   1.466   5.246
 4185SOL    HW216739   1.359   1.385   5.119
 4185SOL     MW16740   1.308   1.421   5.180
 4186SOL     OW16741   1.501   0.837   3.159
 4186SOL    HW116742   1.566   0.854   3.091
 4186SOL    HW216743   1.511   0.744   3.180
 4186SOL     MW16744   1.511   0.827   3.153
 4187SOL     OW16745   2.239   0.398   1.303
 4187SOL    HW116746   2.281   0.330   1.250
 4187SOL    HW216747   2.175   0.438   1.245
 4187SOL     MW16748   2.236   0.394   1.289
 4188SOL     OW16749   1.242   0.419   2.798
 4188SOL    HW116750   1.276   0.335   2.768
 4188SOL    HW216751   1.231   0.470   2.718
 4188SOL     MW16752   1.245   0.415   2.784
 4189SOL     OW16753   4.891   3.789   1.352
 4189SOL    HW116754   4.851   3.860   1.303
 4189SOL    HW216755   4.839   3.712   1.330
 4189SOL     MW16756   4.879   3.788   1.343
 4190SOL     OW16757   0.492   3.502   2.456
 4190SOL    HW116758   0.448   3.543   2.531
 4190SOL    HW216759   0.432   3.432   2.430
 4190SOL     MW16760   0.478   3.498   2.462
 4191SOL     OW16761   4.520   4.199   5.282
 4191SOL    HW116762   4.431   4.179   5.254
 4191SOL    HW216763   4.510   4.241   5.368
 4191SOL     MW16764   4.507   4.202   5.290
 4192SOL     OW16765   4.547   2.719   0.155
 4192SOL    HW116766   4.469   2.695   0.105
 4192SOL    HW216767   4.546   2.660   0.231
 4192SOL     MW16768   4.537   2.708   0.159
 4193SOL     OW16769   0.943   2.113   5.086
 4193SOL    HW116770   0.848   2.119   5.076
 4193SOL    HW216771   0.964   2.177   5.154
 4193SOL     MW16772   0.934   2.122   5.093
 4194SOL     OW16773   4.505   3.901   5.232
 4194SOL    HW116774   4.574   3.968   5.229
 4194SOL    HW216775   4.520   3.848   5.154
 4194SOL     MW16776   4.516   3.903   5.222
 4195SOL     OW16777   1.554   4.383   4.053
 4195SOL    HW116778   1.643   4.378   4.017
 4195SOL    HW216779   1.533   4.294   4.079
 4195SOL     MW16780   1.563   4.371   4.052
 4196SOL     OW16781   2.009   1.831   3.067
 4196SOL    HW116782   2.091   1.851   3.113
 4196SOL    HW216783   2.015   1.737   3.048
 4196SOL     MW16784   2.021   1.821   3.071
 4197SOL     OW16785   4.089   0.314   1.937
 4197SOL    HW116786   4.165   0.260   1.955
 4197SOL    HW216787   4.080   0.314   1.842
 4197SOL     MW16788   4.097   0.307   1.927
 4198SOL     OW16789   2.780   4.741   2.315
 4198SOL    HW116790   2.827   4.737   2.398
 4198SOL    HW216791   2.839   4.700   2.252
 4198SOL     MW16792   2.793   4.735   2.318
 4199SOL     OW16793   4.129   4.914   0.658
 4199SOL    HW116794   4.083   4.867   0.589
 4199SOL    HW216795   4.211   4.867   0.669
 4199SOL     MW16796   4.133   4.902   0.650
 4200SOL     OW16797   3.396   2.403   4.557
 4200SOL    HW116798   3.476   2.419   4.605
 4200SOL    HW216799   3.327   2.403   4.623
 4200SOL     MW16800   3.397   2.405   4.571
 4201SOL     OW16801   1.495   2.519   4.256
 4201SOL    HW116802   1.572   2.560   4.216
 4201SOL    HW216803   1.528   2.437   4.292
 4201SOL     MW16804   1.509   2.514   4.256
 4202SOL     OW16805   3.799   0.271   4.740
 4202SOL    HW116806   3.886   0.287   4.703
 4202SOL    HW216807   3.752   0.354   4.727
 4202SOL     MW16808   3.805   0.284   4.733
 4203SOL     OW16809   5.361   1.924   0.283
 4203SOL    HW116810   5.342   2.015   0.262
 4203SOL    HW216811   5.275   1.882   0.287
 4203SOL     MW16812   5.348   1.930   0.281
 4204SOL     OW16813   0.074   4.558   1.651
 4204SOL    HW116814   0.159   4.552   1.695
 4204SOL    HW216815   0.069   4.478   1.597
 4204SOL     MW16816   0.084   4.547   1.649
 4205SOL     OW16817   3.773   0.285   3.091
 4205SOL    HW116818   3.754   0.367   3.137
 4205SOL    HW216819   3.745   0.301   3.001
 4205SOL     MW16820   3.767   0.298   3.085
 4206SOL     OW16821   0.747   5.015   4.013
 4206SOL    HW116822   0.674   5.076   4.005
 4206SOL    HW216823   0.771   4.995   3.923
 4206SOL     MW16824   0.741   5.020   4.001
 4207SOL     OW16825   1.690   2.735   4.470
 4207SOL    HW116826   1.761   2.675   4.445
 4207SOL    HW216827   1.629   2.680   4.519
 4207SOL     MW16828   1.692   2.720   4.473
 4208SOL     OW16829   2.205   5.432   0.857
 4208SOL    HW116830   2.233   5.403   0.943
 4208SOL    HW216831   2.238   5.522   0.849
 4208SOL     MW16832   2.213   5.440   0.867
 4209SOL     OW16833   0.490   3.513   4.599
 4209SOL    HW116834   0.443   3.594   4.580
 4209SOL    HW216835   0.435   3.468   4.663
 4209SOL     MW16836   0.477   3.517   4.605
 4210SOL     OW16837   1.347   4.727   0.082
 4210SOL    HW116838   1.268   4.753   0.130
 4210SOL    HW216839   1.390   4.810   0.061
 4210SOL     MW16840   1.342   4.741   0.086
 4211SOL     OW16841   4.951   3.358   2.277
 4211SOL    HW116842   4.935   3.451   2.262
 4211SOL    HW216843   5.014   3.355   2.349
 4211SOL     MW16844   4.957   3.369   2.285
 4212SOL     OW16845   3.858   5.151   1.996
 4212SOL    HW116846   3.796   5.156   1.924
 4212SOL    HW216847   3.929   5.210   1.970
 4212SOL     MW16848   3.859   5.159   1.984
 4213SOL     OW16849   4.493   0.584   2.268
 4213SOL    HW116850   4.451   0.549   2.190
 4213SOL    HW216851   4.430   0.647   2.303
 4213SOL     MW16852   4.480   0.588   2.263
 4214SOL     OW16853   1.260   5.045   0.698
 4214SOL    HW116854   1.287   5.036   0.790
 4214SOL    HW216855   1.286   4.963   0.657
 4214SOL     MW16856   1.266   5.033   0.705
 4215SOL     OW16857   1.924   0.547   3.380
 4215SOL    HW116858   1.942   0.457   3.352
 4215SOL    HW216859   2.001   0.597   3.353
 4215SOL     MW16860   1.936   0.542   3.373
 4216SOL     OW16861   3.295   1.844   1.848
 4216SOL    HW116862   3.361   1.775   1.844
 4216SOL    HW216863   3.310   1.895   1.768
 4216SOL     MW16864   3.305   1.842   1.837
 4217SOL     OW16865   2.751   0.387   0.821
 4217SOL    HW116866   2.698   0.329   0.767
 4217SOL    HW216867   2.738   0.474   0.783
 4217SOL     MW16868   2.743   0.391   0.810
 4218SOL     OW16869   2.005   5.117   1.295
 4218SOL    HW116870   1.959   5.046   1.339
 4218SOL    HW216871   1.963   5.197   1.326
 4218SOL     MW16872   1.994   5.118   1.304
 4219SOL     OW16873   0.553   0.329   1.003
 4219SOL    HW116874   0.587   0.355   0.917
 4219SOL    HW216875   0.624   0.348   1.064
 4219SOL     MW16876   0.567   0.334   1.000
 4220SOL     OW16877   0.554   3.581   5.285
 4220SOL    HW116878   0.509   3.592   5.369
 4220SOL    HW216879   0.485   3.593   5.220
 4220SOL     MW16880   0.539   3.584   5.288
 4221SOL     OW16881   0.697   3.967   0.384
 4221SOL    HW116882   0.705   3.965   0.288
 4221SOL    HW216883   0.731   3.882   0.412
 4221SOL     MW16884   0.702   3.956   0.375
 4222SOL     OW16885   3.983   2.228   4.096
 4222SOL    HW116886   4.050   2.213   4.163
 4222SOL    HW216887   4.021   2.295   4.039
 4222SOL     MW16888   3.997   2.235   4.098
 4223SOL     OW16889   0.509   2.015   5.360
 4223SOL    HW116890   0.594   1.971   5.367
 4223SOL    HW216891   0.448   1.954   5.401
 4223SOL     MW16892   0.512   2.001   5.366
 4224SOL     OW16893   3.043   4.910   1.363
 4224SOL    HW116894   2.956   4.929   1.398
 4224SOL    HW216895   3.100   4.906   1.439
 4224SOL     MW16896   3.039   4.912   1.377
 4225SOL     OW16897   1.649   0.558   0.544
 4225SOL    HW116898   1.627   0.465   0.540
 4225SOL    HW216899   1.583   0.601   0.490
 4225SOL     MW16900   1.638   0.552   0.536
 4226SOL     OW16901   4.499   2.880   0.962
 4226SOL    HW116902   4.549   2.878   0.880
 4226SOL    HW216903   4.418   2.926   0.939
 4226SOL     MW16904   4.495   2.885   0.948
 4227SOL     OW16905   1.064   4.250   0.654
 4227SOL    HW116906   1.054   4.342   0.632
 4227SOL    HW216907   0.985   4.208   0.618
 4227SOL     MW16908   1.053   4.256   0.646
 4228SOL     OW16909   5.015   1.143   0.553
 4228SOL    HW116910   5.017   1.197   0.632
 4228SOL    HW216911   5.087   1.081   0.565
 4228SOL     MW16912   5.025   1.142   0.564
 4229SOL     OW16913   1.666   4.436   1.362
 4229SOL    HW116914   1.711   4.385   1.428
 4229SOL    HW216915   1.678   4.527   1.389
 4229SOL     MW16916   1.673   4.441   1.374
 4230SOL     OW16917   4.659   2.450   3.605
 4230SOL    HW116918   4.651   2.478   3.696
 4230SOL    HW216919   4.678   2.356   3.610
 4230SOL     MW16920   4.661   2.442   3.617
 4231SOL     OW16921   5.260   0.095   2.429
 4231SOL    HW116922   5.252   0.013   2.477
 4231SOL    HW216923   5.272   0.069   2.338
 4231SOL     MW16924   5.260   0.081   2.424
 4232SOL     OW16925   4.529   3.916   1.166
 4232SOL    HW116926   4.512   3.826   1.192
 4232SOL    HW216927   4.455   3.966   1.199
 4232SOL     MW16928   4.518   3.911   1.174
 4233SOL     OW16929   1.029   3.734   1.659
 4233SOL    HW116930   1.006   3.715   1.568
 4233SOL    HW216931   0.973   3.808   1.683
 4233SOL     MW16932   1.019   3.741   1.651
 4234SOL     OW16933   2.427   2.158   4.614
 4234SOL    HW116934   2.471   2.087   4.566
 4234SOL    HW216935   2.343   2.169   4.569
 4234SOL     MW16936   2.422   2.150   4.602
 4235SOL     OW16937   4.021   5.158   4.449
 4235SOL    HW116938   4.057   5.075   4.479
 4235SOL    HW216939   4.079   5.224   4.486
 4235SOL     MW16940   4.033   5.156   4.457
 4236SOL     OW16941   0.378   4.293   4.336
 4236SOL    HW116942   0.300   4.317   4.286
 4236SOL    HW216943   0.414   4.218   4.290
 4236SOL     MW16944   0.372   4.287   4.324
 4237SOL     OW16945   1.974   4.735   0.513
 4237SOL    HW116946   2.000   4.796   0.582
 4237SOL    HW216947   2.056   4.711   0.470
 4237SOL     MW16948   1.988   4.740   0.516
 4238SOL     OW16949   1.544   4.752   1.196
 4238SOL    HW116950   1.498   4.812   1.254
 4238SOL    HW216951   1.606   4.807   1.148
 4238SOL     MW16952   1.546   4.767   1.197
 4239SOL     OW16953   1.641   2.054   3.083
 4239SOL    HW116954   1.562   2.079   3.131
 4239SOL    HW216955   1.625   2.085   2.994
 4239SOL     MW16956   1.629   2.061   3.077
 4240SOL     OW16957   2.710   0.880   2.280
 4240SOL    HW116958   2.758   0.810   2.237
 4240SOL    HW216959   2.692   0.848   2.368
 4240SOL     MW16960   2.714   0.867   2.286
 4241SOL     OW16961   4.197   4.360   3.734
 4241SOL    HW116962   4.219   4.343   3.826
 4241SOL    HW216963   4.111   4.320   3.722
 4241SOL     MW16964   4.189   4.353   3.745
 4242SOL     OW16965   0.533   1.608   3.406
 4242SOL    HW116966   0.497   1.568   3.485
 4242SOL    HW216967   0.585   1.538   3.366
 4242SOL     MW16968   0.535   1.594   3.411
 4243SOL     OW16969   2.566   2.579   0.873
 4243SOL    HW116970   2.650   2.623   0.888
 4243SOL    HW216971   2.580   2.490   0.907
 4243SOL     MW16972   2.579   2.573   0.879
 4244SOL     OW16973   0.082   4.537   1.264
 4244SOL    HW116974   0.163   4.578   1.233
 4244SOL    HW216975   0.101   4.509   1.354
 4244SOL     MW16976   0.095   4.538   1.271
 4245SOL     OW16977   5.071   0.787   4.971
 4245SOL    HW116978   5.155   0.749   4.944
 4245SOL    HW216979   5.008   0.751   4.908
 4245SOL     MW16980   5.073   0.777   4.959
 4246SOL     OW16981   3.363   0.041   2.247
 4246SOL    HW116982   3.348  -0.045   2.207
 4246SOL    HW216983   3.303   0.100   2.201
 4246SOL     MW16984   3.353   0.037   2.236
 4247SOL     OW16985   0.631   0.453   5.013
 4247SOL    HW116986   0.616   0.381   5.075
 4247SOL    HW216987   0.595   0.530   5.057
 4247SOL     MW16988   0.624   0.453   5.027
 4248SOL     OW16989   3.291   0.657   2.188
 4248SOL    HW116990   3.385   0.675   2.190
 4248SOL    HW216991   3.278   0.608   2.106
 4248SOL     MW16992   3.301   0.653   2.177
 4249SOL     OW16993   2.344   3.265   4.124
 4249SOL    HW116994   2.306   3.340   4.079
 4249SOL    HW216995   2.381   3.211   4.054
 4249SOL     MW16996   2.344   3.268   4.109
 4250SOL     OW16997   4.449   3.907   1.584
 4250SOL    HW116998   4.446   3.975   1.652
 4250SOL    HW216999   4.538   3.913   1.549
 4250SOL     MW17000   4.460   3.916   1.588
 4251SOL     OW17001   2.266   4.647   3.956
 4251SOL    HW117002   2.265   4.591   3.878
 4251SOL    HW217003   2.261   4.586   4.029
 4251SOL     MW17004   2.265   4.632   3.955
 4252SOL     OW17005   4.648   0.658   4.081
 4252SOL    HW117006   4.714   0.687   4.018
 4252SOL    HW217007   4.576   0.626   4.027
 4252SOL     MW17008   4.647   0.658   4.066
 4253SOL     OW17009   0.632   1.859   4.083
 4253SOL    HW117010   0.653   1.781   4.134
 4253SOL    HW217011   0.717   1.894   4.056
 4253SOL     MW17012   0.646   1.854   4.086
 4254SOL     OW17013   5.472   2.981   4.912
 4254SOL    HW117014   5.401   3.031   4.871
 4254SOL    HW217015   5.538   2.974   4.844
 4254SOL     MW17016   5.471   2.987   4.898
 4255SOL     OW17017   4.643   0.477   0.809
 4255SOL    HW117018   4.572   0.535   0.837
 4255SOL    HW217019   4.687   0.524   0.739
 4255SOL     MW17020   4.639   0.490   0.804
 4256SOL     OW17021   4.354   1.870   2.338
 4256SOL    HW117022   4.364   1.918   2.420
 4256SOL    HW217023   4.259   1.863   2.326
 4256SOL     MW17024   4.343   1.875   2.347
 4257SOL     OW17025   4.058   1.488   5.310
 4257SOL    HW117026   4.130   1.427   5.292
 4257SOL    HW217027   4.036   1.473   5.401
 4257SOL     MW17028   4.065   1.478   5.319
 4258SOL     OW17029   3.349   2.696   2.892
 4258SOL    HW117030   3.312   2.712   2.979
 4258SOL    HW217031   3.441   2.718   2.900
 4258SOL     MW17032   3.356   2.701   2.904
 4259SOL     OW17033   4.417   5.076   3.468
 4259SOL    HW117034   4.500   5.120   3.451
 4259SOL    HW217035   4.409   5.076   3.564
 4259SOL     MW17036   4.427   5.081   3.478
 4260SOL     OW17037   0.609   4.117   3.575
 4260SOL    HW117038   0.546   4.079   3.636
 4260SOL    HW217039   0.646   4.042   3.529
 4260SOL     MW17040   0.605   4.103   3.577
 4261SOL     OW17041   0.976   3.127   3.376
 4261SOL    HW117042   1.046   3.086   3.326
 4261SOL    HW217043   0.922   3.054   3.406
 4261SOL     MW17044   0.978   3.113   3.373
 4262SOL     OW17045   1.721   0.883   0.978
 4262SOL    HW117046   1.765   0.839   1.051
 4262SOL    HW217047   1.722   0.819   0.907
 4262SOL     MW17048   1.727   0.869   0.978
 4263SOL     OW17049   5.448   4.109   4.535
 4263SOL    HW117050   5.541   4.128   4.519
 4263SOL    HW217051   5.410   4.102   4.448
 4263SOL     MW17052   5.455   4.111   4.522
 4264SOL     OW17053   2.025   4.537   2.631
 4264SOL    HW117054   2.032   4.465   2.568
 4264SOL    HW217055   2.110   4.538   2.675
 4264SOL     MW17056   2.037   4.528   2.628
 4265SOL     OW17057   5.074   3.354   3.589
 4265SOL    HW117058   5.138   3.418   3.559
 4265SOL    HW217059   5.050   3.306   3.510
 4265SOL     MW17060   5.079   3.356   3.575
 4266SOL     OW17061   4.956   0.942   3.577
 4266SOL    HW117062   5.029   0.897   3.534
 4266SOL    HW217063   4.904   0.871   3.615
 4266SOL     MW17064   4.959   0.927   3.576
 4267SOL     OW17065   5.133   4.612   4.445
 4267SOL    HW117066   5.122   4.678   4.377
 4267SOL    HW217067   5.084   4.647   4.520
 4267SOL     MW17068   5.126   4.625   4.446
 4268SOL     OW17069   1.359   4.808   0.593
 4268SOL    HW117070   1.304   4.754   0.536
 4268SOL    HW217071   1.409   4.746   0.645
 4268SOL     MW17072   1.358   4.793   0.592
 4269SOL     OW17073   1.939   0.108   0.334
 4269SOL    HW117074   1.892   0.088   0.415
 4269SOL    HW217075   1.869   0.115   0.268
 4269SOL     MW17076   1.924   0.106   0.336
 4270SOL     OW17077   3.571   5.002   3.798
 4270SOL    HW117078   3.607   5.010   3.709
 4270SOL    HW217079   3.525   5.084   3.812
 4270SOL     MW17080   3.570   5.013   3.788
 4271SOL     OW17081   4.892   2.707   5.029
 4271SOL    HW117082   4.948   2.629   5.024
 4271SOL    HW217083   4.825   2.685   5.094
 4271SOL     MW17084   4.891   2.695   5.037
 4272SOL     OW17085   2.724   1.583   1.952
 4272SOL    HW117086   2.752   1.589   1.861
 4272SOL    HW217087   2.782   1.519   1.992
 4272SOL     MW17088   2.735   1.576   1.946
 4273SOL     OW17089   1.905   3.089   0.349
 4273SOL    HW117090   1.989   3.133   0.340
 4273SOL    HW217091   1.923   2.997   0.330
 4273SOL     MW17092   1.918   3.083   0.345
 4274SOL     OW17093   3.908   0.536   1.291
 4274SOL    HW117094   3.929   0.628   1.307
 4274SOL    HW217095   3.848   0.512   1.362
 4274SOL     MW17096   3.903   0.545   1.302
 4275SOL     OW17097   1.484   1.557   1.794
 4275SOL    HW117098   1.455   1.647   1.807
 4275SOL    HW217099   1.440   1.529   1.713
 4275SOL     MW17100   1.474   1.565   1.785
 4276SOL     OW17101   4.229   2.465   3.564
 4276SOL    HW117102   4.207   2.372   3.554
 4276SOL    HW217103   4.267   2.471   3.652
 4276SOL     MW17104   4.231   2.454   3.574
 4277SOL     OW17105   0.927   0.438   1.655
 4277SOL    HW117106   0.958   0.527   1.640
 4277SOL    HW217107   0.858   0.447   1.720
 4277SOL     MW17108   0.922   0.450   1.661
 4278SOL     OW17109   2.500   3.105   1.269
 4278SOL    HW117110   2.595   3.108   1.273
 4278SOL    HW217111   2.471   3.158   1.343
 4278SOL     MW17112   2.508   3.112   1.279
 4279SOL     OW17113   3.909   4.488   3.794
 4279SOL    HW117114   3.872   4.556   3.851
 4279SOL    HW217115   3.916   4.411   3.851
 4279SOL     MW17116   3.905   4.487   3.809
 4280SOL     OW17117   5.109   2.136   4.010
 4280SOL    HW117118   5.106   2.207   3.945
 4280SOL    HW217119   5.158   2.067   3.966
 4280SOL     MW17120   5.115   2.136   3.996
 4281SOL     OW17121   4.070   0.327   1.664
 4281SOL    HW117122   4.054   0.420   1.644
 4281SOL    HW217123   4.158   0.310   1.629
 4281SOL     MW17124   4.079   0.337   1.657
 4282SOL     OW17125   0.548   0.182   5.428
 4282SOL    HW117126   0.585   0.238   5.497
 4282SOL    HW217127   0.461   0.159   5.460
 4282SOL     MW17128   0.542   0.186   5.441
 4283SOL     OW17129   0.974   1.392   2.039
 4283SOL    HW117130   1.056   1.364   1.999
 4283SOL    HW217131   0.985   1.376   2.132
 4283SOL     MW17132   0.986   1.387   2.046
 4284SOL     OW17133   1.410   3.935   5.201
 4284SOL    HW117134   1.440   3.971   5.284
 4284SOL    HW217135   1.375   4.009   5.153
 4284SOL     MW17136   1.410   3.949   5.205
 4285SOL     OW17137   4.098   0.048   3.778
 4285SOL    HW117138   4.014   0.055   3.733
 4285SOL    HW217139   4.090  -0.030   3.832
 4285SOL     MW17140   4.086   0.039   3.780
 4286SOL     OW17141   1.076   4.602   1.801
 4286SOL    HW117142   1.091   4.543   1.875
 4286SOL    HW217143   0.996   4.649   1.824
 4286SOL     MW17144   1.067   4.601   1.814
 4287SOL     OW17145   1.931   4.938   2.285
 4287SOL    HW117146   1.951   5.030   2.272
 4287SOL    HW217147   1.934   4.926   2.380
 4287SOL     MW17148   1.934   4.948   2.296
 4288SOL     OW17149   3.416   3.032   1.846
 4288SOL    HW117150   3.404   3.086   1.768
 4288SOL    HW217151   3.463   3.088   1.908
 4288SOL     MW17152   3.420   3.046   1.844
 4289SOL     OW17153   3.151   5.198   4.303
 4289SOL    HW117154   3.117   5.110   4.314
 4289SOL    HW217155   3.174   5.226   4.391
 4289SOL     MW17156   3.150   5.191   4.315
 4290SOL     OW17157   1.227   4.530   0.916
 4290SOL    HW117158   1.276   4.610   0.931
 4290SOL    HW217159   1.232   4.517   0.821
 4290SOL     MW17160   1.234   4.539   0.906
 4291SOL     OW17161   1.786   1.612   1.157
 4291SOL    HW117162   1.766   1.543   1.220
 4291SOL    HW217163   1.878   1.634   1.175
 4291SOL     MW17164   1.795   1.606   1.168
 4292SOL     OW17165   3.330   2.678   4.543
 4292SOL    HW117166   3.342   2.733   4.465
 4292SOL    HW217167   3.349   2.590   4.513
 4292SOL     MW17168   3.334   2.674   4.529
 4293SOL     OW17169   0.829   0.623   2.670
 4293SOL    HW117170   0.799   0.692   2.612
 4293SOL    HW217171   0.886   0.568   2.615
 4293SOL     MW17172   0.832   0.625   2.656
 4294SOL     OW17173   0.002   0.997   1.507
 4294SOL    HW117174  -0.063   1.042   1.453
 4294SOL    HW217175   0.083   1.045   1.491
 4294SOL     MW17176   0.004   1.009   1.498
 4295SOL     OW17177   4.250   1.907   4.001
 4295SOL    HW117178   4.311   1.905   3.928
 4295SOL    HW217179   4.182   1.968   3.973
 4295SOL     MW17180   4.249   1.914   3.988
 4296SOL     OW17181   4.000   1.306   3.206
 4296SOL    HW117182   4.051   1.228   3.185
 4296SOL    HW217183   3.955   1.285   3.288
 4296SOL     MW17184   4.001   1.294   3.214
 4297SOL     OW17185   0.172   3.766   5.236
 4297SOL    HW117186   0.137   3.773   5.325
 4297SOL    HW217187   0.096   3.748   5.181
 4297SOL     MW17188   0.158   3.764   5.240
 4298SOL     OW17189   2.245   3.242   0.097
 4298SOL    HW117190   2.207   3.164   0.058
 4298SOL    HW217191   2.209   3.245   0.186
 4298SOL     MW17192   2.235   3.233   0.104
 4299SOL     OW17193   4.412   0.971   1.222
 4299SOL    HW117194   4.350   0.944   1.290
 4299SOL    HW217195   4.365   0.959   1.140
 4299SOL     MW17196   4.398   0.966   1.220
 4300SOL     OW17197   1.536   5.174   5.353
 4300SOL    HW117198   1.525   5.125   5.272
 4300SOL    HW217199   1.481   5.252   5.342
 4300SOL     MW17200   1.527   5.178   5.341
 4301SOL     OW17201   2.661   5.045   4.231
 4301SOL    HW117202   2.675   5.107   4.160
 4301SOL    HW217203   2.675   4.959   4.191
 4301SOL     MW17204   2.665   5.042   4.217
 4302SOL     OW17205   4.058   2.105   0.910
 4302SOL    HW117206   4.152   2.110   0.895
 4302SOL    HW217207   4.026   2.044   0.843
 4302SOL     MW17208   4.066   2.098   0.900
 4303SOL     OW17209   0.727   0.478   4.403
 4303SOL    HW117210   0.723   0.567   4.370
 4303SOL    HW217211   0.780   0.431   4.338
 4303SOL     MW17212   0.734   0.483   4.390
 4304SOL     OW17213   0.165   1.024   2.981
 4304SOL    HW117214   0.073   1.026   2.955
 4304SOL    HW217215   0.177   0.938   3.023
 4304SOL     MW17216   0.155   1.013   2.983
 4305SOL     OW17217   4.146   4.084   1.728
 4305SOL    HW117218   4.143   3.991   1.706
 4305SOL    HW217219   4.169   4.127   1.646
 4305SOL     MW17220   4.149   4.078   1.715
 4306SOL     OW17221   3.685   0.237   0.485
 4306SOL    HW117222   3.688   0.176   0.558
 4306SOL    HW217223   3.777   0.251   0.461
 4306SOL     MW17224   3.697   0.231   0.491
 4307SOL     OW17225   4.050   0.728   3.737
 4307SOL    HW117226   4.004   0.677   3.804
 4307SOL    HW217227   4.054   0.817   3.774
 4307SOL     MW17228   4.045   0.733   3.751
 4308SOL     OW17229   1.173   2.049   0.579
 4308SOL    HW117230   1.192   2.096   0.661
 4308SOL    HW217231   1.187   2.115   0.510
 4308SOL     MW17232   1.177   2.064   0.581
 4309SOL     OW17233   5.438   3.685   5.080
 4309SOL    HW117234   5.448   3.590   5.091
 4309SOL    HW217235   5.438   3.698   4.985
 4309SOL     MW17236   5.439   3.674   5.069
 4310SOL     OW17237   4.188   4.037   4.420
 4310SOL    HW117238   4.196   3.995   4.335
 4310SOL    HW217239   4.232   3.977   4.481
 4310SOL     MW17240   4.195   4.024   4.417
 4311SOL     OW17241   1.400   4.053   2.404
 4311SOL    HW117242   1.432   4.143   2.393
 4311SOL    HW217243   1.320   4.063   2.456
 4311SOL     MW17244   1.394   4.066   2.409
 4312SOL     OW17245   2.290   2.493   3.608
 4312SOL    HW117246   2.290   2.472   3.701
 4312SOL    HW217247   2.358   2.437   3.571
 4312SOL     MW17248   2.298   2.483   3.615
 4313SOL     OW17249   5.094   5.127   3.852
 4313SOL    HW117250   5.100   5.132   3.757
 4313SOL    HW217251   5.004   5.152   3.872
 4313SOL     MW17252   5.084   5.131   3.843
 4314SOL     OW17253   4.872   1.475   4.756
 4314SOL    HW117254   4.830   1.436   4.833
 4314SOL    HW217255   4.939   1.533   4.792
 4314SOL     MW17256   4.875   1.477   4.771
 4315SOL     OW17257   4.134   2.714   4.328
 4315SOL    HW117258   4.054   2.748   4.288
 4315SOL    HW217259   4.162   2.784   4.387
 4315SOL     MW17260   4.127   2.728   4.330
 4316SOL     OW17261   2.895   5.024   5.264
 4316SOL    HW117262   2.978   5.014   5.312
 4316SOL    HW217263   2.907   4.970   5.186
 4316SOL     MW17264   2.907   5.016   5.261
 4317SOL     OW17265   4.591   4.783   3.049
 4317SOL    HW117266   4.500   4.771   3.020
 4317SOL    HW217267   4.612   4.873   3.025
 4317SOL     MW17268   4.582   4.793   3.042
 4318SOL     OW17269   0.258   3.307   5.242
 4318SOL    HW117270   0.222   3.232   5.194
 4318SOL    HW217271   0.261   3.278   5.333
 4318SOL     MW17272   0.254   3.294   5.247
 4319SOL     OW17273   1.036   2.864   3.877
 4319SOL    HW117274   1.020   2.958   3.887
 4319SOL    HW217275   1.021   2.847   3.784
 4319SOL     MW17276   1.032   2.874   3.867
 4320SOL     OW17277   2.155   2.637   4.465
 4320SOL    HW117278   2.142   2.635   4.370
 4320SOL    HW217279   2.195   2.722   4.482
 4320SOL     MW17280   2.159   2.647   4.455
 4321SOL     OW17281   4.570   2.918   4.799
 4321SOL    HW117282   4.632   2.845   4.793
 4321SOL    HW217283   4.521   2.901   4.879
 4321SOL     MW17284   4.572   2.906   4.809
 4322SOL     OW17285   4.196   2.295   1.289
 4322SOL    HW117286   4.243   2.375   1.316
 4322SOL    HW217287   4.123   2.327   1.237
 4322SOL     MW17288   4.193   2.310   1.286
 4323SOL     OW17289   5.043   2.474   5.043
 4323SOL    HW117290   4.964   2.420   5.041
 4323SOL    HW217291   5.050   2.503   5.134
 4323SOL     MW17292   5.034   2.471   5.055
 4324SOL     OW17293   2.015   2.282   3.422
 4324SOL    HW117294   1.987   2.373   3.416
 4324SOL    HW217295   1.954   2.234   3.365
 4324SOL     MW17296   2.004   2.287   3.414
 4325SOL     OW17297   3.670   3.875   4.498
 4325SOL    HW117298   3.741   3.855   4.438
 4325SOL    HW217299   3.687   3.966   4.526
 4325SOL     MW17300   3.681   3.884   4.494
 4326SOL     OW17301   0.662   1.393   3.297
 4326SOL    HW117302   0.694   1.382   3.207
 4326SOL    HW217303   0.585   1.337   3.302
 4326SOL     MW17304   0.656   1.385   3.286
 4327SOL     OW17305   2.752   2.517   3.536
 4327SOL    HW117306   2.785   2.473   3.614
 4327SOL    HW217307   2.829   2.529   3.481
 4327SOL     MW17308   2.766   2.513   3.539
 4328SOL     OW17309   3.579   4.167   1.085
 4328SOL    HW117310   3.562   4.256   1.114
 4328SOL    HW217311   3.666   4.146   1.119
 4328SOL     MW17312   3.588   4.175   1.093
 4329SOL     OW17313   4.356   0.476   3.554
 4329SOL    HW117314   4.279   0.422   3.537
 4329SOL    HW217315   4.422   0.415   3.586
 4329SOL     MW17316   4.354   0.462   3.556
 4330SOL     OW17317   3.295   3.452   4.863
 4330SOL    HW117318   3.201   3.458   4.848
 4330SOL    HW217319   3.333   3.520   4.808
 4330SOL     MW17320   3.288   3.461   4.855
 4331SOL     OW17321   4.745   4.703   4.943
 4331SOL    HW117322   4.650   4.715   4.941
 4331SOL    HW217323   4.779   4.778   4.893
 4331SOL     MW17324   4.737   4.714   4.936
 4332SOL     OW17325   1.298   2.035   0.126
 4332SOL    HW117326   1.282   2.128   0.114
 4332SOL    HW217327   1.256   2.013   0.209
 4332SOL     MW17328   1.290   2.044   0.135
 4333SOL     OW17329   1.186   1.472   3.711
 4333SOL    HW117330   1.144   1.407   3.767
 4333SOL    HW217331   1.114   1.529   3.683
 4333SOL     MW17332   1.171   1.471   3.714
 4334SOL     OW17333   3.579   3.161   0.665
 4334SOL    HW117334   3.506   3.157   0.603
 4334SOL    HW217335   3.579   3.251   0.697
 4334SOL     MW17336   3.570   3.172   0.661
 4335SOL     OW17337   3.127   0.598   2.413
 4335SOL    HW117338   3.071   0.676   2.413
 4335SOL    HW217339   3.188   0.614   2.340
 4335SOL     MW17340   3.128   0.610   2.403
 4336SOL     OW17341   5.337   3.286   4.109
 4336SOL    HW117342   5.358   3.215   4.171
 4336SOL    HW217343   5.255   3.258   4.069
 4336SOL     MW17344   5.329   3.273   4.112
 4337SOL     OW17345   3.731   0.404   0.706
 4337SOL    HW117346   3.702   0.363   0.625
 4337SOL    HW217347   3.762   0.490   0.679
 4337SOL     MW17348   3.731   0.410   0.692
 4338SOL     OW17349   1.967   2.971   5.073
 4338SOL    HW117350   2.001   2.897   5.122
 4338SOL    HW217351   1.917   2.932   5.001
 4338SOL     MW17352   1.965   2.957   5.070
 4339SOL     OW17353   2.413   5.151   2.324
 4339SOL    HW117354   2.502   5.185   2.329
 4339SOL    HW217355   2.358   5.229   2.317
 4339SOL     MW17356   2.417   5.166   2.323
 4340SOL     OW17357   2.421   1.764   0.708
 4340SOL    HW117358   2.395   1.763   0.800
 4340SOL    HW217359   2.394   1.679   0.674
 4340SOL     MW17360   2.415   1.753   0.715
 4341SOL     OW17361   0.154   1.211   3.184
 4341SOL    HW117362   0.162   1.144   3.116
 4341SOL    HW217363   0.089   1.272   3.151
 4341SOL     MW17364   0.147   1.210   3.171
 4342SOL     OW17365   4.512   3.488   2.979
 4342SOL    HW117366   4.558   3.436   2.914
 4342SOL    HW217367   4.523   3.579   2.949
 4342SOL     MW17368   4.519   3.493   2.967
 4343SOL     OW17369   1.070   1.940   3.030
 4343SOL    HW117370   1.043   1.992   3.106
 4343SOL    HW217371   0.988   1.921   2.984
 4343SOL     MW17372   1.056   1.944   3.034
 4344SOL     OW17373   1.370   4.379   2.604
 4344SOL    HW117374   1.374   4.473   2.622
 4344SOL    HW217375   1.415   4.369   2.520
 4344SOL     MW17376   1.376   4.390   2.595
 4345SOL     OW17377   0.638   1.772   0.870
 4345SOL    HW117378   0.557   1.750   0.916
 4345SOL    HW217379   0.679   1.688   0.851
 4345SOL     MW17380   0.633   1.759   0.873
 4346SOL     OW17381   0.812   0.673   1.278
 4346SOL    HW117382   0.788   0.623   1.356
 4346SOL    HW217383   0.846   0.755   1.311
 4346SOL     MW17384   0.813   0.677   1.292
 4347SOL     OW17385   3.683   3.693   0.664
 4347SOL    HW117386   3.619   3.762   0.648
 4347SOL    HW217387   3.699   3.655   0.577
 4347SOL     MW17388   3.677   3.697   0.651
 4348SOL     OW17389   2.673   4.905   2.790
 4348SOL    HW117390   2.679   4.811   2.806
 4348SOL    HW217391   2.746   4.942   2.839
 4348SOL     MW17392   2.683   4.897   2.798
 4349SOL     OW17393   0.448   3.651   0.424
 4349SOL    HW117394   0.450   3.560   0.396
 4349SOL    HW217395   0.500   3.652   0.504
 4349SOL     MW17396   0.455   3.640   0.431
 4350SOL     OW17397   5.422   2.062   4.238
 4350SOL    HW117398   5.460   2.082   4.324
 4350SOL    HW217399   5.497   2.038   4.183
 4350SOL     MW17400   5.437   2.062   4.242
 4351SOL     OW17401   0.413   5.441   4.838
 4351SOL    HW117402   0.498   5.401   4.824
 4351SOL    HW217403   0.418   5.525   4.793
 4351SOL     MW17404   0.424   5.447   4.831
 4352SOL     OW17405   2.291   5.188   4.237
 4352SOL    HW117406   2.226   5.147   4.180
 4352SOL    HW217407   2.246   5.265   4.273
 4352SOL     MW17408   2.277   5.193   4.234
 4353SOL     OW17409   1.340   0.240   1.564
 4353SOL    HW117410   1.365   0.326   1.530
 4353SOL    HW217411   1.297   0.259   1.648
 4353SOL     MW17412   1.337   0.254   1.571
 4354SOL     OW17413   1.620   4.596   2.290
 4354SOL    HW117414   1.659   4.571   2.374
 4354SOL    HW217415   1.672   4.672   2.263
 4354SOL     MW17416   1.632   4.603   2.298
 4355SOL     OW17417   4.197   0.756   0.667
 4355SOL    HW117418   4.255   0.699   0.617
 4355SOL    HW217419   4.161   0.816   0.602
 4355SOL     MW17420   4.200   0.757   0.652
 4356SOL     OW17421   2.359   2.693   1.231
 4356SOL    HW117422   2.273   2.718   1.262
 4356SOL    HW217423   2.352   2.599   1.213
 4356SOL     MW17424   2.347   2.684   1.233
 4357SOL     OW17425   3.673   4.377   1.563
 4357SOL    HW117426   3.758   4.408   1.594
 4357SOL    HW217427   3.685   4.283   1.550
 4357SOL     MW17428   3.685   4.369   1.565
 4358SOL     OW17429   0.839   3.156   0.616
 4358SOL    HW117430   0.919   3.199   0.645
 4358SOL    HW217431   0.853   3.140   0.523
 4358SOL     MW17432   0.851   3.160   0.608
 4359SOL     OW17433   1.353   1.537   2.499
 4359SOL    HW117434   1.278   1.557   2.554
 4359SOL    HW217435   1.397   1.464   2.544
 4359SOL     MW17436   1.349   1.530   2.512
 4360SOL     OW17437   0.034   2.016   0.935
 4360SOL    HW117438  -0.057   2.002   0.961
 4360SOL    HW217439   0.044   2.111   0.933
 4360SOL     MW17440   0.023   2.026   0.938
 4361SOL     OW17441   1.034   4.170   0.921
 4361SOL    HW117442   0.948   4.197   0.954
 4361SOL    HW217443   1.039   4.209   0.834
 4361SOL     MW17444   1.024   4.178   0.914
 4362SOL     OW17445   4.113   3.286   1.952
 4362SOL    HW117446   4.172   3.293   1.876
 4362SOL    HW217447   4.027   3.308   1.917
 4362SOL     MW17448   4.110   3.290   1.938
 4363SOL     OW17449   4.356   4.768   0.677
 4363SOL    HW117450   4.313   4.683   0.688
 4363SOL    HW217451   4.433   4.764   0.734
 4363SOL     MW17452   4.360   4.756   0.686
 4364SOL     OW17453   0.908   5.242   4.770
 4364SOL    HW117454   0.935   5.259   4.860
 4364SOL    HW217455   0.813   5.256   4.770
 4364SOL     MW17456   0.899   5.246   4.782
 4365SOL     OW17457   1.335   3.050   2.490
 4365SOL    HW117458   1.371   3.139   2.496
 4365SOL    HW217459   1.271   3.045   2.561
 4365SOL     MW17460   1.331   3.061   2.500
 4366SOL     OW17461   1.912   5.471   4.218
 4366SOL    HW117462   1.845   5.403   4.221
 4366SOL    HW217463   1.937   5.476   4.126
 4366SOL     MW17464   1.907   5.463   4.206
 4367SOL     OW17465   3.030   1.011   5.295
 4367SOL    HW117466   2.970   1.083   5.316
 4367SOL    HW217467   3.112   1.053   5.272
 4367SOL     MW17468   3.033   1.025   5.294
 4368SOL     OW17469   1.965   2.615   4.864
 4368SOL    HW117470   2.048   2.568   4.870
 4368SOL    HW217471   1.917   2.589   4.942
 4368SOL     MW17472   1.970   2.605   4.875
 4369SOL     OW17473   3.059   1.947   2.674
 4369SOL    HW117474   3.106   1.940   2.590
 4369SOL    HW217475   2.967   1.953   2.649
 4369SOL     MW17476   3.054   1.947   2.660
 4370SOL     OW17477   0.395   2.747   5.031
 4370SOL    HW117478   0.415   2.800   5.108
 4370SOL    HW217479   0.475   2.750   4.978
 4370SOL     MW17480   0.408   2.754   5.034
 4371SOL     OW17481   4.091   4.738   2.869
 4371SOL    HW117482   4.155   4.809   2.865
 4371SOL    HW217483   4.111   4.692   2.950
 4371SOL     MW17484   4.102   4.741   2.879
 4372SOL     OW17485   0.951   1.603   2.408
 4372SOL    HW117486   1.011   1.662   2.362
 4372SOL    HW217487   0.988   1.594   2.495
 4372SOL     MW17488   0.963   1.610   2.413
 4373SOL     OW17489   0.845   0.731   3.417
 4373SOL    HW117490   0.906   0.689   3.479
 4373SOL    HW217491   0.889   0.724   3.332
 4373SOL     MW17492   0.858   0.725   3.414
 4374SOL     OW17493   3.822   4.601   2.534
 4374SOL    HW117494   3.895   4.555   2.491
 4374SOL    HW217495   3.825   4.571   2.624
 4374SOL     MW17496   3.832   4.591   2.540
 4375SOL     OW17497   0.808   2.589   0.786
 4375SOL    HW117498   0.791   2.585   0.880
 4375SOL    HW217499   0.782   2.678   0.761
 4375SOL     MW17500   0.803   2.600   0.795
 4376SOL     OW17501   1.531   4.889   4.898
 4376SOL    HW117502   1.554   4.828   4.968
 4376SOL    HW217503   1.596   4.959   4.905
 4376SOL     MW17504   1.542   4.890   4.908
 4377SOL     OW17505   1.928   3.610   3.144
 4377SOL    HW117506   1.883   3.634   3.064
 4377SOL    HW217507   1.933   3.692   3.194
 4377SOL     MW17508   1.923   3.624   3.140
 4378SOL     OW17509   1.326   0.073   5.092
 4378SOL    HW117510   1.360   0.109   5.175
 4378SOL    HW217511   1.291   0.149   5.046
 4378SOL     MW17512   1.326   0.088   5.097
 4379SOL     OW17513   4.601   3.733   2.650
 4379SOL    HW117514   4.687   3.776   2.644
 4379SOL    HW217515   4.616   3.646   2.613
 4379SOL     MW17516   4.614   3.728   2.645
 4380SOL     OW17517   1.200   2.886   1.416
 4380SOL    HW117518   1.281   2.936   1.418
 4380SOL    HW217519   1.225   2.799   1.447
 4380SOL     MW17520   1.214   2.881   1.420
 4381SOL     OW17521   2.553   3.636   1.026
 4381SOL    HW117522   2.588   3.556   1.064
 4381SOL    HW217523   2.459   3.619   1.015
 4381SOL     MW17524   2.545   3.624   1.029
 4382SOL     OW17525   2.390   0.489   3.767
 4382SOL    HW117526   2.349   0.573   3.745
 4382SOL    HW217527   2.426   0.458   3.684
 4382SOL     MW17528   2.389   0.495   3.753
 4383SOL     OW17529   1.568   4.561   5.335
 4383SOL    HW117530   1.473   4.550   5.341
 4383SOL    HW217531   1.590   4.622   5.405
 4383SOL     MW17532   1.558   4.567   5.345
 4384SOL     OW17533   1.587   2.269   4.343
 4384SOL    HW117534   1.505   2.239   4.303
 4384SOL    HW217535   1.647   2.279   4.269
 4384SOL     MW17536   1.584   2.267   4.328
 4385SOL     OW17537   0.781   1.728   4.499
 4385SOL    HW117538   0.806   1.817   4.475
 4385SOL    HW217539   0.806   1.721   4.591
 4385SOL     MW17540   0.787   1.739   4.508
 4386SOL     OW17541   1.399   0.501   1.508
 4386SOL    HW117542   1.366   0.540   1.427
 4386SOL    HW217543   1.345   0.541   1.577
 4386SOL     MW17544   1.388   0.511   1.507
 4387SOL     OW17545   4.858   1.282   3.461
 4387SOL    HW117546   4.856   1.260   3.554
 4387SOL    HW217547   4.937   1.239   3.428
 4387SOL     MW17548   4.868   1.274   3.469
 4388SOL     OW17549   2.386   3.226   0.666
 4388SOL    HW117550   2.436   3.161   0.617
 4388SOL    HW217551   2.443   3.250   0.739
 4388SOL     MW17552   2.400   3.220   0.669
 4389SOL     OW17553   3.149   3.722   0.246
 4389SOL    HW117554   3.243   3.735   0.259
 4389SOL    HW217555   3.129   3.640   0.291
 4389SOL     MW17556   3.158   3.713   0.253
 4390SOL     OW17557   1.694   3.153   4.443
 4390SOL    HW117558   1.699   3.083   4.507
 4390SOL    HW217559   1.646   3.115   4.369
 4390SOL     MW17560   1.688   3.140   4.441
 4391SOL     OW17561   3.892   4.182   1.786
 4391SOL    HW117562   3.875   4.187   1.880
 4391SOL    HW217563   3.976   4.137   1.779
 4391SOL     MW17564   3.901   4.177   1.797
 4392SOL     OW17565   1.232   1.937   3.362
 4392SOL    HW117566   1.218   1.904   3.451
 4392SOL    HW217567   1.260   1.861   3.312
 4392SOL     MW17568   1.234   1.923   3.367
 4393SOL     OW17569   3.237   5.170   2.884
 4393SOL    HW117570   3.246   5.264   2.900
 4393SOL    HW217571   3.142   5.156   2.877
 4393SOL     MW17572   3.226   5.180   2.885
 4394SOL     OW17573   2.517   1.436   3.183
 4394SOL    HW117574   2.518   1.373   3.112
 4394SOL    HW217575   2.554   1.516   3.145
 4394SOL     MW17576   2.522   1.439   3.169
 4395SOL     OW17577   1.711   1.814   1.792
 4395SOL    HW117578   1.637   1.789   1.847
 4395SOL    HW217579   1.771   1.740   1.796
 4395SOL     MW17580   1.709   1.801   1.799
 4396SOL     OW17581   3.022   5.326   2.063
 4396SOL    HW117582   3.001   5.235   2.040
 4396SOL    HW217583   3.114   5.323   2.090
 4396SOL     MW17584   3.031   5.314   2.064
 4397SOL     OW17585   0.227   3.466   3.755
 4397SOL    HW117586   0.285   3.390   3.754
 4397SOL    HW217587   0.223   3.491   3.847
 4397SOL     MW17588   0.234   3.460   3.767
 4398SOL     OW17589   3.700   0.988   3.054
 4398SOL    HW117590   3.608   1.005   3.073
 4398SOL    HW217591   3.740   1.075   3.054
 4398SOL     MW17592   3.693   1.002   3.057
 4399SOL     OW17593   3.869   2.339   3.009
 4399SOL    HW117594   3.937   2.298   3.061
 4399SOL    HW217595   3.798   2.357   3.071
 4399SOL     MW17596   3.868   2.336   3.023
 4400SOL     OW17597   3.052   3.188   5.034
 4400SOL    HW117598   3.120   3.251   5.058
 4400SOL    HW217599   3.009   3.227   4.958
 4400SOL     MW17600   3.056   3.201   5.027
 4401SOL     OW17601   4.624   5.223   0.616
 4401SOL    HW117602   4.551   5.262   0.568
 4401SOL    HW217603   4.596   5.225   0.708
 4401SOL     MW17604   4.611   5.228   0.622
 4402SOL     OW17605   0.786   0.998   3.443
 4402SOL    HW117606   0.865   1.050   3.460
 4402SOL    HW217607   0.817   0.907   3.444
 4402SOL     MW17608   0.800   0.993   3.445
 4403SOL     OW17609   2.146   4.248   5.139
 4403SOL    HW117610   2.061   4.235   5.181
 4403SOL    HW217611   2.182   4.160   5.129
 4403SOL     MW17612   2.140   4.235   5.143
 4404SOL     OW17613   0.932   3.498   4.852
 4404SOL    HW117614   0.919   3.404   4.843
 4404SOL    HW217615   0.852   3.537   4.818
 4404SOL     MW17616   0.920   3.491   4.846
 4405SOL     OW17617   1.123   2.713   3.320
 4405SOL    HW117618   1.212   2.688   3.295
 4405SOL    HW217619   1.118   2.806   3.297
 4405SOL     MW17620   1.134   2.722   3.314
 4406SOL     OW17621   1.034   3.260   2.930
 4406SOL    HW117622   0.979   3.259   3.008
 4406SOL    HW217623   0.973   3.253   2.857
 4406SOL     MW17624   1.019   3.259   2.930
 4407SOL     OW17625   2.733   1.365   4.378
 4407SOL    HW117626   2.647   1.350   4.339
 4407SOL    HW217627   2.737   1.302   4.451
 4407SOL     MW17628   2.722   1.355   4.382
 4408SOL     OW17629   4.046   3.542   0.052
 4408SOL    HW117630   4.071   3.487   0.126
 4408SOL    HW217631   3.980   3.602   0.088
 4408SOL     MW17632   4.041   3.543   0.066
 4409SOL     OW17633   1.308   1.196   0.665
 4409SOL    HW117634   1.290   1.279   0.709
 4409SOL    HW217635   1.314   1.218   0.572
 4409SOL     MW17636   1.306   1.209   0.659
 4410SOL     OW17637   1.715   4.437   4.770
 4410SOL    HW117638   1.679   4.524   4.750
 4410SOL    HW217639   1.671   4.378   4.710
 4410SOL     MW17640   1.705   4.441   4.760
 4411SOL     OW17641   5.462   2.859   0.797
 4411SOL    HW117642   5.503   2.870   0.883
 4411SOL    HW217643   5.390   2.798   0.812
 4411SOL     MW17644   5.458   2.853   0.810
 4412SOL     OW17645   5.448   3.874   4.138
 4412SOL    HW117646   5.487   3.895   4.053
 4412SOL    HW217647   5.512   3.815   4.179
 4412SOL     MW17648   5.461   3.869   4.132
 4413SOL     OW17649   2.843   1.710   1.460
 4413SOL    HW117650   2.756   1.689   1.427
 4413SOL    HW217651   2.841   1.687   1.553
 4413SOL     MW17652   2.832   1.705   1.467
 4414SOL     OW17653   5.200   2.745   2.214
 4414SOL    HW117654   5.131   2.801   2.249
 4414SOL    HW217655   5.155   2.662   2.194
 4414SOL     MW17656   5.185   2.741   2.216
 4415SOL     OW17657   3.259   4.138   1.392
 4415SOL    HW117658   3.305   4.079   1.332
 4415SOL    HW217659   3.173   4.151   1.352
 4415SOL     MW17660   3.254   4.132   1.379
 4416SOL     OW17661   0.345   1.095   4.693
 4416SOL    HW117662   0.269   1.044   4.723
 4416SOL    HW217663   0.307   1.176   4.660
 4416SOL     MW17664   0.330   1.099   4.693
 4417SOL     OW17665   5.355   2.498   0.692
 4417SOL    HW117666   5.448   2.501   0.716
 4417SOL    HW217667   5.312   2.554   0.757
 4417SOL     MW17668   5.362   2.506   0.704
 4418SOL     OW17669   2.679   4.780   4.504
 4418SOL    HW117670   2.731   4.719   4.453
 4418SOL    HW217671   2.721   4.865   4.489
 4418SOL     MW17672   2.691   4.783   4.496
 4419SOL     OW17673   4.155   1.914   3.631
 4419SOL    HW117674   4.127   1.830   3.667
 4419SOL    HW217675   4.206   1.891   3.553
 4419SOL     MW17676   4.158   1.900   3.626
 4420SOL     OW17677   1.666   1.490   5.002
 4420SOL    HW117678   1.727   1.510   4.931
 4420SOL    HW217679   1.721   1.481   5.079
 4420SOL     MW17680   1.681   1.492   5.003
 4421SOL     OW17681   0.937   2.753   2.185
 4421SOL    HW117682   0.997   2.733   2.113
 4421SOL    HW217683   0.970   2.835   2.221
 4421SOL     MW17684   0.949   2.761   2.180
 4422SOL     OW17685   0.901   3.232   2.064
 4422SOL    HW117686   0.915   3.327   2.073
 4422SOL    HW217687   0.939   3.194   2.142
 4422SOL     MW17688   0.908   3.240   2.075
 4423SOL     OW17689   0.513   3.041   3.272
 4423SOL    HW117690   0.441   3.030   3.210
 4423SOL    HW217691   0.470   3.049   3.358
 4423SOL     MW17692   0.498   3.041   3.275
 4424SOL     OW17693   2.931   0.235   0.167
 4424SOL    HW117694   2.837   0.235   0.183
 4424SOL    HW217695   2.955   0.143   0.166
 4424SOL     MW17696   2.922   0.223   0.169
 4425SOL     OW17697   2.741   5.364   0.122
 4425SOL    HW117698   2.682   5.414   0.065
 4425SOL    HW217699   2.742   5.276   0.085
 4425SOL     MW17700   2.733   5.359   0.110
 4426SOL     OW17701   1.954   2.126   4.108
 4426SOL    HW117702   1.923   2.096   4.022
 4426SOL    HW217703   1.892   2.194   4.133
 4426SOL     MW17704   1.942   2.131   4.100
 4427SOL     OW17705   1.904   1.232   2.828
 4427SOL    HW117706   1.941   1.145   2.841
 4427SOL    HW217707   1.979   1.291   2.831
 4427SOL     MW17708   1.918   1.229   2.830
 4428SOL     OW17709   1.053   0.371   2.263
 4428SOL    HW117710   1.144   0.351   2.285
 4428SOL    HW217711   1.006   0.289   2.278
 4428SOL     MW17712   1.059   0.358   2.268
 4429SOL     OW17713   1.430   2.395   3.253
 4429SOL    HW117714   1.411   2.487   3.238
 4429SOL    HW217715   1.520   2.394   3.285
 4429SOL     MW17716   1.439   2.407   3.255
 4430SOL     OW17717   2.406   3.726   2.474
 4430SOL    HW117718   2.390   3.765   2.387
 4430SOL    HW217719   2.440   3.639   2.455
 4430SOL     MW17720   2.409   3.720   2.460
 4431SOL     OW17721   3.956   0.264   0.466
 4431SOL    HW117722   3.988   0.181   0.430
 4431SOL    HW217723   3.961   0.253   0.561
 4431SOL     MW17724   3.961   0.252   0.473
 4432SOL     OW17725   1.891   0.986   2.622
 4432SOL    HW117726   1.892   1.079   2.597
 4432SOL    HW217727   1.909   0.940   2.540
 4432SOL     MW17728   1.893   0.992   2.608
 4433SOL     OW17729   2.496   2.210   4.007
 4433SOL    HW117730   2.442   2.192   3.929
 4433SOL    HW217731   2.576   2.161   3.993
 4433SOL     MW17732   2.499   2.202   3.995
 4434SOL     OW17733   2.814   0.550   3.682
 4434SOL    HW117734   2.752   0.527   3.751
 4434SOL    HW217735   2.882   0.600   3.728
 4434SOL     MW17736   2.815   0.554   3.697
 4435SOL     OW17737   5.299   4.364   4.231
 4435SOL    HW117738   5.332   4.274   4.233
 4435SOL    HW217739   5.319   4.394   4.142
 4435SOL     MW17740   5.306   4.356   4.220
 4436SOL     OW17741   2.895   2.272   1.290
 4436SOL    HW117742   2.821   2.234   1.338
 4436SOL    HW217743   2.912   2.211   1.219
 4436SOL     MW17744   2.887   2.259   1.287
 4437SOL     OW17745   4.468   4.521   0.868
 4437SOL    HW117746   4.437   4.553   0.953
 4437SOL    HW217747   4.526   4.591   0.836
 4437SOL     MW17748   4.471   4.534   0.875
 4438SOL     OW17749   1.422   0.631   2.817
 4438SOL    HW117750   1.373   0.689   2.875
 4438SOL    HW217751   1.369   0.551   2.813
 4438SOL     MW17752   1.409   0.628   2.824
 4439SOL     OW17753   0.784   4.321   1.493
 4439SOL    HW117754   0.787   4.364   1.408
 4439SOL    HW217755   0.867   4.346   1.535
 4439SOL     MW17756   0.795   4.330   1.487
 4440SOL     OW17757   1.327   5.140   2.259
 4440SOL    HW117758   1.307   5.105   2.346
 4440SOL    HW217759   1.307   5.068   2.200
 4440SOL     MW17760   1.322   5.126   2.263
 4441SOL     OW17761   2.894   5.336   4.580
 4441SOL    HW117762   2.808   5.303   4.554
 4441SOL    HW217763   2.893   5.429   4.555
 4441SOL     MW17764   2.883   5.344   4.573
 4442SOL     OW17765   5.382   2.204   0.214
 4442SOL    HW117766   5.319   2.180   0.146
 4442SOL    HW217767   5.329   2.216   0.292
 4442SOL     MW17768   5.367   2.202   0.215
 4443SOL     OW17769   3.316   5.250   2.636
 4443SOL    HW117770   3.239   5.305   2.619
 4443SOL    HW217771   3.299   5.210   2.721
 4443SOL     MW17772   3.304   5.252   2.645
 4444SOL     OW17773   2.282   2.754   3.050
 4444SOL    HW117774   2.212   2.756   2.985
 4444SOL    HW217775   2.242   2.714   3.127
 4444SOL     MW17776   2.268   2.749   3.051
 4445SOL     OW17777   2.265   2.777   0.039
 4445SOL    HW117778   2.316   2.717  -0.015
 4445SOL    HW217779   2.178   2.737   0.042
 4445SOL     MW17780   2.260   2.764   0.033
 4446SOL     OW17781   0.339   2.063   1.112
 4446SOL    HW117782   0.349   2.064   1.017
 4446SOL    HW217783   0.270   1.998   1.128
 4446SOL     MW17784   0.332   2.055   1.102
 4447SOL     OW17785   0.367   2.334   4.060
 4447SOL    HW117786   0.331   2.303   4.143
 4447SOL    HW217787   0.340   2.268   3.996
 4447SOL     MW17788   0.359   2.322   4.062
 4448SOL     OW17789   2.866   2.362   5.030
 4448SOL    HW117790   2.814   2.332   5.105
 4448SOL    HW217791   2.801   2.381   4.962
 4448SOL     MW17792   2.851   2.360   5.031
 4449SOL     OW17793   3.596   3.530   1.569
 4449SOL    HW117794   3.657   3.497   1.635
 4449SOL    HW217795   3.631   3.498   1.486
 4449SOL     MW17796   3.608   3.522   1.567
 4450SOL     OW17797   2.274   5.177   1.328
 4450SOL    HW117798   2.179   5.164   1.327
 4450SOL    HW217799   2.296   5.205   1.240
 4450SOL     MW17800   2.265   5.179   1.317
 4451SOL     OW17801   3.653   0.047   4.026
 4451SOL    HW117802   3.632   0.005   4.110
 4451SOL    HW217803   3.699  -0.020   3.976
 4451SOL     MW17804   3.656   0.033   4.030
 4452SOL     OW17805   3.674   3.575   2.562
 4452SOL    HW117806   3.749   3.581   2.622
 4452SOL    HW217807   3.621   3.653   2.582
 4452SOL     MW17808   3.677   3.586   2.573
 4453SOL     OW17809   0.864   5.117   1.489
 4453SOL    HW117810   0.899   5.040   1.533
 4453SOL    HW217811   0.833   5.173   1.560
 4453SOL     MW17812   0.864   5.114   1.504
 4454SOL     OW17813   1.007   3.183   1.265
 4454SOL    HW117814   1.002   3.138   1.349
 4454SOL    HW217815   1.054   3.123   1.208
 4454SOL     MW17816   1.012   3.170   1.269
 4455SOL     OW17817   2.632   0.523   5.422
 4455SOL    HW117818   2.720   0.494   5.445
 4455SOL    HW217819   2.643   0.567   5.337
 4455SOL     MW17820   2.645   0.525   5.414
 4456SOL     OW17821   2.255   4.713   0.033
 4456SOL    HW117822   2.218   4.684  -0.050
 4456SOL    HW217823   2.254   4.635   0.089
 4456SOL     MW17824   2.250   4.699   0.030
 4457SOL     OW17825   3.504   5.480   3.371
 4457SOL    HW117826   3.528   5.392   3.400
 4457SOL    HW217827   3.574   5.505   3.310
 4457SOL     MW17828   3.516   5.472   3.366
 4458SOL     OW17829   2.634   3.749   1.953
 4458SOL    HW117830   2.637   3.797   2.036
 4458SOL    HW217831   2.712   3.779   1.905
 4458SOL     MW17832   2.645   3.759   1.958
 4459SOL     OW17833   1.199   5.383   3.689
 4459SOL    HW117834   1.165   5.345   3.769
 4459SOL    HW217835   1.121   5.410   3.640
 4459SOL     MW17836   1.185   5.382   3.693
 4460SOL     OW17837   3.638   5.010   2.962
 4460SOL    HW117838   3.651   5.084   2.903
 4460SOL    HW217839   3.726   4.978   2.982
 4460SOL     MW17840   3.651   5.015   2.957
 4461SOL     OW17841   3.063   1.751   2.137
 4461SOL    HW117842   3.135   1.814   2.131
 4461SOL    HW217843   3.104   1.670   2.167
 4461SOL     MW17844   3.078   1.749   2.140
 4462SOL     OW17845   2.204   1.742   5.336
 4462SOL    HW117846   2.183   1.665   5.283
 4462SOL    HW217847   2.120   1.785   5.351
 4462SOL     MW17848   2.191   1.738   5.331
 4463SOL     OW17849   2.783   1.932   3.730
 4463SOL    HW117850   2.748   1.955   3.816
 4463SOL    HW217851   2.709   1.940   3.670
 4463SOL     MW17852   2.769   1.936   3.734
 4464SOL     OW17853   5.131   4.000   3.032
 4464SOL    HW117854   5.049   3.966   2.996
 4464SOL    HW217855   5.111   4.091   3.055
 4464SOL     MW17856   5.118   4.007   3.030
 4465SOL     OW17857   4.220   2.386   2.628
 4465SOL    HW117858   4.303   2.432   2.622
 4465SOL    HW217859   4.231   2.325   2.701
 4465SOL     MW17860   4.232   2.384   2.636
 4466SOL     OW17861   3.986   0.087   5.402
 4466SOL    HW117862   4.052   0.030   5.364
 4466SOL    HW217863   4.036   0.159   5.441
 4466SOL     MW17864   4.001   0.089   5.402
 4467SOL     OW17865   0.221   4.204   1.995
 4467SOL    HW117866   0.214   4.119   2.039
 4467SOL    HW217867   0.206   4.268   2.065
 4467SOL     MW17868   0.218   4.201   2.010
 4468SOL     OW17869   2.286   3.587   1.346
 4468SOL    HW117870   2.242   3.539   1.276
 4468SOL    HW217871   2.377   3.554   1.344
 4468SOL     MW17872   2.292   3.576   1.337
 4469SOL     OW17873   0.528   3.828   2.699
 4469SOL    HW117874   0.512   3.864   2.786
 4469SOL    HW217875   0.618   3.795   2.703
 4469SOL     MW17876   0.538   3.829   2.711
 4470SOL     OW17877   4.548   4.221   2.573
 4470SOL    HW117878   4.453   4.209   2.568
 4470SOL    HW217879   4.576   4.161   2.642
 4470SOL     MW17880   4.539   4.212   2.581
 4471SOL     OW17881   4.978   0.576   0.214
 4471SOL    HW117882   4.935   0.539   0.291
 4471SOL    HW217883   4.907   0.600   0.155
 4471SOL     MW17884   4.963   0.574   0.216
 4472SOL     OW17885   4.614   1.862   5.427
 4472SOL    HW117886   4.702   1.867   5.390
 4472SOL    HW217887   4.565   1.808   5.366
 4472SOL     MW17888   4.619   1.856   5.415
 4473SOL     OW17889   3.459   1.016   2.122
 4473SOL    HW117890   3.405   1.095   2.121
 4473SOL    HW217891   3.497   1.014   2.209
 4473SOL     MW17892   3.457   1.026   2.133
 4474SOL     OW17893   4.253   3.179   3.443
 4474SOL    HW117894   4.253   3.275   3.449
 4474SOL    HW217895   4.251   3.162   3.348
 4474SOL     MW17896   4.253   3.189   3.431
 4475SOL     OW17897   4.921   2.260   0.575
 4475SOL    HW117898   4.936   2.170   0.547
 4475SOL    HW217899   4.953   2.313   0.503
 4475SOL     MW17900   4.927   2.255   0.562
 4476SOL     OW17901   2.769   3.148   1.219
 4476SOL    HW117902   2.834   3.135   1.288
 4476SOL    HW217903   2.786   3.076   1.157
 4476SOL     MW17904   2.780   3.137   1.220
 4477SOL     OW17905   2.368   3.838   2.232
 4477SOL    HW117906   2.461   3.834   2.208
 4477SOL    HW217907   2.327   3.767   2.183
 4477SOL     MW17908   2.375   3.829   2.222
 4478SOL     OW17909   0.046   1.815   4.426
 4478SOL    HW117910  -0.044   1.808   4.394
 4478SOL    HW217911   0.098   1.833   4.348
 4478SOL     MW17912   0.042   1.816   4.412
 4479SOL     OW17913   0.635   2.474   4.299
 4479SOL    HW117914   0.580   2.517   4.234
 4479SOL    HW217915   0.718   2.522   4.295
 4479SOL     MW17916   0.639   2.486   4.290
 4480SOL     OW17917   3.569   3.660   5.052
 4480SOL    HW117918   3.641   3.612   5.093
 4480SOL    HW217919   3.603   3.683   4.965
 4480SOL     MW17920   3.583   3.657   5.046
 4481SOL     OW17921   5.467   4.534   4.355
 4481SOL    HW117922   5.448   4.539   4.449
 4481SOL    HW217923   5.397   4.479   4.320
 4481SOL     MW17924   5.456   4.528   4.362
 4482SOL     OW17925   2.878   0.617   0.497
 4482SOL    HW117926   2.957   0.656   0.533
 4482SOL    HW217927   2.904   0.529   0.470
 4482SOL     MW17928   2.891   0.611   0.498
 4483SOL     OW17929   3.239   3.722   3.555
 4483SOL    HW117930   3.154   3.711   3.598
 4483SOL    HW217931   3.236   3.663   3.480
 4483SOL     MW17932   3.227   3.713   3.551
 4484SOL     OW17933   3.448   3.069   4.514
 4484SOL    HW117934   3.405   2.996   4.470
 4484SOL    HW217935   3.380   3.106   4.571
 4484SOL     MW17936   3.434   3.064   4.516
 4485SOL     OW17937   1.677   3.443   2.836
 4485SOL    HW117938   1.593   3.430   2.879
 4485SOL    HW217939   1.656   3.486   2.753
 4485SOL     MW17940   1.664   3.447   2.831
 4486SOL     OW17941   1.982   3.332   1.337
 4486SOL    HW117942   1.903   3.387   1.347
 4486SOL    HW217943   2.026   3.368   1.260
 4486SOL     MW17944   1.977   3.344   1.328
 4487SOL     OW17945   0.262   3.804   1.113
 4487SOL    HW117946   0.246   3.830   1.022
 4487SOL    HW217947   0.346   3.844   1.135
 4487SOL     MW17948   0.271   3.812   1.104
 4488SOL     OW17949   1.470   0.428   4.909
 4488SOL    HW117950   1.498   0.372   4.837
 4488SOL    HW217951   1.542   0.423   4.972
 4488SOL     MW17952   1.483   0.420   4.908
 4489SOL     OW17953   1.888   2.549   4.423
 4489SOL    HW117954   1.844   2.482   4.476
 4489SOL    HW217955   1.965   2.574   4.475
 4489SOL     MW17956   1.892   2.543   4.436
 4490SOL     OW17957   5.399   3.267   0.792
 4490SOL    HW117958   5.389   3.226   0.706
 4490SOL    HW217959   5.314   3.255   0.834
 4490SOL     MW17960   5.386   3.260   0.786
 4491SOL     OW17961   3.875   1.755   2.136
 4491SOL    HW117962   3.883   1.715   2.050
 4491SOL    HW217963   3.834   1.840   2.119
 4491SOL     MW17964   3.871   1.761   2.123
 4492SOL     OW17965   5.197   1.390   4.761
 4492SOL    HW117966   5.175   1.476   4.725
 4492SOL    HW217967   5.128   1.332   4.729
 4492SOL     MW17968   5.185   1.394   4.752
 4493SOL     OW17969   0.423   2.028   2.378
 4493SOL    HW117970   0.493   2.042   2.314
 4493SOL    HW217971   0.437   1.939   2.410
 4493SOL     MW17972   0.434   2.018   2.374
 4494SOL     OW17973   4.332   1.561   1.840
 4494SOL    HW117974   4.250   1.562   1.889
 4494SOL    HW217975   4.376   1.643   1.864
 4494SOL     MW17976   4.327   1.572   1.849
 4495SOL     OW17977   1.272   4.469   3.084
 4495SOL    HW117978   1.218   4.492   3.160
 4495SOL    HW217979   1.286   4.551   3.038
 4495SOL     MW17980   1.267   4.482   3.088
 4496SOL     OW17981   4.286   1.889   3.387
 4496SOL    HW117982   4.194   1.871   3.366
 4496SOL    HW217983   4.334   1.861   3.310
 4496SOL     MW17984   4.280   1.883   3.375
 4497SOL     OW17985   3.889   4.740   1.826
 4497SOL    HW117986   3.894   4.762   1.732
 4497SOL    HW217987   3.952   4.799   1.867
 4497SOL     MW17988   3.898   4.750   1.819
 4498SOL     OW17989   4.705   3.733   1.759
 4498SOL    HW117990   4.626   3.681   1.744
 4498SOL    HW217991   4.711   3.790   1.683
 4498SOL     MW17992   4.696   3.733   1.747
 4499SOL     OW17993   4.870   3.529   2.950
 4499SOL    HW117994   4.880   3.441   2.986
 4499SOL    HW217995   4.931   3.583   3.001
 4499SOL     MW17996   4.879   3.525   2.961
 4500SOL     OW17997   5.423   0.802   1.273
 4500SOL    HW117998   5.494   0.856   1.307
 4500SOL    HW217999   5.347   0.826   1.326
 4500SOL     MW18000   5.422   0.812   1.284
 4501SOL     OW18001   3.815   3.271   1.923
 4501SOL    HW118002   3.836   3.210   1.852
 4501SOL    HW218003   3.724   3.250   1.947
 4501SOL     MW18004   3.806   3.261   1.917
 4502SOL     OW18005   4.195   4.948   2.176
 4502SOL    HW118006   4.173   4.861   2.211
 4502SOL    HW218007   4.185   5.007   2.251
 4502SOL     MW18008   4.191   4.944   2.190
 4503SOL     OW18009   4.074   2.917   2.475
 4503SOL    HW118010   4.009   2.987   2.483
 4503SOL    HW218011   4.052   2.874   2.392
 4503SOL     MW18012   4.063   2.921   2.465
 4504SOL     OW18013   3.046   1.138   1.711
 4504SOL    HW118014   3.139   1.161   1.715
 4504SOL    HW218015   3.001   1.222   1.702
 4504SOL     MW18016   3.052   1.152   1.710
 4505SOL     OW18017   5.059   3.224   1.274
 4505SOL    HW118018   5.002   3.185   1.208
 4505SOL    HW218019   5.109   3.290   1.227
 4505SOL     MW18020   5.058   3.227   1.259
 4506SOL     OW18021   0.015   1.608   3.606
 4506SOL    HW118022   0.097   1.654   3.622
 4506SOL    HW218023   0.033   1.550   3.532
 4506SOL     MW18024   0.028   1.607   3.599
 4507SOL     OW18025   5.405   4.045   2.044
 4507SOL    HW118026   5.490   4.020   2.082
 4507SOL    HW218027   5.371   3.964   2.006
 4507SOL     MW18028   5.412   4.031   2.044
 4508SOL     OW18029   2.972   3.896   0.358
 4508SOL    HW118030   3.034   3.839   0.313
 4508SOL    HW218031   2.890   3.885   0.311
 4508SOL     MW18032   2.970   3.888   0.347
 4509SOL     OW18033   5.082   0.208   5.373
 4509SOL    HW118034   5.108   0.185   5.284
 4509SOL    HW218035   5.108   0.132   5.425
 4509SOL     MW18036   5.089   0.195   5.368
 4510SOL     OW18037   4.503   1.412   3.222
 4510SOL    HW118038   4.471   1.328   3.255
 4510SOL    HW218039   4.596   1.397   3.207
 4510SOL     MW18040   4.511   1.399   3.224
 4511SOL     OW18041   2.760   3.167   1.833
 4511SOL    HW118042   2.818   3.198   1.763
 4511SOL    HW218043   2.784   3.219   1.909
 4511SOL     MW18044   2.771   3.178   1.834
 4512SOL     OW18045   5.197   0.795   2.694
 4512SOL    HW118046   5.256   0.757   2.759
 4512SOL    HW218047   5.181   0.724   2.632
 4512SOL     MW18048   5.203   0.781   2.694
 4513SOL     OW18049   1.604   1.784   2.129
 4513SOL    HW118050   1.573   1.772   2.218
 4513SOL    HW218051   1.647   1.701   2.107
 4513SOL     MW18052   1.606   1.772   2.137
 4514SOL     OW18053   4.259   0.397   2.869
 4514SOL    HW118054   4.286   0.305   2.879
 4514SOL    HW218055   4.191   0.408   2.935
 4514SOL     MW18056   4.254   0.386   2.879
 4515SOL     OW18057   4.712   3.917   4.708
 4515SOL    HW118058   4.705   3.983   4.639
 4515SOL    HW218059   4.696   3.965   4.789
 4515SOL     MW18060   4.709   3.931   4.710
 4516SOL     OW18061   0.756   2.518   1.638
 4516SOL    HW118062   0.691   2.525   1.707
 4516SOL    HW218063   0.821   2.586   1.658
 4516SOL     MW18064   0.756   2.527   1.649
 4517SOL     OW18065   1.222   4.805   1.673
 4517SOL    HW118066   1.184   4.744   1.737
 4517SOL    HW218067   1.255   4.748   1.604
 4517SOL     MW18068   1.221   4.790   1.673
 4518SOL     OW18069   1.381   4.336   1.053
 4518SOL    HW118070   1.333   4.404   1.006
 4518SOL    HW218071   1.470   4.370   1.060
 4518SOL     MW18072   1.386   4.349   1.048
 4519SOL     OW18073   4.558   0.156   4.581
 4519SOL    HW118074   4.539   0.075   4.533
 4519SOL    HW218075   4.643   0.185   4.547
 4519SOL     MW18076   4.566   0.149   4.570
 4520SOL     OW18077   1.625   3.951   0.874
 4520SOL    HW118078   1.601   3.882   0.936
 4520SOL    HW218079   1.594   3.919   0.789
 4520SOL     MW18080   1.618   3.938   0.871
 4521SOL     OW18081   2.472   0.869   3.062
 4521SOL    HW118082   2.451   0.926   3.136
 4521SOL    HW218083   2.438   0.915   2.985
 4521SOL     MW18084   2.465   0.882   3.062
 4522SOL     OW18085   1.038   5.171   1.286
 4522SOL    HW118086   0.985   5.152   1.363
 4522SOL    HW218087   1.122   5.202   1.322
 4522SOL     MW18088   1.042   5.173   1.300
 4523SOL     OW18089   4.471   5.441   2.462
 4523SOL    HW118090   4.409   5.513   2.472
 4523SOL    HW218091   4.418   5.368   2.431
 4523SOL     MW18092   4.456   5.441   2.459
 4524SOL     OW18093   3.077   1.687   5.373
 4524SOL    HW118094   3.114   1.668   5.287
 4524SOL    HW218095   3.076   1.783   5.377
 4524SOL     MW18096   3.082   1.697   5.362
 4525SOL     OW18097   4.171   3.690   5.333
 4525SOL    HW118098   4.202   3.619   5.277
 4525SOL    HW218099   4.124   3.646   5.404
 4525SOL     MW18100   4.169   3.675   5.335
 4526SOL     OW18101   0.727   0.736   4.303
 4526SOL    HW118102   0.633   0.756   4.302
 4526SOL    HW218103   0.760   0.780   4.381
 4526SOL     MW18104   0.719   0.744   4.313
 4527SOL     OW18105   2.672   5.488   5.079
 4527SOL    HW118106   2.651   5.451   4.993
 4527SOL    HW218107   2.632   5.428   5.142
 4527SOL     MW18108   2.664   5.476   5.076
 4528SOL     OW18109   0.214   5.087   0.745
 4528SOL    HW118110   0.226   5.057   0.835
 4528SOL    HW218111   0.141   5.036   0.712
 4528SOL     MW18112   0.206   5.077   0.752
 4529SOL     OW18113   0.038   1.187   2.594
 4529SOL    HW118114  -0.043   1.136   2.603
 4529SOL    HW218115   0.108   1.126   2.618
 4529SOL     MW18116   0.037   1.173   2.598
 4530SOL     OW18117   5.111   0.295   1.826
 4530SOL    HW118118   5.072   0.217   1.867
 4530SOL    HW218119   5.104   0.363   1.893
 4530SOL     MW18120   5.105   0.293   1.840
 4531SOL     OW18121   0.642   4.959   2.751
 4531SOL    HW118122   0.719   4.987   2.700
 4531SOL    HW218123   0.616   5.038   2.799
 4531SOL     MW18124   0.649   4.973   2.750
 4532SOL     OW18125   1.395   4.706   2.167
 4532SOL    HW118126   1.410   4.644   2.095
 4532SOL    HW218127   1.468   4.690   2.227
 4532SOL     MW18128   1.406   4.696   2.165
 4533SOL     OW18129   2.000   4.397   1.239
 4533SOL    HW118130   1.954   4.342   1.176
 4533SOL    HW218131   2.088   4.407   1.203
 4533SOL     MW18132   2.005   4.391   1.227
 4534SOL     OW18133   2.985   1.781   3.618
 4534SOL    HW118134   2.909   1.821   3.661
 4534SOL    HW218135   2.975   1.687   3.636
 4534SOL     MW18136   2.974   1.774   3.626
 4535SOL     OW18137   5.156   3.295   5.474
 4535SOL    HW118138   5.208   3.366   5.512
 4535SOL    HW218139   5.200   3.276   5.390
 4535SOL     MW18140   5.168   3.302   5.468
 4536SOL     OW18141  -0.001   5.215   2.653
 4536SOL    HW118142  -0.012   5.120   2.648
 4536SOL    HW218143   0.050   5.237   2.574
 4536SOL     MW18144   0.004   5.206   2.642
 4537SOL     OW18145   0.184   0.478   5.014
 4537SOL    HW118146   0.138   0.517   5.088
 4537SOL    HW218147   0.210   0.552   4.959
 4537SOL     MW18148   0.181   0.492   5.016
 4538SOL     OW18149   2.717   5.474   4.198
 4538SOL    HW118150   2.808   5.467   4.227
 4538SOL    HW218151   2.702   5.394   4.147
 4538SOL     MW18152   2.727   5.463   4.195
 4539SOL     OW18153   4.633   1.051   0.013
 4539SOL    HW118154   4.715   1.002   0.007
 4539SOL    HW218155   4.568   0.993  -0.025
 4539SOL     MW18156   4.635   1.037   0.007
 4540SOL     OW18157   0.999   1.968   4.743
 4540SOL    HW118158   0.973   2.057   4.767
 4540SOL    HW218159   1.083   1.979   4.699
 4540SOL     MW18160   1.006   1.981   4.740
 4541SOL     OW18161   2.796   5.263   2.779
 4541SOL    HW118162   2.811   5.354   2.752
 4541SOL    HW218163   2.725   5.232   2.723
 4541SOL     MW18164   2.789   5.271   2.769
 4542SOL     OW18165   4.425   4.016   2.355
 4542SOL    HW118166   4.516   4.047   2.354
 4542SOL    HW218167   4.415   3.979   2.443
 4542SOL     MW18168   4.436   4.015   2.366
 4543SOL     OW18169   5.481   4.390   3.702
 4543SOL    HW118170   5.395   4.431   3.695
 4543SOL    HW218171   5.527   4.417   3.622
 4543SOL     MW18172   5.476   4.398   3.691
 4544SOL     OW18173   4.637   5.366   4.106
 4544SOL    HW118174   4.578   5.440   4.117
 4544SOL    HW218175   4.580   5.290   4.096
 4544SOL     MW18176   4.622   5.366   4.106
 4545SOL     OW18177   0.851   4.950   2.355
 4545SOL    HW118178   0.925   4.937   2.297
 4545SOL    HW218179   0.873   4.902   2.435
 4545SOL     MW18180   0.863   4.942   2.358
 4546SOL     OW18181   2.648   4.831   0.540
 4546SOL    HW118182   2.631   4.897   0.472
 4546SOL    HW218183   2.566   4.827   0.590
 4546SOL     MW18184   2.635   4.839   0.538
 4547SOL     OW18185   4.488   2.774   5.282
 4547SOL    HW118186   4.555   2.710   5.262
 4547SOL    HW218187   4.536   2.857   5.292
 4547SOL     MW18188   4.503   2.777   5.281
 4548SOL     OW18189   4.268   3.453   2.364
 4548SOL    HW118190   4.358   3.421   2.358
 4548SOL    HW218191   4.214   3.378   2.339
 4548SOL     MW18192   4.273   3.440   2.360
 4549SOL     OW18193   2.692   2.446   4.306
 4549SOL    HW118194   2.647   2.515   4.258
 4549SOL    HW218195   2.646   2.440   4.389
 4549SOL     MW18196   2.680   2.454   4.310
 4550SOL     OW18197   3.645   3.656   1.102
 4550SOL    HW118198   3.575   3.714   1.072
 4550SOL    HW218199   3.624   3.571   1.064
 4550SOL     MW18200   3.634   3.653   1.093
 4551SOL     OW18201   0.926   1.309   3.965
 4551SOL    HW118202   0.864   1.245   3.930
 4551SOL    HW218203   1.010   1.262   3.967
 4551SOL     MW18204   0.929   1.295   3.961
 4552SOL     OW18205   0.804   1.562   3.979
 4552SOL    HW118206   0.834   1.471   3.977
 4552SOL    HW218207   0.779   1.577   4.071
 4552SOL     MW18208   0.805   1.552   3.991
 4553SOL     OW18209   3.735   4.545   0.340
 4553SOL    HW118210   3.818   4.520   0.380
 4553SOL    HW218211   3.671   4.483   0.375
 4553SOL     MW18212   3.737   4.534   0.349
 4554SOL     OW18213   3.819   3.654   3.352
 4554SOL    HW118214   3.744   3.691   3.399
 4554SOL    HW218215   3.873   3.730   3.331
 4554SOL     MW18216   3.816   3.669   3.355
 4555SOL     OW18217   4.106   4.909   4.530
 4555SOL    HW118218   4.155   4.869   4.602
 4555SOL    HW218219   4.019   4.871   4.536
 4555SOL     MW18220   4.101   4.899   4.540
 4556SOL     OW18221   2.537   5.326   0.897
 4556SOL    HW118222   2.585   5.404   0.927
 4556SOL    HW218223   2.497   5.353   0.814
 4556SOL     MW18224   2.538   5.340   0.890
 4557SOL     OW18225   5.251   0.519   3.036
 4557SOL    HW118226   5.161   0.516   3.003
 4557SOL    HW218227   5.286   0.432   3.017
 4557SOL     MW18228   5.244   0.507   3.029
 4558SOL     OW18229   1.152   2.212   1.084
 4558SOL    HW118230   1.067   2.217   1.127
 4558SOL    HW218231   1.206   2.278   1.128
 4558SOL     MW18232   1.148   2.222   1.095
 4559SOL     OW18233   4.782   3.082   4.740
 4559SOL    HW118234   4.834   3.022   4.686
 4559SOL    HW218235   4.705   3.032   4.765
 4559SOL     MW18236   4.779   3.068   4.736
 4560SOL     OW18237   3.782   2.720   3.537
 4560SOL    HW118238   3.843   2.701   3.466
 4560SOL    HW218239   3.721   2.784   3.499
 4560SOL     MW18240   3.782   2.726   3.523
 4561SOL     OW18241   1.322   0.664   3.783
 4561SOL    HW118242   1.273   0.600   3.835
 4561SOL    HW218243   1.409   0.666   3.824
 4561SOL     MW18244   1.327   0.656   3.795
 4562SOL     OW18245   1.390   2.934   3.259
 4562SOL    HW118246   1.450   3.002   3.227
 4562SOL    HW218247   1.396   2.940   3.354
 4562SOL     MW18248   1.399   2.944   3.267
 4563SOL     OW18249   1.215   0.870   1.330
 4563SOL    HW118250   1.242   0.950   1.285
 4563SOL    HW218251   1.120   0.880   1.341
 4563SOL     MW18252   1.206   0.882   1.326
 4564SOL     OW18253   0.608   3.608   0.648
 4564SOL    HW118254   0.535   3.610   0.709
 4564SOL    HW218255   0.664   3.537   0.679
 4564SOL     MW18256   0.606   3.599   0.660
 4565SOL     OW18257   0.705   2.914   0.962
 4565SOL    HW118258   0.774   2.896   1.027
 4565SOL    HW218259   0.637   2.959   1.012
 4565SOL     MW18260   0.705   2.917   0.977
 4566SOL     OW18261   1.427   1.355   4.454
 4566SOL    HW118262   1.426   1.266   4.490
 4566SOL    HW218263   1.356   1.356   4.391
 4566SOL     MW18264   1.418   1.344   4.451
 4567SOL     OW18265   2.661   3.251   2.388
 4567SOL    HW118266   2.593   3.212   2.334
 4567SOL    HW218267   2.716   3.177   2.415
 4567SOL     MW18268   2.660   3.236   2.384
 4568SOL     OW18269   2.430   0.611   0.663
 4568SOL    HW118270   2.524   0.626   0.665
 4568SOL    HW218271   2.408   0.605   0.570
 4568SOL     MW18272   2.439   0.612   0.652
 4569SOL     OW18273   3.086   4.817   2.746
 4569SOL    HW118274   3.095   4.911   2.763
 4569SOL    HW218275   3.171   4.791   2.711
 4569SOL     MW18276   3.098   4.826   2.744
 4570SOL     OW18277   1.748   1.839   3.491
 4570SOL    HW118278   1.654   1.826   3.504
 4570SOL    HW218279   1.759   1.844   3.396
 4570SOL     MW18280   1.738   1.838   3.481
 4571SOL     OW18281   1.144   3.424   0.099
 4571SOL    HW118282   1.075   3.396   0.038
 4571SOL    HW218283   1.105   3.413   0.186
 4571SOL     MW18284   1.130   3.419   0.102
 4572SOL     OW18285   0.477   2.004   4.807
 4572SOL    HW118286   0.484   1.990   4.901
 4572SOL    HW218287   0.386   2.027   4.792
 4572SOL     MW18288   0.466   2.005   4.817
 4573SOL     OW18289   4.369   3.875   4.564
 4573SOL    HW118290   4.419   3.873   4.482
 4573SOL    HW218291   4.413   3.810   4.619
 4573SOL     MW18292   4.381   3.866   4.560
 4574SOL     OW18293   2.303   3.676   0.298
 4574SOL    HW118294   2.326   3.601   0.353
 4574SOL    HW218295   2.368   3.743   0.321
 4574SOL     MW18296   2.314   3.675   0.308
 4575SOL     OW18297   3.796   1.245   3.027
 4575SOL    HW118298   3.861   1.279   3.088
 4575SOL    HW218299   3.842   1.242   2.943
 4575SOL     MW18300   3.810   1.249   3.024
 4576SOL     OW18301   4.123   1.570   0.575
 4576SOL    HW118302   4.053   1.507   0.590
 4576SOL    HW218303   4.185   1.555   0.647
 4576SOL     MW18304   4.122   1.560   0.586
 4577SOL     OW18305   1.948   0.285   3.292
 4577SOL    HW118306   1.945   0.240   3.376
 4577SOL    HW218307   1.982   0.219   3.231
 4577SOL     MW18308   1.952   0.271   3.295
 4578SOL     OW18309   0.907   2.221   1.220
 4578SOL    HW118310   0.879   2.307   1.251
 4578SOL    HW218311   0.827   2.179   1.188
 4578SOL     MW18312   0.893   2.227   1.220
 4579SOL     OW18313   4.714   1.555   2.472
 4579SOL    HW118314   4.737   1.469   2.438
 4579SOL    HW218315   4.695   1.541   2.564
 4579SOL     MW18316   4.715   1.542   2.479
 4580SOL     OW18317   1.608   0.594   0.191
 4580SOL    HW118318   1.550   0.625   0.260
 4580SOL    HW218319   1.655   0.673   0.162
 4580SOL     MW18320   1.607   0.608   0.196
 4581SOL     OW18321   0.424   5.424   3.928
 4581SOL    HW118322   0.498   5.416   3.868
 4581SOL    HW218323   0.453   5.489   3.993
 4581SOL     MW18324   0.437   5.431   3.929
 4582SOL     OW18325   3.028   3.472   4.812
 4582SOL    HW118326   3.040   3.503   4.723
 4582SOL    HW218327   2.982   3.388   4.803
 4582SOL     MW18328   3.023   3.465   4.800
 4583SOL     OW18329   3.118   2.497   0.937
 4583SOL    HW118330   3.124   2.402   0.927
 4583SOL    HW218331   3.026   2.513   0.959
 4583SOL     MW18332   3.107   2.487   0.939
 4584SOL     OW18333   1.828   3.534   0.985
 4584SOL    HW118334   1.771   3.466   1.023
 4584SOL    HW218335   1.773   3.578   0.921
 4584SOL     MW18336   1.814   3.531   0.982
 4585SOL     OW18337   1.379   4.969   4.662
 4585SOL    HW118338   1.416   4.938   4.745
 4585SOL    HW218339   1.307   4.909   4.644
 4585SOL     MW18340   1.374   4.958   4.671
 4586SOL     OW18341   5.488   5.061   2.075
 4586SOL    HW118342   5.399   5.053   2.041
 4586SOL    HW218343   5.500   4.984   2.130
 4586SOL     MW18344   5.478   5.050   2.078
 4587SOL     OW18345   4.453   4.378   1.516
 4587SOL    HW118346   4.540   4.345   1.539
 4587SOL    HW218347   4.447   4.363   1.421
 4587SOL     MW18348   4.464   4.372   1.507
 4588SOL     OW18349   5.439   2.159   2.143
 4588SOL    HW118350   5.526   2.140   2.180
 4588SOL    HW218351   5.410   2.237   2.189
 4588SOL     MW18352   5.447   2.166   2.153
 4589SOL     OW18353   2.456   5.068   4.413
 4589SOL    HW118354   2.528   5.051   4.351
 4589SOL    HW218355   2.394   5.121   4.363
 4589SOL     MW18356   2.457   5.072   4.399
 4590SOL     OW18357   1.673  -0.018   1.254
 4590SOL    HW118358   1.717  -0.021   1.169
 4590SOL    HW218359   1.685   0.072   1.284
 4590SOL     MW18360   1.680  -0.007   1.247
 4591SOL     OW18361   1.759   3.784   4.605
 4591SOL    HW118362   1.740   3.749   4.692
 4591SOL    HW218363   1.674   3.810   4.571
 4591SOL     MW18364   1.746   3.782   4.612
 4592SOL     OW18365   4.384   2.743   1.729
 4592SOL    HW118366   4.372   2.732   1.634
 4592SOL    HW218367   4.472   2.710   1.746
 4592SOL     MW18368   4.394   2.738   1.719
 4593SOL     OW18369   0.040   3.382   2.823
 4593SOL    HW118370   0.058   3.361   2.731
 4593SOL    HW218371   0.113   3.343   2.871
 4593SOL     MW18372   0.051   3.374   2.817
 4594SOL     OW18373   0.608   2.009   3.644
 4594SOL    HW118374   0.552   1.950   3.694
 4594SOL    HW218375   0.634   1.958   3.568
 4594SOL     MW18376   0.604   1.995   3.640
 4595SOL     OW18377   4.039   5.289   5.092
 4595SOL    HW118378   4.041   5.258   5.002
 4595SOL    HW218379   3.945   5.297   5.112
 4595SOL     MW18380   4.027   5.286   5.083
 4596SOL     OW18381   3.050   3.571   4.001
 4596SOL    HW118382   3.054   3.501   4.067
 4596SOL    HW218383   2.988   3.537   3.935
 4596SOL     MW18384   3.042   3.557   4.001
 4597SOL     OW18385   0.259   0.042   3.614
 4597SOL    HW118386   0.191   0.035   3.547
 4597SOL    HW218387   0.211   0.051   3.696
 4597SOL     MW18388   0.245   0.042   3.616
 4598SOL     OW18389   0.202   5.268   5.028
 4598SOL    HW118390   0.296   5.252   5.037
 4598SOL    HW218391   0.164   5.232   5.109
 4598SOL     MW18392   0.209   5.261   5.040
 4599SOL     OW18393   4.090   5.070   5.240
 4599SOL    HW118394   4.067   5.135   5.173
 4599SOL    HW218395   4.042   4.991   5.214
 4599SOL     MW18396   4.081   5.068   5.228
 4600SOL     OW18397   2.256   2.291   5.061
 4600SOL    HW118398   2.203   2.217   5.030
 4600SOL    HW218399   2.342   2.253   5.079
 4600SOL     MW18400   2.260   2.277   5.059
 4601SOL     OW18401   5.307   1.431   2.882
 4601SOL    HW118402   5.217   1.398   2.881
 4601SOL    HW218403   5.341   1.402   2.967
 4601SOL     MW18404   5.300   1.423   2.893
 4602SOL     OW18405   3.952   5.434   2.298
 4602SOL    HW118406   3.878   5.405   2.246
 4602SOL    HW218407   3.950   5.380   2.377
 4602SOL     MW18408   3.942   5.424   2.301
 4603SOL     OW18409  -0.006   5.342   3.033
 4603SOL    HW118410   0.041   5.279   3.088
 4603SOL    HW218411   0.047   5.350   2.954
 4603SOL     MW18412   0.006   5.335   3.030
 4604SOL     OW18413   0.165   5.338   2.825
 4604SOL    HW118414   0.109   5.298   2.759
 4604SOL    HW218415   0.189   5.423   2.788
 4604SOL     MW18416   0.161   5.344   2.812
 4605SOL     OW18417   2.724   1.190   4.589
 4605SOL    HW118418   2.737   1.100   4.560
 4605SOL    HW218419   2.630   1.204   4.584
 4605SOL     MW18420   2.714   1.180   4.585
 4606SOL     OW18421   5.077   1.543   2.162
 4606SOL    HW118422   5.100   1.582   2.077
 4606SOL    HW218423   5.160   1.511   2.196
 4606SOL     MW18424   5.090   1.544   2.155
 4607SOL     OW18425   2.849   1.209   5.349
 4607SOL    HW118426   2.835   1.271   5.278
 4607SOL    HW218427   2.768   1.159   5.354
 4607SOL     MW18428   2.837   1.211   5.341
 4608SOL     OW18429   2.015   4.219   1.440
 4608SOL    HW118430   2.010   4.284   1.371
 4608SOL    HW218431   1.947   4.245   1.503
 4608SOL     MW18432   2.005   4.230   1.439
 4609SOL     OW18433   3.255   1.192   4.499
 4609SOL    HW118434   3.184   1.164   4.557
 4609SOL    HW218435   3.317   1.236   4.556
 4609SOL     MW18436   3.254   1.194   4.514
 4610SOL     OW18437   0.326   4.529   3.805
 4610SOL    HW118438   0.379   4.539   3.884
 4610SOL    HW218439   0.304   4.618   3.779
 4610SOL     MW18440   0.330   4.541   3.812
 4611SOL     OW18441   4.882   3.987   1.761
 4611SOL    HW118442   4.838   4.057   1.810
 4611SOL    HW218443   4.877   3.911   1.819
 4611SOL     MW18444   4.876   3.987   1.775
 4612SOL     OW18445   1.958   2.324   0.953
 4612SOL    HW118446   2.002   2.369   0.880
 4612SOL    HW218447   1.865   2.329   0.932
 4612SOL     MW18448   1.952   2.330   0.941
 4613SOL     OW18449   1.643   4.740   0.041
 4613SOL    HW118450   1.693   4.797  -0.017
 4613SOL    HW218451   1.708   4.681   0.079
 4613SOL     MW18452   1.658   4.740   0.038
 4614SOL     OW18453   1.646   2.507   3.852
 4614SOL    HW118454   1.655   2.453   3.774
 4614SOL    HW218455   1.658   2.596   3.821
 4614SOL     MW18456   1.648   2.511   3.838
 4615SOL     OW18457   1.085   2.675   3.046
 4615SOL    HW118458   1.076   2.580   3.039
 4615SOL    HW218459   1.089   2.692   3.140
 4615SOL     MW18460   1.084   2.665   3.057
 4616SOL     OW18461   5.136   0.134   0.904
 4616SOL    HW118462   5.170   0.169   0.986
 4616SOL    HW218463   5.172   0.191   0.837
 4616SOL     MW18464   5.145   0.146   0.906
 4617SOL     OW18465   2.494   0.398   3.531
 4617SOL    HW118466   2.565   0.337   3.552
 4617SOL    HW218467   2.539   0.481   3.514
 4617SOL     MW18468   2.509   0.401   3.532
 4618SOL     OW18469   4.729   3.903   1.547
 4618SOL    HW118470   4.788   3.865   1.483
 4618SOL    HW218471   4.786   3.950   1.608
 4618SOL     MW18472   4.744   3.904   1.547
 4619SOL     OW18473   2.581   3.654   4.754
 4619SOL    HW118474   2.532   3.574   4.738
 4619SOL    HW218475   2.661   3.625   4.798
 4619SOL     MW18476   2.585   3.640   4.758
 4620SOL     OW18477   1.222   2.712   2.691
 4620SOL    HW118478   1.193   2.626   2.662
 4620SOL    HW218479   1.274   2.695   2.770
 4620SOL     MW18480   1.225   2.699   2.698
 4621SOL     OW18481   4.024   1.447   0.108
 4621SOL    HW118482   4.035   1.535   0.145
 4621SOL    HW218483   4.076   1.390   0.164
 4621SOL     MW18484   4.032   1.451   0.120
 4622SOL     OW18485   3.752   0.451   1.501
 4622SOL    HW118486   3.697   0.374   1.485
 4622SOL    HW218487   3.752   0.460   1.596
 4622SOL     MW18488   3.745   0.442   1.511
 4623SOL     OW18489   0.388   3.901   0.020
 4623SOL    HW118490   0.397   3.806   0.021
 4623SOL    HW218491   0.471   3.934   0.055
 4623SOL     MW18492   0.400   3.893   0.025
 4624SOL     OW18493   1.141   3.585   2.586
 4624SOL    HW118494   1.134   3.603   2.679
 4624SOL    HW218495   1.226   3.620   2.561
 4624SOL     MW18496   1.151   3.592   2.594
 4625SOL     OW18497   1.298   3.776   1.677
 4625SOL    HW118498   1.305   3.868   1.651
 4625SOL    HW218499   1.204   3.758   1.675
 4625SOL     MW18500   1.287   3.786   1.674
 4626SOL     OW18501   0.152   1.263   2.175
 4626SOL    HW118502   0.078   1.204   2.164
 4626SOL    HW218503   0.136   1.307   2.259
 4626SOL     MW18504   0.140   1.261   2.184
 4627SOL     OW18505   3.218   1.732   4.499
 4627SOL    HW118506   3.309   1.712   4.477
 4627SOL    HW218507   3.209   1.703   4.590
 4627SOL     MW18508   3.229   1.726   4.508
 4628SOL     OW18509   3.875   3.102   2.555
 4628SOL    HW118510   3.827   3.135   2.479
 4628SOL    HW218511   3.810   3.100   2.625
 4628SOL     MW18512   3.861   3.106   2.554
 4629SOL     OW18513   3.228   1.896   1.391
 4629SOL    HW118514   3.298   1.866   1.332
 4629SOL    HW218515   3.150   1.899   1.336
 4629SOL     MW18516   3.227   1.892   1.376
 4630SOL     OW18517   0.391   4.487   2.891
 4630SOL    HW118518   0.325   4.444   2.946
 4630SOL    HW218519   0.417   4.419   2.828
 4630SOL     MW18520   0.386   4.473   2.890
 4631SOL     OW18521   5.325   1.962   5.321
 4631SOL    HW118522   5.337   1.889   5.259
 4631SOL    HW218523   5.379   2.032   5.285
 4631SOL     MW18524   5.334   1.962   5.308
 4632SOL     OW18525   0.641   3.192   2.140
 4632SOL    HW118526   0.628   3.105   2.102
 4632SOL    HW218527   0.729   3.218   2.110
 4632SOL     MW18528   0.651   3.184   2.131
 4633SOL     OW18529   1.944   3.309   5.315
 4633SOL    HW118530   1.878   3.253   5.274
 4633SOL    HW218531   1.932   3.394   5.273
 4633SOL     MW18532   1.934   3.313   5.304
 4634SOL     OW18533   0.849   3.252   2.724
 4634SOL    HW118534   0.811   3.302   2.652
 4634SOL    HW218535   0.860   3.164   2.688
 4634SOL     MW18536   0.845   3.247   2.710
 4635SOL     OW18537   1.037   0.531   1.363
 4635SOL    HW118538   0.970   0.583   1.318
 4635SOL    HW218539   1.026   0.442   1.328
 4635SOL     MW18540   1.027   0.526   1.352
 4636SOL     OW18541   0.173   0.776   3.096
 4636SOL    HW118542   0.230   0.736   3.162
 4636SOL    HW218543   0.089   0.788   3.141
 4636SOL     MW18544   0.170   0.773   3.110
 4637SOL     OW18545   3.622   3.554   3.183
 4637SOL    HW118546   3.634   3.563   3.088
 4637SOL    HW218547   3.703   3.589   3.221
 4637SOL     MW18548   3.634   3.560   3.176
 4638SOL     OW18549   2.708   4.286   1.600
 4638SOL    HW118550   2.734   4.344   1.672
 4638SOL    HW218551   2.660   4.342   1.540
 4638SOL     MW18552   2.705   4.301   1.602
 4639SOL     OW18553   1.672   3.118   0.210
 4639SOL    HW118554   1.757   3.108   0.252
 4639SOL    HW218555   1.619   3.046   0.244
 4639SOL     MW18556   1.676   3.108   0.220
 4640SOL     OW18557   2.009   3.023   3.982
 4640SOL    HW118558   2.069   3.034   4.056
 4640SOL    HW218559   2.000   3.111   3.944
 4640SOL     MW18560   2.016   3.036   3.986
 4641SOL     OW18561   2.138   2.668   1.869
 4641SOL    HW118562   2.085   2.745   1.847
 4641SOL    HW218563   2.188   2.695   1.946
 4641SOL     MW18564   2.137   2.681   1.876
 4642SOL     OW18565   1.446   3.551   4.838
 4642SOL    HW118566   1.526   3.604   4.835
 4642SOL    HW218567   1.473   3.464   4.810
 4642SOL     MW18568   1.460   3.547   4.834
 4643SOL     OW18569   2.433   0.535   1.443
 4643SOL    HW118570   2.500   0.467   1.452
 4643SOL    HW218571   2.367   0.496   1.385
 4643SOL     MW18572   2.433   0.522   1.437
 4644SOL     OW18573   2.893   2.962   4.971
 4644SOL    HW118574   2.814   2.988   4.923
 4644SOL    HW218575   2.947   3.041   4.973
 4644SOL     MW18576   2.889   2.976   4.965
 4645SOL     OW18577   4.430   4.609   5.361
 4645SOL    HW118578   4.386   4.532   5.324
 4645SOL    HW218579   4.496   4.573   5.420
 4645SOL     MW18580   4.433   4.594   5.364
 4646SOL     OW18581   4.455   0.943   0.252
 4646SOL    HW118582   4.543   0.909   0.234
 4646SOL    HW218583   4.456   0.963   0.346
 4646SOL     MW18584   4.467   0.941   0.262
 4647SOL     OW18585   4.996   2.912   0.400
 4647SOL    HW118586   4.909   2.943   0.375
 4647SOL    HW218587   5.051   2.934   0.325
 4647SOL     MW18588   4.992   2.919   0.387
 4648SOL     OW18589   4.458   5.136   4.052
 4648SOL    HW118590   4.496   5.094   3.975
 4648SOL    HW218591   4.461   5.070   4.121
 4648SOL     MW18592   4.463   5.122   4.051
 4649SOL     OW18593   1.255   1.260   2.970
 4649SOL    HW118594   1.264   1.195   3.040
 4649SOL    HW218595   1.217   1.211   2.896
 4649SOL     MW18596   1.251   1.245   2.969
 4650SOL     OW18597   2.902   4.705   3.597
 4650SOL    HW118598   2.903   4.630   3.537
 4650SOL    HW218599   2.931   4.778   3.543
 4650SOL     MW18600   2.906   4.705   3.582
 4651SOL     OW18601   5.388   5.403   0.323
 4651SOL    HW118602   5.364   5.495   0.312
 4651SOL    HW218603   5.451   5.402   0.395
 4651SOL     MW18604   5.393   5.415   0.331
 4652SOL     OW18605   3.123   0.791   4.925
 4652SOL    HW118606   3.039   0.837   4.919
 4652SOL    HW218607   3.120   0.748   5.010
 4652SOL     MW18608   3.112   0.791   4.935
 4653SOL     OW18609   5.334   1.450   4.392
 4653SOL    HW118610   5.343   1.398   4.312
 4653SOL    HW218611   5.424   1.476   4.414
 4653SOL     MW18612   5.347   1.447   4.385
 4654SOL     OW18613   1.501   1.168   3.355
 4654SOL    HW118614   1.485   1.173   3.449
 4654SOL    HW218615   1.415   1.153   3.317
 4654SOL     MW18616   1.488   1.167   3.362
 4655SOL     OW18617   1.508   1.334   2.010
 4655SOL    HW118618   1.533   1.266   2.072
 4655SOL    HW218619   1.560   1.314   1.931
 4655SOL     MW18620   1.518   1.323   2.008
 4656SOL     OW18621   1.610   2.856   0.815
 4656SOL    HW118622   1.649   2.943   0.812
 4656SOL    HW218623   1.675   2.802   0.859
 4656SOL     MW18624   1.623   2.860   0.820
 4657SOL     OW18625   5.000   3.605   0.054
 4657SOL    HW118626   4.968   3.529   0.005
 4657SOL    HW218627   5.006   3.575   0.145
 4657SOL     MW18628   4.996   3.592   0.059
 4658SOL     OW18629   4.136   3.167   1.051
 4658SOL    HW118630   4.220   3.203   1.080
 4658SOL    HW218631   4.092   3.241   1.010
 4658SOL     MW18632   4.141   3.181   1.050
 4659SOL     OW18633   5.390   4.703   2.781
 4659SOL    HW118634   5.302   4.665   2.792
 4659SOL    HW218635   5.444   4.629   2.753
 4659SOL     MW18636   5.385   4.688   2.779
 4660SOL     OW18637   4.683   0.662   1.139
 4660SOL    HW118638   4.733   0.597   1.089
 4660SOL    HW218639   4.593   0.632   1.134
 4660SOL     MW18640   4.678   0.650   1.132
 4661SOL     OW18641   5.131   4.967   4.666
 4661SOL    HW118642   5.204   5.028   4.648
 4661SOL    HW218643   5.112   4.979   4.759
 4661SOL     MW18644   5.138   4.977   4.675
 4662SOL     OW18645   5.078   4.617   4.911
 4662SOL    HW118646   5.155   4.564   4.891
 4662SOL    HW218647   5.017   4.555   4.952
 4662SOL     MW18648   5.080   4.602   4.914
 4663SOL     OW18649   0.665   3.504   1.981
 4663SOL    HW118650   0.580   3.462   1.993
 4663SOL    HW218651   0.689   3.486   1.890
 4663SOL     MW18652   0.657   3.497   1.971
 4664SOL     OW18653   5.265   3.858   5.203
 4664SOL    HW118654   5.328   3.918   5.242
 4664SOL    HW218655   5.318   3.796   5.153
 4664SOL     MW18656   5.280   3.858   5.201
 4665SOL     OW18657   3.480   5.412   5.148
 4665SOL    HW118658   3.425   5.339   5.175
 4665SOL    HW218659   3.428   5.458   5.082
 4665SOL     MW18660   3.467   5.409   5.143
 4666SOL     OW18661   0.288   0.381   4.170
 4666SOL    HW118662   0.203   0.411   4.202
 4666SOL    HW218663   0.338   0.361   4.249
 4666SOL     MW18664   0.284   0.382   4.184
 4667SOL     OW18665   5.031   2.708   0.059
 4667SOL    HW118666   4.990   2.634   0.104
 4667SOL    HW218667   5.048   2.676  -0.030
 4667SOL     MW18668   5.028   2.695   0.053
 4668SOL     OW18669   2.734   3.158   4.360
 4668SOL    HW118670   2.693   3.074   4.341
 4668SOL    HW218671   2.785   3.178   4.281
 4668SOL     MW18672   2.735   3.150   4.347
 4669SOL     OW18673   3.774   1.767   3.563
 4669SOL    HW118674   3.710   1.767   3.491
 4669SOL    HW218675   3.767   1.679   3.600
 4669SOL     MW18676   3.765   1.756   3.559
 4670SOL     OW18677   4.467   1.634   4.331
 4670SOL    HW118678   4.482   1.705   4.268
 4670SOL    HW218679   4.539   1.573   4.316
 4670SOL     MW18680   4.478   1.635   4.321
 4671SOL     OW18681   4.815   1.538   5.245
 4671SOL    HW118682   4.876   1.468   5.223
 4671SOL    HW218683   4.750   1.496   5.302
 4671SOL     MW18684   4.814   1.524   5.250
 4672SOL     OW18685   0.569   4.020   4.834
 4672SOL    HW118686   0.643   4.080   4.846
 4672SOL    HW218687   0.571   3.963   4.911
 4672SOL     MW18688   0.579   4.021   4.846
 4673SOL     OW18689   1.031   1.709   4.006
 4673SOL    HW118690   0.992   1.795   3.992
 4673SOL    HW218691   0.958   1.647   3.998
 4673SOL     MW18692   1.017   1.712   4.003
 4674SOL     OW18693   0.881   3.057   5.015
 4674SOL    HW118694   0.896   3.123   4.947
 4674SOL    HW218695   0.924   2.978   4.981
 4674SOL     MW18696   0.889   3.056   5.002
 4675SOL     OW18697   1.973   0.118   3.055
 4675SOL    HW118698   2.047   0.176   3.038
 4675SOL    HW218699   2.011   0.030   3.056
 4675SOL     MW18700   1.987   0.114   3.053
 4676SOL     OW18701   0.445   4.800   5.186
 4676SOL    HW118702   0.517   4.756   5.142
 4676SOL    HW218703   0.396   4.730   5.229
 4676SOL     MW18704   0.448   4.786   5.186
 4677SOL     OW18705   1.502   4.505   1.642
 4677SOL    HW118706   1.451   4.426   1.660
 4677SOL    HW218707   1.445   4.559   1.587
 4677SOL     MW18708   1.488   4.502   1.637
 4678SOL     OW18709   0.217   3.256   2.989
 4678SOL    HW118710   0.140   3.208   3.018
 4678SOL    HW218711   0.233   3.320   3.058
 4678SOL     MW18712   0.209   3.258   3.002
 4679SOL     OW18713   3.031   3.817   4.590
 4679SOL    HW118714   3.067   3.888   4.643
 4679SOL    HW218715   3.042   3.847   4.499
 4679SOL     MW18716   3.037   3.830   4.585
 4680SOL     OW18717   0.685   2.305   2.224
 4680SOL    HW118718   0.716   2.331   2.310
 4680SOL    HW218719   0.763   2.301   2.169
 4680SOL     MW18720   0.699   2.308   2.228
 4681SOL     OW18721   4.350   1.290   1.877
 4681SOL    HW118722   4.354   1.385   1.864
 4681SOL    HW218723   4.440   1.261   1.867
 4681SOL     MW18724   4.362   1.299   1.874
 4682SOL     OW18725   3.543   1.098   1.297
 4682SOL    HW118726   3.470   1.160   1.301
 4682SOL    HW218727   3.601   1.135   1.231
 4682SOL     MW18728   3.541   1.111   1.289
 4683SOL     OW18729   0.261   5.038   1.005
 4683SOL    HW118730   0.304   5.120   1.030
 4683SOL    HW218731   0.174   5.044   1.042
 4683SOL     MW18732   0.256   5.049   1.013
 4684SOL     OW18733   0.980   0.340   2.838
 4684SOL    HW118734   0.961   0.284   2.763
 4684SOL    HW218735   1.069   0.371   2.823
 4684SOL     MW18736   0.989   0.337   2.827
 4685SOL     OW18737   3.158   2.704   3.533
 4685SOL    HW118738   3.250   2.695   3.508
 4685SOL    HW218739   3.129   2.784   3.490
 4685SOL     MW18740   3.166   2.713   3.525
 4686SOL     OW18741   4.408   0.584   3.963
 4686SOL    HW118742   4.385   0.617   3.876
 4686SOL    HW218743   4.428   0.492   3.949
 4686SOL     MW18744   4.408   0.577   3.950
 4687SOL     OW18745   2.981   0.932   3.895
 4687SOL    HW118746   3.000   0.848   3.853
 4687SOL    HW218747   2.937   0.908   3.977
 4687SOL     MW18748   2.978   0.918   3.901
 4688SOL     OW18749   3.459   0.994   3.372
 4688SOL    HW118750   3.470   1.086   3.397
 4688SOL    HW218751   3.455   0.996   3.276
 4688SOL     MW18752   3.460   1.006   3.363
 4689SOL     OW18753   1.975   5.117   3.066
 4689SOL    HW118754   2.034   5.046   3.041
 4689SOL    HW218755   1.904   5.075   3.113
 4689SOL     MW18756   1.974   5.103   3.069
 4690SOL     OW18757   1.679   5.112   4.956
 4690SOL    HW118758   1.612   5.127   5.022
 4690SOL    HW218759   1.650   5.163   4.881
 4690SOL     MW18760   1.667   5.121   4.955
 4691SOL     OW18761   1.742   4.885   5.279
 4691SOL    HW118762   1.791   4.942   5.219
 4691SOL    HW218763   1.676   4.844   5.223
 4691SOL     MW18764   1.740   4.887   5.264
 4692SOL     OW18765   0.691   3.491   4.421
 4692SOL    HW118766   0.624   3.495   4.489
 4692SOL    HW218767   0.708   3.582   4.398
 4692SOL     MW18768   0.685   3.503   4.427
 4693SOL     OW18769   4.831   4.013   3.912
 4693SOL    HW118770   4.923   4.033   3.930
 4693SOL    HW218771   4.828   3.918   3.905
 4693SOL     MW18772   4.842   4.003   3.914
 4694SOL     OW18773   0.356   0.215   4.734
 4694SOL    HW118774   0.327   0.276   4.666
 4694SOL    HW218775   0.294   0.228   4.806
 4694SOL     MW18776   0.345   0.225   4.735
 4695SOL     OW18777   0.462   1.447   5.444
 4695SOL    HW118778   0.475   1.437   5.350
 4695SOL    HW218779   0.370   1.474   5.453
 4695SOL     MW18780   0.452   1.449   5.433
 4696SOL     OW18781   1.322   0.290   3.992
 4696SOL    HW118782   1.273   0.369   3.968
 4696SOL    HW218783   1.261   0.239   4.045
 4696SOL     MW18784   1.308   0.294   3.996
 4697SOL     OW18785   5.274   0.973   2.365
 4697SOL    HW118786   5.331   0.896   2.372
 4697SOL    HW218787   5.270   1.008   2.454
 4697SOL     MW18788   5.281   0.967   2.377
 4698SOL     OW18789   3.137   3.592   0.741
 4698SOL    HW118790   3.179   3.632   0.817
 4698SOL    HW218791   3.109   3.666   0.687
 4698SOL     MW18792   3.139   3.607   0.743
 4699SOL     OW18793   2.536   3.476   1.350
 4699SOL    HW118794   2.508   3.405   1.407
 4699SOL    HW218795   2.568   3.433   1.271
 4699SOL     MW18796   2.537   3.462   1.347
 4700SOL     OW18797   4.497   0.054   3.593
 4700SOL    HW118798   4.520   0.146   3.605
 4700SOL    HW218799   4.403   0.055   3.576
 4700SOL     MW18800   4.487   0.066   3.593
 4701SOL     OW18801   4.330   4.524   0.204
 4701SOL    HW118802   4.397   4.593   0.201
 4701SOL    HW218803   4.247   4.571   0.194
 4701SOL     MW18804   4.328   4.539   0.203
 4702SOL     OW18805   3.691   1.157   5.125
 4702SOL    HW118806   3.782   1.180   5.111
 4702SOL    HW218807   3.694   1.079   5.180
 4702SOL     MW18808   3.703   1.150   5.131
 4703SOL     OW18809   1.575   0.440   3.018
 4703SOL    HW118810   1.591   0.525   2.977
 4703SOL    HW218811   1.662   0.410   3.044
 4703SOL     MW18812   1.588   0.447   3.016
 4704SOL     OW18813   3.225   3.135   3.111
 4704SOL    HW118814   3.181   3.220   3.106
 4704SOL    HW218815   3.153   3.072   3.116
 4704SOL     MW18816   3.210   3.138   3.111
 4705SOL     OW18817   5.402   2.889   1.305
 4705SOL    HW118818   5.450   2.816   1.266
 4705SOL    HW218819   5.379   2.946   1.232
 4705SOL     MW18820   5.406   2.887   1.291
 4706SOL     OW18821   4.554   0.380   2.715
 4706SOL    HW118822   4.554   0.285   2.702
 4706SOL    HW218823   4.580   0.392   2.806
 4706SOL     MW18824   4.557   0.369   2.725
 4707SOL     OW18825   3.798   4.902   5.453
 4707SOL    HW118826   3.708   4.929   5.470
 4707SOL    HW218827   3.811   4.825   5.508
 4707SOL     MW18828   3.788   4.896   5.463
 4708SOL     OW18829   2.657   3.382   1.116
 4708SOL    HW118830   2.622   3.353   1.032
 4708SOL    HW218831   2.700   3.304   1.152
 4708SOL     MW18832   2.658   3.368   1.110
 4709SOL     OW18833   2.761   1.557   4.028
 4709SOL    HW118834   2.677   1.512   4.018
 4709SOL    HW218835   2.785   1.585   3.940
 4709SOL     MW18836   2.753   1.555   4.016
 4710SOL     OW18837   0.196   4.261   4.742
 4710SOL    HW118838   0.216   4.347   4.779
 4710SOL    HW218839   0.232   4.198   4.806
 4710SOL     MW18840   0.203   4.264   4.755
 4711SOL     OW18841   3.946   1.009   5.399
 4711SOL    HW118842   3.980   0.924   5.371
 4711SOL    HW218843   3.963   1.012   5.493
 4711SOL     MW18844   3.953   0.999   5.407
 4712SOL     OW18845   1.101   2.447   4.256
 4712SOL    HW118846   1.060   2.364   4.280
 4712SOL    HW218847   1.157   2.468   4.330
 4712SOL     MW18848   1.103   2.439   4.268
 4713SOL     OW18849   2.785   3.511   1.685
 4713SOL    HW118850   2.822   3.428   1.656
 4713SOL    HW218851   2.775   3.562   1.605
 4713SOL     MW18852   2.788   3.507   1.671
 4714SOL     OW18853   2.971   4.644   2.135
 4714SOL    HW118854   2.903   4.585   2.102
 4714SOL    HW218855   3.019   4.671   2.056
 4714SOL     MW18856   2.969   4.640   2.121
 4715SOL     OW18857   0.867   5.128   2.674
 4715SOL    HW118858   0.899   5.101   2.760
 4715SOL    HW218859   0.884   5.222   2.671
 4715SOL     MW18860   0.873   5.137   2.685
 4716SOL     OW18861   0.741   4.915   3.003
 4716SOL    HW118862   0.673   4.948   3.061
 4716SOL    HW218863   0.698   4.906   2.918
 4716SOL     MW18864   0.727   4.918   3.000
 4717SOL     OW18865   0.269   4.159   0.497
 4717SOL    HW118866   0.349   4.141   0.447
 4717SOL    HW218867   0.300   4.200   0.577
 4717SOL     MW18868   0.283   4.162   0.501
 4718SOL     OW18869   4.219   3.988   4.756
 4718SOL    HW118870   4.199   3.911   4.810
 4718SOL    HW218871   4.276   3.955   4.687
 4718SOL     MW18872   4.223   3.974   4.754
 4719SOL     OW18873   3.063   3.434   2.540
 4719SOL    HW118874   3.020   3.383   2.609
 4719SOL    HW218875   3.116   3.370   2.492
 4719SOL     MW18876   3.064   3.419   2.543
 4720SOL     OW18877   3.336   4.425   5.156
 4720SOL    HW118878   3.289   4.342   5.163
 4720SOL    HW218879   3.315   4.457   5.069
 4720SOL     MW18880   3.327   4.418   5.146
 4721SOL     OW18881   2.920   1.022   3.083
 4721SOL    HW118882   2.890   1.071   3.159
 4721SOL    HW218883   2.849   0.961   3.064
 4721SOL     MW18884   2.907   1.021   3.090
 4722SOL     OW18885   1.511   3.283   5.046
 4722SOL    HW118886   1.515   3.378   5.059
 4722SOL    HW218887   1.507   3.272   4.951
 4722SOL     MW18888   1.511   3.294   5.036
 4723SOL     OW18889   4.162   0.433   2.294
 4723SOL    HW118890   4.246   0.441   2.339
 4723SOL    HW218891   4.156   0.340   2.272
 4723SOL     MW18892   4.172   0.422   2.297
 4724SOL     OW18893   5.319   5.396   5.003
 4724SOL    HW118894   5.319   5.413   4.909
 4724SOL    HW218895   5.330   5.301   5.010
 4724SOL     MW18896   5.321   5.386   4.992
 4725SOL     OW18897   2.471   4.176   1.932
 4725SOL    HW118898   2.455   4.270   1.935
 4725SOL    HW218899   2.389   4.137   1.962
 4725SOL     MW18900   2.459   4.183   1.936
 4726SOL     OW18901   0.373   3.758   4.575
 4726SOL    HW118902   0.350   3.808   4.497
 4726SOL    HW218903   0.455   3.797   4.606
 4726SOL     MW18904   0.381   3.769   4.569
 4727SOL     OW18905   5.439   4.023   1.276
 4727SOL    HW118906   5.528   4.058   1.282
 4727SOL    HW218907   5.443   3.958   1.207
 4727SOL     MW18908   5.451   4.019   1.268
 4728SOL     OW18909   1.919   4.243   0.715
 4728SOL    HW118910   1.904   4.193   0.635
 4728SOL    HW218911   1.924   4.177   0.784
 4728SOL     MW18912   1.918   4.228   0.713
 4729SOL     OW18913   3.026   1.952   5.421
 4729SOL    HW118914   3.061   1.995   5.498
 4729SOL    HW218915   2.937   1.927   5.445
 4729SOL     MW18916   3.019   1.954   5.434
 4730SOL     OW18917   1.449   0.460   2.485
 4730SOL    HW118918   1.503   0.536   2.505
 4730SOL    HW218919   1.509   0.386   2.485
 4730SOL     MW18920   1.463   0.460   2.488
 4731SOL     OW18921   4.298   4.334   4.274
 4731SOL    HW118922   4.393   4.325   4.263
 4731SOL    HW218923   4.283   4.310   4.365
 4731SOL     MW18924   4.308   4.329   4.284
 4732SOL     OW18925   5.342   4.103   0.236
 4732SOL    HW118926   5.324   4.111   0.142
 4732SOL    HW218927   5.256   4.097   0.277
 4732SOL     MW18928   5.329   4.104   0.229
 4733SOL     OW18929   0.951   4.865   5.391
 4733SOL    HW118930   0.986   4.784   5.354
 4733SOL    HW218931   1.028   4.909   5.429
 4733SOL     MW18932   0.966   4.861   5.391
 4734SOL     OW18933   0.079   4.257   3.286
 4734SOL    HW118934   0.107   4.316   3.356
 4734SOL    HW218935   0.123   4.289   3.208
 4734SOL     MW18936   0.088   4.269   3.285
 4735SOL     OW18937   3.740   2.773   5.071
 4735SOL    HW118938   3.673   2.709   5.093
 4735SOL    HW218939   3.791   2.782   5.151
 4735SOL     MW18940   3.738   2.766   5.084
 4736SOL     OW18941   5.380   2.365   3.510
 4736SOL    HW118942   5.287   2.348   3.520
 4736SOL    HW218943   5.385   2.456   3.479
 4736SOL     MW18944   5.369   2.374   3.507
 4737SOL     OW18945   0.315   4.693   4.579
 4737SOL    HW118946   0.351   4.606   4.560
 4737SOL    HW218947   0.369   4.726   4.651
 4737SOL     MW18948   0.327   4.686   4.586
 4738SOL     OW18949   5.487   1.545   1.120
 4738SOL    HW118950   5.424   1.606   1.158
 4738SOL    HW218951   5.484   1.563   1.026
 4738SOL     MW18952   5.478   1.555   1.112
 4739SOL     OW18953   0.393   4.745   2.391
 4739SOL    HW118954   0.333   4.785   2.454
 4739SOL    HW218955   0.379   4.793   2.310
 4739SOL     MW18956   0.384   4.756   2.389
 4740SOL     OW18957   1.759   1.261   3.692
 4740SOL    HW118958   1.678   1.216   3.666
 4740SOL    HW218959   1.804   1.279   3.610
 4740SOL     MW18960   1.754   1.258   3.678
 4741SOL     OW18961   1.112   2.278   2.427
 4741SOL    HW118962   1.027   2.320   2.412
 4741SOL    HW218963   1.158   2.288   2.344
 4741SOL     MW18964   1.107   2.285   2.414
 4742SOL     OW18965   0.422   3.507   1.659
 4742SOL    HW118966   0.372   3.587   1.675
 4742SOL    HW218967   0.362   3.451   1.609
 4742SOL     MW18968   0.408   3.510   1.654
 4743SOL     OW18969   3.434   1.419   0.433
 4743SOL    HW118970   3.343   1.444   0.449
 4743SOL    HW218971   3.480   1.502   0.420
 4743SOL     MW18972   3.429   1.433   0.434
 4744SOL     OW18973   3.501   2.102   3.661
 4744SOL    HW118974   3.493   2.017   3.705
 4744SOL    HW218975   3.582   2.096   3.611
 4744SOL     MW18976   3.510   2.090   3.660
 4745SOL     OW18977   0.177   0.549   3.492
 4745SOL    HW118978   0.231   0.573   3.416
 4745SOL    HW218979   0.237   0.505   3.551
 4745SOL     MW18980   0.191   0.547   3.490
 4746SOL     OW18981   4.621   3.834   0.121
 4746SOL    HW118982   4.543   3.798   0.078
 4746SOL    HW218983   4.601   3.927   0.132
 4746SOL     MW18984   4.608   3.841   0.117
 4747SOL     OW18985   4.223   0.388   1.169
 4747SOL    HW118986   4.260   0.317   1.220
 4747SOL    HW218987   4.189   0.346   1.090
 4747SOL     MW18988   4.224   0.374   1.165
 4748SOL     OW18989   3.579   2.438   2.682
 4748SOL    HW118990   3.509   2.434   2.747
 4748SOL    HW218991   3.644   2.375   2.713
 4748SOL     MW18992   3.578   2.430   2.694
 4749SOL     OW18993   4.209   3.448   4.502
 4749SOL    HW118994   4.131   3.504   4.504
 4749SOL    HW218995   4.178   3.367   4.462
 4749SOL     MW18996   4.195   3.445   4.497
 4750SOL     OW18997   1.152   5.392   5.224
 4750SOL    HW118998   1.214   5.449   5.179
 4750SOL    HW218999   1.084   5.375   5.159
 4750SOL     MW19000   1.151   5.397   5.210
 4751SOL     OW19001   3.093   0.391   4.823
 4751SOL    HW119002   3.182   0.414   4.794
 4751SOL    HW219003   3.095   0.295   4.833
 4751SOL     MW19004   3.105   0.381   4.821
 4752SOL     OW19005   0.020   4.689   5.325
 4752SOL    HW119006   0.010   4.684   5.230
 4752SOL    HW219007  -0.003   4.601   5.356
 4752SOL     MW19008   0.016   4.677   5.317
 4753SOL     OW19009   4.312   4.088   3.885
 4753SOL    HW119010   4.292   4.167   3.937
 4753SOL    HW219011   4.226   4.051   3.864
 4753SOL     MW19012   4.298   4.094   3.889
 4754SOL     OW19013   4.341   3.134   3.917
 4754SOL    HW119014   4.319   3.041   3.916
 4754SOL    HW219015   4.271   3.175   3.867
 4754SOL     MW19016   4.330   3.127   3.910
 4755SOL     OW19017   2.238   0.248   1.963
 4755SOL    HW119018   2.283   0.216   2.040
 4755SOL    HW219019   2.152   0.206   1.966
 4755SOL     MW19020   2.233   0.238   1.973
 4756SOL     OW19021   4.828   3.226   0.638
 4756SOL    HW119022   4.796   3.138   0.657
 4756SOL    HW219023   4.763   3.263   0.578
 4756SOL     MW19024   4.816   3.220   0.633
 4757SOL     OW19025   3.178   0.436   4.356
 4757SOL    HW119026   3.122   0.423   4.432
 4757SOL    HW219027   3.261   0.468   4.392
 4757SOL     MW19028   3.181   0.439   4.370
 4758SOL     OW19029   4.958   1.064   2.886
 4758SOL    HW119030   4.940   0.977   2.850
 4758SOL    HW219031   4.901   1.069   2.963
 4758SOL     MW19032   4.948   1.054   2.891
 4759SOL     OW19033   1.775   2.335   2.868
 4759SOL    HW119034   1.725   2.255   2.850
 4759SOL    HW219035   1.844   2.307   2.928
 4759SOL     MW19036   1.777   2.321   2.874
 4760SOL     OW19037   3.519   1.075   0.486
 4760SOL    HW119038   3.512   1.142   0.554
 4760SOL    HW219039   3.606   1.088   0.449
 4760SOL     MW19040   3.529   1.085   0.490
 4761SOL     OW19041   4.287   2.511   5.238
 4761SOL    HW119042   4.219   2.445   5.247
 4761SOL    HW219043   4.345   2.496   5.313
 4761SOL     MW19044   4.286   2.501   5.249
 4762SOL     OW19045   0.219   2.723   1.459
 4762SOL    HW119046   0.191   2.813   1.474
 4762SOL    HW219047   0.169   2.695   1.382
 4762SOL     MW19048   0.209   2.731   1.451
 4763SOL     OW19049   0.122   0.241   4.886
 4763SOL    HW119050   0.123   0.174   4.955
 4763SOL    HW219051   0.143   0.322   4.932
 4763SOL     MW19052   0.125   0.242   4.901
 4764SOL     OW19053   2.733   0.759   1.206
 4764SOL    HW119054   2.773   0.685   1.251
 4764SOL    HW219055   2.674   0.798   1.271
 4764SOL     MW19056   2.731   0.755   1.220
 4765SOL     OW19057   0.778   1.537   0.854
 4765SOL    HW119058   0.788   1.539   0.950
 4765SOL    HW219059   0.867   1.528   0.821
 4765SOL     MW19060   0.791   1.536   0.862
 4766SOL     OW19061   5.362   0.559   0.106
 4766SOL    HW119062   5.375   0.465   0.093
 4766SOL    HW219063   5.281   0.578   0.058
 4766SOL     MW19064   5.353   0.549   0.098
 4767SOL     OW19065  -0.011   2.723   5.001
 4767SOL    HW119066  -0.015   2.816   4.982
 4767SOL    HW219067   0.082   2.704   5.013
 4767SOL     MW19068   0.001   2.732   5.000
 4768SOL     OW19069   2.813   3.871   4.762
 4768SOL    HW119070   2.811   3.794   4.818
 4768SOL    HW219071   2.873   3.849   4.691
 4768SOL     MW19072   2.820   3.859   4.760
 4769SOL     OW19073   2.526   2.375   3.458
 4769SOL    HW119074   2.608   2.414   3.489
 4769SOL    HW219075   2.554   2.294   3.414
 4769SOL     MW19076   2.540   2.369   3.456
 4770SOL     OW19077   5.063   2.681   3.185
 4770SOL    HW119078   5.072   2.692   3.280
 4770SOL    HW219079   4.983   2.729   3.163
 4770SOL     MW19080   5.054   2.689   3.195
 4771SOL     OW19081   1.504   0.274   4.194
 4771SOL    HW119082   1.475   0.193   4.236
 4771SOL    HW219083   1.442   0.286   4.121
 4771SOL     MW19084   1.492   0.265   4.190
 4772SOL     OW19085   5.447   2.333   2.681
 4772SOL    HW119086   5.452   2.252   2.629
 4772SOL    HW219087   5.475   2.307   2.768
 4772SOL     MW19088   5.451   2.319   2.685
 4773SOL     OW19089   2.177   0.518   4.989
 4773SOL    HW119090   2.133   0.597   4.956
 4773SOL    HW219091   2.218   0.546   5.071
 4773SOL     MW19092   2.177   0.532   4.995
 4774SOL     OW19093   4.514   2.463   5.094
 4774SOL    HW119094   4.536   2.373   5.118
 4774SOL    HW219095   4.432   2.480   5.140
 4774SOL     MW19096   4.506   2.453   5.103
 4775SOL     OW19097   4.223   4.792   3.259
 4775SOL    HW119098   4.193   4.869   3.210
 4775SOL    HW219099   4.186   4.803   3.347
 4775SOL     MW19100   4.214   4.803   3.264
 4776SOL     OW19101   0.106   2.946   4.098
 4776SOL    HW119102   0.186   2.895   4.108
 4776SOL    HW219103   0.122   3.026   4.149
 4776SOL     MW19104   0.118   2.950   4.106
 4777SOL     OW19105   0.269   3.788   1.947
 4777SOL    HW119106   0.185   3.742   1.954
 4777SOL    HW219107   0.289   3.787   1.854
 4777SOL     MW19108   0.261   3.782   1.936
 4778SOL     OW19109   1.307   2.317   0.121
 4778SOL    HW119110   1.382   2.375   0.136
 4778SOL    HW219111   1.268   2.349   0.039
 4778SOL     MW19112   1.312   2.329   0.112
 4779SOL     OW19113   4.458   2.136   1.866
 4779SOL    HW119114   4.479   2.061   1.812
 4779SOL    HW219115   4.449   2.100   1.955
 4779SOL     MW19116   4.459   2.122   1.871
 4780SOL     OW19117   3.125   3.655   1.526
 4780SOL    HW119118   3.101   3.738   1.568
 4780SOL    HW219119   3.068   3.649   1.449
 4780SOL     MW19120   3.115   3.665   1.521
 4781SOL     OW19121   2.945   1.134   4.212
 4781SOL    HW119122   2.945   1.230   4.205
 4781SOL    HW219123   2.870   1.106   4.160
 4781SOL     MW19124   2.936   1.143   4.204
 4782SOL     OW19125   0.052   0.559   5.237
 4782SOL    HW119126  -0.013   0.490   5.224
 4782SOL    HW219127   0.001   0.640   5.239
 4782SOL     MW19128   0.037   0.560   5.235
 4783SOL     OW19129   1.297   0.150   2.779
 4783SOL    HW119130   1.384   0.116   2.799
 4783SOL    HW219131   1.240   0.113   2.847
 4783SOL     MW19132   1.301   0.141   2.790
 4784SOL     OW19133   0.735   4.305   5.110
 4784SOL    HW119134   0.780   4.250   5.174
 4784SOL    HW219135   0.642   4.288   5.123
 4784SOL     MW19136   0.729   4.296   5.120
 4785SOL     OW19137   2.848   1.463   3.378
 4785SOL    HW119138   2.755   1.472   3.399
 4785SOL    HW219139   2.893   1.472   3.461
 4785SOL     MW19140   2.842   1.465   3.391
 4786SOL     OW19141   1.070   5.268   4.455
 4786SOL    HW119142   0.978   5.244   4.471
 4786SOL    HW219143   1.064   5.348   4.403
 4786SOL     MW19144   1.057   5.275   4.450
 4787SOL     OW19145   5.262   0.745   1.056
 4787SOL    HW119146   5.323   0.759   1.129
 4787SOL    HW219147   5.208   0.671   1.084
 4787SOL     MW19148   5.263   0.738   1.069
 4788SOL     OW19149   2.115   2.998   1.574
 4788SOL    HW119150   2.166   2.985   1.494
 4788SOL    HW219151   2.179   3.024   1.640
 4788SOL     MW19152   2.130   3.000   1.572
 4789SOL     OW19153   4.845   2.859   3.130
 4789SOL    HW119154   4.793   2.859   3.049
 4789SOL    HW219155   4.782   2.884   3.198
 4789SOL     MW19156   4.830   2.862   3.128
 4790SOL     OW19157   1.432   1.100   4.590
 4790SOL    HW119158   1.402   1.015   4.620
 4790SOL    HW219159   1.398   1.162   4.655
 4790SOL     MW19160   1.423   1.097   4.602
 4791SOL     OW19161   0.966   2.012   2.163
 4791SOL    HW119162   0.930   1.936   2.118
 4791SOL    HW219163   0.948   1.996   2.256
 4791SOL     MW19164   0.959   2.000   2.170
 4792SOL     OW19165   4.516   2.260   2.494
 4792SOL    HW119166   4.530   2.256   2.399
 4792SOL    HW219167   4.487   2.350   2.510
 4792SOL     MW19168   4.514   2.271   2.484
 4793SOL     OW19169   2.340   5.070   2.578
 4793SOL    HW119170   2.327   4.976   2.590
 4793SOL    HW219171   2.365   5.079   2.486
 4793SOL     MW19172   2.341   5.059   2.568
 4794SOL     OW19173   4.452   1.142   3.266
 4794SOL    HW119174   4.389   1.074   3.290
 4794SOL    HW219175   4.455   1.140   3.171
 4794SOL     MW19176   4.444   1.133   3.257
 4795SOL     OW19177   4.967   2.162   2.724
 4795SOL    HW119178   4.902   2.211   2.673
 4795SOL    HW219179   4.937   2.072   2.721
 4795SOL     MW19180   4.955   2.157   2.717
 4796SOL     OW19181   1.823   5.204   2.856
 4796SOL    HW119182   1.735   5.196   2.892
 4796SOL    HW219183   1.880   5.173   2.926
 4796SOL     MW19184   1.819   5.199   2.869
 4797SOL     OW19185   5.418   4.812   4.401
 4797SOL    HW119186   5.416   4.732   4.348
 4797SOL    HW219187   5.402   4.782   4.490
 4797SOL     MW19188   5.416   4.798   4.405
 4798SOL     OW19189   4.651   1.165   3.967
 4798SOL    HW119190   4.682   1.197   4.052
 4798SOL    HW219191   4.569   1.119   3.988
 4798SOL     MW19192   4.644   1.163   3.980
 4799SOL     OW19193   2.153   4.353   0.607
 4799SOL    HW119194   2.130   4.353   0.514
 4799SOL    HW219195   2.078   4.314   0.651
 4799SOL     MW19196   2.140   4.348   0.601
 4800SOL     OW19197   1.265   4.178   4.078
 4800SOL    HW119198   1.350   4.149   4.110
 4800SOL    HW219199   1.203   4.114   4.113
 4800SOL     MW19200   1.268   4.166   4.087
 4801SOL     OW19201   1.613   3.782   2.338
 4801SOL    HW119202   1.533   3.776   2.389
 4801SOL    HW219203   1.606   3.713   2.272
 4801SOL     MW19204   1.602   3.773   2.336
 4802SOL     OW19205   1.314   5.056   2.524
 4802SOL    HW119206   1.403   5.059   2.560
 4802SOL    HW219207   1.277   4.975   2.560
 4802SOL     MW19208   1.321   5.046   2.533
 4803SOL     OW19209   1.161   2.342   3.321
 4803SOL    HW119210   1.255   2.355   3.311
 4803SOL    HW219211   1.123   2.376   3.241
 4803SOL     MW19212   1.168   2.348   3.310
 4804SOL     OW19213   1.248   4.827   4.299
 4804SOL    HW119214   1.194   4.807   4.222
 4804SOL    HW219215   1.310   4.893   4.269
 4804SOL     MW19216   1.249   4.833   4.286
 4805SOL     OW19217   2.558   0.480   1.820
 4805SOL    HW119218   2.633   0.435   1.781
 4805SOL    HW219219   2.581   0.487   1.913
 4805SOL     MW19220   2.571   0.475   1.827
 4806SOL     OW19221   5.000   3.604   3.737
 4806SOL    HW119222   5.068   3.664   3.707
 4806SOL    HW219223   5.019   3.522   3.692
 4806SOL     MW19224   5.011   3.601   3.728
 4807SOL     OW19225   3.851   3.230   4.369
 4807SOL    HW119226   3.946   3.228   4.378
 4807SOL    HW219227   3.833   3.191   4.284
 4807SOL     MW19228   3.861   3.225   4.359
 4808SOL     OW19229   2.865   4.109   4.886
 4808SOL    HW119230   2.791   4.168   4.877
 4808SOL    HW219231   2.839   4.030   4.840
 4808SOL     MW19232   2.852   4.107   4.879
 4809SOL     OW19233   0.165   0.633   4.611
 4809SOL    HW119234   0.205   0.548   4.590
 4809SOL    HW219235   0.203   0.656   4.696
 4809SOL     MW19236   0.175   0.625   4.619
 4810SOL     OW19237   1.978   2.569   3.893
 4810SOL    HW119238   1.950   2.654   3.927
 4810SOL    HW219239   1.968   2.576   3.798
 4810SOL     MW19240   1.973   2.581   3.885
 4811SOL     OW19241   4.877   3.935   2.394
 4811SOL    HW119242   4.914   4.023   2.396
 4811SOL    HW219243   4.953   3.877   2.381
 4811SOL     MW19244   4.891   3.939   2.393
 4812SOL     OW19245   0.649   0.381   0.744
 4812SOL    HW119246   0.639   0.470   0.710
 4812SOL    HW219247   0.744   0.370   0.753
 4812SOL     MW19248   0.660   0.391   0.741
 4813SOL     OW19249   5.024   1.970   4.685
 4813SOL    HW119250   5.050   2.046   4.633
 4813SOL    HW219251   5.040   1.895   4.627
 4813SOL     MW19252   5.029   1.970   4.671
 4814SOL     OW19253   4.653   0.754   1.863
 4814SOL    HW119254   4.656   0.724   1.773
 4814SOL    HW219255   4.736   0.726   1.901
 4814SOL     MW19256   4.664   0.747   1.857
 4815SOL     OW19257   1.512   4.641   0.296
 4815SOL    HW119258   1.596   4.684   0.311
 4815SOL    HW219259   1.483   4.674   0.211
 4815SOL     MW19260   1.519   4.650   0.287
 4816SOL     OW19261   1.659   0.922   2.949
 4816SOL    HW119262   1.656   1.008   2.990
 4816SOL    HW219263   1.637   0.938   2.857
 4816SOL     MW19264   1.655   0.935   2.943
 4817SOL     OW19265   4.898   1.348   0.389
 4817SOL    HW119266   4.838   1.292   0.339
 4817SOL    HW219267   4.940   1.288   0.451
 4817SOL     MW19268   4.896   1.333   0.391
 4818SOL     OW19269   5.465   2.144   5.178
 4818SOL    HW119270   5.470   2.215   5.243
 4818SOL    HW219271   5.385   2.163   5.128
 4818SOL     MW19272   5.456   2.155   5.180
 4819SOL     OW19273   1.636   2.778   3.486
 4819SOL    HW119274   1.560   2.834   3.503
 4819SOL    HW219275   1.598   2.694   3.461
 4819SOL     MW19276   1.621   2.774   3.485
 4820SOL     OW19277   4.698   4.083   4.140
 4820SOL    HW119278   4.743   4.040   4.212
 4820SOL    HW219279   4.750   4.060   4.062
 4820SOL     MW19280   4.711   4.075   4.139
 4821SOL     OW19281   3.626   0.410   4.350
 4821SOL    HW119282   3.595   0.378   4.266
 4821SOL    HW219283   3.683   0.484   4.327
 4821SOL     MW19284   3.630   0.416   4.336
 4822SOL     OW19285   0.881   1.783   2.028
 4822SOL    HW119286   0.894   1.813   1.938
 4822SOL    HW219287   0.932   1.702   2.034
 4822SOL     MW19288   0.889   1.776   2.017
 4823SOL     OW19289   0.620   0.156   4.542
 4823SOL    HW119290   0.712   0.154   4.516
 4823SOL    HW219291   0.619   0.206   4.623
 4823SOL     MW19292   0.631   0.163   4.549
 4824SOL     OW19293   1.246   3.796   0.706
 4824SOL    HW119294   1.179   3.821   0.642
 4824SOL    HW219295   1.240   3.862   0.775
 4824SOL     MW19296   1.237   3.808   0.706
 4825SOL     OW19297   3.442   0.080   0.706
 4825SOL    HW119298   3.376   0.060   0.640
 4825SOL    HW219299   3.432   0.010   0.771
 4825SOL     MW19300   3.432   0.068   0.706
 4826SOL     OW19301   2.823   3.744   3.451
 4826SOL    HW119302   2.885   3.713   3.516
 4826SOL    HW219303   2.837   3.686   3.375
 4826SOL     MW19304   2.832   3.732   3.449
 4827SOL     OW19305   3.318   5.237   3.597
 4827SOL    HW119306   3.351   5.228   3.686
 4827SOL    HW219307   3.249   5.171   3.591
 4827SOL     MW19308   3.313   5.227   3.607
 4828SOL     OW19309   4.152   1.194   1.450
 4828SOL    HW119310   4.067   1.215   1.412
 4828SOL    HW219311   4.145   1.220   1.542
 4828SOL     MW19312   4.141   1.200   1.457
 4829SOL     OW19313   2.239   3.961   0.252
 4829SOL    HW119314   2.324   3.982   0.213
 4829SOL    HW219315   2.230   3.867   0.242
 4829SOL     MW19316   2.249   3.952   0.246
 4830SOL     OW19317   4.677   4.939   1.325
 4830SOL    HW119318   4.743   4.915   1.260
 4830SOL    HW219319   4.715   5.015   1.370
 4830SOL     MW19320   4.690   4.946   1.323
 4831SOL     OW19321   3.172   1.931   3.751
 4831SOL    HW119322   3.115   2.005   3.770
 4831SOL    HW219323   3.113   1.864   3.715
 4831SOL     MW19324   3.157   1.932   3.749
 4832SOL     OW19325   1.132   3.301   0.982
 4832SOL    HW119326   1.203   3.277   0.923
 4832SOL    HW219327   1.175   3.328   1.063
 4832SOL     MW19328   1.147   3.301   0.985
 4833SOL     OW19329   0.356   3.098   1.323
 4833SOL    HW119330   0.271   3.077   1.361
 4833SOL    HW219331   0.343   3.185   1.284
 4833SOL     MW19332   0.344   3.107   1.323
 4834SOL     OW19333   2.495   2.068   1.295
 4834SOL    HW119334   2.551   2.116   1.356
 4834SOL    HW219335   2.420   2.042   1.348
 4834SOL     MW19336   2.493   2.071   1.310
 4835SOL     OW19337   4.686   1.890   0.785
 4835SOL    HW119338   4.617   1.847   0.734
 4835SOL    HW219339   4.644   1.910   0.869
 4835SOL     MW19340   4.672   1.887   0.789
 4836SOL     OW19341   4.153   5.126   0.109
 4836SOL    HW119342   4.217   5.168   0.052
 4836SOL    HW219343   4.070   5.137   0.064
 4836SOL     MW19344   4.151   5.133   0.096
 4837SOL     OW19345   5.304   3.989   2.828
 4837SOL    HW119346   5.248   3.988   2.905
 4837SOL    HW219347   5.247   4.017   2.756
 4837SOL     MW19348   5.290   3.992   2.829
 4838SOL     OW19349   4.674   5.188   2.055
 4838SOL    HW119350   4.592   5.223   2.019
 4838SOL    HW219351   4.650   5.156   2.142
 4838SOL     MW19352   4.660   5.189   2.062
 4839SOL     OW19353   2.666   2.889   3.780
 4839SOL    HW119354   2.704   2.889   3.692
 4839SOL    HW219355   2.662   2.981   3.805
 4839SOL     MW19356   2.670   2.901   3.772
 4840SOL     OW19357   1.560   1.759   0.230
 4840SOL    HW119358   1.567   1.667   0.202
 4840SOL    HW219359   1.498   1.757   0.303
 4840SOL     MW19360   1.553   1.747   0.235
 4841SOL     OW19361   4.635   4.559   0.547
 4841SOL    HW119362   4.699   4.610   0.497
 4841SOL    HW219363   4.671   4.471   0.548
 4841SOL     MW19364   4.648   4.554   0.540
 4842SOL     OW19365   4.596   1.611   4.861
 4842SOL    HW119366   4.588   1.561   4.779
 4842SOL    HW219367   4.553   1.556   4.927
 4842SOL     MW19368   4.589   1.597   4.859
 4843SOL     OW19369   1.013   1.426   1.229
 4843SOL    HW119370   1.083   1.458   1.173
 4843SOL    HW219371   1.011   1.331   1.214
 4843SOL     MW19372   1.022   1.418   1.220
 4844SOL     OW19373   4.380   2.497   2.260
 4844SOL    HW119374   4.303   2.458   2.299
 4844SOL    HW219375   4.349   2.579   2.222
 4844SOL     MW19376   4.366   2.503   2.260
 4845SOL     OW19377   3.879   4.658   4.298
 4845SOL    HW119378   3.807   4.595   4.303
 4845SOL    HW219379   3.958   4.604   4.295
 4845SOL     MW19380   3.880   4.643   4.298
 4846SOL     OW19381   4.257   2.764   0.299
 4846SOL    HW119382   4.274   2.710   0.221
 4846SOL    HW219383   4.235   2.701   0.367
 4846SOL     MW19384   4.257   2.749   0.298
 4847SOL     OW19385   3.174   4.386   0.953
 4847SOL    HW119386   3.192   4.460   0.895
 4847SOL    HW219387   3.219   4.408   1.034
 4847SOL     MW19388   3.182   4.398   0.956
 4848SOL     OW19389   4.032   3.292   4.072
 4848SOL    HW119390   3.974   3.220   4.096
 4848SOL    HW219391   4.009   3.362   4.132
 4848SOL     MW19392   4.022   3.291   4.083
 4849SOL     OW19393   4.937   3.798   4.585
 4849SOL    HW119394   4.988   3.878   4.597
 4849SOL    HW219395   4.859   3.812   4.639
 4849SOL     MW19396   4.933   3.810   4.594
 4850SOL     OW19397   0.452   4.075   0.309
 4850SOL    HW119398   0.393   4.000   0.313
 4850SOL    HW219399   0.538   4.039   0.332
 4850SOL     MW19400   0.455   4.060   0.313
 4851SOL     OW19401   1.165   0.896   3.316
 4851SOL    HW119402   1.207   0.833   3.376
 4851SOL    HW219403   1.102   0.843   3.266
 4851SOL     MW19404   1.162   0.881   3.318
 4852SOL     OW19405   4.990   1.744   3.579
 4852SOL    HW119406   4.937   1.824   3.586
 4852SOL    HW219407   4.929   1.680   3.543
 4852SOL     MW19408   4.975   1.746   3.575
 4853SOL     OW19409   4.296   4.495   3.372
 4853SOL    HW119410   4.320   4.537   3.455
 4853SOL    HW219411   4.254   4.413   3.398
 4853SOL     MW19412   4.293   4.490   3.386
 4854SOL     OW19413   5.259   3.230   3.129
 4854SOL    HW119414   5.303   3.301   3.175
 4854SOL    HW219415   5.239   3.266   3.043
 4854SOL     MW19416   5.262   3.243   3.124
 4855SOL     OW19417   1.983   4.801   4.979
 4855SOL    HW119418   2.071   4.763   4.980
 4855SOL    HW219419   1.951   4.785   4.891
 4855SOL     MW19420   1.990   4.794   4.968
 4856SOL     OW19421   1.329   3.218   0.059
 4856SOL    HW119422   1.275   3.288   0.096
 4856SOL    HW219423   1.360   3.253  -0.024
 4856SOL     MW19424   1.326   3.231   0.053
 4857SOL     OW19425   0.052   4.492   2.680
 4857SOL    HW119426   0.004   4.500   2.597
 4857SOL    HW219427   0.127   4.551   2.670
 4857SOL     MW19428   0.055   4.501   2.668
 4858SOL     OW19429   4.904   2.525   1.269
 4858SOL    HW119430   4.898   2.567   1.354
 4858SOL    HW219431   4.847   2.449   1.275
 4858SOL     MW19432   4.896   2.521   1.281
 4859SOL     OW19433   3.493   3.903   0.649
 4859SOL    HW119434   3.399   3.920   0.643
 4859SOL    HW219435   3.527   3.974   0.704
 4859SOL     MW19436   3.485   3.914   0.655
 4860SOL     OW19437   4.410   4.084   3.417
 4860SOL    HW119438   4.389   4.131   3.337
 4860SOL    HW219439   4.476   4.020   3.391
 4860SOL     MW19440   4.415   4.082   3.404
 4861SOL     OW19441   3.394   5.252   1.292
 4861SOL    HW119442   3.319   5.307   1.316
 4861SOL    HW219443   3.374   5.221   1.204
 4861SOL     MW19444   3.382   5.255   1.284
 4862SOL     OW19445   2.103   5.092   4.063
 4862SOL    HW119446   2.055   5.148   4.002
 4862SOL    HW219447   2.105   5.006   4.021
 4862SOL     MW19448   2.097   5.088   4.050
 4863SOL     OW19449   3.413   2.789  -0.006
 4863SOL    HW119450   3.450   2.871   0.027
 4863SOL    HW219451   3.382   2.743   0.071
 4863SOL     MW19452   3.414   2.793   0.008
 4864SOL     OW19453   3.563   2.567   1.819
 4864SOL    HW119454   3.527   2.483   1.849
 4864SOL    HW219455   3.520   2.584   1.736
 4864SOL     MW19456   3.553   2.559   1.812
 4865SOL     OW19457   2.710   2.225   3.034
 4865SOL    HW119458   2.630   2.252   2.987
 4865SOL    HW219459   2.781   2.268   2.985
 4865SOL     MW19460   2.708   2.234   3.021
 4866SOL     OW19461   2.625   4.404   1.153
 4866SOL    HW119462   2.638   4.310   1.164
 4866SOL    HW219463   2.552   4.412   1.092
 4866SOL     MW19464   2.617   4.393   1.147
 4867SOL     OW19465   4.206   0.895   1.987
 4867SOL    HW119466   4.296   0.927   1.978
 4867SOL    HW219467   4.158   0.938   1.917
 4867SOL     MW19468   4.211   0.904   1.977
 4868SOL     OW19469   4.316   4.991   1.711
 4868SOL    HW119470   4.268   4.913   1.685
 4868SOL    HW219471   4.325   4.983   1.806
 4868SOL     MW19472   4.311   4.980   1.720
 4869SOL     OW19473   0.278   4.961   0.205
 4869SOL    HW119474   0.227   4.997   0.278
 4869SOL    HW219475   0.362   5.008   0.210
 4869SOL     MW19476   0.283   4.972   0.215
 4870SOL     OW19477   0.662   1.292   3.675
 4870SOL    HW119478   0.585   1.347   3.659
 4870SOL    HW219479   0.730   1.329   3.619
 4870SOL     MW19480   0.661   1.304   3.666
 4871SOL     OW19481   4.723   0.615   5.027
 4871SOL    HW119482   4.655   0.620   4.961
 4871SOL    HW219483   4.702   0.536   5.077
 4871SOL     MW19484   4.712   0.605   5.025
 4872SOL     OW19485   2.127   1.241   1.751
 4872SOL    HW119486   2.102   1.195   1.831
 4872SOL    HW219487   2.181   1.177   1.704
 4872SOL     MW19488   2.130   1.227   1.755
 4873SOL     OW19489   5.202   2.539   4.010
 4873SOL    HW119490   5.126   2.563   4.065
 4873SOL    HW219491   5.256   2.618   4.008
 4873SOL     MW19492   5.199   2.552   4.017
 4874SOL     OW19493   5.404   1.886   3.880
 4874SOL    HW119494   5.375   1.870   3.790
 4874SOL    HW219495   5.487   1.839   3.888
 4874SOL     MW19496   5.411   1.878   3.870
 4875SOL     OW19497   1.719   1.798   0.682
 4875SOL    HW119498   1.786   1.736   0.709
 4875SOL    HW219499   1.730   1.873   0.741
 4875SOL     MW19500   1.729   1.799   0.693
 4876SOL     OW19501   3.632   4.983   3.533
 4876SOL    HW119502   3.547   4.938   3.527
 4876SOL    HW219503   3.614   5.071   3.500
 4876SOL     MW19504   3.619   4.989   3.528
 4877SOL     OW19505   2.319   1.262   3.288
 4877SOL    HW119506   2.230   1.266   3.254
 4877SOL    HW219507   2.364   1.336   3.247
 4877SOL     MW19508   2.313   1.272   3.279
 4878SOL     OW19509   4.902   1.891   4.116
 4878SOL    HW119510   4.891   1.951   4.041
 4878SOL    HW219511   4.816   1.890   4.158
 4878SOL     MW19512   4.890   1.899   4.111
 4879SOL     OW19513   2.281   1.559   4.348
 4879SOL    HW119514   2.213   1.550   4.281
 4879SOL    HW219515   2.238   1.532   4.429
 4879SOL     MW19516   2.266   1.554   4.350
 4880SOL     OW19517   5.025   4.166   4.872
 4880SOL    HW119518   4.982   4.226   4.934
 4880SOL    HW219519   5.047   4.089   4.924
 4880SOL     MW19520   5.022   4.164   4.886
 4881SOL     OW19521   0.167   5.158   3.140
 4881SOL    HW119522   0.213   5.199   3.213
 4881SOL    HW219523   0.232   5.156   3.069
 4881SOL     MW19524   0.181   5.163   3.140
 4882SOL     OW19525   4.226   4.793   5.298
 4882SOL    HW119526   4.286   4.721   5.320
 4882SOL    HW219527   4.258   4.825   5.213
 4882SOL     MW19528   4.238   4.787   5.290
 4883SOL     OW19529   4.320   1.098   3.812
 4883SOL    HW119530   4.333   1.044   3.734
 4883SOL    HW219531   4.332   1.188   3.781
 4883SOL     MW19532   4.323   1.103   3.798
 4884SOL     OW19533   1.806   4.443   4.247
 4884SOL    HW119534   1.732   4.434   4.307
 4884SOL    HW219535   1.791   4.525   4.200
 4884SOL     MW19536   1.795   4.452   4.249
 4885SOL     OW19537   2.908   5.267   0.880
 4885SOL    HW119538   2.896   5.350   0.834
 4885SOL    HW219539   2.854   5.276   0.959
 4885SOL     MW19540   2.899   5.279   0.884
 4886SOL     OW19541   0.951   5.072   2.929
 4886SOL    HW119542   1.027   5.015   2.945
 4886SOL    HW219543   0.875   5.018   2.953
 4886SOL     MW19544   0.951   5.057   2.934
 4887SOL     OW19545   1.397   3.362   4.523
 4887SOL    HW119546   1.474   3.391   4.473
 4887SOL    HW219547   1.334   3.434   4.513
 4887SOL     MW19548   1.399   3.375   4.515
 4888SOL     OW19549   4.481   4.166   3.676
 4888SOL    HW119550   4.453   4.131   3.591
 4888SOL    HW219551   4.418   4.129   3.738
 4888SOL     MW19552   4.469   4.157   3.673
 4889SOL     OW19553   1.672   3.913   3.303
 4889SOL    HW119554   1.765   3.894   3.294
 4889SOL    HW219555   1.669   3.997   3.349
 4889SOL     MW19556   1.683   3.921   3.308
 4890SOL     OW19557   5.205   2.194   0.420
 4890SOL    HW119558   5.159   2.277   0.407
 4890SOL    HW219559   5.244   2.202   0.508
 4890SOL     MW19560   5.204   2.206   0.430
 4891SOL     OW19561   3.794   5.168   4.837
 4891SOL    HW119562   3.758   5.251   4.869
 4891SOL    HW219563   3.889   5.178   4.845
 4891SOL     MW19564   3.802   5.180   4.842
 4892SOL     OW19565   2.339   3.935   4.734
 4892SOL    HW119566   2.335   4.027   4.757
 4892SOL    HW219567   2.372   3.891   4.812
 4892SOL     MW19568   2.343   3.941   4.747
 4893SOL     OW19569   0.603   2.823   1.648
 4893SOL    HW119570   0.574   2.906   1.609
 4893SOL    HW219571   0.522   2.779   1.672
 4893SOL     MW19572   0.589   2.828   1.646
 4894SOL     OW19573   0.456   5.109   3.710
 4894SOL    HW119574   0.525   5.092   3.647
 4894SOL    HW219575   0.466   5.040   3.776
 4894SOL     MW19576   0.466   5.098   3.710
 4895SOL     OW19577   1.631   1.109   1.606
 4895SOL    HW119578   1.632   1.183   1.666
 4895SOL    HW219579   1.722   1.102   1.577
 4895SOL     MW19580   1.643   1.118   1.610
 4896SOL     OW19581   2.107   1.407   2.843
 4896SOL    HW119582   2.064   1.473   2.898
 4896SOL    HW219583   2.105   1.445   2.755
 4896SOL     MW19584   2.101   1.420   2.839
 4897SOL     OW19585   4.861   3.697   0.456
 4897SOL    HW119586   4.774   3.726   0.428
 4897SOL    HW219587   4.886   3.758   0.525
 4897SOL     MW19588   4.853   3.708   0.461
 4898SOL     OW19589   1.291   0.275   2.346
 4898SOL    HW119590   1.352   0.338   2.384
 4898SOL    HW219591   1.274   0.212   2.416
 4898SOL     MW19592   1.296   0.275   2.360
 4899SOL     OW19593   4.953   5.243   4.890
 4899SOL    HW119594   5.006   5.165   4.910
 4899SOL    HW219595   4.895   5.214   4.820
 4899SOL     MW19596   4.952   5.229   4.884
 4900SOL     OW19597   4.272   1.248   0.765
 4900SOL    HW119598   4.197   1.191   0.748
 4900SOL    HW219599   4.345   1.204   0.721
 4900SOL     MW19600   4.271   1.235   0.757
 4901SOL     OW19601   1.217   2.172   3.710
 4901SOL    HW119602   1.289   2.141   3.654
 4901SOL    HW219603   1.258   2.234   3.770
 4901SOL     MW19604   1.231   2.176   3.710
 4902SOL     OW19605   2.314   0.877   2.808
 4902SOL    HW119606   2.306   0.794   2.855
 4902SOL    HW219607   2.225   0.914   2.811
 4902SOL     MW19608   2.301   0.871   2.814
 4903SOL     OW19609   2.189   3.388   1.512
 4903SOL    HW119610   2.116   3.361   1.456
 4903SOL    HW219611   2.221   3.469   1.473
 4903SOL     MW19612   2.183   3.395   1.500
 4904SOL     OW19613   0.163   3.163   4.264
 4904SOL    HW119614   0.221   3.134   4.335
 4904SOL    HW219615   0.075   3.155   4.301
 4904SOL     MW19616   0.160   3.159   4.278
 4905SOL     OW19617   3.229   3.704   0.968
 4905SOL    HW119618   3.317   3.734   0.987
 4905SOL    HW219619   3.215   3.631   1.029
 4905SOL     MW19620   3.238   3.698   0.979
 4906SOL     OW19621   2.900   0.161   5.014
 4906SOL    HW119622   2.978   0.152   5.068
 4906SOL    HW219623   2.840   0.093   5.047
 4906SOL     MW19624   2.902   0.151   5.025
 4907SOL     OW19625   0.954   2.096   0.010
 4907SOL    HW119626   0.940   2.128   0.099
 4907SOL    HW219627   0.875   2.046  -0.010
 4907SOL     MW19628   0.942   2.094   0.018
 4908SOL     OW19629   4.328   1.917   2.829
 4908SOL    HW119630   4.341   1.963   2.746
 4908SOL    HW219631   4.280   1.837   2.805
 4908SOL     MW19632   4.323   1.912   2.815
 4909SOL     OW19633   5.340   0.792   4.095
 4909SOL    HW119634   5.367   0.867   4.042
 4909SOL    HW219635   5.244   0.791   4.089
 4909SOL     MW19636   5.331   0.802   4.088
 4910SOL     OW19637   1.721   4.812   0.988
 4910SOL    HW119638   1.815   4.829   0.989
 4910SOL    HW219639   1.713   4.720   0.965
 4910SOL     MW19640   1.732   4.803   0.985
 4911SOL     OW19641   3.239   1.913   2.466
 4911SOL    HW119642   3.210   1.940   2.379
 4911SOL    HW219643   3.308   1.975   2.489
 4911SOL     MW19644   3.244   1.924   2.458
 4912SOL     OW19645   0.730   5.337   3.491
 4912SOL    HW119646   0.726   5.242   3.494
 4912SOL    HW219647   0.646   5.366   3.529
 4912SOL     MW19648   0.718   5.329   3.496
 4913SOL     OW19649   0.768   2.935   5.240
 4913SOL    HW119650   0.840   2.872   5.243
 4913SOL    HW219651   0.793   2.996   5.170
 4913SOL     MW19652   0.781   2.934   5.231
 4914SOL     OW19653   3.671   3.982   3.991
 4914SOL    HW119654   3.719   3.903   4.013
 4914SOL    HW219655   3.579   3.960   4.007
 4914SOL     MW19656   3.665   3.969   3.996
 4915SOL     OW19657   2.122   2.612   2.341
 4915SOL    HW119658   2.082   2.689   2.300
 4915SOL    HW219659   2.213   2.636   2.354
 4915SOL     MW19660   2.128   2.625   2.337
 4916SOL     OW19661   1.430   0.419   0.782
 4916SOL    HW119662   1.435   0.501   0.832
 4916SOL    HW219663   1.521   0.392   0.772
 4916SOL     MW19664   1.442   0.426   0.787
 4917SOL     OW19665   5.471   4.509   0.364
 4917SOL    HW119666   5.474   4.537   0.456
 4917SOL    HW219667   5.379   4.488   0.349
 4917SOL     MW19668   5.459   4.510   0.374
 4918SOL     OW19669   3.426   0.522   4.954
 4918SOL    HW119670   3.439   0.616   4.945
 4918SOL    HW219671   3.505   0.490   4.997
 4918SOL     MW19672   3.438   0.530   4.959
 4919SOL     OW19673   2.895   3.235   4.805
 4919SOL    HW119674   2.889   3.172   4.733
 4919SOL    HW219675   2.805   3.268   4.815
 4919SOL     MW19676   2.883   3.231   4.797
 4920SOL     OW19677   0.111   0.202   1.718
 4920SOL    HW119678   0.049   0.131   1.698
 4920SOL    HW219679   0.056   0.274   1.750
 4920SOL     MW19680   0.096   0.202   1.720
 4921SOL     OW19681   1.630   4.183   0.111
 4921SOL    HW119682   1.577   4.246   0.159
 4921SOL    HW219683   1.672   4.235   0.042
 4921SOL     MW19684   1.629   4.198   0.108
 4922SOL     OW19685   3.095   4.877   3.166
 4922SOL    HW119686   3.069   4.870   3.258
 4922SOL    HW219687   3.163   4.811   3.155
 4922SOL     MW19688   3.101   4.868   3.176
 4923SOL     OW19689   2.493   5.149   5.443
 4923SOL    HW119690   2.507   5.219   5.380
 4923SOL    HW219691   2.430   5.184   5.505
 4923SOL     MW19692   2.487   5.162   5.443
 4924SOL     OW19693   1.782   3.901   5.130
 4924SOL    HW119694   1.754   3.950   5.053
 4924SOL    HW219695   1.877   3.891   5.118
 4924SOL     MW19696   1.791   3.906   5.118
 4925SOL     OW19697   1.023   3.574   3.449
 4925SOL    HW119698   1.017   3.557   3.543
 4925SOL    HW219699   1.106   3.620   3.437
 4925SOL     MW19700   1.033   3.578   3.459
 4926SOL     OW19701   3.730   3.946   2.459
 4926SOL    HW119702   3.781   3.868   2.434
 4926SOL    HW219703   3.714   3.991   2.377
 4926SOL     MW19704   3.734   3.942   2.446
 4927SOL     OW19705   0.596   1.693   1.720
 4927SOL    HW119706   0.649   1.761   1.677
 4927SOL    HW219707   0.653   1.658   1.788
 4927SOL     MW19708   0.610   1.697   1.723
 4928SOL     OW19709   2.412   2.307   2.260
 4928SOL    HW119710   2.461   2.389   2.260
 4928SOL    HW219711   2.323   2.332   2.233
 4928SOL     MW19712   2.407   2.320   2.256
 4929SOL     OW19713   1.414   2.110   3.225
 4929SOL    HW119714   1.415   2.196   3.266
 4929SOL    HW219715   1.356   2.057   3.280
 4929SOL     MW19716   1.407   2.114   3.237
 4930SOL     OW19717   2.939   2.524   1.629
 4930SOL    HW119718   3.009   2.559   1.684
 4930SOL    HW219719   2.933   2.586   1.556
 4930SOL     MW19720   2.948   2.536   1.626
 4931SOL     OW19721   1.509   2.555   0.825
 4931SOL    HW119722   1.478   2.626   0.882
 4931SOL    HW219723   1.502   2.477   0.880
 4931SOL     MW19724   1.504   2.554   0.840
 4932SOL     OW19725   4.539   1.043   5.002
 4932SOL    HW119726   4.622   1.040   4.954
 4932SOL    HW219727   4.553   1.110   5.069
 4932SOL     MW19728   4.551   1.051   5.004
 4933SOL     OW19729   3.875   0.557   4.992
 4933SOL    HW119730   3.835   0.581   4.908
 4933SOL    HW219731   3.840   0.621   5.054
 4933SOL     MW19732   3.866   0.568   4.989
 4934SOL     OW19733   2.421   2.602   5.369
 4934SOL    HW119734   2.343   2.564   5.328
 4934SOL    HW219735   2.451   2.667   5.305
 4934SOL     MW19736   2.415   2.606   5.356
 4935SOL     OW19737   0.898   4.946   1.156
 4935SOL    HW119738   0.961   5.015   1.178
 4935SOL    HW219739   0.900   4.941   1.061
 4935SOL     MW19740   0.907   4.954   1.147
 4936SOL     OW19741   3.409   1.697   2.519
 4936SOL    HW119742   3.343   1.766   2.511
 4936SOL    HW219743   3.428   1.672   2.429
 4936SOL     MW19744   3.403   1.703   2.507
 4937SOL     OW19745   3.142   1.724   4.034
 4937SOL    HW119746   3.132   1.672   4.113
 4937SOL    HW219747   3.169   1.810   4.065
 4937SOL     MW19748   3.144   1.728   4.048
 4938SOL     OW19749   0.061   3.470   0.894
 4938SOL    HW119750   0.148   3.430   0.899
 4938SOL    HW219751   0.005   3.402   0.856
 4938SOL     MW19752   0.065   3.456   0.890
 4939SOL     OW19753   2.926   4.366   0.845
 4939SOL    HW119754   3.004   4.368   0.899
 4939SOL    HW219755   2.870   4.299   0.885
 4939SOL     MW19756   2.929   4.358   0.857
 4940SOL     OW19757   2.080   4.842   3.950
 4940SOL    HW119758   2.014   4.816   3.886
 4940SOL    HW219759   2.149   4.776   3.942
 4940SOL     MW19760   2.081   4.830   3.941
 4941SOL     OW19761   1.440   1.209   1.423
 4941SOL    HW119762   1.506   1.165   1.476
 4941SOL    HW219763   1.418   1.288   1.472
 4941SOL     MW19764   1.446   1.213   1.436
 4942SOL     OW19765   2.096   2.710   2.862
 4942SOL    HW119766   2.063   2.702   2.772
 4942SOL    HW219767   2.029   2.666   2.916
 4942SOL     MW19768   2.083   2.704   2.858
 4943SOL     OW19769   3.687   1.895   0.312
 4943SOL    HW119770   3.730   1.933   0.388
 4943SOL    HW219771   3.622   1.834   0.348
 4943SOL     MW19772   3.684   1.892   0.326
 4944SOL     OW19773   5.193   1.719   0.842
 4944SOL    HW119774   5.161   1.787   0.783
 4944SOL    HW219775   5.121   1.704   0.903
 4944SOL     MW19776   5.180   1.726   0.842
 4945SOL     OW19777   0.643   3.979   1.864
 4945SOL    HW119778   0.598   3.935   1.791
 4945SOL    HW219779   0.594   3.951   1.942
 4945SOL     MW19780   0.631   3.970   1.865
 4946SOL     OW19781   4.301   0.951   2.809
 4946SOL    HW119782   4.319   0.945   2.715
 4946SOL    HW219783   4.277   0.861   2.834
 4946SOL     MW19784   4.300   0.939   2.800
 4947SOL     OW19785   1.359   3.314   1.441
 4947SOL    HW119786   1.320   3.337   1.357
 4947SOL    HW219787   1.284   3.289   1.496
 4947SOL     MW19788   1.344   3.313   1.437
 4948SOL     OW19789   5.039   2.410   0.378
 4948SOL    HW119790   4.987   2.423   0.298
 4948SOL    HW219791   5.065   2.498   0.404
 4948SOL     MW19792   5.035   2.423   0.371
 4949SOL     OW19793   5.084   2.256   3.336
 4949SOL    HW119794   5.097   2.312   3.260
 4949SOL    HW219795   5.140   2.181   3.321
 4949SOL     MW19796   5.093   2.254   3.324
 4950SOL     OW19797   3.635   0.882   1.954
 4950SOL    HW119798   3.566   0.931   1.998
 4950SOL    HW219799   3.715   0.931   1.975
 4950SOL     MW19800   3.637   0.895   1.962
 4951SOL     OW19801   1.382   2.001   4.419
 4951SOL    HW119802   1.474   1.997   4.446
 4951SOL    HW219803   1.333   2.006   4.501
 4951SOL     MW19804   1.388   2.001   4.433
 4952SOL     OW19805   2.540   5.219   1.655
 4952SOL    HW119806   2.504   5.139   1.617
 4952SOL    HW219807   2.482   5.288   1.624
 4952SOL     MW19808   2.528   5.218   1.646
 4953SOL     OW19809   2.603   0.547   2.081
 4953SOL    HW119810   2.626   0.490   2.154
 4953SOL    HW219811   2.524   0.593   2.110
 4953SOL     MW19812   2.596   0.546   2.094
 4954SOL     OW19813   2.401   1.175   0.990
 4954SOL    HW119814   2.389   1.255   0.938
 4954SOL    HW219815   2.458   1.120   0.936
 4954SOL     MW19816   2.407   1.179   0.976
 4955SOL     OW19817   5.246   4.131   5.461
 4955SOL    HW119818   5.178   4.064   5.464
 4955SOL    HW219819   5.316   4.091   5.410
 4955SOL     MW19820   5.246   4.118   5.455
 4956SOL     OW19821   4.951   0.339   0.665
 4956SOL    HW119822   5.011   0.282   0.617
 4956SOL    HW219823   5.008   0.402   0.709
 4956SOL     MW19824   4.966   0.340   0.664
 4957SOL     OW19825   5.012   3.514   0.316
 4957SOL    HW119826   4.960   3.576   0.367
 4957SOL    HW219827   5.028   3.441   0.376
 4957SOL     MW19828   5.007   3.513   0.330
 4958SOL     OW19829   3.894   3.943   0.299
 4958SOL    HW119830   3.890   3.862   0.249
 4958SOL    HW219831   3.820   3.995   0.267
 4958SOL     MW19832   3.884   3.939   0.289
 4959SOL     OW19833   4.273   2.253   2.857
 4959SOL    HW119834   4.361   2.217   2.846
 4959SOL    HW219835   4.287   2.342   2.890
 4959SOL     MW19836   4.286   2.260   2.859
 4960SOL     OW19837   2.598   1.713   4.185
 4960SOL    HW119838   2.605   1.677   4.273
 4960SOL    HW219839   2.666   1.667   4.135
 4960SOL     MW19840   2.608   1.702   4.190
 4961SOL     OW19841   2.047   3.833   5.097
 4961SOL    HW119842   2.111   3.883   5.148
 4961SOL    HW219843   2.075   3.843   5.006
 4961SOL     MW19844   2.059   3.840   5.092
 4962SOL     OW19845   3.378   1.949   0.094
 4962SOL    HW119846   3.406   1.867   0.053
 4962SOL    HW219847   3.460   1.991   0.120
 4962SOL     MW19848   3.392   1.944   0.092
 4963SOL     OW19849   2.476   1.736   5.130
 4963SOL    HW119850   2.567   1.732   5.102
 4963SOL    HW219851   2.477   1.709   5.222
 4963SOL     MW19852   2.488   1.732   5.138
 4964SOL     OW19853   3.818   4.070   1.163
 4964SOL    HW119854   3.852   4.039   1.247
 4964SOL    HW219855   3.814   3.992   1.108
 4964SOL     MW19856   3.822   4.056   1.167
 4965SOL     OW19857   2.771   2.700   2.265
 4965SOL    HW119858   2.797   2.715   2.356
 4965SOL    HW219859   2.720   2.777   2.241
 4965SOL     MW19860   2.768   2.712   2.274
 4966SOL     OW19861   3.263   4.854   1.534
 4966SOL    HW119862   3.253   4.780   1.474
 4966SOL    HW219863   3.339   4.831   1.588
 4966SOL     MW19864   3.272   4.842   1.533
 4967SOL     OW19865   1.510   5.384   2.587
 4967SOL    HW119866   1.509   5.410   2.495
 4967SOL    HW219867   1.420   5.357   2.606
 4967SOL     MW19868   1.498   5.384   2.578
 4968SOL     OW19869   1.837   1.154   5.058
 4968SOL    HW119870   1.883   1.070   5.056
 4968SOL    HW219871   1.783   1.149   5.137
 4968SOL     MW19872   1.836   1.142   5.068
 4969SOL     OW19873   2.659   3.531   2.122
 4969SOL    HW119874   2.643   3.593   2.052
 4969SOL    HW219875   2.724   3.574   2.178
 4969SOL     MW19876   2.665   3.544   2.120
 4970SOL     OW19877   3.582   4.886   1.222
 4970SOL    HW119878   3.528   4.953   1.180
 4970SOL    HW219879   3.652   4.869   1.159
 4970SOL     MW19880   3.584   4.892   1.208
 4971SOL     OW19881   2.713   4.787   4.158
 4971SOL    HW119882   2.739   4.720   4.222
 4971SOL    HW219883   2.620   4.770   4.143
 4971SOL     MW19884   2.705   4.776   4.164
 4972SOL     OW19885   2.286   2.437   1.157
 4972SOL    HW119886   2.264   2.486   1.078
 4972SOL    HW219887   2.209   2.446   1.213
 4972SOL     MW19888   2.273   2.445   1.154
 4973SOL     OW19889   4.826   2.310   5.015
 4973SOL    HW119890   4.778   2.294   4.934
 4973SOL    HW219891   4.765   2.286   5.084
 4973SOL     MW19892   4.812   2.305   5.013
 4974SOL     OW19893   5.219   0.108   1.348
 4974SOL    HW119894   5.298   0.152   1.379
 4974SOL    HW219895   5.185   0.062   1.425
 4974SOL     MW19896   5.224   0.108   1.362
 4975SOL     OW19897   5.355   5.268   0.951
 4975SOL    HW119898   5.319   5.331   1.015
 4975SOL    HW219899   5.351   5.315   0.868
 4975SOL     MW19900   5.350   5.282   0.949
 4976SOL     OW19901   4.752   2.716   4.796
 4976SOL    HW119902   4.689   2.644   4.802
 4976SOL    HW219903   4.797   2.715   4.880
 4976SOL     MW19904   4.750   2.707   4.807
 4977SOL     OW19905   0.910   2.065   1.453
 4977SOL    HW119906   0.917   2.106   1.367
 4977SOL    HW219907   0.898   2.138   1.514
 4977SOL     MW19908   0.909   2.080   1.450
 4978SOL     OW19909   0.119   0.138   0.699
 4978SOL    HW119910   0.193   0.100   0.746
 4978SOL    HW219911   0.047   0.076   0.716
 4978SOL     MW19912   0.119   0.125   0.708
 4979SOL     OW19913   2.330   2.075   1.866
 4979SOL    HW119914   2.258   2.015   1.889
 4979SOL    HW219915   2.401   2.017   1.837
 4979SOL     MW19916   2.330   2.060   1.865
 4980SOL     OW19917   0.686   2.919   4.657
 4980SOL    HW119918   0.673   2.982   4.728
 4980SOL    HW219919   0.742   2.851   4.695
 4980SOL     MW19920   0.692   2.918   4.671
 4981SOL     OW19921   0.028   2.106   2.529
 4981SOL    HW119922   0.065   2.029   2.572
 4981SOL    HW219923  -0.059   2.079   2.500
 4981SOL     MW19924   0.022   2.093   2.530
 4982SOL     OW19925   3.511   2.224   4.379
 4982SOL    HW119926   3.471   2.259   4.300
 4982SOL    HW219927   3.474   2.278   4.450
 4982SOL     MW19928   3.501   2.236   4.378
 4983SOL     OW19929   1.679   2.058   2.177
 4983SOL    HW119930   1.650   2.109   2.101
 4983SOL    HW219931   1.660   1.967   2.152
 4983SOL     MW19932   1.673   2.053   2.164
 4984SOL     OW19933   2.264   0.877   0.396
 4984SOL    HW119934   2.283   0.783   0.390
 4984SOL    HW219935   2.330   0.910   0.457
 4984SOL     MW19936   2.275   0.869   0.403
 4985SOL     OW19937   4.937   0.888   1.325
 4985SOL    HW119938   4.854   0.897   1.280
 4985SOL    HW219939   4.913   0.878   1.418
 4985SOL     MW19940   4.924   0.888   1.331
 4986SOL     OW19941   2.615   0.389   2.432
 4986SOL    HW119942   2.687   0.380   2.369
 4986SOL    HW219943   2.599   0.301   2.464
 4986SOL     MW19944   2.622   0.377   2.428
 4987SOL     OW19945   3.542   2.805   1.618
 4987SOL    HW119946   3.589   2.733   1.578
 4987SOL    HW219947   3.608   2.852   1.670
 4987SOL     MW19948   3.556   2.802   1.620
 4988SOL     OW19949   2.787   1.402   5.167
 4988SOL    HW119950   2.792   1.492   5.199
 4988SOL    HW219951   2.767   1.411   5.073
 4988SOL     MW19952   2.785   1.415   5.159
 4989SOL     OW19953   1.040   3.871   0.535
 4989SOL    HW119954   1.077   3.882   0.447
 4989SOL    HW219955   1.000   3.956   0.554
 4989SOL     MW19956   1.040   3.884   0.526
 4990SOL     OW19957   0.616   0.236   5.172
 4990SOL    HW119958   0.589   0.227   5.263
 4990SOL    HW219959   0.542   0.204   5.121
 4990SOL     MW19960   0.603   0.231   5.177
 4991SOL     OW19961   5.262   0.311   0.732
 4991SOL    HW119962   5.242   0.400   0.704
 4991SOL    HW219963   5.347   0.319   0.777
 4991SOL     MW19964   5.271   0.324   0.734
 4992SOL     OW19965   2.855   0.997   0.680
 4992SOL    HW119966   2.856   0.929   0.747
 4992SOL    HW219967   2.936   0.985   0.632
 4992SOL     MW19968   2.866   0.987   0.683
 4993SOL     OW19969   3.618   3.328   4.141
 4993SOL    HW119970   3.654   3.411   4.172
 4993SOL    HW219971   3.641   3.324   4.048
 4993SOL     MW19972   3.626   3.338   4.133
 4994SOL     OW19973   3.769   1.522   3.261
 4994SOL    HW119974   3.809   1.449   3.308
 4994SOL    HW219975   3.698   1.551   3.317
 4994SOL     MW19976   3.765   1.516   3.274
 4995SOL     OW19977   0.798   0.037   5.157
 4995SOL    HW119978   0.727   0.100   5.156
 4995SOL    HW219979   0.831   0.038   5.247
 4995SOL     MW19980   0.793   0.045   5.168
 4996SOL     OW19981   4.231   3.537   1.577
 4996SOL    HW119982   4.202   3.449   1.553
 4996SOL    HW219983   4.171   3.565   1.646
 4996SOL     MW19984   4.220   3.529   1.583
 4997SOL     OW19985   4.446   1.356   4.140
 4997SOL    HW119986   4.462   1.264   4.121
 4997SOL    HW219987   4.368   1.378   4.088
 4997SOL     MW19988   4.438   1.347   4.131
 4998SOL     OW19989   4.945   4.685   1.946
 4998SOL    HW119990   4.905   4.724   1.868
 4998SOL    HW219991   4.941   4.754   2.012
 4998SOL     MW19992   4.940   4.699   1.944
 4999SOL     OW19993   0.481   0.792   4.752
 4999SOL    HW119994   0.470   0.812   4.659
 4999SOL    HW219995   0.567   0.751   4.758
 4999SOL     MW19996   0.491   0.789   4.741
 5000SOL     OW19997   0.341   5.099   2.559
 5000SOL    HW119998   0.397   5.093   2.481
 5000SOL    HW219999   0.372   5.178   2.604
 5000SOL     MW20000   0.352   5.109   2.555
 5001SOL     OW20001   3.200   0.144   3.083
 5001SOL    HW120002   3.272   0.190   3.126
 5001SOL    HW220003   3.242   0.078   3.028
 5001SOL     MW20004   3.214   0.141   3.082
 5002SOL     OW20005   3.234   1.410   4.878
 5002SOL    HW120006   3.298   1.375   4.817
 5002SOL    HW220007   3.277   1.404   4.964
 5002SOL     MW20008   3.248   1.405   4.882
 5003SOL     OW20009   4.641   1.730   3.550
 5003SOL    HW120010   4.697   1.657   3.525
 5003SOL    HW220011   4.662   1.747   3.641
 5003SOL     MW20012   4.651   1.723   3.558
 5004SOL     OW20013   1.079   0.225   3.772
 5004SOL    HW120014   1.114   0.278   3.700
 5004SOL    HW220015   1.005   0.277   3.804
 5004SOL     MW20016   1.074   0.239   3.767
 5005SOL     OW20017   0.975   0.561   3.602
 5005SOL    HW120018   0.974   0.595   3.691
 5005SOL    HW220019   0.888   0.523   3.589
 5005SOL     MW20020   0.964   0.561   3.612
 5006SOL     OW20021   4.132   4.852   3.511
 5006SOL    HW120022   4.110   4.777   3.566
 5006SOL    HW220023   4.050   4.900   3.503
 5006SOL     MW20024   4.118   4.848   3.517
 5007SOL     OW20025   1.183   2.309   1.573
 5007SOL    HW120026   1.269   2.324   1.533
 5007SOL    HW220027   1.123   2.363   1.521
 5007SOL     MW20028   1.186   2.318   1.561
 5008SOL     OW20029   0.991   4.567   2.405
 5008SOL    HW120030   1.056   4.499   2.417
 5008SOL    HW220031   0.950   4.546   2.321
 5008SOL     MW20032   0.994   4.556   2.396
 5009SOL     OW20033   4.744   0.189   0.780
 5009SOL    HW120034   4.753   0.107   0.731
 5009SOL    HW220035   4.805   0.248   0.737
 5009SOL     MW20036   4.753   0.186   0.768
 5010SOL     OW20037   4.303   4.366   2.323
 5010SOL    HW120038   4.372   4.333   2.265
 5010SOL    HW220039   4.305   4.306   2.398
 5010SOL     MW20040   4.312   4.354   2.325
 5011SOL     OW20041   4.324   0.692   3.719
 5011SOL    HW120042   4.335   0.616   3.661
 5011SOL    HW220043   4.229   0.701   3.728
 5011SOL     MW20044   4.313   0.683   3.713
 5012SOL     OW20045   0.634   3.085   3.862
 5012SOL    HW120046   0.547   3.088   3.901
 5012SOL    HW220047   0.694   3.100   3.936
 5012SOL     MW20048   0.631   3.087   3.877
 5013SOL     OW20049   2.668   4.201   0.057
 5013SOL    HW120050   2.610   4.277   0.060
 5013SOL    HW220051   2.735   4.219   0.123
 5013SOL     MW20052   2.669   4.213   0.066
 5014SOL     OW20053   0.214   5.012   1.898
 5014SOL    HW120054   0.140   5.034   1.955
 5014SOL    HW220055   0.176   5.012   1.810
 5014SOL     MW20056   0.199   5.015   1.894
 5015SOL     OW20057   4.675   2.418   0.808
 5015SOL    HW120058   4.633   2.466   0.737
 5015SOL    HW220059   4.769   2.422   0.789
 5015SOL     MW20060   4.682   2.425   0.797
 5016SOL     OW20061   4.665   2.014   2.653
 5016SOL    HW120062   4.696   2.034   2.564
 5016SOL    HW220063   4.735   1.959   2.690
 5016SOL     MW20064   4.678   2.009   2.646
 5017SOL     OW20065   5.181   3.406   1.555
 5017SOL    HW120066   5.090   3.404   1.526
 5017SOL    HW220067   5.178   3.386   1.648
 5017SOL     MW20068   5.169   3.403   1.563
 5018SOL     OW20069   4.527   3.438   0.134
 5018SOL    HW120070   4.616   3.404   0.132
 5018SOL    HW220071   4.502   3.445   0.042
 5018SOL     MW20072   4.535   3.434   0.122
 5019SOL     OW20073   3.181   2.290   3.987
 5019SOL    HW120074   3.247   2.305   4.055
 5019SOL    HW220075   3.231   2.281   3.906
 5019SOL     MW20076   3.196   2.291   3.986
 5020SOL     OW20077   3.984   4.210   3.643
 5020SOL    HW120078   3.897   4.247   3.626
 5020SOL    HW220079   4.032   4.221   3.561
 5020SOL     MW20080   3.979   4.216   3.631
 5021SOL     OW20081   4.751   1.294   2.405
 5021SOL    HW120082   4.670   1.271   2.451
 5021SOL    HW220083   4.812   1.223   2.427
 5021SOL     MW20084   4.749   1.282   2.414
 5022SOL     OW20085   2.393   0.698   1.829
 5022SOL    HW120086   2.464   0.633   1.822
 5022SOL    HW220087   2.313   0.645   1.835
 5022SOL     MW20088   2.392   0.683   1.829
 5023SOL     OW20089   4.307   2.724   2.724
 5023SOL    HW120090   4.309   2.651   2.786
 5023SOL    HW220091   4.215   2.750   2.722
 5023SOL     MW20092   4.295   2.718   2.732
 5024SOL     OW20093   1.874   1.279   3.434
 5024SOL    HW120094   1.811   1.330   3.383
 5024SOL    HW220095   1.959   1.320   3.415
 5024SOL     MW20096   1.877   1.291   3.425
 5025SOL     OW20097   2.554   4.685   2.076
 5025SOL    HW120098   2.582   4.775   2.065
 5025SOL    HW220099   2.518   4.681   2.165
 5025SOL     MW20100   2.553   4.696   2.086
 5026SOL     OW20101   4.771   3.313   0.117
 5026SOL    HW120102   4.729   3.231   0.091
 5026SOL    HW220103   4.846   3.287   0.169
 5026SOL     MW20104   4.775   3.300   0.120
 5027SOL     OW20105   0.569   5.472   2.366
 5027SOL    HW120106   0.624   5.398   2.393
 5027SOL    HW220107   0.493   5.430   2.325
 5027SOL     MW20108   0.567   5.457   2.364
 5028SOL     OW20109   0.280   2.335   3.076
 5028SOL    HW120110   0.289   2.340   3.171
 5028SOL    HW220111   0.341   2.266   3.050
 5028SOL     MW20112   0.289   2.327   3.085
 5029SOL     OW20113   5.207   1.516   1.565
 5029SOL    HW120114   5.113   1.504   1.567
 5029SOL    HW220115   5.243   1.432   1.593
 5029SOL     MW20116   5.200   1.504   1.569
 5030SOL     OW20117   4.385   4.644   1.488
 5030SOL    HW120118   4.408   4.552   1.503
 5030SOL    HW220119   4.467   4.692   1.501
 5030SOL     MW20120   4.398   4.639   1.492
 5031SOL     OW20121   1.113   3.208   4.630
 5031SOL    HW120122   1.133   3.213   4.537
 5031SOL    HW220123   1.150   3.288   4.667
 5031SOL     MW20124   1.120   3.219   4.623
 5032SOL     OW20125   1.145   5.190   3.162
 5032SOL    HW120126   1.172   5.224   3.077
 5032SOL    HW220127   1.166   5.260   3.224
 5032SOL     MW20128   1.151   5.203   3.159
 5033SOL     OW20129   2.003   1.018   0.245
 5033SOL    HW120130   1.908   1.029   0.240
 5033SOL    HW220131   2.015   0.924   0.262
 5033SOL     MW20132   1.992   1.007   0.247
 5034SOL     OW20133   4.727   1.001   1.761
 5034SOL    HW120134   4.668   1.021   1.688
 5034SOL    HW220135   4.690   0.922   1.800
 5034SOL     MW20136   4.715   0.993   1.756
 5035SOL     OW20137   1.412   4.179   1.941
 5035SOL    HW120138   1.378   4.123   2.011
 5035SOL    HW220139   1.506   4.186   1.961
 5035SOL     MW20140   1.420   4.172   1.953
 5036SOL     OW20141   3.918   3.790   3.787
 5036SOL    HW120142   3.985   3.722   3.785
 5036SOL    HW220143   3.865   3.769   3.864
 5036SOL     MW20144   3.919   3.778   3.797
 5037SOL     OW20145   2.991   0.823   1.564
 5037SOL    HW120146   2.949   0.860   1.486
 5037SOL    HW220147   3.084   0.824   1.543
 5037SOL     MW20148   2.997   0.828   1.551
 5038SOL     OW20149   1.703   5.293   4.198
 5038SOL    HW120150   1.649   5.301   4.276
 5038SOL    HW220151   1.694   5.201   4.172
 5038SOL     MW20152   1.695   5.282   4.204
 5039SOL     OW20153   5.150   0.392   3.946
 5039SOL    HW120154   5.092   0.436   4.009
 5039SOL    HW220155   5.178   0.313   3.991
 5039SOL     MW20156   5.146   0.388   3.960
 5040SOL     OW20157   0.342   1.817   5.458
 5040SOL    HW120158   0.318   1.777   5.542
 5040SOL    HW220159   0.272   1.792   5.398
 5040SOL     MW20160   0.330   1.809   5.461
 5041SOL     OW20161   2.402   2.876   4.743
 5041SOL    HW120162   2.331   2.848   4.802
 5041SOL    HW220163   2.431   2.795   4.701
 5041SOL     MW20164   2.396   2.862   4.745
 5042SOL     OW20165   3.140   4.331   4.471
 5042SOL    HW120166   3.095   4.270   4.413
 5042SOL    HW220167   3.071   4.366   4.528
 5042SOL     MW20168   3.126   4.328   4.471
 5043SOL     OW20169   3.935   1.932   0.737
 5043SOL    HW120170   3.857   1.931   0.792
 5043SOL    HW220171   3.906   1.971   0.655
 5043SOL     MW20172   3.921   1.937   0.734
 5044SOL     OW20173   5.454   1.619   0.848
 5044SOL    HW120174   5.366   1.656   0.849
 5044SOL    HW220175   5.466   1.586   0.759
 5044SOL     MW20176   5.444   1.620   0.837
 5045SOL     OW20177   4.983   1.208   3.697
 5045SOL    HW120178   5.049   1.260   3.651
 5045SOL    HW220179   4.989   1.121   3.657
 5045SOL     MW20180   4.992   1.204   3.686
 5046SOL     OW20181   5.325   5.499   2.160
 5046SOL    HW120182   5.280   5.471   2.080
 5046SOL    HW220183   5.373   5.422   2.188
 5046SOL     MW20184   5.325   5.486   2.153
 5047SOL     OW20185   4.301   3.263   1.750
 5047SOL    HW120186   4.254   3.256   1.667
 5047SOL    HW220187   4.374   3.323   1.731
 5047SOL     MW20188   4.304   3.270   1.737
 5048SOL     OW20189   2.226   4.053   1.996
 5048SOL    HW120190   2.163   4.019   2.059
 5048SOL    HW220191   2.183   4.130   1.958
 5048SOL     MW20192   2.212   4.058   1.999
 5049SOL     OW20193   1.512   4.905   2.716
 5049SOL    HW120194   1.467   4.963   2.778
 5049SOL    HW220195   1.584   4.867   2.767
 5049SOL     MW20196   1.515   4.908   2.731
 5050SOL     OW20197   0.486   2.597   2.508
 5050SOL    HW120198   0.418   2.551   2.557
 5050SOL    HW220199   0.492   2.550   2.425
 5050SOL     MW20200   0.478   2.585   2.504
 5051SOL     OW20201   3.411   0.247   1.665
 5051SOL    HW120202   3.463   0.241   1.584
 5051SOL    HW220203   3.415   0.340   1.689
 5051SOL     MW20204   3.418   0.258   1.658
 5052SOL     OW20205   0.602   0.625   0.623
 5052SOL    HW120206   0.681   0.677   0.628
 5052SOL    HW220207   0.577   0.627   0.530
 5052SOL     MW20208   0.609   0.632   0.612
 5053SOL     OW20209   3.685   2.667   2.570
 5053SOL    HW120210   3.650   2.589   2.613
 5053SOL    HW220211   3.692   2.642   2.478
 5053SOL     MW20212   3.681   2.654   2.564
 5054SOL     OW20213   1.873   4.318   3.587
 5054SOL    HW120214   1.853   4.392   3.530
 5054SOL    HW220215   1.958   4.285   3.556
 5054SOL     MW20216   1.881   4.323   3.576
 5055SOL     OW20217   1.038   2.846   4.931
 5055SOL    HW120218   1.093   2.914   4.894
 5055SOL    HW220219   0.987   2.812   4.858
 5055SOL     MW20220   1.039   2.850   4.917
 5056SOL     OW20221   0.685   3.438   2.860
 5056SOL    HW120222   0.636   3.419   2.939
 5056SOL    HW220223   0.722   3.354   2.833
 5056SOL     MW20224   0.683   3.425   2.866
 5057SOL     OW20225   2.363   1.980   5.324
 5057SOL    HW120226   2.317   1.896   5.319
 5057SOL    HW220227   2.336   2.017   5.408
 5057SOL     MW20228   2.354   1.974   5.334
 5058SOL     OW20229   1.524   2.858   2.445
 5058SOL    HW120230   1.602   2.904   2.413
 5058SOL    HW220231   1.466   2.928   2.476
 5058SOL     MW20232   1.527   2.873   2.445
 5059SOL     OW20233   1.844   1.357   2.207
 5059SOL    HW120234   1.849   1.271   2.166
 5059SOL    HW220235   1.778   1.348   2.275
 5059SOL     MW20236   1.837   1.345   2.210
 5060SOL     OW20237   1.989   2.876   1.787
 5060SOL    HW120238   1.935   2.947   1.824
 5060SOL    HW220239   2.027   2.914   1.708
 5060SOL     MW20240   1.987   2.890   1.782
 5061SOL     OW20241   4.751   1.970   4.965
 5061SOL    HW120242   4.790   1.884   4.984
 5061SOL    HW220243   4.821   2.032   4.983
 5061SOL     MW20244   4.765   1.967   4.970
 5062SOL     OW20245   1.565   5.250   4.743
 5062SOL    HW120246   1.580   5.342   4.766
 5062SOL    HW220247   1.480   5.250   4.698
 5062SOL     MW20248   1.556   5.262   4.740
 5063SOL     OW20249   5.254   0.710   4.503
 5063SOL    HW120250   5.303   0.662   4.570
 5063SOL    HW220251   5.203   0.774   4.552
 5063SOL     MW20252   5.254   0.712   4.518
 5064SOL     OW20253   3.666   5.243   2.808
 5064SOL    HW120254   3.636   5.280   2.725
 5064SOL    HW220255   3.617   5.291   2.875
 5064SOL     MW20256   3.656   5.254   2.806
 5065SOL     OW20257   4.055   2.290   2.079
 5065SOL    HW120258   4.013   2.263   1.997
 5065SOL    HW220259   4.132   2.340   2.052
 5065SOL     MW20260   4.059   2.293   2.065
 5066SOL     OW20261   1.206   0.143   3.214
 5066SOL    HW120262   1.226   0.218   3.159
 5066SOL    HW220263   1.138   0.174   3.274
 5066SOL     MW20264   1.200   0.156   3.215
 5067SOL     OW20265   2.697   2.849   0.165
 5067SOL    HW120266   2.707   2.787   0.093
 5067SOL    HW220267   2.769   2.910   0.153
 5067SOL     MW20268   2.707   2.849   0.154
 5068SOL     OW20269   3.553   3.515   1.910
 5068SOL    HW120270   3.541   3.518   2.005
 5068SOL    HW220271   3.565   3.606   1.884
 5068SOL     MW20272   3.553   3.527   1.919
 5069SOL     OW20273   1.898   4.337   2.099
 5069SOL    HW120274   1.919   4.429   2.114
 5069SOL    HW220275   1.971   4.289   2.137
 5069SOL     MW20276   1.910   4.343   2.106
 5070SOL     OW20277   2.555   3.998   0.605
 5070SOL    HW120278   2.492   4.070   0.611
 5070SOL    HW220279   2.543   3.949   0.686
 5070SOL     MW20280   2.545   4.001   0.616
 5071SOL     OW20281   4.667   2.771   2.636
 5071SOL    HW120282   4.686   2.801   2.547
 5071SOL    HW220283   4.664   2.676   2.628
 5071SOL     MW20284   4.669   2.763   2.623
 5072SOL     OW20285   4.666   3.550   4.043
 5072SOL    HW120286   4.661   3.576   4.135
 5072SOL    HW220287   4.733   3.482   4.041
 5072SOL     MW20288   4.674   3.544   4.055
 5073SOL     OW20289   3.466   3.835   1.010
 5073SOL    HW120290   3.527   3.885   0.957
 5073SOL    HW220291   3.441   3.894   1.081
 5073SOL     MW20292   3.470   3.849   1.013
 5074SOL     OW20293   4.786   1.315   4.973
 5074SOL    HW120294   4.792   1.229   4.933
 5074SOL    HW220295   4.856   1.317   5.038
 5074SOL     MW20296   4.796   1.304   4.977
 5075SOL     OW20297   0.589   3.874   5.060
 5075SOL    HW120298   0.519   3.895   5.122
 5075SOL    HW220299   0.657   3.834   5.114
 5075SOL     MW20300   0.589   3.871   5.075
 5076SOL     OW20301   1.669   2.697   0.360
 5076SOL    HW120302   1.630   2.640   0.426
 5076SOL    HW220303   1.601   2.762   0.342
 5076SOL     MW20304   1.655   2.698   0.366
 5077SOL     OW20305   1.276   0.599   4.189
 5077SOL    HW120306   1.250   0.684   4.225
 5077SOL    HW220307   1.370   0.605   4.177
 5077SOL     MW20308   1.285   0.610   4.192
 5078SOL     OW20309   3.353   4.771   0.995
 5078SOL    HW120310   3.389   4.710   1.059
 5078SOL    HW220311   3.292   4.825   1.045
 5078SOL     MW20312   3.350   4.770   1.010
 5079SOL     OW20313   2.659   2.943   2.226
 5079SOL    HW120314   2.721   2.980   2.290
 5079SOL    HW220315   2.580   2.997   2.235
 5079SOL     MW20316   2.657   2.955   2.236
 5080SOL     OW20317   0.703   0.530   3.554
 5080SOL    HW120318   0.636   0.559   3.617
 5080SOL    HW220319   0.719   0.608   3.500
 5080SOL     MW20320   0.696   0.544   3.555
 5081SOL     OW20321   3.228   4.548   3.445
 5081SOL    HW120322   3.264   4.486   3.508
 5081SOL    HW220323   3.305   4.582   3.397
 5081SOL     MW20324   3.243   4.545   3.447
 5082SOL     OW20325   5.037   2.646   0.714
 5082SOL    HW120326   5.062   2.658   0.622
 5082SOL    HW220327   4.961   2.702   0.725
 5082SOL     MW20328   5.031   2.655   0.703
 5083SOL     OW20329   1.723   3.276   3.867
 5083SOL    HW120330   1.641   3.282   3.916
 5083SOL    HW220331   1.696   3.267   3.776
 5083SOL     MW20332   1.709   3.275   3.862
 5084SOL     OW20333   5.224   4.477   3.630
 5084SOL    HW120334   5.145   4.495   3.682
 5084SOL    HW220335   5.252   4.563   3.599
 5084SOL     MW20336   5.217   4.490   3.633
 5085SOL     OW20337   0.988   1.205   5.368
 5085SOL    HW120338   1.022   1.186   5.455
 5085SOL    HW220339   1.065   1.197   5.311
 5085SOL     MW20340   1.002   1.201   5.372
 5086SOL     OW20341   3.434   5.232   4.810
 5086SOL    HW120342   3.348   5.272   4.803
 5086SOL    HW220343   3.456   5.207   4.721
 5086SOL     MW20344   3.426   5.234   4.798
 5087SOL     OW20345   2.121   2.950   0.818
 5087SOL    HW120346   2.076   2.878   0.774
 5087SOL    HW220347   2.213   2.925   0.818
 5087SOL     MW20348   2.127   2.938   0.812
 5088SOL     OW20349   1.162   0.490   0.814
 5088SOL    HW120350   1.245   0.444   0.802
 5088SOL    HW220351   1.166   0.562   0.750
 5088SOL     MW20352   1.173   0.494   0.804
 5089SOL     OW20353   4.874   0.457   0.435
 5089SOL    HW120354   4.858   0.378   0.382
 5089SOL    HW220355   4.907   0.423   0.518
 5089SOL     MW20356   4.876   0.442   0.439
 5090SOL     OW20357   5.037   3.940   0.029
 5090SOL    HW120358   5.116   3.887   0.041
 5090SOL    HW220359   4.970   3.877   0.002
 5090SOL     MW20360   5.039   3.925   0.027
 5091SOL     OW20361   3.851   1.041   4.559
 5091SOL    HW120362   3.947   1.038   4.561
 5091SOL    HW220363   3.826   1.088   4.638
 5091SOL     MW20364   3.860   1.047   4.569
 5092SOL     OW20365   0.223   0.335   3.896
 5092SOL    HW120366   0.190   0.246   3.887
 5092SOL    HW220367   0.246   0.343   3.989
 5092SOL     MW20368   0.222   0.325   3.907
 5093SOL     OW20369   3.762   0.478   3.483
 5093SOL    HW120370   3.754   0.479   3.388
 5093SOL    HW220371   3.821   0.550   3.503
 5093SOL     MW20372   3.768   0.487   3.474
 5094SOL     OW20373   4.211   2.970   0.118
 5094SOL    HW120374   4.203   2.930   0.032
 5094SOL    HW220375   4.205   2.897   0.180
 5094SOL     MW20376   4.209   2.956   0.115
 5095SOL     OW20377   0.682   2.169   5.041
 5095SOL    HW120378   0.690   2.249   5.093
 5095SOL    HW220379   0.672   2.200   4.951
 5095SOL     MW20380   0.682   2.184   5.036
 5096SOL     OW20381   0.276   1.380   4.860
 5096SOL    HW120382   0.364   1.346   4.874
 5096SOL    HW220383   0.219   1.304   4.871
 5096SOL     MW20384   0.280   1.366   4.863
 5097SOL     OW20385   3.180   5.351   4.827
 5097SOL    HW120386   3.164   5.311   4.741
 5097SOL    HW220387   3.140   5.289   4.889
 5097SOL     MW20388   3.173   5.338   4.824
 5098SOL     OW20389   1.201   3.759   1.273
 5098SOL    HW120390   1.249   3.702   1.333
 5098SOL    HW220391   1.212   3.719   1.187
 5098SOL     MW20392   1.209   3.747   1.270
 5099SOL     OW20393   3.611   3.536   2.883
 5099SOL    HW120394   3.681   3.497   2.831
 5099SOL    HW220395   3.542   3.556   2.820
 5099SOL     MW20396   3.611   3.534   2.868
 5100SOL     OW20397   3.932   4.412   1.646
 5100SOL    HW120398   3.986   4.383   1.573
 5100SOL    HW220399   3.921   4.333   1.700
 5100SOL     MW20400   3.937   4.398   1.644
 5101SOL     OW20401   0.664   4.741   2.306
 5101SOL    HW120402   0.577   4.735   2.344
 5101SOL    HW220403   0.705   4.815   2.350
 5101SOL     MW20404   0.659   4.750   2.316
 5102SOL     OW20405   1.061   3.166   1.850
 5102SOL    HW120406   1.073   3.071   1.851
 5102SOL    HW220407   1.015   3.184   1.932
 5102SOL     MW20408   1.056   3.156   1.861
 5103SOL     OW20409   4.626   1.003   2.908
 5103SOL    HW120410   4.629   0.998   2.812
 5103SOL    HW220411   4.550   1.057   2.927
 5103SOL     MW20412   4.617   1.010   2.898
 5104SOL     OW20413   2.611   1.555   4.724
 5104SOL    HW120414   2.519   1.528   4.723
 5104SOL    HW220415   2.651   1.500   4.791
 5104SOL     MW20416   2.604   1.545   4.733
 5105SOL     OW20417   1.883   2.040   0.215
 5105SOL    HW120418   1.844   2.060   0.300
 5105SOL    HW220419   1.956   1.982   0.235
 5105SOL     MW20420   1.887   2.035   0.228
 5106SOL     OW20421   5.416   2.304   1.424
 5106SOL    HW120422   5.360   2.341   1.492
 5106SOL    HW220423   5.493   2.271   1.471
 5106SOL     MW20424   5.419   2.304   1.439
 5107SOL     OW20425   5.260   5.368   2.606
 5107SOL    HW120426   5.255   5.432   2.677
 5107SOL    HW220427   5.337   5.315   2.625
 5107SOL     MW20428   5.269   5.370   2.617
 5108SOL     OW20429   0.677   0.681   1.661
 5108SOL    HW120430   0.603   0.734   1.631
 5108SOL    HW220431   0.700   0.717   1.746
 5108SOL     MW20432   0.671   0.692   1.668
 5109SOL     OW20433   1.492   4.366   0.262
 5109SOL    HW120434   1.522   4.327   0.345
 5109SOL    HW220435   1.514   4.459   0.270
 5109SOL     MW20436   1.499   4.373   0.274
 5110SOL     OW20437   4.908   0.239   2.894
 5110SOL    HW120438   4.893   0.246   2.800
 5110SOL    HW220439   4.943   0.325   2.919
 5110SOL     MW20440   4.911   0.251   2.885
 5111SOL     OW20441   4.057   0.497   0.580
 5111SOL    HW120442   3.983   0.558   0.582
 5111SOL    HW220443   4.031   0.430   0.517
 5111SOL     MW20444   4.044   0.496   0.572
 5112SOL     OW20445   5.390   2.471   0.424
 5112SOL    HW120446   5.382   2.559   0.387
 5112SOL    HW220447   5.365   2.481   0.516
 5112SOL     MW20448   5.386   2.483   0.431
 5113SOL     OW20449   2.298   1.251   0.532
 5113SOL    HW120450   2.210   1.218   0.512
 5113SOL    HW220451   2.348   1.173   0.556
 5113SOL     MW20452   2.293   1.237   0.533
 5114SOL     OW20453   4.039   0.778   5.291
 5114SOL    HW120454   4.076   0.820   5.214
 5114SOL    HW220455   3.958   0.738   5.261
 5114SOL     MW20456   4.033   0.779   5.278
 5115SOL     OW20457   2.550   1.898   3.586
 5115SOL    HW120458   2.503   1.885   3.668
 5115SOL    HW220459   2.573   1.810   3.557
 5115SOL     MW20460   2.547   1.885   3.593
 5116SOL     OW20461   3.613   3.624   0.156
 5116SOL    HW120462   3.540   3.670   0.198
 5116SOL    HW220463   3.594   3.630   0.062
 5116SOL     MW20464   3.601   3.631   0.149
 5117SOL     OW20465   0.537   1.243   0.246
 5117SOL    HW120466   0.489   1.222   0.166
 5117SOL    HW220467   0.517   1.171   0.306
 5117SOL     MW20468   0.528   1.231   0.243
 5118SOL     OW20469   3.300   2.344   4.975
 5118SOL    HW120470   3.348   2.262   4.963
 5118SOL    HW220471   3.272   2.342   5.067
 5118SOL     MW20472   3.302   2.333   4.985
 5119SOL     OW20473   3.234   2.752   1.992
 5119SOL    HW120474   3.276   2.672   2.023
 5119SOL    HW220475   3.149   2.753   2.036
 5119SOL     MW20476   3.229   2.742   2.001
 5120SOL     OW20477   2.709   3.937   2.513
 5120SOL    HW120478   2.646   3.866   2.516
 5120SOL    HW220479   2.772   3.916   2.582
 5120SOL     MW20480   2.709   3.926   2.522
 5121SOL     OW20481   4.559   3.115   3.541
 5121SOL    HW120482   4.616   3.059   3.489
 5121SOL    HW220483   4.578   3.091   3.632
 5121SOL     MW20484   4.569   3.105   3.546
 5122SOL     OW20485   3.718   3.771   1.571
 5122SOL    HW120486   3.680   3.684   1.577
 5122SOL    HW220487   3.672   3.812   1.497
 5122SOL     MW20488   3.707   3.765   1.562
 5123SOL     OW20489   3.856   2.134   1.256
 5123SOL    HW120490   3.777   2.086   1.281
 5123SOL    HW220491   3.900   2.154   1.339
 5123SOL     MW20492   3.852   2.131   1.270
 5124SOL     OW20493   1.617   0.467   1.075
 5124SOL    HW120494   1.653   0.434   0.992
 5124SOL    HW220495   1.555   0.399   1.102
 5124SOL     MW20496   1.614   0.454   1.068
 5125SOL     OW20497   4.840   4.748   5.193
 5125SOL    HW120498   4.795   4.830   5.212
 5125SOL    HW220499   4.807   4.722   5.107
 5125SOL     MW20500   4.830   4.755   5.184
 5126SOL     OW20501   2.870   2.463   0.257
 5126SOL    HW120502   2.848   2.435   0.168
 5126SOL    HW220503   2.856   2.385   0.311
 5126SOL     MW20504   2.865   2.450   0.253
 5127SOL     OW20505   3.917   5.287   2.526
 5127SOL    HW120506   3.989   5.261   2.583
 5127SOL    HW220507   3.866   5.208   2.513
 5127SOL     MW20508   3.920   5.274   2.531
 5128SOL     OW20509   4.844   1.164   1.158
 5128SOL    HW120510   4.933   1.131   1.169
 5128SOL    HW220511   4.787   1.088   1.175
 5128SOL     MW20512   4.848   1.150   1.161
 5129SOL     OW20513   1.037   3.733   2.838
 5129SOL    HW120514   1.076   3.708   2.922
 5129SOL    HW220515   1.042   3.829   2.838
 5129SOL     MW20516   1.042   3.742   2.849
 5130SOL     OW20517   5.498   0.602   3.981
 5130SOL    HW120518   5.443   0.669   4.022
 5130SOL    HW220519   5.449   0.575   3.903
 5130SOL     MW20520   5.484   0.607   3.976
 5131SOL     OW20521   3.122   4.613   2.357
 5131SOL    HW120522   3.059   4.646   2.422
 5131SOL    HW220523   3.074   4.616   2.274
 5131SOL     MW20524   3.108   4.618   2.355
 5132SOL     OW20525   1.203   4.415   4.381
 5132SOL    HW120526   1.267   4.469   4.335
 5132SOL    HW220527   1.167   4.473   4.448
 5132SOL     MW20528   1.207   4.430   4.384
 5133SOL     OW20529   2.410   2.451   1.485
 5133SOL    HW120530   2.433   2.425   1.575
 5133SOL    HW220531   2.472   2.520   1.463
 5133SOL     MW20532   2.421   2.456   1.494
 5134SOL     OW20533   3.868   0.044   1.898
 5134SOL    HW120534   3.880   0.088   1.982
 5134SOL    HW220535   3.789   0.083   1.861
 5134SOL     MW20536   3.860   0.054   1.904
 5135SOL     OW20537   2.019   1.682   2.238
 5135SOL    HW120538   2.039   1.658   2.148
 5135SOL    HW220539   2.040   1.605   2.290
 5135SOL     MW20540   2.024   1.669   2.233
 5136SOL     OW20541   1.460   1.809   0.603
 5136SOL    HW120542   1.545   1.799   0.648
 5136SOL    HW220543   1.469   1.890   0.553
 5136SOL     MW20544   1.472   1.818   0.603
 5137SOL     OW20545   3.710   2.558   2.304
 5137SOL    HW120546   3.784   2.553   2.244
 5137SOL    HW220547   3.645   2.498   2.267
 5137SOL     MW20548   3.711   2.550   2.291
 5138SOL     OW20549   5.306   3.507   0.093
 5138SOL    HW120550   5.287   3.569   0.163
 5138SOL    HW220551   5.288   3.556   0.012
 5138SOL     MW20552   5.301   3.521   0.091
 5139SOL     OW20553   1.042   1.804   4.261
 5139SOL    HW120554   1.082   1.737   4.317
 5139SOL    HW220555   1.029   1.760   4.177
 5139SOL     MW20556   1.046   1.790   4.257
 5140SOL     OW20557   3.396   5.029   2.083
 5140SOL    HW120558   3.360   4.952   2.126
 5140SOL    HW220559   3.445   4.995   2.009
 5140SOL     MW20560   3.397   5.015   2.079
 5141SOL     OW20561   5.266   0.017   4.449
 5141SOL    HW120562   5.314   0.093   4.415
 5141SOL    HW220563   5.287   0.016   4.542
 5141SOL     MW20564   5.275   0.027   4.457
 5142SOL     OW20565   3.322   4.331   1.865
 5142SOL    HW120566   3.256   4.317   1.933
 5142SOL    HW220567   3.318   4.424   1.845
 5142SOL     MW20568   3.313   4.341   1.871
 5143SOL     OW20569   3.174   2.944   5.478
 5143SOL    HW120570   3.147   2.993   5.401
 5143SOL    HW220571   3.255   2.899   5.451
 5143SOL     MW20572   3.181   2.944   5.465
 5144SOL     OW20573   2.624   1.328   0.638
 5144SOL    HW120574   2.718   1.313   0.649
 5144SOL    HW220575   2.616   1.369   0.552
 5144SOL     MW20576   2.635   1.332   0.629
 5145SOL     OW20577   5.271   4.942   5.280
 5145SOL    HW120578   5.207   4.891   5.231
 5145SOL    HW220579   5.296   4.886   5.353
 5145SOL     MW20580   5.266   4.928   5.283
 5146SOL     OW20581   2.846   2.774   2.516
 5146SOL    HW120582   2.925   2.721   2.527
 5146SOL    HW220583   2.790   2.748   2.589
 5146SOL     MW20584   2.849   2.764   2.527
 5147SOL     OW20585   4.167   3.534   3.140
 5147SOL    HW120586   4.208   3.516   3.055
 5147SOL    HW220587   4.186   3.627   3.156
 5147SOL     MW20588   4.175   3.544   3.131
 5148SOL     OW20589   0.634   5.291   4.766
 5148SOL    HW120590   0.617   5.317   4.675
 5148SOL    HW220591   0.579   5.213   4.779
 5148SOL     MW20592   0.625   5.284   4.756
 5149SOL     OW20593   2.264   0.460   3.211
 5149SOL    HW120594   2.249   0.425   3.299
 5149SOL    HW220595   2.357   0.481   3.209
 5149SOL     MW20596   2.274   0.458   3.222
 5150SOL     OW20597   5.075   4.760   3.845
 5150SOL    HW120598   5.009   4.801   3.791
 5150SOL    HW220599   5.088   4.820   3.918
 5150SOL     MW20600   5.068   4.773   3.848
 5151SOL     OW20601   1.159   5.267   2.887
 5151SOL    HW120602   1.138   5.356   2.913
 5151SOL    HW220603   1.076   5.220   2.894
 5151SOL     MW20604   1.146   5.272   2.891
 5152SOL     OW20605   3.339   3.316   0.297
 5152SOL    HW120606   3.433   3.331   0.287
 5152SOL    HW220607   3.298   3.392   0.256
 5152SOL     MW20608   3.346   3.328   0.290
 5153SOL     OW20609   2.169   5.414   4.318
 5153SOL    HW120610   2.207   5.477   4.379
 5153SOL    HW220611   2.077   5.440   4.311
 5153SOL     MW20612   2.162   5.426   4.325
 5154SOL     OW20613   0.088   1.186   4.905
 5154SOL    HW120614   0.038   1.220   4.832
 5154SOL    HW220615   0.044   1.221   4.983
 5154SOL     MW20616   0.076   1.195   4.906
 5155SOL     OW20617   0.839   4.064   3.237
 5155SOL    HW120618   0.796   4.029   3.315
 5155SOL    HW220619   0.886   3.990   3.200
 5155SOL     MW20620   0.840   4.050   3.242
 5156SOL     OW20621   1.016   1.501   3.264
 5156SOL    HW120622   1.083   1.515   3.197
 5156SOL    HW220623   1.066   1.472   3.341
 5156SOL     MW20624   1.031   1.499   3.266
 5157SOL     OW20625   2.865   0.101   1.173
 5157SOL    HW120626   2.879   0.034   1.240
 5157SOL    HW220627   2.952   0.114   1.133
 5157SOL     MW20628   2.878   0.094   1.176
 5158SOL     OW20629   3.316   2.290   3.747
 5158SOL    HW120630   3.255   2.298   3.674
 5158SOL    HW220631   3.376   2.221   3.721
 5158SOL     MW20632   3.316   2.282   3.734
 5159SOL     OW20633   2.914   0.279   3.425
 5159SOL    HW120634   2.844   0.233   3.472
 5159SOL    HW220635   2.923   0.232   3.343
 5159SOL     MW20636   2.906   0.267   3.421
 5160SOL     OW20637   3.110   2.523   0.365
 5160SOL    HW120638   3.033   2.508   0.310
 5160SOL    HW220639   3.077   2.514   0.454
 5160SOL     MW20640   3.096   2.520   0.369
 5161SOL     OW20641   2.146   1.068   1.406
 5161SOL    HW120642   2.187   1.045   1.489
 5161SOL    HW220643   2.219   1.092   1.349
 5161SOL     MW20644   2.160   1.068   1.409
 5162SOL     OW20645   4.893   3.760   1.952
 5162SOL    HW120646   4.860   3.827   2.012
 5162SOL    HW220647   4.817   3.734   1.900
 5162SOL     MW20648   4.879   3.765   1.953
 5163SOL     OW20649   4.499   0.579   3.342
 5163SOL    HW120650   4.435   0.622   3.285
 5163SOL    HW220651   4.448   0.551   3.418
 5163SOL     MW20652   4.484   0.581   3.344
 5164SOL     OW20653   2.797   4.145   1.938
 5164SOL    HW120654   2.742   4.179   2.009
 5164SOL    HW220655   2.737   4.095   1.883
 5164SOL     MW20656   2.782   4.143   1.940
 5165SOL     OW20657   3.382   0.076   1.063
 5165SOL    HW120658   3.423   0.154   1.026
 5165SOL    HW220659   3.421   0.004   1.015
 5165SOL     MW20660   3.392   0.077   1.052
 5166SOL     OW20661   3.317   4.010   1.801
 5166SOL    HW120662   3.397   4.033   1.848
 5166SOL    HW220663   3.273   3.947   1.857
 5166SOL     MW20664   3.321   4.005   1.814
 5167SOL     OW20665   0.185   1.489   1.727
 5167SOL    HW120666   0.151   1.437   1.654
 5167SOL    HW220667   0.223   1.425   1.786
 5167SOL     MW20668   0.186   1.474   1.725
 5168SOL     OW20669   4.894   3.167   1.628
 5168SOL    HW120670   4.802   3.140   1.621
 5168SOL    HW220671   4.942   3.104   1.574
 5168SOL     MW20672   4.888   3.156   1.620
 5169SOL     OW20673   4.208   0.604   1.351
 5169SOL    HW120674   4.197   0.528   1.294
 5169SOL    HW220675   4.141   0.665   1.322
 5169SOL     MW20676   4.198   0.602   1.340
 5170SOL     OW20677   2.239   4.882   1.700
 5170SOL    HW120678   2.275   4.794   1.708
 5170SOL    HW220679   2.271   4.929   1.776
 5170SOL     MW20680   2.248   4.876   1.710
 5171SOL     OW20681   3.415   4.646   4.280
 5171SOL    HW120682   3.436   4.738   4.294
 5171SOL    HW220683   3.368   4.619   4.359
 5171SOL     MW20684   3.412   4.654   4.292
 5172SOL     OW20685   3.232   3.431   3.847
 5172SOL    HW120686   3.162   3.406   3.787
 5172SOL    HW220687   3.192   3.496   3.905
 5172SOL     MW20688   3.218   3.436   3.847
 5173SOL     OW20689   4.872   0.235   0.279
 5173SOL    HW120690   4.897   0.164   0.339
 5173SOL    HW220691   4.952   0.254   0.230
 5173SOL     MW20692   4.885   0.228   0.280
 5174SOL     OW20693   4.378   4.476   0.473
 5174SOL    HW120694   4.468   4.505   0.486
 5174SOL    HW220695   4.362   4.487   0.379
 5174SOL     MW20696   4.387   4.481   0.463
 5175SOL     OW20697   2.497   2.996   0.280
 5175SOL    HW120698   2.519   3.009   0.373
 5175SOL    HW220699   2.570   2.945   0.245
 5175SOL     MW20700   2.510   2.991   0.288
 5176SOL     OW20701   3.520   3.344   5.001
 5176SOL    HW120702   3.519   3.387   5.086
 5176SOL    HW220703   3.446   3.383   4.953
 5176SOL     MW20704   3.510   3.354   5.006
 5177SOL     OW20705   3.240   1.114   1.094
 5177SOL    HW120706   3.176   1.162   1.041
 5177SOL    HW220707   3.307   1.085   1.031
 5177SOL     MW20708   3.240   1.116   1.079
 5178SOL     OW20709   2.407   4.397   0.989
 5178SOL    HW120710   2.415   4.303   0.977
 5178SOL    HW220711   2.354   4.407   1.068
 5178SOL     MW20712   2.401   4.386   0.998
 5179SOL     OW20713   3.039   0.082   3.829
 5179SOL    HW120714   2.986   0.153   3.793
 5179SOL    HW220715   3.094   0.053   3.756
 5179SOL     MW20716   3.039   0.087   3.815
 5180SOL     OW20717   0.389   3.338   1.150
 5180SOL    HW120718   0.353   3.417   1.191
 5180SOL    HW220719   0.481   3.359   1.135
 5180SOL     MW20720   0.396   3.351   1.153
 5181SOL     OW20721   4.259   3.003   1.391
 5181SOL    HW120722   4.195   2.983   1.322
 5181SOL    HW220723   4.209   2.997   1.472
 5181SOL     MW20724   4.244   2.999   1.392
 5182SOL     OW20725   1.940   0.531   1.599
 5182SOL    HW120726   1.848   0.520   1.576
 5182SOL    HW220727   1.981   0.448   1.577
 5182SOL     MW20728   1.934   0.519   1.593
 5183SOL     OW20729   4.414   4.123   0.809
 5183SOL    HW120730   4.484   4.187   0.814
 5183SOL    HW220731   4.399   4.110   0.715
 5183SOL     MW20732   4.421   4.129   0.798
 5184SOL     OW20733   4.331   1.139   0.100
 5184SOL    HW120734   4.296   1.108   0.016
 5184SOL    HW220735   4.375   1.062   0.137
 5184SOL     MW20736   4.332   1.125   0.094
 5185SOL     OW20737   2.682   3.165   3.789
 5185SOL    HW120738   2.657   3.174   3.697
 5185SOL    HW220739   2.777   3.155   3.787
 5185SOL     MW20740   2.691   3.165   3.777
 5186SOL     OW20741   5.321   3.051   2.152
 5186SOL    HW120742   5.235   3.023   2.121
 5186SOL    HW220743   5.352   3.114   2.087
 5186SOL     MW20744   5.314   3.055   2.140
 5187SOL     OW20745   1.085   4.244   2.760
 5187SOL    HW120746   1.117   4.199   2.682
 5187SOL    HW220747   1.057   4.174   2.819
 5187SOL     MW20748   1.085   4.230   2.758
 5188SOL     OW20749   1.884   3.347   3.171
 5188SOL    HW120750   1.908   3.439   3.164
 5188SOL    HW220751   1.936   3.313   3.244
 5188SOL     MW20752   1.893   3.354   3.179
 5189SOL     OW20753   0.432   4.410   1.100
 5189SOL    HW120754   0.344   4.373   1.087
 5189SOL    HW220755   0.460   4.376   1.185
 5189SOL     MW20756   0.424   4.401   1.109
 5190SOL     OW20757   0.092   2.290   0.945
 5190SOL    HW120758   0.174   2.301   0.993
 5190SOL    HW220759   0.102   2.345   0.868
 5190SOL     MW20760   0.104   2.298   0.941
 5191SOL     OW20761   5.112   2.465   4.592
 5191SOL    HW120762   5.172   2.495   4.525
 5191SOL    HW220763   5.044   2.533   4.596
 5191SOL     MW20764   5.111   2.478   4.584
 5192SOL     OW20765   2.647   1.276   1.062
 5192SOL    HW120766   2.554   1.255   1.053
 5192SOL    HW220767   2.653   1.368   1.036
 5192SOL     MW20768   2.636   1.285   1.057
 5193SOL     OW20769   5.405   3.508   1.443
 5193SOL    HW120770   5.325   3.462   1.468
 5193SOL    HW220771   5.432   3.555   1.522
 5193SOL     MW20772   5.398   3.508   1.456
 5194SOL     OW20773   0.593   3.493   4.025
 5194SOL    HW120774   0.618   3.472   3.935
 5194SOL    HW220775   0.508   3.452   4.037
 5194SOL     MW20776   0.586   3.485   4.015
 5195SOL     OW20777   2.960   3.101   1.409
 5195SOL    HW120778   2.951   3.036   1.478
 5195SOL    HW220779   3.037   3.072   1.358
 5195SOL     MW20780   2.969   3.089   1.411
 5196SOL     OW20781   2.460   4.298   3.867
 5196SOL    HW120782   2.544   4.311   3.823
 5196SOL    HW220783   2.479   4.317   3.959
 5196SOL     MW20784   2.473   4.302   3.873
 5197SOL     OW20785   1.413   0.273   3.732
 5197SOL    HW120786   1.384   0.267   3.823
 5197SOL    HW220787   1.335   0.298   3.683
 5197SOL     MW20788   1.399   0.276   3.737
 5198SOL     OW20789   4.030   3.678   1.006
 5198SOL    HW120790   3.999   3.719   0.926
 5198SOL    HW220791   4.080   3.747   1.051
 5198SOL     MW20792   4.033   3.692   1.002
 5199SOL     OW20793   0.391   1.693   0.979
 5199SOL    HW120794   0.370   1.698   1.073
 5199SOL    HW220795   0.318   1.738   0.936
 5199SOL     MW20796   0.379   1.699   0.986
 5200SOL     OW20797   4.153   3.844   2.719
 5200SOL    HW120798   4.130   3.870   2.809
 5200SOL    HW220799   4.115   3.913   2.664
 5200SOL     MW20800   4.145   3.856   2.724
 5201SOL     OW20801   2.758   3.438   4.035
 5201SOL    HW120802   2.781   3.348   4.060
 5201SOL    HW220803   2.750   3.485   4.118
 5201SOL     MW20804   2.760   3.432   4.049
 5202SOL     OW20805   1.471   0.139   0.110
 5202SOL    HW120806   1.564   0.141   0.131
 5202SOL    HW220807   1.445   0.049   0.129
 5202SOL     MW20808   1.479   0.128   0.115
 5203SOL     OW20809   4.533   3.393   2.326
 5203SOL    HW120810   4.563   3.466   2.272
 5203SOL    HW220811   4.531   3.318   2.266
 5203SOL     MW20812   4.537   3.393   2.311
 5204SOL     OW20813   0.113   0.568   2.332
 5204SOL    HW120814   0.183   0.617   2.375
 5204SOL    HW220815   0.149   0.542   2.248
 5204SOL     MW20816   0.126   0.571   2.327
 5205SOL     OW20817   4.289   1.346   5.265
 5205SOL    HW120818   4.311   1.388   5.349
 5205SOL    HW220819   4.264   1.257   5.289
 5205SOL     MW20820   4.288   1.340   5.279
 5206SOL     OW20821   2.094   1.631   1.971
 5206SOL    HW120822   2.166   1.576   1.940
 5206SOL    HW220823   2.120   1.720   1.945
 5206SOL     MW20824   2.106   1.636   1.964
 5207SOL     OW20825   3.804   5.247   1.328
 5207SOL    HW120826   3.807   5.153   1.343
 5207SOL    HW220827   3.895   5.274   1.321
 5207SOL     MW20828   3.816   5.239   1.329
 5208SOL     OW20829   0.209   4.807   4.359
 5208SOL    HW120830   0.251   4.768   4.436
 5208SOL    HW220831   0.115   4.800   4.377
 5208SOL     MW20832   0.203   4.801   4.371
 5209SOL     OW20833   3.028   5.358   3.427
 5209SOL    HW120834   2.953   5.378   3.370
 5209SOL    HW220835   3.105   5.375   3.372
 5209SOL     MW20836   3.028   5.363   3.412
 5210SOL     OW20837   2.362   3.829   4.381
 5210SOL    HW120838   2.267   3.829   4.370
 5210SOL    HW220839   2.395   3.786   4.301
 5210SOL     MW20840   2.354   3.823   4.369
 5211SOL     OW20841   2.430   3.834   5.378
 5211SOL    HW120842   2.451   3.900   5.444
 5211SOL    HW220843   2.512   3.821   5.330
 5211SOL     MW20844   2.443   3.840   5.380
 5212SOL     OW20845   0.090   3.574   0.439
 5212SOL    HW120846   0.119   3.610   0.523
 5212SOL    HW220847   0.131   3.487   0.435
 5212SOL     MW20848   0.099   3.567   0.449
 5213SOL     OW20849   2.884   4.970   0.555
 5213SOL    HW120850   2.801   4.926   0.569
 5213SOL    HW220851   2.915   4.992   0.642
 5213SOL     MW20852   2.878   4.967   0.568
 5214SOL     OW20853   1.321   1.258   4.783
 5214SOL    HW120854   1.380   1.283   4.854
 5214SOL    HW220855   1.273   1.183   4.816
 5214SOL     MW20856   1.323   1.251   4.796
 5215SOL     OW20857   0.169   2.246   1.561
 5215SOL    HW120858   0.222   2.168   1.577
 5215SOL    HW220859   0.130   2.266   1.646
 5215SOL     MW20860   0.171   2.239   1.574
 5216SOL     OW20861   2.589   0.311   1.488
 5216SOL    HW120862   2.645   0.310   1.566
 5216SOL    HW220863   2.518   0.250   1.508
 5216SOL     MW20864   2.587   0.303   1.501
 5217SOL     OW20865   5.224   2.403   1.602
 5217SOL    HW120866   5.201   2.387   1.693
 5217SOL    HW220867   5.207   2.496   1.589
 5217SOL     MW20868   5.219   2.413   1.612
 5218SOL     OW20869   3.989   2.518   4.690
 5218SOL    HW120870   3.934   2.514   4.612
 5218SOL    HW220871   3.945   2.580   4.747
 5218SOL     MW20872   3.976   2.525   4.687
 5219SOL     OW20873   2.255   2.887   4.515
 5219SOL    HW120874   2.304   2.890   4.597
 5219SOL    HW220875   2.307   2.939   4.454
 5219SOL     MW20876   2.268   2.894   4.518
 5220SOL     OW20877   3.062   1.201   2.946
 5220SOL    HW120878   3.006   1.277   2.934
 5220SOL    HW220879   3.010   1.139   2.996
 5220SOL     MW20880   3.048   1.203   2.951
 5221SOL     OW20881   1.480   0.578   3.246
 5221SOL    HW120882   1.478   0.529   3.328
 5221SOL    HW220883   1.520   0.517   3.183
 5221SOL     MW20884   1.485   0.564   3.248
 5222SOL     OW20885   4.929   4.209   2.407
 5222SOL    HW120886   4.840   4.204   2.371
 5222SOL    HW220887   4.917   4.233   2.499
 5222SOL     MW20888   4.916   4.212   2.414
 5223SOL     OW20889   4.075   2.852   4.736
 5223SOL    HW120890   4.108   2.913   4.801
 5223SOL    HW220891   4.140   2.781   4.734
 5223SOL     MW20892   4.088   2.851   4.744
 5224SOL     OW20893   1.641   1.329   2.385
 5224SOL    HW120894   1.592   1.317   2.467
 5224SOL    HW220895   1.602   1.266   2.325
 5224SOL     MW20896   1.630   1.320   2.388
 5225SOL     OW20897   4.565   0.198   2.208
 5225SOL    HW120898   4.543   0.252   2.284
 5225SOL    HW220899   4.658   0.177   2.220
 5225SOL     MW20900   4.574   0.203   2.219
 5226SOL     OW20901   0.992   4.399   4.208
 5226SOL    HW120902   1.044   4.415   4.129
 5226SOL    HW220903   1.056   4.391   4.278
 5226SOL     MW20904   1.007   4.400   4.207
 5227SOL     OW20905   0.283   2.503   2.673
 5227SOL    HW120906   0.204   2.553   2.651
 5227SOL    HW220907   0.302   2.528   2.764
 5227SOL     MW20908   0.275   2.513   2.682
 5228SOL     OW20909   1.434   0.917   0.116
 5228SOL    HW120910   1.346   0.887   0.094
 5228SOL    HW220911   1.450   0.991   0.058
 5228SOL     MW20912   1.425   0.923   0.106
 5229SOL     OW20913   0.246   3.425   4.279
 5229SOL    HW120914   0.334   3.407   4.311
 5229SOL    HW220915   0.203   3.339   4.279
 5229SOL     MW20916   0.251   3.412   4.283
 5230SOL     OW20917   1.218   1.771   5.047
 5230SOL    HW120918   1.147   1.810   5.097
 5230SOL    HW220919   1.247   1.841   4.988
 5230SOL     MW20920   1.213   1.785   5.046
 5231SOL     OW20921   1.383   3.300   0.424
 5231SOL    HW120922   1.438   3.279   0.500
 5231SOL    HW220923   1.444   3.322   0.355
 5231SOL     MW20924   1.398   3.300   0.425
 5232SOL     OW20925   2.857   0.673   2.163
 5232SOL    HW120926   2.861   0.586   2.202
 5232SOL    HW220927   2.797   0.663   2.089
 5232SOL     MW20928   2.850   0.661   2.158
 5233SOL     OW20929   0.109   2.778   5.401
 5233SOL    HW120930   0.148   2.700   5.361
 5233SOL    HW220931   0.184   2.830   5.429
 5233SOL     MW20932   0.124   2.774   5.400
 5234SOL     OW20933   3.095   1.122   1.431
 5234SOL    HW120934   3.039   1.052   1.398
 5234SOL    HW220935   3.081   1.122   1.526
 5234SOL     MW20936   3.086   1.113   1.439
 5235SOL     OW20937   5.132   3.497   5.117
 5235SOL    HW120938   5.111   3.564   5.052
 5235SOL    HW220939   5.153   3.547   5.197
 5235SOL     MW20940   5.132   3.512   5.119
 5236SOL     OW20941   3.595   5.155   4.284
 5236SOL    HW120942   3.548   5.072   4.288
 5236SOL    HW220943   3.680   5.133   4.247
 5236SOL     MW20944   3.600   5.142   4.280
 5237SOL     OW20945   1.724   5.191   1.812
 5237SOL    HW120946   1.701   5.268   1.760
 5237SOL    HW220947   1.640   5.152   1.836
 5237SOL     MW20948   1.711   5.196   1.809
 5238SOL     OW20949   2.207   3.487   4.350
 5238SOL    HW120950   2.249   3.406   4.378
 5238SOL    HW220951   2.218   3.547   4.425
 5238SOL     MW20952   2.214   3.485   4.363
 5239SOL     OW20953   0.820   0.447   4.668
 5239SOL    HW120954   0.746   0.398   4.704
 5239SOL    HW220955   0.801   0.455   4.575
 5239SOL     MW20956   0.808   0.441   4.661
 5240SOL     OW20957   4.454   0.284   0.673
 5240SOL    HW120958   4.529   0.317   0.722
 5240SOL    HW220959   4.412   0.222   0.733
 5240SOL     MW20960   4.458   0.280   0.687
 5241SOL     OW20961   3.335   0.162   4.702
 5241SOL    HW120962   3.366   0.130   4.618
 5241SOL    HW220963   3.241   0.140   4.703
 5241SOL     MW20964   3.327   0.155   4.691
 5242SOL     OW20965   1.150   0.991   3.625
 5242SOL    HW120966   1.107   1.043   3.558
 5242SOL    HW220967   1.193   0.920   3.577
 5242SOL     MW20968   1.150   0.989   3.611
 5243SOL     OW20969   2.706   0.630   0.707
 5243SOL    HW120970   2.766   0.626   0.633
 5243SOL    HW220971   2.748   0.690   0.768
 5243SOL     MW20972   2.719   0.637   0.705
 5244SOL     OW20973   2.098   3.254   1.889
 5244SOL    HW120974   2.059   3.318   1.830
 5244SOL    HW220975   2.027   3.230   1.948
 5244SOL     MW20976   2.084   3.259   1.889
 5245SOL     OW20977   4.230   0.081   3.542
 5245SOL    HW120978   4.192   0.060   3.627
 5245SOL    HW220979   4.199   0.169   3.522
 5245SOL     MW20980   4.221   0.090   3.550
 5246SOL     OW20981   5.302   1.016   3.527
 5246SOL    HW120982   5.333   0.963   3.601
 5246SOL    HW220983   5.380   1.062   3.496
 5246SOL     MW20984   5.316   1.015   3.532
 5247SOL     OW20985   2.941   0.358   0.419
 5247SOL    HW120986   2.936   0.330   0.328
 5247SOL    HW220987   2.895   0.290   0.468
 5247SOL     MW20988   2.935   0.346   0.414
 5248SOL     OW20989   3.479   3.405   3.725
 5248SOL    HW120990   3.455   3.389   3.634
 5248SOL    HW220991   3.396   3.413   3.771
 5248SOL     MW20992   3.466   3.404   3.719
 5249SOL     OW20993   2.249   2.157   2.557
 5249SOL    HW120994   2.273   2.231   2.503
 5249SOL    HW220995   2.263   2.080   2.501
 5249SOL     MW20996   2.254   2.156   2.543
 5250SOL     OW20997   4.508   4.573   2.368
 5250SOL    HW120998   4.547   4.536   2.447
 5250SOL    HW220999   4.438   4.512   2.345
 5250SOL     MW21000   4.504   4.561   2.375
 5251SOL     OW21001   1.143   1.145   0.104
 5251SOL    HW121002   1.227   1.188   0.091
 5251SOL    HW221003   1.157   1.054   0.077
 5251SOL     MW21004   1.155   1.139   0.099
 5252SOL     OW21005   1.982   4.067   2.564
 5252SOL    HW121006   1.979   4.085   2.657
 5252SOL    HW221007   2.057   4.008   2.553
 5252SOL     MW21008   1.992   4.062   2.574
 5253SOL     OW21009   0.078   2.672   2.588
 5253SOL    HW121010   0.111   2.762   2.587
 5253SOL    HW221011   0.009   2.671   2.523
 5253SOL     MW21012   0.073   2.683   2.580
 5254SOL     OW21013   4.420   3.103   2.766
 5254SOL    HW121014   4.436   3.028   2.824
 5254SOL    HW221015   4.398   3.063   2.681
 5254SOL     MW21016   4.420   3.088   2.762
 5255SOL     OW21017   1.072   2.439   0.350
 5255SOL    HW121018   1.105   2.350   0.361
 5255SOL    HW221019   1.016   2.435   0.272
 5255SOL     MW21020   1.069   2.427   0.342
 5256SOL     OW21021   1.396   2.334   2.713
 5256SOL    HW121022   1.394   2.338   2.809
 5256SOL    HW221023   1.324   2.391   2.686
 5256SOL     MW21024   1.386   2.342   2.722
 5257SOL     OW21025   5.325   1.456   5.341
 5257SOL    HW121026   5.366   1.398   5.277
 5257SOL    HW221027   5.235   1.425   5.347
 5257SOL     MW21028   5.319   1.445   5.333
 5258SOL     OW21029   3.110   0.828   3.123
 5258SOL    HW121030   3.045   0.899   3.117
 5258SOL    HW221031   3.148   0.839   3.211
 5258SOL     MW21032   3.106   0.839   3.134
 5259SOL     OW21033   2.783   1.041   1.693
 5259SOL    HW121034   2.785   0.945   1.687
 5259SOL    HW221035   2.875   1.066   1.694
 5259SOL     MW21036   2.795   1.032   1.692
 5260SOL     OW21037   1.532   4.123   4.154
 5260SOL    HW121038   1.572   4.045   4.115
 5260SOL    HW221039   1.586   4.141   4.231
 5260SOL     MW21040   1.544   4.115   4.158
 5261SOL     OW21041   3.482   0.707   2.833
 5261SOL    HW121042   3.488   0.679   2.742
 5261SOL    HW221043   3.391   0.734   2.844
 5261SOL     MW21044   3.471   0.707   2.823
 5262SOL     OW21045   0.181   1.798   3.354
 5262SOL    HW121046   0.086   1.790   3.345
 5262SOL    HW221047   0.216   1.739   3.287
 5262SOL     MW21048   0.173   1.789   3.344
 5263SOL     OW21049   4.301   0.177   2.475
 5263SOL    HW121050   4.369   0.243   2.464
 5263SOL    HW221051   4.241   0.214   2.539
 5263SOL     MW21052   4.302   0.190   2.482
 5264SOL     OW21053   0.810   0.067   4.128
 5264SOL    HW121054   0.834   0.158   4.143
 5264SOL    HW221055   0.844   0.047   4.041
 5264SOL     MW21056   0.817   0.076   4.119
 5265SOL     OW21057   3.558   0.694   0.531
 5265SOL    HW121058   3.488   0.638   0.499
 5265SOL    HW221059   3.572   0.758   0.461
 5265SOL     MW21060   3.551   0.695   0.518
 5266SOL     OW21061   2.455   4.037   3.169
 5266SOL    HW121062   2.532   4.010   3.220
 5266SOL    HW221063   2.481   4.024   3.078
 5266SOL     MW21064   2.468   4.032   3.164
 5267SOL     OW21065   4.924   3.034   3.803
 5267SOL    HW121066   4.904   2.964   3.741
 5267SOL    HW221067   5.009   3.068   3.774
 5267SOL     MW21068   4.932   3.029   3.791
 5268SOL     OW21069   5.480   4.929   5.109
 5268SOL    HW121070   5.477   4.838   5.080
 5268SOL    HW221071   5.413   4.934   5.177
 5268SOL     MW21072   5.471   4.918   5.114
 5269SOL     OW21073   0.474   5.330   2.663
 5269SOL    HW121074   0.528   5.351   2.739
 5269SOL    HW221075   0.449   5.416   2.628
 5269SOL     MW21076   0.478   5.344   2.668
 5270SOL     OW21077   5.158   3.609   0.691
 5270SOL    HW121078   5.226   3.629   0.755
 5270SOL    HW221079   5.202   3.553   0.627
 5270SOL     MW21080   5.173   3.604   0.691
 5271SOL     OW21081   3.507   4.140   5.150
 5271SOL    HW121082   3.584   4.126   5.205
 5271SOL    HW221083   3.483   4.052   5.120
 5271SOL     MW21084   3.514   4.127   5.153
 5272SOL     OW21085   2.148   0.787   4.874
 5272SOL    HW121086   2.161   0.868   4.824
 5272SOL    HW221087   2.215   0.789   4.942
 5272SOL     MW21088   2.158   0.798   4.876
 5273SOL     OW21089   1.716   2.582   4.103
 5273SOL    HW121090   1.691   2.556   4.015
 5273SOL    HW221091   1.769   2.660   4.092
 5273SOL     MW21092   1.720   2.589   4.091
 5274SOL     OW21093   3.929   1.291   2.344
 5274SOL    HW121094   3.960   1.298   2.434
 5274SOL    HW221095   3.967   1.366   2.299
 5274SOL     MW21096   3.938   1.301   2.350
 5275SOL     OW21097   0.693   0.824   0.101
 5275SOL    HW121098   0.656   0.758   0.043
 5275SOL    HW221099   0.788   0.808   0.097
 5275SOL     MW21100   0.700   0.813   0.093
 5276SOL     OW21101   4.992   0.118   2.480
 5276SOL    HW121102   5.085   0.120   2.460
 5276SOL    HW221103   4.973   0.027   2.501
 5276SOL     MW21104   5.001   0.107   2.480
 5277SOL     OW21105   4.298   5.204   5.349
 5277SOL    HW121106   4.258   5.290   5.334
 5277SOL    HW221107   4.233   5.142   5.316
 5277SOL     MW21108   4.284   5.207   5.343
 5278SOL     OW21109   4.151   3.036   4.927
 5278SOL    HW121110   4.213   3.075   4.866
 5278SOL    HW221111   4.192   3.046   5.013
 5278SOL     MW21112   4.164   3.042   4.930
 5279SOL     OW21113   2.787   4.941   1.450
 5279SOL    HW121114   2.770   4.875   1.517
 5279SOL    HW221115   2.732   4.914   1.376
 5279SOL     MW21116   2.777   4.929   1.449
 5280SOL     OW21117   0.993   3.454   1.272
 5280SOL    HW121118   0.992   3.358   1.279
 5280SOL    HW221119   0.955   3.472   1.185
 5280SOL     MW21120   0.988   3.444   1.261
 5281SOL     OW21121   0.872   2.258   3.003
 5281SOL    HW121122   0.825   2.336   3.032
 5281SOL    HW221123   0.824   2.185   3.041
 5281SOL     MW21124   0.860   2.259   3.011
 5282SOL     OW21125   0.319   1.692   0.223
 5282SOL    HW121126   0.326   1.605   0.262
 5282SOL    HW221127   0.401   1.735   0.245
 5282SOL     MW21128   0.330   1.686   0.231
 5283SOL     OW21129   4.586   5.298   4.968
 5283SOL    HW121130   4.501   5.275   5.007
 5283SOL    HW221131   4.578   5.390   4.945
 5283SOL     MW21132   4.574   5.307   4.970
 5284SOL     OW21133   3.806   2.274   0.131
 5284SOL    HW121134   3.737   2.208   0.130
 5284SOL    HW221135   3.811   2.306   0.041
 5284SOL     MW21136   3.798   2.270   0.120
 5285SOL     OW21137   0.139   4.457   3.469
 5285SOL    HW121138   0.229   4.461   3.503
 5285SOL    HW221139   0.140   4.515   3.393
 5285SOL     MW21140   0.151   4.465   3.464
 5286SOL     OW21141   0.673   2.040   0.314
 5286SOL    HW121142   0.764   2.013   0.306
 5286SOL    HW221143   0.666   2.119   0.261
 5286SOL     MW21144   0.684   2.047   0.306
 5287SOL     OW21145   0.652   3.613   1.566
 5287SOL    HW121146   0.570   3.575   1.599
 5287SOL    HW221147   0.639   3.617   1.471
 5287SOL     MW21148   0.640   3.609   1.558
 5288SOL     OW21149   0.663   2.116   1.156
 5288SOL    HW121150   0.684   2.023   1.158
 5288SOL    HW221151   0.606   2.130   1.231
 5288SOL     MW21152   0.658   2.106   1.166
 5289SOL     OW21153   2.912   1.000   4.451
 5289SOL    HW121154   2.927   1.050   4.370
 5289SOL    HW221155   2.985   0.939   4.455
 5289SOL     MW21156   2.923   0.999   4.441
 5290SOL     OW21157   4.613   5.208   0.893
 5290SOL    HW121158   4.655   5.123   0.880
 5290SOL    HW221159   4.535   5.188   0.946
 5290SOL     MW21160   4.608   5.195   0.899
 5291SOL     OW21161   2.740   0.599   4.775
 5291SOL    HW121162   2.708   0.513   4.804
 5291SOL    HW221163   2.672   0.632   4.717
 5291SOL     MW21164   2.727   0.592   4.771
 5292SOL     OW21165   1.214   1.378   4.276
 5292SOL    HW121166   1.264   1.381   4.195
 5292SOL    HW221167   1.211   1.469   4.306
 5292SOL     MW21168   1.220   1.390   4.270
 5293SOL     OW21169   5.137   2.739   3.440
 5293SOL    HW121170   5.127   2.709   3.531
 5293SOL    HW221171   5.121   2.833   3.443
 5293SOL     MW21172   5.134   2.747   3.452
 5294SOL     OW21173   3.228   2.273   2.539
 5294SOL    HW121174   3.296   2.207   2.545
 5294SOL    HW221175   3.188   2.275   2.626
 5294SOL     MW21176   3.231   2.265   2.551
 5295SOL     OW21177   0.423   1.266   4.375
 5295SOL    HW121178   0.500   1.321   4.361
 5295SOL    HW221179   0.378   1.307   4.449
 5295SOL     MW21180   0.427   1.279   4.383
 5296SOL     OW21181   0.231   1.009   2.714
 5296SOL    HW121182   0.225   1.018   2.809
 5296SOL    HW221183   0.311   0.958   2.700
 5296SOL     MW21184   0.241   1.004   2.725
 5297SOL     OW21185   2.952   0.800   2.481
 5297SOL    HW121186   2.948   0.871   2.417
 5297SOL    HW221187   3.004   0.836   2.553
 5297SOL     MW21188   2.958   0.814   2.482
 5298SOL     OW21189   2.340   0.771   3.422
 5298SOL    HW121190   2.313   0.764   3.513
 5298SOL    HW221191   2.417   0.715   3.415
 5298SOL     MW21192   2.346   0.763   3.433
 5299SOL     OW21193   1.021   5.241   1.808
 5299SOL    HW121194   0.937   5.251   1.765
 5299SOL    HW221195   1.077   5.307   1.767
 5299SOL     MW21196   1.018   5.251   1.797
 5300SOL     OW21197   0.784   1.108   3.837
 5300SOL    HW121198   0.715   1.072   3.894
 5300SOL    HW221199   0.737   1.164   3.775
 5300SOL     MW21200   0.769   1.110   3.837
 5301SOL     OW21201   0.779   2.146   0.768
 5301SOL    HW121202   0.718   2.190   0.826
 5301SOL    HW221203   0.823   2.082   0.823
 5301SOL     MW21204   0.777   2.143   0.782
 5302SOL     OW21205   4.998   2.047   5.151
 5302SOL    HW121206   4.956   1.979   5.204
 5302SOL    HW221207   5.034   2.000   5.076
 5302SOL     MW21208   4.997   2.032   5.148
 5303SOL     OW21209   3.658   0.332   2.845
 5303SOL    HW121210   3.690   0.366   2.762
 5303SOL    HW221211   3.578   0.382   2.862
 5303SOL     MW21212   3.651   0.343   2.837
 5304SOL     OW21213   0.385   5.308   0.101
 5304SOL    HW121214   0.434   5.241   0.148
 5304SOL    HW221215   0.295   5.299   0.131
 5304SOL     MW21216   0.380   5.298   0.110
 5305SOL     OW21217   3.451   1.016   1.549
 5305SOL    HW121218   3.517   0.962   1.594
 5305SOL    HW221219   3.497   1.049   1.472
 5305SOL     MW21220   3.466   1.013   1.545
 5306SOL     OW21221   2.731   0.586   4.366
 5306SOL    HW121222   2.656   0.533   4.392
 5306SOL    HW221223   2.740   0.569   4.272
 5306SOL     MW21224   2.722   0.577   4.357
 5307SOL     OW21225   2.884   0.142   4.584
 5307SOL    HW121226   2.933   0.124   4.665
 5307SOL    HW221227   2.922   0.223   4.550
 5307SOL     MW21228   2.895   0.150   4.590
 5308SOL     OW21229   0.344   2.886   0.904
 5308SOL    HW121230   0.397   2.834   0.843
 5308SOL    HW221231   0.303   2.952   0.849
 5308SOL     MW21232   0.346   2.888   0.889
 5309SOL     OW21233   0.927   1.877   0.310
 5309SOL    HW121234   1.023   1.875   0.319
 5309SOL    HW221235   0.895   1.814   0.374
 5309SOL     MW21236   0.935   1.869   0.320
 5310SOL     OW21237   4.616   4.302   0.818
 5310SOL    HW121238   4.565   4.381   0.837
 5310SOL    HW221239   4.688   4.303   0.881
 5310SOL     MW21240   4.618   4.312   0.829
 5311SOL     OW21241   4.043   2.035   4.424
 5311SOL    HW121242   3.956   2.074   4.430
 5311SOL    HW221243   4.029   1.950   4.382
 5311SOL     MW21244   4.030   2.029   4.420
 5312SOL     OW21245   0.874   0.745   2.922
 5312SOL    HW121246   0.883   0.702   2.838
 5312SOL    HW221247   0.801   0.701   2.965
 5312SOL     MW21248   0.866   0.734   2.917
 5313SOL     OW21249   2.464   1.227   3.886
 5313SOL    HW121250   2.483   1.317   3.912
 5313SOL    HW221251   2.374   1.230   3.854
 5313SOL     MW21252   2.455   1.239   3.885
 5314SOL     OW21253   0.551   2.700   3.466
 5314SOL    HW121254   0.551   2.758   3.542
 5314SOL    HW221255   0.461   2.707   3.432
 5314SOL     MW21256   0.539   2.709   3.472
 5315SOL     OW21257   0.255   0.820   0.398
 5315SOL    HW121258   0.295   0.791   0.316
 5315SOL    HW221259   0.216   0.741   0.435
 5315SOL     MW21260   0.255   0.806   0.392
 5316SOL     OW21261   4.103   4.698   0.197
 5316SOL    HW121262   4.067   4.721   0.282
 5316SOL    HW221263   4.026   4.674   0.144
 5316SOL     MW21264   4.088   4.698   0.201
 5317SOL     OW21265   2.069   0.870   1.808
 5317SOL    HW121266   2.030   0.846   1.724
 5317SOL    HW221267   2.042   0.801   1.869
 5317SOL     MW21268   2.061   0.858   1.805
 5318SOL     OW21269   0.772   4.462   1.256
 5318SOL    HW121270   0.692   4.503   1.288
 5318SOL    HW221271   0.830   4.535   1.236
 5318SOL     MW21272   0.769   4.477   1.257
 5319SOL     OW21273   4.013   5.248   0.972
 5319SOL    HW121274   4.057   5.185   1.029
 5319SOL    HW221275   4.082   5.310   0.948
 5319SOL     MW21276   4.027   5.248   0.976
 5320SOL     OW21277   2.849   5.219   0.455
 5320SOL    HW121278   2.864   5.134   0.494
 5320SOL    HW221279   2.935   5.262   0.456
 5320SOL     MW21280   2.862   5.214   0.460
 5321SOL     OW21281   0.382   0.019   4.336
 5321SOL    HW121282   0.425  -0.021   4.411
 5321SOL    HW221283   0.310   0.070   4.374
 5321SOL     MW21284   0.378   0.020   4.350
 5322SOL     OW21285   2.634   1.974   4.235
 5322SOL    HW121286   2.629   1.881   4.212
 5322SOL    HW221287   2.597   1.979   4.323
 5322SOL     MW21288   2.628   1.963   4.243
 5323SOL     OW21289   1.533   5.400   3.142
 5323SOL    HW121290   1.518   5.367   3.230
 5323SOL    HW221291   1.627   5.422   3.141
 5323SOL     MW21292   1.543   5.399   3.153
 5324SOL     OW21293   3.910   4.839   1.567
 5324SOL    HW121294   3.821   4.857   1.537
 5324SOL    HW221295   3.940   4.921   1.606
 5324SOL     MW21296   3.902   4.851   1.568
 5325SOL     OW21297   3.018   1.059   3.478
 5325SOL    HW121298   2.968   1.063   3.560
 5325SOL    HW221299   2.963   1.105   3.414
 5325SOL     MW21300   3.005   1.066   3.480
 5326SOL     OW21301   1.389   3.988   2.984
 5326SOL    HW121302   1.331   4.060   2.958
 5326SOL    HW221303   1.461   4.032   3.030
 5326SOL     MW21304   1.391   4.003   2.987
 5327SOL     OW21305   2.382   4.766   4.786
 5327SOL    HW121306   2.356   4.855   4.763
 5327SOL    HW221307   2.314   4.738   4.848
 5327SOL     MW21308   2.370   4.774   4.791
 5328SOL     OW21309   5.270   0.893   0.009
 5328SOL    HW121310   5.250   0.976  -0.034
 5328SOL    HW221311   5.278   0.914   0.102
 5328SOL     MW21312   5.268   0.906   0.015
 5329SOL     OW21313   0.297   4.646   1.145
 5329SOL    HW121314   0.358   4.574   1.131
 5329SOL    HW221315   0.345   4.709   1.199
 5329SOL     MW21316   0.311   4.645   1.150
 5330SOL     OW21317   4.635   0.695   1.599
 5330SOL    HW121318   4.639   0.611   1.553
 5330SOL    HW221319   4.716   0.739   1.575
 5330SOL     MW21320   4.646   0.690   1.590
 5331SOL     OW21321   4.976   5.153   1.215
 5331SOL    HW121322   4.958   5.233   1.165
 5331SOL    HW221323   5.048   5.176   1.273
 5331SOL     MW21324   4.983   5.166   1.216
 5332SOL     OW21325   1.807   1.402   4.275
 5332SOL    HW121326   1.764   1.440   4.352
 5332SOL    HW221327   1.753   1.431   4.201
 5332SOL     MW21328   1.794   1.410   4.275
 5333SOL     OW21329   0.473   5.051   0.661
 5333SOL    HW121330   0.382   5.061   0.691
 5333SOL    HW221331   0.517   5.006   0.733
 5333SOL     MW21332   0.467   5.047   0.674
 5334SOL     OW21333   2.178   2.250   4.021
 5334SOL    HW121334   2.233   2.256   4.099
 5334SOL    HW221335   2.095   2.213   4.053
 5334SOL     MW21336   2.174   2.246   4.035
 5335SOL     OW21337   4.280   1.226   4.682
 5335SOL    HW121338   4.194   1.202   4.649
 5335SOL    HW221339   4.342   1.181   4.625
 5335SOL     MW21340   4.277   1.217   4.671
 5336SOL     OW21341   1.783   1.916   2.704
 5336SOL    HW121342   1.809   1.879   2.620
 5336SOL    HW221343   1.768   1.840   2.760
 5336SOL     MW21344   1.785   1.902   2.700
 5337SOL     OW21345   4.551   4.049   2.030
 5337SOL    HW121346   4.534   4.066   1.937
 5337SOL    HW221347   4.480   3.991   2.057
 5337SOL     MW21348   4.540   4.043   2.021
 5338SOL     OW21349   4.453   1.352   2.824
 5338SOL    HW121350   4.532   1.403   2.806
 5338SOL    HW221351   4.393   1.376   2.754
 5338SOL     MW21352   4.456   1.362   2.813
 5339SOL     OW21353   0.512   2.367   1.291
 5339SOL    HW121354   0.464   2.390   1.371
 5339SOL    HW221355   0.444   2.359   1.224
 5339SOL     MW21356   0.497   2.369   1.293
 5340SOL     OW21357   0.945   0.723   1.627
 5340SOL    HW121358   0.965   0.785   1.698
 5340SOL    HW221359   0.850   0.712   1.631
 5340SOL     MW21360   0.935   0.730   1.637
 5341SOL     OW21361   1.930   1.712   5.131
 5341SOL    HW121362   2.006   1.737   5.077
 5341SOL    HW221363   1.932   1.774   5.204
 5341SOL     MW21364   1.940   1.723   5.133
 5342SOL     OW21365   3.153   3.580   5.301
 5342SOL    HW121366   3.210   3.553   5.373
 5342SOL    HW221367   3.214   3.610   5.233
 5342SOL     MW21368   3.168   3.581   5.302
 5343SOL     OW21369   3.856   5.493   2.693
 5343SOL    HW121370   3.765   5.500   2.723
 5343SOL    HW221371   3.858   5.412   2.641
 5343SOL     MW21372   3.844   5.484   2.690
 5344SOL     OW21373   4.341   2.190   3.810
 5344SOL    HW121374   4.377   2.146   3.733
 5344SOL    HW221375   4.251   2.157   3.817
 5344SOL     MW21376   4.334   2.181   3.801
 5345SOL     OW21377   1.178   2.802   0.949
 5345SOL    HW121378   1.269   2.781   0.971
 5345SOL    HW221379   1.185   2.876   0.889
 5345SOL     MW21380   1.191   2.808   0.944
 5346SOL     OW21381   1.898   0.353   5.230
 5346SOL    HW121382   1.829   0.377   5.168
 5346SOL    HW221383   1.969   0.322   5.175
 5346SOL     MW21384   1.898   0.352   5.215
 5347SOL     OW21385   5.470   2.869   4.407
 5347SOL    HW121386   5.398   2.808   4.392
 5347SOL    HW221387   5.546   2.825   4.368
 5347SOL     MW21388   5.471   2.855   4.400
 5348SOL     OW21389   4.643   3.259   0.437
 5348SOL    HW121390   4.566   3.221   0.479
 5348SOL    HW221391   4.618   3.350   0.418
 5348SOL     MW21392   4.630   3.266   0.440
 5349SOL     OW21393   4.369   1.823   0.878
 5349SOL    HW121394   4.396   1.798   0.790
 5349SOL    HW221395   4.399   1.752   0.934
 5349SOL     MW21396   4.377   1.811   0.874
 5350SOL     OW21397   3.808   1.544   4.529
 5350SOL    HW121398   3.879   1.488   4.561
 5350SOL    HW221399   3.814   1.539   4.434
 5350SOL     MW21400   3.818   1.537   4.521
 5351SOL     OW21401   2.349   0.215   1.131
 5351SOL    HW121402   2.275   0.215   1.070
 5351SOL    HW221403   2.420   0.257   1.082
 5351SOL     MW21404   2.349   0.221   1.117
 5352SOL     OW21405   4.039   2.014   4.879
 5352SOL    HW121406   4.048   1.940   4.819
 5352SOL    HW221407   4.052   2.091   4.825
 5352SOL     MW21408   4.042   2.014   4.865
 5353SOL     OW21409   1.231   0.386   5.267
 5353SOL    HW121410   1.143   0.360   5.295
 5353SOL    HW221411   1.251   0.462   5.321
 5353SOL     MW21412   1.222   0.392   5.278
 5354SOL     OW21413   0.640   1.822   3.009
 5354SOL    HW121414   0.651   1.910   3.045
 5354SOL    HW221415   0.580   1.779   3.069
 5354SOL     MW21416   0.634   1.828   3.021
 5355SOL     OW21417   3.953   1.021   1.180
 5355SOL    HW121418   3.874   1.000   1.131
 5355SOL    HW221419   4.008   1.069   1.119
 5355SOL     MW21420   3.950   1.024   1.166
 5356SOL     OW21421   2.650   1.186   0.302
 5356SOL    HW121422   2.660   1.116   0.367
 5356SOL    HW221423   2.565   1.169   0.262
 5356SOL     MW21424   2.640   1.175   0.305
 5357SOL     OW21425   3.668   3.444   4.465
 5357SOL    HW121426   3.672   3.429   4.560
 5357SOL    HW221427   3.720   3.374   4.427
 5357SOL     MW21428   3.675   3.433   4.472
 5358SOL     OW21429   4.483   2.297   4.473
 5358SOL    HW121430   4.496   2.217   4.421
 5358SOL    HW221431   4.491   2.268   4.564
 5358SOL     MW21432   4.486   2.283   4.478
 5359SOL     OW21433   1.366   2.988   4.423
 5359SOL    HW121434   1.398   3.018   4.508
 5359SOL    HW221435   1.316   2.909   4.442
 5359SOL     MW21436   1.364   2.982   4.436
 5360SOL     OW21437   3.304   2.757   3.154
 5360SOL    HW121438   3.372   2.694   3.181
 5360SOL    HW221439   3.222   2.710   3.166
 5360SOL     MW21440   3.302   2.743   3.159
 5361SOL     OW21441   1.799   4.535   0.138
 5361SOL    HW121442   1.886   4.536   0.099
 5361SOL    HW221443   1.812   4.499   0.226
 5361SOL     MW21444   1.812   4.530   0.144
 5362SOL     OW21445   2.966   2.785   0.666
 5362SOL    HW121446   2.993   2.860   0.718
 5362SOL    HW221447   2.988   2.808   0.576
 5362SOL     MW21448   2.972   2.797   0.662
 5363SOL     OW21449   0.980   4.178   2.046
 5363SOL    HW121450   0.963   4.183   2.140
 5363SOL    HW221451   1.020   4.262   2.025
 5363SOL     MW21452   0.983   4.190   2.056
 5364SOL     OW21453   2.614   3.898   3.832
 5364SOL    HW121454   2.535   3.949   3.847
 5364SOL    HW221455   2.650   3.932   3.750
 5364SOL     MW21456   2.608   3.909   3.824
 5365SOL     OW21457   4.238   1.671   2.714
 5365SOL    HW121458   4.178   1.721   2.658
 5365SOL    HW221459   4.252   1.589   2.667
 5365SOL     MW21460   4.232   1.667   2.701
 5366SOL     OW21461   3.115   5.005   5.426
 5366SOL    HW121462   3.137   5.097   5.442
 5366SOL    HW221463   3.065   4.979   5.503
 5366SOL     MW21464   3.111   5.013   5.438
 5367SOL     OW21465   1.359   4.914   3.379
 5367SOL    HW121466   1.370   5.004   3.408
 5367SOL    HW221467   1.368   4.861   3.458
 5367SOL     MW21468   1.362   4.919   3.393
 5368SOL     OW21469   1.598   2.214   1.957
 5368SOL    HW121470   1.616   2.159   1.881
 5368SOL    HW221471   1.649   2.293   1.944
 5368SOL     MW21472   1.607   2.217   1.946
 5369SOL     OW21473   4.331   2.092   0.896
 5369SOL    HW121474   4.344   2.108   0.990
 5369SOL    HW221475   4.336   1.996   0.888
 5369SOL     MW21476   4.334   2.082   0.907
 5370SOL     OW21477   2.912   3.899   2.696
 5370SOL    HW121478   3.005   3.899   2.720
 5370SOL    HW221479   2.870   3.954   2.763
 5370SOL     MW21480   2.919   3.906   2.708
 5371SOL     OW21481   2.522   0.696   1.029
 5371SOL    HW121482   2.441   0.700   1.079
 5371SOL    HW221483   2.592   0.709   1.094
 5371SOL     MW21484   2.521   0.698   1.044
 5372SOL     OW21485   1.219   3.520   0.447
 5372SOL    HW121486   1.281   3.448   0.445
 5372SOL    HW221487   1.270   3.597   0.422
 5372SOL     MW21488   1.233   3.521   0.444
 5373SOL     OW21489   4.361   2.650   1.040
 5373SOL    HW121490   4.400   2.733   1.011
 5373SOL    HW221491   4.435   2.599   1.072
 5373SOL     MW21492   4.376   2.654   1.040
 5374SOL     OW21493   3.418   4.673   5.250
 5374SOL    HW121494   3.394   4.587   5.217
 5374SOL    HW221495   3.378   4.677   5.337
 5374SOL     MW21496   3.410   4.663   5.257
 5375SOL     OW21497   3.449   0.534   3.256
 5375SOL    HW121498   3.354   0.540   3.243
 5375SOL    HW221499   3.464   0.572   3.342
 5375SOL     MW21500   3.439   0.540   3.265
 5376SOL     OW21501   5.264   2.973   3.933
 5376SOL    HW121502   5.190   2.947   3.988
 5376SOL    HW221503   5.235   3.054   3.892
 5376SOL     MW21504   5.251   2.980   3.934
 5377SOL     OW21505   5.032   1.985   3.078
 5377SOL    HW121506   5.088   2.013   3.005
 5377SOL    HW221507   5.088   1.995   3.155
 5377SOL     MW21508   5.047   1.990   3.079
 5378SOL     OW21509   5.135   0.194   0.522
 5378SOL    HW121510   5.197   0.224   0.589
 5378SOL    HW221511   5.188   0.183   0.444
 5378SOL     MW21512   5.150   0.197   0.521
 5379SOL     OW21513   0.554   4.573   1.382
 5379SOL    HW121514   0.499   4.495   1.394
 5379SOL    HW221515   0.580   4.598   1.471
 5379SOL     MW21516   0.550   4.566   1.395
 5380SOL     OW21517   2.137   3.931   3.091
 5380SOL    HW121518   2.164   3.907   3.002
 5380SOL    HW221519   2.201   3.888   3.148
 5380SOL     MW21520   2.148   3.922   3.087
 5381SOL     OW21521   0.793   1.562   1.128
 5381SOL    HW121522   0.873   1.524   1.165
 5381SOL    HW221523   0.723   1.504   1.159
 5381SOL     MW21524   0.795   1.550   1.137
 5382SOL     OW21525   4.556   5.257   4.699
 5382SOL    HW121526   4.566   5.274   4.793
 5382SOL    HW221527   4.640   5.218   4.673
 5382SOL     MW21528   4.568   5.254   4.707
 5383SOL     OW21529   0.312   3.271   2.435
 5383SOL    HW121530   0.369   3.236   2.503
 5383SOL    HW221531   0.290   3.196   2.381
 5383SOL     MW21532   0.317   3.257   2.437
 5384SOL     OW21533   3.542   4.370   0.475
 5384SOL    HW121534   3.502   4.414   0.550
 5384SOL    HW221535   3.482   4.297   0.455
 5384SOL     MW21536   3.529   4.366   0.482
 5385SOL     OW21537   1.760   4.589   0.600
 5385SOL    HW121538   1.776   4.538   0.680
 5385SOL    HW221539   1.842   4.636   0.585
 5385SOL     MW21540   1.773   4.588   0.608
 5386SOL     OW21541   5.052   5.281   4.563
 5386SOL    HW121542   5.045   5.312   4.473
 5386SOL    HW221543   5.046   5.361   4.616
 5386SOL     MW21544   5.050   5.296   4.559
 5387SOL     OW21545   1.790   4.304   1.574
 5387SOL    HW121546   1.779   4.375   1.637
 5387SOL    HW221547   1.755   4.227   1.618
 5387SOL     MW21548   1.784   4.303   1.588
 5388SOL     OW21549   4.852   2.604   1.018
 5388SOL    HW121550   4.877   2.527   0.967
 5388SOL    HW221551   4.871   2.580   1.108
 5388SOL     MW21552   4.857   2.591   1.023
 5389SOL     OW21553   2.445   2.005   4.842
 5389SOL    HW121554   2.514   1.948   4.808
 5389SOL    HW221555   2.427   2.066   4.771
 5389SOL     MW21556   2.452   2.006   4.829
 5390SOL     OW21557   4.540   0.427   0.441
 5390SOL    HW121558   4.566   0.380   0.361
 5390SOL    HW221559   4.521   0.358   0.504
 5390SOL     MW21560   4.541   0.412   0.439
 5391SOL     OW21561   1.749   2.310   4.135
 5391SOL    HW121562   1.679   2.286   4.075
 5391SOL    HW221563   1.756   2.405   4.128
 5391SOL     MW21564   1.741   2.319   4.127
 5392SOL     OW21565   3.516   2.384   2.216
 5392SOL    HW121566   3.481   2.396   2.304
 5392SOL    HW221567   3.452   2.427   2.159
 5392SOL     MW21568   3.503   2.391   2.220
 5393SOL     OW21569   2.020   4.795   2.750
 5393SOL    HW121570   1.983   4.852   2.683
 5393SOL    HW221571   2.009   4.707   2.715
 5393SOL     MW21572   2.014   4.791   2.737
 5394SOL     OW21573   0.409   2.153   0.350
 5394SOL    HW121574   0.477   2.088   0.366
 5394SOL    HW221575   0.327   2.106   0.362
 5394SOL     MW21576   0.407   2.139   0.354
 5395SOL     OW21577   1.315   2.403   1.205
 5395SOL    HW121578   1.351   2.400   1.294
 5395SOL    HW221579   1.258   2.481   1.206
 5395SOL     MW21580   1.312   2.413   1.217
 5396SOL     OW21581   3.825   3.058   3.236
 5396SOL    HW121582   3.879   3.136   3.248
 5396SOL    HW221583   3.888   2.986   3.233
 5396SOL     MW21584   3.840   3.059   3.237
 5397SOL     OW21585   1.716   0.692   4.811
 5397SOL    HW121586   1.624   0.700   4.834
 5397SOL    HW221587   1.728   0.751   4.736
 5397SOL     MW21588   1.706   0.701   4.804
 5398SOL     OW21589   2.301   0.026   3.184
 5398SOL    HW121590   2.235  -0.032   3.144
 5398SOL    HW221591   2.266   0.044   3.272
 5398SOL     MW21592   2.288   0.021   3.190
 5399SOL     OW21593   3.125   3.947   0.895
 5399SOL    HW121594   3.159   3.865   0.929
 5399SOL    HW221595   3.179   4.014   0.936
 5399SOL     MW21596   3.136   3.945   0.905
 5400SOL     OW21597   4.526   3.757   2.909
 5400SOL    HW121598   4.555   3.749   2.818
 5400SOL    HW221599   4.470   3.835   2.909
 5400SOL     MW21600   4.523   3.766   2.897
 5401SOL     OW21601   5.199   4.895   1.526
 5401SOL    HW121602   5.287   4.872   1.556
 5401SOL    HW221603   5.209   4.911   1.432
 5401SOL     MW21604   5.211   4.894   1.517
 5402SOL     OW21605   2.391   4.922   0.289
 5402SOL    HW121606   2.330   4.966   0.229
 5402SOL    HW221607   2.454   4.989   0.312
 5402SOL     MW21608   2.391   4.936   0.284
 5403SOL     OW21609   1.944   5.357   3.558
 5403SOL    HW121610   1.874   5.384   3.617
 5403SOL    HW221611   1.900   5.310   3.488
 5403SOL     MW21612   1.929   5.354   3.557
 5404SOL     OW21613   0.491   0.003   0.597
 5404SOL    HW121614   0.430   0.003   0.670
 5404SOL    HW221615   0.577  -0.004   0.637
 5404SOL     MW21616   0.494   0.002   0.611
 5405SOL     OW21617   1.179   3.785   3.994
 5405SOL    HW121618   1.098   3.735   3.981
 5405SOL    HW221619   1.158   3.848   4.063
 5405SOL     MW21620   1.166   3.787   4.001
 5406SOL     OW21621   3.029   0.338   2.412
 5406SOL    HW121622   3.016   0.322   2.506
 5406SOL    HW221623   3.073   0.422   2.408
 5406SOL     MW21624   3.033   0.347   2.424
 5407SOL     OW21625   0.889   3.011   2.602
 5407SOL    HW121626   0.831   2.947   2.645
 5407SOL    HW221627   0.849   3.024   2.516
 5407SOL     MW21628   0.876   3.004   2.597
 5408SOL     OW21629   1.403   3.396   2.672
 5408SOL    HW121630   1.321   3.427   2.711
 5408SOL    HW221631   1.448   3.351   2.744
 5408SOL     MW21632   1.398   3.394   2.686
 5409SOL     OW21633   4.814   1.012   5.182
 5409SOL    HW121634   4.817   1.008   5.087
 5409SOL    HW221635   4.794   0.922   5.209
 5409SOL     MW21636   4.812   1.000   5.173
 5410SOL     OW21637   0.687   4.074   3.909
 5410SOL    HW121638   0.770   4.092   3.864
 5410SOL    HW221639   0.662   4.158   3.947
 5410SOL     MW21640   0.694   4.087   3.908
 5411SOL     OW21641   3.397   1.372   1.901
 5411SOL    HW121642   3.390   1.307   1.831
 5411SOL    HW221643   3.377   1.323   1.981
 5411SOL     MW21644   3.394   1.357   1.903
 5412SOL     OW21645   2.955   2.406   2.408
 5412SOL    HW121646   2.911   2.323   2.427
 5412SOL    HW221647   2.971   2.405   2.314
 5412SOL     MW21648   2.951   2.395   2.399
 5413SOL     OW21649   5.028   0.654   1.695
 5413SOL    HW121650   4.995   0.568   1.671
 5413SOL    HW221651   5.114   0.660   1.653
 5413SOL     MW21652   5.035   0.644   1.687
 5414SOL     OW21653   2.539   0.245   5.084
 5414SOL    HW121654   2.570   0.288   5.004
 5414SOL    HW221655   2.583   0.160   5.085
 5414SOL     MW21656   2.548   0.240   5.074
 5415SOL     OW21657   1.870   2.406   2.623
 5415SOL    HW121658   1.852   2.380   2.713
 5415SOL    HW221659   1.783   2.413   2.583
 5415SOL     MW21660   1.856   2.404   2.630
 5416SOL     OW21661   2.060   3.738   0.794
 5416SOL    HW121662   2.143   3.751   0.748
 5416SOL    HW221663   2.051   3.643   0.801
 5416SOL     MW21664   2.070   3.727   0.789
 5417SOL     OW21665   2.945   4.286   2.754
 5417SOL    HW121666   2.979   4.306   2.841
 5417SOL    HW221667   3.015   4.238   2.711
 5417SOL     MW21668   2.958   4.282   2.760
 5418SOL     OW21669   0.642   3.107   4.861
 5418SOL    HW121670   0.619   3.196   4.887
 5418SOL    HW221671   0.700   3.076   4.931
 5418SOL     MW21672   0.647   3.114   4.873
 5419SOL     OW21673   0.710   4.986   4.277
 5419SOL    HW121674   0.730   4.995   4.184
 5419SOL    HW221675   0.649   4.912   4.281
 5419SOL     MW21676   0.705   4.977   4.266
 5420SOL     OW21677   4.972   1.128   2.173
 5420SOL    HW121678   4.946   1.045   2.133
 5420SOL    HW221679   5.047   1.157   2.122
 5420SOL     MW21680   4.978   1.121   2.162
 5421SOL     OW21681   5.422   3.750   4.805
 5421SOL    HW121682   5.338   3.734   4.762
 5421SOL    HW221683   5.434   3.845   4.800
 5421SOL     MW21684   5.413   3.760   4.799
 5422SOL     OW21685   2.441   0.090   4.715
 5422SOL    HW121686   2.498   0.019   4.745
 5422SOL    HW221687   2.394   0.117   4.794
 5422SOL     MW21688   2.442   0.084   4.729
 5423SOL     OW21689   4.133   2.817   0.726
 5423SOL    HW121690   4.039   2.836   0.717
 5423SOL    HW221691   4.173   2.859   0.650
 5423SOL     MW21692   4.126   2.825   0.715
 5424SOL     OW21693   2.963   2.922   1.615
 5424SOL    HW121694   2.933   2.924   1.706
 5424SOL    HW221695   3.059   2.919   1.621
 5424SOL     MW21696   2.972   2.922   1.627
 5425SOL     OW21697   4.213   3.545   3.880
 5425SOL    HW121698   4.189   3.460   3.843
 5425SOL    HW221699   4.285   3.526   3.940
 5425SOL     MW21700   4.220   3.532   3.883
 5426SOL     OW21701   2.238   4.710   3.111
 5426SOL    HW121702   2.241   4.737   3.203
 5426SOL    HW221703   2.204   4.787   3.065
 5426SOL     MW21704   2.234   4.723   3.117
 5427SOL     OW21705   0.888   1.942   4.009
 5427SOL    HW121706   0.882   1.974   3.918
 5427SOL    HW221707   0.956   1.997   4.048
 5427SOL     MW21708   0.896   1.953   4.002
 5428SOL     OW21709   1.659   2.723   1.199
 5428SOL    HW121710   1.728   2.783   1.227
 5428SOL    HW221711   1.662   2.651   1.263
 5428SOL     MW21712   1.668   2.721   1.211
 5429SOL     OW21713   3.670   0.423   0.019
 5429SOL    HW121714   3.626   0.337   0.017
 5429SOL    HW221715   3.634   0.466   0.096
 5429SOL     MW21716   3.660   0.417   0.028
 5430SOL     OW21717   0.364   1.146   2.304
 5430SOL    HW121718   0.347   1.174   2.394
 5430SOL    HW221719   0.300   1.194   2.251
 5430SOL     MW21720   0.353   1.156   2.309
 5431SOL     OW21721   2.908   4.258   3.339
 5431SOL    HW121722   2.945   4.174   3.367
 5431SOL    HW221723   2.873   4.241   3.251
 5431SOL     MW21724   2.908   4.245   3.331
 5432SOL     OW21725   2.420   5.236   2.860
 5432SOL    HW121726   2.422   5.141   2.869
 5432SOL    HW221727   2.442   5.269   2.947
 5432SOL     MW21728   2.423   5.228   2.872
 5433SOL     OW21729   3.384   4.683   0.598
 5433SOL    HW121730   3.336   4.766   0.604
 5433SOL    HW221731   3.453   4.691   0.663
 5433SOL     MW21732   3.386   4.695   0.607
 5434SOL     OW21733   4.453   3.972   4.090
 5434SOL    HW121734   4.412   4.007   4.012
 5434SOL    HW221735   4.539   4.015   4.094
 5434SOL     MW21736   4.459   3.982   4.081
 5435SOL     OW21737   1.350   3.235   3.785
 5435SOL    HW121738   1.311   3.323   3.777
 5435SOL    HW221739   1.393   3.235   3.870
 5435SOL     MW21740   1.351   3.246   3.795
 5436SOL     OW21741   4.858   4.422   4.585
 5436SOL    HW121742   4.852   4.509   4.625
 5436SOL    HW221743   4.948   4.394   4.601
 5436SOL     MW21744   4.869   4.430   4.593
 5437SOL     OW21745   4.444   4.944   4.626
 5437SOL    HW121746   4.385   5.017   4.648
 5437SOL    HW221747   4.393   4.865   4.644
 5437SOL     MW21748   4.430   4.944   4.631
 5438SOL     OW21749   2.981   5.148   1.706
 5438SOL    HW121750   2.913   5.176   1.645
 5438SOL    HW221751   3.059   5.194   1.677
 5438SOL     MW21752   2.982   5.158   1.694
 5439SOL     OW21753   1.594   1.181   0.713
 5439SOL    HW121754   1.501   1.168   0.697
 5439SOL    HW221755   1.637   1.153   0.633
 5439SOL     MW21756   1.588   1.176   0.701
 5440SOL     OW21757   2.003   4.549   5.441
 5440SOL    HW121758   1.990   4.643   5.452
 5440SOL    HW221759   1.963   4.528   5.357
 5440SOL     MW21760   1.996   4.558   5.432
 5441SOL     OW21761   3.533   2.589   5.119
 5441SOL    HW121762   3.543   2.504   5.078
 5441SOL    HW221763   3.438   2.600   5.131
 5441SOL     MW21764   3.522   2.580   5.115
 5442SOL     OW21765   3.835   2.921   1.333
 5442SOL    HW121766   3.852   2.872   1.413
 5442SOL    HW221767   3.762   2.874   1.291
 5442SOL     MW21768   3.828   2.909   1.338
 5443SOL     OW21769   0.123   5.282   0.187
 5443SOL    HW121770   0.092   5.217   0.123
 5443SOL    HW221771   0.044   5.331   0.211
 5443SOL     MW21772   0.109   5.280   0.182
 5444SOL     OW21773   1.450   0.002   3.678
 5444SOL    HW121774   1.359  -0.026   3.675
 5444SOL    HW221775   1.446   0.096   3.698
 5444SOL     MW21776   1.438   0.011   3.680
 5445SOL     OW21777   2.210   1.183   3.807
 5445SOL    HW121778   2.115   1.188   3.818
 5445SOL    HW221779   2.223   1.167   3.714
 5445SOL     MW21780   2.200   1.181   3.797
 5446SOL     OW21781   3.062   2.969   2.287
 5446SOL    HW121782   3.107   2.935   2.365
 5446SOL    HW221783   3.033   2.890   2.241
 5446SOL     MW21784   3.064   2.955   2.291
 5447SOL     OW21785   3.933   1.311   1.898
 5447SOL    HW121786   3.991   1.288   1.826
 5447SOL    HW221787   3.911   1.228   1.939
 5447SOL     MW21788   3.938   1.297   1.894
 5448SOL     OW21789   0.845   3.426   4.114
 5448SOL    HW121790   0.844   3.331   4.107
 5448SOL    HW221791   0.755   3.453   4.097
 5448SOL     MW21792   0.833   3.418   4.111
 5449SOL     OW21793   5.009   5.373   0.796
 5449SOL    HW121794   4.942   5.400   0.733
 5449SOL    HW221795   5.062   5.452   0.809
 5449SOL     MW21796   5.007   5.387   0.789
 5450SOL     OW21797   4.432   2.849   5.028
 5450SOL    HW121798   4.466   2.819   5.112
 5450SOL    HW221799   4.361   2.788   5.008
 5450SOL     MW21800   4.427   2.837   5.036
 5451SOL     OW21801   5.014   5.310   1.779
 5451SOL    HW121802   5.013   5.214   1.787
 5451SOL    HW221803   4.964   5.340   1.855
 5451SOL     MW21804   5.007   5.302   1.790
 5452SOL     OW21805   0.388   0.304   1.992
 5452SOL    HW121806   0.320   0.363   2.026
 5452SOL    HW221807   0.363   0.218   2.024
 5452SOL     MW21808   0.376   0.301   2.001
 5453SOL     OW21809   2.726   2.271   5.249
 5453SOL    HW121810   2.646   2.316   5.221
 5453SOL    HW221811   2.696   2.186   5.280
 5453SOL     MW21812   2.712   2.266   5.249
 5454SOL     OW21813   1.471   3.851   4.947
 5454SOL    HW121814   1.467   3.876   5.039
 5454SOL    HW221815   1.384   3.872   4.913
 5454SOL     MW21816   1.459   3.857   4.954
 5455SOL     OW21817   1.487   3.544   5.108
 5455SOL    HW121818   1.575   3.580   5.119
 5455SOL    HW221819   1.464   3.564   5.018
 5455SOL     MW21820   1.495   3.551   5.098
 5456SOL     OW21821   1.019   0.422   1.999
 5456SOL    HW121822   1.091   0.378   1.952
 5456SOL    HW221823   1.040   0.408   2.092
 5456SOL     MW21824   1.031   0.414   2.005
 5457SOL     OW21825   2.305   4.847   4.355
 5457SOL    HW121826   2.355   4.928   4.368
 5457SOL    HW221827   2.345   4.785   4.416
 5457SOL     MW21828   2.316   4.850   4.365
 5458SOL     OW21829   4.030   2.580   0.014
 5458SOL    HW121830   3.986   2.519  -0.045
 5458SOL    HW221831   3.962   2.643   0.039
 5458SOL     MW21832   4.016   2.580   0.010
 5459SOL     OW21833   2.484   0.133   0.375
 5459SOL    HW121834   2.402   0.093   0.404
 5459SOL    HW221835   2.549   0.063   0.383
 5459SOL     MW21836   2.482   0.119   0.379
 5460SOL     OW21837   5.108   0.525   1.159
 5460SOL    HW121838   5.024   0.524   1.113
 5460SOL    HW221839   5.146   0.438   1.140
 5460SOL     MW21840   5.102   0.513   1.151
 5461SOL     OW21841   0.718   1.647   4.232
 5461SOL    HW121842   0.753   1.677   4.317
 5461SOL    HW221843   0.676   1.564   4.252
 5461SOL     MW21844   0.717   1.640   4.246
 5462SOL     OW21845   4.905   5.399   4.069
 5462SOL    HW121846   4.947   5.352   4.141
 5462SOL    HW221847   4.812   5.397   4.092
 5462SOL     MW21848   4.898   5.393   4.081
 5463SOL     OW21849   0.227   2.766   3.711
 5463SOL    HW121850   0.215   2.801   3.623
 5463SOL    HW221851   0.206   2.839   3.769
 5463SOL     MW21852   0.223   2.780   3.707
 5464SOL     OW21853   1.526   3.581   1.246
 5464SOL    HW121854   1.531   3.659   1.302
 5464SOL    HW221855   1.451   3.532   1.280
 5464SOL     MW21856   1.517   3.585   1.258
 5465SOL     OW21857   0.264   3.321   1.548
 5465SOL    HW121858   0.214   3.323   1.466
 5465SOL    HW221859   0.198   3.333   1.617
 5465SOL     MW21860   0.249   3.323   1.546
 5466SOL     OW21861   1.332   2.076   2.271
 5466SOL    HW121862   1.300   2.017   2.203
 5466SOL    HW221863   1.310   2.164   2.239
 5466SOL     MW21864   1.325   2.080   2.258
 5467SOL     OW21865   5.089   3.993   3.488
 5467SOL    HW121866   4.994   4.002   3.481
 5467SOL    HW221867   5.122   4.083   3.492
 5467SOL     MW21868   5.081   4.006   3.488
 5468SOL     OW21869   5.122   2.221   0.892
 5468SOL    HW121870   5.062   2.148   0.878
 5468SOL    HW221871   5.072   2.298   0.866
 5468SOL     MW21872   5.108   2.221   0.887
 5469SOL     OW21873   3.768   2.367   4.197
 5469SOL    HW121874   3.845   2.320   4.167
 5469SOL    HW221875   3.774   2.365   4.293
 5469SOL     MW21876   3.779   2.361   4.206
 5470SOL     OW21877   4.365   2.675   1.460
 5470SOL    HW121878   4.291   2.681   1.399
 5470SOL    HW221879   4.438   2.715   1.413
 5470SOL     MW21880   4.365   2.681   1.446
 5471SOL     OW21881   1.235   4.494   0.646
 5471SOL    HW121882   1.236   4.540   0.561
 5471SOL    HW221883   1.309   4.434   0.641
 5471SOL     MW21884   1.245   4.492   0.634
 5472SOL     OW21885   0.781   2.933   1.819
 5472SOL    HW121886   0.793   3.018   1.777
 5472SOL    HW221887   0.723   2.885   1.760
 5472SOL     MW21888   0.775   2.938   1.806
 5473SOL     OW21889   0.199   1.563   2.946
 5473SOL    HW121890   0.161   1.501   2.884
 5473SOL    HW221891   0.238   1.631   2.891
 5473SOL     MW21892   0.199   1.564   2.931
 5474SOL     OW21893   0.417   0.827   2.101
 5474SOL    HW121894   0.351   0.854   2.165
 5474SOL    HW221895   0.422   0.899   2.039
 5474SOL     MW21896   0.409   0.839   2.101
 5475SOL     OW21897   3.004   4.371   4.926
 5475SOL    HW121898   2.981   4.278   4.916
 5475SOL    HW221899   2.981   4.392   5.016
 5475SOL     MW21900   2.998   4.361   4.936
 5476SOL     OW21901   3.064   2.022   2.937
 5476SOL    HW121902   3.023   1.954   2.990
 5476SOL    HW221903   3.046   1.997   2.847
 5476SOL     MW21904   3.057   2.010   2.932
 5477SOL     OW21905   4.266   2.402   4.603
 5477SOL    HW121906   4.337   2.380   4.544
 5477SOL    HW221907   4.268   2.334   4.671
 5477SOL     MW21908   4.275   2.391   4.604
 5478SOL     OW21909   5.085   4.079   3.983
 5478SOL    HW121910   5.159   4.046   3.932
 5478SOL    HW221911   5.093   4.175   3.977
 5478SOL     MW21912   5.096   4.087   3.975
 5479SOL     OW21913   1.069   4.357   4.858
 5479SOL    HW121914   1.008   4.382   4.789
 5479SOL    HW221915   1.124   4.289   4.819
 5479SOL     MW21916   1.068   4.351   4.844
 5480SOL     OW21917   0.408   3.630   0.034
 5480SOL    HW121918   0.328   3.609   0.084
 5480SOL    HW221919   0.476   3.636   0.101
 5480SOL     MW21920   0.406   3.628   0.049
 5481SOL     OW21921   3.549   0.761   4.418
 5481SOL    HW121922   3.486   0.692   4.437
 5481SOL    HW221923   3.496   0.832   4.380
 5481SOL     MW21924   3.534   0.761   4.416
 5482SOL     OW21925   3.814   4.594   3.552
 5482SOL    HW121926   3.721   4.582   3.567
 5482SOL    HW221927   3.857   4.548   3.624
 5482SOL     MW21928   3.808   4.587   3.563
 5483SOL     OW21929   4.816   2.418   2.105
 5483SOL    HW121930   4.761   2.389   2.032
 5483SOL    HW221931   4.758   2.471   2.160
 5483SOL     MW21932   4.802   2.421   2.103
 5484SOL     OW21933   4.117   0.312   0.919
 5484SOL    HW121934   4.169   0.372   0.866
 5484SOL    HW221935   4.048   0.283   0.860
 5484SOL     MW21936   4.115   0.316   0.905
 5485SOL     OW21937   3.740   1.720   1.282
 5485SOL    HW121938   3.715   1.809   1.307
 5485SOL    HW221939   3.790   1.731   1.201
 5485SOL     MW21940   3.743   1.733   1.275
 5486SOL     OW21941   1.687   3.238   1.545
 5486SOL    HW121942   1.748   3.174   1.510
 5486SOL    HW221943   1.694   3.314   1.486
 5486SOL     MW21944   1.695   3.240   1.533
 5487SOL     OW21945   2.210   3.443   3.958
 5487SOL    HW121946   2.125   3.398   3.957
 5487SOL    HW221947   2.188   3.536   3.968
 5487SOL     MW21948   2.196   3.449   3.959
 5488SOL     OW21949   2.595   3.971   4.611
 5488SOL    HW121950   2.506   3.956   4.644
 5488SOL    HW221951   2.651   3.930   4.676
 5488SOL     MW21952   2.591   3.964   4.624
 5489SOL     OW21953   1.380   4.615   4.599
 5489SOL    HW121954   1.345   4.574   4.678
 5489SOL    HW221955   1.315   4.682   4.576
 5489SOL     MW21956   1.367   4.618   4.606
 5490SOL     OW21957   0.337   3.409   4.795
 5490SOL    HW121958   0.275   3.482   4.789
 5490SOL    HW221959   0.288   3.334   4.761
 5490SOL     MW21960   0.323   3.409   4.790
 5491SOL     OW21961   2.950   2.151   4.033
 5491SOL    HW121962   3.038   2.187   4.036
 5491SOL    HW221963   2.911   2.174   4.117
 5491SOL     MW21964   2.956   2.158   4.044
 5492SOL     OW21965   5.291   1.829   4.285
 5492SOL    HW121966   5.331   1.912   4.261
 5492SOL    HW221967   5.203   1.852   4.314
 5492SOL     MW21968   5.285   1.842   4.285
 5493SOL     OW21969   2.988   3.685   3.659
 5493SOL    HW121970   2.951   3.615   3.712
 5493SOL    HW221971   2.985   3.763   3.714
 5493SOL     MW21972   2.983   3.686   3.673
 5494SOL     OW21973   4.666   1.597   1.175
 5494SOL    HW121974   4.598   1.594   1.109
 5494SOL    HW221975   4.713   1.679   1.157
 5494SOL     MW21976   4.664   1.607   1.164
 5495SOL     OW21977   0.756   0.885   4.067
 5495SOL    HW121978   0.741   0.834   4.147
 5495SOL    HW221979   0.849   0.908   4.070
 5495SOL     MW21980   0.766   0.881   4.077
 5496SOL     OW21981   3.142   0.675   5.182
 5496SOL    HW121982   3.071   0.708   5.238
 5496SOL    HW221983   3.222   0.692   5.231
 5496SOL     MW21984   3.143   0.681   5.195
 5497SOL     OW21985   0.561   1.566   4.554
 5497SOL    HW121986   0.639   1.616   4.530
 5497SOL    HW221987   0.508   1.627   4.606
 5497SOL     MW21988   0.564   1.580   4.558
 5498SOL     OW21989   2.513   3.716   2.956
 5498SOL    HW121990   2.432   3.685   2.915
 5498SOL    HW221991   2.582   3.678   2.902
 5498SOL     MW21992   2.511   3.707   2.943
 5499SOL     OW21993   1.289   1.842   2.564
 5499SOL    HW121994   1.348   1.915   2.545
 5499SOL    HW221995   1.207   1.884   2.593
 5499SOL     MW21996   1.286   1.857   2.565
 5500SOL     OW21997   1.130   3.507   2.246
 5500SOL    HW121998   1.092   3.456   2.317
 5500SOL    HW221999   1.061   3.510   2.180
 5500SOL     MW22000   1.116   3.501   2.247
   5.48000   5.48000   5.48000
