Protein
22000
    1SOL     OW    1   2.417   5.363   0.231 -0.0884 -0.2226  0.3234
    1SOL    HW1    2   2.414   5.349   0.326  1.2356  0.3402  0.4754
    1SOL    HW2    3   2.432   5.457   0.221  2.9224 -0.6528 -0.2980
    1SOL     MW    4   2.418   5.373   0.242  0.4665 -0.2056  0.2633
    2SOL     OW    5   4.695   1.384   4.918  0.5038  0.1922  0.6748
    2SOL    HW1    6   4.612   1.395   4.965  0.0146 -0.7270  0.0417
    2SOL    HW2    7   4.703   1.463   4.865 -0.1219  0.1524  0.5142
    2SOL     MW    8   4.685   1.396   4.917  0.3610  0.0694  0.5732
    3SOL     OW    9   1.206   0.408   0.516  0.4396  0.4200 -0.2587
    3SOL    HW1   10   1.135   0.412   0.580  0.9193  0.9809  0.2548
    3SOL    HW2   11   1.225   0.315   0.506  0.5283  0.3372  0.6222
    3SOL     MW   12   1.199   0.397   0.523  0.5123  0.4812 -0.0802
    4SOL     OW   13   3.301   2.896   2.448 -0.1490 -0.1509 -0.6166
    4SOL    HW1   14   3.348   2.941   2.520  1.0422  1.8702 -2.5178
    4SOL    HW2   15   3.214   2.935   2.449 -0.0664  0.0363 -0.3837
    4SOL     MW   16   3.296   2.907   2.458  0.0141  0.1318 -0.8301
    5SOL     OW   17   0.657   1.595   3.242  0.4942  0.2364 -0.2234
    5SOL    HW1   18   0.701   1.638   3.170  1.7392 -1.0370 -0.2725
    5SOL    HW2   19   0.651   1.661   3.311 -0.9760  1.5560 -1.5433
    5SOL     MW   20   0.662   1.609   3.242  0.4654  0.2424 -0.3987
    6SOL     OW   21   3.578   0.684   2.952  0.1111 -0.1945 -0.1191
    6SOL    HW1   22   3.604   0.697   2.860  0.4024  0.8803  0.1033
    6SOL    HW2   23   3.560   0.590   2.958 -1.3975 -0.0597 -1.6540
    6SOL     MW   24   3.579   0.674   2.941 -0.0448 -0.0396 -0.2871
    7SOL     OW   25   4.211   0.263   4.501  0.7952 -0.7249  0.7121
    7SOL    HW1   26   4.286   0.320   4.515  0.2505  0.0596  0.5299
    7SOL    HW2   27   4.189   0.274   4.409  0.7459 -1.3186  0.6475
    7SOL     MW   28   4.218   0.271   4.491  0.7192 -0.7004  0.6805
    8SOL     OW   29   0.998   2.152   0.466  0.1606 -0.0203  0.0628
    8SOL    HW1   30   1.018   2.092   0.395  4.5892  0.2565  0.8373
    8SOL    HW2   31   1.050   2.120   0.540  0.8440  3.3394  1.2006
    8SOL     MW   32   1.007   2.140   0.467  0.8150  0.4452  0.3076
    9SOL     OW   33   2.848   2.566   1.535  0.5703 -0.5640  0.7722
    9SOL    HW1   34   2.774   2.624   1.555  0.2844 -0.4191 -0.6039
    9SOL    HW2   35   2.919   2.625   1.511  1.6035 -0.6337  3.3367
    9SOL     MW   36   2.848   2.581   1.535  0.6660 -0.5544  0.9244
   10SOL     OW   37   1.667   2.466   2.639  0.4222 -0.0405 -0.4484
   10SOL    HW1   38   1.626   2.552   2.652  0.1531 -0.0874 -0.9817
   10SOL    HW2   39   1.724   2.455   2.716 -0.5582  0.0275  0.3148
   10SOL     MW   40   1.669   2.475   2.651  0.2622 -0.0378 -0.4190
   11SOL     OW   41   0.566   2.846   5.318 -0.2335 -0.0238  0.0143
   11SOL    HW1   42   0.601   2.824   5.404  1.9259 -0.8724 -1.0114
   11SOL    HW2   43   0.474   2.820   5.322 -0.5533  1.2262  2.4700
   11SOL     MW   44   0.558   2.840   5.330  0.0020  0.0276  0.1973
   12SOL     OW   45   1.513   3.376   3.732 -0.0094  0.7868 -0.6990
   12SOL    HW1   46   1.607   3.394   3.735  0.1109  0.2048 -0.8872
   12SOL    HW2   47   1.474   3.447   3.783  0.7565 -0.5354  1.8989
   12SOL     MW   48   1.520   3.387   3.739  0.1040  0.5431 -0.3905
   13SOL     OW   49   3.397   1.802   1.289  0.0779 -0.1054 -0.2249
   13SOL    HW1   50   3.395   1.726   1.347 -0.5151  1.0250  1.3276
   13SOL    HW2   51   3.328   1.859   1.322  1.0302  1.4678 -0.8091
   13SOL     MW   52   3.388   1.800   1.301  0.1239  0.2407 -0.1010
   14SOL     OW   53   1.172   3.842   4.200  0.0300  0.2068 -0.6749
   14SOL    HW1   54   1.221   3.782   4.256  1.0239  1.2584 -0.3716
   14SOL    HW2   55   1.230   3.859   4.126  1.0926  2.9783  0.6200
   14SOL     MW   56   1.186   3.837   4.198  0.2933  0.6962 -0.4703
   15SOL     OW   57   0.314   4.933   0.011 -0.3829 -0.5816  0.5999
   15SOL    HW1   58   0.345   4.980   0.089  1.7879 -1.5121  0.3758
   15SOL    HW2   59   0.329   4.840   0.032 -0.0462 -0.8658 -0.7898
   15SOL     MW   60   0.320   4.927   0.024 -0.0619 -0.7371  0.3933
   16SOL     OW   61   5.265   1.396   5.174 -0.1918  0.6029 -0.1675
   16SOL    HW1   62   5.203   1.379   5.103 -0.1650 -0.9349  0.1500
   16SOL    HW2   63   5.283   1.310   5.211 -0.3728  1.3843  1.8531
   16SOL     MW   64   5.259   1.383   5.170 -0.2115  0.5061  0.1318
   17SOL     OW   65   1.183   4.900   0.295  0.3890  0.3321 -0.4000
   17SOL    HW1   66   1.226   4.948   0.224  1.2379 -0.1564 -0.2291
   17SOL    HW2   67   1.252   4.887   0.360 -0.2910  0.4514  0.3553
   17SOL     MW   68   1.197   4.904   0.294  0.4106  0.2848 -0.2814
   18SOL     OW   69   4.035   1.765   3.784  0.0506  0.1364 -0.0696
   18SOL    HW1   70   3.947   1.798   3.801  0.3871  0.5359  0.9935
   18SOL    HW2   71   4.033   1.674   3.812  0.2489  0.4368  0.9615
   18SOL     MW   72   4.023   1.758   3.790  0.1191  0.2260  0.1985
   19SOL     OW   73   2.650   3.636   2.100  0.3963 -0.3866  0.3594
   19SOL    HW1   74   2.665   3.541   2.100 -0.5748 -0.7902 -4.1243
   19SOL    HW2   75   2.556   3.645   2.084  0.6189  1.2989 -0.1744
   19SOL     MW   76   2.640   3.625   2.098  0.3005 -0.2225 -0.2829
   20SOL     OW   77   3.243   1.589   2.588  0.1125  0.2362 -0.2783
   20SOL    HW1   78   3.309   1.647   2.550  0.4307 -0.6023 -1.0591
   20SOL    HW2   79   3.221   1.528   2.517 -0.2502 -0.5533  0.4894
   20SOL     MW   80   3.249   1.589   2.574  0.1068  0.0278 -0.2800
   21SOL     OW   81   2.106   1.977   4.179  0.4830  0.3424 -0.1665
   21SOL    HW1   82   2.178   1.922   4.149 -0.6976 -1.8865  0.8402
   21SOL    HW2   83   2.140   2.019   4.258  0.6473 -0.8324  0.4046
   21SOL     MW   84   2.120   1.976   4.185  0.3529 -0.0933  0.0355
   22SOL     OW   85   2.050   4.250   5.375 -0.0009  0.0523 -0.1413
   22SOL    HW1   86   1.963   4.283   5.396 -0.8959 -2.9897  1.5213
   22SOL    HW2   87   2.035   4.180   5.311  0.9858 -1.5574  1.3102
   22SOL     MW   88   2.037   4.246   5.369  0.0108 -0.5432  0.2573
   23SOL     OW   89   4.167   0.860   3.047 -0.1736 -0.0540 -0.4709
   23SOL    HW1   90   4.161   0.840   2.954 -0.4920 -0.4136 -0.3734
   23SOL    HW2   91   4.085   0.828   3.084  0.8480 -1.9516  0.3031
   23SOL     MW   92   4.156   0.853   3.040 -0.0836 -0.3429 -0.3594
   24SOL     OW   93   4.813   1.385   2.080  0.0446 -0.2209  0.0725
   24SOL    HW1   94   4.762   1.347   2.008 -0.2516 -1.8656  1.0912
   24SOL    HW2   95   4.798   1.479   2.073 -1.5724 -0.5120 -0.8371
   24SOL     MW   96   4.804   1.392   2.070 -0.2003 -0.4687  0.0865
   25SOL     OW   97   2.613   3.204   2.994  0.2701 -0.8348 -0.0961
   25SOL    HW1   98   2.623   3.229   2.902  0.0145 -0.3127  0.0104
   25SOL    HW2   99   2.675   3.260   3.041 -0.6102 -0.0710  0.1920
   25SOL     MW  100   2.622   3.215   2.988  0.1247 -0.6702 -0.0456
   26SOL     OW  101   1.986   4.260   0.882  0.0194 -0.1835  0.2733
   26SOL    HW1  102   2.020   4.187   0.933 -0.8765  0.3872  1.7452
   26SOL    HW2  103   1.895   4.238   0.865  0.3049 -0.3716 -1.1410
   26SOL     MW  104   1.979   4.248   0.886 -0.0588 -0.1345  0.2807
   27SOL     OW  105   3.713   1.834   3.166 -0.5475 -0.1309 -0.0943
   27SOL    HW1  106   3.805   1.821   3.189  0.4537  3.2751 -1.5648
   27SOL    HW2  107   3.683   1.904   3.225 -2.5476 -1.7802  0.9701
   27SOL     MW  108   3.721   1.841   3.176 -0.6754  0.0940 -0.1463
   28SOL     OW  109   2.942   2.409   0.248  0.0639  0.6203 -0.0308
   28SOL    HW1  110   3.032   2.389   0.276 -0.1727  0.8738  0.9365
   28SOL    HW2  111   2.948   2.415   0.152  0.6847 -1.3026 -0.1482
   28SOL     MW  112   2.955   2.407   0.239  0.1131  0.4066  0.0780
   29SOL     OW  113   4.162   5.332   4.401  0.4508 -0.2258  0.0653
   29SOL    HW1  114   4.188   5.323   4.310  0.6946 -0.2168  0.1346
   29SOL    HW2  115   4.171   5.244   4.437  0.4911 -0.2008  0.1163
   29SOL     MW  116   4.166   5.320   4.394  0.4872 -0.2215  0.0807
   30SOL     OW  117   0.917   0.841   1.918  0.0365 -0.1722 -0.2387
   30SOL    HW1  118   0.924   0.910   1.984 -0.0107  0.2376 -0.6516
   30SOL    HW2  119   1.002   0.796   1.920  0.2846  0.2827 -0.3738
   30SOL     MW  120   0.929   0.844   1.927  0.0622 -0.0615 -0.3089
   31SOL     OW  121   4.423   2.433   5.357  0.1302 -0.7731  0.2237
   31SOL    HW1  122   4.371   2.367   5.401 -0.7158  0.2047  0.7167
   31SOL    HW2  123   4.375   2.453   5.277 -0.6542  0.6103  0.9968
   31SOL     MW  124   4.411   2.427   5.352 -0.0785 -0.4709  0.3858
   32SOL     OW  125   5.140   2.770   0.282 -0.7576 -0.4754 -0.3050
   32SOL    HW1  126   5.080   2.762   0.208  1.3686 -2.3843 -1.9529
   32SOL    HW2  127   5.106   2.709   0.347 -1.7569  0.0487 -0.3052
   32SOL     MW  128   5.128   2.761   0.281 -0.6134 -0.6527 -0.5160
   33SOL     OW  129   0.711   3.151   2.463 -0.7416 -0.3055  0.4848
   33SOL    HW1  130   0.646   3.105   2.516 -0.3525 -1.7571 -0.2218
   33SOL    HW2  131   0.664   3.228   2.429 -1.7479 -0.7068  0.9081
   33SOL     MW  132   0.696   3.155   2.465 -0.8206 -0.5427  0.4485
   34SOL     OW  133   2.444   1.294   2.405  0.2075  0.4849 -0.0133
   34SOL    HW1  134   2.355   1.324   2.424 -0.4864 -0.3018 -1.7721
   34SOL    HW2  135   2.481   1.363   2.351 -0.1709 -0.1767 -1.1653
   34SOL     MW  136   2.437   1.307   2.401  0.0702  0.2995 -0.3859
   35SOL     OW  137   3.596   1.603   2.327 -0.0008  0.5632 -0.3272
   35SOL    HW1  138   3.635   1.688   2.348  0.1636  0.4367 -0.1273
   35SOL    HW2  139   3.552   1.618   2.243  0.1413  0.8106 -0.3596
   35SOL     MW  140   3.595   1.616   2.319  0.0384  0.5787 -0.3057
   36SOL     OW  141   0.256   5.072   1.730  0.2813  0.3914  0.1905
   36SOL    HW1  142   0.330   5.085   1.789  0.2447  1.0776  0.0868
   36SOL    HW2  143   0.237   5.159   1.695  1.3244 -0.2106 -2.0888
   36SOL     MW  144   0.263   5.085   1.733  0.4102  0.4022 -0.1145
   37SOL     OW  145   0.891   5.069   3.694  0.8246 -0.1330 -0.2124
   37SOL    HW1  146   0.986   5.058   3.688  0.9516  1.1021 -0.8072
   37SOL    HW2  147   0.865   5.016   3.770  2.2319  0.8523  1.0114
   37SOL     MW  148   0.900   5.061   3.703  1.0210  0.1512 -0.1319
   38SOL     OW  149   2.350   4.026   1.276  0.0716  0.2580  0.2521
   38SOL    HW1  150   2.375   4.094   1.338  0.8789  0.2096 -0.0081
   38SOL    HW2  151   2.432   4.002   1.233 -0.0351 -1.5265  0.9711
   38SOL     MW  152   2.364   4.032   1.278  0.1613  0.0233  0.3108
   39SOL     OW  153   4.578   1.075   1.209  0.1237 -0.2556 -0.0776
   39SOL    HW1  154   4.662   1.071   1.256 -0.3444  0.9813  0.9366
   39SOL    HW2  155   4.577   1.162   1.169 -1.3668  0.4471  1.3594
   39SOL     MW  156   4.589   1.085   1.210 -0.1270 -0.0073  0.2362
   40SOL     OW  157   1.587   4.165   4.208 -0.2152 -0.8144 -0.6651
   40SOL    HW1  158   1.671   4.140   4.245  1.0187  1.6986 -1.5675
   40SOL    HW2  159   1.572   4.102   4.137  1.2280 -0.9208 -0.8996
   40SOL     MW  160   1.596   4.153   4.204  0.1275 -0.5063 -0.8107
   41SOL     OW  161   0.028   4.359   1.291  0.3895  0.1448  0.0913
   41SOL    HW1  162   0.013   4.379   1.383 -0.2850  2.0164 -0.3752
   41SOL    HW2  163  -0.036   4.290   1.271  0.3158 -0.0447  0.9294
   41SOL     MW  164   0.018   4.353   1.300  0.2937  0.3601  0.1389
   42SOL     OW  165   4.197   1.174   5.359  0.0215  0.0102  0.4386
   42SOL    HW1  166   4.135   1.147   5.427 -0.6110  2.6182  1.0196
   42SOL    HW2  167   4.229   1.260   5.389  0.0124  1.0916 -2.3438
   42SOL     MW  168   4.193   1.182   5.372 -0.0607  0.4825  0.1568
   43SOL     OW  169   2.164   1.992   0.838 -0.1101  0.3121 -0.5717
   43SOL    HW1  170   2.114   2.037   0.770 -2.5403  1.4509  1.7550
   43SOL    HW2  171   2.097   1.953   0.895  1.8216 -2.3882  0.0765
   43SOL     MW  172   2.149   1.993   0.837 -0.1739  0.1122 -0.1909
   44SOL     OW  173   4.587   1.824   0.162  0.5006 -0.0494  0.1037
   44SOL    HW1  174   4.556   1.790   0.245 -0.9253 -1.1540 -0.8358
   44SOL    HW2  175   4.538   1.906   0.150  2.4166  1.3771  1.3865
   44SOL     MW  176   4.577   1.830   0.171  0.5633 -0.0082  0.1477
   45SOL     OW  177   3.311   2.748   4.013  0.1456  0.1158 -0.2724
   45SOL    HW1  178   3.332   2.808   4.085 -1.0716  0.8655 -0.5212
   45SOL    HW2  179   3.309   2.662   4.054 -0.9427  0.5786  0.7011
   45SOL     MW  180   3.314   2.745   4.028 -0.1495  0.2710 -0.1796
   46SOL     OW  181   4.207   2.315   1.433  0.3135 -0.4822  0.1037
   46SOL    HW1  182   4.169   2.321   1.345  1.4342 -0.0701 -0.3707
   46SOL    HW2  183   4.180   2.228   1.464 -0.1404 -0.6189 -0.6250
   46SOL     MW  184   4.198   2.304   1.425  0.3989 -0.4470 -0.0503
   47SOL     OW  185   2.207   1.567   4.568  0.1629  0.5696  0.3169
   47SOL    HW1  186   2.246   1.654   4.573  0.6416  0.3249  0.8986
   47SOL    HW2  187   2.125   1.581   4.520  1.0875  1.0315 -1.2029
   47SOL     MW  188   2.201   1.580   4.562  0.3426  0.5974  0.1968
   48SOL     OW  189   2.810   0.524   3.389  0.5070 -0.1773 -0.8833
   48SOL    HW1  190   2.811   0.536   3.294 -0.0210  0.0758 -0.8553
   48SOL    HW2  191   2.838   0.433   3.401 -1.4333 -0.8746 -1.3905
   48SOL     MW  192   2.814   0.514   3.379  0.1910 -0.2342 -0.9447
   49SOL     OW  193   5.181   4.297   2.579 -0.0157  0.7105  0.1087
   49SOL    HW1  194   5.256   4.353   2.558 -1.3187  2.4315 -0.1874
   49SOL    HW2  195   5.133   4.345   2.647 -0.7829 -0.4150  0.3904
   49SOL     MW  196   5.185   4.310   2.585 -0.2807  0.7868  0.1068
   50SOL     OW  197   1.676   1.635   0.649  0.1444  0.3133  0.0947
   50SOL    HW1  198   1.625   1.581   0.589 -0.4694 -0.6518  1.4366
   50SOL    HW2  199   1.680   1.584   0.730  1.7364  1.1661  0.5962
   50SOL     MW  200   1.670   1.622   0.652  0.2696  0.2989  0.3307
   51SOL     OW  201   0.863   4.601   1.414 -0.1940  0.4989 -0.6650
   51SOL    HW1  202   0.810   4.634   1.487 -1.3669 -0.4903 -1.0274
   51SOL    HW2  203   0.888   4.512   1.440  1.1915  0.8951 -0.5695
   51SOL     MW  204   0.859   4.594   1.426 -0.1668  0.4230 -0.6992
   52SOL     OW  205   4.940   0.857   1.452  0.0318 -0.6397  0.3318
   52SOL    HW1  206   4.889   0.925   1.408 -2.0335 -2.1332  0.2635
   52SOL    HW2  207   4.922   0.871   1.545  1.1676  0.0684  0.4549
   52SOL     MW  208   4.931   0.867   1.458 -0.0872 -0.7402  0.3388
   53SOL     OW  209   1.652   2.255   0.763 -0.1092 -0.4152  0.0546
   53SOL    HW1  210   1.614   2.177   0.722  1.2113  0.5431 -3.3675
   53SOL    HW2  211   1.581   2.318   0.765 -0.7883 -1.1797  1.4631
   53SOL     MW  212   1.638   2.253   0.758 -0.0271 -0.3904 -0.2032
   54SOL     OW  213   0.078   2.662   1.722  0.2077  0.1814 -0.0475
   54SOL    HW1  214   0.036   2.612   1.792  0.7236 -1.5514 -0.9236
   54SOL    HW2  215   0.172   2.650   1.737  0.3376  0.6988 -0.4211
   54SOL     MW  216   0.084   2.654   1.733  0.2904  0.0258 -0.2075
   55SOL     OW  217   2.452   1.142   0.237  0.2378 -0.0544  0.0897
   55SOL    HW1  218   2.441   1.190   0.319  1.1946  0.0248  0.1825
   55SOL    HW2  219   2.533   1.176   0.199  0.9620 -1.5936  0.1605
   55SOL     MW  220   2.461   1.152   0.243  0.4530 -0.2413  0.1106
   56SOL     OW  221   5.342   4.488   0.372  0.2615 -0.6846 -0.1503
   56SOL    HW1  222   5.339   4.410   0.317 -1.8519 -0.9046  0.1685
   56SOL    HW2  223   5.254   4.494   0.409  0.3268  1.8834 -0.2057
   56SOL     MW  224   5.330   4.479   0.369 -0.0007 -0.3840 -0.1166
   57SOL     OW  225   4.531   1.223   2.133 -0.0245  1.2528 -0.5727
   57SOL    HW1  226   4.554   1.305   2.176  0.8993  0.5224  0.3852
   57SOL    HW2  227   4.466   1.247   2.068 -0.8196  2.5319  0.6448
   57SOL     MW  228   4.526   1.236   2.130 -0.0080  1.3230 -0.2942
   58SOL     OW  229   4.243   2.221   5.449  0.5546  0.1705 -0.7767
   58SOL    HW1  230   4.297   2.225   5.528  1.1858 -3.1601 -0.8843
   58SOL    HW2  231   4.292   2.166   5.389 -1.0596  0.5401 -2.5406
   58SOL     MW  232   4.256   2.215   5.451  0.4288 -0.2086 -1.0163
   59SOL     OW  233   3.090   3.038   4.200 -0.3993  0.1194 -0.3672
   59SOL    HW1  234   3.077   3.103   4.268 -2.5073 -0.8061  0.1779
   59SOL    HW2  235   3.011   3.042   4.147 -0.2762 -1.5183 -0.7285
   59SOL     MW  236   3.078   3.047   4.202 -0.6534 -0.2087 -0.3436
   60SOL     OW  237   1.031   3.202   4.704 -0.1492  0.0377  0.1198
   60SOL    HW1  238   0.983   3.275   4.744 -0.1090  0.1775 -0.0876
   60SOL    HW2  239   1.036   3.137   4.774 -1.8510 -0.5515 -0.2545
   60SOL     MW  240   1.026   3.203   4.718 -0.3619 -0.0198  0.0453
   61SOL     OW  241   0.463   5.032   3.440  0.3462  0.2059  0.5097
   61SOL    HW1  242   0.405   4.992   3.504  0.5423  0.7147  1.0175
   61SOL    HW2  243   0.541   5.056   3.490  1.2226 -0.9447 -0.2594
   61SOL     MW  244   0.466   5.030   3.455  0.4835  0.1237  0.4762
   62SOL     OW  245   2.234   4.842   1.672  0.3181 -0.2370 -0.1684
   62SOL    HW1  246   2.232   4.832   1.577  1.1854  3.9750 -0.8493
   62SOL    HW2  247   2.297   4.912   1.688 -2.1220  1.5612  3.1783
   62SOL     MW  248   2.241   4.850   1.662  0.1168  0.5324  0.1728
   63SOL     OW  249   3.105   1.311   0.849 -0.0416 -1.1162  0.2432
   63SOL    HW1  250   3.084   1.229   0.803 -0.5977 -1.2520  0.7307
   63SOL    HW2  251   3.201   1.317   0.845 -0.1028 -0.4030 -2.1934
   63SOL     MW  252   3.115   1.301   0.842 -0.1206 -1.0423 -0.0063
   64SOL     OW  253   5.294   4.328   3.937  0.2999 -0.4566  0.0015
   64SOL    HW1  254   5.290   4.292   4.026  0.5234 -0.0515  0.1768
   64SOL    HW2  255   5.203   4.347   3.914  0.2201 -0.7610  0.0593
   64SOL     MW  256   5.282   4.326   3.945  0.3183 -0.4437  0.0313
   65SOL     OW  257   2.458   2.993   0.770  0.0214 -0.1804  0.5310
   65SOL    HW1  258   2.410   2.970   0.691 -1.1435  1.5638  0.6853
   65SOL    HW2  259   2.391   3.004   0.837  0.8190  0.3482  1.2611
   65SOL     MW  260   2.443   2.991   0.769 -0.0256  0.1106  0.6442
   66SOL     OW  261   3.416   3.007   4.461  0.5071  1.2332  0.1371
   66SOL    HW1  262   3.352   3.053   4.515  0.5959  1.4843  0.0302
   66SOL    HW2  263   3.446   2.934   4.515  0.1159  1.1036  0.1803
   66SOL     MW  264   3.412   3.003   4.475  0.4684  1.2488  0.1289
   67SOL     OW  265   0.977   2.661   5.259 -0.5682 -0.2476 -0.0511
   67SOL    HW1  266   0.882   2.652   5.260 -0.7717  1.2097 -1.4613
   67SOL    HW2  267   1.008   2.590   5.203 -0.4747 -2.6769  2.8714
   67SOL     MW  268   0.969   2.651   5.252 -0.5823 -0.3720  0.1425
   68SOL     OW  269   0.590   0.701   1.224 -0.5498 -1.0473 -0.0872
   68SOL    HW1  270   0.613   0.627   1.280  1.9191 -1.2886 -1.2630
   68SOL    HW2  271   0.566   0.661   1.140  1.4457 -0.5766 -0.9381
   68SOL     MW  272   0.590   0.686   1.220  0.0217 -1.0179 -0.3467
   69SOL     OW  273   4.570   2.636   2.473 -0.2454 -1.1085  0.9177
   69SOL    HW1  274   4.531   2.701   2.415  1.7532  0.6807  1.4093
   69SOL    HW2  275   4.544   2.663   2.561  0.7167 -0.8265  1.1360
   69SOL     MW  276   4.562   2.648   2.477  0.1336 -0.8434  1.0086
   70SOL     OW  277   0.269   0.505   3.256  0.1269 -0.3885  0.3536
   70SOL    HW1  278   0.334   0.569   3.282 -0.3353  0.3057 -0.1537
   70SOL    HW2  279   0.303   0.468   3.174  1.9132 -3.0516  2.1217
   70SOL     MW  280   0.281   0.508   3.249  0.2964 -0.6405  0.5150
   71SOL     OW  281   3.509   4.066   3.038 -0.0380 -0.5101 -0.2185
   71SOL    HW1  282   3.531   4.153   3.071  1.5032 -1.2789  0.9399
   71SOL    HW2  283   3.517   4.009   3.115 -0.8903 -1.6978 -0.9748
   71SOL     MW  284   3.513   4.070   3.052  0.0502 -0.7606 -0.1670
   72SOL     OW  285   4.321   0.822   4.084 -0.2498 -0.4168 -0.5323
   72SOL    HW1  286   4.286   0.771   4.011  0.3593 -2.2069  0.3957
   72SOL    HW2  287   4.382   0.883   4.043 -0.4659 -0.8917 -1.5940
   72SOL     MW  288   4.324   0.824   4.069 -0.1995 -0.7067 -0.5494
   73SOL     OW  289   3.419   3.970   1.913  0.2706  0.2748  0.3590
   73SOL    HW1  290   3.472   3.972   1.834  1.1234  0.5192  0.9125
   73SOL    HW2  291   3.343   3.917   1.891  0.4640  0.4020 -0.6358
   73SOL     MW  292   3.416   3.963   1.900  0.4045  0.3224  0.3025
   74SOL     OW  293   0.242   3.868   3.184  0.0831  0.0219  0.1910
   74SOL    HW1  294   0.240   3.813   3.105 -0.8459 -0.4692  0.5419
   74SOL    HW2  295   0.219   3.955   3.153 -0.5867 -0.2331 -0.0411
   74SOL     MW  296   0.239   3.872   3.170 -0.1215 -0.0736  0.2062
   75SOL     OW  297   2.120   2.504   5.419  0.1989 -0.0019  0.2892
   75SOL    HW1  298   2.035   2.477   5.384 -0.0530 -1.4301  1.8483
   75SOL    HW2  299   2.184   2.462   5.361 -0.1773 -0.1066 -0.0557
   75SOL     MW  300   2.117   2.495   5.407  0.1185 -0.1981  0.4446
   76SOL     OW  301   4.798   1.075   5.470  0.4559  0.0750  0.1049
   76SOL    HW1  302   4.849   1.156   5.480 -0.8274  0.9940 -0.4338
   76SOL    HW2  303   4.817   1.045   5.381  2.5745 -1.4323  1.0077
   76SOL     MW  304   4.807   1.082   5.460  0.5628 -0.0003  0.1515
   77SOL     OW  305   3.473   3.204   2.705 -0.0194  0.1416 -0.3757
   77SOL    HW1  306   3.402   3.264   2.682 -1.0688 -0.8320  0.1897
   77SOL    HW2  307   3.513   3.243   2.782 -2.1884 -0.9393  1.4431
   77SOL     MW  308   3.469   3.217   2.712 -0.4314 -0.1214 -0.0705
   78SOL     OW  309   4.101   1.390   2.688  0.0559  0.2756  0.3231
   78SOL    HW1  310   4.109   1.370   2.594 -0.7493  1.0882  0.0668
   78SOL    HW2  311   4.185   1.430   2.710  0.6337 -0.8362  0.1974
   78SOL     MW  312   4.113   1.392   2.679  0.0268  0.2373  0.2742
   79SOL     OW  313   2.368   4.577   4.651 -0.0865  0.0218  0.5589
   79SOL    HW1  314   2.454   4.536   4.646 -0.0143  0.2708 -0.3800
   79SOL    HW2  315   2.386   4.665   4.684 -0.3230 -0.8847  3.3598
   79SOL     MW  316   2.381   4.583   4.655 -0.1075 -0.0623  0.7973
   80SOL     OW  317   3.390   5.507   4.087 -0.4168 -0.2367 -0.0851
   80SOL    HW1  318   3.413   5.429   4.137 -0.9597  0.6143  1.5826
   80SOL    HW2  319   3.295   5.502   4.078 -0.1872 -1.3485 -2.8094
   80SOL     MW  320   3.381   5.496   4.092 -0.4569 -0.2701 -0.2203
   81SOL     OW  321   5.288   0.419   2.801 -0.1488  0.0083  0.3301
   81SOL    HW1  322   5.331   0.355   2.857  1.8231 -0.4800 -1.6072
   81SOL    HW2  323   5.311   0.392   2.712 -1.6382  1.7881 -0.6648
   81SOL     MW  324   5.296   0.407   2.797 -0.0870  0.1736 -0.0452
   82SOL     OW  325   2.263   0.582   2.543  0.0062 -0.2640  0.4899
   82SOL    HW1  326   2.341   0.569   2.490 -0.1448 -3.2836  0.8820
   82SOL    HW2  327   2.195   0.606   2.479  0.1977 -2.2651 -0.5259
   82SOL     MW  328   2.264   0.584   2.528  0.0113 -0.9068  0.4100
   83SOL     OW  329   3.420   1.657   2.118 -0.1383 -0.4614 -0.1991
   83SOL    HW1  330   3.432   1.690   2.029  0.0600  1.1273  0.3813
   83SOL    HW2  331   3.364   1.723   2.160 -0.5148 -1.3718  0.7586
   83SOL     MW  332   3.414   1.670   2.112 -0.1611 -0.3745 -0.0022
   84SOL     OW  333   0.239   5.330   2.061 -0.0339  0.4746  0.2301
   84SOL    HW1  334   0.227   5.387   2.137 -0.9726  0.9459 -0.2552
   84SOL    HW2  335   0.233   5.389   1.986  0.2146 -0.0831 -0.2351
   84SOL     MW  336   0.237   5.345   2.061 -0.1223  0.4635  0.1084
   85SOL     OW  337   0.946   4.909   0.140 -0.2981 -0.1325 -0.4914
   85SOL    HW1  338   1.032   4.913   0.182 -0.0968 -0.4214 -0.8798
   85SOL    HW2  339   0.930   4.999   0.112  0.9762 -0.5122 -2.6083
   85SOL     MW  340   0.955   4.921   0.142 -0.1092 -0.2181 -0.8121
   86SOL     OW  341   4.692   2.002   0.890  0.5307  0.5306 -0.0795
   86SOL    HW1  342   4.749   2.019   0.965 -1.0643  0.3693  1.2175
   86SOL    HW2  343   4.713   2.071   0.827  1.3862  1.1033  0.8156
   86SOL     MW  344   4.702   2.013   0.892  0.4360  0.5832  0.2011
   87SOL     OW  345   3.689   4.386   2.456  0.7511 -0.2401  1.0626
   87SOL    HW1  346   3.646   4.322   2.400  1.9298 -1.0054  0.9970
   87SOL    HW2  347   3.729   4.449   2.395  1.9846 -1.0407  1.0045
   87SOL     MW  348   3.689   4.386   2.441  1.0599 -0.4406  1.0467
   88SOL     OW  349   4.579   1.369   3.868 -0.2868  0.0054  0.2592
   88SOL    HW1  350   4.624   1.291   3.899 -0.8903 -1.6802 -2.6817
   88SOL    HW2  351   4.644   1.414   3.813 -0.4353  0.7076  0.6490
   88SOL     MW  352   4.593   1.365   3.865 -0.3830 -0.1205 -0.0674
   89SOL     OW  353   0.026   3.258   0.575  0.0204 -0.3375 -0.1161
   89SOL    HW1  354   0.060   3.170   0.557 -0.6274 -1.2084  2.4664
   89SOL    HW2  355  -0.046   3.243   0.637  0.4570  2.0726  1.0669
   89SOL     MW  356   0.021   3.244   0.581 -0.0066 -0.1404  0.3660
   90SOL     OW  357   0.232   0.906   5.273  0.5014  0.3303  0.6645
   90SOL    HW1  358   0.183   0.823   5.265  0.4166  0.3972  0.4872
   90SOL    HW2  359   0.320   0.879   5.299  0.1812  0.2471  1.7370
   90SOL     MW  360   0.237   0.892   5.275  0.4496  0.3282  0.7791
   91SOL     OW  361   1.821   3.906   3.577  0.1869  0.4920  0.1626
   91SOL    HW1  362   1.828   3.975   3.642  1.1862  2.0756 -1.5379
   91SOL    HW2  363   1.738   3.923   3.532  0.0832  0.1337  0.2085
   91SOL     MW  364   1.811   3.917   3.579  0.3016  0.6489 -0.0492
   92SOL     OW  365   2.616  -0.014   2.226 -0.1312 -0.1955  0.1296
   92SOL    HW1  366   2.624   0.048   2.299 -0.0021 -0.1538  0.0823
   92SOL    HW2  367   2.563   0.033   2.161 -1.2478 -0.6876  0.6725
   92SOL     MW  368   2.611   0.000   2.227 -0.2576 -0.2531  0.1930
   93SOL     OW  369   2.769   1.255   1.300 -0.0861 -0.2913 -0.4793
   93SOL    HW1  370   2.733   1.344   1.304 -2.3757 -1.1619 -0.1609
   93SOL    HW2  371   2.838   1.260   1.233 -0.0548  1.7347 -0.3562
   93SOL     MW  372   2.773   1.267   1.292 -0.3752 -0.1434 -0.4228
   94SOL     OW  373   4.039   3.626   4.939 -0.1422  0.5085  0.0335
   94SOL    HW1  374   3.982   3.650   5.013 -0.9354 -0.1543 -0.3434
   94SOL    HW2  375   4.113   3.580   4.980 -0.1155  0.9395  0.4861
   94SOL     MW  376   4.041   3.623   4.954 -0.2403  0.4788  0.0432
   95SOL     OW  377   4.603   0.452   1.710  0.2349 -0.0263  0.0151
   95SOL    HW1  378   4.571   0.472   1.798 -1.6908 -1.9831 -0.1592
   95SOL    HW2  379   4.577   0.361   1.695  1.3318 -0.0336 -2.2397
   95SOL     MW  380   4.596   0.443   1.719  0.1288 -0.2777 -0.2959
   96SOL     OW  381   1.787   2.935   4.595  0.1133 -0.4175  0.3363
   96SOL    HW1  382   1.821   2.852   4.560  1.0669 -0.3556  1.0844
   96SOL    HW2  383   1.841   3.002   4.553  0.7556 -0.3035  1.3125
   96SOL     MW  384   1.798   2.933   4.585  0.3176 -0.3950  0.5571
   97SOL     OW  385   3.251   5.104   0.144 -0.0913 -0.1081 -0.3658
   97SOL    HW1  386   3.284   5.015   0.132  1.5686  0.5070 -0.6748
   97SOL    HW2  387   3.161   5.092   0.173  0.0302 -1.8821 -0.5710
   97SOL     MW  388   3.244   5.091   0.146  0.1367 -0.2565 -0.4316
   98SOL     OW  389   3.979   5.093   0.496 -0.3223 -0.4419  0.3096
   98SOL    HW1  390   3.897   5.137   0.517 -0.2769 -1.1119  2.0999
   98SOL    HW2  391   3.953   5.011   0.455 -0.4500  0.4435 -1.4478
   98SOL     MW  392   3.965   5.088   0.494 -0.3328 -0.4143  0.3138
   99SOL     OW  393   0.375   4.146   4.928 -0.1734 -0.0720  0.5834
   99SOL    HW1  394   0.349   4.073   4.984  0.0327 -1.6536 -1.2868
   99SOL    HW2  395   0.471   4.147   4.933 -0.1912  0.3433  0.9139
   99SOL     MW  396   0.384   4.137   4.936 -0.1493 -0.2213  0.3863
  100SOL     OW  397   1.392   1.339   0.790 -0.4574 -0.0077 -0.0468
  100SOL    HW1  398   1.379   1.275   0.860  1.0158 -0.0526  0.2189
  100SOL    HW2  399   1.412   1.421   0.835 -3.4117  0.9833 -0.3499
  100SOL     MW  400   1.393   1.341   0.804 -0.6470  0.1134 -0.0516
  101SOL     OW  401   1.612   4.638   4.006  0.5278 -0.0301 -0.2144
  101SOL    HW1  402   1.625   4.674   3.918 -1.2274  0.6399 -0.2526
  101SOL    HW2  403   1.684   4.675   4.057 -0.0039  1.8969 -0.7496
  101SOL     MW  404   1.623   4.648   4.001  0.2351  0.3023 -0.2878
  102SOL     OW  405   3.349   2.912   0.526 -0.1702  0.1343 -0.4681
  102SOL    HW1  406   3.301   2.898   0.444  0.6842  2.8358 -1.5310
  102SOL    HW2  407   3.283   2.942   0.587 -0.2356  1.9814 -1.3777
  102SOL     MW  408   3.335   2.914   0.523 -0.0692  0.7166 -0.7206
  103SOL     OW  409   5.421   5.277   1.420  0.1557 -0.2169 -0.7976
  103SOL    HW1  410   5.461   5.313   1.499 -0.5101 -0.6440 -0.2521
  103SOL    HW2  411   5.360   5.345   1.391 -0.3963 -0.5026 -0.3178
  103SOL     MW  412   5.419   5.291   1.426 -0.0002 -0.3082 -0.6663
  104SOL     OW  413   2.804   4.034   2.896 -0.2070 -0.3485  0.1885
  104SOL    HW1  414   2.768   3.969   2.836  1.7313  0.3212 -1.8306
  104SOL    HW2  415   2.889   3.999   2.923  1.3660  1.6362 -1.7545
  104SOL     MW  416   2.810   4.022   2.892  0.2425 -0.0087 -0.3187
  105SOL     OW  417   0.443   1.833   2.502  0.2771 -0.0615 -0.3843
  105SOL    HW1  418   0.397   1.916   2.488  0.6985  0.0490 -1.1917
  105SOL    HW2  419   0.535   1.856   2.495  0.4502 -0.3591  0.7824
  105SOL     MW  420   0.449   1.846   2.499  0.3532 -0.0855 -0.3383
  106SOL     OW  421   4.814   0.208   4.061 -0.1041 -0.1677 -0.0018
  106SOL    HW1  422   4.775   0.252   4.137  0.8946  0.4042  0.1877
  106SOL    HW2  423   4.739   0.174   4.012 -0.8783  1.2573  0.1458
  106SOL     MW  424   4.799   0.209   4.064 -0.0754  0.0879  0.0413
  107SOL     OW  425   0.307   3.646   1.423  0.0336 -0.2260 -0.4844
  107SOL    HW1  426   0.286   3.578   1.487 -0.7814 -0.7270 -1.2628
  107SOL    HW2  427   0.227   3.656   1.372 -0.0402  1.7357 -0.0433
  107SOL     MW  428   0.294   3.638   1.425 -0.0802 -0.0390 -0.5276
  108SOL     OW  429   2.354   0.774   5.297  0.0632 -0.7768  0.4089
  108SOL    HW1  430   2.353   0.683   5.327  0.7315 -1.3396 -1.1757
  108SOL    HW2  431   2.262   0.800   5.294 -0.1085 -1.2349  1.3012
  108SOL     MW  432   2.342   0.766   5.301  0.1268 -0.9075  0.3203
  109SOL     OW  433   4.774   2.078   3.762 -0.4573 -0.8724 -0.1541
  109SOL    HW1  434   4.682   2.081   3.739 -0.6732  1.4685  0.6993
  109SOL    HW2  435   4.819   2.116   3.686 -0.3452 -0.7639 -0.0346
  109SOL     MW  436   4.768   2.083   3.749 -0.4706 -0.5589 -0.0296
  110SOL     OW  437   2.251   4.417   0.503 -0.3173 -0.2418 -1.3180
  110SOL    HW1  438   2.217   4.351   0.565  1.1111 -0.2251 -0.4783
  110SOL    HW2  439   2.265   4.495   0.557 -1.7526  0.7178 -2.2572
  110SOL     MW  440   2.248   4.419   0.518 -0.3182 -0.1168 -1.3308
  111SOL     OW  441   0.683   4.649   2.645 -0.2462 -0.2873  0.0155
  111SOL    HW1  442   0.645   4.727   2.604  0.0428  0.1558  0.5860
  111SOL    HW2  443   0.651   4.652   2.735  0.1390 -0.5824  0.1606
  111SOL     MW  444   0.674   4.659   2.651 -0.1599 -0.2684  0.1071
  112SOL     OW  445   1.852   5.108   0.403 -0.0757 -0.0160  0.4281
  112SOL    HW1  446   1.828   5.169   0.473 -0.3865 -0.9881  1.2003
  112SOL    HW2  447   1.852   5.022   0.445  2.5475 -0.3480 -0.0908
  112SOL     MW  448   1.849   5.105   0.417  0.2203 -0.1830  0.4605
  113SOL     OW  449   0.261   1.966   3.034 -0.2920 -0.1340  0.0899
  113SOL    HW1  450   0.242   1.933   2.946 -0.7125  1.1450 -0.3155
  113SOL    HW2  451   0.205   2.043   3.043 -0.7669 -0.6333  1.7522
  113SOL     MW  452   0.251   1.972   3.024 -0.4066 -0.0342  0.2508
  114SOL     OW  453   2.168   0.864   4.417 -0.1183 -0.8646  0.6860
  114SOL    HW1  454   2.221   0.856   4.496 -0.7360 -0.1958  1.1810
  114SOL    HW2  455   2.092   0.808   4.432 -1.1461  0.6282  1.3722
  114SOL     MW  456   2.165   0.856   4.429 -0.3289 -0.5879  0.8372
  115SOL     OW  457   4.907   4.454   1.612  0.1020 -0.2947  0.3186
  115SOL    HW1  458   4.964   4.529   1.593  0.0746 -1.0969 -4.1043
  115SOL    HW2  459   4.818   4.489   1.608 -0.0415 -0.6469 -4.0164
  115SOL     MW  460   4.903   4.468   1.609  0.0802 -0.4425 -0.8025
  116SOL     OW  461   2.567   2.434   1.366 -0.2403  0.9913 -0.6916
  116SOL    HW1  462   2.648   2.385   1.350 -0.8383  0.2826 -1.6527
  116SOL    HW2  463   2.552   2.424   1.460 -0.5953 -1.1033 -0.9191
  116SOL     MW  464   2.576   2.426   1.376 -0.3623  0.6324 -0.8437
  117SOL     OW  465   3.468   0.058   2.996  0.5593  0.2024 -0.1811
  117SOL    HW1  466   3.413   0.106   2.934 -0.5762 -1.8189 -0.8165
  117SOL    HW2  467   3.540   0.023   2.943 -0.4860 -1.6425 -0.4683
  117SOL     MW  468   3.470   0.060   2.981  0.2801 -0.2926 -0.2992
  118SOL     OW  469   0.235   3.216   1.005  0.2052  0.3097  0.0939
  118SOL    HW1  470   0.190   3.284   1.054 -0.2966  1.7020 -2.1654
  118SOL    HW2  471   0.165   3.160   0.970  0.4065  0.6020 -0.7931
  118SOL     MW  472   0.221   3.217   1.007  0.1667  0.5254 -0.3089
  119SOL     OW  473   4.678   5.060   4.267  0.4298 -0.5138  0.4053
  119SOL    HW1  474   4.656   5.086   4.178 -1.9794  0.7885  1.2962
  119SOL    HW2  475   4.759   5.106   4.286  0.9049 -0.6947 -1.0306
  119SOL     MW  476   4.686   5.069   4.258  0.1822 -0.3703  0.3355
  120SOL     OW  477   4.843   3.139   1.414 -0.8029 -0.4732  0.0034
  120SOL    HW1  478   4.813   3.048   1.416 -0.1284 -0.6912  0.3631
  120SOL    HW2  479   4.923   3.140   1.466  0.2285 -0.0498 -1.5087
  120SOL     MW  480   4.849   3.128   1.421 -0.5845 -0.4469 -0.1441
  121SOL     OW  481   3.097   1.516   0.264  0.1436 -0.2711  0.3655
  121SOL    HW1  482   3.092   1.611   0.268 -1.4834 -0.3097  0.1044
  121SOL    HW2  483   3.140   1.490   0.345 -0.1463  0.6436  0.8201
  121SOL     MW  484   3.102   1.525   0.275 -0.1018 -0.1589  0.3902
  122SOL     OW  485   0.170   5.296   0.954  0.6636 -0.0821 -0.5284
  122SOL    HW1  486   0.122   5.298   1.037 -0.8513  1.8384 -1.3674
  122SOL    HW2  487   0.255   5.259   0.976 -0.6858 -2.3429  1.2987
  122SOL     MW  488   0.175   5.292   0.967  0.2970 -0.1257 -0.4019
  123SOL     OW  489   4.645   3.356   5.220  0.6078  0.1795 -0.2086
  123SOL    HW1  490   4.675   3.314   5.139  0.8733 -0.7743  0.3649
  123SOL    HW2  491   4.716   3.416   5.243 -0.3732  2.0247 -1.7708
  123SOL     MW  492   4.658   3.358   5.213  0.5162  0.2936 -0.3352
  124SOL     OW  493   0.799   3.922   1.577  0.1509  0.3799  0.5016
  124SOL    HW1  494   0.751   3.938   1.496  0.0918 -3.3621 -0.3655
  124SOL    HW2  495   0.732   3.914   1.644  0.2018  3.5335  1.0871
  124SOL     MW  496   0.785   3.923   1.575  0.1498  0.3045  0.4656
  125SOL     OW  497   3.906   2.225   5.073 -0.1295 -0.3350  0.9064
  125SOL    HW1  498   3.885   2.317   5.059  1.8621  0.2167  1.1758
  125SOL    HW2  499   3.948   2.222   5.159 -0.1725 -1.4933  0.9119
  125SOL     MW  500   3.909   2.236   5.082  0.1199 -0.4127  0.9416
  126SOL     OW  501   1.539   2.101   0.412  0.1280 -0.0801  0.6887
  126SOL    HW1  502   1.633   2.088   0.401  0.7166  1.9314  2.5679
  126SOL    HW2  503   1.522   2.186   0.370 -0.4068  0.5688  2.1770
  126SOL     MW  504   1.549   2.110   0.405  0.1349  0.2605  1.1197
  127SOL     OW  505   2.172   3.141   3.460  0.7142 -0.2289 -0.1671
  127SOL    HW1  506   2.208   3.070   3.406  0.8618  0.2217 -0.6677
  127SOL    HW2  507   2.163   3.215   3.399 -1.0407 -0.3114 -0.0558
  127SOL     MW  508   2.175   3.141   3.445  0.5084 -0.1818 -0.2169
  128SOL     OW  509   3.764   5.033   4.499 -0.2112  0.0479  0.3586
  128SOL    HW1  510   3.711   4.956   4.479  1.0167 -0.2215 -2.1950
  128SOL    HW2  511   3.755   5.090   4.423  1.9946  0.6273  0.4563
  128SOL     MW  512   3.756   5.030   4.487  0.2283  0.0875  0.0442
  129SOL     OW  513   5.298   2.993   0.307 -0.1620  0.1807  0.0680
  129SOL    HW1  514   5.339   2.955   0.385  2.0099  0.2452 -0.9559
  129SOL    HW2  515   5.237   2.926   0.277 -0.6789 -0.0400  1.5301
  129SOL     MW  516   5.296   2.980   0.314  0.0499  0.1607  0.1241
  130SOL     OW  517   4.693   2.132   0.224 -0.5015  0.0625  0.3652
  130SOL    HW1  518   4.755   2.063   0.199 -0.8979  0.1180 -0.8800
  130SOL    HW2  519   4.656   2.103   0.307 -1.5489 -1.8669 -0.6805
  130SOL     MW  520   4.696   2.119   0.231 -0.6863 -0.1774  0.0719
  131SOL     OW  521   1.691   4.953   1.943 -0.3913  0.1799  0.2306
  131SOL    HW1  522   1.686   4.868   1.898 -4.4296  1.1633 -1.7253
  131SOL    HW2  523   1.623   4.948   2.010 -0.0682  1.5796  0.6915
  131SOL     MW  524   1.681   4.941   1.946 -0.8669  0.4850  0.0392
  132SOL     OW  525   2.703   0.361   3.736  0.0158 -0.5953  0.0544
  132SOL    HW1  526   2.726   0.303   3.809 -1.2776 -0.4016  0.6284
  132SOL    HW2  527   2.682   0.301   3.664  0.7817 -0.7919 -0.0199
  132SOL     MW  528   2.704   0.346   3.736 -0.0517 -0.5957  0.1184
  133SOL     OW  529   2.753   3.969   3.619 -0.3133  0.4043  0.0502
  133SOL    HW1  530   2.777   3.918   3.542 -1.0451 -0.7834  0.5707
  133SOL    HW2  531   2.694   4.037   3.585  0.9728  1.1761 -0.7093
  133SOL     MW  532   2.749   3.971   3.605 -0.2423  0.3510  0.0196
  134SOL     OW  533   0.943   0.627   4.933  0.7279 -0.0926  0.3321
  134SOL    HW1  534   0.907   0.696   4.877  1.1775  1.2135  1.5871
  134SOL    HW2  535   0.876   0.613   5.000  0.7141 -0.7694  0.1840
  134SOL     MW  536   0.930   0.634   4.934  0.7837 -0.0120  0.4738
  135SOL     OW  537   4.636   0.862   4.250 -0.5131  0.5977 -0.2574
  135SOL    HW1  538   4.713   0.816   4.284 -1.6769 -1.8421 -0.7169
  135SOL    HW2  539   4.643   0.853   4.155 -1.1479  0.7150 -0.3183
  135SOL     MW  540   4.647   0.855   4.242 -0.7433  0.3004 -0.3240
  136SOL     OW  541   2.848   4.938   1.191 -0.0615  0.4676  0.6063
  136SOL    HW1  542   2.824   4.917   1.281 -1.6743  0.2283  0.1502
  136SOL    HW2  543   2.845   4.855   1.144  0.8557  0.5741  0.3351
  136SOL     MW  544   2.845   4.925   1.196 -0.1505  0.4506  0.5132
  137SOL     OW  545   4.138   1.843   1.237  0.7188 -0.2621 -0.5325
  137SOL    HW1  546   4.233   1.847   1.247  0.7616 -2.2664  0.3041
  137SOL    HW2  547   4.121   1.882   1.151  2.3266 -0.2438 -0.8660
  137SOL     MW  548   4.148   1.848   1.227  0.9301 -0.5163 -0.4681
  138SOL     OW  549   0.909   0.431   1.740 -0.3220 -0.0636  0.4562
  138SOL    HW1  550   0.859   0.411   1.819 -0.5892 -3.5420 -0.4201
  138SOL    HW2  551   0.843   0.459   1.676 -0.6020 -0.5611  0.5181
  138SOL     MW  552   0.894   0.432   1.742 -0.3921 -0.5726  0.3520
  139SOL     OW  553   4.423   0.982   4.738  0.8334  0.0425 -0.5013
  139SOL    HW1  554   4.489   1.045   4.767 -0.3314  0.7956  0.6235
  139SOL    HW2  555   4.364   0.973   4.813 -0.1857 -0.8183 -1.3717
  139SOL     MW  556   4.424   0.989   4.751  0.5538  0.0287 -0.4687
  140SOL     OW  557   2.055   3.229   3.851 -0.1441  0.4026 -0.0103
  140SOL    HW1  558   2.080   3.242   3.942 -0.2811  0.7166 -0.0168
  140SOL    HW2  559   2.108   3.155   3.822 -0.4764 -0.0306  0.4743
  140SOL     MW  560   2.065   3.221   3.859 -0.2042  0.3874  0.0509
  141SOL     OW  561   2.117   1.433   1.150 -0.1132  0.3970  0.2049
  141SOL    HW1  562   2.109   1.361   1.087 -0.3856  0.7565 -0.1820
  141SOL    HW2  563   2.210   1.435   1.173 -0.0929 -0.0316  0.1631
  141SOL     MW  564   2.128   1.424   1.145 -0.1455  0.3881  0.1500
  142SOL     OW  565   1.583   3.958   5.268 -0.1246 -0.2765  0.0761
  142SOL    HW1  566   1.615   3.871   5.294 -1.5073 -1.1875 -1.1290
  142SOL    HW2  567   1.659   4.015   5.278  2.1297 -2.3792 -2.9902
  142SOL     MW  568   1.597   3.954   5.272 -0.0130 -0.6623 -0.4707
  143SOL     OW  569   3.057   0.389   1.712 -0.5896  0.1855  0.0608
  143SOL    HW1  570   3.010   0.418   1.634 -0.0622 -1.9385 -1.1341
  143SOL    HW2  571   2.997   0.327   1.754 -0.4522  0.5375  0.7890
  143SOL     MW  572   3.043   0.385   1.708 -0.5045 -0.0413  0.0011
  144SOL     OW  573   4.635   5.472   4.882  0.1272 -0.4612 -0.2821
  144SOL    HW1  574   4.569   5.482   4.813 -0.3909  2.1196  0.4389
  144SOL    HW2  575   4.589   5.428   4.953  0.4005 -2.2953 -1.1904
  144SOL     MW  576   4.620   5.468   4.882  0.0959 -0.3656 -0.3061
  145SOL     OW  577   3.738   4.112   1.882  1.0409 -0.1752 -0.2105
  145SOL    HW1  578   3.779   4.195   1.856  2.3828 -0.6551  0.3283
  145SOL    HW2  579   3.649   4.137   1.908  0.5121  0.7109 -2.6012
  145SOL     MW  580   3.732   4.126   1.882  1.1450 -0.1232 -0.4476
  146SOL     OW  581   0.290   0.694   4.978  0.2794  0.4345  0.2380
  146SOL    HW1  582   0.380   0.724   4.968  0.1632  0.6970 -0.0109
  146SOL    HW2  583   0.250   0.708   4.893  0.2338 -0.4683  0.0960
  146SOL     MW  584   0.296   0.700   4.966  0.2587  0.3525  0.1880
  147SOL     OW  585   5.399   4.170   3.357 -0.6001 -0.1025 -0.4798
  147SOL    HW1  586   5.356   4.179   3.442  0.9070 -0.4214  0.3481
  147SOL    HW2  587   5.337   4.209   3.295 -1.7339  0.1343  0.7490
  147SOL     MW  588   5.385   4.176   3.360 -0.5523 -0.1130 -0.2165
  148SOL     OW  589   3.614   4.435   4.580 -0.4083 -0.2999  0.1265
  148SOL    HW1  590   3.708   4.433   4.563 -0.2276  0.5021  0.9588
  148SOL    HW2  591   3.605   4.400   4.669 -0.8344  0.1485  0.2626
  148SOL     MW  592   3.625   4.430   4.589 -0.4397 -0.1399  0.2505
  149SOL     OW  593   3.006   1.001   5.017 -0.3515 -0.0458  0.5543
  149SOL    HW1  594   2.941   0.963   5.076  0.1803 -0.2562  1.0215
  149SOL    HW2  595   3.090   0.966   5.049  0.2129  1.8637  1.2808
  149SOL     MW  596   3.009   0.992   5.029 -0.2112  0.1717  0.7071
  150SOL     OW  597   2.749   4.818   4.948  0.5126 -0.0909 -0.3147
  150SOL    HW1  598   2.714   4.857   5.027 -0.4953  1.2529 -1.3740
  150SOL    HW2  599   2.840   4.798   4.969 -0.2802 -1.7560  1.8304
  150SOL     MW  600   2.756   4.820   4.961  0.2821 -0.1320 -0.1757
  151SOL     OW  601   0.727   4.544   0.682  0.2933 -0.0181  0.1081
  151SOL    HW1  602   0.639   4.516   0.656 -0.4468  0.4517  1.9473
  151SOL    HW2  603   0.743   4.622   0.629 -0.4732 -0.0263 -0.1530
  151SOL     MW  604   0.718   4.551   0.672  0.1004  0.0410  0.3101
  152SOL     OW  605   2.770   4.087   1.534  0.1106 -0.3647  0.1796
  152SOL    HW1  606   2.804   4.028   1.601 -0.1886  0.1648  0.8054
  152SOL    HW2  607   2.794   4.175   1.564  1.6755 -0.2087 -1.3833
  152SOL     MW  608   2.778   4.091   1.546  0.2726 -0.2770  0.0597
  153SOL     OW  609   1.998   2.126   5.042 -0.2180  0.0274  0.0658
  153SOL    HW1  610   2.019   2.111   4.950  0.3797  0.6366  0.0941
  153SOL    HW2  611   2.018   2.218   5.056  0.6245 -0.2806  1.0466
  153SOL     MW  612   2.003   2.136   5.032 -0.0336  0.0659  0.1950
  154SOL     OW  613   4.974   4.093   1.142  0.1159  0.4631 -0.1547
  154SOL    HW1  614   4.964   4.130   1.230  1.4876  0.1003  0.1742
  154SOL    HW2  615   5.056   4.044   1.146 -0.9196 -1.4260 -1.0000
  154SOL     MW  616   4.983   4.091   1.154  0.1589  0.1749 -0.2208
  155SOL     OW  617   1.895   0.552   3.547  0.2486 -0.0777 -0.3343
  155SOL    HW1  618   1.848   0.576   3.627 -0.0487 -0.9135 -0.2522
  155SOL    HW2  619   1.885   0.628   3.489  0.3571  0.4821  0.3696
  155SOL     MW  620   1.888   0.565   3.550  0.2244 -0.1130 -0.2337
  156SOL     OW  621   1.047   4.671   4.092 -0.3453 -0.2665  0.2477
  156SOL    HW1  622   1.013   4.610   4.027 -1.3754 -0.2215  0.7229
  156SOL    HW2  623   1.140   4.678   4.072  0.0419 -2.8098  0.8388
  156SOL     MW  624   1.055   4.664   4.081 -0.4276 -0.5863  0.3842
  157SOL     OW  625   0.368   2.756   4.972  0.4031  0.4719 -0.0402
  157SOL    HW1  626   0.415   2.674   4.957  1.1640  0.9582 -0.4030
  157SOL    HW2  627   0.372   2.802   4.888 -0.1983  0.7882  0.1009
  157SOL     MW  628   0.375   2.751   4.960  0.4235  0.5746 -0.0686
  158SOL     OW  629   0.538   0.047   4.730 -0.4655 -0.1528 -0.0635
  158SOL    HW1  630   0.530  -0.048   4.721 -2.2891  0.0089 -0.5424
  158SOL    HW2  631   0.484   0.067   4.806  1.6646  0.3176  1.4383
  158SOL     MW  632   0.530   0.037   4.739 -0.4263 -0.0719  0.0675
  159SOL     OW  633   4.775   0.511   4.213 -0.0588  0.7711  0.0082
  159SOL    HW1  634   4.687   0.481   4.237  0.1603  0.1840  0.0805
  159SOL    HW2  635   4.796   0.578   4.278  0.2969 -0.3973  1.1214
  159SOL     MW  636   4.766   0.516   4.224  0.0148  0.5464  0.1599
  160SOL     OW  637   4.935   2.996   3.987  0.7513  0.1798  0.0259
  160SOL    HW1  638   4.862   3.039   3.944  0.4831 -1.4774 -1.3049
  160SOL    HW2  639   4.896   2.920   4.030  1.6040 -0.5741 -0.4720
  160SOL     MW  640   4.921   2.992   3.987  0.8261 -0.1288 -0.2082
  161SOL     OW  641   3.498   4.359   1.221  0.5290  0.0521 -0.1880
  161SOL    HW1  642   3.418   4.311   1.199  1.4800 -1.0416 -1.3583
  161SOL    HW2  643   3.525   4.400   1.139  0.0493  2.2215  0.6590
  161SOL     MW  644   3.491   4.358   1.208  0.5894  0.1898 -0.2294
  162SOL     OW  645   3.887   0.617   1.692  0.9867  0.1667 -0.2161
  162SOL    HW1  646   3.874   0.627   1.598  1.5077  0.0387 -0.3070
  162SOL    HW2  647   3.799   0.623   1.729  0.6264 -0.9714 -0.8269
  162SOL     MW  648   3.874   0.619   1.685  1.0072  0.0046 -0.3059
  163SOL     OW  649   4.112   4.849   1.306  0.2184  0.5525  0.0394
  163SOL    HW1  650   4.159   4.883   1.383 -0.1903 -0.0209  0.5532
  163SOL    HW2  651   4.179   4.840   1.239  0.8539 -0.2262  0.7554
  163SOL     MW  652   4.127   4.853   1.307  0.2475  0.3794  0.1968
  164SOL     OW  653   2.584   1.284   3.531  0.6734  0.5761 -0.3137
  164SOL    HW1  654   2.623   1.232   3.601  0.4662 -0.8428 -1.2068
  164SOL    HW2  655   2.639   1.363   3.526 -0.4870  1.7125  2.7231
  164SOL     MW  656   2.596   1.288   3.539  0.4983  0.5399 -0.0392
  165SOL     OW  657   4.250   4.004   3.742  0.0648 -0.3683  0.0988
  165SOL    HW1  658   4.192   3.943   3.788  0.3310 -0.3092  0.5203
  165SOL    HW2  659   4.331   3.955   3.729  0.5597  0.1297  1.1325
  165SOL     MW  660   4.253   3.990   3.746  0.1623 -0.2970  0.2851
  166SOL     OW  661   4.038   4.903   1.742 -0.5234  0.2530 -0.4683
  166SOL    HW1  662   4.066   4.816   1.770  0.0902  0.5184 -0.2471
  166SOL    HW2  663   3.946   4.891   1.718 -0.2950 -0.5786 -0.9758
  166SOL     MW  664   4.030   4.890   1.743 -0.4156  0.1805 -0.5049
  167SOL     OW  665   3.081   0.973   3.336  0.0604  0.5416  0.5557
  167SOL    HW1  666   3.107   1.016   3.254  0.7925 -0.0234  0.4748
  167SOL    HW2  667   3.146   1.003   3.400  0.2354  0.0168  0.6301
  167SOL     MW  668   3.093   0.983   3.334  0.1765  0.4021  0.5548
  168SOL     OW  669   1.879   3.925   4.075  0.0990 -0.1468 -0.0245
  168SOL    HW1  670   1.931   3.954   4.000  0.1681  3.9360  1.3336
  168SOL    HW2  671   1.943   3.896   4.140  0.6939  2.3447  0.6458
  168SOL     MW  672   1.893   3.925   4.074  0.1840  0.6948  0.2352
  169SOL     OW  673   4.801   4.049   0.658 -0.3113  0.0904 -0.1950
  169SOL    HW1  674   4.877   4.029   0.604 -0.9214 -2.2887 -0.2873
  169SOL    HW2  675   4.730   4.064   0.595  0.0292  2.4429 -0.1152
  169SOL     MW  676   4.801   4.048   0.643 -0.3458  0.0870 -0.1966
  170SOL     OW  677   2.218   5.127   4.254 -0.5679 -0.3498  0.4562
  170SOL    HW1  678   2.135   5.083   4.235  0.3023 -0.9949 -2.2288
  170SOL    HW2  679   2.274   5.107   4.179  0.9415  2.7903  0.5752
  170SOL     MW  680   2.215   5.119   4.242 -0.2633 -0.0304  0.1278
  171SOL     OW  681   2.438   4.972   3.342 -0.6436  0.3036  0.4170
  171SOL    HW1  682   2.404   5.023   3.268  0.3536  2.2914  1.2485
  171SOL    HW2  683   2.397   5.011   3.419 -1.3245 -1.4468  0.9917
  171SOL     MW  684   2.429   4.984   3.342 -0.6031  0.3340  0.5970
  172SOL     OW  685   0.458   3.345   2.803 -0.1221 -0.1653 -0.3189
  172SOL    HW1  686   0.468   3.346   2.708 -0.6284  0.5903 -0.3662
  172SOL    HW2  687   0.547   3.360   2.836 -0.0673  0.3055 -0.6790
  172SOL     MW  688   0.471   3.347   2.795 -0.1799 -0.0083 -0.3711
  173SOL     OW  689   5.380   5.292  -0.010  0.4264  0.3542 -0.8653
  173SOL    HW1  690   5.426   5.363   0.036  0.1034  0.2102 -0.3134
  173SOL    HW2  691   5.320   5.256   0.055  0.4027 -0.2613 -1.2188
  173SOL     MW  692   5.378   5.296   0.004  0.3820  0.2569 -0.8399
  174SOL     OW  693   3.453   2.253   5.054  0.0383 -0.2485 -0.1140
  174SOL    HW1  694   3.392   2.210   5.113 -0.1444  1.3276  0.9069
  174SOL    HW2  695   3.533   2.201   5.060 -0.2439 -0.5926  0.8993
  174SOL     MW  696   3.456   2.241   5.062 -0.0212 -0.0908  0.1464
  175SOL     OW  697   1.226   0.126   1.908 -0.4695 -0.2950  0.3928
  175SOL    HW1  698   1.306   0.074   1.919 -0.2083  0.0527  0.1784
  175SOL    HW2  699   1.246   0.186   1.836 -0.6770  0.2559  0.7781
  175SOL     MW  700   1.239   0.127   1.900 -0.4626 -0.1799  0.4147
  176SOL     OW  701   0.569   1.845   1.145  0.4148 -0.0828 -0.2231
  176SOL    HW1  702   0.500   1.910   1.133 -0.1188 -0.8147 -1.3116
  176SOL    HW2  703   0.523   1.761   1.142  1.1083 -0.5266  1.0401
  176SOL     MW  704   0.554   1.843   1.143  0.4352 -0.2333 -0.2008
  177SOL     OW  705   0.177   2.688   0.431  0.2390 -0.1135  0.3860
  177SOL    HW1  706   0.107   2.666   0.370 -0.6509 -1.5091  1.8287
  177SOL    HW2  707   0.236   2.744   0.380 -1.8797  1.1172 -0.8940
  177SOL     MW  708   0.176   2.692   0.417 -0.1462 -0.1346  0.4069
  178SOL     OW  709   4.026   5.448   2.553 -0.5596  0.0066 -0.2643
  178SOL    HW1  710   4.056   5.431   2.642  0.6465 -0.7385 -0.7935
  178SOL    HW2  711   4.090   5.509   2.517 -0.2522 -0.7588 -1.0550
  178SOL     MW  712   4.038   5.454   2.560 -0.3659 -0.1868 -0.4332
  179SOL     OW  713   1.788   0.334   5.329 -0.1946  0.1452  0.2806
  179SOL    HW1  714   1.809   0.362   5.240  1.3507 -0.5197  0.4002
  179SOL    HW2  715   1.792   0.238   5.326 -2.0594  0.0172  0.6409
  179SOL     MW  716   1.791   0.325   5.317 -0.2355  0.0437  0.3420
  180SOL     OW  717   0.521   4.210   1.285 -0.3243 -0.0143  0.5103
  180SOL    HW1  718   0.495   4.289   1.332  2.7685  1.4161  0.0855
  180SOL    HW2  719   0.515   4.233   1.192 -0.3963 -0.6545  0.3454
  180SOL     MW  720   0.517   4.223   1.279  0.0624  0.0869  0.4348
  181SOL     OW  721   4.734   2.866   5.228  0.0290 -0.0885  0.3098
  181SOL    HW1  722   4.828   2.855   5.242 -0.2775 -1.5720  1.5250
  181SOL    HW2  723   4.697   2.870   5.317 -1.0182  0.9616 -0.1498
  181SOL     MW  724   4.741   2.865   5.241 -0.1443 -0.1440  0.4065
  182SOL     OW  725   0.863   0.516   2.644  0.3050 -0.4949  0.5286
  182SOL    HW1  726   0.875   0.455   2.571  0.6047 -0.7860  0.8147
  182SOL    HW2  727   0.937   0.576   2.639 -0.1685  0.0510  0.0519
  182SOL     MW  728   0.874   0.516   2.634  0.2827 -0.4623  0.5042
  183SOL     OW  729   2.289   2.320   1.652  0.0124 -0.0113 -1.0068
  183SOL    HW1  730   2.220   2.383   1.632 -0.4505 -0.0658  0.3711
  183SOL    HW2  731   2.244   2.236   1.654  0.7166 -0.5297 -3.3903
  183SOL     MW  732   2.274   2.317   1.650  0.0433 -0.0846 -1.1355
  184SOL     OW  733   4.858   2.480   2.715  0.1793  0.3526  0.4497
  184SOL    HW1  734   4.808   2.547   2.761  0.3793  0.3973  0.6041
  184SOL    HW2  735   4.801   2.451   2.644  0.0016  0.5205  0.5253
  184SOL     MW  736   4.844   2.485   2.712  0.1822  0.3798  0.4791
  185SOL     OW  737   0.759   0.594   5.155 -0.0462  0.8243  0.2346
  185SOL    HW1  738   0.685   0.542   5.123  0.9993 -0.2956 -0.3999
  185SOL    HW2  739   0.751   0.590   5.250 -0.4531  0.2047  0.1797
  185SOL     MW  740   0.748   0.587   5.163  0.0355  0.6016  0.1463
  186SOL     OW  741   2.978   0.270   0.859  0.5052  0.4977 -0.0079
  186SOL    HW1  742   3.025   0.191   0.833 -1.3192 -1.1385  1.4082
  186SOL    HW2  743   2.886   0.247   0.850 -0.1389  1.4480  3.0690
  186SOL     MW  744   2.972   0.257   0.855  0.1892  0.4099  0.5672
  187SOL     OW  745   5.147   0.366   3.261 -0.1297  0.2532  0.0706
  187SOL    HW1  746   5.191   0.406   3.186 -0.4219 -0.3412 -0.4342
  187SOL    HW2  747   5.202   0.388   3.336  0.2867  0.6763 -0.3522
  187SOL     MW  748   5.160   0.374   3.261 -0.1138  0.2313 -0.0482
  188SOL     OW  749   3.692   5.280   1.500 -0.2046  0.1514 -0.3535
  188SOL    HW1  750   3.634   5.205   1.492  0.2884 -0.1353 -1.3236
  188SOL    HW2  751   3.775   5.251   1.464  0.3062  0.8349  0.2327
  188SOL     MW  752   3.695   5.267   1.495 -0.0761  0.2022 -0.4026
  189SOL     OW  753   2.155   1.728   3.861  0.2678 -0.0752  0.1757
  189SOL    HW1  754   2.204   1.692   3.787 -1.1789 -1.3427 -0.2071
  189SOL    HW2  755   2.106   1.801   3.824  1.0514  0.5618  0.3488
  189SOL     MW  756   2.155   1.733   3.847  0.1829 -0.1559  0.1489
  190SOL     OW  757   4.261   0.051   4.062  0.1434  0.5642 -0.1618
  190SOL    HW1  758   4.253   0.085   3.973 -0.9363  0.4652 -0.1092
  190SOL    HW2  759   4.173   0.054   4.097  0.2880 -0.7970  0.3913
  190SOL     MW  760   4.249   0.056   4.055  0.0237  0.3773 -0.0843
  191SOL     OW  761   5.334   3.400   1.259  0.2339  0.2326  0.5929
  191SOL    HW1  762   5.272   3.463   1.224  1.8420  1.0530 -0.9527
  191SOL    HW2  763   5.311   3.317   1.217 -0.9058  0.1149  1.4224
  191SOL     MW  764   5.323   3.397   1.250  0.2939  0.3225  0.5012
  192SOL     OW  765   4.757   4.749   0.233  0.3298  0.5022  0.5460
  192SOL    HW1  766   4.792   4.836   0.252 -1.6185  1.2666  0.8666
  192SOL    HW2  767   4.757   4.705   0.317 -0.5130  0.9167  0.7752
  192SOL     MW  768   4.762   4.755   0.246 -0.0275  0.6532  0.6164
  193SOL     OW  769   2.812   2.602   0.683 -0.7668  0.0964 -0.2371
  193SOL    HW1  770   2.739   2.658   0.709  0.6073  1.8050  0.1749
  193SOL    HW2  771   2.872   2.604   0.758 -0.6033 -1.8420 -0.2801
  193SOL     MW  772   2.811   2.610   0.696 -0.5700  0.0670 -0.1898
  194SOL     OW  773   0.113   1.553   1.616  0.0681  0.1749  0.0697
  194SOL    HW1  774   0.031   1.600   1.631 -1.1013 -1.3512 -1.1100
  194SOL    HW2  775   0.148   1.536   1.703 -1.6246 -0.3596  0.6871
  194SOL     MW  776   0.107   1.557   1.629 -0.2983 -0.0889 -0.0022
  195SOL     OW  777   5.170   2.571   1.063  0.5994 -0.2499 -0.4102
  195SOL    HW1  778   5.226   2.568   0.985  0.2838 -1.4840 -0.6159
  195SOL    HW2  779   5.231   2.579   1.136  0.9021  0.8721 -0.7779
  195SOL     MW  780   5.185   2.571   1.063  0.5978 -0.2643 -0.4836
  196SOL     OW  781   4.109   2.775   0.101  0.4532  0.2979 -0.4989
  196SOL    HW1  782   4.029   2.784   0.050  0.5219  0.9642 -0.4996
  196SOL    HW2  783   4.128   2.681   0.101 -2.2333 -0.4094  2.4310
  196SOL     MW  784   4.102   2.764   0.094  0.1181  0.2926 -0.1239
  197SOL     OW  785   3.061   0.640   1.900  0.3917  0.2094  0.4244
  197SOL    HW1  786   3.052   0.556   1.854 -1.3812  0.3398  0.4650
  197SOL    HW2  787   3.064   0.705   1.830 -3.9992  0.5718  0.2805
  197SOL     MW  788   3.060   0.638   1.885 -0.3974  0.2725  0.4111
  198SOL     OW  789   5.277   4.382   2.206  0.2545 -0.4537 -0.2672
  198SOL    HW1  790   5.264   4.458   2.149 -1.1433 -0.3846  0.1107
  198SOL    HW2  791   5.327   4.321   2.152 -0.1076  0.0372 -1.1978
  198SOL     MW  792   5.282   4.384   2.192  0.0292 -0.3820 -0.3380
  199SOL     OW  793   0.556   3.261   1.255 -0.1266  0.3053  0.4364
  199SOL    HW1  794   0.638   3.266   1.304  1.7137  0.3345 -2.4156
  199SOL    HW2  795   0.560   3.335   1.194 -1.5149 -0.6188 -0.8534
  199SOL     MW  796   0.567   3.271   1.253 -0.0687  0.1907 -0.0938
  200SOL     OW  797   1.901   2.082   2.333 -0.0243 -0.1248  0.1888
  200SOL    HW1  798   1.809   2.107   2.335  0.0881  0.2876  0.4173
  200SOL    HW2  799   1.906   2.013   2.267 -0.9720 -2.1494  2.1088
  200SOL     MW  800   1.890   2.076   2.325 -0.1312 -0.3312  0.4639
  201SOL     OW  801   3.858   2.468   1.952 -0.3321 -0.3023 -0.4413
  201SOL    HW1  802   3.888   2.533   2.015 -0.5178  0.2563 -0.9251
  201SOL    HW2  803   3.934   2.410   1.940 -0.1512 -0.1508 -0.0532
  201SOL     MW  804   3.871   2.469   1.958 -0.3327 -0.2114 -0.4536
  202SOL     OW  805   4.987   4.247   5.259  0.5035 -0.1909 -0.1615
  202SOL    HW1  806   4.950   4.284   5.339 -1.2115 -1.8555 -0.1115
  202SOL    HW2  807   4.984   4.319   5.196  0.7068  0.7890  0.9171
  202SOL     MW  808   4.982   4.261   5.261  0.3099 -0.2785 -0.0170
  203SOL     OW  809   3.922   1.725   1.957 -0.2575 -0.3873 -0.3948
  203SOL    HW1  810   3.900   1.637   1.990 -1.4377  0.0764  0.1222
  203SOL    HW2  811   3.926   1.715   1.862 -1.1754 -0.8505 -0.4003
  203SOL     MW  812   3.920   1.712   1.949 -0.5261 -0.3873 -0.3293
  204SOL     OW  813   3.817   3.747   4.778  0.4181  0.1819  0.0618
  204SOL    HW1  814   3.856   3.746   4.690 -0.3267 -1.4218 -0.2770
  204SOL    HW2  815   3.871   3.685   4.829  0.1607  0.2507  0.4228
  204SOL     MW  816   3.829   3.739   4.773  0.2898 -0.0146  0.0646
  205SOL     OW  817   1.996   0.366   2.604 -0.0520  0.4487 -0.0739
  205SOL    HW1  818   1.937   0.291   2.592  0.3213  0.1855 -0.2941
  205SOL    HW2  819   2.073   0.344   2.551  0.5715  0.4336  0.8154
  205SOL     MW  820   1.998   0.354   2.595  0.0756  0.4131  0.0118
  206SOL     OW  821   2.287   3.533   0.065  0.0536 -0.0270  0.2731
  206SOL    HW1  822   2.238   3.563  -0.011  1.9524  1.9481 -0.2513
  206SOL    HW2  823   2.233   3.559   0.140 -0.0069  1.5761 -0.2939
  206SOL     MW  824   2.274   3.540   0.065  0.2889  0.4310  0.1334
  207SOL     OW  825   1.690   4.362   3.020  0.3663 -0.0438 -0.1679
  207SOL    HW1  826   1.623   4.369   2.952  0.6456 -0.7907 -0.5409
  207SOL    HW2  827   1.681   4.272   3.052  1.5114 -0.3118 -0.5705
  207SOL     MW  828   1.680   4.351   3.016  0.5487 -0.1737 -0.2672
  208SOL     OW  829   3.559   1.425   5.154 -0.1492  0.4139 -0.1065
  208SOL    HW1  830   3.485   1.415   5.213  0.2560 -0.3897  0.2771
  208SOL    HW2  831   3.636   1.419   5.210  0.2966 -2.0754 -0.8775
  208SOL     MW  832   3.559   1.423   5.168 -0.0403 -0.0077 -0.1561
  209SOL     OW  833   3.717   2.327  -0.006 -0.0770  0.2034 -0.4379
  209SOL    HW1  834   3.773   2.370   0.058 -0.3416  1.1180 -0.8123
  209SOL    HW2  835   3.638   2.381  -0.009 -1.4700 -1.6143  0.8567
  209SOL     MW  836   3.714   2.339   0.002 -0.2892  0.0878 -0.3201
  210SOL     OW  837   4.284   5.257   4.139  0.6883 -0.2918  0.1197
  210SOL    HW1  838   4.305   5.341   4.098  1.8116 -1.6803 -2.3993
  210SOL    HW2  839   4.192   5.242   4.117  0.8341 -0.2744 -0.5169
  210SOL     MW  840   4.275   5.265   4.131  0.8507 -0.4673 -0.2842
  211SOL     OW  841   0.607   1.645   5.270  0.1188  0.3716  0.9015
  211SOL    HW1  842   0.579   1.734   5.249 -0.9237 -0.1847 -0.1956
  211SOL    HW2  843   0.562   1.590   5.206  0.1724 -1.0249  2.0156
  211SOL     MW  844   0.598   1.650   5.259 -0.0078  0.1216  0.9036
  212SOL     OW  845   1.544   2.546   4.923 -0.0157  0.4793 -0.0577
  212SOL    HW1  846   1.541   2.524   5.016  2.4452 -1.5068 -0.3225
  212SOL    HW2  847   1.610   2.615   4.917 -2.2982  2.7664 -0.0797
  212SOL     MW  848   1.552   2.552   4.934  0.0072  0.5178 -0.0944
  213SOL     OW  849   2.799   4.383   2.561 -0.3953  0.0366  0.0769
  213SOL    HW1  850   2.821   4.450   2.497 -0.6399 -0.5083 -0.5949
  213SOL    HW2  851   2.748   4.429   2.628 -0.6641  0.4968 -0.4345
  213SOL     MW  852   2.795   4.397   2.561 -0.4610  0.0257 -0.0745
  214SOL     OW  853   5.199   4.373   1.902 -0.1308 -0.4732 -0.0500
  214SOL    HW1  854   5.238   4.396   1.818 -1.1086  0.5932 -0.2264
  214SOL    HW2  855   5.216   4.279   1.911  0.4696 -0.4885 -1.1742
  214SOL     MW  856   5.206   4.364   1.893 -0.1791 -0.3386 -0.2165
  215SOL     OW  857   0.758   1.310   2.997 -0.3404  0.4568  0.0219
  215SOL    HW1  858   0.811   1.356   3.061  1.5699 -0.0977 -1.0940
  215SOL    HW2  859   0.795   1.334   2.912 -1.0845 -0.9298 -0.7368
  215SOL     MW  860   0.769   1.319   2.994 -0.1911  0.2083 -0.2180
  216SOL     OW  861   2.462   0.239   1.632 -0.4565  0.4018 -0.0121
  216SOL    HW1  862   2.389   0.288   1.672  0.2025  0.2183  1.4940
  216SOL    HW2  863   2.497   0.299   1.566 -0.2218  1.6502  1.1930
  216SOL     MW  864   2.457   0.253   1.629 -0.3421  0.5381  0.3350
  217SOL     OW  865   0.708   0.507   3.913  0.2542  0.3566 -0.2206
  217SOL    HW1  866   0.677   0.435   3.968 -2.5714  0.1930 -1.8135
  217SOL    HW2  867   0.716   0.468   3.825  1.4176  1.3771 -0.5980
  217SOL     MW  868   0.705   0.492   3.908  0.0414  0.4663 -0.4728
  218SOL     OW  869   4.209   3.333   1.642  0.0057 -0.2981 -0.1485
  218SOL    HW1  870   4.188   3.241   1.660 -1.2954  0.4308  2.7669
  218SOL    HW2  871   4.137   3.364   1.588  0.6182 -1.0218 -1.4238
  218SOL     MW  872   4.197   3.325   1.638 -0.0825 -0.2974  0.0614
  219SOL     OW  873   3.228   0.331   3.088  0.2706  0.6772 -0.0895
  219SOL    HW1  874   3.215   0.275   3.011  1.2357  0.6723 -0.2538
  219SOL    HW2  875   3.216   0.420   3.054  0.7855  0.6795 -0.2653
  219SOL     MW  876   3.225   0.336   3.073  0.4600  0.6769 -0.1330
  220SOL     OW  877   1.747   0.731   4.883 -0.0228 -0.5709 -0.0470
  220SOL    HW1  878   1.742   0.758   4.975  0.1433 -1.6553  0.2961
  220SOL    HW2  879   1.840   0.733   4.862 -0.0278 -0.6720 -0.0808
  220SOL     MW  880   1.758   0.734   4.892 -0.0021 -0.7226 -0.0074
  221SOL     OW  881   3.354   2.081   2.628  0.3725 -0.2137 -0.2801
  221SOL    HW1  882   3.442   2.112   2.650 -0.1711  0.0334  1.7571
  221SOL    HW2  883   3.326   2.032   2.706 -1.2367 -0.4209 -0.9550
  221SOL     MW  884   3.362   2.079   2.641  0.0969 -0.2086 -0.1057
  222SOL     OW  885   5.483   1.688   3.622 -0.3239  0.1681  0.0975
  222SOL    HW1  886   5.497   1.762   3.563  2.0123  0.6645  1.1780
  222SOL    HW2  887   5.413   1.717   3.681 -0.1087  1.1148 -0.0948
  222SOL     MW  888   5.476   1.701   3.622  0.0027  0.3529  0.2112
  223SOL     OW  889   2.330   4.006   2.346 -0.8387  0.3416  0.0801
  223SOL    HW1  890   2.296   4.080   2.396 -1.4870  0.7856 -1.0011
  223SOL    HW2  891   2.306   4.024   2.256  1.0345 -0.0447 -0.5419
  223SOL     MW  892   2.323   4.018   2.341 -0.6819  0.3490 -0.1379
  224SOL     OW  893   2.452   1.937   0.578  0.4890  0.7670 -0.4278
  224SOL    HW1  894   2.428   1.927   0.670 -0.3032  1.1139 -0.5870
  224SOL    HW2  895   2.540   1.973   0.579  0.5293  0.6489  0.1964
  224SOL     MW  896   2.460   1.940   0.590  0.3927  0.7963 -0.3683
  225SOL     OW  897   2.689   0.959   2.806 -0.3644 -0.0460 -0.4408
  225SOL    HW1  898   2.688   0.867   2.781 -0.5621 -0.2413  0.2747
  225SOL    HW2  899   2.666   1.006   2.725 -0.3900 -0.6242 -0.7746
  225SOL     MW  900   2.686   0.953   2.792 -0.3929 -0.1450 -0.3919
  226SOL     OW  901   1.195   0.547   0.270  0.5288 -0.0173  0.4515
  226SOL    HW1  902   1.188   0.505   0.356  0.5843 -0.3111  0.3118
  226SOL    HW2  903   1.138   0.495   0.213  1.7604 -0.8290 -0.0851
  226SOL     MW  904   1.186   0.535   0.274  0.6936 -0.1588  0.3649
  227SOL     OW  905   3.805   4.453   5.074  0.8420  0.3085  0.1082
  227SOL    HW1  906   3.870   4.486   5.012  0.0791  0.7977 -0.4612
  227SOL    HW2  907   3.771   4.374   5.032  0.2305  0.7124 -0.1691
  227SOL     MW  908   3.809   4.447   5.060  0.6660  0.4228 -0.0002
  228SOL     OW  909   3.453   3.998   4.837  0.0938  0.2669 -0.0872
  228SOL    HW1  910   3.386   4.038   4.781 -0.0877 -0.6986 -0.5812
  228SOL    HW2  911   3.403   3.951   4.904  0.2601 -0.7336 -0.6524
  228SOL     MW  912   3.438   3.997   4.839  0.0918  0.0152 -0.2228
  229SOL     OW  913   4.591   5.417   0.844  0.4890  0.0764  0.0517
  229SOL    HW1  914   4.638   5.485   0.796  1.0793  0.0760  0.6196
  229SOL    HW2  915   4.570   5.351   0.779  0.2482  0.6233 -0.4311
  229SOL     MW  916   4.594   5.418   0.830  0.5338  0.1464  0.0626
  230SOL     OW  917   4.242   2.315   2.833 -0.1748  0.0631  0.3229
  230SOL    HW1  918   4.257   2.382   2.899  0.2772 -1.5211  1.9195
  230SOL    HW2  919   4.253   2.232   2.880  1.5957 -1.1699 -2.0293
  230SOL     MW  920   4.246   2.313   2.847  0.1097 -0.2975  0.2262
  231SOL     OW  921   2.621   2.557   2.111 -0.2433 -0.0241  0.5953
  231SOL    HW1  922   2.616   2.651   2.094  1.1835  0.2025  1.2652
  231SOL    HW2  923   2.565   2.543   2.187 -0.0396  0.3787  0.8232
  231SOL     MW  924   2.613   2.567   2.118 -0.0346  0.0564  0.7103
  232SOL     OW  925   0.855   1.512   3.538  0.1788 -0.1978  0.6344
  232SOL    HW1  926   0.792   1.441   3.541  2.9360 -2.7980  1.4606
  232SOL    HW2  927   0.912   1.498   3.613  0.6171  3.2140  1.1200
  232SOL     MW  928   0.854   1.501   3.548  0.5879 -0.0939  0.8023
  233SOL     OW  929   5.416   1.717   4.476  0.2945 -0.2174  0.0608
  233SOL    HW1  930   5.328   1.702   4.510  0.8212  1.4970  2.5042
  233SOL    HW2  931   5.466   1.641   4.503  0.2073  0.1650  1.3529
  233SOL     MW  932   5.411   1.706   4.484  0.3508  0.0510  0.5390
  234SOL     OW  933   4.985   1.888   1.883  0.0988 -0.0820  0.6082
  234SOL    HW1  934   5.015   1.966   1.836  0.0443 -0.8866 -0.8222
  234SOL    HW2  935   5.013   1.902   1.973  0.5695  1.3395  0.2681
  234SOL     MW  936   4.993   1.900   1.888  0.1521 -0.0030  0.3816
  235SOL     OW  937   1.657   2.046   5.490 -0.3661 -0.6644 -0.3443
  235SOL    HW1  938   1.708   1.970   5.516  0.5582  0.6657  2.0456
  235SOL    HW2  939   1.718   2.101   5.441  0.2086  0.3055  1.3636
  235SOL     MW  940   1.671   2.043   5.487 -0.1742 -0.3700  0.1803
  236SOL     OW  941   4.791   2.234   3.495 -0.2605 -0.1052 -0.2617
  236SOL    HW1  942   4.775   2.309   3.437 -1.3552  0.7654  1.1003
  236SOL    HW2  943   4.845   2.174   3.443 -0.7565  0.8732 -1.9777
  236SOL     MW  944   4.796   2.236   3.481 -0.4641  0.1315 -0.3070
  237SOL     OW  945   2.379   5.181   2.069 -0.2345  0.1856 -0.6700
  237SOL    HW1  946   2.440   5.118   2.031 -1.6259 -1.3410 -0.4918
  237SOL    HW2  947   2.363   5.244   1.999 -1.2510 -1.4753 -1.9973
  237SOL     MW  948   2.385   5.181   2.055 -0.5428 -0.2225 -0.8171
  238SOL     OW  949   1.767   4.893   1.152  0.2280  0.2758  0.2569
  238SOL    HW1  950   1.844   4.852   1.113 -0.1497 -0.2911  0.0980
  238SOL    HW2  951   1.754   4.848   1.235 -0.4621 -0.2524 -0.1308
  238SOL     MW  952   1.776   4.882   1.157  0.0913  0.1356  0.1869
  239SOL     OW  953   1.492   5.414   3.578 -0.0077 -0.1873 -0.5853
  239SOL    HW1  954   1.556   5.485   3.577 -0.8454  0.8526  3.1190
  239SOL    HW2  955   1.407   5.458   3.582 -0.5052 -1.1099  3.3735
  239SOL     MW  956   1.489   5.428   3.579 -0.1786 -0.1723  0.3957
  240SOL     OW  957   0.541   5.478   2.768 -0.1835  0.6641  0.1038
  240SOL    HW1  958   0.602   5.424   2.818  2.2365  1.3582 -1.8860
  240SOL    HW2  959   0.550   5.565   2.807  0.8986  0.9759 -0.7950
  240SOL     MW  960   0.550   5.482   2.780  0.2648  0.7928 -0.2660
  241SOL     OW  961   3.029   1.074   0.719  0.7251  0.2414 -0.1204
  241SOL    HW1  962   3.018   1.008   0.787 -1.5961 -0.7171 -1.3101
  241SOL    HW2  963   3.096   1.038   0.660 -0.0326 -0.7769 -0.3884
  241SOL     MW  964   3.036   1.061   0.720  0.3310 -0.0116 -0.3070
  242SOL     OW  965   1.162   1.986   5.235  0.4420 -0.0278 -0.0960
  242SOL    HW1  966   1.209   2.032   5.166  2.0544  0.9488  1.5630
  242SOL    HW2  967   1.136   2.054   5.296  0.2441 -0.9903  0.9342
  242SOL     MW  968   1.165   2.000   5.234  0.6230 -0.0260  0.2482
  243SOL     OW  969   3.606   1.580   5.444 -0.1358  0.1065 -0.4103
  243SOL    HW1  970   3.552   1.501   5.446 -1.1841  0.7771 -1.0658
  243SOL    HW2  971   3.557   1.640   5.388  1.5428  0.5810 -1.4255
  243SOL     MW  972   3.593   1.578   5.437 -0.0551  0.2531 -0.6242
  244SOL     OW  973   2.770   2.185   1.837 -0.3107  0.4801  0.4041
  244SOL    HW1  974   2.686   2.139   1.835 -0.7823  1.3115  0.4817
  244SOL    HW2  975   2.746   2.278   1.834  0.6298  0.7142 -0.4122
  244SOL     MW  976   2.756   2.191   1.836 -0.2507  0.6165  0.3095
  245SOL     OW  977   3.845   0.793   2.433 -0.1825 -0.1234  0.2076
  245SOL    HW1  978   3.772   0.739   2.462 -0.5318  1.1773  1.9498
  245SOL    HW2  979   3.815   0.831   2.350 -0.3489 -1.7243 -0.4914
  245SOL     MW  980   3.832   0.791   2.426 -0.2486 -0.1618  0.3411
  246SOL     OW  981   3.744   1.064   0.302  0.1799 -0.2400  0.3456
  246SOL    HW1  982   3.819   1.123   0.296 -0.5827  0.6714 -0.9319
  246SOL    HW2  983   3.725   1.058   0.396  2.6492 -1.5955  0.8303
  246SOL     MW  984   3.751   1.071   0.313  0.3984 -0.2968  0.2441
  247SOL     OW  985   4.652   0.429   2.644  0.4486  0.0638  0.3874
  247SOL    HW1  986   4.613   0.363   2.587 -0.2106  0.0099  0.8922
  247SOL    HW2  987   4.650   0.509   2.592 -0.1938  0.0256  0.3524
  247SOL     MW  988   4.647   0.431   2.630  0.2820  0.0520  0.4475
  248SOL     OW  989   4.829   4.909   4.452  0.0317  0.1437  0.5788
  248SOL    HW1  990   4.838   4.992   4.498  1.9299  1.1212 -1.3716
  248SOL    HW2  991   4.747   4.916   4.403 -0.3299  0.4352  1.2234
  248SOL     MW  992   4.820   4.920   4.451  0.2284  0.3061  0.4117
  249SOL     OW  993   5.145   4.318   3.263  0.4143 -0.1105  0.0283
  249SOL    HW1  994   5.075   4.384   3.251 -2.0955 -2.2153  1.8796
  249SOL    HW2  995   5.122   4.248   3.202  0.9522 -0.8008  0.6041
  249SOL     MW  996   5.133   4.318   3.254  0.1619 -0.4683  0.3390
  250SOL     OW  997   0.432   4.485   2.034 -0.5055  0.4981  0.1359
  250SOL    HW1  998   0.352   4.446   2.068 -0.3755  0.1783  0.0755
  250SOL    HW2  999   0.401   4.555   1.976 -0.7355  0.5611  0.3317
  250SOL     MW 1000   0.418   4.489   2.031 -0.5183  0.4652  0.1532
  251SOL     OW 1001   1.869   1.860   4.081  0.2150 -0.1642 -0.1415
  251SOL    HW1 1002   1.795   1.918   4.066  0.7756  0.3275 -1.1515
  251SOL    HW2 1003   1.934   1.915   4.124  0.4132 -0.2834 -0.2870
  251SOL     MW 1004   1.868   1.874   4.084  0.3122 -0.1166 -0.2894
  252SOL     OW 1005   4.718   0.833   0.239  1.2057  0.2514 -1.0101
  252SOL    HW1 1006   4.704   0.767   0.172 -0.5685 -0.3278 -0.1186
  252SOL    HW2 1007   4.797   0.879   0.210  1.0214 -0.5614 -2.9952
  252SOL     MW 1008   4.726   0.831   0.226  0.9550  0.0732 -1.1501
  253SOL     OW 1009   1.321   2.560   3.090 -0.2074 -0.3194 -0.4360
  253SOL    HW1 1010   1.264   2.625   3.132 -0.2564  1.2093 -2.6942
  253SOL    HW2 1011   1.332   2.492   3.157 -3.2170  0.1604  0.7460
  253SOL     MW 1012   1.315   2.560   3.104 -0.5990 -0.0623 -0.5738
  254SOL     OW 1013   1.687   3.841   1.871 -0.6186  0.0385  0.0076
  254SOL    HW1 1014   1.782   3.833   1.866 -0.7570 -0.7754 -1.7647
  254SOL    HW2 1015   1.668   3.839   1.965  1.1101  0.4339  0.4029
  254SOL     MW 1016   1.697   3.840   1.883 -0.4150 -0.0151 -0.1687
  255SOL     OW 1017   0.495   1.442   4.725  0.3628 -0.5781 -0.0038
  255SOL    HW1 1018   0.564   1.376   4.733  0.3654 -0.6848 -0.8388
  255SOL    HW2 1019   0.414   1.392   4.723  0.4557 -0.7581 -2.6456
  255SOL     MW 1020   0.494   1.427   4.726  0.3751 -0.6148 -0.4488
  256SOL     OW 1021   2.138   5.369   0.487  0.5215 -0.0075 -0.3465
  256SOL    HW1 1022   2.083   5.382   0.564 -0.1975 -1.9580 -0.4569
  256SOL    HW2 1023   2.176   5.455   0.469  0.0216  0.6838  1.6487
  256SOL     MW 1024   2.136   5.381   0.494  0.3655 -0.1687 -0.1052
  257SOL     OW 1025   3.463   3.397   3.206 -0.2618 -0.1305 -0.3274
  257SOL    HW1 1026   3.542   3.363   3.249  0.1018  0.2904 -0.6542
  257SOL    HW2 1027   3.494   3.470   3.153 -0.8400 -0.1104 -0.6473
  257SOL     MW 1028   3.477   3.402   3.205 -0.2893 -0.0741 -0.4102
  258SOL     OW 1029   1.019   4.155   4.061  0.1247 -0.2650 -0.3027
  258SOL    HW1 1030   1.050   4.186   3.976  1.1399 -0.7146 -0.1157
  258SOL    HW2 1031   1.071   4.076   4.078  0.0062 -0.1293  0.7783
  258SOL     MW 1032   1.030   4.149   4.053  0.2395 -0.3052 -0.1404
  259SOL     OW 1033   5.323   2.192   1.068 -0.0667  0.2927 -0.1338
  259SOL    HW1 1034   5.259   2.224   1.004 -0.7086  0.6426  0.6603
  259SOL    HW2 1035   5.353   2.271   1.114 -2.0335 -0.1554  2.1866
  259SOL     MW 1036   5.318   2.206   1.066 -0.4006  0.2801  0.2649
  260SOL     OW 1037   3.563   0.240   4.045  0.0864  0.3431  0.7465
  260SOL    HW1 1038   3.517   0.159   4.026 -1.0775  1.1273  0.1163
  260SOL    HW2 1039   3.529   0.268   4.130  0.8919 -0.0888  1.2274
  260SOL     MW 1040   3.553   0.233   4.054  0.0405  0.3882  0.7273
  261SOL     OW 1041   1.816   3.404   1.475  0.3803  0.5570  0.1444
  261SOL    HW1 1042   1.723   3.383   1.473 -0.6506  4.2782  1.1945
  261SOL    HW2 1043   1.842   3.388   1.566  0.4041  0.8306  0.1855
  261SOL     MW 1044   1.808   3.399   1.487  0.2513  1.0684  0.2841
  262SOL     OW 1045   1.527   4.377   1.416  0.1908 -0.4379 -0.3269
  262SOL    HW1 1046   1.537   4.442   1.347  1.0461 -0.8332 -0.5924
  262SOL    HW2 1047   1.607   4.324   1.411  0.8112  0.2307  1.7197
  262SOL     MW 1048   1.538   4.378   1.407  0.3797 -0.4029 -0.0989
  263SOL     OW 1049   4.968   0.988   0.173 -0.0748 -0.0314 -0.8036
  263SOL    HW1 1050   5.018   0.923   0.124 -0.0642 -0.4851 -0.2110
  263SOL    HW2 1051   4.901   1.019   0.112 -0.1111 -0.6344 -1.0781
  263SOL     MW 1052   4.966   0.984   0.159 -0.0781 -0.1667 -0.7629
  264SOL     OW 1053   0.356   4.697   1.872 -0.1361 -0.0997 -0.2786
  264SOL    HW1 1054   0.444   4.730   1.891 -0.1495 -0.0856 -0.2393
  264SOL    HW2 1055   0.355   4.685   1.778 -0.7453  1.8325 -0.5678
  264SOL     MW 1056   0.367   4.700   1.863 -0.2158  0.1494 -0.3106
  265SOL     OW 1057   5.344   2.220   2.396  0.0063  0.0523 -0.4482
  265SOL    HW1 1058   5.318   2.294   2.341 -0.9603 -1.1679 -1.6859
  265SOL    HW2 1059   5.262   2.183   2.427  0.3936 -1.5452 -1.2566
  265SOL     MW 1060   5.330   2.225   2.393 -0.0679 -0.3084 -0.7101
  266SOL     OW 1061   4.125   3.029   1.990  0.2736  0.0278  0.5051
  266SOL    HW1 1062   4.138   2.938   2.018 -3.3021 -0.1766  1.9797
  266SOL    HW2 1063   4.212   3.069   1.997  2.1740 -3.3754 -0.9520
  266SOL     MW 1064   4.138   3.022   1.994  0.0591 -0.4340  0.5073
  267SOL     OW 1065   2.717   5.388   4.512 -0.0863  0.2916  0.7180
  267SOL    HW1 1066   2.725   5.479   4.542 -2.8252  1.1733 -0.8511
  267SOL    HW2 1067   2.759   5.387   4.426  0.2436 -0.0031  0.8837
  267SOL     MW 1068   2.723   5.400   4.505 -0.3947  0.3667  0.5383
  268SOL     OW 1069   3.996   1.005   5.454  0.1757  0.0283 -0.5291
  268SOL    HW1 1070   3.955   0.947   5.390 -0.8264  1.0982 -0.8875
  268SOL    HW2 1071   4.014   0.948   5.529  0.3470 -1.0029 -1.3274
  268SOL     MW 1072   3.993   0.990   5.455  0.0694  0.0333 -0.6772
  269SOL     OW 1073   4.503   0.605   0.367  0.1553 -0.1174 -0.5714
  269SOL    HW1 1074   4.530   0.600   0.275  1.3112 -1.2550 -0.1986
  269SOL    HW2 1075   4.436   0.673   0.368  1.6150  1.4547 -1.9051
  269SOL     MW 1076   4.498   0.613   0.355  0.4901 -0.0618 -0.6944
  270SOL     OW 1077   3.094   3.611   1.238 -0.0152  0.3940 -0.3711
  270SOL    HW1 1078   3.112   3.658   1.319 -1.8300  0.9185 -0.2484
  270SOL    HW2 1079   3.105   3.519   1.260  0.7221  0.5960  0.1319
  270SOL     MW 1080   3.098   3.606   1.251 -0.1531  0.4870 -0.2910
  271SOL     OW 1081   2.513   4.006   4.392 -0.4296  0.4701 -0.6901
  271SOL    HW1 1082   2.592   4.014   4.339 -0.6850  1.0904 -0.9952
  271SOL    HW2 1083   2.441   4.012   4.329 -0.7593 -3.1218 -0.8237
  271SOL     MW 1084   2.514   4.008   4.377 -0.5045  0.0897 -0.7463
  272SOL     OW 1085   1.447   2.817   3.523 -0.2611  0.0392  0.6576
  272SOL    HW1 1086   1.498   2.863   3.590  0.9947  1.1093 -0.9478
  272SOL    HW2 1087   1.508   2.752   3.487  0.4258  1.9768 -1.9569
  272SOL     MW 1088   1.461   2.815   3.527 -0.0124  0.4243  0.1174
  273SOL     OW 1089   5.102   4.962   4.667 -0.1292 -0.4005  0.2376
  273SOL    HW1 1090   5.069   5.024   4.602 -1.3560 -0.5136  0.7367
  273SOL    HW2 1091   5.180   5.006   4.703 -0.7694  0.6950  0.3365
  273SOL     MW 1092   5.108   4.976   4.663 -0.3682 -0.2747  0.3141
  274SOL     OW 1093   2.320   3.573   2.857  0.5161  0.4571  0.2746
  274SOL    HW1 1094   2.405   3.546   2.824  1.7387  3.4279  0.6749
  274SOL    HW2 1095   2.266   3.584   2.779  0.6978 -0.7160 -0.0372
  274SOL     MW 1096   2.324   3.571   2.843  0.6959  0.6872  0.2859
  275SOL     OW 1097   4.286   4.493   0.319 -0.3032  0.0492 -0.2876
  275SOL    HW1 1098   4.317   4.555   0.254  0.6363  2.3249  2.1475
  275SOL    HW2 1099   4.363   4.470   0.370 -0.5476 -3.4606 -1.1811
  275SOL     MW 1100   4.300   4.498   0.317 -0.2142 -0.1087 -0.0903
  276SOL     OW 1101   5.185   0.653   0.310 -0.1547  0.6411  0.5060
  276SOL    HW1 1102   5.150   0.734   0.347 -0.5663  1.4202 -1.4688
  276SOL    HW2 1103   5.273   0.647   0.347  0.0888  2.2865  0.2994
  276SOL     MW 1104   5.192   0.663   0.320 -0.1762  0.9514  0.2267
  277SOL     OW 1105   2.582   0.006   1.550  0.2423  0.3039 -0.4611
  277SOL    HW1 1106   2.532   0.079   1.586 -0.1144 -0.3189  0.3427
  277SOL    HW2 1107   2.619   0.040   1.468 -0.6889  1.0817 -0.5751
  277SOL     MW 1108   2.580   0.019   1.544  0.0774  0.3238 -0.3728
  278SOL     OW 1109   1.901   3.626   1.643 -0.3519 -0.2009 -0.4736
  278SOL    HW1 1110   1.899   3.560   1.712 -0.4607  0.3530  0.0566
  278SOL    HW2 1111   1.985   3.612   1.599 -0.3065 -0.5928 -0.2685
  278SOL     MW 1112   1.911   3.616   1.646 -0.3600 -0.1802 -0.3795
  279SOL     OW 1113   4.022   5.275   4.063  0.1015 -0.1742 -0.2378
  279SOL    HW1 1114   3.975   5.214   4.120 -0.1549  1.6593  1.6072
  279SOL    HW2 1115   3.954   5.320   4.014  0.2633 -0.9486 -1.2094
  279SOL     MW 1116   4.008   5.273   4.064  0.0894 -0.0386 -0.1260
  280SOL     OW 1117   0.193   4.411   0.113  0.0870  0.2753 -0.2379
  280SOL    HW1 1118   0.123   4.468   0.081  0.7899  0.7783 -0.9146
  280SOL    HW2 1119   0.208   4.440   0.203  0.1486  0.8900 -0.4392
  280SOL     MW 1120   0.186   4.422   0.120  0.1849  0.4184 -0.3503
  281SOL     OW 1121   2.863   3.913   4.409 -0.5788 -0.1276  0.0751
  281SOL    HW1 1122   2.870   3.944   4.500 -1.6500  0.4919 -0.0373
  281SOL    HW2 1123   2.853   3.993   4.357  4.9092  0.0702 -1.2781
  281SOL     MW 1124   2.862   3.927   4.414 -0.0134 -0.0230 -0.1125
  282SOL     OW 1125   0.678   2.748   3.986 -0.2200 -0.3256 -0.4103
  282SOL    HW1 1126   0.734   2.741   4.064  0.2332  0.1324 -0.6935
  282SOL    HW2 1127   0.729   2.800   3.924 -1.1056  0.4204 -0.5340
  282SOL     MW 1128   0.692   2.754   3.988 -0.2754 -0.1715 -0.4624
  283SOL     OW 1129   5.383   2.138   0.629  0.3904 -0.3488 -0.1573
  283SOL    HW1 1130   5.476   2.129   0.648  0.3361  1.2488  1.1462
  283SOL    HW2 1131   5.362   2.064   0.573  2.2477 -1.2319  0.2433
  283SOL     MW 1132   5.392   2.127   0.624  0.6212 -0.2573  0.0609
  284SOL     OW 1133   3.729   3.334   3.192  0.4915 -0.3761 -0.0866
  284SOL    HW1 1134   3.781   3.314   3.270  0.7520 -0.9463 -0.3959
  284SOL    HW2 1135   3.746   3.261   3.133 -0.5577 -0.5058 -0.2512
  284SOL     MW 1136   3.738   3.322   3.195  0.3906 -0.4657 -0.1473
  285SOL     OW 1137   5.166   3.123   4.058 -0.2580  0.4044  0.0657
  285SOL    HW1 1138   5.214   3.049   4.097 -1.7191 -0.8952 -0.4869
  285SOL    HW2 1139   5.083   3.085   4.029 -1.3128  2.4064  0.2755
  285SOL     MW 1140   5.162   3.108   4.060 -0.5801  0.4943  0.0218
  286SOL     OW 1141   3.533   2.765   5.174 -0.3450 -0.3188  0.6303
  286SOL    HW1 1142   3.493   2.679   5.179  1.6874 -1.4668 -1.1057
  286SOL    HW2 1143   3.510   2.798   5.087  1.1044 -0.3373  0.2104
  286SOL     MW 1144   3.525   2.759   5.164  0.1007 -0.4681  0.3543
  287SOL     OW 1145   3.938   2.388   4.723  0.3490  0.0719 -0.1730
  287SOL    HW1 1146   3.927   2.293   4.732  1.4847  0.0439  1.2701
  287SOL    HW2 1147   3.921   2.405   4.631 -1.3619 -1.3130 -0.1584
  287SOL     MW 1148   3.935   2.378   4.712  0.2754 -0.1089  0.0136
  288SOL     OW 1149   3.995   5.428   0.401  0.0866  0.2135 -0.6715
  288SOL    HW1 1150   4.043   5.348   0.377 -0.3215 -0.1287 -0.3518
  288SOL    HW2 1151   4.059   5.479   0.451  0.3185  0.0495 -0.7950
  288SOL     MW 1152   4.010   5.424   0.404  0.0640  0.1487 -0.6464
  289SOL     OW 1153   4.663   2.179   4.638 -0.0642  0.4622 -0.2801
  289SOL    HW1 1154   4.623   2.256   4.678 -0.4979 -0.1189  0.4191
  289SOL    HW2 1155   4.754   2.203   4.626 -0.6852  2.1058 -2.5965
  289SOL     MW 1156   4.669   2.192   4.642 -0.1993  0.5982 -0.4871
  290SOL     OW 1157   3.469  -0.013   2.015  0.6799 -0.3628  0.5948
  290SOL    HW1 1158   3.550  -0.012   2.067  1.5455  1.8526 -0.6535
  290SOL    HW2 1159   3.445   0.079   2.007  0.9196 -0.4771 -3.3264
  290SOL     MW 1160   3.477  -0.001   2.021  0.8214 -0.0938 -0.0670
  291SOL     OW 1161   2.690   2.987   5.132 -0.3158  0.2158 -0.2673
  291SOL    HW1 1162   2.718   3.062   5.081 -1.0621  1.5524  1.2055
  291SOL    HW2 1163   2.672   3.022   5.219  0.5610 -1.8940  0.8491
  291SOL     MW 1164   2.691   3.001   5.137 -0.2991  0.1168  0.0641
  292SOL     OW 1165   4.344   2.935   3.836  0.3579 -0.0297  0.0324
  292SOL    HW1 1166   4.275   2.940   3.769  0.5301  2.1410 -0.0338
  292SOL    HW2 1167   4.334   3.015   3.887  1.3075 -0.8540  1.5802
  292SOL     MW 1168   4.334   2.946   3.834  0.5015  0.1427  0.2221
  293SOL     OW 1169   1.730   4.964   5.126  0.4898 -0.7299  0.1391
  293SOL    HW1 1170   1.803   4.929   5.074 -0.5199 -1.2075 -0.9844
  293SOL    HW2 1171   1.709   4.894   5.188 -1.4232 -2.1697 -2.0003
  293SOL     MW 1172   1.737   4.950   5.127  0.1156 -0.9754 -0.2786
  294SOL     OW 1173   5.274   2.300   4.035 -0.6721  0.1912  0.2898
  294SOL    HW1 1174   5.367   2.277   4.037 -0.6988 -0.5015 -2.7547
  294SOL    HW2 1175   5.265   2.357   3.959 -2.6705  0.7624  0.9051
  294SOL     MW 1176   5.285   2.305   4.026 -0.9313  0.1757 -0.0211
  295SOL     OW 1177   0.115   1.996   3.661 -0.1695  0.0381 -0.2521
  295SOL    HW1 1178   0.069   1.916   3.686  0.7237  0.1573  1.9537
  295SOL    HW2 1179   0.047   2.051   3.622 -0.7790 -1.7812 -1.9694
  295SOL     MW 1180   0.100   1.993   3.659 -0.1332 -0.1796 -0.1895
  296SOL     OW 1181   2.088   3.535   4.588 -0.4356  0.2451 -0.6250
  296SOL    HW1 1182   2.145   3.595   4.636  0.3368 -0.7998 -0.1780
  296SOL    HW2 1183   2.002   3.576   4.591 -0.4565  0.1958  1.7785
  296SOL     MW 1184   2.085   3.548   4.595 -0.3394  0.1050 -0.2601
  297SOL     OW 1185   0.726   1.466   0.838 -0.5900 -0.0861  0.4683
  297SOL    HW1 1186   0.760   1.402   0.776 -0.7106 -0.6431  0.9685
  297SOL    HW2 1187   0.803   1.512   0.869 -0.6272  0.9999 -0.9458
  297SOL     MW 1188   0.740   1.464   0.834 -0.6102 -0.0184  0.3513
  298SOL     OW 1189   3.407   4.965   5.240  0.0277  0.6686  0.0131
  298SOL    HW1 1190   3.358   5.030   5.192 -0.0337 -0.1271 -1.0311
  298SOL    HW2 1191   3.496   5.000   5.245 -0.0139  0.8421 -0.4971
  298SOL     MW 1192   3.412   4.978   5.235  0.0145  0.5889 -0.1859
  299SOL     OW 1193   0.503   4.311   1.038 -1.0484 -0.6434  0.4899
  299SOL    HW1 1194   0.546   4.274   0.961 -0.7490  1.3466 -0.3581
  299SOL    HW2 1195   0.560   4.383   1.066 -1.9008 -0.3955  1.6771
  299SOL     MW 1196   0.516   4.316   1.031 -1.1192 -0.3569  0.5333
  300SOL     OW 1197   1.082   5.163   1.414 -0.5283  0.1710 -0.6605
  300SOL    HW1 1198   0.995   5.203   1.402 -0.7656 -0.0861  0.1585
  300SOL    HW2 1199   1.064   5.070   1.422 -0.5192  0.3231  2.3293
  300SOL     MW 1200   1.068   5.156   1.414 -0.5575  0.1576 -0.1729
  301SOL     OW 1201   4.865   0.667   5.399  0.2043 -0.5146 -0.5116
  301SOL    HW1 1202   4.936   0.717   5.440  0.0419  0.2847 -1.1972
  301SOL    HW2 1203   4.902   0.636   5.317  0.0983 -1.0118 -0.3768
  301SOL     MW 1204   4.879   0.669   5.394  0.1699 -0.4760 -0.5821
  302SOL     OW 1205   2.212   1.376   2.970  0.2789 -0.3938  0.0228
  302SOL    HW1 1206   2.164   1.293   2.975  2.1695 -1.4777  1.0228
  302SOL    HW2 1207   2.224   1.391   2.876 -1.1495 -0.5746 -0.2169
  302SOL     MW 1208   2.207   1.368   2.958  0.3381 -0.5557  0.1201
  303SOL     OW 1209   0.813   0.143   0.946 -0.3211  0.3127  0.4353
  303SOL    HW1 1210   0.827   0.088   1.024 -1.7800 -0.3656  0.2570
  303SOL    HW2 1211   0.845   0.090   0.874 -0.5756  0.2015  0.4007
  303SOL     MW 1212   0.819   0.129   0.947 -0.5404  0.2116  0.4081
  304SOL     OW 1213   2.873   3.982   5.431 -0.1675 -0.3281 -0.1128
  304SOL    HW1 1214   2.889   3.922   5.504  0.1989 -0.9435 -0.7009
  304SOL    HW2 1215   2.933   3.955   5.362  0.9502  1.5119  0.0487
  304SOL     MW 1216   2.883   3.971   5.432  0.0225 -0.1713 -0.1674
  305SOL     OW 1217   4.455   0.658   1.634  0.2142 -0.2054  0.7322
  305SOL    HW1 1218   4.378   0.641   1.688 -1.2775  0.0041 -1.2216
  305SOL    HW2 1219   4.512   0.583   1.649 -0.6604 -0.6967  1.7063
  305SOL     MW 1220   4.453   0.646   1.642 -0.0887 -0.2415  0.6068
  306SOL     OW 1221   0.096   2.991   3.626 -0.4243  0.5455  0.4030
  306SOL    HW1 1222   0.140   3.022   3.705 -0.6302  0.2332  0.6395
  306SOL    HW2 1223   0.006   3.023   3.635 -0.6757 -0.2246  0.7138
  306SOL     MW 1224   0.090   2.999   3.637 -0.4828  0.4070  0.4730
  307SOL     OW 1225   3.829   0.609   2.066 -0.3346  0.2451 -0.3888
  307SOL    HW1 1226   3.864   0.672   2.004 -0.0989  1.0139  0.5070
  307SOL    HW2 1227   3.901   0.548   2.082 -1.1541 -1.4989 -2.7666
  307SOL     MW 1228   3.843   0.609   2.060 -0.4093  0.1203 -0.5785
  308SOL     OW 1229   2.383   1.531   0.805 -0.6602  0.2504 -0.0141
  308SOL    HW1 1230   2.349   1.526   0.716 -1.1668  0.1776  0.1819
  308SOL    HW2 1231   2.478   1.523   0.794 -0.7387 -0.0896 -0.5201
  308SOL     MW 1232   2.391   1.529   0.792 -0.7351  0.1976 -0.0538
  309SOL     OW 1233   4.282   4.373   3.226  0.0138 -0.5618  0.1465
  309SOL    HW1 1234   4.241   4.345   3.144  1.7642 -0.2992 -0.8800
  309SOL    HW2 1235   4.291   4.468   3.216 -0.3349 -0.4348  0.9441
  309SOL     MW 1236   4.278   4.382   3.214  0.1933 -0.5119  0.1172
  310SOL     OW 1237   1.655   5.330   1.527  0.0355 -0.0764  0.1143
  310SOL    HW1 1238   1.675   5.248   1.483 -1.3375  0.7790 -2.3344
  310SOL    HW2 1239   1.694   5.397   1.472  1.4241  0.9681  2.2345
  310SOL     MW 1240   1.662   5.328   1.514  0.0375  0.1668  0.0722
  311SOL     OW 1241   4.866   0.421   1.720  0.0543  0.0926 -0.3372
  311SOL    HW1 1242   4.890   0.446   1.631  0.7512  0.5240 -0.0449
  311SOL    HW2 1243   4.771   0.425   1.723  0.0585  0.5925 -0.9133
  311SOL     MW 1244   4.857   0.425   1.709  0.1440  0.2118 -0.3735
  312SOL     OW 1245   0.765   0.575   5.431  0.0518  0.1060  0.0955
  312SOL    HW1 1246   0.765   0.632   5.508  1.5870  1.3948 -0.8191
  312SOL    HW2 1247   0.852   0.535   5.430 -0.0067 -0.0223 -0.8885
  312SOL     MW 1248   0.776   0.577   5.441  0.2408  0.2545 -0.1475
  313SOL     OW 1249   5.327   0.007   1.621  0.3923 -0.7784  0.0319
  313SOL    HW1 1250   5.347   0.040   1.709 -0.0198 -1.4549  0.3808
  313SOL    HW2 1251   5.233   0.020   1.612  0.6651  0.8412 -0.9690
  313SOL     MW 1252   5.318   0.013   1.631  0.3744 -0.6577 -0.0516
  314SOL     OW 1253   1.476   4.488   0.320  0.1253  0.3678  0.5221
  314SOL    HW1 1254   1.395   4.539   0.319  0.3923  0.8016  0.2736
  314SOL    HW2 1255   1.474   4.438   0.238  0.0729  0.3226  0.5512
  314SOL     MW 1256   1.465   4.488   0.309  0.1528  0.4175  0.4940
  315SOL     OW 1257   2.446   3.048   1.927  0.0764  0.5094  0.2923
  315SOL    HW1 1258   2.481   3.085   1.846  0.0704 -0.0506  0.0317
  315SOL    HW2 1259   2.360   3.013   1.903  0.3046 -0.1477  0.4124
  315SOL     MW 1260   2.439   3.049   1.914  0.1048  0.3536  0.2743
  316SOL     OW 1261   1.615   3.480   5.116  0.2542 -0.0945 -0.0601
  316SOL    HW1 1262   1.624   3.508   5.025 -2.1645 -0.8223 -0.6093
  316SOL    HW2 1263   1.554   3.406   5.111  1.8745 -1.6886  1.9302
  316SOL     MW 1264   1.608   3.474   5.103  0.1520 -0.3917  0.1244
  317SOL     OW 1265   4.190   1.701   1.486  1.0455 -0.2546 -0.2835
  317SOL    HW1 1266   4.203   1.609   1.463 -0.8562 -0.4964 -0.5030
  317SOL    HW2 1267   4.172   1.744   1.403 -0.2404 -0.1000  0.0577
  317SOL     MW 1268   4.190   1.695   1.473  0.6374 -0.2657 -0.2679
  318SOL     OW 1269   5.198   0.605   4.401  0.5739  0.0692 -0.0108
  318SOL    HW1 1270   5.282   0.622   4.444  1.5683  0.1743 -1.8647
  318SOL    HW2 1271   5.191   0.510   4.399  0.8508  0.0494 -0.1862
  318SOL     MW 1272   5.208   0.595   4.406  0.7366  0.0801 -0.2705
  319SOL     OW 1273   3.182   0.655   3.256  0.2984 -0.7217 -0.7552
  319SOL    HW1 1274   3.090   0.679   3.240  0.6699  1.0344 -0.4527
  319SOL    HW2 1275   3.180   0.604   3.337 -0.4571 -1.1847 -1.0498
  319SOL     MW 1276   3.170   0.651   3.264  0.2492 -0.5562 -0.7542
  320SOL     OW 1277   4.397   2.687   5.461 -0.1515  0.1123 -0.2318
  320SOL    HW1 1278   4.414   2.603   5.418 -1.3269  0.2623 -1.0206
  320SOL    HW2 1279   4.309   2.711   5.434 -0.9875  0.2185  2.3057
  320SOL     MW 1280   4.388   2.679   5.452 -0.4090  0.1451 -0.0080
  321SOL     OW 1281   1.515   1.052   4.232  0.4499 -1.1148  0.8066
  321SOL    HW1 1282   1.543   1.112   4.300 -0.0349 -0.4093  0.3894
  321SOL    HW2 1283   1.594   1.035   4.181 -0.0313  1.9988 -1.2468
  321SOL     MW 1284   1.529   1.057   4.234  0.3262 -0.6259  0.4904
  322SOL     OW 1285   3.158   5.474   3.736  0.1126 -0.1881  0.0044
  322SOL    HW1 1286   3.180   5.420   3.661  0.1479  1.8884 -1.5765
  322SOL    HW2 1287   3.147   5.412   3.809  0.7853 -2.1939 -1.5252
  322SOL     MW 1288   3.159   5.460   3.736  0.2032 -0.1791 -0.3938
  323SOL     OW 1289   3.290   2.637   5.045  0.1960 -0.0220  0.6186
  323SOL    HW1 1290   3.343   2.578   5.099  1.8134  2.0544  1.4583
  323SOL    HW2 1291   3.202   2.627   5.079  0.9722  0.3381  2.9589
  323SOL     MW 1292   3.286   2.628   5.057  0.5024  0.2899  1.0257
  324SOL     OW 1293   4.179   5.454   2.793  0.1139 -0.1438  0.1751
  324SOL    HW1 1294   4.203   5.410   2.875  1.2980  0.7577  0.3371
  324SOL    HW2 1295   4.258   5.500   2.767  0.0730 -1.2145 -2.0249
  324SOL     MW 1296   4.192   5.454   2.800  0.2602 -0.1655 -0.0858
  325SOL     OW 1297   2.892   3.776   0.156 -0.2437  0.4411  0.1024
  325SOL    HW1 1298   2.885   3.713   0.228 -0.1712 -1.5627 -1.5283
  325SOL    HW2 1299   2.979   3.758   0.118 -0.8006  0.5261 -1.2586
  325SOL     MW 1300   2.903   3.766   0.161 -0.3057  0.1955 -0.2806
  326SOL     OW 1301   5.380   2.369   5.405 -0.4802 -0.0136 -0.5525
  326SOL    HW1 1302   5.350   2.279   5.419 -0.3801  0.2648  1.9643
  326SOL    HW2 1303   5.432   2.388   5.483  0.1930  1.9509 -1.4448
  326SOL     MW 1304   5.383   2.360   5.417 -0.3812  0.2735 -0.3445
  327SOL     OW 1305   0.860   5.155   1.667  0.3013 -0.1406  0.2003
  327SOL    HW1 1306   0.941   5.145   1.717 -0.5430  0.2584  1.6809
  327SOL    HW2 1307   0.889   5.191   1.583  1.7854 -1.2393  0.2068
  327SOL     MW 1308   0.874   5.158   1.662  0.3832 -0.2301  0.3906
  328SOL     OW 1309   4.915   3.931   5.428 -0.2856 -0.2069  0.4016
  328SOL    HW1 1310   4.887   4.023   5.434 -2.5484 -0.7259 -0.8908
  328SOL    HW2 1311   4.895   3.905   5.338  1.5051 -1.6474  0.3636
  328SOL     MW 1312   4.909   3.939   5.417 -0.3460 -0.4577  0.2313
  329SOL     OW 1313   0.086   2.023   1.778  0.1122 -0.1190  0.2695
  329SOL    HW1 1314   0.180   2.007   1.783  0.0874 -0.0464  1.0561
  329SOL    HW2 1315   0.075   2.115   1.804 -0.2084 -0.2471  0.6043
  329SOL     MW 1316   0.097   2.033   1.782  0.0680 -0.1261  0.4130
  330SOL     OW 1317   4.841   1.893   2.336  0.7567 -0.0272 -0.4763
  330SOL    HW1 1318   4.764   1.905   2.279  0.2353 -1.2677 -0.0563
  330SOL    HW2 1319   4.915   1.914   2.279  0.2134 -0.6996 -1.4648
  330SOL     MW 1320   4.840   1.897   2.321  0.6204 -0.2721 -0.5491
  331SOL     OW 1321   2.224   2.987   1.737 -0.5391  0.2480 -0.5984
  331SOL    HW1 1322   2.155   3.035   1.691  0.3169  0.7255 -1.4386
  331SOL    HW2 1323   2.192   2.897   1.742 -1.2873  0.4938 -0.8444
  331SOL     MW 1324   2.211   2.982   1.731 -0.5253  0.3406 -0.7374
  332SOL     OW 1325   2.482   4.515   2.427 -0.1671 -0.3314  0.2855
  332SOL    HW1 1326   2.537   4.579   2.471 -0.2046  0.0313 -0.1844
  332SOL    HW2 1327   2.419   4.568   2.377 -0.8289 -0.7363  0.6794
  332SOL     MW 1328   2.481   4.530   2.426 -0.2566 -0.3368  0.2757
  333SOL     OW 1329   4.946   2.309   4.001  0.0270  0.5277 -0.6428
  333SOL    HW1 1330   5.024   2.318   4.056 -1.6571 -0.0380  2.0294
  333SOL    HW2 1331   4.939   2.215   3.983 -0.7752  0.3649  0.3917
  333SOL     MW 1332   4.955   2.298   4.006 -0.2913  0.4345 -0.1683
  334SOL     OW 1333   5.302   4.043   5.220  0.1348 -0.2953 -0.9995
  334SOL    HW1 1334   5.227   4.102   5.210 -0.2165 -0.2843  1.1896
  334SOL    HW2 1335   5.347   4.047   5.136 -1.3710  1.0147 -1.7995
  334SOL     MW 1336   5.298   4.051   5.208 -0.1030 -0.1262 -0.8217
  335SOL     OW 1337   4.103   4.807   4.897 -0.0141  0.3818 -0.1837
  335SOL    HW1 1338   4.053   4.726   4.888  0.2700  0.2158 -0.2792
  335SOL    HW2 1339   4.192   4.783   4.872  0.7104  0.0571  2.4187
  335SOL     MW 1340   4.108   4.794   4.892  0.1150  0.3190  0.1372
  336SOL     OW 1341   2.543   2.603   5.012 -0.3442 -0.4642  0.2848
  336SOL    HW1 1342   2.495   2.529   5.050 -1.2292 -0.1061 -0.1006
  336SOL    HW2 1343   2.476   2.655   4.968  0.4041  0.0714 -0.2549
  336SOL     MW 1344   2.528   2.600   5.011 -0.3617 -0.3498  0.1664
  337SOL     OW 1345   3.942   4.902   0.092  0.3796  0.2886 -0.2244
  337SOL    HW1 1346   3.847   4.904   0.077  0.1029 -1.2294  1.1019
  337SOL    HW2 1347   3.971   4.989   0.066 -1.5013  1.0592  0.0549
  337SOL     MW 1348   3.933   4.914   0.087  0.1034  0.1929 -0.0189
  338SOL     OW 1349   2.214   3.051   4.492 -0.7317 -0.5260  0.0750
  338SOL    HW1 1350   2.165   2.980   4.536 -1.5202 -1.9335 -2.8100
  338SOL    HW2 1351   2.301   3.014   4.478 -1.5035 -1.5584 -2.5568
  338SOL     MW 1352   2.219   3.037   4.496 -0.9314 -0.8383 -0.6312
  339SOL     OW 1353   3.673   4.064   0.339  0.2028 -0.2852 -0.2156
  339SOL    HW1 1354   3.691   4.100   0.252 -2.2782 -0.5835 -0.9339
  339SOL    HW2 1355   3.671   4.140   0.397  0.6596  0.0587 -0.6449
  339SOL     MW 1356   3.675   4.078   0.335 -0.0563 -0.2793 -0.3625
  340SOL     OW 1357   0.555   2.289   2.739  0.5294 -0.3348  0.7539
  340SOL    HW1 1358   0.578   2.380   2.717 -1.4024  0.1469  0.5424
  340SOL    HW2 1359   0.504   2.296   2.819 -0.8644 -1.0556 -0.0375
  340SOL     MW 1360   0.552   2.302   2.746  0.1037 -0.3654  0.6255
  341SOL     OW 1361   4.602   3.895   3.154  0.4369 -0.4047  0.1101
  341SOL    HW1 1362   4.689   3.918   3.120 -0.0527  0.1343 -0.8059
  341SOL    HW2 1363   4.542   3.950   3.105 -0.3387  0.2174  1.6963
  341SOL     MW 1364   4.606   3.905   3.143  0.2750 -0.2560  0.1959
  342SOL     OW 1365   0.245   2.975   5.438  0.1822  0.3861 -0.4649
  342SOL    HW1 1366   0.232   2.926   5.357  0.9973  0.8602 -0.8915
  342SOL    HW2 1367   0.306   3.044   5.415 -0.7958  1.4994  0.1760
  342SOL     MW 1368   0.251   2.977   5.425  0.1614  0.5893 -0.4375
  343SOL     OW 1369   2.972   5.178   1.236  0.4831 -0.1630 -0.0555
  343SOL    HW1 1370   2.949   5.085   1.235  0.5110 -0.2406  2.1763
  343SOL    HW2 1371   3.060   5.181   1.198  1.0182 -1.2502  1.0127
  343SOL     MW 1372   2.980   5.167   1.231  0.5552 -0.3121  0.3670
  344SOL     OW 1373   3.684   0.691   2.681 -0.6141  0.1705  0.2020
  344SOL    HW1 1374   3.615   0.654   2.626 -0.5459 -0.1048  0.3006
  344SOL    HW2 1375   3.730   0.615   2.717  0.7586  0.3133 -1.1147
  344SOL     MW 1376   3.681   0.676   2.679 -0.4297  0.1536  0.0461
  345SOL     OW 1377   1.562   5.204   2.120  0.3601 -0.0060 -0.5109
  345SOL    HW1 1378   1.656   5.213   2.134  0.4240  1.0102 -1.4683
  345SOL    HW2 1379   1.539   5.276   2.062 -0.9314 -0.5246 -0.6855
  345SOL     MW 1380   1.571   5.214   2.114  0.2030  0.0577 -0.6558
  346SOL     OW 1381   1.851   4.383   0.002 -0.4867 -0.5080  0.3466
  346SOL    HW1 1382   1.779   4.446   0.003  0.3375  0.5510 -1.4345
  346SOL    HW2 1383   1.929   4.435   0.022  0.0847 -1.1454 -0.1506
  346SOL     MW 1384   1.852   4.398   0.005 -0.3080 -0.4540  0.0550
  347SOL     OW 1385   0.604   5.174   4.172 -0.5404 -0.2216 -0.0329
  347SOL    HW1 1386   0.590   5.267   4.155  0.0282  0.1407  1.3615
  347SOL    HW2 1387   0.686   5.171   4.220 -0.3153 -1.5036 -0.4705
  347SOL     MW 1388   0.613   5.186   4.176 -0.4388 -0.3393  0.0896
  348SOL     OW 1389   0.398   1.128   3.923 -0.3845  0.0100  0.1935
  348SOL    HW1 1390   0.475   1.143   3.869 -1.3026 -0.4571 -1.3124
  348SOL    HW2 1391   0.423   1.158   4.011  0.7938  1.8767 -0.7155
  348SOL     MW 1392   0.411   1.134   3.928 -0.3512  0.1892 -0.1156
  349SOL     OW 1393   3.160   4.770   5.225 -0.8617  0.1316 -0.0950
  349SOL    HW1 1394   3.202   4.684   5.214 -0.5904 -0.0626  1.9465
  349SOL    HW2 1395   3.233   4.829   5.245 -1.1958  0.5422 -0.0910
  349SOL     MW 1396   3.175   4.766   5.226 -0.8697  0.1593  0.1669
  350SOL     OW 1397   2.883   4.368   4.505 -0.2051  0.6274 -0.7596
  350SOL    HW1 1398   2.962   4.315   4.509 -0.5163  0.0564 -1.6992
  350SOL    HW2 1399   2.811   4.306   4.519 -0.4506  1.5243  2.6592
  350SOL     MW 1400   2.884   4.353   4.507 -0.2764  0.6691 -0.4423
  351SOL     OW 1401   1.262   1.139   1.416 -0.2857  0.0997  0.3854
  351SOL    HW1 1402   1.331   1.129   1.481  0.4251 -0.1132 -0.3766
  351SOL    HW2 1403   1.277   1.225   1.377 -0.2781 -0.0594  0.0286
  351SOL     MW 1404   1.273   1.149   1.419 -0.1937  0.0521  0.2421
  352SOL     OW 1405   2.535   2.463   1.665  0.2072 -0.0029  0.3632
  352SOL    HW1 1406   2.467   2.395   1.673  2.7173 -2.7878 -0.0675
  352SOL    HW2 1407   2.590   2.451   1.742  1.0029  1.2351  0.0116
  352SOL     MW 1408   2.533   2.453   1.676  0.6304 -0.2009  0.2631
  353SOL     OW 1409   2.676   2.155   4.037 -0.7248  0.2593 -0.3103
  353SOL    HW1 1410   2.629   2.106   3.970  0.3563  0.4772 -1.2452
  353SOL    HW2 1411   2.618   2.229   4.058 -1.2317 -0.0147 -0.7261
  353SOL     MW 1412   2.663   2.158   4.031 -0.6513  0.2521 -0.4832
  354SOL     OW 1413   3.492   5.031   0.300  0.0463 -0.2343 -0.2837
  354SOL    HW1 1414   3.499   4.978   0.220  0.8479  0.1253 -0.4584
  354SOL    HW2 1415   3.421   5.092   0.282 -0.4681 -0.8308 -0.3208
  354SOL     MW 1416   3.484   5.032   0.288  0.0830 -0.2646 -0.3108
  355SOL     OW 1417   3.577   4.817   4.396 -0.4046  0.3757 -0.0708
  355SOL    HW1 1418   3.487   4.786   4.387  0.3358 -1.2605 -2.9304
  355SOL    HW2 1419   3.587   4.884   4.327  0.6334  0.3543  0.0335
  355SOL     MW 1420   3.567   4.822   4.386 -0.1769  0.1635 -0.4235
  356SOL     OW 1421   2.485   2.203   2.780 -0.2456  0.7884 -0.2075
  356SOL    HW1 1422   2.400   2.164   2.762  0.4728 -0.8061 -0.3972
  356SOL    HW2 1423   2.513   2.241   2.697 -1.0031  1.8324  0.0033
  356SOL     MW 1424   2.478   2.203   2.767 -0.2506  0.7180 -0.2048
  357SOL     OW 1425   2.127   1.713   0.374  0.0308 -0.3179 -0.3692
  357SOL    HW1 1426   2.087   1.685   0.292  0.0871  1.0152 -0.8800
  357SOL    HW2 1427   2.053   1.731   0.432 -0.0410 -0.2579 -0.4795
  357SOL     MW 1428   2.112   1.712   0.371  0.0288 -0.1396 -0.4487
  358SOL     OW 1429   2.589   4.606   5.358 -0.0507  0.2787 -0.0660
  358SOL    HW1 1430   2.576   4.583   5.266 -2.7130 -0.0337  0.3288
  358SOL    HW2 1431   2.684   4.619   5.366  0.2657  0.1462 -2.7856
  358SOL     MW 1432   2.600   4.605   5.347 -0.3510  0.2217 -0.3636
  359SOL     OW 1433   4.423   4.142   1.958 -0.0285 -0.2993 -0.7545
  359SOL    HW1 1434   4.341   4.178   1.923  0.9230  2.0113 -0.7893
  359SOL    HW2 1435   4.423   4.167   2.051  0.7564  0.0196 -0.8283
  359SOL     MW 1436   4.413   4.150   1.965  0.1938  0.0373 -0.7684
  360SOL     OW 1437   0.666   1.334   3.570  0.5732 -0.5420 -0.7778
  360SOL    HW1 1438   0.655   1.293   3.656  1.7999 -0.4246 -0.5595
  360SOL    HW2 1439   0.628   1.271   3.508  0.1931 -0.8723 -0.2142
  360SOL     MW 1440   0.660   1.321   3.573  0.6816 -0.5693 -0.6777
  361SOL     OW 1441   1.488   2.149   5.258  0.7059 -0.3286 -0.0301
  361SOL    HW1 1442   1.411   2.147   5.201  1.4677  0.6760 -1.1439
  361SOL    HW2 1443   1.452   2.153   5.346 -0.5099 -1.7627 -0.4106
  361SOL     MW 1444   1.473   2.149   5.262  0.6478 -0.3836 -0.2214
  362SOL     OW 1445   0.094   5.294   1.628 -0.4885  0.4313 -0.2387
  362SOL    HW1 1446   0.038   5.317   1.702  0.0388  2.8291 -0.4966
  362SOL    HW2 1447   0.170   5.352   1.636 -0.1747  0.3952 -2.3278
  362SOL     MW 1448   0.096   5.305   1.638 -0.3808  0.7336 -0.5391
  363SOL     OW 1449   3.549   0.396   4.867 -0.0379 -0.5044 -0.4825
  363SOL    HW1 1450   3.530   0.362   4.955 -1.3762  0.2623 -0.4439
  363SOL    HW2 1451   3.468   0.382   4.818  0.5164 -0.4210 -1.4332
  363SOL     MW 1452   3.536   0.390   4.872 -0.1382 -0.3956 -0.5992
  364SOL     OW 1453   0.624   3.646   3.825 -0.2273 -0.3461 -0.1522
  364SOL    HW1 1454   0.626   3.603   3.910 -2.3053 -0.5688 -0.1538
  364SOL    HW2 1455   0.697   3.708   3.827  0.7994 -1.5342  1.1078
  364SOL     MW 1456   0.634   3.649   3.836 -0.3619 -0.5267  0.0089
  365SOL     OW 1457   0.241   4.397   2.219 -1.0434  0.1404  0.2112
  365SOL    HW1 1458   0.221   4.306   2.200  2.0217 -0.0350 -3.0559
  365SOL    HW2 1459   0.269   4.397   2.311  0.8134 -2.6248 -0.2584
  365SOL     MW 1460   0.242   4.385   2.229 -0.4133 -0.2361 -0.2671
  366SOL     OW 1461   1.740   0.384   1.228 -0.0014  0.0445 -0.2972
  366SOL    HW1 1462   1.694   0.445   1.171  1.5228  0.3136 -1.2804
  366SOL    HW2 1463   1.793   0.440   1.286  1.1716 -0.3069 -1.0037
  366SOL     MW 1464   1.741   0.399   1.228  0.3438  0.0340 -0.5135
  367SOL     OW 1465   1.062   4.235   3.783  0.3514 -0.2576 -0.3041
  367SOL    HW1 1466   1.042   4.315   3.831 -0.5323 -0.7599  0.2091
  367SOL    HW2 1467   0.976   4.201   3.756  0.5670 -1.8387  0.8341
  367SOL     MW 1468   1.048   4.241   3.786  0.2659 -0.5243 -0.0927
  368SOL     OW 1469   1.306   3.810   0.419  0.1426  0.2629  0.1699
  368SOL    HW1 1470   1.303   3.799   0.324  0.7168 -2.0325  0.3595
  368SOL    HW2 1471   1.399   3.823   0.438 -0.1659  2.5934  0.2944
  368SOL     MW 1472   1.318   3.810   0.409  0.1766  0.2674  0.2101
  369SOL     OW 1473   4.457   0.164   0.032 -0.0430  0.4816  0.5194
  369SOL    HW1 1474   4.489   0.081  -0.003  0.0874  1.2936 -1.4339
  369SOL    HW2 1475   4.366   0.168   0.004  0.2427  1.4425 -0.3312
  369SOL     MW 1476   4.450   0.154   0.024  0.0103  0.7086  0.1604
  370SOL     OW 1477   0.638   4.500   1.158  0.3756  0.0212  0.4202
  370SOL    HW1 1478   0.687   4.583   1.153  1.1423 -0.3914  0.9419
  370SOL    HW2 1479   0.566   4.518   1.218  0.1814  0.4846  0.0570
  370SOL     MW 1480   0.635   4.513   1.165  0.4488  0.0277  0.4405
  371SOL     OW 1481   4.223   3.174   2.267 -0.3831  0.5601  0.2631
  371SOL    HW1 1482   4.179   3.260   2.264 -1.5817 -0.0439 -0.4134
  371SOL    HW2 1483   4.277   3.172   2.188  1.3640  1.5326  1.3853
  371SOL     MW 1484   4.224   3.185   2.256 -0.3129  0.6073  0.3202
  372SOL     OW 1485   3.518   1.360   1.708  0.4556  1.0712  0.2353
  372SOL    HW1 1486   3.536   1.303   1.633  0.0930 -0.2422  1.1231
  372SOL    HW2 1487   3.452   1.422   1.675  1.0857  1.2024 -0.8341
  372SOL     MW 1488   3.512   1.360   1.694  0.4899  0.9199  0.2120
  373SOL     OW 1489   5.351   4.600   3.475 -0.1149 -0.0669 -0.4210
  373SOL    HW1 1490   5.355   4.524   3.534 -0.7135  1.1128  1.2303
  373SOL    HW2 1491   5.257   4.615   3.462  0.0086  0.0374 -1.2358
  373SOL     MW 1492   5.339   4.593   3.481 -0.1757  0.0974 -0.3139
  374SOL     OW 1493   2.305   2.439   3.799 -0.2829 -0.2405  0.0110
  374SOL    HW1 1494   2.245   2.467   3.729  0.6929  0.6036 -0.5205
  374SOL    HW2 1495   2.390   2.431   3.755  0.2846  0.0166  1.0365
  374SOL     MW 1496   2.308   2.442   3.784 -0.0853 -0.0996  0.0743
  375SOL     OW 1497   0.063   0.980   0.886  0.4783  0.2259  0.6220
  375SOL    HW1 1498   0.070   0.965   0.792  0.0067  0.6865  0.5075
  375SOL    HW2 1499   0.003   1.055   0.894 -0.9817 -0.9543  1.3536
  375SOL     MW 1500   0.056   0.988   0.875  0.2310  0.1338  0.7010
  376SOL     OW 1501   4.002   1.182   4.384  0.1283 -0.1140 -0.4119
  376SOL    HW1 1502   4.088   1.141   4.384  0.3252  0.2852 -0.4063
  376SOL    HW2 1503   3.946   1.123   4.335  0.0216 -1.1765  0.9325
  376SOL     MW 1504   4.006   1.169   4.378  0.1398 -0.1989 -0.2391
  377SOL     OW 1505   1.410   2.472   4.674  0.0997 -0.2363 -0.2983
  377SOL    HW1 1506   1.460   2.402   4.631 -1.2986 -2.0067  0.8260
  377SOL    HW2 1507   1.459   2.490   4.755  1.1402  1.0415 -1.1630
  377SOL     MW 1508   1.423   2.465   4.679  0.0539 -0.2994 -0.2650
  378SOL     OW 1509   1.656   2.327   1.703  0.2212  0.6255  0.1437
  378SOL    HW1 1510   1.713   2.257   1.736 -0.4976  0.0160  0.1366
  378SOL    HW2 1511   1.716   2.391   1.664  0.9353  0.3280  0.7341
  378SOL     MW 1512   1.671   2.326   1.702  0.2206  0.5094  0.2184
  379SOL     OW 1513   0.847   4.819   5.132  0.1602 -0.2129  0.1538
  379SOL    HW1 1514   0.778   4.781   5.187  0.0248  0.5111  0.4907
  379SOL    HW2 1515   0.869   4.749   5.070 -0.1039 -0.8291  0.7408
  379SOL     MW 1516   0.841   4.805   5.131  0.1090 -0.1991  0.2720
  380SOL     OW 1517   4.892   0.018   4.494  0.6035  0.0973  0.0955
  380SOL    HW1 1518   4.869   0.108   4.518 -1.3015 -0.4285  0.3869
  380SOL    HW2 1519   4.895  -0.029   4.578  0.9326 -0.2581 -0.1135
  380SOL     MW 1520   4.890   0.024   4.508  0.4018 -0.0155  0.1061
  381SOL     OW 1521   3.839   3.515   4.438 -1.0437  0.2892  0.2334
  381SOL    HW1 1522   3.929   3.523   4.469 -0.8586  0.7885 -0.4076
  381SOL    HW2 1523   3.842   3.543   4.346 -1.7619 -0.1532  0.0623
  381SOL     MW 1524   3.851   3.520   4.430 -1.1119  0.2965  0.1295
  382SOL     OW 1525   2.301   4.424   1.416  0.1882 -0.4686  0.7298
  382SOL    HW1 1526   2.243   4.443   1.490 -1.8126  0.4411 -0.9505
  382SOL    HW2 1527   2.265   4.344   1.378  1.0519 -0.7976  0.6013
  382SOL     MW 1528   2.289   4.416   1.420  0.0426 -0.3942  0.4983
  383SOL     OW 1529   4.993   1.124   1.746  0.4306 -0.5547  0.4122
  383SOL    HW1 1530   4.945   1.176   1.682 -1.3484 -4.1826 -1.5414
  383SOL    HW2 1531   5.011   1.184   1.818 -1.6093  2.5848 -1.4778
  383SOL     MW 1532   4.989   1.138   1.747 -0.0582 -0.6173 -0.0798
  384SOL     OW 1533   1.587   4.989   3.875  0.1421  0.4082  0.3506
  384SOL    HW1 1534   1.531   4.993   3.953  0.3898  2.9098  0.5008
  384SOL    HW2 1535   1.672   5.020   3.905  0.5914  0.1952 -0.6614
  384SOL     MW 1536   1.591   4.994   3.889  0.2313  0.7011  0.2403
  385SOL     OW 1537   1.819   3.351   1.764  0.3423  0.2723 -0.4253
  385SOL    HW1 1538   1.849   3.266   1.797  0.7408  0.0496 -1.3349
  385SOL    HW2 1539   1.730   3.360   1.801 -0.2750 -1.1910 -1.4386
  385SOL     MW 1540   1.811   3.341   1.773  0.3143  0.0565 -0.6715
  386SOL     OW 1541   1.518   4.207   2.545  0.7179 -0.3711  0.5751
  386SOL    HW1 1542   1.552   4.146   2.611 -0.7932 -1.5042  0.3447
  386SOL    HW2 1543   1.430   4.175   2.526  0.3831  1.1341 -0.5247
  386SOL     MW 1544   1.511   4.195   2.551  0.4816 -0.3235  0.4048
  387SOL     OW 1545   4.187   0.096   4.756 -0.3627  0.7652 -0.1728
  387SOL    HW1 1546   4.136   0.107   4.676  1.8966  0.7285 -1.7135
  387SOL    HW2 1547   4.246   0.172   4.757  0.5343  0.0814  0.7618
  387SOL     MW 1548   4.188   0.107   4.746  0.0413  0.6730 -0.2503
  388SOL     OW 1549   1.161   0.777   5.320  0.2527  0.1607  0.1441
  388SOL    HW1 1550   1.147   0.870   5.336 -0.4589 -0.3287  2.7093
  388SOL    HW2 1551   1.249   0.760   5.353  0.6040 -0.0005 -0.8369
  388SOL     MW 1552   1.170   0.787   5.326  0.2066  0.0774  0.3469
  389SOL     OW 1553   0.619   4.314   5.144  0.3184 -0.0455  0.1020
  389SOL    HW1 1554   0.592   4.359   5.224 -2.0682 -0.1485 -0.5566
  389SOL    HW2 1555   0.674   4.242   5.174 -0.6566 -0.1747  1.6949
  389SOL     MW 1556   0.623   4.310   5.158 -0.1119 -0.0752  0.2216
  390SOL     OW 1557   0.947   2.622   0.440  0.1505 -0.3820 -0.2090
  390SOL    HW1 1558   1.000   2.651   0.515 -2.6890  0.4957  1.6228
  390SOL    HW2 1559   0.930   2.530   0.457 -1.3134  0.0467  0.8546
  390SOL     MW 1560   0.952   2.614   0.452 -0.4004 -0.2148  0.1616
  391SOL     OW 1561  -0.030   5.234   2.039  0.1007  0.6701  0.0916
  391SOL    HW1 1562   0.043   5.292   2.061  0.0588  0.4163  0.9254
  391SOL    HW2 1563   0.009   5.163   1.988  0.0724  1.6936 -1.4223
  391SOL     MW 1564  -0.016   5.233   2.035  0.0917  0.7687  0.0045
  392SOL     OW 1565   0.937   3.762   1.957 -0.2822 -0.1818 -0.6750
  392SOL    HW1 1566   1.000   3.814   1.908  0.7284  1.4636  2.1391
  392SOL    HW2 1567   0.856   3.812   1.953 -0.2157 -0.0773 -0.7256
  392SOL     MW 1568   0.935   3.775   1.950 -0.1443  0.0422 -0.3213
  393SOL     OW 1569   3.019   4.804   5.012 -0.3591  0.0108 -0.1353
  393SOL    HW1 1570   3.064   4.788   5.095 -0.9224  1.2863  0.4343
  393SOL    HW2 1571   3.089   4.823   4.950 -0.0195  0.3698  0.3571
  393SOL     MW 1572   3.034   4.804   5.014 -0.3877  0.2200  0.0007
  394SOL     OW 1573   5.438   3.168   4.910  0.8442  0.0977  0.0377
  394SOL    HW1 1574   5.382   3.105   4.955  0.3350  1.0747  0.8191
  394SOL    HW2 1575   5.496   3.201   4.978  1.6479 -0.0956 -0.5343
  394SOL     MW 1576   5.438   3.164   4.924  0.8819  0.1980  0.0645
  395SOL     OW 1577   3.702   4.525   0.598  0.1567 -0.0614  0.8102
  395SOL    HW1 1578   3.734   4.535   0.687 -0.0774 -0.7687  0.9806
  395SOL    HW2 1579   3.737   4.601   0.551  0.2402  0.3387  1.5103
  395SOL     MW 1580   3.711   4.536   0.603  0.1374 -0.1008  0.9217
  396SOL     OW 1581   4.093   3.076   1.670 -0.0352  0.3848 -0.0851
  396SOL    HW1 1582   4.153   3.002   1.674 -1.3463 -0.7206 -0.2792
  396SOL    HW2 1583   4.043   3.071   1.751 -1.4242 -0.0883 -0.9441
  396SOL     MW 1584   4.094   3.066   1.681 -0.3808  0.1827 -0.2199
  397SOL     OW 1585   0.918   2.331   2.646 -0.0348  0.8739 -0.1518
  397SOL    HW1 1586   0.902   2.425   2.654 -0.4379  0.8301 -0.4244
  397SOL    HW2 1587   0.901   2.311   2.554  0.6753  0.6454 -0.2387
  397SOL     MW 1588   0.914   2.341   2.635  0.0045  0.8391 -0.1978
  398SOL     OW 1589   2.086   1.125   5.401 -0.1272  0.0084 -0.8420
  398SOL    HW1 1590   2.167   1.119   5.451 -1.4985 -1.3523  1.3686
  398SOL    HW2 1591   2.095   1.057   5.334 -0.5375 -2.1630  1.1975
  398SOL     MW 1592   2.098   1.115   5.399 -0.3553 -0.4437 -0.2979
  399SOL     OW 1593   3.066   0.056   0.386 -0.1060  0.8666  0.4842
  399SOL    HW1 1594   3.064  -0.025   0.336  0.8670  0.7413  0.6392
  399SOL    HW2 1595   3.152   0.093   0.369  0.2054  0.8829  1.9663
  399SOL     MW 1596   3.077   0.051   0.378  0.0584  0.8527  0.6938
  400SOL     OW 1597   1.794   2.417   4.195 -0.1398 -0.1917  0.4361
  400SOL    HW1 1598   1.772   2.497   4.243  0.0791  0.0569  0.1286
  400SOL    HW2 1599   1.734   2.351   4.230 -1.5702  0.5165 -0.5451
  400SOL     MW 1600   1.783   2.419   4.206 -0.2949 -0.0692  0.2712
  401SOL     OW 1601   2.422   1.269   0.492 -0.4419 -0.4710 -0.4669
  401SOL    HW1 1602   2.415   1.359   0.523 -0.8140 -0.6835  0.0781
  401SOL    HW2 1603   2.331   1.239   0.484 -0.3115 -1.0341  0.0734
  401SOL     MW 1604   2.409   1.277   0.495 -0.4728 -0.5703 -0.3280
  402SOL     OW 1605   2.825   0.917   5.183 -0.3511 -0.1317  0.0553
  402SOL    HW1 1606   2.785   0.985   5.237  0.4235  0.4590 -0.0911
  402SOL    HW2 1607   2.753   0.884   5.128 -0.8503  0.1827  0.5166
  402SOL     MW 1608   2.810   0.922   5.183 -0.3159 -0.0158  0.0956
  403SOL     OW 1609   2.707   3.105   0.797  0.2425 -0.1737 -0.4524
  403SOL    HW1 1610   2.624   3.059   0.785 -0.1630  0.5038 -0.3227
  403SOL    HW2 1611   2.769   3.037   0.822 -0.7131 -0.4386  1.4334
  403SOL     MW 1612   2.704   3.091   0.799  0.0682 -0.1209 -0.1944
  404SOL     OW 1613   2.741   2.328   3.826  0.2364 -0.2386 -0.4550
  404SOL    HW1 1614   2.810   2.387   3.857  0.2840  0.2606 -1.4786
  404SOL    HW2 1615   2.729   2.266   3.898 -0.9541  1.9524  1.3836
  404SOL     MW 1616   2.748   2.328   3.839  0.0901  0.1058 -0.3507
  405SOL     OW 1617   5.121   4.883   3.321 -0.0855 -0.1600  1.1868
  405SOL    HW1 1618   5.046   4.907   3.265  0.4740  0.0882  0.5335
  405SOL    HW2 1619   5.113   4.788   3.331 -0.1953 -0.2097  0.6762
  405SOL     MW 1620   5.110   4.874   3.315 -0.0279 -0.1346  1.0378
  406SOL     OW 1621   4.193   0.355   1.791 -0.1148  0.4654  0.1955
  406SOL    HW1 1622   4.106   0.316   1.802 -0.8205  1.6654 -0.7980
  406SOL    HW2 1623   4.197   0.377   1.698  1.3400  0.2543  0.1910
  406SOL     MW 1624   4.182   0.353   1.780 -0.0189  0.5920  0.0678
  407SOL     OW 1625   5.110   4.108   0.133 -0.1617  0.1234 -0.3359
  407SOL    HW1 1626   5.139   4.025   0.171  0.5035  1.6972  2.9338
  407SOL    HW2 1627   5.019   4.117   0.162 -0.6465 -0.0080 -1.7567
  407SOL     MW 1628   5.102   4.098   0.142 -0.1386  0.3080 -0.0992
  408SOL     OW 1629   2.967   2.350   4.102 -0.5506 -0.6353  0.2658
  408SOL    HW1 1630   2.960   2.386   4.013  1.2497  0.6398  0.5906
  408SOL    HW2 1631   3.001   2.261   4.089  2.7788  0.5900 -0.2816
  408SOL     MW 1632   2.970   2.343   4.089  0.1060 -0.3152  0.2373
  409SOL     OW 1633   3.383   4.677   3.256  0.0652  0.2486  0.7549
  409SOL    HW1 1634   3.354   4.740   3.190  1.5141 -1.0679 -1.2449
  409SOL    HW2 1635   3.457   4.632   3.216 -0.0897 -1.8440  2.6120
  409SOL     MW 1636   3.389   4.679   3.242  0.2308 -0.1878  0.7367
  410SOL     OW 1637   5.148   4.973   2.917  0.2309 -0.3823  0.3941
  410SOL    HW1 1638   5.180   5.061   2.895 -1.3142  0.0824 -0.0983
  410SOL    HW2 1639   5.216   4.914   2.884 -0.1986  0.4740 -2.2410
  410SOL     MW 1640   5.161   4.977   2.910 -0.0219 -0.2132 -0.0063
  411SOL     OW 1641   1.275   4.243   0.571 -0.4592 -0.9329  0.1299
  411SOL    HW1 1642   1.233   4.328   0.565  0.1522 -0.5797  0.7363
  411SOL    HW2 1643   1.272   4.208   0.482 -1.5966 -0.7146  0.0728
  411SOL     MW 1644   1.269   4.249   0.559 -0.5265 -0.8597  0.2002
  412SOL     OW 1645   4.500   2.556   0.438  0.0525 -0.4070 -0.3192
  412SOL    HW1 1646   4.496   2.555   0.534  0.2384 -1.4442 -0.3097
  412SOL    HW2 1647   4.433   2.619   0.412 -1.3956 -1.5656  0.4477
  412SOL     MW 1648   4.491   2.564   0.447 -0.1091 -0.6881 -0.2198
  413SOL     OW 1649   0.097   4.521   3.013 -0.0450 -0.4701 -0.1348
  413SOL    HW1 1650   0.023   4.517   3.074 -1.2288  1.2880 -1.3552
  413SOL    HW2 1651   0.157   4.583   3.054 -0.8599  0.7465 -0.7100
  413SOL     MW 1652   0.095   4.528   3.026 -0.3009 -0.0893 -0.3647
  414SOL     OW 1653   0.218   3.704   3.870  0.0123 -0.1642  0.2997
  414SOL    HW1 1654   0.284   3.759   3.912  0.7607 -0.1243 -0.8856
  414SOL    HW2 1655   0.183   3.759   3.800 -0.4469 -0.5984  0.1860
  414SOL     MW 1656   0.222   3.718   3.866  0.0493 -0.2147  0.1334
  415SOL     OW 1657   1.898   4.881   0.547 -0.1594  0.1179  0.3658
  415SOL    HW1 1658   1.981   4.842   0.518 -0.2450 -0.1672  0.4977
  415SOL    HW2 1659   1.838   4.806   0.556 -0.4073  0.3121  0.3522
  415SOL     MW 1660   1.901   4.866   0.544 -0.2021  0.1063  0.3809
  416SOL     OW 1661   5.045   1.777   2.169 -0.0087 -0.6721 -0.1822
  416SOL    HW1 1662   5.049   1.708   2.235  0.6934 -1.3352 -0.8934
  416SOL    HW2 1663   5.090   1.740   2.093  0.6673  0.6854 -0.4706
  416SOL     MW 1664   5.051   1.763   2.168  0.1677 -0.5832 -0.3102
  417SOL     OW 1665   3.717   2.950   0.095 -0.0495 -0.8209 -0.0420
  417SOL    HW1 1666   3.690   2.888   0.163  0.6431  1.5455  2.6068
  417SOL    HW2 1667   3.645   2.949   0.032 -1.6129 -1.8936  1.6379
  417SOL     MW 1668   3.704   2.942   0.096 -0.1610 -0.6553  0.5121
  418SOL     OW 1669   2.549   3.640   0.159  0.3323 -0.0037 -0.0426
  418SOL    HW1 1670   2.551   3.598   0.245 -0.9556 -0.6816 -0.3330
  418SOL    HW2 1671   2.464   3.616   0.122  1.6634 -1.4848 -2.3893
  418SOL     MW 1672   2.539   3.632   0.165  0.3378 -0.2801 -0.3802
  419SOL     OW 1673   2.583   3.650   2.382 -0.1267  0.5369 -0.4872
  419SOL    HW1 1674   2.589   3.634   2.288 -0.6894 -0.4094 -0.3683
  419SOL    HW2 1675   2.598   3.744   2.391  2.3899  0.2718 -1.2812
  419SOL     MW 1676   2.586   3.660   2.372  0.1234  0.3818 -0.5736
  420SOL     OW 1677   1.056   0.917   4.454 -0.3026 -0.2073 -0.0785
  420SOL    HW1 1678   1.010   0.967   4.386 -0.2867 -0.8121 -0.5506
  420SOL    HW2 1679   1.083   0.982   4.518  0.3930  0.5082 -1.0535
  420SOL     MW 1680   1.054   0.932   4.453 -0.2115 -0.1931 -0.2637
  421SOL     OW 1681   5.360   0.734   5.093  0.2915 -0.1360  0.2176
  421SOL    HW1 1682   5.279   0.690   5.067 -0.4254  1.0751  0.3159
  421SOL    HW2 1683   5.373   0.802   5.027  0.8778  0.1081  0.5718
  421SOL     MW 1684   5.352   0.737   5.081  0.2748  0.0503  0.2755
  422SOL     OW 1685   0.916   5.442   1.164 -0.9366  0.0196 -0.0797
  422SOL    HW1 1686   0.947   5.386   1.093 -0.5955 -0.3843  0.3907
  422SOL    HW2 1687   0.988   5.504   1.179 -0.8925 -0.0811  0.1170
  422SOL     MW 1688   0.929   5.443   1.157 -0.8873 -0.0450  0.0057
  423SOL     OW 1689   5.363   1.149   3.314  0.2736  0.2577  0.3182
  423SOL    HW1 1690   5.273   1.148   3.281  0.5108  0.1041 -0.3518
  423SOL    HW2 1691   5.375   1.062   3.354  0.1356  0.2670  0.3794
  423SOL     MW 1692   5.353   1.138   3.315  0.2863  0.2392  0.2403
  424SOL     OW 1693   1.419   2.063   1.423 -0.4787  0.5522 -0.0636
  424SOL    HW1 1694   1.372   1.991   1.463  0.1544  0.6833  0.9552
  424SOL    HW2 1695   1.512   2.040   1.433 -0.2317  1.9070  1.0957
  424SOL     MW 1696   1.425   2.051   1.429 -0.3660  0.7424  0.2152
  425SOL     OW 1697   1.326   2.097   0.908  0.2897 -0.2465 -0.2559
  425SOL    HW1 1698   1.232   2.113   0.908 -0.0019 -1.7682 -1.0767
  425SOL    HW2 1699   1.352   2.104   1.000 -0.4690  0.9226 -0.1172
  425SOL     MW 1700   1.317   2.100   0.920  0.1552 -0.2916 -0.3432
  426SOL     OW 1701   4.312   3.161   0.698 -0.0956  0.3393  0.0250
  426SOL    HW1 1702   4.331   3.172   0.791 -0.7435 -1.4474  0.3902
  426SOL    HW2 1703   4.369   3.225   0.655  1.5424 -0.0319  1.5297
  426SOL     MW 1704   4.322   3.171   0.704  0.0311  0.0631  0.2643
  427SOL     OW 1705   4.076   2.275   3.648 -0.1489 -0.3582 -0.3111
  427SOL    HW1 1706   4.063   2.209   3.716 -1.1552 -0.6488 -0.7677
  427SOL    HW2 1707   4.161   2.253   3.609  0.8595  0.3125  1.3663
  427SOL     MW 1708   4.086   2.264   3.652 -0.1486 -0.3095 -0.1548
  428SOL     OW 1709   0.124   4.329   3.336  0.3061  0.7692 -0.2552
  428SOL    HW1 1710   0.043   4.283   3.358  0.3872  1.5051  1.9111
  428SOL    HW2 1711   0.097   4.421   3.327  0.6052  0.7447 -1.5528
  428SOL     MW 1712   0.110   4.335   3.338  0.3548  0.8603 -0.1440
  429SOL     OW 1713   1.298   2.332   0.047  0.0027 -0.9177 -0.3843
  429SOL    HW1 1714   1.311   2.238   0.061  0.8915 -0.8660 -0.8044
  429SOL    HW2 1715   1.243   2.360   0.120 -0.6581 -1.8523 -0.5072
  429SOL     MW 1716   1.292   2.323   0.058  0.0319 -1.0307 -0.4538
  430SOL     OW 1717   2.800   2.894   2.770 -0.1654 -0.1549  0.0101
  430SOL    HW1 1718   2.854   2.970   2.751 -0.4258 -0.2290 -1.0963
  430SOL    HW2 1719   2.857   2.836   2.821 -0.0101  0.8117  0.9806
  430SOL     MW 1720   2.814   2.896   2.774 -0.1789 -0.0407 -0.0073
  431SOL     OW 1721   4.426   4.308   0.441  0.0051  0.1310 -0.5510
  431SOL    HW1 1722   4.383   4.250   0.379 -0.3276  0.0234 -0.2270
  431SOL    HW2 1723   4.398   4.276   0.527  0.9246 -0.0864 -0.3230
  431SOL     MW 1724   4.417   4.297   0.444  0.0802  0.0894 -0.4803
  432SOL     OW 1725   2.555   2.287   0.768 -0.0793  0.0571  0.4689
  432SOL    HW1 1726   2.478   2.251   0.812  0.0457  1.8459  2.2847
  432SOL    HW2 1727   2.628   2.268   0.827  0.1034  2.4468  1.1050
  432SOL     MW 1728   2.554   2.280   0.781 -0.0399  0.5920  0.7828
  433SOL     OW 1729   0.848   5.353   3.390 -0.0150 -0.0978 -0.0466
  433SOL    HW1 1730   0.889   5.355   3.304 -0.4063  1.2957 -0.2224
  433SOL    HW2 1731   0.854   5.443   3.422 -0.9516 -0.3380  0.8668
  433SOL     MW 1732   0.854   5.364   3.383 -0.1850  0.0498  0.0479
  434SOL     OW 1733   1.715   3.048   5.110  0.1777 -0.0335  0.0110
  434SOL    HW1 1734   1.719   3.090   5.024  0.5314  1.2087  0.6042
  434SOL    HW2 1735   1.804   3.017   5.126 -0.0287 -0.8218 -0.3227
  434SOL     MW 1736   1.727   3.050   5.101  0.1966  0.0246  0.0442
  435SOL     OW 1737   1.680   5.229   0.851 -0.5365  0.0731  0.2165
  435SOL    HW1 1738   1.740   5.163   0.818 -0.7704  0.0362 -0.1504
  435SOL    HW2 1739   1.648   5.194   0.934  2.1748  1.4178  1.9378
  435SOL     MW 1740   1.683   5.216   0.857 -0.2194  0.2405  0.3899
  436SOL     OW 1741   0.168   1.301   5.175 -0.2262  0.1057 -0.0772
  436SOL    HW1 1742   0.184   1.281   5.267 -0.8923  1.6557  0.4059
  436SOL    HW2 1743   0.165   1.397   5.172 -2.1598  0.0458 -1.3557
  436SOL     MW 1744   0.170   1.311   5.187 -0.5590  0.2964 -0.1790
  437SOL     OW 1745   1.358   3.298   5.521 -0.0889 -0.5787  0.7168
  437SOL    HW1 1746   1.426   3.267   5.460 -0.4826 -2.0687  0.9953
  437SOL    HW2 1747   1.294   3.343   5.464  1.0460  0.7476  0.4433
  437SOL     MW 1748   1.358   3.300   5.506  0.0060 -0.5996  0.7175
  438SOL     OW 1749   2.570   4.143   3.957 -0.5371  0.4438 -0.3319
  438SOL    HW1 1750   2.645   4.188   3.919  1.2622 -0.4641  1.8782
  438SOL    HW2 1751   2.566   4.059   3.911  1.1776 -0.3636  0.8831
  438SOL     MW 1752   2.579   4.138   3.947 -0.0872  0.2242  0.1065
  439SOL     OW 1753   1.616   4.469   5.132 -0.0072 -0.1486  0.7517
  439SOL    HW1 1754   1.700   4.499   5.168  0.9875 -1.5109 -0.3343
  439SOL    HW2 1755   1.637   4.442   5.042 -2.1837  2.1598 -0.5747
  439SOL     MW 1756   1.630   4.470   5.125 -0.1584 -0.0275  0.4429
  440SOL     OW 1757   1.270   2.876   1.863  0.4018 -0.3418 -0.2503
  440SOL    HW1 1758   1.235   2.787   1.863 -1.9984  0.4885 -2.5247
  440SOL    HW2 1759   1.220   2.921   1.932  0.1646 -0.2687 -0.4680
  440SOL     MW 1760   1.259   2.871   1.872  0.0642 -0.2262 -0.5694
  441SOL     OW 1761   1.833   4.291   4.151  0.2719 -0.1316 -0.7311
  441SOL    HW1 1762   1.775   4.365   4.174 -0.1500 -0.4065 -0.8975
  441SOL    HW2 1763   1.918   4.332   4.134 -0.5218  0.6712 -3.3347
  441SOL     MW 1764   1.836   4.306   4.152  0.1163 -0.0640 -1.0857
  442SOL     OW 1765   3.307   0.017   0.854  0.5263  0.2140 -0.3958
  442SOL    HW1 1766   3.230   0.044   0.805  0.0978  1.3715  0.8743
  442SOL    HW2 1767   3.353   0.098   0.874  1.2895 -0.3360  0.1728
  442SOL     MW 1768   3.303   0.031   0.850  0.5691  0.2918 -0.1604
  443SOL     OW 1769   4.444   1.049   0.515  0.3493  0.4743 -0.2215
  443SOL    HW1 1770   4.461   1.077   0.425  1.6753 -1.4947 -0.6398
  443SOL    HW2 1771   4.522   1.077   0.564 -0.6788  2.1998  0.5447
  443SOL     MW 1772   4.456   1.056   0.510  0.3875  0.4431 -0.1769
  444SOL     OW 1773   5.344   1.158   0.727 -0.6347  0.1134  0.4858
  444SOL    HW1 1774   5.328   1.229   0.790 -1.7865  1.4529 -1.2193
  444SOL    HW2 1775   5.296   1.185   0.648  0.1848 -1.8349 -0.7444
  444SOL     MW 1776   5.336   1.170   0.725 -0.6773  0.0355  0.1100
  445SOL     OW 1777   4.842   4.848   2.295  0.5365 -0.1107  0.6408
  445SOL    HW1 1778   4.919   4.896   2.325  0.3118  0.7048 -0.0333
  445SOL    HW2 1779   4.805   4.903   2.226 -1.2436  0.0427  1.6524
  445SOL     MW 1780   4.847   4.861   2.290  0.2799  0.0133  0.6840
  446SOL     OW 1781   1.597   4.081   2.114 -0.9060  0.1913 -0.4178
  446SOL    HW1 1782   1.671   4.140   2.128 -0.1623 -1.1762  1.8026
  446SOL    HW2 1783   1.535   4.102   2.184 -1.7747 -0.0314 -1.0902
  446SOL     MW 1784   1.598   4.092   2.125 -0.9220 -0.0123 -0.2197
  447SOL     OW 1785   3.514   2.409   4.837  0.1955  0.0661 -0.3203
  447SOL    HW1 1786   3.609   2.415   4.852  0.3397  0.3097 -1.2518
  447SOL    HW2 1787   3.483   2.347   4.903  0.5535  2.0009  1.7958
  447SOL     MW 1788   3.522   2.402   4.847  0.2598  0.3450 -0.1687
  448SOL     OW 1789   3.508   1.782   1.583  0.4876 -0.1219  0.2065
  448SOL    HW1 1790   3.457   1.706   1.556  1.6013 -0.9952  0.4827
  448SOL    HW2 1791   3.577   1.788   1.518  0.2249  0.8609  0.0086
  448SOL     MW 1792   3.510   1.773   1.571  0.5965 -0.1079  0.2165
  449SOL     OW 1793   2.902   0.873   2.534 -0.2236  0.4603 -0.4178
  449SOL    HW1 1794   2.935   0.933   2.467  0.0539  1.5226  0.6240
  449SOL    HW2 1795   2.807   0.872   2.521 -0.2080  0.9674 -0.5893
  449SOL     MW 1796   2.894   0.881   2.524 -0.1861  0.6612 -0.3064
  450SOL     OW 1797   5.344   0.112   4.005  0.3006  0.2428  0.2178
  450SOL    HW1 1798   5.319   0.201   3.980  2.1403  1.0981  1.2582
  450SOL    HW2 1799   5.285   0.090   4.077 -0.2324  0.5716 -0.1128
  450SOL     MW 1800   5.333   0.121   4.011  0.4679  0.3944  0.3086
  451SOL     OW 1801   2.458   0.948   2.040 -0.6183  0.0357 -0.3161
  451SOL    HW1 1802   2.530   0.929   1.980  0.9679  2.6566  0.6216
  451SOL    HW2 1803   2.480   0.901   2.120 -0.3153  0.2918 -0.2509
  451SOL     MW 1804   2.470   0.939   2.043 -0.3765  0.4040 -0.1877
  452SOL     OW 1805   1.720   1.723   3.759  0.0617  0.0128 -0.0506
  452SOL    HW1 1806   1.677   1.730   3.844  0.2674 -0.4680  0.0968
  452SOL    HW2 1807   1.663   1.772   3.699  0.1343  0.7091  0.4366
  452SOL     MW 1808   1.707   1.730   3.762  0.0973  0.0404  0.0306
  453SOL     OW 1809   1.545   5.007   0.029  0.0013  0.0207 -0.0627
  453SOL    HW1 1810   1.588   5.073  -0.025  0.3985  0.0368  0.2666
  453SOL    HW2 1811   1.587   5.015   0.115 -0.3097 -0.3073  0.1233
  453SOL     MW 1812   1.556   5.016   0.033  0.0123 -0.0192  0.0033
  454SOL     OW 1813   3.839   0.079   3.154  0.3179  0.3080  0.1354
  454SOL    HW1 1814   3.866   0.124   3.234 -0.0146 -0.0415  0.4473
  454SOL    HW2 1815   3.882   0.127   3.083  0.2427  0.8954  0.4887
  454SOL     MW 1816   3.848   0.091   3.155  0.2657  0.3385  0.2206
  455SOL     OW 1817   4.150   4.111   4.455 -0.2454 -0.4888 -0.5337
  455SOL    HW1 1818   4.055   4.114   4.457 -0.2492 -1.1008  0.5010
  455SOL    HW2 1819   4.174   4.169   4.382 -1.4349 -1.0500 -1.4070
  455SOL     MW 1820   4.141   4.118   4.446 -0.3982 -0.6390 -0.5130
  456SOL     OW 1821   0.043   2.517   2.003 -0.2525  0.3507  0.5574
  456SOL    HW1 1822   0.090   2.531   2.085  0.7211  0.2672  0.0245
  456SOL    HW2 1823   0.038   2.422   1.994  1.7612  0.3105 -0.6378
  456SOL     MW 1824   0.048   2.507   2.012  0.1299  0.3348  0.3362
  457SOL     OW 1825   1.128   5.358   1.005  0.4909 -0.4356  0.1659
  457SOL    HW1 1826   1.202   5.417   0.997 -0.3760  0.7637  0.7197
  457SOL    HW2 1827   1.107   5.333   0.915  0.9270  0.0260 -0.0687
  457SOL     MW 1828   1.134   5.362   0.992  0.4358 -0.2230  0.2068
  458SOL     OW 1829   4.381   4.746   2.444 -0.1745 -0.1478 -0.9009
  458SOL    HW1 1830   4.426   4.685   2.503 -2.1043 -0.0422  0.7667
  458SOL    HW2 1831   4.452   4.785   2.392  1.6675 -0.0764  1.4929
  458SOL     MW 1832   4.396   4.743   2.445 -0.1857 -0.1252 -0.3810
  459SOL     OW 1833   1.075   1.358   1.670 -0.0402 -0.0968 -0.0213
  459SOL    HW1 1834   0.996   1.319   1.634 -0.0675  0.7406 -0.9249
  459SOL    HW2 1835   1.116   1.403   1.596  0.7297  0.3679  0.6566
  459SOL     MW 1836   1.070   1.359   1.656  0.0549  0.0699 -0.0502
  460SOL     OW 1837   0.273   1.674   4.423  0.0334 -0.5365  0.0288
  460SOL    HW1 1838   0.213   1.672   4.348 -1.0151 -0.8714  0.8605
  460SOL    HW2 1839   0.318   1.590   4.419 -0.5900 -0.8816  0.2254
  460SOL     MW 1840   0.271   1.663   4.413 -0.1806 -0.6235  0.1605
  461SOL     OW 1841   4.439   4.481   5.027  0.1732  0.2774  0.1803
  461SOL    HW1 1842   4.462   4.439   4.945  0.6615 -0.4830  0.6936
  461SOL    HW2 1843   4.360   4.435   5.057  0.4352  0.0310  0.5076
  461SOL     MW 1844   4.432   4.470   5.021  0.2692  0.1485  0.2879
  462SOL     OW 1845   3.919   4.588   2.637  0.1144 -0.9898 -0.1107
  462SOL    HW1 1846   4.008   4.596   2.673 -0.0078 -0.0266  0.0242
  462SOL    HW2 1847   3.893   4.679   2.620 -1.1916 -1.1903  0.6960
  462SOL     MW 1848   3.927   4.601   2.640 -0.0684 -0.8921  0.0098
  463SOL     OW 1849   0.180   0.048   4.173 -0.5379 -0.0495  0.3740
  463SOL    HW1 1850   0.109   0.073   4.232  0.8410  0.4147  1.9075
  463SOL    HW2 1851   0.213  -0.035   4.208 -0.8119 -0.6689 -0.7919
  463SOL     MW 1852   0.175   0.041   4.185 -0.3965 -0.0694  0.4211
  464SOL     OW 1853   0.459   1.688   5.473  0.1153 -0.3608  0.1576
  464SOL    HW1 1854   0.503   1.646   5.399 -0.2224 -0.5946  0.0858
  464SOL    HW2 1855   0.368   1.658   5.467  0.1899 -0.7985  0.9617
  464SOL     MW 1856   0.453   1.679   5.463  0.0817 -0.4468  0.2513
  465SOL     OW 1857   0.688   2.985   4.638  0.4185 -0.6677 -0.3898
  465SOL    HW1 1858   0.658   2.895   4.622  1.1763 -1.0345  0.2253
  465SOL    HW2 1859   0.717   2.985   4.729  0.1934  0.2720 -0.3115
  465SOL     MW 1860   0.688   2.974   4.647  0.4867 -0.5944 -0.3010
  466SOL     OW 1861   2.817   1.714   3.611  0.0529  0.0709  0.0901
  466SOL    HW1 1862   2.872   1.681   3.682 -0.0873 -1.4284 -0.4471
  466SOL    HW2 1863   2.878   1.734   3.540  0.0182 -0.5935 -0.1382
  466SOL     MW 1864   2.831   1.712   3.611  0.0306 -0.2060 -0.0079
  467SOL     OW 1865   4.364   4.475   1.899  0.1112  0.7404 -0.0850
  467SOL    HW1 1866   4.443   4.448   1.852 -0.1286  0.0504 -0.0979
  467SOL    HW2 1867   4.380   4.567   1.921  0.7258  0.7350 -0.4806
  467SOL     MW 1868   4.376   4.484   1.896  0.1592  0.6514 -0.1373
  468SOL     OW 1869   4.572   2.668   3.515  0.5617 -0.0734  0.0363
  468SOL    HW1 1870   4.605   2.619   3.591  0.1442  0.7425  0.7557
  468SOL    HW2 1871   4.613   2.754   3.523 -0.5256  0.4453  0.0802
  468SOL     MW 1872   4.582   2.673   3.526  0.3691  0.0974  0.1340
  469SOL     OW 1873   4.840   1.411   2.724 -0.6148 -0.0263  0.0460
  469SOL    HW1 1874   4.774   1.342   2.717  0.2647 -0.8062 -0.9899
  469SOL    HW2 1875   4.911   1.372   2.774 -1.6890  1.4686  2.9288
  469SOL     MW 1876   4.841   1.397   2.729 -0.6397  0.0653  0.2824
  470SOL     OW 1877   3.420   4.573   3.708  0.0211 -0.4237  0.6829
  470SOL    HW1 1878   3.415   4.527   3.791 -0.8815  1.3604  1.6810
  470SOL    HW2 1879   3.363   4.524   3.649  0.3030 -1.4468  1.2530
  470SOL     MW 1880   3.412   4.561   3.711 -0.0584 -0.3263  0.8836
  471SOL     OW 1881   2.415   3.926   4.632  0.5848 -0.1112 -0.4990
  471SOL    HW1 1882   2.476   3.974   4.687 -0.3079  1.8529 -1.1264
  471SOL    HW2 1883   2.448   3.936   4.543  0.5620 -0.9636 -0.6134
  471SOL     MW 1884   2.427   3.934   4.627  0.4676  0.0311 -0.5940
  472SOL     OW 1885   1.391   0.744   3.987  0.8162 -0.0653  0.1148
  472SOL    HW1 1886   1.309   0.771   4.030  0.2694 -1.7035  0.1878
  472SOL    HW2 1887   1.431   0.826   3.958 -0.8644  0.7793  0.0519
  472SOL     MW 1888   1.385   0.758   3.989  0.5310 -0.1669  0.1161
  473SOL     OW 1889   4.177   4.595   3.391  0.2433  0.2831 -0.0856
  473SOL    HW1 1890   4.147   4.662   3.453  0.8727 -0.6149  1.2484
  473SOL    HW2 1891   4.096   4.557   3.357 -0.1192  0.9171  0.0404
  473SOL     MW 1892   4.162   4.599   3.395  0.2775  0.2493  0.1013
  474SOL     OW 1893   4.340   3.939   5.428 -0.0108 -0.1736  0.2731
  474SOL    HW1 1894   4.379   4.024   5.450  2.9036 -0.9272 -1.4481
  474SOL    HW2 1895   4.313   3.903   5.513  0.0508  1.8278  1.2035
  474SOL     MW 1896   4.342   3.945   5.442  0.3701 -0.0139  0.1718
  475SOL     OW 1897   3.679   0.580   5.159  0.2813 -0.2687 -0.0615
  475SOL    HW1 1898   3.603   0.615   5.205 -0.5672 -0.0182 -1.5765
  475SOL    HW2 1899   3.713   0.655   5.110  1.8866 -0.2343  1.0422
  475SOL     MW 1900   3.673   0.594   5.159  0.3782 -0.2323 -0.1141
  476SOL     OW 1901   4.698   1.311   0.958  0.2366 -0.0010 -0.0652
  476SOL    HW1 1902   4.769   1.365   0.993  0.3616  0.6488 -1.2525
  476SOL    HW2 1903   4.741   1.229   0.932  0.2573 -0.2289  0.6825
  476SOL     MW 1904   4.713   1.307   0.959  0.2553  0.0530 -0.1215
  477SOL     OW 1905   4.868   3.908   3.889 -0.3198  0.0861 -0.4292
  477SOL    HW1 1906   4.802   3.871   3.947  0.1671  0.2280  0.2299
  477SOL    HW2 1907   4.822   3.975   3.839 -0.3475  1.2656  1.1165
  477SOL     MW 1908   4.854   3.912   3.890 -0.2610  0.2553 -0.1470
  478SOL     OW 1909   1.581   3.930   4.013  0.0512  0.0936  0.3985
  478SOL    HW1 1910   1.639   4.002   3.990 -0.5058  0.5283  0.3213
  478SOL    HW2 1911   1.634   3.851   4.004  0.8760  0.5450  1.1851
  478SOL     MW 1912   1.595   3.929   4.009  0.0855  0.2070  0.4893
  479SOL     OW 1913   2.894   3.904   1.714 -0.1183 -0.1310 -0.2709
  479SOL    HW1 1914   2.978   3.893   1.760  0.1411 -1.2857 -0.9860
  479SOL    HW2 1915   2.836   3.839   1.755 -0.9762  1.2625  0.8447
  479SOL     MW 1916   2.897   3.894   1.725 -0.1949 -0.1004 -0.2196
  480SOL     OW 1917   4.280   1.001   0.209 -0.0681 -0.3688  0.2927
  480SOL    HW1 1918   4.329   0.955   0.141  0.1911  0.0610  0.1838
  480SOL    HW2 1919   4.304   0.957   0.291  3.1025  1.8365  0.7164
  480SOL     MW 1920   4.289   0.990   0.211  0.3709 -0.0315  0.3330
  481SOL     OW 1921   5.131   2.626   0.508 -0.5383 -0.3193  0.6721
  481SOL    HW1 1922   5.159   2.708   0.549  1.2279 -0.4709 -0.1010
  481SOL    HW2 1923   5.089   2.576   0.578  1.5173 -0.1729  2.1068
  481SOL     MW 1924   5.129   2.630   0.522 -0.0491 -0.3200  0.7568
  482SOL     OW 1925   3.347   3.090   4.740 -0.2523 -0.3224 -0.2911
  482SOL    HW1 1926   3.277   3.133   4.788 -0.3561 -0.5572 -0.2340
  482SOL    HW2 1927   3.424   3.144   4.757  0.0839 -1.2792  1.4566
  482SOL     MW 1928   3.348   3.103   4.748 -0.2225 -0.4749 -0.0600
  483SOL     OW 1929   2.434   0.649   4.035  0.3477  0.0706  0.1552
  483SOL    HW1 1930   2.448   0.558   4.010 -0.2863  0.3541 -1.3658
  483SOL    HW2 1931   2.368   0.645   4.104  0.9501 -0.6659  0.7003
  483SOL     MW 1932   2.427   0.637   4.040  0.3437  0.0126  0.0303
  484SOL     OW 1933   2.687   0.803   3.758  0.4228 -0.2322  0.3872
  484SOL    HW1 1934   2.611   0.819   3.814 -1.0987  1.3242 -1.9344
  484SOL    HW2 1935   2.652   0.752   3.684  1.3089  1.4592 -1.2909
  484SOL     MW 1936   2.672   0.798   3.755  0.3415  0.1836 -0.1248
  485SOL     OW 1937   4.527   5.049   5.208 -0.1643  0.1848 -0.1826
  485SOL    HW1 1938   4.592   5.088   5.150 -1.1778 -0.7633 -2.0609
  485SOL    HW2 1939   4.489   5.123   5.255  0.4450  1.0478 -1.0042
  485SOL     MW 1940   4.530   5.063   5.207 -0.2161  0.1739 -0.5282
  486SOL     OW 1941   5.378   0.689   5.437  0.0793  0.0165  0.0849
  486SOL    HW1 1942   5.396   0.750   5.366 -1.4622 -0.3335 -0.6616
  486SOL    HW2 1943   5.371   0.603   5.395 -0.8328 -0.1978  0.6326
  486SOL     MW 1944   5.379   0.686   5.423 -0.2348 -0.0558  0.0595
  487SOL     OW 1945   0.350   1.511   4.074  0.3835 -0.3810  0.0971
  487SOL    HW1 1946   0.368   1.484   3.984  2.5076  1.2977 -0.0506
  487SOL    HW2 1947   0.397   1.593   4.085 -1.9079  0.8094  1.9755
  487SOL     MW 1948   0.358   1.518   4.064  0.3621 -0.0137  0.3186
  488SOL     OW 1949   2.171   3.460   3.698 -0.2305  0.7616  0.3005
  488SOL    HW1 1950   2.129   3.376   3.718  0.5956  0.4329  0.6875
  488SOL    HW2 1951   2.165   3.509   3.780 -0.9640  1.2094 -0.0026
  488SOL     MW 1952   2.165   3.456   3.711 -0.2187  0.7768  0.3112
  489SOL     OW 1953   2.772   1.910   4.096  0.0156 -0.4698  0.5510
  489SOL    HW1 1954   2.752   2.004   4.092 -2.1770 -0.8285  1.4167
  489SOL    HW2 1955   2.846   1.899   4.037 -2.0517  1.2257 -2.6699
  489SOL     MW 1956   2.779   1.921   4.088 -0.5297 -0.2987  0.2495
  490SOL     OW 1957   2.381   4.911   0.334  0.0279 -0.3894  0.0564
  490SOL    HW1 1958   2.426   4.862   0.403  0.2328 -1.2727 -0.6896
  490SOL    HW2 1959   2.436   4.989   0.321  1.0668 -1.1702 -0.4368
  490SOL     MW 1960   2.394   4.915   0.341  0.1871 -0.6024 -0.1022
  491SOL     OW 1961   1.985   2.509   3.714 -0.0927  0.0967 -0.6270
  491SOL    HW1 1962   1.909   2.498   3.772  1.2125 -0.9989  0.9639
  491SOL    HW2 1963   1.991   2.603   3.700 -2.4463  0.1310 -1.7984
  491SOL     MW 1964   1.976   2.519   3.720 -0.2269 -0.0392 -0.5733
  492SOL     OW 1965   4.654   2.365   1.577  0.4335 -0.3099 -0.0808
  492SOL    HW1 1966   4.614   2.360   1.664  0.7425 -3.0762 -0.0328
  492SOL    HW2 1967   4.582   2.349   1.516  0.5880 -0.3767 -0.2447
  492SOL     MW 1968   4.640   2.363   1.580  0.4928 -0.6726 -0.0957
  493SOL     OW 1969   5.112   2.392   4.709  0.2036  0.5502 -0.1350
  493SOL    HW1 1970   5.065   2.376   4.790 -0.4991  2.1179 -0.1917
  493SOL    HW2 1971   5.138   2.484   4.714  1.0015  0.4150 -1.2556
  493SOL     MW 1972   5.109   2.402   4.720  0.2157  0.7336 -0.2857
  494SOL     OW 1973   2.704   4.604   1.324 -0.5305 -0.0285 -0.0630
  494SOL    HW1 1974   2.659   4.637   1.402 -1.0204  2.0127 -1.1403
  494SOL    HW2 1975   2.651   4.530   1.295  0.1585 -1.4275  1.9998
  494SOL     MW 1976   2.692   4.599   1.330 -0.5050  0.0537  0.0631
  495SOL     OW 1977   2.746   3.212   4.989 -0.2409 -0.4444 -0.3531
  495SOL    HW1 1978   2.819   3.205   4.927 -0.8689 -0.5994 -1.0952
  495SOL    HW2 1979   2.676   3.253   4.938 -1.0293 -1.2890  0.0280
  495SOL     MW 1980   2.746   3.216   4.974 -0.4222 -0.5723 -0.3993
  496SOL     OW 1981   2.812   0.222   1.453 -0.5855 -0.1670 -0.3512
  496SOL    HW1 1982   2.900   0.260   1.456 -1.4870  2.1278 -0.8803
  496SOL    HW2 1983   2.784   0.220   1.545 -0.1403 -0.5139 -0.2208
  496SOL     MW 1984   2.820   0.227   1.465 -0.6439  0.0824 -0.4023
  497SOL     OW 1985   3.442   2.427   1.490  0.1694 -0.3164 -0.1369
  497SOL    HW1 1986   3.361   2.376   1.495  1.0566 -1.7412  0.2481
  497SOL    HW2 1987   3.465   2.445   1.581  0.0555  0.4843 -0.2587
  497SOL     MW 1988   3.435   2.422   1.503  0.2684 -0.3963 -0.1032
  498SOL     OW 1989   5.376   4.443   2.455 -0.1797 -0.2189  0.6004
  498SOL    HW1 1990   5.337   4.440   2.368 -0.1824 -1.1865  0.6305
  498SOL    HW2 1991   5.387   4.537   2.473 -0.9491  0.0084 -0.0855
  498SOL     MW 1992   5.373   4.455   2.446 -0.2786 -0.3137  0.5164
  499SOL     OW 1993   0.732   1.524   4.913 -0.0036 -0.5299 -0.2717
  499SOL    HW1 1994   0.660   1.514   4.974  0.7819 -1.1540  0.5744
  499SOL    HW2 1995   0.802   1.566   4.963  0.8092 -1.4478 -0.5869
  499SOL     MW 1996   0.732   1.528   4.927  0.2010 -0.7273 -0.2037
  500SOL     OW 1997   3.061   1.173   0.294 -0.1314 -0.1672  0.5798
  500SOL    HW1 1998   2.976   1.186   0.252  0.2810  0.3094 -0.1334
  500SOL    HW2 1999   3.040   1.156   0.386 -1.0321 -0.9512  0.2383
  500SOL     MW 2000   3.047   1.173   0.301 -0.1939 -0.2066  0.4448
  501SOL     OW 2001   1.239   3.218   4.327 -0.3478 -0.3835  0.2109
  501SOL    HW1 2002   1.327   3.237   4.361 -0.3413  1.1632 -0.6061
  501SOL    HW2 2003   1.248   3.226   4.232 -0.6434 -3.4793 -0.1753
  501SOL     MW 2004   1.251   3.221   4.319 -0.3848 -0.5818  0.0569
  502SOL     OW 2005   0.985   4.932   4.048 -0.2670  0.4500  0.5456
  502SOL    HW1 2006   1.015   4.842   4.063  0.4590  0.4663 -0.6432
  502SOL    HW2 2007   1.032   4.985   4.112 -0.6911 -0.0088  1.2469
  502SOL     MW 2008   0.995   4.927   4.058 -0.2283  0.3934  0.4832
  503SOL     OW 2009   2.104   0.244   1.503  0.1223 -0.0961 -0.2088
  503SOL    HW1 2010   2.057   0.324   1.525  0.6482 -0.1492  1.1956
  503SOL    HW2 2011   2.053   0.205   1.432  1.0675  2.5770 -2.5371
  503SOL     MW 2012   2.091   0.249   1.497  0.3106  0.2393 -0.3271
  504SOL     OW 2013   3.425   3.803   2.152  0.7727 -0.1990 -0.4263
  504SOL    HW1 2014   3.410   3.852   2.071  1.7646  2.3651  0.8209
  504SOL    HW2 2015   3.352   3.826   2.209  1.2158 -0.2080  0.1627
  504SOL     MW 2016   3.414   3.812   2.149  0.9564  0.1281 -0.1912
  505SOL     OW 2017   3.743   5.121   2.163  0.0366 -0.0211  0.6279
  505SOL    HW1 2018   3.753   5.151   2.072 -0.3516 -1.3406  0.1239
  505SOL    HW2 2019   3.654   5.147   2.187  0.5720  1.4881  1.1134
  505SOL     MW 2020   3.733   5.128   2.154  0.0555  0.0032  0.6255
  506SOL     OW 2021   3.369   4.539   4.579  0.2771  0.1167 -0.1963
  506SOL    HW1 2022   3.454   4.508   4.547  1.4655  1.5656  1.4066
  506SOL    HW2 2023   3.358   4.625   4.538 -0.5194 -0.1199 -0.5090
  506SOL     MW 2024   3.378   4.546   4.569  0.3273  0.2719 -0.0312
  507SOL     OW 2025   4.566   0.175   1.714  0.0582 -0.2958  0.0091
  507SOL    HW1 2026   4.552   0.158   1.807  0.1353 -1.0090 -0.1061
  507SOL    HW2 2027   4.508   0.113   1.669  0.4164 -0.3223 -0.4239
  507SOL     MW 2028   4.557   0.165   1.720  0.1139 -0.3905 -0.0611
  508SOL     OW 2029   2.853   4.855   1.438 -0.3549  0.6079 -0.0534
  508SOL    HW1 2030   2.914   4.907   1.490 -2.0336 -1.4949  4.6356
  508SOL    HW2 2031   2.899   4.772   1.424 -0.6556  0.4437 -0.0712
  508SOL     MW 2032   2.867   4.851   1.443 -0.6083  0.3177  0.5445
  509SOL     OW 2033   3.189   2.212   2.415  0.0331  0.0623  0.3347
  509SOL    HW1 2034   3.270   2.168   2.441 -0.4126 -1.3385 -0.5534
  509SOL    HW2 2035   3.218   2.285   2.360  0.6533 -1.3778 -1.3224
  509SOL     MW 2036   3.203   2.216   2.411  0.0555 -0.3014  0.0089
  510SOL     OW 2037   2.039   0.395   4.866 -0.0180  0.2620 -0.3605
  510SOL    HW1 2038   2.122   0.402   4.914 -0.2806  0.5713  0.0562
  510SOL    HW2 2039   2.057   0.331   4.797  0.2338 -0.5475  0.4291
  510SOL     MW 2040   2.052   0.388   4.863 -0.0194  0.1980 -0.2061
  511SOL     OW 2041   5.127   0.234   0.008  0.5381  0.1919 -0.0701
  511SOL    HW1 2042   5.093   0.289   0.080  0.5433  0.5264 -0.3195
  511SOL    HW2 2043   5.220   0.223   0.030  0.2226 -0.9882  0.7785
  511SOL     MW 2044   5.135   0.240   0.020  0.4984  0.0837  0.0066
  512SOL     OW 2045   0.329   0.310   3.074 -0.2900 -0.1615 -0.1543
  512SOL    HW1 2046   0.290   0.350   2.996  0.4377  3.0615  0.9858
  512SOL    HW2 2047   0.253   0.277   3.124 -0.7412 -2.5329 -2.2327
  512SOL     MW 2048   0.314   0.311   3.071 -0.2546 -0.0525 -0.2744
  513SOL     OW 2049   4.880   0.334   3.661  0.3293  0.1482  0.6798
  513SOL    HW1 2050   4.881   0.241   3.682 -0.6547 -0.3897 -1.3440
  513SOL    HW2 2051   4.957   0.370   3.705  0.5363 -1.5473  1.7719
  513SOL     MW 2052   4.890   0.327   3.669  0.2298 -0.1377  0.5605
  514SOL     OW 2053   3.931   1.049   3.257  0.1348 -0.0572  0.4059
  514SOL    HW1 2054   3.861   0.985   3.245 -0.6982  1.0462 -0.8603
  514SOL    HW2 2055   3.899   1.106   3.326  0.4675 -0.4364  0.8810
  514SOL     MW 2056   3.918   1.048   3.264  0.0707  0.0355  0.3046
  515SOL     OW 2057   2.864   5.394   2.935 -0.0787 -0.3436 -0.4472
  515SOL    HW1 2058   2.868   5.481   2.895  0.2790 -0.4985 -0.7605
  515SOL    HW2 2059   2.793   5.400   2.999  1.2667  0.7955  1.0251
  515SOL     MW 2060   2.856   5.406   2.938  0.1393 -0.2176 -0.2988
  516SOL     OW 2061   0.638   1.788   1.920 -0.2631  0.4212 -0.5682
  516SOL    HW1 2062   0.550   1.772   1.888 -0.5717 -0.1366  0.4833
  516SOL    HW2 2063   0.660   1.708   1.969  0.9472  0.4188 -1.0813
  516SOL     MW 2064   0.630   1.775   1.922 -0.1477  0.3495 -0.4993
  517SOL     OW 2065   3.824   1.100   3.695  0.4343 -0.0462 -0.3089
  517SOL    HW1 2066   3.865   1.120   3.611  0.6689  1.2189  0.0869
  517SOL    HW2 2067   3.775   1.179   3.717 -0.9142 -0.9277  0.0172
  517SOL     MW 2068   3.823   1.113   3.687  0.2917  0.0029 -0.2165
  518SOL     OW 2069   1.944   1.732   0.814 -0.4818  0.0924 -0.1087
  518SOL    HW1 2070   2.035   1.745   0.840 -1.0357  1.4492  1.2744
  518SOL    HW2 2071   1.932   1.789   0.739 -0.1485 -0.2374 -0.4161
  518SOL     MW 2072   1.954   1.741   0.808 -0.5101  0.2239  0.0290
  519SOL     OW 2073   5.405   0.598   2.626  0.4656  0.4967 -0.0536
  519SOL    HW1 2074   5.401   0.549   2.709  2.1695 -0.5592 -0.5285
  519SOL    HW2 2075   5.474   0.663   2.640  0.7430  0.3323 -0.6323
  519SOL     MW 2076   5.413   0.600   2.639  0.7192  0.3405 -0.1885
  520SOL     OW 2077   5.493   3.096   0.886 -0.3897  0.3406 -0.6520
  520SOL    HW1 2078   5.408   3.121   0.850 -1.3939 -0.7969  0.7986
  520SOL    HW2 2079   5.474   3.070   0.976  1.0349 -2.6730 -1.1108
  520SOL     MW 2080   5.480   3.096   0.893 -0.3359 -0.1908 -0.5251
  521SOL     OW 2081   4.157   2.921   3.640  0.4996  0.3024 -0.3124
  521SOL    HW1 2082   4.065   2.895   3.652  0.4400  1.6392  3.0742
  521SOL    HW2 2083   4.196   2.847   3.593 -2.2529 -0.2928 -1.9268
  521SOL     MW 2084   4.150   2.908   3.635  0.1396  0.3973 -0.0856
  522SOL     OW 2085   1.413   5.016   1.546  0.2738 -0.4958  0.4389
  522SOL    HW1 2086   1.428   5.024   1.640 -0.3266 -2.2712  0.7178
  522SOL    HW2 2087   1.406   5.107   1.515 -0.5543  0.1124  2.2658
  522SOL     MW 2088   1.414   5.029   1.554  0.0909 -0.6452  0.7084
  523SOL     OW 2089   2.167   0.500   3.558  0.2558 -0.4694  0.4706
  523SOL    HW1 2090   2.195   0.590   3.570  4.1315 -1.5315  0.6628
  523SOL    HW2 2091   2.072   0.506   3.546  0.3070  3.5403  0.7074
  523SOL     MW 2092   2.158   0.512   3.558  0.7585 -0.0920  0.5255
  524SOL     OW 2093   0.460   2.227   1.434  0.6298  0.1695  0.2431
  524SOL    HW1 2094   0.539   2.176   1.416  0.1020 -0.6791  0.2695
  524SOL    HW2 2095   0.462   2.298   1.369  1.6021  0.3899  0.4987
  524SOL     MW 2096   0.471   2.230   1.423  0.6867  0.0891  0.2792
  525SOL     OW 2097   3.632   4.494   2.705  0.1921  0.7046 -0.1350
  525SOL    HW1 2098   3.630   4.589   2.708  0.8656  0.7553 -0.7255
  525SOL    HW2 2099   3.683   4.474   2.626  1.9644 -0.1200  1.1356
  525SOL     MW 2100   3.638   4.504   2.695  0.5052  0.6055 -0.0479
  526SOL     OW 2101   1.492   1.453   4.574  0.3802  0.0404  0.0796
  526SOL    HW1 2102   1.489   1.521   4.506  1.4537  1.4608  1.3729
  526SOL    HW2 2103   1.498   1.502   4.656 -1.9670 -1.5840  1.3321
  526SOL     MW 2104   1.492   1.468   4.576  0.2171  0.0143  0.4055
  527SOL     OW 2105   1.681   4.714   0.529 -0.4364  0.3247 -0.2617
  527SOL    HW1 2106   1.712   4.629   0.560  0.4842  0.8866  0.4277
  527SOL    HW2 2107   1.710   4.719   0.438  1.0152  0.5813  0.1907
  527SOL     MW 2108   1.689   4.704   0.522 -0.1327  0.4295 -0.1156
  528SOL     OW 2109   3.104   1.578   4.294  0.0260  0.9505  0.3309
  528SOL    HW1 2110   3.114   1.483   4.293 -0.9323  0.8468  0.2403
  528SOL    HW2 2111   3.148   1.607   4.214  1.6755  0.7521  1.1006
  528SOL     MW 2112   3.111   1.570   4.284  0.1145  0.9119  0.4178
  529SOL     OW 2113   5.151   5.034   1.964 -0.4927  0.3538 -0.4493
  529SOL    HW1 2114   5.202   4.997   1.891  0.4063  0.0701  0.3057
  529SOL    HW2 2115   5.134   5.124   1.937 -2.8377 -0.5572 -2.3795
  529SOL     MW 2116   5.155   5.041   1.951 -0.6778  0.2009 -0.5998
  530SOL     OW 2117   1.777   3.068   0.444 -0.0603 -0.1333 -0.2114
  530SOL    HW1 2118   1.693   3.050   0.486 -0.3384  0.4013 -0.5289
  530SOL    HW2 2119   1.754   3.091   0.354  0.6338 -3.0695 -1.2487
  530SOL     MW 2120   1.764   3.068   0.438 -0.0071 -0.4407 -0.3848
  531SOL     OW 2121   1.062   1.065   0.894  0.1927 -0.1996 -0.5318
  531SOL    HW1 2122   1.012   1.004   0.949  0.2154  0.9518  0.8066
  531SOL    HW2 2123   1.060   1.025   0.807  0.7384 -2.4220  0.4131
  531SOL     MW 2124   1.055   1.052   0.890  0.2654 -0.3367 -0.2395
  532SOL     OW 2125   4.366   3.873   2.277 -0.2242  0.7288  0.7403
  532SOL    HW1 2126   4.364   3.894   2.183 -2.1562 -1.8244  0.1041
  532SOL    HW2 2127   4.459   3.861   2.297  0.2644  1.7791 -0.7087
  532SOL     MW 2128   4.378   3.874   2.267 -0.4090  0.5364  0.4734
  533SOL     OW 2129   4.765   1.065   2.550  0.1625  0.2761 -0.0633
  533SOL    HW1 2130   4.750   1.083   2.457  2.6197  0.5311 -0.4787
  533SOL    HW2 2131   4.792   0.973   2.553 -1.6208 -0.2758  0.6808
  533SOL     MW 2132   4.767   1.056   2.539  0.2488  0.2381 -0.0212
  534SOL     OW 2133   1.878   2.905   2.922  0.7988  0.6777 -0.3780
  534SOL    HW1 2134   1.930   2.826   2.910 -0.3963 -0.2880  0.5611
  534SOL    HW2 2135   1.936   2.965   2.969  1.3064 -0.1028  0.0126
  534SOL     MW 2136   1.892   2.903   2.926  0.7108  0.4541 -0.2078
  535SOL     OW 2137   4.494   2.150   4.026 -0.5890 -0.7442 -0.1253
  535SOL    HW1 2138   4.504   2.151   3.931 -1.0059  0.3482 -0.1697
  535SOL    HW2 2139   4.508   2.058   4.050 -1.5383 -1.2493 -1.3490
  535SOL     MW 2140   4.497   2.138   4.017 -0.7639 -0.6690 -0.2876
  536SOL     OW 2141   1.394   5.365   5.312  0.2076  0.3557 -0.1119
  536SOL    HW1 2142   1.433   5.445   5.276 -1.8532  0.6293 -1.9918
  536SOL    HW2 2143   1.445   5.294   5.273 -0.1744  0.7239 -1.3371
  536SOL     MW 2144   1.405   5.367   5.302 -0.1051  0.4378 -0.5094
  537SOL     OW 2145   3.273   1.044   0.138 -0.4171  0.1149  0.0900
  537SOL    HW1 2146   3.230   1.078   0.216 -1.5735 -0.5769 -0.2193
  537SOL    HW2 2147   3.365   1.070   0.147 -0.8626  1.5065  0.8427
  537SOL     MW 2148   3.279   1.052   0.149 -0.6222  0.2045  0.1468
  538SOL     OW 2149   0.253   5.339   0.537  0.2700 -0.6507 -0.4319
  538SOL    HW1 2150   0.243   5.248   0.565  3.5102 -0.5480  1.5880
  538SOL    HW2 2151   0.314   5.336   0.464 -0.6907 -0.1444 -1.2836
  538SOL     MW 2152   0.259   5.327   0.531  0.5618 -0.5727 -0.2823
  539SOL     OW 2153   2.247   0.132   0.425 -0.5779 -0.4036  0.4575
  539SOL    HW1 2154   2.197   0.189   0.367  2.7137  1.3321 -0.9407
  539SOL    HW2 2155   2.234   0.168   0.513 -1.2507  0.3957  0.0372
  539SOL     MW 2156   2.239   0.144   0.429 -0.2427 -0.0791  0.2247
  540SOL     OW 2157   1.288   2.122   5.039  0.1113 -0.0671  0.1522
  540SOL    HW1 2158   1.263   2.214   5.033 -1.2202 -0.4998 -1.6870
  540SOL    HW2 2159   1.346   2.107   4.964  0.2089 -0.7554  0.3566
  540SOL     MW 2160   1.292   2.132   5.029 -0.0466 -0.2106 -0.0571
  541SOL     OW 2161   0.410   0.285   4.106  0.0930  0.1834 -0.0191
  541SOL    HW1 2162   0.360   0.260   4.184  0.9672 -2.5050 -0.2196
  541SOL    HW2 2163   0.372   0.233   4.035  3.3138 -2.3623 -0.0925
  541SOL     MW 2164   0.398   0.275   4.107  0.6172 -0.4866 -0.0541
  542SOL     OW 2165   2.116   5.459   2.275 -0.1428  0.0582  0.1716
  542SOL    HW1 2166   2.026   5.446   2.305 -0.2402 -2.8206 -0.9836
  542SOL    HW2 2167   2.113   5.442   2.181  1.5724 -0.0471  0.0960
  542SOL     MW 2168   2.104   5.455   2.267  0.0643 -0.3238  0.0140
  543SOL     OW 2169   4.153   4.208   4.184 -0.2631 -0.1003  0.1335
  543SOL    HW1 2170   4.194   4.170   4.107  0.4407 -2.4795  1.5680
  543SOL    HW2 2171   4.064   4.172   4.184 -0.8248  1.2383 -0.4273
  543SOL     MW 2172   4.147   4.198   4.174 -0.2449 -0.2335  0.2453
  544SOL     OW 2173   5.329   1.991   0.876  0.0135  0.1744  0.3357
  544SOL    HW1 2174   5.359   2.030   0.794 -1.5460  0.2528 -0.2391
  544SOL    HW2 2175   5.335   2.062   0.940 -0.5616  0.6825 -0.1624
  544SOL     MW 2176   5.333   2.005   0.874 -0.2598  0.2495  0.1984
  545SOL     OW 2177   4.710   1.447   5.391  0.4565 -0.0387 -0.3122
  545SOL    HW1 2178   4.734   1.382   5.457 -1.3740 -1.3150 -0.8331
  545SOL    HW2 2179   4.621   1.423   5.365 -0.9010  3.4699  0.4814
  545SOL     MW 2180   4.702   1.436   5.396  0.0484  0.2470 -0.2773
  546SOL     OW 2181   4.672   2.888   0.280  0.0588  0.2910 -0.4466
  546SOL    HW1 2182   4.675   2.850   0.368 -0.9106  0.8448 -0.1672
  546SOL    HW2 2183   4.667   2.983   0.294 -1.7808  0.3189 -1.0461
  546SOL     MW 2184   4.672   2.895   0.293 -0.3008  0.3655 -0.4876
  547SOL     OW 2185   4.228   4.493   1.321  0.3304  0.1941  0.1297
  547SOL    HW1 2186   4.187   4.533   1.244 -1.6151 -0.8010  0.5796
  547SOL    HW2 2187   4.304   4.447   1.287 -0.3024  0.0507 -1.1592
  547SOL     MW 2188   4.233   4.493   1.307  0.0004  0.0484  0.0223
  548SOL     OW 2189   3.446   3.634   0.122 -0.3042 -0.8095 -0.0277
  548SOL    HW1 2190   3.473   3.604   0.035 -0.4848 -2.2768  0.4019
  548SOL    HW2 2191   3.446   3.555   0.176 -0.9152 -0.0428  1.1339
  548SOL     MW 2192   3.450   3.620   0.118 -0.4055 -0.8992  0.1760
  549SOL     OW 2193   0.440   4.268   3.389 -0.6552  0.1294 -1.0569
  549SOL    HW1 2194   0.423   4.174   3.396 -0.0602  0.0784 -0.1289
  549SOL    HW2 2195   0.529   4.278   3.421 -0.3102  0.8788 -2.2198
  549SOL     MW 2196   0.449   4.257   3.394 -0.5348  0.2188 -1.0869
  550SOL     OW 2197   3.781   3.668   3.187  0.2811  0.0299  0.3219
  550SOL    HW1 2198   3.745   3.603   3.127  0.4389 -0.8090  1.1017
  550SOL    HW2 2199   3.843   3.718   3.135 -2.7662  2.3489 -1.4382
  550SOL     MW 2200   3.784   3.666   3.173 -0.0888  0.2193  0.1964
  551SOL     OW 2201   2.968   4.496   1.737  0.1511  0.5605  0.5492
  551SOL    HW1 2202   3.042   4.483   1.677 -0.2802  0.8212 -0.0448
  551SOL    HW2 2203   2.961   4.414   1.785  0.7694  0.4995  0.5437
  551SOL     MW 2204   2.977   4.484   1.735  0.1750  0.5860  0.4725
  552SOL     OW 2205   4.062   3.045   4.346  0.2998 -0.2332 -0.3862
  552SOL    HW1 2206   3.988   3.106   4.344  0.3407 -0.0679  1.4187
  552SOL    HW2 2207   4.022   2.959   4.352  0.2597 -0.2145 -0.3832
  552SOL     MW 2208   4.047   3.042   4.346  0.2999 -0.2097 -0.1548
  553SOL     OW 2209   3.879   4.216   4.923 -0.1008 -0.2137  0.1556
  553SOL    HW1 2210   3.880   4.122   4.936  0.8102 -0.5754 -2.0284
  553SOL    HW2 2211   3.971   4.240   4.913 -0.3957  0.6947 -0.5257
  553SOL     MW 2212   3.891   4.207   4.923 -0.0219 -0.1437 -0.2112
  554SOL     OW 2213   1.207   3.013   4.837 -0.6764 -0.2555  0.3558
  554SOL    HW1 2214   1.197   3.094   4.887 -0.5208 -0.0377  0.0370
  554SOL    HW2 2215   1.197   2.943   4.902 -1.1267  0.0122  0.5830
  554SOL     MW 2216   1.204   3.014   4.852 -0.7141 -0.1933  0.3441
  555SOL     OW 2217   0.717   2.956   1.349  0.3891 -0.3435  0.1098
  555SOL    HW1 2218   0.705   2.863   1.370  1.2914 -0.1071  1.8166
  555SOL    HW2 2219   0.761   2.993   1.425 -0.5214  1.6523 -0.2704
  555SOL     MW 2220   0.721   2.949   1.361  0.3881 -0.0578  0.2796
  556SOL     OW 2221   4.302   4.715   1.017  0.5614 -0.0888 -0.3550
  556SOL    HW1 2222   4.288   4.810   1.019  2.1475  0.2237  2.9139
  556SOL    HW2 2223   4.222   4.679   1.056 -0.3305 -0.2226 -2.2105
  556SOL     MW 2224   4.290   4.723   1.022  0.6503 -0.0660 -0.1741
  557SOL     OW 2225   3.909   3.764   4.532  0.3431 -0.1770 -0.2041
  557SOL    HW1 2226   3.976   3.762   4.463  0.4106 -2.0765 -0.1431
  557SOL    HW2 2227   3.845   3.698   4.506 -2.8172  3.0740 -1.4162
  557SOL     MW 2228   3.910   3.755   4.520 -0.0528 -0.0040 -0.3514
  558SOL     OW 2229   1.221   1.768   1.774 -0.0519  0.5683  0.1361
  558SOL    HW1 2230   1.145   1.718   1.747  0.0439  0.4981 -0.0096
  558SOL    HW2 2231   1.187   1.855   1.796  0.0514  1.1276 -1.7287
  558SOL     MW 2232   1.207   1.773   1.773 -0.0264  0.6309 -0.1213
  559SOL     OW 2233   0.122   3.485   4.043 -0.3208 -0.4624  0.3704
  559SOL    HW1 2234   0.158   3.521   3.962  0.1292 -1.5204  0.0790
  559SOL    HW2 2235   0.196   3.486   4.104 -1.2132  2.5116  1.5754
  559SOL     MW 2236   0.136   3.490   4.040 -0.3774 -0.2171  0.4874
  560SOL     OW 2237   2.961   1.183   4.517  0.2653 -0.0019 -0.1597
  560SOL    HW1 2238   2.925   1.195   4.605  0.7526  0.2621  0.0050
  560SOL    HW2 2239   2.910   1.245   4.463  0.1817  0.0638 -0.0074
  560SOL     MW 2240   2.950   1.193   4.521  0.3170  0.0403 -0.1191
  561SOL     OW 2241   1.963   2.290   4.002 -0.1408 -0.2055 -0.0170
  561SOL    HW1 2242   1.916   2.338   4.070 -0.2419  1.3428 -1.1356
  561SOL    HW2 2243   2.053   2.323   4.007  0.6193 -2.2551  1.2885
  561SOL     MW 2244   1.969   2.301   4.012 -0.0565 -0.2697  0.0069
  562SOL     OW 2245   0.192   1.163   1.779 -0.7688 -0.4887  0.6664
  562SOL    HW1 2246   0.154   1.098   1.838 -0.8231 -1.5544 -0.5040
  562SOL    HW2 2247   0.118   1.198   1.731 -0.4066 -2.1645 -1.2217
  562SOL     MW 2248   0.178   1.159   1.781 -0.7294 -0.8396  0.2748
  563SOL     OW 2249   0.188   2.967   5.032 -0.0328 -0.3019 -0.7092
  563SOL    HW1 2250   0.160   2.892   5.084  0.2346  0.3062  0.3515
  563SOL    HW2 2251   0.276   2.945   5.002  0.3994 -0.0575  0.3474
  563SOL     MW 2252   0.196   2.955   5.035  0.0567 -0.1928 -0.4382
  564SOL     OW 2253   2.411   2.995   1.209  0.0246 -0.0114  0.3321
  564SOL    HW1 2254   2.361   3.060   1.258  0.1226 -0.2365  0.7354
  564SOL    HW2 2255   2.385   2.911   1.248  1.7368 -0.0597  1.5123
  564SOL     MW 2256   2.401   2.992   1.221  0.2563 -0.0464  0.5348
  565SOL     OW 2257   3.367   4.994   1.136  0.8269  0.0253 -0.2269
  565SOL    HW1 2258   3.316   4.963   1.211  0.8073 -0.6707 -0.5286
  565SOL    HW2 2259   3.340   5.086   1.126 -2.9708 -1.1307 -2.4579
  565SOL     MW 2260   3.357   5.002   1.145  0.3383 -0.2118 -0.5511
  566SOL     OW 2261   2.681   5.324   4.028 -0.2608 -0.0793  0.0570
  566SOL    HW1 2262   2.646   5.368   4.106 -0.0271 -0.7792  0.5581
  566SOL    HW2 2263   2.605   5.318   3.969 -0.5927 -0.1187  0.4794
  566SOL     MW 2264   2.667   5.329   4.031 -0.2734 -0.1739  0.1752
  567SOL     OW 2265   3.237   1.408   4.596  0.1089 -0.3913 -0.0645
  567SOL    HW1 2266   3.151   1.428   4.633 -0.7055  1.1986 -2.5311
  567SOL    HW2 2267   3.218   1.358   4.516  1.4215  0.1771 -0.7690
  567SOL     MW 2268   3.224   1.404   4.590  0.1727 -0.1150 -0.4704
  568SOL     OW 2269   3.820   3.118   1.885 -0.5135 -0.1950 -0.3765
  568SOL    HW1 2270   3.772   3.169   1.820 -0.1760 -0.2888 -0.7020
  568SOL    HW2 2271   3.808   3.027   1.858  0.3768 -0.1866 -0.8326
  568SOL     MW 2272   3.812   3.113   1.873 -0.3563 -0.2060 -0.4765
  569SOL     OW 2273   1.581   1.354   1.173 -0.1574  0.0794  0.3098
  569SOL    HW1 2274   1.593   1.265   1.205 -0.1271  0.8254  2.5647
  569SOL    HW2 2275   1.668   1.394   1.178  0.0590 -0.0285 -1.7369
  569SOL     MW 2276   1.593   1.348   1.178 -0.1258  0.1611  0.3365
  570SOL     OW 2277   0.923   1.631   0.861 -0.2174  0.2582  0.1433
  570SOL    HW1 2278   1.012   1.612   0.891 -0.2490 -1.6605 -0.7994
  570SOL    HW2 2279   0.935   1.680   0.779 -0.0348  0.2301  0.1539
  570SOL     MW 2280   0.936   1.635   0.854 -0.1981  0.0090  0.0240
  571SOL     OW 2281   2.281   2.955   0.032 -0.3236  0.1097  0.1314
  571SOL    HW1 2282   2.201   2.918   0.070  0.4907 -0.0898  1.7477
  571SOL    HW2 2283   2.271   3.050   0.042 -0.0249  0.0474  1.0545
  571SOL     MW 2284   2.270   2.962   0.038 -0.1811  0.0762  0.4565
  572SOL     OW 2285   2.167   2.469   0.741  0.2435 -0.4888 -0.1090
  572SOL    HW1 2286   2.219   2.394   0.715  2.3389  0.5079  0.8984
  572SOL    HW2 2287   2.166   2.466   0.837 -0.7353  0.0678 -0.0825
  572SOL     MW 2288   2.174   2.459   0.750  0.3864 -0.2899  0.0233
  573SOL     OW 2289   5.013   0.477   0.786 -0.0712  0.0950  0.4516
  573SOL    HW1 2290   5.028   0.563   0.825  0.7647 -0.2007  0.7896
  573SOL    HW2 2291   4.979   0.496   0.698 -0.7057  0.7608  0.8275
  573SOL     MW 2292   5.011   0.490   0.779 -0.0454  0.1424  0.5430
  574SOL     OW 2293   1.885   2.574   3.237 -0.3368 -0.4720  0.0844
  574SOL    HW1 2294   1.961   2.579   3.180 -0.3102  1.0816  0.2108
  574SOL    HW2 2295   1.914   2.520   3.311 -0.0259 -1.5700 -0.8249
  574SOL     MW 2296   1.899   2.568   3.239 -0.2936 -0.4137 -0.0159
  575SOL     OW 2297   5.058   3.928   2.776  0.0366  0.2324  0.4077
  575SOL    HW1 2298   5.019   4.001   2.726  0.5792  1.3172  1.5177
  575SOL    HW2 2299   5.146   3.958   2.797  0.1372 -0.6036  1.2109
  575SOL     MW 2300   5.064   3.941   2.772  0.1189  0.2642  0.6526
  576SOL     OW 2301   1.508   4.392   0.581 -0.6266 -0.2397 -0.1553
  576SOL    HW1 2302   1.421   4.363   0.553 -1.4576  1.2144  0.8107
  576SOL    HW2 2303   1.543   4.438   0.505  0.2367 -2.6030 -1.2992
  576SOL     MW 2304   1.502   4.394   0.568 -0.6225 -0.3561 -0.1781
  577SOL     OW 2305   0.023   3.853   2.097  0.2721 -0.3840  0.2991
  577SOL    HW1 2306   0.049   3.924   2.038  0.1766  0.2080  0.9584
  577SOL    HW2 2307   0.098   3.842   2.155 -0.1550 -0.0434  0.9234
  577SOL     MW 2308   0.036   3.861   2.097  0.2052 -0.2646  0.4634
  578SOL     OW 2309   3.028   2.980   2.460  0.1487 -0.2910  0.4073
  578SOL    HW1 2310   3.009   3.030   2.539 -0.2447  0.3049 -0.0552
  578SOL    HW2 2311   3.040   3.046   2.391 -0.9872 -0.8209 -0.3423
  578SOL     MW 2312   3.027   2.995   2.461 -0.0471 -0.2825  0.2521
  579SOL     OW 2313   3.345   2.093   1.413  0.2124  0.1154  0.3810
  579SOL    HW1 2314   3.253   2.097   1.439  0.1309 -0.4211  0.1897
  579SOL    HW2 2315   3.392   2.066   1.493  0.0363 -0.9323  0.1418
  579SOL     MW 2316   3.340   2.090   1.427  0.1794 -0.0874  0.3259
  580SOL     OW 2317   4.311   3.002   4.223  0.3053  0.2585 -0.5773
  580SOL    HW1 2318   4.292   2.909   4.216 -0.4880  0.2511  1.0779
  580SOL    HW2 2319   4.232   3.039   4.264  0.7464  1.6045 -0.8923
  580SOL     MW 2320   4.298   2.995   4.227  0.2602  0.4299 -0.4057
  581SOL     OW 2321   5.374   3.289   4.286  0.1450  0.1256 -0.5912
  581SOL    HW1 2322   5.319   3.333   4.222 -0.3588  0.5286  0.0944
  581SOL    HW2 2323   5.335   3.312   4.371 -0.2121 -1.7342 -0.2057
  581SOL     MW 2324   5.362   3.298   4.289  0.0348 -0.0609 -0.4541
  582SOL     OW 2325   0.005   5.298   0.383  0.0279 -0.1307  0.0202
  582SOL    HW1 2326   0.003   5.387   0.349  1.3794 -0.5434 -1.2523
  582SOL    HW2 2327   0.082   5.295   0.440  1.3416 -1.0362 -1.7176
  582SOL     MW 2328   0.015   5.309   0.386  0.3691 -0.2994 -0.3651
  583SOL     OW 2329   1.534   2.737   2.726  0.0900 -0.0260  0.0899
  583SOL    HW1 2330   1.522   2.701   2.813 -0.4808  0.1282  0.0835
  583SOL    HW2 2331   1.444   2.751   2.693  0.2239 -2.1421 -1.3816
  583SOL     MW 2332   1.521   2.734   2.733  0.0341 -0.2772 -0.0993
  584SOL     OW 2333   2.772   4.541   0.675  0.2190  0.3859  0.4096
  584SOL    HW1 2334   2.733   4.628   0.678 -0.0937  0.3711 -1.8966
  584SOL    HW2 2335   2.698   4.482   0.662  0.6983  0.1158 -1.3276
  584SOL     MW 2336   2.757   4.545   0.674  0.2403  0.3494 -0.1080
  585SOL     OW 2337   0.450   1.721   4.660 -0.0166 -0.1590  0.3465
  585SOL    HW1 2338   0.398   1.718   4.579  0.4845  1.8216 -0.1034
  585SOL    HW2 2339   0.491   1.635   4.665  0.7348 -0.0315 -2.0808
  585SOL     MW 2340   0.448   1.709   4.650  0.1437  0.1109 -0.0218
  586SOL     OW 2341   5.033   2.940   2.999 -0.1013  1.1281  0.6757
  586SOL    HW1 2342   4.963   3.003   3.015 -1.5216 -0.6128  1.7673
  586SOL    HW2 2343   5.043   2.893   3.082  2.5681  1.4497  0.6291
  586SOL     MW 2344   5.025   2.942   3.011  0.0586  0.9464  0.8095
  587SOL     OW 2345   4.970   1.663   1.086 -0.5612 -0.9126 -0.1750
  587SOL    HW1 2346   5.031   1.604   1.043 -0.7467 -2.2513  1.3420
  587SOL    HW2 2347   4.893   1.662   1.029  0.3081 -0.2118 -1.4182
  587SOL     MW 2348   4.968   1.656   1.073 -0.4737 -0.9942 -0.1399
  588SOL     OW 2349   5.462   3.032   1.414 -0.0565  0.8706 -0.2669
  588SOL    HW1 2350   5.376   3.036   1.456 -0.2798 -1.4898 -0.3773
  588SOL    HW2 2351   5.496   2.946   1.438  1.2735  0.8142 -2.1612
  588SOL     MW 2352   5.455   3.021   1.423  0.0852  0.5612 -0.5235
  589SOL     OW 2353   3.787   3.491   2.416 -0.0442  0.0167  0.4973
  589SOL    HW1 2354   3.864   3.548   2.405  1.2171 -1.6786  0.1593
  589SOL    HW2 2355   3.818   3.404   2.392 -1.8747 -0.8672  1.1675
  589SOL     MW 2356   3.801   3.487   2.412 -0.1171 -0.3134  0.5398
  590SOL     OW 2357   2.463   2.673   1.290  0.1060  0.1875  0.0438
  590SOL    HW1 2358   2.391   2.612   1.275  0.6328 -0.3087 -0.5326
  590SOL    HW2 2359   2.535   2.619   1.322  1.0260  0.2380 -1.7769
  590SOL     MW 2360   2.463   2.659   1.292  0.2912  0.1305 -0.2631
  591SOL     OW 2361   0.936   3.077   4.496 -0.4824  0.4561 -0.1350
  591SOL    HW1 2362   0.903   2.995   4.534  1.9367 -0.9769 -0.8879
  591SOL    HW2 2363   0.971   3.125   4.571  0.8795 -0.6621 -0.0100
  591SOL     MW 2364   0.937   3.072   4.511  0.0016  0.1295 -0.2154
  592SOL     OW 2365   2.411   1.340   1.331 -0.3710 -0.0865 -0.3677
  592SOL    HW1 2366   2.437   1.379   1.248  1.9353  0.0485  0.3737
  592SOL    HW2 2367   2.444   1.251   1.327 -0.7649 -0.2623  0.1843
  592SOL     MW 2368   2.418   1.334   1.320 -0.1262 -0.0917 -0.2021
  593SOL     OW 2369   4.130   5.301   3.026  0.0186 -0.4147 -0.0276
  593SOL    HW1 2370   4.156   5.340   3.110 -0.8207 -0.9254  0.4875
  593SOL    HW2 2371   4.035   5.312   3.023 -0.2679 -2.4390  0.1783
  593SOL     MW 2372   4.121   5.308   3.036 -0.1255 -0.7392  0.0647
  594SOL     OW 2373   1.525   4.180   2.834 -0.6143  0.3761 -0.0036
  594SOL    HW1 2374   1.570   4.124   2.897 -0.6329 -0.6504 -0.8714
  594SOL    HW2 2375   1.437   4.141   2.826 -0.4027  0.0832 -1.1338
  594SOL     MW 2376   1.519   4.168   2.841 -0.5896  0.2072 -0.2594
  595SOL     OW 2377   2.938   0.820   4.507 -0.0637  0.2016 -0.4314
  595SOL    HW1 2378   2.898   0.855   4.428 -0.2093 -0.2961 -0.5824
  595SOL    HW2 2379   2.882   0.746   4.532 -0.5113  0.8785  0.6296
  595SOL     MW 2380   2.926   0.815   4.500 -0.1396  0.2245 -0.3149
  596SOL     OW 2381   1.494   3.251   5.118  0.5529 -0.2516 -0.3936
  596SOL    HW1 2382   1.583   3.217   5.125  1.3164  1.4838 -1.0242
  596SOL    HW2 2383   1.472   3.241   5.025 -0.2219 -1.3551 -0.1073
  596SOL     MW 2384   1.503   3.245   5.107  0.5515 -0.1707 -0.4377
  597SOL     OW 2385   4.591   4.930   2.451  0.2243 -0.1043  0.4662
  597SOL    HW1 2386   4.677   4.905   2.484  0.5869  1.1604  0.5371
  597SOL    HW2 2387   4.532   4.917   2.525  0.5465  0.0346  0.7526
  597SOL     MW 2388   4.595   4.925   2.465  0.3119  0.0753  0.5119
  598SOL     OW 2389   2.644   2.283   3.393  0.5661 -0.4000 -0.2970
  598SOL    HW1 2390   2.576   2.217   3.409 -0.7557  1.0596  0.3496
  598SOL    HW2 2391   2.676   2.263   3.305 -0.1909 -1.5541 -0.3399
  598SOL     MW 2392   2.640   2.272   3.384  0.3000 -0.3609 -0.2197
  599SOL     OW 2393   1.526   3.022   0.870 -0.1810 -1.1045  0.7415
  599SOL    HW1 2394   1.432   3.033   0.860 -0.2934 -0.8965  1.8251
  599SOL    HW2 2395   1.554   3.100   0.918  0.4099 -1.5318  1.1080
  599SOL     MW 2396   1.518   3.033   0.875 -0.1197 -1.1326  0.9271
  600SOL     OW 2397   4.604   4.269   1.511  0.3984  0.0462 -0.7343
  600SOL    HW1 2398   4.682   4.216   1.494  2.0179  1.9146  0.4056
  600SOL    HW2 2399   4.610   4.340   1.447 -1.1648 -0.5051 -1.5416
  600SOL     MW 2400   4.615   4.271   1.500  0.4056  0.2148 -0.6917
  601SOL     OW 2401   3.388   4.191   3.776 -0.0648 -0.3203 -0.0866
  601SOL    HW1 2402   3.300   4.201   3.741 -0.0142 -1.8124 -0.7105
  601SOL    HW2 2403   3.382   4.117   3.837  0.5550  0.1583  0.5689
  601SOL     MW 2404   3.376   4.183   3.779  0.0211 -0.4501 -0.0826
  602SOL     OW 2405   4.375   5.006   3.289  0.2062  0.1904 -0.3413
  602SOL    HW1 2406   4.304   5.015   3.226 -0.6142 -0.2674  0.4918
  602SOL    HW2 2407   4.335   5.023   3.374  1.0616 -0.1917  0.1647
  602SOL     MW 2408   4.361   5.009   3.292  0.2107  0.0828 -0.1699
  603SOL     OW 2409   0.555   2.778   0.959 -0.0263  0.1291  0.1279
  603SOL    HW1 2410   0.554   2.868   0.927  0.5096  0.3869  0.7929
  603SOL    HW2 2411   0.515   2.783   1.046 -1.9669 -0.6474 -0.6812
  603SOL     MW 2412   0.550   2.790   0.966 -0.2061  0.0627  0.1095
  604SOL     OW 2413   1.530   3.321   4.039 -0.4844  0.2202 -0.9624
  604SOL    HW1 2414   1.604   3.314   3.979  0.9493 -1.7234  0.8829
  604SOL    HW2 2415   1.569   3.315   4.126 -2.6366  1.2375  0.1615
  604SOL     MW 2416   1.544   3.319   4.043 -0.5764  0.1017 -0.5823
  605SOL     OW 2417   4.787   0.042   3.728 -1.2109 -0.2617  0.2403
  605SOL    HW1 2418   4.778  -0.021   3.800  1.3306 -0.0189  0.8785
  605SOL    HW2 2419   4.847  -0.001   3.667 -0.5207  0.9608  0.0248
  605SOL     MW 2420   4.794   0.028   3.729 -0.7972 -0.0741  0.2944
  606SOL     OW 2421   4.398   4.616   5.302  0.5784 -0.0752 -0.2764
  606SOL    HW1 2422   4.455   4.644   5.231  1.6566  1.0547  0.9808
  606SOL    HW2 2423   4.378   4.696   5.350  0.4033 -0.8900  1.0553
  606SOL     MW 2424   4.403   4.630   5.299  0.6940 -0.0349  0.0550
  607SOL     OW 2425   4.562   3.341   4.816 -0.3039 -0.5252 -0.2180
  607SOL    HW1 2426   4.481   3.381   4.784  0.8833  2.8762  0.5465
  607SOL    HW2 2427   4.534   3.284   4.888 -2.1898 -1.7945 -1.8407
  607SOL     MW 2428   4.548   3.339   4.821 -0.3933 -0.2523 -0.3279
  608SOL     OW 2429   2.978   4.622   4.314 -0.3989  0.2971  0.7422
  608SOL    HW1 2430   2.969   4.537   4.358  0.0044  0.4331  1.1023
  608SOL    HW2 2431   3.017   4.679   4.381 -1.4049  0.9813  0.7643
  608SOL     MW 2432   2.982   4.619   4.328 -0.4760  0.4021  0.7911
  609SOL     OW 2433   0.873   1.989   3.749 -0.2663 -0.4582 -0.2490
  609SOL    HW1 2434   0.863   2.083   3.729  0.7651  0.3277  2.4596
  609SOL    HW2 2435   0.912   1.952   3.670  3.2110  2.2469 -0.0691
  609SOL     MW 2436   0.876   1.997   3.736  0.3109 -0.0113  0.1208
  610SOL     OW 2437   1.693   3.817   4.485 -0.4561 -0.5695  0.0994
  610SOL    HW1 2438   1.652   3.834   4.570 -0.0123  0.4954  0.1096
  610SOL    HW2 2439   1.623   3.828   4.421 -0.9672 -2.0768  0.3577
  610SOL     MW 2440   1.679   3.820   4.488 -0.4647 -0.6261  0.1338
  611SOL     OW 2441   1.789   1.055   4.255 -0.0149 -0.2527  0.0748
  611SOL    HW1 2442   1.858   1.036   4.191 -0.3224  0.3878 -0.4707
  611SOL    HW2 2443   1.807   0.997   4.329  1.5409  0.4226  0.2617
  611SOL     MW 2444   1.800   1.045   4.256  0.1449 -0.0842  0.0289
  612SOL     OW 2445   4.155   4.910   5.242 -0.5949 -0.3030  0.3336
  612SOL    HW1 2446   4.191   4.915   5.154  0.7003 -0.6212  0.8176
  612SOL    HW2 2447   4.122   4.998   5.260 -0.3413 -0.0826 -0.2456
  612SOL     MW 2448   4.155   4.922   5.233 -0.3966 -0.3155  0.3214
  613SOL     OW 2449   3.851   2.923   1.519 -0.2859  0.2065  0.3236
  613SOL    HW1 2450   3.917   2.931   1.450  0.1163  0.0387  0.6807
  613SOL    HW2 2451   3.767   2.920   1.473 -0.1571  1.8863 -0.0733
  613SOL     MW 2452   3.849   2.924   1.504 -0.2179  0.4001  0.3185
  614SOL     OW 2453   3.162   4.832   3.904 -0.2631 -0.0491  0.2203
  614SOL    HW1 2454   3.234   4.787   3.949 -0.7778  0.9462  2.1513
  614SOL    HW2 2455   3.203   4.907   3.862  0.2139 -0.9457 -0.9614
  614SOL     MW 2456   3.176   4.836   3.904 -0.2679 -0.0364  0.3163
  615SOL     OW 2457   4.971   0.962   1.067  0.2512 -0.0715  0.1363
  615SOL    HW1 2458   5.067   0.966   1.059  0.1366 -0.3610 -1.8847
  615SOL    HW2 2459   4.952   0.868   1.074  0.0941 -0.0286  0.2839
  615SOL     MW 2460   4.981   0.950   1.067  0.2164 -0.1031 -0.1035
  616SOL     OW 2461   3.576   3.485   0.479  0.4029 -0.2303 -0.0468
  616SOL    HW1 2462   3.588   3.393   0.500  0.4549 -0.0694  0.6298
  616SOL    HW2 2463   3.636   3.532   0.537  0.7747  0.2060 -0.7524
  616SOL     MW 2464   3.585   3.479   0.489  0.4572 -0.1538 -0.0505
  617SOL     OW 2465   3.907   3.227   3.625 -0.2506 -0.0947 -0.5194
  617SOL    HW1 2466   3.938   3.185   3.544 -0.8007 -1.7855  0.0986
  617SOL    HW2 2467   3.972   3.203   3.690 -0.7139 -0.2196 -0.0971
  617SOL     MW 2468   3.919   3.219   3.623 -0.3803 -0.3272 -0.3862
  618SOL     OW 2469   3.604   0.005   1.351  0.1399  0.5161 -0.2571
  618SOL    HW1 2470   3.672   0.067   1.327  0.1416  0.4811 -0.3416
  618SOL    HW2 2471   3.649  -0.060   1.405  0.0002  0.9675  0.4215
  618SOL     MW 2472   3.619   0.004   1.355  0.1222  0.5694 -0.1811
  619SOL     OW 2473   1.927   3.496   1.078  0.1949  0.0569  0.2189
  619SOL    HW1 2474   1.935   3.432   1.149 -0.1895  0.5954  0.7549
  619SOL    HW2 2475   1.992   3.563   1.099  0.1276  0.1810  0.0291
  619SOL     MW 2476   1.936   3.496   1.090  0.1371  0.1417  0.2632
  620SOL     OW 2477   1.594   4.800   2.377 -0.6367  0.5367  0.2943
  620SOL    HW1 2478   1.558   4.874   2.426 -0.7611  0.6043  0.1011
  620SOL    HW2 2479   1.578   4.724   2.434 -0.8042  0.6106  0.3489
  620SOL     MW 2480   1.587   4.799   2.391 -0.6741  0.5548  0.2766
  621SOL     OW 2481   3.189   1.539   1.838  0.7098 -0.0046  0.2816
  621SOL    HW1 2482   3.161   1.540   1.929  2.2087 -1.1986  0.7916
  621SOL    HW2 2483   3.197   1.631   1.814 -0.4964  0.3356  1.0767
  621SOL     MW 2484   3.186   1.551   1.846  0.7473 -0.1139  0.4487
  622SOL     OW 2485   2.548   4.991   1.496  0.2564 -0.3223 -0.1427
  622SOL    HW1 2486   2.465   4.987   1.449 -0.7240  0.3915  1.4262
  622SOL    HW2 2487   2.589   5.073   1.466 -0.2084 -0.0364 -0.0148
  622SOL     MW 2488   2.543   5.001   1.486  0.0714 -0.1943  0.0745
  623SOL     OW 2489   0.811   1.113   5.441  0.1543 -0.0238 -0.1923
  623SOL    HW1 2490   0.861   1.190   5.413  0.7136 -0.4233 -0.3111
  623SOL    HW2 2491   0.877   1.055   5.478 -0.3468 -0.1966  0.4538
  623SOL     MW 2492   0.826   1.116   5.442  0.1618 -0.0970 -0.1248
  624SOL     OW 2493   2.213   4.470   5.311  0.2386 -0.7043  0.1558
  624SOL    HW1 2494   2.288   4.476   5.371  0.5349 -0.8135 -0.2015
  624SOL    HW2 2495   2.159   4.401   5.349 -0.0838 -0.0853  0.8533
  624SOL     MW 2496   2.216   4.462   5.324  0.2353 -0.6390  0.1994
  625SOL     OW 2497   0.924   1.932   4.646 -0.2335  0.3437  0.2853
  625SOL    HW1 2498   0.840   1.908   4.685 -0.4728 -2.2826 -1.6520
  625SOL    HW2 2499   0.989   1.882   4.696 -0.2161 -0.4607 -0.5243
  625SOL     MW 2500   0.921   1.923   4.657 -0.2619 -0.0954 -0.0663
  626SOL     OW 2501   4.266  -0.001   2.279  0.4877 -0.5417  0.4752
  626SOL    HW1 2502   4.253   0.093   2.275  0.6389 -0.5056  0.7986
  626SOL    HW2 2503   4.181  -0.037   2.304  0.5962 -0.4348  1.0150
  626SOL     MW 2504   4.253   0.006   2.282  0.5209 -0.5234  0.5857
  627SOL     OW 2505   5.003   4.087   4.916 -0.4179 -0.1068 -0.3869
  627SOL    HW1 2506   4.971   4.013   4.968 -1.3429 -1.6740 -2.9936
  627SOL    HW2 2507   4.928   4.146   4.910  0.0312  0.6410  0.8957
  627SOL     MW 2508   4.990   4.085   4.922 -0.4788 -0.2117 -0.5564
  628SOL     OW 2509   4.674   4.408   1.283  0.5550  0.2249 -0.6166
  628SOL    HW1 2510   4.737   4.383   1.216  0.5257 -2.3116  0.1781
  628SOL    HW2 2511   4.589   4.378   1.249  0.5974 -1.4920  0.6364
  628SOL     MW 2512   4.671   4.401   1.270  0.5567 -0.3196 -0.3545
  629SOL     OW 2513   2.237   1.531   5.220 -0.5514  0.3377 -0.3952
  629SOL    HW1 2514   2.205   1.552   5.308 -0.3827 -0.9668  0.0000
  629SOL    HW2 2515   2.176   1.575   5.161 -0.4955  1.4718  0.3649
  629SOL     MW 2516   2.225   1.539   5.224 -0.5226  0.3159 -0.2473
  630SOL     OW 2517   2.362   5.443   4.875 -0.1313 -0.1209 -0.3686
  630SOL    HW1 2518   2.284   5.390   4.884 -0.0078 -0.1419  0.6846
  630SOL    HW2 2519   2.398   5.419   4.789 -1.7847  0.6059 -1.3146
  630SOL     MW 2520   2.357   5.433   4.865 -0.3272 -0.0305 -0.3548
  631SOL     OW 2521   0.834   3.623   4.427 -0.5671  0.2876 -0.1479
  631SOL    HW1 2522   0.791   3.636   4.511 -1.2132  0.7063 -0.5384
  631SOL    HW2 2523   0.795   3.688   4.369 -0.6349 -0.4530 -0.9590
  631SOL     MW 2524   0.824   3.633   4.430 -0.6585  0.2464 -0.3017
  632SOL     OW 2525   4.323   1.526   1.906 -0.3402 -0.7184 -0.6410
  632SOL    HW1 2526   4.367   1.460   1.853 -1.2333 -0.6062 -1.5429
  632SOL    HW2 2527   4.390   1.593   1.921  0.3306 -1.4219 -0.4127
  632SOL     MW 2528   4.337   1.526   1.901 -0.3686 -0.7941 -0.7272
  633SOL     OW 2529   0.782   4.191   3.315  0.3276  0.4416 -0.3753
  633SOL    HW1 2530   0.750   4.194   3.225  2.5421  3.7286 -1.2247
  633SOL    HW2 2531   0.874   4.166   3.306  0.0477 -1.4435  1.2855
  633SOL     MW 2532   0.790   4.188   3.302  0.5752  0.6210 -0.2714
  634SOL     OW 2533   1.606   0.540   2.612  0.0253 -0.2518 -0.1124
  634SOL    HW1 2534   1.597   0.484   2.690 -1.8697 -0.6814 -0.5871
  634SOL    HW2 2535   1.672   0.496   2.559  0.0599 -0.9241  0.4696
  634SOL     MW 2536   1.613   0.527   2.615 -0.2129 -0.3928 -0.0986
  635SOL     OW 2537   4.437   3.551   0.909 -0.3208  0.2556  0.1809
  635SOL    HW1 2538   4.473   3.477   0.958  1.4337  0.7604 -0.2877
  635SOL    HW2 2539   4.376   3.511   0.846  1.3124 -0.9340 -0.7245
  635SOL     MW 2540   4.434   3.536   0.907  0.1129  0.1680  0.0050
  636SOL     OW 2541   5.409   1.763   1.000  0.5717  0.3015  0.2234
  636SOL    HW1 2542   5.399   1.842   0.946  0.0182 -0.5829 -1.0165
  636SOL    HW2 2543   5.493   1.774   1.043  0.3977  1.6824  0.2605
  636SOL     MW 2544   5.418   1.775   0.998  0.4786  0.3650  0.0694
  637SOL     OW 2545   4.451   1.633   2.895 -0.3287  0.3735 -0.0423
  637SOL    HW1 2546   4.429   1.706   2.838  1.4868  1.0287  0.0319
  637SOL    HW2 2547   4.378   1.628   2.957 -1.3669  0.9096 -1.1949
  637SOL     MW 2548   4.439   1.642   2.896 -0.2292  0.5260 -0.1803
  638SOL     OW 2549   3.354   4.696   4.049 -0.2919 -0.4871 -0.1192
  638SOL    HW1 2550   3.320   4.618   4.005 -0.0646 -1.4797  1.3986
  638SOL    HW2 2551   3.447   4.698   4.025 -0.4723 -0.1959 -0.8250
  638SOL     MW 2552   3.362   4.686   4.040 -0.2859 -0.5769 -0.0153
  639SOL     OW 2553   2.409   5.312   1.640  0.2108  0.1477 -0.1469
  639SOL    HW1 2554   2.456   5.230   1.657 -1.0551 -0.6762 -0.4955
  639SOL    HW2 2555   2.477   5.371   1.608  1.5315 -0.0839  2.0702
  639SOL     MW 2556   2.424   5.309   1.638  0.2178  0.0126  0.0923
  640SOL     OW 2557   0.148   4.656   2.212  0.2223  0.4101 -0.0388
  640SOL    HW1 2558   0.166   4.563   2.223  1.7289  0.7518  0.7027
  640SOL    HW2 2559   0.084   4.676   2.280  2.1564  0.4720  1.8968
  640SOL     MW 2560   0.142   4.647   2.222  0.6628  0.4618  0.3039
  641SOL     OW 2561   1.881   3.486   3.100 -0.7580  0.1459 -0.3952
  641SOL    HW1 2562   1.867   3.498   3.194  1.6881  0.5194 -0.0056
  641SOL    HW2 2563   1.975   3.499   3.088 -0.9779 -0.0471 -2.8907
  641SOL     MW 2564   1.891   3.489   3.111 -0.4730  0.1690 -0.6648
  642SOL     OW 2565   1.822   3.909   4.881 -0.2143  0.1102 -0.4554
  642SOL    HW1 2566   1.754   3.878   4.821  0.2380  0.0620 -0.9504
  642SOL    HW2 2567   1.802   4.002   4.893 -0.1564  0.1804 -0.8863
  642SOL     MW 2568   1.811   3.917   4.875 -0.1490  0.1130 -0.5739
  643SOL     OW 2569   5.009   4.386   0.427 -0.3218 -0.4817 -0.2698
  643SOL    HW1 2570   5.034   4.455   0.488  0.4275 -1.9823  1.2053
  643SOL    HW2 2571   4.915   4.397   0.416 -0.1706  0.9433 -0.3202
  643SOL     MW 2572   5.000   4.396   0.434 -0.2066 -0.4914 -0.0874
  644SOL     OW 2573   1.341   5.175   3.114  0.0047 -0.8017  0.1742
  644SOL    HW1 2574   1.394   5.165   3.035  0.3289 -2.1893  0.5364
  644SOL    HW2 2575   1.361   5.263   3.145  4.1070 -1.9924  1.6408
  644SOL     MW 2576   1.350   5.185   3.108  0.5713 -1.1317  0.4083
  645SOL     OW 2577   4.123   2.492   0.126 -0.4228  0.5451 -0.1600
  645SOL    HW1 2578   4.062   2.439   0.075  1.1534  0.6055 -2.2438
  645SOL    HW2 2579   4.169   2.429   0.182 -1.0718  0.2509  0.0532
  645SOL     MW 2580   4.121   2.477   0.127 -0.3041  0.5152 -0.3995
  646SOL     OW 2581   2.802   3.178   4.189 -0.9794 -0.1305 -0.3399
  646SOL    HW1 2582   2.764   3.145   4.271  0.1088  0.3054  0.3601
  646SOL    HW2 2583   2.806   3.273   4.201  0.6732 -0.1944 -0.2229
  646SOL     MW 2584   2.798   3.186   4.201 -0.6286 -0.0829 -0.2353
  647SOL     OW 2585   5.463   1.418   4.847  0.3780 -0.3596  0.4697
  647SOL    HW1 2586   5.410   1.476   4.902  0.5426 -0.5685  0.8596
  647SOL    HW2 2587   5.543   1.467   4.831 -0.7490  0.8530 -1.9235
  647SOL     MW 2588   5.466   1.432   4.852  0.2548 -0.2311  0.2132
  648SOL     OW 2589   3.414   2.997   3.194  0.3091  0.0320 -0.0657
  648SOL    HW1 2590   3.362   3.043   3.259 -1.0810 -0.6418 -0.6652
  648SOL    HW2 2591   3.447   3.065   3.136  1.1757  0.5885  1.0538
  648SOL     MW 2592   3.412   3.011   3.195  0.2421  0.0170  0.0009
  649SOL     OW 2593   4.612   5.244   1.736 -0.0123  0.1604  0.0558
  649SOL    HW1 2594   4.674   5.170   1.739 -1.6293 -1.2257  0.6545
  649SOL    HW2 2595   4.577   5.250   1.825 -1.6671  0.0662 -0.5548
  649SOL     MW 2596   4.616   5.235   1.748 -0.4311 -0.0291  0.0543
  650SOL     OW 2597   3.976   4.844   0.366  0.3056 -0.4725  0.2859
  650SOL    HW1 2598   3.986   4.852   0.271  2.6908  0.6680  0.5579
  650SOL    HW2 2599   4.050   4.790   0.393 -0.0775 -0.3737  1.5834
  650SOL     MW 2600   3.986   4.838   0.357  0.5619 -0.3139  0.4868
  651SOL     OW 2601   3.997   0.202   4.928  0.0803  0.7158 -0.2054
  651SOL    HW1 2602   3.913   0.196   4.883  0.7367  0.6598 -1.4829
  651SOL    HW2 2603   4.060   0.164   4.867  0.9695  0.2646  0.9401
  651SOL     MW 2604   3.994   0.196   4.914  0.2782  0.6509 -0.2223
  652SOL     OW 2605   2.621   4.125   0.471  0.3925 -0.2288 -0.2974
  652SOL    HW1 2606   2.541   4.078   0.449  1.1681 -1.2662 -0.9979
  652SOL    HW2 2607   2.681   4.106   0.399  1.1333  0.8671  0.0075
  652SOL     MW 2608   2.618   4.116   0.459  0.5866 -0.2213 -0.3481
  653SOL     OW 2609   0.234   5.327   4.541  0.8352  0.0450  0.4733
  653SOL    HW1 2610   0.271   5.404   4.497  1.3923  0.4716  1.6467
  653SOL    HW2 2611   0.288   5.254   4.510 -0.7772 -0.2251 -2.0127
  653SOL     MW 2612   0.246   5.327   4.532  0.7001  0.0650  0.3053
  654SOL     OW 2613   4.590   3.787   0.522  0.0678  0.1852  0.2398
  654SOL    HW1 2614   4.651   3.839   0.470  0.2909  0.9044  1.1952
  654SOL    HW2 2615   4.504   3.806   0.485  0.4349 -1.2505 -1.4703
  654SOL     MW 2616   4.587   3.796   0.511  0.1433  0.0935  0.1432
  655SOL     OW 2617   0.837   3.061   1.612 -0.1222  0.0261  0.1091
  655SOL    HW1 2618   0.925   3.095   1.594 -0.1794  1.2818  1.9368
  655SOL    HW2 2619   0.851   2.986   1.670 -0.1826 -1.0594 -1.2375
  655SOL     MW 2620   0.850   3.056   1.617 -0.1373  0.0479  0.1707
  656SOL     OW 2621   2.421   1.797   4.569  0.2311 -0.1032 -0.4399
  656SOL    HW1 2622   2.501   1.752   4.540  0.4804  0.2238 -0.2706
  656SOL    HW2 2623   2.442   1.890   4.561 -0.0904 -0.0168 -0.2776
  656SOL     MW 2624   2.434   1.803   4.564  0.2218 -0.0503 -0.3974
  657SOL     OW 2625   0.172   5.488   2.723 -0.4057  0.0936 -0.1652
  657SOL    HW1 2626   0.225   5.412   2.695 -1.9759 -0.8689 -0.6661
  657SOL    HW2 2627   0.177   5.549   2.649 -1.5853 -0.8789 -1.1025
  657SOL     MW 2628   0.179   5.486   2.710 -0.7577 -0.1541 -0.3493
  658SOL     OW 2629   1.436   3.172   2.903  0.0004 -0.0164 -0.0348
  658SOL    HW1 2630   1.444   3.264   2.925 -0.1523 -0.0662  0.2397
  658SOL    HW2 2631   1.344   3.151   2.921 -0.5295  0.2997 -2.1381
  658SOL     MW 2632   1.425   3.181   2.908 -0.0870  0.0177 -0.2689
  659SOL     OW 2633   0.734   0.806   4.200  0.1093  0.1090 -0.9359
  659SOL    HW1 2634   0.705   0.826   4.111 -2.1784  1.2332 -0.0073
  659SOL    HW2 2635   0.671   0.850   4.257  1.2685 -0.9013  1.2683
  659SOL     MW 2636   0.722   0.814   4.196 -0.0351  0.1236 -0.5349
  660SOL     OW 2637   3.819   4.639   4.291  0.1742 -0.0241  0.4967
  660SOL    HW1 2638   3.883   4.676   4.352 -0.6336 -0.4092  1.6078
  660SOL    HW2 2639   3.741   4.692   4.303 -0.0655 -0.2330 -0.0829
  660SOL     MW 2640   3.818   4.651   4.300  0.0401 -0.1001  0.5647
  661SOL     OW 2641   4.642   3.852   0.034 -0.5536  0.6495 -0.4606
  661SOL    HW1 2642   4.598   3.934   0.013 -0.3795  1.3778  1.7244
  661SOL    HW2 2643   4.734   3.867   0.010 -0.8551  0.3220 -1.9321
  661SOL     MW 2644   4.648   3.864   0.028 -0.5699  0.7008 -0.3693
  662SOL     OW 2645   4.331   1.910   0.087 -0.2278 -0.3086 -0.1110
  662SOL    HW1 2646   4.367   1.943   0.005 -0.0979 -1.3766 -0.5035
  662SOL    HW2 2647   4.239   1.891   0.067 -0.1366 -0.7918 -0.0854
  662SOL     MW 2648   4.324   1.912   0.074 -0.1995 -0.5072 -0.1580
  663SOL     OW 2649   2.123   0.229   4.611  0.3632 -0.5223 -0.3637
  663SOL    HW1 2650   2.078   0.269   4.536 -0.0737 -0.6453 -0.1710
  663SOL    HW2 2651   2.068   0.155   4.635  1.1313 -1.2149 -0.6817
  663SOL     MW 2652   2.110   0.225   4.604  0.4056 -0.6267 -0.3797
  664SOL     OW 2653  -0.020   4.415   1.553  0.5325 -0.2670  0.1822
  664SOL    HW1 2654   0.023   4.498   1.573 -0.3064  0.0009  0.9436
  664SOL    HW2 2655   0.018   4.353   1.615 -0.7515  0.1591  1.4440
  664SOL     MW 2656  -0.009   4.418   1.564  0.2608 -0.1781  0.4412
  665SOL     OW 2657   0.589   4.689   2.220  0.5084  0.1231 -0.4675
  665SOL    HW1 2658   0.581   4.602   2.259  0.5963  0.9294  1.4794
  665SOL    HW2 2659   0.541   4.683   2.137  1.2688 -1.9982 -0.8216
  665SOL     MW 2660   0.582   4.677   2.214  0.6170 -0.0452 -0.2636
  666SOL     OW 2661   0.783   2.381   4.939  0.3192 -0.4360 -0.0776
  666SOL    HW1 2662   0.853   2.445   4.954 -1.4602  1.4926  0.6174
  666SOL    HW2 2663   0.767   2.385   4.845  1.3656 -1.1692 -0.2985
  666SOL     MW 2664   0.790   2.390   4.929  0.2254 -0.2829 -0.0169
  667SOL     OW 2665   1.415   0.799   0.689  0.6913  0.2068 -0.2978
  667SOL    HW1 2666   1.442   0.887   0.661  0.0959  0.4039 -0.2559
  667SOL    HW2 2667   1.474   0.778   0.762 -0.2196  1.2430  0.7708
  667SOL     MW 2668   1.426   0.808   0.695  0.4985  0.3647 -0.1557
  668SOL     OW 2669   1.135   4.407   5.453 -0.4588  0.3783 -0.2542
  668SOL    HW1 2670   1.168   4.350   5.383  0.0592 -2.2207  1.9127
  668SOL    HW2 2671   1.043   4.419   5.432 -0.5612 -1.2180 -0.8843
  668SOL     MW 2672   1.128   4.401   5.441 -0.4056 -0.1588 -0.0574
  669SOL     OW 2673   4.046   4.349   5.200  0.0288  0.4414 -0.0938
  669SOL    HW1 2674   4.029   4.301   5.281  0.3714 -0.1053 -0.3343
  669SOL    HW2 2675   3.966   4.398   5.184  0.1022  0.8711  0.7865
  669SOL     MW 2676   4.034   4.349   5.208  0.0821  0.4264 -0.0119
  670SOL     OW 2677   2.228   4.104   4.744  0.4921  0.9397  0.2102
  670SOL    HW1 2678   2.262   4.029   4.694 -0.6652  0.5757 -0.0698
  670SOL    HW2 2679   2.283   4.177   4.718 -0.0540  0.7565 -1.6276
  670SOL     MW 2680   2.239   4.103   4.734  0.2741  0.8697 -0.0609
  671SOL     OW 2681   3.320   1.691   4.121 -0.1068 -0.1362 -0.3401
  671SOL    HW1 2682   3.308   1.736   4.038  1.5946 -0.3608 -0.7580
  671SOL    HW2 2683   3.341   1.761   4.183  2.2610 -0.2325 -0.9299
  671SOL     MW 2684   3.321   1.706   4.118  0.4141 -0.1773 -0.4691
  672SOL     OW 2685   1.443   1.806   4.277  0.4068 -0.6361 -0.3012
  672SOL    HW1 2686   1.524   1.763   4.249  1.2334 -0.3230  1.5004
  672SOL    HW2 2687   1.400   1.741   4.333  0.6063  0.0648  0.6832
  672SOL     MW 2688   1.448   1.792   4.280  0.5382 -0.5063  0.0555
  673SOL     OW 2689   3.490   1.773   3.411  0.3283  0.0598 -0.1630
  673SOL    HW1 2690   3.402   1.774   3.374 -0.2338 -2.9457  0.8063
  673SOL    HW2 2691   3.522   1.863   3.400 -2.0437  0.7536 -2.3792
  673SOL     MW 2692   3.483   1.785   3.405 -0.0473 -0.2361 -0.3226
  674SOL     OW 2693   0.813   0.220   5.457 -0.0273 -0.0982 -0.1237
  674SOL    HW1 2694   0.729   0.264   5.470 -0.2180 -0.5398  0.1636
  674SOL    HW2 2695   0.811   0.193   5.365 -0.3696 -0.4567 -0.0117
  674SOL     MW 2696   0.802   0.222   5.447 -0.0955 -0.2007 -0.0726
  675SOL     OW 2697   3.763   1.522   4.411  0.6880  0.1453  0.0848
  675SOL    HW1 2698   3.726   1.442   4.373  2.1398 -0.2787 -0.5182
  675SOL    HW2 2699   3.750   1.511   4.505  0.4557 -0.5897 -0.0223
  675SOL     MW 2700   3.756   1.510   4.418  0.8441 -0.0031 -0.0061
  676SOL     OW 2701   0.165   0.918   2.142  0.0847  0.4234 -0.4161
  676SOL    HW1 2702   0.257   0.918   2.169 -0.1391 -1.1407  0.4665
  676SOL    HW2 2703   0.150   0.829   2.111 -0.8548  0.9827 -1.6592
  676SOL     MW 2704   0.175   0.906   2.141 -0.0642  0.2948 -0.4623
  677SOL     OW 2705   5.400   3.218   3.445  0.3276  0.1722 -0.3601
  677SOL    HW1 2706   5.481   3.269   3.450 -0.4460  1.4983 -0.9555
  677SOL    HW2 2707   5.380   3.195   3.536  1.7842 -0.8835 -0.2687
  677SOL     MW 2708   5.408   3.221   3.457  0.4150  0.2068 -0.4247
  678SOL     OW 2709   3.563   3.712   1.337  0.3183  0.1609 -0.4387
  678SOL    HW1 2710   3.528   3.655   1.406 -0.1431  1.8654  0.7927
  678SOL    HW2 2711   3.646   3.744   1.372  0.3572  0.6017 -0.9185
  678SOL     MW 2712   3.569   3.709   1.350  0.2642  0.4355 -0.3425
  679SOL     OW 2713   4.736   2.007   1.874 -0.0085  0.6817  0.0214
  679SOL    HW1 2714   4.725   2.039   1.964  0.5818 -0.6804  0.6039
  679SOL    HW2 2715   4.816   1.955   1.877 -0.1148  0.4226 -1.2465
  679SOL     MW 2716   4.745   2.005   1.886  0.0535  0.4742 -0.0663
  680SOL     OW 2717   2.402   1.491   1.108  0.2893  0.0060 -0.2205
  680SOL    HW1 2718   2.425   1.573   1.065 -0.4281 -0.1177 -0.8565
  680SOL    HW2 2719   2.397   1.427   1.037 -0.0362 -0.3953  0.1554
  680SOL     MW 2720   2.405   1.493   1.093  0.1558 -0.0612 -0.2538
  681SOL     OW 2721   3.587   3.384   5.344 -0.1196  0.4949 -0.1321
  681SOL    HW1 2722   3.632   3.467   5.334 -0.2133  0.4689 -0.7833
  681SOL    HW2 2723   3.540   3.371   5.261 -0.4007 -0.0266  0.1001
  681SOL     MW 2724   3.587   3.393   5.332 -0.1676  0.4248 -0.1857
  682SOL     OW 2725   0.303   0.826   1.795  0.3183  0.0840 -0.3858
  682SOL    HW1 2726   0.300   0.837   1.890 -1.8514  0.3692 -0.4416
  682SOL    HW2 2727   0.353   0.901   1.763 -0.4831  0.9666  0.4058
  682SOL     MW 2728   0.309   0.837   1.803 -0.0620  0.2335 -0.2916
  683SOL     OW 2729   1.715   1.986   4.848 -0.3747  0.5913  0.7307
  683SOL    HW1 2730   1.724   2.079   4.868 -0.5292  1.0796 -1.2562
  683SOL    HW2 2731   1.620   1.971   4.846 -0.3723  0.6099  0.2313
  683SOL     MW 2732   1.704   1.996   4.850 -0.3941  0.6562  0.4124
  684SOL     OW 2733   1.482   2.479   0.781  0.3494  0.1647 -0.4602
  684SOL    HW1 2734   1.423   2.455   0.852 -0.2324  0.3114 -0.8830
  684SOL    HW2 2735   1.528   2.557   0.813  2.3124 -1.4689  0.9503
  684SOL     MW 2736   1.480   2.486   0.794  0.5262 -0.0257 -0.3338
  685SOL     OW 2737   0.558   1.451   2.815 -0.4517  0.0967 -0.7778
  685SOL    HW1 2738   0.640   1.450   2.864 -1.0256 -0.2120  0.2060
  685SOL    HW2 2739   0.581   1.488   2.730  1.0362 -1.4657 -1.1206
  685SOL     MW 2740   0.571   1.455   2.810 -0.3347 -0.1428 -0.6958
  686SOL     OW 2741   4.549   0.116   1.967  0.2636 -0.2643 -0.3953
  686SOL    HW1 2742   4.617   0.177   1.996  1.2342 -1.7393  0.5877
  686SOL    HW2 2743   4.467   0.161   1.988  0.8741  1.7237 -1.9536
  686SOL     MW 2744   4.547   0.130   1.974  0.4660 -0.1986 -0.4689
  687SOL     OW 2745   5.073   2.036   4.485 -0.5677 -0.3458  0.4259
  687SOL    HW1 2746   5.007   2.097   4.518 -0.4135  0.0741 -0.0157
  687SOL    HW2 2747   5.113   1.998   4.563 -1.9345 -1.2821  0.7073
  687SOL     MW 2748   5.070   2.039   4.499 -0.7229 -0.4119  0.4054
  688SOL     OW 2749   3.895   3.141   2.942  0.3206 -0.1518 -0.1153
  688SOL    HW1 2750   3.944   3.067   2.905 -0.5310 -2.0951  2.3868
  688SOL    HW2 2751   3.957   3.184   3.000  0.7314  1.0263 -1.3647
  688SOL     MW 2752   3.909   3.137   2.945  0.2642 -0.2497  0.0451
  689SOL     OW 2753   0.422   4.610   1.303  0.6586 -0.1270 -0.1779
  689SOL    HW1 2754   0.350   4.641   1.248  1.6468 -0.2685 -1.5857
  689SOL    HW2 2755   0.388   4.530   1.344  0.6868 -1.3665 -2.4367
  689SOL     MW 2756   0.408   4.604   1.301  0.7887 -0.3038 -0.6473
  690SOL     OW 2757   4.945   3.013   3.479 -0.3990 -0.8852 -0.3057
  690SOL    HW1 2758   4.926   3.106   3.467 -0.3997 -0.9879 -1.1692
  690SOL    HW2 2759   5.011   3.011   3.548  0.8894 -0.1090 -1.4545
  690SOL     MW 2760   4.951   3.025   3.486 -0.2342 -0.7990 -0.5633
  691SOL     OW 2761   2.567   0.415   0.087 -0.0617  0.5157 -0.2625
  691SOL    HW1 2762   2.627   0.486   0.064 -1.5479  1.7993 -0.2690
  691SOL    HW2 2763   2.516   0.449   0.160  0.1395 -1.0885  0.6765
  691SOL     MW 2764   2.568   0.428   0.094 -0.2262  0.4747 -0.1431
  692SOL     OW 2765   0.908   0.398   3.481 -0.5832 -0.1703 -0.5875
  692SOL    HW1 2766   0.829   0.412   3.430  0.1475  1.3682 -1.3522
  692SOL    HW2 2767   0.883   0.422   3.570 -0.9126  0.5395 -0.8656
  692SOL     MW 2768   0.895   0.403   3.486 -0.5318  0.1175 -0.7210
  693SOL     OW 2769   4.183   5.241   0.810 -0.1898 -0.0511  0.2410
  693SOL    HW1 2770   4.253   5.256   0.748  0.1892  0.4111  0.7661
  693SOL    HW2 2771   4.165   5.147   0.805  0.3552 -0.1429 -0.0172
  693SOL     MW 2772   4.189   5.231   0.802 -0.0715 -0.0037  0.2752
  694SOL     OW 2773   3.851   2.400   3.881 -0.4328 -0.5758  0.9267
  694SOL    HW1 2774   3.795   2.354   3.942  0.2879 -0.3927  1.7418
  694SOL    HW2 2775   3.794   2.422   3.807 -1.4007 -0.4697  1.6955
  694SOL     MW 2776   3.837   2.397   3.879 -0.4644 -0.5388  1.1295
  695SOL     OW 2777   0.267   3.442   0.360 -0.8926 -0.1130 -0.2884
  695SOL    HW1 2778   0.270   3.438   0.456 -1.0044 -0.2055 -0.2890
  695SOL    HW2 2779   0.307   3.527   0.339  1.5605 -1.1815 -0.2850
  695SOL     MW 2780   0.273   3.452   0.370 -0.5929 -0.2616 -0.2881
  696SOL     OW 2781   3.910   0.217   1.472  0.2692  0.4421 -0.0115
  696SOL    HW1 2782   3.904   0.202   1.566 -3.7423 -0.2225 -0.1787
  696SOL    HW2 2783   3.972   0.152   1.440  0.9135  0.0083  2.0263
  696SOL     MW 2784   3.917   0.207   1.480 -0.1619  0.3015  0.2280
  697SOL     OW 2785   4.862   0.950   0.541  0.4548 -0.7087  0.0399
  697SOL    HW1 2786   4.820   1.030   0.509 -1.1504 -1.4540  0.1730
  697SOL    HW2 2787   4.789   0.892   0.561  1.5867 -2.1395  0.1389
  697SOL     MW 2788   4.847   0.953   0.539  0.3942 -0.9872  0.0696
  698SOL     OW 2789   4.931   2.819   0.116 -0.1190 -0.5329  0.1806
  698SOL    HW1 2790   4.876   2.742   0.102  0.5309 -1.3231  1.7408
  698SOL    HW2 2791   4.873   2.882   0.160 -0.4830 -0.3251 -0.5704
  698SOL     MW 2792   4.916   2.817   0.120 -0.0824 -0.6074  0.2842
  699SOL     OW 2793   2.349   1.106   5.473  0.0895 -0.2624  0.0519
  699SOL    HW1 2794   2.379   1.106   5.564 -0.5479 -1.5000  0.2838
  699SOL    HW2 2795   2.399   1.176   5.432 -1.3747  2.0257  1.9024
  699SOL     MW 2796   2.359   1.115   5.480 -0.1795 -0.1279  0.3185
  700SOL     OW 2797   4.048   4.203   5.420  0.0576  0.2194  0.3112
  700SOL    HW1 2798   4.134   4.212   5.461 -0.4629 -0.1966  1.5327
  700SOL    HW2 2799   4.034   4.109   5.413 -0.7133  0.2739  1.0246
  700SOL     MW 2800   4.057   4.192   5.424 -0.1077  0.1731  0.5589
  701SOL     OW 2801   2.879   5.412   0.906  0.6552 -0.6742  0.5514
  701SOL    HW1 2802   2.887   5.442   0.996  0.0441  2.3911 -0.3073
  701SOL    HW2 2803   2.790   5.377   0.899  0.8598 -1.3494  1.2149
  701SOL     MW 2804   2.869   5.411   0.916  0.6032 -0.3683  0.5264
  702SOL     OW 2805   3.781   4.372   1.790  0.4335 -0.3061 -0.8792
  702SOL    HW1 2806   3.861   4.369   1.737  0.2810  0.3762 -1.1690
  702SOL    HW2 2807   3.808   4.416   1.871  1.0836 -2.9131  0.4167
  702SOL     MW 2808   3.795   4.377   1.793  0.4972 -0.5525 -0.7504
  703SOL     OW 2809   0.515   1.778   4.352  0.3369  0.2735 -0.0470
  703SOL    HW1 2810   0.429   1.754   4.387  0.5846 -0.7149 -0.0775
  703SOL    HW2 2811   0.576   1.722   4.400  0.7745 -0.4518 -1.4123
  703SOL     MW 2812   0.512   1.768   4.363  0.4247  0.0542 -0.2257
  704SOL     OW 2813   2.238   2.624   4.789  0.6745  0.4005 -0.3314
  704SOL    HW1 2814   2.324   2.634   4.747  1.0388 -0.0831  0.2627
  704SOL    HW2 2815   2.206   2.539   4.758  1.4609 -0.5036  1.1986
  704SOL     MW 2816   2.245   2.614   4.780  0.8218  0.2229 -0.0595
  705SOL     OW 2817   4.821   0.945   3.708  0.4283  0.0883 -0.0996
  705SOL    HW1 2818   4.858   1.025   3.744  2.5725 -0.2924 -1.3140
  705SOL    HW2 2819   4.727   0.964   3.699  0.9960  2.8454 -1.3265
  705SOL     MW 2820   4.814   0.958   3.712  0.7754  0.3925 -0.4121
  706SOL     OW 2821   1.896   0.894   2.350  0.2271  0.2961 -0.4859
  706SOL    HW1 2822   1.876   0.930   2.436 -0.3925  0.9995 -0.9124
  706SOL    HW2 2823   1.836   0.939   2.290  0.0619 -0.8000 -1.1673
  706SOL     MW 2824   1.886   0.905   2.353  0.1266  0.2458 -0.6277
  707SOL     OW 2825   5.301   4.238   4.211 -0.0746  0.1904  0.0808
  707SOL    HW1 2826   5.363   4.171   4.240  1.6005  1.3690 -0.6049
  707SOL    HW2 2827   5.302   4.304   4.280 -0.0317  0.5585 -0.2714
  707SOL     MW 2828   5.309   4.238   4.223  0.1453  0.3884 -0.0521
  708SOL     OW 2829   0.622   5.151   0.368 -0.0723 -0.4489 -0.2140
  708SOL    HW1 2830   0.575   5.083   0.320  1.5546 -0.9015 -1.2918
  708SOL    HW2 2831   0.681   5.190   0.302  0.2089  0.8752  0.7723
  708SOL     MW 2832   0.624   5.147   0.353  0.1719 -0.3374 -0.2257
  709SOL     OW 2833   0.148   2.099   0.644  0.0642  0.1886 -0.0411
  709SOL    HW1 2834   0.156   2.116   0.550 -0.9785 -1.3234 -0.4550
  709SOL    HW2 2835   0.181   2.178   0.686 -0.3351  1.2856 -1.6912
  709SOL     MW 2836   0.153   2.111   0.637 -0.1204  0.1355 -0.3053
  710SOL     OW 2837   5.433   0.286   2.450  0.1450  0.0706 -0.6039
  710SOL    HW1 2838   5.501   0.334   2.497 -0.2423  0.0401 -0.0031
  710SOL    HW2 2839   5.407   0.216   2.509  1.1923 -1.3338 -1.7505
  710SOL     MW 2840   5.438   0.283   2.464  0.2295 -0.1131 -0.6738
  711SOL     OW 2841   3.285   3.765   0.320 -0.2945 -0.0303 -0.1671
  711SOL    HW1 2842   3.290   3.733   0.410 -2.3799  1.2270  0.4910
  711SOL    HW2 2843   3.361   3.728   0.276  1.6301  0.4789  2.4800
  711SOL     MW 2844   3.295   3.756   0.326 -0.3151  0.1958  0.2560
  712SOL     OW 2845   1.749   5.359   2.937 -0.3663  0.3816  0.1496
  712SOL    HW1 2846   1.782   5.356   3.026 -0.6708  2.7739  0.4099
  712SOL    HW2 2847   1.827   5.359   2.882 -0.0562  1.5032  0.5629
  712SOL     MW 2848   1.763   5.359   2.941 -0.3656  0.8315  0.2359
  713SOL     OW 2849   2.982   4.735   3.025 -0.5850 -0.5059 -0.3812
  713SOL    HW1 2850   2.956   4.692   2.943 -1.7284 -0.2913 -0.1586
  713SOL    HW2 2851   3.029   4.668   3.073  1.6411 -0.1525 -1.8844
  713SOL     MW 2852   2.984   4.721   3.020 -0.4464 -0.4332 -0.5451
  714SOL     OW 2853   1.821   1.247   4.439 -0.4040  0.0457  0.6236
  714SOL    HW1 2854   1.804   1.340   4.423 -0.3552 -0.0669 -0.0952
  714SOL    HW2 2855   1.811   1.206   4.354  2.0363 -0.2675  0.4205
  714SOL     MW 2856   1.817   1.254   4.426 -0.0853 -0.0088  0.5056
  715SOL     OW 2857   0.270   4.439   0.352 -1.0446 -0.0886  0.1466
  715SOL    HW1 2858   0.253   4.348   0.376 -0.2009  0.1062  1.5487
  715SOL    HW2 2859   0.363   4.441   0.329 -0.7381  0.6751  1.4040
  715SOL     MW 2860   0.279   4.428   0.352 -0.8974  0.0341  0.4871
  716SOL     OW 2861   4.227   2.407   4.525 -0.3536 -0.2653 -0.5437
  716SOL    HW1 2862   4.195   2.322   4.493  1.3154 -1.7390  1.4758
  716SOL    HW2 2863   4.307   2.422   4.475  1.0437 -1.4847  1.1985
  716SOL     MW 2864   4.233   2.398   4.514  0.0389 -0.6100 -0.0622
  717SOL     OW 2865   3.772   1.300   5.268  0.0871 -0.2096 -0.5006
  717SOL    HW1 2866   3.833   1.322   5.198  0.2693  0.0791 -0.2554
  717SOL    HW2 2867   3.826   1.300   5.347 -0.4775  1.4092 -0.0815
  717SOL     MW 2868   3.786   1.303   5.269  0.0382  0.0346 -0.4156
  718SOL     OW 2869   3.902   2.292   0.190  0.2506 -0.2247  0.1307
  718SOL    HW1 2870   3.848   2.312   0.267  0.2546  1.1781 -0.1943
  718SOL    HW2 2871   3.861   2.214   0.152  0.4585 -1.1646  1.7324
  718SOL     MW 2872   3.889   2.285   0.195  0.2777 -0.1655  0.2941
  719SOL     OW 2873   4.413   4.216   5.344 -0.3128  0.3619 -0.4438
  719SOL    HW1 2874   4.375   4.304   5.347 -0.2312  0.3763  0.6565
  719SOL    HW2 2875   4.385   4.181   5.260 -0.0099  1.5895 -1.0820
  719SOL     MW 2876   4.404   4.223   5.334 -0.2636  0.5209 -0.3846
  720SOL     OW 2877   4.983   2.983   1.143  0.3920  0.3835 -0.2734
  720SOL    HW1 2878   5.064   2.957   1.099 -0.9524 -1.2767 -1.9325
  720SOL    HW2 2879   4.979   2.927   1.220  1.0960  0.9075  0.1570
  720SOL     MW 2880   4.993   2.973   1.147  0.3100  0.2380 -0.4306
  721SOL     OW 2881   2.947   0.502   0.194 -0.1680  0.1979  0.3400
  721SOL    HW1 2882   2.871   0.537   0.147  0.5564  1.5555  0.1109
  721SOL    HW2 2883   3.003   0.466   0.126 -0.2413 -0.0672  0.4208
  721SOL     MW 2884   2.944   0.502   0.180 -0.0847  0.3378  0.3210
  722SOL     OW 2885   0.748   3.548   1.583 -0.2021  0.3237  0.1824
  722SOL    HW1 2886   0.695   3.600   1.523  2.8831  0.7855 -2.3780
  722SOL    HW2 2887   0.752   3.461   1.543  0.6147  0.1939  0.5280
  722SOL     MW 2888   0.742   3.544   1.570  0.2974  0.3662 -0.1012
  723SOL     OW 2889   0.487   0.955   0.907 -0.2851 -0.1223  0.7821
  723SOL    HW1 2890   0.569   0.914   0.879 -0.4024 -0.4723  0.9444
  723SOL    HW2 2891   0.421   0.887   0.894 -0.9728  0.8603 -1.5882
  723SOL     MW 2892   0.489   0.941   0.901 -0.3882 -0.0414  0.4994
  724SOL     OW 2893   4.752   0.252   4.617 -0.6703 -0.1130  0.0355
  724SOL    HW1 2894   4.715   0.273   4.702  0.9250 -0.9406  0.9773
  724SOL    HW2 2895   4.799   0.331   4.590 -1.8306  0.4271 -0.4858
  724SOL     MW 2896   4.753   0.264   4.624 -0.6146 -0.1498  0.0893
  725SOL     OW 2897   1.849   3.041   4.113 -0.1614 -0.4269 -0.4017
  725SOL    HW1 2898   1.801   2.982   4.055  0.3053 -1.9699  0.7318
  725SOL    HW2 2899   1.939   3.038   4.081  0.3270 -2.1214  0.9533
  725SOL     MW 2900   1.854   3.033   4.102 -0.0391 -0.8413 -0.0832
  726SOL     OW 2901   0.321   0.329   4.407  0.6513  0.1733 -0.3781
  726SOL    HW1 2902   0.358   0.243   4.426 -2.2544 -1.3111 -0.7748
  726SOL    HW2 2903   0.388   0.374   4.356  2.8265 -1.2605  1.0191
  726SOL     MW 2904   0.334   0.324   4.403  0.5578 -0.2002 -0.2500
  727SOL     OW 2905   2.578   3.539   2.766  0.5195  0.4469 -0.1420
  727SOL    HW1 2906   2.582   3.443   2.760  0.2785  0.4322 -0.0697
  727SOL    HW2 2907   2.557   3.568   2.677 -1.7105  0.3006  0.2717
  727SOL     MW 2908   2.576   3.530   2.754  0.2032  0.4263 -0.0798
  728SOL     OW 2909   0.042   4.514   4.910  0.3026  0.4392 -0.2410
  728SOL    HW1 2910   0.099   4.471   4.974  0.2846  0.8301  0.0388
  728SOL    HW2 2911  -0.035   4.540   4.960  0.7751  1.7593 -0.1704
  728SOL     MW 2912   0.039   4.511   4.924  0.3608  0.6583 -0.1961
  729SOL     OW 2913   1.741   2.914   1.521 -0.2405 -0.2568 -0.6946
  729SOL    HW1 2914   1.679   2.845   1.548 -0.7910  0.6679  0.5068
  729SOL    HW2 2915   1.689   2.994   1.522  1.1634  0.6894  1.2288
  729SOL     MW 2916   1.726   2.915   1.525 -0.1312 -0.0173 -0.2946
  730SOL     OW 2917   0.131   4.775   5.131  0.7483  0.2396  0.3619
  730SOL    HW1 2918   0.075   4.702   5.160 -0.9318  1.0246 -0.7232
  730SOL    HW2 2919   0.152   4.823   5.211  1.3443 -1.0450  1.0097
  730SOL     MW 2920   0.126   4.772   5.145  0.6095  0.1756  0.3059
  731SOL     OW 2921   2.914   1.329   2.563  0.0157 -0.0724  0.1772
  731SOL    HW1 2922   2.861   1.280   2.626 -0.6935  0.5313  0.0653
  731SOL    HW2 2923   2.878   1.417   2.565  1.8929  0.7188  1.0732
  731SOL     MW 2924   2.902   1.334   2.571  0.1652  0.1062  0.2776
  732SOL     OW 2925   5.348   1.792   3.821  0.2717  0.0668 -0.0564
  732SOL    HW1 2926   5.419   1.769   3.881  1.3103 -0.4711 -1.4248
  732SOL    HW2 2927   5.310   1.872   3.858 -0.5195 -1.3387  2.4181
  732SOL     MW 2928   5.352   1.800   3.833  0.3033 -0.1820  0.0852
  733SOL     OW 2929   2.565   0.099   3.910  0.9633  0.9221 -0.3183
  733SOL    HW1 2930   2.591   0.057   3.827 -0.7845 -0.6049 -0.1590
  733SOL    HW2 2931   2.634   0.075   3.971  0.7069 -0.6115 -0.5919
  733SOL     MW 2932   2.577   0.090   3.907  0.7068  0.5303 -0.3330
  734SOL     OW 2933   4.677   0.969   5.081 -0.2942 -0.0568 -0.2504
  734SOL    HW1 2934   4.772   0.960   5.074 -0.1515  1.6608 -1.0365
  734SOL    HW2 2935   4.652   1.023   5.006 -1.7790  0.2107  0.3910
  734SOL     MW 2936   4.686   0.975   5.071 -0.4660  0.1973 -0.2689
  735SOL     OW 2937   1.401   3.555   3.434 -0.1209 -0.2162  0.0693
  735SOL    HW1 2938   1.324   3.569   3.379  0.1915  0.2868 -0.2508
  735SOL    HW2 2939   1.398   3.461   3.456  0.0843 -0.5746 -1.3248
  735SOL     MW 2940   1.391   3.544   3.429 -0.0547 -0.1977 -0.1501
  736SOL     OW 2941   2.175   4.759   0.628  0.0644  0.2913  0.7040
  736SOL    HW1 2942   2.261   4.772   0.668 -0.3540 -0.7594  2.0189
  736SOL    HW2 2943   2.191   4.766   0.534  1.3568  1.3288  0.9567
  736SOL     MW 2944   2.188   4.762   0.621  0.1763  0.2896  0.9046
  737SOL     OW 2945   0.241  -0.011   1.839 -0.4731 -0.1036  0.3177
  737SOL    HW1 2946   0.238   0.085   1.845 -0.3387 -0.1012  0.3521
  737SOL    HW2 2947   0.327  -0.029   1.802 -0.2211 -0.2465  0.9642
  737SOL     MW 2948   0.251  -0.001   1.835 -0.4236 -0.1216  0.4048
  738SOL     OW 2949   2.566   0.878   4.271  0.1473 -0.2672  0.0450
  738SOL    HW1 2950   2.643   0.933   4.283 -0.7895  0.8574  1.2666
  738SOL    HW2 2951   2.598   0.799   4.228  2.1533 -0.2744  1.4622
  738SOL     MW 2952   2.580   0.875   4.267  0.2842 -0.1241  0.3828
  739SOL     OW 2953   1.391   4.504   1.664  0.0153 -0.2910  0.5125
  739SOL    HW1 2954   1.342   4.586   1.654 -1.4324 -0.9780  1.5411
  739SOL    HW2 2955   1.416   4.480   1.575  1.1302  1.6285  0.2549
  739SOL     MW 2956   1.388   4.511   1.652 -0.0273 -0.1332  0.6112
  740SOL     OW 2957   0.058   4.582   3.296 -0.3310 -0.1684 -0.0827
  740SOL    HW1 2958  -0.023   4.583   3.347  1.4092 -0.7295  2.9397
  740SOL    HW2 2959   0.108   4.658   3.328  2.0396 -2.1793  1.2923
  740SOL     MW 2960   0.054   4.592   3.306  0.1952 -0.4976  0.4802
  741SOL     OW 2961   5.158   3.195  -0.015  0.2717 -0.3309  0.0074
  741SOL    HW1 2962   5.209   3.145   0.048  1.6303 -1.2804 -1.7422
  741SOL    HW2 2963   5.156   3.284   0.021 -1.1473 -1.3141  2.5744
  741SOL     MW 2964   5.165   3.200  -0.002  0.2640 -0.5783  0.1120
  742SOL     OW 2965   3.499   2.795   4.615  0.2610  0.1169 -0.0272
  742SOL    HW1 2966   3.455   2.763   4.693  0.1154  1.6587  0.5576
  742SOL    HW2 2967   3.552   2.721   4.585  2.5157  0.2624  3.1159
  742SOL     MW 2968   3.500   2.781   4.621  0.5310  0.3329  0.4500
  743SOL     OW 2969   2.130   2.182   3.490 -0.4424  0.1161 -0.4960
  743SOL    HW1 2970   2.155   2.171   3.398  1.8680 -0.4025  0.1292
  743SOL    HW2 2971   2.173   2.264   3.517  2.1374 -1.5692  1.0171
  743SOL     MW 2972   2.139   2.191   3.481  0.1836 -0.1660 -0.2222
  744SOL     OW 2973   1.115   1.898   3.890  0.0595  0.4651  0.2291
  744SOL    HW1 2974   1.088   1.990   3.887 -0.1051  0.4366  0.7119
  744SOL    HW2 2975   1.161   1.889   3.974 -0.7010 -0.0979  0.5975
  744SOL     MW 2976   1.117   1.909   3.900 -0.0590  0.3893  0.3381
  745SOL     OW 2977   3.093   3.418   3.212 -0.5791 -0.4933  0.3065
  745SOL    HW1 2978   3.116   3.492   3.268 -1.2166 -0.1503  0.1084
  745SOL    HW2 2979   3.146   3.430   3.133 -3.1673  1.6792 -1.2505
  745SOL     MW 2980   3.103   3.429   3.209 -0.9920 -0.1713  0.0818
  746SOL     OW 2981   3.836   4.834   2.050 -0.2883  0.2053 -0.4222
  746SOL    HW1 2982   3.767   4.901   2.056  0.0728  0.5575 -0.0984
  746SOL    HW2 2983   3.877   4.835   2.137 -0.4168 -0.5971 -0.3430
  746SOL     MW 2984   3.832   4.843   2.062 -0.2585  0.1476 -0.3706
  747SOL     OW 2985   2.573   0.361   0.407  0.2465  0.3397  0.6434
  747SOL    HW1 2986   2.569   0.456   0.393 -0.5138 -0.0320 -2.3909
  747SOL    HW2 2987   2.664   0.338   0.389 -0.3755  0.0948 -3.0120
  747SOL     MW 2988   2.584   0.370   0.403  0.0695  0.2608 -0.2129
  748SOL     OW 2989   4.370   2.697   4.352  0.4093  0.8208 -0.1233
  748SOL    HW1 2990   4.333   2.610   4.333  0.4944  0.9930 -1.1343
  748SOL    HW2 2991   4.426   2.716   4.277 -1.6976  2.9074 -1.2945
  748SOL     MW 2992   4.372   2.688   4.340  0.1505  1.1099 -0.4026
  749SOL     OW 2993   3.310   0.477   5.160 -0.2942  0.0750  0.1212
  749SOL    HW1 2994   3.384   0.417   5.145 -1.0369 -1.4132  1.9391
  749SOL    HW2 2995   3.317   0.542   5.090  1.2424 -1.4772 -1.2676
  749SOL     MW 2996   3.321   0.477   5.149 -0.1925 -0.3142  0.1761
  750SOL     OW 2997   0.344   1.899   2.073  0.1108  0.0541  0.1796
  750SOL    HW1 2998   0.420   1.951   2.101  0.3267 -0.6398  0.9108
  750SOL    HW2 2999   0.353   1.893   1.978  1.5822 -0.9324  0.3459
  750SOL     MW 3000   0.355   1.905   2.064  0.3268 -0.1610  0.2945
  751SOL     OW 3001   0.873   0.332   2.458 -0.1401 -0.4131 -0.4066
  751SOL    HW1 3002   0.830   0.352   2.374  0.7520  1.0804 -0.5430
  751SOL    HW2 3003   0.927   0.255   2.440  1.1606  0.7265 -1.6338
  751SOL     MW 3004   0.874   0.325   2.445  0.1406 -0.0760 -0.5812
  752SOL     OW 3005   1.227   4.614   0.308  0.2617 -0.2806 -0.0399
  752SOL    HW1 3006   1.249   4.681   0.242  0.4388  0.7997  1.0768
  752SOL    HW2 3007   1.160   4.656   0.362 -0.3393 -1.3904  0.1073
  752SOL     MW 3008   1.221   4.628   0.306  0.2074 -0.2844  0.1219
  753SOL     OW 3009   1.548   5.473   0.770 -0.6038 -0.2857 -0.8215
  753SOL    HW1 3010   1.588   5.410   0.829  0.2523 -0.0077 -1.0847
  753SOL    HW2 3011   1.485   5.521   0.825  0.5459  0.3243  0.0135
  753SOL     MW 3012   1.545   5.471   0.785 -0.3470 -0.1720 -0.7483
  754SOL     OW 3013   0.475   0.906   2.054  0.0531 -0.6694 -0.0858
  754SOL    HW1 3014   0.545   0.948   2.004  0.7317  0.9610  2.0852
  754SOL    HW2 3015   0.462   0.822   2.010  0.7988  0.4998 -2.7563
  754SOL     MW 3016   0.483   0.901   2.042  0.2354 -0.3110 -0.1498
  755SOL     OW 3017   3.357   1.443   3.400 -0.3471  0.5649  0.4913
  755SOL    HW1 3018   3.338   1.511   3.336 -2.2647  0.8712  1.3109
  755SOL    HW2 3019   3.285   1.448   3.463 -0.0069 -1.5588  1.1425
  755SOL     MW 3020   3.346   1.452   3.400 -0.5491  0.3322  0.6795
  756SOL     OW 3021   2.528   4.217   4.796 -0.2312 -0.5637 -0.4471
  756SOL    HW1 3022   2.555   4.234   4.706 -1.8205  0.7550 -0.7430
  756SOL    HW2 3023   2.456   4.279   4.811 -1.2987 -2.0802  1.0852
  756SOL     MW 3024   2.522   4.227   4.786 -0.5713 -0.5890 -0.2888
  757SOL     OW 3025   4.973   0.063   4.974 -0.7627 -0.2888 -0.1958
  757SOL    HW1 3026   4.939   0.001   4.909 -2.8993  1.2181 -0.6048
  757SOL    HW2 3027   4.954   0.022   5.059  0.2984 -1.3743 -0.4471
  757SOL     MW 3028   4.967   0.050   4.977 -0.9004 -0.2349 -0.2803
  758SOL     OW 3029   1.929   3.519   5.363  0.3364 -0.3826  0.0612
  758SOL    HW1 3030   2.002   3.572   5.393  1.1172 -1.5351  0.2500
  758SOL    HW2 3031   1.951   3.497   5.272 -0.3395  0.2101 -0.2583
  758SOL     MW 3032   1.941   3.523   5.355  0.3499 -0.4543  0.0445
  759SOL     OW 3033   0.855   3.246   0.492  0.2454  0.0883 -0.2718
  759SOL    HW1 3034   0.812   3.164   0.518 -2.4622  1.5679  0.2116
  759SOL    HW2 3035   0.884   3.230   0.402  0.1543 -1.5140 -0.0436
  759SOL     MW 3036   0.853   3.233   0.483 -0.1129  0.0726 -0.1807
  760SOL     OW 3037   0.076   0.953   4.174 -0.3654  0.2831 -0.1881
  760SOL    HW1 3038   0.061   1.047   4.162 -1.7048  0.2206  0.8065
  760SOL    HW2 3039   0.113   0.924   4.091 -1.9525  1.3014 -1.2959
  760SOL     MW 3040   0.079   0.962   4.162 -0.7400  0.4054 -0.2026
  761SOL     OW 3041   3.674   3.583   3.506  0.0939 -0.1402  0.3330
  761SOL    HW1 3042   3.606   3.649   3.497  0.2357  0.2126  1.5779
  761SOL    HW2 3043   3.756   3.632   3.498  0.2781 -0.7389 -2.4117
  761SOL     MW 3044   3.676   3.598   3.504  0.1357 -0.1717  0.1410
  762SOL     OW 3045   3.646   0.906   3.637 -0.3887  0.8257  0.9846
  762SOL    HW1 3046   3.712   0.975   3.647  0.0344  0.5614  0.1127
  762SOL    HW2 3047   3.590   0.937   3.566 -0.3177  0.3684  0.7291
  762SOL     MW 3048   3.647   0.919   3.629 -0.3254  0.7333  0.8403
  763SOL     OW 3049   1.129   5.258   2.236  0.0795  0.3629  0.2488
  763SOL    HW1 3050   1.178   5.294   2.310  1.7946 -0.4673 -0.4356
  763SOL    HW2 3051   1.114   5.166   2.259  0.0056  0.2756 -0.1448
  763SOL     MW 3052   1.133   5.251   2.248  0.2896  0.2454  0.1108
  764SOL     OW 3053   4.947   3.063   5.110  0.0032 -0.5250  0.1343
  764SOL    HW1 3054   4.980   3.048   5.021 -0.3623  0.4118 -0.1732
  764SOL    HW2 3055   4.921   2.976   5.141  1.5880 -1.1038 -0.0648
  764SOL     MW 3056   4.948   3.050   5.102  0.1593 -0.4792  0.0694
  765SOL     OW 3057   5.299   2.497   2.302 -0.1579 -0.4989 -0.5379
  765SOL    HW1 3058   5.256   2.499   2.217  0.1521  0.9157 -0.6822
  765SOL    HW2 3059   5.391   2.513   2.283 -0.4299  2.6301  0.2134
  765SOL     MW 3060   5.305   2.499   2.289 -0.1530  0.0828 -0.4602
  766SOL     OW 3061   4.702   4.293   3.819  0.6352  0.5126 -0.1285
  766SOL    HW1 3062   4.751   4.262   3.895 -0.5927 -0.4184  0.3259
  766SOL    HW2 3063   4.763   4.349   3.772  2.0115 -0.3422  0.5771
  766SOL     MW 3064   4.716   4.296   3.823  0.6542  0.2840  0.0200
  767SOL     OW 3065   3.151   3.688   0.108  0.3203  0.1132  0.0696
  767SOL    HW1 3066   3.180   3.705   0.198  1.2867 -0.5834 -0.1033
  767SOL    HW2 3067   3.124   3.596   0.108  0.8623 -0.0522 -0.4888
  767SOL     MW 3068   3.151   3.679   0.120  0.5134  0.0028 -0.0240
  768SOL     OW 3069   2.442   3.334   1.451 -0.1356 -0.4563  0.2484
  768SOL    HW1 3070   2.395   3.411   1.418 -0.2309 -0.2541  0.8383
  768SOL    HW2 3071   2.532   3.347   1.422  0.7136  1.7362  3.2646
  768SOL     MW 3072   2.448   3.346   1.443 -0.0391 -0.1497  0.7100
  769SOL     OW 3073   1.205   1.763   3.663  0.0840 -0.1600  0.8159
  769SOL    HW1 3074   1.273   1.827   3.642  0.3689 -0.1959  1.5876
  769SOL    HW2 3075   1.159   1.800   3.739 -0.4545 -0.3592  0.5945
  769SOL     MW 3076   1.208   1.776   3.670  0.0515 -0.1901  0.8863
  770SOL     OW 3077   5.061   2.270   2.784  0.6607 -0.1527  0.2418
  770SOL    HW1 3078   4.996   2.337   2.763  0.5940 -0.1873  0.3342
  770SOL    HW2 3079   5.052   2.205   2.714 -0.1089 -0.6599  0.7917
  770SOL     MW 3080   5.052   2.270   2.773  0.5537 -0.2221  0.3240
  771SOL     OW 3081   0.489   3.116   4.908 -0.7567  0.2146 -0.1267
  771SOL    HW1 3082   0.424   3.077   4.849 -0.6064  0.8605 -0.7331
  771SOL    HW2 3083   0.459   3.206   4.920 -1.1712 -0.0839  1.3672
  771SOL     MW 3084   0.477   3.123   4.902 -0.7905  0.2590 -0.0131
  772SOL     OW 3085   5.210   3.857   0.177 -0.0502 -0.3251 -0.2401
  772SOL    HW1 3086   5.157   3.790   0.134  0.5415 -0.0537 -1.4139
  772SOL    HW2 3087   5.274   3.883   0.111 -0.4818  1.6514  0.0816
  772SOL     MW 3088   5.211   3.851   0.163 -0.0297 -0.0374 -0.3492
  773SOL     OW 3089   2.408   0.489   5.366  0.4420 -0.1543 -0.4028
  773SOL    HW1 3090   2.467   0.481   5.441 -0.7465  0.5433  0.6420
  773SOL    HW2 3091   2.447   0.433   5.299  1.7185 -0.5282  0.6145
  773SOL     MW 3092   2.421   0.481   5.367  0.4532 -0.1129 -0.1389
  774SOL     OW 3093   2.175   1.932   5.244 -0.1557  0.2424  0.1349
  774SOL    HW1 3094   2.237   1.932   5.316 -0.0221 -1.5110  0.0443
  774SOL    HW2 3095   2.229   1.928   5.165 -0.3606 -0.8550  0.0410
  774SOL     MW 3096   2.190   1.932   5.243 -0.1648 -0.1226  0.1113
  775SOL     OW 3097   3.233   2.364   3.799  0.2566  0.2189  0.5356
  775SOL    HW1 3098   3.238   2.438   3.738  0.7417 -0.3901 -0.1800
  775SOL    HW2 3099   3.280   2.293   3.754 -1.7646 -1.1064  0.3859
  775SOL     MW 3100   3.240   2.364   3.785  0.0599 -0.0287  0.4248
  776SOL     OW 3101   2.804   3.109   4.466 -0.0870 -0.6091 -0.1628
  776SOL    HW1 3102   2.891   3.114   4.506 -0.1563 -0.1098 -0.0739
  776SOL    HW2 3103   2.750   3.168   4.518 -0.8699 -2.0836  0.7345
  776SOL     MW 3104   2.809   3.117   4.478 -0.1961 -0.7339 -0.0366
  777SOL     OW 3105   1.667   2.900   3.237 -0.1923 -0.1033  0.2737
  777SOL    HW1 3106   1.652   2.980   3.286 -0.0521  0.3205 -0.3611
  777SOL    HW2 3107   1.672   2.928   3.145  1.7926 -0.5568  0.1895
  777SOL     MW 3108   1.666   2.914   3.231  0.0798 -0.1071  0.1817
  778SOL     OW 3109   4.493   4.461   2.899 -0.1662  0.4527  0.1867
  778SOL    HW1 3110   4.494   4.409   2.980 -0.6531  2.6602  1.6896
  778SOL    HW2 3111   4.420   4.424   2.849 -0.0368 -0.7893  0.8575
  778SOL     MW 3112   4.484   4.450   2.903 -0.2119  0.5763  0.4649
  779SOL     OW 3113   0.967   4.549   2.828  0.3649  0.0591 -0.4371
  779SOL    HW1 3114   1.055   4.587   2.831 -0.1589  1.4506 -1.6212
  779SOL    HW2 3115   0.949   4.526   2.919  1.7741  0.1682 -0.0992
  779SOL     MW 3116   0.976   4.551   2.840  0.4782  0.2512 -0.5454
  780SOL     OW 3117   1.478   0.369   5.153  0.3510  0.0055 -0.4105
  780SOL    HW1 3118   1.542   0.411   5.096  1.3752  0.1534  0.7890
  780SOL    HW2 3119   1.393   0.391   5.115  0.9905  0.1342 -1.8189
  780SOL     MW 3120   1.475   0.377   5.141  0.5639  0.0409 -0.4373
  781SOL     OW 3121   4.861   1.815   3.773  0.5387 -1.0417 -0.5107
  781SOL    HW1 3122   4.837   1.908   3.768  2.9803 -0.2390  0.8866
  781SOL    HW2 3123   4.869   1.788   3.682 -2.7760 -0.6958 -1.0064
  781SOL     MW 3124   4.859   1.824   3.761  0.4269 -0.8946 -0.3953
  782SOL     OW 3125   3.782   3.023   3.179  0.2363  0.0556 -0.2861
  782SOL    HW1 3126   3.870   3.000   3.209  0.3468 -1.0053 -1.3321
  782SOL    HW2 3127   3.790   3.028   3.084 -0.7647  0.2776 -0.3668
  782SOL     MW 3128   3.794   3.021   3.171  0.1223 -0.0518 -0.4303
  783SOL     OW 3129   3.933   5.013   2.914  0.1423 -0.1066  0.3282
  783SOL    HW1 3130   4.006   4.998   2.973  0.6578 -2.0255 -0.7067
  783SOL    HW2 3131   3.953   5.097   2.871  0.9837  0.0900  1.0855
  783SOL     MW 3132   3.945   5.022   2.916  0.3160 -0.3271  0.2926
  784SOL     OW 3133   2.093   2.264   0.388 -0.3481 -0.5552  0.0580
  784SOL    HW1 3134   2.073   2.227   0.302 -0.0425 -0.9069  0.1372
  784SOL    HW2 3135   2.037   2.342   0.394 -1.1900 -1.1334 -0.0109
  784SOL     MW 3136   2.083   2.269   0.378 -0.4167 -0.6742  0.0593
  785SOL     OW 3137   0.643   2.250   2.103 -0.0287  0.0025 -0.0592
  785SOL    HW1 3138   0.587   2.173   2.110 -1.2531  0.8293 -0.5165
  785SOL    HW2 3139   0.652   2.281   2.193 -0.8651  0.2439 -0.0512
  785SOL     MW 3140   0.637   2.244   2.115 -0.2925  0.1392 -0.1167
  786SOL     OW 3141   5.052   4.499   4.483 -0.1250  0.1542 -0.2711
  786SOL    HW1 3142   5.000   4.559   4.536 -0.8663 -0.4115 -0.3429
  786SOL    HW2 3143   5.041   4.414   4.525 -1.3649 -0.4630 -1.7525
  786SOL     MW 3144   5.044   4.496   4.495 -0.3786  0.0028 -0.4699
  787SOL     OW 3145   1.728   3.322   2.947  0.2344  0.4046 -0.1176
  787SOL    HW1 3146   1.751   3.366   3.029  0.0659  0.7259 -0.2410
  787SOL    HW2 3147   1.705   3.233   2.973 -0.5456  0.7149  0.2753
  787SOL     MW 3148   1.728   3.316   2.961  0.1130  0.4854 -0.0831
  788SOL     OW 3149   0.295   1.345   1.961  0.5058 -0.0782  0.3777
  788SOL    HW1 3150   0.274   1.267   1.909 -1.1726 -0.1005  1.0449
  788SOL    HW2 3151   0.290   1.315   2.052 -3.0594  1.3423  0.8216
  788SOL     MW 3152   0.292   1.331   1.966 -0.1654  0.1008  0.5199
  789SOL     OW 3153   1.195   2.941   0.372  0.3751 -0.2028 -1.1711
  789SOL    HW1 3154   1.242   2.962   0.291  2.5995 -3.2144 -0.8270
  789SOL    HW2 3155   1.258   2.892   0.424 -1.1338  1.2042  2.2712
  789SOL     MW 3156   1.209   2.937   0.368  0.4667 -0.4082 -0.6864
  790SOL     OW 3157   1.016   3.945   5.206  0.1207 -0.6309  0.2577
  790SOL    HW1 3158   0.987   3.915   5.120  0.7205 -1.3873  0.3093
  790SOL    HW2 3159   1.066   4.025   5.188  1.2108 -1.3983 -0.2282
  790SOL     MW 3160   1.019   3.951   5.193  0.3370 -0.8260  0.2021
  791SOL     OW 3161   0.489   2.388   0.382  0.1074 -0.1999  0.3784
  791SOL    HW1 3162   0.430   2.344   0.321 -0.7707 -1.3310  1.9685
  791SOL    HW2 3163   0.430   2.436   0.441  0.9606  1.3209  0.0535
  791SOL     MW 3164   0.474   2.389   0.382  0.1042 -0.1500  0.5403
  792SOL     OW 3165   0.967   3.651   2.657  0.6126 -0.0083  0.7725
  792SOL    HW1 3166   1.031   3.678   2.722 -1.0227  1.6661  1.7720
  792SOL    HW2 3167   0.941   3.732   2.613  0.2350 -0.8483 -0.6160
  792SOL     MW 3168   0.972   3.664   2.660  0.3549  0.0985  0.7227
  793SOL     OW 3169   1.319   4.230   3.208  0.4807  0.4985 -0.0032
  793SOL    HW1 3170   1.382   4.213   3.278  1.9120 -0.2773 -1.4203
  793SOL    HW2 3171   1.314   4.326   3.203  1.8368  0.5839 -0.0834
  793SOL     MW 3172   1.326   4.240   3.216  0.8375  0.4102 -0.1949
  794SOL     OW 3173   3.204   1.109   2.256  0.0553 -0.8396 -0.1143
  794SOL    HW1 3174   3.170   1.154   2.178 -1.2024 -0.5923  0.5383
  794SOL    HW2 3175   3.299   1.110   2.245  0.0614  1.5579 -0.3804
  794SOL     MW 3176   3.212   1.115   2.245 -0.1049 -0.5010 -0.0648
  795SOL     OW 3177   2.942   1.838   4.703  0.1220  0.1266  0.3406
  795SOL    HW1 3178   2.886   1.766   4.731 -0.4784  0.5629  0.2741
  795SOL    HW2 3179   2.945   1.898   4.777 -1.0823  1.0459 -0.3086
  795SOL     MW 3180   2.935   1.836   4.716 -0.1090  0.3001  0.2490
  796SOL     OW 3181   5.299   1.912   0.207  0.3339  0.4820 -0.5304
  796SOL    HW1 3182   5.305   1.913   0.302 -0.6876 -0.0148 -0.4463
  796SOL    HW2 3183   5.243   1.987   0.186  0.8535  0.8100 -0.7736
  796SOL     MW 3184   5.292   1.922   0.216  0.2696  0.4604 -0.5507
  797SOL     OW 3185   3.432   5.248   5.442 -0.1974  0.1212  0.2374
  797SOL    HW1 3186   3.392   5.164   5.466  1.1382 -0.4928  0.3779
  797SOL    HW2 3187   3.357   5.304   5.420 -1.1494 -0.8971  0.7717
  797SOL     MW 3188   3.417   5.245   5.442 -0.1483 -0.0877  0.3238
  798SOL     OW 3189   2.307   4.358   4.771  0.3951  0.1219  0.0310
  798SOL    HW1 3190   2.293   4.445   4.735  0.3581 -0.1034 -0.5094
  798SOL    HW2 3191   2.229   4.339   4.823  0.7192  0.6979  0.7351
  798SOL     MW 3192   2.296   4.366   4.773  0.4319  0.1668  0.0519
  799SOL     OW 3193   3.759   2.783   0.928  0.2226 -0.2933  0.0610
  799SOL    HW1 3194   3.784   2.858   0.982  1.5745  0.4935 -1.5679
  799SOL    HW2 3195   3.800   2.708   0.972  1.3433  0.3316  0.1251
  799SOL     MW 3196   3.768   2.783   0.941  0.5391 -0.1126 -0.1393
  800SOL     OW 3197   1.204   4.830   0.739  0.0584  0.6365  0.7272
  800SOL    HW1 3198   1.238   4.750   0.779 -1.3546  0.3825  1.4687
  800SOL    HW2 3199   1.182   4.887   0.812 -0.4566  1.0689  0.2453
  800SOL     MW 3200   1.206   4.827   0.753 -0.1884  0.6593  0.7604
  801SOL     OW 3201   0.078   4.038   0.308  0.1168  0.4590 -0.0026
  801SOL    HW1 3202   0.105   4.007   0.222 -0.1291  0.6020 -0.1348
  801SOL    HW2 3203   0.153   4.088   0.341  0.5700 -0.3850  0.2794
  801SOL     MW 3204   0.091   4.041   0.302  0.1434  0.3693  0.0166
  802SOL     OW 3205   1.371   2.061   0.022 -0.2269  0.3365 -0.1979
  802SOL    HW1 3206   1.350   1.972   0.049  0.0967  0.4755  0.5168
  802SOL    HW2 3207   1.465   2.070   0.038  0.0080  0.3971 -1.4519
  802SOL     MW 3208   1.380   2.051   0.027 -0.1554  0.3621 -0.2669
  803SOL     OW 3209   0.189   2.329   1.667 -0.0430 -0.3752  0.2901
  803SOL    HW1 3210   0.095   2.342   1.679 -0.7895 -3.8369 -0.7890
  803SOL    HW2 3211   0.227   2.352   1.752 -2.2180 -1.3118  1.6137
  803SOL     MW 3212   0.182   2.333   1.679 -0.4170 -0.9383  0.3214
  804SOL     OW 3213   0.636   0.872   3.968 -0.1470 -0.1465  0.4164
  804SOL    HW1 3214   0.674   0.802   3.915  0.2435 -0.0031  0.4997
  804SOL    HW2 3215   0.560   0.832   4.010 -0.8957 -0.0760 -0.7963
  804SOL     MW 3216   0.631   0.858   3.966 -0.1928 -0.1191  0.2718
  805SOL     OW 3217   2.155   2.864   2.342 -0.3449  0.0899  0.2951
  805SOL    HW1 3218   2.132   2.926   2.411 -0.8815 -0.3291  0.4996
  805SOL    HW2 3219   2.109   2.784   2.366 -0.6969 -0.0011 -0.6578
  805SOL     MW 3220   2.146   2.862   2.354 -0.4586  0.0246  0.1993
  806SOL     OW 3221   3.491   5.451   3.851 -0.1637 -0.3284 -0.4211
  806SOL    HW1 3222   3.449   5.460   3.936  0.2255 -0.4030 -0.2191
  806SOL    HW2 3223   3.476   5.534   3.807 -1.4044 -0.7077 -0.7547
  806SOL     MW 3224   3.484   5.462   3.856 -0.2727 -0.3865 -0.4379
  807SOL     OW 3225   3.589   4.978   4.151  0.1500 -0.0088 -0.1164
  807SOL    HW1 3226   3.511   4.942   4.107  0.5866 -0.8282 -0.2477
  807SOL    HW2 3227   3.581   5.072   4.141 -1.4050 -0.0014  0.8250
  807SOL     MW 3228   3.578   4.985   4.144  0.0069 -0.1127 -0.0127
  808SOL     OW 3229   3.784   3.128   4.127 -0.3359 -0.1464  0.1264
  808SOL    HW1 3230   3.847   3.056   4.123 -0.4564 -0.2974  0.8170
  808SOL    HW2 3231   3.803   3.172   4.210 -0.4503  0.4490 -0.1579
  808SOL     MW 3232   3.794   3.124   4.137 -0.3659 -0.0896  0.1784
  809SOL     OW 3233   3.205   2.173   3.422 -0.4617 -0.5242 -0.0537
  809SOL    HW1 3234   3.176   2.157   3.333  0.2735 -1.2662 -0.1775
  809SOL    HW2 3235   3.292   2.211   3.412 -0.6429 -0.0048  0.3339
  809SOL     MW 3236   3.213   2.175   3.410 -0.3908 -0.5527 -0.0199
  810SOL     OW 3237   2.590   1.945   0.302  0.1646  0.4387  0.1207
  810SOL    HW1 3238   2.494   1.938   0.299  0.2907 -1.7066 -1.7234
  810SOL    HW2 3239   2.608   2.036   0.282 -1.4932  0.7940  0.0932
  810SOL     MW 3240   2.580   1.955   0.299 -0.0315  0.2096 -0.1189
  811SOL     OW 3241   5.052   3.591   4.564 -0.0642  0.3024 -0.0534
  811SOL    HW1 3242   5.068   3.682   4.589 -1.1503  0.5804 -0.3348
  811SOL    HW2 3243   4.957   3.581   4.565  0.0447 -0.9914  0.5033
  811SOL     MW 3244   5.042   3.601   4.567 -0.1893  0.1723 -0.0181
  812SOL     OW 3245   1.987   1.451   0.845  0.5272  0.2683  0.3368
  812SOL    HW1 3246   1.986   1.545   0.827  0.1307 -0.1130 -2.0833
  812SOL    HW2 3247   1.896   1.429   0.864  0.2532  0.1175 -1.0190
  812SOL     MW 3248   1.975   1.460   0.845  0.4413  0.2002 -0.1466
  813SOL     OW 3249   5.226   1.553   2.500 -0.0119 -0.2118 -0.3967
  813SOL    HW1 3250   5.316   1.586   2.506 -0.2711  0.3967  0.2558
  813SOL    HW2 3251   5.201   1.535   2.591 -1.3053  1.7071 -0.3135
  813SOL     MW 3252   5.234   1.555   2.512 -0.2107  0.1117 -0.3025
  814SOL     OW 3253   1.425   0.562   4.462 -0.0444 -0.6738 -0.9477
  814SOL    HW1 3254   1.374   0.641   4.477  0.0905 -0.8041  0.3716
  814SOL    HW2 3255   1.514   0.594   4.444 -0.1285 -0.4997 -1.0493
  814SOL     MW 3256   1.430   0.576   4.462 -0.0379 -0.6682 -0.7918
  815SOL     OW 3257   2.365   4.614   3.049  0.5424 -0.5555 -0.0520
  815SOL    HW1 3258   2.371   4.583   2.959  1.6237 -0.5676 -0.0006
  815SOL    HW2 3259   2.341   4.706   3.041 -0.9366 -0.9480 -0.2753
  815SOL     MW 3260   2.363   4.622   3.037  0.4915 -0.6073 -0.0740
  816SOL     OW 3261   3.603   1.270   3.618 -0.3695 -0.0942 -0.6787
  816SOL    HW1 3262   3.569   1.217   3.546 -0.8873 -0.5941 -0.0848
  816SOL    HW2 3263   3.611   1.358   3.581  0.4866 -0.5698 -1.6737
  816SOL     MW 3264   3.599   1.274   3.604 -0.3262 -0.2191 -0.7300
  817SOL     OW 3265   3.790   2.766   5.188  0.2991 -0.4049 -0.5284
  817SOL    HW1 3266   3.697   2.752   5.205 -0.1987  2.2672 -0.7264
  817SOL    HW2 3267   3.821   2.817   5.263  0.9443  1.0706 -1.7660
  817SOL     MW 3268   3.782   2.770   5.200  0.3180  0.1260 -0.7122
  818SOL     OW 3269   1.818   0.994   2.591 -0.1875 -0.5167  0.1466
  818SOL    HW1 3270   1.872   0.925   2.630  0.8829 -0.5371 -1.2972
  818SOL    HW2 3271   1.728   0.963   2.601  0.0756 -0.8236  1.9497
  818SOL     MW 3272   1.814   0.981   2.598 -0.0168 -0.5586  0.1926
  819SOL     OW 3273   2.844   1.176   4.762 -0.1288  0.1582 -0.2029
  819SOL    HW1 3274   2.798   1.217   4.835  0.5732  0.0762  0.2949
  819SOL    HW2 3275   2.842   1.082   4.782  3.1235  0.3263  1.6093
  819SOL     MW 3276   2.838   1.169   4.773  0.3774  0.1692  0.0928
  820SOL     OW 3277   0.818   5.353   0.494 -0.3131 -0.0793 -0.6784
  820SOL    HW1 3278   0.771   5.270   0.498  0.2720 -0.3999 -0.2651
  820SOL    HW2 3279   0.750   5.419   0.484 -0.7405 -0.6644 -1.7531
  820SOL     MW 3280   0.803   5.351   0.493 -0.2929 -0.1952 -0.7631
  821SOL     OW 3281   2.701   3.373   2.156 -0.8189  0.5275 -0.0874
  821SOL    HW1 3282   2.788   3.372   2.195 -0.5276  1.3175 -0.6942
  821SOL    HW2 3283   2.708   3.312   2.082 -1.4136 -1.0882  1.1184
  821SOL     MW 3284   2.713   3.365   2.151 -0.8577  0.4218 -0.0107
  822SOL     OW 3285   1.488   3.352   2.533  0.4883 -0.0427  0.1965
  822SOL    HW1 3286   1.503   3.258   2.541  1.0072 -0.1990 -1.9299
  822SOL    HW2 3287   1.548   3.392   2.596  1.6983 -1.0827 -0.2522
  822SOL     MW 3288   1.497   3.345   2.542  0.7096 -0.1959 -0.1331
  823SOL     OW 3289   1.996   0.685   4.791  0.0656  0.3202  0.0264
  823SOL    HW1 3290   2.014   0.593   4.811  0.4977  0.3502 -0.2259
  823SOL    HW2 3291   2.044   0.734   4.858  0.3970  0.3803 -0.2537
  823SOL     MW 3292   2.004   0.679   4.803  0.1633  0.3317 -0.0417
  824SOL     OW 3293   3.654   4.314   5.335 -0.5200  0.6156 -0.0053
  824SOL    HW1 3294   3.707   4.384   5.374 -0.0754 -0.3053  1.0745
  824SOL    HW2 3295   3.714   4.271   5.274 -0.9592  1.4934 -1.1072
  824SOL     MW 3296   3.669   4.318   5.332 -0.5193  0.6101 -0.0082
  825SOL     OW 3297   2.525   2.065   5.456  0.2830  1.1142 -0.0319
  825SOL    HW1 3298   2.441   2.022   5.473  0.5557  0.5509 -0.0730
  825SOL    HW2 3299   2.520   2.148   5.503 -0.1341  0.8942  0.3146
  825SOL     MW 3300   2.514   2.070   5.464  0.2645  1.0139  0.0072
  826SOL     OW 3301   1.545   2.682   2.321  0.6413 -0.6974 -0.6266
  826SOL    HW1 3302   1.630   2.722   2.335 -0.2384  1.9355 -2.0924
  826SOL    HW2 3303   1.482   2.753   2.334 -1.3574 -2.5229  0.3062
  826SOL     MW 3304   1.548   2.696   2.324  0.2728 -0.5940 -0.6948
  827SOL     OW 3305   3.916   2.005   3.439 -0.5294  0.3787 -0.0273
  827SOL    HW1 3306   3.872   2.001   3.524  0.5240  1.7782  0.6067
  827SOL    HW2 3307   4.004   1.972   3.456 -0.0170  1.5487 -0.3610
  827SOL     MW 3308   3.921   2.000   3.452 -0.3289  0.7076  0.0112
  828SOL     OW 3309   3.088   1.319   3.448  0.1974 -0.4729  0.4991
  828SOL    HW1 3310   3.072   1.410   3.473 -2.1126 -0.6057 -0.2258
  828SOL    HW2 3311   3.025   1.269   3.501  1.1635 -1.6307  0.6011
  828SOL     MW 3312   3.078   1.324   3.458  0.0254 -0.6381  0.4194
  829SOL     OW 3313   4.894   5.434   3.243  0.0694  0.0138 -0.5306
  829SOL    HW1 3314   4.938   5.376   3.180  0.0203 -1.4477  0.7155
  829SOL    HW2 3315   4.957   5.505   3.258  0.1644  0.3019 -2.0443
  829SOL     MW 3316   4.908   5.435   3.237  0.0753 -0.1364 -0.5648
  830SOL     OW 3317   0.623   4.832   1.955 -0.3872 -1.3670 -0.4391
  830SOL    HW1 3318   0.690   4.767   1.933 -0.8103 -1.3163 -1.9350
  830SOL    HW2 3319   0.600   4.873   1.872  1.0172  1.9006  0.5928
  830SOL     MW 3320   0.629   4.829   1.942 -0.2616 -0.9422 -0.4985
  831SOL     OW 3321   3.643   0.292   1.785  0.1770 -0.7617 -0.5327
  831SOL    HW1 3322   3.571   0.285   1.723 -0.0910  0.0775 -0.3417
  831SOL    HW2 3323   3.603   0.273   1.870 -0.5161  2.3358 -0.0379
  831SOL     MW 3324   3.628   0.289   1.788  0.0540 -0.2577 -0.4449
  832SOL     OW 3325   3.555   3.120   1.571  0.6783 -0.0178 -0.1960
  832SOL    HW1 3326   3.569   3.089   1.482 -2.6546 -1.2966 -0.4308
  832SOL    HW2 3327   3.568   3.043   1.626 -1.2646 -0.3378 -0.0967
  832SOL     MW 3328   3.558   3.107   1.566  0.0030 -0.2225 -0.2133
  833SOL     OW 3329   0.325   1.128   1.532  0.2009  0.6532  0.2962
  833SOL    HW1 3330   0.324   1.140   1.627  1.0150  0.5594  0.3210
  833SOL    HW2 3331   0.308   1.035   1.519 -2.2205  1.0341  0.2450
  833SOL     MW 3332   0.323   1.118   1.542 -0.0048  0.6899  0.2928
  834SOL     OW 3333   1.061   1.945   3.224 -0.1829  0.3542  0.5680
  834SOL    HW1 3334   1.008   1.978   3.151 -0.3243  1.0380  0.9744
  834SOL    HW2 3335   1.131   1.895   3.182 -0.5277  0.3547 -0.0184
  834SOL     MW 3336   1.063   1.943   3.209 -0.2451  0.4418  0.5450
  835SOL     OW 3337   0.545   4.552   0.310  0.0046 -0.0654 -0.1220
  835SOL    HW1 3338   0.533   4.500   0.230  0.1332 -0.8263  0.3459
  835SOL    HW2 3339   0.630   4.596   0.297  0.4812 -0.9331 -0.0029
  835SOL     MW 3340   0.554   4.551   0.298  0.0821 -0.2739 -0.0468
  836SOL     OW 3341   2.067   4.526   0.075  0.1527 -0.3332  0.0017
  836SOL    HW1 3342   2.155   4.501   0.047 -0.8052 -1.9742 -1.7674
  836SOL    HW2 3343   2.068   4.519   0.170  1.8870 -0.4119 -0.0007
  836SOL     MW 3344   2.078   4.522   0.084  0.2521 -0.5533 -0.2251
  837SOL     OW 3345   2.315   2.643   2.619  0.2385 -0.1282 -0.3241
  837SOL    HW1 3346   2.261   2.578   2.574  1.0451  0.1677 -1.7890
  837SOL    HW2 3347   2.360   2.593   2.687 -1.7477 -0.3992  0.8700
  837SOL     MW 3348   2.314   2.628   2.622  0.0875 -0.1250 -0.3587
  838SOL     OW 3349   5.199   1.180   4.109 -0.3419  0.2953  0.0065
  838SOL    HW1 3350   5.290   1.210   4.098 -0.2286 -0.1060 -0.1387
  838SOL    HW2 3351   5.206   1.101   4.162 -0.7314  1.1401  1.3661
  838SOL     MW 3352   5.212   1.174   4.114 -0.3772  0.3521  0.1619
  839SOL     OW 3353   5.075   5.394   3.621  0.3199  0.1419 -0.4403
  839SOL    HW1 3354   5.138   5.412   3.691  1.4079  0.1465 -1.3941
  839SOL    HW2 3355   5.124   5.408   3.540 -0.4950 -1.2458 -1.2213
  839SOL     MW 3356   5.090   5.398   3.620  0.3549 -0.0351 -0.6624
  840SOL     OW 3357   3.454   5.378   2.608 -0.6491 -0.5275 -0.3997
  840SOL    HW1 3358   3.383   5.442   2.601 -0.5086 -0.1325  1.2582
  840SOL    HW2 3359   3.510   5.412   2.678  0.9699 -1.0413 -1.3967
  840SOL     MW 3360   3.452   5.390   2.616 -0.4238 -0.5427 -0.3151
  841SOL     OW 3361   2.443   3.388   3.283 -0.0799  0.4281  0.7342
  841SOL    HW1 3362   2.349   3.406   3.283 -0.2124 -0.2412  0.7157
  841SOL    HW2 3363   2.455   3.319   3.218  0.2631 -0.2488  1.4877
  841SOL     MW 3364   2.433   3.381   3.275 -0.0530  0.2558  0.8283
  842SOL     OW 3365   2.902   4.151   1.266 -0.3466  0.7266 -0.0945
  842SOL    HW1 3366   2.855   4.125   1.345 -0.3728  0.9525 -0.0370
  842SOL    HW2 3367   2.942   4.070   1.235 -0.4186  0.6176  0.0938
  842SOL     MW 3368   2.901   4.137   1.272 -0.3592  0.7415 -0.0631
  843SOL     OW 3369   3.270   5.472   5.372  0.0719  0.2987  0.2026
  843SOL    HW1 3370   3.207   5.475   5.300  0.3994  0.5023 -0.0805
  843SOL    HW2 3371   3.355   5.479   5.329  0.2938 -0.1258  0.5691
  843SOL     MW 3372   3.273   5.473   5.357  0.1422  0.2704  0.2132
  844SOL     OW 3373   1.923   0.831   1.116 -0.3465 -0.1578 -0.0684
  844SOL    HW1 3374   1.997   0.861   1.168  0.7418 -3.4289  0.4899
  844SOL    HW2 3375   1.958   0.760   1.063 -1.8798  1.6696 -3.9133
  844SOL     MW 3376   1.937   0.826   1.116 -0.4035 -0.3426 -0.4891
  845SOL     OW 3377   4.975   3.549   3.975  0.3965 -0.0155  0.0347
  845SOL    HW1 3378   4.953   3.590   4.059 -2.2281  0.9472 -1.0047
  845SOL    HW2 3379   4.993   3.623   3.917 -0.3453 -0.5059 -0.8561
  845SOL     MW 3380   4.974   3.564   3.978 -0.0345  0.0449 -0.2124
  846SOL     OW 3381   4.411   3.273   3.399 -0.0457  0.0903  0.4988
  846SOL    HW1 3382   4.351   3.284   3.325 -0.5896  1.6437  1.1167
  846SOL    HW2 3383   4.358   3.298   3.475  1.6403  2.6731  0.9523
  846SOL     MW 3384   4.396   3.278   3.399  0.1005  0.6198  0.6360
  847SOL     OW 3385   1.259   3.842   0.149  0.5011 -0.3481  0.1420
  847SOL    HW1 3386   1.219   3.929   0.141  0.6763  0.3213  4.1468
  847SOL    HW2 3387   1.315   3.835   0.073  0.0058  2.8223 -0.6854
  847SOL     MW 3388   1.261   3.853   0.138  0.4601  0.1434  0.5487
  848SOL     OW 3389   0.096   0.745   4.353 -0.1039 -0.0363 -0.3781
  848SOL    HW1 3390   0.119   0.816   4.293  0.4264  1.0060  0.9941
  848SOL    HW2 3391   0.177   0.728   4.402 -1.0291  0.6531  1.4968
  848SOL     MW 3392   0.109   0.752   4.352 -0.1544  0.1854  0.0376
  849SOL     OW 3393   2.135   4.226   3.534  0.0469  0.3511 -0.2769
  849SOL    HW1 3394   2.177   4.144   3.510 -0.4833  0.0293 -0.1407
  849SOL    HW2 3395   2.205   4.281   3.570  0.8649  0.8316 -2.4665
  849SOL     MW 3396   2.149   4.223   3.535  0.0837  0.3714 -0.5398
  850SOL     OW 3397   2.061   0.969   3.658  0.0081  0.9179  0.4930
  850SOL    HW1 3398   2.124   1.006   3.720 -0.7995  0.8022  1.4111
  850SOL    HW2 3399   2.004   0.914   3.712  0.5934 -0.9398 -0.6810
  850SOL     MW 3400   2.062   0.967   3.673 -0.0204  0.6653  0.4602
  851SOL     OW 3401   3.906   1.245   3.459 -0.4958 -0.1517  0.7344
  851SOL    HW1 3402   3.977   1.307   3.441 -0.7644 -0.0295  0.0813
  851SOL    HW2 3403   3.828   1.285   3.422 -0.4181 -1.5526 -1.1151
  851SOL     MW 3404   3.905   1.258   3.452 -0.5202 -0.3154  0.4140
  852SOL     OW 3405   0.974   5.214   5.419  0.0535  0.9359 -0.3110
  852SOL    HW1 3406   1.025   5.285   5.380 -0.1292  0.6809 -1.0191
  852SOL    HW2 3407   1.008   5.135   5.378  1.0543  0.4798  1.3186
  852SOL     MW 3408   0.985   5.213   5.409  0.1582  0.8449 -0.1931
  853SOL     OW 3409   0.524   1.917   5.302 -0.6205  0.5472 -0.0556
  853SOL    HW1 3410   0.525   1.992   5.242 -0.8111  0.5703 -0.0304
  853SOL    HW2 3411   0.440   1.874   5.286 -0.9552  0.9166  0.6374
  853SOL     MW 3412   0.514   1.921   5.292 -0.6878  0.5974  0.0364
  854SOL     OW 3413   3.648   2.047   0.794  0.4318  0.1289 -0.8673
  854SOL    HW1 3414   3.733   2.004   0.801  0.7313  0.9608  1.8116
  854SOL    HW2 3415   3.584   1.979   0.818  0.3681 -0.3369 -2.3068
  854SOL     MW 3416   3.650   2.033   0.798  0.4619  0.1757 -0.7087
  855SOL     OW 3417   4.152   2.019   0.557  0.2831  0.2981 -0.2092
  855SOL    HW1 3418   4.172   2.076   0.631 -1.5216  1.4880 -0.5811
  855SOL    HW2 3419   4.062   2.041   0.534  0.5058 -0.7028 -2.1899
  855SOL     MW 3420   4.143   2.029   0.564  0.0806  0.3223 -0.5104
  856SOL     OW 3421   3.989   3.672   0.755  0.6608 -0.2632 -0.5058
  856SOL    HW1 3422   3.905   3.648   0.715  0.7490  0.9572 -1.4829
  856SOL    HW2 3423   4.044   3.594   0.744 -0.2810 -1.0126 -0.0034
  856SOL     MW 3424   3.986   3.659   0.748  0.5515 -0.2029 -0.5665
  857SOL     OW 3425   1.051   4.931   5.315  0.4490  0.1213 -1.0033
  857SOL    HW1 3426   1.001   4.940   5.234  0.2988  0.8440 -0.8316
  857SOL    HW2 3427   1.027   4.844   5.348 -0.7574  0.4763 -0.8865
  857SOL     MW 3428   1.042   4.921   5.309  0.2753  0.2593 -0.9664
  858SOL     OW 3429   5.071   1.417   2.901 -0.0585  0.6403 -0.5266
  858SOL    HW1 3430   5.073   1.506   2.935  1.2957 -0.2233  1.9417
  858SOL    HW2 3431   5.162   1.395   2.886 -0.4766  0.1461 -2.6557
  858SOL     MW 3432   5.083   1.426   2.904  0.0613  0.4665 -0.4832
  859SOL     OW 3433   2.041   1.021   2.094  0.1361 -0.0489  0.3907
  859SOL    HW1 3434   1.986   1.097   2.114 -0.7819 -0.6775  0.3453
  859SOL    HW2 3435   2.064   1.031   2.002 -1.3844 -0.6691 -0.0791
  859SOL     MW 3436   2.037   1.032   2.085 -0.1761 -0.2088  0.3248
  860SOL     OW 3437   2.107   3.436   0.879  0.2678 -0.3765 -0.5062
  860SOL    HW1 3438   2.102   3.495   0.804  1.5896  0.4891  0.0586
  860SOL    HW2 3439   2.029   3.457   0.931 -1.1268 -1.5639 -1.9781
  860SOL     MW 3440   2.096   3.446   0.876  0.2585 -0.4177 -0.6223
  861SOL     OW 3441   0.700   0.133   3.158 -0.0688  0.1669  0.0701
  861SOL    HW1 3442   0.701   0.215   3.206 -0.6420  0.8802 -1.1000
  861SOL    HW2 3443   0.700   0.158   3.066 -1.1358 -1.1073 -0.3260
  861SOL     MW 3444   0.700   0.146   3.152 -0.2788  0.0951 -0.1304
  862SOL     OW 3445   1.013   2.862   2.483 -0.5692 -0.0600  0.2584
  862SOL    HW1 3446   0.972   2.930   2.429  0.8523  0.7734  0.1832
  862SOL    HW2 3447   0.986   2.883   2.572 -0.6157  0.2615  0.1710
  862SOL     MW 3448   1.004   2.874   2.487 -0.3931  0.0878  0.2376
  863SOL     OW 3449   4.993   1.602   1.913  0.1872 -0.0880  0.0711
  863SOL    HW1 3450   4.978   1.689   1.876 -1.7660 -0.9734 -1.3541
  863SOL    HW2 3451   5.087   1.587   1.902  0.6597  2.0072  0.8083
  863SOL     MW 3452   5.003   1.611   1.907 -0.0024  0.0669 -0.0170
  864SOL     OW 3453   3.660   2.314   4.084  0.5053  0.3866 -0.3532
  864SOL    HW1 3454   3.577   2.268   4.071  1.3403 -1.3571  0.2312
  864SOL    HW2 3455   3.644   2.371   4.159  0.1728 -0.8570  0.5508
  864SOL     MW 3456   3.648   2.316   4.092  0.5697  0.0042 -0.1626
  865SOL     OW 3457   2.413   0.572   0.253 -0.4325  0.7053 -0.0558
  865SOL    HW1 3458   2.447   0.656   0.283 -0.9915  0.7996  0.3398
  865SOL    HW2 3459   2.345   0.549   0.317  0.0611 -0.2967  0.1272
  865SOL     MW 3460   2.409   0.580   0.265 -0.4409  0.5891  0.0183
  866SOL     OW 3461   4.502   3.593   0.128  0.2447 -0.1130  0.1428
  866SOL    HW1 3462   4.548   3.514   0.101 -0.1011  0.6292 -3.0928
  866SOL    HW2 3463   4.552   3.664   0.087 -0.9951  1.1292  0.7068
  866SOL     MW 3464   4.514   3.592   0.119  0.0418  0.1411 -0.1992
  867SOL     OW 3465   1.748   3.711   3.988 -0.1458 -0.0649 -0.6520
  867SOL    HW1 3466   1.809   3.775   4.022 -0.0786 -0.1559 -0.6013
  867SOL    HW2 3467   1.801   3.651   3.936 -0.0531 -0.6439  0.0942
  867SOL     MW 3468   1.762   3.711   3.986 -0.1253 -0.1507 -0.5500
  868SOL     OW 3469   3.141   4.235   3.705 -0.6181  0.2439  0.2553
  868SOL    HW1 3470   3.128   4.150   3.663  1.0561  0.7452 -1.4403
  868SOL    HW2 3471   3.145   4.297   3.632 -3.1391  2.0582  1.4949
  868SOL     MW 3472   3.140   4.232   3.691 -0.7265  0.5403  0.1969
  869SOL     OW 3473   3.600   0.434   0.988 -0.5943  0.1614 -0.6118
  869SOL    HW1 3474   3.588   0.502   1.055  0.8407  2.1430 -2.2433
  869SOL    HW2 3475   3.524   0.376   0.999 -0.6524  0.6341  2.3810
  869SOL     MW 3476   3.589   0.435   0.998 -0.4181  0.4756 -0.4375
  870SOL     OW 3477   1.492   4.937   2.142 -0.1716  0.2024 -0.1678
  870SOL    HW1 3478   1.523   4.902   2.225  2.1402  1.1068 -0.5857
  870SOL    HW2 3479   1.504   5.032   2.151  0.1296  0.3065 -1.5437
  870SOL     MW 3480   1.497   4.945   2.154  0.1629  0.3315 -0.3975
  871SOL     OW 3481   2.603   2.414   2.569  0.3550 -0.3942  0.1873
  871SOL    HW1 3482   2.612   2.507   2.548  0.1501  0.0174  1.8128
  871SOL    HW2 3483   2.587   2.372   2.485  0.5528  1.0239 -0.5859
  871SOL     MW 3484   2.602   2.421   2.556  0.3541 -0.1600  0.2964
  872SOL     OW 3485   5.365   3.973   5.492  0.3376  0.1827  0.5668
  872SOL    HW1 3486   5.419   4.052   5.487  1.9257 -0.9436 -1.0355
  872SOL    HW2 3487   5.320   3.969   5.407 -0.3507 -0.2389  0.9384
  872SOL     MW 3488   5.366   3.983   5.481  0.4528 -0.0154  0.4092
  873SOL     OW 3489   3.247   1.327   3.972 -0.1384 -0.1324  0.0891
  873SOL    HW1 3490   3.295   1.409   3.978 -1.9627  0.9788  0.1780
  873SOL    HW2 3491   3.288   1.280   3.899  0.0944  1.4403 -0.8239
  873SOL     MW 3492   3.258   1.331   3.963 -0.3421  0.2112 -0.0164
  874SOL     OW 3493   1.293   2.577   1.287 -0.0239 -0.5008 -0.6949
  874SOL    HW1 3494   1.265   2.645   1.226 -0.7150  0.7715  0.9832
  874SOL    HW2 3495   1.211   2.540   1.320  0.2933  0.1541  0.8887
  874SOL     MW 3496   1.279   2.581   1.283 -0.0718 -0.2541 -0.2773
  875SOL     OW 3497   4.124   1.584   0.621 -0.0642 -0.1023 -0.1012
  875SOL    HW1 3498   4.162   1.656   0.570 -0.2605 -0.3827 -0.6502
  875SOL    HW2 3499   4.189   1.566   0.689  0.2615  0.1946 -0.3291
  875SOL     MW 3500   4.137   1.591   0.623 -0.0476 -0.1002 -0.2006
  876SOL     OW 3501   2.974   2.048   3.493 -0.5105 -0.1103 -0.4899
  876SOL    HW1 3502   3.050   2.092   3.456 -0.6498 -0.3819 -1.1037
  876SOL    HW2 3503   2.940   2.110   3.558  1.3355 -0.7626  1.1742
  876SOL     MW 3504   2.979   2.062   3.497 -0.2920 -0.2286 -0.3554
  877SOL     OW 3505   3.377   2.481   4.387  0.7368  0.6055  0.0894
  877SOL    HW1 3506   3.409   2.416   4.449  1.1830  1.4051  0.7162
  877SOL    HW2 3507   3.298   2.516   4.428  0.6791  0.6911 -0.0957
  877SOL     MW 3508   3.371   2.477   4.400  0.7866  0.7188  0.1459
  878SOL     OW 3509   0.241   1.446   0.815  0.6484 -0.3611  0.1790
  878SOL    HW1 3510   0.193   1.527   0.799 -0.6693 -1.2650 -0.6321
  878SOL    HW2 3511   0.331   1.474   0.834 -0.1338  1.3775  1.6153
  878SOL     MW 3512   0.247   1.460   0.816  0.3796 -0.2543  0.2590
  879SOL     OW 3513   2.063   2.415   2.815  0.1422  0.0313 -0.5080
  879SOL    HW1 3514   2.063   2.401   2.720  1.0766 -2.3147 -0.2143
  879SOL    HW2 3515   1.979   2.378   2.844 -0.9538  2.3067 -0.5406
  879SOL     MW 3516   2.052   2.409   2.806  0.1215  0.0223 -0.4746
  880SOL     OW 3517   3.482   2.311   4.568 -0.3722  0.4290  0.4410
  880SOL    HW1 3518   3.543   2.238   4.575  0.2241  0.8030 -0.5549
  880SOL    HW2 3519   3.483   2.352   4.654 -0.0226 -0.1921  0.7394
  880SOL     MW 3520   3.489   2.307   4.580 -0.2511  0.3973  0.3517
  881SOL     OW 3521   2.862   5.227   4.263  0.3359  0.2335 -0.7214
  881SOL    HW1 3522   2.853   5.192   4.174  0.9011  0.4002 -0.8462
  881SOL    HW2 3523   2.920   5.302   4.254  1.8132 -0.7863  0.0413
  881SOL     MW 3524   2.868   5.232   4.250  0.5973  0.1243 -0.6397
  882SOL     OW 3525   2.779   2.654   4.895  0.3671 -0.6047  0.2512
  882SOL    HW1 3526   2.830   2.577   4.920 -0.4923 -0.4381  2.7987
  882SOL    HW2 3527   2.692   2.639   4.931  0.1420  1.4794  0.7381
  882SOL     MW 3528   2.775   2.642   4.903  0.2283 -0.3165  0.6396
  883SOL     OW 3529   3.370   3.725   4.134  0.0351  0.0790 -0.3264
  883SOL    HW1 3530   3.282   3.687   4.138 -0.2508  0.6047 -1.3633
  883SOL    HW2 3531   3.381   3.769   4.218 -1.1117  0.8997 -0.5831
  883SOL     MW 3532   3.360   3.725   4.146 -0.1483  0.2514 -0.4920
  884SOL     OW 3533   3.390   5.021   4.838 -0.4632 -0.2283 -0.5063
  884SOL    HW1 3534   3.336   5.092   4.804  0.6228  1.8515  1.8261
  884SOL    HW2 3535   3.478   5.039   4.803 -0.5836 -1.8105 -1.7499
  884SOL     MW 3536   3.395   5.032   4.829 -0.3396 -0.1646 -0.3669
  885SOL     OW 3537   5.426   3.632   4.944  0.3343 -0.0257  0.1607
  885SOL    HW1 3538   5.463   3.659   5.028 -1.1842 -1.7055  1.4494
  885SOL    HW2 3539   5.385   3.548   4.962  1.4868 -1.3244 -2.7157
  885SOL     MW 3540   5.426   3.625   4.957  0.2875 -0.4070 -0.0426
  886SOL     OW 3541   1.004   1.478   3.780  0.1469 -0.7138 -0.3120
  886SOL    HW1 3542   1.008   1.433   3.864 -0.1934 -1.6111 -0.7627
  886SOL    HW2 3543   0.973   1.566   3.801 -0.4901 -1.1037  0.4427
  886SOL     MW 3544   1.000   1.484   3.793  0.0218 -0.8785 -0.2731
  887SOL     OW 3545   4.846   4.128   0.214  0.0363 -0.5063  0.9353
  887SOL    HW1 3546   4.775   4.069   0.235 -0.2857 -0.7141 -0.6413
  887SOL    HW2 3547   4.820   4.170   0.132  1.5156 -0.2564  0.5568
  887SOL     MW 3548   4.834   4.126   0.207  0.1845 -0.5009  0.6851
  888SOL     OW 3549   5.203   3.182   1.146  0.2236 -0.1636  0.0179
  888SOL    HW1 3550   5.108   3.170   1.154  0.0281  1.1800 -0.0743
  888SOL    HW2 3551   5.232   3.107   1.094 -0.9644  0.0083 -0.9542
  888SOL     MW 3552   5.195   3.171   1.141  0.0465  0.0304 -0.1183
  889SOL     OW 3553   4.844   2.541   1.223  0.2224  0.5410  0.0248
  889SOL    HW1 3554   4.834   2.614   1.285 -0.6592 -1.0097  1.7888
  889SOL    HW2 3555   4.755   2.521   1.195  0.0785 -1.6596  1.8001
  889SOL     MW 3556   4.832   2.548   1.227  0.0911  0.0608  0.4779
  890SOL     OW 3557   3.255   4.082   0.295 -0.4350  0.0302  0.3544
  890SOL    HW1 3558   3.165   4.096   0.266 -0.4563 -0.8160 -0.0158
  890SOL    HW2 3559   3.256   3.991   0.325 -0.1882  0.6025  2.2000
  890SOL     MW 3560   3.243   4.072   0.295 -0.4061 -0.0049  0.5433
  891SOL     OW 3561   3.078   3.123   0.489  0.3461  0.5987  0.7567
  891SOL    HW1 3562   3.031   3.093   0.411  0.8825  0.0105  0.6494
  891SOL    HW2 3563   3.126   3.046   0.519  1.0019  1.1038  1.0355
  891SOL     MW 3564   3.078   3.110   0.483  0.4987  0.5880  0.7786
  892SOL     OW 3565   4.048   2.160   2.034 -0.2692 -0.2652  0.1960
  892SOL    HW1 3566   3.961   2.151   2.071 -0.6458  1.0797 -0.2898
  892SOL    HW2 3567   4.099   2.205   2.101 -1.0826  2.6229 -0.9362
  892SOL     MW 3568   4.044   2.165   2.047 -0.4216  0.2767 -0.0111
  893SOL     OW 3569   2.300   2.917   2.685  0.5356 -0.3645 -0.1609
  893SOL    HW1 3570   2.361   2.908   2.758 -1.3745 -1.0732  1.4454
  893SOL    HW2 3571   2.285   2.828   2.655 -0.7492 -0.3678  0.4145
  893SOL     MW 3572   2.306   2.905   2.690  0.1266 -0.4556  0.1184
  894SOL     OW 3573   1.141   2.052   2.406  0.1375 -0.0093  0.3682
  894SOL    HW1 3574   1.083   2.007   2.468 -0.6925  0.5083 -0.0151
  894SOL    HW2 3575   1.151   2.140   2.443  1.6938 -0.4478  1.0777
  894SOL     MW 3576   1.135   2.057   2.419  0.2305  0.0008  0.4099
  895SOL     OW 3577   1.673   0.027   0.203  0.0043  0.2573 -0.3866
  895SOL    HW1 3578   1.614  -0.047   0.220  1.3031 -0.6056  0.6219
  895SOL    HW2 3579   1.705   0.012   0.115  2.2681 -1.9530  0.6728
  895SOL     MW 3580   1.669   0.015   0.194  0.4604 -0.1361 -0.1219
  896SOL     OW 3581   5.236   3.311   1.818  0.4781 -0.0027 -0.3763
  896SOL    HW1 3582   5.306   3.316   1.753 -0.4768 -0.5067 -1.4715
  896SOL    HW2 3583   5.261   3.238   1.874  1.7066  0.9274  0.3460
  896SOL     MW 3584   5.248   3.302   1.817  0.5131  0.0519 -0.4240
  897SOL     OW 3585   0.546   2.939   2.556 -0.3421 -0.1275  0.4044
  897SOL    HW1 3586   0.489   2.951   2.632 -1.8141  1.4227 -0.8554
  897SOL    HW2 3587   0.600   2.863   2.578 -2.0869 -0.9555  2.1482
  897SOL     MW 3588   0.546   2.931   2.569 -0.7539 -0.0350  0.4664
  898SOL     OW 3589   2.155   0.260   1.185 -0.0092  0.4736  0.1321
  898SOL    HW1 3590   2.070   0.272   1.142 -0.5443 -1.4491  0.5339
  898SOL    HW2 3591   2.150   0.172   1.223  2.7760 -0.4127 -1.2610
  898SOL     MW 3592   2.143   0.250   1.184  0.2788  0.1140  0.0052
  899SOL     OW 3593   4.542   3.268   0.559  0.4639 -0.2431 -0.2662
  899SOL    HW1 3594   4.610   3.270   0.627  2.3784 -0.0684 -2.0627
  899SOL    HW2 3595   4.528   3.360   0.537 -1.4488 -0.1728  1.0350
  899SOL     MW 3596   4.549   3.280   0.565  0.4641 -0.2118 -0.3296
  900SOL     OW 3597   3.697   0.842   0.145 -0.4404 -0.1071 -0.4119
  900SOL    HW1 3598   3.713   0.857   0.052 -1.4197 -1.9772 -0.9344
  900SOL    HW2 3599   3.720   0.925   0.187  0.6772  0.5624 -2.2232
  900SOL     MW 3600   3.702   0.854   0.138 -0.4227 -0.2608 -0.7106
  901SOL     OW 3601   2.568   4.829   3.732  0.4882 -0.4637  0.0932
  901SOL    HW1 3602   2.485   4.835   3.781  0.0366  1.4698 -0.7960
  901SOL    HW2 3603   2.550   4.766   3.663 -0.3851  0.1461 -0.2677
  901SOL     MW 3604   2.555   4.822   3.729  0.3186 -0.1381 -0.0668
  902SOL     OW 3605   1.821   4.884   3.519  0.2204  0.3316 -0.4515
  902SOL    HW1 3606   1.845   4.846   3.603  1.4317 -0.2948 -1.0540
  902SOL    HW2 3607   1.887   4.951   3.503 -0.2295  0.7179 -0.7358
  902SOL     MW 3608   1.832   4.888   3.528  0.3178  0.3009 -0.5650
  903SOL     OW 3609   3.249   1.061   4.199 -0.0594  0.6806 -0.1374
  903SOL    HW1 3610   3.341   1.061   4.173 -0.2946 -1.0138 -1.0881
  903SOL    HW2 3611   3.203   1.095   4.122 -0.2262  2.0582  0.5303
  903SOL     MW 3612   3.255   1.066   4.186 -0.1108  0.6400 -0.1736
  904SOL     OW 3613   0.514   1.132   1.313  0.0455 -0.6155 -0.1863
  904SOL    HW1 3614   0.463   1.096   1.241 -0.8950 -1.7857  1.0158
  904SOL    HW2 3615   0.456   1.127   1.388  1.1528  0.1717  0.7616
  904SOL     MW 3616   0.500   1.127   1.313  0.0668 -0.6645  0.0889
  905SOL     OW 3617   0.002   0.389   4.361 -0.1502  0.0578 -0.2874
  905SOL    HW1 3618   0.014   0.446   4.286 -0.2671  1.4467  0.7095
  905SOL    HW2 3619   0.080   0.333   4.362  0.8422  1.3961 -0.2931
  905SOL     MW 3620   0.013   0.389   4.352 -0.0382  0.4069 -0.1605
  906SOL     OW 3621   1.521   1.525   4.233 -0.8782 -0.1536 -0.7271
  906SOL    HW1 3622   1.501   1.440   4.194 -0.5762 -0.0697 -1.0761
  906SOL    HW2 3623   1.580   1.566   4.170 -0.5297  0.0634 -0.2611
  906SOL     MW 3624   1.526   1.519   4.220 -0.7949 -0.1151 -0.7121
  907SOL     OW 3625   3.361   3.103   2.236  0.5561  0.1096  0.0310
  907SOL    HW1 3626   3.356   3.024   2.290 -0.9444  1.1205  1.4906
  907SOL    HW2 3627   3.444   3.143   2.260  0.9903 -0.6532 -0.1784
  907SOL     MW 3628   3.371   3.098   2.246  0.4196  0.1414  0.1910
  908SOL     OW 3629   2.809   4.416   3.436  0.2948  0.1598  0.3746
  908SOL    HW1 3630   2.763   4.333   3.445 -0.1752  0.3616 -0.1220
  908SOL    HW2 3631   2.741   4.482   3.452  0.6046  0.4540  0.4875
  908SOL     MW 3632   2.794   4.414   3.439  0.2743  0.2233  0.3255
  909SOL     OW 3633   2.811   3.557   1.536  0.1535 -0.0930  0.1296
  909SOL    HW1 3634   2.866   3.623   1.493  1.6703 -0.4547  1.4224
  909SOL    HW2 3635   2.750   3.528   1.467  1.2841  0.6510 -1.2397
  909SOL     MW 3636   2.810   3.562   1.521  0.4924 -0.0440  0.1198
  910SOL     OW 3637   2.744   2.997   1.613  0.1727  0.7756 -0.7947
  910SOL    HW1 3638   2.778   2.991   1.702 -0.7202 -4.3898 -0.4815
  910SOL    HW2 3639   2.666   3.052   1.620  1.1443  2.0068  1.1526
  910SOL     MW 3640   2.738   3.003   1.625  0.1828  0.2720 -0.5053
  911SOL     OW 3641   3.913   0.285   3.695 -0.2613  0.9914  0.3954
  911SOL    HW1 3642   3.846   0.335   3.648  0.0512  0.3718 -0.7325
  911SOL    HW2 3643   3.864   0.240   3.764 -1.0151  0.6227 -0.3545
  911SOL     MW 3644   3.898   0.285   3.698 -0.3178  0.8649  0.1550
  912SOL     OW 3645   0.022   2.525   4.316  0.6866  0.1937 -0.0945
  912SOL    HW1 3646   0.051   2.567   4.234  2.6655  2.3110  1.5421
  912SOL    HW2 3647  -0.073   2.534   4.314  0.6882  0.3896 -2.0415
  912SOL     MW 3648   0.013   2.532   4.305  0.9401  0.4898 -0.1343
  913SOL     OW 3649   3.045   1.236   5.180  0.5177  0.2170  1.1647
  913SOL    HW1 3650   3.026   1.160   5.124 -2.1459  1.1032  0.7173
  913SOL    HW2 3651   3.068   1.198   5.264  1.0899 -1.1003  0.4524
  913SOL     MW 3652   3.045   1.221   5.183  0.2500  0.1618  1.0162
  914SOL     OW 3653   4.563   0.852   2.872  0.3458 -0.1654  0.0689
  914SOL    HW1 3654   4.501   0.871   2.801 -0.3677 -0.1480  0.6885
  914SOL    HW2 3655   4.542   0.915   2.940  0.3899 -0.7925  0.6757
  914SOL     MW 3656   4.552   0.862   2.872  0.2601 -0.2435  0.2259
  915SOL     OW 3657   4.029   1.264   4.729  0.3770 -0.0133  0.8243
  915SOL    HW1 3658   3.936   1.246   4.744 -0.3825  3.1789  0.7650
  915SOL    HW2 3659   4.040   1.355   4.756  2.8600  0.6244 -1.8092
  915SOL     MW 3660   4.018   1.274   4.734  0.5976  0.4770  0.4796
  916SOL     OW 3661   4.579   3.696   4.479  0.4761 -0.3429  0.0510
  916SOL    HW1 3662   4.630   3.771   4.509  0.4298 -0.0312 -0.6511
  916SOL    HW2 3663   4.630   3.660   4.407 -1.7078  1.8096 -2.8062
  916SOL     MW 3664   4.592   3.701   4.474  0.1906 -0.0275 -0.4046
  917SOL     OW 3665   1.676   2.075   4.027 -0.1564 -0.0147 -0.2707
  917SOL    HW1 3666   1.646   2.150   4.077 -0.9018 -0.3894 -0.1477
  917SOL    HW2 3667   1.736   2.112   3.962 -0.5044  0.6789 -0.2061
  917SOL     MW 3668   1.680   2.089   4.025 -0.2964  0.0261 -0.2467
  918SOL     OW 3669   1.941   5.328   1.682 -0.2627 -0.1440 -0.2575
  918SOL    HW1 3670   1.993   5.407   1.692  1.2631 -0.8908 -1.7870
  918SOL    HW2 3671   1.862   5.356   1.636  0.4858  0.4313 -1.2218
  918SOL     MW 3672   1.938   5.341   1.678  0.0285 -0.1660 -0.5767
  919SOL     OW 3673   5.091   2.868   0.653  0.0677  0.5587  0.0922
  919SOL    HW1 3674   5.117   2.943   0.601  0.9917  2.2964  2.8089
  919SOL    HW2 3675   5.003   2.889   0.685 -0.4636 -0.4412 -0.6596
  919SOL     MW 3676   5.083   2.880   0.651  0.1180  0.6532  0.3437
  920SOL     OW 3677   1.454   2.934   4.644  0.1246 -0.0078 -0.6180
  920SOL    HW1 3678   1.490   2.890   4.722 -1.3297  0.2453  0.2441
  920SOL    HW2 3679   1.497   3.019   4.642  0.8315 -0.3613 -0.6075
  920SOL     MW 3680   1.464   2.939   4.654  0.0289 -0.0207 -0.5063
  921SOL     OW 3681   3.879   5.327   0.782  0.4433  0.6004 -0.1051
  921SOL    HW1 3682   3.888   5.421   0.763 -0.3046  0.2641 -2.6025
  921SOL    HW2 3683   3.969   5.298   0.801  1.4197  1.1874 -3.1447
  921SOL     MW 3684   3.892   5.336   0.782  0.4726  0.6325 -0.8139
  922SOL     OW 3685   1.721   4.242   0.866  0.0328 -0.5496 -0.2898
  922SOL    HW1 3686   1.726   4.230   0.961  1.8375  1.5261 -0.0424
  922SOL    HW2 3687   1.706   4.154   0.831  1.2599 -1.6787  1.8231
  922SOL     MW 3688   1.720   4.229   0.874  0.4209 -0.4284  0.0123
  923SOL     OW 3689   0.725   2.066   4.497  0.5446 -0.5181 -0.2070
  923SOL    HW1 3690   0.801   2.017   4.529 -0.5169 -3.3793 -1.7076
  923SOL    HW2 3691   0.653   2.039   4.555 -0.4046 -2.1760 -2.0365
  923SOL     MW 3692   0.726   2.056   4.508  0.2872 -1.0966 -0.6333
  924SOL     OW 3693   4.636   0.855   0.909  0.3158  0.1271  0.8805
  924SOL    HW1 3694   4.582   0.881   0.984  0.2258  0.6772  0.6317
  924SOL    HW2 3695   4.675   0.937   0.879  0.4773 -0.1183  0.4243
  924SOL     MW 3696   4.634   0.869   0.915  0.3250  0.1661  0.7903
  925SOL     OW 3697   4.932   4.793   3.740  0.1740 -0.0434 -0.3002
  925SOL    HW1 3698   4.841   4.815   3.762 -0.0356 -0.4322 -0.7544
  925SOL    HW2 3699   4.985   4.856   3.790 -0.2972 -0.5798  0.9077
  925SOL     MW 3700   4.927   4.804   3.749  0.0868 -0.1618 -0.2037
  926SOL     OW 3701   0.241   2.606   1.397 -0.7112  0.3235 -0.7439
  926SOL    HW1 3702   0.219   2.537   1.334 -1.7644 -1.0603  1.0495
  926SOL    HW2 3703   0.308   2.567   1.454  0.8611  1.8457 -1.4517
  926SOL     MW 3704   0.247   2.592   1.396 -0.6447  0.3412 -0.6049
  927SOL     OW 3705   0.819   2.775   0.804 -0.1389 -0.1180 -0.0569
  927SOL    HW1 3706   0.906   2.800   0.836 -0.4212 -0.7298  1.2517
  927SOL    HW2 3707   0.764   2.776   0.882 -1.0464 -0.8863 -0.6683
  927SOL     MW 3708   0.823   2.778   0.818 -0.2912 -0.2947  0.0324
  928SOL     OW 3709   3.117   4.644   0.289  0.2787 -0.1777 -0.8440
  928SOL    HW1 3710   3.094   4.590   0.364  1.2429 -1.1032 -1.1955
  928SOL    HW2 3711   3.085   4.596   0.213  0.1419  0.3047 -1.1015
  928SOL     MW 3712   3.110   4.631   0.289  0.3846 -0.2344 -0.9220
  929SOL     OW 3713   2.735   3.835   2.736  0.3596  0.5533  0.3109
  929SOL    HW1 3714   2.761   3.775   2.806  2.3560  1.4659  0.4009
  929SOL    HW2 3715   2.770   3.795   2.657 -1.5976 -0.2985 -0.1923
  929SOL     MW 3716   2.743   3.822   2.735  0.3646  0.5611  0.2580
  930SOL     OW 3717   3.265   0.448   3.560 -0.0852 -0.6011  0.1013
  930SOL    HW1 3718   3.305   0.438   3.646 -1.6712  0.2519  0.9940
  930SOL    HW2 3719   3.272   0.361   3.520  2.2097 -0.5960  0.3415
  930SOL     MW 3720   3.271   0.435   3.566  0.0055 -0.4913  0.2463
  931SOL     OW 3721   4.334   3.111   5.398  0.2488 -0.3683 -0.5277
  931SOL    HW1 3722   4.318   3.092   5.490 -0.1324  0.3069 -0.4478
  931SOL    HW2 3723   4.385   3.036   5.366 -1.2289 -1.5319 -0.2542
  931SOL     MW 3724   4.339   3.099   5.405  0.0108 -0.4308 -0.4825
  932SOL     OW 3725   2.814   5.060   2.210  0.4050 -0.3733  0.6583
  932SOL    HW1 3726   2.760   5.082   2.135  1.5806 -0.4750 -0.2539
  932SOL    HW2 3727   2.824   5.143   2.257 -0.9003 -0.4527  1.1044
  932SOL     MW 3728   2.809   5.074   2.207  0.3884 -0.3965  0.5986
  933SOL     OW 3729   3.460   1.359   2.456 -0.3362 -0.1363 -0.2991
  933SOL    HW1 3730   3.529   1.417   2.426 -0.5408  0.0851 -0.3475
  933SOL    HW2 3731   3.493   1.320   2.536 -0.1463 -0.0512 -0.3372
  933SOL     MW 3732   3.473   1.362   2.462 -0.3381 -0.0971 -0.3102
  934SOL     OW 3733   1.632   0.313   0.523 -0.1206 -0.4670 -0.3327
  934SOL    HW1 3734   1.640   0.218   0.514 -1.0130 -0.4078 -2.3389
  934SOL    HW2 3735   1.571   0.325   0.596  0.0306 -1.4229 -0.0263
  934SOL     MW 3736   1.625   0.302   0.531 -0.2155 -0.5818 -0.5503
  935SOL     OW 3737   0.812   0.093   4.151 -0.4240 -0.0022  0.1458
  935SOL    HW1 3738   0.776   0.175   4.118 -1.6161 -0.4040  0.3952
  935SOL    HW2 3739   0.756   0.025   4.113  1.6297 -0.8791 -1.5557
  935SOL     MW 3740   0.800   0.095   4.142 -0.3137 -0.1659 -0.0401
  936SOL     OW 3741   4.033   0.944   0.578  0.3926 -0.1532 -0.0705
  936SOL    HW1 3742   3.971   0.956   0.650 -0.1527  0.5354 -0.6352
  936SOL    HW2 3743   3.989   0.882   0.519 -0.9526  2.2009 -1.7184
  936SOL     MW 3744   4.020   0.938   0.580  0.1506  0.2363 -0.3537
  937SOL     OW 3745   0.565   3.308   2.057 -0.4297 -0.0353  0.0194
  937SOL    HW1 3746   0.638   3.349   2.010  1.2736  0.2387  2.7119
  937SOL    HW2 3747   0.492   3.368   2.043  0.2832  0.5593 -1.3768
  937SOL     MW 3748   0.565   3.321   2.049 -0.1204  0.0759  0.1853
  938SOL     OW 3749   1.171   4.894   4.926  0.0712  0.3928 -0.5621
  938SOL    HW1 3750   1.134   4.831   4.865  0.6464 -0.3202 -0.1933
  938SOL    HW2 3751   1.096   4.932   4.971 -0.2835  0.0338 -0.8488
  938SOL     MW 3752   1.157   4.891   4.924  0.0995  0.2556 -0.5516
  939SOL     OW 3753   5.227   2.684   2.482 -0.0350 -0.5501  0.1383
  939SOL    HW1 3754   5.135   2.710   2.490 -0.0691 -0.4684 -0.4272
  939SOL    HW2 3755   5.227   2.620   2.411  0.1454 -1.5990  1.0707
  939SOL     MW 3756   5.215   2.679   2.474 -0.0163 -0.6739  0.1853
  940SOL     OW 3757   2.568   0.238   2.658 -0.0300 -0.2085  0.4897
  940SOL    HW1 3758   2.640   0.254   2.596 -0.0473  0.4342  0.6259
  940SOL    HW2 3759   2.591   0.290   2.735 -0.4195 -0.3531  0.7059
  940SOL     MW 3760   2.580   0.247   2.660 -0.0821 -0.1447  0.5348
  941SOL     OW 3761   4.528   0.903   3.715  0.1965  0.3434 -0.3832
  941SOL    HW1 3762   4.519   0.912   3.620 -0.2109  1.1190 -0.2764
  941SOL    HW2 3763   4.458   0.957   3.751  0.8911  0.7598  0.3733
  941SOL     MW 3764   4.518   0.911   3.708  0.2332  0.4960 -0.2727
  942SOL     OW 3765   0.922   4.970   0.833 -1.1423 -0.4283  0.1540
  942SOL    HW1 3766   0.885   4.993   0.748  1.2258 -0.6749 -1.0102
  942SOL    HW2 3767   0.889   4.882   0.851 -2.2953 -0.0600 -0.0939
  942SOL     MW 3768   0.913   4.961   0.825 -0.9867 -0.4127 -0.0268
  943SOL     OW 3769   4.674   2.958   3.486 -0.7568 -0.3187  0.4744
  943SOL    HW1 3770   4.765   2.986   3.490 -0.5049 -0.8813 -0.7002
  943SOL    HW2 3771   4.630   3.005   3.557  0.5639 -0.5176  1.4540
  943SOL     MW 3772   4.680   2.967   3.495 -0.5555 -0.4162  0.4494
  944SOL     OW 3773   0.802   5.224   0.159  0.3591  0.3253 -0.4627
  944SOL    HW1 3774   0.873   5.236   0.097  0.5279  0.2972 -0.2782
  944SOL    HW2 3775   0.735   5.175   0.111  0.8156 -0.3846 -0.3939
  944SOL     MW 3776   0.803   5.219   0.145  0.4392  0.2308 -0.4303
  945SOL     OW 3777   2.472   4.217   3.255  0.4305  0.8357  0.1454
  945SOL    HW1 3778   2.409   4.163   3.206  0.8864  0.5436 -0.1208
  945SOL    HW2 3779   2.554   4.207   3.207  0.5925  1.5135  0.2815
  945SOL     MW 3780   2.474   4.209   3.242  0.5096  0.8851  0.1287
  946SOL     OW 3781   1.812   4.762   4.198 -0.0361 -0.1217 -0.4757
  946SOL    HW1 3782   1.745   4.746   4.264  0.9676 -0.1400  0.5697
  946SOL    HW2 3783   1.839   4.853   4.213  0.7044 -0.3511 -0.3894
  946SOL     MW 3784   1.807   4.772   4.208  0.1872 -0.1534 -0.3308
  947SOL     OW 3785   2.776   0.356   4.037 -0.4864  0.8912  0.1486
  947SOL    HW1 3786   2.687   0.343   4.068 -1.2732 -1.2764 -2.6349
  947SOL    HW2 3787   2.777   0.446   4.004 -1.8885  0.6945 -0.4862
  947SOL     MW 3788   2.765   0.366   4.037 -0.7666  0.5885 -0.2890
  948SOL     OW 3789   3.712   1.791   1.411 -0.0217  0.6038 -0.1959
  948SOL    HW1 3790   3.768   1.717   1.433 -1.2062 -0.1644  0.3716
  948SOL    HW2 3791   3.715   1.796   1.315 -1.6549 -1.6471 -0.4403
  948SOL     MW 3792   3.719   1.782   1.402 -0.3824  0.2173 -0.1545
  949SOL     OW 3793   2.028   5.379   3.338  0.1042  0.5107  0.5610
  949SOL    HW1 3794   1.947   5.390   3.289 -0.8360 -2.6887  1.1535
  949SOL    HW2 3795   2.004   5.397   3.429 -0.2789 -1.3090  0.8696
  949SOL     MW 3796   2.015   5.382   3.344 -0.0652 -0.1318  0.6763
  950SOL     OW 3797   4.918   1.197   0.331 -0.1665 -0.1142  0.3329
  950SOL    HW1 3798   4.992   1.254   0.346 -0.2795  0.5072 -1.2478
  950SOL    HW2 3799   4.956   1.118   0.293 -0.0005 -1.2064  2.5898
  950SOL     MW 3800   4.932   1.194   0.328 -0.1597 -0.1745  0.4195
  951SOL     OW 3801   4.633   3.259   3.036  0.2791  0.2064 -0.3135
  951SOL    HW1 3802   4.727   3.240   3.027  0.0896 -1.7959  1.1192
  951SOL    HW2 3803   4.601   3.271   2.947  1.6916 -0.1449 -0.8887
  951SOL     MW 3804   4.641   3.258   3.024  0.4357 -0.0949 -0.2037
  952SOL     OW 3805   1.476   5.489   1.297 -1.4682 -0.6942  0.6048
  952SOL    HW1 3806   1.504   5.541   1.372  2.7171 -1.6486 -0.0299
  952SOL    HW2 3807   1.433   5.413   1.335 -1.8115  0.0964  1.8619
  952SOL     MW 3808   1.474   5.486   1.312 -0.9764 -0.7151  0.6845
  953SOL     OW 3809   4.750   0.035   1.475  0.2718 -0.7751 -0.4804
  953SOL    HW1 3810   4.700   0.114   1.456 -1.3036 -1.8151 -0.8697
  953SOL    HW2 3811   4.818   0.032   1.408  1.0337  0.7696  0.1790
  953SOL     MW 3812   4.752   0.045   1.464  0.1677 -0.7105 -0.4458
  954SOL     OW 3813   4.919   2.065   1.016 -0.1061 -0.1797 -0.0389
  954SOL    HW1 3814   4.964   2.145   1.044  1.8132 -0.8978 -0.8658
  954SOL    HW2 3815   4.941   2.001   1.084  0.8024 -0.7306 -0.8249
  954SOL     MW 3816   4.928   2.067   1.028  0.2559 -0.3422 -0.2454
  955SOL     OW 3817   2.900   1.350   2.162 -0.1976 -0.1073  0.5487
  955SOL    HW1 3818   2.853   1.277   2.203  0.7512 -0.7157  0.5727
  955SOL    HW2 3819   2.961   1.308   2.101 -0.4522  0.7220 -0.2898
  955SOL     MW 3820   2.902   1.335   2.160 -0.1087 -0.0790  0.4444
  956SOL     OW 3821   0.550   5.269   3.076  0.5368 -0.0596  0.7412
  956SOL    HW1 3822   0.562   5.322   3.155  0.2221 -0.5437  1.1181
  956SOL    HW2 3823   0.461   5.235   3.082  0.8249 -0.8620  0.6499
  956SOL     MW 3824   0.540   5.271   3.087  0.5334 -0.2243  0.7778
  957SOL     OW 3825   2.303   0.435   3.221  0.6365 -1.1119 -0.1689
  957SOL    HW1 3826   2.353   0.509   3.187  1.1158 -1.6853 -0.7226
  957SOL    HW2 3827   2.239   0.475   3.280  0.6399 -0.2192 -0.7479
  957SOL     MW 3828   2.301   0.450   3.224  0.6983 -1.0710 -0.3139
  958SOL     OW 3829   3.895   2.612   0.343  0.1431 -0.3297 -0.7360
  958SOL    HW1 3830   3.941   2.569   0.271  1.5792  3.4425 -2.3768
  958SOL    HW2 3831   3.965   2.646   0.399 -0.9151 -0.9013  1.0050
  958SOL     MW 3832   3.910   2.611   0.341  0.1915  0.0800 -0.7231
  959SOL     OW 3833   1.754   2.739   0.332 -0.2440 -0.0963 -0.1057
  959SOL    HW1 3834   1.828   2.693   0.373 -0.7717 -0.7826  0.0903
  959SOL    HW2 3835   1.677   2.709   0.381 -0.6316  0.7939 -0.1551
  959SOL     MW 3836   1.754   2.729   0.344 -0.3612 -0.0702 -0.0869
  960SOL     OW 3837   3.847   4.181   0.164  0.3144  0.2148  0.2166
  960SOL    HW1 3838   3.918   4.207   0.104 -0.4126  1.5943 -0.0812
  960SOL    HW2 3839   3.834   4.257   0.220 -0.6214 -0.1946  0.5732
  960SOL     MW 3840   3.855   4.194   0.163  0.1016  0.3390  0.2241
  961SOL     OW 3841   0.120   5.439   0.044  0.1711  0.1569 -0.5238
  961SOL    HW1 3842   0.173   5.512   0.012  0.4099  0.5023  0.6011
  961SOL    HW2 3843   0.184   5.370   0.065  0.1096  0.2620  0.0278
  961SOL     MW 3844   0.135   5.439   0.043  0.1938  0.2146 -0.3092
  962SOL     OW 3845   1.865   2.497   5.284  0.5711 -0.2476  0.1515
  962SOL    HW1 3846   1.776   2.462   5.296  1.0407 -0.8535  2.3806
  962SOL    HW2 3847   1.852   2.588   5.260 -0.6611 -1.2423 -3.7261
  962SOL     MW 3848   1.852   2.504   5.283  0.4735 -0.4525 -0.0595
  963SOL     OW 3849   1.987   4.656   1.460 -0.4282  0.0184  0.7463
  963SOL    HW1 3850   1.911   4.636   1.405 -0.0992 -1.2039  0.7022
  963SOL    HW2 3851   1.972   4.746   1.489 -3.1314 -0.9006  2.6471
  963SOL     MW 3852   1.975   4.665   1.457 -0.7321 -0.2557  0.9840
  964SOL     OW 3853   3.898   3.526   4.157  0.6052 -0.1856 -0.1465
  964SOL    HW1 3854   3.978   3.477   4.137  0.3466 -0.1898 -1.1947
  964SOL    HW2 3855   3.841   3.511   4.082 -0.8928 -1.2063  1.1410
  964SOL     MW 3856   3.901   3.517   4.145  0.3803 -0.3168 -0.1158
  965SOL     OW 3857   5.225   2.038   3.926 -0.2753  0.3555  0.0247
  965SOL    HW1 3858   5.229   2.121   3.973 -0.0836  0.1840  0.3145
  965SOL    HW2 3859   5.142   1.999   3.953  0.6834 -0.6340  1.7568
  965SOL     MW 3860   5.215   2.044   3.935 -0.1280  0.2069  0.2836
  966SOL     OW 3861   5.251   4.658   4.685  0.2601  0.6605  0.1039
  966SOL    HW1 3862   5.298   4.577   4.668 -0.5595  0.3976 -0.9866
  966SOL    HW2 3863   5.299   4.724   4.635  0.3224  0.6687  0.1731
  966SOL     MW 3864   5.263   4.656   4.677  0.1632  0.6279 -0.0269
  967SOL     OW 3865   0.707   3.829   0.724 -0.1927 -0.2177 -0.1874
  967SOL    HW1 3866   0.643   3.877   0.671 -1.0092 -1.9089 -0.8014
  967SOL    HW2 3867   0.785   3.826   0.669 -0.7571 -1.2145 -0.9628
  967SOL     MW 3868   0.709   3.835   0.710 -0.3694 -0.5618 -0.3653
  968SOL     OW 3869   1.253   4.081   2.038  0.3264 -0.2943  0.7617
  968SOL    HW1 3870   1.228   4.024   1.966  0.5830 -0.4102  0.7638
  968SOL    HW2 3871   1.320   4.139   2.001  0.5173 -0.4070  0.9261
  968SOL     MW 3872   1.259   4.081   2.024  0.3837 -0.3236  0.7830
  969SOL     OW 3873   2.288   4.048   4.251  0.4498 -0.3913  0.8652
  969SOL    HW1 3874   2.311   4.059   4.159  0.0228 -3.2228  0.3265
  969SOL    HW2 3875   2.212   4.105   4.264  0.0522 -0.4905 -0.7519
  969SOL     MW 3876   2.281   4.056   4.241  0.3442 -0.7665  0.5892
  970SOL     OW 3877   3.906   2.415   0.577  0.1114  0.6521 -0.0410
  970SOL    HW1 3878   3.971   2.439   0.643  0.3755  1.5814 -0.6189
  970SOL    HW2 3879   3.935   2.460   0.498  0.3353 -1.1706 -1.0628
  970SOL     MW 3880   3.918   2.424   0.575  0.1739  0.5377 -0.2458
  971SOL     OW 3881   2.726   5.333   0.185  0.0407  0.4640 -0.4610
  971SOL    HW1 3882   2.795   5.277   0.220  0.1022  0.7676 -0.0938
  971SOL    HW2 3883   2.645   5.285   0.203  0.1983 -0.2164 -1.5109
  971SOL     MW 3884   2.724   5.319   0.192  0.0687  0.4158 -0.5484
  972SOL     OW 3885   0.340   3.525   4.191  0.7204 -0.2838  0.2917
  972SOL    HW1 3886   0.329   3.611   4.231 -0.5943 -0.8788  1.3006
  972SOL    HW2 3887   0.402   3.480   4.247  1.4760  0.0208 -0.2865
  972SOL     MW 3888   0.346   3.530   4.203  0.6488 -0.3209  0.3468
  973SOL     OW 3889   3.786   3.240   4.977 -0.0946  0.5005  0.0147
  973SOL    HW1 3890   3.795   3.159   5.028 -1.5908 -0.0840 -0.6063
  973SOL    HW2 3891   3.821   3.308   5.035 -0.4919 -0.3290  1.2844
  973SOL     MW 3892   3.792   3.238   4.991 -0.3370  0.3195  0.0978
  974SOL     OW 3893   2.468   1.699   0.010 -0.4152  0.0504  0.3214
  974SOL    HW1 3894   2.460   1.622   0.066  1.0424 -1.0403 -0.8598
  974SOL    HW2 3895   2.541   1.748   0.047 -1.2032  0.7767  0.9442
  974SOL     MW 3896   2.477   1.695   0.022 -0.3295  0.0038  0.2499
  975SOL     OW 3897   5.301   3.704   5.377 -0.0132 -0.0424  0.5323
  975SOL    HW1 3898   5.216   3.723   5.417 -0.1378 -0.2465  0.3657
  975SOL    HW2 3899   5.364   3.754   5.429 -0.1230 -0.6323  1.2585
  975SOL     MW 3900   5.298   3.713   5.389 -0.0432 -0.1440  0.6040
  976SOL     OW 3901   3.367   4.297   0.457  0.0415  0.3273 -0.3599
  976SOL    HW1 3902   3.319   4.235   0.402 -0.2559  0.6558 -0.4679
  976SOL    HW2 3903   3.322   4.294   0.541 -0.2651  0.7552 -0.5095
  976SOL     MW 3904   3.355   4.289   0.461 -0.0358  0.4241 -0.3929
  977SOL     OW 3905   2.094   1.151   4.462  0.0704  0.6114  0.2394
  977SOL    HW1 3906   2.090   1.068   4.415  0.6190  0.2916  0.7470
  977SOL    HW2 3907   2.007   1.190   4.449  0.0441  0.2943 -0.5949
  977SOL     MW 3908   2.082   1.145   4.455  0.1372  0.5299  0.1975
  978SOL     OW 3909   4.019   2.980   1.290  0.3280  0.7127 -0.0635
  978SOL    HW1 3910   4.089   3.023   1.242  0.5982  0.2825 -0.0630
  978SOL    HW2 3911   3.947   2.973   1.228  0.7058  0.0767 -0.4415
  978SOL     MW 3912   4.019   2.985   1.276  0.4109  0.5762 -0.1118
  979SOL     OW 3913   3.500   3.215   3.022 -0.1045  0.4795  0.0800
  979SOL    HW1 3914   3.494   3.274   3.097  1.5320 -0.2319  0.8238
  979SOL    HW2 3915   3.557   3.261   2.961  2.7038 -0.9758  1.4249
  979SOL     MW 3916   3.506   3.229   3.024  0.4645  0.2021  0.3474
  980SOL     OW 3917   4.264   0.516   3.707  0.1323 -0.0702 -0.4270
  980SOL    HW1 3918   4.298   0.448   3.648 -1.8184 -2.4167  0.9573
  980SOL    HW2 3919   4.342   0.563   3.737  1.7453 -2.5160 -0.5091
  980SOL     MW 3920   4.278   0.513   3.703  0.0891 -0.6836 -0.2603
  981SOL     OW 3921   0.031   4.535   5.257 -0.4931  0.5274 -0.2922
  981SOL    HW1 3922   0.113   4.517   5.303 -1.5488  0.9314  1.8513
  981SOL    HW2 3923  -0.005   4.449   5.236  0.1009  0.3380 -0.5374
  981SOL     MW 3924   0.037   4.522   5.260 -0.5522  0.5549 -0.0492
  982SOL     OW 3925   1.271   4.868   3.441 -0.2248 -0.4370 -0.2265
  982SOL    HW1 3926   1.345   4.822   3.482  0.1434 -0.8152 -1.2946
  982SOL    HW2 3927   1.220   4.901   3.515  1.3182  0.3226  0.5495
  982SOL     MW 3928   1.274   4.867   3.456  0.0199 -0.3882 -0.2639
  983SOL     OW 3929   5.205   0.417   1.819 -0.4591 -0.7967  0.2309
  983SOL    HW1 3930   5.149   0.484   1.779  2.5368  0.8859 -1.4658
  983SOL    HW2 3931   5.160   0.394   1.900 -1.8935  2.9574  0.6818
  983SOL     MW 3932   5.192   0.422   1.824 -0.2592 -0.1007  0.0714
  984SOL     OW 3933   2.549   4.779   0.511 -0.2997  0.5965 -0.1685
  984SOL    HW1 3934   2.626   4.836   0.502  0.5075 -0.3735  0.3370
  984SOL    HW2 3935   2.570   4.703   0.456  0.4759 -1.0483  2.2378
  984SOL     MW 3936   2.562   4.777   0.503 -0.0971  0.2618  0.2042
  985SOL     OW 3937   1.510   1.412   1.548  0.1921 -0.4019  0.1700
  985SOL    HW1 3938   1.564   1.333   1.537  0.0726 -0.6361  1.2177
  985SOL    HW2 3939   1.505   1.425   1.642 -2.5823 -1.0784  0.2003
  985SOL     MW 3940   1.516   1.403   1.558 -0.1784 -0.5184  0.3080
  986SOL     OW 3941   4.114   1.381   3.151  0.3779 -0.5018 -0.0106
  986SOL    HW1 3942   4.033   1.433   3.153  1.2863  0.9459  0.8892
  986SOL    HW2 3943   4.099   1.317   3.081 -0.3070  1.7889 -2.1262
  986SOL     MW 3944   4.102   1.379   3.142  0.4065 -0.0232 -0.1662
  987SOL     OW 3945   5.474   3.663   3.036  0.1377  0.7827 -0.0853
  987SOL    HW1 3946   5.491   3.709   2.954  1.0349 -0.2717 -0.5097
  987SOL    HW2 3947   5.475   3.570   3.013 -0.7726  0.5049  0.9175
  987SOL     MW 3948   5.476   3.657   3.023  0.1360  0.6121 -0.0112
  988SOL     OW 3949   0.909   3.901   2.610 -0.0089  0.3587  0.2523
  988SOL    HW1 3950   0.943   3.974   2.558 -1.6747  1.9603  1.2893
  988SOL    HW2 3951   0.897   3.937   2.698 -1.3480 -1.0045  0.6860
  988SOL     MW 3952   0.912   3.915   2.615 -0.3935  0.3892  0.4406
  989SOL     OW 3953   1.196   0.899   2.696  0.2365  0.7651  0.0071
  989SOL    HW1 3954   1.261   0.875   2.630 -1.7924 -0.8504 -1.5465
  989SOL    HW2 3955   1.241   0.887   2.779  2.2104  0.7091 -1.0065
  989SOL     MW 3956   1.210   0.894   2.698  0.2295  0.5511 -0.3216
  990SOL     OW 3957   5.492   4.927   0.996  0.7349 -0.5045 -0.2960
  990SOL    HW1 3958   5.437   4.870   1.051 -0.7069 -0.0779 -1.2506
  990SOL    HW2 3959   5.466   5.016   1.020  0.1336 -0.3078 -1.5754
  990SOL     MW 3960   5.481   4.931   1.006  0.4734 -0.4247 -0.5820
  991SOL     OW 3961   0.521   5.020   3.969 -0.2624  0.0124 -0.1666
  991SOL    HW1 3962   0.603   5.004   3.923  1.1858 -1.0754  2.5244
  991SOL    HW2 3963   0.546   5.078   4.042 -1.3788 -1.9250  1.8871
  991SOL     MW 3964   0.535   5.025   3.973 -0.2199 -0.3749  0.4408
  992SOL     OW 3965   3.917   1.991   1.390  0.0647 -0.9896 -0.3544
  992SOL    HW1 3966   3.959   1.961   1.310  0.2671  0.5088 -0.8399
  992SOL    HW2 3967   3.837   1.940   1.396  0.5028 -1.7636 -1.0163
  992SOL     MW 3968   3.912   1.981   1.381  0.1467 -0.8969 -0.5013
  993SOL     OW 3969   4.849   3.424   0.752  0.5606 -0.9705 -0.3537
  993SOL    HW1 3970   4.938   3.412   0.785  1.4586  1.0250 -1.8130
  993SOL    HW2 3971   4.818   3.504   0.794 -0.0558 -0.9594 -0.8049
  993SOL     MW 3972   4.856   3.433   0.761  0.5966 -0.7136 -0.5983
  994SOL     OW 3973   1.877   1.224   3.979 -0.4803  0.0486 -0.3657
  994SOL    HW1 3974   1.932   1.228   4.057 -2.4487  0.3754  1.1083
  994SOL    HW2 3975   1.936   1.241   3.906  1.5836 -1.0311  0.9611
  994SOL     MW 3976   1.891   1.227   3.980 -0.4681 -0.0478 -0.0072
  995SOL     OW 3977   1.684   0.613   5.361  0.3309 -0.2871 -0.0791
  995SOL    HW1 3978   1.600   0.650   5.388  1.3519  0.3969  2.4592
  995SOL    HW2 3979   1.665   0.521   5.341 -1.2431  0.1974 -0.9031
  995SOL     MW 3980   1.671   0.606   5.362  0.2601 -0.1375  0.1404
  996SOL     OW 3981   3.198   1.376   2.746  0.2243  0.2902  0.3785
  996SOL    HW1 3982   3.216   1.462   2.707 -2.6156  0.3105 -1.2237
  996SOL    HW2 3983   3.217   1.313   2.676  2.5170 -0.4946  1.6168
  996SOL     MW 3984   3.203   1.379   2.732  0.1543  0.1924  0.3319
  997SOL     OW 3985   4.306   4.860   4.518  0.1107 -0.0230  0.2865
  997SOL    HW1 3986   4.356   4.861   4.600  0.5632 -0.0293  0.0144
  997SOL    HW2 3987   4.372   4.851   4.450 -0.1050  1.7795 -0.2087
  997SOL     MW 3988   4.321   4.859   4.520  0.1410  0.2069  0.1883
  998SOL     OW 3989   3.519   0.275   2.012  0.2954  0.6465 -0.0151
  998SOL    HW1 3990   3.571   0.300   2.088 -0.9873 -0.4596  1.2921
  998SOL    HW2 3991   3.428   0.284   2.042 -0.2335 -0.2547 -1.2657
  998SOL     MW 3992   3.514   0.280   2.026  0.0635  0.3895 -0.0078
  999SOL     OW 3993   4.376   1.191   2.874  0.1415 -0.0096  0.2689
  999SOL    HW1 3994   4.285   1.215   2.894  1.2159  1.6203  4.0414
  999SOL    HW2 3995   4.400   1.130   2.943  2.2941  0.6060  0.1087
  999SOL     MW 3996   4.367   1.186   2.885  0.5546  0.2778  0.7313
 1000SOL     OW 3997   1.161   0.696   3.674 -0.2706 -0.2644  0.3870
 1000SOL    HW1 3998   1.068   0.717   3.684 -0.1267  0.3727  0.4329
 1000SOL    HW2 3999   1.167   0.652   3.589 -0.1514  2.7574 -1.3172
 1000SOL     MW 4000   1.150   0.693   3.664 -0.2370  0.2040  0.1747
 1001SOL     OW 4001   5.004   0.589   2.309 -0.3645  0.2252 -0.4548
 1001SOL    HW1 4002   5.070   0.591   2.239  0.6934 -1.4712  0.4167
 1001SOL    HW2 4003   5.051   0.622   2.386 -1.3113  1.4176 -0.3738
 1001SOL     MW 4004   5.019   0.593   2.310 -0.3503  0.1607 -0.3329
 1002SOL     OW 4005   5.272   4.384   0.861  0.1402 -0.4311 -1.0579
 1002SOL    HW1 4006   5.313   4.349   0.782 -1.0229 -0.5128 -1.6399
 1002SOL    HW2 4007   5.244   4.472   0.837  3.3727  1.1868  0.4989
 1002SOL     MW 4008   5.274   4.391   0.848  0.4051 -0.2345 -0.9331
 1003SOL     OW 4009   5.281   5.432   1.959 -0.9115  0.1595  0.3178
 1003SOL    HW1 4010   5.351   5.374   1.987 -0.8508 -0.1170 -0.3782
 1003SOL    HW2 4011   5.234   5.455   2.039 -0.8102 -0.6890  0.6207
 1003SOL     MW 4012   5.284   5.428   1.973 -0.8908  0.0154  0.2675
 1004SOL     OW 4013   3.253   2.107   5.192 -0.8688  0.2376 -0.2665
 1004SOL    HW1 4014   3.291   2.048   5.128  1.8151  2.1205 -0.5659
 1004SOL    HW2 4015   3.196   2.165   5.142 -0.9073  0.0066 -0.4889
 1004SOL     MW 4016   3.250   2.107   5.178 -0.5302  0.4491 -0.3333
 1005SOL     OW 4017   3.374   1.297   0.868 -0.4725  0.3894 -0.6921
 1005SOL    HW1 4018   3.380   1.236   0.942 -0.7714 -0.6286 -1.4853
 1005SOL    HW2 4019   3.413   1.378   0.901 -0.4106 -0.1070  0.5127
 1005SOL     MW 4020   3.380   1.300   0.882 -0.5029  0.1956 -0.6394
 1006SOL     OW 4021   0.863   3.414   0.060  0.0006  0.3007  0.2513
 1006SOL    HW1 4022   0.929   3.480   0.080 -0.4580  0.3316  1.7977
 1006SOL    HW2 4023   0.889   3.337   0.111 -1.2921  0.4208  1.1683
 1006SOL     MW 4024   0.874   3.412   0.069 -0.2236  0.3201  0.5667
 1007SOL     OW 4025   4.132   4.470   4.495 -0.2318 -0.8737  0.4245
 1007SOL    HW1 4026   4.071   4.416   4.545 -0.1263  0.3104  1.9503
 1007SOL    HW2 4027   4.095   4.558   4.500  0.5944 -0.4661 -0.3091
 1007SOL     MW 4028   4.120   4.475   4.502 -0.1125 -0.6700  0.5259
 1008SOL     OW 4029   3.766   1.513   2.080  0.3195 -0.1542 -0.2761
 1008SOL    HW1 4030   3.704   1.491   2.150  0.6141  0.4703  0.1971
 1008SOL    HW2 4031   3.741   1.458   2.006 -0.3623 -0.4065  0.1414
 1008SOL     MW 4032   3.755   1.503   2.079  0.2699 -0.1066 -0.1621
 1009SOL     OW 4033   0.461   4.896   0.328 -0.5789 -0.2463 -0.5232
 1009SOL    HW1 4034   0.378   4.848   0.324 -0.7875  0.1099 -0.4438
 1009SOL    HW2 4035   0.522   4.832   0.366 -0.9711 -0.3016  0.0401
 1009SOL     MW 4036   0.458   4.881   0.333 -0.6558 -0.2077 -0.4409
 1010SOL     OW 4037   3.111   4.216   4.454 -0.1143  0.3472  0.1380
 1010SOL    HW1 4038   3.159   4.185   4.531 -0.7940  1.0732  0.8800
 1010SOL    HW2 4039   3.169   4.278   4.412 -0.1753  0.8093  0.7209
 1010SOL     MW 4040   3.124   4.220   4.459 -0.2091  0.4993  0.3076
 1011SOL     OW 4041   1.679   2.015   1.400  0.2279 -0.4063 -0.2693
 1011SOL    HW1 4042   1.731   2.017   1.481  0.0974 -0.8452 -0.1740
 1011SOL    HW2 4043   1.738   1.977   1.335 -0.0514 -1.1238 -0.1049
 1011SOL     MW 4044   1.693   2.011   1.402  0.1754 -0.5543 -0.2360
 1012SOL     OW 4045   1.472   5.466   4.719  0.2001 -0.5228  0.4600
 1012SOL    HW1 4046   1.397   5.410   4.739  0.0011 -0.7121 -0.7407
 1012SOL    HW2 4047   1.480   5.524   4.795 -0.1035 -1.6121  1.3563
 1012SOL     MW 4048   1.464   5.466   4.731  0.1358 -0.6865  0.4210
 1013SOL     OW 4049   0.892   0.537   1.326  0.2704  0.1944 -0.1887
 1013SOL    HW1 4050   0.861   0.451   1.354 -0.6383 -0.0765 -1.8890
 1013SOL    HW2 4051   0.858   0.597   1.392 -0.7344 -0.5302 -0.0265
 1013SOL     MW 4052   0.884   0.534   1.338  0.0255  0.0670 -0.3856
 1014SOL     OW 4053   0.125   0.031   2.243  0.5570  0.4928  0.4074
 1014SOL    HW1 4054   0.087   0.106   2.198 -0.6073 -0.0289  0.4848
 1014SOL    HW2 4055   0.192   0.068   2.300  1.0520  1.3084 -0.6734
 1014SOL     MW 4056   0.129   0.045   2.244  0.4713  0.5305  0.2790
 1015SOL     OW 4057   1.824   3.200   0.150  0.4409 -0.3868 -0.3639
 1015SOL    HW1 4058   1.878   3.227   0.075 -0.6008  0.4691 -0.8351
 1015SOL    HW2 4059   1.763   3.273   0.162  0.3800 -0.6596  1.1214
 1015SOL     MW 4060   1.823   3.213   0.142  0.2998 -0.3122 -0.2341
 1016SOL     OW 4061   4.051   4.435   0.804  0.2795 -0.1618  0.1954
 1016SOL    HW1 4062   3.986   4.500   0.779  0.2278 -0.2610  0.0718
 1016SOL    HW2 4063   4.135   4.478   0.789  0.2377  0.2112  0.9987
 1016SOL     MW 4064   4.053   4.449   0.799  0.2676 -0.1267  0.2824
 1017SOL     OW 4065   1.986   3.106   3.110 -0.0564  0.6404 -0.2105
 1017SOL    HW1 4066   2.068   3.072   3.145  0.3959  0.6240 -1.2627
 1017SOL    HW2 4067   1.935   3.128   3.188  0.8147  0.3593  0.4626
 1017SOL     MW 4068   1.990   3.104   3.125  0.1130  0.6023 -0.2590
 1018SOL     OW 4069   0.059   0.050   0.276 -0.3770  0.2095  0.2918
 1018SOL    HW1 4070  -0.008   0.114   0.250 -0.9484 -0.2643  0.5654
 1018SOL    HW2 4071   0.098   0.022   0.193 -0.0793  0.9434  0.1687
 1018SOL     MW 4072   0.055   0.055   0.262 -0.4120  0.2428  0.3111
 1019SOL     OW 4073   0.521   2.524   4.959 -0.1954 -0.5860 -0.0260
 1019SOL    HW1 4074   0.583   2.462   4.919 -0.6375 -1.5565  0.7476
 1019SOL    HW2 4075   0.463   2.469   5.012 -0.3511  0.5373  1.0170
 1019SOL     MW 4076   0.521   2.509   4.960 -0.2719 -0.5665  0.2066
 1020SOL     OW 4077   4.594   3.008   1.964 -0.0654  0.1002 -0.4438
 1020SOL    HW1 4078   4.549   2.943   1.909 -0.3468 -0.3195  0.2661
 1020SOL    HW2 4079   4.650   3.056   1.903  0.6525 -1.2417 -0.9049
 1020SOL     MW 4080   4.596   3.006   1.949 -0.0095 -0.1253 -0.4120
 1021SOL     OW 4081   2.867   3.407   2.471  0.3165  0.2177  0.2449
 1021SOL    HW1 4082   2.890   3.387   2.561  3.1182 -2.3198 -0.8476
 1021SOL    HW2 4083   2.784   3.362   2.456  0.8444 -1.0753  1.0519
 1021SOL     MW 4084   2.860   3.399   2.480  0.7427 -0.2726  0.2084
 1022SOL     OW 4085   2.318   4.527   1.895  0.5815  0.4720 -0.0979
 1022SOL    HW1 4086   2.343   4.619   1.895 -0.6578  0.8241 -0.3035
 1022SOL    HW2 4087   2.400   4.480   1.877  1.3870  1.4669  0.8409
 1022SOL     MW 4088   2.332   4.533   1.893  0.5260  0.6444 -0.0040
 1023SOL     OW 4089   4.449   3.108   1.419  0.1268  0.2801  0.2179
 1023SOL    HW1 4090   4.528   3.101   1.365 -0.5071 -1.7204 -0.5613
 1023SOL    HW2 4091   4.438   3.202   1.433  1.4272  0.7412 -1.4672
 1023SOL     MW 4092   4.458   3.119   1.414  0.2121  0.0830 -0.0975
 1024SOL     OW 4093   3.557   0.228   3.725  0.2014 -0.3671 -0.4059
 1024SOL    HW1 4094   3.603   0.285   3.664  0.8419 -0.2873  0.1435
 1024SOL    HW2 4095   3.502   0.288   3.776 -0.5594 -0.4675 -1.0915
 1024SOL     MW 4096   3.556   0.243   3.724  0.1860 -0.3697 -0.4234
 1025SOL     OW 4097   1.415   3.458   2.951 -0.3676  0.1360  0.0170
 1025SOL    HW1 4098   1.458   3.487   3.031 -1.8876  0.8698  0.6023
 1025SOL    HW2 4099   1.440   3.523   2.885  0.8876 -0.4722 -0.1307
 1025SOL     MW 4100   1.424   3.470   2.952 -0.4015  0.1521  0.0730
 1026SOL     OW 4101   3.277   2.797   3.726 -0.0036 -0.2440  0.0071
 1026SOL    HW1 4102   3.304   2.879   3.686  0.1495  0.0492  0.6843
 1026SOL    HW2 4103   3.307   2.804   3.817  1.4102 -1.6772 -0.2858
 1026SOL     MW 4104   3.284   2.808   3.733  0.1970 -0.3900  0.0563
 1027SOL     OW 4105   1.651   0.044   0.488 -0.0666 -0.4137 -0.5770
 1027SOL    HW1 4106   1.665   0.034   0.394 -0.5024 -0.3289 -0.6570
 1027SOL    HW2 4107   1.567   0.000   0.504  0.6604 -1.6465  0.0162
 1027SOL     MW 4108   1.642   0.037   0.478 -0.0293 -0.5606 -0.5113
 1028SOL     OW 4109   4.963   1.411   3.926  0.1995  0.5842 -0.0086
 1028SOL    HW1 4110   5.037   1.421   3.986  0.0158 -0.3021  0.3764
 1028SOL    HW2 4111   4.905   1.485   3.946 -0.2183 -0.1107  1.4431
 1028SOL     MW 4112   4.965   1.422   3.936  0.1225  0.3818  0.2265
 1029SOL     OW 4113   3.866   0.504   4.895  0.5564  0.1518  0.5572
 1029SOL    HW1 4114   3.792   0.448   4.917  0.7681 -1.7631 -2.8475
 1029SOL    HW2 4115   3.827   0.577   4.845  0.7519  0.4848  0.8852
 1029SOL     MW 4116   3.852   0.507   4.891  0.6085 -0.0507  0.1633
 1030SOL     OW 4117   5.368   2.876   0.545  0.1338 -0.4539 -0.3836
 1030SOL    HW1 4118   5.459   2.899   0.564  0.3253 -0.0334 -1.6741
 1030SOL    HW2 4119   5.329   2.856   0.630  1.4030 -0.5338  0.1932
 1030SOL     MW 4120   5.375   2.876   0.558  0.3208 -0.4103 -0.4750
 1031SOL     OW 4121   3.314   1.295   2.991  0.8749  0.6584  0.9693
 1031SOL    HW1 4122   3.292   1.308   2.899  1.3924 -0.8282  0.6134
 1031SOL    HW2 4123   3.229   1.300   3.036  0.5830  1.1229  0.3913
 1031SOL     MW 4124   3.300   1.298   2.985  0.9038  0.5275  0.8497
 1032SOL     OW 4125   3.592   5.356   2.391  0.2432 -0.3319 -0.5949
 1032SOL    HW1 4126   3.521   5.382   2.451 -0.4790 -1.0645 -1.1040
 1032SOL    HW2 4127   3.648   5.300   2.443 -0.3621 -0.9360 -0.5772
 1032SOL     MW 4128   3.590   5.352   2.405  0.0733 -0.5030 -0.6578
 1033SOL     OW 4129   2.836   0.885   0.323 -0.3788 -0.3476  0.0100
 1033SOL    HW1 4130   2.927   0.856   0.325 -0.4253 -0.5262 -0.4771
 1033SOL    HW2 4131   2.839   0.976   0.355  0.3392  0.5996 -2.5396
 1033SOL     MW 4132   2.848   0.893   0.328 -0.2928 -0.2492 -0.3787
 1034SOL     OW 4133   4.687   0.318   1.426  0.5416 -0.1799  0.5071
 1034SOL    HW1 4134   4.593   0.304   1.411  0.2683  0.7499  1.2414
 1034SOL    HW2 4135   4.694   0.412   1.443  1.5223 -0.3560  1.1141
 1034SOL     MW 4136   4.676   0.328   1.426  0.6321 -0.0834  0.6788
 1035SOL     OW 4137   0.825   4.809   2.857 -0.0651 -0.0140  0.0359
 1035SOL    HW1 4138   0.874   4.728   2.848  0.6379  0.4391 -0.2967
 1035SOL    HW2 4139   0.851   4.862   2.782 -2.9668 -0.7015 -1.5849
 1035SOL     MW 4140   0.835   4.805   2.846 -0.3466 -0.0440 -0.2141
 1036SOL     OW 4141   4.684   4.466   3.603  0.4285 -0.4577  0.1940
 1036SOL    HW1 4142   4.607   4.491   3.655 -0.7370 -0.7344 -1.3436
 1036SOL    HW2 4143   4.653   4.464   3.513  1.8036 -2.3487 -0.2966
 1036SOL     MW 4144   4.670   4.469   3.598  0.4553 -0.7352 -0.0656
 1037SOL     OW 4145   0.716   2.383   3.117  0.3119  0.0246 -0.5389
 1037SOL    HW1 4146   0.780   2.423   3.059 -0.9074 -1.5137 -3.0790
 1037SOL    HW2 4147   0.748   2.294   3.131  1.7063  0.8913  3.0664
 1037SOL     MW 4148   0.728   2.377   3.112  0.3343 -0.0614 -0.4025
 1038SOL     OW 4149   1.903   1.313   5.351  0.2497 -0.2071 -0.2709
 1038SOL    HW1 4150   1.954   1.247   5.398  0.3233  1.0828  1.5688
 1038SOL    HW2 4151   1.930   1.304   5.260  1.9846 -1.1610  0.2990
 1038SOL     MW 4152   1.913   1.303   5.345  0.4812 -0.1641  0.0375
 1039SOL     OW 4153   0.043   2.251   3.998 -0.5199 -0.1391  0.6277
 1039SOL    HW1 4154   0.094   2.180   4.037  0.8705  1.0254  1.0260
 1039SOL    HW2 4155   0.067   2.328   4.048 -4.2666  0.2184  2.2259
 1039SOL     MW 4156   0.053   2.252   4.010 -0.8215  0.0557  0.8833
 1040SOL     OW 4157   1.237   0.018   3.397  0.1210 -0.0329 -0.0626
 1040SOL    HW1 4158   1.177   0.077   3.351  1.4678 -0.4762 -2.5444
 1040SOL    HW2 4159   1.186  -0.062   3.410 -0.6034  0.4507  0.1023
 1040SOL     MW 4160   1.223   0.015   3.393  0.2006 -0.0277 -0.3592
 1041SOL     OW 4161   0.991   2.215   0.091  0.0006  0.5376 -0.8860
 1041SOL    HW1 4162   0.924   2.278   0.118 -1.1155 -0.6824 -0.6772
 1041SOL    HW2 4163   0.954   2.172   0.014 -0.0018 -0.9752 -0.0693
 1041SOL     MW 4164   0.977   2.218   0.085 -0.1426  0.1878 -0.7547
 1042SOL     OW 4165   2.931   5.098   0.238 -0.3877  0.3874  0.1289
 1042SOL    HW1 4166   2.980   5.180   0.249 -1.9037  1.1918  1.3657
 1042SOL    HW2 4167   2.966   5.040   0.305  0.5856  0.0654 -0.6488
 1042SOL     MW 4168   2.941   5.101   0.248 -0.4572  0.4492  0.1876
 1043SOL     OW 4169   1.772   2.086   1.822  0.3691  0.5145 -0.5858
 1043SOL    HW1 4170   1.684   2.092   1.861  1.2985  0.6170  1.6773
 1043SOL    HW2 4171   1.809   2.006   1.861  1.0402  0.0837 -2.0613
 1043SOL     MW 4172   1.765   2.076   1.832  0.5740  0.4725 -0.4850
 1044SOL     OW 4173   3.969   1.796   2.433  0.0636 -0.2287 -0.2727
 1044SOL    HW1 4174   3.954   1.712   2.390  0.1393 -1.3408  1.7308
 1044SOL    HW2 4175   3.882   1.837   2.435 -0.1492 -0.6530 -0.4877
 1044SOL     MW 4176   3.956   1.790   2.428  0.0460 -0.4254 -0.0437
 1045SOL     OW 4177   3.850   1.250   0.024 -0.1981 -0.0007  0.4312
 1045SOL    HW1 4178   3.939   1.287   0.021 -0.2556  0.0750 -0.8319
 1045SOL    HW2 4179   3.860   1.160  -0.004 -0.6283  0.2427 -0.5315
 1045SOL     MW 4180   3.863   1.243   0.020 -0.2605  0.0401  0.1463
 1046SOL     OW 4181   3.207   0.468   0.061 -0.1414  0.1148  0.0597
 1046SOL    HW1 4182   3.190   0.513  -0.021 -0.6205 -0.6659 -0.2782
 1046SOL    HW2 4183   3.218   0.376   0.037 -0.5773 -0.1699  0.9022
 1046SOL     MW 4184   3.206   0.462   0.048 -0.2585 -0.0216  0.1243
 1047SOL     OW 4185   2.067   3.751   2.313  0.0715 -0.0816 -0.1912
 1047SOL    HW1 4186   2.077   3.740   2.407 -1.3583  2.2908  0.3088
 1047SOL    HW2 4187   1.992   3.696   2.290  0.3937 -0.6267  0.0222
 1047SOL     MW 4188   2.059   3.742   2.322 -0.0703  0.1523 -0.0998
 1048SOL     OW 4189   3.530   1.076   4.142  0.3921  0.4818  0.0274
 1048SOL    HW1 4190   3.584   1.013   4.190  1.2291 -0.1679 -1.6932
 1048SOL    HW2 4191   3.582   1.156   4.141  0.6532  0.3143 -0.2856
 1048SOL     MW 4192   3.544   1.078   4.148  0.5327  0.3772 -0.2330
 1049SOL     OW 4193   4.145   2.157   4.469 -0.3658 -0.0784 -0.0230
 1049SOL    HW1 4194   4.206   2.109   4.413  1.3862  1.6847  0.2400
 1049SOL    HW2 4195   4.059   2.122   4.448  0.7036 -2.7035 -0.4198
 1049SOL     MW 4196   4.142   2.147   4.459 -0.0046 -0.1888 -0.0401
 1050SOL     OW 4197   4.227   0.622   1.808  0.2969  0.1556  0.2236
 1050SOL    HW1 4198   4.167   0.681   1.854  0.3540  0.8633 -0.5900
 1050SOL    HW2 4199   4.190   0.535   1.822 -0.6709  0.5380  0.1137
 1050SOL     MW 4200   4.215   0.619   1.816  0.1803  0.2952  0.1054
 1051SOL     OW 4201   1.365   4.389   2.758  0.1033  1.0310 -0.2034
 1051SOL    HW1 4202   1.436   4.327   2.772 -0.6204  0.2775  0.2365
 1051SOL    HW2 4203   1.380   4.425   2.671 -0.6120 -1.3304 -1.3919
 1051SOL     MW 4204   1.376   4.386   2.749 -0.0809  0.6322 -0.2992
 1052SOL     OW 4205   0.516   0.176   2.130  0.2966 -0.2877 -0.1476
 1052SOL    HW1 4206   0.498   0.105   2.192  0.0913 -0.2366 -0.1486
 1052SOL    HW2 4207   0.508   0.135   2.044  0.6585 -0.3772 -0.1417
 1052SOL     MW 4208   0.513   0.162   2.127  0.3166 -0.2926 -0.1470
 1053SOL     OW 4209   3.055   2.039   0.996  0.3944 -0.0548 -0.1286
 1053SOL    HW1 4210   3.123   2.071   1.055 -1.7883  0.0839  2.5117
 1053SOL    HW2 4211   3.014   2.117   0.961 -0.2085 -0.0636  0.5365
 1053SOL     MW 4212   3.058   2.053   0.999  0.0378 -0.0382  0.2945
 1054SOL     OW 4213   2.824   2.353   1.333 -0.0314 -0.4240  0.1435
 1054SOL    HW1 4214   2.824   2.398   1.418 -1.3988 -0.9221  0.4373
 1054SOL    HW2 4215   2.815   2.422   1.269 -1.9313 -0.2205  0.5789
 1054SOL     MW 4216   2.823   2.367   1.336 -0.4496 -0.4617  0.2368
 1055SOL     OW 4217   2.023   2.816   3.770  0.5615 -0.3950 -0.2675
 1055SOL    HW1 4218   1.997   2.880   3.704  0.3559  0.5385  0.6843
 1055SOL    HW2 4219   2.112   2.841   3.794  0.7899 -0.9890 -0.4879
 1055SOL     MW 4220   2.031   2.828   3.765  0.5644 -0.3515 -0.1739
 1056SOL     OW 4221   3.034   5.160   0.878 -0.2344 -0.2107 -0.2682
 1056SOL    HW1 4222   3.021   5.233   0.938  1.4245  0.5878 -0.8398
 1056SOL    HW2 4223   3.053   5.085   0.935  1.2482  0.5215  0.2361
 1056SOL     MW 4224   3.035   5.160   0.893  0.1678 -0.0148 -0.2768
 1057SOL     OW 4225   3.191   2.398   0.315 -0.4692  0.1100  0.0315
 1057SOL    HW1 4226   3.259   2.417   0.380 -1.3710  0.2007  0.9778
 1057SOL    HW2 4227   3.235   2.347   0.248  0.3138 -0.6980  1.1261
 1057SOL     MW 4228   3.205   2.394   0.315 -0.4844  0.0182  0.2928
 1058SOL     OW 4229   1.793   0.447   2.432 -0.1432  0.5284  0.2109
 1058SOL    HW1 4230   1.880   0.437   2.471  0.6330 -0.2181 -1.5680
 1058SOL    HW2 4231   1.745   0.370   2.461  1.0689 -1.0804 -1.7534
 1058SOL     MW 4232   1.798   0.436   2.440  0.1113  0.2269 -0.2683
 1059SOL     OW 4233   3.701   2.734   4.216  0.3042  0.6381  0.0260
 1059SOL    HW1 4234   3.646   2.658   4.237 -0.2074  1.1081  0.4276
 1059SOL    HW2 4235   3.661   2.771   4.137  0.8294  0.2295 -0.4383
 1059SOL     MW 4236   3.689   2.729   4.209  0.3059  0.6459  0.0179
 1060SOL     OW 4237   5.378   1.254   3.585 -0.4588 -0.4398  0.1463
 1060SOL    HW1 4238   5.458   1.300   3.608 -0.1012 -2.2432  2.9685
 1060SOL    HW2 4239   5.394   1.221   3.496  1.3907  0.2799  0.1696
 1060SOL     MW 4240   5.390   1.256   3.576 -0.1762 -0.5785  0.5106
 1061SOL     OW 4241   1.068   4.421   0.493 -0.3960  0.0993 -0.7106
 1061SOL    HW1 4242   1.087   4.492   0.554 -0.0855  0.5624 -1.3410
 1061SOL    HW2 4243   1.014   4.460   0.425 -0.2055 -0.2577 -1.0740
 1061SOL     MW 4244   1.064   4.435   0.492 -0.3318  0.1129 -0.8378
 1062SOL     OW 4245   4.184   2.452   2.241 -0.6275 -0.2474  0.2504
 1062SOL    HW1 4246   4.263   2.491   2.205 -0.1099  0.7045  2.2577
 1062SOL    HW2 4247   4.206   2.359   2.250 -1.0272 -0.6688 -2.3598
 1062SOL     MW 4248   4.197   2.445   2.238 -0.6124 -0.1795  0.1732
 1063SOL     OW 4249   2.759   3.577   4.618 -0.1606  0.0283 -0.4819
 1063SOL    HW1 4250   2.720   3.649   4.667 -0.8128  0.8459 -2.1250
 1063SOL    HW2 4251   2.695   3.556   4.551  0.1420 -1.9265 -0.2222
 1063SOL     MW 4252   2.746   3.583   4.616 -0.2054 -0.1173 -0.6590
 1064SOL     OW 4253   0.623   2.683   1.358 -0.3557 -0.3443 -0.0716
 1064SOL    HW1 4254   0.594   2.615   1.297 -0.3256 -1.2404  0.8958
 1064SOL    HW2 4255   0.668   2.635   1.428 -0.2754  0.6785  0.5900
 1064SOL     MW 4256   0.625   2.668   1.359 -0.3416 -0.3280  0.1369
 1065SOL     OW 4257   3.690   4.090   1.457  0.3229  0.3545 -0.5835
 1065SOL    HW1 4258   3.605   4.068   1.419  0.5231 -0.2650 -0.6823
 1065SOL    HW2 4259   3.754   4.046   1.400  0.6146 -0.9322  0.6693
 1065SOL     MW 4260   3.687   4.082   1.445  0.3858  0.1105 -0.4358
 1066SOL     OW 4261   2.233   1.478   2.392  0.1542  0.5038 -0.4112
 1066SOL    HW1 4262   2.209   1.529   2.469 -1.4328  0.5023 -0.8539
 1066SOL    HW2 4263   2.156   1.424   2.375  0.4488  0.5399 -2.0088
 1066SOL     MW 4264   2.220   1.478   2.399 -0.0113  0.5083 -0.6724
 1067SOL     OW 4265   4.423   1.927   4.452  0.1628 -0.2609 -0.4035
 1067SOL    HW1 4266   4.344   1.920   4.398  0.6069 -0.8285 -0.9996
 1067SOL    HW2 4267   4.394   1.905   4.540 -1.1718  3.3913  0.2237
 1067SOL     MW 4268   4.409   1.923   4.456  0.0488  0.1340 -0.3995
 1068SOL     OW 4269   2.140   3.841   0.422 -0.1179  0.0018 -0.2319
 1068SOL    HW1 4270   2.086   3.905   0.377  1.4623  1.2264 -0.4553
 1068SOL    HW2 4271   2.125   3.857   0.515  1.2394  1.6456 -0.2419
 1068SOL     MW 4272   2.131   3.851   0.428  0.2581  0.3690 -0.2618
 1069SOL     OW 4273   2.406   0.802   3.794 -0.3263 -0.1546 -0.1787
 1069SOL    HW1 4274   2.397   0.776   3.885  0.6730 -1.5940 -0.4593
 1069SOL    HW2 4275   2.344   0.746   3.747  0.1894 -0.4331 -0.5355
 1069SOL     MW 4276   2.397   0.791   3.799 -0.1323 -0.3745 -0.2603
 1070SOL     OW 4277   1.858   2.730   0.059  0.7379 -0.1444  0.0212
 1070SOL    HW1 4278   1.881   2.640   0.078  1.0400  0.0567  0.6125
 1070SOL    HW2 4279   1.812   2.761   0.137  1.0976  0.3753  0.0314
 1070SOL     MW 4280   1.855   2.722   0.071  0.8226 -0.0521  0.0982
 1071SOL     OW 4281   0.465   0.813   5.355  0.0288 -0.4694  0.5117
 1071SOL    HW1 4282   0.527   0.882   5.378  0.6855 -1.1658  0.8244
 1071SOL    HW2 4283   0.511   0.731   5.372 -1.3726 -1.0236  1.8814
 1071SOL     MW 4284   0.479   0.812   5.360 -0.0665 -0.6295  0.7270
 1072SOL     OW 4285   4.490   1.047   3.089  0.1327 -0.4537  0.1539
 1072SOL    HW1 4286   4.551   1.085   3.153  0.2696 -1.0927  0.4072
 1072SOL    HW2 4287   4.453   0.971   3.134 -1.6068  0.4789  0.3869
 1072SOL     MW 4288   4.493   1.042   3.103 -0.0725 -0.4161  0.2161
 1073SOL     OW 4289   0.903   4.454   3.085  0.2947 -0.0692 -0.1979
 1073SOL    HW1 4290   0.909   4.525   3.148  2.4273 -1.1517  0.9444
 1073SOL    HW2 4291   0.816   4.416   3.100  0.1244  0.7190  0.9413
 1073SOL     MW 4292   0.892   4.458   3.095  0.5459 -0.1068  0.0942
 1074SOL     OW 4293   2.501   3.669   1.235 -0.5502  0.5215  0.0939
 1074SOL    HW1 4294   2.567   3.728   1.199  1.1105 -0.9768  0.5388
 1074SOL    HW2 4295   2.455   3.634   1.159  0.0660  0.5870 -0.3131
 1074SOL     MW 4296   2.504   3.672   1.221 -0.2587  0.3381  0.0988
 1075SOL     OW 4297   4.377   0.916   5.030 -0.1231 -0.1089 -0.0316
 1075SOL    HW1 4298   4.333   0.840   4.994 -0.4876  1.0203 -2.1140
 1075SOL    HW2 4299   4.470   0.899   5.017 -0.2032 -0.2162 -0.4671
 1075SOL     MW 4300   4.383   0.904   5.024 -0.1800  0.0219 -0.3539
 1076SOL     OW 4301   3.622   4.453   2.136 -0.1095 -0.2673  0.0410
 1076SOL    HW1 4302   3.560   4.517   2.103 -0.0673 -0.4423 -0.3786
 1076SOL    HW2 4303   3.703   4.470   2.088  0.4556  0.5674  1.2385
 1076SOL     MW 4304   3.625   4.463   2.126 -0.0318 -0.1829  0.1406
 1077SOL     OW 4305   2.140   1.292   2.682  0.0695  0.4339 -0.4083
 1077SOL    HW1 4306   2.093   1.289   2.599 -3.5418 -1.6974  1.4245
 1077SOL    HW2 4307   2.172   1.202   2.694 -0.3473  0.4365  0.8923
 1077SOL     MW 4308   2.138   1.280   2.673 -0.4461  0.1614 -0.0072
 1078SOL     OW 4309   1.999   1.340   2.415 -0.2676  0.0507  0.1637
 1078SOL    HW1 4310   2.030   1.252   2.392 -0.3661 -0.2873  1.2752
 1078SOL    HW2 4311   1.904   1.333   2.414 -0.3195 -0.5517  2.6229
 1078SOL     MW 4312   1.991   1.328   2.412 -0.2868 -0.0697  0.6208
 1079SOL     OW 4313   1.635   3.042   4.276 -0.1567 -0.3190  0.1749
 1079SOL    HW1 4314   1.634   2.970   4.339  1.5219  0.5281  1.2414
 1079SOL    HW2 4315   1.726   3.048   4.247  0.0186  2.0254  0.9734
 1079SOL     MW 4316   1.646   3.034   4.280  0.0807  0.0895  0.4137
 1080SOL     OW 4317   2.253   0.057   3.162  0.2456  0.0164 -0.5053
 1080SOL    HW1 4318   2.318  -0.008   3.135 -0.6691 -1.9430  1.7174
 1080SOL    HW2 4319   2.302   0.120   3.215  0.4180 -1.4634  1.1902
 1080SOL     MW 4320   2.267   0.057   3.165  0.1506 -0.4239 -0.0037
 1081SOL     OW 4321   0.996   4.372   1.454  0.0309  0.2366 -0.4063
 1081SOL    HW1 4322   0.984   4.351   1.547 -1.2920  0.7598 -0.4325
 1081SOL    HW2 4323   1.090   4.386   1.445  0.4300 -1.5351  0.4658
 1081SOL     MW 4324   1.006   4.371   1.465 -0.0874  0.0768 -0.2980
 1082SOL     OW 4325   0.172   4.976   4.468 -0.2041 -0.4074 -0.0748
 1082SOL    HW1 4326   0.180   4.890   4.426  0.8205 -0.1777 -0.3768
 1082SOL    HW2 4327   0.125   5.030   4.404  1.3087 -0.0725 -0.9637
 1082SOL     MW 4328   0.167   4.972   4.454  0.1207 -0.3351 -0.2273
 1083SOL     OW 4329   3.536   3.628   2.387 -0.1904 -0.4385 -0.2919
 1083SOL    HW1 4330   3.528   3.692   2.316  1.5776  0.6320  0.4081
 1083SOL    HW2 4331   3.625   3.595   2.380 -0.3455 -1.1443  0.7660
 1083SOL     MW 4332   3.546   3.632   2.377  0.0161 -0.3918 -0.0669
 1084SOL     OW 4333   5.169   1.831   1.457 -0.1756  0.4461 -0.2709
 1084SOL    HW1 4334   5.195   1.809   1.367 -0.9918  0.3708 -0.4947
 1084SOL    HW2 4335   5.240   1.795   1.511  1.5078  2.4777 -1.0038
 1084SOL     MW 4336   5.182   1.823   1.452 -0.0646  0.6965 -0.3934
 1085SOL     OW 4337   3.381   0.419   3.797 -0.0016  0.2023  0.4735
 1085SOL    HW1 4338   3.382   0.498   3.851  0.4542  0.0768  0.6629
 1085SOL    HW2 4339   3.330   0.356   3.849  0.2234  0.1599  0.6477
 1085SOL     MW 4340   3.375   0.421   3.811  0.0855  0.1808  0.5200
 1086SOL     OW 4341   3.340   4.770   4.903  0.0912  0.0566  0.5890
 1086SOL    HW1 4342   3.346   4.866   4.906 -1.9948  0.2410  0.0120
 1086SOL    HW2 4343   3.364   4.748   4.813 -3.6427  0.5096 -0.6929
 1086SOL     MW 4344   3.344   4.780   4.892 -0.6538  0.1382  0.3510
 1087SOL     OW 4345   3.483   1.166   1.100 -0.6298 -0.0219 -0.1103
 1087SOL    HW1 4346   3.464   1.078   1.134  2.3700  0.4024  3.2533
 1087SOL    HW2 4347   3.567   1.156   1.055 -0.8413  0.9154 -0.7349
 1087SOL     MW 4348   3.491   1.153   1.099 -0.2729  0.1524  0.2403
 1088SOL     OW 4349   4.338   0.056   4.409  0.1726  0.0946  0.5300
 1088SOL    HW1 4350   4.287   0.130   4.442 -0.4922 -0.9524  1.9465
 1088SOL    HW2 4351   4.286  -0.021   4.432  1.1095 -0.8552 -0.4263
 1088SOL     MW 4352   4.325   0.055   4.416  0.2074 -0.1610  0.5889
 1089SOL     OW 4353   5.057   2.305   0.997  0.0486 -0.1314 -0.2424
 1089SOL    HW1 4354   5.089   2.391   1.023  1.1593 -0.0860 -1.6553
 1089SOL    HW2 4355   5.075   2.300   0.903 -2.2073 -0.9650 -0.6799
 1089SOL     MW 4356   5.064   2.315   0.988 -0.0980 -0.2323 -0.4793
 1090SOL     OW 4357   5.067   1.108   2.727 -0.2020 -0.1669  0.0847
 1090SOL    HW1 4358   4.986   1.103   2.778  0.1989 -1.8382  0.5975
 1090SOL    HW2 4359   5.109   1.189   2.757 -1.8313  0.9374 -0.4713
 1090SOL     MW 4360   5.062   1.118   2.737 -0.3593 -0.2395  0.0792
 1091SOL     OW 4361   5.273   2.805   4.418 -0.2289 -0.6083  0.0996
 1091SOL    HW1 4362   5.194   2.834   4.465  1.0734 -1.9941  3.3991
 1091SOL    HW2 4363   5.255   2.714   4.395 -0.5759 -0.1428 -1.7099
 1091SOL     MW 4364   5.260   2.797   4.421 -0.1066 -0.7261  0.2903
 1092SOL     OW 4365   1.984   4.051   5.173 -0.2900  0.0579 -0.0069
 1092SOL    HW1 4366   2.061   4.024   5.124 -0.8274 -0.2706 -0.6957
 1092SOL    HW2 4367   1.922   4.081   5.106 -0.5267  0.9260  0.5782
 1092SOL     MW 4368   1.986   4.052   5.158 -0.3891  0.1269 -0.0201
 1093SOL     OW 4369   3.298   4.550   2.409 -0.5128  0.6609  0.6675
 1093SOL    HW1 4370   3.345   4.633   2.416 -0.2389  0.7348 -1.4163
 1093SOL    HW2 4371   3.206   4.576   2.398 -0.4715  0.6833  0.3646
 1093SOL     MW 4372   3.292   4.564   2.409 -0.4725  0.6733  0.3620
 1094SOL     OW 4373   2.165   5.501   1.278  0.0385  0.3794 -0.5660
 1094SOL    HW1 4374   2.167   5.442   1.203 -2.8420  0.6416 -0.9299
 1094SOL    HW2 4375   2.152   5.444   1.353 -1.1112  0.4006 -0.7379
 1094SOL     MW 4376   2.164   5.487   1.278 -0.4774  0.4157 -0.6346
 1095SOL     OW 4377   1.411   4.779   5.349 -0.1698 -0.1343 -0.3711
 1095SOL    HW1 4378   1.507   4.779   5.351 -0.1693  1.0294  0.0288
 1095SOL    HW2 4379   1.389   4.842   5.280 -0.6619 -1.7858 -1.8107
 1095SOL     MW 4380   1.421   4.787   5.340 -0.2328 -0.1968 -0.5042
 1096SOL     OW 4381   5.048   0.878   4.439 -0.1071  0.0407  0.3312
 1096SOL    HW1 4382   5.090   0.802   4.480 -1.1501 -1.0448 -0.5208
 1096SOL    HW2 4383   5.119   0.923   4.394  0.3131 -1.3629 -0.4982
 1096SOL     MW 4384   5.062   0.874   4.438 -0.1868 -0.2780  0.1159
 1097SOL     OW 4385   3.682   0.008   2.173  0.1050 -0.4711  0.6931
 1097SOL    HW1 4386   3.742   0.078   2.199 -0.9365  0.0810  1.7519
 1097SOL    HW2 4387   3.638  -0.017   2.255 -1.5663 -0.3941 -0.1414
 1097SOL     MW 4388   3.684   0.014   2.187 -0.2423 -0.3906  0.7218
 1098SOL     OW 4389   1.836   4.175   4.942  0.1396  0.1060 -0.5499
 1098SOL    HW1 4390   1.914   4.231   4.950  0.1737 -0.2336  2.6853
 1098SOL    HW2 4391   1.765   4.235   4.919  0.3058  1.4952  2.1676
 1098SOL     MW 4392   1.837   4.190   4.940  0.1653  0.2403  0.2121
 1099SOL     OW 4393   5.280   0.054   2.616  0.4547 -0.2100 -0.4054
 1099SOL    HW1 4394   5.308   0.006   2.538 -2.8119 -1.9909 -0.6541
 1099SOL    HW2 4395   5.202   0.101   2.589  0.0072  0.2216  1.4758
 1099SOL     MW 4396   5.274   0.053   2.603 -0.0208 -0.3827 -0.1964
 1100SOL     OW 4397   4.693   4.146   5.421  0.2028  0.7261  0.2421
 1100SOL    HW1 4398   4.635   4.163   5.346  0.2576  0.0888  0.0498
 1100SOL    HW2 4399   4.647   4.185   5.495 -1.3489 -1.1960  0.3996
 1100SOL     MW 4400   4.679   4.153   5.421  0.0111  0.3985  0.2376
 1101SOL     OW 4401   4.361   2.251   3.610  0.6509  0.1648 -0.2559
 1101SOL    HW1 4402   4.354   2.265   3.515  1.1323 -0.3496 -0.3719
 1101SOL    HW2 4403   4.454   2.262   3.629  0.7278 -0.8063 -0.0263
 1101SOL     MW 4404   4.372   2.255   3.600  0.7224 -0.0254 -0.2414
 1102SOL     OW 4405   4.214   1.001   4.327 -0.3093 -0.0798 -0.6960
 1102SOL    HW1 4406   4.244   0.933   4.267  0.1347  0.9051 -1.6412
 1102SOL    HW2 4407   4.188   0.955   4.406 -3.6555 -1.8036 -2.5948
 1102SOL     MW 4408   4.214   0.987   4.329 -0.6808 -0.1744 -1.0601
 1103SOL     OW 4409   0.006   3.935   1.464 -0.1321  0.1369  0.2149
 1103SOL    HW1 4410   0.081   3.890   1.425  0.2925  0.2075  0.9222
 1103SOL    HW2 4411   0.045   4.004   1.518 -0.5504 -1.4643  2.7230
 1103SOL     MW 4412   0.021   3.938   1.466 -0.1313 -0.0590  0.6265
 1104SOL     OW 4413   1.960   1.513   1.358  0.0856  0.4180  0.0842
 1104SOL    HW1 4414   1.908   1.579   1.311  0.0519  1.4100  1.4698
 1104SOL    HW2 4415   2.018   1.477   1.291 -0.6593  1.0625 -0.9428
 1104SOL     MW 4416   1.961   1.517   1.343 -0.0141  0.6275  0.1301
 1105SOL     OW 4417   1.652   4.758   3.765 -0.0577  0.0514 -0.2179
 1105SOL    HW1 4418   1.647   4.837   3.818  3.1764  0.1829  0.0461
 1105SOL    HW2 4419   1.631   4.788   3.676  0.4857  1.0666 -0.0173
 1105SOL     MW 4420   1.648   4.772   3.760  0.4259  0.1982 -0.1584
 1106SOL     OW 4421   1.536   1.424   2.988 -0.3409  0.1189 -0.2246
 1106SOL    HW1 4422   1.542   1.516   2.960 -0.3841  0.9456  2.1563
 1106SOL    HW2 4423   1.444   1.401   2.971 -0.0002  0.0181 -2.1082
 1106SOL     MW 4424   1.525   1.433   2.983 -0.3028  0.2118 -0.1609
 1107SOL     OW 4425   2.349   4.753   4.890 -0.0730  0.1071 -0.6803
 1107SOL    HW1 4426   2.322   4.663   4.905 -1.0147  0.4129 -0.4848
 1107SOL    HW2 4427   2.268   4.799   4.868  0.1864  1.1673  0.4889
 1107SOL     MW 4428   2.335   4.748   4.889 -0.1603  0.2819 -0.5056
 1108SOL     OW 4429   3.779   0.533   1.171 -0.0355  0.6535 -0.1848
 1108SOL    HW1 4430   3.835   0.579   1.109  2.0207  0.4688  1.4268
 1108SOL    HW2 4431   3.806   0.566   1.257 -3.5817  1.8128  0.6717
 1108SOL     MW 4432   3.789   0.543   1.174 -0.2262  0.7782  0.1311
 1109SOL     OW 4433   4.750   0.277   2.047 -0.8745 -0.2026  0.6417
 1109SOL    HW1 4434   4.781   0.356   2.090 -0.8343  1.6756 -2.5175
 1109SOL    HW2 4435   4.801   0.273   1.966 -2.6661 -2.0414 -0.4888
 1109SOL     MW 4436   4.761   0.286   2.042 -1.0987 -0.1976  0.0926
 1110SOL     OW 4437   2.422   5.340   5.264  0.1799  0.5310 -0.4248
 1110SOL    HW1 4438   2.403   5.298   5.348  3.4030 -0.9533 -0.2824
 1110SOL    HW2 4439   2.484   5.409   5.286 -2.5173  3.3971 -1.1202
 1110SOL     MW 4440   2.427   5.343   5.278  0.2473  0.7079 -0.4956
 1111SOL     OW 4441   5.261   3.005   5.049 -0.3217 -0.3017 -0.0849
 1111SOL    HW1 4442   5.281   3.003   5.143  0.9956 -0.9104 -0.3566
 1111SOL    HW2 4443   5.239   2.914   5.027  0.0610 -0.3003 -0.4950
 1111SOL     MW 4444   5.260   2.993   5.058 -0.1041 -0.3795 -0.1722
 1112SOL     OW 4445   3.788   0.382   0.342  0.1400  0.5301  0.6102
 1112SOL    HW1 4446   3.790   0.478   0.347 -0.1293  0.6630 -1.1573
 1112SOL    HW2 4447   3.875   0.358   0.310  0.5538  0.0777  2.0071
 1112SOL     MW 4448   3.799   0.391   0.339  0.1585  0.4892  0.5627
 1113SOL     OW 4449   4.754   5.305   3.898 -0.2333 -0.4420 -0.2369
 1113SOL    HW1 4450   4.834   5.304   3.950 -0.4983 -0.0148  0.1869
 1113SOL    HW2 4451   4.779   5.266   3.814  0.7435  0.9185 -0.6007
 1113SOL     MW 4452   4.767   5.300   3.894 -0.1422 -0.2132 -0.2292
 1114SOL     OW 4453   2.399   4.741   3.952 -0.0914 -0.8573  0.1733
 1114SOL    HW1 4454   2.338   4.736   4.026 -0.8760 -0.9542 -0.4710
 1114SOL    HW2 4455   2.414   4.651   3.926  0.2689 -0.8290  0.2772
 1114SOL     MW 4456   2.393   4.729   3.958 -0.1457 -0.8661  0.1042
 1115SOL     OW 4457   3.731   4.585   5.314  0.2920 -0.1876 -0.0468
 1115SOL    HW1 4458   3.805   4.639   5.286  2.2004 -2.5648  0.0469
 1115SOL    HW2 4459   3.717   4.525   5.241 -2.0625  0.6551 -0.3444
 1115SOL     MW 4460   3.739   4.584   5.301  0.2349 -0.3840 -0.0729
 1116SOL     OW 4461   1.811   3.952   2.368 -0.2230  0.0048 -0.0684
 1116SOL    HW1 4462   1.869   3.934   2.443 -0.4705 -1.5619 -0.2157
 1116SOL    HW2 4463   1.866   4.001   2.307 -0.0207  1.3246  1.1244
 1116SOL     MW 4464   1.826   3.956   2.370 -0.2288 -0.0268  0.0655
 1117SOL     OW 4465   2.967   4.258   5.121 -0.2978  0.4399  0.0673
 1117SOL    HW1 4466   2.997   4.296   5.203 -1.8424  1.5886  0.1604
 1117SOL    HW2 4467   2.881   4.221   5.142 -1.8121  2.7898 -1.4409
 1117SOL     MW 4468   2.960   4.258   5.134 -0.6894  0.8878 -0.1138
 1118SOL     OW 4469   2.824   4.570   2.364  0.7511 -0.1435  0.4623
 1118SOL    HW1 4470   2.743   4.555   2.315  0.7557  0.3649  0.2947
 1118SOL    HW2 4471   2.807   4.646   2.418  1.2686  0.2596  0.0741
 1118SOL     MW 4472   2.812   4.578   2.364  0.8180 -0.0268  0.3911
 1119SOL     OW 4473   5.440   0.224   1.828 -0.5771  0.1702 -0.5819
 1119SOL    HW1 4474   5.433   0.188   1.917  0.9492 -0.4445 -0.6834
 1119SOL    HW2 4475   5.364   0.283   1.820 -1.1497 -0.3257  0.8535
 1119SOL     MW 4476   5.429   0.227   1.839 -0.4550  0.0280 -0.4111
 1120SOL     OW 4477   1.668   1.624   5.168  0.5021 -0.7323 -0.0984
 1120SOL    HW1 4478   1.697   1.600   5.256 -1.1548 -0.2944  0.6090
 1120SOL    HW2 4479   1.709   1.709   5.153 -0.1038 -0.2730  0.7400
 1120SOL     MW 4480   1.677   1.632   5.178  0.2124 -0.6174  0.0995
 1121SOL     OW 4481   0.729   4.484   3.921  0.0344 -0.0251  0.2148
 1121SOL    HW1 4482   0.637   4.486   3.893  0.1151 -0.8846 -0.1597
 1121SOL    HW2 4483   0.738   4.398   3.963  0.9132 -0.3684 -0.6468
 1121SOL     MW 4484   0.718   4.473   3.923  0.1572 -0.1791  0.0566
 1122SOL     OW 4485   0.589   2.714   4.656  0.1250  0.2151  0.2053
 1122SOL    HW1 4486   0.539   2.633   4.644 -1.0305  0.9436 -0.1116
 1122SOL    HW2 4487   0.626   2.708   4.744  1.5592 -1.4313 -0.4519
 1122SOL     MW 4488   0.587   2.703   4.666  0.1607  0.0976  0.0806
 1123SOL     OW 4489   0.241   1.304   1.057 -0.6401  0.5667 -0.1425
 1123SOL    HW1 4490   0.179   1.356   1.109  0.2521  3.0662 -1.4021
 1123SOL    HW2 4491   0.256   1.357   0.978  1.3875 -1.0089 -0.9012
 1123SOL     MW 4492   0.235   1.318   1.054 -0.2663  0.6850 -0.4009
 1124SOL     OW 4493   0.302   3.905   0.750  0.4351 -0.1770 -0.5723
 1124SOL    HW1 4494   0.318   3.816   0.782  2.7219  0.2282 -0.4325
 1124SOL    HW2 4495   0.249   3.894   0.671  2.5223 -1.8640 -1.8329
 1124SOL     MW 4496   0.297   3.893   0.744  0.9950 -0.3411 -0.7158
 1125SOL     OW 4497   4.876   3.280   3.444 -0.0567  0.6147  0.3201
 1125SOL    HW1 4498   4.811   3.337   3.485  1.4391  1.1416  2.0886
 1125SOL    HW2 4499   4.928   3.339   3.390 -0.9422  0.2084 -1.0225
 1125SOL     MW 4500   4.874   3.295   3.442  0.0214  0.6302  0.3746
 1126SOL     OW 4501   3.605   4.959   3.281 -0.1563 -0.8426  0.4197
 1126SOL    HW1 4502   3.633   4.922   3.198 -0.5115 -0.6950  0.2316
 1126SOL    HW2 4503   3.643   4.902   3.348  0.5293 -0.6855  0.1693
 1126SOL     MW 4504   3.613   4.947   3.279 -0.1140 -0.8036  0.3636
 1127SOL     OW 4505   2.434   4.782   5.474  0.1567 -0.0096  0.0199
 1127SOL    HW1 4506   2.480   4.711   5.429  1.4397  1.1779 -0.6516
 1127SOL    HW2 4507   2.412   4.746   5.560  1.1592 -1.0871 -0.1462
 1127SOL     MW 4508   2.437   4.768   5.479  0.4493  0.0045 -0.0873
 1128SOL     OW 4509   4.606   2.321   3.678 -0.1792 -0.0880 -0.0690
 1128SOL    HW1 4510   4.635   2.349   3.765 -1.8566  1.7740 -0.0501
 1128SOL    HW2 4511   4.687   2.299   3.632  0.7757 -0.8295  1.8337
 1128SOL     MW 4512   4.620   2.322   3.684 -0.2717  0.0555  0.1770
 1129SOL     OW 4513   4.611   0.251   4.849 -0.3236 -0.1712 -0.2431
 1129SOL    HW1 4514   4.662   0.286   4.922 -0.1298  0.7694 -0.8122
 1129SOL    HW2 4515   4.627   0.157   4.851  1.0438  0.0485 -0.1104
 1129SOL     MW 4516   4.620   0.244   4.859 -0.1237 -0.0227 -0.2989
 1130SOL     OW 4517   2.472   3.593   4.840  0.3831  0.3148 -0.2176
 1130SOL    HW1 4518   2.553   3.645   4.846 -1.0889  2.7128 -0.0498
 1130SOL    HW2 4519   2.416   3.628   4.909 -2.1903  1.3124 -2.6655
 1130SOL     MW 4520   2.475   3.604   4.850 -0.1348  0.7495 -0.5095
 1131SOL     OW 4521   0.995   4.794   2.419  0.3274 -0.4419  1.1653
 1131SOL    HW1 4522   0.978   4.713   2.467 -1.1543 -0.7188  0.2279
 1131SOL    HW2 4523   0.934   4.792   2.346  1.4747  0.6968  0.1213
 1131SOL     MW 4524   0.985   4.783   2.416  0.2846 -0.3316  0.9117
 1132SOL     OW 4525   0.865   3.185   5.074  0.7289 -0.2118 -0.0575
 1132SOL    HW1 4526   0.823   3.154   5.154  0.9771 -2.5047 -0.7515
 1132SOL    HW2 4527   0.939   3.126   5.061  0.1765 -0.5169 -2.4266
 1132SOL     MW 4528   0.869   3.174   5.082  0.6899 -0.5444 -0.4496
 1133SOL     OW 4529   4.017   3.495   1.270 -0.0141 -0.0145 -0.1856
 1133SOL    HW1 4530   4.012   3.588   1.245 -0.5356  0.1938  0.6392
 1133SOL    HW2 4531   4.036   3.497   1.364 -0.9952 -0.7174  0.0508
 1133SOL     MW 4532   4.019   3.508   1.279 -0.2064 -0.0778 -0.0498
 1134SOL     OW 4533   0.228   1.544   5.451  0.4917  0.3543 -0.7564
 1134SOL    HW1 4534   0.178   1.621   5.424 -1.6570 -0.7619 -0.1249
 1134SOL    HW2 4535   0.162   1.480   5.478  2.2715 -0.9102  0.9001
 1134SOL     MW 4536   0.213   1.546   5.451  0.4444  0.0495 -0.4635
 1135SOL     OW 4537   1.690   1.906   2.922 -0.1047 -0.0217  0.4979
 1135SOL    HW1 4538   1.748   1.833   2.946 -0.6939 -0.7960 -0.3426
 1135SOL    HW2 4539   1.658   1.939   3.006 -0.3471 -1.1812  0.8854
 1135SOL     MW 4540   1.694   1.901   2.936 -0.2111 -0.2693  0.4399
 1136SOL     OW 4541   3.081   3.655   4.473 -0.0428 -0.2757 -0.1196
 1136SOL    HW1 4542   3.018   3.588   4.498 -0.2812 -0.1268 -0.3264
 1136SOL    HW2 4543   3.048   3.691   4.391 -0.5712  0.9391  0.6075
 1136SOL     MW 4544   3.069   3.651   4.466 -0.1409 -0.1012 -0.0530
 1137SOL     OW 4545   4.423   1.333   0.512 -0.3118  0.0658  0.3313
 1137SOL    HW1 4546   4.336   1.317   0.475 -0.2535 -0.7936  0.5372
 1137SOL    HW2 4547   4.407   1.380   0.594 -0.6170 -0.5035  0.6038
 1137SOL     MW 4548   4.410   1.337   0.518 -0.3434 -0.1171  0.3925
 1138SOL     OW 4549   1.830   0.674   2.068 -0.4838  0.0955  0.0438
 1138SOL    HW1 4550   1.909   0.682   2.121 -1.0496  0.3115  0.8926
 1138SOL    HW2 4551   1.769   0.625   2.124 -1.7819  2.0158  0.4412
 1138SOL     MW 4552   1.832   0.669   2.082 -0.7224  0.3689  0.2033
 1139SOL     OW 4553   3.312   0.424   1.437 -0.0112  0.1129  0.1255
 1139SOL    HW1 4554   3.292   0.482   1.364  2.0267  0.7851  0.0393
 1139SOL    HW2 4555   3.363   0.353   1.398 -0.1337 -0.2798  0.6642
 1139SOL     MW 4556   3.316   0.422   1.423  0.2340  0.1486  0.1834
 1140SOL     OW 4557   0.914   4.513   5.078  0.1176 -0.5016 -0.4220
 1140SOL    HW1 4558   0.895   4.528   5.171  0.7232 -1.7939 -0.0731
 1140SOL    HW2 4559   0.905   4.418   5.066 -1.8380 -0.2007 -2.1291
 1140SOL     MW 4560   0.910   4.503   5.088 -0.0552 -0.6285 -0.5959
 1141SOL     OW 4561   3.783   2.063   3.674 -0.1959  0.7425 -0.1164
 1141SOL    HW1 4562   3.792   2.158   3.670 -0.6406  0.7576 -1.1234
 1141SOL    HW2 4563   3.850   2.034   3.737 -0.4623  1.7629  0.6552
 1141SOL     MW 4564   3.793   2.071   3.682 -0.2870  0.8751 -0.1465
 1142SOL     OW 4565   4.533   3.657   3.494  0.5137 -0.1545  0.1484
 1142SOL    HW1 4566   4.582   3.578   3.515 -0.7262 -0.4620  2.0873
 1142SOL    HW2 4567   4.504   3.644   3.404  0.8015 -1.6560  0.2488
 1142SOL     MW 4568   4.535   3.646   3.485  0.3918 -0.3861  0.4094
 1143SOL     OW 4569   4.210   5.266   3.621 -0.1240 -0.0098  0.1366
 1143SOL    HW1 4570   4.227   5.359   3.634 -0.9331  0.0505  0.8269
 1143SOL    HW2 4571   4.296   5.228   3.602  0.4339  0.6402  1.3029
 1143SOL     MW 4572   4.223   5.273   3.620 -0.1562  0.0811  0.3743
 1144SOL     OW 4573   2.990   0.682   0.657 -0.1645  0.1227  0.6131
 1144SOL    HW1 4574   2.928   0.739   0.611  1.6625 -0.4284 -2.9149
 1144SOL    HW2 4575   3.003   0.608   0.598  0.7030 -1.9190  3.1598
 1144SOL     MW 4576   2.984   0.680   0.643  0.1805 -0.2092  0.4875
 1145SOL     OW 4577   0.909   3.737   3.825 -0.5296  0.4273 -0.2670
 1145SOL    HW1 4578   0.936   3.764   3.913  1.0340  2.7333 -1.3749
 1145SOL    HW2 4579   0.955   3.654   3.811 -0.5423  0.1951  0.9741
 1145SOL     MW 4580   0.919   3.730   3.835 -0.3311  0.6928 -0.2499
 1146SOL     OW 4581   3.104   0.238   4.972 -0.1985 -0.1013  0.0492
 1146SOL    HW1 4582   3.101   0.273   5.061 -2.1956 -1.8787  0.7523
 1146SOL    HW2 4583   3.185   0.274   4.935 -0.7019  2.9581  1.5788
 1146SOL     MW 4584   3.114   0.247   4.978 -0.5186  0.0628  0.3350
 1147SOL     OW 4585   1.341   0.013   1.042 -0.1482  0.0856 -0.4228
 1147SOL    HW1 4586   1.318   0.106   1.046 -0.0773  0.0703  1.3535
 1147SOL    HW2 4587   1.368  -0.008   1.132  0.1380 -1.5753 -0.8747
 1147SOL     MW 4588   1.341   0.022   1.054 -0.1025 -0.1289 -0.2533
 1148SOL     OW 4589   1.491   4.043   1.274  0.6405 -0.3596 -0.2923
 1148SOL    HW1 4590   1.486   4.039   1.370 -0.3173 -1.7331 -0.3768
 1148SOL    HW2 4591   1.400   4.056   1.246  0.9552  0.3670 -1.0173
 1148SOL     MW 4592   1.479   4.044   1.283  0.5582 -0.4424 -0.3960
 1149SOL     OW 4593   4.011   4.720   4.495  0.0274 -0.5657  0.4514
 1149SOL    HW1 4594   3.938   4.743   4.552  0.5808  1.4200  0.4302
 1149SOL    HW2 4595   4.076   4.789   4.509  1.3735 -1.5662 -0.4948
 1149SOL     MW 4596   4.010   4.732   4.504  0.2706 -0.4396  0.3275
 1150SOL     OW 4597   1.709   4.089   3.050 -0.8560  0.2171  0.5141
 1150SOL    HW1 4598   1.799   4.070   3.078 -0.2668  0.7112 -0.9523
 1150SOL    HW2 4599   1.655   4.029   3.101  0.3369 -0.3227  1.1820
 1150SOL     MW 4600   1.714   4.079   3.060 -0.6279  0.2112  0.4119
 1151SOL     OW 4601   3.596   4.445   3.475 -0.1336 -0.3352 -0.1467
 1151SOL    HW1 4602   3.536   4.479   3.541  1.2683  1.6734  0.1877
 1151SOL    HW2 4603   3.680   4.439   3.520  0.8795  1.1383 -1.7062
 1151SOL     MW 4604   3.599   4.448   3.489  0.1755  0.1105 -0.3035
 1152SOL     OW 4605   4.692   3.332   2.252  0.0441  0.1657  0.2891
 1152SOL    HW1 4606   4.626   3.321   2.320  1.0548 -1.9596  0.9955
 1152SOL    HW2 4607   4.749   3.256   2.261  2.1674  1.5366 -0.7714
 1152SOL     MW 4608   4.691   3.321   2.262  0.4453  0.0691  0.2438
 1153SOL     OW 4609   4.469   1.358   5.045 -0.1391  0.4076  0.3716
 1153SOL    HW1 4610   4.433   1.342   4.958  0.3294 -0.5046  0.3356
 1153SOL    HW2 4611   4.446   1.280   5.095 -1.0579  1.2443  1.2909
 1153SOL     MW 4612   4.461   1.346   5.040 -0.1967  0.3979  0.4847
 1154SOL     OW 4613   3.251   2.695   2.684 -0.0265 -0.2048 -0.0830
 1154SOL    HW1 4614   3.274   2.786   2.665 -1.2178  0.3422  0.9924
 1154SOL    HW2 4615   3.202   2.666   2.607  0.4079  0.0311 -0.4529
 1154SOL     MW 4616   3.248   2.703   2.671 -0.1234 -0.1046  0.0073
 1155SOL     OW 4617   1.088   0.228   5.237 -0.3427  0.3071  0.2920
 1155SOL    HW1 4618   1.102   0.271   5.321  0.4329  1.9900 -0.6305
 1155SOL    HW2 4619   1.117   0.138   5.250  0.8007  0.8203  1.5374
 1155SOL     MW 4620   1.093   0.222   5.249 -0.0970  0.5882  0.3333
 1156SOL     OW 4621   2.549   4.378   1.892  0.3451  0.2692  0.1952
 1156SOL    HW1 4622   2.605   4.301   1.902  1.1969  0.7112 -0.9565
 1156SOL    HW2 4623   2.555   4.423   1.976  0.0590 -0.7559  0.7886
 1156SOL     MW 4624   2.557   4.374   1.904  0.4175  0.1946  0.1237
 1157SOL     OW 4625   3.364   0.835   3.359 -0.2404 -0.6014 -0.3777
 1157SOL    HW1 4626   3.295   0.782   3.320  1.1009 -1.4489 -1.7300
 1157SOL    HW2 4627   3.355   0.921   3.317 -0.8241 -0.5307 -0.1096
 1157SOL     MW 4628   3.354   0.839   3.348 -0.1434 -0.7009 -0.5165
 1158SOL     OW 4629   5.422   3.608   2.055 -0.2456  0.4911  0.1431
 1158SOL    HW1 4630   5.329   3.609   2.031 -0.2628  0.6496  0.2126
 1158SOL    HW2 4631   5.442   3.700   2.074 -0.4068  0.2792  1.4055
 1158SOL     MW 4632   5.413   3.620   2.054 -0.2684  0.4843  0.3136
 1159SOL     OW 4633   5.265   2.176   1.774 -0.8494  0.2306  0.4617
 1159SOL    HW1 4634   5.203   2.123   1.724 -1.1466  0.7826  0.2428
 1159SOL    HW2 4635   5.291   2.246   1.714  1.9622 -1.3821 -0.3911
 1159SOL     MW 4636   5.260   2.178   1.760 -0.5275  0.0949  0.3245
 1160SOL     OW 4637   5.286   3.443   5.270 -0.0974  0.3036 -0.0511
 1160SOL    HW1 4638   5.272   3.534   5.296  0.2441  0.2029  0.5098
 1160SOL    HW2 4639   5.276   3.443   5.175 -1.2265  0.7099  0.0600
 1160SOL     MW 4640   5.283   3.455   5.261 -0.1982  0.3427  0.0349
 1161SOL     OW 4641   4.873   1.934   0.594 -0.5179 -0.0102 -0.5881
 1161SOL    HW1 4642   4.925   1.968   0.667 -0.6961 -0.0533 -0.4383
 1161SOL    HW2 4643   4.932   1.935   0.519 -0.6183  0.9704 -0.6756
 1161SOL     MW 4644   4.887   1.939   0.594 -0.5535  0.1098 -0.5801
 1162SOL     OW 4645   3.998   2.183   5.331 -0.2902  0.4796  0.4583
 1162SOL    HW1 4646   3.954   2.261   5.365 -0.1319  0.6861  0.1945
 1162SOL    HW2 4647   4.089   2.192   5.362  0.7326  2.3334 -2.6155
 1162SOL     MW 4648   4.004   2.194   5.340 -0.1390  0.7434  0.0310
 1163SOL     OW 4649   0.298   5.229   4.173  0.2362  0.1733 -0.6740
 1163SOL    HW1 4650   0.370   5.201   4.230 -0.1588 -0.0513 -0.2766
 1163SOL    HW2 4651   0.220   5.216   4.226 -0.1018  0.3793 -1.1183
 1163SOL     MW 4652   0.298   5.224   4.187  0.1424  0.1709 -0.6800
 1164SOL     OW 4653   4.202   2.237   1.818 -0.4522 -0.9402  0.5541
 1164SOL    HW1 4654   4.277   2.192   1.856  0.0272 -0.9652 -0.4106
 1164SOL    HW2 4655   4.128   2.210   1.873  0.1457 -1.3455  1.1732
 1164SOL     MW 4656   4.202   2.228   1.830 -0.3143 -0.9953  0.5099
 1165SOL     OW 4657   2.912   5.426   0.030 -0.4802  0.2754 -0.0923
 1165SOL    HW1 4658   2.833   5.410   0.082  0.5542  1.5926  1.9859
 1165SOL    HW2 4659   2.917   5.521   0.023  0.4537  0.1733 -0.9882
 1165SOL     MW 4660   2.902   5.436   0.036 -0.2283  0.4309  0.0590
 1166SOL     OW 4661   5.016   3.469   2.366 -0.0887 -0.4248  0.3572
 1166SOL    HW1 4662   4.994   3.434   2.280  1.4083  1.5459 -0.9022
 1166SOL    HW2 4663   5.111   3.471   2.367 -0.1047  1.5664  1.1990
 1166SOL     MW 4664   5.025   3.464   2.355  0.1009  0.0824  0.3037
 1167SOL     OW 4665   2.813   4.723   3.372  0.4420 -0.6293 -0.4627
 1167SOL    HW1 4666   2.896   4.676   3.383  0.7417  0.1848  1.0591
 1167SOL    HW2 4667   2.824   4.802   3.424 -2.0239 -1.4701  1.5180
 1167SOL     MW 4668   2.825   4.727   3.380  0.1647 -0.6327 -0.0143
 1168SOL     OW 4669   4.921   5.299   2.114  0.4369  0.3319  0.2916
 1168SOL    HW1 4670   4.882   5.385   2.128  0.6356  0.4161  0.3298
 1168SOL    HW2 4671   4.960   5.303   2.027 -0.3014 -0.0034 -0.0679
 1168SOL     MW 4672   4.921   5.310   2.105  0.3678  0.2997  0.2505
 1169SOL     OW 4673   0.600   0.242   2.903  0.8400 -0.2159  0.2588
 1169SOL    HW1 4674   0.517   0.250   2.949  0.9844  0.7044  0.3696
 1169SOL    HW2 4675   0.630   0.332   2.890  0.9903 -0.4628 -1.3002
 1169SOL     MW 4676   0.593   0.254   2.907  0.8777 -0.1297  0.0734
 1170SOL     OW 4677   0.631   3.346   0.398 -0.3098 -0.7356  0.1282
 1170SOL    HW1 4678   0.714   3.301   0.413 -0.1512 -0.6774 -0.5525
 1170SOL    HW2 4679   0.623   3.406   0.473 -0.0850 -1.2355  0.5627
 1170SOL     MW 4680   0.640   3.348   0.410 -0.2607 -0.7921  0.0967
 1171SOL     OW 4681   1.530   3.585   4.113 -0.6123  0.0835  0.4217
 1171SOL    HW1 4682   1.599   3.635   4.069 -0.4220 -0.7456 -0.2581
 1171SOL    HW2 4683   1.540   3.496   4.080 -1.8598 -0.1074  0.4885
 1171SOL     MW 4684   1.540   3.580   4.103 -0.7476 -0.0471  0.3433
 1172SOL     OW 4685   2.270   3.270   5.492  0.0397 -0.0100  0.2014
 1172SOL    HW1 4686   2.185   3.293   5.452 -0.5384  0.9518  1.8776
 1172SOL    HW2 4687   2.298   3.350   5.536  0.4491 -1.1034  2.0301
 1172SOL     MW 4688   2.262   3.283   5.492  0.0181 -0.0269  0.6501
 1173SOL     OW 4689   0.861   3.605   0.405 -0.2071  0.4331 -0.3977
 1173SOL    HW1 4690   0.884   3.691   0.440 -0.0567  0.1705  0.1571
 1173SOL    HW2 4691   0.795   3.623   0.338  0.2991  1.0344 -0.7453
 1173SOL     MW 4692   0.855   3.618   0.401 -0.1231  0.4764 -0.3712
 1174SOL     OW 4693   1.943   4.837   4.792 -0.2422  0.9651  0.1022
 1174SOL    HW1 4694   1.958   4.825   4.699 -2.7193  2.3039 -0.5584
 1174SOL    HW2 4695   1.870   4.778   4.812 -0.4008  1.4380  0.9712
 1174SOL     MW 4696   1.936   4.828   4.783 -0.5796  1.1970  0.1289
 1175SOL     OW 4697   1.147   2.228   2.699  0.3005 -0.3877 -0.2743
 1175SOL    HW1 4698   1.060   2.268   2.693  0.3168 -0.3904 -0.5203
 1175SOL    HW2 4699   1.208   2.301   2.698  0.2554 -0.2951  1.2078
 1175SOL     MW 4700   1.143   2.242   2.699  0.2968 -0.3762 -0.1161
 1176SOL     OW 4701  -0.001   1.361   2.295  0.3309 -0.3796  0.0744
 1176SOL    HW1 4702  -0.031   1.314   2.373 -1.0636 -0.3744 -0.4271
 1176SOL    HW2 4703   0.057   1.299   2.252 -0.1032 -0.9834  0.3294
 1176SOL     MW 4704   0.003   1.347   2.300  0.0968 -0.4562  0.0428
 1177SOL     OW 4705   0.982   1.415   2.486  0.5482 -0.0190  0.2559
 1177SOL    HW1 4706   0.974   1.510   2.489 -0.9528  0.0230 -2.1929
 1177SOL    HW2 4707   0.912   1.384   2.544  1.8471  0.3229  2.0578
 1177SOL     MW 4708   0.972   1.423   2.494  0.5224  0.0302  0.1731
 1178SOL     OW 4709   0.990   1.350   5.044 -0.0509  0.0719 -0.4221
 1178SOL    HW1 4710   0.944   1.280   4.998 -0.3470  0.9428 -1.4951
 1178SOL    HW2 4711   0.961   1.343   5.135  2.7596 -3.5497  0.4190
 1178SOL     MW 4712   0.980   1.341   5.050  0.2710 -0.2802 -0.4518
 1179SOL     OW 4713   2.653   3.575   3.784 -0.6708 -0.6634  0.2461
 1179SOL    HW1 4714   2.632   3.482   3.792  0.0739 -0.7446  1.6909
 1179SOL    HW2 4715   2.736   3.584   3.832  0.2589  0.4141 -1.5025
 1179SOL     MW 4716   2.661   3.564   3.791 -0.4565 -0.5358  0.2072
 1180SOL     OW 4717   4.741   0.334   5.108 -0.2159  0.3063 -0.4144
 1180SOL    HW1 4718   4.681   0.404   5.082 -1.5434 -0.9706 -0.8879
 1180SOL    HW2 4719   4.725   0.323   5.202  1.0580  1.5863 -0.0048
 1180SOL     MW 4720   4.731   0.342   5.117 -0.2228  0.3067 -0.4226
 1181SOL     OW 4721   4.611   2.476   2.226 -0.0707  0.6441  0.1714
 1181SOL    HW1 4722   4.704   2.487   2.206 -0.5312  3.0193 -0.9498
 1181SOL    HW2 4723   4.592   2.545   2.290 -1.1745  0.5070  0.0067
 1181SOL     MW 4724   4.621   2.486   2.232 -0.2709  0.9306  0.0068
 1182SOL     OW 4725   0.701   0.445   3.653  0.0929  1.3142  0.3314
 1182SOL    HW1 4726   0.623   0.488   3.619  0.8673  1.6573 -1.0645
 1182SOL    HW2 4727   0.681   0.351   3.648 -0.0616  1.3846 -0.4438
 1182SOL     MW 4728   0.688   0.438   3.648  0.1723  1.3671  0.0535
 1183SOL     OW 4729   3.013   1.784   3.459 -0.1357 -0.3669 -0.3900
 1183SOL    HW1 4730   3.010   1.877   3.480 -0.3857 -0.3029 -0.7194
 1183SOL    HW2 4731   3.092   1.773   3.406  0.7812 -0.6114  0.9614
 1183SOL     MW 4732   3.023   1.794   3.455 -0.0504 -0.3900 -0.2591
 1184SOL     OW 4733   2.381   1.251   0.941 -0.0450 -0.8034  0.3722
 1184SOL    HW1 4734   2.288   1.231   0.941 -0.2697  0.1634 -0.5623
 1184SOL    HW2 4735   2.398   1.290   0.855  1.4349 -1.8923  0.1124
 1184SOL     MW 4736   2.371   1.253   0.930  0.1157 -0.8190  0.2193
 1185SOL     OW 4737   0.727   2.732   4.884 -0.0529 -0.1490  0.0204
 1185SOL    HW1 4738   0.708   2.823   4.909  0.1620  0.0103 -0.3795
 1185SOL    HW2 4739   0.712   2.682   4.964  1.6069  0.4775  0.7713
 1185SOL     MW 4740   0.723   2.737   4.898  0.1871 -0.0484  0.0654
 1186SOL     OW 4741   5.356   5.061   4.072 -0.5868  0.1422  0.2525
 1186SOL    HW1 4742   5.284   4.999   4.057 -0.2920 -0.2044  0.2754
 1186SOL    HW2 4743   5.435   5.010   4.060 -0.3392  0.5584  0.0969
 1186SOL     MW 4744   5.357   5.047   4.069 -0.5173  0.1511  0.2355
 1187SOL     OW 4745   2.429   1.330   3.173  0.4125  0.1740  0.3286
 1187SOL    HW1 4746   2.493   1.399   3.184  1.7209 -1.0582  0.7172
 1187SOL    HW2 4747   2.377   1.357   3.097 -1.2594  3.1426  2.3540
 1187SOL     MW 4748   2.430   1.342   3.164  0.3660  0.3963  0.6376
 1188SOL     OW 4749   3.344   3.408   2.361  0.1546 -0.2827  0.0643
 1188SOL    HW1 4750   3.395   3.489   2.360 -0.4540  0.1108 -0.8690
 1188SOL    HW2 4751   3.280   3.420   2.291 -0.0581 -1.5055  0.0352
 1188SOL     MW 4752   3.342   3.420   2.352  0.0494 -0.3889 -0.0589
 1189SOL     OW 4753   0.348   0.478   0.083  0.3049 -0.4512 -0.4638
 1189SOL    HW1 4754   0.399   0.553   0.116 -0.1888  1.0250 -2.7729
 1189SOL    HW2 4755   0.394   0.452   0.003 -1.0858 -0.7661 -1.1993
 1189SOL     MW 4756   0.361   0.485   0.077  0.0637 -0.3025 -0.8535
 1190SOL     OW 4757   4.291   4.916   4.153  0.2403  0.0165 -0.2608
 1190SOL    HW1 4758   4.204   4.942   4.183  0.7231  1.7890 -0.2536
 1190SOL    HW2 4759   4.348   4.988   4.181  2.0052 -1.8207  1.1483
 1190SOL     MW 4760   4.287   4.929   4.160  0.5280  0.0082 -0.0795
 1191SOL     OW 4761   0.504   4.870   2.409 -0.2530 -0.6382 -0.0113
 1191SOL    HW1 4762   0.528   4.809   2.339 -1.0837 -1.1708  0.1628
 1191SOL    HW2 4763   0.429   4.830   2.452 -1.1901  0.7660 -0.2473
 1191SOL     MW 4764   0.498   4.857   2.405 -0.4793 -0.5266 -0.0192
 1192SOL     OW 4765   4.922   4.941   3.144 -0.4013 -0.0293 -0.5761
 1192SOL    HW1 4766   4.867   5.018   3.160  0.9052  0.8775 -0.2838
 1192SOL    HW2 4767   4.973   4.964   3.067  0.9305 -0.0650  0.2743
 1192SOL     MW 4768   4.921   4.954   3.136 -0.0636  0.0822 -0.4299
 1193SOL     OW 4769   5.363   1.201   4.680 -0.2100 -0.1739  0.3695
 1193SOL    HW1 4770   5.326   1.244   4.603 -0.3074 -0.5125  0.2243
 1193SOL    HW2 4771   5.375   1.271   4.743 -0.4413  0.0532  0.1651
 1193SOL     MW 4772   5.360   1.215   4.678 -0.2521 -0.1882  0.3248
 1194SOL     OW 4773   3.214   2.234   3.033 -0.3497 -0.3476 -0.1172
 1194SOL    HW1 4774   3.308   2.250   3.042 -0.1509 -1.4560 -0.1184
 1194SOL    HW2 4775   3.192   2.266   2.945 -0.7267  3.2244  1.1158
 1194SOL     MW 4776   3.223   2.240   3.023 -0.3725 -0.0322  0.0405
 1195SOL     OW 4777   0.127   4.842   0.760  0.1956 -0.3006  0.2985
 1195SOL    HW1 4778   0.075   4.764   0.740 -0.9898  0.5624 -0.1043
 1195SOL    HW2 4779   0.084   4.882   0.835 -1.2933  1.7425 -1.5113
 1195SOL     MW 4780   0.115   4.837   0.767 -0.1467  0.0714  0.0153
 1196SOL     OW 4781   3.459   4.511   0.719  0.6212 -0.2222  0.6119
 1196SOL    HW1 4782   3.436   4.604   0.715 -2.1403 -0.8509 -0.2938
 1196SOL    HW2 4783   3.530   4.501   0.656 -0.5046  0.9580 -0.9274
 1196SOL     MW 4784   3.465   4.522   0.711  0.1235 -0.1516  0.2989
 1197SOL     OW 4785   3.030   1.877   3.906  0.8260 -0.1267  0.2974
 1197SOL    HW1 4786   3.126   1.880   3.902  0.7751  0.9548 -1.5945
 1197SOL    HW2 4787   3.003   1.967   3.884 -0.6290 -0.9267 -1.4396
 1197SOL     MW 4788   3.039   1.889   3.902  0.6332 -0.0906 -0.1671
 1198SOL     OW 4789   1.176   3.201   5.020  0.0701 -0.5056 -0.5262
 1198SOL    HW1 4790   1.151   3.291   5.043 -1.2272 -0.8762 -0.4157
 1198SOL    HW2 4791   1.206   3.163   5.102 -0.2248 -0.4364 -0.3844
 1198SOL     MW 4792   1.177   3.208   5.034 -0.1337 -0.5442 -0.4939
 1199SOL     OW 4793   3.680   0.570   1.854 -0.6926 -0.3382  0.2005
 1199SOL    HW1 4794   3.708   0.595   1.942  0.8568  0.0801 -0.3786
 1199SOL    HW2 4795   3.687   0.475   1.852 -0.0352 -0.2936  0.3115
 1199SOL     MW 4796   3.684   0.561   1.865 -0.4101 -0.2789  0.1406
 1200SOL     OW 4797   2.364   2.808   1.577  0.9976  0.0230 -0.1581
 1200SOL    HW1 4798   2.322   2.890   1.604 -1.3482 -1.3673  0.5927
 1200SOL    HW2 4799   2.364   2.753   1.655  1.1181 -1.2861 -1.0422
 1200SOL     MW 4800   2.359   2.812   1.590  0.7128 -0.3225 -0.1751
 1201SOL     OW 4801   4.127   3.418   0.181  0.1498  0.2404 -0.0800
 1201SOL    HW1 4802   4.146   3.490   0.242  1.1001  1.3651 -1.6461
 1201SOL    HW2 4803   4.167   3.445   0.099 -0.3188 -1.6640 -0.9807
 1201SOL     MW 4804   4.135   3.431   0.179  0.2115  0.1406 -0.3958
 1202SOL     OW 4805   3.374   4.831   1.535  0.5267  0.0344  0.3209
 1202SOL    HW1 4806   3.342   4.846   1.624  1.4012  0.3157  0.5993
 1202SOL    HW2 4807   3.407   4.741   1.536  0.1789 -0.0969  0.1654
 1202SOL     MW 4808   3.374   4.822   1.547  0.5941  0.0536  0.3366
 1203SOL     OW 4809   1.284   1.360   2.910 -0.8505 -0.1924 -0.2500
 1203SOL    HW1 4810   1.268   1.405   2.827 -0.1291 -2.0029 -1.4088
 1203SOL    HW2 4811   1.250   1.272   2.897  0.0479 -0.7698  1.0916
 1203SOL     MW 4812   1.277   1.355   2.898 -0.6432 -0.4981 -0.2266
 1204SOL     OW 4813   2.462   0.677   5.034 -0.7136  0.4505  0.1170
 1204SOL    HW1 4814   2.452   0.698   5.126 -2.9513  0.6561 -0.1127
 1204SOL    HW2 4815   2.545   0.716   5.009 -0.5501  1.2595  1.8079
 1204SOL     MW 4816   2.471   0.685   5.042 -0.9791  0.5804  0.3040
 1205SOL     OW 4817   2.002   4.829   0.991  0.3641 -0.1717 -0.3801
 1205SOL    HW1 4818   1.952   4.864   0.917 -0.0847  1.8183  0.8107
 1205SOL    HW2 4819   2.093   4.850   0.971  0.5549 -1.8205 -1.4788
 1205SOL     MW 4820   2.007   4.836   0.979  0.3311 -0.1280 -0.3683
 1206SOL     OW 4821   3.681   3.298   2.863 -0.2192 -0.3810 -0.9692
 1206SOL    HW1 4822   3.710   3.339   2.781  0.5932  1.1906  0.0369
 1206SOL    HW2 4823   3.759   3.252   2.895  0.3060  1.2195  0.1836
 1206SOL     MW 4824   3.695   3.298   2.857 -0.0479  0.0251 -0.6928
 1207SOL     OW 4825   1.819   1.185   2.149 -0.1000  0.0392 -0.1335
 1207SOL    HW1 4826   1.769   1.134   2.084  1.9281  0.1880 -1.9213
 1207SOL    HW2 4827   1.765   1.263   2.163 -0.6042  0.0317 -1.7151
 1207SOL     MW 4828   1.806   1.188   2.142  0.0951  0.0573 -0.5649
 1208SOL     OW 4829   3.866   4.166   2.535 -0.5692  0.0891  0.5710
 1208SOL    HW1 4830   3.814   4.242   2.511  0.1228  0.1274 -0.8781
 1208SOL    HW2 4831   3.828   4.094   2.485  0.1629 -0.0801  0.2539
 1208SOL     MW 4832   3.854   4.166   2.526 -0.3869  0.0723  0.3449
 1209SOL     OW 4833   0.795   0.466   2.916 -0.5542  0.0071 -0.7723
 1209SOL    HW1 4834   0.813   0.513   2.835 -1.3237  0.7618 -0.5128
 1209SOL    HW2 4835   0.881   0.452   2.955 -0.3472  1.7123 -0.5662
 1209SOL     MW 4836   0.808   0.470   2.910 -0.6262  0.3220 -0.7127
 1210SOL     OW 4837   1.966   0.622   0.179  0.9775 -0.1394  0.3285
 1210SOL    HW1 4838   1.921   0.674   0.112  0.7494  0.7012  1.1069
 1210SOL    HW2 4839   1.931   0.534   0.168  2.3279 -0.4754 -1.8726
 1210SOL     MW 4840   1.956   0.618   0.169  1.1212 -0.0748  0.1463
 1211SOL     OW 4841   1.342   0.651   0.488  0.6006  0.0737 -0.4699
 1211SOL    HW1 4842   1.376   0.690   0.568  1.2947 -2.4844  0.5557
 1211SOL    HW2 4843   1.300   0.571   0.516  0.3056 -0.5826 -2.6111
 1211SOL     MW 4844   1.341   0.646   0.502  0.6517 -0.3378 -0.6127
 1212SOL     OW 4845   0.361   5.353   3.730  0.4582  0.3599 -0.3260
 1212SOL    HW1 4846   0.341   5.316   3.644  0.7401 -1.0357  0.1985
 1212SOL    HW2 4847   0.333   5.287   3.792 -0.6675  1.7585  0.7341
 1212SOL     MW 4848   0.354   5.340   3.727  0.3502  0.3603 -0.1231
 1213SOL     OW 4849   5.338   0.595   4.082  0.0560 -0.1052 -0.2242
 1213SOL    HW1 4850   5.384   0.647   4.016 -0.4260  0.4439 -0.1375
 1213SOL    HW2 4851   5.274   0.655   4.119 -0.9436 -0.9376 -0.5515
 1213SOL     MW 4852   5.336   0.609   4.078 -0.1337 -0.1415 -0.2550
 1214SOL     OW 4853   2.410   3.420   3.554  0.6999 -0.0172 -0.1976
 1214SOL    HW1 4854   2.416   3.400   3.460 -0.9802  0.2802 -0.4031
 1214SOL    HW2 4855   2.318   3.444   3.567  0.7425 -0.7610  1.6775
 1214SOL     MW 4856   2.399   3.421   3.543  0.4903 -0.0744  0.0161
 1215SOL     OW 4857   3.385   4.017   1.383 -0.1507 -0.0881  0.2289
 1215SOL    HW1 4858   3.317   3.955   1.356  0.0361 -0.0876 -0.2552
 1215SOL    HW2 4859   3.342   4.102   1.382 -0.1067 -0.0685 -0.2239
 1215SOL     MW 4860   3.371   4.020   1.379 -0.1212 -0.0855  0.1090
 1216SOL     OW 4861   3.287   2.114   3.683  0.0298  0.3134 -0.1531
 1216SOL    HW1 4862   3.267   2.132   3.590 -1.5178  2.7421  0.5400
 1216SOL    HW2 4863   3.218   2.054   3.710  1.7474 -2.1985 -1.0245
 1216SOL     MW 4864   3.275   2.109   3.674  0.0516  0.3027 -0.1759
 1217SOL     OW 4865   2.585   5.518   0.628  0.2286 -0.0133 -0.4099
 1217SOL    HW1 4866   2.599   5.510   0.533 -0.7561 -0.8765 -0.5032
 1217SOL    HW2 4867   2.613   5.434   0.663  0.5788  0.3014  0.0714
 1217SOL     MW 4868   2.590   5.506   0.620  0.1473 -0.0835 -0.3602
 1218SOL     OW 4869   2.850   4.460   3.055 -0.1014  0.3187 -0.0135
 1218SOL    HW1 4870   2.941   4.460   3.026 -0.4638 -1.2439 -1.3113
 1218SOL    HW2 4871   2.831   4.552   3.073  1.0079  1.0629 -2.1861
 1218SOL     MW 4872   2.859   4.472   3.054 -0.0058  0.2139 -0.4578
 1219SOL     OW 4873   4.129   1.431   1.057 -0.0604 -0.0148 -0.3294
 1219SOL    HW1 4874   4.088   1.491   1.119  1.1926  0.8909 -0.3493
 1219SOL    HW2 4875   4.208   1.401   1.101  0.1219 -0.4451 -0.9417
 1219SOL     MW 4876   4.134   1.435   1.070  0.1233  0.0460 -0.4103
 1220SOL     OW 4877   3.790   0.124   2.516  0.1342  0.2952 -0.0964
 1220SOL    HW1 4878   3.850   0.050   2.520 -0.3323 -0.0661  0.2287
 1220SOL    HW2 4879   3.796   0.165   2.602  1.2349  1.3132 -0.6303
 1220SOL     MW 4880   3.798   0.120   2.528  0.2154  0.3793 -0.1231
 1221SOL     OW 4881   1.850   2.745   5.000 -0.0626  0.1900  0.1690
 1221SOL    HW1 4882   1.837   2.778   5.089  1.0546 -0.6247  0.6682
 1221SOL    HW2 4883   1.943   2.760   4.983 -0.2513  0.2781 -0.8502
 1221SOL     MW 4884   1.861   2.751   5.009  0.0563  0.0969  0.1024
 1222SOL     OW 4885   4.450   4.061   0.209  0.8426  0.0753  0.3184
 1222SOL    HW1 4886   4.434   3.981   0.259 -1.1047 -0.1149 -0.5128
 1222SOL    HW2 4887   4.363   4.091   0.184  1.6794  0.4765 -2.4350
 1222SOL     MW 4888   4.437   4.055   0.212  0.7004  0.1023 -0.1405
 1223SOL     OW 4889   2.527   2.066   5.155 -0.1306 -0.5631 -0.2273
 1223SOL    HW1 4890   2.527   2.070   5.251  1.1272  1.4283 -0.2612
 1223SOL    HW2 4891   2.618   2.081   5.130 -0.7736  1.1831 -1.7673
 1223SOL     MW 4892   2.538   2.069   5.164 -0.0519 -0.0846 -0.4288
 1224SOL     OW 4893   4.900   5.194   4.297  0.0007 -0.0821  0.5562
 1224SOL    HW1 4894   4.933   5.230   4.215 -2.0707  0.3007 -0.1692
 1224SOL    HW2 4895   4.891   5.270   4.355 -2.0291  0.2571 -0.1438
 1224SOL     MW 4896   4.903   5.208   4.294 -0.5243  0.0103  0.3737
 1225SOL     OW 4897   0.524   1.116   2.911 -0.1088 -0.4066 -0.0630
 1225SOL    HW1 4898   0.570   1.200   2.910 -0.7910 -0.0248 -0.4824
 1225SOL    HW2 4899   0.442   1.134   2.958 -0.1551 -0.8990  0.0552
 1225SOL     MW 4900   0.519   1.129   2.917 -0.2021 -0.4207 -0.1016
 1226SOL     OW 4901   2.789   0.099   2.523  0.0509  0.1554  0.2970
 1226SOL    HW1 4902   2.737   0.022   2.544 -1.9556  1.5181  0.5439
 1226SOL    HW2 4903   2.850   0.108   2.597  0.9797 -1.6933 -0.2020
 1226SOL     MW 4904   2.790   0.091   2.535 -0.0871  0.0932  0.2647
 1227SOL     OW 4905   1.349   0.284   1.012  0.3733 -0.2243  0.1528
 1227SOL    HW1 4906   1.322   0.285   1.104  0.6187  1.7128  0.2372
 1227SOL    HW2 4907   1.267   0.290   0.963  0.2280 -1.4538  0.2105
 1227SOL     MW 4908   1.335   0.285   1.017  0.3861 -0.1337  0.1710
 1228SOL     OW 4909   1.977   0.754   1.710  0.1471  0.1813 -0.3077
 1228SOL    HW1 4910   2.041   0.744   1.639  0.1708  0.4547 -0.3253
 1228SOL    HW2 4911   1.944   0.843   1.701  1.5399  0.8949  1.1860
 1228SOL     MW 4912   1.981   0.764   1.700  0.3284  0.3077 -0.1188
 1229SOL     OW 4913   4.672   1.008   1.962 -0.1161 -0.2331  0.1296
 1229SOL    HW1 4914   4.611   1.057   2.018 -0.3572  0.4519 -0.7056
 1229SOL    HW2 4915   4.753   1.004   2.013 -0.3341  0.3547  0.5392
 1229SOL     MW 4916   4.674   1.014   1.976 -0.1749 -0.0701  0.0751
 1230SOL     OW 4917   3.908   3.917   0.404 -0.4759  0.1995 -0.4628
 1230SOL    HW1 4918   3.948   3.945   0.487 -0.4848 -1.2662  0.0684
 1230SOL    HW2 4919   3.823   3.961   0.402 -0.6563 -0.0738  0.5352
 1230SOL     MW 4920   3.902   3.926   0.415 -0.5002 -0.0231 -0.2670
 1231SOL     OW 4921   1.212   1.203   0.601  0.5825 -0.2753  0.0165
 1231SOL    HW1 4922   1.276   1.169   0.538  0.0980 -1.3100  0.0653
 1231SOL    HW2 4923   1.260   1.270   0.650  1.5563 -0.8749 -0.0943
 1231SOL     MW 4924   1.226   1.208   0.599  0.6451 -0.4845  0.0085
 1232SOL     OW 4925   3.421   0.967   1.296 -0.0250 -0.4954 -0.3661
 1232SOL    HW1 4926   3.411   1.012   1.380 -0.8106  0.4746 -0.9506
 1232SOL    HW2 4927   3.475   0.890   1.315 -2.3712 -1.8016  1.5738
 1232SOL     MW 4928   3.426   0.963   1.309 -0.4259 -0.5385 -0.1926
 1233SOL     OW 4929   0.677   0.757   0.737 -0.1659  0.2577  0.0051
 1233SOL    HW1 4930   0.609   0.703   0.697 -0.5397  0.0778  0.8769
 1233SOL    HW2 4931   0.742   0.695   0.770 -0.7739  0.2998  1.3342
 1233SOL     MW 4932   0.677   0.742   0.736 -0.2916  0.2400  0.2868
 1234SOL     OW 4933   3.990   0.035   5.170 -0.3715  0.5321  0.1461
 1234SOL    HW1 4934   4.000   0.097   5.097 -0.4444  1.4362  0.8755
 1234SOL    HW2 4935   3.898   0.043   5.195 -1.2505 -2.2776 -1.7892
 1234SOL     MW 4936   3.979   0.044   5.164 -0.4934  0.2881 -0.0083
 1235SOL     OW 4937   1.701   3.476   2.698  0.8444 -0.5086 -0.5485
 1235SOL    HW1 4938   1.714   3.569   2.718 -0.5057 -0.1847 -1.1091
 1235SOL    HW2 4939   1.732   3.430   2.776 -1.9359  0.5898  1.3353
 1235SOL     MW 4940   1.707   3.482   2.710  0.3157 -0.3265 -0.3791
 1236SOL     OW 4941   2.955   0.611   2.862 -0.4947  0.4899 -0.1101
 1236SOL    HW1 4942   2.974   0.573   2.776  0.7576 -0.3669  0.5171
 1236SOL    HW2 4943   2.949   0.705   2.845  2.2868  0.6339 -0.7712
 1236SOL     MW 4944   2.956   0.618   2.849  0.0216  0.3987 -0.1144
 1237SOL     OW 4945   4.743   4.288   0.759  0.1997 -0.2392 -0.2104
 1237SOL    HW1 4946   4.708   4.266   0.845 -0.0807  0.5771 -0.1136
 1237SOL    HW2 4947   4.777   4.205   0.726 -2.0218 -1.1320 -0.4259
 1237SOL     MW 4948   4.743   4.274   0.766 -0.1205 -0.2490 -0.2256
 1238SOL     OW 4949   1.974   4.096   4.706  0.6078  1.5573 -0.0939
 1238SOL    HW1 4950   1.945   4.096   4.797  1.2455  1.5848  0.1149
 1238SOL    HW2 4951   2.069   4.109   4.711  0.7270  1.0140 -0.7336
 1238SOL     MW 4952   1.983   4.097   4.718  0.7047  1.4913 -0.1490
 1239SOL     OW 4953   4.214   3.534   1.842  0.0144  0.2794  0.6200
 1239SOL    HW1 4954   4.303   3.567   1.836  1.2738 -2.1648  3.4088
 1239SOL    HW2 4955   4.209   3.467   1.774  0.1243  0.7380  0.1556
 1239SOL     MW 4956   4.225   3.529   1.832  0.1897  0.0252  0.9176
 1240SOL     OW 4957   1.773   4.446   0.635 -0.3780 -0.0186  0.4722
 1240SOL    HW1 4958   1.697   4.394   0.660 -1.1049  0.4420 -0.7004
 1240SOL    HW2 4959   1.840   4.381   0.614 -0.7209 -0.4469  0.6775
 1240SOL     MW 4960   1.772   4.431   0.636 -0.5150 -0.0144  0.3484
 1241SOL     OW 4961   5.005   3.782   1.389 -0.3641 -0.1487  0.2749
 1241SOL    HW1 4962   5.025   3.688   1.392 -1.0712 -0.3758 -1.0555
 1241SOL    HW2 4963   5.079   3.824   1.432  0.3339 -1.2804  0.2098
 1241SOL     MW 4964   5.017   3.775   1.395 -0.3653 -0.3227  0.0962
 1242SOL     OW 4965   4.880   3.950   3.023 -0.1087 -0.4005  0.3624
 1242SOL    HW1 4966   4.953   3.945   2.962  0.1598  0.5167  0.5934
 1242SOL    HW2 4967   4.915   3.913   3.105 -0.0154 -0.2804  0.3764
 1242SOL     MW 4968   4.894   3.944   3.026 -0.0624 -0.2677  0.3938
 1243SOL     OW 4969   3.855   5.346   1.727  0.1482 -0.1744 -0.0782
 1243SOL    HW1 4970   3.781   5.307   1.773 -1.0884  2.3147  0.2202
 1243SOL    HW2 4971   3.829   5.344   1.635  0.3013 -0.4513 -0.1176
 1243SOL     MW 4972   3.842   5.341   1.721  0.0095  0.1088 -0.0451
 1244SOL     OW 4973   4.111   5.079   4.834 -0.4685  0.1609 -0.3959
 1244SOL    HW1 4974   4.099   4.987   4.855 -2.5525  0.7860  1.6012
 1244SOL    HW2 4975   4.184   5.107   4.888  0.7304 -0.4472 -1.6383
 1244SOL     MW 4976   4.119   5.071   4.843 -0.5818  0.1631 -0.2992
 1245SOL     OW 4977   4.165   3.301   3.237  0.0628  0.1289 -0.0763
 1245SOL    HW1 4978   4.123   3.386   3.250  0.4684  0.0304  2.2522
 1245SOL    HW2 4979   4.120   3.242   3.297  2.0656 -0.4571  0.9414
 1245SOL     MW 4980   4.154   3.305   3.246  0.3711  0.0413  0.3521
 1246SOL     OW 4981   4.366   1.893   1.893 -0.1448 -0.3446  0.0146
 1246SOL    HW1 4982   4.296   1.868   1.954 -2.5914  1.1240 -1.9983
 1246SOL    HW2 4983   4.327   1.885   1.806  0.7222  4.2490 -1.0898
 1246SOL     MW 4984   4.352   1.889   1.890 -0.3470  0.4314 -0.3845
 1247SOL     OW 4985   1.672   1.083   0.119 -0.0059  0.2437 -0.5031
 1247SOL    HW1 4986   1.754   1.128   0.140 -1.1250  2.1986 -0.1100
 1247SOL    HW2 4987   1.682   1.056   0.028  1.3903 -0.3261 -0.2115
 1247SOL     MW 4988   1.684   1.085   0.110  0.0296  0.4210 -0.4154
 1248SOL     OW 4989   4.440   2.832   1.837 -0.0228  0.2088 -0.6255
 1248SOL    HW1 4990   4.372   2.785   1.886  1.2313  0.0503  1.0624
 1248SOL    HW2 4991   4.394   2.869   1.762 -2.3658  1.5170  1.2981
 1248SOL     MW 4992   4.425   2.831   1.834 -0.1622  0.3560 -0.1632
 1249SOL     OW 4993   5.075   3.039   3.724 -0.4839  0.4530  0.0072
 1249SOL    HW1 4994   5.043   3.013   3.811 -1.7413 -1.4226 -0.9425
 1249SOL    HW2 4995   5.057   3.133   3.720 -1.7015  0.3270  1.2660
 1249SOL     MW 4996   5.069   3.047   3.735 -0.8008  0.1968  0.0468
 1250SOL     OW 4997   5.395   2.146   3.269  0.4086  0.3045  0.8493
 1250SOL    HW1 4998   5.326   2.181   3.212  1.8208  1.7185 -0.0694
 1250SOL    HW2 4999   5.476   2.185   3.236  1.5522 -0.5426  2.4978
 1250SOL     MW 5000   5.396   2.155   3.258  0.7358  0.3771  0.9427
 1251SOL     OW 5001   1.446   2.699   0.206 -0.6940  0.2139 -0.5929
 1251SOL    HW1 5002   1.500   2.628   0.241  0.2355  1.5346  0.7424
 1251SOL    HW2 5003   1.357   2.675   0.232 -0.3522 -0.3127  0.1430
 1251SOL     MW 5004   1.441   2.686   0.214 -0.5313  0.3155 -0.3278
 1252SOL     OW 5005   4.695   3.160   0.343 -0.7110  0.6223 -0.6803
 1252SOL    HW1 5006   4.661   3.217   0.413  0.0199  0.5713 -0.2796
 1252SOL    HW2 5007   4.662   3.200   0.263 -1.3101  0.8535 -0.3287
 1252SOL     MW 5008   4.686   3.173   0.342 -0.6942  0.6454 -0.5840
 1253SOL     OW 5009   0.226   3.932   1.249  0.8517  0.0397  0.2734
 1253SOL    HW1 5010   0.318   3.910   1.238  1.4935  2.2796  0.6137
 1253SOL    HW2 5011   0.201   3.975   1.167  0.4818  0.5138  0.6204
 1253SOL     MW 5012   0.234   3.935   1.237  0.8865  0.3871  0.3614
 1254SOL     OW 5013   2.308   0.208   4.911 -0.0762 -0.4086 -0.3145
 1254SOL    HW1 5014   2.299   0.216   5.006 -0.7604 -0.8922 -0.3306
 1254SOL    HW2 5015   2.336   0.117   4.897 -1.4506 -0.8043 -0.6505
 1254SOL     MW 5016   2.311   0.197   4.921 -0.3397 -0.5212 -0.3596
 1255SOL     OW 5017   5.312   3.959   2.292  0.3949 -0.3464 -0.1257
 1255SOL    HW1 5018   5.354   3.934   2.209  0.7248 -1.0221  0.2422
 1255SOL    HW2 5019   5.228   3.997   2.265  1.1486  0.8668 -0.8657
 1255SOL     MW 5020   5.307   3.961   2.278  0.5336 -0.2776 -0.1733
 1256SOL     OW 5021   1.245   4.379   1.857  0.4859  0.5449 -0.4160
 1256SOL    HW1 5022   1.296   4.415   1.784 -1.7494  1.3815 -1.6390
 1256SOL    HW2 5023   1.258   4.284   1.851 -0.4045  0.5059 -2.5523
 1256SOL     MW 5024   1.253   4.372   1.847  0.0858  0.6470 -0.8460
 1257SOL     OW 5025   2.695   2.753   3.532 -0.3068 -0.0102  0.6021
 1257SOL    HW1 5026   2.686   2.714   3.445 -0.9355  0.8138  0.2880
 1257SOL    HW2 5027   2.786   2.738   3.556  0.6147  2.0247 -1.3235
 1257SOL     MW 5028   2.705   2.746   3.524 -0.2694  0.3558  0.3154
 1258SOL     OW 5029   3.442   3.755   4.596 -0.3204 -0.1193  0.3619
 1258SOL    HW1 5030   3.369   3.798   4.641 -0.0670  1.5913 -0.7877
 1258SOL    HW2 5031   3.520   3.799   4.630  0.0750 -0.8311  0.3924
 1258SOL     MW 5032   3.442   3.766   4.606 -0.2373  0.0085  0.2187
 1259SOL     OW 5033   5.328   4.418   3.097  0.5707  0.0273 -0.3987
 1259SOL    HW1 5034   5.277   4.391   3.174  1.9851 -0.6823  0.3251
 1259SOL    HW2 5035   5.311   4.351   3.032  0.9876 -0.5055  0.0300
 1259SOL     MW 5036   5.320   4.406   3.099  0.8052 -0.1318 -0.2511
 1260SOL     OW 5037   4.443   5.018   2.692 -0.7063  0.0243 -0.0275
 1260SOL    HW1 5038   4.466   5.073   2.767  1.7280 -0.9128  0.0201
 1260SOL    HW2 5039   4.462   5.072   2.616  2.8793 -0.9669 -0.0146
 1260SOL     MW 5040   4.448   5.032   2.692  0.0643 -0.2225 -0.0198
 1261SOL     OW 5041   3.184   3.806   3.490  0.1359  0.3005 -0.2361
 1261SOL    HW1 5042   3.197   3.767   3.577  2.0605  1.8874  0.2735
 1261SOL    HW2 5043   3.123   3.878   3.504  0.9963  1.0078 -0.0159
 1261SOL     MW 5044   3.178   3.810   3.503  0.4924  0.5942 -0.1427
 1262SOL     OW 5045   4.151   4.146   1.857  0.1631  0.5152  0.2539
 1262SOL    HW1 5046   4.101   4.174   1.781 -2.4723 -0.2725  1.5564
 1262SOL    HW2 5047   4.134   4.214   1.923 -0.5032 -0.5061  1.1887
 1262SOL     MW 5048   4.142   4.158   1.856 -0.2596  0.2836  0.5403
 1263SOL     OW 5049   5.144   0.841   0.788  0.0567  0.4951 -0.0722
 1263SOL    HW1 5050   5.204   0.786   0.838  2.0270  3.6496  1.3992
 1263SOL    HW2 5051   5.167   0.825   0.696  0.8738 -0.7217  0.3243
 1263SOL     MW 5052   5.155   0.832   0.783  0.4135  0.7432  0.1669
 1264SOL     OW 5053   4.367   3.878   2.580 -0.2288 -0.2537 -0.2464
 1264SOL    HW1 5054   4.435   3.851   2.641  0.1767  0.4962 -0.3553
 1264SOL    HW2 5055   4.397   3.849   2.494  0.5368  1.1093 -0.4578
 1264SOL     MW 5056   4.379   3.871   2.577 -0.0789  0.0168 -0.2874
 1265SOL     OW 5057   0.116   3.626   0.819 -0.1046  0.2146 -0.0319
 1265SOL    HW1 5058   0.153   3.564   0.756 -2.2890 -1.5996  0.3726
 1265SOL    HW2 5059   0.024   3.636   0.793 -0.5921  0.8694  1.7719
 1265SOL     MW 5060   0.109   3.620   0.808 -0.4466  0.0662  0.2508
 1266SOL     OW 5061   3.285   0.634   1.250 -0.0327 -0.1858  0.2344
 1266SOL    HW1 5062   3.372   0.673   1.254 -0.0404  0.0621 -1.3061
 1266SOL    HW2 5063   3.269   0.620   1.157 -1.8457  0.2715  0.4280
 1266SOL     MW 5064   3.294   0.638   1.238 -0.2658 -0.0955  0.0620
 1267SOL     OW 5065   1.900   2.018   3.470 -0.3117  0.5873  0.2092
 1267SOL    HW1 5066   1.971   2.082   3.477  1.3129 -1.1414  0.5278
 1267SOL    HW2 5067   1.941   1.934   3.492 -2.1098 -0.7208 -1.0553
 1267SOL     MW 5068   1.915   2.015   3.474 -0.3339  0.1985  0.0881
 1268SOL     OW 5069   3.197   0.103   4.284 -0.6286 -0.2640 -0.2621
 1268SOL    HW1 5070   3.205   0.039   4.354 -1.2006 -0.0317  0.0208
 1268SOL    HW2 5071   3.266   0.167   4.302 -1.0380  0.0183  0.3352
 1268SOL     MW 5072   3.207   0.103   4.295 -0.7543 -0.1982 -0.1494
 1269SOL     OW 5073   2.751   2.464   4.275  0.1533  0.1849 -0.6753
 1269SOL    HW1 5074   2.813   2.405   4.233  0.0832 -0.2125 -0.2265
 1269SOL    HW2 5075   2.761   2.447   4.368 -1.5424 -0.8199 -0.6377
 1269SOL     MW 5076   2.760   2.454   4.281 -0.0727  0.0054 -0.6131
 1270SOL     OW 5077   1.189   4.830   3.171 -0.0831  0.3743 -0.5506
 1270SOL    HW1 5078   1.212   4.820   3.263  1.6599 -1.0803 -1.0868
 1270SOL    HW2 5079   1.144   4.915   3.166  1.3505  1.3051  1.3554
 1270SOL     MW 5080   1.186   4.840   3.182  0.3235  0.3073 -0.3753
 1271SOL     OW 5081   0.729   3.364   2.834  0.1009 -0.3914 -1.0914
 1271SOL    HW1 5082   0.777   3.282   2.848 -0.0558 -0.3430 -0.1968
 1271SOL    HW2 5083   0.778   3.429   2.883 -0.9247 -0.3663 -0.0505
 1271SOL     MW 5084   0.742   3.362   2.842 -0.0504 -0.3820 -0.8436
 1272SOL     OW 5085   3.328   0.470   0.732 -0.0134  0.2615  0.3230
 1272SOL    HW1 5086   3.300   0.508   0.648  0.8773 -0.2076 -0.2139
 1272SOL    HW2 5087   3.330   0.376   0.715 -1.7788 -0.0265  1.5076
 1272SOL     MW 5088   3.325   0.463   0.719 -0.1254  0.1646  0.4060
 1273SOL     OW 5089   5.465   4.052   2.938 -0.0188 -0.2856 -0.2472
 1273SOL    HW1 5090   5.384   4.101   2.923  2.0747  2.8248 -2.8518
 1273SOL    HW2 5091   5.484   4.064   3.031 -2.1212 -0.4622  0.2528
 1273SOL     MW 5092   5.457   4.060   2.948 -0.0200  0.0900 -0.5167
 1274SOL     OW 5093   0.862   3.645   1.106  0.0824 -0.1488  0.5032
 1274SOL    HW1 5094   0.918   3.582   1.151 -0.5088  1.4200  3.7597
 1274SOL    HW2 5095   0.912   3.727   1.107 -0.5090  0.2533 -0.5783
 1274SOL     MW 5096   0.875   3.647   1.112 -0.0690  0.1035  0.7816
 1275SOL     OW 5097   3.206   4.111   1.709  0.2121  0.7761 -0.2856
 1275SOL    HW1 5098   3.195   4.030   1.759  0.2868 -0.3598 -2.0428
 1275SOL    HW2 5099   3.147   4.173   1.752 -2.3146 -1.1096 -0.7737
 1275SOL     MW 5100   3.197   4.109   1.721 -0.1018  0.3893 -0.5730
 1276SOL     OW 5101   3.328   5.067   3.366 -0.4841 -0.4117  0.2853
 1276SOL    HW1 5102   3.396   5.013   3.325  0.1010 -0.3012  1.0804
 1276SOL    HW2 5103   3.333   5.150   3.320 -0.6367 -0.6674 -0.2039
 1276SOL     MW 5104   3.337   5.071   3.355 -0.4288 -0.4303  0.3245
 1277SOL     OW 5105   3.643   0.510   2.242 -0.6759  0.4941  0.4577
 1277SOL    HW1 5106   3.702   0.434   2.240 -0.9320  0.2191  2.1066
 1277SOL    HW2 5107   3.691   0.579   2.197  0.0702 -0.2927  0.0088
 1277SOL     MW 5108   3.657   0.509   2.236 -0.6132  0.3582  0.6113
 1278SOL     OW 5109   4.953   4.490   5.103  0.1374 -0.0897  0.7750
 1278SOL    HW1 5110   5.022   4.554   5.086 -1.1442  0.8534 -1.2207
 1278SOL    HW2 5111   4.907   4.523   5.179  0.3863  0.5793  0.6394
 1278SOL     MW 5112   4.956   4.502   5.111  0.0052  0.1167  0.5021
 1279SOL     OW 5113   1.209   4.150   1.689 -0.5055  0.5243  0.0341
 1279SOL    HW1 5114   1.126   4.154   1.641 -0.3938 -0.7776 -0.3212
 1279SOL    HW2 5115   1.274   4.129   1.622 -0.1376 -0.0085  0.5485
 1279SOL     MW 5116   1.207   4.148   1.674 -0.4441  0.2895  0.0545
 1280SOL     OW 5117   0.107   0.604   2.308 -0.0737  0.2159 -0.1529
 1280SOL    HW1 5118   0.141   0.666   2.373  0.9204 -0.8440  0.3656
 1280SOL    HW2 5119   0.013   0.601   2.325 -0.8080  4.0025 -2.2871
 1280SOL     MW 5120   0.099   0.612   2.318 -0.0405  0.5650 -0.3597
 1281SOL     OW 5121   0.527   2.872   3.130 -0.2692 -0.1053  0.1283
 1281SOL    HW1 5122   0.452   2.909   3.085 -0.2116 -1.3819 -1.0713
 1281SOL    HW2 5123   0.500   2.868   3.222 -1.5923 -0.3457 -0.2467
 1281SOL     MW 5124   0.514   2.876   3.136 -0.4312 -0.2995 -0.0733
 1282SOL     OW 5125   3.045   4.471   2.871 -0.3029 -0.2107  0.7667
 1282SOL    HW1 5126   3.128   4.446   2.912 -0.5717 -1.0808  0.8114
 1282SOL    HW2 5127   3.017   4.392   2.824 -0.5626  0.4162 -0.1596
 1282SOL     MW 5128   3.052   4.457   2.870 -0.3705 -0.2419  0.6538
 1283SOL     OW 5129   2.957   0.999   2.282  0.2852 -0.0209 -0.0532
 1283SOL    HW1 5130   2.945   0.928   2.218  0.9203  1.1839 -1.5655
 1283SOL    HW2 5131   3.046   1.030   2.266  1.5371 -1.4553  3.3175
 1283SOL     MW 5132   2.967   0.994   2.271  0.5267 -0.0503  0.1847
 1284SOL     OW 5133   3.021   4.563   2.625  0.2059  0.2441  0.3597
 1284SOL    HW1 5134   2.982   4.487   2.582 -3.5516  0.8450  2.3531
 1284SOL    HW2 5135   3.032   4.535   2.716  1.2003  1.3109  0.5854
 1284SOL     MW 5136   3.018   4.549   2.631 -0.1478  0.4576  0.6438
 1285SOL     OW 5137   3.153   5.094   3.077 -0.5595 -0.4498 -0.0912
 1285SOL    HW1 5138   3.204   5.014   3.061  0.6615  0.2458  0.1611
 1285SOL    HW2 5139   3.181   5.154   3.007  0.1496  0.4699  0.9442
 1285SOL     MW 5140   3.163   5.091   3.066 -0.3124 -0.2430  0.0736
 1286SOL     OW 5141   2.246   4.108   3.135 -0.3006  0.2474  0.5938
 1286SOL    HW1 5142   2.151   4.097   3.143 -0.2772 -0.6282 -0.1194
 1286SOL    HW2 5143   2.272   4.043   3.070  0.6609  1.1443  0.0486
 1286SOL     MW 5144   2.237   4.098   3.128 -0.1745  0.2501  0.4327
 1287SOL     OW 5145   2.456   3.843   2.741 -0.0680  0.4818  0.5557
 1287SOL    HW1 5146   2.447   3.933   2.710  0.9726  0.6391  0.6701
 1287SOL    HW2 5147   2.551   3.830   2.749 -0.2091 -0.6246  0.5421
 1287SOL     MW 5148   2.467   3.853   2.738  0.0472  0.3603  0.5686
 1288SOL     OW 5149   0.332   2.927   0.411 -0.1716  0.1592  0.4980
 1288SOL    HW1 5150   0.354   3.012   0.448 -0.4884  0.5970 -0.3087
 1288SOL    HW2 5151   0.408   2.903   0.358 -0.5609  0.4895 -0.2224
 1288SOL     MW 5152   0.345   2.935   0.409 -0.2620  0.2575  0.3025
 1289SOL     OW 5153   1.947   3.002   3.572 -0.5969  0.0587  0.1571
 1289SOL    HW1 5154   2.021   3.047   3.532  0.8472  0.0620  2.5723
 1289SOL    HW2 5155   1.925   2.931   3.511  0.6791  0.7196 -1.1210
 1289SOL     MW 5156   1.954   2.999   3.559 -0.2487  0.1437  0.3027
 1290SOL     OW 5157   5.090   4.657   2.527 -0.7619  0.1957 -0.2283
 1290SOL    HW1 5158   5.097   4.746   2.562  1.3814 -0.1349  0.3128
 1290SOL    HW2 5159   5.046   4.607   2.596  0.1498  0.3404  0.4686
 1290SOL     MW 5160   5.085   4.662   2.540 -0.3708  0.1719 -0.0698
 1291SOL     OW 5161   3.490   0.610   2.524  0.2628 -0.1079  0.0577
 1291SOL    HW1 5162   3.475   0.612   2.430  1.0388  2.3110 -0.0729
 1291SOL    HW2 5163   3.413   0.566   2.560 -0.9076  0.5308 -1.5703
 1291SOL     MW 5164   3.479   0.604   2.517  0.2123  0.2835 -0.1674
 1292SOL     OW 5165   5.430   2.809   1.938  0.1881 -0.1869  0.1092
 1292SOL    HW1 5166   5.415   2.781   2.029 -1.5925  1.1880  0.3080
 1292SOL    HW2 5167   5.520   2.840   1.937  0.4401 -0.8377  1.2478
 1292SOL     MW 5168   5.440   2.809   1.950 -0.0076 -0.0942  0.2804
 1293SOL     OW 5169   5.468   1.039   3.729 -0.1090 -0.4774 -0.1589
 1293SOL    HW1 5170   5.434   1.099   3.664  0.3203 -0.9755 -0.8564
 1293SOL    HW2 5171   5.529   1.092   3.781  0.4274 -0.3543 -0.9002
 1293SOL     MW 5172   5.472   1.053   3.727  0.0146 -0.5254 -0.3431
 1294SOL     OW 5173   0.531   0.260   4.974 -0.1857 -0.4471 -0.1677
 1294SOL    HW1 5174   0.569   0.302   4.897 -1.0950 -1.4417 -1.1792
 1294SOL    HW2 5175   0.448   0.223   4.944 -2.0391  1.6046  1.9288
 1294SOL     MW 5176   0.525   0.261   4.961 -0.5394 -0.3117 -0.0288
 1295SOL     OW 5177   1.621   4.080   1.723  0.3313 -0.5570 -0.2084
 1295SOL    HW1 5178   1.650   4.000   1.767  1.8219 -0.4035 -0.8482
 1295SOL    HW2 5179   1.692   4.143   1.740 -0.9439  0.7362  0.5328
 1295SOL     MW 5180   1.634   4.078   1.731  0.3589 -0.3718 -0.1954
 1296SOL     OW 5181   4.050   4.515   1.522  0.0470  0.2796 -0.1740
 1296SOL    HW1 5182   4.111   4.494   1.451 -1.2126 -1.4648 -0.7986
 1296SOL    HW2 5183   3.997   4.586   1.488  0.9831  1.0792 -0.0303
 1296SOL     MW 5184   4.051   4.521   1.509  0.0056  0.1587 -0.2355
 1297SOL     OW 5185   0.678   2.340   0.730  0.0203  0.2415 -0.5123
 1297SOL    HW1 5186   0.636   2.340   0.644 -1.2135  1.0166  0.0506
 1297SOL    HW2 5187   0.640   2.417   0.774  2.3837  1.2407 -0.0993
 1297SOL     MW 5188   0.667   2.350   0.725  0.1649  0.4686 -0.3874
 1298SOL     OW 5189  -0.007   4.218   5.471  0.5767 -0.4560 -0.3305
 1298SOL    HW1 5190   0.047   4.280   5.519 -0.2762  0.4067 -0.4700
 1298SOL    HW2 5191   0.029   4.219   5.382  1.8511 -1.7014  0.1187
 1298SOL     MW 5192   0.005   4.226   5.466  0.6307 -0.5050 -0.2909
 1299SOL     OW 5193   2.755   1.573   1.875  1.0857 -0.2996  0.3415
 1299SOL    HW1 5194   2.663   1.597   1.860  1.5702  2.0513  0.7564
 1299SOL    HW2 5195   2.756   1.477   1.869 -1.1380 -0.3146 -1.0022
 1299SOL     MW 5196   2.743   1.564   1.872  0.8630 -0.0006  0.2226
 1300SOL     OW 5197   0.721   5.097   3.495 -0.0647 -1.0662  0.8077
 1300SOL    HW1 5198   0.743   5.190   3.491  1.2403 -1.3912 -0.4207
 1300SOL    HW2 5199   0.769   5.064   3.571  0.7725 -1.0392  0.2994
 1300SOL     MW 5200   0.730   5.104   3.504  0.2095 -1.1043  0.5854
 1301SOL     OW 5201   0.586   1.288   1.886  0.3718 -0.3967 -0.7814
 1301SOL    HW1 5202   0.533   1.367   1.895  0.5202 -0.3810  0.1200
 1301SOL    HW2 5203   0.589   1.270   1.792 -0.9143 -0.1878 -0.8704
 1301SOL     MW 5204   0.580   1.296   1.875  0.2261 -0.3679 -0.6774
 1302SOL     OW 5205   1.451   4.540   3.725  0.0970 -0.2459  0.2529
 1302SOL    HW1 5206   1.394   4.467   3.704  0.0366  0.3317 -1.8181
 1302SOL    HW2 5207   1.537   4.500   3.738  0.3283 -0.6583 -2.0385
 1302SOL     MW 5208   1.455   4.526   3.724  0.1189 -0.2247 -0.3055
 1303SOL     OW 5209   2.954   4.222   3.984 -0.2514 -0.1267  0.1753
 1303SOL    HW1 5210   2.876   4.266   3.950 -0.1141 -0.0730 -0.0694
 1303SOL    HW2 5211   3.011   4.212   3.908  0.5152  0.9500  0.5849
 1303SOL     MW 5212   2.951   4.226   3.970 -0.1357  0.0180  0.1964
 1304SOL     OW 5213   4.479   4.957   4.711 -0.2431  0.2800 -0.6967
 1304SOL    HW1 5214   4.505   4.933   4.800  1.7486 -0.0464 -1.3025
 1304SOL    HW2 5215   4.503   5.050   4.704 -2.4378  0.9460 -0.2483
 1304SOL     MW 5216   4.486   4.966   4.721 -0.2691  0.3234 -0.7168
 1305SOL     OW 5217   0.518   3.664   2.982  0.3590  0.4096 -0.8526
 1305SOL    HW1 5218   0.464   3.658   2.903 -1.4075  0.6483  0.2993
 1305SOL    HW2 5219   0.478   3.602   3.044  3.5871 -2.2374 -1.1077
 1305SOL     MW 5220   0.506   3.655   2.980  0.5461  0.1013 -0.7378
 1306SOL     OW 5221   5.411   1.597   5.057 -0.3493  0.1456  0.6594
 1306SOL    HW1 5222   5.368   1.527   5.106 -1.0649 -1.1319 -1.6923
 1306SOL    HW2 5223   5.340   1.655   5.031 -0.2106 -0.1083 -0.2994
 1306SOL     MW 5224   5.397   1.596   5.060 -0.4232 -0.0504  0.2356
 1307SOL     OW 5225   5.008   2.214   0.340  0.1849  0.4283 -0.1857
 1307SOL    HW1 5226   5.075   2.281   0.350 -0.0073  0.3664  2.1147
 1307SOL    HW2 5227   4.933   2.247   0.390  0.0942 -1.4476  1.0504
 1307SOL     MW 5228   5.007   2.227   0.348  0.1487  0.1802  0.2670
 1308SOL     OW 5229   5.338   0.534   2.366 -0.0099  0.4615 -0.5123
 1308SOL    HW1 5230   5.358   0.559   2.456  0.5892 -1.2705 -0.1141
 1308SOL    HW2 5231   5.367   0.443   2.359  1.9134  1.1243 -3.0743
 1308SOL     MW 5232   5.344   0.525   2.376  0.3130  0.3246 -0.7893
 1309SOL     OW 5233   4.241   4.271   5.028  0.0764 -0.2421  0.1521
 1309SOL    HW1 5234   4.286   4.193   5.060  1.2976  0.6728  0.7233
 1309SOL    HW2 5235   4.168   4.283   5.088  0.2804 -0.5546  0.4685
 1309SOL     MW 5236   4.237   4.263   5.039  0.2589 -0.1650  0.2657
 1310SOL     OW 5237   0.813   3.916   3.616  0.1033 -0.0720 -0.1676
 1310SOL    HW1 5238   0.862   3.854   3.671  1.9082  1.1231 -0.3324
 1310SOL    HW2 5239   0.819   3.881   3.528 -0.9666 -0.8847  0.0629
 1310SOL     MW 5240   0.820   3.904   3.612  0.1974 -0.0231 -0.1592
 1311SOL     OW 5241   2.864   1.910   2.427  0.1928 -0.3126 -0.0220
 1311SOL    HW1 5242   2.898   1.821   2.419 -1.8659 -1.0595 -1.4108
 1311SOL    HW2 5243   2.913   1.960   2.362 -0.0096 -0.9133 -0.6510
 1311SOL     MW 5244   2.875   1.905   2.418 -0.0966 -0.4851 -0.2803
 1312SOL     OW 5245   0.964   1.801   5.261  0.3550 -0.9965  0.5560
 1312SOL    HW1 5246   0.891   1.846   5.305  0.9992  0.0379  0.5969
 1312SOL    HW2 5247   1.034   1.866   5.259  0.9321 -1.6306 -0.4214
 1312SOL     MW 5248   0.963   1.815   5.266  0.5113 -0.9452  0.4361
 1313SOL     OW 5249   5.120   3.406   0.133 -0.1212 -0.1118 -0.1405
 1313SOL    HW1 5250   5.161   3.469   0.193 -1.5420  0.4084  0.3064
 1313SOL    HW2 5251   5.049   3.366   0.184  0.3440 -1.6452 -0.6197
 1313SOL     MW 5252   5.117   3.409   0.147 -0.2435 -0.2415 -0.1446
 1314SOL     OW 5253   0.407   0.722   3.337  0.2737  0.1047  0.1264
 1314SOL    HW1 5254   0.349   0.793   3.365 -2.0031 -1.0075 -1.3841
 1314SOL    HW2 5255   0.453   0.757   3.261 -0.4922  0.1413 -0.3320
 1314SOL     MW 5256   0.405   0.735   3.331 -0.1158 -0.0330 -0.1256
 1315SOL     OW 5257   5.172   5.199   0.137  0.2482  0.0966 -0.3702
 1315SOL    HW1 5258   5.124   5.219   0.218  0.4846 -0.9974  0.0498
 1315SOL    HW2 5259   5.106   5.200   0.069 -0.1537 -0.1352  0.0140
 1315SOL     MW 5260   5.158   5.202   0.139  0.2270 -0.0731 -0.2672
 1316SOL     OW 5261   2.004   3.569   1.978  0.1000 -0.0929  0.4295
 1316SOL    HW1 5262   1.914   3.536   1.971 -0.2127  0.3881  1.8272
 1316SOL    HW2 5263   2.003   3.651   1.929  0.0156 -0.5236 -0.2999
 1316SOL     MW 5264   1.992   3.576   1.971  0.0492 -0.0865  0.5151
 1317SOL     OW 5265   4.818   5.141   4.603 -0.1437  0.2199 -0.1625
 1317SOL    HW1 5266   4.806   5.104   4.691 -0.6187  0.3362 -0.1766
 1317SOL    HW2 5267   4.730   5.139   4.564  0.0631  0.1846 -0.6290
 1317SOL     MW 5268   4.805   5.136   4.610 -0.1780  0.2303 -0.2240
 1318SOL     OW 5269   0.920   2.126   5.338  0.0003 -0.1287  0.2503
 1318SOL    HW1 5270   0.874   2.210   5.329  1.0201  0.2370 -2.7260
 1318SOL    HW2 5271   0.850   2.063   5.357 -1.0946  1.0605  0.3315
 1318SOL     MW 5272   0.905   2.129   5.339 -0.0093  0.0704 -0.1203
 1319SOL     OW 5273   4.605   5.371   0.215  0.4767  0.2609  0.5753
 1319SOL    HW1 5274   4.617   5.376   0.310  0.6258  0.2588  0.5569
 1319SOL    HW2 5275   4.629   5.281   0.192 -1.8290 -0.4751  0.8535
 1319SOL     MW 5276   4.610   5.361   0.224  0.2006  0.1664  0.6086
 1320SOL     OW 5277   2.256   0.771   1.936  0.0239 -0.5462 -0.0075
 1320SOL    HW1 5278   2.302   0.831   1.994  1.3154 -0.2194 -1.2987
 1320SOL    HW2 5279   2.177   0.819   1.909  0.3472  0.0229  0.0470
 1320SOL     MW 5280   2.251   0.785   1.940  0.2306 -0.4315 -0.1658
 1321SOL     OW 5281   0.111   5.180   1.263 -0.1448 -0.4028 -0.2127
 1321SOL    HW1 5282   0.052   5.238   1.312 -1.4126 -2.0085  0.2389
 1321SOL    HW2 5283   0.163   5.136   1.330  1.5940  0.9402 -0.6070
 1321SOL     MW 5284   0.110   5.182   1.278 -0.0845 -0.4364 -0.2054
 1322SOL     OW 5285   5.439   2.954   3.046 -0.2439 -0.2869 -0.1033
 1322SOL    HW1 5286   5.523   2.924   3.082 -0.2511  0.7575  0.8525
 1322SOL    HW2 5287   5.418   3.031   3.099 -0.6293  0.8881 -1.9150
 1322SOL     MW 5288   5.447   2.960   3.058 -0.2942 -0.0028 -0.2129
 1323SOL     OW 5289   2.027   3.980   2.170 -0.0441 -0.0685 -0.5851
 1323SOL    HW1 5290   2.102   3.984   2.110 -0.5859 -1.6802 -1.4212
 1323SOL    HW2 5291   2.039   3.898   2.218 -0.4089  0.4796  0.4779
 1323SOL     MW 5292   2.038   3.970   2.168 -0.1602 -0.2047 -0.5561
 1324SOL     OW 5293   1.191   2.315   1.364  0.2053 -0.3467  0.1228
 1324SOL    HW1 5294   1.177   2.383   1.429 -1.6541 -0.3175 -0.2548
 1324SOL    HW2 5295   1.286   2.307   1.358  0.4568  1.6016  0.7959
 1324SOL     MW 5296   1.201   2.323   1.371 -0.0005 -0.0935  0.1606
 1325SOL     OW 5297   3.376   1.555   3.763  0.5326 -0.2171  0.1646
 1325SOL    HW1 5298   3.295   1.562   3.713 -0.6961 -2.6732  1.6037
 1325SOL    HW2 5299   3.445   1.541   3.697 -0.5499 -0.2817 -0.9780
 1325SOL     MW 5300   3.375   1.554   3.748  0.2368 -0.5398  0.2025
 1326SOL     OW 5301   0.117   1.418   4.234  0.2237  0.3526 -0.2969
 1326SOL    HW1 5302   0.207   1.443   4.211 -0.0523  0.6339 -1.1076
 1326SOL    HW2 5303   0.127   1.361   4.310  1.0020  1.5082  0.5198
 1326SOL     MW 5304   0.130   1.414   4.241  0.2880  0.5365 -0.2961
 1327SOL     OW 5305   2.399   4.267   1.060  0.0672 -0.3055 -0.0634
 1327SOL    HW1 5306   2.387   4.217   0.979 -0.4229  0.6800 -0.6152
 1327SOL    HW2 5307   2.334   4.231   1.120 -0.6356  0.0156 -0.6231
 1327SOL     MW 5308   2.390   4.256   1.057 -0.0855 -0.1382 -0.2057
 1328SOL     OW 5309   0.210   1.577   4.881  0.3139  0.4155 -0.4177
 1328SOL    HW1 5310   0.267   1.653   4.888  2.3878 -1.0012 -1.0321
 1328SOL    HW2 5311   0.206   1.541   4.970  1.9730 -0.5178 -0.6749
 1328SOL     MW 5312   0.217   1.582   4.893  0.7918  0.1146 -0.5293
 1329SOL     OW 5313   3.879   4.573   3.309  0.2524 -0.3867 -0.7479
 1329SOL    HW1 5314   3.843   4.531   3.387 -2.0020  1.3075 -0.8036
 1329SOL    HW2 5315   3.931   4.504   3.267  1.7968 -1.2897  2.3364
 1329SOL     MW 5316   3.881   4.559   3.314  0.1615 -0.2854 -0.3602
 1330SOL     OW 5317   1.197   2.876   4.561  0.1076 -0.1637 -0.6721
 1330SOL    HW1 5318   1.159   2.963   4.547  0.3296 -0.2391 -1.8140
 1330SOL    HW2 5319   1.285   2.894   4.594  0.6452  0.0781 -2.1964
 1330SOL     MW 5320   1.203   2.889   4.564  0.2048 -0.1424 -1.0134
 1331SOL     OW 5321   0.975   3.435   1.312  0.6273 -0.4280 -0.0036
 1331SOL    HW1 5322   1.032   3.378   1.260  1.7939  0.4861  0.2301
 1331SOL    HW2 5323   1.034   3.477   1.375 -0.4872 -0.2510  0.9554
 1331SOL     MW 5324   0.990   3.433   1.313  0.6340 -0.2883  0.1491
 1332SOL     OW 5325   4.304   3.537   2.576 -0.1252 -0.7684 -0.3732
 1332SOL    HW1 5326   4.243   3.591   2.627 -0.8925 -1.2805 -0.7343
 1332SOL    HW2 5327   4.296   3.450   2.614  2.6487 -0.2989  1.6049
 1332SOL     MW 5328   4.295   3.533   2.588  0.1317 -0.7739 -0.1662
 1333SOL     OW 5329   3.425   5.211   1.987  0.2743 -0.0321  0.2759
 1333SOL    HW1 5330   3.362   5.188   1.919  0.5172 -0.4463  0.1881
 1333SOL    HW2 5331   3.432   5.307   1.982  0.9925 -0.1395 -0.9043
 1333SOL     MW 5332   3.418   5.221   1.978  0.3974 -0.0989  0.1136
 1334SOL     OW 5333   4.910   3.184   0.073 -0.5961 -0.1315 -0.4786
 1334SOL    HW1 5334   4.988   3.211   0.025 -1.3348  0.8825 -1.1435
 1334SOL    HW2 5335   4.846   3.162   0.005 -0.9349 -0.8542  0.0587
 1334SOL     MW 5336   4.912   3.185   0.058 -0.7340 -0.0942 -0.4950
 1335SOL     OW 5337   2.786   1.395   3.714 -0.4176  0.3744 -0.3644
 1335SOL    HW1 5338   2.779   1.368   3.806  0.5396 -0.9679 -0.6537
 1335SOL    HW2 5339   2.743   1.480   3.710 -3.0387 -0.8060  0.7631
 1335SOL     MW 5340   2.780   1.402   3.725 -0.6306  0.0515 -0.2571
 1336SOL     OW 5341   0.303   4.649   3.892 -0.2359 -0.1347 -0.1654
 1336SOL    HW1 5342   0.349   4.733   3.892 -1.8846  0.8270 -0.3933
 1336SOL    HW2 5343   0.366   4.586   3.859  1.0842  0.9974  0.1212
 1336SOL     MW 5344   0.317   4.652   3.888 -0.2779  0.1333 -0.1579
 1337SOL     OW 5345   4.968   2.893   2.734  0.4173 -0.4906  0.1637
 1337SOL    HW1 5346   4.942   2.978   2.699 -0.7581 -0.9033 -0.0177
 1337SOL    HW2 5347   5.011   2.913   2.817 -0.6735  0.2382  0.5735
 1337SOL     MW 5348   4.970   2.906   2.740  0.1272 -0.4502  0.1929
 1338SOL     OW 5349   2.527   0.409   2.062  0.4190 -0.5354  0.0860
 1338SOL    HW1 5350   2.594   0.421   1.995  0.6910  0.3635  0.5063
 1338SOL    HW2 5351   2.445   0.433   2.019  0.8625  2.4035  0.7046
 1338SOL     MW 5352   2.525   0.414   2.048  0.5106 -0.0441  0.2189
 1339SOL     OW 5353   2.225   0.759   3.590  0.1022 -0.0312  0.0396
 1339SOL    HW1 5354   2.162   0.829   3.606 -0.1175 -0.7857  2.9661
 1339SOL    HW2 5355   2.283   0.794   3.523 -0.8202  2.3936  0.4081
 1339SOL     MW 5356   2.224   0.772   3.583 -0.0440  0.1826  0.4614
 1340SOL     OW 5357   1.151   4.113   1.253  0.0992 -0.0517  0.0884
 1340SOL    HW1 5358   1.170   4.020   1.263  0.5836  0.1855  1.7588
 1340SOL    HW2 5359   1.056   4.119   1.252  0.0627 -0.5470  0.2997
 1340SOL     MW 5360   1.141   4.102   1.254  0.1566 -0.0848  0.3293
 1341SOL     OW 5361   0.617   2.172   4.001  0.0796 -0.6771 -0.0333
 1341SOL    HW1 5362   0.606   2.105   3.934 -2.3020  0.7453 -1.1939
 1341SOL    HW2 5363   0.671   2.240   3.960 -0.4526 -0.3066 -0.1293
 1341SOL     MW 5364   0.622   2.172   3.987 -0.2934 -0.4476 -0.1942
 1342SOL     OW 5365   0.760   3.937   4.225 -0.7162 -1.0025  0.2168
 1342SOL    HW1 5366   0.820   3.875   4.185 -1.8251 -2.2170  0.3736
 1342SOL    HW2 5367   0.730   3.991   4.151  0.1817 -0.6781  0.0703
 1342SOL     MW 5368   0.764   3.936   4.210 -0.7432 -1.1164  0.2181
 1343SOL     OW 5369   2.830   0.485   0.449  0.2018 -0.0245  0.5457
 1343SOL    HW1 5370   2.877   0.409   0.484 -1.1217 -0.7371  0.8504
 1343SOL    HW2 5371   2.867   0.498   0.362  0.2080 -1.2479  0.3550
 1343SOL     MW 5372   2.841   0.477   0.442  0.0332 -0.2723  0.5603
 1344SOL     OW 5373   0.555   3.848   4.414  0.2077 -0.3442 -0.2491
 1344SOL    HW1 5374   0.608   3.881   4.342 -0.2477 -0.7370 -0.7682
 1344SOL    HW2 5375   0.478   3.810   4.372 -0.1283 -0.4492  0.4521
 1344SOL     MW 5376   0.552   3.847   4.399  0.1064 -0.4079 -0.2258
 1345SOL     OW 5377   4.315   1.191   3.543  0.5823 -0.1614 -0.9260
 1345SOL    HW1 5378   4.303   1.197   3.638 -0.5267  0.9512 -1.1212
 1345SOL    HW2 5379   4.303   1.098   3.524 -2.0195 -0.0338 -0.3023
 1345SOL     MW 5380   4.312   1.179   3.553  0.1072 -0.0026 -0.8712
 1346SOL     OW 5381   1.928   4.056   3.791 -0.0754  0.1917 -0.2766
 1346SOL    HW1 5382   2.006   4.003   3.774  0.0462 -0.4138  1.7952
 1346SOL    HW2 5383   1.963   4.141   3.818  0.1490 -0.7985  3.1554
 1346SOL     MW 5384   1.943   4.060   3.792 -0.0311 -0.0126  0.4279
 1347SOL     OW 5385   2.525   3.986   4.975  0.9668 -0.0650 -0.2723
 1347SOL    HW1 5386   2.494   4.071   4.945 -2.8757 -0.7710  1.0678
 1347SOL    HW2 5387   2.521   3.992   5.071  0.0881 -1.8761 -0.1585
 1347SOL     MW 5388   2.521   3.997   4.984  0.3624 -0.3872 -0.0862
 1348SOL     OW 5389   3.258   2.464   4.119 -0.6073 -0.0190  0.2265
 1348SOL    HW1 5390   3.286   2.467   4.211 -2.0340  1.3473  0.6688
 1348SOL    HW2 5391   3.164   2.446   4.124 -0.5302 -0.9190 -1.0412
 1348SOL     MW 5392   3.249   2.462   4.131 -0.7800  0.0407  0.1209
 1349SOL     OW 5393   0.553   0.037   3.793  0.0186 -0.0990  0.2327
 1349SOL    HW1 5394   0.475  -0.018   3.789 -0.5307  0.6074  0.9125
 1349SOL    HW2 5395   0.572   0.059   3.702 -0.2471 -0.7344  0.0238
 1349SOL     MW 5396   0.545   0.033   3.781 -0.0857 -0.0899  0.2930
 1350SOL     OW 5397   0.306   4.045   4.114  0.2777 -0.1518 -0.1083
 1350SOL    HW1 5398   0.314   4.065   4.208  1.5695 -1.2852  0.0585
 1350SOL    HW2 5399   0.215   4.018   4.103  0.1566 -0.1768  0.8549
 1350SOL     MW 5400   0.296   4.044   4.125  0.4275 -0.3001  0.0363
 1351SOL     OW 5401   0.830   5.337   1.415  0.1107  0.2025 -0.4477
 1351SOL    HW1 5402   0.869   5.383   1.341 -0.5596  1.3620 -0.1041
 1351SOL    HW2 5403   0.738   5.361   1.412 -0.1056 -0.5318  0.1855
 1351SOL     MW 5404   0.823   5.346   1.405 -0.0028  0.2569 -0.3226
 1352SOL     OW 5405   0.272   5.233   0.135 -0.1730  0.1621 -0.2789
 1352SOL    HW1 5406   0.207   5.171   0.167 -0.1342  0.5005  0.4964
 1352SOL    HW2 5407   0.312   5.268   0.215  1.7330 -0.8474 -0.7345
 1352SOL     MW 5408   0.269   5.230   0.149  0.0759  0.0762 -0.2380
 1353SOL     OW 5409   4.324   2.324   3.318 -0.0686  0.1458 -0.2509
 1353SOL    HW1 5410   4.397   2.356   3.265  2.2064  0.5052  2.7855
 1353SOL    HW2 5411   4.284   2.404   3.354 -1.2981 -0.0964 -1.0517
 1353SOL     MW 5412   4.329   2.339   3.316  0.0652  0.1608  0.0353
 1354SOL     OW 5413   3.566   1.256   2.682  0.1700 -0.4103  0.2287
 1354SOL    HW1 5414   3.588   1.192   2.750  1.5726  0.0916  0.2813
 1354SOL    HW2 5415   3.632   1.324   2.691  0.3522 -0.3003 -1.6135
 1354SOL     MW 5416   3.577   1.257   2.692  0.3729 -0.3320 -0.0004
 1355SOL     OW 5417   0.750   0.850   5.032  0.4923  0.5864 -0.2341
 1355SOL    HW1 5418   0.687   0.815   4.970  1.1361  0.1962 -0.6821
 1355SOL    HW2 5419   0.767   0.779   5.093  0.3549  0.7556  0.0048
 1355SOL     MW 5420   0.744   0.837   5.031  0.5571  0.5581 -0.2608
 1356SOL     OW 5421   2.281   2.427   0.128  0.0503  0.0423 -0.0767
 1356SOL    HW1 5422   2.279   2.511   0.175  0.4994  0.1014 -0.1563
 1356SOL    HW2 5423   2.218   2.438   0.057 -1.5536 -0.4680  1.2002
 1356SOL     MW 5424   2.273   2.439   0.125 -0.0975 -0.0155  0.0765
 1357SOL     OW 5425   2.266   3.210   2.093  0.0601 -0.3395  0.0687
 1357SOL    HW1 5426   2.281   3.305   2.099 -0.2831 -0.3454  1.1427
 1357SOL    HW2 5427   2.348   3.175   2.058 -0.6345  0.5961 -2.8010
 1357SOL     MW 5428   2.278   3.218   2.089 -0.0727 -0.2205 -0.1612
 1358SOL     OW 5429   0.048   5.139   4.295  0.5099  0.4723 -0.3390
 1358SOL    HW1 5430  -0.026   5.109   4.242  0.8462 -0.2900 -0.3940
 1358SOL    HW2 5431   0.018   5.221   4.334 -0.3766  0.1630 -0.3415
 1358SOL     MW 5432   0.034   5.146   4.293  0.4395  0.3351 -0.3464
 1359SOL     OW 5433   0.266   4.120   4.354  0.2933  0.5905 -0.5042
 1359SOL    HW1 5434   0.176   4.087   4.353 -0.2504  2.0405 -0.3865
 1359SOL    HW2 5435   0.297   4.102   4.443 -0.0818  0.6400 -0.3628
 1359SOL     MW 5436   0.259   4.113   4.365  0.1757  0.7825 -0.4710
 1360SOL     OW 5437   4.968   2.409   5.204  0.3442 -0.1655 -0.4034
 1360SOL    HW1 5438   4.875   2.427   5.219  0.1124 -0.3433 -1.5114
 1360SOL    HW2 5439   5.009   2.496   5.201  0.1144 -0.0584 -0.4731
 1360SOL     MW 5440   4.961   2.423   5.205  0.2851 -0.1745 -0.5541
 1361SOL     OW 5441   4.884   0.308   1.206 -0.1271 -0.1759 -0.2863
 1361SOL    HW1 5442   4.880   0.278   1.297  1.1836  0.3116 -0.0483
 1361SOL    HW2 5443   4.807   0.270   1.165 -0.2630 -1.1405  0.8135
 1361SOL     MW 5444   4.874   0.299   1.212  0.0233 -0.2370 -0.1151
 1362SOL     OW 5445   2.014   4.850   4.491 -0.2330 -0.7638 -0.3655
 1362SOL    HW1 5446   2.069   4.925   4.517  0.8828 -0.9492 -2.0510
 1362SOL    HW2 5447   1.934   4.890   4.458  0.4544 -0.2503 -1.4896
 1362SOL     MW 5448   2.011   4.865   4.490 -0.0022 -0.7218 -0.7252
 1363SOL     OW 5449  -0.024   3.031   0.030 -0.5502  0.4765  0.3269
 1363SOL    HW1 5450   0.064   2.992   0.033  0.3472  2.1169 -2.0669
 1363SOL    HW2 5451  -0.025   3.094   0.102 -0.2591 -0.4446  1.1578
 1363SOL     MW 5452  -0.013   3.034   0.040 -0.3980  0.5686  0.1268
 1364SOL     OW 5453   5.224   1.532   3.286 -0.3711 -0.0012 -0.0700
 1364SOL    HW1 5454   5.241   1.531   3.380  1.4534 -0.2710 -0.3514
 1364SOL    HW2 5455   5.198   1.442   3.265 -0.9428  0.0996  0.1929
 1364SOL     MW 5456   5.223   1.520   3.295 -0.2107 -0.0228 -0.0723
 1365SOL     OW 5457   0.406   2.009   1.626 -0.6180 -0.2447 -0.2696
 1365SOL    HW1 5458   0.482   2.058   1.594 -0.6267 -0.5987 -0.8492
 1365SOL    HW2 5459   0.377   1.958   1.551 -1.2826 -0.3039  0.0211
 1365SOL     MW 5460   0.412   2.008   1.612 -0.7042 -0.2976 -0.3066
 1366SOL     OW 5461   4.306   5.494   1.220  0.4458 -0.3708  0.0521
 1366SOL    HW1 5462   4.239   5.443   1.175  0.0929 -0.2323  0.4101
 1366SOL    HW2 5463   4.388   5.465   1.182  0.5289 -3.1192  1.9819
 1366SOL     MW 5464   4.308   5.484   1.210  0.4113 -0.7049  0.3450
 1367SOL     OW 5465   3.838   1.103   1.943 -0.2387 -0.2523 -0.6386
 1367SOL    HW1 5466   3.798   1.186   1.919 -1.2864 -0.7256 -0.5700
 1367SOL    HW2 5467   3.919   1.099   1.891 -0.0574  0.8999 -0.4683
 1367SOL     MW 5468   3.844   1.113   1.933 -0.3496 -0.1654 -0.6081
 1368SOL     OW 5469   1.235   4.511   3.187 -0.2615  0.3599  0.5059
 1368SOL    HW1 5470   1.319   4.558   3.191 -0.3836  0.5333  1.0436
 1368SOL    HW2 5471   1.202   4.530   3.099 -0.2880  1.2547  0.6985
 1368SOL     MW 5472   1.242   4.520   3.176 -0.2805  0.4966  0.5994
 1369SOL     OW 5473   2.587   0.934   2.490 -0.1582 -0.5061 -0.4271
 1369SOL    HW1 5474   2.511   0.909   2.542 -0.6496 -0.3291 -1.0538
 1369SOL    HW2 5475   2.566   1.021   2.457 -1.2560 -1.7646 -3.4745
 1369SOL     MW 5476   2.575   0.942   2.492 -0.3616 -0.6445 -0.8974
 1370SOL     OW 5477   0.111   0.668   0.768 -0.6250 -1.0150  0.5661
 1370SOL    HW1 5478   0.032   0.717   0.742 -1.2028 -0.9795  2.2482
 1370SOL    HW2 5479   0.080   0.579   0.783 -0.1036 -1.2777  0.0973
 1370SOL     MW 5480   0.097   0.663   0.767 -0.6322 -1.0441  0.7215
 1371SOL     OW 5481   3.116   3.967   4.340  0.3942  0.3296  0.0738
 1371SOL    HW1 5482   3.106   4.058   4.368 -1.3914  0.0311  0.5347
 1371SOL    HW2 5483   3.034   3.925   4.366  1.0356 -1.3289 -0.4735
 1371SOL     MW 5484   3.104   3.973   4.347  0.2477  0.0790  0.0627
 1372SOL     OW 5485   0.413   1.600   1.116 -0.2471  0.1587 -0.7230
 1372SOL    HW1 5486   0.461   1.536   1.169 -0.6078  0.0978 -0.4674
 1372SOL    HW2 5487   0.445   1.586   1.027  1.1558  0.9755 -0.3826
 1372SOL     MW 5488   0.423   1.590   1.111 -0.1137  0.2555 -0.6467
 1373SOL     OW 5489   4.813   5.049   1.735 -0.1913  0.0551  0.2211
 1373SOL    HW1 5490   4.892   5.069   1.786  0.1511  1.4581 -0.7984
 1373SOL    HW2 5491   4.846   5.017   1.651 -0.7432 -1.0808  0.4127
 1373SOL     MW 5492   4.827   5.048   1.731 -0.2181  0.0893  0.1151
 1374SOL     OW 5493   2.672   5.194   5.189  0.2167 -0.2590  0.1373
 1374SOL    HW1 5494   2.658   5.211   5.096  1.0867  0.0912  0.0645
 1374SOL    HW2 5495   2.610   5.253   5.233  0.5222  0.3211 -0.1997
 1374SOL     MW 5496   2.662   5.204   5.183  0.3672 -0.1399  0.0848
 1375SOL     OW 5497   2.052   2.131   1.791  0.2484 -0.0233 -0.0224
 1375SOL    HW1 5498   1.964   2.104   1.817 -0.1473 -0.0488 -1.3008
 1375SOL    HW2 5499   2.063   2.219   1.827  0.0276 -0.3460  0.8471
 1375SOL     MW 5500   2.042   2.139   1.799  0.1695 -0.0678 -0.0748
 1376SOL     OW 5501   2.012   3.347   4.871  0.1427 -0.2432  0.0761
 1376SOL    HW1 5502   2.047   3.420   4.820 -1.6314  0.2865 -0.4541
 1376SOL    HW2 5503   1.978   3.387   4.951  0.5098 -0.7082  0.4717
 1376SOL     MW 5504   2.012   3.361   4.875 -0.0374 -0.2349  0.0589
 1377SOL     OW 5505   1.654   1.984   4.586  0.0560  0.2823  0.8251
 1377SOL    HW1 5506   1.624   2.069   4.555 -1.2032  0.0688  1.4047
 1377SOL    HW2 5507   1.692   2.002   4.672 -0.0341  0.2945  0.8629
 1377SOL     MW 5508   1.655   1.997   4.593 -0.1167  0.2565  0.9041
 1378SOL     OW 5509   5.426   4.347   0.597 -0.2460 -0.0055  0.1827
 1378SOL    HW1 5510   5.436   4.253   0.585  2.3664  0.3829 -1.5437
 1378SOL    HW2 5511   5.406   4.380   0.509 -1.3011  1.0793  0.7991
 1378SOL     MW 5512   5.424   4.339   0.584 -0.0467  0.1831  0.0406
 1379SOL     OW 5513   0.905   3.051   2.305 -0.4542  0.0322  0.0139
 1379SOL    HW1 5514   0.943   3.125   2.258 -0.9052  0.5573  0.4778
 1379SOL    HW2 5515   0.820   3.082   2.336 -0.8483 -0.8262 -0.1804
 1379SOL     MW 5516   0.899   3.064   2.303 -0.5624 -0.0105  0.0484
 1380SOL     OW 5517   2.001   0.059   0.130  0.5572 -0.1262  0.1320
 1380SOL    HW1 5518   1.963  -0.017   0.173  0.9935 -0.9308 -0.8573
 1380SOL    HW2 5519   2.092   0.034   0.111  1.3718  1.4322  1.6752
 1380SOL     MW 5520   2.008   0.046   0.133  0.7174 -0.0297  0.2029
 1381SOL     OW 5521   3.654   5.095   4.755 -0.1471  0.7434  0.1285
 1381SOL    HW1 5522   3.625   5.183   4.730  0.6234  0.8002 -0.5970
 1381SOL    HW2 5523   3.680   5.054   4.673 -2.2086 -0.8417  0.1730
 1381SOL     MW 5524   3.653   5.101   4.741 -0.3123  0.5478  0.0413
 1382SOL     OW 5525   2.334   2.407   3.463  0.4084  0.1990 -0.0636
 1382SOL    HW1 5526   2.331   2.501   3.481  0.7287  0.0291  0.9370
 1382SOL    HW2 5527   2.406   2.375   3.517  0.0606 -0.6801 -0.1191
 1382SOL     MW 5528   2.343   2.415   3.472  0.4049  0.0647  0.0574
 1383SOL     OW 5529   5.132   4.177   0.704  0.1679  0.2395 -0.4122
 1383SOL    HW1 5530   5.105   4.146   0.617 -0.1324 -3.4865  0.8243
 1383SOL    HW2 5531   5.049   4.194   0.749  0.1901 -0.8236  0.0564
 1383SOL     MW 5532   5.118   4.175   0.699  0.1323 -0.3736 -0.1939
 1384SOL     OW 5533   5.303   0.690   3.106  0.3799  0.1988 -0.2096
 1384SOL    HW1 5534   5.260   0.709   3.023 -0.6435 -0.3804  0.1679
 1384SOL    HW2 5535   5.241   0.720   3.173  0.2354 -1.2381  0.3543
 1384SOL     MW 5536   5.290   0.696   3.104  0.2304 -0.0593 -0.0891
 1385SOL     OW 5537   4.346   4.400   2.644 -0.5296  0.2152 -0.1910
 1385SOL    HW1 5538   4.421   4.452   2.616  0.1555 -0.1059  0.9528
 1385SOL    HW2 5539   4.307   4.366   2.563  0.1524  0.9404 -0.8311
 1385SOL     MW 5540   4.350   4.402   2.630 -0.3546  0.2669 -0.1265
 1386SOL     OW 5541   4.879   0.547   1.973  0.0846  0.4997 -0.6279
 1386SOL    HW1 5542   4.856   0.531   1.882  1.2214  1.3078 -1.0818
 1386SOL    HW2 5543   4.962   0.502   1.986  0.2126  0.8513 -0.1578
 1386SOL     MW 5544   4.886   0.539   1.963  0.2465  0.6481 -0.6258
 1387SOL     OW 5545   1.353   5.291   0.079  0.4110  0.3531  0.0767
 1387SOL    HW1 5546   1.388   5.341   0.005 -2.1608  1.6218 -0.3972
 1387SOL    HW2 5547   1.325   5.208   0.040 -2.7562  1.7621 -0.9274
 1387SOL     MW 5548   1.354   5.287   0.064 -0.3237  0.6959 -0.1125
 1388SOL     OW 5549   3.014   1.998   2.655  0.3507 -0.8438  0.3914
 1388SOL    HW1 5550   2.934   1.992   2.604  0.7332  1.0502 -0.4995
 1388SOL    HW2 5551   3.076   2.045   2.599  1.6029 -0.9105  1.6462
 1388SOL     MW 5552   3.012   2.003   2.642  0.5600 -0.6099  0.4380
 1389SOL     OW 5553   4.417   0.289   1.414 -0.0557  0.6885  0.5718
 1389SOL    HW1 5554   4.414   0.196   1.437  0.9591  0.7234  0.8819
 1389SOL    HW2 5555   4.327   0.320   1.426 -1.0690 -0.8495 -2.1421
 1389SOL     MW 5556   4.405   0.281   1.419 -0.0555  0.4961  0.2641
 1390SOL     OW 5557   2.956   3.230   0.136  0.2575 -0.0674  0.5594
 1390SOL    HW1 5558   2.874   3.278   0.125  0.5455  0.1225 -1.0136
 1390SOL    HW2 5559   3.022   3.284   0.093  0.6133 -1.7255 -1.1485
 1390SOL     MW 5560   2.954   3.243   0.129  0.3399 -0.2554  0.1395
 1391SOL     OW 5561   0.236   0.742   2.959 -0.1755 -0.4949  0.4006
 1391SOL    HW1 5562   0.170   0.773   3.022 -0.3704 -1.4307  0.6742
 1391SOL    HW2 5563   0.203   0.771   2.874  0.3139  1.1704  0.7529
 1391SOL     MW 5564   0.223   0.750   2.956 -0.1378 -0.4015  0.4808
 1392SOL     OW 5565   0.213   4.385   4.341  0.3074  0.0426 -0.8779
 1392SOL    HW1 5566   0.145   4.401   4.276  0.3137  0.1883 -0.8495
 1392SOL    HW2 5567   0.237   4.293   4.329 -1.9680 -0.9184  1.0275
 1392SOL     MW 5568   0.207   4.376   4.331  0.0170 -0.0617 -0.6304
 1393SOL     OW 5569   2.111   4.093   1.054  0.0871 -0.6348  0.4164
 1393SOL    HW1 5570   2.101   4.164   1.118 -2.7096  0.0417 -0.6029
 1393SOL    HW2 5571   2.196   4.108   1.014  0.1806  1.3145  1.2386
 1393SOL     MW 5572   2.120   4.104   1.057 -0.2589 -0.2987  0.3912
 1394SOL     OW 5573   0.989   5.049   5.044  0.6877  0.4900 -0.3419
 1394SOL    HW1 5574   0.949   5.132   5.017 -0.7241 -0.0613 -0.0124
 1394SOL    HW2 5575   0.916   4.996   5.076  1.3656 -1.3660 -1.6957
 1394SOL     MW 5576   0.975   5.053   5.045  0.5938  0.1818 -0.4730
 1395SOL     OW 5577   4.616   0.482   2.295 -0.4741 -0.4577  0.0752
 1395SOL    HW1 5578   4.680   0.543   2.258  0.1148 -0.5830  0.8731
 1395SOL    HW2 5579   4.535   0.502   2.248 -0.4104  1.2560  0.6417
 1395SOL     MW 5580   4.614   0.493   2.284 -0.3905 -0.2543  0.2498
 1396SOL     OW 5581   1.216   1.117   3.873  0.6659 -0.1347 -0.1044
 1396SOL    HW1 5582   1.292   1.060   3.861  0.4939 -0.6234  1.0302
 1396SOL    HW2 5583   1.210   1.130   3.967 -1.5451 -1.3550 -0.0024
 1396SOL     MW 5584   1.225   1.111   3.883  0.3609 -0.3535  0.0539
 1397SOL     OW 5585   0.584   0.674   3.529 -0.2286  0.0815  0.0133
 1397SOL    HW1 5586   0.534   0.673   3.447 -1.4887 -0.4720  0.7648
 1397SOL    HW2 5587   0.518   0.663   3.598  0.9142 -0.5273  1.0527
 1397SOL     MW 5588   0.569   0.673   3.527 -0.2436 -0.0673  0.2426
 1398SOL     OW 5589   2.648   4.220   4.506  0.2178 -0.2497 -0.3727
 1398SOL    HW1 5590   2.600   4.296   4.474 -0.3629 -0.1174  0.7440
 1398SOL    HW2 5591   2.597   4.145   4.476 -2.4043 -0.1101  3.0336
 1398SOL     MW 5592   2.635   4.220   4.498 -0.1922 -0.2149  0.2063
 1399SOL     OW 5593   1.694   3.462   4.339  0.3486  0.0863 -0.0834
 1399SOL    HW1 5594   1.786   3.465   4.314  1.2897  0.2774  3.0263
 1399SOL    HW2 5595   1.656   3.540   4.300  1.8213  0.7104 -0.3269
 1399SOL     MW 5596   1.701   3.472   4.331  0.6576  0.1907  0.2835
 1400SOL     OW 5597   3.421   0.332   2.304  0.2833 -0.2247  0.2528
 1400SOL    HW1 5598   3.472   0.281   2.367 -1.2237  0.2396  1.9166
 1400SOL    HW2 5599   3.480   0.402   2.277  0.0933  1.4085  3.5393
 1400SOL     MW 5600   3.435   0.335   2.309  0.0661  0.0438  0.8865
 1401SOL     OW 5601   2.307   3.389   1.058  0.1765  0.1212  0.4669
 1401SOL    HW1 5602   2.296   3.311   1.113  0.1000  0.2721  0.6653
 1401SOL    HW2 5603   2.221   3.402   1.018  0.7780 -1.2781 -1.4159
 1401SOL     MW 5604   2.294   3.380   1.060  0.2437 -0.0386  0.2513
 1402SOL     OW 5605   3.925   3.382   5.158 -0.3292  0.6945  0.1054
 1402SOL    HW1 5606   3.912   3.333   5.239  0.8325 -0.3159 -0.2831
 1402SOL    HW2 5607   3.965   3.464   5.186  0.0207  0.3724  0.5837
 1402SOL     MW 5608   3.929   3.386   5.172 -0.1357  0.5240  0.1169
 1403SOL     OW 5609   0.824   0.860   3.304 -0.5064  0.4246 -0.1081
 1403SOL    HW1 5610   0.903   0.827   3.261  0.7054  2.2961  0.5320
 1403SOL    HW2 5611   0.777   0.908   3.236 -0.9897 -0.4986 -0.4346
 1403SOL     MW 5612   0.828   0.862   3.290 -0.4132  0.5460 -0.0679
 1404SOL     OW 5613   2.069   4.614   2.390 -0.0742 -0.1312 -0.1126
 1404SOL    HW1 5614   2.015   4.691   2.370  0.1515  0.1648  0.3847
 1404SOL    HW2 5615   2.055   4.599   2.484 -0.4639 -0.9744 -0.2984
 1404SOL     MW 5616   2.061   4.622   2.400 -0.0952 -0.2013 -0.0727
 1405SOL     OW 5617   2.161   1.352   0.650  0.2936 -0.0811 -0.1579
 1405SOL    HW1 5618   2.109   1.404   0.712  0.2799  0.4971 -0.6486
 1405SOL    HW2 5619   2.204   1.417   0.594  1.4904 -0.5491  0.1880
 1405SOL     MW 5620   2.160   1.367   0.651  0.4450 -0.0670 -0.1764
 1406SOL     OW 5621   4.226   4.608   2.259  0.0058 -0.4214 -0.4250
 1406SOL    HW1 5622   4.279   4.655   2.323  0.1303  0.6642 -1.2846
 1406SOL    HW2 5623   4.250   4.648   2.175  0.8589 -2.7032 -1.3506
 1406SOL     MW 5624   4.236   4.619   2.256  0.1310 -0.5745 -0.6535
 1407SOL     OW 5625   5.396   4.713   2.546  0.5272  0.2745 -0.1359
 1407SOL    HW1 5626   5.301   4.706   2.552  0.4541 -3.8544 -2.1821
 1407SOL    HW2 5627   5.412   4.763   2.466  0.1091  0.8487  0.1325
 1407SOL     MW 5628   5.386   4.718   2.536  0.4643 -0.1805 -0.3635
 1408SOL     OW 5629   4.837   2.598   0.045 -0.4571  0.6428  0.3985
 1408SOL    HW1 5630   4.757   2.617   0.094 -1.0780 -0.1971 -0.2506
 1408SOL    HW2 5631   4.858   2.508   0.068  0.8059  1.1232  1.2241
 1408SOL     MW 5632   4.829   2.589   0.054 -0.3749  0.5968  0.4211
 1409SOL     OW 5633   5.054   3.414   3.285 -0.3844 -0.5138 -0.1081
 1409SOL    HW1 5634   5.135   3.444   3.326  1.0911 -1.2377 -2.3198
 1409SOL    HW2 5635   5.045   3.469   3.207 -0.7066 -2.0311 -1.1805
 1409SOL     MW 5636   5.063   3.425   3.280 -0.2368 -0.8007 -0.5285
 1410SOL     OW 5637   1.780   0.657   2.768  0.5456  0.0221 -0.2586
 1410SOL    HW1 5638   1.807   0.579   2.817  1.6114  0.7295  0.3212
 1410SOL    HW2 5639   1.720   0.623   2.701 -0.4799 -1.0493  1.1355
 1410SOL     MW 5640   1.776   0.642   2.766  0.5508 -0.0245 -0.0059
 1411SOL     OW 5641   3.191   2.315   2.734 -0.3856  0.6424 -0.4397
 1411SOL    HW1 5642   3.211   2.248   2.669  0.4837 -0.2879  0.7282
 1411SOL    HW2 5643   3.276   2.355   2.754 -0.7775  1.5395 -0.5375
 1411SOL     MW 5644   3.205   2.312   2.728 -0.3245  0.6382 -0.3027
 1412SOL     OW 5645   1.343   4.705   3.995 -0.6692  0.0059  0.7129
 1412SOL    HW1 5646   1.438   4.695   4.000 -0.4989  1.5799  1.3754
 1412SOL    HW2 5647   1.326   4.725   3.904 -0.1203  1.5247  0.9136
 1412SOL     MW 5648   1.353   4.706   3.984 -0.5771  0.4018  0.8234
 1413SOL     OW 5649   3.760   2.041   4.174  0.1325 -0.3550  0.5127
 1413SOL    HW1 5650   3.855   2.046   4.160 -0.0170 -1.2443 -1.1333
 1413SOL    HW2 5651   3.725   2.121   4.135 -0.0156 -1.4642 -1.8153
 1413SOL     MW 5652   3.768   2.052   4.167  0.0944 -0.6108  0.0040
 1414SOL     OW 5653   3.281   2.759   4.791 -0.4507  0.2822  0.2324
 1414SOL    HW1 5654   3.273   2.712   4.874 -1.4883  0.4281  0.2395
 1414SOL    HW2 5655   3.291   2.851   4.817 -1.8216  0.4593  0.2129
 1414SOL     MW 5656   3.281   2.765   4.805 -0.7590  0.3236  0.2308
 1415SOL     OW 5657   5.343   3.818   2.565 -0.2121  0.0297  0.1077
 1415SOL    HW1 5658   5.350   3.899   2.516 -2.1342 -0.7594 -1.6277
 1415SOL    HW2 5659   5.249   3.798   2.565  0.2130 -2.2383  0.3470
 1415SOL     MW 5660   5.331   3.825   2.559 -0.4038 -0.3616 -0.0838
 1416SOL     OW 5661   3.664   1.805   2.729  0.2588 -0.0736  0.2784
 1416SOL    HW1 5662   3.753   1.839   2.740  1.0586 -1.1381 -2.1917
 1416SOL    HW2 5663   3.672   1.711   2.747 -0.2736 -0.2451 -0.3401
 1416SOL     MW 5664   3.677   1.797   2.733  0.2930 -0.2318 -0.1170
 1417SOL     OW 5665   4.269   3.619   3.314  0.0544 -0.1567  0.4496
 1417SOL    HW1 5666   4.242   3.575   3.233  0.3381  1.0577 -0.3382
 1417SOL    HW2 5667   4.253   3.712   3.296  0.7546  0.1847  1.5517
 1417SOL     MW 5668   4.263   3.625   3.301  0.1803  0.0424  0.4898
 1418SOL     OW 5669   2.512   0.024   0.987  0.7052  0.4541 -0.1741
 1418SOL    HW1 5670   2.435  -0.030   1.005  1.5596 -0.7437  0.0632
 1418SOL    HW2 5671   2.477   0.105   0.951 -0.7128  0.3605  0.9224
 1418SOL     MW 5672   2.498   0.027   0.984  0.6331  0.2888 -0.0034
 1419SOL     OW 5673   5.063   5.287   1.873 -0.7795 -0.4063 -0.2149
 1419SOL    HW1 5674   5.147   5.333   1.872 -0.6762 -0.5769  0.1754
 1419SOL    HW2 5675   5.014   5.325   1.800 -0.5645  0.0775 -0.1160
 1419SOL     MW 5676   5.067   5.298   1.864 -0.7387 -0.3662 -0.1523
 1420SOL     OW 5677   1.181   3.052   2.941 -0.0342  0.5656  0.5927
 1420SOL    HW1 5678   1.235   3.026   3.016 -1.6098 -0.9547  1.2717
 1420SOL    HW2 5679   1.184   2.977   2.882  1.2751  1.7875 -0.9830
 1420SOL     MW 5680   1.188   3.039   2.943 -0.0683  0.5274  0.4779
 1421SOL     OW 5681   0.176   2.119   0.350 -0.7309 -0.3757 -0.0484
 1421SOL    HW1 5682   0.226   2.176   0.291 -1.9196  0.3375 -0.3827
 1421SOL    HW2 5683   0.114   2.074   0.294 -1.2312 -0.4070  0.5198
 1421SOL     MW 5684   0.175   2.121   0.335 -0.9471 -0.2884 -0.0185
 1422SOL     OW 5685   2.979   4.523   0.061  0.1651 -0.2852  0.4215
 1422SOL    HW1 5686   2.942   4.608   0.036 -0.3431 -0.2929  1.1073
 1422SOL    HW2 5687   3.017   4.489  -0.019 -1.0204 -0.1111 -0.2284
 1422SOL     MW 5688   2.979   4.530   0.048 -0.0517 -0.2639  0.4261
 1423SOL     OW 5689   2.308   1.350   4.446 -0.1611  0.2149  0.6195
 1423SOL    HW1 5690   2.277   1.434   4.479 -0.2658  0.6058 -0.4285
 1423SOL    HW2 5691   2.239   1.288   4.471  0.1313  0.3440  1.7912
 1423SOL     MW 5692   2.295   1.353   4.453 -0.1371  0.2814  0.6354
 1424SOL     OW 5693   3.477   5.097   1.459 -0.4236  0.1466  0.3223
 1424SOL    HW1 5694   3.424   5.024   1.490  2.0144 -1.2064  1.6304
 1424SOL    HW2 5695   3.414   5.167   1.442 -2.6609 -1.6128  0.9032
 1424SOL     MW 5696   3.462   5.097   1.461 -0.3979 -0.2518  0.5641
 1425SOL     OW 5697   2.910   4.013   4.661 -0.1063 -0.6482  0.3640
 1425SOL    HW1 5698   2.901   4.094   4.710  1.9566 -0.0847 -0.0738
 1425SOL    HW2 5699   2.885   3.944   4.723 -1.1630  0.2474  0.9688
 1425SOL     MW 5700   2.906   4.014   4.676  0.0225 -0.4614  0.3854
 1426SOL     OW 5701   0.547   1.116   3.428  0.2052 -0.1746  0.2016
 1426SOL    HW1 5702   0.556   1.154   3.340 -0.6498 -1.5996 -0.5514
 1426SOL    HW2 5703   0.628   1.067   3.441  0.4045  0.1745  0.2707
 1426SOL     MW 5704   0.558   1.115   3.418  0.1213 -0.3124  0.1140
 1427SOL     OW 5705   3.555   1.318   0.634 -0.0141  0.5272 -0.0099
 1427SOL    HW1 5706   3.481   1.332   0.694  1.6622 -0.3360  2.4184
 1427SOL    HW2 5707   3.520   1.340   0.548 -3.7670 -1.8874  0.6501
 1427SOL     MW 5708   3.541   1.323   0.631 -0.2799  0.1076  0.3855
 1428SOL     OW 5709   0.693   5.115   5.072 -0.1389  0.1897 -0.3556
 1428SOL    HW1 5710   0.692   5.109   5.168  0.4952 -0.8375 -0.4051
 1428SOL    HW2 5711   0.727   5.203   5.054  0.3645  0.1468  0.3577
 1428SOL     MW 5712   0.697   5.125   5.082  0.0067  0.0527 -0.2706
 1429SOL     OW 5713   1.080   3.890   1.574  0.0902  0.1792 -0.4796
 1429SOL    HW1 5714   0.986   3.898   1.561 -0.1571  0.2751  1.1592
 1429SOL    HW2 5715   1.117   3.892   1.486 -1.3953  0.6774 -1.1155
 1429SOL     MW 5716   1.073   3.891   1.561 -0.1316  0.2553 -0.3512
 1430SOL     OW 5717   1.765   5.099   1.398  0.8727  0.0685  0.6068
 1430SOL    HW1 5718   1.733   5.055   1.320 -0.1255  1.1920  0.3549
 1430SOL    HW2 5719   1.817   5.032   1.443 -0.0289 -1.1610 -0.0883
 1430SOL     MW 5720   1.767   5.084   1.394  0.6295  0.0549  0.4856
 1431SOL     OW 5721   3.764   3.596   5.345  0.1850  0.3694  0.3731
 1431SOL    HW1 5722   3.737   3.672   5.396 -0.0271  0.0196  0.7817
 1431SOL    HW2 5723   3.846   3.567   5.384 -0.2280 -0.1965  0.8356
 1431SOL     MW 5724   3.771   3.602   5.356  0.1050  0.2522  0.4846
 1432SOL     OW 5725   0.693   3.747   0.188  0.1757 -0.0259 -0.3064
 1432SOL    HW1 5726   0.676   3.783   0.101 -4.8812  1.3049  0.9113
 1432SOL    HW2 5727   0.653   3.660   0.186 -0.1525  0.0894  0.6804
 1432SOL     MW 5728   0.686   3.741   0.177 -0.5137  0.1592 -0.0242
 1433SOL     OW 5729   5.366   1.730   1.635  0.5872  0.6792  0.2020
 1433SOL    HW1 5730   5.344   1.757   1.724 -2.6643 -0.8791  0.0340
 1433SOL    HW2 5731   5.414   1.804   1.597  3.0057  0.9986  3.4599
 1433SOL     MW 5732   5.370   1.743   1.641  0.4806  0.5206  0.5976
 1434SOL     OW 5733   2.882   0.345   2.928 -0.0814  0.3404  0.6650
 1434SOL    HW1 5734   2.930   0.425   2.905  1.0069 -0.0114  1.5900
 1434SOL    HW2 5735   2.793   0.361   2.899  0.2837  1.5981  0.1686
 1434SOL     MW 5736   2.877   0.357   2.921  0.1046  0.4563  0.7199
 1435SOL     OW 5737   4.523   2.792   2.715  0.2735  0.2199  0.1675
 1435SOL    HW1 5738   4.460   2.842   2.767  1.9771  0.8580  1.7285
 1435SOL    HW2 5739   4.587   2.760   2.779  1.1875 -0.9483 -1.2671
 1435SOL     MW 5740   4.523   2.795   2.730  0.6086  0.1521  0.1837
 1436SOL     OW 5741   5.061   2.857   4.572 -0.1920  0.0907 -0.2027
 1436SOL    HW1 5742   4.977   2.812   4.561 -1.2835  1.0456  3.0403
 1436SOL    HW2 5743   5.043   2.926   4.636  2.9876  0.5680  0.3469
 1436SOL     MW 5744   5.048   2.860   4.579  0.0753  0.2740  0.2828
 1437SOL     OW 5745   0.562   1.008   2.653  0.3828  0.1587 -0.1501
 1437SOL    HW1 5746   0.652   1.033   2.634  0.1388  1.2748  0.1238
 1437SOL    HW2 5747   0.541   1.052   2.735 -0.2553 -0.4928  0.0497
 1437SOL     MW 5748   0.571   1.017   2.661  0.2699  0.2182 -0.0895
 1438SOL     OW 5749   0.293   1.362   2.652  0.3627  0.0546  0.7702
 1438SOL    HW1 5750   0.379   1.395   2.679  0.3778 -1.9888  3.6281
 1438SOL    HW2 5751   0.236   1.379   2.727 -1.4542  0.2083 -0.5851
 1438SOL     MW 5752   0.297   1.369   2.665  0.1321 -0.1873  0.9625
 1439SOL     OW 5753   5.365   2.089   5.275  0.3713  0.4890 -0.5159
 1439SOL    HW1 5754   5.360   2.077   5.180 -0.6806  2.7356 -0.8193
 1439SOL    HW2 5755   5.458   2.100   5.293  0.5279  0.7048 -1.3882
 1439SOL     MW 5756   5.376   2.089   5.265  0.2567  0.8043 -0.6664
 1440SOL     OW 5757   0.430   1.461   3.484  0.7206 -0.1797 -0.4788
 1440SOL    HW1 5758   0.428   1.439   3.391 -0.2790  0.8210 -0.7020
 1440SOL    HW2 5759   0.523   1.452   3.508  1.2818  1.2163 -1.9822
 1440SOL     MW 5760   0.442   1.457   3.475  0.6645  0.1271 -0.6998
 1441SOL     OW 5761   4.956   5.505   1.291 -0.7355  0.6541 -0.0458
 1441SOL    HW1 5762   4.906   5.511   1.210  0.9802  2.6288 -1.0355
 1441SOL    HW2 5763   5.004   5.422   1.283 -2.9889 -0.8079  0.5128
 1441SOL     MW 5764   4.956   5.495   1.280 -0.8044  0.7198 -0.1010
 1442SOL     OW 5765   4.937   5.199   1.188  0.3109 -0.4909  0.0362
 1442SOL    HW1 5766   4.845   5.198   1.212  0.3527 -0.2279  0.2038
 1442SOL    HW2 5767   4.981   5.149   1.256  0.1090 -1.8796 -0.8094
 1442SOL     MW 5768   4.931   5.192   1.200  0.2904 -0.6350 -0.0506
 1443SOL     OW 5769   5.103   1.147   2.435 -0.2522  0.2539 -0.5894
 1443SOL    HW1 5770   5.062   1.139   2.521 -1.1638  1.4582 -0.8750
 1443SOL    HW2 5771   5.035   1.187   2.380  1.0873  1.7577 -1.2543
 1443SOL     MW 5772   5.089   1.151   2.439 -0.1974  0.6006 -0.7110
 1444SOL     OW 5773   4.493   2.839   4.821  0.0058 -0.3724  0.3490
 1444SOL    HW1 5774   4.556   2.902   4.856  1.6976 -0.8164 -1.7120
 1444SOL    HW2 5775   4.438   2.816   4.896  0.7091  1.8950  1.6516
 1444SOL     MW 5776   4.494   2.844   4.835  0.3124 -0.1390  0.2519
 1445SOL     OW 5777   4.972   2.030   3.994 -0.5687 -0.1807 -0.0179
 1445SOL    HW1 5778   4.925   2.003   3.916 -0.3611 -0.5004 -0.0331
 1445SOL    HW2 5779   4.939   1.973   4.063  0.4851 -1.0827 -0.2198
 1445SOL     MW 5780   4.962   2.019   3.993 -0.4072 -0.3371 -0.0457
 1446SOL     OW 5781   1.426   4.124   5.405 -0.2221  0.1417 -0.2070
 1446SOL    HW1 5782   1.397   4.188   5.341  1.4856  1.2041  0.0195
 1446SOL    HW2 5783   1.463   4.053   5.353  0.1874  0.5160 -0.4342
 1446SOL     MW 5784   1.427   4.123   5.390  0.0489  0.3256 -0.2071
 1447SOL     OW 5785   0.544   3.459   4.020  0.3655 -0.5182  0.2839
 1447SOL    HW1 5786   0.523   3.377   4.066 -0.2746 -1.2534 -1.2393
 1447SOL    HW2 5787   0.489   3.525   4.062 -2.1657 -1.6572 -1.0027
 1447SOL     MW 5788   0.534   3.457   4.031 -0.0405 -0.7581 -0.0758
 1448SOL     OW 5789   1.687   0.810   5.165  0.1966 -0.2003  0.3859
 1448SOL    HW1 5790   1.604   0.816   5.116  0.5894  1.0913 -0.1837
 1448SOL    HW2 5791   1.699   0.717   5.181 -0.9265 -0.4881 -0.3018
 1448SOL     MW 5792   1.678   0.799   5.161  0.1031 -0.0718  0.2250
 1449SOL     OW 5793   4.588   0.214   2.426  0.0131 -0.0907 -0.1281
 1449SOL    HW1 5794   4.619   0.297   2.390 -0.3095 -0.0939 -0.4119
 1449SOL    HW2 5795   4.667   0.160   2.433  0.2178  0.2276  0.0331
 1449SOL     MW 5796   4.602   0.218   2.422 -0.0020 -0.0504 -0.1438
 1450SOL     OW 5797   3.067   1.778   1.332  0.3861 -0.3809 -0.3905
 1450SOL    HW1 5798   3.018   1.847   1.288  0.2665 -0.5967 -0.6014
 1450SOL    HW2 5799   3.068   1.803   1.425 -0.8875 -0.8161 -0.2403
 1450SOL     MW 5800   3.061   1.790   1.338  0.2077 -0.4643 -0.3983
 1451SOL     OW 5801   5.258   4.702   1.312  0.2347 -0.6389  0.3370
 1451SOL    HW1 5802   5.258   4.627   1.253 -0.3524 -0.3832  0.0034
 1451SOL    HW2 5803   5.350   4.713   1.337  0.4342 -0.9874 -0.2217
 1451SOL     MW 5804   5.270   4.694   1.308  0.1851 -0.6508  0.2227
 1452SOL     OW 5805   5.487   4.665   4.340 -0.4032  0.6332 -0.2416
 1452SOL    HW1 5806   5.444   4.583   4.363  1.7636 -1.2149 -2.2627
 1452SOL    HW2 5807   5.443   4.695   4.261  1.7622 -1.2711 -2.3242
 1452SOL     MW 5808   5.476   4.658   4.333  0.1514  0.1529 -0.7669
 1453SOL     OW 5809   5.325   2.584   1.312 -0.1944  0.2940 -0.1700
 1453SOL    HW1 5810   5.371   2.501   1.325 -0.0045  0.4993  0.5027
 1453SOL    HW2 5811   5.380   2.649   1.357  0.1878  0.9525 -1.5259
 1453SOL     MW 5812   5.338   2.582   1.320 -0.1212  0.4046 -0.2574
 1454SOL     OW 5813   2.427   0.420   3.600  0.5609 -0.0196  0.3357
 1454SOL    HW1 5814   2.469   0.335   3.612 -0.8047 -0.4873  2.1056
 1454SOL    HW2 5815   2.341   0.400   3.563  0.0382  0.5491  1.2191
 1454SOL     MW 5816   2.422   0.407   3.596  0.3192 -0.0067  0.6753
 1455SOL     OW 5817   2.402   4.672   1.469 -0.4128 -1.1089  0.5254
 1455SOL    HW1 5818   2.462   4.706   1.535  0.5615 -0.2785 -0.7499
 1455SOL    HW2 5819   2.439   4.586   1.445 -0.2352 -0.9946  0.3875
 1455SOL     MW 5820   2.415   4.665   1.474 -0.2654 -0.9879  0.3445
 1456SOL     OW 5821   0.705   3.904   1.928  0.4298  0.2358  0.3090
 1456SOL    HW1 5822   0.678   3.985   1.970 -1.2369  0.7785 -1.6503
 1456SOL    HW2 5823   0.664   3.835   1.982  0.1897  0.7893  0.8483
 1456SOL     MW 5824   0.696   3.905   1.940  0.1857  0.3761  0.1272
 1457SOL     OW 5825   3.965   3.573   2.826  0.0351  0.4086 -0.8092
 1457SOL    HW1 5826   3.902   3.514   2.785 -0.5695 -0.0991  0.8029
 1457SOL    HW2 5827   4.008   3.617   2.752 -1.1129 -0.3634 -1.9715
 1457SOL     MW 5828   3.963   3.571   2.811 -0.1892  0.2448 -0.7516
 1458SOL     OW 5829   5.114   4.954   2.531 -0.1607  0.5412 -0.1665
 1458SOL    HW1 5830   5.202   4.986   2.551  0.2645 -0.2733 -0.6796
 1458SOL    HW2 5831   5.066   5.032   2.504  0.5819  0.9013 -0.4861
 1458SOL     MW 5832   5.119   4.968   2.530 -0.0112  0.4830 -0.2731
 1459SOL     OW 5833   3.976   1.045   2.583  0.0389  0.0478 -0.2458
 1459SOL    HW1 5834   3.930   0.967   2.551 -2.1223  1.4863 -0.8599
 1459SOL    HW2 5835   4.033   1.012   2.652  0.4046 -2.2849 -1.5709
 1459SOL     MW 5836   3.978   1.031   2.588 -0.1909 -0.0667 -0.4941
 1460SOL     OW 5837   3.305   0.359   4.304 -0.8459 -0.2129  0.2382
 1460SOL    HW1 5838   3.272   0.375   4.216 -0.7403  0.5563  0.3322
 1460SOL    HW2 5839   3.239   0.399   4.362 -1.5745 -1.8193  0.5713
 1460SOL     MW 5840   3.292   0.366   4.300 -0.9257 -0.3200  0.2929
 1461SOL     OW 5841   3.449   2.007   2.884  0.0105  0.5524 -0.6668
 1461SOL    HW1 5842   3.533   1.967   2.860  0.5822  1.2614  0.0710
 1461SOL    HW2 5843   3.474   2.085   2.934 -1.0955 -0.0874  0.9708
 1461SOL     MW 5844   3.463   2.012   2.888 -0.0579  0.5613 -0.3627
 1462SOL     OW 5845   2.657   1.884   2.095  0.0323  0.4726  0.3770
 1462SOL    HW1 5846   2.753   1.885   2.091  0.2559  2.7780  3.0201
 1462SOL    HW2 5847   2.635   1.794   2.120  1.5290  0.0567  0.3143
 1462SOL     MW 5848   2.667   1.873   2.098  0.2525  0.7145  0.7073
 1463SOL     OW 5849   4.466   0.871   0.043 -0.2916  0.0242  0.6855
 1463SOL    HW1 5850   4.486   0.787   0.085 -1.7801  0.2273  1.9380
 1463SOL    HW2 5851   4.511   0.868  -0.041 -2.0939 -3.0199 -0.3337
 1463SOL     MW 5852   4.474   0.860   0.038 -0.7129 -0.3395  0.7154
 1464SOL     OW 5853   3.688   3.096   4.495 -0.4210 -0.5440  0.5704
 1464SOL    HW1 5854   3.597   3.080   4.469 -0.4412  1.5694 -0.9033
 1464SOL    HW2 5855   3.735   3.018   4.467 -1.0274  0.2261 -3.1350
 1464SOL     MW 5856   3.682   3.084   4.488 -0.5012 -0.1749 -0.0926
 1465SOL     OW 5857   2.204   4.992   0.930  0.3495  0.5561 -0.0229
 1465SOL    HW1 5858   2.132   5.023   0.985 -0.3417  0.1069 -0.6442
 1465SOL    HW2 5859   2.182   5.023   0.842  1.1133  0.7269 -0.1611
 1465SOL     MW 5860   2.192   5.000   0.926  0.3588  0.5205 -0.1201
 1466SOL     OW 5861   0.516   3.494   5.218 -0.6409 -0.4170  0.7218
 1466SOL    HW1 5862   0.611   3.479   5.227 -0.4511  1.0655  1.5558
 1466SOL    HW2 5863   0.492   3.540   5.299 -1.8528  0.2335  0.0152
 1466SOL     MW 5864   0.525   3.498   5.229 -0.7717 -0.1439  0.7381
 1467SOL     OW 5865   1.090   4.268   0.992 -0.0483 -0.1266 -0.0610
 1467SOL    HW1 5866   1.139   4.202   1.041  1.5140  1.2945  0.4051
 1467SOL    HW2 5867   1.032   4.307   1.057 -0.3468 -0.4528 -0.1302
 1467SOL     MW 5868   1.089   4.264   1.007  0.1135  0.0136 -0.0102
 1468SOL     OW 5869   0.083   1.473   1.199 -0.0692 -0.0531  0.3545
 1468SOL    HW1 5870  -0.006   1.500   1.219  0.7695  3.3344  0.1693
 1468SOL    HW2 5871   0.121   1.450   1.284 -0.3155  1.3897  0.8853
 1468SOL     MW 5872   0.077   1.474   1.212  0.0066  0.5653  0.3987
 1469SOL     OW 5873   2.560   5.018   5.456  0.1318  0.0421  0.0385
 1469SOL    HW1 5874   2.547   5.000   5.363  0.4179 -0.0138  0.0066
 1469SOL    HW2 5875   2.526   4.941   5.501  0.7309 -0.2931 -0.0641
 1469SOL     MW 5876   2.554   5.006   5.450  0.2451 -0.0079  0.0213
 1470SOL     OW 5877   4.225   4.461   5.435 -0.2807 -0.3152  0.0306
 1470SOL    HW1 5878   4.158   4.462   5.367 -0.0792  2.2235 -0.2462
 1470SOL    HW2 5879   4.288   4.527   5.407  1.4107 -1.3697  1.1942
 1470SOL     MW 5880   4.224   4.470   5.423 -0.0384 -0.1252  0.1441
 1471SOL     OW 5881   2.783   3.912   4.075  0.0782  0.3335 -0.3570
 1471SOL    HW1 5882   2.720   3.841   4.064  1.4805 -1.2446  1.1821
 1471SOL    HW2 5883   2.850   3.896   4.008  1.2114 -0.7903  0.9936
 1471SOL     MW 5884   2.784   3.901   4.065  0.4028 -0.0124  0.0129
 1472SOL     OW 5885   0.068   3.354   2.106  0.1460  0.0813  0.5066
 1472SOL    HW1 5886   0.103   3.357   2.017 -1.4549  0.3257 -0.1496
 1472SOL    HW2 5887   0.025   3.438   2.118  1.7394  0.7262  2.1521
 1472SOL     MW 5888   0.067   3.365   2.096  0.1450  0.1952  0.6332
 1473SOL     OW 5889   1.530   1.082   4.995  0.6147 -0.2306  0.0721
 1473SOL    HW1 5890   1.516   1.124   5.079  0.6979  0.9459 -0.4887
 1473SOL    HW2 5891   1.468   1.008   4.995  0.9220 -0.5066  1.3168
 1473SOL     MW 5892   1.520   1.078   5.006  0.6647 -0.1153  0.1597
 1474SOL     OW 5893   1.343   0.080   2.702 -0.2187  0.0204 -0.3780
 1474SOL    HW1 5894   1.283   0.141   2.744 -2.0081 -2.5654  1.0975
 1474SOL    HW2 5895   1.417   0.073   2.763 -0.2885  0.2379 -0.2670
 1474SOL     MW 5896   1.345   0.087   2.715 -0.4567 -0.2828 -0.1749
 1475SOL     OW 5897   0.725   0.918   3.570 -0.3321  0.1932  0.1821
 1475SOL    HW1 5898   0.764   0.895   3.486 -0.0009  0.2326  0.3242
 1475SOL    HW2 5899   0.646   0.864   3.575 -0.6467  0.5954 -0.3992
 1475SOL     MW 5900   0.720   0.908   3.560 -0.3300  0.2497  0.1259
 1476SOL     OW 5901   0.718   1.788   3.014 -0.1815  0.2246  0.2645
 1476SOL    HW1 5902   0.729   1.775   2.920  1.3905  0.9451  0.3128
 1476SOL    HW2 5903   0.648   1.853   3.022 -0.4376  0.0354 -0.3967
 1476SOL     MW 5904   0.710   1.795   3.003 -0.0131  0.2926  0.1860
 1477SOL     OW 5905   4.549   0.406   4.277  0.1660  0.2879 -0.1578
 1477SOL    HW1 5906   4.497   0.420   4.357  1.4846  0.2826  0.7307
 1477SOL    HW2 5907   4.551   0.311   4.266  1.0075  0.2096  0.5345
 1477SOL     MW 5908   4.543   0.396   4.286  0.4426  0.2772  0.0446
 1478SOL     OW 5909   3.656   3.679   2.066 -0.2938  0.2239 -0.1859
 1478SOL    HW1 5910   3.693   3.734   1.997  0.0604  0.5587  0.2713
 1478SOL    HW2 5911   3.600   3.738   2.117 -2.1697 -0.4287 -1.3503
 1478SOL     MW 5912   3.653   3.693   2.064 -0.4886  0.1832 -0.2764
 1479SOL     OW 5913   2.690   1.519   3.189  0.1829  0.4180  0.4711
 1479SOL    HW1 5914   2.733   1.436   3.172 -0.7803 -0.3789  1.7712
 1479SOL    HW2 5915   2.708   1.538   3.281  0.7942  1.9105  0.0759
 1479SOL     MW 5916   2.698   1.511   3.198  0.1378  0.5070  0.5869
 1480SOL     OW 5917   5.225   2.517   1.816 -0.0639 -0.3341  0.0019
 1480SOL    HW1 5918   5.234   2.612   1.826  0.2991 -0.5406  2.0966
 1480SOL    HW2 5919   5.136   2.505   1.782 -0.2325  0.7426  0.0148
 1480SOL     MW 5920   5.215   2.528   1.813 -0.0390 -0.2227  0.2717
 1481SOL     OW 5921   0.308   3.213   3.225  0.7274  0.0653  0.2080
 1481SOL    HW1 5922   0.293   3.127   3.264  0.4505 -0.2423 -0.5726
 1481SOL    HW2 5923   0.268   3.274   3.287  0.8322 -0.3712  0.7144
 1481SOL     MW 5924   0.301   3.210   3.238  0.7054 -0.0300  0.1729
 1482SOL     OW 5925   1.375   1.896   2.550  0.1835  0.6191  0.2429
 1482SOL    HW1 5926   1.332   1.922   2.468 -1.1571  0.4306  0.8475
 1482SOL    HW2 5927   1.437   1.966   2.568 -0.2267  1.1689 -0.4228
 1482SOL     MW 5928   1.377   1.908   2.542 -0.0406  0.6654  0.2351
 1483SOL     OW 5929   3.740   3.703   0.620 -0.1843  0.5141  0.0839
 1483SOL    HW1 5930   3.806   3.704   0.551  0.9015 -2.7567  0.8940
 1483SOL    HW2 5931   3.674   3.767   0.592  0.4828 -0.2424 -3.6948
 1483SOL     MW 5932   3.740   3.711   0.608  0.0401 -0.0014 -0.2961
 1484SOL     OW 5933   4.252   0.327   2.319  0.1463 -0.9872  0.0480
 1484SOL    HW1 5934   4.334   0.376   2.332  1.0249 -2.0070 -1.4102
 1484SOL    HW2 5935   4.202   0.381   2.258  0.8949 -1.6142 -1.1552
 1484SOL     MW 5936   4.256   0.341   2.313  0.3546 -1.1980 -0.2927
 1485SOL     OW 5937   3.227   3.410   1.951 -0.1646 -0.3328 -0.2218
 1485SOL    HW1 5938   3.322   3.405   1.939 -0.0318  0.2224  0.5007
 1485SOL    HW2 5939   3.215   3.478   2.018 -1.0858 -0.2297 -0.4785
 1485SOL     MW 5940   3.238   3.418   1.958 -0.2655 -0.2485 -0.1621
 1486SOL     OW 5941   3.762   5.275   0.550 -0.2638  0.5733 -0.2321
 1486SOL    HW1 5942   3.787   5.340   0.485 -0.3002  1.0386  0.2150
 1486SOL    HW2 5943   3.797   5.308   0.633 -3.7339  2.1859  0.8023
 1486SOL     MW 5944   3.769   5.287   0.553 -0.7126  0.8393 -0.0425
 1487SOL     OW 5945   3.751   0.634   0.330 -0.2150  0.4912  0.0916
 1487SOL    HW1 5946   3.725   0.680   0.251  1.6228  0.1143 -0.7828
 1487SOL    HW2 5947   3.829   0.681   0.361  0.0498 -0.3374  0.7458
 1487SOL     MW 5948   3.758   0.646   0.324  0.0542  0.3369  0.0634
 1488SOL     OW 5949   3.018   5.097   2.667  0.0548 -0.1988  0.7868
 1488SOL    HW1 5950   2.938   5.061   2.630  0.2153 -0.4118  0.6417
 1488SOL    HW2 5951   2.999   5.110   2.760  0.2353 -1.3479  0.9905
 1488SOL     MW 5952   3.005   5.094   2.674  0.0985 -0.3732  0.7943
 1489SOL     OW 5953   1.377   4.823   2.975 -0.8554 -0.2207 -0.1958
 1489SOL    HW1 5954   1.311   4.841   3.042  0.0131 -0.2133  0.6659
 1489SOL    HW2 5955   1.460   4.851   3.014 -0.3670  0.0484 -1.3791
 1489SOL     MW 5956   1.379   4.829   2.988 -0.6817 -0.1853 -0.2370
 1490SOL     OW 5957   4.423   4.371   1.175 -0.4100 -0.0451 -0.0310
 1490SOL    HW1 5958   4.404   4.279   1.195 -1.8585  0.3751  0.6236
 1490SOL    HW2 5959   4.354   4.397   1.114  0.0276  0.6035 -0.2621
 1490SOL     MW 5960   4.412   4.363   1.170 -0.5394  0.0917  0.0232
 1491SOL     OW 5961   5.135   1.314   0.930 -0.6597 -0.4166 -0.0709
 1491SOL    HW1 5962   5.139   1.311   1.026 -1.6766  0.4016  0.0163
 1491SOL    HW2 5963   5.141   1.407   0.910  2.2521 -0.7161 -0.9718
 1491SOL     MW 5964   5.136   1.326   0.940 -0.4171 -0.3502 -0.1750
 1492SOL     OW 5965   2.078   1.711   1.499  0.0619  0.1625 -0.1652
 1492SOL    HW1 5966   2.037   1.639   1.452  0.3405  0.5371 -1.0074
 1492SOL    HW2 5967   2.008   1.746   1.555 -0.2599 -0.3180 -0.2607
 1492SOL     MW 5968   2.063   1.707   1.500  0.0564  0.1489 -0.2853
 1493SOL     OW 5969   3.464   2.489   5.178 -0.3507  0.5874  0.2835
 1493SOL    HW1 5970   3.458   2.479   5.273  0.2130  0.7655  0.3463
 1493SOL    HW2 5971   3.452   2.401   5.143  1.9715  0.0256  0.6783
 1493SOL     MW 5972   3.462   2.476   5.186  0.0188  0.5383  0.3421
 1494SOL     OW 5973   1.016   3.273   3.828 -0.4181 -0.1416  0.1184
 1494SOL    HW1 5974   1.017   3.209   3.899 -0.5491 -1.1786 -0.7869
 1494SOL    HW2 5975   0.936   3.323   3.842 -0.2288 -0.0496  0.9322
 1494SOL     MW 5976   1.006   3.271   3.839 -0.4106 -0.2626  0.1067
 1495SOL     OW 5977   4.315   2.415   4.816 -0.8209  0.2845 -0.4495
 1495SOL    HW1 5978   4.315   2.338   4.873 -1.1637  1.7962  1.7117
 1495SOL    HW2 5979   4.274   2.385   4.735 -3.3781 -1.1904  1.2612
 1495SOL     MW 5980   4.310   2.402   4.813 -1.1922  0.2892  0.0461
 1496SOL     OW 5981   4.019   4.349   3.243 -0.4498  0.1363  0.1614
 1496SOL    HW1 5982   3.991   4.258   3.248 -1.8224  0.5549  0.4992
 1496SOL    HW2 5983   4.113   4.346   3.260 -0.8570 -0.9865  2.6705
 1496SOL     MW 5984   4.028   4.337   3.246 -0.6777  0.0462  0.5258
 1497SOL     OW 5985   0.701   0.931   1.331 -0.1742 -0.4778  0.0561
 1497SOL    HW1 5986   0.632   0.996   1.325 -0.2368 -0.4588  0.9248
 1497SOL    HW2 5987   0.668   0.856   1.280 -0.2559  0.0181 -0.6339
 1497SOL     MW 5988   0.688   0.930   1.324 -0.1927 -0.4119  0.0790
 1498SOL     OW 5989   0.765   0.970   0.603  0.0339  0.3466  0.1790
 1498SOL    HW1 5990   0.748   0.894   0.659  0.3227 -0.9110 -1.3804
 1498SOL    HW2 5991   0.857   0.963   0.579 -0.7530 -0.9709 -2.9454
 1498SOL     MW 5992   0.775   0.960   0.607 -0.0299  0.0170 -0.4206
 1499SOL     OW 5993   1.165   0.675   5.071 -0.2966 -0.0992 -0.0455
 1499SOL    HW1 5994   1.078   0.677   5.032 -0.5054 -1.7980  0.2712
 1499SOL    HW2 5995   1.152   0.705   5.161 -0.2909  1.0403 -0.4096
 1499SOL     MW 5996   1.153   0.679   5.077 -0.3226 -0.1708 -0.0516
 1500SOL     OW 5997   2.163   1.020   2.619  0.0015  0.2348  0.3425
 1500SOL    HW1 5998   2.162   1.021   2.523  1.4914  1.3432  0.3070
 1500SOL    HW2 5999   2.122   0.937   2.643  0.5351 -0.5195 -1.2620
 1500SOL     MW 6000   2.157   1.010   2.610  0.2605  0.2801  0.1325
 1501SOL     OW 6001   1.161   3.973   3.773 -0.0043  0.2820 -0.4576
 1501SOL    HW1 6002   1.139   3.982   3.680  1.3497 -0.2023 -0.8540
 1501SOL    HW2 6003   1.154   4.062   3.808 -0.7416  0.4325 -0.9709
 1501SOL     MW 6004   1.158   3.986   3.766  0.0746  0.2393 -0.5741
 1502SOL     OW 6005   5.314   2.339   2.870 -0.5927  0.3137 -0.1702
 1502SOL    HW1 6006   5.233   2.296   2.844 -1.3847  1.6902 -0.0210
 1502SOL    HW2 6007   5.308   2.427   2.834  0.8377  0.4496 -0.1512
 1502SOL     MW 6008   5.303   2.345   2.862 -0.5110  0.5073 -0.1486
 1503SOL     OW 6009   1.212   1.958   2.157  0.1066 -0.1866  0.0118
 1503SOL    HW1 6010   1.126   1.959   2.115 -0.1986 -0.6886  0.5949
 1503SOL    HW2 6011   1.204   2.022   2.228 -0.4029 -1.5060  1.1965
 1503SOL     MW 6012   1.200   1.966   2.161  0.0023 -0.4198  0.2381
 1504SOL     OW 6013   4.239   2.397   0.564  0.3514  0.0690 -0.1065
 1504SOL    HW1 6014   4.332   2.378   0.580  0.4166 -0.8490 -1.4112
 1504SOL    HW2 6015   4.217   2.343   0.488 -0.7531  1.7326 -1.0086
 1504SOL     MW 6016   4.248   2.388   0.556  0.2183  0.1644 -0.3890
 1505SOL     OW 6017   1.221   1.979   2.765  0.1580 -0.3598 -0.0249
 1505SOL    HW1 6018   1.279   1.949   2.695  2.4282  0.3472  1.4486
 1505SOL    HW2 6019   1.190   2.064   2.735 -0.1270 -0.7264 -0.8132
 1505SOL     MW 6020   1.225   1.986   2.752  0.4122 -0.3163  0.0628
 1506SOL     OW 6021   1.315   2.597   4.437 -0.3080 -0.2354  0.1844
 1506SOL    HW1 6022   1.337   2.549   4.517 -1.5588 -2.0318 -0.4894
 1506SOL    HW2 6023   1.223   2.623   4.449 -0.4163 -0.2654 -0.5384
 1506SOL     MW 6024   1.306   2.594   4.449 -0.4820 -0.4692  0.0057
 1507SOL     OW 6025   1.451   3.619   0.735 -0.0833  0.3503  0.5348
 1507SOL    HW1 6026   1.416   3.553   0.795  1.0514  0.5750  1.4731
 1507SOL    HW2 6027   1.391   3.694   0.744 -0.4861  0.0152  0.6423
 1507SOL     MW 6028   1.439   3.621   0.744  0.0104  0.3362  0.6687
 1508SOL     OW 6029   3.094   3.139   2.236 -1.0209 -0.3056  0.3008
 1508SOL    HW1 6030   3.067   3.229   2.217 -1.4511 -0.8012 -1.6298
 1508SOL    HW2 6031   3.190   3.143   2.238 -0.9989  0.0587 -0.6776
 1508SOL     MW 6032   3.103   3.151   2.234 -1.0731 -0.3224 -0.0716
 1509SOL     OW 6033   0.283   2.774   5.245 -0.1261  0.4330 -0.5368
 1509SOL    HW1 6034   0.240   2.692   5.271 -1.0483  0.4535 -1.8674
 1509SOL    HW2 6035   0.308   2.760   5.154 -0.1537  1.5796 -0.7354
 1509SOL     MW 6036   0.280   2.762   5.237 -0.2477  0.5824 -0.7326
 1510SOL     OW 6037   4.406   5.466   2.532  0.2282  0.2914 -0.2983
 1510SOL    HW1 6038   4.337   5.451   2.467 -0.4913  0.5418  0.3863
 1510SOL    HW2 6039   4.458   5.538   2.497 -1.4032  1.8547  0.3414
 1510SOL     MW 6040   4.404   5.473   2.519 -0.0727  0.5236 -0.1288
 1511SOL     OW 6041   2.036   5.053   3.479  0.4312  0.0941 -0.1506
 1511SOL    HW1 6042   1.971   5.100   3.531  2.5042  2.0370  0.8678
 1511SOL    HW2 6043   2.057   5.113   3.407  1.2855 -0.3683 -0.3033
 1511SOL     MW 6044   2.031   5.067   3.476  0.8059  0.2836 -0.0398
 1512SOL     OW 6045   0.514   1.209   4.158  0.0147 -0.2909  0.1722
 1512SOL    HW1 6046   0.584   1.258   4.115 -0.2453 -0.9796 -1.0869
 1512SOL    HW2 6047   0.552   1.182   4.242  0.9362  0.1254 -0.0948
 1512SOL     MW 6048   0.528   1.212   4.164  0.0994 -0.3258 -0.0231
 1513SOL     OW 6049   2.338   0.915   0.651 -0.1182 -1.0342 -0.1046
 1513SOL    HW1 6050   2.340   0.823   0.674 -0.4187 -1.7795 -2.6601
 1513SOL    HW2 6051   2.302   0.916   0.562 -1.3472  1.6602  0.3109
 1513SOL     MW 6052   2.333   0.903   0.642 -0.3140 -0.7847 -0.3785
 1514SOL     OW 6053   4.727   1.570   1.236 -0.4973  0.1308 -0.3794
 1514SOL    HW1 6054   4.669   1.612   1.171 -0.6118  1.3182  0.4553
 1514SOL    HW2 6055   4.815   1.596   1.210 -0.5053  0.1686 -0.3696
 1514SOL     MW 6056   4.731   1.579   1.224 -0.5130  0.2876 -0.2713
 1515SOL     OW 6057   0.516   1.794   3.702  0.1438  0.4036  0.2195
 1515SOL    HW1 6058   0.600   1.795   3.655  0.1193  0.6225  0.1799
 1515SOL    HW2 6059   0.532   1.846   3.780 -0.5698  2.3456 -0.8537
 1515SOL     MW 6060   0.529   1.801   3.706  0.0493  0.6802  0.0771
 1516SOL     OW 6061   5.177   0.038   2.916  0.0158 -0.2435  1.1316
 1516SOL    HW1 6062   5.242   0.063   2.850 -0.3148 -0.3417  0.7674
 1516SOL    HW2 6063   5.098   0.085   2.891 -0.1789 -0.4668  1.3224
 1516SOL     MW 6064   5.175   0.047   2.904 -0.0514 -0.2846  1.1094
 1517SOL     OW 6065   1.446   5.180   5.081 -0.1149  0.4455  0.8345
 1517SOL    HW1 6066   1.365   5.220   5.048 -0.1722  0.3252  0.8318
 1517SOL    HW2 6067   1.417   5.104   5.130  0.0900 -0.4869 -0.4421
 1517SOL     MW 6068   1.432   5.176   5.083 -0.0960  0.3107  0.6707
 1518SOL     OW 6069   1.086   1.720   4.180 -0.0017 -0.1306 -0.2822
 1518SOL    HW1 6070   1.137   1.639   4.182 -0.6565 -0.5520  1.9180
 1518SOL    HW2 6071   1.151   1.790   4.188  0.4933 -0.4498 -1.3138
 1518SOL     MW 6072   1.100   1.719   4.181 -0.0222 -0.2254 -0.1326
 1519SOL     OW 6073   1.754   4.943   4.531 -0.0146  1.1608  0.3693
 1519SOL    HW1 6074   1.712   5.015   4.485 -2.2632 -0.5904 -0.5689
 1519SOL    HW2 6075   1.682   4.899   4.576  0.5315 -2.3754 -1.7996
 1519SOL     MW 6076   1.740   4.946   4.531 -0.2326  0.4839 -0.0285
 1520SOL     OW 6077   0.551   3.484   0.904 -0.0700 -0.2700 -0.1420
 1520SOL    HW1 6078   0.632   3.520   0.867 -0.6708 -1.2123 -2.5848
 1520SOL    HW2 6079   0.484   3.549   0.883  0.0687  0.7591  2.3411
 1520SOL     MW 6080   0.553   3.497   0.896 -0.1292 -0.2589 -0.1368
 1521SOL     OW 6081   4.681   0.170   2.891 -0.6904 -0.5610 -0.4138
 1521SOL    HW1 6082   4.687   0.162   2.986 -3.1591  2.3195  0.1704
 1521SOL    HW2 6083   4.640   0.088   2.863  2.9821 -2.8916  0.4097
 1521SOL     MW 6084   4.676   0.158   2.900 -0.5363 -0.4906 -0.2336
 1522SOL     OW 6085   0.776   4.785   4.757  0.1487 -0.0180 -0.3230
 1522SOL    HW1 6086   0.795   4.879   4.765 -1.7722  0.3998 -0.1929
 1522SOL    HW2 6087   0.695   4.781   4.706  0.5917 -1.6553 -0.9510
 1522SOL     MW 6088   0.768   4.797   4.752 -0.0405 -0.1741 -0.3868
 1523SOL     OW 6089   4.479   2.770   1.293 -0.1424 -0.0001  0.2061
 1523SOL    HW1 6090   4.560   2.799   1.334  0.8166 -1.4226 -0.5806
 1523SOL    HW2 6091   4.422   2.745   1.366  0.3594  0.4147  0.7421
 1523SOL     MW 6092   4.482   2.770   1.308  0.0446 -0.1291  0.1740
 1524SOL     OW 6093   5.233   1.950   4.690 -0.0824  0.9798  0.0538
 1524SOL    HW1 6094   5.306   1.900   4.652  0.0141  1.3655 -0.2806
 1524SOL    HW2 6095   5.240   1.935   4.784  0.3459  0.9005  0.0107
 1524SOL     MW 6096   5.243   1.941   4.697 -0.0152  1.0190  0.0055
 1525SOL     OW 6097   1.327   0.847   2.465 -1.1216 -0.2954 -0.5480
 1525SOL    HW1 6098   1.419   0.842   2.442 -0.3938 -0.6031  2.0369
 1525SOL    HW2 6099   1.291   0.918   2.411  0.6204 -0.1611 -1.5733
 1525SOL     MW 6100   1.334   0.855   2.455 -0.8054 -0.3176 -0.3484
 1526SOL     OW 6101   5.072   1.371   4.975  0.8652 -0.2586 -0.1487
 1526SOL    HW1 6102   5.076   1.454   4.926  1.6951  0.8643  1.7050
 1526SOL    HW2 6103   4.980   1.363   5.000  0.5137 -0.6286 -1.4745
 1526SOL     MW 6104   5.060   1.381   4.972  0.9264 -0.1622 -0.0811
 1527SOL     OW 6105   3.260   5.446   4.883 -0.6199 -0.0418 -0.3629
 1527SOL    HW1 6106   3.168   5.432   4.909 -0.3901 -0.8989  0.0265
 1527SOL    HW2 6107   3.311   5.399   4.949  0.0930  0.1149 -0.7909
 1527SOL     MW 6108   3.254   5.439   4.895 -0.4992 -0.1314 -0.3679
 1528SOL     OW 6109   1.633   0.481   4.928  0.1998 -0.0748  0.3930
 1528SOL    HW1 6110   1.685   0.560   4.916  1.3615 -0.8244  0.2238
 1528SOL    HW2 6111   1.547   0.502   4.894  0.4601  1.1445  0.4600
 1528SOL     MW 6112   1.629   0.494   4.922  0.3818 -0.0147  0.3799
 1529SOL     OW 6113   1.756   1.329   1.739  0.4360 -0.2409 -0.1630
 1529SOL    HW1 6114   1.710   1.273   1.802  0.9949 -1.6602 -0.9615
 1529SOL    HW2 6115   1.832   1.362   1.787  0.9912 -1.5007 -0.1235
 1529SOL     MW 6116   1.760   1.326   1.753  0.5786 -0.5838 -0.2601
 1530SOL     OW 6117   4.549   2.391   3.154 -0.4423  0.0580 -0.5675
 1530SOL    HW1 6118   4.599   2.336   3.094 -0.3524 -1.5261  0.9006
 1530SOL    HW2 6119   4.611   2.460   3.180 -0.8559  1.5651 -3.1849
 1530SOL     MW 6120   4.563   2.393   3.149 -0.4837  0.0481 -0.7146
 1531SOL     OW 6121   2.508   3.307   5.139  0.1363 -0.5608 -0.0128
 1531SOL    HW1 6122   2.524   3.307   5.045  3.3142 -2.6097  0.3616
 1531SOL    HW2 6123   2.464   3.224   5.156 -1.5159  0.3308  0.2329
 1531SOL     MW 6124   2.504   3.297   5.129  0.3316 -0.7089  0.0666
 1532SOL     OW 6125   1.075   0.660   2.375 -0.7608  0.6709  0.0090
 1532SOL    HW1 6126   1.032   0.598   2.316 -2.2573  1.4717  0.1947
 1532SOL    HW2 6127   1.162   0.623   2.391 -0.6990 -0.0729 -1.8719
 1532SOL     MW 6128   1.081   0.647   2.370 -0.9445  0.6782 -0.2080
 1533SOL     OW 6129   3.125   5.256   3.907  0.1090 -0.8489  0.2196
 1533SOL    HW1 6130   3.161   5.172   3.878  0.3389 -0.7624  0.2584
 1533SOL    HW2 6131   3.032   5.250   3.885  0.4213 -0.4500 -1.3343
 1533SOL     MW 6132   3.117   5.245   3.901  0.1784 -0.7867  0.0257
 1534SOL     OW 6133   3.004   5.402   5.182  0.9505  0.3289 -0.3384
 1534SOL    HW1 6134   2.982   5.311   5.161  0.5779  0.3572 -0.0749
 1534SOL    HW2 6135   2.958   5.420   5.264  1.7128  0.4866  0.0609
 1534SOL     MW 6136   2.995   5.393   5.190  1.0003  0.3527 -0.2536
 1535SOL     OW 6137   3.588   2.156   2.412  0.3710 -0.2182  0.4140
 1535SOL    HW1 6138   3.657   2.206   2.369  0.0066  0.1828  0.2877
 1535SOL    HW2 6139   3.618   2.146   2.502  1.6302 -1.9545 -0.1339
 1535SOL     MW 6140   3.600   2.161   2.418  0.4855 -0.3892  0.3277
 1536SOL     OW 6141   5.422   3.898   3.207  0.0801 -0.4608  0.0770
 1536SOL    HW1 6142   5.496   3.909   3.266  0.0214 -1.4411  0.3601
 1536SOL    HW2 6143   5.442   3.819   3.158 -0.3526 -0.2203 -0.4984
 1536SOL     MW 6144   5.434   3.889   3.208  0.0172 -0.5555  0.0396
 1537SOL     OW 6145   5.206   4.152   4.685  0.7559  0.0563  0.2962
 1537SOL    HW1 6146   5.126   4.172   4.636  2.5708 -0.6397 -3.2241
 1537SOL    HW2 6147   5.253   4.235   4.690  0.2955  0.2675  1.5631
 1537SOL     MW 6148   5.201   4.165   4.679  0.9293 -0.0058  0.0078
 1538SOL     OW 6149   1.898   1.233   1.213 -0.4840  0.4314 -0.2811
 1538SOL    HW1 6150   1.955   1.288   1.267  0.6433  0.3359 -1.3295
 1538SOL    HW2 6151   1.958   1.191   1.151 -1.4885 -1.0020 -0.3223
 1538SOL     MW 6152   1.913   1.235   1.212 -0.4683  0.2357 -0.4206
 1539SOL     OW 6153   4.587   4.426   1.717  0.0466 -0.8272 -0.3254
 1539SOL    HW1 6154   4.626   4.502   1.675  1.8235 -2.0169 -0.9614
 1539SOL    HW2 6155   4.570   4.364   1.645 -0.1530 -1.5359  0.3112
 1539SOL     MW 6156   4.590   4.428   1.702  0.2485 -1.0702 -0.3254
 1540SOL     OW 6157   1.277   3.169   2.369 -0.4432  0.6652 -0.2165
 1540SOL    HW1 6158   1.251   3.155   2.460 -0.5299 -2.1862 -0.5877
 1540SOL    HW2 6159   1.330   3.249   2.371  0.5889  0.0251  2.5505
 1540SOL     MW 6160   1.280   3.177   2.381 -0.3222  0.2182  0.0902
 1541SOL     OW 6161   1.820   1.855   5.056  0.1188 -0.9019  0.0747
 1541SOL    HW1 6162   1.862   1.930   5.099 -1.5086  0.7591 -1.0915
 1541SOL    HW2 6163   1.819   1.879   4.963 -0.6963 -2.2601 -0.2868
 1541SOL     MW 6164   1.825   1.868   5.049 -0.1939 -0.8631 -0.1209
 1542SOL     OW 6165   1.089   5.088   3.178 -0.2484 -0.3154  0.6874
 1542SOL    HW1 6166   1.025   5.086   3.106  0.4176 -4.3112 -0.0327
 1542SOL    HW2 6167   1.166   5.130   3.139 -0.5122 -0.7527 -0.3561
 1542SOL     MW 6168   1.090   5.094   3.164 -0.1969 -0.8829  0.4616
 1543SOL     OW 6169   4.282   3.399   4.792  0.3557  0.2885 -0.3534
 1543SOL    HW1 6170   4.217   3.329   4.800 -0.7903  1.3460 -0.2053
 1543SOL    HW2 6171   4.287   3.438   4.880 -0.9139  2.0111 -0.9922
 1543SOL     MW 6172   4.275   3.395   4.805  0.0464  0.6443 -0.4162
 1544SOL     OW 6173   0.445   3.725   2.260  0.1508  0.1695 -0.2926
 1544SOL    HW1 6174   0.538   3.708   2.251 -0.0194 -0.5233 -0.8299
 1544SOL    HW2 6175   0.403   3.655   2.210 -0.6819 -0.0184  0.6512
 1544SOL     MW 6176   0.451   3.714   2.252  0.0224  0.0568 -0.2405
 1545SOL     OW 6177   2.487   1.547   5.266 -0.0898  0.7073 -0.6209
 1545SOL    HW1 6178   2.498   1.598   5.346  1.2918 -1.1803  0.4708
 1545SOL    HW2 6179   2.395   1.559   5.243 -0.2611  2.1547  0.6197
 1545SOL     MW 6180   2.476   1.555   5.274  0.0652  0.6509 -0.3223
 1546SOL     OW 6181   0.527   2.509   3.883  0.0175  0.3730  0.1685
 1546SOL    HW1 6182   0.472   2.549   3.816 -0.9776  0.1678  0.8483
 1546SOL    HW2 6183   0.583   2.581   3.915  0.8366  0.3697 -1.1822
 1546SOL     MW 6184   0.527   2.523   3.879 -0.0050  0.3463  0.0826
 1547SOL     OW 6185   0.713   0.069   5.160 -0.1100 -0.2747 -0.4813
 1547SOL    HW1 6186   0.639   0.082   5.100  0.9723 -0.3680 -1.8682
 1547SOL    HW2 6187   0.768   0.146   5.148  0.6732 -0.8147 -0.4313
 1547SOL     MW 6188   0.710   0.081   5.151  0.1288 -0.3558 -0.6525
 1548SOL     OW 6189   5.273   4.756   4.938  0.6985  0.0921  0.0879
 1548SOL    HW1 6190   5.338   4.824   4.922  0.7982 -0.2223 -0.9028
 1548SOL    HW2 6191   5.249   4.725   4.851 -1.7661  1.0981  0.3278
 1548SOL     MW 6192   5.278   4.761   4.925  0.3958  0.1806 -0.0082
 1549SOL     OW 6193   5.117   1.489   5.403 -0.0573 -0.0081 -0.6816
 1549SOL    HW1 6194   5.212   1.488   5.419 -0.1129  0.3567 -0.2900
 1549SOL    HW2 6195   5.108   1.480   5.308  0.4095  0.9629 -0.8305
 1549SOL     MW 6196   5.128   1.488   5.393 -0.0046  0.1629 -0.6505
 1550SOL     OW 6197   2.588   3.194   0.291 -0.0289 -0.4570  0.0529
 1550SOL    HW1 6198   2.579   3.107   0.252 -0.9791  0.6857 -2.5029
 1550SOL    HW2 6199   2.645   3.242   0.231 -1.8582  1.5294 -0.2254
 1550SOL     MW 6200   2.594   3.189   0.278 -0.3847 -0.0564 -0.3099
 1551SOL     OW 6201   0.572   3.576   3.385 -0.5217  0.0948 -0.2798
 1551SOL    HW1 6202   0.518   3.561   3.307 -0.6495  0.0496 -0.1838
 1551SOL    HW2 6203   0.649   3.521   3.372  0.3856  1.5483 -1.2872
 1551SOL     MW 6204   0.575   3.567   3.373 -0.4220  0.2751 -0.3965
 1552SOL     OW 6205   1.434   3.512   0.474  0.6618  0.4134  0.2958
 1552SOL    HW1 6206   1.459   3.554   0.556  0.3521  0.6021  0.2933
 1552SOL    HW2 6207   1.430   3.584   0.410  0.4817  0.3301  0.2122
 1552SOL     MW 6208   1.437   3.526   0.476  0.5991  0.4269  0.2848
 1553SOL     OW 6209   5.111   1.229   3.623  0.6098 -0.0731  0.0445
 1553SOL    HW1 6210   5.089   1.312   3.581  1.2428  0.7900  1.3299
 1553SOL    HW2 6211   5.200   1.242   3.656  0.5944 -1.1516  0.5622
 1553SOL     MW 6212   5.120   1.241   3.622  0.6888 -0.1007  0.2753
 1554SOL     OW 6213   2.414   1.924   0.866 -0.1967 -0.1310  0.0503
 1554SOL    HW1 6214   2.416   1.848   0.925 -0.3595  1.0015  1.5642
 1554SOL    HW2 6215   2.325   1.959   0.876  0.0557  0.5907 -0.2205
 1554SOL     MW 6216   2.403   1.919   0.874 -0.1852  0.1064  0.2094
 1555SOL     OW 6217   2.451   0.884   0.205 -0.5688  0.2574 -0.1977
 1555SOL    HW1 6218   2.357   0.869   0.197 -0.4153 -0.9212 -0.0376
 1555SOL    HW2 6219   2.459   0.972   0.241 -1.6540 -0.0420  0.8461
 1555SOL     MW 6220   2.440   0.893   0.209 -0.6881  0.0682 -0.0436
 1556SOL     OW 6221   2.458   0.033   2.823  0.4070 -0.2210  0.4750
 1556SOL    HW1 6222   2.473   0.113   2.874  0.6137  0.0817 -0.0551
 1556SOL    HW2 6223   2.490   0.054   2.736 -0.9322 -0.3685 -0.0720
 1556SOL     MW 6224   2.464   0.046   2.819  0.2620 -0.2011  0.3371
 1557SOL     OW 6225   2.591   0.475   1.432  0.7764 -0.1928  0.4047
 1557SOL    HW1 6226   2.505   0.473   1.391  0.6367  0.0671  0.6758
 1557SOL    HW2 6227   2.637   0.399   1.397  0.4411 -0.3219  0.2449
 1557SOL     MW 6228   2.586   0.465   1.423  0.7156 -0.1761  0.4190
 1558SOL     OW 6229   2.029   4.286   3.906  0.4994 -0.6807  0.2033
 1558SOL    HW1 6230   2.051   4.362   3.961 -1.5757  0.5135 -0.5026
 1558SOL    HW2 6231   2.072   4.304   3.822 -0.3985 -0.0053 -0.1248
 1558SOL     MW 6232   2.037   4.298   3.903  0.1188 -0.4414  0.0709
 1559SOL     OW 6233   0.581   1.994   2.156 -0.4009  0.2161 -0.6431
 1559SOL    HW1 6234   0.636   1.991   2.235  0.3482  1.1573 -1.0970
 1559SOL    HW2 6235   0.606   1.916   2.107 -1.5187 -0.8558  0.4439
 1559SOL     MW 6236   0.592   1.984   2.160 -0.4481  0.1994 -0.5621
 1560SOL     OW 6237   2.349   2.259   4.516 -0.0722 -0.0156  0.0386
 1560SOL    HW1 6238   2.389   2.175   4.541 -2.4304 -0.8090  1.4752
 1560SOL    HW2 6239   2.266   2.234   4.475  0.2788  1.6031 -1.7974
 1560SOL     MW 6240   2.344   2.245   4.514 -0.3291  0.0901 -0.0125
 1561SOL     OW 6241   4.015   1.615   1.215 -0.5050 -0.4315 -0.5073
 1561SOL    HW1 6242   4.073   1.689   1.203 -0.0773 -0.7382 -0.3457
 1561SOL    HW2 6243   3.948   1.626   1.148 -1.2746  0.8914  0.4256
 1561SOL     MW 6244   4.014   1.626   1.205 -0.5488 -0.3014 -0.3672
 1562SOL     OW 6245   2.220   1.342   0.176 -0.5348  0.6975 -0.8041
 1562SOL    HW1 6246   2.140   1.370   0.219 -0.3342  0.3685 -0.2095
 1562SOL    HW2 6247   2.226   1.248   0.194 -0.1596  0.6642 -1.0744
 1562SOL     MW 6248   2.211   1.334   0.183 -0.4611  0.6511 -0.7626
 1563SOL     OW 6249   0.336   0.138   2.423 -0.0003 -0.2414 -0.1108
 1563SOL    HW1 6250   0.391   0.063   2.399 -1.3188 -1.5797  0.8542
 1563SOL    HW2 6251   0.395   0.198   2.468  1.1180 -0.6228 -1.0090
 1563SOL     MW 6252   0.351   0.136   2.425 -0.0259 -0.4616 -0.1022
 1564SOL     OW 6253   3.345   4.699   4.331  0.0387  0.3654  0.0454
 1564SOL    HW1 6254   3.353   4.674   4.239  0.7540 -0.4455  0.3205
 1564SOL    HW2 6255   3.260   4.744   4.336 -1.8478 -2.8466 -0.3095
 1564SOL     MW 6256   3.335   4.701   4.320 -0.1112 -0.1495  0.0352
 1565SOL     OW 6257   5.121   0.707   2.555 -0.3595 -0.5724  0.0624
 1565SOL    HW1 6258   5.169   0.693   2.637 -1.9743 -0.1904  1.1138
 1565SOL    HW2 6259   5.165   0.782   2.515  0.4600 -0.7678  0.5611
 1565SOL     MW 6260   5.133   0.715   2.561 -0.4613 -0.5485  0.2608
 1566SOL     OW 6261   1.835   1.008   4.969 -0.0819  0.1692  0.0992
 1566SOL    HW1 6262   1.764   1.041   4.915 -1.3039 -1.4669  0.6309
 1566SOL    HW2 6263   1.793   0.954   5.035  1.5595  0.2342  1.2830
 1566SOL     MW 6264   1.821   1.006   4.971 -0.0282 -0.0319  0.3188
 1567SOL     OW 6265   1.258   1.956   4.130  0.1349  0.8976 -0.3565
 1567SOL    HW1 6266   1.323   1.909   4.183  0.1846  2.1791  0.7759
 1567SOL    HW2 6267   1.310   2.013   4.073  0.0432  1.5024  0.1477
 1567SOL     MW 6268   1.273   1.957   4.130  0.1295  1.1390 -0.1470
 1568SOL     OW 6269   0.804   3.455   3.744  0.1810 -0.3873  0.3855
 1568SOL    HW1 6270   0.757   3.538   3.757 -0.0556 -0.2145 -1.3693
 1568SOL    HW2 6271   0.740   3.398   3.701  1.0290 -0.7315 -0.4444
 1568SOL     MW 6272   0.790   3.458   3.740  0.2593 -0.4092  0.0547
 1569SOL     OW 6273   0.730   1.341   4.083 -0.0230  0.5438  0.0139
 1569SOL    HW1 6274   0.819   1.313   4.063 -0.2468  0.1419 -0.4407
 1569SOL    HW2 6275   0.711   1.409   4.019 -0.3698 -0.0232 -0.5010
 1569SOL     MW 6276   0.739   1.346   4.072 -0.0961  0.4197 -0.1102
 1570SOL     OW 6277   2.378   3.246   3.972  0.0275  0.3943 -0.6768
 1570SOL    HW1 6278   2.428   3.234   4.053 -1.3846  0.8888  0.3173
 1570SOL    HW2 6279   2.431   3.307   3.920  0.6141  0.6410  0.1828
 1570SOL     MW 6280   2.391   3.252   3.976 -0.0782  0.4892 -0.4395
 1571SOL     OW 6281   1.800   3.463   3.367  0.0364 -0.3502  0.1706
 1571SOL    HW1 6282   1.713   3.455   3.406 -0.3148 -0.2896 -0.5670
 1571SOL    HW2 6283   1.827   3.373   3.348 -0.6185 -0.2911 -1.1617
 1571SOL     MW 6284   1.792   3.450   3.369 -0.0924 -0.3349 -0.0944
 1572SOL     OW 6285   0.401   4.370   1.453  0.1358  0.8207  0.0180
 1572SOL    HW1 6286   0.351   4.293   1.480  0.8708  0.5355  0.5926
 1572SOL    HW2 6287   0.462   4.386   1.526  1.3372  0.7579 -0.9422
 1572SOL     MW 6288   0.402   4.362   1.466  0.3837  0.7761 -0.0313
 1573SOL     OW 6289   2.858   1.563   1.623  0.1116 -0.0579 -0.4626
 1573SOL    HW1 6290   2.916   1.488   1.636  4.1783  2.7018 -0.7965
 1573SOL    HW2 6291   2.824   1.583   1.711  1.4024 -0.5533  0.1789
 1573SOL     MW 6292   2.861   1.556   1.636  0.7974  0.2319 -0.4232
 1574SOL     OW 6293   2.323   1.853   4.045 -0.1542  0.3235  0.0288
 1574SOL    HW1 6294   2.366   1.778   4.085  0.7348  1.0705  0.5078
 1574SOL    HW2 6295   2.261   1.815   3.983 -0.5486 -0.8276  1.0895
 1574SOL     MW 6296   2.320   1.839   4.042 -0.0909  0.2717  0.2259
 1575SOL     OW 6297   0.660   4.454   2.429  0.2920 -0.0083 -0.0104
 1575SOL    HW1 6298   0.699   4.504   2.501  1.9981 -3.4588  1.7593
 1575SOL    HW2 6299   0.577   4.423   2.464  1.0750 -1.5993  0.5603
 1575SOL     MW 6300   0.655   4.456   2.443  0.6106 -0.6536  0.2892
 1576SOL     OW 6301   2.006   2.446   2.167  0.1206  0.1620  0.0119
 1576SOL    HW1 6302   2.059   2.446   2.088 -0.9651 -0.1882 -0.7423
 1576SOL    HW2 6303   1.917   2.463   2.136 -0.3389 -0.0810  1.1474
 1576SOL     MW 6304   2.001   2.448   2.153 -0.0772  0.0860  0.0607
 1577SOL     OW 6305   4.336   4.984   3.806 -0.5679  0.1014 -0.0193
 1577SOL    HW1 6306   4.260   5.035   3.835  0.7257  2.0196  0.1720
 1577SOL    HW2 6307   4.366   5.028   3.727 -0.1402 -1.1554 -0.5824
 1577SOL     MW 6308   4.330   4.996   3.800 -0.3476  0.1861 -0.0669
 1578SOL     OW 6309   1.116   5.363   3.985  0.0534  0.1451 -0.2867
 1578SOL    HW1 6310   1.122   5.281   4.033  1.9905  0.7681  0.6771
 1578SOL    HW2 6311   1.086   5.339   3.898 -2.1728 -1.2021  0.7715
 1578SOL     MW 6312   1.113   5.350   3.980  0.0164  0.0524 -0.0278
 1579SOL     OW 6313   2.888   0.324   2.219  0.0542  0.4707  0.1159
 1579SOL    HW1 6314   2.915   0.313   2.128  0.3105 -1.6353  0.3959
 1579SOL    HW2 6315   2.944   0.264   2.268 -1.3669  0.1353  1.4087
 1579SOL     MW 6316   2.898   0.315   2.214 -0.0949  0.1582  0.3172
 1580SOL     OW 6317   2.102   1.121   1.850  0.5142 -0.2410  0.4199
 1580SOL    HW1 6318   2.174   1.090   1.795 -0.8509 -1.0292 -0.9644
 1580SOL    HW2 6319   2.103   1.216   1.839  0.5049 -0.3584 -0.6441
 1580SOL     MW 6320   2.111   1.130   1.842  0.3383 -0.3569  0.1065
 1581SOL     OW 6321   4.585   1.710   1.058 -0.4860  0.2775 -0.1909
 1581SOL    HW1 6322   4.560   1.799   1.082 -1.2554  0.4338 -1.4730
 1581SOL    HW2 6323   4.647   1.722   0.986  0.4667 -0.2147  0.5185
 1581SOL     MW 6324   4.590   1.723   1.052 -0.4625  0.2345 -0.2642
 1582SOL     OW 6325   3.506   0.391   0.306  0.4591  0.1190  0.4825
 1582SOL    HW1 6326   3.497   0.459   0.238  1.2944 -0.4707 -0.2415
 1582SOL    HW2 6327   3.599   0.372   0.309  0.7161  1.3577  3.0736
 1582SOL     MW 6328   3.517   0.398   0.297  0.5989  0.2021  0.7215
 1583SOL     OW 6329   0.903   4.561   4.781 -0.1173  0.2064 -0.6649
 1583SOL    HW1 6330   0.848   4.640   4.781 -1.5836 -0.7376  1.6364
 1583SOL    HW2 6331   0.927   4.549   4.872  0.0218 -2.0499 -0.9600
 1583SOL     MW 6332   0.899   4.570   4.793 -0.2872 -0.2033 -0.4081
 1584SOL     OW 6333   5.089   4.634   3.430  0.5309  0.1267 -0.0877
 1584SOL    HW1 6334   5.031   4.621   3.505 -0.6368  0.9182 -0.8161
 1584SOL    HW2 6335   5.040   4.599   3.355  2.6167 -2.8434 -0.2324
 1584SOL     MW 6336   5.075   4.628   3.430  0.6484 -0.1522 -0.1994
 1585SOL     OW 6337   1.417   3.673   2.466  0.3734  0.2832 -0.1601
 1585SOL    HW1 6338   1.472   3.744   2.435  1.8129 -1.2597 -1.3111
 1585SOL    HW2 6339   1.437   3.665   2.559  0.2606  1.2850 -0.0402
 1585SOL     MW 6340   1.426   3.681   2.474  0.5432  0.2140 -0.2921
 1586SOL     OW 6341   3.401   4.396   3.954  0.0281  0.5418 -0.1014
 1586SOL    HW1 6342   3.476   4.375   4.009 -1.9714 -1.2175  2.1647
 1586SOL    HW2 6343   3.403   4.331   3.884  1.5499  1.6397 -1.1494
 1586SOL     MW 6344   3.411   4.385   3.952 -0.0331  0.4572  0.0545
 1587SOL     OW 6345   4.057   4.076   3.541 -0.1916 -0.2630  0.3087
 1587SOL    HW1 6346   4.143   4.047   3.572  1.6784  2.4286 -1.8315
 1587SOL    HW2 6347   4.044   4.162   3.582 -1.3463 -0.1589 -0.2317
 1587SOL     MW 6348   4.067   4.084   3.550 -0.1000  0.0949 -0.0344
 1588SOL     OW 6349   1.731   0.321   4.665 -0.0252  0.3080 -0.4150
 1588SOL    HW1 6350   1.660   0.384   4.649 -0.6593  0.0935  1.3699
 1588SOL    HW2 6351   1.762   0.341   4.753 -0.2743 -1.8669  0.2333
 1588SOL     MW 6352   1.726   0.331   4.674 -0.1383  0.0021 -0.1035
 1589SOL     OW 6353   5.249   5.392   3.408 -0.0860  0.0871 -0.0946
 1589SOL    HW1 6354   5.306   5.464   3.380 -0.6104  0.2298 -0.8119
 1589SOL    HW2 6355   5.299   5.347   3.476  0.0549  1.4302  0.7229
 1589SOL     MW 6356   5.262   5.396   3.413 -0.1351  0.2773 -0.0818
 1590SOL     OW 6357   5.281   3.433   4.523 -0.3448 -0.2601 -0.2861
 1590SOL    HW1 6358   5.222   3.501   4.555 -1.5120  0.1780 -3.0007
 1590SOL    HW2 6359   5.368   3.473   4.524 -0.8219  0.8177 -0.5598
 1590SOL     MW 6360   5.284   3.447   4.527 -0.5553 -0.0661 -0.6686
 1591SOL     OW 6361   0.114   3.145   4.270 -0.3327 -0.1901 -0.3157
 1591SOL    HW1 6362   0.036   3.200   4.266  1.7633  3.1974  0.5213
 1591SOL    HW2 6363   0.157   3.158   4.186  0.1234 -0.6916 -0.1657
 1591SOL     MW 6364   0.110   3.154   4.259 -0.0060  0.1794 -0.1894
 1592SOL     OW 6365   2.896   4.381   1.136 -0.3661 -0.3756 -0.4148
 1592SOL    HW1 6366   2.894   4.293   1.173 -1.9721 -0.4172 -0.5235
 1592SOL    HW2 6367   2.981   4.417   1.162  0.5254 -2.1220 -0.7823
 1592SOL     MW 6368   2.907   4.375   1.144 -0.4576 -0.6045 -0.4758
 1593SOL     OW 6369   4.950   1.908   1.215 -0.1009  0.4835 -0.1054
 1593SOL    HW1 6370   4.880   1.916   1.279  1.3849 -1.0534  1.8534
 1593SOL    HW2 6371   4.948   1.816   1.188  1.2350  0.3667  0.1207
 1593SOL     MW 6372   4.941   1.898   1.220  0.2603  0.2718  0.1743
 1594SOL     OW 6373   3.722   4.594   1.382  1.1834  0.3948  0.1615
 1594SOL    HW1 6374   3.716   4.562   1.292 -3.7759  2.3901 -0.5615
 1594SOL    HW2 6375   3.687   4.522   1.435 -0.8322  0.9519 -0.2965
 1594SOL     MW 6376   3.717   4.581   1.377  0.2906  0.7216  0.0103
 1595SOL     OW 6377   4.544   1.582   2.528 -0.1661 -0.0988 -0.5703
 1595SOL    HW1 6378   4.595   1.519   2.479  0.4620 -1.3242  1.5302
 1595SOL    HW2 6379   4.474   1.531   2.569 -0.8216  0.9189 -0.3586
 1595SOL     MW 6380   4.541   1.568   2.527 -0.1696 -0.1254 -0.2743
 1596SOL     OW 6381   1.345   5.013   4.756  0.0821  0.0803 -0.5458
 1596SOL    HW1 6382   1.286   4.976   4.822 -0.3487  0.9459 -0.4348
 1596SOL    HW2 6383   1.420   5.045   4.806 -0.1592  0.5657 -0.4848
 1596SOL     MW 6384   1.347   5.012   4.771 -0.0039  0.2532 -0.5238
 1597SOL     OW 6385   0.218   4.339   0.655  0.1261  0.3331  0.3539
 1597SOL    HW1 6386   0.135   4.360   0.613 -0.3348  0.3721  1.2702
 1597SOL    HW2 6387   0.283   4.392   0.608 -0.0552 -1.1020 -1.6166
 1597SOL     MW 6388   0.216   4.349   0.644  0.0439  0.1544  0.2190
 1598SOL     OW 6389   1.008   1.973   0.239  0.0521 -0.0905  0.6012
 1598SOL    HW1 6390   1.104   1.977   0.241 -0.0018  1.1411  1.6832
 1598SOL    HW2 6391   0.983   2.043   0.180 -0.1902 -0.2177  0.5551
 1598SOL     MW 6392   1.017   1.982   0.232  0.0142  0.0508  0.7338
 1599SOL     OW 6393   0.118   0.687   0.077  0.1947  0.1942 -0.4344
 1599SOL    HW1 6394   0.045   0.682   0.016  1.2798  1.4739 -1.9373
 1599SOL    HW2 6395   0.187   0.635   0.035  0.4549 -0.2048  0.4829
 1599SOL     MW 6396   0.118   0.680   0.063  0.3669  0.3069 -0.5094
 1600SOL     OW 6397   0.872   1.529   4.649  0.3392  0.0193 -0.5417
 1600SOL    HW1 6398   0.885   1.438   4.625 -0.0091  0.1843 -1.3786
 1600SOL    HW2 6399   0.851   1.527   4.742  0.0493 -0.7709 -0.6227
 1600SOL     MW 6400   0.871   1.517   4.658  0.2575 -0.0608 -0.6592
 1601SOL     OW 6401   5.094   1.189   4.767 -0.0811  0.8775 -0.2172
 1601SOL    HW1 6402   5.097   1.248   4.841  2.0780  0.1413  0.3678
 1601SOL    HW2 6403   5.185   1.183   4.737 -0.8404  1.0514 -2.8749
 1601SOL     MW 6404   5.106   1.196   4.773  0.0981  0.8055 -0.4825
 1602SOL     OW 6405   4.740   4.050   2.211 -0.1287  0.0384  0.1508
 1602SOL    HW1 6406   4.804   4.097   2.158  0.1415  1.4815  1.6533
 1602SOL    HW2 6407   4.791   4.012   2.283 -0.7220 -0.2366  0.4363
 1602SOL     MW 6408   4.755   4.051   2.214 -0.1701  0.1879  0.3797
 1603SOL     OW 6409   1.695   3.724   0.880 -0.9574 -0.2491 -0.3999
 1603SOL    HW1 6410   1.693   3.707   0.974 -1.0397  0.8165 -0.1894
 1603SOL    HW2 6411   1.606   3.704   0.850 -1.0395 -0.2292 -0.1699
 1603SOL     MW 6412   1.683   3.720   0.888 -0.9785 -0.1101 -0.3435
 1604SOL     OW 6413   0.132   1.233   3.864  0.0055 -0.1013  0.1808
 1604SOL    HW1 6414   0.147   1.303   3.800 -0.3225  0.5724  0.8279
 1604SOL    HW2 6415   0.220   1.209   3.893  0.0636  1.9342  1.9362
 1604SOL     MW 6416   0.146   1.239   3.860 -0.0290  0.2455  0.4884
 1605SOL     OW 6417   0.165   3.618   1.931 -0.3383  0.0416 -0.2263
 1605SOL    HW1 6418   0.156   3.560   1.855 -0.5129  0.7226 -0.7322
 1605SOL    HW2 6419   0.075   3.631   1.961 -0.3240  0.2632 -0.2795
 1605SOL     MW 6420   0.152   3.612   1.925 -0.3588  0.1571 -0.2979
 1606SOL     OW 6421   3.228   2.385   4.843  0.7078 -0.1514  0.5628
 1606SOL    HW1 6422   3.311   2.417   4.811 -0.2169  2.8094  0.8496
 1606SOL    HW2 6423   3.171   2.383   4.766 -0.1508  2.2881  1.0415
 1606SOL     MW 6424   3.231   2.389   4.829  0.4795  0.5399  0.6608
 1607SOL     OW 6425   3.424   0.797   0.052 -0.0475  0.0929  0.4181
 1607SOL    HW1 6426   3.496   0.819   0.112 -0.6584 -1.2200  1.6891
 1607SOL    HW2 6427   3.357   0.864   0.069  0.0513  0.1181  0.7179
 1607SOL     MW 6428   3.425   0.809   0.062 -0.1131 -0.0719  0.6192
 1608SOL     OW 6429   0.202   0.450   2.878  0.2262  0.4644 -0.1931
 1608SOL    HW1 6430   0.109   0.435   2.862 -0.1095 -0.4194  2.2421
 1608SOL    HW2 6431   0.207   0.541   2.908 -0.2629 -0.1468  1.9403
 1608SOL     MW 6432   0.191   0.459   2.880  0.1206  0.2730  0.3918
 1609SOL     OW 6433   4.247   5.382   5.248  0.5585 -1.0134 -0.1475
 1609SOL    HW1 6434   4.188   5.437   5.197  1.2617 -0.1362 -0.0429
 1609SOL    HW2 6435   4.207   5.295   5.245 -0.4401 -0.5616 -0.5339
 1609SOL     MW 6436   4.234   5.378   5.241  0.5207 -0.8433 -0.1836
 1610SOL     OW 6437   2.683   0.473   5.170  0.5322 -0.0805 -0.1973
 1610SOL    HW1 6438   2.684   0.404   5.237 -0.1357 -0.1822 -0.2826
 1610SOL    HW2 6439   2.675   0.425   5.087 -1.2814  0.1117 -0.1838
 1610SOL     MW 6440   2.682   0.458   5.168  0.2145 -0.0689 -0.2065
 1611SOL     OW 6441   2.324   4.936   1.328  0.0671 -0.2161  0.0446
 1611SOL    HW1 6442   2.365   4.853   1.304  3.7754  1.7916 -1.5018
 1611SOL    HW2 6443   2.240   4.936   1.282  0.0272 -3.0018 -0.0262
 1611SOL     MW 6444   2.319   4.926   1.319  0.5367 -0.3157 -0.1624
 1612SOL     OW 6445   2.984   4.591   3.680  0.2978 -0.1522  0.3162
 1612SOL    HW1 6446   2.897   4.587   3.719 -0.8106  1.5492 -1.7601
 1612SOL    HW2 6447   3.033   4.650   3.737  0.1302 -1.1335  1.5083
 1612SOL     MW 6448   2.979   4.598   3.692  0.1344 -0.0600  0.2030
 1613SOL     OW 6449   0.961   3.220   0.215 -0.0127 -0.5363  0.5679
 1613SOL    HW1 6450   0.956   3.136   0.169  1.7849  0.0041 -0.7476
 1613SOL    HW2 6451   1.055   3.236   0.225 -0.3384  0.8112  1.7928
 1613SOL     MW 6452   0.972   3.211   0.210  0.1757 -0.2946  0.5563
 1614SOL     OW 6453   4.898   0.086   0.560 -0.0210  0.7109 -0.1179
 1614SOL    HW1 6454   4.987   0.057   0.583 -0.0643  0.5553 -0.1443
 1614SOL    HW2 6455   4.870   0.139   0.634 -0.5305 -0.5775  0.6333
 1614SOL     MW 6456   4.906   0.089   0.572 -0.0918  0.5261 -0.0251
 1615SOL     OW 6457   3.996   0.533   3.748  0.2188 -0.0038  0.4409
 1615SOL    HW1 6458   4.089   0.520   3.727 -0.0871 -1.1476 -0.3465
 1615SOL    HW2 6459   3.956   0.448   3.729 -0.7968  0.1104  1.9084
 1615SOL     MW 6460   4.003   0.520   3.743  0.0496 -0.1356  0.5280
 1616SOL     OW 6461   0.704   1.592   4.436 -0.2629 -0.1122 -0.4438
 1616SOL    HW1 6462   0.740   1.600   4.525  0.1574  1.9703 -0.7529
 1616SOL    HW2 6463   0.666   1.504   4.434 -1.3858  0.2116  2.2005
 1616SOL     MW 6464   0.704   1.581   4.447 -0.3528  0.1958 -0.1448
 1617SOL     OW 6465   1.801   4.333   1.352 -0.3249  0.5454  0.4317
 1617SOL    HW1 6466   1.880   4.296   1.392  0.7299 -0.0412 -2.0123
 1617SOL    HW2 6467   1.812   4.428   1.359 -0.6283  0.4833  2.2569
 1617SOL     MW 6468   1.812   4.341   1.358 -0.2287  0.4623  0.3525
 1618SOL     OW 6469   4.322   0.482   0.697 -0.1291  0.0016 -0.3484
 1618SOL    HW1 6470   4.411   0.448   0.707  0.0200 -0.0290 -1.5776
 1618SOL    HW2 6471   4.329   0.575   0.722  0.2002 -0.0471 -0.2515
 1618SOL     MW 6472   4.335   0.490   0.702 -0.0678 -0.0085 -0.4934
 1619SOL     OW 6473   2.170   3.392   3.281  0.0535  0.2267 -0.0788
 1619SOL    HW1 6474   2.141   3.425   3.196 -1.6398 -0.9906 -0.0193
 1619SOL    HW2 6475   2.136   3.455   3.345 -0.5790 -0.0139 -0.1697
 1619SOL     MW 6476   2.162   3.404   3.279 -0.2442  0.0401 -0.0828
 1620SOL     OW 6477   2.127   4.262   1.262  0.2279 -0.2555  0.1242
 1620SOL    HW1 6478   2.099   4.353   1.276 -2.5325 -0.6533 -1.8496
 1620SOL    HW2 6479   2.086   4.214   1.334 -1.5198 -0.3530 -0.8659
 1620SOL     MW 6480   2.118   4.268   1.273 -0.3492 -0.3189 -0.2552
 1621SOL     OW 6481   3.674   3.499   1.577  0.0511  0.4396 -0.2515
 1621SOL    HW1 6482   3.679   3.419   1.629 -1.3749 -0.5331 -1.4997
 1621SOL    HW2 6483   3.747   3.553   1.607  0.5510 -0.9830  1.1964
 1621SOL     MW 6484   3.684   3.496   1.587 -0.0675  0.1330 -0.2259
 1622SOL     OW 6485   2.216   3.766   3.210 -0.0604  0.0504  0.0824
 1622SOL    HW1 6486   2.295   3.718   3.234 -0.3628 -0.9381 -0.8119
 1622SOL    HW2 6487   2.235   3.803   3.125  0.2172  1.6852  0.8297
 1622SOL     MW 6488   2.228   3.764   3.202 -0.0635  0.1331  0.0636
 1623SOL     OW 6489   4.769   2.366   0.966 -0.1147 -0.1803 -0.8444
 1623SOL    HW1 6490   4.857   2.334   0.985  0.0292  1.0564  0.8369
 1623SOL    HW2 6491   4.780   2.461   0.958 -1.0144 -0.1800 -2.5629
 1623SOL     MW 6492   4.782   2.374   0.968 -0.2114 -0.0219 -0.8492
 1624SOL     OW 6493   3.676   5.054   0.820  0.2162  0.0766 -0.0096
 1624SOL    HW1 6494   3.654   5.147   0.815 -1.2281 -0.2081  0.6867
 1624SOL    HW2 6495   3.687   5.027   0.728 -0.3532  0.7111 -0.2702
 1624SOL     MW 6496   3.674   5.062   0.808 -0.0416  0.1214  0.0461
 1625SOL     OW 6497   1.522   2.554   0.452  0.0520 -0.4961 -0.0537
 1625SOL    HW1 6498   1.514   2.470   0.406  0.0746 -1.0041  0.8486
 1625SOL    HW2 6499   1.435   2.592   0.449 -0.0685 -0.7729 -0.0548
 1625SOL     MW 6500   1.510   2.548   0.445  0.0395 -0.5965  0.0617
 1626SOL     OW 6501   1.444   3.621   4.553  0.0989  0.3045  0.1696
 1626SOL    HW1 6502   1.406   3.602   4.468  1.5268 -0.4607 -0.3414
 1626SOL    HW2 6503   1.421   3.546   4.607  0.3816  0.1222  0.0372
 1626SOL     MW 6504   1.436   3.609   4.549  0.3179  0.1832  0.0872
 1627SOL     OW 6505   5.097   0.013   0.826 -0.1957  0.4602 -0.2712
 1627SOL    HW1 6506   5.136   0.047   0.746 -0.6729  0.8208 -0.3514
 1627SOL    HW2 6507   5.171  -0.023   0.875  0.3704  1.9091 -0.0263
 1627SOL     MW 6508   5.111   0.012   0.822 -0.1843  0.6919 -0.2501
 1628SOL     OW 6509   2.494   2.153   3.048 -0.0567  0.7613  0.1942
 1628SOL    HW1 6510   2.481   2.058   3.043  0.6234  0.6945 -0.3472
 1628SOL    HW2 6511   2.504   2.181   2.957  2.3596  0.9650  0.4658
 1628SOL     MW 6512   2.494   2.145   3.036  0.3397  0.7788  0.1596
 1629SOL     OW 6513   0.068   4.110   2.693  0.0755 -0.3553  0.2221
 1629SOL    HW1 6514   0.047   4.101   2.786  0.6553 -0.1603  0.3759
 1629SOL    HW2 6515   0.099   4.200   2.685 -3.2720  0.8469 -0.8104
 1629SOL     MW 6516   0.069   4.121   2.704 -0.2788 -0.1765  0.1096
 1630SOL     OW 6517   4.145   3.736   2.699 -0.0207 -0.4196 -0.0293
 1630SOL    HW1 6518   4.089   3.722   2.623  0.1953 -2.8863  0.1595
 1630SOL    HW2 6519   4.212   3.797   2.668 -0.7617 -0.2221 -1.3529
 1630SOL     MW 6520   4.147   3.742   2.685 -0.0879 -0.7101 -0.1746
 1631SOL     OW 6521   3.859   3.247   4.352 -0.1658  0.1109 -0.4767
 1631SOL    HW1 6522   3.811   3.179   4.400  1.8626 -1.4805 -0.5270
 1631SOL    HW2 6523   3.834   3.328   4.395  0.5840 -1.1063  2.5550
 1631SOL     MW 6524   3.850   3.248   4.364  0.1898 -0.2487 -0.0951
 1632SOL     OW 6525   3.430   1.812   2.562 -0.1053  0.1854  0.0157
 1632SOL    HW1 6526   3.514   1.805   2.607  0.5358 -1.2436 -1.3100
 1632SOL    HW2 6527   3.395   1.897   2.588  1.0088  0.1331  1.8220
 1632SOL     MW 6528   3.436   1.822   2.571  0.1194 -0.0042  0.0773
 1633SOL     OW 6529   0.891   2.737   2.143 -0.3317 -0.1661 -0.0957
 1633SOL    HW1 6530   0.887   2.802   2.213  1.2657  0.1643 -0.2776
 1633SOL    HW2 6531   0.984   2.734   2.118 -0.2154 -2.8983  0.2850
 1633SOL     MW 6532   0.903   2.745   2.149 -0.1123 -0.4736 -0.0703
 1634SOL     OW 6533   3.108   0.230   1.185 -0.4508  0.3895 -0.5084
 1634SOL    HW1 6534   3.104   0.236   1.280 -0.2350  2.2165 -0.5815
 1634SOL    HW2 6535   3.031   0.177   1.161 -0.0220 -0.8493  0.6933
 1634SOL     MW 6536   3.098   0.224   1.194 -0.3683  0.4648 -0.3639
 1635SOL     OW 6537   0.258   2.306   0.745 -0.2561 -0.2871  0.0832
 1635SOL    HW1 6538   0.341   2.281   0.786  0.0415  2.1003  1.1194
 1635SOL    HW2 6539   0.277   2.388   0.699 -2.3421  1.2942  1.7819
 1635SOL     MW 6540   0.271   2.314   0.744 -0.4850  0.2210  0.4333
 1636SOL     OW 6541   3.741   1.206   4.005  0.2532 -0.0786  0.7362
 1636SOL    HW1 6542   3.721   1.116   3.979 -0.4726 -0.7831  3.4360
 1636SOL    HW2 6543   3.836   1.213   3.993  0.2521 -0.9939 -0.0121
 1636SOL     MW 6544   3.751   1.195   4.000  0.1601 -0.2860  0.9860
 1637SOL     OW 6545   2.850   4.757   1.786  0.0689 -0.1815 -0.1166
 1637SOL    HW1 6546   2.820   4.748   1.876  0.9059 -1.5826  0.0629
 1637SOL    HW2 6547   2.884   4.670   1.764 -0.1752  0.1199 -1.8034
 1637SOL     MW 6548   2.850   4.745   1.795  0.1448 -0.3222 -0.3096
 1638SOL     OW 6549   4.114   0.881   4.557  0.1775  1.2548 -0.8946
 1638SOL    HW1 6550   4.173   0.808   4.574  0.2540  0.8171 -2.8026
 1638SOL    HW2 6551   4.101   0.922   4.643  0.3501 -0.8104  0.1837
 1638SOL     MW 6552   4.120   0.877   4.570  0.2094  0.9344 -1.0008
 1639SOL     OW 6553   2.593   3.005   2.285  0.0524 -0.5234  0.1868
 1639SOL    HW1 6554   2.527   2.943   2.318 -1.7690  0.2378 -1.7798
 1639SOL    HW2 6555   2.608   2.979   2.195 -0.7939  1.8019 -0.7292
 1639SOL     MW 6556   2.586   2.994   2.278 -0.2891 -0.1283 -0.1822
 1640SOL     OW 6557   5.240   5.479   1.258  0.2284  0.4995  0.0814
 1640SOL    HW1 6558   5.251   5.441   1.171 -1.4573  0.0566  0.0435
 1640SOL    HW2 6559   5.151   5.512   1.260  0.4757  1.1948  1.3966
 1640SOL     MW 6560   5.230   5.478   1.247  0.0442  0.5318  0.2449
 1641SOL     OW 6561   1.863   1.585   5.361  0.0624  0.5224 -0.1154
 1641SOL    HW1 6562   1.915   1.627   5.292 -1.5747  0.9828 -1.1221
 1641SOL    HW2 6563   1.882   1.491   5.352  0.7616  0.6899 -0.4160
 1641SOL     MW 6564   1.872   1.578   5.351 -0.0577  0.6028 -0.2828
 1642SOL     OW 6565   4.613   3.881   5.139 -0.2086  0.2412 -0.0629
 1642SOL    HW1 6566   4.628   3.855   5.047 -0.9820 -0.2734 -0.0570
 1642SOL    HW2 6567   4.567   3.806   5.177 -2.0315  1.3999  0.1123
 1642SOL     MW 6568   4.609   3.868   5.132 -0.5409  0.3236 -0.0397
 1643SOL     OW 6569   0.934   2.033   3.007 -0.2255 -0.7639  0.3659
 1643SOL    HW1 6570   1.007   2.093   2.990  0.7016 -1.7181  0.8703
 1643SOL    HW2 6571   0.883   2.034   2.925  0.1889  0.1223  0.1037
 1643SOL     MW 6572   0.937   2.040   2.994 -0.0538 -0.7726  0.3969
 1644SOL     OW 6573   3.327   2.725   2.108 -0.7106 -0.0593 -0.2609
 1644SOL    HW1 6574   3.273   2.660   2.152  0.5192 -0.8391  0.1550
 1644SOL    HW2 6575   3.278   2.807   2.117 -2.9622 -1.1138 -1.9882
 1644SOL     MW 6576   3.314   2.727   2.115 -0.8414 -0.2941 -0.4288
 1645SOL     OW 6577   3.954   2.276   2.840 -0.1713 -0.0700  0.7594
 1645SOL    HW1 6578   3.964   2.282   2.935  0.4705  0.1936  0.6850
 1645SOL    HW2 6579   4.044   2.277   2.807 -0.4113  0.6329  0.1071
 1645SOL     MW 6580   3.967   2.277   2.848 -0.1199  0.0537  0.6663
 1646SOL     OW 6581   1.910   4.215   2.872  0.2640  0.0245  0.4279
 1646SOL    HW1 6582   1.939   4.298   2.910 -1.0964  1.6882 -1.8586
 1646SOL    HW2 6583   1.819   4.207   2.902 -1.1156  1.7903 -2.7810
 1646SOL     MW 6584   1.902   4.225   2.881 -0.0868  0.4635 -0.2756
 1647SOL     OW 6585   1.022   3.854   1.036 -0.1631 -0.0588  0.4005
 1647SOL    HW1 6586   0.980   3.935   1.068  0.2267  0.8130 -1.1975
 1647SOL    HW2 6587   1.012   3.858   0.941  1.1112 -1.2001  0.1970
 1647SOL     MW 6588   1.016   3.865   1.028  0.0499 -0.0933  0.1699
 1648SOL     OW 6589   3.552   3.820   3.177  0.2452 -0.4050  0.3826
 1648SOL    HW1 6590   3.640   3.781   3.180  0.6608  0.4616 -0.0865
 1648SOL    HW2 6591   3.511   3.791   3.258 -0.1479 -3.3208 -0.7294
 1648SOL     MW 6592   3.558   3.811   3.188  0.2481 -0.6673  0.1802
 1649SOL     OW 6593   3.647   5.216   3.162 -0.4364  1.1272 -0.4816
 1649SOL    HW1 6594   3.559   5.241   3.132 -0.9589  0.5910  0.5312
 1649SOL    HW2 6595   3.635   5.128   3.198  0.6798  0.7432 -1.0055
 1649SOL     MW 6596   3.634   5.208   3.162 -0.3604  1.0094 -0.4190
 1650SOL     OW 6597   1.681   5.157   5.321 -0.7556  0.0899  0.0376
 1650SOL    HW1 6598   1.755   5.158   5.381 -1.3408  1.7620  0.7769
 1650SOL    HW2 6599   1.704   5.089   5.256  0.9184 -0.1511  0.8315
 1650SOL     MW 6600   1.693   5.148   5.320 -0.6162  0.2731  0.2339
 1651SOL     OW 6601   1.131   2.025   1.731  0.1333  0.3505  0.1711
 1651SOL    HW1 6602   1.039   2.022   1.756 -0.4086  0.6479 -1.6367
 1651SOL    HW2 6603   1.131   2.065   1.644  1.9054 -0.3215 -0.1818
 1651SOL     MW 6604   1.119   2.030   1.723  0.2908  0.3025 -0.1055
 1652SOL     OW 6605   2.740   1.507   1.373 -0.8745 -0.1792  0.1406
 1652SOL    HW1 6606   2.783   1.536   1.454 -2.7338  3.8616 -0.0724
 1652SOL    HW2 6607   2.649   1.533   1.384 -1.4712 -0.7014 -2.7838
 1652SOL     MW 6608   2.734   1.514   1.385 -1.1889  0.2712 -0.2611
 1653SOL     OW 6609   4.453   0.604   3.862 -0.2567 -0.1157 -0.6043
 1653SOL    HW1 6610   4.406   0.544   3.920 -0.8006 -0.0216 -0.9364
 1653SOL    HW2 6611   4.507   0.657   3.921 -0.5439 -0.2544 -0.2128
 1653SOL     MW 6612   4.454   0.603   3.877 -0.3631 -0.1214 -0.5967
 1654SOL     OW 6613   0.782   0.656   1.553  0.5942  0.0602 -0.0543
 1654SOL    HW1 6614   0.716   0.628   1.615  0.9329 -0.8439 -0.0788
 1654SOL    HW2 6615   0.788   0.751   1.564 -1.1246  0.2431 -0.4872
 1654SOL     MW 6616   0.775   0.664   1.562  0.4175 -0.0321 -0.1128
 1655SOL     OW 6617   4.163   2.730   5.258 -0.7808  0.5072  0.3995
 1655SOL    HW1 6618   4.188   2.640   5.235 -0.6074 -0.0403  2.4411
 1655SOL    HW2 6619   4.081   2.720   5.308 -1.7493  1.6873 -0.8743
 1655SOL     MW 6620   4.156   2.717   5.262 -0.8826  0.5882  0.4978
 1656SOL     OW 6621   1.479   2.019   2.150  0.2846  0.1888  0.1100
 1656SOL    HW1 6622   1.503   1.931   2.121 -0.9721  0.3430 -1.5342
 1656SOL    HW2 6623   1.384   2.020   2.151  0.2340  1.8470 -1.0582
 1656SOL     MW 6624   1.470   2.008   2.146  0.1172  0.4208 -0.2500
 1657SOL     OW 6625   3.781   0.591   4.564  0.0909  0.5890 -0.4829
 1657SOL    HW1 6626   3.744   0.651   4.499  0.3557  1.3758  0.0826
 1657SOL    HW2 6627   3.800   0.646   4.640  3.7769  0.5844 -1.1909
 1657SOL     MW 6628   3.779   0.606   4.565  0.5966  0.6891 -0.5012
 1658SOL     OW 6629   4.008   0.515   0.918 -0.8401  0.4605  0.6950
 1658SOL    HW1 6630   4.091   0.511   0.965 -0.8388 -0.1050  0.6525
 1658SOL    HW2 6631   3.972   0.426   0.925  0.4123 -0.4529 -2.6107
 1658SOL     MW 6632   4.014   0.503   0.925 -0.6796  0.2712  0.2664
 1659SOL     OW 6633   1.221   0.717   4.347 -0.3850  0.3258  0.1933
 1659SOL    HW1 6634   1.298   0.759   4.311 -0.3031 -0.2311 -0.2959
 1659SOL    HW2 6635   1.177   0.786   4.397 -0.6344  1.1852 -1.1674
 1659SOL     MW 6636   1.225   0.731   4.349 -0.4064  0.3645 -0.0435
 1660SOL     OW 6637   0.663   4.284   3.537 -0.5739  0.2810  0.4245
 1660SOL    HW1 6638   0.696   4.229   3.467 -0.7082  0.8831 -0.1183
 1660SOL    HW2 6639   0.704   4.249   3.616 -0.6200 -0.5620  0.0877
 1660SOL     MW 6640   0.672   4.273   3.538 -0.5970  0.2501  0.3119
 1661SOL     OW 6641   4.732   4.049   3.690  0.5211  0.2188  0.0929
 1661SOL    HW1 6642   4.734   4.059   3.594  1.1142  1.3368  0.2100
 1661SOL    HW2 6643   4.706   4.135   3.722  3.7380  0.9258  1.0946
 1661SOL     MW 6644   4.729   4.061   3.682  1.0088  0.4524  0.2361
 1662SOL     OW 6645   3.472   0.527   0.072  0.1982 -0.5711  0.2359
 1662SOL    HW1 6646   3.381   0.496   0.072 -0.2827  0.5605 -1.8885
 1662SOL    HW2 6647   3.463   0.623   0.069  1.4003 -0.4731 -1.2414
 1662SOL     MW 6648   3.459   0.536   0.071  0.2905 -0.4137 -0.2251
 1663SOL     OW 6649   1.461   1.788   4.627  0.5413 -0.3866  0.5695
 1663SOL    HW1 6650   1.533   1.846   4.602  0.6246 -1.6979 -2.6999
 1663SOL    HW2 6651   1.503   1.719   4.679  0.7164  1.3839  2.9652
 1663SOL     MW 6652   1.476   1.787   4.631  0.5744 -0.3278  0.4577
 1664SOL     OW 6653   0.303   1.822   2.809 -0.0034 -0.2494 -0.1107
 1664SOL    HW1 6654   0.376   1.850   2.752  0.6526 -2.1940 -0.2950
 1664SOL    HW2 6655   0.225   1.843   2.758  0.5084 -0.2506 -0.9322
 1664SOL     MW 6656   0.303   1.828   2.795  0.1461 -0.4985 -0.2395
 1665SOL     OW 6657   1.671   3.065   3.004 -0.5017  0.2839 -0.7476
 1665SOL    HW1 6658   1.731   3.007   2.957  0.3717  0.8750 -0.3817
 1665SOL    HW2 6659   1.596   3.074   2.946 -0.2651 -0.4986 -1.1974
 1665SOL     MW 6660   1.669   3.059   2.991 -0.3596  0.2594 -0.7583
 1666SOL     OW 6661   2.090   4.092   2.692 -0.3310  0.4758  0.0570
 1666SOL    HW1 6662   2.039   4.139   2.758  0.6941  2.8445 -0.7179
 1666SOL    HW2 6663   2.167   4.060   2.739 -0.5455  0.4337  0.3870
 1666SOL     MW 6664   2.093   4.094   2.706 -0.2272  0.7737  0.0001
 1667SOL     OW 6665   0.471   3.826   1.169  0.2337  0.7103  0.3140
 1667SOL    HW1 6666   0.519   3.743   1.162 -1.2781 -0.2668  0.9752
 1667SOL    HW2 6667   0.534   3.888   1.206  1.3754 -0.1472 -0.1292
 1667SOL     MW 6668   0.485   3.823   1.173  0.1863  0.4754  0.3419
 1668SOL     OW 6669   5.427   4.832   2.293  0.1684  0.1257  0.3595
 1668SOL    HW1 6670   5.492   4.901   2.278 -0.2361  0.7752  1.5001
 1668SOL    HW2 6671   5.342   4.876   2.285 -0.0927  0.3020  3.3048
 1668SOL     MW 6672   5.424   4.846   2.290  0.0832  0.2314  0.8826
 1669SOL     OW 6673   1.771   1.440   4.080 -0.1769  0.0179  0.0578
 1669SOL    HW1 6674   1.784   1.352   4.043  0.0033  0.4326 -0.9002
 1669SOL    HW2 6675   1.814   1.498   4.018 -1.2531  0.8864  0.0910
 1669SOL     MW 6676   1.778   1.436   4.067 -0.2916  0.1821 -0.0605
 1670SOL     OW 6677   2.924   1.965   1.235  0.3496 -0.2125  0.4511
 1670SOL    HW1 6678   2.849   2.024   1.247  0.9230  0.1312  2.7496
 1670SOL    HW2 6679   2.951   1.979   1.144 -2.3172 -0.3206 -0.4570
 1670SOL     MW 6680   2.918   1.974   1.225  0.0816 -0.1823  0.6291
 1671SOL     OW 6681   0.665   2.560   2.134 -0.2962  0.2470  0.3331
 1671SOL    HW1 6682   0.748   2.604   2.148 -1.9651  3.4303  1.2916
 1671SOL    HW2 6683   0.629   2.548   2.222 -0.6434 -1.6544 -0.0208
 1671SOL     MW 6684   0.671   2.564   2.148 -0.5543  0.4111  0.4105
 1672SOL     OW 6685   5.361   1.446   2.728  0.5189  0.7342 -0.1515
 1672SOL    HW1 6686   5.352   1.378   2.661 -3.3587  0.2401  0.6531
 1672SOL    HW2 6687   5.363   1.398   2.811 -1.2793  1.4927  0.3700
 1672SOL     MW 6688   5.360   1.431   2.730 -0.2077  0.7680  0.0183
 1673SOL     OW 6689   3.836   3.714   5.102  0.1268 -0.3753  0.1235
 1673SOL    HW1 6690   3.839   3.686   5.194  0.6765 -2.5822 -0.5090
 1673SOL    HW2 6691   3.745   3.700   5.076 -0.2962  1.2697  0.5674
 1673SOL     MW 6692   3.824   3.709   5.110  0.1430 -0.4472  0.0994
 1674SOL     OW 6693   3.426   0.206   1.358 -0.1123 -0.4897 -0.1735
 1674SOL    HW1 6694   3.473   0.123   1.356  0.5856 -0.1155  0.2584
 1674SOL    HW2 6695   3.401   0.221   1.267  0.6157 -0.6973 -0.4175
 1674SOL     MW 6696   3.429   0.197   1.346  0.0702 -0.4684 -0.1495
 1675SOL     OW 6697   1.249   1.041   5.362 -0.0870  0.7062  0.3843
 1675SOL    HW1 6698   1.222   1.130   5.385  0.6135  0.9969  0.1248
 1675SOL    HW2 6699   1.324   1.024   5.420  0.8912  0.9626 -0.7774
 1675SOL     MW 6700   1.255   1.051   5.373  0.1279  0.7762  0.2024
 1676SOL     OW 6701   4.009   1.193   3.941  0.1563 -0.2406 -0.7665
 1676SOL    HW1 6702   3.987   1.134   3.869 -0.2724 -2.2015  0.8862
 1676SOL    HW2 6703   4.100   1.170   3.964 -1.1831 -3.3962  2.4930
 1676SOL     MW 6704   4.018   1.182   3.935 -0.0700 -0.8956 -0.1377
 1677SOL     OW 6705   0.401   0.390   1.702 -0.0301 -0.6986  0.0787
 1677SOL    HW1 6706   0.343   0.328   1.746 -1.2543  0.8423  0.7268
 1677SOL    HW2 6707   0.342   0.450   1.657  0.9763  1.4527  1.4608
 1677SOL     MW 6708   0.386   0.390   1.702 -0.0580 -0.2260  0.3386
 1678SOL     OW 6709   2.835   3.999   5.062 -0.0240  0.1232  0.2218
 1678SOL    HW1 6710   2.839   4.064   4.992  1.8572  0.2896  0.4127
 1678SOL    HW2 6711   2.751   4.014   5.105  0.4411  2.5964  0.4015
 1678SOL     MW 6712   2.825   4.009   5.058  0.2764  0.4611  0.2693
 1679SOL     OW 6713   0.673   4.948   1.717 -0.3909  0.1280  0.4914
 1679SOL    HW1 6714   0.611   4.973   1.649  0.3998  1.1636  0.1320
 1679SOL    HW2 6715   0.733   5.022   1.723  0.5922 -0.6974  1.0898
 1679SOL     MW 6716   0.673   4.961   1.709 -0.1638  0.1549  0.5220
 1680SOL     OW 6717   1.939   4.289   3.299 -0.1388 -0.8218 -0.1815
 1680SOL    HW1 6718   1.940   4.215   3.238  2.0875 -0.3864 -0.7609
 1680SOL    HW2 6719   2.007   4.268   3.364 -0.5090  0.0384  0.4985
 1680SOL     MW 6720   1.948   4.277   3.299  0.0988 -0.6560 -0.1686
 1681SOL     OW 6721   0.859   2.852   1.103 -0.0780  0.5318 -0.0335
 1681SOL    HW1 6722   0.794   2.827   1.168 -1.7256 -1.1819 -2.1826
 1681SOL    HW2 6723   0.827   2.934   1.067 -0.3158  0.4024 -0.1199
 1681SOL     MW 6724   0.847   2.859   1.106 -0.3193  0.2958 -0.3197
 1682SOL     OW 6725   0.753   1.058   0.260  0.2037 -0.3370 -0.5968
 1682SOL    HW1 6726   0.755   0.966   0.232  2.0180 -0.4753 -0.1559
 1682SOL    HW2 6727   0.684   1.097   0.208 -1.3109 -2.1704 -0.0775
 1682SOL     MW 6728   0.745   1.051   0.250  0.2420 -0.5894 -0.4739
 1683SOL     OW 6729   0.533   2.788   2.047  0.1498 -0.7225 -0.2970
 1683SOL    HW1 6730   0.481   2.795   2.127  0.1730  0.6761 -0.3865
 1683SOL    HW2 6731   0.593   2.715   2.064  0.1716 -0.4379  0.9651
 1683SOL     MW 6732   0.534   2.779   2.060  0.1556 -0.5070 -0.1469
 1684SOL     OW 6733   3.846   3.817   0.963 -0.1091  0.1241 -0.4457
 1684SOL    HW1 6734   3.835   3.768   1.045  1.8273  1.6840  0.8636
 1684SOL    HW2 6735   3.882   3.753   0.901 -0.6082 -0.8399  0.2343
 1684SOL     MW 6736   3.849   3.803   0.966  0.0749  0.2004 -0.1911
 1685SOL     OW 6737   3.205   0.337   2.451 -0.5152  0.2879  0.2676
 1685SOL    HW1 6738   3.152   0.260   2.430 -1.1244  0.1685  2.0403
 1685SOL    HW2 6739   3.283   0.329   2.397 -1.0457 -1.0368 -0.3266
 1685SOL     MW 6740   3.208   0.326   2.442 -0.6611  0.1030  0.4184
 1686SOL     OW 6741   1.120   0.756   3.247  0.3391 -0.0098 -0.4226
 1686SOL    HW1 6742   1.185   0.825   3.259 -0.1534  0.3510  0.2585
 1686SOL    HW2 6743   1.145   0.714   3.165  1.1845  0.3857 -0.3863
 1686SOL     MW 6744   1.132   0.760   3.238  0.3843  0.0870 -0.3308
 1687SOL     OW 6745   0.769   0.320   1.955  0.1872 -0.0927 -0.3004
 1687SOL    HW1 6746   0.766   0.345   2.047  0.7829  1.1468 -0.5937
 1687SOL    HW2 6747   0.686   0.275   1.939 -0.4077  0.6617  0.5622
 1687SOL     MW 6748   0.758   0.317   1.965  0.1873  0.1625 -0.2276
 1688SOL     OW 6749   5.165   0.034   0.549 -0.2827 -0.6664 -0.2903
 1688SOL    HW1 6750   5.216  -0.046   0.554  0.7507  0.0110  0.4998
 1688SOL    HW2 6751   5.225   0.099   0.512 -1.0262 -0.1902 -0.6930
 1688SOL     MW 6752   5.179   0.032   0.545 -0.2456 -0.5187 -0.2407
 1689SOL     OW 6753   3.573   2.755   3.707 -0.5249 -0.4720  0.4335
 1689SOL    HW1 6754   3.619   2.672   3.703  0.5899  0.1355  0.2617
 1689SOL    HW2 6755   3.564   2.772   3.801  2.1430  0.7219  0.5641
 1689SOL     MW 6756   3.578   2.747   3.719 -0.0406 -0.2414  0.4282
 1690SOL     OW 6757   3.255   5.238   4.708  0.5678 -0.0765  0.2432
 1690SOL    HW1 6758   3.160   5.232   4.711  0.5994 -1.1038 -0.5187
 1690SOL    HW2 6759   3.276   5.307   4.772 -0.5710 -0.8739  1.5479
 1690SOL     MW 6760   3.246   5.246   4.717  0.4260 -0.3101  0.3127
 1691SOL     OW 6761   1.380   2.862   5.046  0.4441 -0.3871 -0.6218
 1691SOL    HW1 6762   1.408   2.872   5.136 -0.1894  2.5934 -0.6665
 1691SOL    HW2 6763   1.461   2.858   4.995  0.8378  0.9517 -0.1373
 1691SOL     MW 6764   1.394   2.863   5.051  0.4134  0.1658 -0.5655
 1692SOL     OW 6765   1.570   4.572   1.150  0.0940  0.0865  0.3578
 1692SOL    HW1 6766   1.544   4.535   1.065 -2.5178 -0.8635  1.4819
 1692SOL    HW2 6767   1.502   4.634   1.172 -0.7043 -1.5056  2.8455
 1692SOL     MW 6768   1.558   4.575   1.142 -0.3425 -0.2389  0.8202
 1693SOL     OW 6769   1.995   4.897   5.087  0.1790 -0.1673  0.3987
 1693SOL    HW1 6770   2.040   4.982   5.092  0.6086 -0.0491 -3.1257
 1693SOL    HW2 6771   1.995   4.875   4.994 -2.1090 -2.9076  0.9081
 1693SOL     MW 6772   2.000   4.905   5.076 -0.0589 -0.5029  0.0127
 1694SOL     OW 6773   2.414   1.935   2.241  0.2727 -0.4423  0.6883
 1694SOL    HW1 6774   2.500   1.940   2.201 -0.3043 -1.7184 -0.8305
 1694SOL    HW2 6775   2.430   1.894   2.327  1.0516 -1.8549 -0.1009
 1694SOL     MW 6776   2.427   1.930   2.247  0.2986 -0.7865  0.3928
 1695SOL     OW 6777   2.608   2.747   0.786  0.5988 -0.2582 -0.4429
 1695SOL    HW1 6778   2.558   2.828   0.777  1.6126  0.1465 -3.4150
 1695SOL    HW2 6779   2.610   2.731   0.881 -0.3719  2.6673  0.1852
 1695SOL     MW 6780   2.602   2.755   0.797  0.6044  0.1681 -0.7430
 1696SOL     OW 6781   4.976   5.015   3.928 -0.0818  0.2166 -0.0542
 1696SOL    HW1 6782   5.048   4.961   3.961  0.1150  0.8940  0.6522
 1696SOL    HW2 6783   5.008   5.048   3.844 -0.0373 -0.4197 -0.2888
 1696SOL     MW 6784   4.989   5.012   3.921 -0.0509  0.2219  0.0062
 1697SOL     OW 6785   4.409   2.018   5.338 -0.4051  0.3097 -0.4665
 1697SOL    HW1 6786   4.479   2.077   5.310  1.4214 -1.3083  0.4110
 1697SOL    HW2 6787   4.375   1.981   5.256  0.5973  0.2476 -0.8762
 1697SOL     MW 6788   4.414   2.021   5.324 -0.0430  0.0946 -0.4066
 1698SOL     OW 6789   1.311   1.829   1.187  0.3492  0.2936  0.1713
 1698SOL    HW1 6790   1.346   1.917   1.205 -0.2576  0.4985  0.3678
 1698SOL    HW2 6791   1.319   1.783   1.270 -0.7964  0.6717  0.5055
 1698SOL     MW 6792   1.317   1.835   1.200  0.1249  0.3682  0.2393
 1699SOL     OW 6793   3.342   2.289   0.120 -0.3747  0.1504 -0.0578
 1699SOL    HW1 6794   3.270   2.235   0.088 -0.3671 -0.6739  1.2420
 1699SOL    HW2 6795   3.384   2.235   0.187  0.5293  1.2105  0.2506
 1699SOL     MW 6796   3.338   2.275   0.124 -0.2580  0.1806  0.1481
 1700SOL     OW 6797   1.042   3.324   3.429 -0.0038  0.1028  0.7021
 1700SOL    HW1 6798   1.073   3.362   3.511  2.1590  1.2764 -0.5645
 1700SOL    HW2 6799   1.106   3.254   3.410 -0.8474 -0.5822  0.3241
 1700SOL     MW 6800   1.054   3.320   3.437  0.1651  0.1653  0.4915
 1701SOL     OW 6801   5.356   3.506   0.958  0.2887  0.2520  0.5405
 1701SOL    HW1 6802   5.444   3.469   0.953 -0.2718 -1.1104  0.2941
 1701SOL    HW2 6803   5.355   3.574   0.891  1.5288  1.1947  1.4054
 1701SOL     MW 6804   5.367   3.510   0.949  0.3757  0.1982  0.6197
 1702SOL     OW 6805   3.708   0.435   2.524 -0.2361  0.1094 -0.0269
 1702SOL    HW1 6806   3.663   0.351   2.515  0.8365 -0.3372 -1.6428
 1702SOL    HW2 6807   3.637   0.499   2.529 -1.0720 -0.8704  1.3088
 1702SOL     MW 6808   3.693   0.432   2.523 -0.2058 -0.0732 -0.0628
 1703SOL     OW 6809   4.670   4.905   5.421 -0.2746  0.4705 -0.2144
 1703SOL    HW1 6810   4.646   4.917   5.329  1.6524  0.3506 -0.7662
 1703SOL    HW2 6811   4.759   4.870   5.419 -0.5307 -0.4286  1.6865
 1703SOL     MW 6812   4.678   4.902   5.409 -0.0607  0.3401 -0.0417
 1704SOL     OW 6813   3.508   1.494   4.006 -0.4702 -0.3798  0.2900
 1704SOL    HW1 6814   3.483   1.500   3.914  0.4299 -3.7075 -0.2817
 1704SOL    HW2 6815   3.476   1.576   4.045 -1.8212  0.6470 -2.7151
 1704SOL     MW 6816   3.501   1.505   3.999 -0.5279 -0.6743 -0.1679
 1705SOL     OW 6817   3.906   2.131   0.537 -0.0357 -0.5529 -0.1090
 1705SOL    HW1 6818   3.918   2.226   0.539 -1.5666 -0.3394  0.3682
 1705SOL    HW2 6819   3.898   2.105   0.628  0.6217 -1.1826 -0.2236
 1705SOL     MW 6820   3.906   2.140   0.549 -0.1475 -0.6062 -0.0626
 1706SOL     OW 6821   2.665   4.320   0.192 -0.2249 -0.3728  0.2566
 1706SOL    HW1 6822   2.752   4.343   0.227 -0.3961  0.8479 -0.0764
 1706SOL    HW2 6823   2.665   4.225   0.189  0.4675 -0.4541  1.8960
 1706SOL     MW 6824   2.676   4.311   0.196 -0.1582 -0.2270  0.4238
 1707SOL     OW 6825   0.141   4.604   1.234  0.5013  0.7473 -0.2779
 1707SOL    HW1 6826   0.117   4.686   1.277  1.7342 -0.0300  2.0773
 1707SOL    HW2 6827   0.091   4.537   1.281  0.6027 -0.0091 -1.2163
 1707SOL     MW 6828   0.131   4.606   1.246  0.6721  0.5510 -0.0965
 1708SOL     OW 6829   0.531   2.178   0.534  0.0673 -0.3222  0.0142
 1708SOL    HW1 6830   0.517   2.260   0.487 -0.9203 -1.3504 -1.5812
 1708SOL    HW2 6831   0.587   2.127   0.475 -0.4436 -1.3025  0.3670
 1708SOL     MW 6832   0.536   2.182   0.521 -0.1245 -0.5793 -0.1449
 1709SOL     OW 6833   4.290   0.202   0.806  0.5113 -0.6329 -0.6468
 1709SOL    HW1 6834   4.256   0.135   0.747 -0.8197  0.4033 -1.1155
 1709SOL    HW2 6835   4.267   0.285   0.763  3.3660  0.1683 -0.8083
 1709SOL     MW 6836   4.283   0.204   0.793  0.7064 -0.3977 -0.7275
 1710SOL     OW 6837   5.322   5.022   3.655 -0.2220  0.3874  0.6480
 1710SOL    HW1 6838   5.395   5.032   3.594  0.1997 -1.7421  0.7212
 1710SOL    HW2 6839   5.348   4.949   3.712 -1.6837  0.6893  1.7691
 1710SOL     MW 6840   5.334   5.014   3.655 -0.3551  0.1535  0.8009
 1711SOL     OW 6841   2.626   5.313   0.817  0.1655  0.0819  0.2665
 1711SOL    HW1 6842   2.580   5.230   0.808  0.4873 -0.0233 -0.3997
 1711SOL    HW2 6843   2.568   5.366   0.872  0.3047 -0.8291  1.3329
 1711SOL     MW 6844   2.613   5.309   0.823  0.2245 -0.0482  0.3178
 1712SOL     OW 6845   3.517   4.052   3.562 -0.7396  0.1938  0.2054
 1712SOL    HW1 6846   3.585   4.016   3.620  0.6904  2.9155  0.3516
 1712SOL    HW2 6847   3.464   4.107   3.619  0.1875  2.2600 -0.8351
 1712SOL     MW 6848   3.519   4.054   3.577 -0.4379  0.8067  0.0909
 1713SOL     OW 6849   1.173   3.276   0.952  0.9552 -0.0741 -0.3162
 1713SOL    HW1 6850   1.183   3.193   0.906 -0.4116 -0.6195  0.2924
 1713SOL    HW2 6851   1.218   3.263   1.036  1.1597 -0.0308 -0.4199
 1713SOL     MW 6852   1.180   3.263   0.957  0.8064 -0.1384 -0.2515
 1714SOL     OW 6853   2.661   4.160   0.972  0.1394 -0.5630  0.6586
 1714SOL    HW1 6854   2.755   4.157   0.988  0.2653 -0.5832 -0.0673
 1714SOL    HW2 6855   2.651   4.131   0.881 -0.4088  1.0322  0.1720
 1714SOL     MW 6856   2.672   4.156   0.962  0.0853 -0.3614  0.5034
 1715SOL     OW 6857   1.159   1.589   1.006  0.0612 -0.3976 -0.4695
 1715SOL    HW1 6858   1.124   1.501   0.993 -1.7499  0.1198  0.5855
 1715SOL    HW2 6859   1.254   1.575   1.016 -0.3143 -2.3712  0.9139
 1715SOL     MW 6860   1.167   1.576   1.005 -0.2187 -0.5840 -0.1574
 1716SOL     OW 6861   4.111   2.656   0.500 -0.6389 -0.0392 -0.4788
 1716SOL    HW1 6862   4.178   2.588   0.491 -1.2970 -0.5584 -1.7094
 1716SOL    HW2 6863   4.158   2.731   0.538  0.5243 -0.5466 -0.8552
 1716SOL     MW 6864   4.126   2.657   0.504 -0.5743 -0.1706 -0.6845
 1717SOL     OW 6865   0.137   3.232   5.080 -0.4557 -0.0414  0.0246
 1717SOL    HW1 6866   0.127   3.247   5.174  0.2291  1.2756 -0.0941
 1717SOL    HW2 6867   0.181   3.148   5.073 -1.1103 -0.4625  0.8555
 1717SOL     MW 6868   0.141   3.223   5.091 -0.4518  0.0733  0.1158
 1718SOL     OW 6869   2.419   4.830   0.734 -0.2427 -0.5782  0.1220
 1718SOL    HW1 6870   2.481   4.861   0.799  0.2205 -0.4012 -0.4007
 1718SOL    HW2 6871   2.473   4.802   0.660 -0.7686 -0.6230 -0.2542
 1718SOL     MW 6872   2.434   4.830   0.733 -0.2507 -0.5612  0.0069
 1719SOL     OW 6873   4.535   3.809   3.716  0.2046 -0.2161 -0.4970
 1719SOL    HW1 6874   4.598   3.880   3.706  0.5004 -0.5478 -1.0761
 1719SOL    HW2 6875   4.532   3.768   3.629 -0.3642 -0.5730 -0.3122
 1719SOL     MW 6876   4.543   3.813   3.703  0.1697 -0.3042 -0.5474
 1720SOL     OW 6877   2.193   3.436   1.775 -0.5030  0.0032  0.5581
 1720SOL    HW1 6878   2.110   3.436   1.822  0.7892  1.3519  3.0115
 1720SOL    HW2 6879   2.238   3.357   1.806 -1.2281 -1.3855 -1.6584
 1720SOL     MW 6880   2.188   3.426   1.785 -0.4304 -0.0019  0.5884
 1721SOL     OW 6881   0.257   4.708   4.333 -0.4928  0.1045  0.5221
 1721SOL    HW1 6882   0.299   4.627   4.360 -1.3033 -1.3684 -2.2604
 1721SOL    HW2 6883   0.165   4.685   4.323 -0.6967  1.2824 -0.5723
 1721SOL     MW 6884   0.251   4.695   4.335 -0.6227  0.0668  0.0258
 1722SOL     OW 6885   0.216   2.510   2.559  0.5154  0.2501 -0.1283
 1722SOL    HW1 6886   0.254   2.514   2.647 -0.8141  1.7715  0.4231
 1722SOL    HW2 6887   0.158   2.435   2.562  0.4397  0.3220  0.3076
 1722SOL     MW 6888   0.214   2.501   2.571  0.3355  0.4541 -0.0019
 1723SOL     OW 6889   3.036   4.594   3.406  0.3170 -0.0282  0.1939
 1723SOL    HW1 6890   2.997   4.567   3.490  0.6612 -0.4858  0.2129
 1723SOL    HW2 6891   3.104   4.656   3.430  0.2279  0.0547  0.2325
 1723SOL     MW 6892   3.040   4.598   3.420  0.3496 -0.0762  0.2013
 1724SOL     OW 6893   0.023   1.459   4.558  0.2104  0.7662  0.6884
 1724SOL    HW1 6894   0.026   1.411   4.641  1.0053 -0.7954 -0.1916
 1724SOL    HW2 6895   0.069   1.402   4.496  0.7522  2.4723 -0.5458
 1724SOL     MW 6896   0.029   1.446   4.561  0.3816  0.7847  0.4178
 1725SOL     OW 6897   4.333   2.934   1.621 -0.2195  0.0692  0.0275
 1725SOL    HW1 6898   4.314   2.855   1.571  0.2062  0.4745 -0.7921
 1725SOL    HW2 6899   4.403   2.978   1.572  0.8435  0.0338  1.4429
 1725SOL     MW 6900   4.340   2.930   1.608 -0.0289  0.1165  0.1038
 1726SOL     OW 6901   1.161   4.571   1.154  0.6048 -0.6013  0.5448
 1726SOL    HW1 6902   1.069   4.548   1.163  0.6347 -2.6961 -2.8838
 1726SOL    HW2 6903   1.208   4.502   1.202  0.4756  0.0576  1.6648
 1726SOL     MW 6904   1.155   4.559   1.161  0.5921 -0.7851  0.2493
 1727SOL     OW 6905   5.221   4.063   3.148  0.5561 -0.7506  0.1553
 1727SOL    HW1 6906   5.296   4.005   3.158  1.3975  0.4463  0.9959
 1727SOL    HW2 6907   5.145   4.005   3.159  1.3587 -1.7301  0.7253
 1727SOL     MW 6908   5.221   4.048   3.151  0.7665 -0.7228  0.3359
 1728SOL     OW 6909   2.792   1.705   1.184 -0.6067 -0.5664  0.2267
 1728SOL    HW1 6910   2.783   1.640   1.253  1.1313 -0.3591  0.7219
 1728SOL    HW2 6911   2.887   1.711   1.169 -0.6401  2.1861  0.5586
 1728SOL     MW 6912   2.803   1.698   1.191 -0.3885 -0.1875  0.3326
 1729SOL     OW 6913   0.047   1.673   3.970  0.0215  0.0439  0.0491
 1729SOL    HW1 6914   0.065   1.724   4.049  1.4746 -1.3672  0.6948
 1729SOL    HW2 6915   0.120   1.611   3.965 -0.8008 -0.8503 -1.6184
 1729SOL     MW 6916   0.059   1.671   3.979  0.1022 -0.2512 -0.0817
 1730SOL     OW 6917   2.605   4.416   1.150  0.3852 -0.0294  0.2064
 1730SOL    HW1 6918   2.544   4.347   1.124  1.7210 -0.1797 -3.0161
 1730SOL    HW2 6919   2.689   4.389   1.111  1.3167  2.5989  0.1977
 1730SOL     MW 6920   2.608   4.404   1.142  0.6755  0.2878 -0.2072
 1731SOL     OW 6921   0.151   0.434   2.554 -0.1352  0.0084 -0.3370
 1731SOL    HW1 6922   0.206   0.477   2.620 -1.2800  0.7595  0.1550
 1731SOL    HW2 6923   0.181   0.470   2.470 -0.8643  1.5846  0.0428
 1731SOL     MW 6924   0.162   0.444   2.551 -0.3751  0.3063 -0.2254
 1732SOL     OW 6925   2.968   2.486   1.768 -0.3082  0.2683 -0.1866
 1732SOL    HW1 6926   2.927   2.512   1.686 -1.0375  0.9437  0.3744
 1732SOL    HW2 6927   3.010   2.566   1.801  3.8174 -0.8967 -1.9793
 1732SOL     MW 6928   2.968   2.500   1.762  0.1266  0.2056 -0.3442
 1733SOL     OW 6929   2.628   1.736   2.976 -0.2953  0.2752 -0.0947
 1733SOL    HW1 6930   2.669   1.667   3.027 -0.3327  0.8821  0.7799
 1733SOL    HW2 6931   2.694   1.805   2.971 -1.6400  1.9974  2.7837
 1733SOL     MW 6932   2.641   1.736   2.982 -0.4722  0.5734  0.3857
 1734SOL     OW 6933   4.826   0.255   0.788  0.0298 -0.2300  0.3687
 1734SOL    HW1 6934   4.895   0.322   0.786  1.1020 -1.2982 -0.5144
 1734SOL    HW2 6935   4.856   0.192   0.853  1.1409 -1.8955 -1.6254
 1734SOL     MW 6936   4.839   0.256   0.796  0.3093 -0.5799  0.0004
 1735SOL     OW 6937   3.130   3.094   3.919 -0.4214  0.3708  0.1583
 1735SOL    HW1 6938   3.201   3.075   3.858 -0.8605 -0.6886 -0.0277
 1735SOL    HW2 6939   3.159   3.057   4.002 -1.1006 -0.7979 -0.1105
 1735SOL     MW 6940   3.143   3.087   3.922 -0.5645  0.0856  0.1001
 1736SOL     OW 6941   0.461   2.402   4.372 -0.1843 -0.5020 -0.1995
 1736SOL    HW1 6942   0.415   2.324   4.343 -1.2674 -1.6927  4.0400
 1736SOL    HW2 6943   0.554   2.380   4.367 -0.3603 -0.9583 -1.6660
 1736SOL     MW 6944   0.467   2.389   4.368 -0.3455 -0.7128  0.1555
 1737SOL     OW 6945   3.988   4.532   4.878  0.2536  0.2678  0.1054
 1737SOL    HW1 6946   4.052   4.474   4.835  1.2320  0.7422  0.8748
 1737SOL    HW2 6947   3.958   4.590   4.809  0.1303 -0.4008 -0.4185
 1737SOL     MW 6948   3.993   4.532   4.864  0.3630  0.2430  0.1368
 1738SOL     OW 6949   1.289   0.886   0.341 -0.2826  0.3631 -0.7706
 1738SOL    HW1 6950   1.350   0.945   0.385 -0.1399  0.9280 -1.7021
 1738SOL    HW2 6951   1.310   0.799   0.376  1.3593  0.4875 -1.3764
 1738SOL     MW 6952   1.299   0.882   0.351 -0.0541  0.4513 -0.9674
 1739SOL     OW 6953   1.698   0.514   4.362  0.3623  0.3168  0.3960
 1739SOL    HW1 6954   1.775   0.456   4.361 -0.4933 -0.9688 -2.9547
 1739SOL    HW2 6955   1.623   0.455   4.362 -0.5534  1.3679 -1.9563
 1739SOL     MW 6956   1.699   0.499   4.362  0.1355  0.2868 -0.3341
 1740SOL     OW 6957   5.195   4.851   3.921 -0.3133 -0.1510 -0.1700
 1740SOL    HW1 6958   5.166   4.787   3.987  0.5395  1.1896  1.6043
 1740SOL    HW2 6959   5.274   4.811   3.883  1.0625  0.3753  1.9523
 1740SOL     MW 6960   5.202   4.838   3.925 -0.0280  0.0880  0.3288
 1741SOL     OW 6961   2.595   0.198   3.538  0.5044  0.2884  0.1292
 1741SOL    HW1 6962   2.683   0.212   3.502  1.0487 -0.5753  1.0841
 1741SOL    HW2 6963   2.597   0.110   3.574 -0.7214  0.3071  0.2853
 1741SOL     MW 6964   2.607   0.189   3.538  0.4171  0.1802  0.2714
 1742SOL     OW 6965   5.107   3.173   4.902 -0.1267 -0.0759 -0.4315
 1742SOL    HW1 6966   5.174   3.123   4.949  0.9738  0.1701 -1.6841
 1742SOL    HW2 6967   5.064   3.225   4.970  0.0280 -1.2429  0.5994
 1742SOL     MW 6968   5.110   3.173   4.917  0.0340 -0.1938 -0.4599
 1743SOL     OW 6969   2.373   3.071   5.186 -0.2094 -0.0854  0.0725
 1743SOL    HW1 6970   2.362   3.020   5.266 -0.3420 -0.6640 -0.3080
 1743SOL    HW2 6971   2.381   3.005   5.117 -2.4095  0.3804 -0.7211
 1743SOL     MW 6972   2.373   3.056   5.187 -0.5080 -0.0998 -0.0778
 1744SOL     OW 6973   5.467   3.614   4.261  0.2289 -0.0345  0.3179
 1744SOL    HW1 6974   5.504   3.570   4.184 -0.6879 -0.8196  0.3124
 1744SOL    HW2 6975   5.491   3.558   4.334 -0.7425 -0.4315  0.3402
 1744SOL     MW 6976   5.475   3.602   4.260 -0.0128 -0.1858  0.3201
 1745SOL     OW 6977   1.765   1.002   3.342 -0.2195 -0.0021  0.0468
 1745SOL    HW1 6978   1.704   0.934   3.313  0.3198  0.1092 -1.4176
 1745SOL    HW2 6979   1.732   1.082   3.301 -0.7022  0.6024  1.5549
 1745SOL     MW 6980   1.753   1.003   3.333 -0.2122  0.0895  0.0524
 1746SOL     OW 6981   5.141   1.035   4.983 -0.2571 -0.2226  0.1796
 1746SOL    HW1 6982   5.229   1.039   5.021 -0.5302  0.6110  0.7456
 1746SOL    HW2 6983   5.146   1.088   4.903 -0.6134  1.1109  1.0070
 1746SOL     MW 6984   5.153   1.042   4.978 -0.3377  0.0548  0.3580
 1747SOL     OW 6985   1.232   1.342   2.403  0.3229 -0.2082 -0.4088
 1747SOL    HW1 6986   1.204   1.261   2.361 -2.8100  1.7770 -2.5451
 1747SOL    HW2 6987   1.167   1.357   2.472  1.8658 -0.2610  1.1339
 1747SOL     MW 6988   1.220   1.333   2.406  0.1193  0.0392 -0.4848
 1748SOL     OW 6989   1.411   0.580   2.342 -0.3066 -0.1801 -0.3764
 1748SOL    HW1 6990   1.491   0.601   2.295  0.1855 -0.4601  0.3145
 1748SOL    HW2 6991   1.396   0.655   2.399 -1.2574  0.4455 -1.4308
 1748SOL     MW 6992   1.419   0.592   2.344 -0.3653 -0.1358 -0.4229
 1749SOL     OW 6993   3.334   0.879   0.920 -0.0226  0.0913  0.3003
 1749SOL    HW1 6994   3.342   0.895   0.826 -0.9875  2.2583  0.5208
 1749SOL    HW2 6995   3.315   0.785   0.927  0.7991 -0.2648 -1.5913
 1749SOL     MW 6996   3.332   0.869   0.909 -0.0409  0.3231  0.0864
 1750SOL     OW 6997   1.139   2.273   3.293 -0.0725 -0.2034  0.0453
 1750SOL    HW1 6998   1.149   2.290   3.199  1.0263  0.2223  0.2217
 1750SOL    HW2 6999   1.141   2.177   3.300 -1.6214 -0.3064 -0.4893
 1750SOL     MW 7000   1.141   2.263   3.282 -0.1301 -0.1621 -0.0006
 1751SOL     OW 7001   0.530   2.010   2.994  0.2353  0.1819  0.0284
 1751SOL    HW1 7002   0.446   1.991   3.036  0.5062  1.2763  1.1278
 1751SOL    HW2 7003   0.585   2.042   3.065  1.0454  1.1041 -0.9887
 1751SOL     MW 7004   0.526   2.012   3.008  0.3737  0.4401  0.0389
 1752SOL     OW 7005   2.801   4.687   4.124  0.2207 -0.0278 -0.0042
 1752SOL    HW1 7006   2.720   4.706   4.172  0.2786 -0.7434  0.3920
 1752SOL    HW2 7007   2.865   4.667   4.192  0.0976 -1.8623 -0.3623
 1752SOL     MW 7008   2.799   4.687   4.139  0.2124 -0.3542  0.0007
 1753SOL     OW 7009   0.491   0.877   4.606 -0.1442 -0.1260  0.0024
 1753SOL    HW1 7010   0.424   0.938   4.635  0.3069  0.5700 -0.3928
 1753SOL    HW2 7011   0.448   0.821   4.541 -0.1967  0.6782 -0.6609
 1753SOL     MW 7012   0.477   0.877   4.601 -0.0932  0.0661 -0.1331
 1754SOL     OW 7013   4.447   5.132   3.600 -0.6188 -0.5500 -0.1607
 1754SOL    HW1 7014   4.495   5.063   3.553  0.1027 -0.5272  0.5049
 1754SOL    HW2 7015   4.499   5.146   3.679 -0.2946  1.3595 -0.6764
 1754SOL     MW 7016   4.460   5.125   3.604 -0.4849 -0.3026 -0.1415
 1755SOL     OW 7017   3.747   0.092   5.280 -0.0401 -0.0543  0.2211
 1755SOL    HW1 7018   3.768   0.081   5.373  0.3986 -1.5589 -0.0389
 1755SOL    HW2 7019   3.766   0.184   5.262  1.2354 -0.0806  1.2891
 1755SOL     MW 7020   3.752   0.103   5.290  0.1793 -0.2503  0.3245
 1756SOL     OW 7021   0.715   4.665   1.678 -0.0881 -0.1109  0.0668
 1756SOL    HW1 7022   0.785   4.660   1.743 -1.7039  0.8686  2.0093
 1756SOL    HW2 7023   0.701   4.759   1.665 -2.5315 -0.1670  1.5634
 1756SOL     MW 7024   0.722   4.676   1.684 -0.6077  0.0073  0.5071
 1757SOL     OW 7025   1.609   3.069   3.445  0.4153  0.4535  0.1769
 1757SOL    HW1 7026   1.554   3.147   3.454 -1.1980 -0.3809 -1.6207
 1757SOL    HW2 7027   1.600   3.023   3.528  2.0306  2.4801  1.5849
 1757SOL     MW 7028   1.601   3.073   3.457  0.4156  0.6062  0.1270
 1758SOL     OW 7029   4.036   3.977   1.483 -0.0043 -0.1796 -0.0996
 1758SOL    HW1 7030   4.014   4.033   1.409 -1.5439 -2.9582 -1.9205
 1758SOL    HW2 7031   3.961   3.984   1.542 -1.3146 -1.8863 -1.4310
 1758SOL     MW 7032   4.024   3.985   1.481 -0.3691 -0.7538 -0.5031
 1759SOL     OW 7033   1.050   0.777   0.157  0.2709 -0.0504 -0.0571
 1759SOL    HW1 7034   1.117   0.710   0.172  0.6927  0.1669 -0.9143
 1759SOL    HW2 7035   0.980   0.730   0.110  1.1718  0.3908 -1.9153
 1759SOL     MW 7036   1.049   0.762   0.153  0.4402  0.0339 -0.4047
 1760SOL     OW 7037   3.886   4.152   4.430 -0.0238  0.2282  0.1751
 1760SOL    HW1 7038   3.804   4.104   4.435 -0.1052  0.3464 -0.0207
 1760SOL    HW2 7039   3.871   4.220   4.364  0.7640 -0.7710 -1.0777
 1760SOL     MW 7040   3.874   4.155   4.422  0.0666  0.1154 -0.0104
 1761SOL     OW 7041   2.768   4.812   0.792  0.2205 -0.7388 -0.2517
 1761SOL    HW1 7042   2.783   4.797   0.886 -2.1304  2.1135  0.7185
 1761SOL    HW2 7043   2.856   4.827   0.757  1.3204 -3.3428  1.1010
 1761SOL     MW 7044   2.781   4.812   0.800  0.0603 -0.7070  0.0457
 1762SOL     OW 7045   0.433   5.486   1.429  0.1976  0.0612 -0.1845
 1762SOL    HW1 7046   0.345   5.522   1.416  0.1639  1.1128  2.3644
 1762SOL    HW2 7047   0.425   5.394   1.402 -1.5005  0.2760 -0.5780
 1762SOL     MW 7048   0.421   5.479   1.424 -0.0241  0.2233  0.0914
 1763SOL     OW 7049   1.448   3.966   1.022  0.5848 -0.4663  0.6607
 1763SOL    HW1 7050   1.456   4.051   0.977 -0.8104 -0.3952  0.5071
 1763SOL    HW2 7051   1.489   3.980   1.107  1.7447 -0.1035  0.0719
 1763SOL     MW 7052   1.454   3.979   1.027  0.5546 -0.4107  0.5657
 1764SOL     OW 7053   2.583   3.519   0.435  0.4289 -0.4114  0.3364
 1764SOL    HW1 7054   2.614   3.435   0.469 -1.1149 -0.9585  0.4702
 1764SOL    HW2 7055   2.515   3.546   0.497  0.0014  0.2816 -0.4183
 1764SOL     MW 7056   2.578   3.511   0.447  0.1765 -0.3927  0.2569
 1765SOL     OW 7057   3.471   0.288   2.762  0.4623  0.4959  0.1856
 1765SOL    HW1 7058   3.501   0.341   2.836  1.8853  2.7473 -1.8352
 1765SOL    HW2 7059   3.414   0.346   2.712 -1.1013 -1.2300 -0.1249
 1765SOL     MW 7060   3.468   0.302   2.765  0.4443  0.5631 -0.1128
 1766SOL     OW 7061   2.710   3.805   4.846  0.5477 -0.1423 -0.4553
 1766SOL    HW1 7062   2.780   3.794   4.911  1.3022 -0.9997 -1.3761
 1766SOL    HW2 7063   2.648   3.865   4.888  0.9107 -0.8036  1.1225
 1766SOL     MW 7064   2.711   3.812   4.860  0.6907 -0.3367 -0.3712
 1767SOL     OW 7065   1.260   5.285   4.741 -0.4985  0.0932  0.3666
 1767SOL    HW1 7066   1.317   5.213   4.717 -0.2141  0.4817 -0.1502
 1767SOL    HW2 7067   1.172   5.256   4.716 -0.2960  0.2021 -0.4815
 1767SOL     MW 7068   1.256   5.272   4.735 -0.4361  0.1569  0.1919
 1768SOL     OW 7069   1.966   4.018   3.167 -0.3824  0.3419 -0.9049
 1768SOL    HW1 7070   1.970   3.963   3.245  0.5021 -0.2720 -1.3690
 1768SOL    HW2 7071   1.982   3.959   3.094  0.2070  1.1447 -1.4491
 1768SOL     MW 7072   1.968   4.004   3.167 -0.1937  0.3661 -1.0340
 1769SOL     OW 7073   3.332   0.343   1.696 -0.0551  0.2287 -0.0990
 1769SOL    HW1 7074   3.240   0.367   1.706  0.3565  1.4702  1.0921
 1769SOL    HW2 7075   3.358   0.382   1.612 -0.7978 -0.8346 -0.8463
 1769SOL     MW 7076   3.324   0.351   1.686 -0.0975  0.2515 -0.0422
 1770SOL     OW 7077   2.652   4.173   2.438 -0.1777 -0.4995 -0.4801
 1770SOL    HW1 7078   2.713   4.241   2.466  0.7318 -1.0813 -0.9908
 1770SOL    HW2 7079   2.601   4.214   2.369 -0.6006  0.0940  0.1687
 1770SOL     MW 7080   2.654   4.187   2.433 -0.1154 -0.4980 -0.4624
 1771SOL     OW 7081   4.431   3.218   2.410 -0.2104 -0.1381 -0.0684
 1771SOL    HW1 7082   4.481   3.139   2.431  1.2572 -0.1823 -3.1378
 1771SOL    HW2 7083   4.353   3.187   2.364 -0.4785  0.1339  0.1985
 1771SOL     MW 7084   4.428   3.204   2.407 -0.0569 -0.1090 -0.4271
 1772SOL     OW 7085   0.417   2.938   1.405 -0.1512 -0.3569 -0.6597
 1772SOL    HW1 7086   0.500   2.987   1.407 -1.1934  1.5015 -0.1845
 1772SOL    HW2 7087   0.435   2.862   1.351  2.2345 -0.7047  0.5031
 1772SOL     MW 7088   0.430   2.935   1.399  0.0208 -0.1635 -0.4500
 1773SOL     OW 7089   2.581   0.821   3.044 -0.6116 -0.8126  0.3027
 1773SOL    HW1 7090   2.582   0.878   2.967 -1.0793 -1.7599 -0.4401
 1773SOL    HW2 7091   2.505   0.849   3.094 -0.4593 -0.3619  0.2880
 1773SOL     MW 7092   2.572   0.832   3.040 -0.6520 -0.8761  0.2057
 1774SOL     OW 7093   3.252   4.827   3.045 -0.3492 -0.3713 -0.3857
 1774SOL    HW1 7094   3.299   4.864   2.971 -0.8881  0.4674 -0.3304
 1774SOL    HW2 7095   3.165   4.806   3.011 -1.0297  1.2048  0.2757
 1774SOL     MW 7096   3.247   4.829   3.031 -0.5053 -0.0622 -0.2940
 1775SOL     OW 7097   3.331   2.755   0.127 -0.0149  0.1317  0.3558
 1775SOL    HW1 7098   3.374   2.672   0.149 -1.4401 -0.5193  0.7747
 1775SOL    HW2 7099   3.277   2.774   0.204 -0.1454  1.1687  0.0189
 1775SOL     MW 7100   3.330   2.747   0.140 -0.2140  0.1811  0.3663
 1776SOL     OW 7101   2.777   0.502   4.806 -0.3456  0.5283  0.5947
 1776SOL    HW1 7102   2.776   0.522   4.712  1.8280 -1.6779 -0.0060
 1776SOL    HW2 7103   2.690   0.467   4.824 -0.3423 -0.4004 -0.9937
 1776SOL     MW 7104   2.766   0.500   4.796 -0.0669  0.1270  0.3144
 1777SOL     OW 7105   5.467   1.476   3.113 -0.0835 -0.4198  0.1394
 1777SOL    HW1 7106   5.524   1.534   3.162  0.3141  0.3763 -1.2215
 1777SOL    HW2 7107   5.381   1.486   3.155  0.1952  0.3974  0.5303
 1777SOL     MW 7108   5.463   1.485   3.125  0.0031 -0.2133  0.0152
 1778SOL     OW 7109   3.497   3.698   0.820  0.1635 -0.1661 -0.3825
 1778SOL    HW1 7110   3.437   3.727   0.751 -0.8779  1.7418  1.2077
 1778SOL    HW2 7111   3.573   3.756   0.810 -0.3370  0.6672  0.5379
 1778SOL     MW 7112   3.499   3.709   0.810 -0.0339  0.1848 -0.0611
 1779SOL     OW 7113   1.093   0.148   1.265 -0.0365  0.6374 -0.1062
 1779SOL    HW1 7114   1.162   0.214   1.271  1.0796 -0.4064 -1.0762
 1779SOL    HW2 7115   1.015   0.192   1.301  1.0767  1.8746  0.9109
 1779SOL     MW 7116   1.092   0.162   1.271  0.2489  0.6621 -0.1002
 1780SOL     OW 7117   3.261   3.362   2.626 -0.0106  0.0325  0.2997
 1780SOL    HW1 7118   3.190   3.425   2.637 -2.3852 -2.3692 -0.2099
 1780SOL    HW2 7119   3.296   3.379   2.539  0.9552  2.0200  1.0146
 1780SOL     MW 7120   3.257   3.372   2.616 -0.1910 -0.0205  0.3260
 1781SOL     OW 7121   4.298   2.700   1.463  0.0951 -0.1951  0.0145
 1781SOL    HW1 7122   4.246   2.718   1.385  0.9166 -1.4395 -0.8661
 1781SOL    HW2 7123   4.252   2.630   1.508  0.0629 -0.0546  0.2024
 1781SOL     MW 7124   4.286   2.694   1.458  0.1962 -0.3364 -0.0742
 1782SOL     OW 7125   4.425   5.093   4.321 -0.6058  0.2158  0.1403
 1782SOL    HW1 7126   4.511   5.072   4.284 -1.1199 -1.8540 -0.0403
 1782SOL    HW2 7127   4.391   5.162   4.265  1.4215  2.0339  0.9991
 1782SOL     MW 7128   4.432   5.099   4.309 -0.4121  0.1836  0.2271
 1783SOL     OW 7129   0.173   4.556   0.959 -0.0672  0.2335 -0.0273
 1783SOL    HW1 7130   0.195   4.463   0.960 -0.5844  0.1103  0.1278
 1783SOL    HW2 7131   0.160   4.579   1.051 -0.6169  0.2911 -0.1172
 1783SOL     MW 7132   0.174   4.547   0.971 -0.2038  0.2251 -0.0189
 1784SOL     OW 7133   5.055   0.755   2.979 -0.5727 -0.3764  0.1429
 1784SOL    HW1 7134   5.004   0.780   3.056 -1.6880 -0.5105 -0.5319
 1784SOL    HW2 7135   5.057   0.659   2.981  2.7213 -0.4220  2.0962
 1784SOL     MW 7136   5.049   0.746   2.989 -0.2938 -0.3994  0.3066
 1785SOL     OW 7137   1.342   4.621   4.332  0.1649 -0.3097 -0.3791
 1785SOL    HW1 7138   1.270   4.670   4.293 -0.6784  0.2280  1.7368
 1785SOL    HW2 7139   1.321   4.530   4.313 -0.9585 -0.1465 -0.0082
 1785SOL     MW 7140   1.330   4.616   4.325 -0.0869 -0.2199 -0.0607
 1786SOL     OW 7141   0.429   2.844   2.298 -0.3476 -0.0258  0.7227
 1786SOL    HW1 7142   0.416   2.751   2.321  0.4394  0.3380  2.9162
 1786SOL    HW2 7143   0.459   2.884   2.380 -1.0815  2.2684 -0.0722
 1786SOL     MW 7144   0.431   2.837   2.312 -0.3408  0.3144  0.9017
 1787SOL     OW 7145  -0.031   3.419   0.356  0.4912 -0.3867 -0.2345
 1787SOL    HW1 7146   0.014   3.371   0.425  1.2572 -1.5762 -1.4909
 1787SOL    HW2 7147   0.038   3.472   0.315  0.0246  0.3899 -0.0375
 1787SOL     MW 7148  -0.017   3.420   0.359  0.5295 -0.4396 -0.3701
 1788SOL     OW 7149   3.887   0.612   5.437  0.2271  0.2361 -0.0459
 1788SOL    HW1 7150   3.818   0.551   5.412  0.3089  0.3421 -0.5501
 1788SOL    HW2 7151   3.962   0.556   5.458 -0.1757  0.0921  1.0681
 1788SOL     MW 7152   3.888   0.597   5.436  0.1860  0.2312  0.0322
 1789SOL     OW 7153   1.378   0.808   1.289 -0.0030  0.4028 -0.2370
 1789SOL    HW1 7154   1.449   0.791   1.352 -0.3083  1.9010  0.5616
 1789SOL    HW2 7155   1.324   0.874   1.332 -0.9361  0.5387 -1.5677
 1789SOL     MW 7156   1.380   0.814   1.303 -0.1615  0.6120 -0.3052
 1790SOL     OW 7157   3.835   3.974   1.658 -0.0907 -0.0066 -0.3255
 1790SOL    HW1 7158   3.756   3.974   1.604 -0.7472 -2.6273  0.5250
 1790SOL    HW2 7159   3.814   4.032   1.731 -1.5683 -1.2733  0.2965
 1790SOL     MW 7160   3.822   3.982   1.660 -0.3639 -0.5043 -0.1370
 1791SOL     OW 7161   1.657   2.144   1.047  0.2659 -0.3377 -0.0386
 1791SOL    HW1 7162   1.654   2.050   1.033  0.1092 -0.2371 -0.6920
 1791SOL    HW2 7163   1.610   2.181   0.973  0.3739  0.2597  0.1861
 1791SOL     MW 7164   1.650   2.137   1.036  0.2596 -0.2484 -0.0935
 1792SOL     OW 7165   3.080   3.022   2.937 -0.7372 -0.0717 -0.6076
 1792SOL    HW1 7166   3.023   3.008   3.013 -0.9982  0.6067 -0.6767
 1792SOL    HW2 7167   3.162   2.979   2.961 -0.6134  0.6482  0.3069
 1792SOL     MW 7168   3.083   3.015   2.950 -0.7548  0.1073 -0.4994
 1793SOL     OW 7169   4.734   1.852   1.621  0.1185 -0.4525 -0.8754
 1793SOL    HW1 7170   4.680   1.786   1.665  0.1907 -0.2721 -0.5124
 1793SOL    HW2 7171   4.735   1.926   1.681  0.4013 -0.2850 -1.0844
 1793SOL     MW 7172   4.727   1.853   1.634  0.1640 -0.4080 -0.8557
 1794SOL     OW 7173   1.453   5.455   4.211  0.0759  0.3750 -0.3219
 1794SOL    HW1 7174   1.453   5.434   4.118 -1.3791 -1.0560 -0.0287
 1794SOL    HW2 7175   1.545   5.471   4.232  0.7484 -1.6106 -1.5030
 1794SOL     MW 7176   1.464   5.455   4.202 -0.0243 -0.0624 -0.4356
 1795SOL     OW 7177   5.073   4.225   2.324 -0.0624 -0.1269 -0.5112
 1795SOL    HW1 7178   5.021   4.299   2.355 -0.0241 -0.7299  1.0901
 1795SOL    HW2 7179   5.153   4.265   2.289 -0.6693  0.6681 -1.0204
 1795SOL     MW 7180   5.077   4.240   2.324 -0.1352 -0.1023 -0.3714
 1796SOL     OW 7181   0.872   0.234   1.364 -0.5536 -0.1515 -0.4089
 1796SOL    HW1 7182   0.808   0.181   1.317 -0.6542 -0.6904  0.3162
 1796SOL    HW2 7183   0.889   0.186   1.445 -0.9180  1.1046  0.4432
 1796SOL     MW 7184   0.866   0.221   1.368 -0.6131 -0.0597 -0.2070
 1797SOL     OW 7185   4.514   3.470   1.274  0.6619  0.4475 -0.6029
 1797SOL    HW1 7186   4.439   3.442   1.221  0.1200  1.3109 -0.3099
 1797SOL    HW2 7187   4.499   3.430   1.360  2.1996 -2.0287 -1.3853
 1797SOL     MW 7188   4.502   3.462   1.278  0.7893  0.2410 -0.6655
 1798SOL     OW 7189   0.607   0.339   1.209  0.2040 -0.2987  0.6819
 1798SOL    HW1 7190   0.596   0.248   1.233 -1.7537 -0.4515 -0.5582
 1798SOL    HW2 7191   0.518   0.375   1.210  0.5859  0.8697 -1.4337
 1798SOL     MW 7192   0.594   0.332   1.212  0.0023 -0.1687  0.2523
 1799SOL     OW 7193   1.477   3.064   0.282 -0.2228 -0.4478  0.3362
 1799SOL    HW1 7194   1.468   3.062   0.378 -0.8964 -0.8451  0.2699
 1799SOL    HW2 7195   1.400   3.112   0.252 -0.2442 -0.7162 -0.0387
 1799SOL     MW 7196   1.466   3.070   0.291 -0.3118 -0.5330  0.2797
 1800SOL     OW 7197   5.513   2.263   4.337  0.4043 -0.5607  0.2175
 1800SOL    HW1 7198   5.530   2.356   4.322 -0.2425 -0.6284 -1.1022
 1800SOL    HW2 7199   5.417   2.258   4.343  0.4006 -1.2311 -0.3841
 1800SOL     MW 7200   5.503   2.274   4.336  0.3210 -0.6552 -0.0285
 1801SOL     OW 7201   4.713   4.007   4.155  0.7073 -0.5404  0.0457
 1801SOL    HW1 7202   4.620   4.017   4.177  0.8524 -0.6495  0.7147
 1801SOL    HW2 7203   4.740   4.094   4.125  0.9183  0.0770  1.8897
 1801SOL     MW 7204   4.704   4.019   4.154  0.7529 -0.4753  0.3674
 1802SOL     OW 7205   1.569   1.719   4.004  0.5079 -0.0585  0.4485
 1802SOL    HW1 7206   1.544   1.805   3.970  1.8167 -0.3115 -1.3358
 1802SOL    HW2 7207   1.517   1.657   3.953  2.3089 -0.4388 -1.0504
 1802SOL     MW 7208   1.559   1.722   3.993  0.9060 -0.1396  0.0282
 1803SOL     OW 7209   1.366   0.359   2.563 -0.4552 -0.2837  0.5032
 1803SOL    HW1 7210   1.328   0.414   2.495  0.0168 -0.2724  0.2440
 1803SOL    HW2 7211   1.451   0.399   2.582 -0.0801 -0.9530  0.2629
 1803SOL     MW 7212   1.372   0.371   2.557 -0.3467 -0.3679  0.4393
 1804SOL     OW 7213   1.788   1.689   3.059 -0.3957  1.0609  0.1944
 1804SOL    HW1 7214   1.719   1.670   3.123  0.7340  0.6745  1.3699
 1804SOL    HW2 7215   1.778   1.622   2.992 -2.2051  2.0464 -0.5844
 1804SOL     MW 7216   1.778   1.678   3.059 -0.4827  1.1376  0.2452
 1805SOL     OW 7217   1.823   2.631   4.596 -0.0824 -0.2901  0.1381
 1805SOL    HW1 7218   1.826   2.536   4.609 -1.6017 -0.5095 -0.8796
 1805SOL    HW2 7219   1.814   2.641   4.501 -1.5163  0.8193  0.3675
 1805SOL     MW 7220   1.822   2.620   4.585 -0.4604 -0.1762  0.0372
 1806SOL     OW 7221   0.171   4.122   3.155 -0.4861 -0.4981 -0.6698
 1806SOL    HW1 7222   0.168   4.152   3.246  0.5232 -1.9102 -0.1344
 1806SOL    HW2 7223   0.201   4.199   3.106 -0.4848  0.1204  0.2704
 1806SOL     MW 7224   0.175   4.136   3.160 -0.3567 -0.5997 -0.4809
 1807SOL     OW 7225   4.771   1.350   3.086  0.2357  0.6730  0.4805
 1807SOL    HW1 7226   4.738   1.429   3.044  1.6545  2.7908  2.9762
 1807SOL    HW2 7227   4.708   1.331   3.155  0.3402  0.1297  0.4332
 1807SOL     MW 7228   4.759   1.357   3.090  0.4307  0.8745  0.7940
 1808SOL     OW 7229   5.311   2.788   3.774  0.0649  0.0769 -0.1099
 1808SOL    HW1 7230   5.363   2.780   3.854  0.0617  0.7096 -0.0376
 1808SOL    HW2 7231   5.316   2.880   3.751 -1.4462  0.2737  0.1927
 1808SOL     MW 7232   5.318   2.799   3.782 -0.1290  0.1830 -0.0619
 1809SOL     OW 7233   2.279   1.897   3.345 -0.3120  0.0128 -0.0215
 1809SOL    HW1 7234   2.347   1.953   3.381  5.3475 -4.5995 -2.0075
 1809SOL    HW2 7235   2.248   1.943   3.267  2.7212  1.2600 -0.6192
 1809SOL     MW 7236   2.283   1.910   3.340  0.8008 -0.4180 -0.3522
 1810SOL     OW 7237   0.890   1.222   4.504 -0.2114 -0.0624 -0.5091
 1810SOL    HW1 7238   0.945   1.212   4.427  0.7902 -1.8701  0.3627
 1810SOL    HW2 7239   0.933   1.169   4.572 -1.7725  0.3477  0.8973
 1810SOL     MW 7240   0.902   1.214   4.503 -0.2830 -0.2413 -0.2174
 1811SOL     OW 7241   0.049   4.081   1.942  0.8195 -0.7674 -0.0647
 1811SOL    HW1 7242   0.097   4.123   2.014 -0.3467  0.1755  0.2043
 1811SOL    HW2 7243   0.079   4.127   1.864  0.4440 -0.2388  0.0936
 1811SOL     MW 7244   0.059   4.092   1.941  0.6222 -0.5790 -0.0100
 1812SOL     OW 7245   1.981   3.267   2.897  0.0823  0.1652 -0.4465
 1812SOL    HW1 7246   1.985   3.209   2.973  1.1136  1.1563  0.3085
 1812SOL    HW2 7247   1.898   3.314   2.907  0.1518  0.1966  0.0176
 1812SOL     MW 7248   1.971   3.266   2.908  0.2232  0.2961 -0.2905
 1813SOL     OW 7249   1.595   2.665   3.970  0.0065  0.3555 -0.2587
 1813SOL    HW1 7250   1.606   2.659   4.065 -1.7946 -0.8460 -0.0843
 1813SOL    HW2 7251   1.506   2.635   3.954  0.7860 -0.9748 -2.4843
 1813SOL     MW 7252   1.585   2.661   3.980 -0.1243  0.0314 -0.5213
 1814SOL     OW 7253   4.810   1.556   4.713 -0.7183  0.0009  0.0549
 1814SOL    HW1 7254   4.748   1.622   4.682 -0.3336 -0.1548 -1.1070
 1814SOL    HW2 7255   4.851   1.523   4.633 -0.8921 -1.6392  0.6059
 1814SOL     MW 7256   4.807   1.560   4.699 -0.6913 -0.2290 -0.0233
 1815SOL     OW 7257   2.479   4.490   3.875  0.6193  0.0496  0.0367
 1815SOL    HW1 7258   2.487   4.450   3.962 -2.3869 -0.5277  0.1627
 1815SOL    HW2 7259   2.565   4.528   3.858  1.2090  0.5513  3.4386
 1815SOL     MW 7260   2.491   4.490   3.884  0.3100  0.0399  0.4883
 1816SOL     OW 7261   5.121   2.732   4.994 -0.7640 -0.2773  0.2997
 1816SOL    HW1 7262   5.133   2.706   4.903  0.1127 -1.3827  0.7217
 1816SOL    HW2 7263   5.026   2.731   5.006 -0.9278  0.3978 -0.7299
 1816SOL     MW 7264   5.110   2.729   4.984 -0.6727 -0.3324  0.2219
 1817SOL     OW 7265   2.346   4.464   0.055 -0.3378 -0.3860  0.0473
 1817SOL    HW1 7266   2.325   4.371   0.047 -0.3410 -0.3117 -0.9533
 1817SOL    HW2 7267   2.434   4.467   0.092 -0.1983 -0.7907 -0.2551
 1817SOL     MW 7268   2.354   4.453   0.059 -0.3203 -0.4283 -0.1195
 1818SOL     OW 7269   1.078   4.041   2.249 -0.1280  0.1639  0.7256
 1818SOL    HW1 7270   1.050   3.950   2.251 -2.4552  0.7815 -0.2035
 1818SOL    HW2 7271   1.127   4.049   2.168 -0.9259 -0.0381  0.2044
 1818SOL     MW 7272   1.080   4.030   2.239 -0.5280  0.2171  0.5400
 1819SOL     OW 7273   3.014   5.165   3.308 -0.2622  0.3288  0.2046
 1819SOL    HW1 7274   3.070   5.122   3.244  2.7538 -0.4706  3.1315
 1819SOL    HW2 7275   2.964   5.093   3.348 -0.5821  0.5579  0.2260
 1819SOL     MW 7276   3.015   5.150   3.305  0.0830  0.2558  0.5821
 1820SOL     OW 7277   1.532   4.438   0.885  0.1081  0.6882 -0.8685
 1820SOL    HW1 7278   1.618   4.397   0.895  0.4921  1.0460 -2.3542
 1820SOL    HW2 7279   1.536   4.478   0.798 -2.1242 -0.6822 -1.6624
 1820SOL     MW 7280   1.544   4.438   0.875 -0.1285  0.5586 -1.1603
 1821SOL     OW 7281   3.727   2.626   3.426 -0.1977  0.0150 -0.4553
 1821SOL    HW1 7282   3.687   2.713   3.420  0.3479  0.3930  0.9165
 1821SOL    HW2 7283   3.663   2.574   3.475  0.4256  0.2906  0.6933
 1821SOL     MW 7284   3.714   2.630   3.431 -0.0481  0.0987 -0.1326
 1822SOL     OW 7285   1.701   0.076   4.011  0.3318 -0.3300 -0.1234
 1822SOL    HW1 7286   1.720  -0.014   3.984  2.3205  0.7110 -2.6335
 1822SOL    HW2 7287   1.718   0.128   3.933 -1.7991  2.1712  0.9246
 1822SOL     MW 7288   1.706   0.071   3.997  0.3136  0.1235 -0.3106
 1823SOL     OW 7289   0.462   5.230   1.327  0.0515  0.4339 -0.0670
 1823SOL    HW1 7290   0.402   5.158   1.347  0.8232  0.1467  1.3106
 1823SOL    HW2 7291   0.536   5.189   1.283  0.6973  0.2750  1.1112
 1823SOL     MW 7292   0.464   5.215   1.324  0.2330  0.3768  0.2602
 1824SOL     OW 7293   3.113   2.975   2.021 -0.0790 -0.0642  0.2824
 1824SOL    HW1 7294   3.157   3.032   1.958 -1.0402 -0.7075 -1.0079
 1824SOL    HW2 7295   3.092   3.032   2.095  0.1702  0.9348 -0.4075
 1824SOL     MW 7296   3.116   2.989   2.023 -0.1702 -0.0186  0.0289
 1825SOL     OW 7297   2.601   0.331   4.919  0.0218  0.1409  0.1229
 1825SOL    HW1 7298   2.633   0.242   4.907 -0.9434 -0.3120  0.7799
 1825SOL    HW2 7299   2.507   0.321   4.934  0.0932  1.1649  1.4734
 1825SOL     MW 7300   2.593   0.319   4.919 -0.0926  0.2140  0.3799
 1826SOL     OW 7301   0.126   3.818   4.118  0.8915 -0.1014  0.5655
 1826SOL    HW1 7302   0.086   3.744   4.163 -1.3794  0.2851 -0.6860
 1826SOL    HW2 7303   0.147   3.786   4.031 -1.4400  1.0233 -0.4813
 1826SOL     MW 7304   0.124   3.805   4.113  0.3024  0.0920  0.2713
 1827SOL     OW 7305   2.297   3.821   4.947 -0.2161 -0.1269 -0.1921
 1827SOL    HW1 7306   2.350   3.900   4.935  0.3003 -0.4446 -0.0683
 1827SOL    HW2 7307   2.235   3.821   4.874 -0.3016  0.4547 -0.1219
 1827SOL     MW 7308   2.296   3.831   4.936 -0.1609 -0.0931 -0.1673
 1828SOL     OW 7309   1.923   0.274   1.063  0.8024 -0.0841  0.0843
 1828SOL    HW1 7310   1.899   0.278   0.970  3.4956 -0.6641 -0.7249
 1828SOL    HW2 7311   1.846   0.307   1.109 -0.7090 -0.0041 -2.3266
 1828SOL     MW 7312   1.910   0.279   1.057  0.9536 -0.1481 -0.3279
 1829SOL     OW 7313   0.288   0.162   3.538 -0.5861 -0.5659 -0.1206
 1829SOL    HW1 7314   0.213   0.105   3.555 -0.4552 -0.2666  1.6452
 1829SOL    HW2 7315   0.310   0.199   3.623  2.0595 -1.2206 -0.4320
 1829SOL     MW 7316   0.281   0.159   3.551 -0.2307 -0.6114  0.0656
 1830SOL     OW 7317   2.906   2.889   0.852 -0.0464 -0.3095  0.3470
 1830SOL    HW1 7318   2.919   2.872   0.945  1.2623 -1.5200 -0.0151
 1830SOL    HW2 7319   2.846   2.821   0.823 -1.6227  0.9246  0.5449
 1830SOL     MW 7320   2.900   2.878   0.860 -0.0807 -0.3065  0.3260
 1831SOL     OW 7321   3.971   0.511   4.360 -0.2243  0.5985 -0.6218
 1831SOL    HW1 7322   3.892   0.488   4.312 -0.1710  0.2072 -0.5246
 1831SOL    HW2 7323   3.939   0.536   4.447 -0.2059  0.0331 -0.4505
 1831SOL     MW 7324   3.957   0.511   4.365 -0.2151  0.4760 -0.5874
 1832SOL     OW 7325   1.074   5.371   2.736  0.0086  0.0944 -0.0101
 1832SOL    HW1 7326   1.028   5.429   2.798  0.8691  0.6243  0.1482
 1832SOL    HW2 7327   1.052   5.282   2.766  0.3930  0.3395  1.0570
 1832SOL     MW 7328   1.065   5.367   2.748  0.1679  0.1936  0.1468
 1833SOL     OW 7329   3.056   2.716   1.940 -0.1352 -0.6178  0.4450
 1833SOL    HW1 7330   3.085   2.794   1.987  0.0386 -1.6844  2.2216
 1833SOL    HW2 7331   2.996   2.673   2.001 -0.0001 -2.0246 -0.3685
 1833SOL     MW 7332   3.052   2.720   1.954 -0.0956 -0.9345  0.5683
 1834SOL     OW 7333   2.147   0.171   0.691 -0.3325  0.0708 -0.0992
 1834SOL    HW1 7334   2.110   0.259   0.704  0.2090  0.8039 -2.8373
 1834SOL    HW2 7335   2.071   0.114   0.683 -0.7115  0.4701  0.4942
 1834SOL     MW 7336   2.133   0.175   0.692 -0.3117  0.2158 -0.3738
 1835SOL     OW 7337   1.385   2.116   1.166  0.1776 -0.0894 -0.0098
 1835SOL    HW1 7338   1.369   2.122   1.260 -1.8622  0.2881 -0.3355
 1835SOL    HW2 7339   1.479   2.129   1.157  0.4733 -0.5193  1.9991
 1835SOL     MW 7340   1.395   2.118   1.177 -0.0457 -0.0961  0.2056
 1836SOL     OW 7341   0.796   2.379   0.175  0.2734 -0.5924 -0.0144
 1836SOL    HW1 7342   0.740   2.304   0.157 -1.5792  0.9628 -1.1012
 1836SOL    HW2 7343   0.747   2.455   0.143  2.5420  1.0006 -0.0257
 1836SOL     MW 7344   0.783   2.380   0.169  0.3266 -0.1894 -0.1550
 1837SOL     OW 7345   3.951   4.071   3.294 -0.3289  0.4800 -0.1945
 1837SOL    HW1 7346   3.982   4.060   3.384 -2.4222  1.6636  0.7453
 1837SOL    HW2 7347   3.884   4.003   3.283  0.3716 -0.0868 -1.1225
 1837SOL     MW 7348   3.946   4.061   3.304 -0.5072  0.5590 -0.1930
 1838SOL     OW 7349   3.336   0.794   1.767 -0.0464  0.3864 -0.1213
 1838SOL    HW1 7350   3.300   0.851   1.835 -0.1643  1.1130 -0.7739
 1838SOL    HW2 7351   3.368   0.717   1.814  0.5484  1.1931  0.8346
 1838SOL     MW 7352   3.335   0.792   1.782  0.0147  0.5827 -0.0825
 1839SOL     OW 7353   4.180   2.654   1.013 -0.3539 -0.1438 -0.1067
 1839SOL    HW1 7354   4.130   2.677   1.091 -1.0153  1.4960 -0.9688
 1839SOL    HW2 7355   4.115   2.615   0.954  0.1775 -1.5467  0.2013
 1839SOL     MW 7356   4.165   2.652   1.015 -0.3705 -0.1135 -0.1776
 1840SOL     OW 7357   3.504   3.783   2.616 -0.1642  0.1355 -0.1387
 1840SOL    HW1 7358   3.488   3.731   2.537 -0.7870  0.7778 -0.4462
 1840SOL    HW2 7359   3.578   3.739   2.659 -0.7688 -1.0938 -0.3074
 1840SOL     MW 7360   3.512   3.771   2.611 -0.3213  0.0603 -0.1996
 1841SOL     OW 7361   5.034   3.496   1.332 -0.8821 -0.4230 -0.2630
 1841SOL    HW1 7362   5.070   3.469   1.417  0.5598 -0.2110 -0.7817
 1841SOL    HW2 7363   5.028   3.414   1.282 -0.1843 -0.3420 -0.4977
 1841SOL     MW 7364   5.038   3.482   1.337 -0.6082 -0.3855 -0.3595
 1842SOL     OW 7365   3.820   0.455   4.106  0.2624 -0.3989 -0.4488
 1842SOL    HW1 7366   3.725   0.467   4.111  0.3324  1.3141 -2.0553
 1842SOL    HW2 7367   3.832   0.389   4.038  0.2365  0.7608 -1.6149
 1842SOL     MW 7368   3.809   0.448   4.098  0.2681 -0.0312 -0.8037
 1843SOL     OW 7369   2.736   1.152   2.361 -0.0765  0.2308  0.3772
 1843SOL    HW1 7370   2.757   1.181   2.450 -0.4216  0.7326  0.2983
 1843SOL    HW2 7371   2.815   1.107   2.331  0.2823  0.6397  0.6935
 1843SOL     MW 7372   2.749   1.150   2.369 -0.0748  0.3474  0.4076
 1844SOL     OW 7373   0.106   0.687   5.196 -0.0238 -0.4488  0.2043
 1844SOL    HW1 7374   0.021   0.712   5.160 -0.0545 -1.4818 -0.4819
 1844SOL    HW2 7375   0.163   0.678   5.119  0.3931 -0.8975  0.5590
 1844SOL     MW 7376   0.103   0.689   5.181  0.0257 -0.6385  0.1619
 1845SOL     OW 7377   2.941   3.188   4.807  0.0104  0.0417  0.1560
 1845SOL    HW1 7378   2.946   3.256   4.739  4.4423  0.1509  0.2550
 1845SOL    HW2 7379   2.957   3.106   4.760  0.0823 -0.2556  0.6891
 1845SOL     MW 7380   2.944   3.186   4.792  0.5869  0.0176  0.2370
 1846SOL     OW 7381   1.093   5.234   0.756 -0.3413  0.0727  0.2765
 1846SOL    HW1 7382   1.188   5.230   0.756 -0.3616 -0.4569 -0.3644
 1846SOL    HW2 7383   1.065   5.146   0.732 -1.0414 -0.4369  2.6429
 1846SOL     MW 7384   1.101   5.223   0.753 -0.4335 -0.0603  0.4974
 1847SOL     OW 7385   3.459   3.793   3.441 -0.5688 -0.0809  0.2687
 1847SOL    HW1 7386   3.492   3.880   3.463 -0.1383  0.1248 -1.0742
 1847SOL    HW2 7387   3.372   3.790   3.479 -0.9561  1.2953 -0.4377
 1847SOL     MW 7388   3.452   3.804   3.449 -0.5633  0.1216  0.0063
 1848SOL     OW 7389   1.736   4.440   4.428 -0.2563 -0.0571 -0.2375
 1848SOL    HW1 7390   1.659   4.389   4.451  0.0953 -0.3337  0.3588
 1848SOL    HW2 7391   1.702   4.523   4.394 -0.8055 -0.0872  0.2401
 1848SOL     MW 7392   1.722   4.444   4.426 -0.2816 -0.0963 -0.1000
 1849SOL     OW 7393   5.472   4.756   0.285 -0.4352  1.2065  0.1336
 1849SOL    HW1 7394   5.414   4.694   0.330 -1.5884  1.6192 -0.7281
 1849SOL    HW2 7395   5.420   4.837   0.279 -1.0303  0.7304 -3.3198
 1849SOL     MW 7396   5.458   4.758   0.290 -0.6590  1.1984 -0.4188
 1850SOL     OW 7397   3.708   2.707   4.856  0.0440  0.5061  0.4723
 1850SOL    HW1 7398   3.750   2.719   4.771 -3.0317  1.9361 -1.0174
 1850SOL    HW2 7399   3.721   2.615   4.878  0.9210  0.1090 -1.5612
 1850SOL     MW 7400   3.715   2.697   4.848 -0.2374  0.6383  0.0213
 1851SOL     OW 7401   3.931   5.193   1.113  0.4781 -0.2973 -0.1169
 1851SOL    HW1 7402   3.846   5.234   1.098  0.5676  0.3572  1.0384
 1851SOL    HW2 7403   3.994   5.263   1.100  0.5828  0.2216  2.6530
 1851SOL     MW 7404   3.928   5.207   1.109  0.5029 -0.1471  0.3855
 1852SOL     OW 7405   0.080   4.742   1.909 -0.6143  0.5987  0.2093
 1852SOL    HW1 7406   0.176   4.746   1.902 -0.5154  2.9149  1.6326
 1852SOL    HW2 7407   0.064   4.696   1.991 -0.6693  0.7432  0.2816
 1852SOL     MW 7408   0.090   4.737   1.919 -0.6087  0.9137  0.4008
 1853SOL     OW 7409   4.356   0.352   3.521  0.2314  0.4519 -0.7578
 1853SOL    HW1 7410   4.288   0.316   3.465  0.0515 -1.1364  0.4014
 1853SOL    HW2 7411   4.406   0.276   3.550  0.6067  1.2514  0.8390
 1853SOL     MW 7412   4.354   0.338   3.518  0.2564  0.3509 -0.4050
 1854SOL     OW 7413   4.781   4.587   2.437 -0.7032  0.4757 -0.0597
 1854SOL    HW1 7414   4.812   4.506   2.396  1.5827  0.5555  1.3414
 1854SOL    HW2 7415   4.807   4.656   2.377 -0.3362  0.3671 -0.0247
 1854SOL     MW 7416   4.788   4.585   2.424 -0.3636  0.4720  0.1241
 1855SOL     OW 7417   1.150   0.767   0.768  0.1206  0.5498 -0.1480
 1855SOL    HW1 7418   1.244   0.772   0.751  0.1827  0.3812  0.1447
 1855SOL    HW2 7419   1.110   0.794   0.686  0.4360  2.1885  0.1961
 1855SOL     MW 7420   1.157   0.771   0.755  0.1689  0.7380 -0.0665
 1856SOL     OW 7421   5.201   4.962   2.229  0.1722 -0.0674 -0.4320
 1856SOL    HW1 7422   5.154   5.029   2.279 -0.5458 -0.9177  0.0717
 1856SOL    HW2 7423   5.206   4.997   2.140  0.0170  0.7520 -0.1257
 1856SOL     MW 7424   5.196   4.975   2.224  0.0605 -0.0714 -0.3283
 1857SOL     OW 7425   0.850   1.276   0.700  0.0068 -0.0586 -0.5404
 1857SOL    HW1 7426   0.882   1.211   0.637  0.3719 -0.9002  0.4901
 1857SOL    HW2 7427   0.928   1.326   0.725  0.1680 -0.7862  0.4487
 1857SOL     MW 7428   0.864   1.274   0.695  0.0742 -0.2594 -0.2819
 1858SOL     OW 7429   3.599   2.174   2.705  0.7390 -0.3241 -0.4871
 1858SOL    HW1 7430   3.605   2.269   2.695  0.3321 -0.1534  0.7729
 1858SOL    HW2 7431   3.690   2.145   2.711  0.8412  0.3049  1.6941
 1858SOL     MW 7432   3.612   2.182   2.704  0.7000 -0.2217 -0.0466
 1859SOL     OW 7433   3.070   0.817   1.682  0.0054 -0.4542 -0.4107
 1859SOL    HW1 7434   3.076   0.789   1.590  0.2394  1.6251 -1.0785
 1859SOL    HW2 7435   3.160   0.814   1.714  0.1586  0.2371 -0.7379
 1859SOL     MW 7436   3.082   0.813   1.674  0.0550 -0.0995 -0.5381
 1860SOL     OW 7437   4.834   4.401   2.239  0.2161 -0.0911  0.3419
 1860SOL    HW1 7438   4.759   4.437   2.193  0.0487  1.0588  1.4579
 1860SOL    HW2 7439   4.853   4.318   2.194 -0.3402  0.6478 -1.3223
 1860SOL     MW 7440   4.827   4.395   2.227  0.1234  0.1507  0.2717
 1861SOL     OW 7441   2.623   3.306   2.413 -0.5004 -0.0496  0.1427
 1861SOL    HW1 7442   2.636   3.212   2.424 -0.2224 -0.0775 -0.3996
 1861SOL    HW2 7443   2.633   3.321   2.319 -1.1323  0.4323  0.1432
 1861SOL     MW 7444   2.626   3.296   2.403 -0.5457  0.0086  0.0734
 1862SOL     OW 7445   2.017   4.452   2.931  0.8189  0.2056  0.0270
 1862SOL    HW1 7446   2.081   4.459   3.002  1.0958 -0.5984 -0.1261
 1862SOL    HW2 7447   1.933   4.475   2.971  1.1725  1.1147  0.2696
 1862SOL     MW 7448   2.015   4.456   2.945  0.8996  0.2191  0.0384
 1863SOL     OW 7449   2.814   3.635   1.181 -0.3313 -0.0243  0.1775
 1863SOL    HW1 7450   2.773   3.579   1.246 -0.0806 -0.8302 -0.3533
 1863SOL    HW2 7451   2.907   3.617   1.188 -0.2149  0.5428  0.1980
 1863SOL     MW 7452   2.821   3.626   1.190 -0.2843 -0.0548  0.1122
 1864SOL     OW 7453   4.157   4.660   1.764 -0.1408 -0.0418 -1.0215
 1864SOL    HW1 7454   4.204   4.588   1.805 -0.0994 -0.3838 -1.6597
 1864SOL    HW2 7455   4.157   4.639   1.671 -0.2978  0.6834 -1.1933
 1864SOL     MW 7456   4.163   4.648   1.758 -0.1556  0.0072 -1.1252
 1865SOL     OW 7457   4.870   2.529   2.117  0.1662 -0.3717 -0.1558
 1865SOL    HW1 7458   4.960   2.555   2.100 -0.0066  1.0836  0.9383
 1865SOL    HW2 7459   4.855   2.453   2.060  1.6936  0.0842 -1.2104
 1865SOL     MW 7460   4.879   2.522   2.107  0.3396 -0.1270 -0.1508
 1866SOL     OW 7461   2.795   4.702   2.089  0.0658  0.2340 -0.0798
 1866SOL    HW1 7462   2.776   4.750   2.170  1.0708  0.3752  0.0919
 1866SOL    HW2 7463   2.797   4.610   2.116 -0.1241  0.2351 -0.0574
 1866SOL     MW 7464   2.793   4.697   2.103  0.1701  0.2522 -0.0550
 1867SOL     OW 7465   2.541   3.201   1.702 -0.0227 -0.3058  0.0772
 1867SOL    HW1 7466   2.491   3.254   1.640  1.6961  0.8457 -0.4045
 1867SOL    HW2 7467   2.568   3.262   1.770 -1.4604 -1.4649  1.7601
 1867SOL     MW 7468   2.538   3.215   1.702  0.0133 -0.3068  0.2309
 1868SOL     OW 7469   1.043   3.366   2.284 -0.4254  0.3148  0.1394
 1868SOL    HW1 7470   1.110   3.321   2.335  0.4564 -1.2720 -2.2199
 1868SOL    HW2 7471   1.076   3.455   2.272 -0.9248  0.9104  2.6752
 1868SOL     MW 7472   1.056   3.371   2.289 -0.3765  0.1879  0.1620
 1869SOL     OW 7473   3.943   0.705   5.018 -0.1682  0.7559  0.3627
 1869SOL    HW1 7474   4.026   0.721   4.973 -0.5024 -1.3531 -1.1560
 1869SOL    HW2 7475   3.914   0.620   4.986 -2.3460  0.8751  1.7732
 1869SOL     MW 7476   3.950   0.696   5.008 -0.4898  0.5012  0.3489
 1870SOL     OW 7477   4.528   0.147   4.218  0.4839 -0.5389  0.7812
 1870SOL    HW1 7478   4.532   0.143   4.123  0.2651 -2.6648  0.7934
 1870SOL    HW2 7479   4.457   0.087   4.242 -1.9260  2.6292  2.1958
 1870SOL     MW 7480   4.520   0.139   4.209  0.1474 -0.4055  0.9638
 1871SOL     OW 7481   5.414   2.014   5.015  0.5669  0.2107  0.5522
 1871SOL    HW1 7482   5.395   2.107   5.006 -0.1807  0.1653  1.5201
 1871SOL    HW2 7483   5.493   2.001   4.962 -0.8937  0.8128 -1.9538
 1871SOL     MW 7484   5.422   2.024   5.007  0.2842  0.2819  0.3553
 1872SOL     OW 7485   0.702   0.992   3.110  0.2108  0.2090 -0.5744
 1872SOL    HW1 7486   0.641   1.065   3.110  0.7113  0.7247 -2.9218
 1872SOL    HW2 7487   0.711   0.969   3.017  1.5068 -1.6044 -0.0474
 1872SOL     MW 7488   0.696   0.998   3.098  0.4408  0.0429 -0.8074
 1873SOL     OW 7489   4.124   2.644   2.454 -0.3685 -0.1985 -0.0349
 1873SOL    HW1 7490   4.153   2.589   2.381 -1.3907 -0.6184 -0.1315
 1873SOL    HW2 7491   4.137   2.733   2.423  0.2873 -0.3684 -0.2810
 1873SOL     MW 7492   4.130   2.648   2.441 -0.4154 -0.2740 -0.0788
 1874SOL     OW 7493   4.580   1.247   3.560  0.0602  0.2353  0.5010
 1874SOL    HW1 7494   4.487   1.227   3.546  0.2402 -1.5075  1.4655
 1874SOL    HW2 7495   4.579   1.321   3.622 -0.6619  1.1105 -0.5206
 1874SOL     MW 7496   4.568   1.254   3.566 -0.0092  0.1242  0.4937
 1875SOL     OW 7497   4.136   2.531   3.413 -0.2673 -0.6739  0.1986
 1875SOL    HW1 7498   4.042   2.531   3.431 -0.5868  4.1092 -0.1786
 1875SOL    HW2 7499   4.142   2.528   3.317 -0.0423 -0.4548  0.2052
 1875SOL     MW 7500   4.125   2.530   3.403 -0.2794 -0.0336  0.1512
 1876SOL     OW 7501   2.411   1.038   3.650  0.2694  0.2827 -0.2088
 1876SOL    HW1 7502   2.487   1.081   3.689 -1.2410  1.1265  2.0094
 1876SOL    HW2 7503   2.407   0.953   3.693 -0.1484  0.3119 -0.1882
 1876SOL     MW 7504   2.420   1.033   3.660  0.0226  0.3945  0.0778
 1877SOL     OW 7505   0.366   2.361   5.121 -0.1200  0.2840 -0.1349
 1877SOL    HW1 7506   0.413   2.280   5.104 -1.1463 -0.3336 -0.0976
 1877SOL    HW2 7507   0.288   2.357   5.065  0.0767  1.4906 -0.5350
 1877SOL     MW 7508   0.362   2.350   5.112 -0.2262  0.3594 -0.1813
 1878SOL     OW 7509   4.632   0.434   0.726  0.0758  0.0902 -0.5634
 1878SOL    HW1 7510   4.680   0.500   0.675  0.7910 -0.4107 -0.5576
 1878SOL    HW2 7511   4.699   0.371   0.752 -0.5998 -0.6562 -0.5964
 1878SOL     MW 7512   4.647   0.434   0.723  0.0809 -0.0694 -0.5669
 1879SOL     OW 7513   0.280   3.234   0.214  0.7909  0.1507  0.1461
 1879SOL    HW1 7514   0.221   3.167   0.249  0.6524 -0.1186 -0.5950
 1879SOL    HW2 7515   0.259   3.313   0.265 -1.6536  0.6258 -1.3843
 1879SOL     MW 7516   0.270   3.236   0.225  0.4603  0.1770 -0.1447
 1880SOL     OW 7517   3.683   0.646   0.795  0.1587 -0.4472 -0.3664
 1880SOL    HW1 7518   3.633   0.640   0.714 -2.0905 -0.0974  0.9147
 1880SOL    HW2 7519   3.684   0.557   0.829 -0.4316 -0.2979  0.0614
 1880SOL     MW 7520   3.677   0.634   0.789 -0.2048 -0.3833 -0.1477
 1881SOL     OW 7521   2.518   2.221   2.375 -0.1486  0.1886 -0.2048
 1881SOL    HW1 7522   2.427   2.195   2.364  0.5345 -1.9124 -1.4125
 1881SOL    HW2 7523   2.552   2.227   2.286  1.3090 -0.7497  0.2517
 1881SOL     MW 7524   2.511   2.219   2.362  0.1255 -0.2005 -0.3009
 1882SOL     OW 7525   4.322   4.338   3.541 -0.4121 -0.2921 -0.1904
 1882SOL    HW1 7526   4.298   4.400   3.472  0.3193  0.2863  0.0501
 1882SOL    HW2 7527   4.332   4.254   3.497  0.5450  0.1736 -0.8896
 1882SOL     MW 7528   4.321   4.335   3.527 -0.1960 -0.1585 -0.2492
 1883SOL     OW 7529   0.558   4.704   4.589  0.1040 -0.4618  0.3172
 1883SOL    HW1 7530   0.505   4.705   4.668  0.5527  0.4285  0.6108
 1883SOL    HW2 7531   0.530   4.625   4.542 -1.2962 -0.1421  0.5864
 1883SOL     MW 7532   0.548   4.694   4.593 -0.0178 -0.3069  0.3892
 1884SOL     OW 7533   4.580   5.235   4.509  0.4955 -0.3654  0.1333
 1884SOL    HW1 7534   4.620   5.313   4.470 -2.3279  1.7303  1.1069
 1884SOL    HW2 7535   4.529   5.196   4.438  0.9927 -0.7161 -0.0438
 1884SOL     MW 7536   4.579   5.240   4.495  0.1978 -0.1420  0.2353
 1885SOL     OW 7537   3.649   3.344   1.340 -0.2569 -0.1045  0.4762
 1885SOL    HW1 7538   3.731   3.350   1.290  0.9566 -3.1956  1.8092
 1885SOL    HW2 7539   3.671   3.381   1.426 -1.0404  1.2812  0.1020
 1885SOL     MW 7540   3.663   3.350   1.345 -0.2019 -0.3228  0.5990
 1886SOL     OW 7541   0.351   3.487   1.668 -0.0071 -0.0348 -0.1790
 1886SOL    HW1 7542   0.314   3.439   1.742 -0.1023  1.5678  0.8611
 1886SOL    HW2 7543   0.392   3.419   1.614  1.5856 -1.1402  2.2202
 1886SOL     MW 7544   0.352   3.472   1.671  0.1846  0.0288  0.2612
 1887SOL     OW 7545   0.064   1.155   4.962  0.0151 -0.6799  0.5439
 1887SOL    HW1 7546   0.125   1.194   4.899 -0.5899 -0.2997  0.1812
 1887SOL    HW2 7547   0.091   1.191   5.046  0.4675 -0.7343  0.4240
 1887SOL     MW 7548   0.075   1.165   4.965 -0.0045 -0.6382  0.4821
 1888SOL     OW 7549   2.398   1.832   3.058  0.0494  0.1001 -0.1446
 1888SOL    HW1 7550   2.482   1.796   3.031  0.4079  0.2006  0.8061
 1888SOL    HW2 7551   2.356   1.761   3.107  0.5197  0.7565  1.2554
 1888SOL     MW 7552   2.403   1.818   3.061  0.1555  0.1970  0.1563
 1889SOL     OW 7553   4.079   0.537   3.241  0.3647 -0.0313  0.2766
 1889SOL    HW1 7554   4.146   0.592   3.281 -1.2858  2.2890  0.0739
 1889SOL    HW2 7555   4.075   0.566   3.150 -3.2864  2.6113  1.0626
 1889SOL     MW 7556   4.087   0.547   3.235 -0.3140  0.6040  0.3513
 1890SOL     OW 7557   4.454   0.392   4.525  0.4204  0.3861  0.3551
 1890SOL    HW1 7558   4.461   0.436   4.610 -0.2256 -0.2001  0.7241
 1890SOL    HW2 7559   4.526   0.328   4.527  0.5090  0.4859  0.3912
 1890SOL     MW 7560   4.464   0.389   4.536  0.3490  0.3238  0.4070
 1891SOL     OW 7561   1.243   2.760   1.102 -0.4458  0.0660 -0.6627
 1891SOL    HW1 7562   1.330   2.799   1.100 -0.2661 -0.3325 -2.6514
 1891SOL    HW2 7563   1.197   2.806   1.172  1.5567 -0.2135  0.9261
 1891SOL     MW 7564   1.248   2.771   1.110 -0.1664 -0.0208 -0.7139
 1892SOL     OW 7565   2.853   1.610   2.682  0.5699 -0.2911 -0.4430
 1892SOL    HW1 7566   2.825   1.641   2.595  0.0186 -1.2884 -0.6458
 1892SOL    HW2 7567   2.936   1.654   2.698  0.8486 -0.3507 -1.6330
 1892SOL     MW 7568   2.860   1.619   2.673  0.5350 -0.4264 -0.6213
 1893SOL     OW 7569   4.171   4.034   2.657 -0.0814  0.0095 -0.1897
 1893SOL    HW1 7570   4.205   4.111   2.703 -0.6959  0.0147  0.2747
 1893SOL    HW2 7571   4.249   3.984   2.632  0.3430  0.9449 -0.7984
 1893SOL     MW 7572   4.185   4.038   2.659 -0.1057  0.1299 -0.2082
 1894SOL     OW 7573   3.607   4.353   1.514  0.2446 -0.0841 -0.6020
 1894SOL    HW1 7574   3.660   4.285   1.472  0.3349  0.2970 -1.1186
 1894SOL    HW2 7575   3.573   4.311   1.594 -0.6306 -1.1164 -1.4673
 1894SOL     MW 7576   3.609   4.339   1.519  0.1441 -0.1674 -0.7789
 1895SOL     OW 7577   1.287   4.748   1.606 -0.3740  0.1766 -0.0547
 1895SOL    HW1 7578   1.343   4.825   1.614 -0.0157 -0.0979  0.1060
 1895SOL    HW2 7579   1.211   4.767   1.661 -1.0881  1.1225 -1.3245
 1895SOL     MW 7580   1.284   4.760   1.614 -0.4195  0.2626 -0.1967
 1896SOL     OW 7581   1.694   4.415   3.810 -0.4329 -0.1800 -1.1116
 1896SOL    HW1 7582   1.667   4.359   3.883  0.1804 -1.3258 -1.7426
 1896SOL    HW2 7583   1.760   4.364   3.764 -0.6887  0.6005 -2.3710
 1896SOL     MW 7584   1.699   4.402   3.814 -0.3871 -0.2267 -1.3536
 1897SOL     OW 7585   0.073   0.050   0.948  0.2998 -0.1358  0.4124
 1897SOL    HW1 7586   0.127  -0.028   0.936 -0.7355 -0.9289  0.7157
 1897SOL    HW2 7587   0.071   0.091   0.862  0.2433 -0.8666  0.0523
 1897SOL     MW 7588   0.079   0.045   0.935  0.1601 -0.3309  0.4051
 1898SOL     OW 7589   4.360   2.739   0.299 -0.9868 -0.0630 -0.4372
 1898SOL    HW1 7590   4.283   2.737   0.243  0.0897  0.5887 -2.0306
 1898SOL    HW2 7591   4.378   2.833   0.311 -0.8679 -0.1997  0.5551
 1898SOL     MW 7592   4.353   2.751   0.293 -0.8338  0.0029 -0.5142
 1899SOL     OW 7593   2.192   2.430   1.281  0.2397  0.2724 -0.5239
 1899SOL    HW1 7594   2.182   2.439   1.186 -0.8925  1.3281 -0.3303
 1899SOL    HW2 7595   2.191   2.520   1.314  1.7853 -0.0065  0.4057
 1899SOL     MW 7596   2.191   2.443   1.273  0.2926  0.3718 -0.3801
 1900SOL     OW 7597   2.968   0.004   4.944  0.1141 -0.1078 -0.0368
 1900SOL    HW1 7598   2.975  -0.025   5.035 -0.4406 -0.6197 -0.1537
 1900SOL    HW2 7599   3.019   0.085   4.941 -1.9686  1.3357  1.3423
 1900SOL     MW 7600   2.976   0.010   4.955 -0.2235  0.0115  0.1248
 1901SOL     OW 7601   3.190   4.414   4.106 -0.2373  0.4844 -0.1665
 1901SOL    HW1 7602   3.259   4.400   4.041 -0.7580  1.5225 -0.9639
 1901SOL    HW2 7603   3.117   4.360   4.075 -0.0823  0.0405  0.2245
 1901SOL     MW 7604   3.190   4.405   4.094 -0.2841  0.5604 -0.2185
 1902SOL     OW 7605   4.043   4.092   1.042  0.0959 -0.2941  0.1966
 1902SOL    HW1 7606   4.015   4.002   1.023 -1.1115  0.0912  0.0940
 1902SOL    HW2 7607   3.970   4.146   1.015 -0.4765  0.5217  3.0402
 1902SOL     MW 7608   4.030   4.087   1.036 -0.1319 -0.1403  0.5475
 1903SOL     OW 7609   4.308   3.025   0.460  0.4958 -0.2531 -0.4852
 1903SOL    HW1 7610   4.217   3.015   0.431 -0.0576 -1.4242  1.4777
 1903SOL    HW2 7611   4.301   3.058   0.550  2.0792  1.4955 -0.9565
 1903SOL     MW 7612   4.296   3.028   0.468  0.6277 -0.1792 -0.2942
 1904SOL     OW 7613   0.926   2.518   2.977  0.0965  0.3906 -0.3682
 1904SOL    HW1 7614   1.013   2.509   2.939 -0.0396  0.7869 -0.7791
 1904SOL    HW2 7615   0.918   2.611   3.000 -0.1286  0.3119 -0.1146
 1904SOL     MW 7616   0.936   2.529   2.975  0.0503  0.4313 -0.3884
 1905SOL     OW 7617   3.796   5.327   3.635 -0.5039  0.0800  0.6994
 1905SOL    HW1 7618   3.883   5.339   3.597 -0.8752  0.6598  0.0125
 1905SOL    HW2 7619   3.752   5.266   3.575 -0.2626 -0.9756  1.5620
 1905SOL     MW 7620   3.802   5.321   3.622 -0.5205  0.0191  0.7219
 1906SOL     OW 7621   4.855   2.746   4.994  0.1843 -0.4582  0.2207
 1906SOL    HW1 7622   4.812   2.679   5.047  0.2212 -0.8121 -0.1932
 1906SOL    HW2 7623   4.825   2.729   4.905  2.8588 -2.1352 -0.4622
 1906SOL     MW 7624   4.846   2.736   4.990  0.5314 -0.7182  0.0803
 1907SOL     OW 7625   0.173   0.648   2.052 -0.0094  0.1013  0.1829
 1907SOL    HW1 7626   0.151   0.618   2.140 -0.1485 -1.4282 -0.3339
 1907SOL    HW2 7627   0.094   0.631   2.001  1.2530 -2.6761 -1.0499
 1907SOL     MW 7628   0.160   0.642   2.057  0.1344 -0.4500 -0.0411
 1908SOL     OW 7629   2.199   1.289   2.150  0.5564 -0.5387 -0.0369
 1908SOL    HW1 7630   2.238   1.226   2.089  1.0054 -0.1732 -0.1354
 1908SOL    HW2 7631   2.273   1.344   2.177 -0.1673  1.2749 -1.5507
 1908SOL     MW 7632   2.214   1.288   2.146  0.5212 -0.2598 -0.2433
 1909SOL     OW 7633   4.614   1.371   1.411  0.2922  0.7354 -0.5464
 1909SOL    HW1 7634   4.566   1.302   1.365 -0.9284  1.0516  0.2139
 1909SOL    HW2 7635   4.642   1.431   1.342 -3.3612  2.3541 -0.8273
 1909SOL     MW 7636   4.611   1.369   1.396 -0.3317  0.9831 -0.4850
 1910SOL     OW 7637   1.664   2.764   0.917  0.2085 -0.1368  0.5810
 1910SOL    HW1 7638   1.727   2.745   0.848  1.5661  0.8681  1.5085
 1910SOL    HW2 7639   1.628   2.849   0.894 -1.5462 -1.0738 -0.4208
 1910SOL     MW 7640   1.667   2.772   0.905  0.1577 -0.1281  0.5715
 1911SOL     OW 7641   4.474   4.602   4.643 -0.7338  0.2225  0.0838
 1911SOL    HW1 7642   4.558   4.627   4.679 -1.0790  0.9897  0.3726
 1911SOL    HW2 7643   4.494   4.570   4.555 -0.1635  0.5125  0.1050
 1911SOL     MW 7644   4.487   4.601   4.637 -0.7050  0.3579  0.1235
 1912SOL     OW 7645   1.515   1.681   2.631  0.4412  0.0762  0.2438
 1912SOL    HW1 7646   1.446   1.737   2.595  0.6258  0.6090  0.7122
 1912SOL    HW2 7647   1.512   1.696   2.725 -0.4089 -1.7499  0.5274
 1912SOL     MW 7648   1.506   1.690   2.638  0.3560 -0.0894  0.3401
 1913SOL     OW 7649   3.078   3.188   0.840  0.8452 -0.3190  0.1692
 1913SOL    HW1 7650   3.038   3.175   0.926 -0.9352 -0.0846 -0.5895
 1913SOL    HW2 7651   3.074   3.101   0.799  0.1604 -0.0799 -0.2871
 1913SOL     MW 7652   3.073   3.175   0.846  0.5296 -0.2584  0.0137
 1914SOL     OW 7653   3.237   4.985   2.559  0.0006 -0.2018 -0.4440
 1914SOL    HW1 7654   3.172   5.044   2.595 -0.1209 -1.8214  2.2286
 1914SOL    HW2 7655   3.318   5.006   2.606 -0.3133 -2.8218  1.4877
 1914SOL     MW 7656   3.239   4.995   2.569 -0.0552 -0.7445  0.1454
 1915SOL     OW 7657   3.636   1.367   4.216  0.5568  0.1547  0.4269
 1915SOL    HW1 7658   3.567   1.413   4.169 -0.5097 -1.2869  0.5010
 1915SOL    HW2 7659   3.691   1.329   4.148 -0.8777 -1.7704  0.2441
 1915SOL     MW 7660   3.634   1.368   4.202  0.2367 -0.2763  0.4130
 1916SOL     OW 7661   1.987   2.120   0.640 -0.9421 -0.1034  0.3296
 1916SOL    HW1 7662   1.917   2.056   0.650  0.0311 -0.8492  3.1500
 1916SOL    HW2 7663   1.987   2.141   0.546 -3.1837 -2.0159 -0.1837
 1916SOL     MW 7664   1.978   2.114   0.629 -1.1045 -0.4437  0.6250
 1917SOL     OW 7665   2.461   2.033   3.496 -0.5414  0.2966  0.0383
 1917SOL    HW1 7666   2.536   1.986   3.533 -1.2419 -0.8024  0.1097
 1917SOL    HW2 7667   2.427   2.086   3.568  0.9119  1.8274 -0.3299
 1917SOL     MW 7668   2.466   2.034   3.510 -0.4450  0.3519  0.0003
 1918SOL     OW 7669   4.970   2.437   1.721  0.0699  0.5458  0.4116
 1918SOL    HW1 7670   5.023   2.364   1.690 -0.0760 -0.0600  1.5493
 1918SOL    HW2 7671   4.929   2.471   1.642  2.0449  0.9724 -0.4954
 1918SOL     MW 7672   4.971   2.432   1.707  0.3040  0.5229  0.4411
 1919SOL     OW 7673   1.022   4.481   3.896 -0.6076  0.2419 -0.5804
 1919SOL    HW1 7674   0.937   4.498   3.854 -0.4135 -2.0900 -2.0740
 1919SOL    HW2 7675   1.083   4.539   3.851 -1.5321  3.2438  1.6561
 1919SOL     MW 7676   1.019   4.490   3.885 -0.7011  0.3277 -0.4853
 1920SOL     OW 7677   2.886   2.921   1.385 -0.5429 -0.3227  0.0693
 1920SOL    HW1 7678   2.847   2.947   1.469  0.0794 -0.6126  0.4593
 1920SOL    HW2 7679   2.941   2.846   1.407 -1.4417 -1.2958 -0.8397
 1920SOL     MW 7680   2.888   2.915   1.399 -0.5783 -0.4844  0.0029
 1921SOL     OW 7681   0.070   0.328   5.101 -0.0500  0.2606 -0.4175
 1921SOL    HW1 7682   0.028   0.243   5.087  0.2688 -0.0390  0.3988
 1921SOL    HW2 7683   0.082   0.363   5.013  3.0564 -2.0924 -1.1370
 1921SOL     MW 7684   0.066   0.321   5.088  0.3885 -0.0789 -0.4051
 1922SOL     OW 7685   4.969   2.864   5.326 -0.1762 -0.1184  0.2158
 1922SOL    HW1 7686   5.064   2.854   5.329 -0.3776 -2.0400  1.3276
 1922SOL    HW2 7687   4.944   2.883   5.417 -0.7171  2.4477 -0.3800
 1922SOL     MW 7688   4.978   2.865   5.338 -0.2712 -0.0359  0.2818
 1923SOL     OW 7689   3.249   4.134   3.198 -0.5711 -0.0421 -0.4795
 1923SOL    HW1 7690   3.321   4.181   3.240 -1.6730  1.0091  0.3094
 1923SOL    HW2 7691   3.279   4.120   3.108  0.8793 -0.2418 -0.0017
 1923SOL     MW 7692   3.262   4.138   3.192 -0.5265  0.0669 -0.3173
 1924SOL     OW 7693   3.849   4.296   4.020  0.1201 -0.3136  0.2079
 1924SOL    HW1 7694   3.853   4.213   4.066  0.1782 -0.2127  0.3883
 1924SOL    HW2 7695   3.832   4.361   4.089  1.1113 -0.0521  0.2144
 1924SOL     MW 7696   3.847   4.294   4.035  0.2544 -0.2672  0.2318
 1925SOL     OW 7697   3.468   0.255   3.237  0.3015  0.3215 -0.8278
 1925SOL    HW1 7698   3.375   0.233   3.236  0.1023  1.0960 -0.2231
 1925SOL    HW2 7699   3.512   0.175   3.206 -0.3199 -1.2932  2.1271
 1925SOL     MW 7700   3.462   0.242   3.233  0.1964  0.2140 -0.3721
 1926SOL     OW 7701   0.215   2.852   1.940  0.0413 -0.1883 -0.0188
 1926SOL    HW1 7702   0.211   2.872   2.033 -0.4346  4.0276 -0.7421
 1926SOL    HW2 7703   0.261   2.926   1.902  2.7030 -3.0430 -2.9383
 1926SOL     MW 7704   0.220   2.864   1.947  0.3211 -0.0141 -0.4852
 1927SOL     OW 7705   5.367   2.532   0.866  0.0476  0.4294 -0.5646
 1927SOL    HW1 7706   5.341   2.441   0.852  0.3082  0.3192 -0.3488
 1927SOL    HW2 7707   5.431   2.550   0.797 -0.8961  0.8258 -1.3397
 1927SOL     MW 7708   5.372   2.523   0.856 -0.0399  0.4660 -0.6362
 1928SOL     OW 7709   4.332   2.049   0.350  0.6002 -0.3815 -0.3153
 1928SOL    HW1 7710   4.337   2.008   0.264  0.6615 -0.8123 -0.1086
 1928SOL    HW2 7711   4.246   2.023   0.384  1.3863 -1.9017  0.5918
 1928SOL     MW 7712   4.322   2.041   0.343  0.7087 -0.6312 -0.1727
 1929SOL     OW 7713   2.363   3.175   2.577 -0.0682 -0.2178 -0.1664
 1929SOL    HW1 7714   2.342   3.086   2.605 -2.5913 -0.1273 -1.4809
 1929SOL    HW2 7715   2.313   3.231   2.637 -0.9838  0.1608 -1.2411
 1929SOL     MW 7716   2.354   3.171   2.589 -0.5084 -0.1577 -0.4723
 1930SOL     OW 7717   4.877   3.504   2.824  0.1522  0.2240  0.4023
 1930SOL    HW1 7718   4.939   3.512   2.752  0.2492 -1.3253  0.2797
 1930SOL    HW2 7719   4.834   3.590   2.829  0.0587  0.3256 -1.5457
 1930SOL     MW 7720   4.880   3.516   2.816  0.1527  0.0386  0.1372
 1931SOL     OW 7721   3.518   4.482   0.974  0.1375  0.0488  0.1679
 1931SOL    HW1 7722   3.494   4.491   0.881 -1.1367 -0.4160  0.4299
 1931SOL    HW2 7723   3.484   4.561   1.015 -0.6676 -0.4400  0.4780
 1931SOL     MW 7724   3.510   4.493   0.967 -0.1287 -0.0732  0.2412
 1932SOL     OW 7725   2.910   2.733   4.473 -0.2977  0.3012  0.0005
 1932SOL    HW1 7726   2.886   2.749   4.382  1.6264 -1.1637 -0.8344
 1932SOL    HW2 7727   2.830   2.696   4.513 -1.2214  1.1596 -0.9956
 1932SOL     MW 7728   2.896   2.730   4.467 -0.1697  0.2236 -0.2339
 1933SOL     OW 7729   1.757   3.479   3.822  0.1242 -0.0481  0.1199
 1933SOL    HW1 7730   1.812   3.553   3.795  2.1204  0.3032  4.3277
 1933SOL    HW2 7731   1.818   3.406   3.830 -0.7382 -0.6839  1.1959
 1933SOL     MW 7732   1.772   3.479   3.819  0.2693 -0.0845  0.7963
 1934SOL     OW 7733   1.406   0.906   0.071  0.8733  0.0740 -0.0437
 1934SOL    HW1 7734   1.345   0.894   0.143  0.6442  0.4750 -0.1677
 1934SOL    HW2 7735   1.492   0.910   0.113  0.7000  0.8166  0.2695
 1934SOL     MW 7736   1.409   0.905   0.086  0.8218  0.2204 -0.0195
 1935SOL     OW 7737   4.530   4.249   2.204  0.2516 -0.5960  0.1491
 1935SOL    HW1 7738   4.605   4.192   2.221  0.2697 -0.5149  0.3403
 1935SOL    HW2 7739   4.567   4.326   2.162  0.1312 -1.0745 -0.8569
 1935SOL     MW 7740   4.544   4.252   2.201  0.2385 -0.6469  0.0448
 1936SOL     OW 7741   4.102   3.123   1.060  0.2678 -0.4722 -0.2579
 1936SOL    HW1 7742   4.157   3.201   1.063 -2.7917  1.8649  2.0187
 1936SOL    HW2 7743   4.155   3.057   1.016  4.1627  1.9928  0.3153
 1936SOL     MW 7744   4.116   3.125   1.055  0.3748  0.1425  0.1069
 1937SOL     OW 7745   0.377   1.748   1.821  0.1678  0.0957 -0.6602
 1937SOL    HW1 7746   0.395   1.768   1.729 -0.1645  1.5166 -0.4493
 1937SOL    HW2 7747   0.307   1.683   1.818 -0.5449  0.8554 -1.4352
 1937SOL     MW 7748   0.370   1.742   1.809  0.0340  0.3749 -0.7324
 1938SOL     OW 7749   2.474   4.976   0.987 -0.1601 -0.0180  0.0455
 1938SOL    HW1 7750   2.477   4.888   1.024 -1.8385 -0.5502 -0.9992
 1938SOL    HW2 7751   2.385   4.986   0.953  0.3815  1.5906 -1.0485
 1938SOL     MW 7752   2.463   4.966   0.987 -0.3056  0.1198 -0.2282
 1939SOL     OW 7753   3.217   1.056   4.478  0.5892  0.4750  0.6717
 1939SOL    HW1 7754   3.131   1.091   4.500 -0.0750 -1.6846  1.8149
 1939SOL    HW2 7755   3.222   1.065   4.383 -0.8284  0.7995  0.5966
 1939SOL     MW 7756   3.206   1.062   4.469  0.3227  0.2401  0.8084
 1940SOL     OW 7757   5.234   0.908   3.891  0.1326  0.4269 -0.5091
 1940SOL    HW1 7758   5.172   0.981   3.886  0.7365  1.0010  0.2273
 1940SOL    HW2 7759   5.311   0.939   3.843  0.4561  0.3340 -0.0516
 1940SOL     MW 7760   5.236   0.921   3.884  0.2513  0.4885 -0.3562
 1941SOL     OW 7761   0.883   4.329   0.776 -0.1685 -0.0760  0.5779
 1941SOL    HW1 7762   0.968   4.373   0.776 -0.0024 -0.2405 -2.1066
 1941SOL    HW2 7763   0.822   4.395   0.745  0.1366 -1.5320 -3.8261
 1941SOL     MW 7764   0.886   4.343   0.772 -0.1082 -0.2834 -0.3295
 1942SOL     OW 7765   0.728   3.367   3.369  0.5413 -0.3475 -0.2075
 1942SOL    HW1 7766   0.721   3.310   3.291  1.1186 -0.5566 -0.1125
 1942SOL    HW2 7767   0.819   3.356   3.398  0.4512  0.0754  0.2373
 1942SOL     MW 7768   0.739   3.358   3.362  0.6036 -0.3201 -0.1384
 1943SOL     OW 7769   2.563   3.966   2.059  0.1981  0.0427  0.1779
 1943SOL    HW1 7770   2.607   3.923   2.133 -0.1011 -1.4338 -0.4891
 1943SOL    HW2 7771   2.608   4.050   2.051  4.0772 -1.9898 -1.4857
 1943SOL     MW 7772   2.574   3.971   2.068  0.6564 -0.4065 -0.1204
 1944SOL     OW 7773   2.263   0.490   3.824 -0.0287  0.6578 -0.4755
 1944SOL    HW1 7774   2.277   0.506   3.731  0.0711 -1.7731 -0.9473
 1944SOL    HW2 7775   2.344   0.447   3.854  0.1672  1.8830  0.9025
 1944SOL     MW 7776   2.275   0.486   3.816  0.0091  0.5034 -0.3595
 1945SOL     OW 7777   1.056   4.721   0.515 -0.0434  0.6264 -0.0376
 1945SOL    HW1 7778   1.124   4.728   0.581 -1.5437 -1.5905  1.9061
 1945SOL    HW2 7779   0.981   4.769   0.552 -0.3513  0.8792 -0.9550
 1945SOL     MW 7780   1.055   4.728   0.528 -0.2748  0.3750  0.0938
 1946SOL     OW 7781   0.683   3.801   2.509  0.6886  0.0671 -0.5486
 1946SOL    HW1 7782   0.624   3.804   2.585  0.2914  1.0507 -0.8894
 1946SOL    HW2 7783   0.760   3.851   2.536  1.3086 -1.0417 -0.1799
 1946SOL     MW 7784   0.685   3.807   2.522  0.7171  0.0511 -0.5450
 1947SOL     OW 7785   4.475   3.791   2.833 -0.0902 -0.5857 -0.1537
 1947SOL    HW1 7786   4.524   3.744   2.765  1.1083  0.0472  0.2424
 1947SOL    HW2 7787   4.434   3.722   2.885  0.8182 -1.1678 -0.1829
 1947SOL     MW 7788   4.476   3.776   2.831  0.1795 -0.5792 -0.1068
 1948SOL     OW 7789   3.112   2.636   1.162 -0.0347  0.1808  0.3272
 1948SOL    HW1 7790   3.117   2.544   1.188  0.5338  0.4586  1.2203
 1948SOL    HW2 7791   3.197   2.655   1.122 -0.2819  0.2310 -0.1893
 1948SOL     MW 7792   3.123   2.626   1.160  0.0064  0.2228  0.3754
 1949SOL     OW 7793   4.522   4.038   0.860  0.0628 -0.1170  0.0584
 1949SOL    HW1 7794   4.573   4.076   0.932  1.3500  1.5787 -1.6668
 1949SOL    HW2 7795   4.560   3.951   0.847  1.0720  0.2963  0.1975
 1949SOL     MW 7796   4.533   4.031   0.868  0.3568  0.1529 -0.1446
 1950SOL     OW 7797   3.683   3.709   2.854 -0.0004  0.7662 -0.0853
 1950SOL    HW1 7798   3.777   3.687   2.856  0.1862  1.5412  0.1061
 1950SOL    HW2 7799   3.680   3.803   2.874 -0.7742  0.8874 -0.7052
 1950SOL     MW 7800   3.695   3.718   2.857 -0.0756  0.8809 -0.1401
 1951SOL     OW 7801   2.599   1.033   3.430 -0.2055 -0.0134 -0.0148
 1951SOL    HW1 7802   2.583   1.119   3.468 -1.5486 -0.6685  0.9707
 1951SOL    HW2 7803   2.686   1.009   3.462 -0.1085  0.6756  0.2717
 1951SOL     MW 7804   2.608   1.041   3.439 -0.3650 -0.0091  0.1480
 1952SOL     OW 7805   0.414   1.437   4.386 -0.3607  0.1701 -0.3340
 1952SOL    HW1 7806   0.458   1.433   4.301  0.4102  0.7869  0.0198
 1952SOL    HW2 7807   0.481   1.411   4.449 -0.3404  1.5423  0.2589
 1952SOL     MW 7808   0.428   1.433   4.383 -0.2594  0.4247 -0.2128
 1953SOL     OW 7809   4.854   0.755   2.565  0.2383  0.1423  0.3020
 1953SOL    HW1 7810   4.948   0.762   2.549  0.4412  0.9761  1.7225
 1953SOL    HW2 7811   4.844   0.776   2.658 -1.1055 -2.2345  0.7734
 1953SOL     MW 7812   4.865   0.759   2.575  0.0922 -0.0552  0.5441
 1954SOL     OW 7813   3.437   3.747   5.279 -0.8333  0.3478  0.2931
 1954SOL    HW1 7814   3.493   3.746   5.201 -1.7024 -0.3028 -0.3374
 1954SOL    HW2 7815   3.351   3.721   5.248 -1.3841  0.8360  1.3453
 1954SOL     MW 7816   3.434   3.743   5.265 -1.0151  0.3270  0.3471
 1955SOL     OW 7817   5.152   4.743   0.177  0.4596  0.1617 -0.3174
 1955SOL    HW1 7818   5.089   4.766   0.245  0.0867 -0.3544 -0.4775
 1955SOL    HW2 7819   5.155   4.647   0.179 -0.0337  0.1108 -1.4453
 1955SOL     MW 7820   5.144   4.733   0.186  0.3487  0.0891 -0.4823
 1956SOL     OW 7821   1.497   0.593   3.773 -0.4073 -0.1499  0.0038
 1956SOL    HW1 7822   1.521   0.506   3.805  2.1115  0.3154 -0.3809
 1956SOL    HW2 7823   1.460   0.638   3.849 -1.9165 -1.5848  0.1549
 1956SOL     MW 7824   1.495   0.588   3.787 -0.2781 -0.2740 -0.0261
 1957SOL     OW 7825   4.162   0.146   5.410  0.1765 -0.2646 -0.6256
 1957SOL    HW1 7826   4.134   0.115   5.323 -0.9327  0.6017 -0.6101
 1957SOL    HW2 7827   4.140   0.075   5.469 -2.7855  0.5951 -0.5132
 1957SOL     MW 7828   4.155   0.133   5.406 -0.3447 -0.0436 -0.6092
 1958SOL     OW 7829   1.645   0.311   0.246 -0.9345  0.6770 -0.2708
 1958SOL    HW1 7830   1.671   0.220   0.232 -1.7364  0.2242  1.0831
 1958SOL    HW2 7831   1.646   0.323   0.341 -1.6863  1.8239 -0.3829
 1958SOL     MW 7832   1.648   0.301   0.256 -1.1334  0.7659 -0.1119
 1959SOL     OW 7833   0.070   0.959   0.114  0.4726 -0.3979 -0.3000
 1959SOL    HW1 7834   0.048   0.979   0.205  0.3351 -0.1189 -0.3915
 1959SOL    HW2 7835   0.061   0.864   0.107 -0.0955 -0.3558 -0.1738
 1959SOL     MW 7836   0.066   0.949   0.125  0.3823 -0.3568 -0.2956
 1960SOL     OW 7837   5.500   3.612   5.204  0.5062  0.5581  0.1586
 1960SOL    HW1 7838   5.510   3.520   5.227  1.2169  0.4851 -0.3981
 1960SOL    HW2 7839   5.447   3.649   5.275 -1.5076 -0.6862 -0.6237
 1960SOL     MW 7840   5.495   3.605   5.216  0.3394  0.3895 -0.0128
 1961SOL     OW 7841   0.847   3.353   4.827  0.0830  0.1512  0.0968
 1961SOL    HW1 7842   0.786   3.307   4.769  0.5372 -0.0976 -0.1851
 1961SOL    HW2 7843   0.840   3.306   4.910 -0.0527  0.0725  0.0415
 1961SOL     MW 7844   0.838   3.341   4.830  0.1238  0.1093  0.0537
 1962SOL     OW 7845   2.301   2.188   3.259 -0.2175 -0.4214  0.4492
 1962SOL    HW1 7846   2.351   2.183   3.177 -0.4038  0.5945  0.2517
 1962SOL    HW2 7847   2.340   2.262   3.306 -0.8085 -0.3225  0.7943
 1962SOL     MW 7848   2.313   2.197   3.254 -0.3170 -0.2787  0.4681
 1963SOL     OW 7849   0.877   0.619   0.841 -0.1171  0.1020  0.2744
 1963SOL    HW1 7850   0.932   0.695   0.860  1.9461 -1.3773  0.6079
 1963SOL    HW2 7851   0.892   0.560   0.915 -0.5090 -1.2206 -0.6667
 1963SOL     MW 7852   0.886   0.621   0.853  0.0969 -0.2567  0.1966
 1964SOL     OW 7853   2.571   1.201   2.122  0.2371 -0.0080  0.0047
 1964SOL    HW1 7854   2.614   1.203   2.207 -0.0015  1.5428  0.1230
 1964SOL    HW2 7855   2.546   1.110   2.110  1.9761 -0.6252  0.7115
 1964SOL     MW 7856   2.573   1.190   2.131  0.4292  0.1115  0.1104
 1965SOL     OW 7857   4.852   2.169   1.547 -0.0185 -0.4031 -0.1426
 1965SOL    HW1 7858   4.800   2.223   1.607  0.6592 -0.4959  0.5505
 1965SOL    HW2 7859   4.895   2.231   1.489  0.2590 -0.2336  0.2409
 1965SOL     MW 7860   4.851   2.184   1.547  0.1038 -0.3933 -0.0048
 1966SOL     OW 7861   0.563   3.056   4.273  0.3239 -0.4091 -0.0963
 1966SOL    HW1 7862   0.658   3.053   4.261  0.3811 -4.5792  0.0536
 1966SOL    HW2 7863   0.529   2.996   4.207 -2.1124 -0.0340  0.7381
 1966SOL     MW 7864   0.571   3.048   4.263  0.0193 -0.8949  0.0297
 1967SOL     OW 7865   0.296   2.464   4.069  0.4636  0.2330 -0.1795
 1967SOL    HW1 7866   0.380   2.444   4.027  1.1275  0.5322  0.9654
 1967SOL    HW2 7867   0.306   2.554   4.100  0.1871 -0.1402  1.0454
 1967SOL     MW 7868   0.308   2.473   4.067  0.5132  0.2236  0.1239
 1968SOL     OW 7869   3.945   0.693   4.012  0.2535  0.1620  0.2591
 1968SOL    HW1 7870   4.019   0.702   4.072 -0.1041 -0.6289  0.8268
 1968SOL    HW2 7871   3.931   0.599   4.004 -1.6114  0.3092  1.3102
 1968SOL     MW 7872   3.953   0.682   4.019 -0.0310  0.0796  0.4664
 1969SOL     OW 7873   2.947   0.723   3.498 -0.1765 -0.0085 -0.1923
 1969SOL    HW1 7874   2.899   0.643   3.475 -0.2468 -0.0916  0.2335
 1969SOL    HW2 7875   2.941   0.778   3.419 -3.9444  1.4659  0.8855
 1969SOL     MW 7876   2.940   0.719   3.485 -0.6678  0.1696  0.0002
 1970SOL     OW 7877   3.240   0.888   2.007 -0.0763 -0.4154 -0.1525
 1970SOL    HW1 7878   3.298   0.885   2.084  0.3939  1.4620 -0.3875
 1970SOL    HW2 7879   3.153   0.874   2.043  0.3557 -1.9682  0.3794
 1970SOL     MW 7880   3.237   0.886   2.022  0.0392 -0.3739 -0.1145
 1971SOL     OW 7881   0.212   1.291   4.474  0.4207 -0.3506 -0.0595
 1971SOL    HW1 7882   0.290   1.335   4.440 -0.8675  1.9027 -0.2967
 1971SOL    HW2 7883   0.236   1.266   4.563  1.7647 -0.6849 -0.4939
 1971SOL     MW 7884   0.225   1.294   4.481  0.4278 -0.1049 -0.1454
 1972SOL     OW 7885   0.948   1.320   5.315  0.4255  0.0262  0.0772
 1972SOL    HW1 7886   1.037   1.323   5.351 -0.1554  0.7967  1.5644
 1972SOL    HW2 7887   0.911   1.406   5.336  0.2952  0.9129 -3.2193
 1972SOL     MW 7888   0.955   1.332   5.323  0.3344  0.2384 -0.1544
 1973SOL     OW 7889   2.995   4.475   0.500 -0.6840 -0.1639 -0.2211
 1973SOL    HW1 7890   3.050   4.411   0.545 -1.2339  0.6296  1.6285
 1973SOL    HW2 7891   2.923   4.492   0.560 -0.2900  2.5982 -0.4288
 1973SOL     MW 7892   2.992   4.469   0.513 -0.7040  0.2913 -0.0109
 1974SOL     OW 7893   2.966   2.404   5.485  0.1825  0.2084 -0.0154
 1974SOL    HW1 7894   3.011   2.427   5.403  0.4669 -0.8439 -0.1670
 1974SOL    HW2 7895   2.926   2.319   5.468 -0.4503  0.3498  0.6825
 1974SOL     MW 7896   2.967   2.396   5.472  0.1379  0.0918  0.0545
 1975SOL     OW 7897   4.071   2.568   4.360  0.1225  0.3225 -0.3906
 1975SOL    HW1 7898   4.137   2.504   4.388 -0.4863 -0.0480  0.2283
 1975SOL    HW2 7899   4.088   2.645   4.414  0.1529  0.2879 -0.3513
 1975SOL     MW 7900   4.082   2.569   4.371  0.0485  0.2706 -0.3063
 1976SOL     OW 7901   4.558   0.327   0.371  0.1162 -0.0880 -0.0633
 1976SOL    HW1 7902   4.538   0.420   0.383 -2.4628 -0.1887 -2.5004
 1976SOL    HW2 7903   4.548   0.289   0.459  0.9752  1.8565  0.9253
 1976SOL     MW 7904   4.554   0.334   0.384 -0.1040  0.1480 -0.2487
 1977SOL     OW 7905   1.115   3.493   3.723  0.3758  0.2808 -0.3327
 1977SOL    HW1 7906   1.089   3.408   3.758 -1.2924  0.8649 -0.0254
 1977SOL    HW2 7907   1.175   3.529   3.788 -0.7926  0.3220  0.7691
 1977SOL     MW 7908   1.119   3.487   3.735  0.0126  0.3608 -0.1523
 1978SOL     OW 7909   1.580   3.941   3.462  0.1484  0.3228  0.1459
 1978SOL    HW1 7910   1.560   4.031   3.435  0.6833 -0.2079 -2.2935
 1978SOL    HW2 7911   1.497   3.906   3.494 -0.2841  1.3950  0.2328
 1978SOL     MW 7912   1.567   3.948   3.463  0.1615  0.3921 -0.1552
 1979SOL     OW 7913   1.108   3.147   1.598  0.9148 -0.0069 -0.1799
 1979SOL    HW1 7914   1.119   3.173   1.507  1.5025  1.7520  0.3546
 1979SOL    HW2 7915   1.173   3.078   1.612  2.3406  1.2108 -0.5439
 1979SOL     MW 7916   1.118   3.141   1.589  1.1725  0.3742 -0.1581
 1980SOL     OW 7917   2.552   2.707   5.287  0.1883  0.4456 -0.5655
 1980SOL    HW1 7918   2.548   2.678   5.196  0.6275 -1.6459  0.0398
 1980SOL    HW2 7919   2.628   2.766   5.290 -0.2738  1.1208 -1.6885
 1980SOL     MW 7920   2.561   2.711   5.276  0.1853  0.2643 -0.6318
 1981SOL     OW 7921   1.789   4.630   0.870  0.8561  0.6388 -0.0192
 1981SOL    HW1 7922   1.781   4.567   0.798 -1.9588  0.5826  0.2513
 1981SOL    HW2 7923   1.854   4.591   0.928  0.6286 -1.0410 -0.8328
 1981SOL     MW 7924   1.796   4.617   0.868  0.4667  0.4166 -0.0887
 1982SOL     OW 7925   2.701   4.222   3.104 -0.1198  0.2656  0.1171
 1982SOL    HW1 7926   2.747   4.306   3.097 -1.6358  1.0595 -1.2249
 1982SOL    HW2 7927   2.750   4.163   3.048 -0.2421  0.8785 -0.6618
 1982SOL     MW 7928   2.713   4.225   3.096 -0.3295  0.4457 -0.1544
 1983SOL     OW 7929   0.417   5.203   1.000  0.0105 -0.1328  0.2472
 1983SOL    HW1 7930   0.369   5.134   1.045 -0.4725  0.3708  0.5255
 1983SOL    HW2 7931   0.438   5.167   0.914 -0.5989 -0.4695  0.2359
 1983SOL     MW 7932   0.414   5.190   0.995 -0.1293 -0.1114  0.2814
 1984SOL     OW 7933   1.085   0.249   3.281  0.7801  0.3766  0.2398
 1984SOL    HW1 7934   1.172   0.278   3.308  0.8824 -0.1896  0.5431
 1984SOL    HW2 7935   1.025   0.299   3.336  0.9607 -0.1507  0.9327
 1984SOL     MW 7936   1.088   0.259   3.291  0.8163  0.2366  0.3673
 1985SOL     OW 7937   3.211   0.856   5.150 -0.3155 -0.0553  0.0897
 1985SOL    HW1 7938   3.147   0.829   5.215 -0.9963 -0.3595 -0.6904
 1985SOL    HW2 7939   3.211   0.786   5.085  1.5374 -0.5455  0.5578
 1985SOL     MW 7940   3.203   0.844   5.150 -0.1654 -0.1570  0.0498
 1986SOL     OW 7941   5.034   5.295   0.347 -0.2875 -0.1244 -0.2774
 1986SOL    HW1 7942   4.950   5.260   0.378 -1.0642  2.3105  0.6061
 1986SOL    HW2 7943   5.010   5.367   0.289  1.2337 -0.4763 -1.4183
 1986SOL     MW 7944   5.020   5.300   0.344 -0.1922  0.1423 -0.3103
 1987SOL     OW 7945   3.100   3.947   1.256 -0.3558  0.0964  0.3897
 1987SOL    HW1 7946   3.151   4.018   1.216  0.2789  0.1015  1.2002
 1987SOL    HW2 7947   3.080   3.888   1.183 -0.2431  0.7148 -0.1544
 1987SOL     MW 7948   3.104   3.949   1.241 -0.2601  0.1762  0.4238
 1988SOL     OW 7949   4.013   0.072   4.149  0.1546  0.1531 -0.0131
 1988SOL    HW1 7950   4.041   0.137   4.214  2.3168 -0.4955 -0.2159
 1988SOL    HW2 7951   3.967   0.006   4.201  0.9810  0.1416  0.7425
 1988SOL     MW 7952   4.011   0.072   4.164  0.5372  0.0686  0.0577
 1989SOL     OW 7953   3.290   3.581   0.521  0.5775  0.2637  0.5552
 1989SOL    HW1 7954   3.247   3.515   0.468  1.3494  0.8231 -0.8158
 1989SOL    HW2 7955   3.383   3.572   0.501  0.6958  1.7844  0.2611
 1989SOL     MW 7956   3.296   3.572   0.512  0.6914  0.5300  0.3420
 1990SOL     OW 7957   0.962   0.114   1.964 -0.2778  0.5971 -0.5683
 1990SOL    HW1 7958   1.047   0.137   1.929 -1.0029  0.0405 -2.8477
 1990SOL    HW2 7959   0.914   0.197   1.969  0.1107  0.7967 -0.0225
 1990SOL     MW 7960   0.967   0.127   1.960 -0.3209  0.5514 -0.7902
 1991SOL     OW 7961   1.983   2.437   3.450 -0.0804  0.1057 -0.0416
 1991SOL    HW1 7962   1.972   2.343   3.467  0.7831 -0.0295 -0.1833
 1991SOL    HW2 7963   1.995   2.476   3.537  1.8641 -0.2523 -0.0908
 1991SOL     MW 7964   1.983   2.430   3.463  0.2791  0.0426 -0.0660
 1992SOL     OW 7965  -0.024   3.966   4.635 -0.0273 -0.4948  0.3201
 1992SOL    HW1 7966   0.010   3.900   4.574  0.6598 -1.8913  2.1283
 1992SOL    HW2 7967   0.053   4.019   4.656 -0.6424  1.1970 -1.3856
 1992SOL     MW 7968  -0.010   3.964   4.630 -0.0181 -0.4570  0.3332
 1993SOL     OW 7969   4.686   3.328   1.575 -0.6703 -0.1748  0.0737
 1993SOL    HW1 7970   4.734   3.292   1.501  0.5841  2.5299 -0.5535
 1993SOL    HW2 7971   4.709   3.271   1.649  0.4662 -1.1431 -0.9982
 1993SOL     MW 7972   4.695   3.316   1.575 -0.3643  0.0475 -0.1438
 1994SOL     OW 7973   3.113   4.276   0.625  0.3241  0.1317  0.2024
 1994SOL    HW1 7974   3.042   4.225   0.662 -0.0570 -0.0286 -0.7282
 1994SOL    HW2 7975   3.178   4.283   0.696  0.3512 -1.5593  0.3706
 1994SOL     MW 7976   3.112   4.271   0.639  0.2788 -0.1053  0.1048
 1995SOL     OW 7977   2.995   1.403   4.787  0.2145  0.0038 -0.5744
 1995SOL    HW1 7978   3.053   1.379   4.859 -0.4521  1.7004  0.5988
 1995SOL    HW2 7979   2.951   1.322   4.763  0.1631 -0.5460  1.2206
 1995SOL     MW 7980   2.997   1.390   4.793  0.1226  0.1506 -0.1944
 1996SOL     OW 7981   3.180   2.829   0.342 -0.2456  0.3637  0.1646
 1996SOL    HW1 7982   3.142   2.748   0.374 -0.5017  0.6091  0.4799
 1996SOL    HW2 7983   3.105   2.881   0.314 -0.0078 -0.0231 -1.2657
 1996SOL     MW 7984   3.166   2.825   0.342 -0.2479  0.3456  0.0219
 1997SOL     OW 7985   0.185   3.898   4.968  0.2418 -0.0507  0.3669
 1997SOL    HW1 7986   0.250   3.868   5.032 -0.4009 -1.1982  0.5046
 1997SOL    HW2 7987   0.217   3.867   4.884 -0.2687 -0.8944  0.4725
 1997SOL     MW 7988   0.197   3.890   4.965  0.0942 -0.3056  0.3980
 1998SOL     OW 7989   2.007   2.891   4.339 -0.2847 -0.1783  0.1244
 1998SOL    HW1 7990   1.987   2.914   4.248  1.7791  0.1584 -0.2928
 1998SOL    HW2 7991   2.056   2.966   4.372  0.2324 -0.9108  1.0567
 1998SOL     MW 7992   2.010   2.903   4.332  0.0457 -0.2290  0.1903
 1999SOL     OW 7993   5.170   1.229   0.521  0.3413 -0.6206  0.2296
 1999SOL    HW1 7994   5.086   1.186   0.540 -0.5082  0.9179  0.0687
 1999SOL    HW2 7995   5.188   1.206   0.430 -1.3774  1.3048 -0.6760
 1999SOL     MW 7996   5.162   1.220   0.512  0.0125 -0.1772  0.0930
 2000SOL     OW 7997   5.206   3.770   4.960  0.0538 -0.0811  0.3486
 2000SOL    HW1 7998   5.271   3.701   4.948  1.3397  1.2206 -0.3581
 2000SOL    HW2 7999   5.254   3.843   4.996 -0.7613  1.3137 -1.2556
 2000SOL     MW 8000   5.220   3.770   4.963  0.1141  0.2641  0.0528
 2001SOL     OW 8001   3.731   1.870   2.101 -0.0193 -0.2675  0.6182
 2001SOL    HW1 8002   3.668   1.899   2.036 -0.5431  0.1884  1.3181
 2001SOL    HW2 8003   3.780   1.800   2.058  0.7499  1.0981 -0.8496
 2001SOL     MW 8004   3.729   1.865   2.087  0.0121 -0.0344  0.5199
 2002SOL     OW 8005   1.899   1.320   0.443 -0.1240  0.1859 -0.1225
 2002SOL    HW1 8006   1.851   1.260   0.386  0.7399  0.2102 -0.9063
 2002SOL    HW2 8007   1.833   1.378   0.479 -0.5831  0.7944 -1.8741
 2002SOL     MW 8008   1.885   1.320   0.440 -0.0722  0.2669 -0.4470
 2003SOL     OW 8009   0.425   5.359   1.668 -0.0717  0.5110 -0.5174
 2003SOL    HW1 8010   0.438   5.407   1.586  0.1512 -0.4196 -1.0391
 2003SOL    HW2 8011   0.512   5.355   1.708 -0.4993  2.7228  0.8008
 2003SOL     MW 8012   0.438   5.364   1.663 -0.0979  0.6750 -0.4155
 2004SOL     OW 8013   3.018   2.699   2.464 -0.9653  0.0146  0.0652
 2004SOL    HW1 8014   2.933   2.672   2.501 -1.6058 -0.5206 -1.6996
 2004SOL    HW2 8015   3.005   2.790   2.438 -0.5793  0.3263  0.9292
 2004SOL     MW 8016   3.005   2.707   2.466 -0.9979 -0.0140 -0.0501
 2005SOL     OW 8017   3.666   5.065   2.636 -0.3090  0.0646  0.4063
 2005SOL    HW1 8018   3.674   5.037   2.545 -2.3543  0.4815  0.0436
 2005SOL    HW2 8019   3.687   5.158   2.635 -0.8219  0.1803  0.2629
 2005SOL     MW 8020   3.669   5.073   2.624 -0.6365  0.1328  0.3416
 2006SOL     OW 8021   0.164   3.354   1.802 -0.1552 -0.0058 -0.1217
 2006SOL    HW1 8022   0.079   3.373   1.762  1.1061  1.3010 -2.3338
 2006SOL    HW2 8023   0.174   3.259   1.792 -1.2061 -0.1244 -0.1346
 2006SOL     MW 8024   0.154   3.344   1.796 -0.1283  0.1463 -0.4066
 2007SOL     OW 8025   3.204   1.786   4.510 -0.6965  0.3917  0.6854
 2007SOL    HW1 8026   3.210   1.702   4.465 -1.9841  0.6633 -0.0619
 2007SOL    HW2 8027   3.138   1.772   4.579 -0.9907  0.8049  0.4935
 2007SOL     MW 8028   3.196   1.774   4.513 -0.8990  0.4793  0.5652
 2008SOL     OW 8029   0.163   1.554   1.900 -0.2768 -0.7949 -0.2137
 2008SOL    HW1 8030   0.139   1.584   1.988 -0.3664 -0.8266 -0.2274
 2008SOL    HW2 8031   0.214   1.474   1.915  0.3787 -0.3739 -0.1522
 2008SOL     MW 8032   0.166   1.548   1.913 -0.2043 -0.7450 -0.2076
 2009SOL     OW 8033   4.121   3.454   4.368  0.1076 -0.0735 -0.0541
 2009SOL    HW1 8034   4.171   3.484   4.444  1.5852  0.3644 -1.1404
 2009SOL    HW2 8035   4.088   3.368   4.393 -1.1268  0.8753  1.7851
 2009SOL     MW 8036   4.123   3.447   4.381  0.1388  0.1040  0.0422
 2010SOL     OW 8037   2.846   3.004   1.895  0.0507 -0.0014 -0.4371
 2010SOL    HW1 8038   2.875   3.095   1.889 -0.5399  0.2041 -0.1881
 2010SOL    HW2 8039   2.927   2.954   1.909  0.2709  0.5963  0.5287
 2010SOL     MW 8040   2.860   3.009   1.896  0.0032  0.1014 -0.2816
 2011SOL     OW 8041   3.272   0.200   0.069  0.0409 -0.0057  0.3319
 2011SOL    HW1 8042   3.365   0.223   0.069 -0.2397  1.2447  1.1062
 2011SOL    HW2 8043   3.264   0.130   0.005  1.6001 -0.4770  0.6288
 2011SOL     MW 8044   3.282   0.194   0.060  0.2046  0.0940  0.4690
 2012SOL     OW 8045   2.820   4.889   3.162 -0.2691 -0.3434 -0.2344
 2012SOL    HW1 8046   2.897   4.846   3.124  0.3628  0.0542  0.5744
 2012SOL    HW2 8047   2.794   4.833   3.235 -0.4007 -0.1715 -0.1481
 2012SOL     MW 8048   2.827   4.876   3.166 -0.2051 -0.2705 -0.1198
 2013SOL     OW 8049   5.453   5.404   4.307 -0.4733 -0.1573 -0.4861
 2013SOL    HW1 8050   5.388   5.387   4.239 -0.2516  0.0594 -0.7553
 2013SOL    HW2 8051   5.403   5.441   4.380 -0.6588 -0.0299 -0.6768
 2013SOL     MW 8052   5.439   5.407   4.308 -0.4687 -0.1133 -0.5450
 2014SOL     OW 8053   2.759   1.294   5.001 -0.0914  0.0124 -0.3216
 2014SOL    HW1 8054   2.836   1.286   5.058  0.7145  0.1811 -1.3652
 2014SOL    HW2 8055   2.728   1.383   5.016  1.9781  1.1820 -2.3968
 2014SOL     MW 8056   2.765   1.304   5.011  0.2767  0.1838 -0.7209
 2015SOL     OW 8057   1.949   4.907   0.138 -0.1487 -0.2857 -0.4296
 2015SOL    HW1 8058   1.913   4.988   0.103 -3.2042 -0.4999  1.7860
 2015SOL    HW2 8059   1.968   4.853   0.060  0.0714  1.7575 -1.8604
 2015SOL     MW 8060   1.947   4.910   0.123 -0.5117 -0.0516 -0.3291
 2016SOL     OW 8061   3.887   3.285   1.163  0.2695 -0.0605 -0.6118
 2016SOL    HW1 8062   3.938   3.346   1.216 -0.3106  1.1373 -1.3906
 2016SOL    HW2 8063   3.943   3.208   1.155  0.4145 -0.2537  1.6108
 2016SOL     MW 8064   3.901   3.283   1.169  0.2138  0.0681 -0.4270
 2017SOL     OW 8065   1.815   0.522   0.616 -0.3525 -0.0604  0.5837
 2017SOL    HW1 8066   1.786   0.438   0.581  2.2499 -0.5745 -0.5879
 2017SOL    HW2 8067   1.885   0.500   0.677 -0.6934  1.1952  1.4555
 2017SOL     MW 8068   1.820   0.509   0.619 -0.0630  0.0345  0.5453
 2018SOL     OW 8069   3.764   1.478   4.921  0.8799 -0.0274 -0.0328
 2018SOL    HW1 8070   3.729   1.390   4.935 -1.7914  1.0195  0.5799
 2018SOL    HW2 8071   3.777   1.484   4.826  0.1973 -0.7977 -0.1873
 2018SOL     MW 8072   3.761   1.468   4.911  0.4506  0.0080  0.0259
 2019SOL     OW 8073   3.172   1.403   0.003 -0.2610 -0.3160  0.4557
 2019SOL    HW1 8074   3.185   1.489  -0.037 -0.9776 -0.6101 -0.4158
 2019SOL    HW2 8075   3.162   1.422   0.097  0.5429  0.4531  0.3975
 2019SOL     MW 8076   3.173   1.416   0.010 -0.2498 -0.2552  0.3367
 2020SOL     OW 8077   4.093   3.405   2.247 -0.0354 -0.5962 -0.4121
 2020SOL    HW1 8078   4.112   3.496   2.225 -0.2406 -0.0502  1.5356
 2020SOL    HW2 8079   4.037   3.374   2.175 -1.3244  1.3239 -0.2970
 2020SOL     MW 8080   4.088   3.412   2.235 -0.2267 -0.2805 -0.1481
 2021SOL     OW 8081   4.117   0.304   4.239  0.0805 -0.6240 -0.4100
 2021SOL    HW1 8082   4.138   0.333   4.150  2.2333  1.1372  0.5707
 2021SOL    HW2 8083   4.047   0.362   4.267 -0.3281 -0.9210 -0.7974
 2021SOL     MW 8084   4.111   0.315   4.231  0.3038 -0.4366 -0.3341
 2022SOL     OW 8085   5.319   5.130   4.773 -0.2558  0.3140 -0.0242
 2022SOL    HW1 8086   5.299   5.121   4.866  1.3576  0.6859  0.3921
 2022SOL    HW2 8087   5.410   5.158   4.771 -0.2320  0.2131 -1.7303
 2022SOL     MW 8088   5.328   5.132   4.785 -0.0462  0.3487 -0.1893
 2023SOL     OW 8089   5.049   1.288   1.959  0.6322 -0.4544 -0.0252
 2023SOL    HW1 8090   5.119   1.350   1.980  0.5073 -1.0035  2.2513
 2023SOL    HW2 8091   4.968   1.335   1.976  0.5052 -0.7437  0.1822
 2023SOL     MW 8092   5.048   1.302   1.964  0.6000 -0.5617  0.2928
 2024SOL     OW 8093   2.967   2.292   0.891  0.3050 -0.5082  0.3960
 2024SOL    HW1 8094   2.998   2.278   0.801  0.0680  0.4878  0.1546
 2024SOL    HW2 8095   2.984   2.384   0.909  1.9921 -1.0628  2.0143
 2024SOL     MW 8096   2.974   2.302   0.882  0.4906 -0.4517  0.5722
 2025SOL     OW 8097   4.962   4.286   4.619  0.2861 -0.0162 -0.2246
 2025SOL    HW1 8098   4.880   4.249   4.588  1.1748 -0.7958 -1.7327
 2025SOL    HW2 8099   4.938   4.337   4.696 -1.6374 -0.0259 -0.7863
 2025SOL     MW 8100   4.949   4.288   4.625  0.1536 -0.1172 -0.4896
 2026SOL     OW 8101   1.089   3.638   0.055 -0.2726  0.1387 -0.0869
 2026SOL    HW1 8102   1.031   3.662  -0.018  0.9686  1.1430 -0.7773
 2026SOL    HW2 8103   1.137   3.718   0.076 -0.6319 -0.1084  1.9017
 2026SOL     MW 8104   1.088   3.651   0.048 -0.1597  0.2357  0.0793
 2027SOL     OW 8105   2.691   3.790   0.986  0.0481  0.2877  0.2747
 2027SOL    HW1 8106   2.741   3.734   1.046  0.1104  0.1453  0.0897
 2027SOL    HW2 8107   2.744   3.794   0.907 -0.0600  0.4344  0.2084
 2027SOL     MW 8108   2.704   3.783   0.984  0.0422  0.2882  0.2425
 2028SOL     OW 8109   2.258   2.721   2.911 -0.1840 -0.1421  0.6749
 2028SOL    HW1 8110   2.198   2.665   2.960 -0.2385 -1.4301 -0.8004
 2028SOL    HW2 8111   2.318   2.660   2.868 -0.1125  0.9345 -0.8146
 2028SOL     MW 8112   2.258   2.706   2.912 -0.1819 -0.1691  0.2954
 2029SOL     OW 8113   4.673   1.553   3.405 -0.1256  0.5698  0.3600
 2029SOL    HW1 8114   4.621   1.527   3.329  3.8284 -1.8737 -1.8758
 2029SOL    HW2 8115   4.703   1.641   3.385  1.0393 -0.1266 -1.1248
 2029SOL     MW 8116   4.670   1.561   3.393  0.5297  0.1679 -0.1163
 2030SOL     OW 8117   4.025   2.827   4.774 -0.3212 -0.5666 -0.0277
 2030SOL    HW1 8118   3.949   2.885   4.779 -0.4455 -0.7827  0.7031
 2030SOL    HW2 8119   4.079   2.864   4.704 -1.5314 -0.9222 -1.2092
 2030SOL     MW 8120   4.022   2.839   4.765 -0.4921 -0.6398 -0.0854
 2031SOL     OW 8121   4.933   0.580   1.483  0.4181  0.1961 -0.5698
 2031SOL    HW1 8122   4.912   0.662   1.439 -2.1950  0.5368  1.1315
 2031SOL    HW2 8123   4.989   0.605   1.556 -1.0998  0.6509  0.4782
 2031SOL     MW 8124   4.938   0.594   1.487 -0.1107  0.2980 -0.2179
 2032SOL     OW 8125   2.676   2.058   0.582 -0.1300 -0.4324  0.3649
 2032SOL    HW1 8126   2.705   2.087   0.668 -1.1597 -1.1581  0.9708
 2032SOL    HW2 8127   2.702   2.129   0.523  0.8295 -0.0501  1.2152
 2032SOL     MW 8128   2.683   2.071   0.585 -0.1390 -0.4764  0.5513
 2033SOL     OW 8129   5.140   0.700   3.758  0.2014 -0.1980 -0.0431
 2033SOL    HW1 8130   5.107   0.751   3.684  1.2327  0.1087 -0.3155
 2033SOL    HW2 8131   5.183   0.764   3.814  1.2872 -0.7198 -0.2570
 2033SOL     MW 8132   5.141   0.715   3.755  0.4725 -0.2255 -0.1054
 2034SOL     OW 8133   2.726   3.383   0.155  0.0428  0.2272 -0.5216
 2034SOL    HW1 8134   2.724   3.437   0.234 -0.8848 -0.5008 -0.0273
 2034SOL    HW2 8135   2.651   3.413   0.103 -0.8086 -0.9098  0.0045
 2034SOL     MW 8136   2.716   3.394   0.158 -0.1850 -0.0116 -0.3910
 2035SOL     OW 8137   0.838   5.344   5.020  0.3620  0.3155  0.3474
 2035SOL    HW1 8138   0.805   5.406   5.086  0.5640  0.9540 -0.1412
 2035SOL    HW2 8139   0.863   5.400   4.946 -3.1634 -0.5725 -1.7504
 2035SOL     MW 8140   0.837   5.359   5.019 -0.0634  0.2835  0.0163
 2036SOL     OW 8141   3.308   2.849   4.261  0.3992 -0.4923 -0.3335
 2036SOL    HW1 8142   3.236   2.898   4.221  0.8316 -0.2608 -0.8352
 2036SOL    HW2 8143   3.337   2.905   4.333 -0.0858 -0.7058  0.0369
 2036SOL     MW 8144   3.302   2.863   4.265  0.3925 -0.4900 -0.3503
 2037SOL     OW 8145   1.611   3.211   5.456 -0.5258 -0.4140  0.2296
 2037SOL    HW1 8146   1.640   3.165   5.534 -1.5628 -1.0729  0.2569
 2037SOL    HW2 8147   1.673   3.282   5.445  0.9894 -1.6630  0.3425
 2037SOL     MW 8148   1.622   3.214   5.464 -0.4646 -0.6582  0.2475
 2038SOL     OW 8149   1.982   3.041   5.146  0.1887  0.2876 -0.9420
 2038SOL    HW1 8150   2.026   3.061   5.064 -0.1074 -1.5547 -1.6028
 2038SOL    HW2 8151   2.036   2.973   5.186  0.0095  0.7472  0.1150
 2038SOL     MW 8152   1.995   3.034   5.141  0.1279  0.1106 -0.8913
 2039SOL     OW 8153   1.408   5.404   1.940 -0.0469  0.9148  0.0450
 2039SOL    HW1 8154   1.321   5.369   1.955  0.6339 -1.1079 -0.4533
 2039SOL    HW2 8155   1.413   5.417   1.845 -0.1361  2.0189  0.1756
 2039SOL     MW 8156   1.398   5.401   1.929  0.0288  0.7972 -0.0021
 2040SOL     OW 8157   2.687   3.053   2.547  0.0028  0.4169 -0.2675
 2040SOL    HW1 8158   2.663   3.008   2.466 -1.3374  0.0336  0.3274
 2040SOL    HW2 8159   2.729   2.986   2.601  1.6222  0.8525 -0.9087
 2040SOL     MW 8160   2.689   3.039   2.543  0.0386  0.4236 -0.2734
 2041SOL     OW 8161   4.900   1.313   2.317 -0.1314 -0.1569  0.2415
 2041SOL    HW1 8162   4.896   1.333   2.224  0.9866  1.0383  0.4105
 2041SOL    HW2 8163   4.948   1.387   2.355  1.1015 -1.5095  1.4734
 2041SOL     MW 8164   4.906   1.325   2.310  0.1695 -0.1770  0.4208
 2042SOL     OW 8165   2.929   5.132   5.220  0.3132  0.0911 -0.2391
 2042SOL    HW1 8166   2.935   5.122   5.315  1.8490 -2.0121 -0.4780
 2042SOL    HW2 8167   2.835   5.127   5.201  0.0081  0.1893  1.1388
 2042SOL     MW 8168   2.918   5.130   5.230  0.4707 -0.1656 -0.0933
 2043SOL     OW 8169   3.274   4.078   2.885  0.3607 -0.0404 -0.3569
 2043SOL    HW1 8170   3.292   4.172   2.891 -0.0150  0.1891 -2.2004
 2043SOL    HW2 8171   3.357   4.036   2.907 -0.0061  0.6008  2.6328
 2043SOL     MW 8172   3.287   4.085   2.888  0.2657  0.0711 -0.2102
 2044SOL     OW 8173   5.079   1.580   4.808  0.1898  0.1317 -0.3331
 2044SOL    HW1 8174   4.990   1.573   4.775  0.2185  1.3866 -0.7140
 2044SOL    HW2 8175   5.087   1.671   4.836  1.3605  0.0324 -0.3162
 2044SOL     MW 8176   5.069   1.591   4.808  0.3433  0.2797 -0.3797
 2045SOL     OW 8177   4.401   0.762   1.356  0.0469 -0.2557 -0.0177
 2045SOL    HW1 8178   4.404   0.715   1.440  0.1181 -2.1361 -1.0095
 2045SOL    HW2 8179   4.484   0.739   1.314  0.3004  1.2130 -0.3476
 2045SOL     MW 8180   4.412   0.753   1.362  0.0885 -0.3084 -0.1869
 2046SOL     OW 8181   4.593   2.705   4.582  0.6527 -0.2528  0.2373
 2046SOL    HW1 8182   4.560   2.734   4.667  0.0595 -1.6927  0.5246
 2046SOL    HW2 8183   4.520   2.720   4.521  1.6635  2.4813 -0.4639
 2046SOL     MW 8184   4.580   2.711   4.585  0.7062 -0.0872  0.1843
 2047SOL     OW 8185   1.051   2.165   0.878  0.6019  0.6254  0.0537
 2047SOL    HW1 8186   1.033   2.231   0.945  0.9302 -0.3620  1.1493
 2047SOL    HW2 8187   0.995   2.091   0.901  0.0448  0.6100 -1.3116
 2047SOL     MW 8188   1.042   2.164   0.890  0.5726  0.4970  0.0192
 2048SOL     OW 8189   2.443   5.314   3.906 -0.0605  0.0595 -0.1090
 2048SOL    HW1 8190   2.397   5.264   3.973  0.8473  0.4268  0.8145
 2048SOL    HW2 8191   2.397   5.294   3.825 -1.4381 -0.0823  0.6816
 2048SOL     MW 8192   2.431   5.305   3.904 -0.1207  0.0884  0.1104
 2049SOL     OW 8193   0.614   1.206   0.101  0.0894  0.6219 -0.1276
 2049SOL    HW1 8194   0.612   1.296   0.135 -1.1001  2.1339 -3.6382
 2049SOL    HW2 8195   0.704   1.194   0.073  0.7489 -0.1390  2.1265
 2049SOL     MW 8196   0.625   1.216   0.102  0.0215  0.7181 -0.2885
 2050SOL     OW 8197   4.601   4.290   4.312 -0.6679  0.0298  0.0404
 2050SOL    HW1 8198   4.632   4.277   4.222 -0.1035 -1.2633  0.4014
 2050SOL    HW2 8199   4.573   4.382   4.314 -0.8768  0.0323 -1.5066
 2050SOL     MW 8200   4.601   4.300   4.301 -0.6224 -0.1354 -0.1114
 2051SOL     OW 8201   1.266   3.803   4.935  0.1796  0.0890 -0.2994
 2051SOL    HW1 8202   1.174   3.815   4.958  0.3593 -0.0490  0.5283
 2051SOL    HW2 8203   1.298   3.736   4.996  0.4067 -1.1353 -1.7003
 2051SOL     MW 8204   1.259   3.796   4.946  0.2317 -0.0854 -0.3727
 2052SOL     OW 8205   0.190   0.693   0.355 -0.4714 -0.0289  0.1279
 2052SOL    HW1 8206   0.109   0.700   0.405 -0.4335  3.4613 -0.0713
 2052SOL    HW2 8207   0.164   0.711   0.265  0.4787  0.9224  0.0255
 2052SOL     MW 8208   0.177   0.696   0.350 -0.3449  0.5397  0.0893
 2053SOL     OW 8209   2.882   2.049   2.983  0.2644 -0.1945  0.2078
 2053SOL    HW1 8210   2.914   2.083   2.899 -0.6059  0.2474  0.0373
 2053SOL    HW2 8211   2.922   1.963   2.991  0.4165 -0.2113 -0.6362
 2053SOL     MW 8212   2.891   2.043   2.973  0.1724 -0.1401  0.0779
 2054SOL     OW 8213   3.276   5.072   1.698 -0.2456  0.2961 -0.4025
 2054SOL    HW1 8214   3.265   5.037   1.787  0.9108 -1.0392 -0.7443
 2054SOL    HW2 8215   3.262   5.166   1.707 -0.5047  0.1348  1.1295
 2054SOL     MW 8216   3.273   5.080   1.711 -0.1307  0.1045 -0.2501
 2055SOL     OW 8217   0.910   0.690   4.583 -0.1561  0.1063 -0.1319
 2055SOL    HW1 8218   0.944   0.643   4.659  1.6865  0.4816 -0.6829
 2055SOL    HW2 8219   0.975   0.757   4.565 -1.3108  0.9987 -1.1408
 2055SOL     MW 8220   0.922   0.692   4.590 -0.0681  0.2686 -0.3316
 2056SOL     OW 8221   3.474   3.427   5.037 -0.2548  0.2332  0.0271
 2056SOL    HW1 8222   3.424   3.352   5.072  1.8106 -0.7189  1.1259
 2056SOL    HW2 8223   3.502   3.398   4.951  0.6672 -0.3595  0.5100
 2056SOL     MW 8224   3.471   3.413   5.031  0.1276  0.0355  0.2295
 2057SOL     OW 8225   2.562   4.682   4.232  0.1120  0.7061 -0.1758
 2057SOL    HW1 8226   2.486   4.633   4.200  0.0825  0.2544  0.5693
 2057SOL    HW2 8227   2.537   4.708   4.321  0.7565  0.7171  0.0028
 2057SOL     MW 8228   2.549   4.679   4.239  0.1907  0.6497 -0.0575
 2058SOL     OW 8229   1.371   0.661   2.055  0.3567  0.5245  0.9988
 2058SOL    HW1 8230   1.437   0.716   2.014  0.1241  0.2714  0.2687
 2058SOL    HW2 8231   1.402   0.648   2.144  0.1509  2.2840  1.3692
 2058SOL     MW 8232   1.383   0.667   2.061  0.3006  0.7174  0.9528
 2059SOL     OW 8233   3.321   3.903   0.758 -0.2563  0.0221 -0.1954
 2059SOL    HW1 8234   3.383   3.974   0.742  0.5685 -0.8547 -1.0598
 2059SOL    HW2 8235   3.323   3.891   0.853  2.1051 -0.9892 -0.3025
 2059SOL     MW 8236   3.329   3.911   0.768  0.1516 -0.2196 -0.3197
 2060SOL     OW 8237   0.359   0.802   0.662  0.4895  0.3089  0.4430
 2060SOL    HW1 8238   0.343   0.884   0.615  0.8579 -0.8311 -1.7859
 2060SOL    HW2 8239   0.273   0.759   0.665  0.8010 -0.4896 -1.0083
 2060SOL     MW 8240   0.346   0.807   0.656  0.5765  0.0608 -0.0281
 2061SOL     OW 8241   4.203   4.471   4.229 -0.0846 -0.4111 -0.1546
 2061SOL    HW1 8242   4.181   4.381   4.206  0.3022 -0.5053 -0.1545
 2061SOL    HW2 8243   4.171   4.481   4.319 -1.3461 -0.1272 -0.6120
 2061SOL     MW 8244   4.196   4.461   4.237 -0.1966 -0.3868 -0.2132
 2062SOL     OW 8245   1.384   3.422   4.717 -0.3367 -0.5943  0.3605
 2062SOL    HW1 8246   1.294   3.425   4.683 -0.3750 -1.8830  0.3190
 2062SOL    HW2 8247   1.394   3.333   4.750  1.0994 -0.6037 -0.0627
 2062SOL     MW 8248   1.374   3.411   4.717 -0.1577 -0.7605  0.3010
 2063SOL     OW 8249   2.216   3.837   0.153  0.5116  0.1984 -0.0518
 2063SOL    HW1 8250   2.302   3.878   0.150  0.9686 -0.7345 -0.0327
 2063SOL    HW2 8251   2.214   3.791   0.237 -0.8281  1.9205  0.9289
 2063SOL     MW 8252   2.226   3.836   0.164  0.3986  0.2994  0.0762
 2064SOL     OW 8253   0.930   5.470   0.732  0.1355  0.0210  0.4620
 2064SOL    HW1 8254   0.870   5.457   0.658  0.8505  0.8187 -0.2751
 2064SOL    HW2 8255   0.975   5.386   0.741 -1.1799 -0.6590  1.1465
 2064SOL     MW 8256   0.928   5.457   0.724  0.0586  0.0361  0.4553
 2065SOL     OW 8257   1.908   3.165   4.482  0.0935 -0.1245 -0.0296
 2065SOL    HW1 8258   1.909   3.224   4.406  1.4674  0.2604  0.2615
 2065SOL    HW2 8259   1.998   3.168   4.516 -0.3571 -0.7405  1.2736
 2065SOL     MW 8260   1.920   3.173   4.477  0.2117 -0.1541  0.1745
 2066SOL     OW 8261   3.743   0.794   4.395  0.3344  0.2031 -0.4820
 2066SOL    HW1 8262   3.674   0.765   4.336  1.3726 -0.9695 -1.1738
 2066SOL    HW2 8263   3.799   0.849   4.341 -0.5973  2.0327  0.3474
 2066SOL     MW 8264   3.741   0.797   4.380  0.3480  0.2872 -0.4644
 2067SOL     OW 8265   1.274   4.368   4.249  0.0591  0.2937  0.6258
 2067SOL    HW1 8266   1.287   4.280   4.283  0.8107 -0.3299 -1.1739
 2067SOL    HW2 8267   1.344   4.381   4.185 -1.7726  0.9920 -1.4042
 2067SOL     MW 8268   1.284   4.359   4.245 -0.0792  0.3032  0.1355
 2068SOL     OW 8269   0.316   4.867   4.107 -0.0737 -0.1416  0.2862
 2068SOL    HW1 8270   0.394   4.921   4.116 -1.4962  1.7856  2.1938
 2068SOL    HW2 8271   0.313   4.816   4.188 -0.3491 -0.8454 -0.1601
 2068SOL     MW 8272   0.325   4.868   4.118 -0.2911  0.0150  0.4732
 2069SOL     OW 8273   4.091   2.645   4.096 -0.0595  0.0026 -0.0031
 2069SOL    HW1 8274   4.122   2.575   4.039 -0.6431 -1.3007  1.2058
 2069SOL    HW2 8275   4.084   2.604   4.183  0.4837  1.8162  0.9548
 2069SOL     MW 8276   4.094   2.631   4.100 -0.0647  0.0680  0.2743
 2070SOL     OW 8277   5.130   2.524   1.494  0.3143  0.2714  0.1925
 2070SOL    HW1 8278   5.073   2.462   1.448 -2.9273  3.4781 -0.5596
 2070SOL    HW2 8279   5.202   2.539   1.433  0.0279 -1.0884 -0.5291
 2070SOL     MW 8280   5.132   2.518   1.480 -0.1373  0.5078  0.0038
 2071SOL     OW 8281   4.377   3.173   2.028  0.4354  0.0584  0.1480
 2071SOL    HW1 8282   4.432   3.251   2.023  2.1421 -0.9688  1.5657
 2071SOL    HW2 8283   4.430   3.104   1.988 -0.8946 -0.4893 -0.7555
 2071SOL     MW 8284   4.391   3.174   2.022  0.4836 -0.1432  0.2139
 2072SOL     OW 8285   3.500   5.503   5.218  0.3376  0.9674  0.4165
 2072SOL    HW1 8286   3.593   5.503   5.240  0.6399 -0.3443 -0.7279
 2072SOL    HW2 8287   3.495   5.452   5.137 -1.7084 -1.3883  1.9011
 2072SOL     MW 8288   3.512   5.497   5.210  0.1144  0.4979  0.4601
 2073SOL     OW 8289   0.561   0.245   2.546  0.2270  0.1333  0.2185
 2073SOL    HW1 8290   0.577   0.214   2.635  0.4131  1.1289  0.5466
 2073SOL    HW2 8291   0.647   0.249   2.505  0.0111 -1.7740 -0.5382
 2073SOL     MW 8292   0.574   0.242   2.552  0.2231  0.0166  0.1636
 2074SOL     OW 8293   3.835   1.852   1.063  0.0105  0.3781  0.1400
 2074SOL    HW1 8294   3.761   1.907   1.092  0.1097  1.0038 -0.7599
 2074SOL    HW2 8295   3.901   1.915   1.032  0.0931 -0.2460 -1.0011
 2074SOL     MW 8296   3.834   1.867   1.063  0.0338  0.3783 -0.1213
 2075SOL     OW 8297   0.969   2.417   4.564  0.5206 -0.5010  0.5682
 2075SOL    HW1 8298   1.025   2.344   4.539 -0.1548 -0.9653  0.3920
 2075SOL    HW2 8299   1.028   2.480   4.605  1.2161 -0.8484  0.1082
 2075SOL     MW 8300   0.983   2.416   4.566  0.5232 -0.6049  0.4868
 2076SOL     OW 8301   2.227   2.804   2.066  0.4889 -0.1072  0.1776
 2076SOL    HW1 8302   2.271   2.769   2.144 -0.6888 -0.1456  0.8597
 2076SOL    HW2 8303   2.155   2.858   2.102 -0.9825 -1.2970 -0.8547
 2076SOL     MW 8304   2.223   2.807   2.081  0.1498 -0.2644  0.1328
 2077SOL     OW 8305   3.672   3.245   0.508 -0.2391  0.6510  0.4128
 2077SOL    HW1 8306   3.658   3.221   0.417 -0.1156  0.0183  0.5583
 2077SOL    HW2 8307   3.617   3.185   0.558 -1.0348  1.6013  0.7157
 2077SOL     MW 8308   3.663   3.234   0.503 -0.3252  0.6916  0.4702
 2078SOL     OW 8309   0.702   1.723   0.104  0.1474 -0.3535  0.1163
 2078SOL    HW1 8310   0.697   1.796   0.165 -2.0883 -0.4792  0.1745
 2078SOL    HW2 8311   0.616   1.721   0.062  0.9618 -1.5046 -1.5973
 2078SOL     MW 8312   0.691   1.732   0.106 -0.0346 -0.5169 -0.0956
 2079SOL     OW 8313   0.112   3.006   0.565  0.1140 -0.4859  0.4634
 2079SOL    HW1 8314   0.172   2.976   0.496 -0.9155  1.0123 -1.1859
 2079SOL    HW2 8315   0.164   3.003   0.645  2.1440 -0.0654 -0.7521
 2079SOL     MW 8316   0.126   3.002   0.566  0.2421 -0.2403  0.0967
 2080SOL     OW 8317   3.157   4.707   0.859  0.3211 -0.5066  0.1740
 2080SOL    HW1 8318   3.109   4.781   0.821 -1.1301 -1.5325 -0.0668
 2080SOL    HW2 8319   3.248   4.724   0.837  0.6398  3.1009  3.2205
 2080SOL     MW 8320   3.162   4.719   0.851  0.1761 -0.1762  0.5331
 2081SOL     OW 8321   1.942   4.484   1.037 -0.5785  0.1417 -0.1598
 2081SOL    HW1 8322   2.027   4.526   1.051 -0.5552 -0.3780  1.5162
 2081SOL    HW2 8323   1.960   4.411   0.978 -0.2019  1.0450 -1.2072
 2081SOL     MW 8324   1.955   4.480   1.031 -0.5273  0.1908 -0.0793
 2082SOL     OW 8325   5.369   5.047   2.536 -0.1443  0.7372 -0.4520
 2082SOL    HW1 8326   5.385   5.069   2.444  2.7802  0.2844 -0.1445
 2082SOL    HW2 8327   5.348   5.130   2.578 -0.1158  1.1680 -1.2786
 2082SOL     MW 8328   5.368   5.060   2.530  0.2338  0.7344 -0.5185
 2083SOL     OW 8329   5.312   5.415   3.817  0.2075  0.0328  0.5438
 2083SOL    HW1 8330   5.379   5.421   3.749 -1.6440  2.4228 -1.2545
 2083SOL    HW2 8331   5.327   5.491   3.873 -0.2514 -0.1298  0.8983
 2083SOL     MW 8332   5.322   5.425   3.816 -0.0883  0.3180  0.3589
 2084SOL     OW 8333   1.339   0.132   3.937  0.4503 -1.0367  0.3467
 2084SOL    HW1 8334   1.249   0.130   3.972 -0.1363  2.6780 -0.4953
 2084SOL    HW2 8335   1.358   0.041   3.916 -2.0655 -2.3812  3.0516
 2084SOL     MW 8336   1.330   0.120   3.939  0.0531 -0.7333  0.5852
 2085SOL     OW 8337   3.208   3.866   3.223 -0.2986  0.1350  0.2474
 2085SOL    HW1 8338   3.233   3.958   3.216  0.4421 -0.0488  0.3923
 2085SOL    HW2 8339   3.206   3.849   3.317 -1.4555  0.2612  0.2662
 2085SOL     MW 8340   3.211   3.876   3.234 -0.3519  0.1277  0.2683
 2086SOL     OW 8341   0.353   4.648   3.421 -0.5675 -0.1668  0.0675
 2086SOL    HW1 8342   0.430   4.622   3.370  0.4376  2.9612 -0.2173
 2086SOL    HW2 8343   0.345   4.580   3.489  2.4505 -0.5885  0.1330
 2086SOL     MW 8344   0.362   4.636   3.423 -0.0525  0.1796  0.0395
 2087SOL     OW 8345   0.080   2.669   3.181 -0.0147  0.0225 -0.4523
 2087SOL    HW1 8346   0.154   2.627   3.223  0.8914  2.1152  0.2007
 2087SOL    HW2 8347   0.012   2.672   3.248  0.3358  0.6094 -0.1158
 2087SOL     MW 8348   0.081   2.664   3.195  0.1461  0.3655 -0.3256
 2088SOL     OW 8349   2.634   1.245   2.911 -0.5543 -0.4092  0.6379
 2088SOL    HW1 8350   2.642   1.150   2.915  0.8401 -0.3035  1.1741
 2088SOL    HW2 8351   2.547   1.264   2.946 -0.5342 -1.4569  1.2977
 2088SOL     MW 8352   2.624   1.235   2.916 -0.3733 -0.5298  0.7910
 2089SOL     OW 8353   4.071   1.409   2.057  0.4541 -0.1192 -0.0229
 2089SOL    HW1 8354   4.020   1.349   2.112 -0.9162  2.3448  1.5847
 2089SOL    HW2 8355   4.101   1.477   2.117  2.1211  0.7301 -1.7164
 2089SOL     MW 8356   4.068   1.410   2.072  0.4921  0.3049 -0.0339
 2090SOL     OW 8357   0.467   1.574   1.554  0.0316  1.0617  0.1500
 2090SOL    HW1 8358   0.441   1.547   1.466 -1.2840  2.3382  0.0970
 2090SOL    HW2 8359   0.557   1.605   1.545  0.5451 -0.5112 -0.3480
 2090SOL     MW 8360   0.475   1.575   1.542 -0.0711  1.0237  0.0795
 2091SOL     OW 8361   1.282   4.078   2.463 -0.6195  0.0731  0.4371
 2091SOL    HW1 8362   1.252   4.035   2.383 -2.6830 -1.9513  2.1980
 2091SOL    HW2 8363   1.213   4.141   2.485 -0.0091  0.7090  0.6003
 2091SOL     MW 8364   1.269   4.081   2.456 -0.8055 -0.1047  0.6834
 2092SOL     OW 8365   3.199   3.717   3.743 -0.7855 -0.1784 -0.2133
 2092SOL    HW1 8366   3.127   3.742   3.800 -1.4790  0.4172 -1.3080
 2092SOL    HW2 8367   3.228   3.632   3.776  0.2796  1.0750  2.3274
 2092SOL     MW 8368   3.193   3.709   3.755 -0.7380  0.0583 -0.0282
 2093SOL     OW 8369   3.319   1.323   1.920  0.4355 -0.7564 -0.1496
 2093SOL    HW1 8370   3.292   1.410   1.889  1.8855  0.7032  2.3215
 2093SOL    HW2 8371   3.373   1.288   1.849 -0.1228  0.3743 -1.1753
 2093SOL     MW 8372   3.322   1.330   1.907  0.5496 -0.4248  0.0355
 2094SOL     OW 8373   4.646   3.722   3.966 -0.5003  0.2223 -0.0224
 2094SOL    HW1 8374   4.595   3.732   3.886 -0.3414 -0.0728 -0.1617
 2094SOL    HW2 8375   4.699   3.644   3.952  0.5218  0.9190 -0.1734
 2094SOL     MW 8376   4.646   3.714   3.954 -0.3491  0.2737 -0.0596
 2095SOL     OW 8377   4.616   4.674   3.996  0.2801 -0.0748  0.2455
 2095SOL    HW1 8378   4.542   4.671   4.057 -0.5569  0.9398 -0.6739
 2095SOL    HW2 8379   4.653   4.761   4.008  0.7357 -0.2359  0.0149
 2095SOL     MW 8380   4.611   4.685   4.005  0.2313  0.0345  0.0983
 2096SOL     OW 8381   4.551   4.753   0.887 -0.1583 -0.0294  0.6269
 2096SOL    HW1 8382   4.469   4.767   0.934  0.5770  3.1687  1.1582
 2096SOL    HW2 8383   4.546   4.811   0.811  1.3388 -0.2781  0.3005
 2096SOL     MW 8384   4.540   4.762   0.883  0.1275  0.3482  0.6531
 2097SOL     OW 8385   2.315   3.299   0.635 -0.4843 -0.2665  0.3181
 2097SOL    HW1 8386   2.396   3.274   0.590 -0.4875 -0.2462  0.3009
 2097SOL    HW2 8387   2.343   3.356   0.706 -0.4863 -0.2350  0.2935
 2097SOL     MW 8388   2.329   3.303   0.638 -0.4850 -0.2599  0.3127
 2098SOL     OW 8389   2.708   0.068   4.921  0.3303 -0.4289 -0.4635
 2098SOL    HW1 8390   2.801   0.047   4.919 -0.0813 -2.4983  0.0395
 2098SOL    HW2 8391   2.682   0.069   4.829  0.8026 -0.0461 -0.5974
 2098SOL     MW 8392   2.717   0.065   4.909  0.3380 -0.6448 -0.4163
 2099SOL     OW 8393   4.636   4.909   1.447 -0.7949 -0.1399  0.3010
 2099SOL    HW1 8394   4.576   4.974   1.411 -1.2775 -0.3950  0.6338
 2099SOL    HW2 8395   4.674   4.866   1.370 -2.5566 -1.3512  0.0688
 2099SOL     MW 8396   4.633   4.911   1.432 -1.0822 -0.3276  0.3139
 2100SOL     OW 8397   0.369   2.865   3.669  0.5805  0.2021 -0.0183
 2100SOL    HW1 8398   0.447   2.920   3.673  2.8239 -2.6753 -1.0140
 2100SOL    HW2 8399   0.349   2.858   3.575 -0.4083  0.2183  0.1747
 2100SOL     MW 8400   0.376   2.871   3.657  0.7411 -0.1642 -0.1211
 2101SOL     OW 8401   5.005   1.939   0.361 -0.2402  0.0657  0.2377
 2101SOL    HW1 8402   4.954   1.914   0.284  0.2995  0.3982 -0.2440
 2101SOL    HW2 8403   5.020   2.033   0.349  0.0505  0.0679  0.6250
 2101SOL     MW 8404   5.001   1.948   0.349 -0.1339  0.1085  0.2256
 2102SOL     OW 8405   1.025   3.061   4.006  0.1950  0.1674  0.1140
 2102SOL    HW1 8406   0.967   3.002   3.958 -0.0347 -1.1626  1.9457
 2102SOL    HW2 8407   1.111   3.021   4.000  0.2771  0.3075  0.3291
 2102SOL     MW 8408   1.029   3.049   3.999  0.1761  0.0151  0.3760
 2103SOL     OW 8409   3.480   2.454   5.460  0.4921  0.4808  0.3824
 2103SOL    HW1 8410   3.499   2.519   5.527 -1.2053  0.6890  0.7166
 2103SOL    HW2 8411   3.437   2.382   5.506 -1.8865  1.1847 -0.5735
 2103SOL     MW 8412   3.477   2.453   5.474 -0.0297  0.5976  0.3028
 2104SOL     OW 8413   0.327   3.460   2.126 -0.4348  0.1896  0.2333
 2104SOL    HW1 8414   0.281   3.511   2.059 -0.7362 -1.5233 -0.9467
 2104SOL    HW2 8415   0.257   3.411   2.170 -0.1777  0.9112  1.4821
 2104SOL     MW 8416   0.312   3.460   2.123 -0.4404  0.0627  0.2421
 2105SOL     OW 8417   1.289   4.775   3.744 -0.1675  0.0105 -0.0739
 2105SOL    HW1 8418   1.359   4.722   3.706  0.4819 -0.7296  1.9989
 2105SOL    HW2 8419   1.209   4.729   3.720  0.1192  0.1771 -1.4285
 2105SOL     MW 8420   1.288   4.762   3.736 -0.0477 -0.0629  0.0180
 2106SOL     OW 8421   5.169   0.356   5.254 -0.0871  0.0156 -0.1900
 2106SOL    HW1 8422   5.142   0.313   5.335 -0.3745 -0.9882 -0.7969
 2106SOL    HW2 8423   5.194   0.285   5.196 -0.5062  0.6735 -1.2109
 2106SOL     MW 8424   5.169   0.342   5.257 -0.1775 -0.0287 -0.3984
 2107SOL     OW 8425   4.290   4.592   3.008 -0.3024  0.0259  0.2940
 2107SOL    HW1 8426   4.233   4.622   2.937  0.2060  1.5802  0.5013
 2107SOL    HW2 8427   4.367   4.558   2.965 -0.7716 -0.7598  0.0567
 2107SOL     MW 8428   4.292   4.592   2.993 -0.2974  0.1243  0.2902
 2108SOL     OW 8429   1.877   1.223   2.780  0.3387 -0.1425  0.4229
 2108SOL    HW1 8430   1.854   1.167   2.706  0.9749  0.2725 -0.0974
 2108SOL    HW2 8431   1.972   1.229   2.777  0.2952  0.7489  0.6273
 2108SOL     MW 8432   1.886   1.217   2.770  0.4145  0.0248  0.3824
 2109SOL     OW 8433   0.651   0.061   1.274 -0.2885  0.4722 -0.0509
 2109SOL    HW1 8434   0.576   0.022   1.319 -0.2134 -0.0283 -0.3590
 2109SOL    HW2 8435   0.664   0.006   1.197  1.7183 -0.7578  1.0911
 2109SOL     MW 8436   0.643   0.049   1.270 -0.0220  0.2506  0.0559
 2110SOL     OW 8437   5.307   2.179   1.458  0.5780 -0.1353  0.3229
 2110SOL    HW1 8438   5.359   2.100   1.476 -0.2869 -1.1199 -1.2976
 2110SOL    HW2 8439   5.247   2.153   1.388 -0.7189  1.5662  0.7411
 2110SOL     MW 8440   5.306   2.165   1.451  0.3012 -0.0435  0.1690
 2111SOL     OW 8441   1.057   2.918   1.260 -0.0189  0.3828 -0.5093
 2111SOL    HW1 8442   1.034   2.873   1.341 -1.4757  0.3550 -0.9219
 2111SOL    HW2 8443   0.990   2.891   1.197  1.0144  0.4890 -1.7042
 2111SOL     MW 8444   1.046   2.909   1.262 -0.0731  0.3928 -0.7151
 2112SOL     OW 8445   4.787   1.722   0.885  0.1602 -0.0602 -0.2977
 2112SOL    HW1 8446   4.825   1.787   0.827 -1.0291 -0.9148 -2.1168
 2112SOL    HW2 8447   4.731   1.669   0.829 -1.4065 -0.6680  1.7037
 2112SOL     MW 8448   4.785   1.724   0.871 -0.1926 -0.2474 -0.2743
 2113SOL     OW 8449   1.166   3.053   3.680  0.0034  0.6803  0.5771
 2113SOL    HW1 8450   1.152   2.970   3.725 -0.5623  1.1677  1.3171
 2113SOL    HW2 8451   1.099   3.112   3.714 -1.9696  0.4601 -2.5110
 2113SOL     MW 8452   1.156   3.050   3.690 -0.3216  0.7145  0.2765
 2114SOL     OW 8453   1.369   5.237   0.769 -0.0288  0.6835  1.3807
 2114SOL    HW1 8454   1.435   5.304   0.754 -0.0121  0.2212 -1.0571
 2114SOL    HW2 8455   1.418   5.155   0.771 -0.3755  0.4624  1.0060
 2114SOL     MW 8456   1.384   5.235   0.768 -0.0710  0.5960  1.0207
 2115SOL     OW 8457   3.605   2.689   1.153  0.0404 -0.1413 -0.1068
 2115SOL    HW1 8458   3.513   2.698   1.178  0.4036 -1.1170  1.7766
 2115SOL    HW2 8459   3.612   2.735   1.070 -2.3398 -0.8307 -0.7607
 2115SOL     MW 8460   3.594   2.696   1.146 -0.2178 -0.3544  0.0506
 2116SOL     OW 8461   4.958   4.542   3.224  0.3104  0.0557 -0.2387
 2116SOL    HW1 8462   4.865   4.565   3.231  1.0806  3.4383  1.0720
 2116SOL    HW2 8463   4.984   4.572   3.137  0.5836  1.0267  0.1682
 2116SOL     MW 8464   4.950   4.549   3.213  0.4439  0.6130 -0.0188
 2117SOL     OW 8465   2.572   1.824   1.856  0.2223  0.2908  0.0838
 2117SOL    HW1 8466   2.584   1.867   1.941  0.1266  0.1606  0.1626
 2117SOL    HW2 8467   2.572   1.896   1.793  2.8364  0.2239 -0.0926
 2117SOL     MW 8468   2.573   1.839   1.858  0.5447  0.2656  0.0713
 2118SOL     OW 8469   0.368   0.671   4.467 -0.3053  0.2866 -0.1186
 2118SOL    HW1 8470   0.425   0.630   4.402 -0.4399 -0.0060 -0.0519
 2118SOL    HW2 8471   0.373   0.614   4.543  2.1634  2.1033  1.2441
 2118SOL     MW 8472   0.376   0.659   4.468 -0.0065  0.4817  0.0644
 2119SOL     OW 8473   2.678   3.826   0.525 -0.9528 -0.2929 -0.2634
 2119SOL    HW1 8474   2.750   3.855   0.468 -1.5113  0.6214 -0.5222
 2119SOL    HW2 8475   2.720   3.807   0.608 -0.1953 -1.1521 -0.8161
 2119SOL     MW 8476   2.692   3.827   0.528 -0.9273 -0.2858 -0.3673
 2120SOL     OW 8477   1.037   4.181   3.397  0.3838 -0.0536 -0.3805
 2120SOL    HW1 8478   1.077   4.173   3.310  0.4431  0.5539 -0.4125
 2120SOL    HW2 8479   1.024   4.275   3.409 -2.3674 -0.2679 -0.9837
 2120SOL     MW 8480   1.040   4.192   3.387  0.0392 -0.0033 -0.4618
 2121SOL     OW 8481   4.882   3.956   5.153 -0.3351  0.5714 -0.3890
 2121SOL    HW1 8482   4.787   3.949   5.143 -0.2368  1.0057 -1.8369
 2121SOL    HW2 8483   4.896   4.036   5.203 -0.7781 -0.6132  1.7823
 2121SOL     MW 8484   4.872   3.965   5.158 -0.3793  0.4753 -0.2964
 2122SOL     OW 8485   3.406   1.896   5.438  0.2838 -0.0171  0.4420
 2122SOL    HW1 8486   3.415   1.857   5.525 -0.1413  3.4196  2.2041
 2122SOL    HW2 8487   3.474   1.854   5.386  0.7927 -1.9593  2.5008
 2122SOL     MW 8488   3.416   1.886   5.443  0.2945  0.1742  0.9311
 2123SOL     OW 8489   4.410   4.047   4.560  0.2604 -0.2656  0.2875
 2123SOL    HW1 8490   4.325   4.069   4.521 -0.8551 -2.5429  1.2414
 2123SOL    HW2 8491   4.397   3.959   4.596  2.6853 -0.1724  1.5345
 2123SOL     MW 8492   4.397   4.038   4.559  0.4280 -0.5452  0.5693
 2124SOL     OW 8493   2.055   0.265   0.300 -0.4479  0.5399  0.0390
 2124SOL    HW1 8494   2.090   0.328   0.237 -1.3933  1.5524  0.4996
 2124SOL    HW2 8495   2.005   0.203   0.246  0.3223  0.2760 -0.3927
 2124SOL     MW 8496   2.053   0.265   0.285 -0.4703  0.6357  0.0427
 2125SOL     OW 8497   5.281   3.005   5.320 -0.1058  0.0682 -0.3237
 2125SOL    HW1 8498   5.343   2.981   5.390 -0.8335 -0.4205  0.1674
 2125SOL    HW2 8499   5.229   3.076   5.358 -1.5747 -1.2596  0.2667
 2125SOL     MW 8500   5.282   3.011   5.334 -0.3870 -0.1643 -0.1853
 2126SOL     OW 8501   5.063   4.691   1.519  0.0297  0.5145  0.0078
 2126SOL    HW1 8502   5.110   4.688   1.603 -0.5887  0.5919  0.3660
 2126SOL    HW2 8503   5.131   4.703   1.453  0.5050  0.6910  0.5245
 2126SOL     MW 8504   5.078   4.692   1.522  0.0113  0.5470  0.1198
 2127SOL     OW 8505   3.997   3.222   2.608 -0.0973 -0.1859 -0.2962
 2127SOL    HW1 8506   4.006   3.127   2.608 -0.0239 -0.1791 -0.3004
 2127SOL    HW2 8507   3.999   3.247   2.515  0.3358 -0.1385 -0.2749
 2127SOL     MW 8508   3.998   3.213   2.596 -0.0325 -0.1790 -0.2940
 2128SOL     OW 8509   2.860   0.637   5.291 -0.7964 -0.2461 -0.0258
 2128SOL    HW1 8510   2.844   0.731   5.289 -1.4252 -0.3558 -0.9906
 2128SOL    HW2 8511   2.791   0.600   5.236  0.2388 -1.1568 -0.7370
 2128SOL     MW 8512   2.849   0.644   5.284 -0.7444 -0.3767 -0.2403
 2129SOL     OW 8513   4.384   0.812   3.195  0.1724  0.1853  0.5037
 2129SOL    HW1 8514   4.331   0.838   3.271  0.9935  3.0751  0.2312
 2129SOL    HW2 8515   4.322   0.807   3.123 -0.2065  0.3860  0.8119
 2129SOL     MW 8516   4.369   0.815   3.196  0.2290  0.5809  0.5083
 2130SOL     OW 8517   0.281   2.551   3.366 -0.0522  0.3584 -0.6034
 2130SOL    HW1 8518   0.237   2.515   3.443 -2.6475  0.7109 -1.8252
 2130SOL    HW2 8519   0.321   2.475   3.324  0.7197  0.0506  0.6128
 2130SOL     MW 8520   0.281   2.537   3.371 -0.2856  0.3642 -0.6041
 2131SOL     OW 8521   2.517   3.323   4.854  0.0281 -0.6924  0.4002
 2131SOL    HW1 8522   2.502   3.417   4.843 -2.2675 -1.1265 -0.6046
 2131SOL    HW2 8523   2.451   3.281   4.799 -0.2489 -2.9230  2.2979
 2131SOL     MW 8524   2.507   3.330   4.846 -0.3012 -1.0335  0.5145
 2132SOL     OW 8525   0.760   3.282   1.763 -0.1135  0.4787 -0.1266
 2132SOL    HW1 8526   0.818   3.356   1.778  2.5413 -1.3556 -0.6017
 2132SOL    HW2 8527   0.814   3.205   1.784 -2.0966 -1.3991 -1.4786
 2132SOL     MW 8528   0.774   3.282   1.768 -0.0275  0.0035 -0.3605
 2133SOL     OW 8529   1.068   4.057   3.107  0.1118  0.4695  0.2559
 2133SOL    HW1 8530   1.018   3.987   3.064 -0.5429 -0.4553  2.3766
 2133SOL    HW2 8531   1.067   4.129   3.044 -1.3860 -0.5536 -0.9722
 2133SOL     MW 8532   1.061   4.058   3.093 -0.1637  0.2202  0.3701
 2134SOL     OW 8533   1.089   4.296   2.961  0.2829 -0.1894  0.3174
 2134SOL    HW1 8534   1.042   4.365   3.008 -0.5399  0.6532 -1.6259
 2134SOL    HW2 8535   1.078   4.319   2.869  1.6287 -1.8923 -0.3093
 2134SOL     MW 8536   1.081   4.308   2.955  0.3499 -0.2995 -0.0116
 2135SOL     OW 8537   1.794   1.940   0.670 -0.2133  0.0728  0.2636
 2135SOL    HW1 8538   1.772   1.862   0.619 -0.2174  0.4707 -0.3503
 2135SOL    HW2 8539   1.709   1.974   0.698 -0.2227 -0.0215  0.3510
 2135SOL     MW 8540   1.780   1.934   0.667 -0.2150  0.1116  0.1962
 2136SOL     OW 8541   1.219   3.260   0.253  0.3310  0.4939  0.1365
 2136SOL    HW1 8542   1.255   3.277   0.166 -2.1527  0.2672 -1.0360
 2136SOL    HW2 8543   1.236   3.340   0.302  1.1221  0.9158 -0.7983
 2136SOL     MW 8544   1.226   3.272   0.248  0.1143  0.5189 -0.1332
 2137SOL     OW 8545   2.542   5.238   2.283 -0.2077  0.2721  0.1131
 2137SOL    HW1 8546   2.464   5.236   2.226  0.0853  1.5923 -0.3782
 2137SOL    HW2 8547   2.586   5.320   2.260  1.8537 -0.8740 -0.3050
 2137SOL     MW 8548   2.537   5.248   2.272  0.0937  0.2944 -0.0033
 2138SOL     OW 8549   2.614   5.484   1.235  0.1276 -0.0137  0.3294
 2138SOL    HW1 8550   2.544   5.459   1.296  1.0757  1.8781  2.3386
 2138SOL    HW2 8551   2.568   5.513   1.156 -1.1623 -2.2462  0.1806
 2138SOL     MW 8552   2.599   5.485   1.233  0.0838 -0.0574  0.5676
 2139SOL     OW 8553   2.199   1.995   3.004 -0.1151 -0.5611  0.0884
 2139SOL    HW1 8554   2.279   1.943   3.018 -0.0969 -0.3235  0.8659
 2139SOL    HW2 8555   2.197   2.010   2.909  0.4451 -1.0763 -0.0116
 2139SOL     MW 8556   2.209   1.990   2.994 -0.0411 -0.5967  0.1751
 2140SOL     OW 8557   3.723   0.276   1.296  0.5211  0.1457 -0.9193
 2140SOL    HW1 8558   3.758   0.350   1.246  1.5780 -0.2749 -0.8342
 2140SOL    HW2 8559   3.791   0.258   1.361  0.3104 -0.9409 -0.9931
 2140SOL     MW 8560   3.736   0.283   1.298  0.6294 -0.0473 -0.9178
 2141SOL     OW 8561   2.322   0.983   4.975  0.5860 -0.4691 -0.2942
 2141SOL    HW1 8562   2.402   0.972   5.026 -0.2169 -1.0580  0.8821
 2141SOL    HW2 8563   2.292   1.072   4.997  0.4760 -0.5578 -0.0842
 2141SOL     MW 8564   2.329   0.993   4.984  0.4692 -0.5558 -0.1167
 2142SOL     OW 8565   0.199   2.155   1.456  0.4664 -0.0563 -0.1020
 2142SOL    HW1 8566   0.178   2.202   1.537  0.2175 -0.0052 -0.1938
 2142SOL    HW2 8567   0.294   2.162   1.448  0.8297 -2.1168  1.4584
 2142SOL     MW 8568   0.208   2.161   1.465  0.4811 -0.3135  0.0860
 2143SOL     OW 8569   4.987   2.327   1.369 -0.2733 -0.0808 -0.3255
 2143SOL    HW1 8570   4.949   2.375   1.296 -2.0171 -2.5843 -1.1904
 2143SOL    HW2 8571   5.039   2.258   1.328  0.4536 -0.2441  0.8270
 2143SOL     MW 8572   4.989   2.324   1.355 -0.4035 -0.4222 -0.2887
 2144SOL     OW 8573   4.106   3.547   3.071  0.2179  0.4353  0.0377
 2144SOL    HW1 8574   4.064   3.524   2.987  1.4438  1.6022 -0.9371
 2144SOL    HW2 8575   4.033   3.551   3.133 -0.6645 -0.9720 -0.8221
 2144SOL     MW 8576   4.091   3.544   3.068  0.2619  0.4045 -0.1971
 2145SOL     OW 8577   1.908   3.458   5.093 -0.6475  0.2457 -0.4674
 2145SOL    HW1 8578   1.822   3.422   5.115 -0.9350  1.2052  0.0518
 2145SOL    HW2 8579   1.894   3.553   5.086  0.4835  0.4936  0.2650
 2145SOL     MW 8580   1.895   3.466   5.095 -0.5395  0.4003 -0.3072
 2146SOL     OW 8581   5.120   2.154   3.445  0.8986  0.1218 -0.3769
 2146SOL    HW1 8582   5.105   2.159   3.539 -2.0647  0.0595 -0.7466
 2146SOL    HW2 8583   5.151   2.065   3.430  0.6308 -0.1222  0.4832
 2146SOL     MW 8584   5.122   2.143   3.455  0.4850  0.0826 -0.3142
 2147SOL     OW 8585   4.516   3.386   4.185  0.4934 -0.3581 -0.4895
 2147SOL    HW1 8586   4.600   3.430   4.193  0.1349  0.3673 -0.6034
 2147SOL    HW2 8587   4.460   3.449   4.140 -0.6086 -0.1620  1.0933
 2147SOL     MW 8588   4.520   3.399   4.180  0.3064 -0.2401 -0.3015
 2148SOL     OW 8589   1.267   2.866   3.339 -0.2622  0.0243 -0.1498
 2148SOL    HW1 8590   1.186   2.825   3.369 -0.1319 -1.2589 -1.4395
 2148SOL    HW2 8591   1.331   2.846   3.408 -0.7745  0.0890  0.3502
 2148SOL     MW 8592   1.265   2.858   3.352 -0.3111 -0.1317 -0.2509
 2149SOL     OW 8593   2.745   2.235   3.122 -0.0001 -0.4280  0.0843
 2149SOL    HW1 8594   2.806   2.181   3.071  0.5719 -0.8583  1.2095
 2149SOL    HW2 8595   2.658   2.208   3.091  0.1830 -3.1473  1.6429
 2149SOL     MW 8596   2.742   2.225   3.111  0.0966 -0.8312  0.4279
 2150SOL     OW 8597   2.640   0.332   4.318 -0.7513  0.2351  0.4494
 2150SOL    HW1 8598   2.613   0.241   4.333 -0.6042 -0.0643 -0.9940
 2150SOL    HW2 8599   2.576   0.384   4.366 -1.7353 -0.5816  0.0666
 2150SOL     MW 8600   2.629   0.327   4.326 -0.8585  0.0922  0.2156
 2151SOL     OW 8601   4.873   5.002   0.266 -0.4661 -0.0994 -0.1187
 2151SOL    HW1 8602   4.955   4.963   0.294 -0.0880 -0.5984 -1.8530
 2151SOL    HW2 8603   4.851   5.064   0.336  1.3780  0.0465  0.3709
 2151SOL     MW 8604   4.880   5.005   0.279 -0.1816 -0.1446 -0.2780
 2152SOL     OW 8605   2.043   2.943   0.408 -0.3750 -0.2603  0.6080
 2152SOL    HW1 8606   2.052   2.882   0.482 -0.5251 -0.1205  0.7449
 2152SOL    HW2 8607   1.958   2.986   0.424 -0.5097 -0.3866  0.2349
 2152SOL     MW 8608   2.033   2.941   0.420 -0.4115 -0.2586  0.5778
 2153SOL     OW 8609   3.590   3.200   4.809 -0.1086  0.6863 -0.0072
 2153SOL    HW1 8610   3.618   3.245   4.729  1.3400  0.8614  0.5726
 2153SOL    HW2 8611   3.656   3.223   4.874 -0.3065 -0.8518  0.7867
 2153SOL     MW 8612   3.602   3.208   4.807  0.0515  0.5118  0.1687
 2154SOL     OW 8613   2.820   0.209   0.315 -0.0261 -0.2932  0.1526
 2154SOL    HW1 8614   2.782   0.132   0.358  1.6015 -0.2721  1.6990
 2154SOL    HW2 8615   2.904   0.223   0.359 -0.4870  2.6962  0.2817
 2154SOL     MW 8616   2.826   0.201   0.326  0.1232  0.0922  0.3671
 2155SOL     OW 8617   3.559   0.715   3.213  0.5651  0.5089 -0.8256
 2155SOL    HW1 8618   3.471   0.730   3.248  0.4598  1.8800 -1.6284
 2155SOL    HW2 8619   3.547   0.709   3.118  1.2171 -0.3260 -0.8673
 2155SOL     MW 8620   3.546   0.716   3.206  0.6351  0.5776 -0.9337
 2156SOL     OW 8621   1.873   0.411   2.853  0.3529  0.8294  0.3591
 2156SOL    HW1 8622   1.928   0.408   2.775 -2.2732  0.4445 -1.6223
 2156SOL    HW2 8623   1.929   0.380   2.924  2.1168 -1.4376 -1.8521
 2156SOL     MW 8624   1.887   0.407   2.852  0.2425  0.4899 -0.1776
 2157SOL     OW 8625   0.029   4.612   0.051  0.1043  0.3109  0.5839
 2157SOL    HW1 8626  -0.033   4.644  -0.014  0.9779  3.0707  0.9556
 2157SOL    HW2 8627   0.003   4.656   0.132  0.7522 -0.8236  1.4321
 2157SOL     MW 8628   0.018   4.622   0.053  0.2990  0.5190  0.7401
 2158SOL     OW 8629   1.611   4.533   2.125 -0.3394 -0.1722  0.2771
 2158SOL    HW1 8630   1.616   4.625   2.151  0.3953  0.2397 -1.2462
 2158SOL    HW2 8631   1.607   4.534   2.030  0.0053 -1.7359  0.2073
 2158SOL     MW 8632   1.611   4.545   2.116 -0.2012 -0.3197  0.0732
 2159SOL     OW 8633   1.409   1.646   5.078 -0.0236  0.1787 -0.0883
 2159SOL    HW1 8634   1.374   1.728   5.112  0.7301  0.2512  0.5365
 2159SOL    HW2 8635   1.490   1.632   5.127  1.2012  0.3696 -1.9618
 2159SOL     MW 8636   1.415   1.655   5.089  0.2297  0.2124 -0.2482
 2160SOL     OW 8637   4.321   5.309   2.092  0.0802 -0.2181 -0.1810
 2160SOL    HW1 8638   4.290   5.370   2.158 -0.3941 -0.6815  0.0272
 2160SOL    HW2 8639   4.277   5.335   2.012  1.0338  0.6567 -0.4403
 2160SOL     MW 8640   4.311   5.320   2.090  0.1415 -0.1654 -0.1876
 2161SOL     OW 8641   1.118   1.779   2.351  0.6594  0.6081  0.0158
 2161SOL    HW1 8642   1.161   1.851   2.305  1.0832 -0.6859 -1.6819
 2161SOL    HW2 8643   1.189   1.722   2.379  0.2507 -1.7167 -3.0982
 2161SOL     MW 8644   1.132   1.781   2.349  0.6613  0.1449 -0.6002
 2162SOL     OW 8645   2.490   0.110   4.355 -0.6430 -0.0887 -0.2430
 2162SOL    HW1 8646   2.435   0.093   4.431 -1.6544  0.5545 -0.8147
 2162SOL    HW2 8647   2.437   0.167   4.299  1.0005  1.4808 -0.3081
 2162SOL     MW 8648   2.477   0.115   4.358 -0.5621  0.1945 -0.3245
 2163SOL     OW 8649   3.917   0.151   3.408 -0.2532  0.1670 -0.1444
 2163SOL    HW1 8650   3.911   0.188   3.496  0.5174 -0.9370  0.3900
 2163SOL    HW2 8651   3.955   0.064   3.421  0.2487  0.1453 -1.6102
 2163SOL     MW 8652   3.921   0.145   3.421 -0.0903  0.0229 -0.2636
 2164SOL     OW 8653   2.036   3.156   1.622 -0.2528 -0.3897  0.6262
 2164SOL    HW1 8654   2.009   3.087   1.562 -0.2243  1.4331 -1.6324
 2164SOL    HW2 8655   1.970   3.154   1.692 -1.8265 -0.9608 -0.8007
 2164SOL     MW 8656   2.024   3.147   1.623 -0.4506 -0.2295  0.1544
 2165SOL     OW 8657   0.596   2.266   2.460 -0.2605 -0.6127  0.0409
 2165SOL    HW1 8658   0.517   2.281   2.409  0.3770 -0.1843 -0.8605
 2165SOL    HW2 8659   0.567   2.269   2.551 -1.2365 -0.2073 -0.2686
 2165SOL     MW 8660   0.583   2.269   2.465 -0.3038 -0.5060 -0.1141
 2166SOL     OW 8661   2.972   4.992   4.564 -0.2077  0.2170  0.4332
 2166SOL    HW1 8662   2.883   4.956   4.564  0.3260 -1.1671  1.6547
 2166SOL    HW2 8663   2.978   5.039   4.481 -2.0701  0.3400  0.3190
 2166SOL     MW 8664   2.961   4.993   4.553 -0.3778  0.0556  0.5749
 2167SOL     OW 8665   3.784   4.368   4.297  0.7394 -0.0719 -0.0781
 2167SOL    HW1 8666   3.696   4.351   4.263  0.6090 -0.2276  0.3293
 2167SOL    HW2 8667   3.795   4.463   4.289 -0.4428  0.3101  2.1496
 2167SOL     MW 8668   3.774   4.378   4.292  0.5714 -0.0429  0.2592
 2168SOL     OW 8669   5.245   4.175   2.823 -0.0197  0.3516  0.0157
 2168SOL    HW1 8670   5.160   4.194   2.863  0.5181  0.4555  1.1688
 2168SOL    HW2 8671   5.240   4.212   2.735 -1.7631 -1.1226 -0.5650
 2168SOL     MW 8672   5.234   4.182   2.817 -0.1741  0.1762  0.0890
 2169SOL     OW 8673   5.084   2.661   4.127  0.1298  0.0018  0.2124
 2169SOL    HW1 8674   5.032   2.734   4.161  0.8120  0.2517  0.7390
 2169SOL    HW2 8675   5.042   2.639   4.043  0.1610  1.2629 -0.1568
 2169SOL     MW 8676   5.072   2.668   4.121  0.2211  0.1953  0.2326
 2170SOL     OW 8677   2.280   1.978   1.876  0.1037 -0.4861  0.8268
 2170SOL    HW1 8678   2.215   2.041   1.844  0.4468 -1.2815 -1.6019
 2170SOL    HW2 8679   2.271   1.902   1.819  0.6879 -2.1103  2.7896
 2170SOL     MW 8680   2.270   1.977   1.865  0.2224 -0.7958  0.7672
 2171SOL     OW 8681   0.232   3.365   5.456  0.3819 -0.0383 -0.4679
 2171SOL    HW1 8682   0.145   3.334   5.433 -0.3916  0.8918  1.0183
 2171SOL    HW2 8683   0.248   3.329   5.544  1.8005 -0.7649 -0.9930
 2171SOL     MW 8684   0.223   3.356   5.465  0.4645 -0.0122 -0.3448
 2172SOL     OW 8685   4.663   1.561   0.718 -0.6281  0.2768 -0.1801
 2172SOL    HW1 8686   4.576   1.524   0.733 -1.1745  1.6948  0.2960
 2172SOL    HW2 8687   4.723   1.489   0.738 -1.6762 -0.6910 -0.4258
 2172SOL     MW 8688   4.659   1.547   0.723 -0.8322  0.3344 -0.1506
 2173SOL     OW 8689   5.451   5.373   3.133 -0.1699  0.2059  0.0235
 2173SOL    HW1 8690   5.528   5.345   3.183 -1.3665 -0.9874  1.2788
 2173SOL    HW2 8691   5.385   5.307   3.151 -1.4895  1.1532 -1.1010
 2173SOL     MW 8692   5.453   5.361   3.141 -0.4920  0.1744  0.0402
 2174SOL     OW 8693   2.742   1.972   0.936  0.3244  0.3584  0.1798
 2174SOL    HW1 8694   2.783   1.913   0.872 -0.8578 -0.4517  0.1425
 2174SOL    HW2 8695   2.682   1.917   0.985  1.1077  0.9868  1.9511
 2174SOL     MW 8696   2.740   1.958   0.934  0.2733  0.3352  0.4018
 2175SOL     OW 8697   2.296   0.467   1.091 -0.4749  0.6797 -0.1860
 2175SOL    HW1 8698   2.326   0.516   1.168 -0.9190  0.3075  0.2296
 2175SOL    HW2 8699   2.273   0.381   1.125 -0.0944  0.3126 -0.8465
 2175SOL     MW 8700   2.297   0.462   1.105 -0.4830  0.5851 -0.2174
 2176SOL     OW 8701   4.936   3.862   0.459  0.2583  0.3635  0.2086
 2176SOL    HW1 8702   4.996   3.937   0.464  0.9507 -0.2377  1.4793
 2176SOL    HW2 8703   4.993   3.785   0.462 -0.1379 -0.3916 -4.3239
 2176SOL     MW 8704   4.951   3.862   0.460  0.2962  0.1898 -0.2089
 2177SOL     OW 8705   2.368   4.773   1.933 -0.6413  0.4876  0.1576
 2177SOL    HW1 8706   2.383   4.784   2.027 -0.1678 -1.8146  0.3933
 2177SOL    HW2 8707   2.319   4.852   1.908  1.3923  2.4079  1.7835
 2177SOL     MW 8708   2.364   4.785   1.942 -0.3203  0.4387  0.3959
 2178SOL     OW 8709   3.869   2.429   4.469 -0.4390  0.3103 -0.4920
 2178SOL    HW1 8710   3.883   2.342   4.431 -2.8893 -0.0165 -0.7954
 2178SOL    HW2 8711   3.944   2.480   4.439 -0.2112 -1.0297 -2.3838
 2178SOL     MW 8712   3.880   2.424   4.460 -0.7235  0.0969 -0.7730
 2179SOL     OW 8713   4.451   1.462   3.228  0.4569 -0.1746 -0.2844
 2179SOL    HW1 8714   4.376   1.450   3.285 -0.0325 -1.5735 -1.1798
 2179SOL    HW2 8715   4.446   1.554   3.200 -0.2574  0.0509  0.5473
 2179SOL     MW 8716   4.441   1.473   3.232  0.3029 -0.3248 -0.2926
 2180SOL     OW 8717   1.298   1.215   4.914  0.5318  0.2407  0.1162
 2180SOL    HW1 8718   1.232   1.185   4.977  0.7803  0.4362  0.4773
 2180SOL    HW2 8719   1.375   1.161   4.932  0.7687  0.6438  0.3270
 2180SOL     MW 8720   1.299   1.204   4.925  0.5940  0.3173  0.1894
 2181SOL     OW 8721   0.803   5.228   0.921 -0.6678 -0.2832  0.1244
 2181SOL    HW1 8722   0.744   5.278   0.864 -0.5158 -0.6629 -0.3643
 2181SOL    HW2 8723   0.795   5.138   0.891 -0.4525 -0.4581  0.5899
 2181SOL     MW 8724   0.795   5.223   0.910 -0.6207 -0.3542  0.1215
 2182SOL     OW 8725   2.143   2.445   2.540 -0.0866  0.2597  0.1861
 2182SOL    HW1 8726   2.075   2.506   2.511 -1.0045  1.2949  3.9756
 2182SOL    HW2 8727   2.119   2.361   2.501 -2.9688  0.8278  0.5286
 2182SOL     MW 8728   2.131   2.442   2.531 -0.5731  0.4649  0.7150
 2183SOL     OW 8729   5.411   3.258   3.839  0.7792 -0.3544 -0.0997
 2183SOL    HW1 8730   5.395   3.253   3.934  2.3089 -0.6000  0.1746
 2183SOL    HW2 8731   5.404   3.351   3.818 -0.4171 -0.3903  0.0764
 2183SOL     MW 8732   5.408   3.269   3.849  0.8219 -0.3904 -0.0421
 2184SOL     OW 8733   5.284   3.171   2.420 -0.4470 -0.2748 -0.4460
 2184SOL    HW1 8734   5.377   3.180   2.397 -0.4686 -0.5862 -0.6598
 2184SOL    HW2 8735   5.243   3.250   2.385 -0.6241 -1.1281 -2.2352
 2184SOL     MW 8736   5.291   3.182   2.413 -0.4725 -0.4239 -0.7024
 2185SOL     OW 8737   1.845   2.783   5.266 -0.0030 -0.1917 -0.5703
 2185SOL    HW1 8738   1.882   2.764   5.353  1.3774 -0.1033 -1.1108
 2185SOL    HW2 8739   1.767   2.835   5.284  0.6505  0.4389  0.6134
 2185SOL     MW 8740   1.840   2.787   5.280  0.2573 -0.0996 -0.4880
 2186SOL     OW 8741   1.247   4.363   3.634 -0.1742  0.1218  0.5168
 2186SOL    HW1 8742   1.191   4.312   3.694  0.6091 -1.6915 -0.2043
 2186SOL    HW2 8743   1.186   4.408   3.576 -0.9566 -2.0168 -0.4143
 2186SOL     MW 8744   1.232   4.362   3.634 -0.1741 -0.3841  0.3053
 2187SOL     OW 8745   2.914   1.230   2.838 -0.3524  0.3106 -0.1491
 2187SOL    HW1 8746   2.995   1.269   2.806  1.2232  0.1019  3.1368
 2187SOL    HW2 8747   2.893   1.279   2.917 -2.3654 -0.9062  0.1387
 2187SOL     MW 8748   2.922   1.241   2.844 -0.4084  0.1281  0.3083
 2188SOL     OW 8749   1.063   2.767   1.496  0.0863 -0.2615  0.6931
 2188SOL    HW1 8750   0.990   2.776   1.558 -0.0386 -0.0627  0.5173
 2188SOL    HW2 8751   1.094   2.677   1.509 -1.3037 -0.9606 -0.4598
 2188SOL     MW 8752   1.057   2.757   1.506 -0.1076 -0.3255  0.5230
 2189SOL     OW 8753   1.240   5.430   2.478  0.0551  0.2231 -0.2048
 2189SOL    HW1 8754   1.245   5.462   2.568 -0.5343 -0.8262  0.2181
 2189SOL    HW2 8755   1.308   5.480   2.431  1.2319 -0.0941  1.0810
 2189SOL     MW 8756   1.250   5.441   2.484  0.1303  0.0481  0.0140
 2190SOL     OW 8757   1.320   1.652   4.450 -0.1064  0.1308 -0.1593
 2190SOL    HW1 8758   1.369   1.702   4.515  0.9437 -1.9914  0.8151
 2190SOL    HW2 8759   1.230   1.652   4.481 -0.1780  1.5909 -0.3330
 2190SOL     MW 8760   1.315   1.658   4.462  0.0188  0.0460 -0.0568
 2191SOL     OW 8761   4.406   5.242   5.408 -0.1735 -0.2058 -0.1654
 2191SOL    HW1 8762   4.335   5.264   5.347  1.0874  1.8517 -1.0269
 2191SOL    HW2 8763   4.474   5.306   5.387  1.2119 -0.9485  1.8786
 2191SOL     MW 8764   4.405   5.253   5.397  0.1653 -0.0375 -0.0140
 2192SOL     OW 8765   4.250   1.139   4.059  0.3022  0.2005 -0.2308
 2192SOL    HW1 8766   4.193   1.110   4.131  0.5927  1.2496  0.4603
 2192SOL    HW2 8767   4.292   1.218   4.094 -0.4946  1.4821 -1.9949
 2192SOL     MW 8768   4.248   1.146   4.073  0.2374  0.4988 -0.3681
 2193SOL     OW 8769   0.380   3.857   2.538 -0.3194  0.1888  0.4617
 2193SOL    HW1 8770   0.403   3.950   2.549  0.2266  0.0171  0.8357
 2193SOL    HW2 8771   0.422   3.832   2.456 -0.4415  0.2606  0.3759
 2193SOL     MW 8772   0.388   3.866   2.529 -0.2651  0.1760  0.4986
 2194SOL     OW 8773   2.149   1.553   4.151 -0.2009 -0.2239 -0.4603
 2194SOL    HW1 8774   2.244   1.558   4.137 -0.4034  1.2450 -1.5557
 2194SOL    HW2 8775   2.112   1.612   4.085 -1.7651  0.9511  1.3512
 2194SOL     MW 8776   2.156   1.561   4.140 -0.4271  0.1146 -0.3687
 2195SOL     OW 8777   4.267   3.720   1.476 -0.0381 -0.1277 -0.3992
 2195SOL    HW1 8778   4.353   3.718   1.434  1.1864  1.2791  1.8359
 2195SOL    HW2 8779   4.256   3.811   1.503 -2.2994 -0.2741 -0.7094
 2195SOL     MW 8780   4.277   3.731   1.474 -0.1708  0.0336 -0.1528
 2196SOL     OW 8781   0.326   3.612   2.680 -0.5094 -0.1374 -0.1416
 2196SOL    HW1 8782   0.393   3.560   2.637 -1.3810 -0.6835 -0.8905
 2196SOL    HW2 8783   0.331   3.698   2.639 -0.4096 -0.2475 -0.3630
 2196SOL     MW 8784   0.335   3.616   2.669 -0.6082 -0.2214 -0.2658
 2197SOL     OW 8785   1.047   0.127   4.014 -0.4341 -0.1086 -0.2580
 2197SOL    HW1 8786   1.055   0.033   3.996  0.6884 -0.2846  0.9996
 2197SOL    HW2 8787   0.976   0.133   4.078  0.8195 -0.3448  1.1981
 2197SOL     MW 8788   1.039   0.116   4.020 -0.1300 -0.1613  0.0894
 2198SOL     OW 8789   2.905   2.306   2.725  0.1880  0.5304 -0.9214
 2198SOL    HW1 8790   2.999   2.322   2.725  0.4763 -0.8048  1.0107
 2198SOL    HW2 8791   2.886   2.277   2.636  2.5412 -3.6787 -0.3114
 2198SOL     MW 8792   2.915   2.304   2.713  0.5261 -0.1793 -0.5960
 2199SOL     OW 8793   5.015   1.124   0.753  0.6078  0.0419 -0.2145
 2199SOL    HW1 8794   5.058   1.038   0.760  0.9056  0.0275 -1.7944
 2199SOL    HW2 8795   5.060   1.178   0.818  0.5436 -0.9381  0.6758
 2199SOL     MW 8796   5.026   1.120   0.762  0.6377 -0.0854 -0.3028
 2200SOL     OW 8797   1.532   1.693   2.303  0.4027  0.7360 -0.2681
 2200SOL    HW1 8798   1.581   1.727   2.379  1.0619  0.0921 -0.4001
 2200SOL    HW2 8799   1.456   1.650   2.341  0.6715  0.5168  0.0269
 2200SOL     MW 8800   1.529   1.692   2.318  0.5215  0.6255 -0.2473
 2201SOL     OW 8801   3.794   1.943   1.769 -1.1428  0.2225  0.3752
 2201SOL    HW1 8802   3.883   1.922   1.800  0.4994  0.5368 -3.5538
 2201SOL    HW2 8803   3.803   2.029   1.729 -2.3482 -1.0020 -2.8263
 2201SOL     MW 8804   3.807   1.951   1.768 -1.0869  0.1060 -0.5376
 2202SOL     OW 8805   1.685   1.696   1.721 -0.5131  0.4287 -0.1238
 2202SOL    HW1 8806   1.715   1.681   1.811 -0.7637 -0.1931 -0.1419
 2202SOL    HW2 8807   1.624   1.770   1.728 -0.5516  0.3642  0.2245
 2202SOL     MW 8808   1.681   1.704   1.733 -0.5501  0.3408 -0.0815
 2203SOL     OW 8809   0.988   3.249   2.924  0.2369 -0.0545 -0.3065
 2203SOL    HW1 8810   1.065   3.297   2.894  0.8434 -0.6200  0.3071
 2203SOL    HW2 8811   1.021   3.162   2.946 -0.9309 -0.9750 -1.9585
 2203SOL     MW 8812   1.002   3.244   2.923  0.1650 -0.2447 -0.4395
 2204SOL     OW 8813   1.289   0.958   3.343 -0.5916  0.0084 -0.4985
 2204SOL    HW1 8814   1.318   0.943   3.434  2.2116  0.5871 -1.1983
 2204SOL    HW2 8815   1.332   1.040   3.318  0.0163 -0.9628 -2.8586
 2204SOL     MW 8816   1.299   0.967   3.352 -0.1550 -0.0418 -0.8902
 2205SOL     OW 8817   3.454   0.651   3.904  0.3589  0.9534  0.2965
 2205SOL    HW1 8818   3.498   0.646   3.819  0.4154  0.7574  0.3376
 2205SOL    HW2 8819   3.408   0.735   3.903 -0.8011  0.3305 -0.4808
 2205SOL     MW 8820   3.454   0.661   3.893  0.2176  0.8485  0.2022
 2206SOL     OW 8821   0.963   0.980   2.158 -0.5443 -0.2525  0.0105
 2206SOL    HW1 8822   0.959   0.925   2.236  0.6136 -0.7176 -0.2310
 2206SOL    HW2 8823   0.939   1.068   2.189 -1.1626 -0.6461  0.6569
 2206SOL     MW 8824   0.960   0.984   2.172 -0.4752 -0.3625  0.0623
 2207SOL     OW 8825   3.791   0.277   0.592 -0.2267 -0.4050  0.0508
 2207SOL    HW1 8826   3.852   0.350   0.602  0.1610 -0.9114  1.6437
 2207SOL    HW2 8827   3.757   0.286   0.503  0.2964  1.3258 -0.0048
 2207SOL     MW 8828   3.794   0.288   0.582 -0.1101 -0.2483  0.2476
 2208SOL     OW 8829   2.127   3.549   3.074 -0.4378 -0.0811  0.0010
 2208SOL    HW1 8830   2.154   3.635   3.106  2.4166 -1.2630  1.1119
 2208SOL    HW2 8831   2.185   3.532   3.000 -1.9781 -0.4771 -1.1566
 2208SOL     MW 8832   2.138   3.558   3.069 -0.2696 -0.2831 -0.0050
 2209SOL     OW 8833   2.383   3.462   2.478  0.1006 -0.5030  0.2573
 2209SOL    HW1 8834   2.425   3.377   2.461 -1.1750 -0.9940 -0.5641
 2209SOL    HW2 8835   2.435   3.525   2.427  0.6166 -0.9020  0.2857
 2209SOL     MW 8836   2.395   3.459   2.469  0.0034 -0.6170  0.1558
 2210SOL     OW 8837   1.222   3.412   2.579 -0.2257 -0.2363  0.4493
 2210SOL    HW1 8838   1.198   3.468   2.506 -0.0978 -0.3963  0.2833
 2210SOL    HW2 8839   1.317   3.400   2.571  0.0369  0.9659  1.5068
 2210SOL     MW 8840   1.231   3.417   2.568 -0.1757 -0.1029  0.5634
 2211SOL     OW 8841   4.892   0.281   0.370  0.2856 -0.3528  0.8151
 2211SOL    HW1 8842   4.925   0.211   0.426 -2.2246 -1.7729  0.6420
 2211SOL    HW2 8843   4.831   0.237   0.310 -0.9466  1.8867  0.3266
 2211SOL     MW 8844   4.889   0.266   0.369 -0.1935 -0.2479  0.7304
 2212SOL     OW 8845   4.164   3.434   4.104  0.4142  0.2327 -0.0070
 2212SOL    HW1 8846   4.230   3.497   4.075  0.4398  0.3163  0.2253
 2212SOL    HW2 8847   4.167   3.439   4.200  0.6203 -0.3382  0.0184
 2212SOL     MW 8848   4.172   3.443   4.113  0.4439  0.1703  0.0260
 2213SOL     OW 8849   2.202   2.704   0.537  1.0094  0.1545 -0.1408
 2213SOL    HW1 8850   2.212   2.692   0.442  1.8385  0.9918 -0.1759
 2213SOL    HW2 8851   2.260   2.638   0.575 -0.3903 -1.1367 -0.1687
 2213SOL     MW 8852   2.211   2.694   0.530  0.9363  0.0964 -0.1489
 2214SOL     OW 8853   5.181   2.214   3.708 -0.0760  0.1895  0.0438
 2214SOL    HW1 8854   5.235   2.154   3.759 -0.7552  0.9319  1.7070
 2214SOL    HW2 8855   5.178   2.294   3.761  0.1529  1.4366 -1.7309
 2214SOL     MW 8856   5.187   2.217   3.721 -0.1337  0.4442  0.0295
 2215SOL     OW 8857   2.254   2.980   0.968  0.5234 -0.4790  0.7282
 2215SOL    HW1 8858   2.273   2.986   1.061 -0.4204 -1.9365  1.0490
 2215SOL    HW2 8859   2.232   2.888   0.953 -0.1689 -0.1204 -0.7634
 2215SOL     MW 8860   2.253   2.969   0.978  0.3140 -0.6197  0.5783
 2216SOL     OW 8861   4.880   1.411   4.466  0.2935 -0.1516 -0.3126
 2216SOL    HW1 8862   4.785   1.406   4.478  0.3915  0.4710  0.9230
 2216SOL    HW2 8863   4.906   1.321   4.446 -0.4374 -0.5563  0.4680
 2216SOL     MW 8864   4.871   1.399   4.465  0.2125 -0.1237 -0.0545
 2217SOL     OW 8865   0.729   3.003   4.913 -0.3041  0.2302  0.3367
 2217SOL    HW1 8866   0.774   3.024   4.994 -0.7470 -0.0232  0.6521
 2217SOL    HW2 8867   0.644   3.046   4.921 -0.0371  0.9053 -0.3561
 2217SOL     MW 8868   0.724   3.011   4.924 -0.3266  0.2842  0.2884
 2218SOL     OW 8869   3.966   0.482   2.569 -0.2871 -0.7736 -0.0492
 2218SOL    HW1 8870   3.875   0.459   2.551 -0.7855 -0.1734  1.4865
 2218SOL    HW2 8871   4.010   0.398   2.582 -1.0389 -1.0235  0.9818
 2218SOL     MW 8872   3.960   0.469   2.568 -0.4472 -0.7288  0.2793
 2219SOL     OW 8873   3.490   1.341   1.291 -0.2071 -0.7916  0.2674
 2219SOL    HW1 8874   3.472   1.279   1.221 -1.0043 -0.1027 -0.1575
 2219SOL    HW2 8875   3.563   1.303   1.339 -0.3428 -1.7929 -0.2976
 2219SOL     MW 8876   3.497   1.328   1.289 -0.3265 -0.8316  0.1407
 2220SOL     OW 8877   2.016   2.984   2.573 -0.4495 -0.3858 -0.2789
 2220SOL    HW1 8878   2.086   2.968   2.636 -1.9242 -0.1689  1.5030
 2220SOL    HW2 8879   1.954   2.912   2.588 -1.7933  0.7777 -0.0241
 2220SOL     MW 8880   2.017   2.973   2.583 -0.8103 -0.2091 -0.0182
 2221SOL     OW 8881   4.763   0.684   2.177 -0.4423  0.4584  0.3697
 2221SOL    HW1 8882   4.814   0.660   2.099 -1.4351  0.9541 -0.4557
 2221SOL    HW2 8883   4.829   0.712   2.241  0.3313  1.1236 -0.6869
 2221SOL     MW 8884   4.778   0.685   2.175 -0.4704  0.6070  0.1288
 2222SOL     OW 8885   5.047   4.319   2.972  0.3479 -0.0189  0.2385
 2222SOL    HW1 8886   4.969   4.297   2.920  2.2317 -1.9737 -1.9860
 2222SOL    HW2 8887   5.060   4.413   2.957 -0.5830 -0.0356 -0.7865
 2222SOL     MW 8888   5.039   4.329   2.963  0.4699 -0.2713 -0.1775
 2223SOL     OW 8889   1.298   3.601   4.307  0.2936  0.0302  0.1677
 2223SOL    HW1 8890   1.209   3.575   4.282  0.5150  0.1853 -0.8137
 2223SOL    HW2 8891   1.355   3.548   4.250  0.8120  0.3942  0.3437
 2223SOL     MW 8892   1.294   3.591   4.296  0.3883  0.0967  0.0646
 2224SOL     OW 8893   0.599   2.558   2.650 -0.0078  0.8743 -0.4970
 2224SOL    HW1 8894   0.695   2.567   2.647  0.3644 -2.2678 -1.8783
 2224SOL    HW2 8895   0.574   2.601   2.732  2.7827  0.3524  0.7541
 2224SOL     MW 8896   0.608   2.565   2.660  0.3970  0.4053 -0.5137
 2225SOL     OW 8897   4.087   2.205   0.982  0.2588  0.3793 -0.3055
 2225SOL    HW1 8898   4.167   2.202   0.929  0.6279  0.1165  0.2628
 2225SOL    HW2 8899   4.109   2.263   1.055  0.0562 -0.0121  0.0633
 2225SOL     MW 8900   4.100   2.212   0.984  0.2801  0.2956 -0.1856
 2226SOL     OW 8901   3.231   0.191   2.850  0.5339 -0.1783  0.0448
 2226SOL    HW1 8902   3.191   0.147   2.775 -0.6642  1.2976 -0.2259
 2226SOL    HW2 8903   3.308   0.236   2.814 -1.5361  2.8227 -1.0018
 2226SOL     MW 8904   3.236   0.191   2.836  0.1155  0.3948 -0.1239
 2227SOL     OW 8905   4.117   3.780   3.875  0.0986  0.0484  0.5555
 2227SOL    HW1 8906   4.043   3.765   3.816  1.5926 -0.1658 -1.3629
 2227SOL    HW2 8907   4.077   3.791   3.962 -2.0322 -1.8606 -0.0886
 2227SOL     MW 8908   4.102   3.779   3.879  0.0171 -0.2234  0.2275
 2228SOL     OW 8909   2.794   1.616   4.765  0.0347 -0.3864 -0.6727
 2228SOL    HW1 8910   2.738   1.591   4.838 -1.4654 -1.7717 -2.2282
 2228SOL    HW2 8911   2.848   1.539   4.749  0.6446  0.0580 -0.7883
 2228SOL     MW 8912   2.794   1.603   4.772 -0.0793 -0.5068 -0.8866
 2229SOL     OW 8913   4.964   4.715   4.606  0.1013  0.4611  0.3423
 2229SOL    HW1 8914   5.044   4.750   4.644  0.1315  0.8875 -0.1082
 2229SOL    HW2 8915   4.917   4.791   4.572  0.2237  0.0728 -0.7530
 2229SOL     MW 8916   4.968   4.729   4.607  0.1208  0.4660  0.1444
 2230SOL     OW 8917   3.125   5.260   0.655 -0.0985 -0.0677 -0.0656
 2230SOL    HW1 8918   3.120   5.220   0.742  0.6582  0.5181  0.2688
 2230SOL    HW2 8919   3.124   5.354   0.673 -3.2802  0.1712 -0.8969
 2230SOL     MW 8920   3.124   5.267   0.669 -0.4089  0.0378 -0.1292
 2231SOL     OW 8921   0.310   2.523   0.025 -0.2902  0.5211  0.2458
 2231SOL    HW1 8922   0.328   2.616   0.039 -0.3636  0.8138 -1.3886
 2231SOL    HW2 8923   0.255   2.520  -0.053  0.7033 -0.9550 -0.4487
 2231SOL     MW 8924   0.306   2.534   0.017 -0.1724  0.3696 -0.0523
 2232SOL     OW 8925   4.683   3.632   1.682 -0.9929 -0.1463 -0.5598
 2232SOL    HW1 8926   4.700   3.549   1.637 -1.9219 -0.1912 -0.8466
 2232SOL    HW2 8927   4.591   3.626   1.709 -0.6178  0.1405  0.8207
 2232SOL     MW 8928   4.673   3.620   1.679 -1.0638 -0.1153 -0.4198
 2233SOL     OW 8929   3.927   0.378   1.872 -0.6142 -0.4470 -0.0594
 2233SOL    HW1 8930   3.895   0.302   1.824  0.6924 -1.0438 -0.0144
 2233SOL    HW2 8931   3.915   0.451   1.812  0.3451 -1.0710 -1.0309
 2233SOL     MW 8932   3.921   0.378   1.858 -0.3241 -0.6033 -0.1780
 2234SOL     OW 8933   2.835   0.917   0.040  0.1081 -0.2638 -0.1994
 2234SOL    HW1 8934   2.757   0.876   0.003  0.8745 -1.9564 -0.0199
 2234SOL    HW2 8935   2.832   0.894   0.133  0.9764 -0.6410 -0.2543
 2234SOL     MW 8936   2.825   0.909   0.047  0.3173 -0.5288 -0.1834
 2235SOL     OW 8937   5.114   0.389   1.148  0.4430 -0.3912 -0.1595
 2235SOL    HW1 8938   5.171   0.341   1.207 -0.0954 -0.4424  0.3331
 2235SOL    HW2 8939   5.026   0.374   1.182 -0.3377 -3.3275 -2.9478
 2235SOL     MW 8940   5.110   0.381   1.160  0.2741 -0.7736 -0.4534
 2236SOL     OW 8941   0.094   2.549   2.277 -0.8604  0.5556 -0.0910
 2236SOL    HW1 8942   0.072   2.641   2.263 -1.3249  0.7940  1.8936
 2236SOL    HW2 8943   0.139   2.547   2.361  0.1301 -0.9162 -0.6057
 2236SOL     MW 8944   0.097   2.561   2.286 -0.7931  0.3977  0.0971
 2237SOL     OW 8945   2.638   2.011   4.839 -0.6360  0.0905 -0.4620
 2237SOL    HW1 8946   2.710   1.991   4.899 -1.0210  0.5035  0.1554
 2237SOL    HW2 8947   2.593   1.927   4.826  0.4647 -0.3456 -1.5472
 2237SOL     MW 8948   2.641   1.998   4.845 -0.5444  0.0876 -0.5219
 2238SOL     OW 8949   3.385   4.649   0.268  0.4092  0.6519  0.0015
 2238SOL    HW1 8950   3.289   4.648   0.264  0.4328  1.9161 -2.0178
 2238SOL    HW2 8951   3.411   4.561   0.242 -0.1912  0.6179 -0.5072
 2238SOL     MW 8952   3.376   4.638   0.264  0.3353  0.8094 -0.3221
 2239SOL     OW 8953   4.416   0.995   2.401 -0.6324  0.0081 -0.0739
 2239SOL    HW1 8954   4.336   1.045   2.389 -0.8334 -0.3549 -0.2511
 2239SOL    HW2 8955   4.404   0.948   2.483 -0.4999  0.1419  0.0229
 2239SOL     MW 8956   4.404   0.996   2.410 -0.6411 -0.0213 -0.0842
 2240SOL     OW 8957   0.816   2.369   1.354  0.4495 -0.8085 -0.2611
 2240SOL    HW1 8958   0.795   2.412   1.437  0.2343  0.0447 -0.7370
 2240SOL    HW2 8959   0.895   2.415   1.323  0.1397 -0.6571 -0.8407
 2240SOL     MW 8960   0.823   2.381   1.361  0.3823 -0.6799 -0.3962
 2241SOL     OW 8961   2.184   2.363   4.732  0.1439  0.0866  0.6934
 2241SOL    HW1 8962   2.132   2.286   4.754 -0.2729 -0.1420 -0.9324
 2241SOL    HW2 8963   2.248   2.331   4.668  0.5340  0.9075  0.6635
 2241SOL     MW 8964   2.186   2.349   4.727  0.1405  0.1624  0.4814
 2242SOL     OW 8965   2.313   0.229   4.180 -0.0688 -0.0573  0.0812
 2242SOL    HW1 8966   2.269   0.166   4.123  0.5632  1.2275 -1.9305
 2242SOL    HW2 8967   2.246   0.293   4.202  0.0675  0.2986 -0.5325
 2242SOL     MW 8968   2.299   0.229   4.176  0.0295  0.1527 -0.2549
 2243SOL     OW 8969   2.480   4.962   2.929 -0.2267 -0.1637  0.5398
 2243SOL    HW1 8970   2.554   5.022   2.938  0.2968 -0.4973 -1.2167
 2243SOL    HW2 8971   2.517   4.884   2.887 -1.4127 -0.6362  0.3432
 2243SOL     MW 8972   2.494   4.960   2.925 -0.3115 -0.2669  0.2898
 2244SOL     OW 8973   1.563   2.094   2.634 -0.4581  0.0531 -0.3870
 2244SOL    HW1 8974   1.647   2.102   2.679 -1.1968  0.7952  0.9497
 2244SOL    HW2 8975   1.585   2.087   2.541  1.0619  0.4963 -0.0811
 2244SOL     MW 8976   1.577   2.094   2.628 -0.3581  0.2048 -0.1768
 2245SOL     OW 8977   4.164   4.945   2.717  0.3122  0.0456  0.1345
 2245SOL    HW1 8978   4.253   4.979   2.727  0.0718  0.7454 -0.0111
 2245SOL    HW2 8979   4.160   4.917   2.626  1.0088 -1.8885  0.6609
 2245SOL     MW 8980   4.175   4.946   2.707  0.3706 -0.1124  0.1833
 2246SOL     OW 8981   0.336   4.288   3.972 -0.1350  0.0132 -0.1545
 2246SOL    HW1 8982   0.353   4.216   4.033  1.0232  1.2250  1.0041
 2246SOL    HW2 8983   0.266   4.338   4.013  0.3134  0.5606 -0.0498
 2246SOL     MW 8984   0.329   4.285   3.985  0.0707  0.2384  0.0072
 2247SOL     OW 8985   4.395   4.084   3.470 -0.8108 -0.0128 -0.3563
 2247SOL    HW1 8986   4.342   4.026   3.415 -0.7054  1.5021 -2.1267
 2247SOL    HW2 8987   4.484   4.050   3.461 -0.8715 -0.0875 -0.6936
 2247SOL     MW 8988   4.400   4.072   3.462 -0.8051  0.1716 -0.6261
 2248SOL     OW 8989   3.004   2.053   4.879 -0.4550  0.2528  0.0440
 2248SOL    HW1 8990   2.922   2.101   4.871 -0.4639 -0.0380 -1.9939
 2248SOL    HW2 8991   3.058   2.082   4.806  1.5660  0.8925  1.6626
 2248SOL     MW 8992   3.001   2.063   4.869 -0.1974  0.2975 -0.0097
 2249SOL     OW 8993   2.868   0.028   1.971  0.1876 -0.0486  0.4584
 2249SOL    HW1 8994   2.923  -0.046   1.995 -0.0644 -0.0070  1.1959
 2249SOL    HW2 8995   2.829   0.003   1.887 -1.0794 -1.4293  1.3965
 2249SOL     MW 8996   2.870   0.015   1.963 -0.0069 -0.2200  0.6729
 2250SOL     OW 8997   5.247   4.577   5.330 -0.2173  0.1477 -0.0545
 2250SOL    HW1 8998   5.214   4.509   5.389 -1.3466  1.3038  0.7029
 2250SOL    HW2 8999   5.333   4.545   5.303 -0.2468 -1.0555  1.1489
 2250SOL     MW 9000   5.254   4.564   5.334 -0.3657  0.1417  0.1965
 2251SOL     OW 9001   2.073   5.419   3.805 -0.0686  0.1890 -0.1723
 2251SOL    HW1 9002   2.133   5.359   3.762  1.0150  1.9647 -1.3013
 2251SOL    HW2 9003   2.129   5.490   3.836 -1.3109  0.7340  0.9181
 2251SOL     MW 9004   2.088   5.421   3.804 -0.0889  0.4861 -0.1772
 2252SOL     OW 9005   2.149   5.196   2.405 -0.5064 -0.1341  0.3142
 2252SOL    HW1 9006   2.180   5.144   2.331  1.2756  0.0349  0.8808
 2252SOL    HW2 9007   2.157   5.287   2.376  0.7527 -0.0439  0.8728
 2252SOL     MW 9008   2.154   5.201   2.392 -0.1171 -0.1009  0.4583
 2253SOL     OW 9009   2.199   0.745   4.961 -0.0178 -0.1934 -0.2131
 2253SOL    HW1 9010   2.290   0.716   4.973 -0.9396 -2.9185  0.8205
 2253SOL    HW2 9011   2.203   0.841   4.970  2.7413 -0.2189 -0.3045
 2253SOL     MW 9012   2.211   0.754   4.963  0.2174 -0.5455 -0.0925
 2254SOL     OW 9013   4.565   2.113   0.459  0.3502  0.7394  0.5970
 2254SOL    HW1 9014   4.472   2.101   0.438 -0.0819  0.5357  2.4234
 2254SOL    HW2 9015   4.587   2.037   0.513  1.4067  1.1501  0.7637
 2254SOL     MW 9016   4.556   2.101   0.463  0.4301  0.7659  0.8521
 2255SOL     OW 9017   1.774   3.196   4.897  0.0780 -0.8590  0.1061
 2255SOL    HW1 9018   1.740   3.214   4.810  0.3489 -0.7139  0.0312
 2255SOL    HW2 9019   1.859   3.240   4.900 -0.1219 -0.4939  0.5955
 2255SOL     MW 9020   1.780   3.204   4.886  0.0871 -0.7937  0.1591
 2256SOL     OW 9021   4.973   3.701   4.216 -0.7617 -0.0579 -0.0719
 2256SOL    HW1 9022   5.068   3.694   4.203 -0.5008 -0.4001  1.6876
 2256SOL    HW2 9023   4.960   3.787   4.257 -1.1840 -0.1140 -0.0788
 2256SOL     MW 9024   4.983   3.711   4.220 -0.7824 -0.1089  0.1525
 2257SOL     OW 9025   4.185   0.608   1.345 -0.1801  0.2044  0.1304
 2257SOL    HW1 9026   4.266   0.660   1.343  0.3228 -0.4033  2.1389
 2257SOL    HW2 9027   4.184   0.563   1.261  0.7184  1.4593 -0.5984
 2257SOL     MW 9028   4.195   0.609   1.334 -0.0007  0.2872  0.2942
 2258SOL     OW 9029   3.923   5.173   3.286 -0.1910 -0.3180 -0.1584
 2258SOL    HW1 9030   3.832   5.188   3.259 -0.4075  1.0839  1.2028
 2258SOL    HW2 9031   3.923   5.084   3.322 -1.0140 -0.3667 -0.2490
 2258SOL     MW 9032   3.911   5.164   3.287 -0.3241 -0.1448  0.0042
 2259SOL     OW 9033   1.307   2.942   4.005  0.6023 -0.2093 -0.1794
 2259SOL    HW1 9034   1.291   2.947   4.099 -0.5824 -1.1339 -0.3050
 2259SOL    HW2 9035   1.365   3.016   3.986 -0.5698  1.0522  0.9797
 2259SOL     MW 9036   1.312   2.952   4.014  0.3006 -0.1662 -0.0471
 2260SOL     OW 9037   3.131   0.513   4.453  0.1543  0.1414 -0.6830
 2260SOL    HW1 9038   3.164   0.600   4.474 -2.3297  1.0426 -0.1917
 2260SOL    HW2 9039   3.072   0.526   4.379 -2.2241 -0.6312  0.9574
 2260SOL     MW 9040   3.128   0.526   4.446 -0.4682  0.1578 -0.4101
 2261SOL     OW 9041   4.470   2.688   3.866 -0.8327  0.4659 -0.1922
 2261SOL    HW1 9042   4.429   2.774   3.860 -2.1075  0.0464  1.4513
 2261SOL    HW2 9043   4.409   2.630   3.820 -1.2534  0.0982  0.7990
 2261SOL     MW 9044   4.457   2.692   3.860 -1.0497  0.3652  0.1451
 2262SOL     OW 9045   4.284   0.174   3.105 -0.0822  0.6037 -0.2363
 2262SOL    HW1 9046   4.358   0.221   3.065 -0.7492  2.4130  0.5466
 2262SOL    HW2 9047   4.262   0.226   3.182 -2.1072  0.0449 -0.4041
 2262SOL     MW 9048   4.291   0.187   3.110 -0.4268  0.7638 -0.1576
 2263SOL     OW 9049   0.651   3.977   1.342  0.5482  0.1677 -0.0905
 2263SOL    HW1 9050   0.591   4.051   1.352  0.7503  0.3311 -0.0738
 2263SOL    HW2 9051   0.605   3.904   1.383 -0.5456 -0.2155 -1.9031
 2263SOL     MW 9052   0.638   3.977   1.348  0.4341  0.1396 -0.3204
 2264SOL     OW 9053   2.576   1.066   0.644 -0.6347 -0.1923 -0.2298
 2264SOL    HW1 9054   2.556   1.126   0.573  0.1002 -0.0407 -0.3208
 2264SOL    HW2 9055   2.492   1.026   0.667 -0.8420 -0.4029 -1.3205
 2264SOL     MW 9056   2.563   1.068   0.638 -0.5672 -0.1999 -0.3811
 2265SOL     OW 9057   0.667   1.563   3.950  0.0226 -0.1439  0.4208
 2265SOL    HW1 9058   0.599   1.581   3.885 -0.6576 -1.5919  0.7042
 2265SOL    HW2 9059   0.736   1.626   3.930  0.7535 -1.8197 -3.0384
 2265SOL     MW 9060   0.667   1.574   3.939  0.0291 -0.5438  0.0143
 2266SOL     OW 9061   5.430   1.878   3.404  0.3367 -0.4114  0.5913
 2266SOL    HW1 9062   5.443   1.968   3.373 -0.4418 -0.5748 -0.2450
 2266SOL    HW2 9063   5.469   1.823   3.336  0.5756 -0.7164  0.9719
 2266SOL     MW 9064   5.437   1.882   3.392  0.2676 -0.4714  0.5330
 2267SOL     OW 9065   2.247   3.498   1.311 -0.5672 -0.0137 -0.0697
 2267SOL    HW1 9066   2.183   3.452   1.367  0.7365 -2.2217 -0.2866
 2267SOL    HW2 9067   2.248   3.448   1.230  0.0978  1.1132 -0.7821
 2267SOL     MW 9068   2.239   3.486   1.308 -0.3152 -0.1521 -0.1886
 2268SOL     OW 9069   2.898   3.706   2.208 -0.0592  0.4606  0.4044
 2268SOL    HW1 9070   2.892   3.714   2.303  0.2371 -1.1297  0.5862
 2268SOL    HW2 9071   2.811   3.677   2.180  0.1642 -0.1904  0.3498
 2268SOL     MW 9072   2.886   3.703   2.216  0.0074  0.1737  0.4207
 2269SOL     OW 9073   3.792   0.260   2.238 -0.6263 -0.4078 -0.0497
 2269SOL    HW1 9074   3.814   0.240   2.329 -1.2652 -0.3443  0.1254
 2269SOL    HW2 9075   3.876   0.278   2.196 -0.2757 -0.9335  0.4076
 2269SOL     MW 9076   3.805   0.259   2.244 -0.6632 -0.4669  0.0313
 2270SOL     OW 9077   1.703   4.392   3.373  0.5055 -0.5677 -0.4998
 2270SOL    HW1 9078   1.774   4.331   3.355  1.0989  0.3631 -1.4311
 2270SOL    HW2 9079   1.742   4.479   3.362 -0.2687  0.0133  0.9543
 2270SOL     MW 9080   1.717   4.396   3.369  0.4824 -0.3742 -0.4329
 2271SOL     OW 9081   1.817   2.678   4.344 -0.5482  0.0019 -0.3420
 2271SOL    HW1 9082   1.893   2.736   4.343  0.0548 -0.7766 -0.4703
 2271SOL    HW2 9083   1.744   2.735   4.367  0.2241  0.5811  0.7554
 2271SOL     MW 9084   1.817   2.692   4.347 -0.3721 -0.0236 -0.2180
 2272SOL     OW 9085   5.262   1.082   1.990 -0.6220  0.3788  0.2452
 2272SOL    HW1 9086   5.265   1.084   1.894 -0.2727 -0.8805  0.2058
 2272SOL    HW2 9087   5.181   1.128   2.013 -2.5796 -2.2676 -0.8316
 2272SOL     MW 9088   5.252   1.088   1.980 -0.8279 -0.1211  0.1023
 2273SOL     OW 9089   4.072   0.905   2.142  0.0121 -0.3120  0.0513
 2273SOL    HW1 9090   4.065   0.817   2.181 -1.3636  0.2411  1.1835
 2273SOL    HW2 9091   4.135   0.951   2.198 -0.0238 -0.2874  0.0720
 2273SOL     MW 9092   4.079   0.899   2.154 -0.1686 -0.2381  0.1989
 2274SOL     OW 9093   4.643   5.407   0.473 -0.0658 -0.3902 -0.1014
 2274SOL    HW1 9094   4.573   5.472   0.482  0.2176  0.3142 -2.2972
 2274SOL    HW2 9095   4.723   5.456   0.493 -0.0880 -1.0414  1.8011
 2274SOL     MW 9096   4.645   5.422   0.477 -0.0323 -0.3834 -0.1390
 2275SOL     OW 9097   2.405   0.212   3.292 -0.1912  0.3887 -0.2318
 2275SOL    HW1 9098   2.461   0.227   3.368 -2.0451 -0.7244  1.4451
 2275SOL    HW2 9099   2.370   0.298   3.269 -0.0424  0.6557  0.5413
 2275SOL     MW 9100   2.408   0.225   3.299 -0.4095  0.2804  0.0818
 2276SOL     OW 9101   3.277   3.471   1.582  0.4143 -0.3843 -0.0585
 2276SOL    HW1 9102   3.316   3.456   1.496  1.7731 -0.3232  0.5209
 2276SOL    HW2 9103   3.331   3.540   1.621 -0.9005  0.4197  0.4035
 2276SOL     MW 9104   3.289   3.478   1.576  0.4199 -0.2736  0.0748
 2277SOL     OW 9105   0.217   1.384   1.422 -0.0527  0.3693 -0.1352
 2277SOL    HW1 9106   0.230   1.299   1.464  0.5019 -0.1844 -1.3723
 2277SOL    HW2 9107   0.170   1.436   1.487  0.1958 -0.6613  0.9004
 2277SOL     MW 9108   0.213   1.380   1.435  0.0501  0.1665 -0.1610
 2278SOL     OW 9109   3.960   3.475   3.319  0.3235 -0.0614  0.2779
 2278SOL    HW1 9110   4.014   3.500   3.394  0.9682  0.1942 -0.2633
 2278SOL    HW2 9111   3.879   3.525   3.330  1.6118  2.4326 -0.8284
 2278SOL     MW 9112   3.957   3.485   3.330  0.5709  0.2906  0.0670
 2279SOL     OW 9113   0.252   5.145   3.897  0.0207 -0.1879 -0.1498
 2279SOL    HW1 9114   0.234   5.172   3.987  0.0061  0.2537 -0.2843
 2279SOL    HW2 9115   0.324   5.083   3.904 -1.8189 -2.4121  0.4767
 2279SOL     MW 9116   0.259   5.140   3.909 -0.2167 -0.4161 -0.0868
 2280SOL     OW 9117   4.377   4.711   4.892  0.4031 -0.0584  0.1151
 2280SOL    HW1 9118   4.381   4.674   4.804  1.9028 -1.7284  0.8167
 2280SOL    HW2 9119   4.383   4.636   4.950  0.5425  1.0807  1.6543
 2280SOL     MW 9120   4.378   4.697   4.888  0.6130 -0.1263  0.4019
 2281SOL     OW 9121   1.107   0.132   0.338  0.3793  0.1800 -0.6108
 2281SOL    HW1 9122   1.111   0.037   0.335 -0.4702  0.1247 -0.1708
 2281SOL    HW2 9123   1.167   0.161   0.268  0.3367 -0.6726 -1.0094
 2281SOL     MW 9124   1.115   0.124   0.328  0.2651  0.0637 -0.6055
 2282SOL     OW 9125   0.053   2.533   4.015 -0.4809 -0.2391  0.0565
 2282SOL    HW1 9126   0.145   2.507   4.010 -0.5956 -0.4812 -0.9099
 2282SOL    HW2 9127   0.055   2.628   4.015 -0.2083 -0.2406  0.5741
 2282SOL     MW 9128   0.065   2.542   4.015 -0.4607 -0.2703 -0.0010
 2283SOL     OW 9129   3.162   3.734   5.266 -0.4421 -0.0427  0.7810
 2283SOL    HW1 9130   3.152   3.780   5.349 -0.1098  1.2366  0.1408
 2283SOL    HW2 9131   3.103   3.779   5.206 -1.2774 -1.4512  0.4847
 2283SOL     MW 9132   3.153   3.745   5.269 -0.5065 -0.0592  0.6611
 2284SOL     OW 9133   2.092   5.098   1.590  0.1267  0.4089  0.3443
 2284SOL    HW1 9134   2.148   5.123   1.516  1.5356  0.6432  1.4522
 2284SOL    HW2 9135   2.052   5.181   1.618 -0.1694  0.3695  0.0453
 2284SOL     MW 9136   2.094   5.112   1.584  0.2691  0.4339  0.4479
 2285SOL     OW 9137   4.950   3.731   5.036 -0.1682  0.2237 -0.0520
 2285SOL    HW1 9138   5.045   3.733   5.027 -0.3630  0.8004 -3.2417
 2285SOL    HW2 9139   4.927   3.814   5.076  0.5971  0.7415 -0.6616
 2285SOL     MW 9140   4.959   3.742   5.040 -0.0952  0.3638 -0.5384
 2286SOL     OW 9141   1.553   2.916   0.065  0.1034  0.0435 -0.0426
 2286SOL    HW1 9142   1.558   2.949   0.155  2.6449  1.4479 -0.6115
 2286SOL    HW2 9143   1.559   2.821   0.074  0.7507  0.1797  1.2512
 2286SOL     MW 9144   1.554   2.908   0.078  0.5116  0.2407  0.0502
 2287SOL     OW 9145   4.899   0.329   2.330  0.7233 -0.2040 -0.0105
 2287SOL    HW1 9146   4.918   0.422   2.346 -1.5337  0.1436  0.9474
 2287SOL    HW2 9147   4.945   0.310   2.248  1.0716  1.8158 -0.3594
 2287SOL     MW 9148   4.908   0.339   2.322  0.4789  0.0991  0.0675
 2288SOL     OW 9149   2.465   1.733   4.822  0.0857  0.2722  0.2399
 2288SOL    HW1 9150   2.442   1.750   4.731 -0.1107  1.2530  0.4671
 2288SOL    HW2 9151   2.391   1.681   4.856 -0.0474  0.2782 -0.0403
 2288SOL     MW 9152   2.452   1.728   4.815  0.0435  0.3985  0.2331
 2289SOL     OW 9153   3.799   0.928   3.989 -0.0268 -0.2698 -0.1231
 2289SOL    HW1 9154   3.850   0.955   3.913 -0.2236  1.1195  0.2057
 2289SOL    HW2 9155   3.833   0.841   4.011  2.0977  0.5338 -0.0102
 2289SOL     MW 9156   3.809   0.920   3.982  0.2200  0.0109 -0.0666
 2290SOL     OW 9157   0.403   3.484   3.176  0.2259 -0.6857 -0.5596
 2290SOL    HW1 9158   0.338   3.531   3.228 -0.0805 -1.1041 -0.5605
 2290SOL    HW2 9159   0.371   3.394   3.173  1.1396 -1.0397 -0.0233
 2290SOL     MW 9160   0.391   3.479   3.182  0.3036 -0.7845 -0.4911
 2291SOL     OW 9161   3.547   0.730   1.233 -0.5316  0.2156 -0.1962
 2291SOL    HW1 9162   3.590   0.646   1.249  0.7426  0.8205 -0.3154
 2291SOL    HW2 9163   3.574   0.753   1.144 -2.2960 -0.0581 -0.8341
 2291SOL     MW 9164   3.556   0.722   1.224 -0.5943  0.2580 -0.2931
 2292SOL     OW 9165   4.768   2.707   2.868 -0.1921 -0.2974  0.2922
 2292SOL    HW1 9166   4.816   2.771   2.815  0.1182 -1.5287 -0.9610
 2292SOL    HW2 9167   4.836   2.668   2.924 -0.1807 -0.2912  0.2828
 2292SOL     MW 9168   4.783   2.710   2.868 -0.1509 -0.4542  0.1306
 2293SOL     OW 9169   4.087   0.880   3.786  0.2565 -0.2970  0.6651
 2293SOL    HW1 9170   4.080   0.860   3.693  0.6999 -1.4722  0.8626
 2293SOL    HW2 9171   4.034   0.814   3.830 -0.3268  0.5262  1.2304
 2293SOL     MW 9172   4.080   0.869   3.780  0.2386 -0.3421  0.7627
 2294SOL     OW 9173   0.074   1.291   0.377 -0.2537  0.1023  0.6496
 2294SOL    HW1 9174   0.149   1.303   0.319 -1.4021  2.0682 -0.5241
 2294SOL    HW2 9175   0.113   1.289   0.465  1.1476  2.1234  0.1640
 2294SOL     MW 9176   0.089   1.292   0.381 -0.2214  0.6127  0.4372
 2295SOL     OW 9177   2.084   2.843   0.163  0.2595  0.0772 -0.3306
 2295SOL    HW1 9178   1.999   2.812   0.133  0.8928 -1.2129 -0.8985
 2295SOL    HW2 9179   2.066   2.890   0.244 -1.1618  1.1642 -1.2217
 2295SOL     MW 9180   2.071   2.845   0.169  0.1586  0.0512 -0.5173
 2296SOL     OW 9181   2.961   1.189   3.638 -0.4486 -0.2233 -0.1163
 2296SOL    HW1 9182   2.911   1.124   3.588 -1.0040  1.3061 -1.6492
 2296SOL    HW2 9183   2.896   1.253   3.666  0.0774 -0.3329  1.4250
 2296SOL     MW 9184   2.946   1.189   3.635 -0.4524 -0.0415 -0.1152
 2297SOL     OW 9185   5.070   2.022   1.662 -0.2756 -0.4240 -0.5853
 2297SOL    HW1 9186   5.126   1.967   1.607  0.0231 -0.5767 -0.1278
 2297SOL    HW2 9187   4.991   2.035   1.610 -0.0400 -0.6618 -1.0053
 2297SOL     MW 9188   5.067   2.017   1.648 -0.2072 -0.4740 -0.5805
 2298SOL     OW 9189   5.149   0.883   0.466 -0.0934  0.3407 -0.2934
 2298SOL    HW1 9190   5.070   0.932   0.489  0.5145  1.3846 -0.3843
 2298SOL    HW2 9191   5.207   0.948   0.426  1.4129 -0.0594  1.1246
 2298SOL     MW 9192   5.146   0.898   0.464  0.1772  0.4231 -0.1235
 2299SOL     OW 9193   2.091   0.830   5.314  0.0974  0.1672  0.6095
 2299SOL    HW1 9194   2.039   0.798   5.240  0.1025 -2.0078  1.4548
 2299SOL    HW2 9195   2.037   0.812   5.391  0.6701  1.0750  1.2373
 2299SOL     MW 9196   2.078   0.823   5.314  0.1714  0.0050  0.7981
 2300SOL     OW 9197   4.134   5.293   1.422 -0.2145  0.2426 -0.4390
 2300SOL    HW1 9198   4.052   5.244   1.430 -1.8913  3.0106  0.6343
 2300SOL    HW2 9199   4.182   5.273   1.503  0.0109 -0.9868 -0.8441
 2300SOL     MW 9200   4.130   5.284   1.433 -0.4003  0.4396 -0.3535
 2301SOL     OW 9201   0.467   5.480   0.066  0.4151  0.0031  0.6429
 2301SOL    HW1 9202   0.489   5.425   0.141 -1.5230 -0.1751  1.1473
 2301SOL    HW2 9203   0.458   5.568   0.103 -0.5077 -0.0775  0.6311
 2301SOL     MW 9204   0.468   5.484   0.081  0.0489 -0.0300  0.7060
 2302SOL     OW 9205   4.064   1.931   1.794 -0.5878  0.0385 -0.2744
 2302SOL    HW1 9206   4.094   1.841   1.792  1.5716  0.7094 -0.9232
 2302SOL    HW2 9207   4.066   1.956   1.886  0.3370 -0.1249 -0.2434
 2302SOL     MW 9208   4.068   1.923   1.805 -0.1929  0.1035 -0.3535
 2303SOL     OW 9209   1.975   0.679   5.121 -0.1557 -0.8089  0.3121
 2303SOL    HW1 9210   1.986   0.607   5.183 -2.9073 -0.8412  0.8877
 2303SOL    HW2 9211   2.063   0.693   5.085  1.2039 -1.9158  2.9222
 2303SOL     MW 9212   1.988   0.671   5.124 -0.3339 -0.9548  0.7199
 2304SOL     OW 9213   1.847   2.364   4.627 -0.0494  0.2892  0.1564
 2304SOL    HW1 9214   1.817   2.288   4.577 -0.4558 -0.1606  1.0554
 2304SOL    HW2 9215   1.929   2.390   4.584 -1.2591  1.0472 -1.8667
 2304SOL     MW 9216   1.853   2.358   4.615 -0.2563  0.3286  0.0125
 2305SOL     OW 9217   5.304   4.801   2.810  0.2425 -0.0812 -0.8041
 2305SOL    HW1 9218   5.356   4.822   2.888 -1.0290  1.0125 -0.2095
 2305SOL    HW2 9219   5.366   4.806   2.738  0.7401  2.6470 -0.2971
 2305SOL     MW 9220   5.319   4.805   2.811  0.1434  0.4080 -0.6631
 2306SOL     OW 9221   1.897   3.678   3.714 -0.0696  0.0237  0.0113
 2306SOL    HW1 9222   1.837   3.742   3.675  0.4519  0.8355  0.5134
 2306SOL    HW2 9223   1.949   3.646   3.640 -0.8978 -0.4511 -0.3748
 2306SOL     MW 9224   1.896   3.682   3.699 -0.1089  0.0669  0.0262
 2307SOL     OW 9225   1.995   2.086   1.188  0.7735 -0.2659  0.0040
 2307SOL    HW1 9226   2.002   2.104   1.094 -0.5671  0.0884 -0.0415
 2307SOL    HW2 9227   1.966   2.168   1.226 -1.6962 -1.2116  0.3052
 2307SOL     MW 9228   1.992   2.099   1.181  0.2858 -0.3416  0.0367
 2308SOL     OW 9229   0.565   3.088   1.618 -0.1681 -0.2550  0.3360
 2308SOL    HW1 9230   0.518   3.153   1.566 -0.3858  0.0977  0.9541
 2308SOL    HW2 9231   0.648   3.131   1.640  0.5681 -0.9658 -0.9529
 2308SOL     MW 9232   0.569   3.102   1.614 -0.1017 -0.3008  0.2502
 2309SOL     OW 9233   0.589   3.003   0.838 -0.4935  0.0822  0.3400
 2309SOL    HW1 9234   0.625   3.038   0.756 -0.4294  0.7573  0.6509
 2309SOL    HW2 9235   0.626   3.059   0.906  1.0248 -1.6295  1.0390
 2309SOL     MW 9236   0.599   3.015   0.836 -0.2910 -0.0505  0.4693
 2310SOL     OW 9237   4.926   3.715   2.163  0.1619 -0.5377 -0.0323
 2310SOL    HW1 9238   4.883   3.657   2.226 -1.7269 -0.0253 -0.7836
 2310SOL    HW2 9239   4.864   3.721   2.090 -0.2179  3.1362  0.4120
 2310SOL     MW 9240   4.913   3.709   2.162 -0.1285 -0.0018 -0.0716
 2311SOL     OW 9241   0.364   1.526   0.540  0.2777 -0.0938 -0.1422
 2311SOL    HW1 9242   0.442   1.491   0.498 -0.3132 -1.5653 -0.0607
 2311SOL    HW2 9243   0.335   1.458   0.600 -0.6201  0.7441  0.4162
 2311SOL     MW 9244   0.370   1.513   0.542  0.0871 -0.1749 -0.0603
 2312SOL     OW 9245   5.080   4.712   2.227  0.0399 -0.5485  0.2097
 2312SOL    HW1 9246   5.046   4.687   2.313 -0.0593 -0.7545  0.1118
 2312SOL    HW2 9247   5.105   4.804   2.237 -1.0420 -0.2285  0.1426
 2312SOL     MW 9248   5.079   4.721   2.239 -0.1113 -0.5339  0.1886
 2313SOL     OW 9249   4.256   0.699   4.962  0.0839 -0.2662 -0.7694
 2313SOL    HW1 9250   4.293   0.657   5.039 -0.0090 -0.5347 -0.8682
 2313SOL    HW2 9251   4.305   0.662   4.888  0.5534  0.4051 -0.8022
 2313SOL     MW 9252   4.267   0.689   4.962  0.1321 -0.2147 -0.7862
 2314SOL     OW 9253   4.739   3.648   3.222  0.0465 -0.0696  0.4097
 2314SOL    HW1 9254   4.671   3.698   3.177  0.0122  0.6510  1.2309
 2314SOL    HW2 9255   4.705   3.559   3.226 -0.5300  0.1343  0.1794
 2314SOL     MW 9256   4.726   3.643   3.217 -0.0317  0.0487  0.4853
 2315SOL     OW 9257   0.531   0.766   4.895  0.3705  0.2268  0.8572
 2315SOL    HW1 9258   0.525   0.842   4.953  2.2486  0.4855  0.7756
 2315SOL    HW2 9259   0.539   0.803   4.807 -0.4389 -0.1174  0.6324
 2315SOL     MW 9260   0.531   0.780   4.891  0.5073  0.2159  0.8180
 2316SOL     OW 9261   3.014   0.454   3.657 -0.0992 -0.1796  0.1712
 2316SOL    HW1 9262   2.967   0.382   3.616  0.1470 -0.1477 -0.1696
 2316SOL    HW2 9263   3.105   0.443   3.630 -0.1064  0.4241 -0.1193
 2316SOL     MW 9264   3.020   0.443   3.649 -0.0686 -0.0983  0.0904
 2317SOL     OW 9265  -0.022   0.423   0.325  0.2172 -0.1465 -0.2415
 2317SOL    HW1 9266   0.071   0.404   0.329  0.4987  0.7824 -1.6811
 2317SOL    HW2 9267  -0.029   0.515   0.350 -0.4839 -0.5586  1.1751
 2317SOL     MW 9268  -0.011   0.432   0.328  0.1635 -0.0804 -0.2445
 2318SOL     OW 9269   1.922   1.610   3.941  0.8161  0.0904  0.4885
 2318SOL    HW1 9270   2.004   1.631   3.897  1.6679 -1.4798  1.2156
 2318SOL    HW2 9271   1.905   1.685   3.997  1.0920  0.9714 -0.5623
 2318SOL     MW 9272   1.930   1.622   3.942  0.9605  0.0022  0.4471
 2319SOL     OW 9273   0.443   4.935   5.210  0.0549 -0.4589  0.1106
 2319SOL    HW1 9274   0.384   4.979   5.270  0.5847 -0.6010  0.7466
 2319SOL    HW2 9275   0.456   4.998   5.138  0.3484  0.1959  0.7247
 2319SOL     MW 9276   0.437   4.949   5.208  0.1603 -0.3933  0.2706
 2320SOL     OW 9277   1.339   1.813   0.645 -0.1688  0.2313  0.2127
 2320SOL    HW1 9278   1.403   1.760   0.694  2.1470  2.2423 -0.4278
 2320SOL    HW2 9279   1.334   1.770   0.559 -0.5038 -0.5328  0.6027
 2320SOL     MW 9280   1.347   1.800   0.640  0.0848  0.3909  0.1807
 2321SOL     OW 9281   4.522   2.262   0.904  0.1933  0.2652  0.3656
 2321SOL    HW1 9282   4.614   2.284   0.918  0.5689 -0.0938 -1.3695
 2321SOL    HW2 9283   4.474   2.342   0.924  1.0764  1.0907 -0.7151
 2321SOL     MW 9284   4.527   2.275   0.909  0.3544  0.3249  0.0052
 2322SOL     OW 9285  -0.025   1.957   1.534  0.3857 -0.4635 -0.1901
 2322SOL    HW1 9286   0.047   1.959   1.471  1.2386 -0.2055  0.7779
 2322SOL    HW2 9287   0.013   1.989   1.616 -0.6484 -0.9934  0.5225
 2322SOL     MW 9288  -0.011   1.962   1.536  0.3625 -0.4983  0.0251
 2323SOL     OW 9289   3.068   5.346   3.481  0.7416 -0.0203 -0.2942
 2323SOL    HW1 9290   3.048   5.276   3.419 -0.6709 -1.6732  1.8597
 2323SOL    HW2 9291   2.990   5.402   3.481  0.8875  0.1838 -0.2878
 2323SOL     MW 9292   3.056   5.344   3.473  0.5795 -0.2058 -0.0176
 2324SOL     OW 9293   4.493   1.090   4.345  0.0670 -0.3636  0.3629
 2324SOL    HW1 9294   4.514   1.003   4.313  0.3642 -0.4480  0.7742
 2324SOL    HW2 9295   4.397   1.094   4.346  0.0041  0.3252 -2.3492
 2324SOL     MW 9296   4.483   1.079   4.341  0.0970 -0.2863  0.0684
 2325SOL     OW 9297   5.246   4.028   4.415 -0.3905  0.5925  0.2398
 2325SOL    HW1 9298   5.210   3.940   4.411  2.6462 -0.8401  1.5092
 2325SOL    HW2 9299   5.224   4.059   4.503 -0.0918  0.4510  0.3650
 2325SOL     MW 9300   5.239   4.021   4.426  0.0365  0.3910  0.4183
 2326SOL     OW 9301   3.046   5.014   1.528 -0.6257  0.5299  0.3354
 2326SOL    HW1 9302   3.134   5.023   1.564 -0.9214  1.5706  0.8246
 2326SOL    HW2 9303   3.022   5.102   1.501 -0.0728 -0.2742 -3.3145
 2326SOL     MW 9304   3.054   5.026   1.529 -0.5928  0.5602 -0.0692
 2327SOL     OW 9305   2.399   2.267   2.053  0.2648 -0.1222  0.2873
 2327SOL    HW1 9306   2.331   2.250   2.118  0.8011  1.4623  1.3261
 2327SOL    HW2 9307   2.468   2.204   2.073 -0.0823 -0.4516  0.4609
 2327SOL     MW 9308   2.399   2.257   2.064  0.2890  0.0385  0.4425
 2328SOL     OW 9309   2.000   2.873   0.677  0.1592 -0.1729  0.5245
 2328SOL    HW1 9310   2.020   2.966   0.675  0.2613 -0.1974  0.3146
 2328SOL    HW2 9311   2.059   2.837   0.743 -0.0094 -0.0589  0.7355
 2328SOL     MW 9312   2.010   2.880   0.685  0.1507 -0.1615  0.5246
 2329SOL     OW 9313   3.918   5.131   1.408  0.3683 -0.2178  0.4934
 2329SOL    HW1 9314   3.896   5.039   1.423  1.8200 -0.4536  1.3144
 2329SOL    HW2 9315   3.933   5.137   1.313  1.1690 -1.0418  0.5542
 2329SOL     MW 9316   3.917   5.120   1.398  0.6566 -0.3535  0.6063
 2330SOL     OW 9317   4.777   4.606   0.466 -0.3128  0.4875  0.4393
 2330SOL    HW1 9318   4.840   4.554   0.515  0.5634 -0.2270 -1.3358
 2330SOL    HW2 9319   4.691   4.576   0.497  0.2064 -0.3717  1.0847
 2330SOL     MW 9320   4.774   4.596   0.476 -0.1342  0.2860  0.2947
 2331SOL     OW 9321   3.804   2.301   2.330 -0.2167  0.0791 -0.1461
 2331SOL    HW1 9322   3.813   2.246   2.252 -2.7346 -0.6638  0.0010
 2331SOL    HW2 9323   3.758   2.379   2.299 -2.8908 -1.0207  0.8353
 2331SOL     MW 9324   3.800   2.304   2.316 -0.8813 -0.1568 -0.0016
 2332SOL     OW 9325   5.275   3.099   1.977 -0.0160 -0.1819 -0.7895
 2332SOL    HW1 9326   5.254   3.082   2.069 -0.8997  1.7507 -0.5873
 2332SOL    HW2 9327   5.320   3.020   1.948  4.5048  0.6963  2.5589
 2332SOL     MW 9328   5.278   3.087   1.985  0.4496  0.1779 -0.3350
 2333SOL     OW 9329   2.161   1.438   3.345 -0.0070  0.1534  0.1091
 2333SOL    HW1 9330   2.218   1.435   3.268 -0.5746 -0.6814 -0.2972
 2333SOL    HW2 9331   2.221   1.435   3.419  0.5188  0.2090 -0.3049
 2333SOL     MW 9332   2.176   1.437   3.344 -0.0124  0.0537  0.0041
 2334SOL     OW 9333   4.295   3.883   3.313  0.0272 -0.0106  0.0738
 2334SOL    HW1 9334   4.384   3.882   3.278  0.3760 -3.7321  0.6426
 2334SOL    HW2 9335   4.240   3.910   3.239  1.4215  0.1112 -0.9459
 2334SOL     MW 9336   4.299   3.886   3.299  0.2503 -0.4714  0.0161
 2335SOL     OW 9337   3.357   0.179   0.620 -0.3752  0.3031  0.0371
 2335SOL    HW1 9338   3.424   0.182   0.688 -0.2554 -2.4155  0.1536
 2335SOL    HW2 9339   3.362   0.090   0.585 -1.3444  1.1853 -2.6368
 2335SOL     MW 9340   3.367   0.168   0.624 -0.4840  0.0680 -0.2903
 2336SOL     OW 9341   4.910   2.212   2.372  0.2265 -0.2315  0.5407
 2336SOL    HW1 9342   4.848   2.254   2.432 -1.4889 -1.7552 -0.0470
 2336SOL    HW2 9343   4.968   2.161   2.428 -1.0601 -1.2655  0.9892
 2336SOL     MW 9344   4.909   2.211   2.387 -0.1578 -0.5589  0.5229
 2337SOL     OW 9345   2.461   0.296   0.923 -0.0796 -0.9023  0.2627
 2337SOL    HW1 9346   2.383   0.351   0.930 -0.0651 -0.9560  0.9418
 2337SOL    HW2 9347   2.525   0.338   0.981 -0.1066 -1.6805  0.8862
 2337SOL     MW 9348   2.459   0.308   0.932 -0.0812 -1.0088  0.4295
 2338SOL     OW 9349   5.414   0.435   5.332  0.0980  0.6782 -0.5028
 2338SOL    HW1 9350   5.471   0.410   5.260  1.7346 -2.0716  1.5439
 2338SOL    HW2 9351   5.325   0.421   5.299  0.7981 -0.5110 -2.0107
 2338SOL     MW 9352   5.410   0.430   5.319  0.3971  0.1739 -0.4339
 2339SOL     OW 9353   2.097   0.706   2.384  0.2298  0.5617 -0.6229
 2339SOL    HW1 9354   2.082   0.689   2.292 -3.1857 -1.3892  0.1232
 2339SOL    HW2 9355   2.053   0.790   2.401 -2.1175 -0.6667 -0.2441
 2339SOL     MW 9356   2.089   0.715   2.375 -0.5079  0.1547 -0.4789
 2340SOL     OW 9357   1.829   4.532   1.772  0.1726 -0.3512  0.2123
 2340SOL    HW1 9358   1.825   4.443   1.808  1.9032  0.5217  2.8748
 2340SOL    HW2 9359   1.916   4.564   1.796 -0.9110  2.5681  0.6696
 2340SOL     MW 9360   1.840   4.524   1.780  0.2554  0.1342  0.6117
 2341SOL     OW 9361   3.477   3.392   0.945  0.1242 -0.1662 -0.0580
 2341SOL    HW1 9362   3.450   3.379   0.854  2.1717  1.7044 -1.0214
 2341SOL    HW2 9363   3.421   3.463   0.976 -0.2731 -0.5085  0.0254
 2341SOL     MW 9364   3.466   3.399   0.937  0.3355  0.0294 -0.1707
 2342SOL     OW 9365   3.117   1.526   2.099 -0.1897  0.0350  0.5070
 2342SOL    HW1 9366   3.037   1.483   2.129  0.3588 -1.6485 -0.3107
 2342SOL    HW2 9367   3.170   1.535   2.177 -1.6054  2.3065  1.3098
 2342SOL     MW 9368   3.113   1.521   2.113 -0.3007  0.1103  0.5051
 2343SOL     OW 9369   1.481   4.709   3.523 -0.1424  0.6129  0.1467
 2343SOL    HW1 9370   1.519   4.670   3.445 -0.8638  1.4699 -0.6612
 2343SOL    HW2 9371   1.481   4.639   3.588 -1.5053 -0.7878 -1.2687
 2343SOL     MW 9372   1.486   4.695   3.522 -0.4092  0.5433 -0.1379
 2344SOL     OW 9373   2.974   3.766   1.491  0.2692  0.2947  0.3418
 2344SOL    HW1 9374   2.968   3.818   1.411  0.7229  0.5540  0.4652
 2344SOL    HW2 9375   2.962   3.830   1.562 -0.5150  0.0058  0.4794
 2344SOL     MW 9376   2.972   3.781   1.490  0.2269  0.2909  0.3752
 2345SOL     OW 9377   3.906   0.874   1.054 -0.4324 -0.1097  0.2040
 2345SOL    HW1 9378   3.816   0.905   1.038 -0.6951 -0.2983  1.2343
 2345SOL    HW2 9379   3.929   0.828   0.974 -0.8142  0.9384 -0.5409
 2345SOL     MW 9380   3.897   0.872   1.042 -0.5149  0.0004  0.2405
 2346SOL     OW 9381   4.832   2.322   1.942  0.1506  0.4006  0.0045
 2346SOL    HW1 9382   4.738   2.329   1.921  0.0961 -0.1869  0.0576
 2346SOL    HW2 9383   4.876   2.363   1.867 -0.1477  0.7798  0.0300
 2346SOL     MW 9384   4.825   2.328   1.930  0.1054  0.3740  0.0146
 2347SOL     OW 9385   2.830   1.561   4.052  0.2484 -0.2799  0.2747
 2347SOL    HW1 9386   2.797   1.476   4.081 -1.8193  0.0878 -0.8360
 2347SOL    HW2 9387   2.822   1.618   4.129 -1.7973 -0.2055  0.0411
 2347SOL     MW 9388   2.825   1.558   4.066 -0.2781 -0.2233  0.1026
 2348SOL     OW 9389   1.284   4.071   0.362 -0.4031 -0.3177  0.2572
 2348SOL    HW1 9390   1.324   4.066   0.275 -1.6800  0.7686 -0.4449
 2348SOL    HW2 9391   1.279   3.981   0.392  0.2223 -0.6908 -0.7336
 2348SOL     MW 9392   1.288   4.059   0.355 -0.4865 -0.2264  0.0405
 2349SOL     OW 9393   2.722   0.825   0.598 -0.3029  0.4765  0.1630
 2349SOL    HW1 9394   2.704   0.917   0.617  0.5764  0.8867 -0.8832
 2349SOL    HW2 9395   2.734   0.822   0.504  0.6538 -0.5294  0.2978
 2349SOL     MW 9396   2.721   0.837   0.589 -0.0679  0.4002  0.0463
 2350SOL     OW 9397   1.472   1.863   0.951  0.3028  0.7211 -0.5415
 2350SOL    HW1 9398   1.413   1.804   0.999  0.4123  0.3282 -0.8794
 2350SOL    HW2 9399   1.419   1.941   0.935  1.0594  1.9593  2.4592
 2350SOL     MW 9400   1.458   1.865   0.955  0.4137  0.8293 -0.2006
 2351SOL     OW 9401   3.001   4.254   1.897 -0.0303  0.0349  0.0388
 2351SOL    HW1 9402   3.075   4.312   1.916 -0.7379  0.5711  1.2134
 2351SOL    HW2 9403   3.011   4.180   1.957  0.2454 -0.5399 -0.6884
 2351SOL     MW 9404   3.012   4.252   1.907 -0.0856  0.0299  0.0961
 2352SOL     OW 9405   2.714   0.826   0.972  0.5275 -0.5725 -0.4368
 2352SOL    HW1 9406   2.747   0.798   1.057  1.1351  1.0834 -0.0957
 2352SOL    HW2 9407   2.660   0.753   0.942  0.4527 -1.2616  1.2745
 2352SOL     MW 9408   2.711   0.813   0.979  0.5957 -0.4487 -0.1741
 2353SOL     OW 9409   4.998   1.147   3.844 -0.5979 -0.3275  0.2864
 2353SOL    HW1 9410   4.974   1.236   3.870  0.7496 -0.0171  0.5593
 2353SOL    HW2 9411   5.051   1.159   3.765  0.0639 -0.8254  0.6404
 2353SOL     MW 9412   5.002   1.160   3.837 -0.3407 -0.3515  0.3667
 2354SOL     OW 9413   2.462   2.597   3.147  0.0421 -0.6748  0.0973
 2354SOL    HW1 9414   2.466   2.690   3.124  0.4006 -0.7580 -0.1712
 2354SOL    HW2 9415   2.457   2.551   3.063 -1.0475 -0.8574  0.2474
 2354SOL     MW 9416   2.462   2.603   3.134 -0.0515 -0.7088  0.0821
 2355SOL     OW 9417   4.931   0.712   4.000  0.1210  0.2071 -0.5047
 2355SOL    HW1 9418   4.983   0.727   3.921 -1.9053  0.2355 -1.9099
 2355SOL    HW2 9419   4.948   0.620   4.022 -0.5679 -0.3122 -2.0021
 2355SOL     MW 9420   4.940   0.702   3.993 -0.2266  0.1443 -0.8763
 2356SOL     OW 9421   3.526   1.467   1.033 -0.0665  0.1246  0.9756
 2356SOL    HW1 9422   3.527   1.419   1.115 -0.4492 -0.1563  0.8227
 2356SOL    HW2 9423   3.452   1.527   1.041  0.8379  1.2059  1.4457
 2356SOL     MW 9424   3.516   1.469   1.044  0.0003  0.2271  1.0162
 2357SOL     OW 9425   1.758   5.303   0.596 -0.3018 -0.6576 -0.0438
 2357SOL    HW1 9426   1.724   5.388   0.568  0.2081 -0.9484 -1.6144
 2357SOL    HW2 9427   1.693   5.272   0.660 -1.9486 -0.2877 -1.4470
 2357SOL     MW 9428   1.745   5.310   0.601 -0.4474 -0.6475 -0.4245
 2358SOL     OW 9429   3.374   4.104   2.205  0.1786 -0.1308  0.1087
 2358SOL    HW1 9430   3.454   4.106   2.257 -0.3702 -0.9457  1.0172
 2358SOL    HW2 9431   3.326   4.183   2.232  0.2528 -0.1364  0.2551
 2358SOL     MW 9432   3.378   4.115   2.215  0.1178 -0.2358  0.2437
 2359SOL     OW 9433   4.051   1.540   4.839 -0.2801 -0.1902  0.5372
 2359SOL    HW1 9434   4.009   1.575   4.917 -1.5964  1.1586 -0.7092
 2359SOL    HW2 9435   4.139   1.577   4.840 -0.5464  0.4475  1.0022
 2359SOL     MW 9436   4.057   1.549   4.849 -0.4827  0.0641  0.4372
 2360SOL     OW 9437   2.046   0.430   0.795  0.1511 -0.0130  0.1763
 2360SOL    HW1 9438   2.022   0.456   0.884 -0.6034  0.9693 -0.2930
 2360SOL    HW2 9439   2.128   0.478   0.778  0.4102 -0.3660  0.4053
 2360SOL     MW 9440   2.054   0.440   0.805  0.0877  0.0676  0.1456
 2361SOL     OW 9441   5.301   0.715   3.534 -0.4879  0.4434 -0.0219
 2361SOL    HW1 9442   5.243   0.724   3.609  1.3581  2.1022  1.3258
 2361SOL    HW2 9443   5.378   0.670   3.569 -0.8411 -1.5830 -1.7143
 2361SOL     MW 9444   5.303   0.711   3.548 -0.2968  0.3963 -0.0660
 2362SOL     OW 9445   4.265   1.778   0.496 -0.2589  0.2049  0.0829
 2362SOL    HW1 9446   4.213   1.847   0.536  2.2243  2.0291  0.4187
 2362SOL    HW2 9447   4.242   1.781   0.403 -0.7980  0.8841  0.2323
 2362SOL     MW 9448   4.255   1.787   0.489 -0.0100  0.5254  0.1450
 2363SOL     OW 9449   1.823   5.183   2.190  0.1369 -0.3571  0.0358
 2363SOL    HW1 9450   1.845   5.146   2.276 -0.1114 -1.7473 -0.4792
 2363SOL    HW2 9451   1.903   5.227   2.162  0.3604 -0.2692  0.7805
 2363SOL     MW 9452   1.836   5.184   2.198  0.1337 -0.5238  0.0652
 2364SOL     OW 9453   3.615   1.153   1.523  0.5381 -0.3025  0.6372
 2364SOL    HW1 9454   3.564   1.093   1.578  0.6525 -1.9057 -0.9189
 2364SOL    HW2 9455   3.693   1.103   1.499  1.2665  0.9465  0.3325
 2364SOL     MW 9456   3.618   1.139   1.527  0.6460 -0.3478  0.3990
 2365SOL     OW 9457   5.466   1.217   4.104  0.0626  0.2377  0.1066
 2365SOL    HW1 9458   5.509   1.296   4.137 -0.7857  1.0903 -0.7516
 2365SOL    HW2 9459   5.461   1.231   4.009 -1.0899 -0.3329  0.0683
 2365SOL     MW 9460   5.471   1.229   4.096 -0.1935  0.2738 -0.0082
 2366SOL     OW 9461   1.930   0.505   1.852 -0.2865 -0.4819 -0.4621
 2366SOL    HW1 9462   1.951   0.585   1.805 -0.9297 -0.7763 -1.2740
 2366SOL    HW2 9463   1.900   0.535   1.938  2.5226 -0.0064  0.4628
 2366SOL     MW 9464   1.929   0.519   1.857 -0.0092 -0.4587 -0.4476
 2367SOL     OW 9465   1.682   5.450   1.118 -0.6482 -0.7048  0.0014
 2367SOL    HW1 9466   1.632   5.455   1.199  1.0466 -1.2609  1.1450
 2367SOL    HW2 9467   1.691   5.356   1.102  1.1137 -0.6710  0.5814
 2367SOL     MW 9468   1.677   5.439   1.126 -0.2057 -0.7717  0.2220
 2368SOL     OW 9469   3.841   4.230   0.982  0.4384  0.2570  0.2192
 2368SOL    HW1 9470   3.861   4.258   0.892  0.6085  1.3568  0.5865
 2368SOL    HW2 9471   3.792   4.149   0.971  1.9594 -0.5755 -0.8191
 2368SOL     MW 9472   3.837   4.223   0.969  0.6549  0.2912  0.1333
 2369SOL     OW 9473   1.644   1.128   1.277  0.3485  0.5946  0.0606
 2369SOL    HW1 9474   1.732   1.157   1.254  0.3023  0.6114 -0.0962
 2369SOL    HW2 9475   1.632   1.048   1.227  0.5301  0.2198  0.6018
 2369SOL     MW 9476   1.654   1.121   1.268  0.3658  0.5488  0.1098
 2370SOL     OW 9477   3.834   0.197   3.954  0.8585 -0.4164  1.1275
 2370SOL    HW1 9478   3.882   0.152   4.024  0.9601  0.9263  1.9453
 2370SOL    HW2 9479   3.750   0.219   3.994  0.3806 -0.8432  0.3775
 2370SOL     MW 9480   3.830   0.194   3.968  0.8103 -0.2992  1.1361
 2371SOL     OW 9481   1.413   3.393   2.246  0.2086  0.1529 -0.1389
 2371SOL    HW1 9482   1.470   3.402   2.322  0.9401  0.7320 -0.7437
 2371SOL    HW2 9483   1.394   3.483   2.219 -1.3039 -0.0189  0.2697
 2371SOL     MW 9484   1.418   3.406   2.252  0.1086  0.2050 -0.1640
 2372SOL     OW 9485   1.295   2.162   3.925  0.0270  0.5298 -0.3307
 2372SOL    HW1 9486   1.314   2.256   3.926 -1.5104  0.9663  3.2496
 2372SOL    HW2 9487   1.200   2.157   3.912 -0.4688 -0.1881  2.8138
 2372SOL     MW 9488   1.285   2.173   3.924 -0.2333  0.4938  0.5302
 2373SOL     OW 9489   4.061   3.849   1.910  0.7347  0.0974 -0.1130
 2373SOL    HW1 9490   4.042   3.757   1.897 -0.4590  0.4224 -0.8287
 2373SOL    HW2 9491   4.109   3.875   1.831  1.2348  0.0604  0.1717
 2373SOL     MW 9492   4.065   3.841   1.898  0.6459  0.1343 -0.1682
 2374SOL     OW 9493   3.802   3.419   2.670  0.5918  0.4613 -0.1695
 2374SOL    HW1 9494   3.778   3.455   2.584  0.5957  0.3785 -0.2057
 2374SOL    HW2 9495   3.851   3.339   2.649  0.6187  0.4573 -0.0905
 2374SOL     MW 9496   3.805   3.413   2.656  0.5958  0.4502 -0.1640
 2375SOL     OW 9497   0.224   4.205   5.251 -0.2909 -0.9067 -0.1953
 2375SOL    HW1 9498   0.258   4.247   5.172 -0.8487  1.0214  0.5266
 2375SOL    HW2 9499   0.298   4.154   5.284  0.1842 -1.1383 -1.5431
 2375SOL     MW 9500   0.238   4.204   5.245 -0.3015 -0.6895 -0.2754
 2376SOL     OW 9501   2.568   3.372   5.396  0.4947 -0.5263  0.1626
 2376SOL    HW1 9502   2.559   3.352   5.303 -1.1123  1.3084 -0.1605
 2376SOL    HW2 9503   2.482   3.405   5.421  1.6720  1.7739  1.5480
 2376SOL     MW 9504   2.556   3.374   5.387  0.4397  0.0030  0.2986
 2377SOL     OW 9505   4.788   3.336   4.976 -1.0720  0.2139 -0.2301
 2377SOL    HW1 9506   4.731   3.342   4.899 -1.4828  0.2080  0.0731
 2377SOL    HW2 9507   4.852   3.406   4.963 -1.2694  0.3509 -0.4736
 2377SOL     MW 9508   4.789   3.346   4.964 -1.1499  0.2306 -0.2225
 2378SOL     OW 9509   4.644   2.534   4.238 -0.0184  0.0416  0.1053
 2378SOL    HW1 9510   4.631   2.624   4.206 -3.5718 -0.7237 -1.0090
 2378SOL    HW2 9511   4.687   2.489   4.166  0.7797  0.5678  0.2412
 2378SOL     MW 9512   4.648   2.540   4.225 -0.3711  0.0110 -0.0199
 2379SOL     OW 9513   4.383   0.429   4.056  0.3656 -0.0869 -0.3679
 2379SOL    HW1 9514   4.410   0.429   4.148  2.2227 -0.9425 -0.8673
 2379SOL    HW2 9515   4.415   0.345   4.022 -3.3536 -1.4338 -0.9992
 2379SOL     MW 9516   4.390   0.418   4.063  0.1273 -0.3688 -0.5126
 2380SOL     OW 9517   1.312   3.262   2.027  0.1898 -0.4374  0.3035
 2380SOL    HW1 9518   1.269   3.333   1.981  0.3524 -1.2322 -1.1304
 2380SOL    HW2 9519   1.344   3.302   2.108  0.4883  1.1833 -0.5667
 2380SOL     MW 9520   1.311   3.276   2.032  0.2488 -0.3317  0.0086
 2381SOL     OW 9521   0.197   2.258   3.760  0.1289  0.1704 -0.0546
 2381SOL    HW1 9522   0.173   2.168   3.736 -2.2136  0.4818  0.8129
 2381SOL    HW2 9523   0.151   2.273   3.843 -0.0928  2.3784 -0.5165
 2381SOL     MW 9524   0.188   2.248   3.768 -0.1993  0.4930 -0.0027
 2382SOL     OW 9525   2.108   1.054   0.177 -0.7598  0.4146  0.0927
 2382SOL    HW1 9526   2.119   1.018   0.265  0.2076  1.3968  0.4017
 2382SOL    HW2 9527   2.137   0.983   0.118  1.5033  0.7377  0.7000
 2382SOL     MW 9528   2.113   1.040   0.180 -0.3462  0.5817  0.2100
 2383SOL     OW 9529   1.081   5.096   2.815  0.2527  0.1069  0.2377
 2383SOL    HW1 9530   1.163   5.054   2.841 -0.3684 -1.7637 -0.6666
 2383SOL    HW2 9531   1.020   5.074   2.886 -0.0865 -0.6157 -0.2626
 2383SOL     MW 9532   1.083   5.088   2.827  0.1298 -0.2250  0.0579
 2384SOL     OW 9533   4.970   3.791   1.116  0.0600 -0.0258  0.9823
 2384SOL    HW1 9534   5.058   3.827   1.110  0.8456 -1.9213  0.5389
 2384SOL    HW2 9535   4.955   3.777   1.210  0.1253  0.5367  1.0761
 2384SOL     MW 9536   4.979   3.794   1.127  0.1689 -0.1965  0.9376
 2385SOL     OW 9537   3.609   1.239   4.959 -0.1910  0.4625  0.3938
 2385SOL    HW1 9538   3.591   1.296   5.033 -0.5218  1.9456 -0.7660
 2385SOL    HW2 9539   3.529   1.243   4.906  0.5952  0.7100 -0.8168
 2385SOL     MW 9540   3.597   1.246   4.961 -0.1327  0.6841  0.0903
 2386SOL     OW 9541   1.822   3.577   4.560 -0.0688  0.1830  0.2512
 2386SOL    HW1 9542   1.794   3.668   4.553 -0.9687 -0.1619 -0.8561
 2386SOL    HW2 9543   1.761   3.529   4.505  0.7051 -1.0367  0.4283
 2386SOL     MW 9544   1.811   3.583   4.552 -0.0850 -0.0173  0.1321
 2387SOL     OW 9545   4.421   1.625   4.035  0.0187  0.9955  0.6499
 2387SOL    HW1 9546   4.453   1.646   3.947 -1.7043 -0.5710 -0.4282
 2387SOL    HW2 9547   4.498   1.595   4.083  1.0744  2.3128 -0.1517
 2387SOL     MW 9548   4.435   1.624   4.030 -0.0668  0.9636  0.4093
 2388SOL     OW 9549   1.402   0.683   5.444  0.1016  0.0717  0.2127
 2388SOL    HW1 9550   1.403   0.763   5.496  0.5163  0.5891 -0.5714
 2388SOL    HW2 9551   1.385   0.613   5.507 -0.8269  0.8284  0.8240
 2388SOL     MW 9552   1.400   0.684   5.458  0.0358  0.2348  0.1906
 2389SOL     OW 9553   2.778   3.365   3.545  0.4238 -0.0110  0.4007
 2389SOL    HW1 9554   2.834   3.379   3.621  1.8893  2.4854 -0.9809
 2389SOL    HW2 9555   2.828   3.306   3.489 -0.5774 -1.7104  1.2458
 2389SOL     MW 9556   2.792   3.359   3.547  0.4832  0.0910  0.3320
 2390SOL     OW 9557   4.416   1.077   1.692 -0.2159  0.0089 -0.0074
 2390SOL    HW1 9558   4.390   1.089   1.601 -0.6007 -1.6594 -0.1632
 2390SOL    HW2 9559   4.471   0.999   1.691 -0.9645 -0.5752  1.2893
 2390SOL     MW 9560   4.420   1.068   1.680 -0.3610 -0.2795  0.1386
 2391SOL     OW 9561   4.072   4.372   2.284 -0.2060  0.3645 -0.1489
 2391SOL    HW1 9562   4.113   4.458   2.274 -1.4681  0.9805 -0.0972
 2391SOL    HW2 9563   4.129   4.326   2.347 -0.3774  1.7207  1.0286
 2391SOL     MW 9564   4.085   4.377   2.291 -0.3895  0.6170  0.0084
 2392SOL     OW 9565   5.025   3.502   4.871  0.0390  0.4252 -0.0566
 2392SOL    HW1 9566   5.017   3.533   4.781 -0.9226 -0.9244 -0.4783
 2392SOL    HW2 9567   4.988   3.573   4.924 -0.3953  0.7842 -0.8168
 2392SOL     MW 9568   5.019   3.515   4.866 -0.1397  0.2984 -0.2079
 2393SOL     OW 9569   1.209   3.659   0.977 -0.1640  0.0226 -0.6714
 2393SOL    HW1 9570   1.156   3.731   1.011 -2.9089 -2.5827  1.1259
 2393SOL    HW2 9571   1.296   3.675   1.012 -0.9063  1.9560  0.4692
 2393SOL     MW 9572   1.213   3.670   0.986 -0.6104 -0.0634 -0.2953
 2394SOL     OW 9573   3.622   2.683   3.015 -0.3640  0.1955 -0.4944
 2394SOL    HW1 9574   3.689   2.735   3.058 -0.4377  0.2098 -0.3958
 2394SOL    HW2 9575   3.669   2.608   2.979 -0.1116  0.8020 -1.4476
 2394SOL     MW 9576   3.637   2.680   3.016 -0.3411  0.2750 -0.6038
 2395SOL     OW 9577   2.651   5.280   4.906  0.2580  0.0898  0.0631
 2395SOL    HW1 9578   2.665   5.375   4.913  0.9487  0.0183 -0.2370
 2395SOL    HW2 9579   2.592   5.270   4.831 -0.6082  0.3408  0.7049
 2395SOL     MW 9580   2.645   5.291   4.897  0.2355  0.1128  0.1069
 2396SOL     OW 9581   2.127   0.055   1.735  0.4002 -0.0378 -0.3965
 2396SOL    HW1 9582   2.137   0.092   1.648 -0.6751 -1.9327 -1.3799
 2396SOL    HW2 9583   2.099   0.129   1.790  3.5039  1.7798 -0.9930
 2396SOL     MW 9584   2.125   0.069   1.731  0.6599 -0.0477 -0.5988
 2397SOL     OW 9585   3.210   1.020   1.131 -0.0346 -0.5464 -0.1388
 2397SOL    HW1 9586   3.235   0.968   1.054  1.3737  0.5766 -0.4821
 2397SOL    HW2 9587   3.276   0.999   1.197  0.3858  0.5500 -0.1859
 2397SOL     MW 9588   3.222   1.010   1.129  0.1995 -0.2623 -0.1888
 2398SOL     OW 9589   1.604   3.040   2.164  0.0466 -0.2926 -0.3650
 2398SOL    HW1 9590   1.552   3.021   2.243  2.0498 -2.5169  0.5457
 2398SOL    HW2 9591   1.643   3.126   2.182 -0.6291 -0.1308  0.4310
 2398SOL     MW 9592   1.602   3.049   2.177  0.2165 -0.5566 -0.1465
 2399SOL     OW 9593   1.587   4.143   0.403 -0.2238  0.4005 -0.3686
 2399SOL    HW1 9594   1.562   4.128   0.312  0.5502 -0.0933 -0.5111
 2399SOL    HW2 9595   1.535   4.219   0.430 -1.4258 -0.2392 -0.8140
 2399SOL     MW 9596   1.578   4.151   0.395 -0.2786  0.2554 -0.4439
 2400SOL     OW 9597   2.579   3.733   4.056 -0.4015  0.4306 -0.3720
 2400SOL    HW1 9598   2.567   3.729   3.962 -0.1031  2.0532 -0.4989
 2400SOL    HW2 9599   2.491   3.724   4.092 -0.3823 -1.6164 -0.7049
 2400SOL     MW 9600   2.566   3.731   4.049 -0.3609  0.3763 -0.4308
 2401SOL     OW 9601   2.121   2.265   2.332 -0.3913  0.1842  0.2134
 2401SOL    HW1 9602   2.089   2.328   2.268 -1.4472 -0.2914  0.2627
 2401SOL    HW2 9603   2.053   2.198   2.338  0.2860 -0.4808  0.8516
 2401SOL     MW 9604   2.108   2.265   2.325 -0.4397  0.0382  0.3014
 2402SOL     OW 9605   4.403   1.724   2.347 -0.0007 -0.2489  0.0138
 2402SOL    HW1 9606   4.376   1.664   2.278  1.9265 -0.2301 -0.8266
 2402SOL    HW2 9607   4.450   1.670   2.410 -0.9494 -0.1036  0.8854
 2402SOL     MW 9608   4.405   1.710   2.346  0.1245 -0.2279  0.0178
 2403SOL     OW 9609   4.629   0.779   5.302  0.9032  0.4872  0.4457
 2403SOL    HW1 9610   4.708   0.730   5.322  0.3856 -0.3789  0.3875
 2403SOL    HW2 9611   4.655   0.839   5.232  1.9186  1.3603  1.5097
 2403SOL     MW 9612   4.643   0.781   5.296  0.9669  0.4881  0.5744
 2404SOL     OW 9613   4.637   3.820   4.849 -0.1459 -0.1606 -0.0575
 2404SOL    HW1 9614   4.710   3.800   4.791 -0.2226 -1.8491  0.3765
 2404SOL    HW2 9615   4.601   3.902   4.815  0.6727 -0.3725 -1.5161
 2404SOL     MW 9616   4.642   3.828   4.837 -0.0509 -0.4039 -0.1886
 2405SOL     OW 9617   1.420   4.024   1.527 -0.3608  0.0230  0.0181
 2405SOL    HW1 9618   1.491   4.034   1.591 -2.0576 -0.5263  2.1193
 2405SOL    HW2 9619   1.405   3.929   1.522 -1.4698  0.1648  0.2766
 2405SOL     MW 9620   1.427   4.013   1.535 -0.7200 -0.0292  0.3201
 2406SOL     OW 9621   3.229   4.547   4.805  0.5453 -0.3419  0.1604
 2406SOL    HW1 9622   3.295   4.558   4.736  0.8274  1.2393  0.6286
 2406SOL    HW2 9623   3.260   4.603   4.876 -0.9521 -0.0959  0.6585
 2406SOL     MW 9624   3.242   4.556   4.805  0.3897 -0.1080  0.2841
 2407SOL     OW 9625   2.094   3.607   0.670  0.0863 -0.0942  0.3914
 2407SOL    HW1 9626   2.008   3.596   0.631 -0.3249 -0.6326  1.4140
 2407SOL    HW2 9627   2.079   3.666   0.744  0.3474 -1.1829  1.3424
 2407SOL     MW 9628   2.081   3.614   0.675  0.0671 -0.3025  0.6440
 2408SOL     OW 9629   0.819   2.336   3.876 -0.0739  0.2370 -0.4487
 2408SOL    HW1 9630   0.856   2.425   3.877 -0.8516  0.5986  1.5706
 2408SOL    HW2 9631   0.883   2.283   3.923 -0.3710  0.0909 -0.2031
 2408SOL     MW 9632   0.832   2.341   3.882 -0.2115  0.2646 -0.1588
 2409SOL     OW 9633   1.693   2.468   0.119  0.1314 -0.3267 -0.1227
 2409SOL    HW1 9634   1.689   2.397   0.055  0.7310 -0.3024 -0.1937
 2409SOL    HW2 9635   1.786   2.473   0.143 -0.0740 -0.3041  0.7123
 2409SOL     MW 9636   1.704   2.459   0.114  0.1818 -0.3207 -0.0249
 2410SOL     OW 9637   4.253   3.367   1.180 -0.8533 -0.8500 -0.0892
 2410SOL    HW1 9638   4.242   3.291   1.238  0.1262 -0.1150  1.1228
 2410SOL    HW2 9639   4.192   3.432   1.215  0.7924  0.1236  1.1111
 2410SOL     MW 9640   4.244   3.366   1.192 -0.5173 -0.6313  0.2196
 2411SOL     OW 9641   0.334   2.101   1.173 -0.5834 -0.1735 -0.1200
 2411SOL    HW1 9642   0.294   2.072   1.091 -1.8362  1.4869 -0.1544
 2411SOL    HW2 9643   0.303   2.038   1.238 -0.1073 -1.1284 -0.7931
 2411SOL     MW 9644   0.325   2.090   1.170 -0.6828 -0.0832 -0.2106
 2412SOL     OW 9645   3.291   3.898   5.458  0.2148  0.2876 -0.4864
 2412SOL    HW1 9646   3.298   3.826   5.521  0.9380  0.7427 -0.0421
 2412SOL    HW2 9647   3.338   3.867   5.381  0.6122  0.3247 -0.2594
 2412SOL     MW 9648   3.298   3.885   5.457  0.3582  0.3506 -0.4005
 2413SOL     OW 9649   5.126   0.629   5.004 -0.1734 -0.2332 -0.0417
 2413SOL    HW1 9650   5.124   0.601   4.912 -0.7865 -0.2551 -0.0234
 2413SOL    HW2 9651   5.072   0.565   5.050 -0.6572  0.3298  0.1793
 2413SOL     MW 9652   5.119   0.617   4.998 -0.3138 -0.1639 -0.0111
 2414SOL     OW 9653   1.824   0.334   3.404  0.6007  0.4906 -0.2204
 2414SOL    HW1 9654   1.901   0.301   3.358  0.3619  0.0945 -0.3348
 2414SOL    HW2 9655   1.858   0.404   3.460  0.9380  0.7923 -0.7891
 2414SOL     MW 9656   1.838   0.339   3.405  0.6133  0.4785 -0.3079
 2415SOL     OW 9657   4.837   2.319   0.128 -0.6515  0.3147  0.2498
 2415SOL    HW1 9658   4.781   2.249   0.162 -1.8621  1.2891  0.3199
 2415SOL    HW2 9659   4.923   2.301   0.165 -0.5218 -2.0362 -0.9685
 2415SOL     MW 9660   4.841   2.308   0.137 -0.7899  0.1385  0.1028
 2416SOL     OW 9661   3.305   3.009   1.599  0.2802  0.0307 -0.2220
 2416SOL    HW1 9662   3.263   3.057   1.528  1.0544  0.4057 -0.4421
 2416SOL    HW2 9663   3.395   3.042   1.600  0.9830 -1.7569 -0.7141
 2416SOL     MW 9664   3.311   3.019   1.590  0.4693 -0.1502 -0.3132
 2417SOL     OW 9665   2.103   4.599   5.086 -0.0344  0.0484  0.0186
 2417SOL    HW1 9666   2.077   4.691   5.082  0.3932  0.2004  0.5826
 2417SOL    HW2 9667   2.132   4.586   5.177 -0.9716 -0.8921  0.1924
 2417SOL     MW 9668   2.104   4.609   5.097 -0.0997 -0.0525  0.1131
 2418SOL     OW 9669   1.347   3.861   0.737 -0.1853 -0.1602  0.5315
 2418SOL    HW1 9670   1.372   3.922   0.806 -2.0049  0.2790  0.8399
 2418SOL    HW2 9671   1.401   3.886   0.662  1.1593 -0.0664  1.4952
 2418SOL     MW 9672   1.357   3.872   0.736 -0.2461 -0.0920  0.6943
 2419SOL     OW 9673   4.784   4.259   3.316 -0.4106 -0.4150  0.0570
 2419SOL    HW1 9674   4.699   4.302   3.317 -1.2308 -1.9589 -0.1654
 2419SOL    HW2 9675   4.847   4.330   3.304 -1.4407  1.0688  2.6294
 2419SOL     MW 9676   4.781   4.274   3.315 -0.6474 -0.4227  0.3578
 2420SOL     OW 9677   1.898   1.206   0.149  0.1917 -0.6721 -0.5863
 2420SOL    HW1 9678   1.975   1.157   0.118  0.5767 -0.5378  0.1532
 2420SOL    HW2 9679   1.888   1.278   0.086 -0.4872 -1.7724 -1.7951
 2420SOL     MW 9680   1.906   1.209   0.137  0.1541 -0.7958 -0.6464
 2421SOL     OW 9681   1.311   1.970   0.303  0.1478 -0.4361 -0.0553
 2421SOL    HW1 9682   1.391   1.995   0.349  0.5972 -0.7413 -0.6493
 2421SOL    HW2 9683   1.286   1.887   0.342 -0.3434  0.0562  0.6925
 2421SOL     MW 9684   1.318   1.963   0.314  0.1424 -0.4121 -0.0356
 2422SOL     OW 9685   1.066   3.625   0.746  0.1756 -0.0781 -0.8855
 2422SOL    HW1 9686   1.068   3.713   0.707 -1.0518  0.8233  0.9450
 2422SOL    HW2 9687   1.127   3.630   0.820 -0.2651 -0.6171 -0.4781
 2422SOL     MW 9688   1.074   3.637   0.751 -0.0380 -0.0317 -0.5990
 2423SOL     OW 9689   4.924   1.717   3.528  0.2482  0.0450  0.2799
 2423SOL    HW1 9690   5.004   1.753   3.567 -0.6696 -1.0228  3.4642
 2423SOL    HW2 9691   4.947   1.628   3.504  0.0642 -0.2430  1.1411
 2423SOL     MW 9692   4.937   1.710   3.530  0.1071 -0.1285  0.7978
 2424SOL     OW 9693   2.047   3.025   2.060 -0.0954  0.4156  0.0171
 2424SOL    HW1 9694   2.102   3.099   2.086  1.2265 -1.3313  2.6240
 2424SOL    HW2 9695   1.980   3.020   2.128 -2.4619  1.3089 -2.0808
 2424SOL     MW 9696   2.045   3.034   2.072 -0.2291  0.3064  0.0823
 2425SOL     OW 9697   0.078   5.472   4.909 -0.4194 -0.1671  0.1834
 2425SOL    HW1 9698   0.028   5.487   4.989 -0.6591 -1.1975  0.2501
 2425SOL    HW2 9699   0.060   5.380   4.887 -0.8439  0.2618 -1.3889
 2425SOL     MW 9700   0.069   5.462   4.916 -0.5045 -0.2441 -0.0093
 2426SOL     OW 9701   1.851   4.577   5.197 -0.8509  0.1571  0.2674
 2426SOL    HW1 9702   1.867   4.630   5.275  2.1065 -1.1435  0.6928
 2426SOL    HW2 9703   1.936   4.572   5.154 -1.6138 -2.0603 -1.1458
 2426SOL     MW 9704   1.864   4.583   5.201 -0.5700 -0.2933  0.1409
 2427SOL     OW 9705   2.884   2.325   2.412  0.3956  0.1922 -0.1409
 2427SOL    HW1 9706   2.870   2.420   2.414  0.2261  0.1570  0.5881
 2427SOL    HW2 9707   2.961   2.314   2.356 -0.2694  0.6646 -1.1800
 2427SOL     MW 9708   2.892   2.336   2.405  0.2888  0.2482 -0.1806
 2428SOL     OW 9709   3.913   4.834   2.326  0.1573  0.4560 -0.0951
 2428SOL    HW1 9710   3.987   4.847   2.385  0.3013 -0.3418 -0.0890
 2428SOL    HW2 9711   3.900   4.739   2.325 -1.1840  0.6137  0.3093
 2428SOL     MW 9712   3.921   4.823   2.334  0.0040  0.3741 -0.0426
 2429SOL     OW 9713   2.927   5.319   2.594  0.3682  0.1165 -0.1874
 2429SOL    HW1 9714   2.980   5.241   2.613 -0.5314 -0.8552 -1.5481
 2429SOL    HW2 9715   2.842   5.300   2.633  0.3627  0.7687  0.1360
 2429SOL     MW 9716   2.923   5.307   2.602  0.2523  0.0756 -0.3202
 2430SOL     OW 9717   2.931   2.873   1.126 -0.0366  0.0579  0.0392
 2430SOL    HW1 9718   3.003   2.812   1.143 -1.1297 -1.4202 -0.4296
 2430SOL    HW2 9719   2.895   2.891   1.213 -0.7702 -1.3380  0.0391
 2430SOL     MW 9720   2.936   2.867   1.140 -0.2705 -0.3100 -0.0208
 2431SOL     OW 9721   1.695   1.001   5.366 -0.0250  0.0096 -0.1898
 2431SOL    HW1 9722   1.693   0.930   5.301 -1.1723 -0.4935  0.3676
 2431SOL    HW2 9723   1.680   1.080   5.316 -2.1251 -0.4858 -0.4415
 2431SOL     MW 9724   1.693   1.002   5.352 -0.4407 -0.1182 -0.1507
 2432SOL     OW 9725   2.382   4.457   4.140 -0.1297  0.6008  0.3337
 2432SOL    HW1 9726   2.351   4.388   4.197  1.3379  0.5763  1.1527
 2432SOL    HW2 9727   2.306   4.515   4.128 -0.9258 -0.3084  0.9017
 2432SOL     MW 9728   2.368   4.456   4.146 -0.0437  0.4813  0.5113
 2433SOL     OW 9729   0.008   0.727   3.903 -0.2869  0.5093 -0.3796
 2433SOL    HW1 9730   0.034   0.692   3.818  2.1637 -0.3537  0.6266
 2433SOL    HW2 9731   0.059   0.807   3.914  2.7273 -1.5003  1.8750
 2433SOL     MW 9732   0.018   0.732   3.894  0.4127  0.1416  0.0379
 2434SOL     OW 9733   1.645   1.430   2.526  0.2475 -0.1640  0.7184
 2434SOL    HW1 9734   1.588   1.354   2.520  1.0512 -0.9397  2.4483
 2434SOL    HW2 9735   1.586   1.502   2.550 -0.4364 -0.3180 -0.4396
 2434SOL     MW 9736   1.630   1.430   2.528  0.2629 -0.2830  0.7916
 2435SOL     OW 9737   4.289   3.616   3.738  1.0834  0.5198 -0.4829
 2435SOL    HW1 9738   4.351   3.680   3.703  1.8523  0.2553  0.3699
 2435SOL    HW2 9739   4.239   3.665   3.804  0.4127  0.7139 -1.1190
 2435SOL     MW 9740   4.291   3.630   3.742  1.0959  0.5108 -0.4552
 2436SOL     OW 9741   5.168   1.808   4.179  0.8363 -0.4403  0.8636
 2436SOL    HW1 9742   5.094   1.780   4.234 -1.2871 -1.8177 -2.3539
 2436SOL    HW2 9743   5.197   1.728   4.136  2.9330  0.4489  0.4967
 2436SOL     MW 9744   5.162   1.794   4.181  0.8329 -0.5028  0.4047
 2437SOL     OW 9745   4.557   0.172   3.955  0.0935 -0.1650 -0.3991
 2437SOL    HW1 9746   4.504   0.114   3.900 -1.1992  0.5072  0.0890
 2437SOL    HW2 9747   4.575   0.247   3.898  0.2208 -0.2358 -0.4523
 2437SOL     MW 9748   4.552   0.174   3.940 -0.0557 -0.0880 -0.3434
 2438SOL     OW 9749   1.861   2.592   1.945  0.3729  0.0786  0.3982
 2438SOL    HW1 9750   1.803   2.538   1.998  0.0417  0.4446  0.4177
 2438SOL    HW2 9751   1.805   2.664   1.915  0.9910  0.8375  1.0283
 2438SOL     MW 9752   1.846   2.594   1.947  0.4096  0.2226  0.4813
 2439SOL     OW 9753   4.977   3.700   1.719 -0.1603 -0.4342  0.1209
 2439SOL    HW1 9754   5.025   3.780   1.700 -1.8109  0.7716  0.7031
 2439SOL    HW2 9755   4.886   3.722   1.699 -0.5660 -2.4610 -0.5213
 2439SOL     MW 9756   4.971   3.713   1.714 -0.4236 -0.5393  0.1132
 2440SOL     OW 9757   1.124   3.454   1.934 -0.3174  0.6776 -0.4571
 2440SOL    HW1 9758   1.136   3.425   1.844 -1.1788  0.4965 -0.5198
 2440SOL    HW2 9759   1.110   3.548   1.928 -0.0814  0.7113 -0.4842
 2440SOL     MW 9760   1.124   3.462   1.922 -0.3974  0.6588 -0.4686
 2441SOL     OW 9761   0.377   3.692   0.877  0.2904  0.3952 -0.6428
 2441SOL    HW1 9762   0.386   3.740   0.959  2.3562 -1.7878  0.5469
 2441SOL    HW2 9763   0.283   3.677   0.867 -0.3293  3.4534 -0.4543
 2441SOL     MW 9764   0.366   3.696   0.886  0.4755  0.5073 -0.4664
 2442SOL     OW 9765   1.504   3.935   2.379  0.0231  0.4275 -0.6550
 2442SOL    HW1 9766   1.595   3.962   2.393  0.1389  0.2137 -0.9930
 2442SOL    HW2 9767   1.454   3.988   2.441  0.3924  0.4474 -0.3673
 2442SOL     MW 9768   1.510   3.945   2.389  0.0852  0.4027 -0.6615
 2443SOL     OW 9769   3.340   2.165   0.676 -0.4161 -0.4058  0.3136
 2443SOL    HW1 9770   3.384   2.184   0.760  2.1456 -1.4173 -0.6824
 2443SOL    HW2 9771   3.293   2.246   0.655  0.5752  0.6091  1.7653
 2443SOL     MW 9772   3.340   2.178   0.684  0.0387 -0.4054  0.3719
 2444SOL     OW 9773   4.909   4.821   5.460  0.0247  0.1029 -0.6120
 2444SOL    HW1 9774   4.929   4.820   5.554 -1.2688  2.3370 -0.2442
 2444SOL    HW2 9775   4.993   4.840   5.419  0.7636 -1.6322 -0.0233
 2444SOL     MW 9776   4.922   4.823   5.467 -0.0463  0.1668 -0.4896
 2445SOL     OW 9777   1.798   1.504   4.355 -0.1189  0.0062  0.0292
 2445SOL    HW1 9778   1.706   1.517   4.379  0.1084  2.0401 -0.0219
 2445SOL    HW2 9779   1.796   1.493   4.260 -0.4307 -1.6622  0.1991
 2445SOL     MW 9780   1.786   1.504   4.346 -0.1297  0.0530  0.0444
 2446SOL     OW 9781   5.316   0.402   3.470 -0.4002 -0.0653  0.0952
 2446SOL    HW1 9782   5.368   0.392   3.550  0.3989 -1.9893 -0.6027
 2446SOL    HW2 9783   5.366   0.463   3.417  0.6976 -1.1489 -0.1671
 2446SOL     MW 9784   5.329   0.408   3.474 -0.1574 -0.4503 -0.0277
 2447SOL     OW 9785   4.077   0.705   4.237  0.1652  0.1764 -0.3767
 2447SOL    HW1 9786   4.024   0.649   4.294  1.1974  2.3283  3.0410
 2447SOL    HW2 9787   4.165   0.666   4.241  0.3562  0.6272  0.0296
 2447SOL     MW 9788   4.082   0.693   4.245  0.3218  0.5096  0.1128
 2448SOL     OW 9789   3.595   4.765   2.723  0.4932 -0.5617 -0.0949
 2448SOL    HW1 9790   3.550   4.784   2.641  0.1291 -0.6311  0.0836
 2448SOL    HW2 9791   3.687   4.781   2.705  0.3418  0.0823 -0.3220
 2448SOL     MW 9792   3.601   4.769   2.710  0.4272 -0.4882 -0.1011
 2449SOL     OW 9793   3.539   2.921   4.880 -0.1480  0.2925  0.3992
 2449SOL    HW1 9794   3.601   2.850   4.865 -0.0086 -0.0178  2.2548
 2449SOL    HW2 9795   3.513   2.949   4.792  2.4509  0.2845 -0.4629
 2449SOL     MW 9796   3.544   2.916   4.866  0.2025  0.2518  0.5264
 2450SOL     OW 9797   5.018   4.666   1.939 -0.5994 -0.3689 -0.1089
 2450SOL    HW1 9798   4.980   4.579   1.947 -1.8382  0.0195 -1.4042
 2450SOL    HW2 9799   5.049   4.687   2.028  3.6139 -3.7477 -0.4456
 2450SOL     MW 9800   5.017   4.657   1.952 -0.2186 -0.7517 -0.3178
 2451SOL     OW 9801   2.291  -0.027   0.779 -1.0683  0.0424 -0.2617
 2451SOL    HW1 9802   2.373   0.019   0.764 -1.1060  0.3225  0.3512
 2451SOL    HW2 9803   2.224   0.040   0.768 -1.1940 -0.1067 -0.4106
 2451SOL     MW 9804   2.293  -0.013   0.775 -1.0892  0.0592 -0.2023
 2452SOL     OW 9805   4.272   0.551   1.024  0.2074 -0.2634 -0.6375
 2452SOL    HW1 9806   4.335   0.613   0.987 -0.5233 -0.3112 -2.0280
 2452SOL    HW2 9807   4.324   0.473   1.046  0.7688  0.0289 -0.9228
 2452SOL     MW 9808   4.287   0.549   1.022  0.1857 -0.2321 -0.8521
 2453SOL     OW 9809   3.446   1.368   5.415 -0.5217 -0.0935 -0.1110
 2453SOL    HW1 9810   3.461   1.273   5.410 -1.0017 -0.4175  2.6809
 2453SOL    HW2 9811   3.352   1.376   5.433 -0.0096  0.6589  2.6971
 2453SOL     MW 9812   3.436   1.357   5.417 -0.5176 -0.0386  0.6058
 2454SOL     OW 9813   0.227   5.002   4.819  0.4017  0.0422  0.3920
 2454SOL    HW1 9814   0.299   5.015   4.880 -0.7942  0.3949  1.7726
 2454SOL    HW2 9815   0.249   4.921   4.773  2.7370  1.2660 -0.8265
 2454SOL     MW 9816   0.239   4.993   4.821  0.5476  0.2440  0.4128
 2455SOL     OW 9817   3.518   4.041   2.621 -0.2330  0.0826 -0.5614
 2455SOL    HW1 9818   3.504   3.947   2.610 -0.1831  0.1157 -0.9119
 2455SOL    HW2 9819   3.430   4.079   2.612 -0.1878  0.1123 -0.8710
 2455SOL     MW 9820   3.505   4.034   2.619 -0.2208  0.0907 -0.6459
 2456SOL     OW 9821   1.525   2.546   2.936 -0.2031  0.5936  0.1325
 2456SOL    HW1 9822   1.459   2.548   3.005  1.2605 -0.7364  1.6632
 2456SOL    HW2 9823   1.606   2.523   2.981  1.1738  1.3696 -1.7962
 2456SOL     MW 9824   1.527   2.543   2.951  0.1605  0.5227  0.0816
 2457SOL     OW 9825   1.165   1.553   4.867 -0.5383  0.0267 -0.2052
 2457SOL    HW1 9826   1.123   1.490   4.925 -0.6054  0.3573  0.1064
 2457SOL    HW2 9827   1.203   1.499   4.797  0.8725 -0.5196  0.9377
 2457SOL     MW 9828   1.164   1.538   4.865 -0.3663 -0.0009 -0.0190
 2458SOL     OW 9829   3.482   2.541   3.211  0.2986  0.2254  0.3271
 2458SOL    HW1 9830   3.529   2.605   3.159 -0.3249  0.4601  0.0456
 2458SOL    HW2 9831   3.534   2.533   3.291  0.9415  0.2970 -0.0744
 2458SOL     MW 9832   3.495   2.548   3.215  0.3011  0.2646  0.2396
 2459SOL     OW 9833   4.361   4.864   5.425  0.7408  0.1200 -0.1159
 2459SOL    HW1 9834   4.430   4.925   5.399 -0.4215  1.4266 -0.2187
 2459SOL    HW2 9835   4.285   4.890   5.374 -0.2461 -0.3419  1.0586
 2459SOL     MW 9836   4.360   4.875   5.415  0.4657  0.2281  0.0213
 2460SOL     OW 9837   2.386   2.537   4.449  0.1484  0.2878  0.2482
 2460SOL    HW1 9838   2.299   2.572   4.467 -0.1665  0.5251 -1.5761
 2460SOL    HW2 9839   2.380   2.445   4.474  0.0532  0.7703  2.1502
 2460SOL     MW 9840   2.374   2.530   4.454  0.0959  0.3800  0.2582
 2461SOL     OW 9841   3.326   2.156   4.422 -0.3383  0.2564  0.3916
 2461SOL    HW1 9842   3.373   2.198   4.494  0.4330 -1.7077  1.1038
 2461SOL    HW2 9843   3.239   2.138   4.457 -0.1726 -0.1111  0.6219
 2461SOL     MW 9844   3.321   2.159   4.435 -0.2183 -0.0421  0.5122
 2462SOL     OW 9845   3.624   4.834   1.219  0.0241  0.1378  0.5841
 2462SOL    HW1 9846   3.678   4.837   1.298  0.2158  0.1430  0.4510
 2462SOL    HW2 9847   3.607   4.926   1.199 -0.0189  0.1363  0.6138
 2462SOL     MW 9848   3.628   4.846   1.227  0.0431  0.1383  0.5709
 2463SOL     OW 9849   4.696   1.219   0.519 -0.3247  0.3861  0.0676
 2463SOL    HW1 9850   4.626   1.278   0.491 -2.3692 -2.4433 -1.2311
 2463SOL    HW2 9851   4.738   1.191   0.437 -0.5604 -1.2438  0.4684
 2463SOL     MW 9852   4.692   1.223   0.505 -0.6166 -0.1847 -0.0473
 2464SOL     OW 9853   4.055   0.028   0.156 -0.5211 -0.6790 -0.1135
 2464SOL    HW1 9854   4.146   0.005   0.174 -0.6630  0.2335  2.1199
 2464SOL    HW2 9855   4.012   0.026   0.241 -2.2299  0.4975 -0.8763
 2464SOL     MW 9856   4.061   0.025   0.169 -0.7580 -0.4116  0.0748
 2465SOL     OW 9857   1.455   2.507   4.201  0.1040 -0.0460  0.0179
 2465SOL    HW1 9858   1.392   2.541   4.264  0.2471 -1.2647  0.8660
 2465SOL    HW2 9859   1.409   2.510   4.117 -0.7041  0.0504  0.4535
 2465SOL     MW 9860   1.441   2.511   4.198  0.0189 -0.1897  0.1823
 2466SOL     OW 9861   3.930   1.621   5.055 -0.0504  0.0309 -0.2205
 2466SOL    HW1 9862   3.942   1.553   5.121  0.1938  0.3668  0.0822
 2466SOL    HW2 9863   3.856   1.590   5.002 -0.7284  0.1175  0.6641
 2466SOL     MW 9864   3.922   1.608   5.056 -0.1060  0.0850 -0.0685
 2467SOL     OW 9865   4.759   1.721   5.439 -0.4109 -0.3191 -0.1091
 2467SOL    HW1 9866   4.691   1.744   5.502 -0.6550  1.4852 -0.9736
 2467SOL    HW2 9867   4.733   1.636   5.405 -1.9022  0.0498  0.0573
 2467SOL     MW 9868   4.747   1.713   5.442 -0.6330 -0.0409 -0.1985
 2468SOL     OW 9869   4.919   1.654   2.649 -0.5457 -0.9073 -0.1123
 2468SOL    HW1 9870   4.838   1.705   2.639 -0.4479 -1.2719 -3.9997
 2468SOL    HW2 9871   4.890   1.569   2.680 -1.5986 -0.8067 -0.7650
 2468SOL     MW 9872   4.905   1.650   2.652 -0.6680 -0.9411 -0.6935
 2469SOL     OW 9873   3.207   1.922   0.631  0.0956  0.4816 -0.4177
 2469SOL    HW1 9874   3.269   1.991   0.654 -0.4531  0.2496  2.1022
 2469SOL    HW2 9875   3.158   1.957   0.557 -0.2119  2.8693  0.7973
 2469SOL     MW 9876   3.209   1.935   0.625 -0.0140  0.7576  0.0604
 2470SOL     OW 9877   4.066   0.808   1.906 -0.3217 -0.0592 -0.1210
 2470SOL    HW1 9878   4.038   0.875   1.844 -0.8363 -0.2498 -0.1049
 2470SOL    HW2 9879   4.068   0.853   1.991 -0.1406  0.0666 -0.1911
 2470SOL     MW 9880   4.063   0.822   1.909 -0.3644 -0.0675 -0.1279
 2471SOL     OW 9881   2.924   0.219   4.593 -0.5998 -0.2823 -0.3004
 2471SOL    HW1 9882   2.981   0.238   4.668 -0.0187 -2.3760 -0.1522
 2471SOL    HW2 9883   2.979   0.237   4.517 -0.8397  0.8164 -0.2313
 2471SOL     MW 9884   2.938   0.224   4.593 -0.5561 -0.4097 -0.2726
 2472SOL     OW 9885   3.972   2.305   3.100 -0.3142 -0.3990 -0.3914
 2472SOL    HW1 9886   4.057   2.265   3.119 -0.0597 -0.6260 -1.9322
 2472SOL    HW2 9887   3.980   2.395   3.131 -0.2817 -0.9991  1.4574
 2472SOL     MW 9888   3.984   2.311   3.107 -0.2774 -0.5049 -0.3520
 2473SOL     OW 9889   3.334   0.350   1.050  0.3518 -0.0030 -0.3969
 2473SOL    HW1 9890   3.252   0.337   1.096 -0.1107 -2.4795 -1.7691
 2473SOL    HW2 9891   3.321   0.432   1.002  0.2597  1.7761  2.4116
 2473SOL     MW 9892   3.322   0.359   1.050  0.2808 -0.0923 -0.2130
 2474SOL     OW 9893   3.988   1.522   3.851 -0.0086 -0.2251 -0.1713
 2474SOL    HW1 9894   4.024   1.446   3.895  0.1343  0.4771  0.9770
 2474SOL    HW2 9895   3.908   1.542   3.900  0.3756  0.8252  0.0522
 2474SOL     MW 9896   3.982   1.515   3.863  0.0589 -0.0007  0.0043
 2475SOL     OW 9897   4.775   3.571   2.369 -0.2293  0.7222  0.2115
 2475SOL    HW1 9898   4.867   3.563   2.395 -0.1512  1.2240  0.0934
 2475SOL    HW2 9899   4.757   3.492   2.317  0.1255  0.6168  0.2496
 2475SOL     MW 9900   4.784   3.560   2.366 -0.1739  0.7729  0.2012
 2476SOL     OW 9901   1.837   3.305   4.114  0.7009 -0.1956 -0.0872
 2476SOL    HW1 9902   1.821   3.211   4.099  1.0686 -0.3732  0.6166
 2476SOL    HW2 9903   1.922   3.308   4.159 -1.3386  0.1037  4.1986
 2476SOL     MW 9904   1.846   3.293   4.118  0.4869 -0.1801  0.5515
 2477SOL     OW 9905   4.344   4.765   2.045 -0.5869 -0.7174  0.1473
 2477SOL    HW1 9906   4.430   4.742   2.082 -1.1975 -0.2417  1.9963
 2477SOL    HW2 9907   4.322   4.847   2.088 -1.6533 -0.4567 -0.8730
 2477SOL     MW 9908   4.352   4.772   2.055 -0.8016 -0.6231  0.2534
 2478SOL     OW 9909   0.260   4.446   4.619  0.2005  0.5051 -0.5679
 2478SOL    HW1 9910   0.202   4.513   4.656 -1.3578 -1.7104  1.3403
 2478SOL    HW2 9911   0.226   4.432   4.530 -2.8061 -1.1608  0.6843
 2478SOL     MW 9912   0.248   4.453   4.612 -0.3839  0.0082 -0.1633
 2479SOL     OW 9913   4.897   0.491   0.544 -0.4082  0.1056  0.2807
 2479SOL    HW1 9914   4.844   0.565   0.515 -0.8666 -0.4022 -0.1951
 2479SOL    HW2 9915   4.902   0.433   0.467  2.3713  0.9904 -0.3264
 2479SOL     MW 9916   4.891   0.493   0.530 -0.1111  0.1539  0.1421
 2480SOL     OW 9917   0.329   1.057   1.126  0.2816  0.4555  0.3856
 2480SOL    HW1 9918   0.384   1.042   1.049 -0.0738  0.5375  0.1107
 2480SOL    HW2 9919   0.286   1.141   1.108  0.6664  0.7786  0.9552
 2480SOL     MW 9920   0.330   1.066   1.114  0.2854  0.5074  0.4233
 2481SOL     OW 9921   4.444   4.331   4.763  0.2454  0.8615 -0.3083
 2481SOL    HW1 9922   4.372   4.285   4.719  0.5565  0.3805 -0.3267
 2481SOL    HW2 9923   4.455   4.412   4.713 -1.5182  1.8661  0.8068
 2481SOL     MW 9924   4.436   4.336   4.751  0.0595  0.9285 -0.1679
 2482SOL     OW 9925   2.861   1.484   0.069  0.0813 -0.3664 -0.0923
 2482SOL    HW1 9926   2.940   1.494   0.122  0.1482 -1.0810 -0.0551
 2482SOL    HW2 9927   2.847   1.571   0.030  0.6242 -0.1200  0.2593
 2482SOL     MW 9928   2.869   1.496   0.071  0.1593 -0.4263 -0.0425
 2483SOL     OW 9929   2.383   1.333   1.856  0.2379  0.1390  0.5271
 2483SOL    HW1 9930   2.412   1.417   1.822  0.8719 -0.3113 -0.0633
 2483SOL    HW2 9931   2.453   1.272   1.833 -1.6666 -1.2386 -2.0104
 2483SOL     MW 9932   2.396   1.336   1.849  0.0753 -0.0950  0.1267
 2484SOL     OW 9933   4.005   3.806   4.125  0.2010 -0.4594 -0.0798
 2484SOL    HW1 9934   3.954   3.727   4.143  0.6332 -0.5609  0.7408
 2484SOL    HW2 9935   4.048   3.827   4.208  0.8200  0.1122 -0.5308
 2484SOL     MW 9936   4.004   3.799   4.138  0.3356 -0.3992 -0.0325
 2485SOL     OW 9937   0.858   0.404   0.412  0.3036  0.2390 -0.1646
 2485SOL    HW1 9938   0.888   0.383   0.500  1.9170  0.5575 -0.5877
 2485SOL    HW2 9939   0.845   0.318   0.370 -0.4091  0.0897  0.3549
 2485SOL     MW 9940   0.860   0.390   0.418  0.4189  0.2606 -0.1522
 2486SOL     OW 9941   2.980   2.929   4.650  0.4173 -0.1832  0.3976
 2486SOL    HW1 9942   3.054   2.978   4.613  0.0134 -0.4556 -0.8074
 2486SOL    HW2 9943   2.968   2.855   4.591  0.0189 -0.8864  1.3314
 2486SOL     MW 9944   2.988   2.926   4.638  0.3146 -0.3081  0.3629
 2487SOL     OW 9945   1.995   5.389   1.013 -0.0178 -0.4328 -0.7992
 2487SOL    HW1 9946   2.089   5.406   1.017 -0.0398 -0.4253 -0.1411
 2487SOL    HW2 9947   1.956   5.457   1.068 -0.1520 -2.2000  1.4645
 2487SOL     MW 9948   2.002   5.400   1.021 -0.0378 -0.6580 -0.4252
 2488SOL     OW 9949   0.762   4.147   4.030 -0.4479  0.7278 -0.1789
 2488SOL    HW1 9950   0.744   4.219   4.090 -0.4949  0.0854  0.5859
 2488SOL    HW2 9951   0.857   4.138   4.032 -0.6194 -1.7974  2.8367
 2488SOL     MW 9952   0.772   4.155   4.038 -0.4759  0.3223  0.3050
 2489SOL     OW 9953   4.548   3.614   2.632 -0.3313 -0.6996 -0.1858
 2489SOL    HW1 9954   4.460   3.583   2.613 -0.3561 -0.1064 -1.1048
 2489SOL    HW2 9955   4.582   3.644   2.548  0.1657  0.5611  0.4326
 2489SOL     MW 9956   4.541   3.614   2.619 -0.2708 -0.4623 -0.2243
 2490SOL     OW 9957   0.626   1.917   3.914 -0.1567  0.4388 -0.0919
 2490SOL    HW1 9958   0.722   1.919   3.915 -0.1423  2.6030 -1.1161
 2490SOL    HW2 9959   0.603   1.860   3.988  1.8859 -3.4508 -2.1451
 2490SOL     MW 9960   0.636   1.910   3.924  0.1066  0.2179 -0.4858
 2491SOL     OW 9961   4.142   2.803   4.510  0.3596 -0.2865  0.7493
 2491SOL    HW1 9962   4.218   2.768   4.464 -0.1026  0.6844 -0.8099
 2491SOL    HW2 9963   4.158   2.897   4.518 -1.6680  0.3916 -1.7971
 2491SOL     MW 9964   4.154   2.810   4.505  0.0409 -0.0754  0.2238
 2492SOL     OW 9965   3.856   3.406   0.083 -0.3274 -0.3521 -0.5124
 2492SOL    HW1 9966   3.809   3.456   0.150 -0.6119  1.9702 -2.3275
 2492SOL    HW2 9967   3.946   3.400   0.118 -0.8621 -0.7964  0.8749
 2492SOL     MW 9968   3.862   3.412   0.096 -0.4322 -0.1117 -0.5672
 2493SOL     OW 9969  -0.010   1.635   2.524  0.2690  0.3405 -0.2188
 2493SOL    HW1 9970   0.000   1.562   2.586  1.0297 -0.4626 -1.2479
 2493SOL    HW2 9971   0.077   1.645   2.485 -0.4909 -0.1047 -2.1573
 2493SOL     MW 9972   0.003   1.627   2.527  0.2691  0.1807 -0.5987
 2494SOL     OW 9973   0.357   4.670   1.595 -0.7292  0.7546 -0.2424
 2494SOL    HW1 9974   0.404   4.590   1.618 -0.7442  0.5424 -0.9161
 2494SOL    HW2 9975   0.424   4.726   1.555  0.0468  2.4148  3.0812
 2494SOL     MW 9976   0.372   4.667   1.593 -0.6318  0.9400  0.0968
 2495SOL     OW 9977   5.010   5.199   2.600 -0.1397  0.7174 -0.2869
 2495SOL    HW1 9978   5.080   5.254   2.634 -2.0830  2.9716  0.3226
 2495SOL    HW2 9979   4.969   5.161   2.678  0.7528 -1.1958 -0.6679
 2495SOL     MW 9980   5.014   5.201   2.614 -0.2742  0.7611 -0.2577
 2496SOL     OW 9981   1.964   1.829   2.190  0.1374  0.3663 -0.4198
 2496SOL    HW1 9982   2.059   1.815   2.186  1.0348  3.9518  2.4401
 2496SOL    HW2 9983   1.928   1.745   2.218  2.5554 -0.8497 -0.7322
 2496SOL     MW 9984   1.972   1.816   2.193  0.5618  0.6696 -0.0937
 2497SOL     OW 9985   5.127   0.748   3.312 -0.3731  0.1788  0.2422
 2497SOL    HW1 9986   5.172   0.724   3.393  0.4046 -0.7576 -0.4345
 2497SOL    HW2 9987   5.049   0.691   3.310  0.6548 -1.2701 -0.6032
 2497SOL     MW 9988   5.123   0.738   3.322 -0.1419 -0.1265  0.0473
 2498SOL     OW 9989   5.446   3.513   3.680 -0.2118 -0.5728  0.5571
 2498SOL    HW1 9990   5.537   3.533   3.657  0.2167 -1.3437  1.5309
 2498SOL    HW2 9991   5.412   3.596   3.715 -0.7671  0.5290 -2.2883
 2498SOL     MW 9992   5.454   3.527   3.681 -0.2280 -0.5305  0.3175
 2499SOL     OW 9993   3.202   2.594   5.355 -0.1118 -0.0505 -0.2488
 2499SOL    HW1 9994   3.164   2.681   5.366 -0.0070  0.0196 -0.4363
 2499SOL    HW2 9995   3.236   2.571   5.441 -1.0307 -0.3283  0.0538
 2499SOL     MW 9996   3.201   2.602   5.367 -0.2160 -0.0771 -0.2341
 2500SOL     OW 9997   0.598   2.864   0.203  0.4771  0.1384  0.2200
 2500SOL    HW1 9998   0.637   2.871   0.290 -0.4156  0.5767  0.5957
 2500SOL    HW2 9999   0.588   2.954   0.173  2.6845 -0.0202 -1.2455
 2500SOL     MW10000   0.601   2.876   0.210  0.6454  0.1742  0.0805
 2501SOL     OW10001   0.056   1.093   5.374 -0.2043 -0.2364  0.1126
 2501SOL    HW110002   0.127   1.039   5.338  1.2929  0.6703  1.5759
 2501SOL    HW210003   0.047   1.064   5.464  0.0510  1.3487  0.6793
 2501SOL     MW10004   0.064   1.083   5.381  0.0200  0.0826  0.3725
 2502SOL     OW10005   0.961   1.416   2.033 -0.1953 -0.8256  0.3187
 2502SOL    HW110006   1.027   1.486   2.035 -1.6275  0.5579  1.1530
 2502SOL    HW210007   0.997   1.352   1.972  1.7092  0.0878  0.3998
 2502SOL     MW10008   0.974   1.417   2.025 -0.1349 -0.5315  0.4359
 2503SOL     OW10009   1.175   1.100   2.968 -0.9960  0.1238 -0.2544
 2503SOL    HW110010   1.124   1.066   3.042  0.1136 -0.1288  0.4206
 2503SOL    HW210011   1.248   1.039   2.959 -1.9848 -0.8454 -2.6888
 2503SOL     MW10012   1.178   1.088   2.976 -0.9806 -0.0326 -0.4796
 2504SOL     OW10013   1.311   0.565   1.195  0.1773  0.0398  0.3922
 2504SOL    HW110014   1.328   0.654   1.227 -2.0060  0.5015  0.4627
 2504SOL    HW210015   1.243   0.577   1.128 -0.8148 -1.6383  1.0405
 2504SOL     MW10016   1.304   0.578   1.191 -0.2292 -0.1159  0.4842
 2505SOL     OW10017   4.852   5.260   0.731 -0.4747 -0.2907 -0.1252
 2505SOL    HW110018   4.867   5.204   0.808 -0.4738  0.4259  0.4146
 2505SOL    HW210019   4.936   5.303   0.716 -0.2143 -1.1165 -1.1106
 2505SOL     MW10020   4.865   5.259   0.739 -0.4413 -0.3047 -0.1823
 2506SOL     OW10021   0.952   0.757   2.700 -0.1318 -0.3282 -0.5715
 2506SOL    HW110022   0.917   0.804   2.624  0.0129 -1.2967 -1.2475
 2506SOL    HW210023   1.041   0.791   2.710  0.2147 -0.9169 -1.4779
 2506SOL     MW10024   0.959   0.767   2.692 -0.0689 -0.5276 -0.7741
 2507SOL     OW10025   2.835   1.006   4.344 -0.1741  0.1051 -0.4883
 2507SOL    HW110026   2.860   1.033   4.256  1.3825 -2.0477 -0.7886
 2507SOL    HW210027   2.897   1.052   4.401 -0.9489  1.2141 -0.5092
 2507SOL     MW10028   2.846   1.015   4.340 -0.0741 -0.0285 -0.5294
 2508SOL     OW10029   1.443   3.713   1.081  0.1376 -0.1408  0.1834
 2508SOL    HW110030   1.534   3.686   1.092 -0.2385 -0.8738  1.8126
 2508SOL    HW210031   1.448   3.806   1.057  1.3112  0.0372  1.0143
 2508SOL     MW10032   1.455   3.721   1.080  0.2397 -0.2119  0.4983
 2509SOL     OW10033   0.609   5.472   0.829 -0.5272 -0.3498  0.2570
 2509SOL    HW110034   0.679   5.535   0.844 -0.6381  0.3860 -1.9853
 2509SOL    HW210035   0.583   5.443   0.917  1.1654  0.8956  1.2126
 2509SOL     MW10036   0.615   5.476   0.843 -0.3247 -0.0962  0.0923
 2510SOL     OW10037   2.695   4.455   2.798  0.3146 -0.7884 -0.0034
 2510SOL    HW110038   2.745   4.463   2.879 -0.4531  0.9087  0.3397
 2510SOL    HW210039   2.610   4.420   2.826  0.1094 -0.3663 -0.1021
 2510SOL     MW10040   2.691   4.451   2.812  0.1901 -0.5171  0.0279
 2511SOL     OW10041   1.978   4.554   4.379 -0.3737  0.3412  0.1797
 2511SOL    HW110042   1.896   4.506   4.392 -0.3480  0.1248 -0.4358
 2511SOL    HW210043   1.964   4.638   4.424 -1.0282  0.4094 -0.1413
 2511SOL     MW10044   1.966   4.559   4.387 -0.4542  0.3222  0.0598
 2512SOL     OW10045   2.751   0.655   1.521  0.3174 -0.6811  0.1757
 2512SOL    HW110046   2.736   0.733   1.467 -2.0561  0.8922  2.8750
 2512SOL    HW210047   2.686   0.592   1.490 -0.3770 -0.1481  0.5324
 2512SOL     MW10048   2.741   0.657   1.510 -0.0753 -0.4115  0.5669
 2513SOL     OW10049   1.993   2.445   4.390  0.1367 -0.1284 -0.2987
 2513SOL    HW110050   2.038   2.529   4.386  1.0729 -0.6081 -0.2156
 2513SOL    HW210051   1.953   2.435   4.303  3.1427 -1.2274 -1.7180
 2513SOL     MW10052   1.993   2.454   4.378  0.6413 -0.3305 -0.4698
 2514SOL     OW10053   4.854   1.075   4.682  0.2952 -0.2348 -0.2227
 2514SOL    HW110054   4.943   1.096   4.712  2.3402 -3.2319 -3.2848
 2514SOL    HW210055   4.850   1.114   4.594 -1.4275 -0.2424 -0.1685
 2514SOL     MW10056   4.865   1.083   4.674  0.3365 -0.6194 -0.6077
 2515SOL     OW10057   4.445   0.633   5.165  0.5035  0.3977 -0.0202
 2515SOL    HW110058   4.421   0.551   5.209 -0.9428 -0.0849 -1.6068
 2515SOL    HW210059   4.502   0.678   5.228 -0.7826 -0.6148  1.9830
 2515SOL     MW10060   4.449   0.628   5.179  0.1537  0.2063  0.0332
 2516SOL     OW10061   2.220   1.592   1.972 -0.9943 -0.5632 -0.3084
 2516SOL    HW110062   2.245   1.642   2.049 -0.3654 -1.3500  0.0130
 2516SOL    HW210063   2.231   1.652   1.899  2.9637 -1.1309 -0.3640
 2516SOL     MW10064   2.224   1.606   1.973 -0.4071 -0.7366 -0.2743
 2517SOL     OW10065   4.369   2.577   2.098 -0.2571  0.2126 -0.2038
 2517SOL    HW110066   4.456   2.570   2.137  0.7946  1.3031 -2.2024
 2517SOL    HW210067   4.378   2.536   2.012 -2.5978 -2.4720  0.6801
 2517SOL     MW10068   4.381   2.571   2.092 -0.4221  0.0085 -0.3465
 2518SOL     OW10069   5.099   4.427   1.359  0.2566 -0.1642  0.5052
 2518SOL    HW110070   5.021   4.429   1.303  0.6392 -1.2603 -0.0948
 2518SOL    HW210071   5.172   4.433   1.297  0.6785 -1.1353  0.8924
 2518SOL     MW10072   5.099   4.428   1.344  0.3596 -0.4288  0.4780
 2519SOL     OW10073   2.956   3.003   0.283  0.3031  0.5352  0.3234
 2519SOL    HW110074   2.968   3.086   0.238 -0.3278 -0.0640 -1.0090
 2519SOL    HW210075   2.863   2.983   0.275  0.4609 -0.3573  0.5135
 2519SOL     MW10076   2.946   3.011   0.276  0.2425  0.3443  0.1772
 2520SOL     OW10077   4.709   3.171   3.879  0.3349  0.1026 -0.9334
 2520SOL    HW110078   4.635   3.153   3.821 -0.5833 -0.3596  0.3381
 2520SOL    HW210079   4.685   3.129   3.962  1.1726  1.5672  0.0832
 2520SOL     MW10080   4.696   3.163   3.883  0.3246  0.2309 -0.6405
 2521SOL     OW10081   5.093   2.795   2.122  0.4768 -0.5695  0.1918
 2521SOL    HW110082   5.145   2.860   2.170  0.1961 -0.5836  0.5227
 2521SOL    HW210083   5.152   2.721   2.110  0.5330 -0.5875  0.5706
 2521SOL     MW10084   5.107   2.794   2.127  0.4481 -0.5736  0.2827
 2522SOL     OW10085   4.000   2.619   2.136 -0.2116  0.2117  0.2293
 2522SOL    HW110086   3.959   2.667   2.209  0.4646 -0.7776  1.2872
 2522SOL    HW210087   4.046   2.546   2.178 -1.7195 -1.7660 -1.3547
 2522SOL     MW10088   4.000   2.616   2.151 -0.3181 -0.1681  0.1619
 2523SOL     OW10089   0.815   1.353   2.697  0.7148  0.2115 -0.0378
 2523SOL    HW110090   0.744   1.385   2.640 -0.9270  1.6609  2.5775
 2523SOL    HW210091   0.816   1.259   2.684 -0.9752  0.2814 -1.0033
 2523SOL     MW10092   0.806   1.345   2.688  0.2883  0.4060  0.1734
 2524SOL     OW10093   4.903   0.521   4.585  0.2462  0.8925 -0.4250
 2524SOL    HW110094   4.995   0.534   4.608  0.4328  0.5154 -0.9364
 2524SOL    HW210095   4.855   0.541   4.665  0.8514  0.0764  0.1598
 2524SOL     MW10096   4.909   0.525   4.598  0.3476  0.7397 -0.4156
 2525SOL     OW10097   2.861   0.916   4.765 -0.3940 -0.2509  0.5948
 2525SOL    HW110098   2.899   0.881   4.685 -0.7914  0.4225  0.0984
 2525SOL    HW210099   2.936   0.931   4.823 -0.1185 -0.8660  0.4020
 2525SOL     MW10100   2.876   0.913   4.762 -0.4096 -0.2434  0.5066
 2526SOL     OW10101   2.009   5.202   2.860  0.0173 -0.2642 -0.9021
 2526SOL    HW110102   2.072   5.172   2.795  1.1613  1.8461 -0.8515
 2526SOL    HW210103   2.058   5.264   2.914 -1.0594 -1.4610  1.6148
 2526SOL     MW10104   2.023   5.206   2.859  0.0259 -0.1473 -0.5735
 2527SOL     OW10105   0.235   2.709   0.858  0.3545 -1.1126 -0.5945
 2527SOL    HW110106   0.293   2.689   0.932  0.8218  0.4145 -0.5182
 2527SOL    HW210107   0.237   2.804   0.851 -2.2903 -0.9779 -0.5031
 2527SOL     MW10108   0.243   2.719   0.867  0.0758 -0.8999 -0.5731
 2528SOL     OW10109   0.545   4.334   0.094  0.0664  0.2490 -0.1803
 2528SOL    HW110110   0.552   4.358   0.001  1.2120 -2.0052 -0.7599
 2528SOL    HW210111   0.636   4.327   0.123 -0.2721  0.0037  0.8524
 2528SOL     MW10112   0.558   4.336   0.086  0.1697 -0.0710 -0.1223
 2529SOL     OW10113   1.264   4.640   0.029  0.2701  0.1004  0.2908
 2529SOL    HW110114   1.330   4.651  -0.039 -0.1246  0.5423 -0.0272
 2529SOL    HW210115   1.249   4.545   0.033 -0.9188  0.1911 -1.4206
 2529SOL     MW10116   1.271   4.629   0.021  0.0674  0.1686  0.0310
 2530SOL     OW10117   4.746   0.434   3.007 -0.0881  0.4709  0.0966
 2530SOL    HW110118   4.837   0.424   2.979 -0.2781 -0.5091 -0.2157
 2530SOL    HW210119   4.696   0.387   2.940 -0.8398  1.1912  0.1514
 2530SOL     MW10120   4.752   0.426   2.995 -0.2087  0.4377  0.0636
 2531SOL     OW10121   4.830   4.825   4.965  0.3628  0.1463  0.1078
 2531SOL    HW110122   4.805   4.758   4.902 -1.3807  0.1904  0.7113
 2531SOL    HW210123   4.920   4.803   4.989 -0.5445 -2.7674  1.2630
 2531SOL     MW10124   4.839   4.814   4.960  0.0235 -0.2210  0.3329
 2532SOL     OW10125   0.416   3.884   0.167 -0.3389  0.0081 -0.3814
 2532SOL    HW110126   0.484   3.860   0.103 -0.7799 -0.0967 -0.8146
 2532SOL    HW210127   0.464   3.932   0.234 -0.1499  1.9816 -1.8249
 2532SOL     MW10128   0.431   3.887   0.167 -0.3712  0.2473 -0.6216
 2533SOL     OW10129   3.267   1.108   3.506 -0.0649 -0.1240 -0.1481
 2533SOL    HW110130   3.297   1.140   3.592 -0.7170 -2.3794  1.0159
 2533SOL    HW210131   3.220   1.182   3.468 -0.4573  0.7070  1.8105
 2533SOL     MW10132   3.265   1.121   3.512 -0.1986 -0.3064  0.2516
 2534SOL     OW10133   1.939   1.738   2.706 -0.2967  0.0672  0.1570
 2534SOL    HW110134   1.885   1.659   2.709 -0.1257 -0.0293  1.2023
 2534SOL    HW210135   1.959   1.757   2.798 -0.0366  1.1257 -0.1029
 2534SOL     MW10136   1.935   1.730   2.718 -0.2416  0.1904  0.2575
 2535SOL     OW10137   1.734   2.916   2.675 -0.3415 -0.1655  0.3482
 2535SOL    HW110138   1.794   2.900   2.748 -0.5842  1.2308  0.8692
 2535SOL    HW210139   1.660   2.858   2.693  0.2301 -0.8962  0.4228
 2535SOL     MW10140   1.732   2.906   2.687 -0.2994 -0.0803  0.4245
 2536SOL     OW10141   5.405   0.368   3.743 -0.4229 -0.5574  0.6204
 2536SOL    HW110142   5.315   0.393   3.766 -1.4144  0.6826 -3.7812
 2536SOL    HW210143   5.456   0.447   3.758 -1.2560  0.5778 -2.0252
 2536SOL     MW10144   5.400   0.381   3.748 -0.6564 -0.2534 -0.2818
 2537SOL     OW10145   1.069   4.646   3.677 -0.0070  0.2729 -0.0124
 2537SOL    HW110146   1.079   4.610   3.589  2.1321 -0.3917  0.4619
 2537SOL    HW210147   0.975   4.665   3.684 -0.1814  0.6601 -2.5247
 2537SOL     MW10148   1.058   4.644   3.666  0.2445  0.2374 -0.2733
 2538SOL     OW10149   1.758   0.827   3.579  0.4929  0.2144 -0.2315
 2538SOL    HW110150   1.786   0.902   3.527  0.1257  1.4114  1.2165
 2538SOL    HW210151   1.772   0.854   3.670 -2.0872 -0.4164  0.4575
 2538SOL     MW10152   1.763   0.840   3.584  0.1156  0.2869  0.0420
 2539SOL     OW10153   3.422   2.550   0.866  0.0626  0.0075 -0.3096
 2539SOL    HW110154   3.432   2.518   0.956 -0.5026 -0.3770 -0.3772
 2539SOL    HW210155   3.505   2.529   0.824  1.1709  2.0866  0.6720
 2539SOL     MW10156   3.434   2.543   0.873  0.1321  0.2244 -0.1926
 2540SOL     OW10157   3.113   5.133   4.338  0.2973  0.3579 -0.0621
 2540SOL    HW110158   3.116   5.190   4.415 -1.5350 -0.0179  0.3106
 2540SOL    HW210159   3.033   5.157   4.293  0.1503 -1.0535 -0.5936
 2540SOL     MW10160   3.103   5.143   4.342  0.0439  0.1291 -0.0824
 2541SOL     OW10161   3.142   1.257   1.249  0.2464 -0.1798 -0.4257
 2541SOL    HW110162   3.192   1.237   1.327 -0.0208  1.1094  0.1035
 2541SOL    HW210163   3.153   1.180   1.193  0.7446 -0.9636  0.7109
 2541SOL     MW10164   3.150   1.245   1.251  0.2760 -0.1151 -0.2125
 2542SOL     OW10165   4.633   4.831   1.799  0.1269 -0.4461  0.1845
 2542SOL    HW110166   4.685   4.893   1.749 -0.4418 -0.5724 -0.5903
 2542SOL    HW210167   4.557   4.883   1.828 -0.6866 -0.8927 -1.0208
 2542SOL     MW10168   4.630   4.846   1.796 -0.0500 -0.5194 -0.0690
 2543SOL     OW10169   1.839   2.518   1.564 -0.9613 -0.4564 -0.1267
 2543SOL    HW110170   1.873   2.465   1.492  1.0104  1.8674 -1.0454
 2543SOL    HW210171   1.917   2.548   1.610 -2.1132 -0.2389  1.8008
 2543SOL     MW10172   1.853   2.515   1.561 -0.8564 -0.1311  0.0025
 2544SOL     OW10173   2.589   0.792   2.256  0.4562  0.0352  0.3692
 2544SOL    HW110174   2.676   0.763   2.229  0.8349  0.9425  0.5708
 2544SOL    HW210175   2.605   0.847   2.333 -0.0990  1.6963 -0.6378
 2544SOL     MW10176   2.602   0.796   2.263  0.4336  0.3639  0.2661
 2545SOL     OW10177   4.272   1.954   5.118 -0.0393 -0.0576 -0.2078
 2545SOL    HW110178   4.286   2.025   5.056  0.2591 -0.3749 -0.5113
 2545SOL    HW210179   4.177   1.949   5.128 -0.0788  0.1253 -0.4856
 2545SOL     MW10180   4.262   1.962   5.112 -0.0062 -0.0748 -0.2822
 2546SOL     OW10181   4.643   1.927   4.134 -0.0196  0.0459 -0.2810
 2546SOL    HW110182   4.641   2.009   4.183 -1.7275  0.5795 -1.1655
 2546SOL    HW210183   4.709   1.873   4.179 -0.1015  1.2520  1.3516
 2546SOL     MW10184   4.651   1.930   4.146 -0.2487  0.2686 -0.1852
 2547SOL     OW10185   1.104   5.243   3.452  0.1061  0.0870 -0.2106
 2547SOL    HW110186   1.010   5.259   3.456  0.2744  1.8091 -1.6902
 2547SOL    HW210187   1.118   5.198   3.369  0.6726  0.8883 -0.5718
 2547SOL     MW10188   1.094   5.240   3.442  0.2002  0.4100 -0.4462
 2548SOL     OW10189   2.849   5.039   1.798  0.1368  0.1110  0.4624
 2548SOL    HW110190   2.904   5.061   1.874  1.8629  1.4334 -1.0645
 2548SOL    HW210191   2.856   4.944   1.791  1.3786  0.1360  0.9714
 2548SOL     MW10192   2.857   5.029   1.807  0.5167  0.2835  0.3321
 2549SOL     OW10193   3.349   2.748   1.535  0.1968  0.3377  0.4374
 2549SOL    HW110194   3.426   2.719   1.585  0.7577  1.3609  0.1897
 2549SOL    HW210195   3.338   2.840   1.558 -3.2503 -0.5880  3.3910
 2549SOL     MW10196   3.357   2.756   1.545 -0.1727  0.3502  0.7838
 2550SOL     OW10197   0.405   5.160   5.030 -0.1357 -0.3950  0.2239
 2550SOL    HW110198   0.497   5.142   5.044 -0.3310 -1.9405 -0.3207
 2550SOL    HW210199   0.396   5.254   5.049  1.8164  0.1273 -1.1712
 2550SOL     MW10200   0.415   5.170   5.034  0.0892 -0.5260 -0.0244
 2551SOL     OW10201   4.977   1.646   3.250  0.3528 -0.4031 -0.2577
 2551SOL    HW110202   5.066   1.612   3.243  0.9121  0.6184  1.3957
 2551SOL    HW210203   4.974   1.687   3.336 -1.6483 -0.1804 -0.3931
 2551SOL     MW10204   4.988   1.647   3.260  0.1682 -0.2439 -0.0634
 2552SOL     OW10205   0.247   1.626   2.449  0.6795  0.5963  0.1487
 2552SOL    HW110206   0.320   1.688   2.457  0.5200  0.7586  0.3918
 2552SOL    HW210207   0.285   1.541   2.473  0.5964  0.8177  1.1041
 2552SOL     MW10208   0.261   1.623   2.453  0.6485  0.6454  0.3021
 2553SOL     OW10209   0.669   4.125   2.083  0.0657 -0.2729  0.3889
 2553SOL    HW110210   0.656   4.196   2.019  0.2703 -2.0762 -1.7717
 2553SOL    HW210211   0.753   4.146   2.125  1.8448 -0.8314 -2.5914
 2553SOL     MW10212   0.678   4.137   2.080  0.3197 -0.5753 -0.2692
 2554SOL     OW10213   3.525   4.404   0.265  0.1973 -0.0917 -0.6513
 2554SOL    HW110214   3.470   4.394   0.343 -0.0725  0.4798 -0.7626
 2554SOL    HW210215   3.494   4.337   0.204  0.6495 -0.7828 -0.1398
 2554SOL     MW10216   3.514   4.395   0.267  0.2206 -0.1070 -0.6001
 2555SOL     OW10217   1.322   1.602   3.265 -0.2957 -0.6002  0.1561
 2555SOL    HW110218   1.267   1.621   3.341 -1.0939 -0.9058 -0.3339
 2555SOL    HW210219   1.283   1.524   3.225 -1.4654  0.9881 -2.0193
 2555SOL     MW10220   1.310   1.595   3.270 -0.5477 -0.4360 -0.1851
 2556SOL     OW10221   2.108   3.719   5.434  0.0899 -0.2954 -0.0384
 2556SOL    HW110222   2.166   3.739   5.507 -0.4092  0.5253  0.1388
 2556SOL    HW210223   2.158   3.744   5.356  0.3832 -0.5934  0.0536
 2556SOL     MW10224   2.122   3.725   5.433  0.0636 -0.2285 -0.0039
 2557SOL     OW10225   0.956   4.238   5.065  0.3788 -0.0726 -0.1793
 2557SOL    HW110226   0.886   4.188   5.108  0.1390 -0.3894 -0.9159
 2557SOL    HW210227   0.964   4.197   4.979  0.4260  0.9404 -0.6644
 2557SOL     MW10228   0.948   4.226   5.060  0.3541  0.0165 -0.3357
 2558SOL     OW10229   4.397   3.620   4.088 -0.2022 -0.2112 -0.2942
 2558SOL    HW110230   4.388   3.680   4.162 -0.6067 -1.4736  0.7281
 2558SOL    HW210231   4.482   3.641   4.050  0.1751  0.2280  0.7568
 2558SOL     MW10232   4.406   3.630   4.092 -0.2057 -0.3166 -0.0288
 2559SOL     OW10233   3.004   5.044   2.021  0.2795  0.3466 -0.3898
 2559SOL    HW110234   3.015   4.949   2.017 -0.6531  0.1819  0.3858
 2559SOL    HW210235   2.951   5.058   2.100  1.0686  1.5785 -0.0621
 2559SOL     MW10236   2.998   5.034   2.030  0.2611  0.4832 -0.2485
 2560SOL     OW10237   2.969   3.083   2.703  0.6444 -0.1830 -0.4524
 2560SOL    HW110238   2.950   3.177   2.707 -1.5962 -0.5915 -0.1460
 2560SOL    HW210239   3.003   3.063   2.790 -1.8808 -0.1650  0.6292
 2560SOL     MW10240   2.971   3.093   2.715  0.0343 -0.2330 -0.2748
 2561SOL     OW10241   2.277   4.351   2.096 -0.1961 -0.4466  0.6965
 2561SOL    HW110242   2.301   4.419   2.033  1.1618  0.7746  2.4295
 2561SOL    HW210243   2.217   4.394   2.157 -0.3705 -1.1966  1.0698
 2561SOL     MW10244   2.272   4.365   2.096 -0.0446 -0.3863  0.9661
 2562SOL     OW10245   4.005   5.382   3.445 -0.1806  0.1385 -0.4941
 2562SOL    HW110246   4.084   5.341   3.481 -1.1942 -0.1828  1.5074
 2562SOL    HW210247   3.976   5.321   3.377  0.9461 -0.0450 -0.8327
 2562SOL     MW10248   4.011   5.369   3.441 -0.1661  0.0739 -0.2812
 2563SOL     OW10249   2.373   1.601   3.720 -0.9348 -0.2761 -0.0862
 2563SOL    HW110250   2.400   1.636   3.635 -1.9443 -0.8341 -0.6565
 2563SOL    HW210251   2.452   1.603   3.773 -0.2997  0.1348 -1.0277
 2563SOL     MW10252   2.387   1.606   3.716 -0.9827 -0.2949 -0.2797
 2564SOL     OW10253   3.870   1.380   1.041  0.5181  0.0730  0.2799
 2564SOL    HW110254   3.964   1.386   1.023  0.3241  2.6058 -0.3461
 2564SOL    HW210255   3.833   1.458   0.999 -1.7127 -0.2729  1.4575
 2564SOL     MW10256   3.877   1.391   1.033  0.2077  0.3529  0.3505
 2565SOL     OW10257   0.428   4.604   2.848 -0.1160  0.6453 -0.0613
 2565SOL    HW110258   0.372   4.527   2.857  1.2483 -0.2450  1.3747
 2565SOL    HW210259   0.395   4.649   2.770 -3.9486  1.1666  1.6297
 2565SOL     MW10260   0.416   4.600   2.839 -0.4319  0.5981  0.3390
 2566SOL     OW10261   1.167   2.222   4.496 -0.2660 -0.0954  0.0809
 2566SOL    HW110262   1.140   2.185   4.580  0.3281  0.9537  0.7616
 2566SOL    HW210263   1.133   2.161   4.431 -2.1331 -0.1271  0.9996
 2566SOL     MW10264   1.159   2.209   4.498 -0.4290  0.0348  0.2857
 2567SOL     OW10265   5.213   4.943   1.208  0.0535 -0.0747  0.6916
 2567SOL    HW110266   5.236   4.863   1.256  0.9337  0.1852  0.7284
 2567SOL    HW210267   5.171   4.999   1.274 -0.3373 -0.4064  0.7255
 2567SOL     MW10268   5.211   4.940   1.223  0.1161 -0.0839  0.7007
 2568SOL     OW10269   0.596   3.111   2.897  0.2141  0.5254  0.1026
 2568SOL    HW110270   0.652   3.146   2.966 -0.7332  0.6929  0.8087
 2568SOL    HW210271   0.557   3.188   2.855 -0.1909  0.3972  0.2295
 2568SOL     MW10272   0.598   3.125   2.901  0.0410  0.5304  0.2092
 2569SOL     OW10273   5.131   0.739   4.169  0.3601 -0.4037 -0.0794
 2569SOL    HW110274   5.053   0.739   4.113 -0.1062  0.3366  0.5473
 2569SOL    HW210275   5.109   0.679   4.240  1.3132 -2.0932 -1.1172
 2569SOL     MW10276   5.118   0.731   4.171  0.4224 -0.5252 -0.1321
 2570SOL     OW10277   0.217   2.970   0.806 -0.0727 -0.1329  0.5846
 2570SOL    HW110278   0.132   3.007   0.828  0.3646  1.0008  0.4753
 2570SOL    HW210279   0.280   3.039   0.830  0.6631 -0.1587 -1.0812
 2570SOL     MW10280   0.214   2.984   0.812  0.0775  0.0089  0.3574
 2571SOL     OW10281   4.924   1.821   4.494 -0.1169  0.0169 -0.3181
 2571SOL    HW110282   4.890   1.836   4.583  2.0804 -2.8230  1.1583
 2571SOL    HW210283   4.967   1.903   4.471 -4.5969  2.5221 -0.8736
 2571SOL     MW10284   4.925   1.833   4.502 -0.4091 -0.0260 -0.2002
 2572SOL     OW10285   4.393   1.875   1.189 -0.7370  0.0143  0.4969
 2572SOL    HW110286   4.446   1.833   1.256 -0.7298 -0.3227  0.2819
 2572SOL    HW210287   4.436   1.958   1.173 -0.0854 -0.3962  0.0866
 2572SOL     MW10288   4.405   1.880   1.196 -0.6527 -0.0814  0.4169
 2573SOL     OW10289   2.494   1.719   3.412 -0.5476 -0.0794  0.6229
 2573SOL    HW110290   2.554   1.793   3.400 -0.3521 -0.3171  0.1078
 2573SOL    HW210291   2.407   1.756   3.396 -0.3328 -0.2927 -1.2497
 2573SOL     MW10292   2.491   1.733   3.408 -0.4951 -0.1371  0.3172
 2574SOL     OW10293   5.182   1.285   4.439 -0.0160 -0.4135 -0.4618
 2574SOL    HW110294   5.175   1.233   4.359 -1.7839  0.8397 -1.2025
 2574SOL    HW210295   5.221   1.368   4.410  0.0827 -0.2498  0.1236
 2574SOL     MW10296   5.186   1.289   4.425 -0.2297 -0.2321 -0.4817
 2575SOL     OW10297   0.987   0.059   2.489  0.2160 -0.0711  0.0088
 2575SOL    HW110298   1.067   0.012   2.515  1.4296  2.5126  1.3878
 2575SOL    HW210299   0.993   0.066   2.394  0.4736 -1.7657 -0.1391
 2575SOL     MW10300   0.998   0.054   2.480  0.4044  0.0427  0.1664
 2576SOL     OW10301   0.176   3.863   0.493 -0.8591  0.1477 -0.6282
 2576SOL    HW110302   0.111   3.895   0.431  0.3652  0.5800 -1.7230
 2576SOL    HW210303   0.229   3.800   0.443 -0.3802 -0.1456  0.2143
 2576SOL     MW10304   0.175   3.859   0.479 -0.6411  0.1655 -0.6605
 2577SOL     OW10305   0.048   0.849   3.119  0.4340 -0.7095 -0.0589
 2577SOL    HW110306  -0.042   0.874   3.099  0.3113 -1.8071 -0.9785
 2577SOL    HW210307   0.047   0.826   3.212 -0.7302 -2.6314 -0.4908
 2577SOL     MW10308   0.036   0.849   3.129  0.2693 -1.0960 -0.2319
 2578SOL     OW10309   4.396   0.367   5.293  0.7894  0.0369  0.7395
 2578SOL    HW110310   4.327   0.334   5.234  1.5012  0.1391 -0.1799
 2578SOL    HW210311   4.460   0.297   5.296  1.0070  0.2468  0.9841
 2578SOL     MW10312   4.395   0.354   5.286  0.9084  0.0769  0.6531
 2579SOL     OW10313   2.278   1.917   1.536 -0.7577  0.1283  0.1002
 2579SOL    HW110314   2.331   1.919   1.456  0.8567  1.5819  1.1526
 2579SOL    HW210315   2.210   1.984   1.521  0.8040  1.9312  0.7060
 2579SOL     MW10316   2.276   1.926   1.524 -0.3511  0.5452  0.3125
 2580SOL     OW10317   1.011   5.318   3.720  0.2727  0.1527  0.2097
 2580SOL    HW110318   0.946   5.252   3.697  1.0947  0.0786 -2.2251
 2580SOL    HW210319   1.079   5.309   3.653  2.7089  0.3911  2.4763
 2580SOL     MW10320   1.011   5.308   3.708  0.6898  0.1738  0.1882
 2581SOL     OW10321   5.332   1.287   2.927  0.1331  0.2867  0.5322
 2581SOL    HW110322   5.384   1.326   2.997 -0.3248  0.5919  0.7063
 2581SOL    HW210323   5.296   1.207   2.965  2.5256 -1.3254 -0.3725
 2581SOL     MW10324   5.334   1.282   2.940  0.3807  0.1194  0.4386
 2582SOL     OW10325   2.268   0.564   0.712 -0.1558 -0.5547  0.1019
 2582SOL    HW110326   2.363   0.575   0.708 -0.0993 -1.0174  0.2182
 2582SOL    HW210327   2.241   0.558   0.620  0.0142 -1.1959  0.0933
 2582SOL     MW10328   2.277   0.565   0.700 -0.1268 -0.6960  0.1157
 2583SOL     OW10329   2.618   0.053   5.235  0.7024  0.1895 -0.1047
 2583SOL    HW110330   2.678   0.046   5.160 -0.7680 -2.4857 -1.1532
 2583SOL    HW210331   2.659   0.119   5.292  1.3541  3.1891 -3.6695
 2583SOL     MW10332   2.631   0.061   5.233  0.5976  0.2310 -0.6953
 2584SOL     OW10333   4.072   4.344   0.479  0.1413 -0.5611 -0.0613
 2584SOL    HW110334   4.002   4.373   0.421 -0.0211 -0.8588 -0.0166
 2584SOL    HW210335   4.151   4.388   0.445 -0.5912  2.7704  2.0873
 2584SOL     MW10336   4.073   4.353   0.467  0.0267 -0.1727  0.2195
 2585SOL     OW10337   2.293   1.338   4.819 -0.8038  0.0768  0.1460
 2585SOL    HW110338   2.236   1.276   4.775  0.9312 -1.3282 -0.2215
 2585SOL    HW210339   2.375   1.336   4.768  0.5991 -0.1709  2.2849
 2585SOL     MW10340   2.296   1.330   4.807 -0.4021 -0.1347  0.3728
 2586SOL     OW10341   2.572   4.956   3.990 -0.2921  0.2583  0.3557
 2586SOL    HW110342   2.532   4.869   4.001 -0.4583  0.3701  0.6568
 2586SOL    HW210343   2.628   4.966   4.066  0.5379 -0.0127 -0.2105
 2586SOL     MW10344   2.574   4.946   4.001 -0.2071  0.2379  0.3217
 2587SOL     OW10345   0.163   1.578   5.149 -0.0210 -0.0979 -0.9804
 2587SOL    HW110346   0.072   1.596   5.128 -0.6793  1.2932  2.3162
 2587SOL    HW210347   0.203   1.665   5.159  0.1287 -0.4362  2.8506
 2587SOL     MW10348   0.157   1.592   5.148 -0.0861  0.0369 -0.0680
 2588SOL     OW10349   4.136   1.029   1.118  0.4142 -0.2029  0.1137
 2588SOL    HW110350   4.199   0.959   1.098 -0.8834 -0.5243 -3.6755
 2588SOL    HW210351   4.052   0.984   1.125 -0.5154  0.8193 -2.8268
 2588SOL     MW10352   4.134   1.014   1.116  0.1291 -0.1132 -0.7478
 2589SOL     OW10353   0.342   2.517   0.558 -0.2184 -0.2305 -0.6505
 2589SOL    HW110354   0.406   2.574   0.599  1.7214 -1.2582 -2.0650
 2589SOL    HW210355   0.286   2.576   0.506  0.9034  0.5187 -1.0374
 2589SOL     MW10356   0.343   2.532   0.556  0.1735 -0.2661 -0.8811
 2590SOL     OW10357   2.086   1.791   3.502 -0.5454 -0.4546 -0.2528
 2590SOL    HW110358   2.143   1.818   3.429  0.3823  0.6351  0.8356
 2590SOL    HW210359   2.058   1.702   3.479  0.5286 -0.5108 -1.4577
 2590SOL     MW10360   2.090   1.783   3.489 -0.2891 -0.3223 -0.2677
 2591SOL     OW10361   2.904   3.352   2.726  0.1469  0.1242  0.6047
 2591SOL    HW110362   2.825   3.385   2.769  0.2591  0.0015  0.9144
 2591SOL    HW210363   2.972   3.415   2.750  0.1962  0.0931  0.5468
 2591SOL     MW10364   2.903   3.364   2.735  0.1676  0.1045  0.6370
 2592SOL     OW10365   0.158   4.480   4.080 -0.1760 -0.9370  0.2192
 2592SOL    HW110366   0.228   4.531   4.040 -0.9378  0.4561  0.5726
 2592SOL    HW210367   0.081   4.536   4.072 -0.5425 -0.9448  2.8321
 2592SOL     MW10368   0.157   4.494   4.074 -0.3204 -0.7597  0.5989
 2593SOL     OW10369   3.950   2.540   2.655 -0.4188  0.2118  0.2781
 2593SOL    HW110370   3.937   2.445   2.657 -1.1586  0.2732 -0.8110
 2593SOL    HW210371   4.034   2.552   2.611 -0.0800  0.0541  0.8711
 2593SOL     MW10372   3.959   2.529   2.650 -0.4701  0.1994  0.2146
 2594SOL     OW10373   1.467   0.804   4.264 -0.1861 -0.2301 -0.5379
 2594SOL    HW110374   1.459   0.774   4.174  0.9857 -0.2940 -0.6416
 2594SOL    HW210375   1.482   0.899   4.256 -1.5522  0.0172 -0.3274
 2594SOL     MW10376   1.468   0.813   4.252 -0.2110 -0.2066 -0.5242
 2595SOL     OW10377   2.473   5.422   3.071  0.3864 -0.3088 -0.2494
 2595SOL    HW110378   2.462   5.460   2.984 -0.0198  0.6748  0.2222
 2595SOL    HW210379   2.445   5.331   3.061  2.5185 -0.8864 -1.6826
 2595SOL     MW10380   2.468   5.415   3.058  0.6073 -0.2568 -0.3725
 2596SOL     OW10381   0.517   2.713   0.652 -0.0188 -0.7508  0.5175
 2596SOL    HW110382   0.495   2.756   0.734  0.5498  0.0760  0.2601
 2596SOL    HW210383   0.564   2.780   0.602 -1.8767 -0.6343 -1.2105
 2596SOL     MW10384   0.520   2.727   0.656 -0.1838 -0.6301  0.2633
 2597SOL     OW10385   1.638   0.913   4.706 -0.6201 -0.4420 -0.0173
 2597SOL    HW110386   1.627   0.854   4.780 -1.6287  1.0638  1.1019
 2597SOL    HW210387   1.670   0.995   4.745  3.2726 -0.8806 -1.7841
 2597SOL     MW10388   1.641   0.916   4.720 -0.2509 -0.3054 -0.1002
 2598SOL     OW10389   3.953   1.564   2.295 -0.1911 -0.5739 -0.8726
 2598SOL    HW110390   3.971   1.477   2.330 -0.7763 -0.4577 -0.2442
 2598SOL    HW210391   3.892   1.550   2.223 -1.5800 -0.5830  0.2603
 2598SOL     MW10392   3.947   1.551   2.290 -0.4438 -0.5602 -0.6471
 2599SOL     OW10393   0.257   4.382   5.029  0.4205  0.0681 -0.2503
 2599SOL    HW110394   0.304   4.323   4.970  0.3799  0.2120 -0.4281
 2599SOL    HW210395   0.318   4.454   5.044  0.1429  0.4031 -0.7214
 2599SOL     MW10396   0.271   4.384   5.024  0.3798  0.1294 -0.3334
 2600SOL     OW10397   2.004   4.368   2.269 -0.1568 -0.2747 -0.1367
 2600SOL    HW110398   2.055   4.314   2.329 -1.9035 -1.3190  0.4772
 2600SOL    HW210399   2.019   4.458   2.299  1.3911 -0.5286 -0.0732
 2600SOL     MW10400   2.012   4.373   2.280 -0.1823 -0.4409 -0.0500
 2601SOL     OW10401   4.608   0.386   3.780 -0.0463  0.2957  0.2930
 2601SOL    HW110402   4.581   0.465   3.826 -0.8241 -0.7494  1.7184
 2601SOL    HW210403   4.676   0.415   3.719 -0.3756  2.0537  0.7178
 2601SOL     MW10404   4.613   0.400   3.778 -0.1880  0.3869  0.5298
 2602SOL     OW10405   0.364   3.012   4.486  0.9841  0.2643  0.3763
 2602SOL    HW110406   0.438   2.985   4.431 -1.3682 -1.6181 -2.1731
 2602SOL    HW210407   0.352   3.105   4.465 -0.0508 -0.4557 -2.8129
 2602SOL     MW10408   0.372   3.021   4.476  0.5505 -0.0688 -0.3583
 2603SOL     OW10409   4.778   4.208   3.004 -0.1503 -0.4023 -0.1659
 2603SOL    HW110410   4.816   4.126   3.035  0.6909  0.8049  2.2468
 2603SOL    HW210411   4.699   4.220   3.056  0.2659  0.7647  0.2427
 2603SOL     MW10412   4.773   4.199   3.015  0.0106 -0.0984  0.1953
 2604SOL     OW10413   3.082   3.248   4.391  0.2371  0.6399  0.0701
 2604SOL    HW110414   3.006   3.302   4.369 -0.4957 -0.4521 -0.1373
 2604SOL    HW210415   3.157   3.307   4.381 -0.5261  1.5638 -0.3279
 2604SOL     MW10416   3.082   3.262   4.387  0.0456  0.6184 -0.0074
 2605SOL     OW10417   4.629   5.174   2.334  0.1471  0.9107 -0.1098
 2605SOL    HW110418   4.656   5.149   2.245 -1.5289  1.7575 -0.9009
 2605SOL    HW210419   4.626   5.092   2.382 -0.4222  0.2131 -1.2873
 2605SOL     MW10420   4.632   5.160   2.329 -0.1403  0.9298 -0.3618
 2606SOL     OW10421   4.596   0.674   2.515  0.6865 -0.3007 -0.5824
 2606SOL    HW110422   4.573   0.645   2.427  0.9113  0.4235 -0.8843
 2606SOL    HW210423   4.686   0.706   2.507  1.1482 -1.3475  0.1733
 2606SOL     MW10424   4.605   0.674   2.502  0.7744 -0.3420 -0.5243
 2607SOL     OW10425   2.574   1.673   3.905  0.6670  0.1925  0.5147
 2607SOL    HW110426   2.658   1.654   3.948  1.2337  2.5713  0.6488
 2607SOL    HW210427   2.580   1.767   3.884 -2.0080  0.4520  0.6178
 2607SOL     MW10428   2.586   1.683   3.908  0.3971  0.5302  0.5451
 2608SOL     OW10429   2.776   3.874   3.344 -0.8051 -0.0166  0.9885
 2608SOL    HW110430   2.841   3.910   3.283 -1.8505  0.2690 -0.0004
 2608SOL    HW210431   2.788   3.779   3.339 -2.1033 -0.1592 -1.1919
 2608SOL     MW10432   2.786   3.867   3.335 -1.1051  0.0017  0.5828
 2609SOL     OW10433   5.022   4.839   0.923  0.0572 -0.3051 -0.1557
 2609SOL    HW110434   5.082   4.842   0.997 -1.1068  0.6745  0.7859
 2609SOL    HW210435   4.981   4.926   0.921  0.4567 -0.1019 -2.3020
 2609SOL     MW10436   5.025   4.850   0.932 -0.0407 -0.1537 -0.3099
 2610SOL     OW10437   2.814   4.971   3.761 -0.6849  0.6007 -0.2296
 2610SOL    HW110438   2.848   4.942   3.846  0.7054  0.0154 -0.9502
 2610SOL    HW210439   2.721   4.949   3.764 -0.7468  0.9276  1.2698
 2610SOL     MW10440   2.806   4.965   3.773 -0.5148  0.5676 -0.1299
 2611SOL     OW10441   2.955   4.002   3.180 -0.2085 -0.2221  0.8546
 2611SOL    HW110442   3.038   3.955   3.191 -0.7797 -1.4284  0.3176
 2611SOL    HW210443   2.974   4.092   3.206  1.3833 -0.3648  0.2957
 2611SOL     MW10444   2.968   4.007   3.185 -0.0778 -0.3948  0.7143
 2612SOL     OW10445   3.289   0.001   1.180 -0.0843  0.0792 -0.3710
 2612SOL    HW110446   3.229   0.072   1.201 -1.0684 -0.6192 -0.7457
 2612SOL    HW210447   3.352   0.039   1.119  0.0253  0.8888  0.2323
 2612SOL     MW10448   3.289   0.015   1.175 -0.1963  0.0935 -0.3417
 2613SOL     OW10449   3.475   4.216   4.476  0.5995  0.1545  0.3864
 2613SOL    HW110450   3.410   4.251   4.415  0.6604 -0.2983  0.0633
 2613SOL    HW210451   3.506   4.293   4.524 -0.0058  0.4067  0.3868
 2613SOL     MW10452   3.471   4.231   4.475  0.5298  0.1288  0.3451
 2614SOL     OW10453   3.947   5.506   2.097 -0.3540  0.2323 -0.1882
 2614SOL    HW110454   3.992   5.430   2.133 -0.7471  1.3560  2.9759
 2614SOL    HW210455   3.854   5.485   2.103 -0.4303  0.5165 -0.3440
 2614SOL     MW10456   3.941   5.494   2.102 -0.4141  0.4125  0.1969
 2615SOL     OW10457   0.060   3.495   4.510  0.1455  0.6836 -0.3316
 2615SOL    HW110458   0.115   3.423   4.479 -0.1041  1.1808 -2.0460
 2615SOL    HW210459   0.077   3.500   4.604  1.3796 -0.5658 -0.4605
 2615SOL     MW10460   0.069   3.487   4.518  0.2715  0.5873 -0.5676
 2616SOL     OW10461   2.558   1.132   1.771 -0.2423 -0.2994 -0.0365
 2616SOL    HW110462   2.599   1.058   1.816 -0.4258 -0.9516 -0.8967
 2616SOL    HW210463   2.620   1.155   1.702 -0.6196 -0.2895 -0.3785
 2616SOL     MW10464   2.571   1.125   1.768 -0.3141 -0.3816 -0.1904
 2617SOL     OW10465   2.314   1.932   0.326  0.4056 -0.1658  0.3959
 2617SOL    HW110466   2.348   1.919   0.414 -1.2552 -1.9982  0.8351
 2617SOL    HW210467   2.242   1.869   0.318 -0.3778  0.8885 -1.7938
 2617SOL     MW10468   2.309   1.922   0.336  0.0927 -0.2654  0.1718
 2618SOL     OW10469   3.368   2.371   2.234  0.3706  0.7008  0.4463
 2618SOL    HW110470   3.461   2.389   2.250  0.4571  1.4899 -0.7627
 2618SOL    HW210471   3.325   2.455   2.249 -0.6342 -0.3038  3.9306
 2618SOL     MW10472   3.375   2.384   2.238  0.2531  0.6732  0.7376
 2619SOL     OW10473   1.485   3.586   3.169 -0.3208 -0.4977 -0.1506
 2619SOL    HW110474   1.393   3.610   3.158 -0.5195 -0.3709  1.4694
 2619SOL    HW210475   1.494   3.572   3.263  1.4406  0.0045 -0.2174
 2619SOL     MW10476   1.474   3.587   3.180 -0.1207 -0.4172  0.0482
 2620SOL     OW10477   4.871   2.664   4.578 -0.0422 -0.3816 -0.6539
 2620SOL    HW110478   4.877   2.591   4.516  1.1887  1.8542 -3.3700
 2620SOL    HW210479   4.777   2.681   4.585 -0.2435 -1.0495 -1.4612
 2620SOL     MW10480   4.859   2.657   4.571  0.0896 -0.1809 -1.1049
 2621SOL     OW10481   4.021   4.611   0.079  0.0525  0.0130  0.1111
 2621SOL    HW110482   4.015   4.705   0.091  1.4811  0.2087 -0.5574
 2621SOL    HW210483   4.110   4.596   0.048 -0.2823 -1.5174 -0.1906
 2621SOL     MW10484   4.032   4.621   0.077  0.1925 -0.1579 -0.0131
 2622SOL     OW10485   0.189   4.965   2.168  0.4797 -0.4741  0.2569
 2622SOL    HW110486   0.177   4.982   2.074  1.1920 -0.0388  0.2406
 2622SOL    HW210487   0.206   4.871   2.173 -2.0193 -0.9856  0.2048
 2622SOL     MW10488   0.190   4.955   2.157  0.2510 -0.4838  0.2481
 2623SOL     OW10489   1.731   4.141   3.945 -0.0898 -0.3995 -0.8571
 2623SOL    HW110490   1.779   4.176   4.020 -1.3228  0.5577 -0.4807
 2623SOL    HW210491   1.799   4.106   3.887  1.1129  1.3561 -0.5876
 2623SOL     MW10492   1.746   4.141   3.947 -0.0937 -0.0522 -0.7744
 2624SOL     OW10493   1.643   1.252   3.184 -0.1425 -0.0078  0.2854
 2624SOL    HW110494   1.605   1.330   3.144 -0.9485 -0.3452  0.3648
 2624SOL    HW210495   1.710   1.223   3.122 -0.8863 -0.1187 -0.4836
 2624SOL     MW10496   1.647   1.258   3.171 -0.3409 -0.0652  0.1971
 2625SOL     OW10497   1.083   4.740   4.700  0.8424  0.5526 -0.6051
 2625SOL    HW110498   1.020   4.669   4.713  2.2728 -0.8955 -1.2510
 2625SOL    HW210499   1.050   4.789   4.625  0.7276 -0.4951 -1.2576
 2625SOL     MW10500   1.071   4.737   4.692  1.0108  0.2331 -0.7713
 2626SOL     OW10501   2.080   3.834   4.804 -0.4178  0.0944  0.5490
 2626SOL    HW110502   2.067   3.821   4.710 -0.1717 -1.1112  0.6685
 2626SOL    HW210503   1.996   3.870   4.835 -0.3135  1.0221 -0.2095
 2626SOL     MW10504   2.067   3.837   4.796 -0.3729  0.0588  0.4672
 2627SOL     OW10505   4.575   3.396   1.975 -0.7406  0.0969 -0.1134
 2627SOL    HW110506   4.629   3.371   2.049  0.2048 -1.3503 -1.2466
 2627SOL    HW210507   4.563   3.491   1.985  0.9451  0.2451  0.8492
 2627SOL     MW10508   4.580   3.405   1.985 -0.4038 -0.0694 -0.1352
 2628SOL     OW10509   0.520   4.468   4.430  0.0228  0.2363  0.0142
 2628SOL    HW110510   0.436   4.429   4.407  0.8888 -0.5746 -2.0050
 2628SOL    HW210511   0.570   4.396   4.468  0.2777  0.3731 -0.0610
 2628SOL     MW10512   0.516   4.454   4.432  0.1663  0.1500 -0.2539
 2629SOL     OW10513   4.191   0.959   3.370 -0.2533  0.0901 -0.0680
 2629SOL    HW110514   4.123   0.975   3.304 -0.4449  1.1574  0.3656
 2629SOL    HW210515   4.152   0.895   3.429 -0.2791 -0.4792 -0.6879
 2629SOL     MW10516   4.177   0.953   3.369 -0.2811  0.1539 -0.0919
 2630SOL     OW10517   3.983   0.749   0.412  0.3241 -0.3045  0.2817
 2630SOL    HW110518   4.047   0.678   0.414  1.4229  0.5892  3.7093
 2630SOL    HW210519   3.989   0.785   0.324 -0.2814 -4.3132 -1.6163
 2630SOL     MW10520   3.992   0.745   0.401  0.3873 -0.7033  0.4775
 2631SOL     OW10521   2.453   2.547   2.332 -0.0355  0.2213  0.3732
 2631SOL    HW110522   2.392   2.485   2.373  0.4388 -0.3912  0.1631
 2631SOL    HW210523   2.436   2.629   2.377  0.9512 -0.5861  2.3130
 2631SOL     MW10524   2.443   2.549   2.343  0.1515  0.0395  0.5946
 2632SOL     OW10525   3.049   4.804   2.147 -0.1445 -0.0199 -0.0854
 2632SOL    HW110526   2.962   4.774   2.122 -0.5460  0.7403  0.3396
 2632SOL    HW210527   3.109   4.758   2.088 -0.9446  0.5593 -1.3933
 2632SOL     MW10528   3.046   4.794   2.137 -0.2983  0.1516 -0.1984
 2633SOL     OW10529   3.814   0.235   2.772 -0.2114 -0.3568 -0.1527
 2633SOL    HW110530   3.796   0.326   2.799 -1.3132 -0.3422 -0.8478
 2633SOL    HW210531   3.903   0.219   2.801  0.3375  1.2630 -0.8227
 2633SOL     MW10532   3.823   0.245   2.779 -0.2822 -0.1476 -0.3274
 2634SOL     OW10533   5.462   0.879   0.631 -0.1958 -0.7497  0.0146
 2634SOL    HW110534   5.405   0.951   0.658  0.0200 -0.1378 -1.1173
 2634SOL    HW210535   5.523   0.918   0.569  0.5241 -1.7156  0.0886
 2634SOL     MW10536   5.462   0.893   0.626 -0.0760 -0.7950 -0.1208
 2635SOL     OW10537   5.429   5.289   3.563  0.5040 -0.2399 -0.3073
 2635SOL    HW110538   5.513   5.256   3.530  0.6560 -0.2779  0.1080
 2635SOL    HW210539   5.409   5.233   3.638 -0.4036 -0.8746 -1.0066
 2635SOL     MW10540   5.437   5.278   3.568  0.4073 -0.3260 -0.3436
 2636SOL     OW10541   2.407   0.306   4.642  0.3995  0.6162  0.4079
 2636SOL    HW110542   2.432   0.346   4.725 -1.5792  0.0158  1.3716
 2636SOL    HW210543   2.311   0.311   4.642  0.3673  1.6483 -2.3908
 2636SOL     MW10544   2.398   0.312   4.653  0.1421  0.6714  0.1730
 2637SOL     OW10545   5.177   1.368   0.241  0.1786  0.1657  0.6732
 2637SOL    HW110546   5.210   1.305   0.176  0.5585  1.8432 -0.8359
 2637SOL    HW210547   5.174   1.452   0.194 -1.0583  1.1439  2.3828
 2637SOL     MW10548   5.181   1.371   0.227  0.0689  0.5056  0.6989
 2638SOL     OW10549   1.833   4.989   0.808  0.1068 -0.2809  0.0846
 2638SOL    HW110550   1.886   4.966   0.731 -0.2599  1.1259 -0.6239
 2638SOL    HW210551   1.750   4.944   0.794  0.5739 -1.2813  0.4490
 2638SOL     MW10552   1.830   4.980   0.796  0.1196 -0.2289  0.0405
 2639SOL     OW10553   5.332   3.044   4.590 -0.5082 -0.2046  0.2878
 2639SOL    HW110554   5.316   2.992   4.511 -0.5152 -0.2084  0.2918
 2639SOL    HW210555   5.266   3.113   4.588 -1.5431 -1.1362  1.1139
 2639SOL     MW10556   5.322   3.046   4.580 -0.6416 -0.3244  0.3940
 2640SOL     OW10557   2.997   5.453   4.162  0.5162 -0.2812  1.1469
 2640SOL    HW110558   3.060   5.520   4.186  1.6036 -1.0497  0.5133
 2640SOL    HW210559   3.043   5.398   4.098 -1.1636 -0.2002 -0.2131
 2640SOL     MW10560   3.011   5.455   4.157  0.4403 -0.3692  0.8917
 2641SOL     OW10561   3.620   3.067   1.279  0.1977  0.0663 -0.3038
 2641SOL    HW110562   3.675   3.140   1.306 -0.5601 -0.3231  2.6410
 2641SOL    HW210563   3.538   3.108   1.250 -0.3193  0.4508  1.5792
 2641SOL     MW10564   3.616   3.081   1.279  0.0345  0.0656  0.3142
 2642SOL     OW10565   4.463   2.284   0.626  0.3958 -0.0841 -0.2246
 2642SOL    HW110566   4.518   2.228   0.571  1.7405  1.3333 -0.3889
 2642SOL    HW210567   4.500   2.275   0.714  0.1205 -0.0664 -0.1071
 2642SOL     MW10568   4.475   2.276   0.630  0.5327  0.0996 -0.2306
 2643SOL     OW10569   3.802   2.134   2.110  0.6755 -0.1248  0.5071
 2643SOL    HW110570   3.783   2.040   2.110 -1.3092  0.2082  2.4123
 2643SOL    HW210571   3.744   2.170   2.042  0.4940 -0.1279  0.6591
 2643SOL     MW10572   3.792   2.126   2.101  0.3982 -0.0826  0.7704
 2644SOL     OW10573   3.266   3.432   3.004  0.5568  0.3957 -0.5206
 2644SOL    HW110574   3.313   3.370   3.060 -0.6761 -0.4325 -0.3828
 2644SOL    HW210575   3.330   3.502   2.987  1.3931 -0.0232  0.7778
 2644SOL     MW10576   3.280   3.433   3.009  0.5061  0.2360 -0.3367
 2645SOL     OW10577   5.013   1.538   1.616 -0.1483  0.4330 -0.1367
 2645SOL    HW110578   4.992   1.611   1.558  1.2949  1.3655  0.4593
 2645SOL    HW210579   4.972   1.561   1.699  0.4681  0.6691  0.1059
 2645SOL     MW10580   5.005   1.550   1.619  0.1154  0.5826 -0.0293
 2646SOL     OW10581   1.337   4.022   5.122 -0.4692 -0.0886  0.0360
 2646SOL    HW110582   1.424   3.991   5.149 -1.6835 -2.6819  1.2098
 2646SOL    HW210583   1.309   3.959   5.055 -0.7465  1.8182 -1.7530
 2646SOL     MW10584   1.345   4.010   5.117 -0.6601 -0.1765 -0.0428
 2647SOL     OW10585   0.638   0.174   3.575  0.2079  0.5132  0.4017
 2647SOL    HW110586   0.586   0.173   3.495 -0.1596 -3.3812  0.5052
 2647SOL    HW210587   0.721   0.134   3.551  0.4117  0.0715  1.7396
 2647SOL     MW10588   0.642   0.169   3.562  0.1869 -0.0419  0.5862
 2648SOL     OW10589   3.595   2.768   2.769 -0.8526 -0.2010 -0.7446
 2648SOL    HW110590   3.537   2.844   2.763 -0.6999  0.0001  0.1283
 2648SOL    HW210591   3.592   2.743   2.861  0.7279  0.0422 -0.5931
 2648SOL     MW10592   3.587   2.774   2.780 -0.6307 -0.1441 -0.6135
 2649SOL     OW10593   3.804   0.510   2.830  0.0078 -0.4443 -0.1070
 2649SOL    HW110594   3.836   0.532   2.917  0.9758  1.7253 -0.9537
 2649SOL    HW210595   3.882   0.508   2.775 -0.9075  2.7485 -1.7831
 2649SOL     MW10596   3.818   0.512   2.834  0.0145  0.2422 -0.4300
 2650SOL     OW10597   3.153   2.919   0.738 -0.5273  0.2643 -0.3189
 2650SOL    HW110598   3.193   2.865   0.806  1.7737  2.2648  0.0434
 2650SOL    HW210599   3.060   2.921   0.760  0.2421  1.6717  3.5121
 2650SOL     MW10600   3.146   2.913   0.749 -0.1342  0.7005  0.2179
 2651SOL     OW10601   5.318   5.313   5.217 -0.5852 -0.4327 -0.2716
 2651SOL    HW110602   5.404   5.333   5.179 -0.2595 -0.2625  0.5266
 2651SOL    HW210603   5.335   5.307   5.311 -1.8022  1.5591  0.1337
 2651SOL     MW10604   5.331   5.315   5.224 -0.6993 -0.1559 -0.1175
 2652SOL     OW10605   0.357   2.661   1.783 -0.2173 -0.3928  0.0839
 2652SOL    HW110606   0.432   2.720   1.782  0.6410 -1.4153  0.7560
 2652SOL    HW210607   0.299   2.698   1.849 -0.8051  0.9532 -1.1345
 2652SOL     MW10608   0.359   2.673   1.792 -0.1827 -0.3514  0.0139
 2653SOL     OW10609   0.638   5.496   4.360  0.7147  0.1101  0.4198
 2653SOL    HW110610   0.684   5.413   4.371  0.3470 -0.1783 -0.1494
 2653SOL    HW210611   0.691   5.544   4.296  0.9231  0.3127  0.7429
 2653SOL     MW10612   0.651   5.491   4.353  0.6943  0.0991  0.3883
 2654SOL     OW10613   0.424   3.269   0.809 -0.2074 -0.2507 -0.3843
 2654SOL    HW110614   0.378   3.245   0.889  1.4630 -0.7751  0.4756
 2654SOL    HW210615   0.465   3.353   0.829 -0.7799  0.2238 -1.1447
 2654SOL     MW10616   0.423   3.276   0.821 -0.0669 -0.2571 -0.3716
 2655SOL     OW10617   2.809   3.558   3.357  0.3055 -0.1235 -0.5317
 2655SOL    HW110618   2.817   3.506   3.437 -0.1108  0.7391  0.0762
 2655SOL    HW210619   2.798   3.493   3.287 -0.0240 -0.8506  0.1921
 2655SOL     MW10620   2.809   3.543   3.358  0.2100 -0.1061 -0.3612
 2656SOL     OW10621   5.161   2.668   4.721 -0.2055 -0.0256 -0.4532
 2656SOL    HW110622   5.248   2.690   4.689 -0.5673 -0.2486 -1.6286
 2656SOL    HW210623   5.102   2.720   4.668 -0.8204 -0.2108  0.0334
 2656SOL     MW10624   5.165   2.677   4.710 -0.3305 -0.0779 -0.5414
 2657SOL     OW10625   1.839   0.191   0.735  0.4722  0.4933 -0.1899
 2657SOL    HW110626   1.761   0.196   0.790 -2.1180 -1.1437 -3.3522
 2657SOL    HW210627   1.860   0.098   0.732 -0.5134  0.2547 -3.0301
 2657SOL     MW10628   1.831   0.180   0.742  0.0144  0.2532 -0.9583
 2658SOL     OW10629   0.503   4.436   1.686  0.5980 -0.3041 -0.2178
 2658SOL    HW110630   0.577   4.494   1.672 -0.4568  1.5475  1.3280
 2658SOL    HW210631   0.534   4.371   1.750  1.1329 -0.0318 -0.1990
 2658SOL     MW10632   0.516   4.435   1.693  0.5315 -0.0322 -0.0175
 2659SOL     OW10633   1.598   5.092   4.861  0.1111 -0.1211 -0.2620
 2659SOL    HW110634   1.618   5.173   4.814  1.9118 -0.8852 -0.8767
 2659SOL    HW210635   1.594   5.118   4.953 -0.0661  0.7867 -0.5143
 2659SOL     MW10636   1.600   5.106   4.867  0.3189 -0.1027 -0.3729
 2660SOL     OW10637   2.675   1.536   0.754  0.1723 -0.2716  0.4088
 2660SOL    HW110638   2.720   1.473   0.698 -0.0085 -0.9400  0.9986
 2660SOL    HW210639   2.738   1.606   0.768  0.8334 -0.9280  0.7691
 2660SOL     MW10640   2.689   1.537   0.748  0.2338 -0.4412  0.5304
 2661SOL     OW10641   4.037   5.031   4.212  0.0865  0.3711  0.2685
 2661SOL    HW110642   4.014   5.016   4.304 -0.2663 -0.3836  0.0686
 2661SOL    HW210643   3.985   4.967   4.164  0.2271  0.7996 -0.4664
 2661SOL     MW10644   4.028   5.020   4.218  0.0593  0.3294  0.1488
 2662SOL     OW10645  -0.005   4.808   3.016  0.0198  0.0362  0.5488
 2662SOL    HW110646   0.075   4.852   2.987  1.5587 -1.3487  2.4176
 2662SOL    HW210647   0.026   4.729   3.061 -2.4520 -0.9249  0.7361
 2662SOL     MW10648   0.009   4.803   3.018 -0.0996 -0.2641  0.8120
 2663SOL     OW10649   4.459   0.339   2.950 -0.5116  0.2354  0.2504
 2663SOL    HW110650   4.542   0.292   2.951 -0.5816  0.0995 -0.1604
 2663SOL    HW210651   4.463   0.394   2.872  0.2824  2.2363  1.6155
 2663SOL     MW10652   4.470   0.340   2.940 -0.4189  0.4742  0.3726
 2664SOL     OW10653   5.308   1.489   4.315  0.0452  0.5309 -0.1582
 2664SOL    HW110654   5.385   1.477   4.260  0.3910  1.3864  0.1162
 2664SOL    HW210655   5.329   1.565   4.370  0.4099 -1.2485  2.3371
 2664SOL     MW10656   5.320   1.497   4.315  0.1362  0.4127  0.1963
 2665SOL     OW10657   4.146   0.728   5.426  0.2703 -0.3839  0.1550
 2665SOL    HW110658   4.066   0.718   5.374  0.2080 -0.2487  0.2249
 2665SOL    HW210659   4.164   0.822   5.425 -0.1496 -0.2873  1.0025
 2665SOL     MW10660   4.138   0.738   5.419  0.2086 -0.3542  0.2724
 2666SOL     OW10661   0.843   2.363   2.383  0.7131 -0.2518 -0.2832
 2666SOL    HW110662   0.754   2.362   2.416  1.6298 -0.3487  2.4584
 2666SOL    HW210663   0.862   2.272   2.359  0.7129 -0.6308  1.1013
 2666SOL     MW10664   0.834   2.351   2.384  0.8304 -0.3127  0.2450
 2667SOL     OW10665   3.020   4.011   3.529 -0.4329 -0.0628 -0.4834
 2667SOL    HW110666   2.983   4.070   3.464 -0.1436  2.3938  1.4116
 2667SOL    HW210667   2.949   3.997   3.592 -0.2618 -1.1220 -0.5194
 2667SOL     MW10668   3.006   4.017   3.529 -0.3740  0.1161 -0.2454
 2668SOL     OW10669   4.393   5.077   1.346 -0.4952  0.0581 -0.1591
 2668SOL    HW110670   4.397   5.172   1.355 -0.8704  0.3399 -2.3955
 2668SOL    HW210671   4.359   5.046   1.430  0.7283  1.7682  1.0276
 2668SOL     MW10672   4.389   5.085   1.358 -0.3866  0.3131 -0.2934
 2669SOL     OW10673   3.827   3.018   4.740 -0.0187 -0.2647  0.0304
 2669SOL    HW110674   3.759   3.025   4.672 -0.3762  0.9077  0.4812
 2669SOL    HW210675   3.817   3.097   4.792  0.5456 -0.9285  1.1927
 2669SOL     MW10676   3.817   3.029   4.738  0.0078 -0.1996  0.2369
 2670SOL     OW10677   0.545   1.404   1.261  0.0216 -0.0628  0.5544
 2670SOL    HW110678   0.616   1.436   1.317 -1.9516  0.0378  3.1592
 2670SOL    HW210679   0.539   1.310   1.282  0.7155 -0.5488 -1.2551
 2670SOL     MW10680   0.554   1.396   1.271 -0.1422 -0.1121  0.6562
 2671SOL     OW10681   4.353   1.530   0.792 -0.3924  0.1232 -0.1183
 2671SOL    HW110682   4.300   1.461   0.833 -2.0032 -0.0966 -2.3489
 2671SOL    HW210683   4.348   1.604   0.853 -0.8122 -0.8755  1.1038
 2671SOL     MW10684   4.345   1.531   0.805 -0.6523 -0.0328 -0.2474
 2672SOL     OW10685   3.001   0.601   2.577 -0.5884 -0.1852  0.2100
 2672SOL    HW110686   3.017   0.555   2.494 -0.7707  0.1033  0.0139
 2672SOL    HW210687   2.978   0.690   2.551  2.8716  0.9835  0.6673
 2672SOL     MW10688   3.000   0.606   2.563 -0.1688  0.0014  0.2435
 2673SOL     OW10689   0.509   3.103   0.101  0.0076  0.3003  0.2187
 2673SOL    HW110690   0.496   3.115   0.007 -3.7053 -2.6306  0.1077
 2673SOL    HW210691   0.435   3.149   0.141  0.9227  0.5815  1.6598
 2673SOL     MW10692   0.498   3.110   0.094 -0.3505 -0.0389  0.3889
 2674SOL     OW10693   2.392   1.884   1.286 -0.0866  0.0167  0.2571
 2674SOL    HW110694   2.409   1.977   1.269  0.2835 -0.2989 -1.2260
 2674SOL    HW210695   2.300   1.872   1.264 -0.0819 -0.0120  0.2537
 2674SOL     MW10696   2.383   1.895   1.281 -0.0386 -0.0274  0.0668
 2675SOL     OW10697   3.690   2.052   5.073  0.5831  1.0428  0.0895
 2675SOL    HW110698   3.758   2.118   5.090 -0.2399  1.6873  0.9480
 2675SOL    HW210699   3.689   1.998   5.152  0.4479  0.7071 -0.1396
 2675SOL     MW10700   3.699   2.053   5.085  0.4605  1.0823  0.1700
 2676SOL     OW10701   1.398   5.416   3.213  0.4071 -0.1421 -0.2333
 2676SOL    HW110702   1.349   5.447   3.289  0.0082 -2.2712  0.4365
 2676SOL    HW210703   1.486   5.452   3.225  0.8319 -1.7305  2.1751
 2676SOL     MW10704   1.403   5.425   3.224  0.4104 -0.6180  0.1607
 2677SOL     OW10705   4.132   0.209   1.048  0.1729 -0.2300  0.0249
 2677SOL    HW110706   4.178   0.201   0.965  0.1467 -2.6880  0.1960
 2677SOL    HW210707   4.046   0.246   1.025  0.8693  0.9899 -0.7299
 2677SOL     MW10708   4.127   0.213   1.035  0.2587 -0.3885 -0.0498
 2678SOL     OW10709   0.759   2.105   3.422 -0.2724  0.6322 -0.4317
 2678SOL    HW110710   0.808   2.167   3.476  0.2255  0.4351 -0.6506
 2678SOL    HW210711   0.674   2.097   3.466 -0.0415  0.8305  0.0619
 2678SOL     MW10712   0.754   2.112   3.435 -0.1791  0.6323 -0.3966
 2679SOL     OW10713   2.017   0.092   4.251  0.3537 -0.6414 -0.2234
 2679SOL    HW110714   1.981   0.013   4.291  0.1608 -0.7922 -0.6877
 2679SOL    HW210715   1.953   0.160   4.271  0.9416 -0.4126  0.9142
 2679SOL     MW10716   2.004   0.090   4.259  0.4042 -0.6314 -0.1372
 2680SOL     OW10717   5.281   1.515   1.947 -0.1951 -0.1990 -0.1106
 2680SOL    HW110718   5.318   1.517   2.035  2.6088 -0.7608 -1.1656
 2680SOL    HW210719   5.354   1.491   1.891 -1.6310  1.0747 -2.7367
 2680SOL     MW10720   5.295   1.513   1.951 -0.0200 -0.1079 -0.5818
 2681SOL     OW10721   1.554   0.816   3.263  0.1336 -0.3350  1.1821
 2681SOL    HW110722   1.525   0.746   3.321 -2.9920 -1.7308 -1.7149
 2681SOL    HW210723   1.476   0.868   3.247  1.2512  0.9499 -0.4882
 2681SOL     MW10724   1.540   0.814   3.269 -0.1234 -0.3492  0.5974
 2682SOL     OW10725   2.241   3.201   1.290 -0.3380 -0.0899  0.5009
 2682SOL    HW110726   2.156   3.243   1.305  0.7204  2.8520 -0.7891
 2682SOL    HW210727   2.299   3.239   1.356  1.0755  2.1242 -1.8054
 2682SOL     MW10728   2.238   3.212   1.300 -0.0215  0.5701  0.0406
 2683SOL     OW10729   1.929   4.900   2.077  0.3020 -0.1086  0.2980
 2683SOL    HW110730   1.849   4.931   2.034  1.2941  1.4205 -0.5728
 2683SOL    HW210731   1.961   4.831   2.019  0.6496  0.6706 -0.4694
 2683SOL     MW10732   1.923   4.895   2.064  0.4735  0.1869  0.0883
 2684SOL     OW10733   2.065   5.348   2.012  0.0848  0.0975  0.2354
 2684SOL    HW110734   2.098   5.268   1.971  0.2894  0.6246 -0.6340
 2684SOL    HW210735   1.975   5.356   1.981 -0.2816 -0.3199  1.1247
 2684SOL     MW10736   2.058   5.339   2.003  0.0641  0.1115  0.2379
 2685SOL     OW10737   4.830   4.543   4.068 -0.6709 -0.4013  0.3917
 2685SOL    HW110738   4.839   4.560   4.162 -0.8866 -0.5557  0.4400
 2685SOL    HW210739   4.749   4.586   4.043 -0.1332  0.4611  0.0746
 2685SOL     MW10740   4.821   4.550   4.077 -0.6297 -0.3107  0.3573
 2686SOL     OW10741   1.244   1.377   4.668 -0.2040  0.2837 -0.2400
 2686SOL    HW110742   1.306   1.320   4.714  0.5495  0.2048 -1.3107
 2686SOL    HW210743   1.300   1.442   4.625 -0.9476  0.8464 -0.3668
 2686SOL     MW10744   1.259   1.378   4.668 -0.2027  0.3456 -0.3933
 2687SOL     OW10745   2.376   3.902   2.983  0.1914 -0.3111  0.5401
 2687SOL    HW110746   2.457   3.896   3.034  0.6980  0.9372 -0.0841
 2687SOL    HW210747   2.400   3.873   2.895 -0.2832 -0.8329  0.5692
 2687SOL     MW10748   2.389   3.897   2.978  0.1955 -0.2181  0.4639
 2688SOL     OW10749   1.005   4.316   4.353  0.0461 -0.3952  0.5148
 2688SOL    HW110750   1.095   4.321   4.322  0.1767  0.1906  0.9629
 2688SOL    HW210751   0.983   4.223   4.349  0.0305 -0.3603 -1.3893
 2688SOL     MW10752   1.013   4.305   4.348  0.0608 -0.3157  0.3284
 2689SOL     OW10753   5.454   4.505   2.783  0.3996 -0.1676  0.1498
 2689SOL    HW110754   5.512   4.542   2.849  0.8991 -0.5984 -0.0395
 2689SOL    HW210755   5.438   4.577   2.722  0.4134  0.0620  0.4115
 2689SOL     MW10756   5.459   4.519   2.784  0.4653 -0.1934  0.1591
 2690SOL     OW10757   1.079   2.815   0.882 -0.1383 -0.3658  0.6665
 2690SOL    HW110758   1.111   2.771   0.803  1.0916 -0.0960  1.0072
 2690SOL    HW210759   1.128   2.776   0.954  0.3670  0.9460  1.0689
 2690SOL     MW10760   1.089   2.804   0.881  0.0839 -0.1633  0.7616
 2691SOL     OW10761   3.903   4.062   4.162 -0.1235  0.0549  0.5496
 2691SOL    HW110762   3.926   3.976   4.127 -0.0088 -0.3768  1.6439
 2691SOL    HW210763   3.873   4.045   4.251  0.7079  1.2268  1.0945
 2691SOL     MW10764   3.902   4.049   4.169 -0.0024  0.1496  0.7594
 2692SOL     OW10765   3.326   4.292   0.776  0.0977 -0.3888  0.5640
 2692SOL    HW110766   3.378   4.372   0.764 -0.8671 -0.1778 -3.3689
 2692SOL    HW210767   3.389   4.221   0.763 -0.1520 -0.1330 -2.9172
 2692SOL     MW10768   3.341   4.293   0.773 -0.0578 -0.3291 -0.3851
 2693SOL     OW10769   3.156   2.568   2.250 -0.1388  0.4522  0.0440
 2693SOL    HW110770   3.115   2.612   2.325  0.1411  2.4062 -0.8913
 2693SOL    HW210771   3.084   2.550   2.190 -0.2959 -0.7041  0.5459
 2693SOL     MW10772   3.142   2.571   2.252 -0.1231  0.5543 -0.0115
 2694SOL     OW10773   2.777   2.198   0.348 -0.6821 -0.4768  0.6374
 2694SOL    HW110774   2.839   2.127   0.333  0.5567 -0.0467  3.0506
 2694SOL    HW210775   2.829   2.278   0.335 -0.4662 -0.1076  3.1725
 2694SOL     MW10776   2.792   2.199   0.345 -0.4959 -0.3745  1.2709
 2695SOL     OW10777   0.017   1.042   2.815 -0.0728  0.1959 -0.0052
 2695SOL    HW110778  -0.024   1.102   2.877  0.0750  0.8568 -0.5277
 2695SOL    HW210779   0.091   1.091   2.779  1.0835 -0.9213  0.7865
 2695SOL     MW10780   0.021   1.056   2.818  0.0941  0.1375  0.0293
 2696SOL     OW10781   3.731   4.769   0.451  0.0763 -0.3473 -0.0469
 2696SOL    HW110782   3.788   4.825   0.398  0.1933  0.3923  0.8208
 2696SOL    HW210783   3.686   4.830   0.510  0.8753 -1.2167  1.5471
 2696SOL     MW10784   3.733   4.784   0.452  0.1936 -0.3639  0.2683
 2697SOL     OW10785   1.015   2.527   1.234 -0.8453  0.7459  0.1249
 2697SOL    HW110786   0.991   2.617   1.213 -2.0479  0.5642  0.6707
 2697SOL    HW210787   1.003   2.479   1.152 -2.4088  0.6577  0.3786
 2697SOL     MW10788   1.011   2.533   1.221 -1.1994  0.7113  0.2272
 2698SOL     OW10789   0.997   0.474   2.165 -0.3703  0.1461 -0.8054
 2698SOL    HW110790   0.933   0.539   2.135 -0.9957 -0.1442 -0.1362
 2698SOL    HW210791   1.029   0.434   2.084 -1.0132  0.3238 -1.1611
 2698SOL     MW10792   0.993   0.477   2.151 -0.5326  0.1317 -0.7653
 2699SOL     OW10793   3.858   1.083   1.402  0.1519 -0.1109  0.5173
 2699SOL    HW110794   3.944   1.109   1.435 -0.9671  0.2583  3.3833
 2699SOL    HW210795   3.868   0.992   1.375  1.2884 -0.2557  1.3950
 2699SOL     MW10796   3.870   1.075   1.403  0.1541 -0.0822  0.9966
 2700SOL     OW10797   4.161   2.056   1.530  0.2357 -0.2173 -0.1285
 2700SOL    HW110798   4.095   2.007   1.482  1.2437 -1.6892 -0.0596
 2700SOL    HW210799   4.142   2.039   1.622 -1.7942  2.7260  0.1520
 2700SOL     MW10800   4.150   2.048   1.536  0.1049 -0.0290 -0.0837
 2701SOL     OW10801   0.153   2.464   3.593 -0.1086  0.0406 -0.2269
 2701SOL    HW110802   0.164   2.384   3.643  2.8967  0.2873 -0.3259
 2701SOL    HW210803   0.058   2.471   3.579 -0.6803 -2.0935  1.9584
 2701SOL     MW10804   0.142   2.455   3.597  0.2029 -0.2010  0.0402
 2702SOL     OW10805   1.976   3.405   4.352  0.4685 -0.8168  0.2023
 2702SOL    HW110806   2.043   3.377   4.290  1.1707  0.6353  0.2678
 2702SOL    HW210807   2.025   3.435   4.429 -0.0921  1.8838 -0.3991
 2702SOL     MW10808   1.991   3.405   4.354  0.4867 -0.2852  0.1337
 2703SOL     OW10809   0.930   1.905   3.480 -0.6557  0.1185  0.9296
 2703SOL    HW110810   0.988   1.890   3.406  0.5044  0.4282  1.7396
 2703SOL    HW210811   0.873   1.976   3.451  0.5709  1.0685  0.7275
 2703SOL     MW10812   0.931   1.912   3.467 -0.3502  0.2797  1.0074
 2704SOL     OW10813   2.324   0.824   1.029 -0.3009  0.1278 -1.0346
 2704SOL    HW110814   2.250   0.858   0.979  0.4572 -0.1984 -2.4199
 2704SOL    HW210815   2.386   0.896   1.033  0.4735 -0.4356 -2.2910
 2704SOL     MW10816   2.322   0.837   1.023 -0.1047  0.0139 -1.3728
 2705SOL     OW10817   3.768   2.972   5.039 -0.2901 -0.6939  0.5147
 2705SOL    HW110818   3.680   2.943   5.017 -0.0416 -0.4987 -0.8513
 2705SOL    HW210819   3.800   2.908   5.103 -0.8229 -1.7104 -0.2100
 2705SOL     MW10820   3.761   2.960   5.045 -0.3265 -0.7990  0.2471
 2706SOL     OW10821   5.135   3.232   4.618 -0.3687  0.4733  0.3807
 2706SOL    HW110822   5.163   3.219   4.709  0.3138  0.0727  0.1233
 2706SOL    HW210823   5.201   3.291   4.581 -0.2834  0.1290 -0.0256
 2706SOL     MW10824   5.147   3.238   4.625 -0.2704  0.3779  0.2957
 2707SOL     OW10825   1.199   2.492   1.565 -0.1788  0.0296  0.5041
 2707SOL    HW110826   1.168   2.525   1.649  0.3497 -0.8183  1.0383
 2707SOL    HW210827   1.281   2.447   1.585  0.0096 -0.0862 -0.4785
 2707SOL     MW10828   1.205   2.491   1.578 -0.0870 -0.0938  0.4467
 2708SOL     OW10829   5.230   2.936   1.529 -0.0102  0.2265 -0.5391
 2708SOL    HW110830   5.188   2.900   1.451  1.1346 -1.4203 -0.4471
 2708SOL    HW210831   5.169   3.002   1.560 -1.3404 -0.3365 -1.8139
 2708SOL     MW10832   5.217   2.940   1.523 -0.0339 -0.0564 -0.6905
 2709SOL     OW10833   3.059   1.363   1.662 -0.4541 -0.0524 -0.4998
 2709SOL    HW110834   3.091   1.372   1.573 -0.2662  1.0294 -0.3281
 2709SOL    HW210835   3.090   1.441   1.708  0.6785 -1.2624  0.8980
 2709SOL     MW10836   3.067   1.374   1.657 -0.2851 -0.0688 -0.2989
 2710SOL     OW10837   5.227   2.272   4.377  0.1040 -0.1849 -0.2731
 2710SOL    HW110838   5.245   2.188   4.334  0.6003 -0.7261  0.9393
 2710SOL    HW210839   5.189   2.248   4.461 -1.0201  0.8552 -0.4566
 2710SOL     MW10840   5.224   2.258   4.382  0.0236 -0.1210 -0.1414
 2711SOL     OW10841   0.324   0.671   1.303 -0.0793  0.5803  0.4446
 2711SOL    HW110842   0.413   0.693   1.275  0.4750 -0.9146  0.9036
 2711SOL    HW210843   0.287   0.624   1.228 -0.0526  0.1908  0.6699
 2711SOL     MW10844   0.331   0.668   1.290 -0.0050  0.3391  0.5322
 2712SOL     OW10845   0.115   1.107   3.197  0.2525 -0.2897  0.0038
 2712SOL    HW110846   0.107   1.022   3.155 -2.4087  1.0621 -2.5716
 2712SOL    HW210847   0.027   1.127   3.230  0.6966  1.6321  0.1862
 2712SOL     MW10848   0.102   1.099   3.196 -0.0313  0.1293 -0.3026
 2713SOL     OW10849   0.240   1.632   0.299  0.5923 -0.4404 -0.4804
 2713SOL    HW110850   0.261   1.604   0.388 -0.7010 -0.2488 -0.0874
 2713SOL    HW210851   0.322   1.623   0.250  1.3136 -0.5682  0.7240
 2713SOL     MW10852   0.253   1.628   0.304  0.5191 -0.4322 -0.2759
 2714SOL     OW10853   4.777   1.691   2.112  0.4875 -0.0645 -0.0384
 2714SOL    HW110854   4.839   1.711   2.041 -0.2381 -0.3486 -0.7690
 2714SOL    HW210855   4.804   1.748   2.184 -0.1040  1.9060 -1.2848
 2714SOL     MW10856   4.788   1.701   2.112  0.3189  0.1514 -0.2915
 2715SOL     OW10857   3.399   2.249   4.024  0.1395  0.0609  0.7111
 2715SOL    HW110858   3.338   2.181   4.052 -0.9166  1.1102  1.0528
 2715SOL    HW210859   3.358   2.331   4.052  1.5617  0.8220  0.6537
 2715SOL     MW10860   3.386   2.250   4.031  0.1863  0.2926  0.7475
 2716SOL     OW10861   3.837   2.692   4.606 -0.1533 -0.0783 -0.7134
 2716SOL    HW110862   3.823   2.598   4.589  0.0255 -0.3352  0.4964
 2716SOL    HW210863   3.932   2.700   4.614 -0.2922 -0.2318  1.5001
 2716SOL     MW10864   3.847   2.681   4.605 -0.1482 -0.1308 -0.2752
 2717SOL     OW10865   5.297   3.438   2.331 -0.0907 -0.2713 -0.0120
 2717SOL    HW110866   5.325   3.436   2.240 -0.7706 -0.6975 -0.2161
 2717SOL    HW210867   5.344   3.512   2.369 -1.0218  0.9074 -1.0997
 2717SOL     MW10868   5.306   3.447   2.324 -0.2970 -0.1750 -0.1774
 2718SOL     OW10869   0.450   3.384   2.533  0.2153  0.2864 -0.2097
 2718SOL    HW110870   0.400   3.304   2.515 -1.1750  0.9071  0.7224
 2718SOL    HW210871   0.498   3.401   2.452 -1.3237 -0.1966 -1.2644
 2718SOL     MW10872   0.450   3.376   2.520 -0.1597  0.3040 -0.2254
 2719SOL     OW10873   1.640   2.129   3.319 -0.0239 -0.1192  0.0253
 2719SOL    HW110874   1.719   2.091   3.358  0.0928 -0.9486 -0.9796
 2719SOL    HW210875   1.598   2.176   3.392  1.0420 -0.2174  0.7325
 2719SOL     MW10876   1.645   2.130   3.334  0.1275 -0.2380 -0.0128
 2720SOL     OW10877   0.063   0.412   0.885 -0.0203 -0.7420  0.2714
 2720SOL    HW110878   0.139   0.355   0.882  0.0339 -0.7863  1.7984
 2720SOL    HW210879   0.067   0.454   0.970 -1.1590  0.0274 -0.0230
 2720SOL     MW10880   0.073   0.410   0.895 -0.1592 -0.6492  0.4292
 2721SOL     OW10881   3.117   3.809   0.609 -0.8078  0.2791  0.2110
 2721SOL    HW110882   3.181   3.858   0.661  0.2147  0.7083 -1.3808
 2721SOL    HW210883   3.157   3.723   0.596 -1.5459 -0.1971  1.0273
 2721SOL     MW10884   3.130   3.805   0.614 -0.7714  0.2731  0.1117
 2722SOL     OW10885   3.624   4.026   5.064 -0.2006  0.2541 -0.0122
 2722SOL    HW110886   3.591   3.938   5.081 -0.3222  0.6167  1.8685
 2722SOL    HW210887   3.552   4.071   5.019 -0.6211 -0.2492  0.1479
 2722SOL     MW10888   3.611   4.021   5.060 -0.2700  0.2361  0.2491
 2723SOL     OW10889   4.504   1.698   0.406 -0.4599  0.2381 -0.1800
 2723SOL    HW110890   4.416   1.698   0.442  0.5143 -0.3123  2.4189
 2723SOL    HW210891   4.514   1.611   0.367 -0.5242 -0.3590  1.0817
 2723SOL     MW10892   4.494   1.687   0.406 -0.3434  0.0912  0.3142
 2724SOL     OW10893   4.503   1.634   1.574  0.8382 -0.3628 -0.4896
 2724SOL    HW110894   4.538   1.546   1.564  1.2838 -0.2555  0.0600
 2724SOL    HW210895   4.500   1.648   1.669  0.2751  0.0186 -0.5588
 2724SOL     MW10896   4.507   1.625   1.585  0.8232 -0.3002 -0.4281
 2725SOL     OW10897   5.080   0.309   2.029 -0.1690 -0.1002 -0.0192
 2725SOL    HW110898   5.130   0.375   2.075 -0.0946  1.0019 -1.5819
 2725SOL    HW210899   5.112   0.225   2.063  3.8775  0.4496 -1.9287
 2725SOL     MW10900   5.091   0.307   2.039  0.3585  0.1113 -0.4637
 2726SOL     OW10901   0.494   0.445   0.606  0.0921 -0.4936 -0.4994
 2726SOL    HW110902   0.516   0.372   0.665 -1.2966 -0.6395 -0.1218
 2726SOL    HW210903   0.427   0.494   0.653  0.9608  1.0251 -0.7779
 2726SOL     MW10904   0.488   0.442   0.620  0.0256 -0.3178 -0.4867
 2727SOL     OW10905   2.541   0.606   0.645  0.0045  0.2774 -0.1147
 2727SOL    HW110906   2.608   0.674   0.642  1.0944 -0.7169  0.6821
 2727SOL    HW210907   2.589   0.524   0.632 -1.0341 -0.4747  0.6231
 2727SOL     MW10908   2.556   0.604   0.643  0.0110  0.0539  0.0817
 2728SOL     OW10909   0.720   1.738   3.488  0.0741 -0.1201  0.4733
 2728SOL    HW110910   0.777   1.812   3.464  0.9524 -1.1428 -0.6847
 2728SOL    HW210911   0.780   1.666   3.505 -0.8500 -1.4691 -1.5896
 2728SOL     MW10912   0.735   1.739   3.487  0.0683 -0.4237  0.0610
 2729SOL     OW10913   4.795   0.483   0.090 -0.3488 -0.2164  0.3379
 2729SOL    HW110914   4.878   0.472   0.136  0.0046  1.5926  0.1892
 2729SOL    HW210915   4.814   0.546   0.021 -1.6218 -0.5326 -0.3319
 2729SOL     MW10916   4.808   0.489   0.087 -0.4665 -0.0253  0.2331
 2730SOL     OW10917   3.077   3.721   3.019  0.7506 -0.7032  0.0917
 2730SOL    HW110918   2.997   3.678   3.049  1.9095 -2.8773  0.3041
 2730SOL    HW210919   3.106   3.774   3.093  0.0941 -0.8049  0.4233
 2730SOL     MW10920   3.071   3.722   3.032  0.8149 -0.9945  0.1614
 2731SOL     OW10921   3.460   2.260   3.385  0.8221  0.0214 -0.0646
 2731SOL    HW110922   3.486   2.317   3.457 -0.9255  0.4489  0.2953
 2731SOL    HW210923   3.470   2.171   3.418  1.1414  0.1867  0.2856
 2731SOL     MW10924   3.464   2.256   3.398  0.6392  0.0973  0.0263
 2732SOL     OW10925   4.747   4.185   4.959  0.5870 -0.0449  0.4093
 2732SOL    HW110926   4.706   4.223   5.036 -0.3048 -0.8918  0.3641
 2732SOL    HW210927   4.675   4.147   4.909  1.0180  1.2706 -1.3297
 2732SOL     MW10928   4.733   4.185   4.962  0.5280  0.0151  0.1809
 2733SOL     OW10929   4.028   2.069   4.139  0.0967 -0.1880 -0.1683
 2733SOL    HW110930   4.096   2.136   4.140 -0.6825  0.6297  0.5949
 2733SOL    HW210931   4.075   1.986   4.143  1.0366  0.3652  0.7649
 2733SOL     MW10932   4.042   2.067   4.139  0.1172 -0.0125  0.0489
 2734SOL     OW10933   5.033   4.800   4.309 -0.3436 -0.0569 -0.2790
 2734SOL    HW110934   4.971   4.862   4.349  0.1019 -0.4950  1.1454
 2734SOL    HW210935   5.119   4.835   4.332 -0.0687 -0.3317 -0.8720
 2734SOL     MW10936   5.036   4.813   4.317 -0.2514 -0.1481 -0.1726
 2735SOL     OW10937   3.833   3.694   1.682  0.5517 -0.0606  0.0964
 2735SOL    HW110938   3.860   3.665   1.769 -3.3945 -1.0251  1.1961
 2735SOL    HW210939   3.832   3.789   1.688 -0.8487 -0.1336  1.5878
 2735SOL     MW10940   3.837   3.702   1.694 -0.1327 -0.1934  0.4281
 2736SOL     OW10941   3.658   3.838   5.442  0.1826  0.0970 -0.2689
 2736SOL    HW110942   3.580   3.835   5.387 -0.7850 -0.9804  1.1149
 2736SOL    HW210943   3.656   3.925   5.483  0.4501  0.5733 -1.2424
 2736SOL     MW10944   3.648   3.849   5.440  0.0930  0.0200 -0.2164
 2737SOL     OW10945   1.436   1.117   1.842  0.0931 -0.0265 -0.0916
 2737SOL    HW110946   1.450   1.106   1.748 -1.0594 -4.6388  0.0022
 2737SOL    HW210947   1.343   1.140   1.849 -0.0942 -0.7231 -0.1358
 2737SOL     MW10948   1.426   1.119   1.831 -0.0784 -0.7061 -0.0852
 2738SOL     OW10949   4.201   3.178   1.361  0.1346  0.4246  0.2558
 2738SOL    HW110950   4.135   3.118   1.396  1.0992 -0.5433  0.4937
 2738SOL    HW210951   4.285   3.134   1.379  0.9752  2.4550  1.6526
 2738SOL     MW10952   4.204   3.165   1.368  0.3656  0.5606  0.4651
 2739SOL     OW10953   4.566   2.829   2.214  0.1907 -0.3467  0.1759
 2739SOL    HW110954   4.569   2.888   2.139 -0.5857 -1.6266 -0.9054
 2739SOL    HW210955   4.657   2.802   2.227  0.5933  1.1879  0.8210
 2739SOL     MW10956   4.578   2.833   2.206  0.1428 -0.3141  0.1201
 2740SOL     OW10957   1.060   0.381   3.037 -0.2218  0.5612 -0.6190
 2740SOL    HW110958   1.089   0.336   3.116 -2.0710  0.1984 -0.0804
 2740SOL    HW210959   1.127   0.363   2.972 -0.3795 -2.1034 -0.1250
 2740SOL     MW10960   1.072   0.373   3.039 -0.4787  0.1737 -0.4868
 2741SOL     OW10961   0.845   2.003   4.192  0.7444 -0.4077 -0.7633
 2741SOL    HW110962   0.778   2.052   4.239  1.7824 -1.4321  2.0332
 2741SOL    HW210963   0.836   1.913   4.224  1.7359 -1.1388 -2.3673
 2741SOL     MW10964   0.835   1.997   4.202  1.0042 -0.6324 -0.6106
 2742SOL     OW10965   1.691   1.401   3.413  0.7780 -0.0984 -0.3831
 2742SOL    HW110966   1.638   1.352   3.476  0.8288  1.3534  0.8582
 2742SOL    HW210967   1.697   1.344   3.337  1.3728 -2.2864  1.1931
 2742SOL     MW10968   1.685   1.388   3.411  0.8606 -0.1927 -0.0224
 2743SOL     OW10969   4.792   4.275   4.082 -0.3659 -0.0194  0.2210
 2743SOL    HW110970   4.790   4.370   4.078 -0.7816  0.0612  1.6596
 2743SOL    HW210971   4.875   4.254   4.124 -0.7922 -0.2130  0.9969
 2743SOL     MW10972   4.802   4.284   4.087 -0.4737 -0.0339  0.5045
 2744SOL     OW10973   4.247   4.927   1.560  0.0481 -0.3822 -0.4003
 2744SOL    HW110974   4.185   4.922   1.632  1.3920  0.6033  0.8933
 2744SOL    HW210975   4.291   4.842   1.560  0.5174 -0.1522  0.4210
 2744SOL     MW10976   4.245   4.915   1.569  0.2802 -0.2266 -0.1296
 2745SOL     OW10977   2.772   1.787   0.219 -0.3137  0.0827 -0.2659
 2745SOL    HW110978   2.709   1.835   0.272  1.4275  0.5294  1.5109
 2745SOL    HW210979   2.760   1.695   0.243 -0.1243  0.1929  0.2537
 2745SOL     MW10980   2.762   1.781   0.229 -0.0666  0.1540  0.0281
 2746SOL     OW10981   3.681   3.193   0.235 -0.3664  0.6693  0.3264
 2746SOL    HW110982   3.701   3.105   0.202 -0.4527  0.6497  0.3257
 2746SOL    HW210983   3.760   3.244   0.215 -1.1767  1.2063 -1.8498
 2746SOL     MW10984   3.694   3.188   0.228 -0.4812  0.7355  0.0478
 2747SOL     OW10985   5.179   5.338   4.634 -0.5294 -0.5110  0.2398
 2747SOL    HW110986   5.105   5.351   4.693 -1.6724 -0.7391 -1.0891
 2747SOL    HW210987   5.230   5.267   4.674 -1.6860 -1.1815  0.5645
 2747SOL     MW10988   5.176   5.331   4.647 -0.8238 -0.6260  0.1112
 2748SOL     OW10989   3.319   4.568   5.184 -0.0329  0.4164  0.6722
 2748SOL    HW110990   3.393   4.619   5.151 -0.2460  0.5428  0.3793
 2748SOL    HW210991   3.358   4.500   5.239  0.3677 -0.0315 -0.1486
 2748SOL     MW10992   3.333   4.566   5.187 -0.0089  0.3752  0.5296
 2749SOL     OW10993   2.464   5.468   2.526 -0.6542  0.0361  0.2712
 2749SOL    HW110994   2.387   5.524   2.526 -1.9296 -1.6344  0.8087
 2749SOL    HW210995   2.444   5.400   2.462  0.5592 -0.2181  0.1372
 2749SOL     MW10996   2.452   5.466   2.518 -0.6621 -0.2103  0.3229
 2750SOL     OW10997   3.233   1.553   3.170  0.0573  0.6536  0.0610
 2750SOL    HW110998   3.328   1.564   3.169  0.1182  0.1311 -0.2769
 2750SOL    HW210999   3.220   1.460   3.152 -0.4761  0.4647  1.3454
 2750SOL     MW11000   3.244   1.543   3.168 -0.0032  0.5625  0.1822
 2751SOL     OW11001   3.212   5.095   5.107  0.3704 -0.2307  0.3306
 2751SOL    HW111002   3.151   5.104   5.180  0.4186 -0.1014  0.3545
 2751SOL    HW211003   3.158   5.067   5.033  0.1776  0.4878  0.1876
 2751SOL     MW11004   3.198   5.093   5.107  0.3519 -0.1222  0.3153
 2752SOL     OW11005   3.700   3.988   2.829 -0.1458 -0.6828 -0.1295
 2752SOL    HW111006   3.647   3.997   2.750  0.9656  0.6366 -0.7747
 2752SOL    HW211007   3.658   4.046   2.893  0.9662  1.0760 -0.9263
 2752SOL     MW11008   3.688   3.997   2.827  0.1388 -0.2887 -0.3141
 2753SOL     OW11009   1.331   4.993   2.792  0.2217  0.2625 -0.2415
 2753SOL    HW111010   1.365   4.932   2.857  0.7921  1.3512  0.5054
 2753SOL    HW211011   1.388   4.980   2.715  0.1719 -0.3208 -0.1825
 2753SOL     MW11012   1.343   4.984   2.790  0.2883  0.3272 -0.1383
 2754SOL     OW11013   2.933   2.916   3.130  0.3977 -0.3268  0.2829
 2754SOL    HW111014   2.994   2.905   3.203  0.7617 -0.5651 -0.0555
 2754SOL    HW211015   2.955   2.845   3.069  0.2621  0.0164 -0.1726
 2754SOL     MW11016   2.944   2.906   3.132  0.4270 -0.3134  0.1813
 2755SOL     OW11017   1.499   5.331   0.292 -0.5724 -0.5494 -0.6897
 2755SOL    HW111018   1.445   5.306   0.216 -0.9851  1.4583 -1.1214
 2755SOL    HW211019   1.438   5.329   0.366 -0.3990 -1.6075 -0.5748
 2755SOL     MW11020   1.484   5.328   0.291 -0.6031 -0.4279 -0.7303
 2756SOL     OW11021   3.150   5.469   2.710 -0.0734  0.0575  0.1600
 2756SOL    HW111022   3.180   5.425   2.789  1.5704 -0.5950 -0.7905
 2756SOL    HW211023   3.089   5.407   2.669  0.1821 -0.2175  0.1925
 2756SOL     MW11024   3.146   5.456   2.715  0.1697 -0.0612  0.0425
 2757SOL     OW11025   3.281   0.602   2.992  0.7570  0.3622  0.0766
 2757SOL    HW111026   3.256   0.653   3.069  0.1828 -0.0854  0.1906
 2757SOL    HW211027   3.250   0.654   2.918  0.8882  0.5640  0.1637
 2757SOL     MW11028   3.274   0.615   2.992  0.7003  0.3307  0.1024
 2758SOL     OW11029   1.274   2.940   1.572  0.2769 -0.5359  0.0977
 2758SOL    HW111030   1.284   2.948   1.667  0.2024 -2.1074  0.2667
 2758SOL    HW211031   1.210   2.868   1.561 -1.0718  0.7792 -1.1162
 2758SOL     MW11032   1.267   2.931   1.583  0.0947 -0.5687 -0.0361
 2759SOL     OW11033   1.983   1.709   4.417 -0.3059 -0.5680  0.2655
 2759SOL    HW111034   2.027   1.689   4.335 -0.4656  0.6031 -0.1250
 2759SOL    HW211035   1.911   1.646   4.422  0.1585 -1.1369 -0.1101
 2759SOL     MW11036   1.979   1.699   4.407 -0.2669 -0.4909  0.1674
 2760SOL     OW11037   1.194   3.585   2.323  0.8291  0.0848 -0.7161
 2760SOL    HW111038   1.156   3.670   2.304  0.0824 -0.0972 -0.0657
 2760SOL    HW211039   1.272   3.605   2.376 -1.3574  0.2735  2.7532
 2760SOL     MW11040   1.199   3.598   2.328  0.4537  0.0857 -0.1887
 2761SOL     OW11041   1.705   2.295   3.614 -0.2148 -0.7921 -0.3282
 2761SOL    HW111042   1.695   2.369   3.673 -2.0404 -1.0497 -0.2575
 2761SOL    HW211043   1.739   2.224   3.670  2.1073  0.0763 -0.5162
 2761SOL     MW11044   1.708   2.295   3.629 -0.1513 -0.7139 -0.3432
 2762SOL     OW11045   0.202   0.236   0.534  0.4252  0.3443 -0.5884
 2762SOL    HW111046   0.176   0.166   0.475  1.5644 -0.0368 -0.6672
 2762SOL    HW211047   0.210   0.314   0.478  0.4614  0.2247 -0.7497
 2762SOL     MW11048   0.200   0.237   0.519  0.5757  0.2802 -0.6191
 2763SOL     OW11049   4.227   3.466   5.042  0.2013 -0.3356 -0.0142
 2763SOL    HW111050   4.166   3.393   5.047  0.0221 -0.1480  0.6411
 2763SOL    HW211051   4.289   3.451   5.114 -1.0521  1.2290  1.4737
 2763SOL     MW11052   4.227   3.455   5.052  0.0179 -0.1113  0.2602
 2764SOL     OW11053   0.869   0.886   0.948 -0.2629 -0.2077  0.0974
 2764SOL    HW111054   0.827   0.968   0.923  1.4241  0.7991  0.3528
 2764SOL    HW211055   0.829   0.864   1.032 -0.2561  0.7490  0.3692
 2764SOL     MW11056   0.859   0.894   0.956 -0.0461  0.0436  0.1649
 2765SOL     OW11057   4.197   0.078   0.565  0.2011 -0.2660 -0.5805
 2765SOL    HW111058   4.243   0.124   0.496  1.5411  0.2847  0.6195
 2765SOL    HW211059   4.247  -0.003   0.577 -0.1961 -0.4970 -0.4398
 2765SOL     MW11060   4.209   0.073   0.558  0.3218 -0.2250 -0.4089
 2766SOL     OW11061   5.406   5.179   2.900  0.1558  0.2030  0.0965
 2766SOL    HW111062   5.475   5.117   2.878  0.3843  0.5358 -0.1361
 2766SOL    HW211063   5.442   5.230   2.973 -1.0511 -1.6919  2.1713
 2766SOL     MW11064   5.419   5.178   2.907  0.0306  0.0030  0.3323
 2767SOL     OW11065   4.684   2.982   4.954 -0.3596 -0.4764  0.1890
 2767SOL    HW111066   4.726   2.938   5.029 -0.5364 -0.0389  0.5512
 2767SOL    HW211067   4.757   3.019   4.905 -0.3106  0.2737  0.8129
 2767SOL     MW11068   4.699   2.981   4.958 -0.3760 -0.3243  0.3152
 2768SOL     OW11069   3.225   3.534   3.424 -0.0118 -0.2643  0.2374
 2768SOL    HW111070   3.313   3.505   3.399  0.1795  0.0865  0.4988
 2768SOL    HW211071   3.234   3.628   3.441 -0.6979  0.0379 -0.9216
 2768SOL     MW11072   3.237   3.542   3.423 -0.0751 -0.1807  0.1225
 2769SOL     OW11073   1.736   4.947   2.675 -0.2561  0.1361  0.0863
 2769SOL    HW111074   1.772   4.867   2.713  0.9772  0.4180 -0.4580
 2769SOL    HW211075   1.790   5.017   2.711 -1.5725  0.7860  0.8629
 2769SOL     MW11076   1.747   4.945   2.684 -0.2667  0.2554  0.1161
 2770SOL     OW11077   2.129   3.261   4.107  0.4209 -0.7455 -0.5074
 2770SOL    HW111078   2.217   3.293   4.087  0.9409 -0.4493  1.8793
 2770SOL    HW211079   2.136   3.166   4.102  0.3542 -0.6905 -2.1256
 2770SOL     MW11080   2.141   3.253   4.104  0.4789 -0.7005 -0.4090
 2771SOL     OW11081   4.075   0.980   2.807  0.4444  0.4130  0.2331
 2771SOL    HW111082   4.066   1.062   2.856  0.2727  0.2261  0.5176
 2771SOL    HW211083   3.989   0.938   2.815  0.9554 -0.4628  1.2909
 2771SOL     MW11084   4.063   0.985   2.814  0.4878  0.2770  0.4049
 2772SOL     OW11085   1.742   3.734   2.747  0.4549 -0.3006 -0.1405
 2772SOL    HW111086   1.796   3.771   2.678 -0.0601 -1.1694 -1.0360
 2772SOL    HW211087   1.793   3.747   2.827  1.2969  0.2396 -0.7477
 2772SOL     MW11088   1.756   3.740   2.748  0.4968 -0.3427 -0.3329
 2773SOL     OW11089   4.051   1.876   0.025 -0.0995  0.2402  0.2146
 2773SOL    HW111090   3.977   1.913   0.073  0.1890  1.6321 -0.3662
 2773SOL    HW211091   4.046   1.915  -0.062  2.0392  1.4402  0.5356
 2773SOL     MW11092   4.041   1.886   0.020  0.2112  0.5720  0.1814
 2774SOL     OW11093   0.592   5.446   4.053 -0.2993 -0.2485 -0.3583
 2774SOL    HW111094   0.520   5.507   4.071  0.3138  0.0970  1.0246
 2774SOL    HW211095   0.592   5.436   3.958 -2.1939 -0.2855 -0.3932
 2774SOL     MW11096   0.583   5.452   4.043 -0.4633 -0.2090 -0.1857
 2775SOL     OW11097   1.033   2.893   5.062 -0.1903 -0.4575 -0.4207
 2775SOL    HW111098   1.025   2.859   4.973 -0.6523 -1.5103 -0.0007
 2775SOL    HW211099   1.007   2.819   5.118 -1.6866  0.7383  0.5451
 2775SOL     MW11100   1.029   2.879   5.058 -0.4410 -0.4392 -0.2433
 2776SOL     OW11101   1.653   2.392   2.386  0.2126 -0.5708 -0.2291
 2776SOL    HW111102   1.621   2.481   2.372  0.3381 -0.8062 -2.3227
 2776SOL    HW211103   1.676   2.389   2.478  2.4425  2.3317 -0.5524
 2776SOL     MW11104   1.652   2.403   2.396  0.5141 -0.2294 -0.5385
 2777SOL     OW11105   3.306   1.200   1.447  0.4168 -0.2102 -0.4644
 2777SOL    HW111106   3.326   1.158   1.531  1.9260 -1.5753 -1.4393
 2777SOL    HW211107   3.386   1.248   1.425  0.9794 -1.7718 -2.1620
 2777SOL     MW11108   3.319   1.200   1.455  0.6820 -0.5849 -0.8065
 2778SOL     OW11109   1.184   3.926   4.504  0.4886  0.0015 -0.4878
 2778SOL    HW111110   1.216   3.969   4.583 -0.5873  1.1697 -0.6612
 2778SOL    HW211111   1.190   3.832   4.524  1.7809  0.2270  0.3332
 2778SOL     MW11112   1.189   3.919   4.516  0.5163  0.1799 -0.4049
 2779SOL     OW11113   2.645   2.750   1.603 -0.1374  0.3880  0.1951
 2779SOL    HW111114   2.556   2.768   1.574  0.4213  2.5076 -0.3787
 2779SOL    HW211115   2.692   2.832   1.589  1.2119  0.2531  3.1725
 2779SOL     MW11116   2.639   2.763   1.598  0.1069  0.6421  0.5028
 2780SOL     OW11117   2.353   1.921   5.024 -0.2556 -0.1893 -0.0635
 2780SOL    HW111118   2.403   1.851   4.982  0.3391 -0.5252  1.1527
 2780SOL    HW211119   2.419   1.973   5.070 -0.9763 -0.5194  1.3957
 2780SOL     MW11120   2.368   1.919   5.025 -0.2717 -0.2746  0.2790
 2781SOL     OW11121   1.137   4.320   2.609  0.3801 -0.6356 -0.0265
 2781SOL    HW111122   1.207   4.332   2.674 -0.3063 -0.1047  0.6253
 2781SOL    HW211123   1.154   4.389   2.544  0.4474 -0.4953  0.1387
 2781SOL     MW11124   1.148   4.330   2.609  0.3009 -0.5497  0.0781
 2782SOL     OW11125   1.198   5.324   4.998  0.0776 -0.1065 -0.5465
 2782SOL    HW111126   1.201   5.305   4.904 -2.2925  1.6130 -1.0797
 2782SOL    HW211127   1.205   5.419   5.004 -1.0163 -0.0762  0.8834
 2782SOL     MW11128   1.199   5.334   4.987 -0.3658  0.1175 -0.4317
 2783SOL     OW11129   5.058   3.734   3.752 -0.5681 -0.2516 -0.3712
 2783SOL    HW111130   4.993   3.794   3.787 -0.6981 -0.4761 -0.2269
 2783SOL    HW211131   5.091   3.777   3.673 -0.0415  0.4102  0.1907
 2783SOL     MW11132   5.054   3.747   3.746 -0.5174 -0.1956 -0.2808
 2784SOL     OW11133   0.873   1.271   1.519 -0.0734  0.1176 -0.4933
 2784SOL    HW111134   0.785   1.269   1.557  0.5902  0.3898  1.1409
 2784SOL    HW211135   0.865   1.220   1.439 -2.1046  1.5556 -1.2815
 2784SOL     MW11136   0.861   1.264   1.514 -0.2485  0.3366 -0.3850
 2785SOL     OW11137   2.970   4.622   1.381  0.4344  0.2353 -0.5167
 2785SOL    HW111138   2.877   4.609   1.362  0.8890 -2.4084 -1.3731
 2785SOL    HW211139   3.006   4.658   1.300  0.1180  1.8064  0.0019
 2785SOL     MW11140   2.963   4.625   1.368  0.4521  0.0980 -0.5599
 2786SOL     OW11141   4.470   2.600   0.698 -0.2583  0.2893  0.2604
 2786SOL    HW111142   4.425   2.684   0.709  0.5214  0.7383  0.1482
 2786SOL    HW211143   4.472   2.562   0.785  0.6617  1.0739  0.6002
 2786SOL     MW11144   4.465   2.606   0.710 -0.0407  0.4472  0.2895
 2787SOL     OW11145   1.598   0.794   1.970  0.1264  0.0491  0.1048
 2787SOL    HW111146   1.683   0.770   2.005  0.2679  1.9959  1.2167
 2787SOL    HW211147   1.615   0.817   1.878  0.7200  0.1127  0.2292
 2787SOL     MW11148   1.611   0.794   1.962  0.2205  0.3065  0.2631
 2788SOL     OW11149   4.921   2.222   4.568  0.1882 -0.3678  0.2300
 2788SOL    HW111150   4.923   2.277   4.489 -0.0692  1.0734  1.1749
 2788SOL    HW211151   4.981   2.266   4.629  0.1958 -1.3181  0.9296
 2788SOL     MW11152   4.929   2.235   4.566  0.1562 -0.3050  0.4405
 2789SOL     OW11153   3.673   2.621   1.473 -0.3398 -0.4602  0.1120
 2789SOL    HW111154   3.600   2.566   1.502  0.0580 -2.1808 -1.9008
 2789SOL    HW211155   3.660   2.630   1.378  1.1308  0.6583 -0.0210
 2789SOL     MW11156   3.662   2.615   1.465 -0.1006 -0.5373 -0.1627
 2790SOL     OW11157   2.148   2.699   1.429  0.0569 -0.2454 -0.2485
 2790SOL    HW111158   2.092   2.777   1.434  0.1319 -0.1708 -0.5223
 2790SOL    HW211159   2.230   2.726   1.470 -0.2622 -0.5016  0.5776
 2790SOL     MW11160   2.151   2.713   1.435  0.0256 -0.2687 -0.1778
 2791SOL     OW11161   1.662   0.251   4.205  0.2799 -0.5522  0.2874
 2791SOL    HW111162   1.679   0.179   4.144 -1.0074 -0.7691  0.1579
 2791SOL    HW211163   1.599   0.307   4.159 -0.0550 -0.2640  1.0697
 2791SOL     MW11164   1.656   0.249   4.191  0.0722 -0.5431  0.3710
 2792SOL     OW11165   2.139   4.804   0.348  0.1987 -0.2326 -0.2466
 2792SOL    HW111166   2.081   4.838   0.281 -0.7942 -0.8065  0.2945
 2792SOL    HW211167   2.218   4.857   0.341 -0.1334  0.1324 -1.4275
 2792SOL     MW11168   2.142   4.815   0.339  0.0291 -0.2593 -0.3285
 2793SOL     OW11169   1.968   1.513   0.236 -0.4551  0.0226  0.5214
 2793SOL    HW111170   1.881   1.554   0.239 -0.9665 -0.9634 -0.4460
 2793SOL    HW211171   1.960   1.436   0.293 -0.2309 -0.0976  0.3897
 2793SOL     MW11172   1.956   1.509   0.244 -0.4919 -0.1190  0.3807
 2794SOL     OW11173   2.793   2.399   4.548 -0.0898 -0.2230 -0.0501
 2794SOL    HW111174   2.767   2.352   4.627  0.2860 -0.2375  0.0683
 2794SOL    HW211175   2.752   2.485   4.557 -2.8733 -1.2933 -1.4427
 2794SOL     MW11176   2.784   2.404   4.559 -0.3980 -0.3619 -0.2132
 2795SOL     OW11177   3.232   4.650   1.282  0.4407  0.0081 -0.2533
 2795SOL    HW111178   3.223   4.744   1.291 -0.7860 -0.1022 -0.1282
 2795SOL    HW211179   3.279   4.622   1.361  2.0005  0.6349 -0.9050
 2795SOL     MW11180   3.237   4.658   1.293  0.4833  0.0742 -0.3207
 2796SOL     OW11181   4.409   4.614   3.258  0.0892 -0.0865 -0.5090
 2796SOL    HW111182   4.387   4.649   3.172  1.7051  1.9085 -0.1752
 2796SOL    HW211183   4.328   4.622   3.308 -0.2929  0.7530 -1.2257
 2796SOL     MW11184   4.396   4.619   3.253  0.2472  0.2764 -0.5580
 2797SOL     OW11185   1.346   4.922   4.376  0.2510 -0.6635  0.2749
 2797SOL    HW111186   1.352   5.017   4.367  1.2012 -0.8714 -2.3047
 2797SOL    HW211187   1.418   4.899   4.435  0.6922  0.1562  0.0787
 2797SOL     MW11188   1.356   4.931   4.382  0.4291 -0.5852 -0.0804
 2798SOL     OW11189   0.597   0.582   2.600 -0.2536  0.0369 -0.7787
 2798SOL    HW111190   0.693   0.588   2.603 -0.2139 -0.0684 -1.5319
 2798SOL    HW211191   0.580   0.490   2.578 -0.5375 -0.0021 -0.4050
 2798SOL     MW11192   0.607   0.571   2.598 -0.2848  0.0184 -0.8272
 2799SOL     OW11193   2.171   3.931   3.780  0.1300 -0.2934  0.0880
 2799SOL    HW111194   2.218   3.957   3.859  0.1074  0.8607 -0.2579
 2799SOL    HW211195   2.237   3.886   3.727  0.7126  0.7869 -0.1329
 2799SOL     MW11196   2.185   3.928   3.783  0.2017 -0.0074  0.0155
 2800SOL     OW11197   2.496   3.510   0.872 -0.5898 -0.2880 -0.2203
 2800SOL    HW111198   2.428   3.482   0.934 -1.0505 -1.8067 -1.3453
 2800SOL    HW211199   2.575   3.466   0.902  0.6638  3.3798  2.5611
 2800SOL     MW11200   2.497   3.501   0.884 -0.4883 -0.0129 -0.0083
 2801SOL     OW11201   2.479   2.976   4.489 -0.1433  0.0591 -0.2426
 2801SOL    HW111202   2.502   3.058   4.446  2.4458  0.4332  1.5901
 2801SOL    HW211203   2.517   2.908   4.433 -1.3017  0.1385 -1.1654
 2801SOL     MW11204   2.487   2.977   4.477  0.0398  0.1172 -0.1261
 2802SOL     OW11205   1.022   4.699   5.471 -0.2391  0.0240 -0.0562
 2802SOL    HW111206   1.116   4.697   5.488 -0.4869 -1.4090  1.4721
 2802SOL    HW211207   0.988   4.766   5.530 -0.1018  1.2284 -1.2966
 2802SOL     MW11208   1.029   4.707   5.481 -0.2533 -0.0053 -0.0194
 2803SOL     OW11209   2.304   4.098   3.981  0.9858 -0.2809  0.6334
 2803SOL    HW111210   2.248   4.170   4.010 -0.5391 -0.8865 -0.7113
 2803SOL    HW211211   2.391   4.138   3.972  0.4803  1.0317  1.2767
 2803SOL     MW11212   2.308   4.113   3.984  0.7259 -0.1904  0.5436
 2804SOL     OW11213   0.984   1.241   2.257  1.0456  0.4316 -0.0082
 2804SOL    HW111214   1.017   1.277   2.174 -0.8223  1.3643 -0.3855
 2804SOL    HW211215   0.980   1.316   2.316 -0.2766  0.3234  0.0567
 2804SOL     MW11216   0.988   1.255   2.254  0.6372  0.5372 -0.0482
 2805SOL     OW11217   0.882   0.679   3.643  0.2640  0.9441  0.3234
 2805SOL    HW111218   0.812   0.618   3.665  0.2198  0.3412 -1.3527
 2805SOL    HW211219   0.837   0.760   3.620  0.1338  0.7135 -0.2532
 2805SOL     MW11220   0.868   0.681   3.643  0.2417  0.8374  0.0350
 2806SOL     OW11221   1.509   1.599   4.817  0.1242  0.2465  0.0062
 2806SOL    HW111222   1.539   1.534   4.881 -1.4550 -1.1821 -0.6487
 2806SOL    HW211223   1.446   1.653   4.866 -0.4292 -0.2963 -0.0991
 2806SOL     MW11224   1.505   1.598   4.832 -0.1488 -0.0058 -0.0911
 2807SOL     OW11225   1.170   2.674   0.639 -0.0295 -0.0717  0.4340
 2807SOL    HW111226   1.203   2.611   0.703  1.5551 -0.2470 -0.5164
 2807SOL    HW211227   1.248   2.706   0.593 -1.1258 -0.5551 -1.9561
 2807SOL     MW11228   1.184   2.670   0.641  0.0330 -0.1560  0.0063
 2808SOL     OW11229   1.618   2.648   1.609  0.3207  0.0663  0.5063
 2808SOL    HW111230   1.700   2.603   1.588 -0.7267 -2.0937  0.7236
 2808SOL    HW211231   1.564   2.640   1.530  0.0998  0.9852  0.5477
 2808SOL     MW11232   1.621   2.641   1.596  0.1584 -0.0926  0.5394
 2809SOL     OW11233   5.266   2.784   3.195  0.6286 -0.4493  0.1124
 2809SOL    HW111234   5.303   2.860   3.148 -0.9443 -0.2045 -0.8045
 2809SOL    HW211235   5.326   2.770   3.268  2.1825  0.2933 -0.9603
 2809SOL     MW11236   5.279   2.792   3.198  0.6262 -0.3229 -0.1423
 2810SOL     OW11237   0.262   2.992   1.172 -0.0509  0.1734  0.5869
 2810SOL    HW111238   0.260   3.067   1.113 -0.8898  1.2890  1.9621
 2810SOL    HW211239   0.291   3.028   1.256  0.7154 -1.2873  0.9931
 2810SOL     MW11240   0.266   3.006   1.175 -0.0602  0.1293  0.8150
 2811SOL     OW11241   5.247   5.198   3.196  0.0499  0.1208 -0.3582
 2811SOL    HW111242   5.239   5.252   3.274 -1.8229  0.0889 -0.4709
 2811SOL    HW211243   5.302   5.124   3.223  1.6369  1.4154  0.1352
 2811SOL     MW11244   5.253   5.196   3.209  0.0133  0.2824 -0.3095
 2812SOL     OW11245   0.435   0.967   5.052 -0.3984 -0.0188 -0.2504
 2812SOL    HW111246   0.507   0.968   5.115  0.3072  0.5129 -1.0349
 2812SOL    HW211247   0.371   0.905   5.089  0.9684 -1.3938 -0.0946
 2812SOL     MW11248   0.436   0.959   5.065 -0.1331 -0.1267 -0.3309
 2813SOL     OW11249   1.542   0.692   0.315  0.4133  0.2255  0.6931
 2813SOL    HW111250   1.486   0.660   0.386  1.7469 -0.2480  1.5640
 2813SOL    HW211251   1.520   0.636   0.241 -0.0440 -0.1608  1.1128
 2813SOL     MW11252   1.532   0.680   0.314  0.5255  0.1154  0.8583
 2814SOL     OW11253   5.378   0.254   0.131  0.3210  0.4696 -0.3337
 2814SOL    HW111254   5.460   0.280   0.091  0.1215  1.1312 -0.3233
 2814SOL    HW211255   5.352   0.329   0.184 -0.8934  0.7576 -1.2867
 2814SOL     MW11256   5.385   0.267   0.133  0.1400  0.5911 -0.4544
 2815SOL     OW11257   0.778   2.323   1.785  0.7322 -0.0307 -0.0826
 2815SOL    HW111258   0.820   2.356   1.864  0.1626 -1.0837  0.6871
 2815SOL    HW211259   0.684   2.329   1.803  0.5940 -0.0839 -0.7621
 2815SOL     MW11260   0.772   2.328   1.797  0.6416 -0.1723 -0.0711
 2816SOL     OW11261   3.027   2.254   0.621  0.0654  0.1229 -0.4231
 2816SOL    HW111262   2.943   2.295   0.601  0.1108  0.2241 -0.4066
 2816SOL    HW211263   3.089   2.327   0.626  0.0507  0.1039  0.1037
 2816SOL     MW11264   3.024   2.269   0.619  0.0693  0.1334 -0.3535
 2817SOL     OW11265   4.373   0.042   1.528 -0.2070 -0.4311 -0.0880
 2817SOL    HW111266   4.298   0.040   1.470  2.0848  0.4764 -3.3519
 2817SOL    HW211267   4.418  -0.041   1.513 -0.8615 -1.3392  2.4471
 2817SOL     MW11268   4.369   0.031   1.519  0.0026 -0.4312 -0.1813
 2818SOL     OW11269   4.856   3.344   4.429 -0.5789  0.2983  0.2097
 2818SOL    HW111270   4.938   3.343   4.478  0.3561 -0.3187 -1.3030
 2818SOL    HW211271   4.793   3.301   4.487  0.7419 -1.3714  0.4612
 2818SOL     MW11272   4.858   3.339   4.443 -0.2902  0.0056  0.0483
 2819SOL     OW11273   1.335   2.409   1.073  0.2194 -0.3772  0.1271
 2819SOL    HW111274   1.314   2.468   1.146  1.5772  0.4544 -0.1194
 2819SOL    HW211275   1.318   2.321   1.108  0.7625  0.0129  1.4269
 2819SOL     MW11276   1.330   2.405   1.087  0.4627 -0.2208  0.2619
 2820SOL     OW11277   4.454   1.533   5.284 -0.1162  0.0412 -0.2771
 2820SOL    HW111278   4.457   1.483   5.202  2.0591 -1.4097  0.6064
 2820SOL    HW211279   4.511   1.608   5.269 -1.4203  0.9829 -0.7558
 2820SOL     MW11280   4.462   1.536   5.271 -0.0047 -0.0240 -0.2253
 2821SOL     OW11281   5.087   3.981   2.026 -0.3302  0.3793  0.2230
 2821SOL    HW111282   5.084   3.913   2.094  2.2322 -0.2347 -0.1738
 2821SOL    HW211283   5.028   3.948   1.957 -0.8248 -0.3407  0.9618
 2821SOL     MW11284   5.079   3.968   2.026 -0.0655  0.2085  0.2668
 2822SOL     OW11285   3.050   5.064   4.884 -0.6911  0.7224 -0.5483
 2822SOL    HW111286   2.991   5.062   4.959 -1.2592  0.8320 -0.9916
 2822SOL    HW211287   3.000   5.025   4.812  0.8267 -2.1905 -0.1878
 2822SOL     MW11288   3.036   5.059   4.884 -0.5695  0.3636 -0.5589
 2823SOL     OW11289   2.337   3.250   3.045 -0.5039  0.3199  0.2324
 2823SOL    HW111290   2.430   3.226   3.038 -0.0879  1.5608  1.2107
 2823SOL    HW211291   2.317   3.291   2.960  0.4753  2.0377  0.7841
 2823SOL     MW11292   2.346   3.252   3.033 -0.3253  0.6986  0.4283
 2824SOL     OW11293   1.855   3.660   0.186 -0.3164 -0.1035 -0.0707
 2824SOL    HW111294   1.937   3.614   0.207 -0.7918 -0.5738  0.8222
 2824SOL    HW211295   1.810   3.666   0.270 -0.3806  1.7949 -0.2060
 2824SOL     MW11296   1.860   3.655   0.200 -0.3855  0.0794  0.0263
 2825SOL     OW11297   1.083   2.004   4.344  0.2021 -0.0739 -0.3472
 2825SOL    HW111298   0.996   1.969   4.323  0.4433 -0.6990 -0.3334
 2825SOL    HW211299   1.123   2.023   4.259  0.4663 -0.8279 -0.3956
 2825SOL     MW11300   1.077   2.002   4.331  0.2668 -0.2504 -0.3516
 2826SOL     OW11301   2.774   0.602   4.564 -0.1840  0.1259 -0.0604
 2826SOL    HW111302   2.690   0.638   4.536 -0.2735  0.0005  0.0438
 2826SOL    HW211303   2.804   0.551   4.489 -0.2572  0.0746 -0.0552
 2826SOL     MW11304   2.767   0.600   4.551 -0.2048  0.1033 -0.0464
 2827SOL     OW11305   5.369   5.145   1.117 -0.0967  0.1356  0.6888
 2827SOL    HW111306   5.443   5.143   1.177 -0.0469 -1.0768  0.6073
 2827SOL    HW211307   5.313   5.073   1.145  1.3416 -2.4400 -2.4199
 2827SOL     MW11308   5.372   5.136   1.128  0.0938 -0.3493  0.2804
 2828SOL     OW11309   0.288   3.777   4.739 -0.5678  0.6949  0.4027
 2828SOL    HW111310   0.230   3.701   4.732 -1.5418  1.2139  2.0930
 2828SOL    HW211311   0.370   3.741   4.774 -0.5287  0.2240 -0.1653
 2828SOL     MW11312   0.291   3.763   4.743 -0.6875  0.7011  0.5464
 2829SOL     OW11313   4.050   3.326   1.941 -0.1114 -0.3441 -0.8321
 2829SOL    HW111314   4.089   3.241   1.919  1.3025 -0.6006  2.1527
 2829SOL    HW211315   4.122   3.388   1.936 -0.3975  0.0809  0.0185
 2829SOL     MW11316   4.064   3.323   1.938  0.0330 -0.3225 -0.3411
 2830SOL     OW11317   3.413   5.297   5.043  0.1032 -0.2071 -0.7857
 2830SOL    HW111318   3.489   5.250   5.007  0.6327 -1.7884  2.0729
 2830SOL    HW211319   3.355   5.228   5.075  0.3441  0.9460  2.5269
 2830SOL     MW11320   3.415   5.282   5.042  0.2018 -0.2619  0.0043
 2831SOL     OW11321   1.329   3.504   1.281 -0.3843 -0.0161 -0.5907
 2831SOL    HW111322   1.414   3.496   1.325  0.2520 -3.7995 -2.1247
 2831SOL    HW211323   1.342   3.574   1.216  1.1987  0.2067 -0.0748
 2831SOL     MW11324   1.342   3.512   1.278 -0.1002 -0.4719 -0.7210
 2832SOL     OW11325   2.594   5.436   3.652 -0.0430 -0.2060  0.0154
 2832SOL    HW111326   2.504   5.414   3.626  0.6694  1.4993 -4.9863
 2832SOL    HW211327   2.645   5.359   3.626  0.2743 -0.1930  0.5834
 2832SOL     MW11328   2.589   5.423   3.645  0.0888  0.0139 -0.5522
 2833SOL     OW11329   0.451   3.612   3.613  0.1703  0.2552 -0.0044
 2833SOL    HW111330   0.504   3.591   3.537  0.5727 -0.2592  0.4030
 2833SOL    HW211331   0.514   3.640   3.680 -0.0878 -0.0625  0.3848
 2833SOL     MW11332   0.466   3.613   3.612  0.1888  0.1487  0.0976
 2834SOL     OW11333   1.321   1.096   0.916 -0.3083  0.4505 -0.1867
 2834SOL    HW111334   1.228   1.070   0.915  0.1322 -1.2439 -1.3046
 2834SOL    HW211335   1.355   1.065   0.832  1.2321  1.2599  0.1166
 2834SOL     MW11336   1.313   1.089   0.905 -0.0547  0.3372 -0.2910
 2835SOL     OW11337   2.890   2.282   2.063  0.0252 -0.6210  0.4130
 2835SOL    HW111338   2.846   2.250   1.984  2.5637 -1.3341 -0.8342
 2835SOL    HW211339   2.934   2.205   2.099 -1.3179 -0.3826  2.8017
 2835SOL     MW11340   2.890   2.268   2.057  0.1782 -0.6818  0.5592
 2836SOL     OW11341   0.046   2.443   3.017  0.2693  0.8528 -0.0233
 2836SOL    HW111342  -0.038   2.411   2.983  0.3144 -1.4058  1.7115
 2836SOL    HW211343   0.024   2.524   3.063 -0.7019  1.0464 -0.7881
 2836SOL     MW11344   0.032   2.449   3.019  0.1507  0.5884  0.1009
 2837SOL     OW11345   0.096   3.413   2.640  0.0658 -0.4228 -0.7915
 2837SOL    HW111346   0.043   3.464   2.580 -0.0495  0.3149 -0.0844
 2837SOL    HW211347   0.182   3.456   2.639 -0.4259  0.6966  0.8697
 2837SOL     MW11348   0.100   3.425   2.632 -0.0119 -0.1851 -0.4883
 2838SOL     OW11349   1.544   3.051   1.227  0.1766  0.3612  0.4823
 2838SOL    HW111350   1.626   3.089   1.194  0.8603  0.1286  1.8435
 2838SOL    HW211351   1.542   2.962   1.190  0.7270  0.2435  0.7252
 2838SOL     MW11352   1.554   3.044   1.218  0.3346  0.3164  0.6876
 2839SOL     OW11353   0.321   0.962   3.427  0.5358 -0.0948 -0.1780
 2839SOL    HW111354   0.410   0.997   3.429 -0.2754  2.7773 -3.7463
 2839SOL    HW211355   0.268   1.033   3.391 -2.8515 -2.4242 -0.2624
 2839SOL     MW11356   0.326   0.975   3.422 -0.0017 -0.0253 -0.6456
 2840SOL     OW11357   4.996   2.775   3.252 -0.3380  0.5250  0.2528
 2840SOL    HW111358   5.091   2.780   3.262 -0.2755  0.1703 -0.1343
 2840SOL    HW211359   4.964   2.860   3.282 -0.0402  0.0600  2.0125
 2840SOL     MW11360   5.004   2.786   3.257 -0.2919  0.4201  0.4285
 2841SOL     OW11361   4.256   1.699   0.241  0.3771 -0.4613 -0.1175
 2841SOL    HW111362   4.300   1.733   0.163 -0.1500 -2.3317 -1.2885
 2841SOL    HW211363   4.307   1.622   0.266 -1.5138 -2.0712 -0.8992
 2841SOL     MW11364   4.268   1.694   0.234  0.0675 -0.9069 -0.3675
 2842SOL     OW11365   2.980   4.824   2.721 -0.1527 -0.3242 -0.2875
 2842SOL    HW111366   3.034   4.903   2.729  0.8344 -1.1154  2.0962
 2842SOL    HW211367   3.036   4.762   2.674 -0.2925 -0.1140 -0.7336
 2842SOL     MW11368   2.994   4.827   2.716 -0.0442 -0.3986 -0.0394
 2843SOL     OW11369   4.318   0.829   0.421 -0.2399 -0.2535  0.1877
 2843SOL    HW111370   4.256   0.756   0.428 -2.8566  1.8722  0.8934
 2843SOL    HW211371   4.305   0.879   0.501  2.0625  0.6042  0.0932
 2843SOL     MW11372   4.308   0.826   0.432 -0.2802  0.1284  0.2659
 2844SOL     OW11373   1.563   2.646   1.348  0.1207 -0.3037 -0.4688
 2844SOL    HW111374   1.473   2.629   1.320  0.3338 -1.7449 -0.3716
 2844SOL    HW211375   1.615   2.583   1.299  1.0422  0.2510 -0.2276
 2844SOL     MW11376   1.558   2.636   1.338  0.2660 -0.4172 -0.4255
 2845SOL     OW11377   3.757   1.945   0.360 -0.0056 -0.0765  0.3240
 2845SOL    HW111378   3.805   1.865   0.338  1.5262  1.7571 -4.4335
 2845SOL    HW211379   3.806   1.983   0.433  1.4239 -1.7789  0.3291
 2845SOL     MW11380   3.770   1.939   0.366  0.3735 -0.0597 -0.2844
 2846SOL     OW11381   1.976   1.338   3.712 -0.4738  0.2225  0.4649
 2846SOL    HW111382   1.936   1.420   3.740 -0.1888  0.2286  0.8512
 2846SOL    HW211383   1.946   1.327   3.621  0.4797  1.3824 -0.0137
 2846SOL     MW11384   1.967   1.347   3.704 -0.3152  0.3717  0.4531
 2847SOL     OW11385   3.769   1.625   0.914  0.3962 -0.2426  0.3109
 2847SOL    HW111386   3.781   1.705   0.965  0.7667 -1.8442  2.9361
 2847SOL    HW211387   3.678   1.601   0.927  0.3232 -0.3427 -0.3383
 2847SOL     MW11388   3.759   1.632   0.922  0.4343 -0.4605  0.5638
 2848SOL     OW11389   0.660   3.038   2.044 -0.5305 -0.2815 -0.0988
 2848SOL    HW111390   0.594   2.969   2.050  0.6357 -1.7537 -2.4910
 2848SOL    HW211391   0.611   3.119   2.060 -2.2873 -1.4855  1.1046
 2848SOL     MW11392   0.645   3.039   2.047 -0.6061 -0.6241 -0.2510
 2849SOL     OW11393   0.556   0.848   1.609 -0.9674  0.4275  0.3946
 2849SOL    HW111394   0.583   0.857   1.518  0.3940  1.4419  0.8666
 2849SOL    HW211395   0.633   0.872   1.660 -1.6671 -0.2115  1.8305
 2849SOL     MW11396   0.569   0.852   1.604 -0.8827  0.4756  0.6388
 2850SOL     OW11397   1.982   3.869   4.554  0.5088 -0.2226  0.5697
 2850SOL    HW111398   1.895   3.849   4.519  0.6428 -1.0353  0.6810
 2850SOL    HW211399   1.972   3.954   4.597 -0.1550 -0.1717  0.3244
 2850SOL     MW11400   1.969   3.877   4.555  0.4410 -0.3201  0.5526
 2851SOL     OW11401   0.448   2.138   4.253  0.1603  0.1968 -0.3303
 2851SOL    HW111402   0.485   2.144   4.165 -1.3470 -0.7909 -1.0717
 2851SOL    HW211403   0.477   2.053   4.286  1.9520  1.1784  0.7575
 2851SOL     MW11404   0.456   2.127   4.246  0.1967  0.1960 -0.2860
 2852SOL     OW11405   2.409   2.659   1.799 -0.3131 -0.6434 -0.1391
 2852SOL    HW111406   2.468   2.721   1.842  0.9376 -0.6186 -1.7994
 2852SOL    HW211407   2.467   2.599   1.752 -1.5899 -0.9320 -1.4201
 2852SOL     MW11408   2.424   2.659   1.799 -0.3164 -0.6771 -0.5157
 2853SOL     OW11409   1.254   3.700   3.098 -0.6411  0.4917 -0.9140
 2853SOL    HW111410   1.185   3.670   3.157 -0.9258  0.8297 -1.0751
 2853SOL    HW211411   1.284   3.782   3.136  0.3050 -0.1043 -0.3414
 2853SOL     MW11412   1.249   3.707   3.111 -0.5564  0.4587 -0.8613
 2854SOL     OW11413   0.860   4.700   1.156  0.2396 -0.1452 -0.0264
 2854SOL    HW111414   0.859   4.671   1.247 -0.5294 -0.8822 -0.2543
 2854SOL    HW211415   0.865   4.795   1.161  1.9419 -0.2463  0.7542
 2854SOL     MW11416   0.860   4.708   1.168  0.3590 -0.2525  0.0444
 2855SOL     OW11417   0.384   1.606   2.150 -0.3288  0.1104  0.0660
 2855SOL    HW111418   0.369   1.699   2.133 -2.6675 -0.2715 -0.1987
 2855SOL    HW211419   0.322   1.561   2.094  1.9406 -1.7443 -1.1474
 2855SOL     MW11420   0.374   1.613   2.141 -0.3377 -0.1759 -0.1232
 2856SOL     OW11421   0.388   3.997   3.419 -0.0225 -0.4977  0.6131
 2856SOL    HW111422   0.332   3.979   3.494 -1.7450 -1.8378 -0.8856
 2856SOL    HW211423   0.367   3.928   3.356  1.9303  0.0965 -0.8067
 2856SOL     MW11424   0.378   3.986   3.421  0.0070 -0.5931  0.2395
 2857SOL     OW11425   1.166   0.767   1.047  0.3223  0.1105 -0.4241
 2857SOL    HW111426   1.172   0.855   1.084 -2.3646  0.5924 -0.9617
 2857SOL    HW211427   1.191   0.779   0.955 -1.7675  0.7489 -0.9656
 2857SOL     MW11428   1.170   0.780   1.040 -0.2892  0.2539 -0.5623
 2858SOL     OW11429   2.658   3.136   3.914  0.0938  0.5441  0.2496
 2858SOL    HW111430   2.644   3.224   3.948 -0.6715  0.4764  0.1185
 2858SOL    HW211431   2.633   3.142   3.822  1.1099  0.4579 -0.0467
 2858SOL     MW11432   2.653   3.148   3.907  0.1259  0.5244  0.1949
 2859SOL     OW11433   3.855   0.929   5.117 -0.0245 -0.2717 -0.4692
 2859SOL    HW111434   3.896   0.845   5.096 -1.2288 -1.0745  0.2873
 2859SOL    HW211435   3.765   0.921   5.085 -0.6694  0.0413  1.1795
 2859SOL     MW11436   3.849   0.917   5.110 -0.2612 -0.3344 -0.1613
 2860SOL     OW11437   2.166   3.821   0.883 -0.1440 -0.2842  0.2267
 2860SOL    HW111438   2.161   3.772   0.965  0.9316 -1.1474 -0.1945
 2860SOL    HW211439   2.256   3.808   0.852  0.5960  2.9775  0.6577
 2860SOL     MW11440   2.177   3.813   0.889  0.0884  0.0229  0.2280
 2861SOL     OW11441   2.700   2.945   0.200  0.8114  0.0761 -0.0549
 2861SOL    HW111442   2.706   2.966   0.107 -1.2560  0.0689 -0.2562
 2861SOL    HW211443   2.622   2.888   0.206  2.1438 -1.7193  1.3974
 2861SOL     MW11444   2.691   2.940   0.189  0.7173 -0.1546  0.1052
 2862SOL     OW11445   1.387   0.274   2.130 -0.4878 -0.2557  0.0116
 2862SOL    HW111446   1.362   0.189   2.167 -0.2616 -0.2266  0.2309
 2862SOL    HW211447   1.322   0.290   2.061  0.1181 -1.1265 -0.7930
 2862SOL     MW11448   1.375   0.265   2.126 -0.3813 -0.3635 -0.0633
 2863SOL     OW11449   1.097   3.939   3.494  0.1729 -0.2542  0.2257
 2863SOL    HW111450   1.086   4.030   3.469  1.2657 -0.2828 -0.4454
 2863SOL    HW211451   1.017   3.895   3.464 -1.5378  0.8618  2.7812
 2863SOL     MW11452   1.086   3.945   3.487  0.0938 -0.1150  0.4670
 2864SOL     OW11453   2.980   2.464   3.869 -0.0280 -0.6662 -0.4823
 2864SOL    HW111454   3.059   2.419   3.837  1.5604  1.6061  0.0068
 2864SOL    HW211455   3.008   2.554   3.881 -2.5887  0.0802  0.3246
 2864SOL     MW11456   2.994   2.469   3.866 -0.1525 -0.2797 -0.3164
 2865SOL     OW11457   0.861   1.769   4.998 -0.2314 -0.1228  0.2399
 2865SOL    HW111458   0.891   1.778   5.089  0.4373 -1.9204  0.2405
 2865SOL    HW211459   0.941   1.778   4.946 -0.4592 -0.0924 -0.1055
 2865SOL     MW11460   0.875   1.772   5.003 -0.1749 -0.3490  0.1958
 2866SOL     OW11461   1.810   2.022   0.375 -0.1005  0.7961 -0.2402
 2866SOL    HW111462   1.882   2.035   0.313  0.8237 -1.3246  0.3031
 2866SOL    HW211463   1.833   1.941   0.422 -2.1013  0.8857  1.0001
 2866SOL     MW11464   1.822   2.013   0.373 -0.2383  0.5361 -0.0119
 2867SOL     OW11465   1.358   0.362   4.706  0.0394 -0.2413 -0.2995
 2867SOL    HW111466   1.378   0.339   4.616  2.0643 -1.2783  0.3367
 2867SOL    HW211467   1.317   0.283   4.742 -0.8572  0.2044 -0.3352
 2867SOL     MW11468   1.355   0.349   4.699  0.1838 -0.3170 -0.2227
 2868SOL     OW11469   4.609   2.199   5.203  0.1421  0.1172 -0.7069
 2868SOL    HW111470   4.650   2.259   5.265 -0.8645  0.4322 -0.3374
 2868SOL    HW211471   4.621   2.242   5.118  0.6649  0.1540 -0.6201
 2868SOL     MW11472   4.616   2.212   5.200  0.0801  0.1623 -0.6485
 2869SOL     OW11473   2.633   1.616   2.147  0.2280 -0.1814  0.3675
 2869SOL    HW111474   2.553   1.565   2.136  0.0900 -0.3991  2.0716
 2869SOL    HW211475   2.693   1.582   2.080 -0.4689 -1.3231  0.3032
 2869SOL     MW11476   2.630   1.605   2.137  0.1211 -0.3554  0.5774
 2870SOL     OW11477   1.745   2.480   0.621  0.6981 -0.4803  0.3760
 2870SOL    HW111478   1.721   2.388   0.637  0.8104 -0.7000 -0.6665
 2870SOL    HW211479   1.668   2.517   0.577  1.1182 -0.4007 -0.2969
 2870SOL     MW11480   1.732   2.473   0.618  0.7663 -0.4983  0.1564
 2871SOL     OW11481   4.746   5.145   0.034 -0.5385  0.7081  0.6258
 2871SOL    HW111482   4.796   5.101   0.103 -0.3397 -0.7439 -0.3887
 2871SOL    HW211483   4.698   5.075  -0.009  0.7950  1.2108 -1.9027
 2871SOL     MW11484   4.746   5.131   0.037 -0.3424  0.5866  0.1723
 2872SOL     OW11485   1.723   5.072   3.166 -0.0002  0.3564 -0.5906
 2872SOL    HW111486   1.672   5.089   3.245 -0.8015  0.0028 -1.0097
 2872SOL    HW211487   1.666   5.100   3.094 -0.4531 -1.8392 -1.1840
 2872SOL     MW11488   1.709   5.078   3.167 -0.1607  0.0301 -0.7202
 2873SOL     OW11489   3.744   4.825   1.679 -0.1762 -0.6404 -0.1740
 2873SOL    HW111490   3.683   4.753   1.691 -0.0224 -0.7269  0.1198
 2873SOL    HW211491   3.780   4.813   1.591 -0.0423 -1.0083 -0.0706
 2873SOL     MW11492   3.741   4.815   1.670 -0.1394 -0.6986 -0.1231
 2874SOL     OW11493   5.426   2.341   1.274  0.4087 -0.2736  0.0798
 2874SOL    HW111494   5.521   2.348   1.263  0.4278  1.8818  1.1857
 2874SOL    HW211495   5.415   2.275   1.342  1.2189  0.6217  1.1156
 2874SOL     MW11496   5.437   2.334   1.281  0.5149  0.1169  0.3540
 2875SOL     OW11497   4.853   4.672   1.069 -0.4820  0.0298 -0.1362
 2875SOL    HW111498   4.890   4.748   1.023 -2.5686  0.3938 -1.3197
 2875SOL    HW211499   4.809   4.709   1.145  2.2727 -0.5039  1.8858
 2875SOL     MW11500   4.852   4.687   1.073 -0.3965  0.0081 -0.0289
 2876SOL     OW11501   2.490   0.377   3.974 -0.2929  0.4008 -0.4014
 2876SOL    HW111502   2.437   0.321   4.032  0.7099  1.4840  1.6491
 2876SOL    HW211503   2.510   0.320   3.899 -1.3977 -1.1648  0.4167
 2876SOL     MW11504   2.486   0.362   3.972 -0.3060  0.3390 -0.0342
 2877SOL     OW11505   1.926   0.636   3.212  0.4796  0.3771  0.3469
 2877SOL    HW111506   1.840   0.648   3.172  0.4001 -0.0674  0.3803
 2877SOL    HW211507   1.966   0.723   3.210 -0.1937  0.7062  0.8463
 2877SOL     MW11508   1.920   0.649   3.206  0.3832  0.3623  0.4151
 2878SOL     OW11509   4.466   0.047   4.665  0.3053 -0.1334 -0.3528
 2878SOL    HW111510   4.455   0.057   4.571  1.0878 -0.6991 -0.5155
 2878SOL    HW211511   4.381   0.017   4.696 -0.0025  0.2070 -0.8502
 2878SOL     MW11512   4.454   0.044   4.657  0.3661 -0.1622 -0.4373
 2879SOL     OW11513   2.367   5.160   3.144 -0.4519  0.0254 -0.2594
 2879SOL    HW111514   2.380   5.099   3.072 -0.5050 -3.0011  2.1039
 2879SOL    HW211515   2.272   5.167   3.153 -0.4551 -0.3663  0.0656
 2879SOL     MW11516   2.356   5.153   3.136 -0.4591 -0.4121  0.0848
 2880SOL     OW11517   2.305   1.261   5.085  0.2356  0.1767  0.1720
 2880SOL    HW111518   2.303   1.338   5.141 -2.2035  0.1802  0.1595
 2880SOL    HW211519   2.309   1.296   4.996 -0.5225  0.2920  0.1800
 2880SOL     MW11520   2.305   1.275   5.080 -0.1737  0.1919  0.1714
 2881SOL     OW11521   1.327   5.224   4.332  0.7080  0.4419  0.8610
 2881SOL    HW111522   1.250   5.253   4.379 -0.7542  0.8654 -1.6021
 2881SOL    HW211523   1.382   5.303   4.325  1.0090  0.3351  1.9431
 2881SOL     MW11524   1.324   5.238   4.337  0.5594  0.4825  0.6842
 2882SOL     OW11525   3.772   1.119   2.385  0.0292  0.5894 -0.5480
 2882SOL    HW111526   3.806   1.150   2.469 -0.0271 -0.0622 -0.2804
 2882SOL    HW211527   3.678   1.133   2.390 -0.0860 -0.2768 -0.1392
 2882SOL     MW11528   3.764   1.125   2.396  0.0073  0.3951 -0.4614
 2883SOL     OW11529   4.912   2.323   3.110 -0.6174 -0.1389 -0.0152
 2883SOL    HW111530   5.006   2.305   3.105 -0.7336 -0.4784 -2.4107
 2883SOL    HW211531   4.906   2.411   3.147  0.5763 -0.4132  0.8979
 2883SOL     MW11532   4.923   2.332   3.114 -0.4795 -0.2175 -0.2050
 2884SOL     OW11533   3.490   2.067   1.639 -0.4276 -0.2500  0.1531
 2884SOL    HW111534   3.531   1.981   1.628  2.6567  1.0923  0.0281
 2884SOL    HW211535   3.444   2.061   1.723  0.9431 -1.6054  0.8640
 2884SOL     MW11536   3.490   2.055   1.648  0.1427 -0.2517  0.2281
 2885SOL     OW11537   1.498   1.886   1.767 -0.1081 -0.1860 -0.1304
 2885SOL    HW111538   1.455   1.825   1.827 -0.1870 -0.2138 -0.2154
 2885SOL    HW211539   1.490   1.971   1.810 -0.1629 -0.2062 -0.1009
 2885SOL     MW11540   1.492   1.889   1.780 -0.1253 -0.1922 -0.1375
 2886SOL     OW11541   1.585   2.803   4.441 -0.2485 -0.4653  1.2101
 2886SOL    HW111542   1.554   2.836   4.525 -0.8248 -0.8522  1.1513
 2886SOL    HW211543   1.528   2.729   4.421 -1.2028  0.6074 -0.2986
 2886SOL     MW11544   1.574   2.798   4.449 -0.4444 -0.3775  1.0095
 2887SOL     OW11545   1.064   1.348   0.351  0.2041  0.0963 -0.4381
 2887SOL    HW111546   1.018   1.275   0.392 -0.3050  0.9023  0.4658
 2887SOL    HW211547   1.097   1.400   0.424 -1.3221  1.9456 -0.9676
 2887SOL     MW11548   1.062   1.345   0.365 -0.0564  0.4362 -0.3901
 2888SOL     OW11549   1.385   2.127   2.977 -0.4072 -0.2204 -0.0581
 2888SOL    HW111550   1.358   2.093   2.892 -1.5664 -2.3076  1.0480
 2888SOL    HW211551   1.453   2.192   2.958  1.2779 -2.4975 -2.4500
 2888SOL     MW11552   1.390   2.131   2.964 -0.3399 -0.7791 -0.2227
 2889SOL     OW11553   1.327   0.295   1.295 -0.0730  0.2314  0.1213
 2889SOL    HW111554   1.301   0.384   1.270  0.7036  0.3113 -0.4308
 2889SOL    HW211555   1.414   0.305   1.333  0.5576 -0.4303 -1.0727
 2889SOL     MW11556   1.335   0.308   1.297  0.1072  0.1569 -0.1023
 2890SOL     OW11557   4.013   2.065   3.846  0.8413  0.3874 -0.0785
 2890SOL    HW111558   4.045   2.068   3.936  0.3337 -0.9384  0.1774
 2890SOL    HW211559   4.054   1.987   3.809  1.2127  1.0394 -1.0758
 2890SOL     MW11560   4.022   2.055   3.853  0.8239  0.3011 -0.1734
 2891SOL     OW11561   2.958   4.523   0.895  0.2886  0.1632  0.2902
 2891SOL    HW111562   2.933   4.516   0.802  0.1021  1.0628  0.2572
 2891SOL    HW211563   3.039   4.575   0.893 -0.0144  0.6527  0.6647
 2891SOL     MW11564   2.965   4.529   0.883  0.2259  0.3410  0.3339
 2892SOL     OW11565   3.332   1.869   5.033  0.6036  0.0220 -0.4294
 2892SOL    HW111566   3.347   1.922   4.955 -1.0317  0.6614 -0.3506
 2892SOL    HW211567   3.381   1.788   5.017  0.0038 -0.0216 -2.2966
 2892SOL     MW11568   3.340   1.866   5.021  0.3175  0.0983 -0.6584
 2893SOL     OW11569   2.519   5.278   4.667  0.1751 -0.3755 -0.3012
 2893SOL    HW111570   2.578   5.321   4.605 -0.6807  0.9087 -0.2488
 2893SOL    HW211571   2.465   5.220   4.612  1.1837 -1.2675 -0.3948
 2893SOL     MW11572   2.520   5.276   4.652  0.1946 -0.3253 -0.3065
 2894SOL     OW11573   2.213   5.007   2.208 -0.0790  0.0061 -0.1794
 2894SOL    HW111574   2.137   4.965   2.166 -1.4288  2.3894 -0.3285
 2894SOL    HW211575   2.262   5.044   2.135  0.1805  0.1145  0.0526
 2894SOL     MW11576   2.209   5.006   2.193 -0.2186  0.3251 -0.1688
 2895SOL     OW11577   4.168   4.032   3.112 -0.6708  0.2302 -0.4931
 2895SOL    HW111578   4.101   4.042   3.180 -2.2119 -1.5982 -1.6458
 2895SOL    HW211579   4.135   4.084   3.039 -0.8315 -0.6293 -1.0447
 2895SOL     MW11580   4.155   4.040   3.112 -0.8886 -0.1139 -0.7112
 2896SOL     OW11581   3.067   5.336   0.232  0.2972 -0.1459  0.1594
 2896SOL    HW111582   3.157   5.362   0.216  0.0713  1.9721  1.9421
 2896SOL    HW211583   3.019   5.365   0.154  0.4873  2.8369  1.0336
 2896SOL     MW11584   3.072   5.343   0.220  0.2926  0.5071  0.4996
 2897SOL     OW11585   0.888   3.974   2.864  0.8148  0.6618 -0.1129
 2897SOL    HW111586   0.813   3.915   2.859  0.4826  1.0234  0.5300
 2897SOL    HW211587   0.850   4.062   2.855  1.2731  0.8000 -0.7669
 2897SOL     MW11588   0.873   3.978   2.862  0.8309  0.7258 -0.1143
 2898SOL     OW11589   0.924   3.033   0.027 -0.2055  0.0402  0.0946
 2898SOL    HW111590   0.934   2.941   0.049 -0.5558  0.0990  0.5132
 2898SOL    HW211591   1.000   3.053  -0.028  0.4930 -0.2025  0.9589
 2898SOL     MW11592   0.935   3.024   0.022 -0.1610  0.0166  0.2588
 2899SOL     OW11593   3.409   2.663   0.603  0.3949  0.5362  0.1077
 2899SOL    HW111594   3.411   2.756   0.583 -2.8635  1.6871  3.8326
 2899SOL    HW211595   3.411   2.658   0.699 -0.3154 -3.1609  0.1027
 2899SOL     MW11596   3.410   2.674   0.613 -0.1131  0.2102  0.5839
 2900SOL     OW11597   5.339   0.643   0.917  0.3326 -1.2415 -0.3301
 2900SOL    HW111598   5.417   0.618   0.967  1.0686 -0.2967 -0.9805
 2900SOL    HW211599   5.306   0.560   0.882  0.8504 -1.6879  0.2169
 2900SOL     MW11600   5.345   0.629   0.919  0.4931 -1.1777 -0.3433
 2901SOL     OW11601   3.254   5.435   4.497 -0.1195 -0.0366  0.1791
 2901SOL    HW111602   3.241   5.362   4.557  3.0401  0.9809  2.3979
 2901SOL    HW211603   3.271   5.510   4.554 -1.5918  2.1195 -2.0100
 2901SOL     MW11604   3.255   5.435   4.512  0.0965  0.3696  0.1829
 2902SOL     OW11605   1.953   2.491   0.161 -0.3263 -0.1330 -0.0756
 2902SOL    HW111606   1.986   2.536   0.239 -0.8848  1.9046 -0.9701
 2902SOL    HW211607   2.031   2.477   0.107  0.3922 -3.1439  1.4688
 2902SOL     MW11608   1.967   2.495   0.164 -0.3058 -0.2576  0.0076
 2903SOL     OW11609   2.689   3.365   1.875  0.1059  0.2613 -0.6483
 2903SOL    HW111610   2.697   3.459   1.888 -1.0971  0.1586  1.3416
 2903SOL    HW211611   2.780   3.333   1.871  0.5205  1.3969 -0.5533
 2903SOL     MW11612   2.702   3.373   1.876  0.0050  0.3935 -0.3814
 2904SOL     OW11613   5.061   4.071   3.948  0.3889 -0.0196 -0.2086
 2904SOL    HW111614   5.042   4.108   4.035 -0.8689 -1.3360  0.1255
 2904SOL    HW211615   4.988   4.011   3.932  1.2969 -0.7940 -1.6053
 2904SOL     MW11616   5.049   4.068   3.957  0.3441 -0.2872 -0.3446
 2905SOL     OW11617   4.134   0.288   3.309  0.5258  0.3627 -0.0537
 2905SOL    HW111618   4.053   0.236   3.312  2.1912 -2.3553  0.7271
 2905SOL    HW211619   4.103   0.379   3.314 -2.4657 -0.5510  0.4882
 2905SOL     MW11620   4.119   0.293   3.310  0.3560 -0.1022  0.1156
 2906SOL     OW11621   4.420   3.365   1.503  0.4641 -0.8730 -0.1108
 2906SOL    HW111622   4.349   3.348   1.565  0.9738  0.1565  0.7973
 2906SOL    HW211623   4.496   3.384   1.559  0.8980  0.2713 -1.0528
 2906SOL     MW11624   4.421   3.365   1.518  0.5849 -0.5947 -0.1152
 2907SOL     OW11625   0.117   3.564   4.760 -0.4047  0.1540 -0.2449
 2907SOL    HW111626   0.072   3.611   4.829  0.8360  1.6278 -0.3880
 2907SOL    HW211627   0.135   3.477   4.798  0.7296  1.0947  1.5358
 2907SOL     MW11628   0.114   3.559   4.774 -0.1006  0.4631 -0.0353
 2908SOL     OW11629   4.578   4.922   3.462  0.0925 -0.0319  0.3940
 2908SOL    HW111630   4.672   4.927   3.443  0.0563  2.1627  0.5232
 2908SOL    HW211631   4.536   4.938   3.378 -0.1471  0.1674  0.5502
 2908SOL     MW11632   4.585   4.925   3.449  0.0572  0.2746  0.4305
 2909SOL     OW11633   3.575   2.905   1.731 -0.1836  0.3002  0.3573
 2909SOL    HW111634   3.550   2.941   1.816 -0.9548 -0.4678  0.4665
 2909SOL    HW211635   3.660   2.863   1.746 -0.5104 -0.1924  0.8492
 2909SOL     MW11636   3.583   2.905   1.744 -0.3242  0.1388  0.4342
 2910SOL     OW11637   1.575   0.165   1.687 -0.6167  0.1254  0.5264
 2910SOL    HW111638   1.558   0.084   1.639 -0.1274  0.5545 -0.3857
 2910SOL    HW211639   1.488   0.202   1.704 -0.7834  0.6655 -1.2700
 2910SOL     MW11640   1.562   0.160   1.683 -0.5754  0.2495  0.1797
 2911SOL     OW11641   1.561   0.076   2.868  0.5034 -0.4311 -0.0333
 2911SOL    HW111642   1.598   0.156   2.904  1.6400 -0.0907 -1.8399
 2911SOL    HW211643   1.623   0.007   2.894 -0.4926 -0.7830  1.5522
 2911SOL     MW11644   1.574   0.077   2.876  0.5214 -0.4326 -0.0616
 2912SOL     OW11645   0.490   4.432   4.821  0.8614 -0.3667 -0.4560
 2912SOL    HW111646   0.430   4.470   4.885  3.8043  1.5147  1.4531
 2912SOL    HW211647   0.439   4.427   4.740 -1.2321  3.3784  0.3876
 2912SOL     MW11648   0.476   4.436   4.818  0.9701  0.3536 -0.1036
 2913SOL     OW11649   2.939   0.808   3.190 -0.2027  0.0268  0.6591
 2913SOL    HW111650   3.015   0.854   3.226 -0.2226 -0.0117  0.7475
 2913SOL    HW211651   2.868   0.872   3.196 -0.0715  0.2300  0.1479
 2913SOL     MW11652   2.939   0.822   3.195 -0.1885  0.0478  0.6050
 2914SOL     OW11653   0.339   2.932   4.778 -0.7096  0.2922  0.0866
 2914SOL    HW111654   0.246   2.914   4.769 -0.3818 -2.1389  0.5892
 2914SOL    HW211655   0.369   2.950   4.689 -1.5613  0.5332 -0.1591
 2914SOL     MW11656   0.331   2.932   4.765 -0.7767  0.0119  0.1195
 2915SOL     OW11657   0.858   1.121   4.943  0.5792 -0.0692  0.1101
 2915SOL    HW111658   0.787   1.075   4.988  1.6477 -1.2340  0.6416
 2915SOL    HW211659   0.921   1.053   4.920  0.8886  0.7379 -1.6296
 2915SOL     MW11660   0.857   1.106   4.946  0.7556 -0.1150 -0.0445
 2916SOL     OW11661   2.367   2.902   0.499 -0.4322  0.0819  0.1284
 2916SOL    HW111662   2.307   2.828   0.509 -0.2063  0.0663  1.4553
 2916SOL    HW211663   2.312   2.973   0.466 -1.0999 -0.0591  0.9168
 2916SOL     MW11664   2.352   2.902   0.496 -0.4888  0.0619  0.3992
 2917SOL     OW11665   5.287   4.473   1.155 -0.1259 -0.0263  0.1266
 2917SOL    HW111666   5.250   4.397   1.110  0.2777  0.5513 -1.2520
 2917SOL    HW211667   5.368   4.442   1.193  0.7722  0.0159 -1.6685
 2917SOL     MW11668   5.292   4.460   1.154  0.0407  0.0530 -0.2796
 2918SOL     OW11669   3.242   4.232   1.171  0.3294  0.5657 -0.5044
 2918SOL    HW111670   3.207   4.243   1.083  1.5306  0.3226 -1.0306
 2918SOL    HW211671   3.219   4.313   1.216  1.7982  1.7606 -1.7927
 2918SOL     MW11672   3.235   4.244   1.166  0.6712  0.6875 -0.7367
 2919SOL     OW11673   2.219   1.143   1.414 -0.2882  0.5300 -0.3028
 2919SOL    HW111674   2.148   1.193   1.454 -0.9549  0.3878 -1.2699
 2919SOL    HW211675   2.285   1.208   1.391  0.8258  0.4842  2.3291
 2919SOL     MW11676   2.218   1.157   1.416 -0.2309  0.5059 -0.0897
 2920SOL     OW11677   0.110   0.287   5.461 -0.0526 -0.1229  0.4442
 2920SOL    HW111678   0.180   0.275   5.396 -1.2984 -1.1794 -0.7714
 2920SOL    HW211679   0.050   0.350   5.421 -1.0893 -1.1615  0.3072
 2920SOL     MW11680   0.111   0.293   5.448 -0.3448 -0.3911  0.2711
 2921SOL     OW11681   2.321   1.555   0.525 -0.3979 -0.3590 -0.6409
 2921SOL    HW111682   2.259   1.615   0.483  0.4762  0.9918 -0.0709
 2921SOL    HW211683   2.405   1.602   0.523  0.2594 -1.4697  0.0299
 2921SOL     MW11684   2.324   1.569   0.519 -0.2019 -0.3283 -0.4821
 2922SOL     OW11685   2.743   2.919   4.243  0.4763  0.2588  0.2569
 2922SOL    HW111686   2.806   2.959   4.184  1.3222 -0.7944  0.4078
 2922SOL    HW211687   2.752   2.968   4.325  1.1236  0.1030  0.2844
 2922SOL     MW11688   2.752   2.930   4.246  0.6675  0.1040  0.2797
 2923SOL     OW11689   4.360   3.611   3.010 -0.1049 -0.2439  0.0722
 2923SOL    HW111690   4.267   3.588   3.005 -0.4644  1.1115 -0.1013
 2923SOL    HW211691   4.396   3.554   3.077 -1.4092  0.2237  1.2369
 2923SOL     MW11692   4.352   3.601   3.018 -0.3179 -0.0105  0.1991
 2924SOL     OW11693   2.859   5.208   0.590 -0.2082  0.6647 -0.1071
 2924SOL    HW111694   2.953   5.220   0.601  0.2144 -1.4694 -0.8363
 2924SOL    HW211695   2.829   5.171   0.674  0.0804 -0.8540 -0.6417
 2924SOL     MW11696   2.867   5.204   0.602 -0.1172  0.1971 -0.2689
 2925SOL     OW11697   2.853   3.176   5.275  0.6591 -0.1647  0.1368
 2925SOL    HW111698   2.920   3.156   5.209  0.6333  1.3176 -0.3756
 2925SOL    HW211699   2.820   3.262   5.250 -0.5998 -0.3456  1.0899
 2925SOL     MW11700   2.857   3.184   5.263  0.4946  0.0019  0.1932
 2926SOL     OW11701   1.863   0.982   0.528 -0.1129  0.1894  0.2071
 2926SOL    HW111702   1.784   0.968   0.476 -0.3116  0.6890  0.3645
 2926SOL    HW211703   1.853   0.925   0.604  0.1005 -0.4168 -0.2156
 2926SOL     MW11704   1.852   0.973   0.531 -0.1110  0.1758  0.1731
 2927SOL     OW11705   2.159   0.686   1.505  0.4829 -0.3514 -0.1900
 2927SOL    HW111706   2.235   0.717   1.554  0.1841 -0.7252  0.5340
 2927SOL    HW211707   2.152   0.745   1.431 -0.1299  1.3663  1.1840
 2927SOL     MW11708   2.168   0.697   1.502  0.3662 -0.1794  0.0786
 2928SOL     OW11709   3.798   1.408   2.685  0.2098  0.5500  0.1843
 2928SOL    HW111710   3.890   1.393   2.661  0.1137 -0.5596  0.4339
 2928SOL    HW211711   3.801   1.481   2.746  1.0295  0.0370  0.7876
 2928SOL     MW11712   3.810   1.415   2.689  0.3025  0.3423  0.2935
 2929SOL     OW11713   3.505   0.433   2.984  0.4602  0.1696 -0.1479
 2929SOL    HW111714   3.514   0.387   3.068  0.2467  0.6947  0.1684
 2929SOL    HW211715   3.418   0.474   2.989  0.1042 -0.4520 -0.9575
 2929SOL     MW11716   3.495   0.432   2.996  0.3873  0.1572 -0.2110
 2930SOL     OW11717   3.286   1.011   2.697 -0.0290  0.8305 -0.6928
 2930SOL    HW111718   3.235   1.067   2.639  0.2713 -0.7193 -2.5117
 2930SOL    HW211719   3.369   0.998   2.651  0.4273 -0.0113  0.3248
 2930SOL     MW11720   3.290   1.017   2.684  0.0678  0.5244 -0.7954
 2931SOL     OW11721   0.141   5.231   5.252  0.3990  0.0019  0.0983
 2931SOL    HW111722   0.124   5.138   5.267  0.2193 -0.3652 -2.0767
 2931SOL    HW211723   0.115   5.274   5.334  0.6249 -1.8596  1.1902
 2931SOL     MW11724   0.135   5.225   5.265  0.4049 -0.2834 -0.0404
 2932SOL     OW11725   0.589   1.223   2.414  0.1243  0.4216 -0.2586
 2932SOL    HW111726   0.645   1.152   2.445  1.3889  1.7042  0.5224
 2932SOL    HW211727   0.608   1.230   2.321 -0.0379 -0.2660 -0.3503
 2932SOL     MW11728   0.599   1.215   2.406  0.2654  0.4978 -0.1704
 2933SOL     OW11729   3.395   2.437   1.133  0.7606  0.0822  0.0550
 2933SOL    HW111730   3.457   2.376   1.172 -1.4210 -0.2704  3.3738
 2933SOL    HW211731   3.338   2.464   1.205 -1.3701  2.3690 -2.2333
 2933SOL     MW11732   3.396   2.433   1.147  0.2086  0.3298  0.1869
 2934SOL     OW11733   4.329   3.930   0.405 -0.3765 -0.1140 -0.5330
 2934SOL    HW111734   4.280   3.998   0.451  1.3558  1.2561 -0.6466
 2934SOL    HW211735   4.279   3.850   0.423 -2.5383  1.1528 -0.5008
 2934SOL     MW11736   4.316   3.928   0.413 -0.4315  0.2235 -0.5434
 2935SOL     OW11737   4.660   0.788   3.980  0.1889  0.1053  0.0152
 2935SOL    HW111738   4.652   0.827   3.893 -0.4953 -1.9161 -0.8790
 2935SOL    HW211739   4.754   0.770   3.990  0.1493 -0.5826 -0.7525
 2935SOL     MW11740   4.671   0.791   3.970  0.0963 -0.2415 -0.1975
 2936SOL     OW11741   1.163   0.118   0.602 -0.0609  0.4858 -0.0090
 2936SOL    HW111742   1.127   0.113   0.514 -2.1033 -1.9740  0.8397
 2936SOL    HW211743   1.099   0.073   0.657  0.8482  2.3784  2.8646
 2936SOL     MW11744   1.150   0.112   0.598 -0.2060  0.4132  0.4675
 2937SOL     OW11745   1.976   1.901   1.917  0.2670  0.5227  0.1134
 2937SOL    HW111746   1.978   1.886   2.011 -0.9604  0.1476  0.0969
 2937SOL    HW211747   2.053   1.954   1.899  0.7553  0.2247  1.2623
 2937SOL     MW11748   1.986   1.906   1.927  0.1724  0.4365  0.2584
 2938SOL     OW11749   3.721   4.876   3.057  0.3261  0.5296 -0.1225
 2938SOL    HW111750   3.666   4.923   2.994  1.4142  2.6030  0.3837
 2938SOL    HW211751   3.810   4.895   3.029  0.8310 -1.1179  0.2547
 2938SOL     MW11752   3.725   4.884   3.045  0.5300  0.5841 -0.0094
 2939SOL     OW11753   1.322   3.858   3.969  0.4836  0.2739 -0.0047
 2939SOL    HW111754   1.408   3.898   3.956 -0.6444  3.1422  0.4570
 2939SOL    HW211755   1.269   3.892   3.897 -0.9943  1.0876  1.3952
 2939SOL     MW11756   1.326   3.868   3.958  0.1500  0.7452  0.2336
 2940SOL     OW11757   0.112   4.973   5.324 -0.0361 -0.0175  0.2348
 2940SOL    HW111758   0.024   4.946   5.346 -0.0917  0.0036  0.0413
 2940SOL    HW211759   0.154   4.991   5.408  0.0710 -0.9062  0.3726
 2940SOL     MW11760   0.106   4.972   5.338 -0.0295 -0.1286  0.2277
 2941SOL     OW11761   0.660   0.404   3.335 -0.3169 -0.2255 -0.2774
 2941SOL    HW111762   0.654   0.449   3.251 -1.1765 -1.2463 -0.7873
 2941SOL    HW211763   0.578   0.354   3.342  0.6758 -1.8681  0.1479
 2941SOL     MW11764   0.649   0.404   3.325 -0.2998 -0.5665 -0.2882
 2942SOL     OW11765   4.154   5.199   2.438  0.3682  0.3101  0.0219
 2942SOL    HW111766   4.116   5.204   2.526  0.0151  1.3212 -0.1729
 2942SOL    HW211767   4.248   5.210   2.451  0.6004 -1.8052  0.4705
 2942SOL     MW11768   4.161   5.201   2.451  0.3527  0.1687  0.0544
 2943SOL     OW11769   5.477   3.180   0.244  0.0647  0.6150 -0.6526
 2943SOL    HW111770   5.433   3.114   0.299  1.5704 -0.5163 -0.7580
 2943SOL    HW211771   5.449   3.264   0.282 -3.1680  0.0689 -1.4769
 2943SOL     MW11772   5.468   3.182   0.256 -0.1564  0.4003 -0.7716
 2944SOL     OW11773   1.577   0.123   5.176 -1.0201  0.2082 -0.1917
 2944SOL    HW111774   1.650   0.120   5.114 -0.0172 -0.7957  0.9682
 2944SOL    HW211775   1.532   0.205   5.157 -0.7694 -0.0824 -2.2298
 2944SOL     MW11776   1.581   0.133   5.166 -0.8596  0.0425 -0.3041
 2945SOL     OW11777   2.129   4.500   3.767  0.2146  0.3156  0.2972
 2945SOL    HW111778   2.121   4.553   3.847  0.4411 -0.6398  0.9692
 2945SOL    HW211779   2.142   4.564   3.697  0.6934  1.1392  1.1143
 2945SOL     MW11780   2.129   4.515   3.769  0.3049  0.2987  0.4878
 2946SOL     OW11781   2.923   4.913   4.027  0.7403  0.2890 -0.0490
 2946SOL    HW111782   2.879   4.832   4.053 -1.9257  0.2740 -3.8414
 2946SOL    HW211783   3.011   4.886   4.003  0.3935 -1.1920  0.2401
 2946SOL     MW11784   2.928   4.899   4.027  0.3546  0.0975 -0.4974
 2947SOL     OW11785   4.604   1.731   4.537  0.0553 -0.3433 -0.6335
 2947SOL    HW111786   4.565   1.787   4.471  0.2661 -0.2680 -0.6948
 2947SOL    HW211787   4.595   1.642   4.503 -1.4057 -0.4779  0.0229
 2947SOL     MW11788   4.598   1.726   4.524 -0.1047 -0.3509 -0.5573
 2948SOL     OW11789   1.462   0.214   5.434  0.8343 -0.7018 -0.2999
 2948SOL    HW111790   1.555   0.192   5.436  1.3603  0.7812 -2.9940
 2948SOL    HW211791   1.455   0.282   5.367 -2.1102 -0.2537  0.3201
 2948SOL     MW11792   1.473   0.220   5.426  0.5247 -0.4546 -0.5654
 2949SOL     OW11793   3.982   4.039   2.854  0.2718  0.4063 -0.1030
 2949SOL    HW111794   4.038   4.036   2.776 -0.0605  1.9302 -0.4481
 2949SOL    HW211795   3.893   4.027   2.820  0.1927  0.3473  0.1265
 2949SOL     MW11796   3.978   4.037   2.839  0.2191  0.5938 -0.1178
 2950SOL     OW11797   4.684   3.933   2.609 -0.5099 -0.0000 -0.2736
 2950SOL    HW111798   4.640   4.015   2.631  3.7713  2.4673  0.1007
 2950SOL    HW211799   4.725   3.904   2.690 -0.4973 -1.5971 -0.8005
 2950SOL     MW11800   4.683   3.940   2.622  0.0398  0.1114 -0.2931
 2951SOL     OW11801   4.784   2.608   1.523  0.1099 -0.1086  0.3178
 2951SOL    HW111802   4.746   2.521   1.533  1.1742 -0.5128  1.0155
 2951SOL    HW211803   4.765   2.652   1.606  1.6268 -0.5183  0.9071
 2951SOL     MW11804   4.776   2.603   1.535  0.4403 -0.2127  0.4825
 2952SOL     OW11805   1.067   5.324   0.366 -0.5207  0.0493 -0.0929
 2952SOL    HW111806   0.973   5.326   0.381 -0.4130 -0.6973  0.7572
 2952SOL    HW211807   1.097   5.247   0.413  0.7737  1.2509  1.1267
 2952SOL     MW11808   1.059   5.314   0.374 -0.3412  0.1075  0.1721
 2953SOL     OW11809   2.273   4.028   2.053  0.0517  0.3907 -0.8342
 2953SOL    HW111810   2.362   4.007   2.023 -0.1199 -0.5476 -0.7211
 2953SOL    HW211811   2.265   4.122   2.040  1.0876  0.4950 -0.7876
 2953SOL     MW11812   2.284   4.037   2.047  0.1623  0.2840 -0.8138
 2954SOL     OW11813   5.082   0.812   5.493 -0.0995  0.1619 -0.2479
 2954SOL    HW111814   5.129   0.855   5.422 -0.8455 -2.1066 -2.2575
 2954SOL    HW211815   5.147   0.755   5.534 -0.1934 -0.1956 -0.5908
 2954SOL     MW11816   5.096   0.810   5.489 -0.2070 -0.1742 -0.5490
 2955SOL     OW11817   0.038   2.382   0.145 -0.6183 -0.3285 -0.5165
 2955SOL    HW111818  -0.003   2.365   0.229 -0.3224  0.3144 -0.2366
 2955SOL    HW211819   0.086   2.464   0.158 -0.9178  0.0050 -1.4283
 2955SOL     MW11820   0.039   2.391   0.157 -0.6188 -0.2035 -0.5974
 2956SOL     OW11821   1.875   0.799   0.715  0.6317 -0.1785  0.5331
 2956SOL    HW111822   1.860   0.708   0.690 -0.1994  0.4728 -1.5013
 2956SOL    HW211823   1.806   0.818   0.779  0.7832 -0.9352  0.9387
 2956SOL     MW11824   1.864   0.789   0.720  0.5447 -0.1920  0.3246
 2957SOL     OW11825   0.741   4.336   4.231  0.1649  0.1497  0.5318
 2957SOL    HW111826   0.831   4.327   4.263  0.1061 -1.2427  0.3456
 2957SOL    HW211827   0.726   4.431   4.230  1.1376  0.3607  1.9156
 2957SOL     MW11828   0.751   4.347   4.235  0.2819 -0.0015  0.6851
 2958SOL     OW11829   0.959   4.503   0.254 -0.0907  0.4283  0.9494
 2958SOL    HW111830   1.047   4.487   0.221 -1.3257 -0.3894 -2.4329
 2958SOL    HW211831   0.911   4.423   0.234 -1.8838  1.2667  1.6221
 2958SOL     MW11832   0.964   4.491   0.247 -0.4783  0.4310  0.6026
 2959SOL     OW11833   3.721   5.303   5.346 -0.1688  0.1805 -0.2298
 2959SOL    HW111834   3.632   5.339   5.354  0.1375  1.1404 -0.9895
 2959SOL    HW211835   3.708   5.212   5.323 -0.9605  0.1254  0.3659
 2959SOL     MW11836   3.708   5.296   5.344 -0.2310  0.2963 -0.2508
 2960SOL     OW11837   1.093   0.474   4.733  0.0448  0.3888  0.3607
 2960SOL    HW111838   1.053   0.403   4.784 -2.0220  0.4686 -1.0068
 2960SOL    HW211839   1.187   0.458   4.738 -0.2884 -1.4954  1.4395
 2960SOL     MW11840   1.100   0.463   4.740 -0.2624  0.1578  0.3237
 2961SOL     OW11841   3.924   3.312   0.894 -0.4450  0.0401 -0.7831
 2961SOL    HW111842   3.949   3.285   0.983  0.4364 -0.8963 -1.3037
 2961SOL    HW211843   3.863   3.385   0.908  0.7861  0.8635  0.5791
 2961SOL     MW11844   3.919   3.318   0.907 -0.1746  0.0256 -0.6754
 2962SOL     OW11845   1.768   0.715   1.315  0.4380  0.0679  0.2313
 2962SOL    HW111846   1.752   0.783   1.381  1.1136  1.5410 -1.0670
 2962SOL    HW211847   1.841   0.749   1.263  1.4993 -2.1515  0.1755
 2962SOL     MW11848   1.775   0.728   1.317  0.6604 -0.0277  0.0579
 2963SOL     OW11849   4.015   2.298   2.498 -0.7816 -0.4034 -0.1742
 2963SOL    HW111850   4.094   2.286   2.446 -0.3323 -1.2364  0.6683
 2963SOL    HW211851   3.952   2.337   2.438  0.1612 -0.0416 -0.9483
 2963SOL     MW11852   4.017   2.302   2.484 -0.6034 -0.4637 -0.1655
 2964SOL     OW11853   4.344   5.104   5.002 -0.0587 -0.4431 -0.2027
 2964SOL    HW111854   4.411   5.060   5.054  0.8857 -0.0889 -1.0800
 2964SOL    HW211855   4.391   5.137   4.925 -1.5270 -1.5623 -1.6387
 2964SOL     MW11856   4.359   5.103   4.999 -0.1258 -0.5410 -0.4989
 2965SOL     OW11857   5.436   2.118   2.133 -0.8436 -0.0512  0.0019
 2965SOL    HW111858   5.396   2.144   2.216 -1.0920  0.0034 -0.1313
 2965SOL    HW211859   5.369   2.065   2.090  0.6570 -3.5089  1.5244
 2965SOL     MW11860   5.422   2.115   2.138 -0.6833 -0.4869  0.1797
 2966SOL     OW11861   3.222   0.743   2.765 -0.4005 -0.2265 -0.2871
 2966SOL    HW111862   3.261   0.828   2.743  0.0583 -0.3929 -0.1279
 2966SOL    HW211863   3.129   0.753   2.743  0.0274 -0.4060 -2.3634
 2966SOL     MW11864   3.215   0.755   2.760 -0.2870 -0.2708 -0.5325
 2967SOL     OW11865   4.979   3.278   0.364 -0.6272 -0.0694  0.4213
 2967SOL    HW111866   4.930   3.230   0.297  0.5892 -0.3405 -0.3003
 2967SOL    HW211867   4.934   3.362   0.372 -0.2102  0.3682 -1.4792
 2967SOL     MW11868   4.967   3.283   0.357 -0.4181 -0.0481  0.0856
 2968SOL     OW11869   0.976   1.092   3.726 -0.2786 -0.0307  0.4568
 2968SOL    HW111870   1.004   1.063   3.639 -0.3690 -0.2023  0.4861
 2968SOL    HW211871   1.056   1.126   3.766 -0.3772  0.7247  0.0368
 2968SOL     MW11872   0.990   1.093   3.720 -0.3028  0.0440  0.4068
 2969SOL     OW11873   2.247   2.663   0.249 -0.2087  0.6309 -0.0179
 2969SOL    HW111874   2.212   2.730   0.190  0.5000  1.6526  0.6711
 2969SOL    HW211875   2.339   2.688   0.261  0.5327 -1.4297 -1.0340
 2969SOL     MW11876   2.254   2.675   0.243 -0.0230  0.4979 -0.0598
 2970SOL     OW11877   3.917   3.910   3.724 -0.7371  0.0244 -0.2719
 2970SOL    HW111878   3.828   3.946   3.726 -0.7634  0.0519 -1.6042
 2970SOL    HW211879   3.965   3.970   3.667  0.3488  0.4369  1.0221
 2970SOL     MW11880   3.912   3.923   3.717 -0.6015  0.0808 -0.2768
 2971SOL     OW11881   0.787   4.897   3.870 -0.0899 -0.2174 -0.6128
 2971SOL    HW111882   0.786   4.810   3.830  1.6768  1.0952 -3.9334
 2971SOL    HW211883   0.857   4.892   3.935 -1.0134 -1.6183  0.3423
 2971SOL     MW11884   0.796   4.885   3.873  0.0180 -0.2287 -0.9156
 2972SOL     OW11885   2.662   5.302   2.000  0.5075  0.1283 -0.0467
 2972SOL    HW111886   2.634   5.370   2.061  0.9849  1.8199 -1.6219
 2972SOL    HW211887   2.718   5.347   1.937  1.7435 -1.9536 -0.5511
 2972SOL     MW11888   2.666   5.316   1.999  0.7268  0.0783 -0.3129
 2973SOL     OW11889   5.058   0.861   3.557 -0.1828  0.3787  0.5026
 2973SOL    HW111890   5.076   0.922   3.485  0.5408  0.0978  0.4337
 2973SOL    HW211891   4.968   0.880   3.583 -0.8553 -0.2722 -1.2218
 2973SOL     MW11892   5.049   0.872   3.551 -0.1763  0.2594  0.2730
 2974SOL     OW11893   0.255   0.588   1.582 -0.4563  0.4127  0.4210
 2974SOL    HW111894   0.180   0.638   1.611 -1.4566  0.4224 -1.9087
 2974SOL    HW211895   0.270   0.617   1.492  3.2117  1.3820  1.1575
 2974SOL     MW11896   0.248   0.598   1.574 -0.1148  0.5380  0.2170
 2975SOL     OW11897   3.951   3.817   0.170 -0.0666 -0.6082 -0.0154
 2975SOL    HW111898   3.893   3.864   0.111  1.4264  2.0202  0.4626
 2975SOL    HW211899   3.930   3.851   0.257  0.1260 -1.8899  0.5642
 2975SOL     MW11900   3.941   3.827   0.174  0.1492 -0.4358  0.1200
 2976SOL     OW11901   4.165   1.833   2.057  0.0345  0.0699 -0.3050
 2976SOL    HW111902   4.154   1.901   2.123  0.4796  0.3296 -0.4944
 2976SOL    HW211903   4.077   1.797   2.044  0.1735 -1.0676  1.5770
 2976SOL     MW11904   4.152   1.837   2.063  0.1093 -0.0424 -0.0883
 2977SOL     OW11905   0.248   0.477   3.587  0.0166  0.3878  0.4278
 2977SOL    HW111906   0.280   0.433   3.509 -1.2118  0.7324 -0.3067
 2977SOL    HW211907   0.301   0.442   3.659 -0.2512 -1.5347 -0.2558
 2977SOL     MW11908   0.259   0.467   3.586 -0.1749  0.1858  0.2463
 2978SOL     OW11909   5.139   3.093   0.515 -0.0870  0.4218  0.3746
 2978SOL    HW111910   5.179   3.066   0.432  0.6235  1.0862  0.4810
 2978SOL    HW211911   5.075   3.160   0.491  0.2659  0.7655  0.3639
 2978SOL     MW11912   5.136   3.099   0.501  0.0491  0.5509  0.3868
 2979SOL     OW11913   2.076   0.243   5.183 -0.3633  0.2358  0.1737
 2979SOL    HW111914   2.125   0.167   5.214 -2.5429 -0.6954  1.6151
 2979SOL    HW211915   2.071   0.301   5.260 -3.0951 -0.6212  0.7686
 2979SOL     MW11916   2.082   0.241   5.197 -0.9920  0.0069  0.4344
 2980SOL     OW11917   0.999   1.316   4.014 -0.1239  0.0607 -0.0273
 2980SOL    HW111918   1.020   1.227   3.984  1.7698  0.5580 -0.3121
 2980SOL    HW211919   1.044   1.325   4.098 -1.3928  0.3360  0.6538
 2980SOL     MW11920   1.008   1.306   4.021 -0.0440  0.1596  0.0234
 2981SOL     OW11921   4.725   1.513   3.684  0.6153  0.5381 -0.0153
 2981SOL    HW111922   4.819   1.498   3.673  0.7098  0.7399  0.4691
 2981SOL    HW211923   4.694   1.535   3.596  1.1278  1.0151 -0.0892
 2981SOL     MW11924   4.733   1.514   3.671  0.6930  0.6250  0.0373
 2982SOL     OW11925   0.516   1.845   1.418 -0.1756 -0.2428  0.4454
 2982SOL    HW111926   0.585   1.830   1.482 -1.0800  0.6776  1.6826
 2982SOL    HW211927   0.562   1.865   1.337  1.0244  1.1794  1.4353
 2982SOL     MW11928   0.530   1.846   1.416 -0.1377  0.0570  0.7305
 2983SOL     OW11929   0.147   4.947   2.572  0.2935 -0.1876  0.0576
 2983SOL    HW111930   0.052   4.954   2.564  0.2264 -0.4103  0.6522
 2983SOL    HW211931   0.181   5.016   2.515 -0.1561 -2.0764 -2.7572
 2983SOL     MW11932   0.139   4.957   2.563  0.2274 -0.4579 -0.2266
 2984SOL     OW11933   3.523   5.288   0.874  0.1162  0.0811  0.7831
 2984SOL    HW111934   3.461   5.356   0.847 -1.4047 -1.0060  1.3616
 2984SOL    HW211935   3.467   5.215   0.903  1.6815 -0.9170  1.4231
 2984SOL     MW11936   3.508   5.287   0.875  0.1219 -0.1858  0.9391
 2985SOL     OW11937   0.400   1.913   0.928  0.1551  0.3040 -0.8272
 2985SOL    HW111938   0.380   1.909   0.834 -0.6576 -0.6262 -0.6290
 2985SOL    HW211939   0.330   1.863   0.970  0.4243  0.8390  0.2995
 2985SOL     MW11940   0.389   1.906   0.921  0.0855  0.2534 -0.6576
 2986SOL     OW11941   2.118   2.981   4.060 -0.0323  0.0712 -0.0870
 2986SOL    HW111942   2.213   2.987   4.065 -0.0408  0.2323 -0.1251
 2986SOL    HW211943   2.100   2.888   4.043  0.0879 -0.1109  0.7277
 2986SOL     MW11944   2.128   2.970   4.059 -0.0180  0.0685  0.0125
 2987SOL     OW11945   0.592   3.317   3.617 -0.1352  0.0446 -0.1689
 2987SOL    HW111946   0.631   3.343   3.534 -0.1980  1.7380  0.3016
 2987SOL    HW211947   0.519   3.378   3.630 -1.0979 -1.1661  0.4086
 2987SOL     MW11948   0.587   3.328   3.608 -0.2665  0.1064 -0.0348
 2988SOL     OW11949   2.785   2.291   5.213 -0.1712 -0.2684 -0.1137
 2988SOL    HW111950   2.736   2.341   5.278  1.6053  0.7113  0.5143
 2988SOL    HW211951   2.851   2.244   5.263 -0.5025 -1.6805 -0.9363
 2988SOL     MW11952   2.787   2.291   5.228  0.0138 -0.3238 -0.1386
 2989SOL     OW11953   5.414   2.146   3.557  0.0470 -0.4157  0.4538
 2989SOL    HW111954   5.322   2.149   3.581 -0.3420 -1.6501 -0.6987
 2989SOL    HW211955   5.414   2.159   3.462  1.4006  3.2538  0.8077
 2989SOL     MW11956   5.402   2.148   3.548  0.1705 -0.1040  0.3515
 2990SOL     OW11957   2.869   3.426   4.355  0.2824  0.2448  0.4029
 2990SOL    HW111958   2.876   3.409   4.449 -1.1429  0.1086  0.5034
 2990SOL    HW211959   2.830   3.513   4.350 -0.5072 -0.1296 -0.0476
 2990SOL     MW11960   2.865   3.435   4.367 -0.0011  0.1794  0.3581
 2991SOL     OW11961   4.250   2.224   4.109  0.0602 -0.0862 -0.0148
 2991SOL    HW111962   4.340   2.197   4.089 -0.6226 -1.3133 -1.6609
 2991SOL    HW211963   4.226   2.281   4.036 -0.4952  0.2724  0.4439
 2991SOL     MW11964   4.259   2.228   4.097 -0.0983 -0.1974 -0.1668
 2992SOL     OW11965   2.547   0.568   3.093  0.2401 -0.2190  0.0439
 2992SOL    HW111966   2.559   0.661   3.070  0.8860  0.0726  1.4243
 2992SOL    HW211967   2.633   0.541   3.126 -0.1054 -1.1365  0.2032
 2992SOL     MW11968   2.559   0.577   3.095  0.2786 -0.2992  0.2410
 2993SOL     OW11969   2.690   0.228   0.792  0.1524 -0.6034  0.2801
 2993SOL    HW111970   2.659   0.161   0.730  1.6204  0.2040 -1.4163
 2993SOL    HW211971   2.610   0.262   0.831 -0.7917 -1.5922 -0.7029
 2993SOL     MW11972   2.676   0.224   0.789  0.2194 -0.6266 -0.0629
 2994SOL     OW11973   1.964   1.407   2.011  0.4229  0.3690 -0.2619
 2994SOL    HW111974   1.931   1.332   2.060 -0.1234  1.2660  0.7717
 2994SOL    HW211975   2.047   1.429   2.053  0.9153 -0.0613 -0.9916
 2994SOL     MW11976   1.971   1.400   2.023  0.4160  0.4288 -0.2230
 2995SOL     OW11977   3.667   4.787   5.484 -0.2321  0.4912  0.4542
 2995SOL    HW111978   3.700   4.742   5.562 -0.0791 -0.5534 -0.2000
 2995SOL    HW211979   3.691   4.730   5.411  0.1339  1.7266 -0.4299
 2995SOL     MW11980   3.675   4.774   5.485 -0.1657  0.5157  0.2573
 2996SOL     OW11981   4.301   1.746   0.946  0.5446  0.2477 -0.2819
 2996SOL    HW111982   4.357   1.706   1.012  2.0728 -0.4548 -1.9410
 2996SOL    HW211983   4.354   1.816   0.908 -0.3129  0.6474 -0.7808
 2996SOL     MW11984   4.315   1.750   0.949  0.6305  0.2090 -0.5581
 2997SOL     OW11985   2.946   4.440   4.924 -0.3368 -0.0154 -0.4109
 2997SOL    HW111986   3.029   4.486   4.906 -0.6426  0.7669  0.1120
 2997SOL    HW211987   2.961   4.397   5.008 -0.5207  0.2830 -0.2238
 2997SOL     MW11988   2.959   4.441   4.933 -0.3995  0.1229 -0.3200
 2998SOL     OW11989   2.068   0.651   3.937  0.0780 -0.5890  0.1567
 2998SOL    HW111990   2.149   0.608   3.909 -0.0571 -0.3419 -0.6292
 2998SOL    HW211991   1.998   0.599   3.898 -0.1138 -0.2130 -0.0025
 2998SOL     MW11992   2.070   0.639   3.928  0.0362 -0.5092  0.0357
 2999SOL     OW11993   2.099   5.134   3.217 -0.2016 -0.4723 -0.5512
 2999SOL    HW111994   2.035   5.102   3.152 -0.9246 -2.3980  1.0129
 2999SOL    HW211995   2.069   5.223   3.237 -0.9398 -0.4509 -1.6457
 2999SOL     MW11996   2.087   5.142   3.211 -0.3886 -0.7161 -0.4911
 3000SOL     OW11997   4.492   3.132   5.035  0.3271 -0.1244  0.1634
 3000SOL    HW111998   4.553   3.077   4.985  0.6234  0.4149 -0.0750
 3000SOL    HW211999   4.420   3.073   5.058 -0.0238 -0.2774 -1.2691
 3000SOL     MW12000   4.491   3.117   5.032  0.3201 -0.0749 -0.0505
 3001SOL     OW12001   3.706   0.396   5.437 -0.3036  0.4262 -0.4171
 3001SOL    HW112002   3.701   0.393   5.533  1.0908  2.3357 -0.2261
 3001SOL    HW212003   3.624   0.438   5.411 -1.4237 -1.5311 -0.2337
 3001SOL     MW12004   3.695   0.401   5.446 -0.2685  0.4201 -0.3692
 3002SOL     OW12005   2.163   5.033   0.655 -0.4254  0.2950  0.3742
 3002SOL    HW112006   2.166   4.939   0.633  0.1438  0.3630  0.1452
 3002SOL    HW212007   2.099   5.070   0.594 -0.8692  0.0078  0.6585
 3002SOL     MW12008   2.155   5.025   0.644 -0.4093  0.2669  0.3813
 3003SOL     OW12009   3.649   2.304   1.901  0.3168  0.5070 -0.5610
 3003SOL    HW112010   3.560   2.325   1.927  0.4572 -1.3656  1.8704
 3003SOL    HW212011   3.701   2.381   1.924 -0.5341  1.3316 -1.3442
 3003SOL     MW12012   3.645   2.316   1.907  0.2258  0.3728 -0.3500
 3004SOL     OW12013   1.320   3.254   1.185  0.2133 -0.5978 -0.2984
 3004SOL    HW112014   1.390   3.192   1.206  0.0645 -0.0510  2.0293
 3004SOL    HW212015   1.351   3.338   1.219 -0.9229 -0.0342 -0.6140
 3004SOL     MW12016   1.333   3.257   1.192  0.0488 -0.4557 -0.0408
 3005SOL     OW12017   3.454   0.937   3.905 -0.2843 -0.3350 -0.8620
 3005SOL    HW112018   3.508   0.912   3.830 -1.3340 -0.3863 -1.6299
 3005SOL    HW212019   3.516   0.964   3.972  0.7227 -1.4745 -1.3152
 3005SOL     MW12020   3.469   0.937   3.904 -0.2897 -0.4874 -1.0183
 3006SOL     OW12021   2.661   5.132   2.975  0.4206  0.3970 -0.3663
 3006SOL    HW112022   2.752   5.141   2.949  0.4891 -1.1731 -0.7389
 3006SOL    HW212023   2.650   5.197   3.045  2.4328 -0.8657  1.2363
 3006SOL     MW12024   2.671   5.142   2.980  0.6869  0.0344 -0.2089
 3007SOL     OW12025   2.893   0.601   1.153 -0.2662 -0.4318 -0.0253
 3007SOL    HW112026   2.933   0.583   1.069  1.3390  0.1554  0.5810
 3007SOL    HW212027   2.901   0.518   1.201  0.8936 -0.1279  0.3358
 3007SOL     MW12028   2.899   0.588   1.149  0.0878 -0.3177  0.0985
 3008SOL     OW12029   4.925   5.415   5.214  0.0838 -0.4896  0.3321
 3008SOL    HW112030   4.962   5.333   5.248  1.4373  0.2874  0.7720
 3008SOL    HW212031   4.902   5.465   5.292  2.8798  1.1565  0.2048
 3008SOL     MW12032   4.926   5.411   5.229  0.6150 -0.1794  0.3721
 3009SOL     OW12033   1.971   5.417   0.738 -0.1259 -0.5605  0.1351
 3009SOL    HW112034   1.886   5.378   0.718 -0.7823  0.8625  0.0507
 3009SOL    HW212035   1.977   5.414   0.834 -0.8111  0.4144  0.2152
 3009SOL     MW12036   1.961   5.412   0.748 -0.2976 -0.2535  0.1346
 3010SOL     OW12037   1.053   1.647   4.513 -0.1788 -0.5847 -0.1097
 3010SOL    HW112038   0.990   1.608   4.573 -0.3953 -0.6152 -0.3547
 3010SOL    HW212039   1.009   1.724   4.478  1.1069  1.3421  2.1830
 3010SOL     MW12040   1.040   1.652   4.516 -0.0419 -0.3419  0.1524
 3011SOL     OW12041   4.581   4.745   5.106  0.2450 -0.3441 -0.1889
 3011SOL    HW112042   4.670   4.753   5.073  0.2969 -1.8973 -0.5171
 3011SOL    HW212043   4.525   4.768   5.032  0.3684  0.1908 -0.1168
 3011SOL     MW12044   4.585   4.749   5.093  0.2674 -0.4745 -0.2217
 3012SOL     OW12045   2.374   3.619   0.579 -0.2215 -0.2176 -0.1924
 3012SOL    HW112046   2.376   3.670   0.660 -3.9188 -1.0812  0.6441
 3012SOL    HW212047   2.296   3.564   0.587  0.1985 -1.6022 -3.6445
 3012SOL     MW12048   2.364   3.618   0.590 -0.6410 -0.5054 -0.5272
 3013SOL     OW12049   4.021   0.138   2.914 -0.2429 -0.8644 -0.1008
 3013SOL    HW112050   4.041   0.065   2.854 -0.5052 -0.1838 -1.0433
 3013SOL    HW212051   4.106   0.163   2.950 -0.0558 -1.1964 -0.3016
 3013SOL     MW12052   4.034   0.131   2.911 -0.2525 -0.8198 -0.2471
 3014SOL     OW12053   0.391   1.991   0.666  0.1358 -0.1598  0.2871
 3014SOL    HW112054   0.445   2.053   0.617  0.1733 -1.8219 -1.9534
 3014SOL    HW212055   0.302   2.024   0.656  0.3199  0.3916  0.4595
 3014SOL     MW12056   0.387   2.003   0.658  0.1642 -0.3020  0.0223
 3015SOL     OW12057   0.667   2.216  -0.002 -0.5751  0.1677  0.2358
 3015SOL    HW112058   0.641   2.145   0.057  0.1136 -1.7549 -1.6582
 3015SOL    HW212059   0.585   2.242  -0.045 -0.7652  0.2932  0.6617
 3015SOL     MW12060   0.653   2.210  -0.000 -0.5113 -0.0624  0.0479
 3016SOL     OW12061   3.220   5.236   1.089 -0.4874 -0.6171 -0.0118
 3016SOL    HW112062   3.244   5.329   1.090  1.1548 -0.9963  0.9600
 3016SOL    HW212063   3.187   5.220   1.001 -1.2998  0.9982 -0.0331
 3016SOL     MW12064   3.219   5.246   1.078 -0.3812 -0.4589  0.1099
 3017SOL     OW12065   2.552   4.585   0.931 -0.9822 -0.1678  0.6925
 3017SOL    HW112066   2.561   4.541   1.015 -0.7675  0.7197  1.1435
 3017SOL    HW212067   2.639   4.579   0.891 -1.2824 -1.2924  0.1616
 3017SOL     MW12068   2.565   4.578   0.936 -0.9932 -0.1982  0.6823
 3018SOL     OW12069   3.757   0.872   5.389 -0.7859  0.0813  0.8436
 3018SOL    HW112070   3.761   0.906   5.300 -1.3829 -0.3692  0.6390
 3018SOL    HW212071   3.778   0.779   5.380  0.5446  0.3142  1.3572
 3018SOL     MW12072   3.760   0.864   5.376 -0.6920  0.0534  0.8831
 3019SOL     OW12073   3.884   3.979   5.379 -0.0722  0.6449 -0.2798
 3019SOL    HW112074   3.810   3.919   5.379 -0.7174  1.4102 -1.0034
 3019SOL    HW212075   3.865   4.041   5.309  0.5500  1.7140  0.4532
 3019SOL     MW12076   3.872   3.979   5.370 -0.0752  0.8797 -0.2786
 3020SOL     OW12077   4.211   5.185   0.364 -0.7714 -0.2019 -0.4817
 3020SOL    HW112078   4.136   5.147   0.409 -0.0323 -1.7112 -0.4752
 3020SOL    HW212079   4.250   5.113   0.316 -0.9204  1.1426 -2.7510
 3020SOL     MW12080   4.206   5.171   0.364 -0.6958 -0.2230 -0.7714
 3021SOL     OW12081   2.791   2.220   4.763  0.6255  0.0471  0.0857
 3021SOL    HW112082   2.712   2.174   4.791  0.3537 -0.2605 -1.1469
 3021SOL    HW212083   2.808   2.282   4.834 -1.2024  0.7089  0.0114
 3021SOL     MW12084   2.783   2.222   4.776  0.3568  0.0924 -0.0816
 3022SOL     OW12085   4.704   0.113   3.155 -0.0578 -0.5814 -0.2621
 3022SOL    HW112086   4.752   0.033   3.175  0.6597 -0.2496 -0.5969
 3022SOL    HW212087   4.755   0.182   3.196 -0.7650 -0.3117  0.1709
 3022SOL     MW12088   4.717   0.112   3.163 -0.0565 -0.5044 -0.2495
 3023SOL     OW12089   3.822   2.889   4.411  0.6484  0.8031  0.2954
 3023SOL    HW112090   3.758   2.845   4.355  0.0237  2.3670 -0.2745
 3023SOL    HW212091   3.836   2.828   4.483 -1.4164  0.3395  0.3854
 3023SOL     MW12092   3.815   2.875   4.413  0.3041  0.9439  0.2340
 3024SOL     OW12093   5.359   4.123   1.316  0.9245  0.4612  0.1700
 3024SOL    HW112094   5.270   4.109   1.346  0.8067 -0.2485 -0.4632
 3024SOL    HW212095   5.411   4.059   1.365  0.6739 -0.9834 -1.3250
 3024SOL     MW12096   5.354   4.113   1.326  0.8774  0.1854 -0.1025
 3025SOL     OW12097   4.412   0.748   0.798  0.2016  0.2770 -0.3598
 3025SOL    HW112098   4.344   0.814   0.788  0.8364  1.2366  1.1815
 3025SOL    HW212099   4.492   0.799   0.816  1.0368 -0.8592 -0.7371
 3025SOL     MW12100   4.414   0.763   0.799  0.3898  0.2544 -0.2108
 3026SOL     OW12101   4.348   3.892   1.956  0.5510  0.0087  0.2829
 3026SOL    HW112102   4.368   3.986   1.949 -0.4279  0.2574  0.7172
 3026SOL    HW212103   4.259   3.884   1.923  1.2084 -1.0481 -1.3520
 3026SOL     MW12104   4.339   3.903   1.951  0.5099 -0.0948  0.1292
 3027SOL     OW12105   5.428   0.892   4.885 -0.1067  0.2709  0.7252
 3027SOL    HW112106   5.465   0.980   4.895  0.0551  0.2340  0.4633
 3027SOL    HW212107   5.367   0.900   4.812  0.7476 -0.0943 -0.0434
 3027SOL     MW12108   5.425   0.905   4.877  0.0234  0.2194  0.5933
 3028SOL     OW12109   3.704   3.295   3.473 -0.1551  0.2387 -0.4235
 3028SOL    HW112110   3.785   3.298   3.524 -0.7932 -1.5511  0.8111
 3028SOL    HW212111   3.682   3.387   3.459  0.6854  0.8191  1.5787
 3028SOL     MW12112   3.711   3.307   3.478 -0.1292  0.0839 -0.0092
 3029SOL     OW12113   3.071   1.830   0.031 -0.1254  0.1713  0.2070
 3029SOL    HW112114   3.118   1.760  -0.013 -2.8518 -0.7895 -1.3937
 3029SOL    HW212115   3.085   1.813   0.124  3.5113  0.6442 -0.1055
 3029SOL     MW12116   3.079   1.819   0.037 -0.0089  0.1088 -0.0379
 3030SOL     OW12117   1.756   3.972   0.747 -0.0487  0.2269  0.1185
 3030SOL    HW112118   1.674   3.985   0.700  1.3017  0.1948 -2.3914
 3030SOL    HW212119   1.737   3.901   0.809 -1.5976 -0.6197 -1.2486
 3030SOL     MW12120   1.743   3.964   0.749 -0.0741  0.1144 -0.3778
 3031SOL     OW12121   3.753   1.462   4.658  0.1843  0.0190 -0.3015
 3031SOL    HW112122   3.658   1.468   4.663  0.0224  1.7923 -3.0919
 3031SOL    HW212123   3.771   1.370   4.641 -1.3163  0.0252 -2.2934
 3031SOL     MW12124   3.743   1.451   4.656 -0.0285  0.2468 -0.9137
 3032SOL     OW12125   5.348   2.052   2.733  0.3995 -0.5344 -0.2865
 3032SOL    HW112126   5.295   1.992   2.785 -1.5576  0.2013 -1.3204
 3032SOL    HW212127   5.371   2.123   2.794  0.1971 -0.8566  0.1692
 3032SOL     MW12128   5.344   2.054   2.748  0.1231 -0.4815 -0.3605
 3033SOL     OW12129   0.636   5.034   0.070 -0.3188 -0.6741 -1.1033
 3033SOL    HW112130   0.621   4.940   0.059 -1.7475 -0.4052 -1.7864
 3033SOL    HW212131   0.616   5.071  -0.016 -0.2506  0.2964 -0.7067
 3033SOL     MW12132   0.631   5.026   0.057 -0.4929 -0.5154 -1.1400
 3034SOL     OW12133   0.683   1.032   1.935  0.4171  0.1139  0.2206
 3034SOL    HW112134   0.714   1.017   1.846  0.4214 -0.6767  0.3423
 3034SOL    HW212135   0.647   1.120   1.934  0.5655  0.1712 -0.5193
 3034SOL     MW12136   0.683   1.041   1.924  0.4366  0.0200  0.1414
 3035SOL     OW12137   4.318   4.858   0.310  0.2053  0.6116 -0.3229
 3035SOL    HW112138   4.304   4.809   0.391 -0.9610  1.9514  0.3266
 3035SOL    HW212139   4.330   4.790   0.243 -1.7442 -0.5987  0.4691
 3035SOL     MW12140   4.318   4.843   0.312 -0.1936  0.6282 -0.1384
 3036SOL     OW12141   1.110   1.638   3.429  0.3287  0.7639 -0.1025
 3036SOL    HW112142   1.131   1.713   3.484  0.4745  0.2804  0.5185
 3036SOL    HW212143   1.015   1.632   3.430  0.3794 -0.3029  1.5865
 3036SOL     MW12144   1.101   1.647   3.436  0.3539  0.5654  0.1932
 3037SOL     OW12145   1.213   0.629   2.996 -0.4143 -0.0270  0.4521
 3037SOL    HW112146   1.143   0.566   3.014 -0.1658 -0.2846  0.5142
 3037SOL    HW212147   1.290   0.592   3.039 -0.4175  0.6392  1.0501
 3037SOL     MW12148   1.214   0.616   3.004 -0.3829  0.0253  0.5366
 3038SOL     OW12149   2.381   3.479   1.991 -0.2862  0.0316 -0.6310
 3038SOL    HW112150   2.302   3.500   2.041  0.6175  2.7881 -0.1676
 3038SOL    HW212151   2.369   3.524   1.907  0.4469 -0.1987 -0.8694
 3038SOL     MW12152   2.370   3.487   1.987 -0.0767  0.3550 -0.6022
 3039SOL     OW12153   2.773   2.348   0.621 -0.3707  0.3918  0.2290
 3039SOL    HW112154   2.768   2.440   0.645 -1.2674  0.4150  0.0115
 3039SOL    HW212155   2.692   2.310   0.655 -0.7664  0.0248 -1.0411
 3039SOL     MW12156   2.762   2.355   0.628 -0.5361  0.3478  0.0385
 3040SOL     OW12157   3.325   3.577   1.075  0.6463 -0.1238  0.2190
 3040SOL    HW112158   3.237   3.552   1.101  0.9867 -0.9956  0.5539
 3040SOL    HW212159   3.350   3.646   1.137  0.5745 -0.5686  0.7479
 3040SOL     MW12160   3.317   3.583   1.086  0.6807 -0.2924  0.3296
 3041SOL     OW12161   0.974   1.679   1.648 -0.3647 -0.2863 -0.0903
 3041SOL    HW112162   0.962   1.587   1.671 -2.2124 -0.3487 -1.1204
 3041SOL    HW212163   0.974   1.679   1.552 -0.1622  0.7606 -0.0939
 3041SOL     MW12164   0.973   1.667   1.639 -0.5753 -0.1603 -0.2226
 3042SOL     OW12165   0.758   5.432   2.023  0.0098  0.0724  0.4584
 3042SOL    HW112166   0.839   5.483   2.033  0.6857 -0.8977  0.0739
 3042SOL    HW212167   0.778   5.349   2.066 -0.4324 -0.5456 -0.5199
 3042SOL     MW12168   0.771   5.428   2.030  0.0397 -0.1309  0.2839
 3043SOL     OW12169   4.273   1.704   3.106 -0.5053 -0.0832  0.0143
 3043SOL    HW112170   4.273   1.731   3.198  0.3053 -0.7193  0.2171
 3043SOL    HW212171   4.180   1.703   3.081 -0.8259 -0.8892  1.1369
 3043SOL     MW12172   4.261   1.707   3.115 -0.4426 -0.2678  0.1839
 3044SOL     OW12173   5.266   1.913   0.467  0.0629 -0.2923 -0.1333
 3044SOL    HW112174   5.289   1.822   0.484  0.3964 -0.0151  1.0066
 3044SOL    HW212175   5.174   1.910   0.441  0.9829 -1.3068 -3.7820
 3044SOL     MW12176   5.257   1.901   0.466  0.2233 -0.3867 -0.4545
 3045SOL     OW12177   3.121   2.061   0.401  0.4135  0.1458 -0.0612
 3045SOL    HW112178   3.212   2.081   0.381  0.0550  0.6831 -1.2904
 3045SOL    HW212179   3.082   2.145   0.426  0.0454  0.1059 -0.4732
 3045SOL     MW12180   3.127   2.074   0.401  0.3205  0.2095 -0.2713
 3046SOL     OW12181   3.518   1.803   4.609  0.5108  0.0009  0.0041
 3046SOL    HW112182   3.549   1.713   4.616 -0.7490 -0.3523  1.7239
 3046SOL    HW212183   3.454   1.801   4.537  1.9815  0.0346 -1.3691
 3046SOL     MW12184   3.514   1.791   4.600  0.5378 -0.0400  0.0485
 3047SOL     OW12185   0.205   1.989   2.470  0.1595  0.3421  0.2588
 3047SOL    HW112186   0.166   1.952   2.390 -1.3432  3.3214 -0.5064
 3047SOL    HW212187   0.159   1.946   2.541  0.6654 -1.4865 -0.4581
 3047SOL     MW12188   0.194   1.979   2.469  0.0319  0.4894  0.0691
 3048SOL     OW12189   0.171   2.067   4.183  0.6363 -0.1318 -0.0457
 3048SOL    HW112190   0.264   2.085   4.194  0.1964  2.9288 -0.4099
 3048SOL    HW212191   0.127   2.125   4.246 -1.0633 -2.7749  1.4301
 3048SOL     MW12192   0.177   2.077   4.193  0.3624 -0.0784  0.0966
 3049SOL     OW12193   4.142   2.046   4.736 -0.3368 -0.1605 -0.1803
 3049SOL    HW112194   4.172   2.067   4.647  1.8048  0.0164  0.5279
 3049SOL    HW212195   4.126   1.952   4.735  0.7442 -0.3536 -0.4902
 3049SOL     MW12196   4.144   2.037   4.724  0.0757 -0.1625 -0.1293
 3050SOL     OW12197   4.554   3.510   0.433  0.0289 -0.0850  0.1690
 3050SOL    HW112198   4.580   3.597   0.463 -1.6082  0.0973  1.1845
 3050SOL    HW212199   4.553   3.516   0.338  0.2487  0.8924  0.2218
 3050SOL     MW12200   4.557   3.522   0.425 -0.1525  0.0635  0.3057
 3051SOL     OW12201   1.708   2.409   3.101  0.2419 -0.4958  0.0718
 3051SOL    HW112202   1.642   2.382   3.164  2.4421 -3.3296  1.4200
 3051SOL    HW212203   1.765   2.468   3.151 -0.1146  0.3004 -0.4543
 3051SOL     MW12204   1.707   2.413   3.116  0.4779 -0.7566  0.1771
 3052SOL     OW12205   3.537   2.594   0.180  0.7846  0.2592  0.0093
 3052SOL    HW112206   3.577   2.676   0.209  1.2730 -0.6829  2.1591
 3052SOL    HW212207   3.515   2.548   0.260 -2.0866 -0.5373 -1.0984
 3052SOL     MW12208   3.539   2.599   0.194  0.4796  0.0367  0.1427
 3053SOL     OW12209   4.336   2.425   4.292  0.0572 -0.1469  0.0986
 3053SOL    HW112210   4.431   2.418   4.280  0.0942  0.3657  0.0664
 3053SOL    HW212211   4.300   2.353   4.241  0.3321  0.7666 -1.4417
 3053SOL     MW12212   4.344   2.415   4.284  0.0971  0.0357 -0.1027
 3054SOL     OW12213   5.082   5.100   1.408  0.1094  0.5211 -0.1518
 3054SOL    HW112214   5.166   5.077   1.447 -0.0481 -2.4382 -1.3429
 3054SOL    HW212215   5.017   5.057   1.464 -0.4035  0.3328 -0.8796
 3054SOL     MW12216   5.084   5.092   1.420  0.0236  0.1181 -0.3974
 3055SOL     OW12217   4.873   1.334   1.224 -0.5242 -0.1772  0.3473
 3055SOL    HW112218   4.963   1.303   1.226 -0.0973  0.4936 -2.9287
 3055SOL    HW212219   4.874   1.412   1.280  1.1928  0.3820 -0.3897
 3055SOL     MW12220   4.885   1.340   1.232 -0.2497 -0.0198 -0.1664
 3056SOL     OW12221   4.466   5.294   3.877 -0.2185 -0.5419  0.2041
 3056SOL    HW112222   4.560   5.279   3.877 -0.1301 -0.0138  0.3334
 3056SOL    HW212223   4.437   5.266   3.964 -0.0273  0.1918  0.5106
 3056SOL     MW12224   4.474   5.288   3.888 -0.1827 -0.3804  0.2599
 3057SOL     OW12225   1.795   3.615   0.666  0.2242 -0.4327  0.3908
 3057SOL    HW112226   1.773   3.646   0.753 -2.0034  1.1425 -0.6292
 3057SOL    HW212227   1.778   3.520   0.669  1.9980 -0.7570  2.1071
 3057SOL     MW12228   1.790   3.607   0.677  0.1661 -0.2726  0.4799
 3058SOL     OW12229   0.845   1.069   3.953  0.2340 -0.4186 -0.0615
 3058SOL    HW112230   0.791   0.989   3.953  0.4449 -0.5620  0.0427
 3058SOL    HW212231   0.884   1.070   3.865 -1.0688  0.4577 -0.6528
 3058SOL     MW12232   0.843   1.059   3.941  0.0942 -0.3248 -0.1239
 3059SOL     OW12233   3.706   0.962   4.671  0.0289 -0.3609  0.2508
 3059SOL    HW112234   3.752   0.902   4.612  1.7671 -0.5240  1.6672
 3059SOL    HW212235   3.614   0.936   4.666 -0.0161  0.0409 -2.7919
 3059SOL     MW12236   3.700   0.951   4.663  0.2457 -0.3303  0.0426
 3060SOL     OW12237   5.184   0.877   2.159  0.4011  0.1955  0.1412
 3060SOL    HW112238   5.223   0.935   2.093  1.9605  0.3183  1.1316
 3060SOL    HW212239   5.091   0.873   2.135  0.2341  3.0306 -0.0222
 3060SOL     MW12240   5.177   0.884   2.147  0.5794  0.5741  0.2470
 3061SOL     OW12241   0.770   4.186   2.440 -0.1802  0.4997  0.0650
 3061SOL    HW112242   0.816   4.193   2.357  0.5395 -0.5062  0.3623
 3061SOL    HW212243   0.719   4.267   2.446 -0.1802  0.6141 -1.3012
 3061SOL     MW12244   0.770   4.197   2.430 -0.0881  0.3855 -0.0718
 3062SOL     OW12245   4.629   4.202   1.031  0.0353 -0.1951 -0.2170
 3062SOL    HW112246   4.672   4.144   1.095 -0.7408 -2.9556 -1.9954
 3062SOL    HW212247   4.546   4.225   1.072  1.4295  1.9200  1.5992
 3062SOL     MW12248   4.623   4.197   1.045  0.1145 -0.2777 -0.2121
 3063SOL     OW12249   1.954   5.254   1.285  0.0063  0.1534 -0.1733
 3063SOL    HW112250   1.976   5.250   1.192  0.8564  0.1075  0.0223
 3063SOL    HW212251   1.880   5.193   1.294  0.2878 -0.2825 -0.7172
 3063SOL     MW12252   1.947   5.246   1.274  0.1512  0.0917 -0.2179
 3064SOL     OW12253   0.637   2.435   3.356 -0.3851 -0.6599  0.4369
 3064SOL    HW112254   0.678   2.429   3.270  2.2557 -1.1639  1.6355
 3064SOL    HW212255   0.547   2.407   3.341  0.4068 -2.2807 -1.8837
 3064SOL     MW12256   0.631   2.431   3.343  0.0543 -0.9319  0.2933
 3065SOL     OW12257   4.379   1.333   4.794  0.3642  0.2228 -0.0996
 3065SOL    HW112258   4.435   1.395   4.748 -0.1204  0.6455 -0.1242
 3065SOL    HW212259   4.315   1.306   4.729  0.2834  0.0599  0.0477
 3065SOL     MW12260   4.378   1.337   4.780  0.2918  0.2560 -0.0839
 3066SOL     OW12261   2.264   5.364   1.039 -0.5460  0.7223  0.3746
 3066SOL    HW112262   2.309   5.282   1.056  0.4088  1.3496  0.9873
 3066SOL    HW212263   2.278   5.381   0.946  0.9913  1.1797  0.6651
 3066SOL     MW12264   2.271   5.356   1.029 -0.2270  0.8612  0.4902
 3067SOL     OW12265   2.184   4.206   2.446 -0.4807 -0.3437 -0.5215
 3067SOL    HW112266   2.129   4.171   2.516  1.1721 -1.9171  0.0504
 3067SOL    HW212267   2.239   4.271   2.489 -0.0924 -0.6550 -0.5456
 3067SOL     MW12268   2.184   4.210   2.460 -0.2194 -0.5850 -0.4514
 3068SOL     OW12269   1.198   4.091   0.075 -0.1030 -0.3900  0.8758
 3068SOL    HW112270   1.267   4.130   0.021  0.1456 -1.0185  0.7410
 3068SOL    HW212271   1.121   4.145   0.057  0.5130  0.7814  1.5795
 3068SOL     MW12272   1.197   4.103   0.066  0.0077 -0.3205  0.9486
 3069SOL     OW12273   2.535   1.346   4.576 -0.5660 -0.0342 -0.1998
 3069SOL    HW112274   2.599   1.278   4.553  1.1125  1.2263  0.4983
 3069SOL    HW212275   2.452   1.315   4.540  0.1468 -2.4084  0.0522
 3069SOL     MW12276   2.533   1.334   4.568 -0.2599 -0.1768 -0.0782
 3070SOL     OW12277   1.893   3.858   5.349  0.2026 -0.4116 -0.1091
 3070SOL    HW112278   1.928   3.924   5.290 -0.2159 -0.9492 -0.9798
 3070SOL    HW212279   1.970   3.817   5.389  0.5344 -0.7505 -1.0738
 3070SOL     MW12280   1.907   3.861   5.347  0.1915 -0.5238 -0.3440
 3071SOL     OW12281   0.030   0.555   1.119  0.3907  0.3453 -0.0008
 3071SOL    HW112282   0.031   0.651   1.122 -0.8237  0.3426  1.9405
 3071SOL    HW212283   0.028   0.528   1.211  3.9870 -1.6734 -0.3330
 3071SOL     MW12284   0.030   0.564   1.131  0.6956  0.0865  0.2052
 3072SOL     OW12285   4.067   2.515   0.775 -0.0291  0.0401  0.2672
 3072SOL    HW112286   4.074   2.587   0.711 -0.9117 -0.8088 -0.8368
 3072SOL    HW212287   4.142   2.458   0.755 -0.7413 -0.6313 -0.5736
 3072SOL     MW12288   4.078   2.517   0.764 -0.2332 -0.1545  0.0183
 3073SOL     OW12289   4.107   0.475   3.979 -0.1062  0.1524  0.2822
 3073SOL    HW112290   4.058   0.500   3.902 -0.1246  1.9596  0.8382
 3073SOL    HW212291   4.181   0.424   3.945 -0.0429  1.0236 -0.9297
 3073SOL     MW12292   4.111   0.471   3.965 -0.1004  0.4953  0.1983
 3074SOL     OW12293   4.199   2.788   2.072 -0.1210  0.1685 -0.0112
 3074SOL    HW112294   4.269   2.725   2.090 -0.7391 -0.5202  0.0571
 3074SOL    HW212295   4.118   2.739   2.091 -0.6489  0.6340 -0.9992
 3074SOL     MW12296   4.198   2.773   2.077 -0.2677  0.1399 -0.1289
 3075SOL     OW12297   0.556   3.057   3.616 -0.8257 -0.0345  0.0192
 3075SOL    HW112298   0.633   3.005   3.592  0.5047  1.2668  1.2551
 3075SOL    HW212299   0.588   3.147   3.617 -1.8074  0.3531  2.6163
 3075SOL     MW12300   0.570   3.062   3.613 -0.7811  0.1817  0.5099
 3076SOL     OW12301   4.145   0.109   3.629 -0.1261  0.3447  0.4596
 3076SOL    HW112302   4.223   0.132   3.679  0.1152  2.3588 -0.7226
 3076SOL    HW212303   4.077   0.167   3.663 -0.6492 -0.1324  0.2532
 3076SOL     MW12304   4.146   0.119   3.640 -0.1621  0.5415  0.2818
 3077SOL     OW12305   3.057   2.705   1.419  0.3588 -0.3353 -0.6960
 3077SOL    HW112306   3.145   2.729   1.447  0.5970 -0.7278 -1.1028
 3077SOL    HW212307   3.066   2.686   1.326 -0.1625 -0.3432 -0.7464
 3077SOL     MW12308   3.069   2.706   1.411  0.3226 -0.3866 -0.7545
 3078SOL     OW12309   3.168   3.589   0.804  0.0565  0.1417 -0.0148
 3078SOL    HW112310   3.208   3.621   0.884  1.1681  0.9873 -0.8854
 3078SOL    HW212311   3.217   3.510   0.782 -2.9944 -2.7493  2.4069
 3078SOL     MW12312   3.179   3.583   0.811 -0.1917 -0.1201  0.1837
 3079SOL     OW12313   4.248   1.570   2.171  0.4649  0.5944  0.0679
 3079SOL    HW112314   4.215   1.654   2.138 -1.7048 -0.7184 -1.3392
 3079SOL    HW212315   4.274   1.522   2.093 -0.2108 -0.7910  0.6579
 3079SOL     MW12316   4.247   1.574   2.157  0.1007  0.2490 -0.0367
 3080SOL     OW12317   3.797   2.983   1.101 -0.1096  0.0830  0.1958
 3080SOL    HW112318   3.814   3.060   1.047 -1.2020  0.1357 -0.1065
 3080SOL    HW212319   3.716   3.003   1.148 -2.5719 -2.2138 -2.6445
 3080SOL     MW12320   3.789   2.995   1.100 -0.5646 -0.2042 -0.2065
 3081SOL     OW12321   2.917   3.536   3.889  0.6283  0.1137 -0.2686
 3081SOL    HW112322   2.946   3.521   3.979  1.3758  0.7347 -0.3933
 3081SOL    HW212323   2.944   3.457   3.842 -0.4306 -0.5373  0.1939
 3081SOL     MW12324   2.924   3.524   3.894  0.5884  0.1098 -0.2254
 3082SOL     OW12325   0.951   0.203   3.784  0.2810 -0.0274 -0.0998
 3082SOL    HW112326   0.973   0.295   3.769 -1.3340  0.1236 -1.8002
 3082SOL    HW212327   0.963   0.191   3.879  0.0009  2.0740  0.2489
 3082SOL     MW12328   0.956   0.213   3.794  0.0384  0.2609 -0.2728
 3083SOL     OW12329   0.353   0.406   1.232  0.2810  0.0009  0.4828
 3083SOL    HW112330   0.291   0.342   1.197  1.8547 -0.6905 -1.2304
 3083SOL    HW212331   0.315   0.433   1.316 -2.3188 -0.3131 -0.5023
 3083SOL     MW12332   0.340   0.401   1.238  0.1496 -0.1278  0.1374
 3084SOL     OW12333   0.476   2.209   0.862  0.1023 -0.7129  0.0961
 3084SOL    HW112334   0.546   2.227   0.800 -0.4790  1.1999 -0.0465
 3084SOL    HW212335   0.478   2.114   0.873  2.6329 -0.7225  0.0142
 3084SOL     MW12336   0.485   2.199   0.856  0.3518 -0.4693  0.0674
 3085SOL     OW12337   3.297   0.476   2.653  0.0199 -0.2244 -0.1173
 3085SOL    HW112338   3.238   0.530   2.705  0.3157  1.4569 -1.4471
 3085SOL    HW212339   3.246   0.451   2.576  1.1309  1.7389 -1.5730
 3085SOL     MW12340   3.283   0.480   2.650  0.2000  0.2422 -0.4738
 3086SOL     OW12341   3.327   4.401   4.330  0.3022 -0.1834 -0.7758
 3086SOL    HW112342   3.274   4.412   4.251 -0.0342 -0.8475 -0.6452
 3086SOL    HW212343   3.299   4.472   4.388 -0.6630 -0.6937 -0.5943
 3086SOL     MW12344   3.317   4.412   4.328  0.1356 -0.3337 -0.7358
 3087SOL     OW12345   4.768   4.436   2.790  0.3562  0.0039 -0.8010
 3087SOL    HW112346   4.744   4.388   2.711 -2.6055 -1.3642  0.7676
 3087SOL    HW212347   4.694   4.425   2.848  1.7659  2.2406  1.6525
 3087SOL     MW12348   4.756   4.429   2.787  0.1575  0.1151 -0.2861
 3088SOL     OW12349   1.124   5.424   0.119 -0.4621 -0.0738  0.2733
 3088SOL    HW112350   1.088   5.388   0.200 -4.4590  0.4676 -1.0527
 3088SOL    HW212351   1.189   5.360   0.091 -0.9136 -1.6156  2.5173
 3088SOL     MW12352   1.128   5.411   0.126 -1.0315 -0.2019  0.3908
 3089SOL     OW12353   0.961   1.099   3.126  0.4162 -0.3124  0.4251
 3089SOL    HW112354   0.924   1.128   3.210 -0.1574 -0.6102  0.2833
 3089SOL    HW212355   0.889   1.110   3.064 -0.4739 -3.7200  0.6691
 3089SOL     MW12356   0.947   1.104   3.128  0.2288 -0.7867  0.4382
 3090SOL     OW12357   3.840   4.729   1.063  0.3615  0.2770  0.4286
 3090SOL    HW112358   3.762   4.760   1.108  0.6536  1.7073 -0.0148
 3090SOL    HW212359   3.881   4.808   1.028  2.8482 -0.2288  1.9433
 3090SOL     MW12360   3.836   4.743   1.064  0.7172  0.3954  0.5657
 3091SOL     OW12361   4.193   3.075   4.597 -0.2604  0.3980  0.2319
 3091SOL    HW112362   4.284   3.050   4.581 -0.9604 -1.9024 -0.5350
 3091SOL    HW212363   4.158   3.095   4.510 -1.0600 -0.9010  0.2457
 3091SOL     MW12364   4.201   3.075   4.584 -0.4524 -0.0628  0.1355
 3092SOL     OW12365   2.024   2.383   5.078 -0.1985  0.3388  0.7296
 3092SOL    HW112366   2.045   2.441   5.005  0.6359 -0.6683  0.1444
 3092SOL    HW212367   1.967   2.436   5.135  0.5407  1.7263  0.2313
 3092SOL     MW12368   2.019   2.398   5.076  0.0030  0.3875  0.5909
 3093SOL     OW12369   3.914   4.776   5.200  0.2319  0.3153 -0.3497
 3093SOL    HW112370   3.908   4.787   5.105  0.7797  0.2871 -0.3904
 3093SOL    HW212371   4.002   4.806   5.222  0.5395 -0.7944 -0.0057
 3093SOL     MW12372   3.924   4.781   5.191  0.3414  0.1696 -0.3109
 3094SOL     OW12373   1.523   0.700   3.521 -0.2398  0.0450 -0.2438
 3094SOL    HW112374   1.499   0.664   3.607 -1.0811 -0.2728 -0.6034
 3094SOL    HW212375   1.610   0.739   3.535  0.1245 -0.9880  0.4728
 3094SOL     MW12376   1.531   0.701   3.534 -0.3009 -0.1279 -0.1981
 3095SOL     OW12377   0.474   2.288   3.026  0.1971 -0.2373  0.5396
 3095SOL    HW112378   0.495   2.196   3.008 -0.1378 -0.2681  0.2889
 3095SOL    HW212379   0.559   2.332   3.030  0.3055 -0.1703 -1.4373
 3095SOL     MW12380   0.487   2.282   3.024  0.1681 -0.2327  0.2544
 3096SOL     OW12381   2.020   4.011   0.266  0.0921  0.3340  0.4231
 3096SOL    HW112382   2.076   4.001   0.188  0.4633  0.8466  0.6188
 3096SOL    HW212383   1.933   3.984   0.237  0.9119 -3.1939  0.8136
 3096SOL     MW12384   2.016   4.006   0.252  0.2446 -0.0520  0.4981
 3097SOL     OW12385   2.016   0.338   3.768  0.4520 -0.5649 -0.4715
 3097SOL    HW112386   2.059   0.423   3.761 -0.1411 -0.0698  1.3224
 3097SOL    HW212387   2.067   0.289   3.833  0.2468 -1.2384 -0.8009
 3097SOL     MW12388   2.028   0.342   3.776  0.3498 -0.5877 -0.2841
 3098SOL     OW12389   0.437   5.348   0.332  0.3212  0.3752 -0.0771
 3098SOL    HW112390   0.495   5.273   0.344 -0.5431 -0.1032  1.3387
 3098SOL    HW212391   0.477   5.418   0.384  0.2494  0.3995 -0.0538
 3098SOL     MW12392   0.450   5.348   0.340  0.2013  0.3171  0.1071
 3099SOL     OW12393   3.007   1.816   2.013 -0.0669  0.2290  0.1149
 3099SOL    HW112394   3.035   1.746   2.072 -1.6850 -0.4521  0.1117
 3099SOL    HW212395   3.065   1.808   1.937  0.4605 -0.4061  0.5747
 3099SOL     MW12396   3.018   1.806   2.011 -0.2065  0.0605  0.1734
 3100SOL     OW12397   1.687   1.825   3.511 -0.9330  0.2574  0.4448
 3100SOL    HW112398   1.685   1.767   3.435 -2.2539  0.1496  0.5386
 3100SOL    HW212399   1.759   1.885   3.493 -0.2969 -0.6707 -0.2072
 3100SOL     MW12400   1.696   1.826   3.499 -1.0206  0.1248  0.3734
 3101SOL     OW12401   2.807   4.182   4.856  0.2548 -0.3775  0.2934
 3101SOL    HW112402   2.853   4.264   4.836  0.5846 -0.5850  0.1913
 3101SOL    HW212403   2.720   4.194   4.817  1.0235 -0.9492 -1.7245
 3101SOL     MW12404   2.802   4.194   4.848  0.3954 -0.4773  0.0220
 3102SOL     OW12405   3.095   2.455   3.227 -0.7286  0.0260  0.2912
 3102SOL    HW112406   3.178   2.414   3.251 -0.9001  0.9923  2.8563
 3102SOL    HW212407   3.065   2.406   3.151  1.5698 -1.1500  0.0545
 3102SOL     MW12408   3.102   2.444   3.220 -0.4563 -0.0009  0.5893
 3103SOL     OW12409   5.060   5.317   3.039  0.0194 -0.0546 -0.1488
 3103SOL    HW112410   5.110   5.277   3.111  1.8396 -2.4096 -2.5227
 3103SOL    HW212411   5.120   5.381   3.001  0.5475 -1.3838 -1.6941
 3103SOL     MW12412   5.074   5.320   3.044  0.3200 -0.5262 -0.6505
 3104SOL     OW12413   4.403   3.233   0.956 -0.2939  0.1994 -0.2487
 3104SOL    HW112414   4.337   3.272   1.012  0.0476 -0.9731  1.0308
 3104SOL    HW212415   4.442   3.163   1.009 -1.3410 -2.3535 -2.5931
 3104SOL     MW12416   4.400   3.229   0.970 -0.3842 -0.2775 -0.3850
 3105SOL     OW12417   1.147   3.806   2.871 -0.0436  0.4174 -0.4479
 3105SOL    HW112418   1.064   3.846   2.893  0.3701  1.9141 -1.4237
 3105SOL    HW212419   1.165   3.745   2.943 -1.3385  1.0160  0.4153
 3105SOL     MW12420   1.139   3.803   2.883 -0.1564  0.6856 -0.4623
 3106SOL     OW12421   0.364   3.757   5.122  0.1069  0.2364  0.3318
 3106SOL    HW112422   0.401   3.670   5.106  1.3020  0.6110  0.9309
 3106SOL    HW212423   0.309   3.746   5.199 -0.6393 -0.2136 -0.2485
 3106SOL     MW12424   0.362   3.744   5.129  0.1643  0.2267  0.3342
 3107SOL     OW12425   4.914   1.844   4.769 -0.2801 -0.2635  0.0887
 3107SOL    HW112426   4.830   1.816   4.806 -1.7489  1.2551 -1.8995
 3107SOL    HW212427   4.935   1.925   4.816  0.3556 -0.8833  0.9080
 3107SOL     MW12428   4.906   1.851   4.780 -0.3867 -0.1485 -0.0609
 3108SOL     OW12429   2.016   3.242   0.370  0.1760  0.5825 -0.2337
 3108SOL    HW112430   1.975   3.301   0.433 -1.9835  0.0776 -1.0731
 3108SOL    HW212431   1.951   3.232   0.300  1.0851 -1.5490 -0.8725
 3108SOL     MW12432   2.002   3.248   0.369  0.0159  0.2450 -0.4229
 3109SOL     OW12433   4.472   1.469   0.241  0.0828 -0.2998  0.3123
 3109SOL    HW112434   4.412   1.455   0.167  0.7457  2.1115 -0.7912
 3109SOL    HW212435   4.447   1.402   0.305 -1.7802 -1.2738 -1.3138
 3109SOL     MW12436   4.461   1.459   0.240 -0.0708 -0.1158 -0.0371
 3110SOL     OW12437   4.688   4.910   3.723 -0.1607 -0.4594  0.0682
 3110SOL    HW112438   4.694   5.005   3.714 -2.6440 -0.1550  0.8078
 3110SOL    HW212439   4.668   4.878   3.635  1.7222 -0.4586 -0.3950
 3110SOL     MW12440   4.686   4.918   3.711 -0.2376 -0.4204  0.1036
 3111SOL     OW12441   2.615   0.694   1.729  0.0276 -0.2110 -0.1167
 3111SOL    HW112442   2.672   0.684   1.652  0.6357 -1.1871  0.4456
 3111SOL    HW212443   2.531   0.721   1.692  0.3130 -0.6474 -1.1310
 3111SOL     MW12444   2.611   0.696   1.714  0.1420 -0.3918 -0.1745
 3112SOL     OW12445   2.135   1.083   3.073 -0.2560  0.0426  0.0095
 3112SOL    HW112446   2.086   1.067   3.154  0.4357 -0.0527  0.4159
 3112SOL    HW212447   2.119   1.006   3.020  0.3431 -0.4951  0.5922
 3112SOL     MW12448   2.127   1.071   3.077 -0.0907 -0.0385  0.1361
 3113SOL     OW12449   4.888   0.699   1.138  0.7904 -0.0793 -0.5630
 3113SOL    HW112450   4.879   0.681   1.044  2.4033  0.8454 -0.9441
 3113SOL    HW212451   4.948   0.631   1.169  2.9379  1.5151 -0.9675
 3113SOL     MW12452   4.895   0.688   1.130  1.2718  0.2432 -0.6636
 3114SOL     OW12453   1.014   2.527   3.281 -0.4781 -0.2085  0.4969
 3114SOL    HW112454   0.958   2.521   3.204 -0.1508  0.1545  0.2307
 3114SOL    HW212455   1.049   2.438   3.292 -2.1315 -0.7741  1.4490
 3114SOL     MW12456   1.011   2.515   3.273 -0.6479 -0.2344  0.5847
 3115SOL     OW12457   3.377   4.836   4.625  0.0874 -0.1987  0.3096
 3115SOL    HW112458   3.314   4.853   4.555  1.9653  1.6521 -1.0283
 3115SOL    HW212459   3.372   4.914   4.680 -1.4521 -1.6731  2.4496
 3115SOL     MW12460   3.368   4.848   4.623  0.1307 -0.1505  0.4123
 3116SOL     OW12461   4.527   0.348   3.319  0.6033 -0.1257  0.3210
 3116SOL    HW112462   4.466   0.379   3.386  1.5451 -0.1968  1.2359
 3116SOL    HW212463   4.611   0.386   3.343  0.9113  0.0728 -0.9909
 3116SOL     MW12464   4.530   0.357   3.331  0.7633 -0.1094  0.2702
 3117SOL     OW12465   2.591   2.713   4.379  0.4507 -0.1375  0.3932
 3117SOL    HW112466   2.529   2.669   4.321  0.6944  1.1412 -0.9046
 3117SOL    HW212467   2.647   2.764   4.320  2.9234 -1.3960  1.4645
 3117SOL     MW12468   2.591   2.714   4.364  0.7985 -0.1349  0.3642
 3118SOL     OW12469   5.251   0.366   0.896 -0.3066 -0.5565 -0.4664
 3118SOL    HW112470   5.297   0.315   0.962  0.0274  1.0026  0.5555
 3118SOL    HW212471   5.159   0.365   0.925 -0.2932 -0.5584 -0.4243
 3118SOL     MW12472   5.245   0.360   0.908 -0.2622 -0.3572 -0.3302
 3119SOL     OW12473   3.401   4.707   1.100 -0.1340 -0.0267  0.2361
 3119SOL    HW112474   3.341   4.692   1.173 -0.9662 -0.1717 -0.4552
 3119SOL    HW212475   3.472   4.759   1.138  0.0364 -1.0693  1.4042
 3119SOL     MW12476   3.402   4.712   1.114 -0.2187 -0.1787  0.2971
 3120SOL     OW12477   4.991   1.126   5.243  0.0643  0.2588  0.0499
 3120SOL    HW112478   4.946   1.209   5.232 -1.9519 -0.8407 -0.3860
 3120SOL    HW212479   5.020   1.102   5.155 -0.0613  0.1144  0.0479
 3120SOL     MW12480   4.989   1.133   5.231 -0.2099  0.0995 -0.0061
 3121SOL     OW12481   2.340   4.351   2.596 -0.2137 -0.2651 -0.0224
 3121SOL    HW112482   2.390   4.272   2.618  0.9555  0.1096 -1.2308
 3121SOL    HW212483   2.394   4.397   2.532  0.2525  2.7178  2.2810
 3121SOL     MW12484   2.353   4.347   2.591 -0.0044  0.1647  0.1178
 3122SOL     OW12485   3.082   0.774   3.730 -0.1144  0.0357  0.1251
 3122SOL    HW112486   3.166   0.798   3.691 -0.0684  1.8777  1.1992
 3122SOL    HW212487   3.027   0.749   3.657  1.1711 -0.6190 -0.6594
 3122SOL     MW12488   3.086   0.774   3.716  0.0561  0.1877  0.1622
 3123SOL     OW12489   1.130   2.621   4.679 -0.2044 -0.5855 -0.5790
 3123SOL    HW112490   1.167   2.703   4.647 -0.9034  0.9321  2.2468
 3123SOL    HW212491   1.206   2.569   4.704  0.1848 -0.2115 -0.9633
 3123SOL     MW12492   1.145   2.625   4.678 -0.2441 -0.3434 -0.2665
 3124SOL     OW12493   2.663   0.897   1.892  0.0331 -0.7843  0.3237
 3124SOL    HW112494   2.656   0.837   1.818 -0.8175 -0.1099 -0.1652
 3124SOL    HW212495   2.756   0.918   1.897 -0.0579  0.2706 -1.4896
 3124SOL     MW12496   2.674   0.892   1.883 -0.0874 -0.5629  0.0290
 3125SOL     OW12497   2.540   3.658   3.547  0.2673  0.0460  0.0225
 3125SOL    HW112498   2.604   3.666   3.618 -1.3738 -0.4330  1.6152
 3125SOL    HW212499   2.523   3.564   3.541 -2.3582  0.3106  1.6323
 3125SOL     MW12500   2.546   3.647   3.555 -0.2789  0.0186  0.4324
 3126SOL     OW12501   4.597   0.146   0.638  0.5861 -0.5779  1.1670
 3126SOL    HW112502   4.655   0.216   0.667 -2.4406  3.5985 -1.7019
 3126SOL    HW212503   4.514   0.163   0.683 -1.0165 -0.4834 -1.5992
 3126SOL     MW12504   4.594   0.157   0.648 -0.0065 -0.0312  0.4457
 3127SOL     OW12505   5.031   1.736   5.361  0.2113 -0.0374  0.1222
 3127SOL    HW112506   4.939   1.744   5.385  0.4304  0.5011  0.8283
 3127SOL    HW212507   5.060   1.656   5.406  0.5038  0.7205  1.3480
 3127SOL     MW12508   5.023   1.727   5.370  0.2768  0.1286  0.3695
 3128SOL     OW12509   2.768   5.260   3.521 -0.6479  0.1508 -0.0247
 3128SOL    HW112510   2.723   5.212   3.452 -0.7958 -1.4468  1.1411
 3128SOL    HW212511   2.796   5.193   3.583  0.9302  1.3846  0.6575
 3128SOL     MW12512   2.766   5.246   3.521 -0.4648  0.1042  0.2118
 3129SOL     OW12513   1.342   3.919   2.742  0.1428 -0.0026 -0.2307
 3129SOL    HW112514   1.282   3.876   2.803 -0.3522 -0.3019 -0.9122
 3129SOL    HW212515   1.296   3.917   2.658  2.0081 -2.2667 -1.2921
 3129SOL     MW12516   1.329   3.913   2.739  0.3182 -0.3308 -0.4538
 3130SOL     OW12517   4.496   4.593   3.763 -0.4137  0.0892  0.2285
 3130SOL    HW112518   4.561   4.645   3.810 -0.1077  0.5904 -0.7137
 3130SOL    HW212519   4.480   4.517   3.819 -1.5445  1.6206  2.0671
 3130SOL     MW12520   4.503   4.590   3.776 -0.5193  0.3494  0.3432
 3131SOL     OW12521   0.450   2.901   4.058 -0.0570  0.4301  0.1520
 3131SOL    HW112522   0.390   2.843   4.105  0.5283  0.8929  1.5181
 3131SOL    HW212523   0.524   2.845   4.033 -0.2281  0.2468  0.0570
 3131SOL     MW12524   0.452   2.886   4.061 -0.0040  0.4659  0.3147
 3132SOL     OW12525   3.382   1.533   1.445 -0.2059 -0.7732  0.5834
 3132SOL    HW112526   3.290   1.514   1.425 -0.1267 -0.0030 -0.5829
 3132SOL    HW212527   3.432   1.470   1.393 -0.0463 -0.5322  0.4439
 3132SOL     MW12528   3.377   1.522   1.436 -0.1753 -0.6438  0.4163
 3133SOL     OW12529   3.874   4.368   4.598  0.2077 -0.0338 -0.3589
 3133SOL    HW112530   3.877   4.292   4.540  2.0304 -1.2064  1.1649
 3133SOL    HW212531   3.880   4.332   4.686  0.5370  1.8495  0.4492
 3133SOL     MW12532   3.875   4.354   4.601  0.4832  0.0572 -0.0604
 3134SOL     OW12533   0.933   3.714   5.342 -0.2569 -0.0646 -0.4055
 3134SOL    HW112534   0.875   3.677   5.276  1.2803 -0.6850 -1.4710
 3134SOL    HW212535   0.988   3.776   5.294  0.4523 -0.0514  0.4011
 3134SOL     MW12536   0.933   3.717   5.327  0.0307 -0.1423 -0.4387
 3135SOL     OW12537   0.094   0.420   4.846  0.7233  0.5831  0.0799
 3135SOL    HW112538   0.183   0.431   4.811  0.9477 -0.7233  0.1950
 3135SOL    HW212539   0.065   0.336   4.812  0.3002  0.0555  1.6527
 3135SOL     MW12540   0.102   0.411   4.837  0.6979  0.3483  0.2960
 3136SOL     OW12541   2.667   1.516   5.058  0.4422  0.3551 -0.1119
 3136SOL    HW112542   2.590   1.523   5.114  0.8698  0.2140  0.5026
 3136SOL    HW212543   2.720   1.593   5.080  0.3888  0.5547 -0.6668
 3136SOL     MW12544   2.664   1.527   5.068  0.4901  0.3626 -0.1043
 3137SOL     OW12545   3.299   1.855   2.263  0.0888  0.3699  0.8544
 3137SOL    HW112546   3.343   1.932   2.225  0.5390  0.0182  0.6555
 3137SOL    HW212547   3.329   1.854   2.354  1.7520 -0.7505  0.3384
 3137SOL     MW12548   3.309   1.865   2.270  0.3593  0.1815  0.7629
 3138SOL     OW12549   0.725   2.330   4.443  0.4887 -0.6449  0.1305
 3138SOL    HW112550   0.811   2.361   4.473  0.3668  0.5723 -0.7052
 3138SOL    HW212551   0.731   2.235   4.448  1.2373 -0.5577  1.8727
 3138SOL     MW12552   0.737   2.322   4.448  0.5689 -0.4779  0.2465
 3139SOL     OW12553   3.795   2.461   4.926  0.6566 -0.8404  0.0071
 3139SOL    HW112554   3.845   2.427   4.851  0.3075  1.2269 -1.2541
 3139SOL    HW212555   3.860   2.510   4.977  0.0259  2.2588 -1.8897
 3139SOL     MW12556   3.810   2.463   4.923  0.5312 -0.1790 -0.3971
 3140SOL     OW12557   2.764   5.420   1.758  0.0329 -0.0635  0.3958
 3140SOL    HW112558   2.719   5.496   1.720  1.1179 -0.1718 -1.2039
 3140SOL    HW212559   2.721   5.345   1.718 -1.2164 -0.3599  2.1757
 3140SOL     MW12560   2.753   5.420   1.748  0.0119 -0.1153  0.4189
 3141SOL     OW12561   1.190  -0.000   1.523  0.0596 -0.6622  0.2453
 3141SOL    HW112562   1.126   0.025   1.589  2.1549  1.9039  1.4494
 3141SOL    HW212563   1.154   0.035   1.441 -0.5655 -0.1886  0.7096
 3141SOL     MW12564   1.177   0.007   1.521  0.2478 -0.2731  0.4589
 3142SOL     OW12565   1.335   0.871   2.930  0.1774 -0.2059 -0.4048
 3142SOL    HW112566   1.425   0.894   2.954  0.0096 -0.6826  0.7270
 3142SOL    HW212567   1.323   0.782   2.965 -0.9060  0.0599 -0.0854
 3142SOL     MW12568   1.345   0.862   2.937  0.0173 -0.2329 -0.2190
 3143SOL     OW12569   4.990   3.332   2.140 -0.1119 -0.0296 -0.1025
 3143SOL    HW112570   4.978   3.330   2.045 -0.9883  0.6565 -0.0192
 3143SOL    HW212571   4.983   3.241   2.167 -0.9908 -0.1128 -0.5765
 3143SOL     MW12572   4.987   3.320   2.131 -0.3366  0.0476 -0.1525
 3144SOL     OW12573   3.297   3.323   0.758  0.0045 -0.1442 -0.2195
 3144SOL    HW112574   3.221   3.275   0.790  0.0861  0.5253  1.0544
 3144SOL    HW212575   3.280   3.336   0.665 -1.7953  0.6201  0.1691
 3144SOL     MW12576   3.285   3.319   0.750 -0.2154  0.0393 -0.0067
 3145SOL     OW12577   4.561   3.317   0.133  0.3297 -0.1985 -0.3287
 3145SOL    HW112578   4.598   3.279   0.053 -0.4185 -1.4946 -0.0799
 3145SOL    HW212579   4.469   3.290   0.132  0.3129 -0.2268  0.9719
 3145SOL     MW12580   4.554   3.309   0.123  0.2318 -0.3680 -0.1304
 3146SOL     OW12581   1.008   2.794   3.355  0.2652 -0.4751 -0.4257
 3146SOL    HW112582   1.001   2.701   3.334 -0.4038 -0.3534 -0.7473
 3146SOL    HW212583   1.009   2.838   3.270  2.9015 -0.3095 -0.4041
 3146SOL     MW12584   1.008   2.788   3.341  0.5170 -0.4383 -0.4641
 3147SOL     OW12585   4.647   1.121   4.857 -0.0775  0.4644 -0.2042
 3147SOL    HW112586   4.668   1.208   4.891  0.2789  0.6538 -0.8911
 3147SOL    HW212587   4.702   1.111   4.779  0.0941 -0.4888  0.0182
 3147SOL     MW12588   4.656   1.131   4.852 -0.0099  0.3666 -0.2637
 3148SOL     OW12589   3.285   4.187   2.606  0.2910  0.2893  0.3323
 3148SOL    HW112590   3.222   4.163   2.674 -0.2212 -0.0911 -0.2713
 3148SOL    HW212591   3.304   4.279   2.622 -2.3825  1.1436 -1.0304
 3148SOL     MW12592   3.280   4.196   2.617 -0.1168  0.3499  0.0806
 3149SOL     OW12593   2.205   4.524   1.086  0.0838 -0.3908  0.1859
 3149SOL    HW112594   2.269   4.468   1.042  0.9836 -0.3186  1.3518
 3149SOL    HW212595   2.214   4.502   1.179  0.5003  1.6882  0.6894
 3149SOL     MW12596   2.215   4.514   1.093  0.2523 -0.1154  0.3996
 3150SOL     OW12597   4.230   2.199   3.095 -0.2216  0.6702 -0.2599
 3150SOL    HW112598   4.288   2.131   3.061 -0.0370  1.2680 -1.1958
 3150SOL    HW212599   4.272   2.230   3.175  0.1563  0.3049 -0.3143
 3150SOL     MW12600   4.242   2.194   3.101 -0.1496  0.6999 -0.3867
 3151SOL     OW12601   4.858   1.767   3.050  0.0795 -0.7759 -0.2628
 3151SOL    HW112602   4.860   1.721   3.134 -1.4840  0.0795  0.2666
 3151SOL    HW212603   4.792   1.721   2.998 -1.2470  0.6211  0.1468
 3151SOL     MW12604   4.850   1.755   3.054 -0.2905 -0.4876 -0.1426
 3152SOL     OW12605   3.794   1.831   3.860 -0.0485 -0.6435  0.1750
 3152SOL    HW112606   3.777   1.750   3.907  0.1510 -0.6528  0.2279
 3152SOL    HW212607   3.710   1.878   3.864 -0.2065 -0.9068  0.0240
 3152SOL     MW12608   3.781   1.827   3.866 -0.0432 -0.6784  0.1624
 3153SOL     OW12609   1.888   2.812   3.388  0.0061  0.2021  0.2732
 3153SOL    HW112610   1.898   2.732   3.337 -0.5673 -0.2013  0.7803
 3153SOL    HW212611   1.825   2.865   3.340  0.7959  0.5949 -0.3476
 3153SOL     MW12612   1.881   2.809   3.375  0.0338  0.2007  0.2587
 3154SOL     OW12613   1.408   4.459   2.503 -0.0677 -0.2266 -0.0830
 3154SOL    HW112614   1.340   4.448   2.436 -0.4371  0.8087  0.0883
 3154SOL    HW212615   1.466   4.384   2.492 -0.1330 -0.0989 -1.5420
 3154SOL     MW12616   1.406   4.448   2.493 -0.1233 -0.0778 -0.2479
 3155SOL     OW12617   5.066   1.097   3.399  0.4989  0.3055 -0.3907
 3155SOL    HW112618   4.971   1.110   3.390  0.8491  2.9460 -1.2254
 3155SOL    HW212619   5.087   1.135   3.484  0.6260 -1.9408  0.6489
 3155SOL     MW12620   5.057   1.103   3.409  0.5600  0.3560 -0.3645
 3156SOL     OW12621   0.324   4.681   0.085  0.0234  0.1456  0.2325
 3156SOL    HW112622   0.239   4.669   0.043 -0.8168  1.3164  1.5133
 3156SOL    HW212623   0.303   4.706   0.175  1.7020  0.9580  0.4378
 3156SOL     MW12624   0.310   4.683   0.091  0.1308  0.3995  0.4228
 3157SOL     OW12625   0.210   1.190   2.199 -0.3130  0.0180  0.2526
 3157SOL    HW112626   0.254   1.188   2.284  1.5298  0.6221 -0.6245
 3157SOL    HW212627   0.204   1.098   2.173 -2.4736 -0.3358  1.7381
 3157SOL     MW12628   0.215   1.178   2.207 -0.3536  0.0500  0.3305
 3158SOL     OW12629   2.649   2.571   3.328  0.2372  0.5852  0.1953
 3158SOL    HW112630   2.585   2.565   3.258  0.6895 -0.7942 -0.1369
 3158SOL    HW212631   2.634   2.493   3.381  0.6846  0.9983  0.9510
 3158SOL     MW12632   2.639   2.560   3.326  0.3524  0.4615  0.2495
 3159SOL     OW12633   2.595   3.902   2.374  0.3354 -0.1851  0.1974
 3159SOL    HW112634   2.502   3.923   2.384  0.1934 -0.6185 -0.1595
 3159SOL    HW212635   2.641   3.973   2.419 -0.1706 -0.0094  0.4425
 3159SOL     MW12636   2.589   3.914   2.381  0.2524 -0.2181  0.1831
 3160SOL     OW12637   2.717   5.398   3.173  0.5601  0.3484  0.4630
 3160SOL    HW112638   2.625   5.423   3.170  0.5475  0.2257 -1.7436
 3160SOL    HW212639   2.725   5.342   3.250 -1.6105 -1.1400 -0.3266
 3160SOL     MW12640   2.706   5.394   3.183  0.2806  0.1422  0.0795
 3161SOL     OW12641   2.746   3.649   1.800  0.1862  0.5156  0.6523
 3161SOL    HW112642   2.747   3.630   1.706 -0.2839 -1.8942  1.0866
 3161SOL    HW212643   2.656   3.676   1.819 -0.0093 -0.1132  0.6133
 3161SOL     MW12644   2.735   3.650   1.791  0.1010  0.1266  0.7029
 3162SOL     OW12645   0.680   2.632   0.067  0.2351 -0.2740  0.0506
 3162SOL    HW112646   0.773   2.652   0.056  0.0150  0.5777 -0.3987
 3162SOL    HW212647   0.648   2.701   0.126 -0.7047  1.2205 -2.1030
 3162SOL     MW12648   0.688   2.644   0.073  0.0866  0.0263 -0.2826
 3163SOL     OW12649   1.369   0.886   3.610 -0.6312  0.0547 -0.6698
 3163SOL    HW112650   1.418   0.816   3.568 -0.9353  0.2688 -1.4013
 3163SOL    HW212651   1.293   0.843   3.648  0.0207 -0.2525  0.3210
 3163SOL     MW12652   1.366   0.872   3.609 -0.5867  0.0428 -0.6366
 3164SOL     OW12653   4.113   5.175   5.298 -0.6900  0.0625  0.2108
 3164SOL    HW112654   4.038   5.178   5.239  0.6465  1.2529 -1.5429
 3164SOL    HW212655   4.076   5.189   5.385 -2.7817 -2.1097 -0.2341
 3164SOL     MW12656   4.099   5.178   5.302 -0.7867 -0.0632 -0.0707
 3165SOL     OW12657   3.018   3.332   1.585  0.3224  0.0516  0.0062
 3165SOL    HW112658   2.957   3.399   1.553 -0.0550  0.0919  0.7848
 3165SOL    HW212659   3.101   3.377   1.594  0.3576  0.1156 -0.6141
 3165SOL     MW12660   3.020   3.346   1.582  0.2786  0.0650  0.0265
 3166SOL     OW12661   1.898   3.040   2.298 -0.2045 -0.2852  0.0517
 3166SOL    HW112662   1.852   3.123   2.282  1.9679  0.4141 -3.4757
 3166SOL    HW212663   1.984   3.067   2.332  0.0413 -1.1837  0.1590
 3166SOL     MW12664   1.903   3.054   2.301  0.1051 -0.3107 -0.3861
 3167SOL     OW12665   0.047   5.027   3.466 -0.6352 -0.5982 -0.5204
 3167SOL    HW112666   0.007   5.022   3.379 -0.5249 -1.3840 -0.5298
 3167SOL    HW212667   0.084   4.940   3.481 -0.4575 -0.4043  0.2234
 3167SOL     MW12668   0.047   5.015   3.457 -0.5983 -0.6740 -0.4264
 3168SOL     OW12669   4.220   4.229   2.826 -0.5803 -0.6617 -0.3858
 3168SOL    HW112670   4.275   4.295   2.785  1.8588 -2.4318 -0.2331
 3168SOL    HW212671   4.131   4.263   2.818  0.5879  3.1876  0.8406
 3168SOL     MW12672   4.216   4.241   2.820 -0.1185 -0.3955 -0.2093
 3169SOL     OW12673   0.431   0.617   2.017  0.1271  0.7844 -0.4175
 3169SOL    HW112674   0.454   0.619   1.924  0.0077 -0.8150 -0.5084
 3169SOL    HW212675   0.335   0.624   2.018  0.0446 -0.2907 -0.4823
 3169SOL     MW12676   0.422   0.618   2.005  0.1012  0.4420 -0.4374
 3170SOL     OW12677   2.983   3.958   2.102  0.5812  0.1708 -0.0957
 3170SOL    HW112678   2.926   3.886   2.131 -0.3365  1.5782  1.8221
 3170SOL    HW212679   3.062   3.949   2.156  0.6793  0.2994 -0.2199
 3170SOL     MW12680   2.986   3.947   2.113  0.4763  0.3675  0.1339
 3171SOL     OW12681   1.345   5.248   1.353 -0.1916  0.7372  0.1248
 3171SOL    HW112682   1.362   5.185   1.283  2.2560  0.4547  0.8974
 3171SOL    HW212683   1.249   5.249   1.361 -0.3783 -3.1725  0.3213
 3171SOL     MW12684   1.335   5.241   1.345  0.0978  0.2006  0.2488
 3172SOL     OW12685   3.646   0.455   3.286 -0.3233  0.0357  0.2589
 3172SOL    HW112686   3.607   0.534   3.250  0.2926 -0.0033 -0.5184
 3172SOL    HW212687   3.582   0.386   3.269 -0.4484  0.1924  0.0959
 3172SOL     MW12688   3.633   0.456   3.280 -0.2605  0.0508  0.1385
 3173SOL     OW12689   5.127   0.430   3.799 -0.2035 -0.0135  0.5998
 3173SOL    HW112690   5.099   0.418   3.890  2.2732  2.0535  1.7765
 3173SOL    HW212691   5.124   0.525   3.786 -0.9174 -0.3063 -1.6574
 3173SOL     MW12692   5.123   0.441   3.809  0.0222  0.2136  0.4615
 3174SOL     OW12693   1.348   1.456   2.016  0.4083  0.4749 -0.6955
 3174SOL    HW112694   1.281   1.517   2.047 -0.8534 -0.7213 -0.9480
 3174SOL    HW212695   1.391   1.502   1.944 -1.5538  0.5366 -1.9056
 3174SOL     MW12696   1.345   1.470   2.011 -0.0044  0.3296 -0.8828
 3175SOL     OW12697   0.103   2.245   2.519 -0.0386  1.3176 -0.0465
 3175SOL    HW112698   0.014   2.234   2.487 -0.1414  1.2260  0.2611
 3175SOL    HW212699   0.148   2.164   2.495 -0.4477  0.7225  1.0972
 3175SOL     MW12700   0.098   2.233   2.512 -0.1041  1.2297  0.1393
 3176SOL     OW12701   3.405   1.051   1.664 -0.0632 -0.3326 -0.4147
 3176SOL    HW112702   3.407   0.955   1.665  0.5790 -0.3220  0.1653
 3176SOL    HW212703   3.403   1.076   1.756  1.4025  0.2173 -0.4991
 3176SOL     MW12704   3.405   1.042   1.676  0.2066 -0.2609 -0.3512
 3177SOL     OW12705   0.444   0.811   4.167  0.4136  0.3106  0.0568
 3177SOL    HW112706   0.444   0.906   4.157 -0.3866  0.5747  2.0640
 3177SOL    HW212707   0.380   0.780   4.103 -0.2946  1.2700  0.2737
 3177SOL     MW12708   0.436   0.819   4.158  0.2205  0.4673  0.3416
 3178SOL     OW12709   3.168   3.484   4.772  0.5559  0.3064 -0.4318
 3178SOL    HW112710   3.246   3.504   4.720 -0.6638 -0.1878 -2.5648
 3178SOL    HW212711   3.173   3.390   4.788 -0.0047  0.1231 -1.2977
 3178SOL     MW12712   3.179   3.475   4.767  0.3280  0.2197 -0.8157
 3179SOL     OW12713   3.759   3.616   1.154 -0.7753  0.1005 -0.4391
 3179SOL    HW112714   3.680   3.619   1.208 -0.1299 -0.7952  0.6023
 3179SOL    HW212715   3.730   3.574   1.072 -1.0659 -1.7542  0.5680
 3179SOL     MW12716   3.745   3.611   1.150 -0.7299 -0.2516 -0.1768
 3180SOL     OW12717   0.815   0.630   2.074 -0.3660 -0.1235  0.2018
 3180SOL    HW112718   0.828   0.700   2.010 -0.9454  0.1548  0.3748
 3180SOL    HW212719   0.732   0.589   2.047 -0.2973 -0.3969  0.4112
 3180SOL     MW12720   0.806   0.634   2.062 -0.4314 -0.1229  0.2507
 3181SOL     OW12721   3.984   1.793   4.750 -0.4914 -0.6718  0.4886
 3181SOL    HW112722   3.891   1.803   4.773 -0.4131  0.5778  0.3637
 3181SOL    HW212723   3.995   1.699   4.734 -1.3762 -1.0571  1.9868
 3181SOL     MW12724   3.973   1.782   4.751 -0.5946 -0.5612  0.6644
 3182SOL     OW12725   2.143   5.100   1.880  0.2227  0.4669 -0.0309
 3182SOL    HW112726   2.229   5.101   1.839 -0.5117 -0.6407 -1.7453
 3182SOL    HW212727   2.086   5.058   1.815 -1.5688  0.9680  1.1296
 3182SOL     MW12728   2.147   5.095   1.866 -0.1007  0.3892 -0.1018
 3183SOL     OW12729   4.551   4.378   3.384 -0.6635 -0.0089  0.0564
 3183SOL    HW112730   4.473   4.342   3.426 -0.3247 -0.9785 -0.1214
 3183SOL    HW212731   4.518   4.447   3.327 -1.4883 -1.0156 -0.7077
 3183SOL     MW12732   4.537   4.382   3.382 -0.7257 -0.2619 -0.0642
 3184SOL     OW12733   0.948   4.081   5.423  0.1349  0.3466 -0.4738
 3184SOL    HW112734   1.018   4.110   5.364  0.1848  1.0065 -0.1040
 3184SOL    HW212735   0.937   3.988   5.403  0.2062  0.5379 -1.4550
 3184SOL     MW12736   0.956   4.073   5.413  0.1504  0.4555 -0.5521
 3185SOL     OW12737   2.367   3.724   3.760  0.1970  0.6289 -0.0685
 3185SOL    HW112738   2.440   3.778   3.791  0.7664 -0.3296  0.2916
 3185SOL    HW212739   2.395   3.693   3.674  0.2470  0.2131  0.0952
 3185SOL     MW12740   2.380   3.727   3.753  0.2763  0.4530 -0.0015
 3186SOL     OW12741   2.886   2.968   4.027 -0.9690  0.3525 -0.6547
 3186SOL    HW112742   2.958   2.941   3.971 -0.4753  0.8672 -0.2748
 3186SOL    HW212743   2.860   3.053   3.993  0.6636  1.6337  1.0905
 3186SOL     MW12744   2.892   2.975   4.016 -0.6968  0.5824 -0.3827
 3187SOL     OW12745   4.212   5.019   3.487  0.0411  0.0107  0.1799
 3187SOL    HW112746   4.177   5.098   3.529  0.2982  0.2412 -0.0331
 3187SOL    HW212747   4.220   4.956   3.558  0.3968  0.3735  0.4700
 3187SOL     MW12748   4.209   5.021   3.502  0.1196  0.0867  0.1898
 3188SOL     OW12749   4.217   2.182   2.307  0.2363  0.4089  0.8070
 3188SOL    HW112750   4.309   2.190   2.281 -0.2802 -0.7977 -1.7232
 3188SOL    HW212751   4.203   2.088   2.318 -0.7437  0.5648  0.9537
 3188SOL     MW12752   4.227   2.171   2.305  0.0447  0.2744  0.5019
 3189SOL     OW12753   4.070   5.259   1.873  0.4127 -0.0460 -0.0188
 3189SOL    HW112754   4.026   5.186   1.917  0.8862 -0.8744 -0.8908
 3189SOL    HW212755   4.003   5.297   1.817  0.9876 -1.9985 -2.2052
 3189SOL     MW12756   4.056   5.254   1.872  0.5469 -0.4020 -0.4103
 3190SOL     OW12757   4.633   2.631   5.110  0.3749  0.4000 -0.4909
 3190SOL    HW112758   4.631   2.724   5.132 -0.8456  0.4179 -0.6230
 3190SOL    HW212759   4.649   2.587   5.194  2.3256  0.7510 -0.6187
 3190SOL     MW12760   4.635   2.637   5.124  0.4684  0.4472 -0.5242
 3191SOL     OW12761   1.392   5.359   3.911  0.3981  0.1733 -0.1178
 3191SOL    HW112762   1.307   5.328   3.944  0.6439  1.1093  1.5262
 3191SOL    HW212763   1.425   5.286   3.858 -0.1484 -1.4202  1.6012
 3191SOL     MW12764   1.385   5.346   3.909  0.3596  0.0891  0.3127
 3192SOL     OW12765   0.585   0.402   0.345  0.5013  0.1529 -0.7106
 3192SOL    HW112766   0.678   0.417   0.361  1.4229 -3.0146 -2.2386
 3192SOL    HW212767   0.546   0.396   0.432  1.4028  2.7533 -0.0363
 3192SOL     MW12768   0.592   0.403   0.358  0.7347  0.0803 -0.8199
 3193SOL     OW12769   0.153   3.321   3.433 -0.1496 -0.6052  0.0799
 3193SOL    HW112770   0.152   3.417   3.431 -3.8889 -0.4242  1.8496
 3193SOL    HW212771   0.200   3.300   3.514  0.4454 -0.3014 -0.1731
 3193SOL     MW12772   0.159   3.331   3.443 -0.5521 -0.5431  0.2741
 3194SOL     OW12773   0.757   3.575   4.690  0.1805 -0.1651 -0.1729
 3194SOL    HW112774   0.678   3.592   4.742  0.7856  1.4284  0.2547
 3194SOL    HW212775   0.773   3.481   4.702  0.0000  0.0329  2.1156
 3194SOL     MW12776   0.749   3.565   4.698  0.2349  0.0642  0.1748
 3195SOL     OW12777   1.103   5.364   4.412  0.1011 -0.2708 -0.0382
 3195SOL    HW112778   1.115   5.337   4.503 -0.8479  1.2268  0.5758
 3195SOL    HW212779   1.133   5.455   4.410 -0.3592 -0.1238 -1.0882
 3195SOL     MW12780   1.108   5.372   4.423 -0.0793 -0.0602 -0.0940
 3196SOL     OW12781   3.892   2.790   3.027 -0.4306 -0.0185  1.0569
 3196SOL    HW112782   3.946   2.807   3.104 -0.9588 -1.1251  1.6982
 3196SOL    HW212783   3.946   2.819   2.954  0.0934  1.0334  1.8337
 3196SOL     MW12784   3.906   2.796   3.028 -0.4311 -0.0255  1.2384
 3197SOL     OW12785   1.892   3.116   1.863 -0.1982 -0.3113 -0.0038
 3197SOL    HW112786   1.808   3.072   1.875  0.5110 -2.0428 -1.0519
 3197SOL    HW212787   1.948   3.078   1.931 -0.1073  0.5060  0.3971
 3197SOL     MW12788   1.888   3.105   1.873 -0.0958 -0.4283 -0.0867
 3198SOL     OW12789   1.261   1.379   3.740  0.0346 -0.1936 -1.0325
 3198SOL    HW112790   1.236   1.289   3.761 -0.2802  0.3926  1.4958
 3198SOL    HW212791   1.177   1.425   3.732  0.1972  0.2399 -0.3270
 3198SOL     MW12792   1.247   1.373   3.742  0.0151 -0.0630 -0.6185
 3199SOL     OW12793   1.375   5.066   1.138  0.3316 -0.1996 -0.0828
 3199SOL    HW112794   1.301   5.090   1.082 -1.4129 -0.4525  2.0155
 3199SOL    HW212795   1.384   4.971   1.127 -0.4436 -0.3513  0.5551
 3199SOL     MW12796   1.367   5.057   1.129  0.0091 -0.2514  0.2675
 3200SOL     OW12797   4.617   2.891   4.381  0.0492  0.4658  0.0282
 3200SOL    HW112798   4.596   2.887   4.474  0.2180 -1.2410  0.0390
 3200SOL    HW212799   4.536   2.920   4.340 -0.2628  0.4852  0.6451
 3200SOL     MW12800   4.604   2.894   4.388  0.0309  0.2498  0.1086
 3201SOL     OW12801   0.623   0.639   4.610  0.0644  0.0039 -0.3618
 3201SOL    HW112802   0.716   0.652   4.591 -0.0416  1.0674 -0.1889
 3201SOL    HW212803   0.586   0.727   4.613 -0.8307 -0.3768  0.1992
 3201SOL     MW12804   0.630   0.652   4.608 -0.0637  0.0913 -0.2679
 3202SOL     OW12805   3.877   3.716   2.240 -0.2737  0.0285 -0.6592
 3202SOL    HW112806   3.901   3.789   2.184 -0.1913 -0.2216 -0.9517
 3202SOL    HW212807   3.840   3.651   2.181 -0.2957 -0.1913 -0.4080
 3202SOL     MW12808   3.875   3.717   2.226 -0.2659 -0.0316 -0.6645
 3203SOL     OW12809   3.539   0.121   0.118 -0.2354 -0.0467  0.6081
 3203SOL    HW112810   3.627   0.140   0.086 -1.0563  2.6068 -0.3669
 3203SOL    HW212811   3.542   0.146   0.210  0.0543  0.0572  0.5736
 3203SOL     MW12812   3.551   0.127   0.126 -0.3034  0.3063  0.4789
 3204SOL     OW12813   0.585   3.887   5.444  0.3765  0.1274  0.1153
 3204SOL    HW112814   0.605   3.856   5.356 -0.6928 -1.8135  0.4945
 3204SOL    HW212815   0.532   3.966   5.430  0.7881  0.2290 -0.9614
 3204SOL     MW12816   0.581   3.894   5.431  0.2923 -0.1081  0.0260
 3205SOL     OW12817   5.352   2.569   4.981 -1.0143 -0.2957  0.8014
 3205SOL    HW112818   5.413   2.600   4.913 -0.4987 -0.4574  1.1848
 3205SOL    HW212819   5.271   2.617   4.964  0.6633  4.0818  3.4346
 3205SOL     MW12820   5.350   2.579   4.970 -0.7335  0.2440  1.1875
 3206SOL     OW12821   2.520   1.295   5.363  0.6522 -0.6462  0.2420
 3206SOL    HW112822   2.579   1.249   5.304  0.6004 -0.7434  0.2657
 3206SOL    HW212823   2.502   1.378   5.319  1.5236 -0.2302  0.6601
 3206SOL     MW12824   2.525   1.300   5.350  0.7571 -0.6054  0.2986
 3207SOL     OW12825   0.638   1.557   2.089 -0.1819  0.8254 -0.6887
 3207SOL    HW112826   0.542   1.556   2.090 -0.2765  1.2093 -2.8909
 3207SOL    HW212827   0.663   1.467   2.109 -1.0344  0.5598 -0.7722
 3207SOL     MW12828   0.629   1.545   2.091 -0.3032  0.8405 -0.9813
 3208SOL     OW12829   3.237   5.492   2.177  0.1819 -0.5208  0.5382
 3208SOL    HW112830   3.329   5.488   2.152  0.2751  0.6869  0.6505
 3208SOL    HW212831   3.197   5.416   2.134  1.0465 -0.5317 -0.2761
 3208SOL     MW12832   3.243   5.482   2.168  0.3045 -0.3676  0.4483
 3209SOL     OW12833   5.206   0.645   1.181  0.0640 -0.1280  0.0313
 3209SOL    HW112834   5.266   0.648   1.107  1.2026 -1.3687  0.8477
 3209SOL    HW212835   5.178   0.554   1.186  1.1407 -0.4283  1.9310
 3209SOL     MW12836   5.210   0.634   1.172  0.3476 -0.3252  0.3790
 3210SOL     OW12837   3.285   2.087   1.823  0.4966  0.3748 -0.0142
 3210SOL    HW112838   3.258   2.167   1.778 -0.6246 -0.3458 -0.6753
 3210SOL    HW212839   3.260   2.102   1.914 -1.1059  0.2240 -0.3913
 3210SOL     MW12840   3.278   2.099   1.829  0.1479  0.2632 -0.1471
 3211SOL     OW12841   1.857   0.799   5.471  0.2562 -0.2914 -0.3072
 3211SOL    HW112842   1.787   0.739   5.446  1.3492 -1.7605  0.0292
 3211SOL    HW212843   1.825   0.885   5.446 -1.5485 -0.9585 -0.4009
 3211SOL     MW12844   1.844   0.802   5.465  0.1651 -0.5648 -0.2761
 3212SOL     OW12845   3.694   4.955   2.380 -0.3814  0.2093  0.2353
 3212SOL    HW112846   3.705   5.028   2.319  1.4089  0.2120  0.4884
 3212SOL    HW212847   3.768   4.898   2.362 -1.2598 -1.0973  0.6743
 3212SOL     MW12848   3.705   4.957   2.370 -0.2647  0.0424  0.3239
 3213SOL     OW12849   3.779   1.604   4.037 -0.1491  0.2363 -0.3750
 3213SOL    HW112850   3.686   1.590   4.057 -0.4252  3.1520  0.9455
 3213SOL    HW212851   3.826   1.542   4.093 -1.2675  0.6363  1.0760
 3213SOL     MW12852   3.773   1.594   4.047 -0.3276  0.6608 -0.0202
 3214SOL     OW12853   2.039   4.526   0.339 -0.4903  0.6262  0.5648
 3214SOL    HW112854   2.114   4.587   0.344 -0.6211  0.9006 -0.5411
 3214SOL    HW212855   2.061   4.457   0.402  0.0390  1.3985  1.2675
 3214SOL     MW12856   2.052   4.525   0.348 -0.4393  0.7602  0.5132
 3215SOL     OW12857   0.641   4.735   5.290  0.2002  0.5312  0.1250
 3215SOL    HW112858   0.568   4.784   5.251  1.8277  1.7383 -1.5676
 3215SOL    HW212859   0.635   4.754   5.384 -2.6829 -0.8845  0.3568
 3215SOL     MW12860   0.631   4.744   5.297  0.0394  0.5045 -0.0620
 3216SOL     OW12861   2.856   3.410   3.098  0.3651  0.3603  1.4311
 3216SOL    HW112862   2.942   3.421   3.139  0.6684  4.3610  0.1682
 3216SOL    HW212863   2.843   3.491   3.048 -3.3951 -0.8611  0.0977
 3216SOL     MW12864   2.865   3.421   3.097 -0.0775  0.7161  1.0987
 3217SOL     OW12865   2.934   0.757   2.129  0.6428 -0.1251  0.0978
 3217SOL    HW112866   2.960   0.689   2.191 -2.2113 -2.5963 -1.1805
 3217SOL    HW212867   2.938   0.714   2.044 -0.8828  1.4104 -0.7975
 3217SOL     MW12868   2.938   0.743   2.126  0.0821 -0.2449 -0.1804
 3218SOL     OW12869   5.261   3.838   1.549 -0.1847 -0.4662 -0.4454
 3218SOL    HW112870   5.350   3.866   1.528  0.5624 -1.4221  1.2506
 3218SOL    HW212871   5.220   3.915   1.589 -0.4409  0.2474 -2.0295
 3218SOL     MW12872   5.267   3.851   1.552 -0.1218 -0.4972 -0.4311
 3219SOL     OW12873   0.387   0.288   3.783  0.3942 -0.3117 -0.3172
 3219SOL    HW112874   0.338   0.240   3.849  0.4619 -0.6018 -0.4742
 3219SOL    HW212875   0.475   0.250   3.786  0.3991 -0.3261 -0.5687
 3219SOL     MW12876   0.392   0.277   3.792  0.4035 -0.3507 -0.3695
 3220SOL     OW12877   5.326   4.939   1.738  0.2647  0.1077 -0.0301
 3220SOL    HW112878   5.284   4.853   1.736 -0.2659  0.3464  0.7652
 3220SOL    HW212879   5.403   4.928   1.795  0.0061  0.2422  0.3478
 3220SOL     MW12880   5.331   4.927   1.745  0.1637  0.1555  0.1201
 3221SOL     OW12881   3.572   1.547   3.559 -0.4269 -0.3899  0.1183
 3221SOL    HW112882   3.662   1.581   3.564 -0.4449 -0.5092  2.4348
 3221SOL    HW212883   3.522   1.617   3.517  0.4045  0.5118  0.5799
 3221SOL     MW12884   3.577   1.560   3.554 -0.3228 -0.2897  0.4739
 3222SOL     OW12885   3.241   0.762   4.460 -0.1952 -0.0590  0.1158
 3222SOL    HW112886   3.272   0.766   4.369  0.0097  0.5594  0.2043
 3222SOL    HW212887   3.193   0.844   4.473  0.1024  0.0390  0.6735
 3222SOL     MW12888   3.239   0.773   4.450 -0.1309  0.0327  0.1985
 3223SOL     OW12889   0.851   2.260   3.621 -0.4377 -0.2680 -0.4061
 3223SOL    HW112890   0.812   2.293   3.702 -1.1676  0.6021 -1.0898
 3223SOL    HW212891   0.941   2.294   3.623 -0.1474 -1.0600  0.4833
 3223SOL     MW12892   0.858   2.269   3.631 -0.4940 -0.2580 -0.3798
 3224SOL     OW12893   0.171   3.807   2.341 -0.3492  0.2646  0.6643
 3224SOL    HW112894   0.240   3.801   2.407 -0.2501  2.3859  0.8131
 3224SOL    HW212895   0.121   3.885   2.366 -2.6402 -1.0065  0.3787
 3224SOL     MW12896   0.173   3.816   2.353 -0.6298  0.3734  0.6468
 3225SOL     OW12897   4.227   3.758   0.161  0.7233  0.1127 -0.0632
 3225SOL    HW112898   4.237   3.752   0.256 -1.7954 -2.5593  0.1655
 3225SOL    HW212899   4.133   3.768   0.147  0.5164 -3.2577 -2.2404
 3225SOL     MW12900   4.216   3.758   0.171  0.3744 -0.6608 -0.3126
 3226SOL     OW12901   2.253   4.980   2.792  0.1322 -0.8841 -0.0506
 3226SOL    HW112902   2.261   4.893   2.752  0.0158 -2.1542  2.5105
 3226SOL    HW212903   2.334   4.992   2.840 -0.5921 -0.3737  1.0813
 3226SOL     MW12904   2.264   4.970   2.793  0.0246 -0.9813  0.4222
 3227SOL     OW12905   4.165   1.674   1.761 -0.5357 -0.5457  0.2926
 3227SOL    HW112906   4.228   1.640   1.824 -0.3541 -1.4985 -0.3911
 3227SOL    HW212907   4.213   1.682   1.679 -0.4588  1.7524  0.4791
 3227SOL     MW12908   4.179   1.671   1.758 -0.5026 -0.3735  0.2289
 3228SOL     OW12909   2.041   3.085   4.881 -0.4339  0.6345  0.1551
 3228SOL    HW112910   1.956   3.062   4.845 -1.0620  2.3734  0.4342
 3228SOL    HW212911   2.041   3.181   4.884  0.2846  0.6392  3.0746
 3228SOL     MW12912   2.030   3.095   4.876 -0.4223  0.8577  0.5646
 3229SOL     OW12913   4.724   3.435   3.875  0.2300  0.1002  0.1869
 3229SOL    HW112914   4.812   3.445   3.914  0.6280 -1.3668 -0.2912
 3229SOL    HW212915   4.703   3.343   3.887 -1.1460  0.3776  0.0247
 3229SOL     MW12916   4.733   3.425   3.882  0.1048 -0.0521  0.1049
 3230SOL     OW12917   0.683   2.619   3.553 -0.7543  0.4951  0.3480
 3230SOL    HW112918   0.604   2.598   3.602  0.2700 -0.6550  1.5672
 3230SOL    HW212919   0.681   2.559   3.478 -1.0404  0.5058  0.3438
 3230SOL     MW12920   0.672   2.608   3.549 -0.6598  0.3493  0.5035
 3231SOL     OW12921   5.487   2.724   5.165  0.2717 -0.6112  0.1313
 3231SOL    HW112922   5.426   2.662   5.125  0.9731  1.0080 -3.8854
 3231SOL    HW212923   5.437   2.805   5.175 -0.0394 -1.0880  3.3599
 3231SOL     MW12924   5.473   2.726   5.161  0.3217 -0.4650  0.0304
 3232SOL     OW12925   3.284   5.344   1.729  0.0983  0.0858  0.0362
 3232SOL    HW112926   3.360   5.394   1.699 -0.9841  0.2368 -2.7502
 3232SOL    HW212927   3.215   5.410   1.742 -0.0272 -0.2177  1.0677
 3232SOL     MW12928   3.284   5.359   1.727 -0.0563  0.0663 -0.1885
 3233SOL     OW12929   3.687   1.389   3.330  0.0499 -0.0623  0.2568
 3233SOL    HW112930   3.623   1.417   3.395  1.6349  0.2404  1.7543
 3233SOL    HW212931   3.642   1.396   3.246 -1.6870  0.6242  1.2196
 3233SOL     MW12932   3.673   1.393   3.327  0.0304  0.0644  0.5717
 3234SOL     OW12933   0.842   5.258   4.376 -0.1740  0.0813 -0.2417
 3234SOL    HW112934   0.924   5.305   4.360  1.3855 -2.8919 -1.9351
 3234SOL    HW212935   0.866   5.165   4.369 -3.5470 -0.9560  0.0927
 3234SOL     MW12936   0.856   5.252   4.373 -0.4061 -0.4321 -0.4157
 3235SOL     OW12937   5.379   3.180   3.179  0.0174 -0.7935  0.9598
 3235SOL    HW112938   5.393   3.170   3.273 -0.6302  1.3501  1.3243
 3235SOL    HW212939   5.292   3.220   3.171  1.0427  1.3366 -0.3848
 3235SOL     MW12940   5.370   3.183   3.190  0.0657 -0.2464  0.8343
 3236SOL     OW12941   0.788   4.017   0.341 -0.7634  0.0166 -0.2190
 3236SOL    HW112942   0.829   3.981   0.262  1.4988 -0.9549  1.2750
 3236SOL    HW212943   0.845   4.088   0.368 -2.7879  1.9190 -0.6571
 3236SOL     MW12944   0.801   4.021   0.334 -0.7330  0.1358 -0.0839
 3237SOL     OW12945   1.352   3.772   3.600  0.7461 -0.0754 -0.6226
 3237SOL    HW112946   1.276   3.817   3.564  2.6829  0.7071 -4.0986
 3237SOL    HW212947   1.373   3.705   3.536  3.4237  0.2348 -0.1580
 3237SOL     MW12948   1.345   3.769   3.587  1.3368  0.0645 -1.0081
 3238SOL     OW12949   0.270   2.254   2.069 -0.1759  0.2662 -0.4557
 3238SOL    HW112950   0.197   2.263   2.007  0.7576  0.1723 -1.6015
 3238SOL    HW212951   0.339   2.211   2.019  1.3012  1.9130  0.0658
 3238SOL     MW12952   0.269   2.250   2.055  0.1327  0.4650 -0.5356
 3239SOL     OW12953   3.760   1.351   1.843  0.0555 -0.4267 -0.1102
 3239SOL    HW112954   3.698   1.339   1.771  0.9761 -2.1554 -0.7013
 3239SOL    HW212955   3.837   1.391   1.802  0.6496 -1.5747 -0.1625
 3239SOL     MW12956   3.762   1.354   1.828  0.2494 -0.7949 -0.1926
 3240SOL     OW12957   2.258   3.638   4.161  0.5359 -0.8159  0.0525
 3240SOL    HW112958   2.218   3.629   4.074  0.6105 -0.8734  0.0242
 3240SOL    HW212959   2.213   3.713   4.199  0.6644 -0.6475 -0.1251
 3240SOL     MW12960   2.247   3.647   4.154  0.5619 -0.8017  0.0261
 3241SOL     OW12961   1.578   4.843   0.917  0.3203 -0.2898 -0.0870
 3241SOL    HW112962   1.575   4.846   1.013  0.0123  0.6084 -0.1158
 3241SOL    HW212963   1.623   4.761   0.897 -0.3719 -0.9127  0.8135
 3241SOL     MW12964   1.583   4.832   0.927  0.1923 -0.2546  0.0246
 3242SOL     OW12965   4.641   3.186   4.580  0.1008 -0.7037 -0.4741
 3242SOL    HW112966   4.636   3.248   4.653  0.7537 -0.5833 -0.5210
 3242SOL    HW212967   4.571   3.214   4.521  0.6590  0.2825 -0.7020
 3242SOL     MW12968   4.631   3.198   4.582  0.2558 -0.5620 -0.5093
 3243SOL     OW12969   0.628   1.932   4.711 -0.1207  0.4183  0.3536
 3243SOL    HW112970   0.570   1.858   4.693  1.0263 -0.8402  1.6900
 3243SOL    HW212971   0.631   1.938   4.806  1.2551  1.0245  0.2898
 3243SOL     MW12972   0.621   1.923   4.721  0.2022  0.3348  0.5165
 3244SOL     OW12973   2.539   1.747   1.065  0.3831  0.2672  0.2197
 3244SOL    HW112974   2.501   1.807   1.129  0.2195 -0.7901  1.1404
 3244SOL    HW212975   2.623   1.721   1.103  1.5732  1.7072 -1.2679
 3244SOL     MW12976   2.545   1.751   1.078  0.5145  0.3162  0.1471
 3245SOL     OW12977   2.516   5.063   2.505  0.1879  0.0211 -0.2672
 3245SOL    HW112978   2.550   5.125   2.569 -0.1231 -0.2077  0.1236
 3245SOL    HW212979   2.530   5.106   2.420 -1.0584  1.1544  0.0466
 3245SOL     MW12980   2.522   5.077   2.502 -0.0114  0.1369 -0.1770
 3246SOL     OW12981   0.716   4.877   4.136  0.2293 -0.2404  0.2351
 3246SOL    HW112982   0.664   4.896   4.058 -1.1931  2.1585  1.6573
 3246SOL    HW212983   0.805   4.904   4.113 -0.2061  0.6236 -0.4875
 3246SOL     MW12984   0.721   4.883   4.123 -0.0085  0.1773  0.3246
 3247SOL     OW12985   3.196   3.862   2.546  0.1191 -0.1343 -0.5324
 3247SOL    HW112986   3.255   3.813   2.603 -0.4725 -2.1936 -1.5898
 3247SOL    HW212987   3.148   3.920   2.605 -0.2292 -1.9317  1.0514
 3247SOL     MW12988   3.197   3.863   2.561 -0.0012 -0.6280 -0.4650
 3248SOL     OW12989   2.451   2.721   4.636 -0.1719  0.4445  0.0488
 3248SOL    HW112990   2.452   2.656   4.566  0.3643 -0.1894  0.6266
 3248SOL    HW212991   2.457   2.805   4.592  0.7761  0.0301 -0.6350
 3248SOL     MW12992   2.452   2.723   4.621  0.0181  0.3103  0.0352
 3249SOL     OW12993   3.556   5.234   3.457  0.3197 -0.4503 -0.1024
 3249SOL    HW112994   3.522   5.288   3.386  1.4150 -0.9384 -1.0509
 3249SOL    HW212995   3.525   5.145   3.437  1.6667 -0.8197 -0.7280
 3249SOL     MW12996   3.548   5.229   3.445  0.6323 -0.5601 -0.3039
 3250SOL     OW12997   2.136   4.495   1.622 -0.2050  0.1733 -0.3815
 3250SOL    HW112998   2.202   4.541   1.673  0.8462 -0.5825 -1.0147
 3250SOL    HW212999   2.101   4.561   1.562 -1.4655  1.0714  1.2650
 3250SOL     MW13000   2.140   4.509   1.621 -0.2318  0.1915 -0.2518
 3251SOL     OW13001   2.861   4.285   5.453 -0.5516 -0.2052  0.2188
 3251SOL    HW113002   2.793   4.221   5.434 -0.0225 -0.6975 -0.0597
 3251SOL    HW213003   2.820   4.346   5.514 -1.6450  0.2403 -0.9177
 3251SOL     MW13004   2.847   4.284   5.459 -0.6239 -0.2112  0.0376
 3252SOL     OW13005   2.718   2.248   0.986  0.1827 -0.3284 -0.4819
 3252SOL    HW113006   2.701   2.156   1.004  1.0776 -0.5666 -0.7730
 3252SOL    HW213007   2.812   2.252   0.967  0.2961  0.7540  0.1832
 3252SOL     MW13008   2.728   2.237   0.986  0.3118 -0.2203 -0.4340
 3253SOL     OW13009   3.176   3.594   2.130 -0.2097  0.2020 -0.1951
 3253SOL    HW113010   3.092   3.637   2.147 -0.1264  1.2086 -1.9988
 3253SOL    HW213011   3.242   3.659   2.157  0.0308 -0.7062  1.5087
 3253SOL     MW13012   3.174   3.608   2.136 -0.1683  0.2146 -0.2079
 3254SOL     OW13013   4.803   3.507   0.034 -0.2861 -0.3507  0.5298
 3254SOL    HW113014   4.789   3.532  -0.057  2.3549  1.5131  0.5395
 3254SOL    HW213015   4.820   3.413   0.031  0.6863 -0.1539 -1.0590
 3254SOL     MW13016   4.803   3.498   0.022  0.1764 -0.0869  0.3277
 3255SOL     OW13017   4.874   2.103   3.259  0.2756 -0.1524  0.3852
 3255SOL    HW113018   4.891   2.191   3.227 -0.3183 -0.4754 -0.9357
 3255SOL    HW213019   4.952   2.053   3.236 -0.1688 -0.3942 -0.6573
 3255SOL     MW13020   4.886   2.107   3.252  0.1426 -0.2247  0.0827
 3256SOL     OW13021   4.700   2.600   3.728  0.1730 -0.1670  0.5999
 3256SOL    HW113022   4.706   2.695   3.738  1.2760 -0.2658  0.9754
 3256SOL    HW213023   4.634   2.573   3.792  1.5283  0.0989  2.1478
 3256SOL     MW13024   4.692   2.609   3.737  0.4877 -0.1456  0.8461
 3257SOL     OW13025   3.722   3.508   0.875  0.1300  0.1535  0.1257
 3257SOL    HW113026   3.700   3.562   0.799  2.8531 -2.1428 -2.5704
 3257SOL    HW213027   3.642   3.457   0.892 -0.3875  0.3046 -1.6168
 3257SOL     MW13028   3.709   3.508   0.867  0.4123 -0.1211 -0.4425
 3258SOL     OW13029   4.332   5.407   0.221  0.1893 -0.3527  0.0263
 3258SOL    HW113030   4.321   5.321   0.262 -0.6950 -0.9509 -1.3999
 3258SOL    HW213031   4.420   5.406   0.185  0.4497 -0.3692  0.6564
 3258SOL     MW13032   4.342   5.396   0.222  0.1094 -0.4314 -0.0756
 3259SOL     OW13033   2.833   1.635   2.329 -0.4055  0.4247 -0.8437
 3259SOL    HW113034   2.770   1.651   2.259 -0.4062 -0.9626 -1.1953
 3259SOL    HW213035   2.862   1.544   2.315  1.2996  0.8646 -0.4025
 3259SOL     MW13036   2.829   1.625   2.318 -0.1873  0.3034 -0.8322
 3260SOL     OW13037   0.236   3.192   2.498 -0.8632  0.7617 -0.5923
 3260SOL    HW113038   0.189   3.251   2.557 -0.7711 -0.4490  0.7620
 3260SOL    HW213039   0.267   3.121   2.555  3.2427  1.8013 -1.1831
 3260SOL     MW13040   0.234   3.191   2.513 -0.3258  0.7398 -0.4946
 3261SOL     OW13041   3.763   5.302   2.596 -0.1756  0.1052  0.1201
 3261SOL    HW113042   3.717   5.359   2.658 -0.8750 -0.0946 -0.1977
 3261SOL    HW213043   3.855   5.322   2.608 -0.3952  1.1153  0.1984
 3261SOL     MW13044   3.769   5.312   2.605 -0.2932  0.2089  0.0895
 3262SOL     OW13045   3.559   1.977   1.929  0.1482  0.2066 -0.5059
 3262SOL    HW113046   3.623   1.997   1.861  0.9162  0.7551  0.3531
 3262SOL    HW213047   3.531   1.888   1.911  2.6543 -0.8114  0.2287
 3262SOL     MW13048   3.564   1.968   1.918  0.5673  0.1465 -0.3019
 3263SOL     OW13049   2.180   5.520   5.292 -0.1046  0.1903  0.2578
 3263SOL    HW113050   2.204   5.520   5.385  0.0113 -1.2563  0.2544
 3263SOL    HW213051   2.180   5.427   5.268 -0.0308  0.5559 -1.2185
 3263SOL     MW13052   2.184   5.508   5.301 -0.0803  0.0520  0.0684
 3264SOL     OW13053   4.140   0.350   0.335 -0.3534  0.1375  0.0592
 3264SOL    HW113054   4.210   0.285   0.326  0.3770  0.9563 -0.2972
 3264SOL    HW213055   4.105   0.360   0.247 -1.3470 -0.7109  0.3368
 3264SOL     MW13056   4.144   0.343   0.323 -0.3871  0.1337  0.0491
 3265SOL     OW13057   1.928   1.917   3.804  0.3061  0.4823 -0.1776
 3265SOL    HW113058   1.913   1.889   3.894  1.0212  0.3557 -0.0899
 3265SOL    HW213059   1.879   1.855   3.750 -2.9201  2.4961  0.2142
 3265SOL     MW13060   1.920   1.906   3.808 -0.0153  0.7238 -0.1162
 3266SOL     OW13061   0.870   1.409   3.216 -0.5610  0.1997  0.8038
 3266SOL    HW113062   0.870   1.321   3.255 -2.3163 -0.8848 -1.4571
 3266SOL    HW213063   0.801   1.456   3.262 -1.0629 -0.3174  0.5885
 3266SOL     MW13064   0.862   1.404   3.227 -0.8499 -0.0053  0.4868
 3267SOL     OW13065   3.169   3.857   4.655 -0.5422  0.2329 -0.3900
 3267SOL    HW113066   3.148   3.793   4.587  1.0952 -0.6460 -0.1353
 3267SOL    HW213067   3.103   3.844   4.723  0.9744 -2.8548  0.6877
 3267SOL     MW13068   3.158   3.847   4.655 -0.1385 -0.2748 -0.2194
 3268SOL     OW13069   3.495   1.532   4.676  0.3972 -0.3974  0.3288
 3268SOL    HW113070   3.404   1.508   4.659  0.7279 -0.7302 -1.1015
 3268SOL    HW213071   3.490   1.599   4.743 -0.9875  0.4076 -0.5362
 3268SOL     MW13072   3.482   1.537   4.682  0.2623 -0.3369  0.0350
 3269SOL     OW13073   4.106   4.398   1.991  0.0811 -0.4125  0.4906
 3269SOL    HW113074   4.194   4.428   1.967  0.5173 -1.5981  0.5564
 3269SOL    HW213075   4.113   4.376   2.084  0.4390 -2.8646 -0.0350
 3269SOL     MW13076   4.118   4.399   2.000  0.1828 -0.8782  0.4317
 3270SOL     OW13077   2.021   0.242   1.908 -0.2709 -0.6131  0.2358
 3270SOL    HW113078   1.987   0.325   1.875 -0.2838 -1.4871 -2.1303
 3270SOL    HW213079   1.944   0.185   1.913  0.2481 -1.5759 -1.8431
 3270SOL     MW13080   2.007   0.245   1.905 -0.2061 -0.8482 -0.3332
 3271SOL     OW13081   2.683   0.669   4.131  0.3837 -0.6249  0.2543
 3271SOL    HW113082   2.741   0.674   4.055 -1.0398 -1.9044 -0.9881
 3271SOL    HW213083   2.597   0.649   4.094 -0.2284 -2.0018  2.2568
 3271SOL     MW13084   2.679   0.667   4.117  0.1231 -0.9650  0.3516
 3272SOL     OW13085   3.068   1.754   2.726  0.0549  0.3482  0.0994
 3272SOL    HW113086   3.126   1.705   2.668  0.4597 -0.4155  1.1192
 3272SOL    HW213087   3.058   1.839   2.683 -0.7017 -0.6030 -1.7373
 3272SOL     MW13088   3.074   1.758   2.713  0.0099  0.1287 -0.0052
 3273SOL     OW13089   4.718   3.193   1.804 -0.3934 -1.0186 -0.0757
 3273SOL    HW113090   4.688   3.273   1.847 -0.9883 -0.0497 -2.1178
 3273SOL    HW213091   4.806   3.178   1.837  1.3365  2.7066 -2.2947
 3273SOL     MW13092   4.725   3.201   1.814 -0.2481 -0.4177 -0.6212
 3274SOL     OW13093   2.340   2.642   4.207 -0.7136 -0.1205  0.2630
 3274SOL    HW113094   2.338   2.609   4.297  2.9655  0.1398  0.5940
 3274SOL    HW213095   2.340   2.738   4.217 -1.2687 -0.0858 -0.0719
 3274SOL     MW13096   2.340   2.650   4.220 -0.3137 -0.0827  0.2625
 3275SOL     OW13097   1.239   3.124   3.440 -0.3742  0.7313 -0.1492
 3275SOL    HW113098   1.207   3.084   3.521  1.7921  0.1635  0.4976
 3275SOL    HW213099   1.264   3.050   3.385 -2.6698  1.0794 -1.7800
 3275SOL     MW13100   1.238   3.109   3.443 -0.3908  0.7032 -0.2752
 3276SOL     OW13101   4.113   4.305   3.928  0.6029 -0.6876  0.2071
 3276SOL    HW113102   4.038   4.268   3.973 -0.1696 -0.3505 -0.7805
 3276SOL    HW213103   4.103   4.400   3.939  0.5227 -0.6115 -0.4730
 3276SOL     MW13104   4.102   4.313   3.935  0.4937 -0.6347 -0.0064
 3277SOL     OW13105   2.971   3.296   3.750  0.2555 -0.1495 -0.4675
 3277SOL    HW113106   3.007   3.226   3.804  0.2443 -1.7202 -2.4037
 3277SOL    HW213107   3.041   3.318   3.689 -0.5298 -0.1170 -1.3775
 3277SOL     MW13108   2.985   3.290   3.749  0.1535 -0.3464 -0.8318
 3278SOL     OW13109   5.162   2.195   5.044  0.0008  0.5613  0.3898
 3278SOL    HW113110   5.086   2.219   4.991 -1.5451  0.6710  2.5263
 3278SOL    HW213111   5.157   2.252   5.120  0.9767 -0.9404  1.6253
 3278SOL     MW13112   5.152   2.205   5.047 -0.0722  0.3831  0.8214
 3279SOL     OW13113   1.407   2.291   1.578 -0.0401  0.3626 -0.3326
 3279SOL    HW113114   1.409   2.212   1.523  1.6132  0.8890 -1.0754
 3279SOL    HW213115   1.490   2.290   1.625  0.3877  2.0542 -0.9673
 3279SOL     MW13116   1.418   2.281   1.577  0.2263  0.6466 -0.5090
 3280SOL     OW13117   0.041   0.851   1.136  0.9489  0.6765  0.6342
 3280SOL    HW113118  -0.006   0.890   1.210 -0.2465 -0.4899  0.5493
 3280SOL    HW213119   0.033   0.915   1.065 -1.2885  0.2144  0.3769
 3280SOL     MW13120   0.034   0.864   1.136  0.5095  0.4681  0.5904
 3281SOL     OW13121   5.250   5.286   0.528  0.5990 -0.0181  0.4461
 3281SOL    HW113122   5.333   5.305   0.483  0.6652 -0.0803  0.5423
 3281SOL    HW213123   5.183   5.300   0.461  0.7800 -1.3872 -0.0456
 3281SOL     MW13124   5.252   5.290   0.514  0.6306 -0.2013  0.3955
 3282SOL     OW13125   1.522   1.689   2.906 -0.3467  0.6012 -0.1193
 3282SOL    HW113126   1.576   1.762   2.935  0.9221 -0.3809  0.1119
 3282SOL    HW213127   1.432   1.720   2.915  0.1186  1.6350  1.3077
 3282SOL     MW13128   1.518   1.702   2.911 -0.1247  0.6078  0.0929
 3283SOL     OW13129   1.844   5.074   3.946  0.9357 -0.6967  0.2049
 3283SOL    HW113130   1.867   5.078   4.039 -1.5971 -0.0207  0.8967
 3283SOL    HW213131   1.854   5.164   3.915 -2.0369 -0.0052  0.9544
 3283SOL     MW13132   1.848   5.086   3.954  0.2310 -0.5217  0.3894
 3284SOL     OW13133   4.698   1.574   2.926 -0.4470 -0.6597 -0.2223
 3284SOL    HW113134   4.613   1.617   2.914  0.2756  0.6494 -0.9325
 3284SOL    HW213135   4.728   1.556   2.837  1.7148  2.4616 -0.2919
 3284SOL     MW13136   4.691   1.577   2.913 -0.0778 -0.0925 -0.3222
 3285SOL     OW13137   1.493   4.220   1.927  0.4763  0.1797  0.3354
 3285SOL    HW113138   1.494   4.166   1.847 -0.6090 -0.4814  0.7415
 3285SOL    HW213139   1.513   4.159   1.997  0.7720  0.6278  0.6396
 3285SOL     MW13140   1.495   4.205   1.925  0.3752  0.1525  0.4263
 3286SOL     OW13141   1.605   3.814   4.740  0.5317  0.4280 -0.1146
 3286SOL    HW113142   1.552   3.743   4.705  2.0675 -0.1376 -1.4322
 3286SOL    HW213143   1.543   3.884   4.759 -0.8047 -0.6401 -0.4492
 3286SOL     MW13144   1.590   3.814   4.738  0.5572  0.2189 -0.3261
 3287SOL     OW13145   2.287   0.838   4.663 -0.2414 -0.5029  0.2682
 3287SOL    HW113146   2.260   0.921   4.702  0.5090 -1.2395  2.5192
 3287SOL    HW213147   2.250   0.771   4.720  0.1909 -1.6979 -0.7949
 3287SOL     MW13148   2.279   0.840   4.675 -0.0900 -0.7502  0.4202
 3288SOL     OW13149   0.990   0.362   4.468  0.1535 -0.2802 -0.3516
 3288SOL    HW113150   1.031   0.406   4.394 -1.9947  1.6846 -0.5012
 3288SOL    HW213151   1.037   0.394   4.545  0.6149 -0.1651 -0.6850
 3288SOL     MW13152   1.001   0.372   4.468 -0.0625 -0.0140 -0.4134
 3289SOL     OW13153   3.237   2.673   3.188 -0.4587  0.5482  0.2939
 3289SOL    HW113154   3.321   2.628   3.185  0.2529  1.8158  0.3949
 3289SOL    HW213155   3.174   2.605   3.212  0.7280 -0.1701  1.5072
 3289SOL     MW13156   3.239   2.658   3.191 -0.2157  0.6185  0.4621
 3290SOL     OW13157   3.149   2.330   1.585  0.7436  0.5788 -0.2660
 3290SOL    HW113158   3.092   2.366   1.653  0.8674 -1.4220  0.9715
 3290SOL    HW213159   3.106   2.248   1.558  1.7109  0.3531 -1.1860
 3290SOL     MW13160   3.136   2.324   1.590  0.8833  0.2938 -0.2254
 3291SOL     OW13161   4.951   2.276   4.884 -0.1854 -0.3942  0.0582
 3291SOL    HW113162   4.889   2.214   4.922 -0.3635 -0.5991 -0.5495
 3291SOL    HW213163   4.916   2.362   4.908  0.2145 -0.5159  1.1417
 3291SOL     MW13164   4.939   2.279   4.892 -0.1570 -0.4360  0.1191
 3292SOL     OW13165   2.298   5.031   3.553 -0.1219  0.3275  0.5412
 3292SOL    HW113166   2.294   4.987   3.638 -0.6926 -1.0401 -0.1691
 3292SOL    HW213167   2.208   5.034   3.523 -0.0046  1.3904  0.2444
 3292SOL     MW13168   2.286   5.026   3.560 -0.1799  0.2885  0.4123
 3293SOL     OW13169   2.453   3.640   3.257 -0.4586  0.2049  0.3413
 3293SOL    HW113170   2.488   3.669   3.341  0.9203 -0.2499 -0.0529
 3293SOL    HW213171   2.461   3.545   3.260  1.3359  0.2683 -1.0047
 3293SOL     MW13172   2.458   3.632   3.268 -0.0524  0.1548  0.1185
 3294SOL     OW13173   3.532   1.759   5.233 -0.2671  0.3352 -0.0439
 3294SOL    HW113174   3.515   1.721   5.147  0.1881 -0.6643  0.2887
 3294SOL    HW213175   3.628   1.759   5.240 -0.2258  1.9958 -0.2094
 3294SOL     MW13176   3.542   1.754   5.223 -0.2036  0.4199 -0.0225
 3295SOL     OW13177   0.589   3.674   1.414  0.1178 -0.1027 -0.3352
 3295SOL    HW113178   0.619   3.622   1.340 -0.9907 -1.1239 -0.1061
 3295SOL    HW213179   0.493   3.668   1.409 -0.0039  1.2090  0.2044
 3295SOL     MW13180   0.580   3.666   1.404 -0.0396 -0.0655 -0.2368
 3296SOL     OW13181   1.156   3.389   4.552  0.4823  0.3823 -0.3374
 3296SOL    HW113182   1.213   3.355   4.484 -0.4628  1.2237 -1.5830
 3296SOL    HW213183   1.116   3.311   4.592  0.5120 -0.0929 -1.2239
 3296SOL     MW13184   1.158   3.375   4.549  0.3651  0.4292 -0.6103
 3297SOL     OW13185   3.015   1.341   4.124  0.7121 -0.2163  0.5768
 3297SOL    HW113186   3.089   1.337   4.064  0.0621 -0.8625 -0.1947
 3297SOL    HW213187   2.987   1.433   4.121  1.4329  0.0183  0.8255
 3297SOL     MW13188   3.021   1.353   4.116  0.7211 -0.2690  0.5099
 3298SOL     OW13189   0.093   1.424   3.622  0.0976  0.1863  0.0767
 3298SOL    HW113190   0.110   1.383   3.538  2.4307  0.7643  0.1908
 3298SOL    HW213191   0.078   1.516   3.602  0.2017  0.2421  0.2479
 3298SOL     MW13192   0.094   1.430   3.609  0.4096  0.2674  0.1132
 3299SOL     OW13193   1.082   4.884   1.448 -0.8797 -0.0943  0.0589
 3299SOL    HW113194   1.174   4.895   1.473 -0.7770  0.6155 -0.5986
 3299SOL    HW213195   1.071   4.789   1.440  0.1355 -0.1463 -1.0703
 3299SOL     MW13196   1.093   4.873   1.450 -0.7366 -0.0101 -0.1698
 3300SOL     OW13197   3.256   0.243   0.356  0.2819 -0.3846 -0.1052
 3300SOL    HW113198   3.340   0.237   0.401  0.0092 -3.0695  0.2411
 3300SOL    HW213199   3.277   0.231   0.263  0.3649 -0.3824 -0.0866
 3300SOL     MW13200   3.269   0.241   0.350  0.2576 -0.7280 -0.0585
 3301SOL     OW13201   4.972   2.823   1.873 -0.0498  0.2383 -0.5941
 3301SOL    HW113202   5.003   2.821   1.964 -0.5725  1.3029 -0.3783
 3301SOL    HW213203   5.052   2.815   1.821  0.2491 -0.4607 -0.0517
 3301SOL     MW13204   4.986   2.822   1.878 -0.0784  0.2851 -0.4971
 3302SOL     OW13205   0.779   2.995   0.639 -0.2054  0.7157 -0.0178
 3302SOL    HW113206   0.781   2.914   0.691  0.6761  0.3435 -0.6099
 3302SOL    HW213207   0.871   3.018   0.627 -0.4326  3.1129  2.1099
 3302SOL     MW13208   0.791   2.987   0.644 -0.1217  0.9750  0.1788
 3303SOL     OW13209   4.445   3.312   4.450  0.1456 -0.1295 -0.7567
 3303SOL    HW113210   4.444   3.333   4.357 -1.4098 -0.7141 -0.9043
 3303SOL    HW213211   4.426   3.395   4.494  0.4511  0.0598 -0.9861
 3303SOL     MW13212   4.442   3.325   4.444 -0.0144 -0.1801 -0.8050
 3304SOL     OW13213   3.870   2.124   2.635 -0.4177 -0.2741 -0.0558
 3304SOL    HW113214   3.906   2.170   2.711  0.1390 -1.9650  0.7728
 3304SOL    HW213215   3.920   2.157   2.561  0.0036  0.3914  0.5131
 3304SOL     MW13216   3.881   2.134   2.635 -0.2925 -0.4053  0.1231
 3305SOL     OW13217   1.762   2.439   1.214  0.2012 -0.8681 -0.4259
 3305SOL    HW113218   1.748   2.378   1.141  0.3951 -2.2713  0.6741
 3305SOL    HW213219   1.838   2.404   1.260  1.0457  0.8625 -0.3855
 3305SOL     MW13220   1.770   2.427   1.210  0.3341 -0.8262 -0.2799
 3306SOL     OW13221   2.764   5.009   2.624 -0.2908 -0.4420 -0.3095
 3306SOL    HW113222   2.691   5.000   2.562  0.3808  0.3615 -1.2349
 3306SOL    HW213223   2.803   4.921   2.627 -0.8326 -0.6903 -0.3849
 3306SOL     MW13224   2.759   4.996   2.616 -0.2742 -0.3709 -0.4376
 3307SOL     OW13225   4.564   3.338   2.752 -0.1333  0.1144  0.4409
 3307SOL    HW113226   4.497   3.300   2.695  0.9412  0.6773 -1.2935
 3307SOL    HW213227   4.571   3.430   2.723  0.1677  0.5305  1.7646
 3307SOL     MW13228   4.557   3.345   2.741  0.0428  0.2398  0.3884
 3308SOL     OW13229   1.836   3.283   0.604 -0.0543 -0.2484  0.9810
 3308SOL    HW113230   1.899   3.237   0.660 -1.1065 -1.5719  1.1194
 3308SOL    HW213231   1.808   3.217   0.541  0.2053  0.8893 -0.3716
 3308SOL     MW13232   1.841   3.268   0.603 -0.1558 -0.2722  0.8256
 3309SOL     OW13233   4.114   3.858   4.363  0.2174  0.2777  0.3560
 3309SOL    HW113234   4.202   3.822   4.349  0.5885  1.7732 -1.5754
 3309SOL    HW213235   4.129   3.941   4.406 -0.1018  1.1384 -1.1232
 3309SOL     MW13236   4.127   3.864   4.367  0.2241  0.5793 -0.0806
 3310SOL     OW13237   2.375   0.849   2.634 -0.1277 -0.0240 -0.0286
 3310SOL    HW113238   2.310   0.916   2.655 -0.1275 -0.0731  0.1293
 3310SOL    HW213239   2.325   0.779   2.592 -0.0815  0.2090 -0.4829
 3310SOL     MW13240   2.361   0.849   2.631 -0.1218 -0.0004 -0.0666
 3311SOL     OW13241   4.491   2.225   2.240  0.3214 -0.3646  0.4517
 3311SOL    HW113242   4.552   2.165   2.281  0.3496  1.0917  2.7274
 3311SOL    HW213243   4.538   2.308   2.234 -0.3040 -0.0743 -0.9557
 3311SOL     MW13244   4.505   2.228   2.245  0.2449 -0.1410  0.5628
 3312SOL     OW13245   5.325   3.067   3.662 -0.1873  0.4393  0.6121
 3312SOL    HW113246   5.340   3.128   3.734 -0.1899 -1.8290  2.6588
 3312SOL    HW213247   5.231   3.048   3.666 -0.5447  1.5374 -1.1404
 3312SOL     MW13248   5.315   3.072   3.672 -0.2334  0.2895  0.6498
 3313SOL     OW13249   1.437   0.495   0.131  0.6938  0.4360 -0.2404
 3313SOL    HW113250   1.354   0.493   0.178  0.7515  2.0233 -0.0426
 3313SOL    HW213251   1.482   0.415   0.158 -0.2126  0.2187  0.6607
 3313SOL     MW13252   1.432   0.484   0.140  0.5852  0.6114 -0.0998
 3314SOL     OW13253   2.716   0.872   1.371 -0.1465  0.7260 -0.2832
 3314SOL    HW113254   2.802   0.906   1.349 -0.5000  0.5523 -2.2070
 3314SOL    HW213255   2.655   0.939   1.340 -0.7521 -0.4223 -1.7433
 3314SOL     MW13256   2.719   0.885   1.364 -0.2693  0.5568 -0.7164
 3315SOL     OW13257   3.028   4.896   0.728  0.4448 -0.6403  0.5394
 3315SOL    HW113258   3.039   4.895   0.632 -0.7514 -0.5087  0.3835
 3315SOL    HW213259   2.996   4.984   0.747 -0.2095 -0.9636  0.9493
 3315SOL     MW13260   3.026   4.907   0.718  0.2079 -0.6649  0.5719
 3316SOL     OW13261   1.564   1.201   4.473  0.8577  0.8163  0.3310
 3316SOL    HW113262   1.659   1.214   4.478  0.7601  2.0296 -0.5766
 3316SOL    HW213263   1.526   1.280   4.510  0.2020  0.6004  0.1418
 3316SOL     MW13264   1.571   1.213   4.478  0.7613  0.9440  0.1906
 3317SOL     OW13265   5.270   5.286   2.692 -0.0711  0.0813  0.1627
 3317SOL    HW113266   5.332   5.247   2.754 -1.2151  0.9148  1.8830
 3317SOL    HW213267   5.309   5.370   2.669 -0.0093  0.0936  0.3173
 3317SOL     MW13268   5.283   5.292   2.697 -0.2096  0.1896  0.4027
 3318SOL     OW13269   0.926   4.987   2.637 -0.6235 -0.6756  0.4174
 3318SOL    HW113270   0.998   5.010   2.695 -0.2005  1.0916 -0.7625
 3318SOL    HW213271   0.968   4.954   2.557 -1.1248 -0.3512  0.0104
 3318SOL     MW13272   0.940   4.986   2.634 -0.6335 -0.4079  0.2142
 3319SOL     OW13273   4.996   5.272   4.054 -0.1187 -0.6672  0.7266
 3319SOL    HW113274   5.022   5.183   4.028  1.8262  0.5236 -1.7558
 3319SOL    HW213275   5.077   5.314   4.082 -0.8837  0.5971  1.1087
 3319SOL     MW13276   5.009   5.266   4.055  0.0324 -0.3529  0.4577
 3320SOL     OW13277   4.855   4.398   4.847 -0.2901  0.3985 -0.0387
 3320SOL    HW113278   4.892   4.430   4.929 -2.0553  0.7669  0.6714
 3320SOL    HW213279   4.795   4.328   4.873  0.1879 -0.4654 -1.1663
 3320SOL     MW13280   4.852   4.393   4.861 -0.4549  0.3350 -0.0921
 3321SOL     OW13281   4.893   0.584   3.268  0.2991  0.6496  0.4706
 3321SOL    HW113282   4.899   0.493   3.239 -1.3874 -0.4648  3.2093
 3321SOL    HW213283   4.834   0.625   3.204  0.6624 -0.2910 -0.5120
 3321SOL     MW13284   4.886   0.577   3.256  0.1297  0.3865  0.6954
 3322SOL     OW13285   4.538   4.158   2.671  0.3987  0.3897  0.2962
 3322SOL    HW113286   4.605   4.224   2.687 -0.1271  0.8459  0.6622
 3322SOL    HW213287   4.461   4.208   2.643 -0.1822 -0.0107  1.1405
 3322SOL     MW13288   4.537   4.173   2.669  0.2570  0.3968  0.4511
 3323SOL     OW13289   4.179   1.400   4.397  0.1185  0.0696  0.1449
 3323SOL    HW113290   4.083   1.395   4.405 -0.0345  0.3159 -1.2563
 3323SOL    HW213291   4.211   1.331   4.455 -0.9552 -0.7242 -0.1531
 3323SOL     MW13292   4.171   1.391   4.406 -0.0386 -0.0005 -0.0726
 3324SOL     OW13293   2.488   2.866   3.130  0.6549 -0.0730  0.0397
 3324SOL    HW113294   2.496   2.895   3.039  0.1288  0.3618  0.1258
 3324SOL    HW213295   2.565   2.904   3.174  1.0231 -0.4610 -0.2650
 3324SOL     MW13296   2.499   2.875   3.124  0.6347 -0.0670  0.0117
 3325SOL     OW13297   2.314   5.464   3.483  0.2134  0.3246  0.4562
 3325SOL    HW113298   2.281   5.545   3.522 -2.6628 -0.3824 -0.3182
 3325SOL    HW213299   2.323   5.484   3.390  0.1370 -0.0561  0.3649
 3325SOL     MW13300   2.311   5.477   3.476 -0.1646  0.1854  0.3453
 3326SOL     OW13301   2.972   1.509   2.935  0.1058 -0.1228  0.5593
 3326SOL    HW113302   3.060   1.490   2.901  0.0724 -1.3251  1.0995
 3326SOL    HW213303   2.925   1.545   2.861  0.6680 -0.7241 -0.1054
 3326SOL     MW13304   2.978   1.511   2.921  0.1735 -0.3537  0.5434
 3327SOL     OW13305   5.266   3.577   0.457  0.3623 -0.1282  0.1243
 3327SOL    HW113306   5.331   3.515   0.423  0.2107  0.4539 -1.2649
 3327SOL    HW213307   5.317   3.651   0.487  0.6432 -1.2905  2.7963
 3327SOL     MW13308   5.281   3.578   0.456  0.3789 -0.2025  0.2885
 3328SOL     OW13309   1.818   3.764   3.031  0.0227  0.6124 -0.1730
 3328SOL    HW113310   1.767   3.804   3.100  1.0750 -0.8536  1.5293
 3328SOL    HW213311   1.814   3.670   3.048  0.2683  0.1848 -2.1582
 3328SOL     MW13312   1.811   3.757   3.042  0.1889  0.3700 -0.2093
 3329SOL     OW13313   3.460   4.835   3.631 -0.7403 -0.2883  0.2220
 3329SOL    HW113314   3.459   4.902   3.699  0.5385  1.0759 -1.0139
 3329SOL    HW213315   3.464   4.752   3.678  1.1249  0.6293  1.8418
 3329SOL     MW13316   3.461   4.833   3.645 -0.3378  0.0038  0.2711
 3330SOL     OW13317   2.898   4.721   5.361 -0.1092 -0.2676 -0.1572
 3330SOL    HW113318   2.975   4.729   5.304 -0.6946 -0.8797 -1.0657
 3330SOL    HW213319   2.866   4.811   5.371 -0.8144 -0.2831 -1.9827
 3330SOL     MW13320   2.904   4.733   5.355 -0.2744 -0.3479 -0.5072
 3331SOL     OW13321   0.703   5.186   2.632 -0.7042  0.0736 -0.2730
 3331SOL    HW113322   0.724   5.231   2.714 -1.0829  0.9788 -0.6536
 3331SOL    HW213323   0.778   5.129   2.615  0.0401  0.9569 -0.0347
 3331SOL     MW13324   0.716   5.185   2.640 -0.6574  0.3025 -0.2912
 3332SOL     OW13325   4.594   3.428   3.275 -0.1893  0.0935 -0.6515
 3332SOL    HW113326   4.549   3.379   3.344  0.2809  0.3876 -0.1179
 3332SOL    HW213327   4.616   3.363   3.208  1.3670 -0.6597  0.5138
 3332SOL     MW13328   4.591   3.414   3.276  0.0701  0.0347 -0.4340
 3333SOL     OW13329   1.639   0.235   0.955  0.1427 -0.1206  0.1973
 3333SOL    HW113330   1.664   0.146   0.982  3.2857 -0.0896 -2.1542
 3333SOL    HW213331   1.544   0.231   0.947  0.1420 -3.1747  0.4789
 3333SOL     MW13332   1.630   0.223   0.958  0.5449 -0.5076 -0.0677
 3334SOL     OW13333   0.990   3.830   4.950  0.1236  0.4666  0.2485
 3334SOL    HW113334   0.993   3.740   4.918  0.8872  0.5700  0.0080
 3334SOL    HW213335   0.928   3.875   4.892  1.5982  0.6933 -1.2211
 3334SOL     MW13336   0.982   3.824   4.939  0.4101  0.5089  0.0296
 3335SOL     OW13337   1.331   3.280   0.594  0.0864 -0.1392 -0.2626
 3335SOL    HW113338   1.379   3.357   0.561  2.3447 -0.7454  1.3897
 3335SOL    HW213339   1.239   3.309   0.597  1.0184  3.1813  1.9144
 3335SOL     MW13340   1.325   3.294   0.590  0.4948  0.2082  0.2276
 3336SOL     OW13341   2.615   2.146   2.134 -0.3052 -0.6354 -0.1253
 3336SOL    HW113342   2.642   2.061   2.099  0.7406 -0.4345  0.1505
 3336SOL    HW213343   2.698   2.191   2.152 -0.8065 -0.4106  1.8084
 3336SOL     MW13344   2.629   2.141   2.132 -0.2355 -0.5809  0.1575
 3337SOL     OW13345   1.909   5.131   4.824 -0.1596  0.0930  0.0202
 3337SOL    HW113346   1.914   5.036   4.811  1.0074  0.5451 -3.9958
 3337SOL    HW213347   1.827   5.156   4.782 -0.8961  0.8812  1.8052
 3337SOL     MW13348   1.899   5.122   4.817 -0.1045  0.2518 -0.2654
 3338SOL     OW13349   1.488   4.300   4.501 -0.4946 -0.0932  0.2425
 3338SOL    HW113350   1.547   4.233   4.535  1.5914  0.7618 -1.4323
 3338SOL    HW213351   1.453   4.263   4.420 -0.1966  0.3740 -0.1106
 3338SOL     MW13352   1.491   4.287   4.495 -0.1894  0.0761 -0.0171
 3339SOL     OW13353   1.735   1.753   2.489 -0.4022 -0.2202  0.3623
 3339SOL    HW113354   1.664   1.756   2.553  0.8278  1.0010  1.7470
 3339SOL    HW213355   1.814   1.777   2.538  0.4933  1.5379 -1.7262
 3339SOL     MW13356   1.736   1.756   2.503 -0.1301  0.1612  0.2722
 3340SOL     OW13357   1.346   1.446   0.304  0.6196 -0.0462  0.3037
 3340SOL    HW113358   1.397   1.478   0.229 -0.4064  0.7905 -0.0562
 3340SOL    HW213359   1.265   1.411   0.265  1.4950 -2.7902  0.7087
 3340SOL     MW13360   1.342   1.446   0.289  0.6003 -0.2904  0.3094
 3341SOL     OW13361   3.153   4.038   4.068  0.1653  0.8056  0.0662
 3341SOL    HW113362   3.139   3.997   4.153  0.4302 -0.7808 -0.6307
 3341SOL    HW213363   3.072   4.088   4.053 -0.6002 -0.2608  0.5034
 3341SOL     MW13364   3.141   4.039   4.077  0.1012  0.4660  0.0329
 3342SOL     OW13365   1.446   3.193   4.847  0.3526 -0.2365  0.2326
 3342SOL    HW113366   1.528   3.178   4.800 -0.2086 -3.0237 -0.0497
 3342SOL    HW213367   1.395   3.114   4.831 -0.4479 -0.8064  4.3736
 3342SOL     MW13368   1.450   3.181   4.839  0.1783 -0.6663  0.7265
 3343SOL     OW13369   3.202   4.879   3.555  0.0041  0.1389  0.8999
 3343SOL    HW113370   3.292   4.856   3.574 -0.2507  0.7310  3.1737
 3343SOL    HW213371   3.208   4.948   3.489  1.2043  0.1628  1.0182
 3343SOL     MW13372   3.214   4.885   3.549  0.1251  0.2178  1.2061
 3344SOL     OW13373   1.416   5.026   1.838  0.4388  0.3114  0.3411
 3344SOL    HW113374   1.504   5.005   1.868  0.2654 -0.6700  0.2063
 3344SOL    HW213375   1.406   5.120   1.855  2.0128  0.7481 -0.9139
 3344SOL     MW13376   1.426   5.035   1.844  0.6181  0.2417  0.1632
 3345SOL     OW13377   5.223   1.748   1.202 -0.2169  0.8306 -0.3228
 3345SOL    HW113378   5.138   1.756   1.159 -0.6315 -0.4686  0.2054
 3345SOL    HW213379   5.287   1.748   1.130 -0.8655 -0.8834 -0.9465
 3345SOL     MW13380   5.220   1.749   1.187 -0.3530  0.4448 -0.3350
 3346SOL     OW13381   4.069   0.670   2.420 -0.4145  0.2787  0.3898
 3346SOL    HW113382   3.992   0.727   2.419  0.9534  2.2404  0.6742
 3346SOL    HW213383   4.045   0.598   2.477 -2.3011  0.4327 -0.1358
 3346SOL     MW13384   4.056   0.668   2.427 -0.4809  0.5495  0.3589
 3347SOL     OW13385   4.576   5.300   1.993 -0.4278  0.1291  0.4443
 3347SOL    HW113386   4.502   5.299   2.054 -0.9018  0.6257 -0.1163
 3347SOL    HW213387   4.591   5.393   1.975  1.4500  0.1663  1.8783
 3347SOL     MW13388   4.568   5.312   1.999 -0.2481  0.1974  0.5561
 3348SOL     OW13389   5.371   4.575   4.036  0.0205  0.2420 -0.4007
 3348SOL    HW113390   5.280   4.594   4.056 -0.1373  1.1578 -1.8525
 3348SOL    HW213391   5.368   4.502   3.975  0.2521  0.4154 -0.6220
 3348SOL     MW13392   5.359   4.568   4.031  0.0299  0.3815 -0.6148
 3349SOL     OW13393   2.042   4.167   4.278  0.1002  0.1540  0.5531
 3349SOL    HW113394   1.958   4.200   4.247 -0.8558 -1.1371  1.6454
 3349SOL    HW213395   2.053   4.206   4.364 -0.2795 -1.0418  1.1759
 3349SOL     MW13396   2.033   4.176   4.285 -0.0708 -0.1643  0.7726
 3350SOL     OW13397   1.505   4.607   3.243 -0.3348 -0.1593  0.3388
 3350SOL    HW113398   1.544   4.685   3.204  1.5785  0.0987  2.5480
 3350SOL    HW213399   1.564   4.536   3.220 -0.0427 -0.2775  1.4105
 3350SOL     MW13400   1.517   4.608   3.235 -0.0525 -0.1414  0.7588
 3351SOL     OW13401   0.813   0.920   1.693 -0.1603  0.5504 -0.4095
 3351SOL    HW113402   0.834   0.870   1.772 -1.1233  0.0063 -0.4716
 3351SOL    HW213403   0.897   0.954   1.662  0.1433  1.5504  1.3508
 3351SOL     MW13404   0.826   0.918   1.699 -0.2447  0.6088 -0.1921
 3352SOL     OW13405   1.870   5.075   4.224  0.1466 -0.1884  0.6264
 3352SOL    HW113406   1.786   5.059   4.267  0.6114  0.2626  1.7459
 3352SOL    HW213407   1.890   5.166   4.245  1.1498 -0.4398  0.8122
 3352SOL     MW13408   1.862   5.085   4.232  0.3345 -0.1629  0.7935
 3353SOL     OW13409   0.014   0.081   3.606  0.2732  0.2809 -0.0692
 3353SOL    HW113410  -0.012   0.162   3.650 -0.4288  0.3018 -0.5139
 3353SOL    HW213411  -0.009   0.095   3.514 -0.0811 -0.5150 -0.1100
 3353SOL     MW13412   0.008   0.093   3.600  0.1380  0.1817 -0.1314
 3354SOL     OW13413   5.352   3.738   0.800  0.1329  0.3752 -0.7545
 3354SOL    HW113414   5.259   3.719   0.789 -0.0439  0.2228  0.7840
 3354SOL    HW213415   5.353   3.819   0.851  0.8351 -0.1994  0.1580
 3354SOL     MW13416   5.340   3.746   0.805  0.2002  0.2821 -0.4408
 3355SOL     OW13417   0.102   4.013   3.484  0.0757  0.5598 -0.0015
 3355SOL    HW113418   0.161   4.084   3.460 -0.9749  1.0460 -1.2613
 3355SOL    HW213419   0.014   4.046   3.464 -0.5100 -0.7260  0.3052
 3355SOL     MW13420   0.098   4.026   3.478 -0.1338  0.4574 -0.1235
 3356SOL     OW13421   0.802   1.100   2.596 -0.0947  0.3692 -0.1274
 3356SOL    HW113422   0.844   1.046   2.529 -1.0778 -0.1827 -0.3089
 3356SOL    HW213423   0.861   1.094   2.671 -1.0287 -2.4522  0.4971
 3356SOL     MW13424   0.815   1.092   2.597 -0.3401 -0.0626 -0.0707
 3357SOL     OW13425   2.480   3.902   0.114 -0.4535 -0.3616 -0.2309
 3357SOL    HW113426   2.517   3.814   0.108  0.9354  0.1161  0.7394
 3357SOL    HW213427   2.509   3.934   0.200 -2.2005  0.4971  0.0965
 3357SOL     MW13428   2.488   3.894   0.125 -0.4994 -0.1905 -0.0648
 3358SOL     OW13429   3.911   2.839   5.416  0.3533  0.5285 -0.9129
 3358SOL    HW113430   3.850   2.860   5.486  1.7016  0.3790  0.3545
 3358SOL    HW213431   3.961   2.919   5.402  0.5047  0.3767 -1.2663
 3358SOL     MW13432   3.910   2.852   5.423  0.5453  0.4900 -0.7959
 3359SOL     OW13433   0.496   0.534   4.283  0.1269 -0.1265 -0.0970
 3359SOL    HW113434   0.588   0.538   4.311 -0.1597  2.7999  0.7776
 3359SOL    HW213435   0.483   0.615   4.233 -2.9267  1.7409  3.2646
 3359SOL     MW13436   0.506   0.545   4.280 -0.3006  0.4872  0.4453
 3360SOL     OW13437   4.591   5.434   5.435 -0.0710 -1.2290  0.1121
 3360SOL    HW113438   4.633   5.480   5.363 -1.6336  1.5034  0.7932
 3360SOL    HW213439   4.655   5.439   5.507 -0.1904 -0.0767  0.1604
 3360SOL     MW13440   4.605   5.441   5.435 -0.2863 -0.7317  0.2055
 3361SOL     OW13441   3.802   0.918   2.779 -0.0909  0.1911  0.7157
 3361SOL    HW113442   3.808   0.986   2.712  0.2588  0.2721  0.8248
 3361SOL    HW213443   3.775   0.839   2.731 -0.3647  0.3760  0.5678
 3361SOL     MW13444   3.799   0.916   2.764 -0.0812  0.2251  0.7107
 3362SOL     OW13445   3.727   5.010   5.310 -0.4150 -0.3586  0.0838
 3362SOL    HW113446   3.808   4.967   5.282 -0.7170 -0.1179 -1.2322
 3362SOL    HW213447   3.698   4.960   5.386  1.2856 -0.0700  0.9664
 3362SOL     MW13448   3.733   4.998   5.316 -0.2359 -0.2909  0.0283
 3363SOL     OW13449   1.595   5.064   0.285  0.0902 -0.3402 -0.6181
 3363SOL    HW113450   1.531   5.133   0.271  0.8952  0.3589 -0.9197
 3363SOL    HW213451   1.677   5.110   0.301  0.5688 -1.2234 -0.4555
 3363SOL     MW13452   1.597   5.079   0.285  0.2545 -0.3638 -0.6359
 3364SOL     OW13453   2.567   0.851   5.458  0.1929 -0.1400 -0.4942
 3364SOL    HW113454   2.518   0.863   5.539  0.2999  1.6594 -0.6556
 3364SOL    HW213455   2.500   0.837   5.391  0.0158  0.1193 -0.3717
 3364SOL     MW13456   2.552   0.851   5.459  0.1839  0.1236 -0.4992
 3365SOL     OW13457   2.129   5.296   4.513 -0.2396 -0.3735 -0.1649
 3365SOL    HW113458   2.064   5.315   4.580 -0.2144 -2.5323  0.5784
 3365SOL    HW213459   2.193   5.367   4.520 -0.8453  0.0563  1.3160
 3365SOL     MW13460   2.129   5.307   4.522 -0.3139 -0.5948  0.1199
 3366SOL     OW13461   2.750   0.090   4.114 -0.0177  0.4635 -0.3465
 3366SOL    HW113462   2.827   0.037   4.134 -0.1630  0.6150  0.7041
 3366SOL    HW213463   2.786   0.175   4.086  0.2731  1.3813  2.4666
 3366SOL     MW13464   2.765   0.094   4.113  0.0009  0.6004  0.1481
 3367SOL     OW13465   3.830   4.420   3.616  0.3234  0.0627 -0.6896
 3367SOL    HW113466   3.816   4.465   3.700  0.7002 -1.3478  0.1653
 3367SOL    HW213467   3.914   4.375   3.627 -1.4442 -3.4712 -0.2274
 3367SOL     MW13468   3.839   4.420   3.628  0.1454 -0.5702 -0.5210
 3368SOL     OW13469   2.615   4.921   5.174 -0.2788 -0.1724  0.2924
 3368SOL    HW113470   2.641   5.013   5.172  0.9287 -0.4091 -3.2234
 3368SOL    HW213471   2.525   4.920   5.141 -0.2804 -0.2477  0.2973
 3368SOL     MW13472   2.607   4.932   5.169 -0.1244 -0.2123 -0.1570
 3369SOL     OW13473   5.045   4.836   0.408  0.0671 -0.1501 -0.1097
 3369SOL    HW113474   5.118   4.886   0.446  0.7249 -1.9258  1.0873
 3369SOL    HW213475   5.045   4.753   0.456 -3.2543  0.0566  0.4919
 3369SOL     MW13476   5.055   4.832   0.419 -0.2738 -0.3510  0.1205
 3370SOL     OW13477   4.962   4.103   2.567 -0.2754  0.2200 -0.3354
 3370SOL    HW113478   4.955   4.038   2.497  0.0379  0.0205 -0.1827
 3370SOL    HW213479   5.031   4.162   2.539  0.8796 -0.6909  0.4553
 3370SOL     MW13480   4.970   4.102   2.555 -0.0874  0.0779 -0.2147
 3371SOL     OW13481   4.641   2.357   4.964 -0.6451 -0.0780  0.1458
 3371SOL    HW113482   4.620   2.437   5.012 -0.9400 -0.0619 -0.0076
 3371SOL    HW213483   4.613   2.375   4.874 -0.9901 -0.4659  0.1770
 3371SOL     MW13484   4.635   2.370   4.958 -0.7270 -0.1256  0.1302
 3372SOL     OW13485   5.113   4.023   1.676 -0.2765  0.1043  0.1306
 3372SOL    HW113486   5.188   4.069   1.715 -1.6710  2.5190  0.1266
 3372SOL    HW213487   5.036   4.065   1.715 -1.6522 -0.9614 -1.3277
 3372SOL     MW13488   5.113   4.034   1.686 -0.6311  0.2770 -0.0566
 3373SOL     OW13489   3.285   0.614   0.949  0.6817 -0.5580  0.1190
 3373SOL    HW113490   3.305   0.568   0.867  1.1406 -0.8512  0.3929
 3373SOL    HW213491   3.190   0.606   0.959  0.2563  1.4046 -1.5341
 3373SOL     MW13492   3.276   0.607   0.940  0.6860 -0.3443 -0.0576
 3374SOL     OW13493   4.304   4.254   2.414  0.3989  0.2028  0.8666
 3374SOL    HW113494   4.353   4.256   2.332  0.5168 -0.3500  0.9211
 3374SOL    HW213495   4.261   4.168   2.414 -1.5728  1.1253  0.2318
 3374SOL     MW13496   4.305   4.243   2.403  0.1616  0.2501  0.7923
 3375SOL     OW13497   3.574   2.155   0.553  0.2611 -0.3450  0.2151
 3375SOL    HW113498   3.615   2.092   0.613  0.6637  0.5362  0.8801
 3375SOL    HW213499   3.483   2.160   0.583  0.5222  0.2843  0.9322
 3375SOL     MW13500   3.567   2.147   0.565  0.3460 -0.1516  0.3920
 3376SOL     OW13501   3.944   2.750   3.520 -0.0447  0.1752 -0.0610
 3376SOL    HW113502   3.876   2.691   3.488 -0.3324  0.2698  0.3640
 3376SOL    HW213503   4.003   2.693   3.571 -0.5251  0.3041  0.6603
 3376SOL     MW13504   3.943   2.735   3.523 -0.1430  0.2038  0.0857
 3377SOL     OW13505   0.175   1.923   1.323 -0.4781 -0.2271 -0.3592
 3377SOL    HW113506   0.155   2.011   1.355  0.2155  0.1523 -0.9241
 3377SOL    HW213507   0.216   1.879   1.397  1.0096  0.5987 -0.6564
 3377SOL     MW13508   0.178   1.928   1.336 -0.1989 -0.0728 -0.4695
 3378SOL     OW13509   4.673   4.052   3.436  0.1869 -0.2229 -0.4380
 3378SOL    HW113510   4.718   4.129   3.401  0.7492 -0.8293 -1.0800
 3378SOL    HW213511   4.714   3.978   3.392 -1.2584 -0.8178 -0.8446
 3378SOL     MW13512   4.684   4.053   3.426  0.0739 -0.3767 -0.5723
 3379SOL     OW13513   0.134   2.238   3.186 -0.2649 -0.0070  0.2654
 3379SOL    HW113514   0.094   2.312   3.141 -0.7751 -0.3563  0.1357
 3379SOL    HW213515   0.199   2.277   3.244  0.1759  0.4661 -0.5382
 3379SOL     MW13516   0.137   2.252   3.188 -0.2738  0.0089  0.1459
 3380SOL     OW13517   3.876   2.118   4.808  0.6864 -0.0477 -0.3346
 3380SOL    HW113518   3.860   2.097   4.900  0.6620 -1.3144 -0.6121
 3380SOL    HW213519   3.970   2.105   4.797  0.3975 -1.8200 -0.9360
 3380SOL     MW13520   3.886   2.114   4.819  0.6463 -0.4367 -0.4471
 3381SOL     OW13521   3.934   0.835   1.341 -0.2989 -0.2745  0.0031
 3381SOL    HW113522   4.027   0.822   1.359 -0.1147  1.0619  0.0955
 3381SOL    HW213523   3.927   0.835   1.246 -0.2253 -0.4548 -0.0032
 3381SOL     MW13524   3.945   0.833   1.331 -0.2659 -0.1265  0.0141
 3382SOL     OW13525   4.969   4.519   3.654  0.0956 -0.2392 -0.1687
 3382SOL    HW113526   4.961   4.608   3.690 -2.0488  0.2455 -1.6314
 3382SOL    HW213527   4.881   4.499   3.621  0.2788 -3.2986  0.9095
 3382SOL     MW13528   4.957   4.528   3.654 -0.1555 -0.5688 -0.2179
 3383SOL     OW13529   0.444   2.294   3.682  0.1848 -0.4489  0.0269
 3383SOL    HW113530   0.355   2.286   3.716 -1.0339  3.1226 -1.8194
 3383SOL    HW213531   0.492   2.338   3.751  0.5075 -2.0336  0.8694
 3383SOL     MW13532   0.439   2.298   3.695  0.0701 -0.1946 -0.1016
 3384SOL     OW13533   4.176   1.910   2.321  0.1857 -0.0171 -0.0377
 3384SOL    HW113534   4.091   1.883   2.357  1.2021 -1.1007  1.6397
 3384SOL    HW213535   4.236   1.839   2.343  1.9536  1.5333  0.4566
 3384SOL     MW13536   4.173   1.897   2.328  0.5422  0.0426  0.2403
 3385SOL     OW13537   3.796   0.335   5.130 -0.6275  0.1394 -0.3315
 3385SOL    HW113538   3.764   0.421   5.154  0.5927  1.1038 -1.9470
 3385SOL    HW213539   3.860   0.351   5.061  0.2579 -1.9964 -0.1112
 3385SOL     MW13540   3.800   0.348   5.124 -0.3579 -0.0106 -0.5101
 3386SOL     OW13541   4.702   4.296   0.410  0.1066 -0.1149  0.0010
 3386SOL    HW113542   4.745   4.223   0.365 -0.2921  0.2927 -1.0764
 3386SOL    HW213543   4.612   4.268   0.421  0.8193 -1.5026  3.4152
 3386SOL     MW13544   4.696   4.283   0.406  0.1468 -0.2404  0.3001
 3387SOL     OW13545   1.627   0.964   0.388 -0.0479  0.4179  0.3468
 3387SOL    HW113546   1.655   1.004   0.305  1.3858  2.1205  1.5918
 3387SOL    HW213547   1.610   0.873   0.365 -0.8183  1.0790 -2.0505
 3387SOL     MW13548   1.629   0.958   0.374  0.0370  0.7205  0.1993
 3388SOL     OW13549   3.434   2.082   0.278 -0.1481 -0.3257 -0.0744
 3388SOL    HW113550   3.469   2.011   0.224  1.4699  1.3625 -1.4214
 3388SOL    HW213551   3.471   2.067   0.365 -0.5465 -1.5687 -0.0967
 3388SOL     MW13552   3.443   2.071   0.282  0.0080 -0.2687 -0.2497
 3389SOL     OW13553   3.517   1.812   0.180 -0.3806 -0.1460 -0.7387
 3389SOL    HW113554   3.598   1.799   0.228 -0.0078  0.7612 -1.1062
 3389SOL    HW213555   3.453   1.758   0.227 -0.0121  0.6117  0.7049
 3389SOL     MW13556   3.519   1.804   0.192 -0.2857  0.0671 -0.6009
 3390SOL     OW13557   5.439   0.589   4.546  0.1097 -0.2241 -0.6992
 3390SOL    HW113558   5.512   0.622   4.598  0.3543 -0.4356 -0.9017
 3390SOL    HW213559   5.478   0.519   4.493  0.1296  0.7406 -2.0183
 3390SOL     MW13560   5.453   0.584   4.546  0.1435 -0.1277 -0.8940
 3391SOL     OW13561   1.738   4.312   2.180  0.6579  0.3495  0.0239
 3391SOL    HW113562   1.816   4.345   2.226  0.7137  1.1170 -0.6212
 3391SOL    HW213563   1.697   4.389   2.143 -0.2355 -0.0965  0.0688
 3391SOL     MW13564   1.743   4.326   2.181  0.5507  0.3907 -0.0529
 3392SOL     OW13565   1.768   1.013   0.961 -0.1395  0.6138 -0.3242
 3392SOL    HW113566   1.687   0.966   0.979  0.8371 -0.2325  2.1887
 3392SOL    HW213567   1.837   0.956   0.992  1.2304  2.6965  0.6816
 3392SOL     MW13568   1.766   1.000   0.967  0.1609  0.7720  0.1262
 3393SOL     OW13569   2.628   3.978   0.751  0.7221  0.5865  0.0340
 3393SOL    HW113570   2.629   3.971   0.656 -1.1524 -0.8845  0.0663
 3393SOL    HW213571   2.717   3.959   0.778  1.9321  3.4448 -1.4964
 3393SOL     MW13572   2.639   3.975   0.742  0.6371  0.7641 -0.1578
 3394SOL     OW13573   4.833   0.166   1.801 -0.4088  0.3108 -0.0319
 3394SOL    HW113574   4.746   0.155   1.762  0.3879  0.5635 -1.9902
 3394SOL    HW213575   4.873   0.237   1.751  1.1316 -0.1498  0.4897
 3394SOL     MW13576   4.827   0.174   1.790 -0.1096  0.2842 -0.2158
 3395SOL     OW13577   0.003   4.927   4.965 -0.1893  0.3218 -0.2026
 3395SOL    HW113578   0.071   4.962   4.907 -0.5418  1.7890  0.2167
 3395SOL    HW213579   0.049   4.899   5.043  0.0771  0.0823 -0.4442
 3395SOL     MW13580   0.017   4.928   4.967 -0.2003  0.4789 -0.1798
 3396SOL     OW13581   4.058   0.635   2.887  0.4380 -0.4604 -0.4446
 3396SOL    HW113582   4.149   0.619   2.912  1.4231  2.1728 -2.0333
 3396SOL    HW213583   4.016   0.662   2.969  1.2385 -1.0379  0.1792
 3396SOL     MW13584   4.064   0.636   2.901  0.6666 -0.1972 -0.5681
 3397SOL     OW13585   0.859   1.975   1.523  0.2787 -0.7764  0.0317
 3397SOL    HW113586   0.800   2.021   1.463 -0.7893 -2.9623 -0.6873
 3397SOL    HW213587   0.853   2.024   1.605 -1.3546 -0.0542 -0.4860
 3397SOL     MW13588   0.851   1.987   1.526 -0.0671 -0.9638 -0.1266
 3398SOL     OW13589   5.125   4.587   0.587 -0.7651  0.0343  0.1521
 3398SOL    HW113590   5.059   4.563   0.651  0.1089 -1.6174  0.4865
 3398SOL    HW213591   5.176   4.657   0.628 -0.4559 -0.7467  1.1282
 3398SOL     MW13592   5.123   4.593   0.600 -0.6136 -0.2771  0.3198
 3399SOL     OW13593   5.096   2.285   2.166  0.3011 -0.0464  0.0032
 3399SOL    HW113594   5.095   2.199   2.125  0.0893 -0.0226 -0.0417
 3399SOL    HW213595   5.031   2.279   2.236  0.4417  0.0083  0.1395
 3399SOL     MW13596   5.088   2.273   2.170  0.2920 -0.0364  0.0149
 3400SOL     OW13597   2.631   4.602   3.535 -0.4971 -0.9787 -0.4801
 3400SOL    HW113598   2.546   4.625   3.499 -1.0461 -0.0929  1.2663
 3400SOL    HW213599   2.693   4.656   3.486 -0.9932 -1.0966 -1.2648
 3400SOL     MW13600   2.628   4.612   3.524 -0.6309 -0.8804 -0.3570
 3401SOL     OW13601   3.340   2.380   1.958 -0.4322  0.1740 -0.0390
 3401SOL    HW113602   3.353   2.348   2.047 -1.6956  0.5295  0.2962
 3401SOL    HW213603   3.303   2.467   1.969  2.0604  1.4443 -0.9319
 3401SOL     MW13604   3.337   2.387   1.970 -0.2748  0.3821 -0.1104
 3402SOL     OW13605   3.168   3.372   0.060 -0.0035 -0.4686  0.1972
 3402SOL    HW113606   3.161   3.403  -0.030  2.8545  3.9174  1.1621
 3402SOL    HW213607   3.253   3.328   0.064  0.6115  0.7364  0.9977
 3402SOL     MW13608   3.178   3.370   0.049  0.4411  0.2471  0.4232
 3403SOL     OW13609   2.536   2.954   2.854 -0.2790 -0.1579 -0.3131
 3403SOL    HW113610   2.626   2.929   2.830 -0.0875 -0.7737  0.9808
 3403SOL    HW213611   2.543   3.046   2.879  0.2897 -0.5465  1.0809
 3403SOL     MW13612   2.549   2.963   2.854 -0.1817 -0.2865  0.0310
 3404SOL     OW13613   0.999   4.377   1.754  0.0367 -0.4565 -0.3003
 3404SOL    HW113614   1.081   4.369   1.802 -1.2288 -0.1559  2.0364
 3404SOL    HW213615   0.953   4.295   1.770 -2.0312  1.0569  2.3493
 3404SOL     MW13616   1.003   4.366   1.762 -0.3900 -0.2243  0.3380
 3405SOL     OW13617   4.632   2.051   3.155 -0.2430  0.0836 -0.1839
 3405SOL    HW113618   4.724   2.071   3.173 -0.0068 -1.2698  0.2505
 3405SOL    HW213619   4.584   2.126   3.188  0.7600  1.3135 -1.3968
 3405SOL     MW13620   4.638   2.063   3.161 -0.0844  0.0678 -0.2835
 3406SOL     OW13621   0.420   5.100   1.969  0.4810  0.2362  0.1568
 3406SOL    HW113622   0.368   5.177   1.995  0.1238 -0.2387  0.8866
 3406SOL    HW213623   0.503   5.136   1.939  0.2333  0.9229  0.2735
 3406SOL     MW13624   0.424   5.115   1.969  0.4035  0.2633  0.2652
 3407SOL     OW13625   2.937   0.190   0.063 -0.0198 -0.0577 -0.2600
 3407SOL    HW113626   2.904   0.185   0.153  0.1021 -1.2946 -0.2771
 3407SOL    HW213627   3.032   0.181   0.072 -0.0747 -1.0193 -0.5703
 3407SOL     MW13628   2.945   0.188   0.076 -0.0112 -0.3392 -0.3019
 3408SOL     OW13629   3.139   2.104   4.626  0.0555  0.5221  0.7788
 3408SOL    HW113630   3.136   2.192   4.589 -0.3498  0.8565  1.5949
 3408SOL    HW213631   3.051   2.069   4.612  0.1808  0.2890  0.5635
 3408SOL     MW13632   3.127   2.111   4.619  0.0197  0.5351  0.8557
 3409SOL     OW13633  -0.009   5.128   2.317 -0.1169 -0.4883 -0.2271
 3409SOL    HW113634   0.085   5.130   2.330 -0.1044  1.5688 -0.2217
 3409SOL    HW213635  -0.022   5.161   2.227 -0.8829  2.1438  0.7518
 3409SOL     MW13636   0.001   5.133   2.307 -0.2134  0.1120 -0.1011
 3410SOL     OW13637   4.844   3.560   5.262  0.4667  0.5478  0.4793
 3410SOL    HW113638   4.848   3.602   5.177  1.2501  0.3259  0.4029
 3410SOL    HW213639   4.904   3.486   5.256 -1.9373 -1.5299  0.1061
 3410SOL     MW13640   4.852   3.556   5.250  0.2593  0.2534  0.4218
 3411SOL     OW13641   3.934   5.250   5.091  1.0552 -0.2588  0.1422
 3411SOL    HW113642   3.935   5.338   5.128 -0.3112 -0.3282  0.4005
 3411SOL    HW213643   3.916   5.263   4.998  0.8357 -0.2513  0.1833
 3411SOL     MW13644   3.932   5.263   5.084  0.8522 -0.2667  0.1806
 3412SOL     OW13645   5.113   4.740   5.150  0.3426  1.0952  0.6456
 3412SOL    HW113646   5.169   4.699   5.216  1.2469  0.1903 -0.6233
 3412SOL    HW213647   5.170   4.751   5.074 -1.2679 -0.2118 -0.8346
 3412SOL     MW13648   5.128   4.736   5.148  0.2522  0.8121  0.2937
 3413SOL     OW13649   2.416   4.051   3.650 -0.2872 -0.0609  0.6619
 3413SOL    HW113650   2.358   4.059   3.725 -0.3255  1.9848  0.4596
 3413SOL    HW213651   2.430   4.141   3.621 -1.3749 -0.8292 -2.6369
 3413SOL     MW13652   2.411   4.063   3.656 -0.4314  0.1026  0.2137
 3414SOL     OW13653   0.782   4.706   0.254 -0.4299  0.2610 -0.0036
 3414SOL    HW113654   0.856   4.646   0.267 -1.5394 -1.0856  0.4311
 3414SOL    HW213655   0.820   4.781   0.209  1.4028  0.0826  1.1082
 3414SOL     MW13656   0.796   4.708   0.250 -0.3373  0.0658  0.1944
 3415SOL     OW13657   2.245   2.059   2.730  0.6762  0.5357 -0.1819
 3415SOL    HW113658   2.170   2.080   2.674  0.7374  1.5242  0.0865
 3415SOL    HW213659   2.300   2.003   2.675 -0.4297 -0.5359 -0.2412
 3415SOL     MW13660   2.243   2.054   2.715  0.5425  0.5251 -0.1551
 3416SOL     OW13661   1.484   0.475   1.858 -0.1608  0.0388 -0.0520
 3416SOL    HW113662   1.464   0.550   1.915  1.8319  0.8468 -0.3331
 3416SOL    HW213663   1.541   0.419   1.911  0.4951  0.0455 -0.7338
 3416SOL     MW13664   1.489   0.477   1.872  0.1783  0.1431 -0.1753
 3417SOL     OW13665   0.225   1.636   3.450 -0.2981  0.1157 -0.2844
 3417SOL    HW113666   0.292   1.574   3.478  1.7750  1.5854 -1.7660
 3417SOL    HW213667   0.245   1.717   3.498 -1.0797  0.5524 -0.6758
 3417SOL     MW13668   0.236   1.638   3.460 -0.1328  0.3597 -0.5242
 3418SOL     OW13669   4.745   5.309   3.451  0.5327 -0.0210  0.2552
 3418SOL    HW113670   4.814   5.360   3.409  0.0016 -0.1746 -0.8403
 3418SOL    HW213671   4.665   5.334   3.405 -0.1238 -0.0091  1.3585
 3418SOL     MW13672   4.744   5.319   3.440  0.3807 -0.0391  0.2562
 3419SOL     OW13673   4.257   1.337   3.798 -0.6870 -0.1274  0.0354
 3419SOL    HW113674   4.241   1.432   3.799 -0.1561 -0.0341  0.4791
 3419SOL    HW213675   4.351   1.329   3.816 -1.0862 -0.8181  2.0204
 3419SOL     MW13676   4.267   1.348   3.801 -0.6702 -0.2039  0.3463
 3420SOL     OW13677   4.703   1.143   4.010  0.3900 -0.1040 -0.4486
 3420SOL    HW113678   4.653   1.118   4.087  0.7414  0.5638  0.0073
 3420SOL    HW213679   4.795   1.130   4.036  0.5386  0.7629 -0.5118
 3420SOL     MW13680   4.708   1.138   4.023  0.4540  0.0924 -0.3983
 3421SOL     OW13681   0.015   2.728   1.461  0.3123  0.0164 -0.2482
 3421SOL    HW113682   0.093   2.684   1.428 -0.4240 -0.9190 -0.8187
 3421SOL    HW213683   0.017   2.714   1.556  0.4889 -0.6053 -0.3406
 3421SOL     MW13684   0.025   2.721   1.469  0.2407 -0.1830 -0.3331
 3422SOL     OW13685   5.372   0.226   0.479  0.2820 -0.1468  0.0374
 3422SOL    HW113686   5.403   0.217   0.569 -1.3699 -0.1271  0.6461
 3422SOL    HW213687   5.421   0.300   0.444 -0.3692  1.0583  1.5540
 3422SOL     MW13688   5.382   0.234   0.486 -0.0128  0.0100  0.3094
 3423SOL     OW13689   2.240   1.637   4.905  0.6383  0.1556 -0.3836
 3423SOL    HW113690   2.176   1.672   4.843 -0.0137 -2.3683 -1.2227
 3423SOL    HW213691   2.246   1.544   4.885  1.4996 -0.5059  2.4198
 3423SOL     MW13692   2.233   1.630   4.895  0.6651 -0.2522 -0.1322
 3424SOL     OW13693   0.577   0.181   1.571  0.1175 -0.6060 -0.6661
 3424SOL    HW113694   0.501   0.239   1.579  0.7963  0.3191 -0.6756
 3424SOL    HW213695   0.545   0.105   1.524 -1.2896 -1.1522  1.0699
 3424SOL     MW13696   0.563   0.179   1.566  0.0243 -0.5575 -0.4451
 3425SOL     OW13697   2.761   2.657   2.609 -0.1231 -0.0180 -0.3693
 3425SOL    HW113698   2.755   2.583   2.669 -2.3976  0.5291  0.1520
 3425SOL    HW213699   2.761   2.734   2.666 -0.7324  0.4571 -0.9950
 3425SOL     MW13700   2.760   2.657   2.624 -0.4923  0.1128 -0.3826
 3426SOL     OW13701   3.486   1.366   0.341  0.6126  0.0831  0.2034
 3426SOL    HW113702   3.484   1.308   0.265  0.6875  0.7738 -0.3364
 3426SOL    HW213703   3.571   1.409   0.337  1.4192 -1.2192  1.7416
 3426SOL     MW13704   3.496   1.364   0.331  0.7254  0.0048  0.3312
 3427SOL     OW13705  -0.001   3.603   2.433 -0.1119 -0.1441 -0.3185
 3427SOL    HW113706   0.088   3.632   2.415  0.6356 -1.2382  1.3559
 3427SOL    HW213707  -0.040   3.674   2.484 -0.0157  0.0962 -0.5790
 3427SOL     MW13708   0.005   3.616   2.438 -0.0039 -0.2534 -0.1375
 3428SOL     OW13709   3.071   0.760   0.070  0.3961 -0.0070  0.1303
 3428SOL    HW113710   3.001   0.823   0.049  0.6795  0.3062  0.1230
 3428SOL    HW213711   3.100   0.728  -0.016 -0.1365 -0.5792  0.1555
 3428SOL     MW13712   3.066   0.764   0.056  0.3642 -0.0402  0.1326
 3429SOL     OW13713   4.928   1.727   1.452  0.6337 -0.1614  0.1091
 3429SOL    HW113714   5.008   1.780   1.453  0.4981  0.0526  0.9864
 3429SOL    HW213715   4.864   1.781   1.499  1.1153 -2.0108  3.1543
 3429SOL     MW13716   4.930   1.741   1.458  0.6780 -0.3707  0.6112
 3430SOL     OW13717   1.007   0.004   3.179 -0.2217  0.0198 -0.8459
 3430SOL    HW113718   1.093   0.028   3.146  0.7143 -1.1844  0.5724
 3430SOL    HW213719   0.985   0.072   3.242  0.6792 -0.7445  0.3360
 3430SOL     MW13720   1.015   0.016   3.182  0.0135 -0.2322 -0.5130
 3431SOL     OW13721   3.463   0.874   2.186 -0.2046 -0.3214  0.8227
 3431SOL    HW113722   3.551   0.842   2.168  0.4607  0.2987  2.7786
 3431SOL    HW213723   3.476   0.962   2.220 -1.7657  0.7170 -1.0902
 3431SOL     MW13724   3.476   0.881   2.188 -0.3193 -0.1091  0.8282
 3432SOL     OW13725   3.902   0.745   3.092  0.0045 -0.4574  0.7030
 3432SOL    HW113726   3.827   0.787   3.051 -0.7340 -1.9420  0.4519
 3432SOL    HW213727   3.870   0.714   3.176  0.8846  0.5699  1.4353
 3432SOL     MW13728   3.888   0.746   3.097  0.0226 -0.5160  0.7646
 3433SOL     OW13729   2.949   2.869   4.950 -0.2620 -0.1811  0.1374
 3433SOL    HW113730   2.866   2.823   4.939 -0.3223 -0.2626  0.9360
 3433SOL    HW213731   2.963   2.912   4.865 -0.3696 -1.3771 -0.4963
 3433SOL     MW13732   2.940   2.869   4.938 -0.2835 -0.3446  0.1585
 3434SOL     OW13733   2.862   2.039   1.641 -0.2981  0.5636 -0.2448
 3434SOL    HW113734   2.772   2.070   1.635 -0.9778 -0.7549  1.7507
 3434SOL    HW213735   2.886   2.054   1.733  0.6261 -1.2453 -0.1455
 3434SOL     MW13736   2.854   2.045   1.652 -0.2668  0.1632  0.0233
 3435SOL     OW13737   0.521   2.666   2.891  0.7905  0.4368 -0.1022
 3435SOL    HW113738   0.543   2.681   2.983  2.2177  0.9443 -0.4991
 3435SOL    HW213739   0.432   2.700   2.882  0.9840  1.2605  0.8834
 3435SOL     MW13740   0.512   2.672   2.902  0.9980  0.6072 -0.0269
 3436SOL     OW13741   3.641   5.040   0.554  0.0299 -0.0971 -0.1881
 3436SOL    HW113742   3.584   5.038   0.477 -2.3797  0.1625  1.4750
 3436SOL    HW213743   3.667   5.131   0.562 -0.4416  0.0477 -0.2246
 3436SOL     MW13744   3.637   5.051   0.545 -0.3389 -0.0453  0.0201
 3437SOL     OW13745   0.083   5.016   1.912 -0.4305 -0.2111  0.0076
 3437SOL    HW113746   0.144   5.023   1.838 -0.6828  1.0664 -0.1057
 3437SOL    HW213747   0.068   4.922   1.922  2.0635 -0.6292  0.4764
 3437SOL     MW13748   0.089   5.005   1.903 -0.1436 -0.1011  0.0531
 3438SOL     OW13749   1.967   2.282   1.376 -0.8355 -0.2664  0.2191
 3438SOL    HW113750   2.039   2.339   1.347 -0.4693 -0.0780  1.4120
 3438SOL    HW213751   2.008   2.223   1.439 -1.1066 -2.2216 -1.3461
 3438SOL     MW13752   1.982   2.282   1.380 -0.8233 -0.4926  0.1715
 3439SOL     OW13753   4.165   0.398   1.511 -0.2766 -0.4530  0.2079
 3439SOL    HW113754   4.165   0.475   1.455 -0.2826  0.1043  0.9503
 3439SOL    HW213755   4.113   0.333   1.464 -0.1573 -0.0495 -0.4866
 3439SOL     MW13756   4.159   0.399   1.498 -0.2621 -0.3300  0.2140
 3440SOL     OW13757   0.241   4.123   1.498 -0.1063 -0.1038  0.3761
 3440SOL    HW113758   0.229   4.115   1.404  2.5179 -1.0277  0.0342
 3440SOL    HW213759   0.268   4.036   1.527 -1.4861 -0.0130  2.1406
 3440SOL     MW13760   0.243   4.111   1.490  0.0530 -0.2105  0.5582
 3441SOL     OW13761   3.569   0.472   4.255 -0.4247  0.1678  0.3564
 3441SOL    HW113762   3.575   0.568   4.259  0.9675  0.0724  1.2528
 3441SOL    HW213763   3.477   0.453   4.270 -0.3977  1.3071  2.2353
 3441SOL     MW13764   3.558   0.482   4.257 -0.2430  0.3014  0.7117
 3442SOL     OW13765   0.906   2.171   2.186 -0.6930  0.2313  0.0995
 3442SOL    HW113766   0.991   2.214   2.200  0.1081 -0.8697 -1.1070
 3442SOL    HW213767   0.856   2.234   2.134  0.4633 -0.1963 -1.6392
 3442SOL     MW13768   0.911   2.185   2.181 -0.4424  0.0356 -0.2776
 3443SOL     OW13769   2.894   5.516   3.649  0.2527  0.0055  0.3512
 3443SOL    HW113770   2.977   5.479   3.679  0.1183 -0.5238  0.0887
 3443SOL    HW213771   2.833   5.442   3.650 -0.1803  0.3588  0.4033
 3443SOL     MW13772   2.897   5.502   3.653  0.1801 -0.0170  0.3243
 3444SOL     OW13773   1.939   2.652   1.050  0.0132 -0.7233 -0.0451
 3444SOL    HW113774   1.887   2.656   0.970  1.2313  0.6323 -0.8162
 3444SOL    HW213775   1.892   2.590   1.106 -3.0796  1.2632 -0.2119
 3444SOL     MW13776   1.927   2.644   1.047 -0.2268 -0.2955 -0.1652
 3445SOL     OW13777   4.738   3.886   1.440 -0.2209 -0.6442  0.2382
 3445SOL    HW113778   4.813   3.826   1.435  1.1790  1.0619 -0.5686
 3445SOL    HW213779   4.746   3.928   1.526  2.1109  2.2432 -1.1742
 3445SOL     MW13780   4.749   3.884   1.450  0.2568 -0.0562 -0.0459
 3446SOL     OW13781   4.107   2.723   1.281 -0.3485  0.6569 -0.1372
 3446SOL    HW113782   4.040   2.683   1.337  0.1176 -0.4526 -0.3399
 3446SOL    HW213783   4.077   2.812   1.267 -0.8891  0.7049  1.2151
 3446SOL     MW13784   4.094   2.729   1.286 -0.3581  0.5210  0.0100
 3447SOL     OW13785   3.899   3.361   0.614  0.0748 -0.4949 -0.2922
 3447SOL    HW113786   3.910   3.326   0.702 -0.1347  0.6512  0.2087
 3447SOL    HW213787   3.861   3.289   0.564  2.7230 -2.1058 -0.1702
 3447SOL     MW13788   3.896   3.348   0.619  0.3870 -0.5544 -0.2125
 3448SOL     OW13789   0.783   2.953   3.155 -0.3164  0.3760  0.6651
 3448SOL    HW113790   0.698   2.936   3.113 -0.0003  0.2456  0.0675
 3448SOL    HW213791   0.768   2.934   3.248 -0.4415 -1.5685  0.2870
 3448SOL     MW13792   0.770   2.948   3.162 -0.2920  0.1104  0.5402
 3449SOL     OW13793   1.677   5.399   4.398  0.0942  0.1242 -0.3286
 3449SOL    HW113794   1.683   5.359   4.485 -0.7268 -1.1967 -0.8467
 3449SOL    HW213795   1.666   5.493   4.415  0.3601 -0.0594  0.9680
 3449SOL     MW13796   1.677   5.406   4.411  0.0231 -0.0684 -0.2289
 3450SOL     OW13797   3.786   1.750   5.245 -0.0874  0.3498 -0.4165
 3450SOL    HW113798   3.808   1.691   5.317 -0.1540 -1.8960 -2.0888
 3450SOL    HW213799   3.845   1.723   5.174 -0.2888  2.1945 -1.3502
 3450SOL     MW13800   3.797   1.739   5.245 -0.1217  0.2985 -0.7501
 3451SOL     OW13801   0.085   3.440   1.103 -0.3559  0.5471  0.3241
 3451SOL    HW113802  -0.002   3.427   1.140 -0.6732  0.4773 -0.4349
 3451SOL    HW213803   0.119   3.518   1.147 -0.9558  0.8002  0.3412
 3451SOL     MW13804   0.078   3.449   1.114 -0.4733  0.5705  0.2292
 3452SOL     OW13805   1.552   1.204   5.228 -0.7028 -0.1198 -0.0075
 3452SOL    HW113806   1.551   1.282   5.173  0.2276 -0.7013 -0.8683
 3452SOL    HW213807   1.513   1.234   5.311  1.0189  1.6674  0.2385
 3452SOL     MW13808   1.547   1.218   5.232 -0.3633  0.0345 -0.0862
 3453SOL     OW13809   3.369   4.860   0.467  0.6982 -0.0575  0.2736
 3453SOL    HW113810   3.382   4.783   0.413 -0.0918 -1.1292  1.5508
 3453SOL    HW213811   3.399   4.933   0.413 -0.0085 -1.0709 -1.5638
 3453SOL     MW13812   3.375   4.860   0.453  0.5066 -0.3244  0.2019
 3454SOL     OW13813   3.937   3.591   0.459 -0.3495  0.1587  0.1861
 3454SOL    HW113814   3.925   3.527   0.529 -2.7333  2.2462  1.8227
 3454SOL    HW213815   3.861   3.580   0.403  0.8416 -0.5272 -1.3861
 3454SOL     MW13816   3.926   3.581   0.461 -0.5022  0.3381  0.1943
 3455SOL     OW13817   2.359   4.553   2.801 -0.8811 -0.3596 -0.0648
 3455SOL    HW113818   2.301   4.618   2.761 -1.5574  0.4605  2.0939
 3455SOL    HW213819   2.359   4.480   2.740 -1.4200  1.0040 -1.7807
 3455SOL     MW13820   2.351   4.552   2.789 -1.0367 -0.0800 -0.0081
 3456SOL     OW13821   0.319   3.765   4.321  0.5101  0.3770  0.6000
 3456SOL    HW113822   0.258   3.788   4.391  0.0360  0.1808  0.2548
 3456SOL    HW213823   0.297   3.826   4.250 -0.1706 -0.5516 -0.0060
 3456SOL     MW13824   0.308   3.776   4.321  0.3623  0.2330  0.4782
 3457SOL     OW13825   4.725   3.993   1.174 -0.1853  0.3775  0.2498
 3457SOL    HW113826   4.718   3.954   1.261 -0.0060  1.1339  0.6168
 3457SOL    HW213827   4.814   3.972   1.145  0.1004  0.9535  0.6769
 3457SOL     MW13828   4.736   3.986   1.181 -0.1258  0.5481  0.3515
 3458SOL     OW13829   2.960   3.265   1.876  0.1013  0.0576  0.1816
 3458SOL    HW113830   2.982   3.288   1.785 -0.3969  1.0690  0.3042
 3458SOL    HW213831   3.018   3.320   1.929 -1.0184  0.9869  0.4816
 3458SOL     MW13832   2.970   3.275   1.871 -0.1058  0.3060  0.2357
 3459SOL     OW13833   0.892   3.024   1.914 -0.3115  0.0211  0.1582
 3459SOL    HW113834   0.967   3.039   1.972 -0.0728  0.1426 -0.1790
 3459SOL    HW213835   0.815   3.039   1.969 -0.1500  3.4078 -0.3377
 3459SOL     MW13836   0.892   3.028   1.929 -0.2603  0.4702  0.0515
 3460SOL     OW13837   4.064   1.418   5.466  0.0663  1.0012 -0.1827
 3460SOL    HW113838   4.033   1.479   5.534  1.3668 -1.9504  3.4049
 3460SOL    HW213839   4.156   1.441   5.454  0.5469 -0.0710  1.1433
 3460SOL     MW13840   4.072   1.429   5.473  0.2943  0.4861  0.4463
 3461SOL     OW13841   1.679   3.435   0.211  0.1182 -0.5628 -0.5589
 3461SOL    HW113842   1.719   3.519   0.190  1.4731 -0.8691  0.6457
 3461SOL    HW213843   1.585   3.454   0.215  0.5129  1.3895  1.5835
 3461SOL     MW13844   1.672   3.448   0.209  0.3422 -0.3521 -0.1305
 3462SOL     OW13845   4.970   3.933   4.684  0.1260  0.1331  0.4080
 3462SOL    HW113846   4.978   3.997   4.754  1.2176 -0.6619  1.0379
 3462SOL    HW213847   5.059   3.904   4.666 -0.2338 -0.4179 -0.6129
 3462SOL     MW13848   4.982   3.937   4.691  0.2197 -0.0392  0.3580
 3463SOL     OW13849   4.124   3.876   5.263  0.0147 -0.0708 -0.3190
 3463SOL    HW113850   4.053   3.910   5.317  1.0724  1.8549 -0.0510
 3463SOL    HW213851   4.203   3.910   5.304  0.9809 -0.5588 -1.7172
 3463SOL     MW13852   4.125   3.885   5.275  0.2738  0.1133 -0.4637
 3464SOL     OW13853   3.038   0.031   0.714 -0.3530 -0.1470  0.7671
 3464SOL    HW113854   2.960  -0.004   0.757 -0.0999 -1.8274 -0.0748
 3464SOL    HW213855   3.005   0.068   0.632 -0.3863  0.0187  0.8545
 3464SOL     MW13856   3.024   0.031   0.709 -0.3249 -0.3409  0.6705
 3465SOL     OW13857   3.603   2.860   3.316  0.1524  0.0686  0.3813
 3465SOL    HW113858   3.659   2.928   3.279  0.3720  0.6761  1.7705
 3465SOL    HW213859   3.520   2.869   3.270  1.1459 -0.8282 -1.6847
 3465SOL     MW13860   3.600   2.870   3.306  0.3077  0.0316  0.2946
 3466SOL     OW13861   4.531   3.126   3.675  0.0175  0.2197  0.4927
 3466SOL    HW113862   4.475   3.188   3.628 -0.0718  0.5888  1.0704
 3466SOL    HW213863   4.471   3.076   3.729  0.1298 -0.1413  0.2853
 3466SOL     MW13864   4.516   3.128   3.676  0.0205  0.2207  0.5401
 3467SOL     OW13865   4.259   1.407   4.116 -0.3527 -0.0020 -0.7945
 3467SOL    HW113866   4.316   1.468   4.070 -1.2804  0.5815 -1.1873
 3467SOL    HW213867   4.263   1.435   4.208 -1.0299  0.8763 -1.0170
 3467SOL     MW13868   4.267   1.418   4.122 -0.5582  0.1852 -0.8732
 3468SOL     OW13869   2.649   4.861   2.302  0.2954 -0.3197 -0.1316
 3468SOL    HW113870   2.708   4.935   2.288  2.1322 -1.8523 -0.9667
 3468SOL    HW213871   2.678   4.823   2.385  1.3698 -1.8023 -1.1352
 3468SOL     MW13872   2.660   4.866   2.311  0.6680 -0.7057 -0.3670
 3469SOL     OW13873   0.548   0.316   0.861 -0.4920 -0.1337  0.0579
 3469SOL    HW113874   0.607   0.266   0.918 -1.5857 -2.1216 -0.4505
 3469SOL    HW213875   0.547   0.404   0.899  0.8417 -0.6995  1.5252
 3469SOL     MW13876   0.556   0.321   0.873 -0.4613 -0.4606  0.1807
 3470SOL     OW13877   2.068   4.693   1.882 -0.1359  0.7182  0.1515
 3470SOL    HW113878   2.118   4.744   1.818  0.3685 -1.0792 -0.9681
 3470SOL    HW213879   2.132   4.632   1.919 -1.2168 -0.8426 -0.4581
 3470SOL     MW13880   2.083   4.692   1.879 -0.2097  0.2883 -0.0699
 3471SOL     OW13881   1.794   0.082   5.424  0.0841 -0.4233  0.2925
 3471SOL    HW113882   1.818   0.014   5.362 -1.6424 -2.2452  1.5064
 3471SOL    HW213883   1.869   0.090   5.483  0.6092 -0.6827 -0.3342
 3471SOL     MW13884   1.807   0.074   5.424 -0.0697 -0.6897  0.3677
 3472SOL     OW13885   1.904   1.848   1.657  0.1101 -0.3835  0.1525
 3472SOL    HW113886   1.938   1.836   1.746  2.8338 -1.0320 -0.8758
 3472SOL    HW213887   1.822   1.798   1.656  0.9326 -1.8958  1.7800
 3472SOL     MW13888   1.898   1.840   1.669  0.5640 -0.6601  0.2292
 3473SOL     OW13889   0.932   2.502   0.800 -0.1422 -0.6230  0.1150
 3473SOL    HW113890   0.888   2.586   0.796  0.3901 -0.3282  0.3993
 3473SOL    HW213891   0.875   2.443   0.750 -0.6793 -0.1745  0.1864
 3473SOL     MW13892   0.919   2.505   0.794 -0.1428 -0.5278  0.1606
 3474SOL     OW13893   3.045   3.121   5.104 -0.2484 -0.2254  0.3207
 3474SOL    HW113894   3.017   3.045   5.053  0.4498 -1.0106  1.0822
 3474SOL    HW213895   3.089   3.084   5.180  1.9502  0.9438 -0.3231
 3474SOL     MW13896   3.047   3.107   5.107  0.1224 -0.1763  0.3358
 3475SOL     OW13897   1.704   0.716   3.023  0.1119  0.2047  0.0864
 3475SOL    HW113898   1.741   0.717   2.934  0.1650 -0.0179  0.1034
 3475SOL    HW213899   1.683   0.807   3.042 -1.4050  0.0701 -0.7763
 3475SOL     MW13900   1.706   0.728   3.014 -0.0754  0.1590 -0.0218
 3476SOL     OW13901   4.029   0.287   2.111 -0.2822  0.5094  1.0658
 3476SOL    HW113902   4.000   0.343   2.040  1.4055  0.9935  0.7153
 3476SOL    HW213903   4.003   0.199   2.085  0.6258  0.6288 -0.3506
 3476SOL     MW13904   4.022   0.283   2.099  0.0501  0.5867  0.8396
 3477SOL     OW13905   2.959   3.406   4.608 -0.1838 -0.4719 -0.2810
 3477SOL    HW113906   3.033   3.435   4.662  0.3267  0.7777 -1.6027
 3477SOL    HW213907   2.885   3.459   4.638 -0.2017 -0.6503  0.0008
 3477SOL     MW13908   2.959   3.416   4.619 -0.1207 -0.3348 -0.4141
 3478SOL     OW13909   3.272   5.305   1.444 -0.0297  0.0097  0.6799
 3478SOL    HW113910   3.272   5.368   1.371 -1.2252 -1.0575 -0.2927
 3478SOL    HW213911   3.291   5.358   1.521  0.7757  1.2582 -0.3315
 3478SOL     MW13912   3.274   5.320   1.444 -0.0796  0.0329  0.4259
 3479SOL     OW13913   3.845   2.008   0.114  0.0321  0.7128 -0.9758
 3479SOL    HW113914   3.802   2.001   0.200 -0.4374  0.5951 -1.2178
 3479SOL    HW213915   3.775   1.993   0.051  0.1407  1.9312 -1.4076
 3479SOL     MW13916   3.830   2.005   0.117 -0.0141  0.8537 -1.0620
 3480SOL     OW13917   0.668   2.616   5.192 -0.0847 -0.4907  0.3017
 3480SOL    HW113918   0.622   2.693   5.227 -0.3558 -0.0938 -0.8917
 3480SOL    HW213919   0.621   2.595   5.111  1.2386 -0.6625 -0.4470
 3480SOL     MW13920   0.656   2.623   5.186  0.0500 -0.4619  0.0531
 3481SOL     OW13921   3.608   4.607   3.144  0.4082 -0.6156  0.4936
 3481SOL    HW113922   3.630   4.698   3.123  0.6700 -0.9916 -0.9373
 3481SOL    HW213923   3.686   4.573   3.188  0.3226 -0.1631  1.0006
 3481SOL     MW13924   3.621   4.614   3.147  0.4307 -0.6058  0.3753
 3482SOL     OW13925   3.829   4.588   3.849 -0.0930 -0.5741 -0.2497
 3482SOL    HW113926   3.918   4.572   3.880  0.3058 -1.4832 -1.7498
 3482SOL    HW213927   3.836   4.670   3.800 -0.8247  1.1299  2.2860
 3482SOL     MW13928   3.841   4.596   3.847 -0.1356 -0.4723 -0.1171
 3483SOL     OW13929   2.415   3.427   4.229 -0.7746  0.1090  0.6419
 3483SOL    HW113930   2.355   3.498   4.205 -0.8024  0.2815  1.2148
 3483SOL    HW213931   2.396   3.410   4.321 -1.5780 -1.4267  0.2154
 3483SOL     MW13932   2.405   3.434   4.237 -0.8810 -0.0655  0.6607
 3484SOL     OW13933   1.149   0.564   3.436 -0.6193 -0.0507  0.8552
 3484SOL    HW113934   1.063   0.567   3.479 -0.6558 -1.5065  0.9252
 3484SOL    HW213935   1.140   0.622   3.360 -1.5587  0.0599  1.0385
 3484SOL     MW13936   1.137   0.572   3.432 -0.7442 -0.2229  0.8876
 3485SOL     OW13937   3.944   3.789   3.020 -0.3138  0.6889  0.9679
 3485SOL    HW113938   3.970   3.874   2.986 -1.3730  0.6279 -0.0213
 3485SOL    HW213939   4.020   3.733   3.005 -0.2802  1.0003 -0.0785
 3485SOL     MW13940   3.957   3.792   3.014 -0.4451  0.7209  0.7074
 3486SOL     OW13941   4.385   1.979   3.047  0.2022  0.0480  0.5704
 3486SOL    HW113942   4.477   2.001   3.063  0.5100 -0.3952 -0.4443
 3486SOL    HW213943   4.373   1.895   3.092  1.2940 -1.6219 -1.9787
 3486SOL     MW13944   4.395   1.971   3.055  0.3813 -0.2225  0.1142
 3487SOL     OW13945   1.966   2.238   0.918  0.5372  0.4351  0.1743
 3487SOL    HW113946   1.999   2.193   0.840  2.6739 -0.9867  1.7694
 3487SOL    HW213947   1.871   2.239   0.906  0.6521 -1.4194 -1.5896
 3487SOL     MW13948   1.958   2.232   0.906  0.8254  0.0157  0.1527
 3488SOL     OW13949   3.078   1.348   3.146  0.6963  0.5644 -0.2540
 3488SOL    HW113950   3.007   1.383   3.093 -0.0532 -0.3779  0.0974
 3488SOL    HW213951   3.043   1.344   3.235  1.7906  1.7108  0.2647
 3488SOL     MW13952   3.065   1.352   3.151  0.7404  0.5905 -0.1426
 3489SOL     OW13953   3.877   3.548   1.920  0.0811 -0.7865  0.6526
 3489SOL    HW113954   3.791   3.534   1.960  0.3276  2.6830  2.7488
 3489SOL    HW213955   3.914   3.459   1.912 -3.6685 -2.4275 -0.5524
 3489SOL     MW13956   3.871   3.535   1.924 -0.3673 -0.5525  0.7667
 3490SOL     OW13957   4.181   4.114   0.510  0.1488 -0.4540  0.3630
 3490SOL    HW113958   4.114   4.050   0.531  1.0851 -1.7464 -0.4064
 3490SOL    HW213959   4.135   4.198   0.506 -1.2105 -1.1590  0.8220
 3490SOL     MW13960   4.167   4.117   0.512  0.0947 -0.7097  0.3232
 3491SOL     OW13961   0.713   2.218   1.032  0.8265 -0.4690 -0.1174
 3491SOL    HW113962   0.625   2.243   1.003  1.2242 -0.0732 -1.0040
 3491SOL    HW213963   0.726   2.130   0.997  0.6638 -0.6617  0.2953
 3491SOL     MW13964   0.703   2.210   1.024  0.8566 -0.4430 -0.1781
 3492SOL     OW13965   3.034   2.785   5.467  0.3393 -0.6761 -0.1194
 3492SOL    HW113966   3.008   2.706   5.516  0.5452 -1.3454 -1.0653
 3492SOL    HW213967   2.979   2.854   5.504  1.1877 -0.9374  1.7679
 3492SOL     MW13968   3.023   2.783   5.478  0.4742 -0.7952  0.0011
 3493SOL     OW13969   2.250   3.010   3.180 -0.1300  0.4793  0.3875
 3493SOL    HW113970   2.284   3.087   3.135  0.5063 -0.4927 -0.8769
 3493SOL    HW213971   2.318   2.944   3.168 -2.3738 -1.5865 -2.3473
 3493SOL     MW13972   2.263   3.011   3.173 -0.3358  0.0904 -0.1245
 3494SOL     OW13973   3.249   0.546   2.096 -0.0386  0.3750  0.3180
 3494SOL    HW113974   3.186   0.594   2.041  0.3256  1.0710  0.4918
 3494SOL    HW213975   3.326   0.535   2.041 -0.3455 -0.5647  0.0737
 3494SOL     MW13976   3.251   0.551   2.082 -0.0312  0.3438  0.3090
 3495SOL     OW13977   2.643   0.440   2.853  0.0064 -0.1085  0.1360
 3495SOL    HW113978   2.588   0.452   2.931  0.6738  2.3707  0.2912
 3495SOL    HW213979   2.629   0.519   2.801  2.0701 -0.2025 -0.6659
 3495SOL     MW13980   2.634   0.451   2.857  0.3560  0.1968  0.0532
 3496SOL     OW13981   3.406   3.950   3.916  0.8075 -0.2072 -0.3296
 3496SOL    HW113982   3.399   3.858   3.940 -1.7194  0.2593  0.9729
 3496SOL    HW213983   3.444   3.992   3.993 -1.6711  0.3731  0.6446
 3496SOL     MW13984   3.410   3.944   3.929  0.1667 -0.0732 -0.0381
 3497SOL     OW13985   4.775   5.170   3.672 -0.4120  0.0757 -0.0270
 3497SOL    HW113986   4.763   5.227   3.596 -1.5793 -1.6060 -1.1772
 3497SOL    HW213987   4.870   5.159   3.680 -0.2622  0.4721 -1.1037
 3497SOL     MW13988   4.786   5.176   3.664 -0.5423 -0.0889 -0.3120
 3498SOL     OW13989   1.476   3.114   1.484  0.2932  0.1914  0.5000
 3498SOL    HW113990   1.488   3.080   1.396  2.4201  2.1588 -0.0652
 3498SOL    HW213991   1.424   3.048   1.529 -1.6767 -0.4333 -2.4669
 3498SOL     MW13992   1.471   3.102   1.479  0.3133  0.3633  0.0479
 3499SOL     OW13993   0.684   5.100   2.010 -0.7009 -0.9842 -0.0121
 3499SOL    HW113994   0.732   5.119   2.090 -1.2896  0.5765 -0.0073
 3499SOL    HW213995   0.676   5.004   2.010  2.5806 -1.3586 -0.1587
 3499SOL     MW13996   0.689   5.090   2.020 -0.3562 -0.8324 -0.0303
 3500SOL     OW13997   4.367   3.802   4.683  0.2495 -0.1173 -0.8377
 3500SOL    HW113998   4.454   3.773   4.710 -0.4615 -1.0007  0.6143
 3500SOL    HW213999   4.326   3.835   4.763 -1.3835 -1.3874 -1.0821
 3500SOL     MW14000   4.373   3.802   4.697 -0.0506 -0.3929 -0.6831
 3501SOL     OW14001   3.372   1.195   3.753 -0.1019 -0.4114 -0.4738
 3501SOL    HW114002   3.392   1.110   3.790  2.1483  0.3982  0.3161
 3501SOL    HW214003   3.456   1.231   3.725 -0.7614  2.0438  0.3583
 3501SOL     MW14004   3.385   1.189   3.754  0.1017  0.0065 -0.2662
 3502SOL     OW14005   0.879   1.792   4.354  0.1645 -0.1516  0.1464
 3502SOL    HW114006   0.803   1.738   4.376 -0.6000  0.7418 -0.2296
 3502SOL    HW214007   0.941   1.732   4.312  0.4364 -1.2720  2.0323
 3502SOL     MW14008   0.877   1.778   4.351  0.1014 -0.1806  0.3397
 3503SOL     OW14009   5.131   1.328   1.216  0.4663 -0.2705  0.4700
 3503SOL    HW114010   5.202   1.392   1.225 -0.5868  0.9720  0.2765
 3503SOL    HW214011   5.164   1.249   1.260  1.6487  0.5172  1.0647
 3503SOL     MW14012   5.145   1.326   1.223  0.4829 -0.0106  0.5213
 3504SOL     OW14013   5.301   1.520   2.231 -0.6931  0.3296  0.0571
 3504SOL    HW114014   5.259   1.552   2.311  1.8083  1.5642  0.9818
 3504SOL    HW214015   5.360   1.451   2.260 -1.9425 -1.3833 -1.2114
 3504SOL     MW14016   5.303   1.515   2.245 -0.5329  0.2684  0.0131
 3505SOL     OW14017   0.079   4.645   1.631 -1.0349  0.1454 -0.3724
 3505SOL    HW114018   0.171   4.636   1.606 -1.1895 -1.6918 -0.3811
 3505SOL    HW214019   0.081   4.656   1.726 -0.8504 -1.2158 -0.2036
 3505SOL     MW14020   0.091   4.645   1.640 -1.0311 -0.2641 -0.3519
 3506SOL     OW14021   2.044   2.081   4.767  0.6564 -0.0272 -0.2115
 3506SOL    HW114022   1.996   2.037   4.696  1.3278  0.4091 -0.9553
 3506SOL    HW214023   2.131   2.041   4.766  0.0155 -1.6482  1.8984
 3506SOL     MW14024   2.049   2.070   4.758  0.6603 -0.1789 -0.0366
 3507SOL     OW14025   0.400   1.959   0.284 -0.3306  0.3035 -0.0666
 3507SOL    HW114026   0.383   1.982   0.192  0.9999 -0.0245 -0.4251
 3507SOL    HW214027   0.331   2.003   0.333 -1.4045  0.0151 -1.2737
 3507SOL     MW14028   0.389   1.968   0.278 -0.2978  0.2246 -0.2670
 3508SOL     OW14029   0.357   5.473   0.773  0.0703  0.0331  0.1427
 3508SOL    HW114030   0.337   5.396   0.720 -1.0731  1.0103 -0.9032
 3508SOL    HW214031   0.443   5.455   0.810  0.1780 -1.3910 -0.7270
 3508SOL     MW14032   0.365   5.461   0.771 -0.0623 -0.0241 -0.1025
 3509SOL     OW14033   3.790   1.671   0.335 -0.4441 -0.4181 -0.4921
 3509SOL    HW114034   3.801   1.660   0.429  1.3026 -0.4791 -0.6764
 3509SOL    HW214035   3.780   1.582   0.301  0.6284 -0.5363 -0.5335
 3509SOL     MW14036   3.790   1.658   0.343 -0.0832 -0.4410 -0.5210
 3510SOL     OW14037   2.166   0.382   2.141 -0.0923  0.4081 -0.3481
 3510SOL    HW114038   2.159   0.310   2.078  1.6491  0.3561 -0.5327
 3510SOL    HW214039   2.168   0.339   2.227 -0.1310  0.3230 -0.3895
 3510SOL     MW14040   2.165   0.367   2.144  0.1257  0.3905 -0.3770
 3511SOL     OW14041   2.695   4.540   4.862  0.4382  0.2006  0.2325
 3511SOL    HW114042   2.707   4.635   4.863  0.4721  0.1941  0.7772
 3511SOL    HW214043   2.779   4.504   4.888  0.7516 -0.0269 -1.0091
 3511SOL     MW14044   2.707   4.547   4.865  0.4827  0.1706  0.1433
 3512SOL     OW14045   3.215   0.675   4.961 -0.0649 -0.3586 -0.1781
 3512SOL    HW114046   3.167   0.634   4.889  0.6720  0.8822 -1.4247
 3512SOL    HW214047   3.287   0.721   4.919  0.3229  0.5117  1.3502
 3512SOL     MW14048   3.218   0.675   4.946  0.0791 -0.0884 -0.1420
 3513SOL     OW14049   4.096   4.579   3.968  0.0030  0.2219  0.3310
 3513SOL    HW114050   4.142   4.541   4.042  0.2680 -0.4581 -0.1728
 3513SOL    HW214051   4.166   4.608   3.908 -0.1109  3.0440  1.3985
 3513SOL     MW14052   4.111   4.578   3.970  0.0224  0.4961  0.4031
 3514SOL     OW14053   1.578   2.408   5.259 -0.1600  0.4156 -0.6999
 3514SOL    HW114054   1.490   2.439   5.280  0.4882  1.5569  0.4472
 3514SOL    HW214055   1.571   2.313   5.258 -1.4581  0.5028 -0.8806
 3514SOL     MW14056   1.566   2.400   5.261 -0.2432  0.5728 -0.5762
 3515SOL     OW14057   4.113   1.014   4.819 -0.0397  0.4597 -0.5545
 3515SOL    HW114058   4.151   1.033   4.904 -0.4959  0.1000 -0.2625
 3515SOL    HW214059   4.074   1.096   4.790  0.0445  0.5620 -0.3754
 3515SOL     MW14060   4.113   1.027   4.826 -0.0874  0.4267 -0.4942
 3516SOL     OW14061   2.311   3.783   2.528 -0.0046  0.0397 -0.5325
 3516SOL    HW114062   2.385   3.817   2.579 -0.9986  1.4330  0.0417
 3516SOL    HW214063   2.297   3.849   2.460 -1.0488  0.0612 -0.3030
 3516SOL     MW14064   2.319   3.796   2.526 -0.2655  0.2208 -0.4296
 3517SOL     OW14065   3.211   2.059   4.128 -0.0438 -0.1000 -0.0413
 3517SOL    HW114066   3.258   1.987   4.169 -2.3670 -1.4880  0.3791
 3517SOL    HW214067   3.144   2.083   4.192 -0.3755  1.3360 -0.8784
 3517SOL     MW14068   3.208   2.053   4.142 -0.3837 -0.0939 -0.0947
 3518SOL     OW14069   0.888   2.785   4.530 -0.1292 -0.1168  0.3037
 3518SOL    HW114070   0.917   2.770   4.620  0.9229  0.4447  0.0712
 3518SOL    HW214071   0.797   2.754   4.529  0.2034 -1.1725  1.2553
 3518SOL     MW14072   0.880   2.779   4.542  0.0481 -0.1801  0.3958
 3519SOL     OW14073   4.293   2.551   3.007 -0.2856  0.1719  0.3729
 3519SOL    HW114074   4.273   2.607   2.932  0.2463  2.8554  2.0811
 3519SOL    HW214075   4.381   2.578   3.034 -0.1290 -1.3237  1.4855
 3519SOL     MW14076   4.302   2.562   3.001 -0.1975  0.3240  0.7340
 3520SOL     OW14077   4.566   2.356   1.848  0.0513  0.6405 -0.5369
 3520SOL    HW114078   4.488   2.411   1.840 -1.2504 -1.0679 -0.1892
 3520SOL    HW214079   4.533   2.271   1.878  1.8327 -0.6786 -2.0709
 3520SOL     MW14080   4.552   2.352   1.851  0.1127  0.2530 -0.6887
 3521SOL     OW14081   4.979   2.434   0.617  0.2525 -0.7932 -0.0331
 3521SOL    HW114082   4.911   2.469   0.675 -0.0434 -2.3242  0.5889
 3521SOL    HW214083   4.931   2.385   0.551  0.6332  0.3727 -1.2139
 3521SOL     MW14084   4.964   2.433   0.616  0.2634 -0.8399 -0.1046
 3522SOL     OW14085   2.687   1.525   3.458 -0.3448 -0.1711  0.2953
 3522SOL    HW114086   2.609   1.580   3.449 -1.0554 -1.2297 -0.1247
 3522SOL    HW214087   2.749   1.580   3.506 -0.6088  1.4356 -1.1251
 3522SOL     MW14088   2.685   1.539   3.463 -0.4695 -0.1010  0.0597
 3523SOL     OW14089   1.922   5.107   2.490  0.1665  0.0384  0.3136
 3523SOL    HW114090   1.924   5.015   2.465  1.3638  0.0112  0.4391
 3523SOL    HW214091   2.004   5.143   2.455  0.4380  0.7034  1.5661
 3523SOL     MW14092   1.933   5.100   2.482  0.3545  0.1200  0.4900
 3524SOL     OW14093   2.034   0.205   3.306  0.7359  0.0308  0.6165
 3524SOL    HW114094   2.028   0.278   3.245 -3.0801  0.3106  1.0944
 3524SOL    HW214095   2.082   0.138   3.259  2.8963  2.1893 -0.4625
 3524SOL     MW14096   2.039   0.206   3.292  0.5240  0.3429  0.5395
 3525SOL     OW14097   0.872   2.588   2.697  0.3436  0.2129  0.5653
 3525SOL    HW114098   0.919   2.666   2.668  1.6820 -0.7787 -0.0230
 3525SOL    HW214099   0.899   2.576   2.788  0.8425 -0.0450  0.3904
 3525SOL     MW14100   0.881   2.596   2.705  0.5788  0.0530  0.4676
 3526SOL     OW14101   1.012   2.504   5.032  0.2060 -0.2904  0.1087
 3526SOL    HW114102   1.040   2.420   5.068 -0.6903 -0.2090  1.0514
 3526SOL    HW214103   1.093   2.553   5.018  0.8175 -1.6436 -1.3713
 3526SOL     MW14104   1.026   2.500   5.035  0.1695 -0.4532  0.0399
 3527SOL     OW14105   3.567   0.727   4.184 -0.0775  0.3446 -0.0790
 3527SOL    HW114106   3.568   0.699   4.093  1.1354  2.3094 -0.7251
 3527SOL    HW214107   3.478   0.760   4.198  0.2037  1.5882 -1.0875
 3527SOL     MW14108   3.555   0.728   4.174  0.1138  0.7553 -0.2908
 3528SOL     OW14109   1.371   3.141   3.819  0.0224 -0.7425  0.0865
 3528SOL    HW114110   1.412   3.214   3.772 -1.1242  0.5250  0.9636
 3528SOL    HW214111   1.299   3.114   3.761  0.3410 -1.0786 -0.1589
 3528SOL     MW14112   1.367   3.147   3.805 -0.0836 -0.6233  0.1673
 3529SOL     OW14113   4.891   5.370   4.742  0.4237 -0.0476  0.6454
 3529SOL    HW114114   4.806   5.410   4.761  0.3733  0.1983 -0.0811
 3529SOL    HW214115   4.870   5.296   4.685  0.7445  0.3256  0.0423
 3529SOL     MW14116   4.877   5.365   4.737  0.4583  0.0317  0.4752
 3530SOL     OW14117   3.438   0.592   4.589 -0.0882  0.5573 -0.0053
 3530SOL    HW114118   3.512   0.548   4.546 -1.1006 -0.9358 -0.3103
 3530SOL    HW214119   3.384   0.623   4.517  0.2331  1.6701  0.2182
 3530SOL     MW14120   3.441   0.590   4.574 -0.1767  0.5086 -0.0157
 3531SOL     OW14121   5.015   4.498   2.728 -0.2020  0.3388  0.4580
 3531SOL    HW114122   4.921   4.502   2.747 -0.2771  1.5306 -0.0379
 3531SOL    HW214123   5.056   4.547   2.800 -0.0204  0.3806  0.3257
 3531SOL     MW14124   5.008   4.505   2.740 -0.1883  0.4967  0.3776
 3532SOL     OW14125   0.423   3.291   1.487  0.0662 -0.0878 -0.0982
 3532SOL    HW114126   0.463   3.283   1.401 -1.4014  2.1140 -1.0647
 3532SOL    HW214127   0.334   3.259   1.476  0.3036 -1.2374  1.0305
 3532SOL     MW14128   0.417   3.286   1.475 -0.0913  0.0469 -0.0774
 3533SOL     OW14129   4.544   2.912  -0.012  0.3970 -0.2587 -0.1942
 3533SOL    HW114130   4.564   2.908   0.081  1.6175 -2.3125 -0.4765
 3533SOL    HW214131   4.494   2.832  -0.029 -0.5107  0.4961 -1.1551
 3533SOL     MW14132   4.540   2.901  -0.003  0.4370 -0.4250 -0.3533
 3534SOL     OW14133   2.173   4.203   0.671  0.7305 -0.3738  0.8319
 3534SOL    HW114134   2.108   4.254   0.720  0.3782 -0.8541  0.8745
 3534SOL    HW214135   2.128   4.121   0.650  1.4109 -0.8326  1.1024
 3534SOL     MW14136   2.159   4.199   0.675  0.7725 -0.4940  0.8720
 3535SOL     OW14137   4.634   2.960   1.642  0.5494 -0.9406  0.4165
 3535SOL    HW114138   4.657   2.893   1.706 -1.5205 -2.0738  0.0702
 3535SOL    HW214139   4.660   3.043   1.684 -0.2010 -1.6867  2.4911
 3535SOL     MW14140   4.640   2.962   1.656  0.1883 -1.1812  0.6377
 3536SOL     OW14141   2.509   2.313   0.089  0.1771 -0.0664  0.2384
 3536SOL    HW114142   2.417   2.335   0.100  0.5558  1.7815 -0.0529
 3536SOL    HW214143   2.549   2.333   0.174  0.7032  1.3548 -0.3207
 3536SOL     MW14144   2.502   2.318   0.101  0.2929  0.3521  0.1295
 3537SOL     OW14145   3.952   2.470   5.398  0.4050 -0.8289  0.3233
 3537SOL    HW114146   3.863   2.486   5.429  0.2301  0.9759 -0.9093
 3537SOL    HW214147   3.946   2.481   5.303  2.1632  0.5837  0.3340
 3537SOL     MW14148   3.939   2.473   5.390  0.6077 -0.4170  0.1669
 3538SOL     OW14149   1.247   0.061   3.037 -0.0153  0.2170 -0.0255
 3538SOL    HW114150   1.288   0.144   3.014 -1.5642  0.6410 -1.3878
 3538SOL    HW214151   1.316   0.012   3.083  1.0983  1.9917  0.2621
 3538SOL     MW14152   1.261   0.065   3.040 -0.0710  0.4984 -0.1631
 3539SOL     OW14153   0.657   4.212   4.890  0.1927 -0.7456 -0.8101
 3539SOL    HW114154   0.614   4.270   4.827 -2.7477 -1.4199  0.4117
 3539SOL    HW214155   0.633   4.248   4.975  2.5780 -0.8955 -0.0193
 3539SOL     MW14156   0.648   4.224   4.893  0.1216 -0.8511 -0.5525
 3540SOL     OW14157   5.208   2.287   3.124 -0.0592  0.1772  0.2047
 3540SOL    HW114158   5.223   2.350   3.195  0.9615 -0.0396  0.1872
 3540SOL    HW214159   5.250   2.327   3.047  0.2451 -0.3371  0.1006
 3540SOL     MW14160   5.215   2.301   3.123  0.1104  0.0836  0.1891
 3541SOL     OW14161   1.052   1.595   0.506 -0.1171  0.0087 -0.4567
 3541SOL    HW114162   1.033   1.665   0.568 -1.9921 -0.1192 -0.8296
 3541SOL    HW214163   0.998   1.616   0.429 -0.7102 -1.8032 -0.5907
 3541SOL     MW14164   1.042   1.607   0.504 -0.4331 -0.2396 -0.5216
 3542SOL     OW14165   3.034   0.131   2.373  0.1120 -0.2968  0.1446
 3542SOL    HW114166   3.043   0.074   2.296 -1.3305  0.7072 -0.8262
 3542SOL    HW214167   2.959   0.095   2.421 -1.2905  1.1402 -0.8708
 3542SOL     MW14168   3.026   0.119   2.369 -0.2522  0.0157 -0.1097
 3543SOL     OW14169   4.084   1.120   3.032 -0.6869 -0.6558  0.1777
 3543SOL    HW114170   4.119   1.031   3.028 -1.0774 -0.7571 -2.7631
 3543SOL    HW214171   4.031   1.121   3.112  0.0179 -2.7678  0.7427
 3543SOL     MW14172   4.082   1.109   3.042 -0.6467 -0.9391 -0.1264
 3544SOL     OW14173   3.768   0.665   3.647 -0.6204  0.0283  0.7083
 3544SOL    HW114174   3.851   0.677   3.693  0.5850 -1.4795 -0.9582
 3544SOL    HW214175   3.741   0.754   3.624  1.2329  0.4884  0.1288
 3544SOL     MW14176   3.775   0.678   3.650 -0.2289 -0.1058  0.4208
 3545SOL     OW14177   2.326   4.298   5.131  0.2247 -0.0173  0.0003
 3545SOL    HW114178   2.349   4.221   5.181  1.7431  0.0326 -0.5674
 3545SOL    HW214179   2.286   4.357   5.195 -0.7796 -1.1657  0.4753
 3545SOL     MW14180   2.324   4.296   5.145  0.2905 -0.1579 -0.0116
 3546SOL     OW14181   0.896   0.106   3.506  0.5355  0.2080 -0.1574
 3546SOL    HW114182   0.902   0.104   3.601  0.9650  0.9363 -0.1610
 3546SOL    HW214183   0.926   0.193   3.482  0.4668  0.0178 -0.9660
 3546SOL     MW14184   0.901   0.117   3.515  0.5817  0.2769 -0.2614
 3547SOL     OW14185   1.440   3.294   3.484  0.0864 -0.0917  0.3209
 3547SOL    HW114186   1.369   3.230   3.492  0.8756 -0.8570  1.6425
 3547SOL    HW214187   1.459   3.319   3.574  1.1217  0.5258 -0.0574
 3547SOL     MW14188   1.433   3.289   3.497  0.3199 -0.1106  0.4416
 3548SOL     OW14189   0.651   1.640   2.357  0.4187 -0.0557  0.4093
 3548SOL    HW114190   0.569   1.688   2.363  0.5620  0.6138 -1.8667
 3548SOL    HW214191   0.668   1.634   2.263  1.3443 -3.0184  0.6601
 3548SOL     MW14192   0.643   1.645   2.345  0.5555 -0.3493  0.1500
 3549SOL     OW14193   2.555   1.101   1.321 -0.3180  0.1951 -0.3016
 3549SOL    HW114194   2.534   1.072   1.232 -1.4542  2.8252 -0.9967
 3549SOL    HW214195   2.639   1.146   1.313  0.1306 -0.5314  0.2106
 3549SOL     MW14196   2.563   1.103   1.309 -0.4060  0.4388 -0.3250
 3550SOL     OW14197   4.272   4.723   3.815 -0.0567  0.1385 -0.1361
 3550SOL    HW114198   4.349   4.696   3.766 -1.1157  1.3790 -2.7067
 3550SOL    HW214199   4.295   4.809   3.851  0.6816 -0.7238  1.5594
 3550SOL     MW14200   4.285   4.731   3.813 -0.0977  0.1869 -0.2481
 3551SOL     OW14201   1.513   2.131   1.905  0.2092  0.2875 -0.4547
 3551SOL    HW114202   1.431   2.176   1.883 -0.1224 -0.4463 -0.7593
 3551SOL    HW214203   1.503   2.110   1.998 -0.6033 -1.0849 -0.8204
 3551SOL     MW14204   1.501   2.134   1.914  0.0628  0.0179 -0.5405
 3552SOL     OW14205   5.254   0.938   2.412 -0.5591  0.2376 -0.2795
 3552SOL    HW114206   5.251   0.920   2.318 -0.1272 -0.8890 -0.0931
 3552SOL    HW214207   5.207   1.021   2.421  1.1624  1.4632 -1.7305
 3552SOL     MW14208   5.247   0.946   2.401 -0.2834  0.2503 -0.4414
 3553SOL     OW14209   3.911   3.457   4.767 -0.2303  0.3393 -0.2960
 3553SOL    HW114210   3.969   3.507   4.825  1.9249  1.5544 -3.1987
 3553SOL    HW214211   3.959   3.376   4.749 -1.6551 -0.7957  0.8967
 3553SOL     MW14212   3.925   3.453   4.772 -0.1368  0.3496 -0.5149
 3554SOL     OW14213   0.462   5.132   2.241  0.2682 -0.2437 -0.1730
 3554SOL    HW114214   0.492   5.052   2.284  0.6527 -0.2644 -0.4769
 3554SOL    HW214215   0.449   5.107   2.149  1.4410  0.2983 -0.5074
 3554SOL     MW14216   0.464   5.119   2.234  0.4676 -0.1770 -0.2547
 3555SOL     OW14217   4.127   5.379   1.036 -0.3453  0.1987  0.4481
 3555SOL    HW114218   4.123   5.474   1.036  3.4744  0.5600  2.5210
 3555SOL    HW214219   4.164   5.357   0.950  1.2620  0.9007  0.9165
 3555SOL     MW14220   4.131   5.388   1.025  0.3494  0.3348  0.7734
 3556SOL     OW14221   0.516   3.330   4.293  0.7129 -0.0423 -0.1775
 3556SOL    HW114222   0.513   3.239   4.266 -0.4991 -0.1552  0.2631
 3556SOL    HW214223   0.603   3.341   4.332  1.1295 -0.8107 -0.8685
 3556SOL     MW14224   0.527   3.320   4.295  0.6111 -0.1551 -0.2095
 3557SOL     OW14225   5.380   0.215   1.192  0.3430 -0.2617  0.4101
 3557SOL    HW114226   5.424   0.204   1.108  1.7493  0.3110  1.0275
 3557SOL    HW214227   5.337   0.131   1.208  0.7780 -0.6621 -0.4835
 3557SOL     MW14228   5.380   0.203   1.184  0.5787 -0.2397  0.3747
 3558SOL     OW14229   2.456   1.476   0.173 -0.1685  0.2871  0.5765
 3558SOL    HW114230   2.377   1.423   0.186 -0.7907  0.9963 -0.1710
 3558SOL    HW214231   2.513   1.421   0.119 -0.5459  0.1225  0.3348
 3558SOL     MW14232   2.453   1.462   0.168 -0.2965  0.3568  0.4499
 3559SOL     OW14233   3.855   1.650   0.649  0.7118  0.2505  0.4946
 3559SOL    HW114234   3.808   1.618   0.726 -0.3090 -0.9286 -0.5608
 3559SOL    HW214235   3.940   1.606   0.652  0.7328  0.3324  1.0325
 3559SOL     MW14236   3.860   1.640   0.659  0.5838  0.1101  0.4283
 3560SOL     OW14237   0.230   0.898   3.919  0.1116 -0.6539  0.1761
 3560SOL    HW114238   0.287   0.975   3.916 -1.0103  0.1782 -0.2162
 3560SOL    HW214239   0.227   0.867   3.828  1.0521 -1.5533  0.4314
 3560SOL     MW14240   0.237   0.904   3.907  0.0884 -0.6625  0.1586
 3561SOL     OW14241   5.001   0.289   4.335  0.2521 -0.3912 -0.5572
 3561SOL    HW114242   5.084   0.302   4.381 -0.0535  0.4126 -0.2205
 3561SOL    HW214243   4.967   0.378   4.320 -1.3653 -0.7423  0.8129
 3561SOL     MW14244   5.008   0.302   4.339  0.0060 -0.3333 -0.3387
 3562SOL     OW14245   3.855   4.327   3.013 -0.2133 -0.0718  0.0831
 3562SOL    HW114246   3.881   4.296   2.926  0.7289  0.1128  0.2955
 3562SOL    HW214247   3.937   4.336   3.061 -0.7050  0.1233  0.9004
 3562SOL     MW14248   3.869   4.324   3.008 -0.1556 -0.0232  0.2150
 3563SOL     OW14249   3.482   4.934   2.910 -0.3178  0.3483 -0.4090
 3563SOL    HW114250   3.515   4.869   2.848  0.0939 -0.3046  0.4773
 3563SOL    HW214251   3.462   5.010   2.855  1.0754  0.1894 -1.2171
 3563SOL     MW14252   3.484   4.935   2.895 -0.0867  0.2443 -0.3990
 3564SOL     OW14253   5.159   4.580   2.955 -0.0381  0.0620 -0.3176
 3564SOL    HW114254   5.217   4.531   3.013 -0.6952 -0.4132 -0.0408
 3564SOL    HW214255   5.215   4.646   2.914  0.8410 -0.8501 -0.6153
 3564SOL     MW14256   5.174   4.582   2.957 -0.0097 -0.1156 -0.3203
 3565SOL     OW14257   5.076   0.485   2.962 -0.5792  0.3738 -0.2212
 3565SOL    HW114258   5.013   0.472   2.891 -0.2900  1.6794 -0.7369
 3565SOL    HW214259   5.160   0.462   2.923 -0.3682  1.4836 -0.4286
 3565SOL     MW14260   5.079   0.480   2.948 -0.5152  0.6830 -0.3137
 3566SOL     OW14261   0.548   5.414   5.314 -0.1274  0.1085  0.5995
 3566SOL    HW114262   0.606   5.485   5.285 -0.0890 -0.2218 -0.1669
 3566SOL    HW214263   0.519   5.440   5.401  1.5734  0.0417  1.2092
 3566SOL     MW14264   0.552   5.427   5.321  0.0952  0.0576  0.5794
 3567SOL     OW14265   5.044   3.690   0.011 -0.2254  0.1450 -0.2586
 3567SOL    HW114266   5.006   3.765  -0.035  0.0206  1.0974  1.0250
 3567SOL    HW214267   4.968   3.639   0.040 -0.3930 -0.1720 -1.2086
 3567SOL     MW14268   5.029   3.693   0.009 -0.2154  0.2263 -0.2159
 3568SOL     OW14269   1.595   0.953   2.965 -0.0176  0.5785 -0.0135
 3568SOL    HW114270   1.672   0.991   3.007 -0.4214  0.9732  0.3709
 3568SOL    HW214271   1.594   0.991   2.877 -0.8510  2.0838  0.6110
 3568SOL     MW14272   1.605   0.962   2.959 -0.1760  0.8217  0.1156
 3569SOL     OW14273   2.117   3.388   1.529 -0.4314  0.0070  0.0101
 3569SOL    HW114274   2.082   3.303   1.555 -1.1386  0.2400 -0.1490
 3569SOL    HW214275   2.147   3.428   1.611  0.3375 -0.5819  0.0232
 3569SOL     MW14276   2.116   3.382   1.543 -0.4235 -0.0386 -0.0086
 3570SOL     OW14277   0.691   0.348   4.121  0.3506  0.0239 -0.4135
 3570SOL    HW114278   0.596   0.351   4.129  0.4174  0.0073  0.5279
 3570SOL    HW214279   0.723   0.400   4.194  1.0843 -1.6024  0.4929
 3570SOL     MW14280   0.683   0.355   4.131  0.4531 -0.1864 -0.1770
 3571SOL     OW14281   1.662   4.661   1.551 -0.0349 -0.1355  0.3047
 3571SOL    HW114282   1.597   4.620   1.609  0.1968 -0.5864  0.2449
 3571SOL    HW214283   1.744   4.656   1.599 -0.0809  0.6615  0.4851
 3571SOL     MW14284   1.664   4.655   1.565 -0.0111 -0.0912  0.3201
 3572SOL     OW14285   2.896   0.249   3.493  0.0287  0.1518  0.7504
 3572SOL    HW114286   2.965   0.256   3.427 -1.1564 -0.3597 -0.5909
 3572SOL    HW214287   2.908   0.163   3.532  0.1916  0.0965  0.5744
 3572SOL     MW14288   2.906   0.239   3.490 -0.1022  0.0793  0.5562
 3573SOL     OW14289   3.552   1.990   3.966  0.0394  0.0360  0.4136
 3573SOL    HW114290   3.578   2.047   3.895 -2.1192 -0.4488 -0.8493
 3573SOL    HW214291   3.630   1.982   4.021  1.5289  1.0321 -1.4702
 3573SOL     MW14292   3.565   1.996   3.964 -0.0463  0.1014  0.0108
 3574SOL     OW14293   0.526   5.253   4.706 -0.0662 -0.9005 -0.5317
 3574SOL    HW114294   0.452   5.217   4.754  0.8605 -0.5082  1.3008
 3574SOL    HW214295   0.490   5.281   4.622 -2.2064  0.1475  0.6581
 3574SOL     MW14296   0.512   5.252   4.702 -0.2216 -0.7162 -0.1448
 3575SOL     OW14297   0.359   4.774   2.640 -0.2098 -0.0510  0.2455
 3575SOL    HW114298   0.276   4.813   2.614 -0.0705  1.0948  1.4240
 3575SOL    HW214299   0.415   4.848   2.662  1.1953 -0.7952 -0.6677
 3575SOL     MW14300   0.355   4.788   2.640 -0.0121  0.0004  0.2794
 3576SOL     OW14301   2.002   2.630   2.391 -0.1546  0.4228 -0.2159
 3576SOL    HW114302   2.007   2.568   2.319  0.3625 -0.7671  0.8105
 3576SOL    HW214303   1.925   2.684   2.371 -0.2007 -0.0788 -1.4804
 3576SOL     MW14304   1.993   2.629   2.379 -0.0943  0.2063 -0.2464
 3577SOL     OW14305   3.428   3.107   5.042 -0.2151 -0.5509  0.2577
 3577SOL    HW114306   3.478   3.088   4.963 -2.0029 -0.3737 -0.9964
 3577SOL    HW214307   3.427   3.025   5.091  1.4948 -0.4752  0.4894
 3577SOL     MW14308   3.434   3.094   5.038 -0.2251 -0.5185  0.1268
 3578SOL     OW14309   1.155   2.536   2.818 -0.0281 -0.3813  0.7651
 3578SOL    HW114310   1.154   2.577   2.731  0.3567  0.2155  1.0364
 3578SOL    HW214311   1.247   2.536   2.843 -0.2977  0.8408  1.8169
 3578SOL     MW14312   1.166   2.541   2.810 -0.0134 -0.1484  0.9345
 3579SOL     OW14313   3.721   2.414   2.960  0.8526 -0.0992 -0.2378
 3579SOL    HW114314   3.758   2.370   3.037 -0.3855 -1.2732 -0.2692
 3579SOL    HW214315   3.764   2.372   2.886  0.4192 -0.5587 -0.2361
 3579SOL     MW14316   3.731   2.403   2.961  0.6387 -0.3083 -0.2416
 3580SOL     OW14317   5.271   5.090   5.041  0.0498  0.2532  0.0204
 3580SOL    HW114318   5.348   5.033   5.043  0.2592  0.5196  2.1389
 3580SOL    HW214319   5.287   5.153   5.111 -1.4958  1.1342 -0.3864
 3580SOL     MW14320   5.283   5.091   5.050 -0.1213  0.4001  0.2395
 3581SOL     OW14321   0.462   4.154   2.524 -0.9249  0.1815  0.4149
 3581SOL    HW114322   0.472   4.169   2.618  1.6649  2.5325 -0.0862
 3581SOL    HW214323   0.547   4.119   2.496 -1.5875 -0.3084 -1.1010
 3581SOL     MW14324   0.474   4.152   2.532 -0.6782  0.4198  0.1567
 3582SOL     OW14325   4.686   2.736   1.771  0.3633  0.2907 -0.6747
 3582SOL    HW114326   4.601   2.731   1.815  0.6501  0.1282 -0.1200
 3582SOL    HW214327   4.749   2.742   1.843  0.7910  0.9030 -1.0905
 3582SOL     MW14328   4.683   2.736   1.786  0.4548  0.3483 -0.6570
 3583SOL     OW14329   4.548   2.534   0.146  0.6356  0.6320 -0.0105
 3583SOL    HW114330   4.473   2.586   0.118 -2.0865 -3.0613 -0.3405
 3583SOL    HW214331   4.547   2.539   0.241 -1.2816 -0.7918  0.1000
 3583SOL     MW14332   4.538   2.541   0.155  0.0417 -0.0230 -0.0386
 3584SOL     OW14333   1.880   0.473   1.461  0.2798  0.1815 -0.3382
 3584SOL    HW114334   1.836   0.458   1.545 -1.4332 -0.2248 -1.2794
 3584SOL    HW214335   1.861   0.564   1.440  0.4718  0.2021 -0.4259
 3584SOL     MW14336   1.872   0.483   1.469  0.0851  0.1321 -0.4699
 3585SOL     OW14337   1.149   1.630   2.092 -0.1990 -0.1562  0.0589
 3585SOL    HW114338   1.108   1.670   2.168 -2.2697 -0.1123 -1.0151
 3585SOL    HW214339   1.132   1.691   2.020  2.3496  0.1856 -0.3781
 3585SOL     MW14340   1.142   1.643   2.092 -0.1378 -0.1068 -0.1346
 3586SOL     OW14341   1.147   0.682   1.900 -0.2529 -0.3539 -0.2038
 3586SOL    HW114342   1.181   0.669   1.812 -0.3346 -1.1840 -0.1280
 3586SOL    HW214343   1.225   0.692   1.955 -0.2048  0.2429 -0.3790
 3586SOL     MW14344   1.161   0.681   1.896 -0.2572 -0.3838 -0.2165
 3587SOL     OW14345   1.474   0.977   3.863 -0.2641  0.3463 -0.0530
 3587SOL    HW114346   1.429   0.955   3.781 -0.2281 -0.8043  0.2178
 3587SOL    HW214347   1.523   1.057   3.843 -0.7250  0.4156 -0.9770
 3587SOL     MW14348   1.474   0.985   3.850 -0.3185  0.2078 -0.1366
 3588SOL     OW14349   3.669   1.079   0.552  0.2240 -0.2747  0.0221
 3588SOL    HW114350   3.634   1.160   0.589 -0.8530 -0.7200  0.0138
 3588SOL    HW214351   3.726   1.044   0.620  0.8992  0.6096 -0.0745
 3588SOL     MW14352   3.672   1.085   0.566  0.1726 -0.2185  0.0087
 3589SOL     OW14353   4.206   3.225   2.952 -0.2079  0.2778  0.4818
 3589SOL    HW114354   4.186   3.251   3.042  0.0729  0.3059  0.5375
 3589SOL    HW214355   4.221   3.307   2.906 -3.7155  0.5312 -0.4459
 3589SOL     MW14356   4.206   3.238   2.958 -0.6210  0.3139  0.3702
 3590SOL     OW14357   4.786   1.062   0.915  0.0593 -0.3139  0.4577
 3590SOL    HW114358   4.847   1.032   0.983 -0.5177 -1.3730  0.5348
 3590SOL    HW214359   4.842   1.086   0.841  0.6446  0.0896  1.0173
 3590SOL     MW14360   4.801   1.061   0.914  0.0604 -0.3978  0.5392
 3591SOL     OW14361   1.945   1.962   4.534  0.0344 -0.1803 -0.0713
 3591SOL    HW114362   1.849   1.968   4.539  0.0632  0.1678  0.0523
 3591SOL    HW214363   1.961   1.881   4.484 -0.3214 -0.2964 -0.0023
 3591SOL     MW14364   1.934   1.952   4.528 -0.0074 -0.1506 -0.0466
 3592SOL     OW14365   3.108   0.235   3.316  0.3317 -0.4165 -0.3626
 3592SOL    HW114366   3.170   0.162   3.320  2.9425  1.6655  3.3776
 3592SOL    HW214367   3.134   0.285   3.239 -0.3437 -2.3143 -1.9206
 3592SOL     MW14368   3.119   0.232   3.307  0.5794 -0.3929 -0.0833
 3593SOL     OW14369   2.204   3.992   1.800  0.1161  0.4949  0.5108
 3593SOL    HW114370   2.219   3.994   1.894  0.8565  0.4339  0.3950
 3593SOL    HW214371   2.181   4.082   1.777  2.3400  1.0686  0.3668
 3593SOL     MW14372   2.203   4.004   1.809  0.4956  0.5605  0.4775
 3594SOL     OW14373   0.060   1.900   0.154 -0.2698  0.1243  0.0580
 3594SOL    HW114374   0.092   1.824   0.202 -0.9896 -1.5614 -1.9866
 3594SOL    HW214375  -0.034   1.903   0.174 -0.7392 -1.0824 -1.7741
 3594SOL     MW14376   0.052   1.891   0.163 -0.4221 -0.2460 -0.4383
 3595SOL     OW14377   1.949   4.996   3.037 -0.0553  0.6640 -0.1660
 3595SOL    HW114378   1.951   5.064   2.971  0.6501 -1.5906 -2.6348
 3595SOL    HW214379   1.861   5.000   3.073 -0.0558  2.7627 -0.2868
 3595SOL     MW14380   1.938   5.005   3.033  0.0349  0.6441 -0.4975
 3596SOL     OW14381   2.433   3.572   5.116  0.7204 -0.0091 -0.7907
 3596SOL    HW114382   2.433   3.478   5.131  0.6282  0.2197  0.9426
 3596SOL    HW214383   2.520   3.601   5.142  0.0625  0.6322  0.8538
 3596SOL     MW14384   2.444   3.564   5.122  0.6244  0.1023 -0.3583
 3597SOL     OW14385   3.200   3.125   3.373  0.2362 -0.1997  0.2177
 3597SOL    HW114386   3.164   3.036   3.375 -0.3772  0.0595  1.5132
 3597SOL    HW214387   3.182   3.160   3.460 -0.0209  1.3909 -0.4408
 3597SOL     MW14388   3.193   3.118   3.384  0.1247  0.0371  0.2992
 3598SOL     OW14389   0.830   5.216   2.228  0.5089 -0.1285  0.2458
 3598SOL    HW114390   0.819   5.275   2.303  0.3365 -2.6469  2.3365
 3598SOL    HW214391   0.924   5.210   2.215  0.5134  1.1006 -0.4695
 3598SOL     MW14392   0.840   5.223   2.236  0.4874 -0.2935  0.4219
 3599SOL     OW14393   1.172   2.370   4.156 -0.8520 -0.0096 -0.2160
 3599SOL    HW114394   1.087   2.413   4.163 -1.5503 -1.5102  1.3758
 3599SOL    HW214395   1.211   2.381   4.243 -0.0081 -0.5023 -0.5205
 3599SOL     MW14396   1.167   2.376   4.168 -0.8334 -0.2648 -0.0512
 3600SOL     OW14397   1.654   5.230   3.448  0.3371  0.1346  0.1727
 3600SOL    HW114398   1.598   5.153   3.439 -0.5100  0.5936  1.3871
 3600SOL    HW214399   1.598   5.297   3.486  1.2948  1.0996 -0.0647
 3600SOL     MW14400   1.640   5.229   3.452  0.3513  0.3169  0.2977
 3601SOL     OW14401   4.528   0.659   3.548 -0.7236  0.6551  0.4842
 3601SOL    HW114402   4.514   0.636   3.640 -0.5107 -1.9080 -0.0481
 3601SOL    HW214403   4.606   0.610   3.522 -0.8009  1.2800 -1.0692
 3601SOL     MW14404   4.536   0.650   3.556 -0.7062  0.4070  0.2172
 3602SOL     OW14405   3.629   2.484   4.297  0.1497 -0.5536  0.5543
 3602SOL    HW114406   3.688   2.484   4.372  0.2394  1.0960  0.5224
 3602SOL    HW214407   3.542   2.492   4.335  0.2247  0.7412  0.4994
 3602SOL     MW14408   3.625   2.485   4.311  0.1708 -0.1767  0.5432
 3603SOL     OW14409   1.636   2.756   1.857 -0.3260  0.2776 -0.2629
 3603SOL    HW114410   1.572   2.824   1.879 -1.8380 -1.2369  0.2320
 3603SOL    HW214411   1.623   2.740   1.763  0.4081  1.0273 -0.5003
 3603SOL     MW14412   1.626   2.763   1.848 -0.4256  0.1797 -0.2300
 3604SOL     OW14413   3.210   2.444   0.686  0.0593 -0.1138 -0.4411
 3604SOL    HW114414   3.234   2.519   0.632 -0.0591  0.8424  0.8008
 3604SOL    HW214415   3.269   2.448   0.761 -1.0942 -0.2554  0.4964
 3604SOL     MW14416   3.221   2.454   0.688 -0.1035 -0.0095 -0.1621
 3605SOL     OW14417   0.822   4.269   0.125  0.5018 -0.3318  0.2184
 3605SOL    HW114418   0.849   4.223   0.205  0.0691 -1.5662 -0.3143
 3605SOL    HW214419   0.876   4.231   0.056 -0.7846 -1.0279 -0.4465
 3605SOL     MW14420   0.832   4.258   0.126  0.2817 -0.5790  0.0651
 3606SOL     OW14421   3.327   1.831   3.063 -0.1729  0.2644  0.4948
 3606SOL    HW114422   3.242   1.822   3.020  0.8921  0.1096 -1.7671
 3606SOL    HW214423   3.365   1.909   3.024  0.1025  1.3107  2.7115
 3606SOL     MW14424   3.321   1.840   3.052 -0.0013  0.3786  0.4890
 3607SOL     OW14425   3.442   0.917   0.647 -0.0794  0.3448 -0.0754
 3607SOL    HW114426   3.507   0.973   0.606  0.2011  1.7935  2.2084
 3607SOL    HW214427   3.476   0.828   0.635  0.4407  0.7561 -2.0470
 3607SOL     MW14428   3.455   0.913   0.640  0.0231  0.5829 -0.0354
 3608SOL     OW14429   5.312   0.064   4.509 -0.3804 -0.8166 -0.0831
 3608SOL    HW114430   5.289   0.149   4.472  0.2480 -0.9075 -0.7245
 3608SOL    HW214431   5.229   0.024   4.533 -0.7870 -0.5686 -1.0254
 3608SOL     MW14432   5.299   0.070   4.507 -0.3520 -0.7965 -0.2858
 3609SOL     OW14433   1.107   1.707   2.846  0.1239 -0.3548 -0.4044
 3609SOL    HW114434   1.131   1.692   2.937 -0.0339  1.9767  0.0977
 3609SOL    HW214435   1.127   1.800   2.831 -2.8368  0.1803 -1.7635
 3609SOL     MW14436   1.113   1.717   2.856 -0.2753  0.0122 -0.5141
 3610SOL     OW14437   5.488   3.660   1.655 -0.2791 -0.3990  0.7076
 3610SOL    HW114438   5.417   3.688   1.597 -0.1613 -0.9689  0.2763
 3610SOL    HW214439   5.521   3.741   1.695  1.1875  0.3378 -1.7713
 3610SOL     MW14440   5.483   3.674   1.653 -0.0763 -0.3777  0.3350
 3611SOL     OW14441   4.391   0.891   1.101 -0.3889 -0.0662 -0.1592
 3611SOL    HW114442   4.384   0.817   1.162 -0.3350  0.3956  0.4164
 3611SOL    HW214443   4.452   0.951   1.143  0.1707 -0.0463 -0.9972
 3611SOL     MW14444   4.398   0.889   1.114 -0.3104 -0.0045 -0.1928
 3612SOL     OW14445   4.684   4.182   4.554 -0.1864  0.1017  0.2790
 3612SOL    HW114446   4.594   4.151   4.568 -0.1732 -0.3233 -0.4872
 3612SOL    HW214447   4.679   4.232   4.472  0.0445  1.0809  0.8561
 3612SOL     MW14448   4.672   4.185   4.545 -0.1552  0.1727  0.2548
 3613SOL     OW14449   2.228   5.027   4.559  0.0728  0.3148  0.1033
 3613SOL    HW114450   2.204   5.118   4.575 -0.3351  0.1535  0.4325
 3613SOL    HW214451   2.267   5.028   4.471  0.0987  0.8088  0.1164
 3613SOL     MW14452   2.230   5.039   4.550  0.0239  0.3574  0.1471
 3614SOL     OW14453   0.732   3.102   1.066  0.2460  0.4612 -0.1117
 3614SOL    HW114454   0.678   3.117   1.144  0.4705 -1.2701  0.4169
 3614SOL    HW214455   0.782   3.183   1.056  0.1699  0.7407  1.5010
 3614SOL     MW14456   0.731   3.115   1.075  0.2650  0.2753  0.1624
 3615SOL     OW14457   2.839   4.975   0.010  0.1189 -0.7330 -0.1752
 3615SOL    HW114458   2.746   4.989  -0.001  0.0445 -1.3066 -0.3535
 3615SOL    HW214459   2.861   5.017   0.093 -0.3910 -0.9995  0.1008
 3615SOL     MW14460   2.830   4.982   0.019  0.0441 -0.8406 -0.1627
 3616SOL     OW14461   2.715   0.350   1.077  0.2236  0.3094  0.2821
 3616SOL    HW114462   2.698   0.444   1.080  1.6487  0.6053 -0.2098
 3616SOL    HW214463   2.804   0.343   1.044  0.9660 -1.1366  2.4217
 3616SOL     MW14464   2.724   0.361   1.073  0.5011  0.1622  0.4930
 3617SOL     OW14465   5.521   2.245   1.912  0.4390  0.1470 -0.2141
 3617SOL    HW114466   5.492   2.203   1.993  0.3974  0.0367 -0.2864
 3617SOL    HW214467   5.441   2.256   1.861  0.1814  1.8391  0.5015
 3617SOL     MW14468   5.507   2.241   1.916  0.4007  0.3495 -0.1318
 3618SOL     OW14469   5.163   2.534   2.073  0.8638  0.0586 -0.1805
 3618SOL    HW114470   5.128   2.451   2.106 -2.1599  1.9017  1.7152
 3618SOL    HW214471   5.174   2.520   1.979 -0.5556 -2.1654 -0.0939
 3618SOL     MW14472   5.160   2.522   2.065  0.2950  0.0099  0.0732
 3619SOL     OW14473   4.421   4.018   2.998 -0.0931 -0.0263 -0.3247
 3619SOL    HW114474   4.330   4.014   3.029 -0.6846 -0.8115 -2.0504
 3619SOL    HW214475   4.419   3.977   2.912  2.0630 -0.7575 -0.0869
 3619SOL     MW14476   4.409   4.012   2.991  0.1072 -0.2204 -0.5152
 3620SOL     OW14477   1.216   4.407   2.332 -0.3401 -0.2103  0.7152
 3620SOL    HW114478   1.140   4.455   2.300  0.2775 -0.3920 -1.1464
 3620SOL    HW214479   1.273   4.398   2.256  2.3175  1.3320  2.3445
 3620SOL     MW14480   1.214   4.412   2.319  0.0792 -0.0361  0.6855
 3621SOL     OW14481   0.916   4.330   1.204  0.7450  0.7263  0.0204
 3621SOL    HW114482   0.934   4.341   1.297  0.3070  1.3481  0.0337
 3621SOL    HW214483   0.825   4.357   1.193  0.3474 -0.6787 -0.3605
 3621SOL     MW14484   0.907   4.335   1.214  0.6381  0.6260 -0.0267
 3622SOL     OW14485   1.659   1.189   3.834  0.8161 -0.4694 -0.1677
 3622SOL    HW114486   1.638   1.270   3.787 -0.6204 -0.9946 -0.4763
 3622SOL    HW214487   1.744   1.206   3.874 -0.5414  2.1976  1.9433
 3622SOL     MW14488   1.667   1.202   3.833  0.4584 -0.1953  0.0630
 3623SOL     OW14489   3.829   2.324   3.602  0.8329  0.6228 -0.3237
 3623SOL    HW114490   3.923   2.314   3.621  1.0132  1.7610 -0.5460
 3623SOL    HW214491   3.825   2.335   3.507  0.4061 -0.1071 -0.3904
 3623SOL     MW14492   3.841   2.324   3.592  0.8013  0.6750 -0.3607
 3624SOL     OW14493   1.060   0.298   0.950 -0.2355 -0.1581 -0.0973
 3624SOL    HW114494   1.059   0.379   1.002  1.7950  0.3533 -0.7740
 3624SOL    HW214495   0.983   0.250   0.981  0.1010  0.7160  2.3954
 3624SOL     MW14496   1.050   0.302   0.961  0.0675  0.0193  0.1351
 3625SOL     OW14497   0.687   1.771   1.634 -0.3368  0.4941 -0.2139
 3625SOL    HW114498   0.707   1.765   1.728 -0.7703 -0.3374 -0.1654
 3625SOL    HW214499   0.769   1.801   1.595 -0.7347  2.9988  0.6441
 3625SOL     MW14500   0.700   1.774   1.641 -0.4432  0.7083 -0.0979
 3626SOL     OW14501   3.431   4.233   1.720  0.5008 -0.5133  0.1579
 3626SOL    HW114502   3.352   4.180   1.705 -2.0347  2.6432  1.0808
 3626SOL    HW214503   3.443   4.232   1.815  0.6922  0.1438  0.1466
 3626SOL     MW14504   3.422   4.226   1.730  0.2007 -0.0251  0.2746
 3627SOL     OW14505   3.447   2.192   0.953 -0.5326 -0.0980 -0.3562
 3627SOL    HW114506   3.531   2.165   0.914 -0.5840 -0.2209 -0.3831
 3627SOL    HW214507   3.470   2.264   1.012 -0.5634  0.6367 -1.2196
 3627SOL     MW14508   3.461   2.198   0.956 -0.5432 -0.0197 -0.4701
 3628SOL     OW14509   3.011   5.319   2.074 -0.4669 -0.6033 -0.0250
 3628SOL    HW114510   2.965   5.333   2.156  0.6454 -1.4375  0.7819
 3628SOL    HW214511   3.060   5.237   2.087  0.4877 -0.2563 -1.1610
 3628SOL     MW14512   3.011   5.310   2.086 -0.2023 -0.6657 -0.0672
 3629SOL     OW14513   1.813   1.117   3.015  0.2899  0.5461 -0.1828
 3629SOL    HW114514   1.828   1.147   2.925  0.7176  0.3694 -0.1732
 3629SOL    HW214515   1.893   1.139   3.061 -0.2361  1.3907  0.3710
 3629SOL     MW14516   1.825   1.124   3.009  0.2773  0.6316 -0.1106
 3630SOL     OW14517   1.891   5.401   2.479 -0.4783 -0.0841  0.0984
 3630SOL    HW114518   1.805   5.394   2.438  0.4660  0.6371 -2.1995
 3630SOL    HW214519   1.918   5.311   2.495 -1.2243 -0.3600 -0.1466
 3630SOL     MW14520   1.883   5.389   2.475 -0.4529 -0.0271 -0.2271
 3631SOL     OW14521   0.936   0.082   1.580 -0.1096 -0.2591 -0.3044
 3631SOL    HW114522   0.901   0.098   1.668 -0.6698 -1.2678 -0.3359
 3631SOL    HW214523   0.901  -0.003   1.555  2.0210 -1.1305 -0.5110
 3631SOL     MW14524   0.927   0.073   1.588  0.0915 -0.4997 -0.3349
 3632SOL     OW14525   2.349   2.188   0.976  0.2125 -0.4016 -0.4297
 3632SOL    HW114526   2.376   2.178   1.067  2.8911  0.8750 -0.9845
 3632SOL    HW214527   2.355   2.100   0.939 -1.1784 -0.9771  0.6568
 3632SOL     MW14528   2.353   2.175   0.983  0.3773 -0.3118 -0.3617
 3633SOL     OW14529   0.696   2.506   1.598  0.2708 -0.0676  0.0219
 3633SOL    HW114530   0.603   2.501   1.577  0.8418 -2.3785 -2.6260
 3633SOL    HW214531   0.707   2.444   1.670 -0.4515  1.5955  1.6278
 3633SOL     MW14532   0.685   2.498   1.604  0.2515 -0.1506 -0.1115
 3634SOL     OW14533   1.735   3.502   2.039 -0.1166 -0.3510  0.0849
 3634SOL    HW114534   1.749   3.574   2.100  0.3930 -0.1434 -0.2697
 3634SOL    HW214535   1.745   3.423   2.092 -0.1420 -0.1650  0.3653
 3634SOL     MW14536   1.738   3.501   2.053 -0.0546 -0.3006  0.0754
 3635SOL     OW14537   2.544   2.414   0.374 -0.5433 -0.4106  0.1932
 3635SOL    HW114538   2.473   2.443   0.432 -0.0075 -0.2367  0.7725
 3635SOL    HW214539   2.616   2.392   0.434  0.0880 -0.0435 -0.4195
 3635SOL     MW14540   2.544   2.415   0.389 -0.3939 -0.3414  0.1889
 3636SOL     OW14541   0.623   1.447   2.554 -0.9730 -0.0644 -0.3473
 3636SOL    HW114542   0.622   1.516   2.487  1.2890  0.2603 -0.1287
 3636SOL    HW214543   0.607   1.366   2.505 -0.8578  0.3297 -1.0587
 3636SOL     MW14544   0.621   1.446   2.539 -0.6687  0.0276 -0.4104
 3637SOL     OW14545   3.801   0.954   0.781  0.1709 -0.1468 -0.4217
 3637SOL    HW114546   3.767   1.027   0.833 -0.1343  1.0884 -2.2610
 3637SOL    HW214547   3.756   0.877   0.816  0.3187  0.5444  1.4073
 3637SOL     MW14548   3.791   0.954   0.792  0.1508  0.0998 -0.4230
 3638SOL     OW14549   3.584   3.243   2.456  0.2203  0.0881  0.3111
 3638SOL    HW114550   3.530   3.321   2.445  2.3653  1.8957  1.7914
 3638SOL    HW214551   3.565   3.213   2.545  0.8507  0.0988  0.4507
 3638SOL     MW14552   3.575   3.249   2.466  0.5756  0.3209  0.5185
 3639SOL     OW14553   3.071   2.149   3.903 -0.3516  0.2302 -0.0612
 3639SOL    HW114554   3.120   2.228   3.881  0.7778 -0.5009 -0.2374
 3639SOL    HW214555   3.111   2.119   3.985 -0.6860 -0.2332 -0.0708
 3639SOL     MW14556   3.082   2.156   3.911 -0.2498  0.0773 -0.0850
 3640SOL     OW14557   2.654   1.223   2.641 -0.4408  0.1607  0.3024
 3640SOL    HW114558   2.562   1.248   2.635  0.1476  2.3724 -1.2436
 3640SOL    HW214559   2.674   1.223   2.734 -1.9082 -0.0119  0.6309
 3640SOL     MW14560   2.645   1.226   2.652 -0.5533  0.4217  0.1466
 3641SOL     OW14561   0.802   3.405   5.242  0.1129 -0.1041 -0.1318
 3641SOL    HW114562   0.839   3.321   5.215  1.3098  0.9108 -1.8925
 3641SOL    HW214563   0.811   3.407   5.337  0.5601 -1.7300 -0.1219
 3641SOL     MW14564   0.808   3.395   5.250  0.3234 -0.1823 -0.3559
 3642SOL     OW14565   3.009   1.808   2.978  0.6112  0.0004  0.2562
 3642SOL    HW114566   3.002   1.728   3.029 -1.0021 -0.9977 -1.4080
 3642SOL    HW214567   3.014   1.779   2.887 -1.5021  1.7472 -0.5340
 3642SOL     MW14568   3.009   1.794   2.973  0.1341  0.0962 -0.0580
 3643SOL     OW14569   5.318   3.919   4.020  0.3817 -0.1700  0.7196
 3643SOL    HW114570   5.345   3.845   3.966  1.0333 -0.9989  2.1260
 3643SOL    HW214571   5.238   3.951   3.978  0.8795 -0.7415 -0.7400
 3643SOL     MW14572   5.311   3.913   4.008  0.5288 -0.3493  0.7128
 3644SOL     OW14573   3.996   1.783   4.452  0.0557 -0.4896 -0.5256
 3644SOL    HW114574   3.936   1.710   4.437  0.8619 -1.0700 -0.9884
 3644SOL    HW214575   3.995   1.796   4.547 -0.5299 -0.7270 -0.4982
 3644SOL     MW14576   3.988   1.776   4.462  0.0839 -0.5943 -0.5813
 3645SOL     OW14577   1.575   0.388   2.856  0.3565 -0.3376 -0.3332
 3645SOL    HW114578   1.528   0.431   2.928 -0.3900 -0.1046 -0.9393
 3645SOL    HW214579   1.667   0.389   2.884 -0.0236 -1.1535  1.0590
 3645SOL     MW14580   1.581   0.394   2.869  0.2123 -0.4122 -0.2326
 3646SOL     OW14581   2.119   5.082   5.352 -0.2387 -0.3608  0.6921
 3646SOL    HW114582   2.194   5.118   5.400  0.9134  1.3352 -2.1604
 3646SOL    HW214583   2.149   4.997   5.321  1.3072  0.9875 -1.8508
 3646SOL     MW14584   2.133   5.076   5.354  0.1067  0.0289  0.0015
 3647SOL     OW14585   3.718   3.303   2.085 -0.2971  0.0887  0.2025
 3647SOL    HW114586   3.750   3.230   2.032 -0.3350  0.8317 -0.8612
 3647SOL    HW214587   3.757   3.288   2.171  0.6188 -0.5622 -0.3020
 3647SOL     MW14588   3.727   3.292   2.089 -0.1847  0.1005  0.0017
 3648SOL     OW14589   1.533   1.123   2.274  0.2811 -0.1780  0.5064
 3648SOL    HW114590   1.607   1.181   2.260  0.5332 -0.3116  1.2530
 3648SOL    HW214591   1.459   1.168   2.233  0.9605 -0.5562 -1.2237
 3648SOL     MW14592   1.533   1.136   2.267  0.4003 -0.2435  0.3805
 3649SOL     OW14593   1.092   2.489   2.332  0.0330  0.2078 -0.0574
 3649SOL    HW114594   1.116   2.416   2.274  0.2883 -0.3842  0.7768
 3649SOL    HW214595   1.008   2.463   2.369 -0.0391  0.5014 -0.0132
 3649SOL     MW14596   1.084   2.476   2.329  0.0564  0.1696  0.0551
 3650SOL     OW14597   4.658   1.353   2.399 -0.3928  0.1073 -0.4193
 3650SOL    HW114598   4.747   1.341   2.366 -0.6097 -2.4615 -0.2118
 3650SOL    HW214599   4.658   1.311   2.485 -1.7823  0.1146 -0.3847
 3650SOL     MW14600   4.669   1.346   2.406 -0.5984 -0.2206 -0.3883
 3651SOL     OW14601   1.034   3.913   0.761 -0.3196  0.0036 -0.4799
 3651SOL    HW114602   1.123   3.893   0.731 -0.2764  0.4663 -0.6756
 3651SOL    HW214603   1.023   4.006   0.741 -0.9933 -0.1451 -0.8276
 3651SOL     MW14604   1.044   3.922   0.754 -0.4003  0.0438 -0.5495
 3652SOL     OW14605   4.257   4.004   0.803 -0.0492  0.1682 -0.1719
 3652SOL    HW114606   4.209   3.964   0.876 -0.9041  0.3993 -0.5934
 3652SOL    HW214607   4.349   3.992   0.825 -0.2996 -0.4947  0.5458
 3652SOL     MW14608   4.263   3.997   0.815 -0.1907  0.1129 -0.1340
 3653SOL     OW14609   0.085   2.730   2.700 -0.3554 -0.6607  0.1117
 3653SOL    HW114610   0.118   2.663   2.641  1.8300 -0.1439  0.6448
 3653SOL    HW214611   0.029   2.786   2.645  2.0955  0.1782 -1.6984
 3653SOL     MW14612   0.082   2.729   2.686  0.2381 -0.4871 -0.0518
 3654SOL     OW14613   3.367   2.703   1.266 -0.2795 -0.0914  0.6198
 3654SOL    HW114614   3.378   2.704   1.361 -0.3684 -0.2230  0.6317
 3654SOL    HW214615   3.334   2.790   1.245  0.1821  0.0953  0.6540
 3654SOL     MW14616   3.364   2.714   1.275 -0.2318 -0.0843  0.6257
 3655SOL     OW14617   0.013   2.330   0.450 -0.0156 -0.3234 -0.0756
 3655SOL    HW114618   0.018   2.381   0.531 -1.4700  0.2413 -0.3036
 3655SOL    HW214619   0.083   2.266   0.457  0.0682 -0.0942  1.4946
 3655SOL     MW14620   0.023   2.329   0.461 -0.1911 -0.2218  0.0962
 3656SOL     OW14621   3.989   1.930   5.254 -0.1356 -0.0897 -0.7189
 3656SOL    HW114622   3.905   1.891   5.277 -0.3307  0.0092 -1.2374
 3656SOL    HW214623   3.978   2.023   5.272  0.2584 -0.2278  0.3155
 3656SOL     MW14624   3.977   1.937   5.259 -0.1101 -0.0947 -0.6529
 3657SOL     OW14625   1.850   0.887   3.838 -0.0044 -0.1895  0.6555
 3657SOL    HW114626   1.909   0.891   3.914  2.3605 -2.2831 -0.9193
 3657SOL    HW214627   1.790   0.960   3.852  1.3633  0.5595  3.6700
 3657SOL     MW14628   1.850   0.897   3.850  0.4734 -0.3617  0.8398
 3658SOL     OW14629   3.799   3.965   2.338  0.6147  0.2879  0.4795
 3658SOL    HW114630   3.826   3.979   2.247  2.8733 -0.9751  0.8648
 3658SOL    HW214631   3.801   3.870   2.348  1.1233  0.4452  2.0448
 3658SOL     MW14632   3.803   3.954   2.327  0.9689  0.1463  0.7292
 3659SOL     OW14633   3.008   3.135   1.087  0.4463 -0.3417  0.0475
 3659SOL    HW114634   2.947   3.200   1.123  1.7970  0.1665  1.5364
 3659SOL    HW214635   2.973   3.051   1.118  0.1475 -0.1117  0.3448
 3659SOL     MW14636   2.996   3.133   1.096  0.5810 -0.2472  0.2762
 3660SOL     OW14637   3.516   4.752   5.119 -0.2723 -0.1570 -0.5540
 3660SOL    HW114638   3.462   4.755   5.040  0.8446  0.6753 -1.3129
 3660SOL    HW214639   3.482   4.822   5.175  1.2645  1.7380 -1.8946
 3660SOL     MW14640   3.504   4.761   5.116  0.0674  0.1921 -0.8227
 3661SOL     OW14641   1.540   2.891   5.276 -0.1351 -0.3526  0.7807
 3661SOL    HW114642   1.596   2.942   5.218  0.1449 -1.3747  0.1061
 3661SOL    HW214643   1.560   2.922   5.364 -1.0676  1.7160  0.3164
 3661SOL     MW14644   1.549   2.901   5.280 -0.2187 -0.2187  0.6349
 3662SOL     OW14645   0.441   2.138   3.471  0.2959  0.1656  0.1842
 3662SOL    HW114646   0.409   2.052   3.497  1.1088  0.0700  0.9313
 3662SOL    HW214647   0.441   2.189   3.553  2.8364 -0.1089  0.4452
 3662SOL     MW14648   0.437   2.134   3.485  0.7251  0.1182  0.3133
 3663SOL     OW14649   3.829   0.008   4.342 -0.4870  0.5180  0.2958
 3663SOL    HW114650   3.880   0.009   4.423 -2.1672  0.6818  1.4247
 3663SOL    HW214651   3.787   0.094   4.340 -0.4246  0.5273 -0.7784
 3663SOL     MW14652   3.830   0.019   4.352 -0.6941  0.5401  0.3028
 3664SOL     OW14653   2.180   3.168   2.382  0.3742 -0.3313 -0.1436
 3664SOL    HW114654   2.252   3.183   2.444  0.9961  2.7432 -1.4071
 3664SOL    HW214655   2.219   3.188   2.296 -1.7749  0.6801 -0.9444
 3664SOL     MW14656   2.194   3.172   2.379  0.1787  0.1917 -0.4079
 3665SOL     OW14657   4.705   0.702   0.506  0.2358  0.1120 -0.3111
 3665SOL    HW114658   4.755   0.759   0.448  0.0232 -0.2563 -0.8658
 3665SOL    HW214659   4.629   0.676   0.454 -1.1661  1.5885  0.9017
 3665SOL     MW14660   4.702   0.706   0.492  0.0291  0.2539 -0.2268
 3666SOL     OW14661   2.706   2.451   1.884  0.3749 -0.0212 -0.8917
 3666SOL    HW114662   2.688   2.497   1.965  1.4150  0.4654 -0.9143
 3666SOL    HW214663   2.799   2.470   1.866  0.4109 -0.8822 -1.6942
 3666SOL     MW14664   2.716   2.459   1.892  0.5127 -0.0692 -0.9973
 3667SOL     OW14665   2.956   4.243   2.755  0.5257 -0.3071 -0.3683
 3667SOL    HW114666   2.890   4.202   2.811 -0.4475  1.4743 -0.1419
 3667SOL    HW214667   2.913   4.251   2.670  0.1308  1.5270 -0.0311
 3667SOL     MW14668   2.942   4.239   2.751  0.3506  0.1557 -0.2961
 3668SOL     OW14669   2.700   5.176   1.186  0.0260  0.5097 -0.3133
 3668SOL    HW114670   2.722   5.084   1.176 -0.6980  0.1555  1.0045
 3668SOL    HW214671   2.784   5.221   1.194  0.3749 -0.0729 -0.7194
 3668SOL     MW14672   2.714   5.170   1.186 -0.0220  0.3898 -0.1966
 3669SOL     OW14673   1.807   3.291   2.236  0.1395  0.2734  0.0622
 3669SOL    HW114674   1.896   3.303   2.202  0.4516 -1.8865 -0.0172
 3669SOL    HW214675   1.806   3.342   2.317  1.4270  0.4274  0.0085
 3669SOL     MW14676   1.818   3.299   2.242  0.3442  0.0166  0.0451
 3670SOL     OW14677   0.581   0.133   1.852  0.3437  0.1625  0.0358
 3670SOL    HW114678   0.598   0.138   1.757  0.8444 -0.1138  0.1049
 3670SOL    HW214679   0.645   0.069   1.884 -0.4621 -0.4687  0.4113
 3670SOL     MW14680   0.591   0.125   1.844  0.3047  0.0463  0.0927
 3671SOL     OW14681   4.593   0.900   3.439  0.5396 -0.1867  0.5955
 3671SOL    HW114682   4.563   0.813   3.466 -2.0522  0.5997  0.6060
 3671SOL    HW214683   4.570   0.906   3.346 -1.0439  1.0712  1.0106
 3671SOL     MW14684   4.586   0.890   3.431  0.0051  0.0750  0.6500
 3672SOL     OW14685   3.820   2.571   1.073 -0.3376 -0.2341 -0.1562
 3672SOL    HW114686   3.736   2.581   1.118  0.5952  0.3071  1.5730
 3672SOL    HW214687   3.819   2.481   1.040 -1.7055 -0.1416 -0.4345
 3672SOL     MW14688   3.809   2.561   1.074 -0.3933 -0.1530  0.0296
 3673SOL     OW14689   2.516   4.755   1.165 -0.7465 -0.2944  0.2192
 3673SOL    HW114690   2.524   4.687   1.098  2.0908  1.2052 -1.1739
 3673SOL    HW214691   2.580   4.732   1.232  0.7780  1.2315 -0.6164
 3673SOL     MW14692   2.525   4.744   1.165 -0.1881  0.0929 -0.0661
 3674SOL     OW14693   0.285   4.728   3.082 -0.3672  0.4327 -0.7650
 3674SOL    HW114694   0.342   4.695   3.013 -0.6410 -0.5650 -0.5185
 3674SOL    HW214695   0.343   4.747   3.155 -0.6320 -4.6937  1.1366
 3674SOL     MW14696   0.300   4.726   3.082 -0.4362 -0.3512 -0.4900
 3675SOL     OW14697   2.010   0.644   0.442 -0.2302  0.0720  0.2205
 3675SOL    HW114698   1.930   0.617   0.487 -0.0848  0.7821  0.9468
 3675SOL    HW214699   1.986   0.648   0.350 -0.7353 -0.7509  0.3089
 3675SOL     MW14700   1.997   0.641   0.436 -0.2762  0.0576  0.3248
 3676SOL     OW14701   5.411   3.985   4.942  0.0387 -0.7595 -0.2348
 3676SOL    HW114702   5.501   3.957   4.957  0.0570 -0.9322 -0.6345
 3676SOL    HW214703   5.408   4.004   4.848  0.3638  1.7663  0.2058
 3676SOL     MW14704   5.422   3.984   4.932  0.0827 -0.4583 -0.2295
 3677SOL     OW14705   1.007   5.045   1.875  0.2340 -0.3676 -0.2191
 3677SOL    HW114706   1.063   5.111   1.916  1.0580 -1.1678  0.0003
 3677SOL    HW214707   0.921   5.057   1.915  0.8909 -0.7767  1.3596
 3677SOL     MW14708   1.003   5.055   1.885  0.4236 -0.5224  0.0111
 3678SOL     OW14709   4.573   5.203   2.862 -0.1980 -0.0805  0.0045
 3678SOL    HW114710   4.668   5.218   2.858 -0.1081 -0.0331  1.6553
 3678SOL    HW214711   4.554   5.196   2.955 -1.4632 -2.4679 -0.3723
 3678SOL     MW14712   4.583   5.204   2.873 -0.3485 -0.3801  0.1675
 3679SOL     OW14713   4.439   1.719   3.345  0.0875  0.1908 -0.1790
 3679SOL    HW114714   4.525   1.760   3.349 -0.1467  0.7105 -0.3772
 3679SOL    HW214715   4.382   1.778   3.395 -0.0973 -0.2859  0.1763
 3679SOL     MW14716   4.443   1.732   3.352  0.0339  0.1963 -0.1589
 3680SOL     OW14717   4.725   4.789   3.033 -0.7939 -0.2704  0.0607
 3680SOL    HW114718   4.799   4.840   3.066 -2.3064  1.9355  0.2779
 3680SOL    HW214719   4.699   4.734   3.108  0.1070 -0.4901  0.2304
 3680SOL     MW14720   4.731   4.789   3.047 -0.8722 -0.0161  0.1103
 3681SOL     OW14721   1.970   1.215   5.086 -0.6477 -0.7330  0.1728
 3681SOL    HW114722   2.065   1.210   5.078 -0.7190 -0.2650 -1.1366
 3681SOL    HW214723   1.937   1.144   5.030 -1.0943 -0.0659 -0.4260
 3681SOL     MW14724   1.978   1.205   5.078 -0.7140 -0.5877 -0.0715
 3682SOL     OW14725   4.863   0.830   1.727  0.2138 -0.0606 -0.2107
 3682SOL    HW114726   4.772   0.820   1.696 -0.1561  1.1201  0.4440
 3682SOL    HW214727   4.863   0.912   1.776  1.1215 -1.1072  1.6661
 3682SOL     MW14728   4.851   0.839   1.729  0.2827 -0.0434  0.1133
 3683SOL     OW14729   4.929   1.434   3.441 -0.0451  0.4774  0.1077
 3683SOL    HW114730   4.981   1.403   3.367  0.6675 -0.0965  0.8326
 3683SOL    HW214731   4.840   1.443   3.406  0.2655  0.1383 -0.7873
 3683SOL     MW14732   4.924   1.431   3.427  0.0859  0.3605  0.0859
 3684SOL     OW14733   2.668   3.456   1.321 -0.1623 -0.4598 -0.0939
 3684SOL    HW114734   2.608   3.520   1.284  0.3816  0.3241  0.3602
 3684SOL    HW214735   2.690   3.398   1.248 -1.0730 -0.4627 -0.3768
 3684SOL     MW14736   2.663   3.457   1.307 -0.2092 -0.3598 -0.0720
 3685SOL     OW14737   4.197   5.097   4.577 -0.0394 -0.1630  0.4141
 3685SOL    HW114738   4.252   5.022   4.551  3.3687  2.0142  0.6482
 3685SOL    HW214739   4.157   5.070   4.659  0.9125 -1.8327  0.3702
 3685SOL     MW14740   4.199   5.084   4.584  0.5187 -0.0980  0.4384
 3686SOL     OW14741   0.312   0.093   4.915  0.0530  0.5658 -0.1227
 3686SOL    HW114742   0.237   0.049   4.876 -0.5466  0.3309  1.2311
 3686SOL    HW214743   0.341   0.034   4.985 -0.3579  1.9861  1.2995
 3686SOL     MW14744   0.306   0.080   4.919 -0.0764  0.7175  0.2327
 3687SOL     OW14745   4.293   3.551   4.561  0.2348  0.1224  0.8031
 3687SOL    HW114746   4.290   3.498   4.641 -0.8752 -0.3423  0.4684
 3687SOL    HW214747   4.343   3.629   4.586  2.2989 -1.2349  1.1918
 3687SOL     MW14748   4.299   3.554   4.574  0.3570 -0.1109  0.8100
 3688SOL     OW14749   1.519   4.208   3.427  0.1941 -0.3504  0.0558
 3688SOL    HW114750   1.556   4.291   3.397 -0.7052  0.8702  2.0684
 3688SOL    HW214751   1.453   4.234   3.492 -0.7040 -2.6242  0.1349
 3688SOL     MW14752   1.515   4.222   3.432 -0.0360 -0.4852  0.3236
 3689SOL     OW14753   0.306   2.728   4.203 -0.8549 -0.0395 -0.3239
 3689SOL    HW114754   0.251   2.770   4.270  0.3901  0.5063  0.4056
 3689SOL    HW214755   0.371   2.679   4.254 -2.7876 -3.7614 -1.1091
 3689SOL     MW14756   0.307   2.727   4.218 -0.9430 -0.4461 -0.3311
 3690SOL     OW14757   0.099   3.897   3.715  0.2152  0.0318 -0.0319
 3690SOL    HW114758   0.117   3.938   3.630 -0.8270  0.4498 -0.0730
 3690SOL    HW214759   0.056   3.965   3.766  1.2806 -0.0650  1.0315
 3690SOL     MW14760   0.095   3.911   3.711  0.2182  0.0729  0.0989
 3691SOL     OW14761   2.203   4.746   2.679 -0.0643  0.3760 -0.2304
 3691SOL    HW114762   2.108   4.757   2.681 -0.3557 -1.3100 -1.7962
 3691SOL    HW214763   2.229   4.773   2.591  0.7428 -0.1506 -0.1704
 3691SOL     MW14764   2.194   4.751   2.668  0.0017  0.0928 -0.4231
 3692SOL     OW14765   1.154   5.298   1.969 -0.4703 -0.0359 -0.6434
 3692SOL    HW114766   1.131   5.390   1.957  1.7767  0.4919 -1.4318
 3692SOL    HW214767   1.130   5.279   2.059 -2.7075  0.7295 -1.0126
 3692SOL     MW14768   1.148   5.307   1.979 -0.4691  0.1296 -0.7916
 3693SOL     OW14769   0.242   0.103   3.926  0.0001  0.1732  0.1343
 3693SOL    HW114770   0.210   0.030   3.874  2.3439 -1.7367  1.1512
 3693SOL    HW214771   0.216   0.082   4.016 -0.9789  1.6303  0.2207
 3693SOL     MW14772   0.235   0.091   3.931  0.1748  0.1152  0.2755
 3694SOL     OW14773   1.781   0.176   4.443 -0.2859  0.5419 -0.0119
 3694SOL    HW114774   1.761   0.235   4.515 -2.7263  0.1863 -0.3260
 3694SOL    HW214775   1.754   0.223   4.364 -1.3392 -0.5851 -0.3481
 3694SOL     MW14776   1.775   0.189   4.442 -0.7332  0.3521 -0.0952
 3695SOL     OW14777   0.420   3.982   2.149  0.1642 -0.6481 -0.6978
 3695SOL    HW114778   0.473   4.044   2.199 -0.4441 -1.8388  1.5651
 3695SOL    HW214779   0.459   3.897   2.168 -0.8443 -1.2623 -1.3104
 3695SOL     MW14780   0.432   3.979   2.158 -0.0428 -0.8792 -0.4865
 3696SOL     OW14781   2.975   0.495   1.459  0.0935 -0.0042 -0.0633
 3696SOL    HW114782   2.891   0.539   1.466  0.2444  0.3861 -0.6065
 3696SOL    HW214783   3.039   0.565   1.446  0.3217 -0.3692 -1.0648
 3696SOL     MW14784   2.973   0.509   1.458  0.1420 -0.0010 -0.2611
 3697SOL     OW14785   2.031   3.601   3.391  0.1230  0.3716 -0.2718
 3697SOL    HW114786   2.012   3.690   3.362  2.5653  1.0295 -0.0390
 3697SOL    HW214787   1.949   3.554   3.378 -0.5170  2.0097 -2.8242
 3697SOL     MW14788   2.018   3.606   3.386  0.3537  0.6655 -0.5687
 3698SOL     OW14789   3.979   2.975   0.688 -0.1289  0.2853 -0.2699
 3698SOL    HW114790   4.053   2.926   0.724 -0.6673  0.7949  1.6648
 3698SOL    HW214791   4.019   3.046   0.638  0.7344  0.9589  1.3124
 3698SOL     MW14792   3.994   2.978   0.687 -0.0873  0.4368  0.1803
 3699SOL     OW14793   4.378   0.599   2.192  0.5963  0.8843  0.0371
 3699SOL    HW114794   4.406   0.559   2.110 -0.5378  1.7919 -0.8137
 3699SOL    HW214795   4.413   0.688   2.190  0.9926  0.7559  0.7778
 3699SOL     MW14796   4.386   0.605   2.182  0.5019  0.9841  0.0230
 3700SOL     OW14797   5.235   2.013   1.988 -0.0210 -0.4752 -0.0327
 3700SOL    HW114798   5.289   1.941   1.956  1.9540  0.4162  1.0951
 3700SOL    HW214799   5.238   2.078   1.918  0.2431 -0.4991 -0.0456
 3700SOL     MW14800   5.242   2.012   1.975  0.2656 -0.3641  0.1100
 3701SOL     OW14801   0.502   1.738   0.656 -0.0308 -0.2101  0.1294
 3701SOL    HW114802   0.447   1.682   0.602 -0.5910 -0.2057  0.6730
 3701SOL    HW214803   0.461   1.825   0.649  0.0748 -0.1456  0.3075
 3701SOL     MW14804   0.490   1.742   0.648 -0.0890 -0.2013  0.2218
 3702SOL     OW14805   0.894   4.341   4.631 -0.0824 -0.3964  0.4480
 3702SOL    HW114806   0.886   4.413   4.694 -1.8875  1.5298 -1.7897
 3702SOL    HW214807   0.907   4.384   4.546  0.0510 -2.7680 -0.8306
 3702SOL     MW14808   0.895   4.356   4.628 -0.2964 -0.4534 -0.0022
 3703SOL     OW14809   0.368   2.287   2.328  0.3348  0.0356  0.6064
 3703SOL    HW114810   0.286   2.287   2.378  0.5207 -1.9648  1.0120
 3703SOL    HW214811   0.340   2.287   2.236 -0.0151  3.0437  0.6173
 3703SOL     MW14812   0.354   2.287   2.322  0.3138  0.1646  0.6597
 3704SOL     OW14813   5.192   3.366   1.488 -0.4561  0.1164 -0.0048
 3704SOL    HW114814   5.224   3.349   1.399  1.7606 -2.9016  1.1803
 3704SOL    HW214815   5.267   3.401   1.535 -0.7433 -0.9054  1.2984
 3704SOL     MW14816   5.206   3.368   1.483 -0.2091 -0.4008  0.3138
 3705SOL     OW14817   2.088   4.641   3.294  0.0770  0.1487  0.2166
 3705SOL    HW114818   2.154   4.571   3.290 -1.9258 -1.7867 -1.9912
 3705SOL    HW214819   2.129   4.715   3.250  1.2014 -0.6011 -0.0469
 3705SOL     MW14820   2.102   4.642   3.288 -0.0355 -0.1950 -0.0998
 3706SOL     OW14821   1.442   3.740   1.490 -0.3643 -0.4891 -0.1625
 3706SOL    HW114822   1.414   3.712   1.577 -0.3962 -1.0676 -0.3503
 3706SOL    HW214823   1.533   3.711   1.483 -0.7193 -1.5394 -0.7566
 3706SOL     MW14824   1.450   3.733   1.500 -0.4138 -0.6976 -0.2626
 3707SOL     OW14825   3.552   4.347   3.038 -0.2235  0.5486  0.1291
 3707SOL    HW114826   3.628   4.356   2.980  0.2358  2.6858  0.9542
 3707SOL    HW214827   3.528   4.437   3.059 -1.7993 -0.1360  1.4541
 3707SOL     MW14828   3.559   4.360   3.033 -0.3664  0.7346  0.4043
 3708SOL     OW14829   0.545   3.963   1.710  0.2223 -0.4896  0.2802
 3708SOL    HW114830   0.600   3.933   1.782 -0.6987 -0.4594  1.0139
 3708SOL    HW214831   0.484   4.024   1.751  0.2566  0.2124 -0.6901
 3708SOL     MW14832   0.545   3.967   1.725  0.1088 -0.3958  0.2499
 3709SOL     OW14833   0.701   2.877   2.847 -0.5581 -0.2168  0.5489
 3709SOL    HW114834   0.665   2.964   2.862  0.0948 -0.0268  1.1097
 3709SOL    HW214835   0.625   2.821   2.833 -1.1135  0.0690  2.2248
 3709SOL     MW14836   0.687   2.881   2.847 -0.5456 -0.1559  0.8353
 3710SOL     OW14837   2.629   3.275   2.720  0.2116  0.0162 -0.2715
 3710SOL    HW114838   2.542   3.237   2.715  0.5551 -1.3205  2.2935
 3710SOL    HW214839   2.682   3.223   2.660 -0.2593 -0.7304 -0.0462
 3710SOL     MW14840   2.625   3.264   2.712  0.1953 -0.2505  0.0857
 3711SOL     OW14841   3.825   2.837   1.782  0.1598  0.1574  0.1332
 3711SOL    HW114842   3.854   2.876   1.700 -0.4751 -0.5594 -0.4405
 3711SOL    HW214843   3.880   2.758   1.792  0.8563  0.7116  0.8634
 3711SOL     MW14844   3.836   2.832   1.773  0.1677  0.1366  0.1532
 3712SOL     OW14845   4.626   0.296   1.051  0.1801 -0.1440  0.1152
 3712SOL    HW114846   4.537   0.307   1.082  0.3971  1.1347  0.3177
 3712SOL    HW214847   4.653   0.383   1.022  1.6296 -0.3370  0.7819
 3712SOL     MW14848   4.618   0.309   1.051  0.3934 -0.0050  0.2264
 3713SOL     OW14849   0.921   2.754   0.036  0.0139  0.0587 -0.4637
 3713SOL    HW114850   0.958   2.725  -0.047  0.4961  0.6264 -0.4522
 3713SOL    HW214851   0.993   2.745   0.099  0.1323  1.1406 -0.4333
 3713SOL     MW14852   0.935   2.749   0.033  0.0908  0.2698 -0.4583
 3714SOL     OW14853   4.162   0.291   2.582 -0.0878  0.5542 -0.0481
 3714SOL    HW114854   4.227   0.322   2.646  1.4537 -0.9630 -0.8079
 3714SOL    HW214855   4.207   0.294   2.498 -1.0233 -0.5143 -0.6117
 3714SOL     MW14856   4.176   0.296   2.580 -0.0102  0.2232 -0.2176
 3715SOL     OW14857   3.399   1.000   4.686  0.0467  0.3056 -0.1474
 3715SOL    HW114858   3.405   1.088   4.723  2.5276  0.4457 -0.7222
 3715SOL    HW214859   3.354   1.012   4.602  1.0161  1.1687 -0.5638
 3715SOL     MW14860   3.394   1.012   4.680  0.4883  0.4340 -0.2743
 3716SOL     OW14861   2.333   0.417   1.842 -0.0781 -0.2135 -0.1128
 3716SOL    HW114862   2.240   0.437   1.846  0.2268  1.4193 -0.4800
 3716SOL    HW214863   2.371   0.489   1.792  1.2667 -1.3143 -0.7555
 3716SOL     MW14864   2.326   0.429   1.836  0.1331 -0.1454 -0.2421
 3717SOL     OW14865   3.389   3.508   4.648 -0.3506 -0.0551  0.5942
 3717SOL    HW114866   3.478   3.477   4.666 -0.1560  1.5000  2.6284
 3717SOL    HW214867   3.399   3.602   4.633 -1.6091  0.0503  0.2803
 3717SOL     MW14868   3.402   3.516   4.648 -0.4868  0.1575  0.8144
 3718SOL     OW14869   4.310   3.169   3.985 -0.4846  0.2841  0.0327
 3718SOL    HW114870   4.321   3.261   4.008  0.1769  0.5847 -1.3848
 3718SOL    HW214871   4.284   3.127   4.067 -0.2148  1.6197  0.8368
 3718SOL     MW14872   4.308   3.175   3.998 -0.3654  0.4936 -0.0458
 3719SOL     OW14873   3.858   4.726   4.718 -0.1764  0.4822  0.4010
 3719SOL    HW114874   3.775   4.681   4.700 -0.0130 -0.2116  1.2468
 3719SOL    HW214875   3.848   4.758   4.808  0.4479  0.4182  0.4993
 3719SOL     MW14876   3.846   4.724   4.727 -0.0756  0.3852  0.5218
 3720SOL     OW14877   4.909   4.409   1.143 -0.9543 -0.3820 -0.3374
 3720SOL    HW114878   4.894   4.497   1.108  0.9838  0.2035  0.1747
 3720SOL    HW214879   4.926   4.355   1.066 -0.4298  0.0873 -0.5593
 3720SOL     MW14880   4.910   4.414   1.129 -0.6391 -0.2470 -0.3002
 3721SOL     OW14881   1.499   4.696   5.043 -0.0493 -0.2143 -0.0210
 3721SOL    HW114882   1.539   4.624   5.091 -1.4232 -0.5257  0.6913
 3721SOL    HW214883   1.499   4.770   5.104  2.3287  0.8062 -1.0832
 3721SOL     MW14884   1.504   4.696   5.057  0.0792 -0.1236 -0.0658
 3722SOL     OW14885   4.439   1.321   1.790  0.1749  0.6842  0.7405
 3722SOL    HW114886   4.412   1.239   1.747 -3.0019  1.6460  0.6049
 3722SOL    HW214887   4.534   1.319   1.787  0.2022 -1.3906 -2.3726
 3722SOL     MW14888   4.448   1.310   1.784 -0.2282  0.5417  0.3246
 3723SOL     OW14889   2.275   0.015   4.488  0.2984 -0.7677  0.7511
 3723SOL    HW114890   2.266   0.099   4.532 -1.9963 -0.2464 -0.5202
 3723SOL    HW214891   2.258   0.035   4.396  2.1290 -2.2670  0.0149
 3723SOL     MW14892   2.272   0.029   4.482  0.2390 -0.8929  0.4941
 3724SOL     OW14893   1.197   1.320   5.393 -0.1077 -0.0544  0.4200
 3724SOL    HW114894   1.231   1.382   5.457  0.5249  1.7082 -1.4877
 3724SOL    HW214895   1.241   1.343   5.311 -0.1704 -2.8071 -0.4985
 3724SOL     MW14896   1.207   1.331   5.390 -0.0347 -0.1812  0.0582
 3725SOL     OW14897   4.651   3.182   5.421  0.0544  0.3671 -0.4808
 3725SOL    HW114898   4.657   3.235   5.341  3.0386  2.2543  0.8363
 3725SOL    HW214899   4.600   3.106   5.395 -1.0396  1.9707 -3.5629
 3725SOL     MW14900   4.645   3.179   5.407  0.2964  0.8139 -0.7067
 3726SOL     OW14901   4.055   2.553   3.129  0.3499 -0.2849  0.2761
 3726SOL    HW114902   4.138   2.563   3.084  1.6877  2.6704  3.0129
 3726SOL    HW214903   3.995   2.611   3.082 -0.0309 -1.8003 -1.2026
 3726SOL     MW14904   4.058   2.562   3.117  0.4724 -0.1006  0.4371
 3727SOL     OW14905   1.432   3.495   1.672  0.8810  0.1657 -0.5567
 3727SOL    HW114906   1.475   3.454   1.747  0.0385  0.9122  0.3755
 3727SOL    HW214907   1.339   3.473   1.683  0.2551  2.8922  0.4567
 3727SOL     MW14908   1.426   3.487   1.683  0.6930  0.6103 -0.3077
 3728SOL     OW14909   4.210   3.672   0.431 -0.5677  0.2897  0.1660
 3728SOL    HW114910   4.254   3.587   0.428  0.5781  0.8379 -3.6124
 3728SOL    HW214911   4.117   3.651   0.432 -0.2994 -0.9609  1.1091
 3728SOL     MW14912   4.204   3.659   0.431 -0.3867  0.1998 -0.1970
 3729SOL     OW14913   0.316   1.300   0.237 -0.0074 -0.3046 -0.3995
 3729SOL    HW114914   0.343   1.217   0.276 -0.6893 -1.4271 -2.1759
 3729SOL    HW214915   0.399   1.346   0.218  0.4298 -1.1735 -0.6301
 3729SOL     MW14916   0.330   1.296   0.239 -0.0387 -0.5595 -0.6564
 3730SOL     OW14917   2.603   4.515   0.387 -0.4048 -0.0850 -0.1266
 3730SOL    HW114918   2.622   4.432   0.342 -0.1217  0.3778 -0.8710
 3730SOL    HW214919   2.597   4.491   0.479 -1.8219 -1.1993 -0.4709
 3730SOL     MW14920   2.605   4.501   0.393 -0.5499 -0.1684 -0.2660
 3731SOL     OW14921   1.319   0.293   1.707  0.2631 -0.4812  0.4224
 3731SOL    HW114922   1.351   0.363   1.764 -2.2819  0.0876  1.2667
 3731SOL    HW214923   1.296   0.338   1.625 -0.0819 -0.5625  0.4739
 3731SOL     MW14924   1.321   0.308   1.704 -0.1068 -0.4188  0.5371
 3732SOL     OW14925   2.043   2.080   1.542  0.0735  0.0484 -0.5347
 3732SOL    HW114926   2.049   2.101   1.635 -0.3322  0.4727 -0.6049
 3732SOL    HW214927   1.995   1.997   1.540  0.3416 -0.1165 -0.3555
 3732SOL     MW14928   2.038   2.072   1.553  0.0559  0.0816 -0.5207
 3733SOL     OW14929   3.061   1.217   2.002 -0.2716  0.4420  0.0483
 3733SOL    HW114930   3.144   1.258   1.979  0.1326  0.2439  1.1216
 3733SOL    HW214931   3.032   1.175   1.921  0.6711  0.4968 -0.3289
 3733SOL     MW14932   3.068   1.217   1.988 -0.0992  0.4237  0.1374
 3734SOL     OW14933   0.721   5.041   3.215  0.1428  0.1355  0.0310
 3734SOL    HW114934   0.726   5.028   3.310 -0.2807  1.0861  0.1986
 3734SOL    HW214935   0.635   5.080   3.200  0.6252  0.9917 -0.6108
 3734SOL     MW14936   0.711   5.045   3.225  0.1504  0.3668 -0.0297
 3735SOL     OW14937   5.413   0.623   1.930 -0.6029 -0.3144  0.5175
 3735SOL    HW114938   5.404   0.712   1.895 -1.0910 -0.7949 -0.6460
 3735SOL    HW214939   5.384   0.567   1.858  3.8884 -1.6750 -0.5046
 3735SOL     MW14940   5.408   0.627   1.916 -0.0904 -0.5501  0.2377
 3736SOL     OW14941   0.079   5.230   4.770 -0.6701 -0.0734 -0.1350
 3736SOL    HW114942   0.111   5.140   4.772 -2.1120 -0.6116 -0.2076
 3736SOL    HW214943   0.136   5.275   4.707 -0.3728 -1.0990 -0.6172
 3736SOL     MW14944   0.090   5.224   4.762 -0.8166 -0.2736 -0.2061
 3737SOL     OW14945   4.439   3.427   3.834 -0.1381 -0.1171 -0.2078
 3737SOL    HW114946   4.523   3.464   3.862  0.7597 -0.9740 -1.6688
 3737SOL    HW214947   4.388   3.503   3.805  0.0976  0.4110  0.7211
 3737SOL     MW14948   4.443   3.442   3.834  0.0070 -0.1592 -0.2759
 3738SOL     OW14949   3.099   4.886   0.426 -0.4262  0.2792 -0.0448
 3738SOL    HW114950   3.191   4.888   0.452 -0.3784 -0.0470 -0.1919
 3738SOL    HW214951   3.088   4.803   0.381 -0.8596  0.1954  0.2081
 3738SOL     MW14952   3.110   4.876   0.423 -0.4756  0.2268 -0.0312
 3739SOL     OW14953   2.760   2.510   1.109 -0.3628  0.0352 -0.5166
 3739SOL    HW114954   2.698   2.583   1.106  1.7764  1.9900 -0.2710
 3739SOL    HW214955   2.712   2.436   1.072 -2.2619  1.8544 -1.9285
 3739SOL     MW14956   2.746   2.510   1.104 -0.3321  0.5184 -0.6659
 3740SOL     OW14957   3.378   2.505   2.801 -0.3455 -0.0630  0.1738
 3740SOL    HW114958   3.418   2.562   2.868  0.5222  0.0063 -0.3906
 3740SOL    HW214959   3.323   2.564   2.750 -0.3407  0.0493  0.2954
 3740SOL     MW14960   3.376   2.520   2.803 -0.2338 -0.0398  0.1171
 3741SOL     OW14961   0.134   1.368   3.368 -0.0117 -0.3574 -0.1602
 3741SOL    HW114962   0.169   1.301   3.309 -0.7472 -1.5848  0.7324
 3741SOL    HW214963   0.173   1.450   3.338  1.5751 -1.2937 -0.7947
 3741SOL     MW14964   0.144   1.370   3.356  0.0972 -0.6344 -0.1272
 3742SOL     OW14965   1.060   0.943   4.860 -0.0190 -0.0444 -0.3713
 3742SOL    HW114966   1.082   0.980   4.775  1.2900  0.2382  0.0622
 3742SOL    HW214967   1.116   0.989   4.922 -1.0796 -0.1144  0.6833
 3742SOL     MW14968   1.070   0.953   4.857  0.0128 -0.0172 -0.1808
 3743SOL     OW14969   1.500   4.367   0.047 -0.0117 -0.1595  0.0165
 3743SOL    HW114970   1.484   4.278   0.078  0.9582 -0.2521  0.2747
 3743SOL    HW214971   1.499   4.359  -0.049 -0.4411 -0.3511  0.0349
 3743SOL     MW14972   1.498   4.354   0.039  0.0575 -0.1959  0.0519
 3744SOL     OW14973   0.583   1.027   4.369 -0.6287 -0.2122  0.2850
 3744SOL    HW114974   0.650   1.095   4.381 -1.6803  0.7388  0.9769
 3744SOL    HW214975   0.585   0.976   4.450 -1.3001  0.3497  0.6692
 3744SOL     MW14976   0.592   1.029   4.381 -0.8493 -0.0185  0.4227
 3745SOL     OW14977   0.284   0.760   1.002  0.1946 -0.2806  0.5695
 3745SOL    HW114978   0.223   0.824   1.039 -0.1541  0.2528 -0.8301
 3745SOL    HW214979   0.248   0.741   0.915  1.5121 -0.6828  0.0954
 3745SOL     MW14980   0.271   0.766   0.996  0.3186 -0.2638  0.3297
 3746SOL     OW14981   1.044   1.312   4.285  0.0129 -0.3559  0.6884
 3746SOL    HW114982   1.056   1.395   4.332  1.1821 -1.1177  1.7835
 3746SOL    HW214983   1.127   1.266   4.295 -0.3347 -1.3247 -0.6151
 3746SOL     MW14984   1.056   1.317   4.292  0.1181 -0.5774  0.6617
 3747SOL     OW14985   1.470   1.272   0.037 -0.2709  0.2662  0.0578
 3747SOL    HW114986   1.539   1.215   0.069  0.2558 -0.2001 -1.8376
 3747SOL    HW214987   1.389   1.232   0.071  0.1949 -0.7045  0.0579
 3747SOL     MW14988   1.468   1.260   0.046 -0.1438  0.0822 -0.1848
 3748SOL     OW14989   0.954   2.785   3.043  0.1707  0.4626  0.0609
 3748SOL    HW114990   0.975   2.828   2.960  1.0878  1.7476  0.9258
 3748SOL    HW214991   0.881   2.835   3.078 -0.6388 -0.4698 -0.2298
 3748SOL     MW14992   0.947   2.797   3.037  0.1845  0.5077  0.1344
 3749SOL     OW14993   3.521   0.246   5.110 -0.2507 -0.0472 -0.3562
 3749SOL    HW114994   3.607   0.260   5.148 -0.0760  2.1450 -1.3976
 3749SOL    HW214995   3.498   0.156   5.134  2.8481 -1.1674 -1.1510
 3749SOL     MW14996   3.529   0.237   5.118  0.1684  0.0900 -0.5912
 3750SOL     OW14997   5.237   0.902   5.277  0.0099  0.2699  0.3390
 3750SOL    HW114998   5.261   0.826   5.226  0.0588  1.4792 -1.5319
 3750SOL    HW214999   5.243   0.976   5.216  0.6759  1.8907  2.2456
 3750SOL     MW15000   5.241   0.902   5.263  0.1014  0.6322  0.3436
 3751SOL     OW15001   4.378   0.304   1.129 -0.4301  0.1004  0.3729
 3751SOL    HW115002   4.316   0.235   1.108  0.1434 -0.4492  0.4445
 3751SOL    HW215003   4.393   0.295   1.223 -2.4563  2.1015  0.9803
 3751SOL     MW15004   4.372   0.294   1.138 -0.6161  0.2862  0.4598
 3752SOL     OW15005   5.180   2.309   0.758 -0.1128  0.6624  0.0899
 3752SOL    HW115006   5.234   2.246   0.711  0.9016  0.6162  1.2479
 3752SOL    HW215007   5.130   2.353   0.690  0.4908 -0.1395 -0.9160
 3752SOL     MW15008   5.181   2.307   0.744  0.0943  0.5539  0.1094
 3753SOL     OW15009   1.140   0.812   4.102  0.3437 -0.1355 -0.3287
 3753SOL    HW115010   1.078   0.755   4.056 -0.1969  0.3892 -0.2675
 3753SOL    HW215011   1.129   0.790   4.195 -0.6212  0.7757 -0.2078
 3753SOL     MW15012   1.131   0.802   4.108  0.1510  0.0483 -0.3054
 3754SOL     OW15013   4.114   2.607   4.925 -0.0336 -0.5231  0.3549
 3754SOL    HW115014   4.142   2.547   4.856 -0.1428 -0.5552  0.3389
 3754SOL    HW215015   4.087   2.686   4.879  0.4014 -0.3456  0.3937
 3754SOL     MW15016   4.114   2.610   4.910  0.0081 -0.5045  0.3578
 3755SOL     OW15017   5.501   3.270   5.326  0.6105  0.2610 -0.2580
 3755SOL    HW115018   5.483   3.183   5.363  0.8841  0.6001  0.7161
 3755SOL    HW215019   5.414   3.310   5.318  0.6286  0.8666  1.8304
 3755SOL     MW15020   5.487   3.264   5.330  0.6478  0.3820  0.1340
 3756SOL     OW15021   4.646   4.490   2.059 -0.1438 -0.3927  0.1021
 3756SOL    HW115022   4.662   4.583   2.043  0.7513 -0.0977  2.3768
 3756SOL    HW215023   4.695   4.446   1.990  0.5006  0.8070 -0.2376
 3756SOL     MW15024   4.655   4.497   2.048  0.0533 -0.2014  0.3498
 3757SOL     OW15025   4.426   5.221   4.745  0.7713  0.1904 -0.2225
 3757SOL    HW115026   4.480   5.257   4.675 -0.6258  1.4242 -0.7088
 3757SOL    HW215027   4.355   5.176   4.701 -0.0785  0.9084  0.3584
 3757SOL     MW15028   4.424   5.220   4.730  0.4837  0.4403 -0.2104
 3758SOL     OW15029   2.076   1.812   0.034  1.0721 -0.0947 -0.3206
 3758SOL    HW115030   2.114   1.724   0.029  1.6262  0.1134  0.1967
 3758SOL    HW215031   2.151   1.870   0.046  0.6960  0.4431 -0.5186
 3758SOL     MW15032   2.090   1.808   0.035  1.0949  0.0008 -0.2797
 3759SOL     OW15033   2.025   4.097   1.465  0.5180  0.5740  0.3623
 3759SOL    HW115034   2.007   4.053   1.549 -2.1882  2.3249  0.8470
 3759SOL    HW215035   2.026   4.026   1.401 -1.5352 -0.4954  1.3905
 3759SOL     MW15036   2.023   4.082   1.468 -0.0913  0.6612  0.5559
 3760SOL     OW15037   0.611   3.868   5.184 -0.2887  0.0603  0.0135
 3760SOL    HW115038   0.679   3.803   5.168 -0.6732 -0.3689  0.1171
 3760SOL    HW215039   0.531   3.830   5.148 -0.3193  0.9298 -0.9012
 3760SOL     MW15040   0.610   3.855   5.177 -0.3418  0.1166 -0.0904
 3761SOL     OW15041   4.703   2.742   0.511  0.1244  0.1114 -0.2128
 3761SOL    HW115042   4.639   2.675   0.485  1.0308 -0.6774 -0.4312
 3761SOL    HW215043   4.747   2.704   0.588  0.5413  0.5260 -0.2498
 3761SOL     MW15044   4.700   2.728   0.518  0.2938  0.0635 -0.2455
 3762SOL     OW15045   3.665   1.745   4.289  0.4052 -0.8304 -0.3857
 3762SOL    HW115046   3.754   1.780   4.288  0.7411 -1.5377  1.1649
 3762SOL    HW215047   3.674   1.658   4.329 -0.8713 -1.2694 -0.9901
 3762SOL     MW15048   3.677   1.738   4.294  0.2848 -0.9771 -0.2646
 3763SOL     OW15049   2.529   3.152   4.244 -0.3066 -0.7489 -0.3298
 3763SOL    HW115050   2.593   3.143   4.172  0.0033 -1.3870  0.0211
 3763SOL    HW215051   2.503   3.244   4.240  0.5165 -0.5128 -0.5871
 3763SOL     MW15052   2.534   3.163   4.234 -0.1616 -0.8003 -0.3178
 3764SOL     OW15053   4.062   0.843   0.169 -0.1226 -0.1843  0.2559
 3764SOL    HW115054   4.102   0.781   0.108  0.0437 -0.2018  0.3811
 3764SOL    HW215055   4.134   0.899   0.197  0.1249 -1.1458  1.6176
 3764SOL     MW15056   4.076   0.842   0.165 -0.0696 -0.3096  0.4463
 3765SOL     OW15057   1.173   1.475   2.698  0.7129  0.1406 -0.2751
 3765SOL    HW115058   1.089   1.430   2.699  0.2987  0.5595 -3.7920
 3765SOL    HW215059   1.152   1.567   2.718  0.5501  0.0178  0.1293
 3765SOL     MW15060   1.160   1.481   2.700  0.6391  0.1785 -0.6736
 3766SOL     OW15061   1.456   1.644   1.417  0.5766  0.2360  0.3966
 3766SOL    HW115062   1.469   1.718   1.476 -0.7317 -0.4086  1.5475
 3766SOL    HW215063   1.493   1.570   1.463  0.1781 -0.1530  0.1033
 3766SOL     MW15064   1.462   1.644   1.430  0.3581  0.1037  0.5064
 3767SOL     OW15065   1.901   4.836   2.346  0.4434  0.3693 -0.2766
 3767SOL    HW115066   1.808   4.818   2.356  0.2613 -0.4546 -2.7880
 3767SOL    HW215067   1.909   4.874   2.258  2.5521 -0.3371 -0.4431
 3767SOL     MW15068   1.890   4.838   2.336  0.6900  0.1734 -0.6194
 3768SOL     OW15069   5.257   1.012   0.989  0.3921 -0.0143  0.0111
 3768SOL    HW115070   5.286   1.103   0.981 -1.1406  0.5159  0.1378
 3768SOL    HW215071   5.277   0.972   0.904  1.8364  0.1871  0.2321
 3768SOL     MW15072   5.263   1.019   0.977  0.3808  0.0793  0.0556
 3769SOL     OW15073   4.318   1.035   1.966 -0.0167  0.1446  0.4741
 3769SOL    HW115074   4.345   1.037   1.874 -0.1361 -0.5230  0.4197
 3769SOL    HW215075   4.249   0.968   1.969  1.1077 -1.0193  1.3374
 3769SOL     MW15076   4.312   1.026   1.954  0.1120 -0.0899  0.5777
 3770SOL     OW15077   1.514   2.995   1.920 -0.1021 -0.1100 -0.0675
 3770SOL    HW115078   1.549   3.019   2.006 -0.3759 -0.5869  0.1796
 3770SOL    HW215079   1.430   2.954   1.939 -1.1064  1.5433 -0.6856
 3770SOL     MW15080   1.507   2.993   1.934 -0.2657  0.0406 -0.1150
 3771SOL     OW15081   0.111   4.661   4.693  0.5677 -0.2415  0.2358
 3771SOL    HW115082   0.037   4.715   4.664  0.7877 -0.7414 -1.3502
 3771SOL    HW215083   0.083   4.627   4.778 -0.5804  0.4167  0.1502
 3771SOL     MW15084   0.098   4.664   4.700  0.4489 -0.2213  0.0218
 3772SOL     OW15085   0.774   1.509   1.375 -0.1333 -0.1069  0.0167
 3772SOL    HW115086   0.842   1.571   1.350 -0.0681  0.1121  0.7407
 3772SOL    HW215087   0.820   1.425   1.384  0.1013  0.1123  0.8555
 3772SOL     MW15088   0.788   1.506   1.373 -0.0949 -0.0508  0.2167
 3773SOL     OW15089   4.920   3.163   0.909  0.4423 -0.1012 -0.5045
 3773SOL    HW115090   4.938   3.130   0.997  0.1588  2.5787  0.6604
 3773SOL    HW215091   4.825   3.158   0.901  0.4988 -0.7621 -0.8788
 3773SOL     MW15092   4.910   3.158   0.919  0.4132  0.1572 -0.4033
 3774SOL     OW15093   0.942   2.001   2.610 -0.1895 -0.6872  0.7212
 3774SOL    HW115094   0.907   2.070   2.666 -0.8898 -1.0868  0.7899
 3774SOL    HW215095   0.940   1.922   2.664  0.4466 -0.8046  0.5889
 3774SOL     MW15096   0.938   2.000   2.624 -0.1977 -0.7534  0.7131
 3775SOL     OW15097  -0.020   1.566   0.297 -0.3080 -0.3541  0.8492
 3775SOL    HW115098  -0.034   1.472   0.311  1.7794 -0.7420  0.7413
 3775SOL    HW215099   0.071   1.572   0.267 -1.1716  1.4661 -1.7365
 3775SOL     MW15100  -0.010   1.555   0.295 -0.1514 -0.1708  0.5044
 3776SOL     OW15101   0.272   4.472   5.368  0.0836 -0.2562 -0.1740
 3776SOL    HW115102   0.258   4.388   5.325 -2.7884 -0.1912  0.4215
 3776SOL    HW215103   0.277   4.451   5.461 -1.5208  0.2341  0.0625
 3776SOL     MW15104   0.271   4.459   5.374 -0.4894 -0.1851 -0.0675
 3777SOL     OW15105   4.558   4.512   0.687  0.2058  0.3313  0.1853
 3777SOL    HW115106   4.599   4.561   0.759  1.1363  1.2520 -0.9256
 3777SOL    HW215107   4.581   4.421   0.704  1.4681  0.6677  0.4166
 3777SOL     MW15108   4.566   4.507   0.699  0.4865  0.4922  0.0727
 3778SOL     OW15109   1.312   2.394   5.025  0.0845 -0.4671  0.3838
 3778SOL    HW115110   1.310   2.481   4.985 -1.3607 -1.3663 -1.6429
 3778SOL    HW215111   1.309   2.411   5.119  1.4462  1.6948  0.1124
 3778SOL     MW15112   1.312   2.407   5.032  0.0738 -0.3054  0.0896
 3779SOL     OW15113   4.383   5.037   1.067 -0.3928 -0.4079 -0.7580
 3779SOL    HW115114   4.334   5.117   1.044 -4.3959 -2.3937  0.0019
 3779SOL    HW215115   4.409   5.050   1.158 -0.9477  0.0658 -0.6590
 3779SOL     MW15116   4.380   5.049   1.075 -0.9763 -0.6015 -0.6481
 3780SOL     OW15117   0.859   4.710   1.904 -0.0474  0.4123 -0.1379
 3780SOL    HW115118   0.943   4.742   1.869 -0.2749  1.4194  0.2052
 3780SOL    HW215119   0.881   4.627   1.947  0.5923  0.1726 -0.9004
 3780SOL     MW15120   0.873   4.703   1.905  0.0054  0.5105 -0.1916
 3781SOL     OW15121   1.615   4.824   3.103  0.0840 -0.2757  0.0449
 3781SOL    HW115122   1.697   4.782   3.077  1.3121 -0.1645  3.3055
 3781SOL    HW215123   1.642   4.909   3.138 -1.3847 -0.2551  1.2354
 3781SOL     MW15124   1.629   4.830   3.104  0.0532 -0.2589  0.6147
 3782SOL     OW15125   4.002   1.301   0.353  0.5004  0.6413 -0.2505
 3782SOL    HW115126   4.023   1.306   0.446 -2.5567  0.4346  0.5599
 3782SOL    HW215127   4.017   1.390   0.321  0.5484  0.9969  0.7179
 3782SOL     MW15128   4.007   1.313   0.361  0.1152  0.6604 -0.0228
 3783SOL     OW15129   1.970   3.789   1.853  0.2177  0.6189 -0.3262
 3783SOL    HW115130   1.944   3.754   1.768 -0.4003 -0.1071  0.1510
 3783SOL    HW215131   2.054   3.832   1.836  0.0191  0.6411 -1.3326
 3783SOL     MW15132   1.977   3.790   1.840  0.1132  0.5288 -0.3940
 3784SOL     OW15133   1.086   4.981   2.213 -0.1847  0.1181  0.4786
 3784SOL    HW115134   1.110   4.938   2.131  0.1059 -0.1254  0.6868
 3784SOL    HW215135   1.074   4.909   2.275  2.1762  0.3722  1.3326
 3784SOL     MW15136   1.088   4.966   2.211  0.1547  0.1195  0.6145
 3785SOL     OW15137   4.553   1.784   5.154  0.0631 -0.0923  0.5928
 3785SOL    HW115138   4.481   1.844   5.136  0.5619  0.0458 -1.0643
 3785SOL    HW215139   4.632   1.838   5.145  0.4138 -0.3206  2.0471
 3785SOL     MW15140   4.554   1.799   5.151  0.1719 -0.1038  0.5669
 3786SOL     OW15141   5.381   4.955   3.251 -0.2990 -0.4031 -0.3375
 3786SOL    HW115142   5.381   4.936   3.157 -0.7891 -4.4673  0.3226
 3786SOL    HW215143   5.292   4.934   3.279  0.1053 -0.1699  1.1831
 3786SOL     MW15144   5.370   4.950   3.243 -0.3100 -0.8935 -0.0583
 3787SOL     OW15145   0.613   0.555   3.101 -0.6122  0.3207  0.1404
 3787SOL    HW115146   0.565   0.628   3.062 -1.1751 -0.5756 -0.8960
 3787SOL    HW215147   0.679   0.532   3.037 -2.0703 -1.6968 -0.7531
 3787SOL     MW15148   0.615   0.562   3.088 -0.8709 -0.0523 -0.1067
 3788SOL     OW15149   3.053   2.356   4.594 -0.0117 -0.6302 -0.2184
 3788SOL    HW115150   3.087   2.445   4.591  0.9657 -1.0085 -1.2989
 3788SOL    HW215151   2.963   2.363   4.561  0.2760 -0.1319 -0.9097
 3788SOL     MW15152   3.046   2.368   4.589  0.1502 -0.6148 -0.4452
 3789SOL     OW15153   2.680   4.682   3.053 -0.2704 -0.0521  0.1600
 3789SOL    HW115154   2.719   4.763   3.087  1.2878 -0.6285 -0.1336
 3789SOL    HW215155   2.586   4.692   3.066  0.0245  1.1243  1.5913
 3789SOL     MW15156   2.673   4.694   3.059 -0.0332  0.0247  0.3057
 3790SOL     OW15157   2.691   0.752   4.880  0.2535 -0.3512  0.4333
 3790SOL    HW115158   2.726   0.829   4.835 -0.8166 -1.2008 -2.0316
 3790SOL    HW215159   2.744   0.679   4.848  0.8660 -0.7669  2.2719
 3790SOL     MW15160   2.702   0.752   4.870  0.1949 -0.5132  0.3532
 3791SOL     OW15161   1.329   4.116   4.362  0.3542 -0.1309  0.0786
 3791SOL    HW115162   1.263   4.061   4.404 -0.5056  0.8386  0.0375
 3791SOL    HW215163   1.390   4.055   4.322  0.0622 -1.0554  1.0214
 3791SOL     MW15164   1.328   4.102   4.362  0.2067 -0.1251  0.1940
 3792SOL     OW15165   5.223   4.823   0.726  0.7187 -0.1254 -0.3613
 3792SOL    HW115166   5.274   4.781   0.795  0.1366  1.1019  0.8762
 3792SOL    HW215167   5.138   4.840   0.767 -0.1607 -0.6910 -1.8627
 3792SOL     MW15168   5.218   4.820   0.740  0.5316 -0.0407 -0.3951
 3793SOL     OW15169   2.121   1.837   1.255 -0.0209  0.2776  0.5182
 3793SOL    HW115170   2.078   1.921   1.237 -0.4910 -0.4372 -2.0813
 3793SOL    HW215171   2.096   1.816   1.345 -1.4336  2.0293  0.5893
 3793SOL     MW15172   2.113   1.845   1.264 -0.2619  0.4104  0.1945
 3794SOL     OW15173   0.859   1.410   0.155 -0.3451 -0.2674  0.0174
 3794SOL    HW115174   0.935   1.414   0.212 -2.2151  2.5090  2.6074
 3794SOL    HW215175   0.882   1.466   0.081  0.8412 -1.1592 -0.3232
 3794SOL     MW15176   0.871   1.418   0.153 -0.4326 -0.0262  0.3053
 3795SOL     OW15177   1.636   0.866   1.724 -0.0740 -0.7330 -0.0746
 3795SOL    HW115178   1.630   0.778   1.687 -1.0438 -0.5608 -0.3701
 3795SOL    HW215179   1.728   0.891   1.713 -0.0669 -1.2032 -1.1784
 3795SOL     MW15180   1.647   0.858   1.718 -0.1973 -0.7712 -0.2537
 3796SOL     OW15181   2.455   2.512   2.856  0.4446  0.0630  0.1045
 3796SOL    HW115182   2.547   2.511   2.832  1.1520 -0.4755  2.5689
 3796SOL    HW215183   2.426   2.421   2.846  0.0457  0.2867 -0.9726
 3796SOL     MW15184   2.463   2.500   2.852  0.4841  0.0227  0.2821
 3797SOL     OW15185   1.202   1.050   2.325  0.1366  0.0943  0.3749
 3797SOL    HW115186   1.151   1.077   2.401 -0.4999  2.8415 -0.8791
 3797SOL    HW215187   1.137   1.032   2.257  0.6730  2.3142 -0.8362
 3797SOL     MW15188   1.187   1.051   2.326  0.1238  0.7301  0.0593
 3798SOL     OW15189   3.688   4.257   0.523 -0.2276  0.4383  0.3538
 3798SOL    HW115190   3.675   4.347   0.493  1.2258  0.2029 -1.1434
 3798SOL    HW215191   3.761   4.263   0.585 -1.0649  0.4533  1.3716
 3798SOL     MW15192   3.696   4.270   0.527 -0.1488  0.4101  0.2924
 3799SOL     OW15193   1.833   1.594   2.244 -0.1719 -0.0795  0.4134
 3799SOL    HW115194   1.913   1.552   2.277  0.0741 -0.3157 -0.4512
 3799SOL    HW215195   1.802   1.648   2.316  1.0722  0.4380  0.5787
 3799SOL     MW15196   1.839   1.595   2.257  0.0189 -0.0435  0.3239
 3800SOL     OW15197   1.281   4.631   0.916 -0.0872  1.0049  0.1216
 3800SOL    HW115198   1.219   4.617   0.987  0.0912 -1.9079 -0.1984
 3800SOL    HW215199   1.358   4.669   0.958 -0.0552 -0.4667  1.4682
 3800SOL     MW15200   1.283   4.634   0.930 -0.0603  0.4437  0.2530
 3801SOL     OW15201   5.491   4.803   1.425 -0.5601  0.3531 -0.5050
 3801SOL    HW115202   5.483   4.747   1.502  1.1335 -1.2454 -1.3847
 3801SOL    HW215203   5.467   4.890   1.455  1.8806  0.1995  2.3969
 3801SOL     MW15204   5.487   4.807   1.438 -0.0309  0.1288 -0.2462
 3802SOL     OW15205   4.057   0.372   0.077 -0.4098  0.1032  0.0367
 3802SOL    HW115206   4.066   0.291   0.027 -0.7679  0.1188 -0.0569
 3802SOL    HW215207   4.136   0.422   0.056 -0.5864  0.1368 -0.5738
 3802SOL     MW15208   4.068   0.368   0.068 -0.4782  0.1095 -0.0534
 3803SOL     OW15209   4.965   3.322   5.235 -0.4000  0.1942 -0.3513
 3803SOL    HW115210   4.950   3.228   5.222  1.1650 -0.0762 -0.4003
 3803SOL    HW215211   5.060   3.332   5.234 -0.4180  1.4535  1.8946
 3803SOL     MW15212   4.975   3.311   5.233 -0.2020  0.3208 -0.0701
 3804SOL     OW15213   4.825   4.577   4.331  0.1413  0.7632  0.1807
 3804SOL    HW115214   4.864   4.663   4.347  2.5792 -0.2160 -0.1455
 3804SOL    HW215215   4.892   4.515   4.358  0.2867 -1.0377 -3.6370
 3804SOL     MW15216   4.838   4.580   4.336  0.4720  0.4073 -0.3498
 3805SOL     OW15217   5.387   3.972   0.930  0.4091 -0.0518  0.1227
 3805SOL    HW115218   5.469   4.003   0.969  1.1150 -0.8108 -0.7084
 3805SOL    HW215219   5.380   4.022   0.848 -0.4351  0.6614  0.6190
 3805SOL     MW15220   5.397   3.982   0.924  0.3914 -0.0577  0.0798
 3806SOL     OW15221   1.790   5.336   1.910 -0.0789  0.4435 -0.2239
 3806SOL    HW115222   1.710   5.294   1.877 -0.4396  0.0324  1.1245
 3806SOL    HW215223   1.852   5.329   1.837 -0.9026 -0.2743 -0.8798
 3806SOL     MW15224   1.787   5.330   1.896 -0.2305  0.2990 -0.1352
 3807SOL     OW15225   0.840   2.945   3.855  0.7028 -0.9449  0.6932
 3807SOL    HW115226   0.766   3.006   3.858  0.7402 -0.9295  1.3459
 3807SOL    HW215227   0.851   2.926   3.761 -0.2726 -1.1396  0.6066
 3807SOL     MW15228   0.832   2.951   3.843  0.5828 -0.9679  0.7657
 3808SOL     OW15229   0.909   3.308   0.955 -0.2256 -0.2681 -0.1570
 3808SOL    HW115230   1.004   3.298   0.951 -0.2585 -0.2156 -2.0034
 3808SOL    HW215231   0.891   3.389   0.908 -1.1538  0.0133  0.6574
 3808SOL     MW15232   0.918   3.317   0.948 -0.3486 -0.2253 -0.2891
 3809SOL     OW15233   0.207   2.955   1.590 -0.0278  0.1343 -0.2696
 3809SOL    HW115234   0.175   2.866   1.601  0.3436  0.1211  0.8780
 3809SOL    HW215235   0.290   2.945   1.543  1.7047 -0.5101  2.6116
 3809SOL     MW15236   0.214   2.942   1.586  0.2415  0.0501  0.2462
 3810SOL     OW15237   0.378   5.268   2.639 -0.0982  0.1742  0.2339
 3810SOL    HW115238   0.448   5.334   2.643  1.3423 -1.1960 -1.0626
 3810SOL    HW215239   0.417   5.189   2.676 -1.3587 -0.3322  0.5408
 3810SOL     MW15240   0.392   5.267   2.644 -0.0752 -0.0661  0.1072
 3811SOL     OW15241   4.955   3.903   2.378 -0.5850  0.5503  0.3471
 3811SOL    HW115242   5.008   3.858   2.444  0.5617  0.9049 -0.3012
 3811SOL    HW215243   4.943   3.839   2.308 -0.6158  0.6193  0.2885
 3811SOL     MW15244   4.961   3.889   2.377 -0.4421  0.6045  0.2566
 3812SOL     OW15245   0.292   0.264   0.859  0.3591 -0.2754  0.6997
 3812SOL    HW115246   0.262   0.175   0.878  1.2587 -1.0220 -1.1322
 3812SOL    HW215247   0.380   0.268   0.897  0.8851 -0.6762 -0.4478
 3812SOL     MW15248   0.299   0.253   0.867  0.5416 -0.4223  0.3183
 3813SOL     OW15249   5.046   5.119   3.679  0.0138  0.0143  0.2957
 3813SOL    HW115250   5.067   5.209   3.654 -0.7368 -0.2171 -1.2854
 3813SOL    HW215251   5.122   5.068   3.652  0.5654  0.1850  1.4575
 3813SOL     MW15252   5.058   5.124   3.672 -0.0117  0.0065  0.2420
 3814SOL     OW15253   4.123   2.381   3.939  0.1489 -0.5682 -0.3035
 3814SOL    HW115254   4.037   2.384   3.898 -0.2157  1.2393  0.5086
 3814SOL    HW215255   4.181   2.426   3.877  0.3534 -1.0445 -0.4663
 3814SOL     MW15256   4.120   2.387   3.926  0.1284 -0.3978 -0.2204
 3815SOL     OW15257   5.239   2.477   3.813  0.4680 -0.5941  0.0799
 3815SOL    HW115258   5.183   2.539   3.766  1.2992 -1.8836 -2.8043
 3815SOL    HW215259   5.314   2.530   3.841  1.1050 -0.1799 -2.2226
 3815SOL     MW15260   5.241   2.492   3.811  0.6560 -0.7062 -0.5841
 3816SOL     OW15261   3.798   0.743   4.779 -0.2349  0.2233  0.8676
 3816SOL    HW115262   3.838   0.766   4.863 -2.5271 -0.1451  2.1454
 3816SOL    HW215263   3.749   0.821   4.754  0.4681  0.3501 -0.2079
 3816SOL     MW15264   3.797   0.756   4.787 -0.4383  0.1924  0.8935
 3817SOL     OW15265   3.906   2.566   1.701  0.4512 -0.4048 -0.0457
 3817SOL    HW115266   3.843   2.604   1.640  0.8808  1.1747  0.4384
 3817SOL    HW215267   3.852   2.520   1.766 -0.1411  0.0475 -0.2098
 3817SOL     MW15268   3.891   2.565   1.702  0.4304 -0.1447 -0.0047
 3818SOL     OW15269   2.076   1.273   4.200 -0.3953 -0.1231  0.4623
 3818SOL    HW115270   2.105   1.363   4.188 -0.4258 -0.2670 -0.8705
 3818SOL    HW215271   2.116   1.246   4.282  0.9178  0.6108  0.1014
 3818SOL     MW15272   2.085   1.281   4.209 -0.2311 -0.0475  0.2455
 3819SOL     OW15273   0.941   2.371   1.035 -0.3054  0.3457  0.9236
 3819SOL    HW115274   0.943   2.407   0.946  2.4571 -2.0170 -0.1004
 3819SOL    HW215275   0.860   2.321   1.039 -0.7996  1.0402  0.0146
 3819SOL     MW15276   0.931   2.369   1.025 -0.0151  0.1322  0.6762
 3820SOL     OW15277   0.145   2.127   5.444  0.7926 -0.5320 -0.4818
 3820SOL    HW115278   0.101   2.069   5.506  2.2604  0.3307  1.4893
 3820SOL    HW215279   0.141   2.214   5.484  0.0897  0.4652 -2.5692
 3820SOL     MW15280   0.139   2.131   5.457  0.8905 -0.2939 -0.4967
 3821SOL     OW15281   1.323   2.488   5.300 -0.0316 -0.1283  0.3472
 3821SOL    HW115282   1.304   2.579   5.323  0.2216  0.1584 -0.5193
 3821SOL    HW215283   1.294   2.437   5.376 -1.7162  0.5245  0.1907
 3821SOL     MW15284   1.317   2.493   5.313 -0.2148 -0.0080  0.2162
 3822SOL     OW15285   2.501   1.634   2.736 -0.8784 -0.1286  0.6109
 3822SOL    HW115286   2.541   1.672   2.814  1.0993  1.2107 -0.9366
 3822SOL    HW215287   2.563   1.566   2.709  0.8387  2.2982 -2.1121
 3822SOL     MW15288   2.514   1.630   2.742 -0.4054  0.3535  0.0642
 3823SOL     OW15289   0.021   0.987   1.936  0.3357  0.6053  0.2371
 3823SOL    HW115290  -0.064   1.009   1.974 -0.1728 -2.9993  1.5443
 3823SOL    HW215291   0.078   0.973   2.011  0.9237 -1.0692 -0.4854
 3823SOL     MW15292   0.017   0.988   1.950  0.3459 -0.0705  0.3119
 3824SOL     OW15293   5.315   1.089   0.315 -0.1464  0.7177 -0.1407
 3824SOL    HW115294   5.372   1.157   0.351 -1.0133  2.1572 -1.3533
 3824SOL    HW215295   5.293   1.121   0.227 -1.7393 -0.4353 -0.1985
 3824SOL     MW15296   5.320   1.102   0.308 -0.4613  0.7543 -0.3033
 3825SOL     OW15297   0.925   4.707   3.212  0.3213  0.6944 -0.2524
 3825SOL    HW115298   1.007   4.745   3.180  0.3365  1.4366  0.6130
 3825SOL    HW215299   0.857   4.764   3.176  0.2123  0.3785 -0.5529
 3825SOL     MW15300   0.926   4.719   3.203  0.3093  0.7490 -0.1801
 3826SOL     OW15301   4.922   1.154   2.963  0.5797  0.0633 -0.2406
 3826SOL    HW115302   4.869   1.222   3.004 -0.2430 -0.1125 -0.9921
 3826SOL    HW215303   4.884   1.072   2.994  1.2148 -0.0670  0.2167
 3826SOL     MW15304   4.911   1.152   2.972  0.5557  0.0241 -0.2783
 3827SOL     OW15305   4.487   2.352   1.392 -0.1940 -0.2798 -0.0484
 3827SOL    HW115306   4.504   2.265   1.355  0.2420 -0.7386  1.1737
 3827SOL    HW215307   4.395   2.351   1.415 -0.3631 -0.1476 -0.7072
 3827SOL     MW15308   4.478   2.341   1.391 -0.1599 -0.3216  0.0237
 3828SOL     OW15309   2.922   1.484   5.208  0.1168  0.1563 -0.7799
 3828SOL    HW115310   2.965   1.401   5.227  0.3980 -0.3606 -3.2983
 3828SOL    HW215311   2.862   1.497   5.281  0.8411 -1.7018  0.2198
 3828SOL     MW15312   2.920   1.475   5.219  0.2455 -0.1477 -0.9743
 3829SOL     OW15313   4.506   5.220   3.138 -0.2426 -0.1482 -0.1379
 3829SOL    HW115314   4.473   5.146   3.190 -1.2975  0.6172  0.3076
 3829SOL    HW215315   4.428   5.260   3.101  0.3710  0.3874 -0.8675
 3829SOL     MW15316   4.492   5.215   3.140 -0.2991  0.0184 -0.1743
 3830SOL     OW15317   2.790   4.946   0.484  0.1741  0.0706 -0.1990
 3830SOL    HW115318   2.849   4.909   0.419  0.1906 -0.5737  0.1723
 3830SOL    HW215319   2.837   5.022   0.519  0.5626 -0.1393 -0.2616
 3830SOL     MW15320   2.803   4.951   0.480  0.2259 -0.0387 -0.1595
 3831SOL     OW15321   0.065   2.578   0.663  0.2365 -0.0477 -0.1559
 3831SOL    HW115322   0.092   2.623   0.583  2.4239  0.1345  0.6358
 3831SOL    HW215323   0.122   2.613   0.732 -0.9418 -0.8960  1.3128
 3831SOL     MW15324   0.076   2.588   0.661  0.3657 -0.1330  0.1334
 3832SOL     OW15325   3.846   5.382   3.899  0.8591 -0.3168 -0.2259
 3832SOL    HW115326   3.818   5.472   3.914 -0.4585 -0.5921 -0.9230
 3832SOL    HW215327   3.812   5.359   3.813  0.3148 -1.8088  0.3493
 3832SOL     MW15328   3.838   5.390   3.890  0.6208 -0.5430 -0.2415
 3833SOL     OW15329   2.916   3.555   5.463  0.2129  0.2580  0.3275
 3833SOL    HW115330   2.859   3.499   5.516  0.1865  0.1715  0.2082
 3833SOL    HW215331   2.890   3.644   5.486  1.1775  0.2649  1.5549
 3833SOL     MW15332   2.906   3.559   5.473  0.3330  0.2478  0.4693
 3834SOL     OW15333   5.264   4.252   4.955  0.1530  0.5421 -0.7177
 3834SOL    HW115334   5.331   4.183   4.956 -0.2987  0.0871  1.0044
 3834SOL    HW215335   5.184   4.207   4.927 -0.3797  0.0622  1.3807
 3834SOL     MW15336   5.262   4.237   4.951  0.0270  0.4224 -0.2286
 3835SOL     OW15337   0.759   5.372   2.426  0.3075 -0.0103  0.3125
 3835SOL    HW115338   0.832   5.418   2.466 -1.0250  1.3798  1.2441
 3835SOL    HW215339   0.713   5.331   2.499 -1.2726  1.2772  0.1066
 3835SOL     MW15340   0.763   5.373   2.440 -0.0653  0.3325  0.4054
 3836SOL     OW15341   4.896   3.930   4.323 -0.0452 -0.8005 -0.0546
 3836SOL    HW115342   4.821   3.954   4.267  0.0760  0.7179  0.4065
 3836SOL    HW215343   4.856   3.900   4.405 -0.2120 -2.7358 -0.7826
 3836SOL     MW15344   4.881   3.929   4.326 -0.0510 -0.8538 -0.0888
 3837SOL     OW15345   0.355   4.415   2.471 -0.8869  0.1494 -0.2925
 3837SOL    HW115346   0.389   4.332   2.503  0.8524  0.6803 -0.6649
 3837SOL    HW215347   0.306   4.451   2.545  0.4799 -0.0554  0.7434
 3837SOL     MW15348   0.353   4.409   2.484 -0.4893  0.1912 -0.2075
 3838SOL     OW15349   1.560   3.116   2.641  0.2054  0.2344  0.1312
 3838SOL    HW115350   1.636   3.058   2.645  0.0639  0.0685  0.3868
 3838SOL    HW215351   1.524   3.116   2.729 -0.1940  0.1779 -0.0298
 3838SOL     MW15352   1.565   3.109   2.653  0.1362  0.2059  0.1433
 3839SOL     OW15353   3.821   4.988   3.865 -0.3489 -0.4027 -0.4927
 3839SOL    HW115354   3.901   5.040   3.857 -1.4318  1.5613  0.8075
 3839SOL    HW215355   3.839   4.929   3.939  0.2879 -0.7725 -0.9317
 3839SOL     MW15356   3.834   4.987   3.873 -0.4060 -0.1986 -0.3824
 3840SOL     OW15357   5.041   1.686   2.879  0.2840 -0.4256 -0.1691
 3840SOL    HW115358   4.976   1.715   2.944 -1.1448 -2.6143 -0.5078
 3840SOL    HW215359   4.993   1.683   2.797  0.4000 -3.0781 -0.2530
 3840SOL     MW15360   5.027   1.689   2.877  0.1159 -1.0453 -0.2232
 3841SOL     OW15361   0.611   5.414   3.289  0.1782  0.4342  0.1294
 3841SOL    HW115362   0.635   5.489   3.235  1.0805  0.8705  1.1066
 3841SOL    HW215363   0.694   5.380   3.322 -0.3546  0.2367  1.3083
 3841SOL     MW15364   0.624   5.419   3.286  0.2255  0.4647  0.4054
 3842SOL     OW15365   1.427   1.951   3.614 -0.3113  0.1881 -0.1045
 3842SOL    HW115366   1.461   1.963   3.702 -1.0977 -1.7212  0.5363
 3842SOL    HW215367   1.500   1.913   3.565  0.1547  1.3351 -0.3266
 3842SOL     MW15368   1.440   1.947   3.619 -0.3523  0.0905 -0.0509
 3843SOL     OW15369   4.941   2.546   3.873 -0.4696  0.1781  0.6007
 3843SOL    HW115370   4.966   2.454   3.881 -1.0314  0.1074  1.7257
 3843SOL    HW215371   4.862   2.546   3.819  0.5913  0.1958 -1.0144
 3843SOL     MW15372   4.934   2.535   3.867 -0.4057  0.1713  0.5380
 3844SOL     OW15373   2.269   5.220   1.425  0.1068 -0.0610 -0.1751
 3844SOL    HW115374   2.338   5.196   1.364  0.8161  0.8010  0.2614
 3844SOL    HW215375   2.315   5.248   1.504 -0.7811 -2.7335  1.4414
 3844SOL     MW15376   2.284   5.220   1.427  0.0839 -0.2927  0.0877
 3845SOL     OW15377   4.266   2.140   0.766 -0.2915 -0.1815 -0.4289
 3845SOL    HW115378   4.305   2.053   0.771  0.0505  0.0180  0.6126
 3845SOL    HW215379   4.334   2.195   0.726 -0.2391 -0.2326 -0.4093
 3845SOL     MW15380   4.279   2.136   0.761 -0.2410 -0.1625 -0.2931
 3846SOL     OW15381   0.988   2.200   5.034  0.8461 -0.8699 -0.5816
 3846SOL    HW115382   0.984   2.145   5.112  0.8943  4.0368  3.3968
 3846SOL    HW215383   0.899   2.234   5.023  1.4630  0.8331 -0.6747
 3846SOL     MW15384   0.976   2.198   5.042  0.9312 -0.0238 -0.0842
 3847SOL     OW15385   0.934   4.565   2.558 -0.1910 -0.4541 -0.0168
 3847SOL    HW115386   0.969   4.525   2.637 -1.4259 -2.0238 -0.2013
 3847SOL    HW215387   0.861   4.619   2.589 -0.6475 -1.0354 -0.0359
 3847SOL     MW15388   0.929   4.567   2.572 -0.4075 -0.7294 -0.0428
 3848SOL     OW15389   0.154   0.161   1.192  0.4099 -0.4447 -0.1950
 3848SOL    HW115390   0.070   0.203   1.211 -0.7609 -1.9770 -1.7005
 3848SOL    HW215391   0.146   0.131   1.102  2.2948 -1.3512 -0.1058
 3848SOL     MW15392   0.142   0.163   1.183  0.5013 -0.7569 -0.3763
 3849SOL     OW15393   0.160   3.612   3.282 -0.7602 -0.4787  0.1255
 3849SOL    HW115394   0.088   3.609   3.219 -1.1497  0.1077  0.5408
 3849SOL    HW215395   0.190   3.703   3.281 -0.2770 -0.6318  0.2415
 3849SOL     MW15396   0.155   3.623   3.274 -0.7482 -0.4232  0.1935
 3850SOL     OW15397   2.348   5.228   0.001  0.1292 -0.3382 -0.0746
 3850SOL    HW115398   2.370   5.277   0.080  0.4394  0.0831 -0.4156
 3850SOL    HW215399   2.399   5.147   0.008 -0.1150 -0.4574  0.3239
 3850SOL     MW15400   2.357   5.224   0.012  0.1377 -0.2995 -0.0673
 3851SOL     OW15401   1.864   4.527   4.674  0.1164 -0.3979  0.2412
 3851SOL    HW115402   1.794   4.493   4.618  1.6330 -2.3873 -0.5981
 3851SOL    HW215403   1.870   4.463   4.745  0.7762  0.0140  0.5633
 3851SOL     MW15404   1.856   4.514   4.676  0.3950 -0.5998  0.1750
 3852SOL     OW15405   1.370   5.412   0.525 -0.0409  0.2561  0.3977
 3852SOL    HW115406   1.295   5.469   0.543 -0.4585 -0.3086  0.4675
 3852SOL    HW215407   1.364   5.343   0.591  0.1342 -0.1806 -0.0370
 3852SOL     MW15408   1.359   5.410   0.536 -0.0720  0.1279  0.3510
 3853SOL     OW15409   2.353   5.087   4.023 -0.1564  0.1131  0.3282
 3853SOL    HW115410   2.445   5.060   4.014  0.0685  0.5284  1.2553
 3853SOL    HW215411   2.307   5.039   3.954  0.4928 -1.3136  0.8545
 3853SOL     MW15412   2.359   5.078   4.013 -0.0445 -0.0164  0.5142
 3854SOL     OW15413   3.984   4.172   1.287  0.5145  0.5955 -0.1567
 3854SOL    HW115414   4.025   4.149   1.204  0.1444  0.1016 -0.2082
 3854SOL    HW215415   3.923   4.242   1.264 -1.1074 -0.9301 -0.7025
 3854SOL     MW15416   3.981   4.178   1.273  0.2595  0.3370 -0.2331
 3855SOL     OW15417   0.293   1.216   2.996  0.0899 -0.1929 -0.3209
 3855SOL    HW115418   0.256   1.298   2.963 -0.8249 -0.2033  0.6112
 3855SOL    HW215419   0.224   1.180   3.053  0.2940 -1.8449 -1.0749
 3855SOL     MW15420   0.279   1.222   2.999 -0.0011 -0.4057 -0.2981
 3856SOL     OW15421   5.316   3.433   2.726  0.0236  0.4347 -0.0676
 3856SOL    HW115422   5.331   3.447   2.820 -1.1674  1.2918  0.0212
 3856SOL    HW215423   5.403   3.442   2.687  0.2464  2.3577  0.7118
 3856SOL     MW15424   5.329   3.436   2.733 -0.1003  0.7906  0.0435
 3857SOL     OW15425   3.226   0.269   2.071  0.5148 -0.1583 -0.1260
 3857SOL    HW115426   3.213   0.359   2.102 -3.0352  0.4313 -2.7281
 3857SOL    HW215427   3.211   0.215   2.148  0.9992  1.3689  1.1032
 3857SOL     MW15428   3.223   0.274   2.085  0.1224  0.1127 -0.3017
 3858SOL     OW15429   0.498   4.465   0.620  0.4689  0.6518 -0.0486
 3858SOL    HW115430   0.475   4.460   0.528 -3.3271 -1.2934  0.8092
 3858SOL    HW215431   0.456   4.544   0.652  0.4389  0.4967  0.3057
 3858SOL     MW15432   0.490   4.474   0.613 -0.0208  0.3829  0.1066
 3859SOL     OW15433   4.886   3.089   2.265 -0.7783  0.4172 -0.6354
 3859SOL    HW115434   4.887   3.090   2.361 -3.2552  1.5780 -0.5365
 3859SOL    HW215435   4.908   2.999   2.241  0.9938  0.3618  0.9367
 3859SOL     MW15436   4.889   3.078   2.274 -0.8685  0.5587 -0.4215
 3860SOL     OW15437   3.185   1.813   1.817 -0.0394  0.4050  0.1360
 3860SOL    HW115438   3.128   1.809   1.739 -1.6702  0.5884  1.2561
 3860SOL    HW215439   3.220   1.902   1.816 -0.2466  0.4873 -0.2513
 3860SOL     MW15440   3.182   1.824   1.807 -0.2747  0.4390  0.2298
 3861SOL     OW15441   4.858   5.503   0.946  0.0306  0.0009  0.8831
 3861SOL    HW115442   4.799   5.428   0.946  0.5011 -0.4235 -1.2438
 3861SOL    HW215443   4.930   5.477   0.889  0.0748  2.1475 -0.1220
 3861SOL     MW15444   4.860   5.490   0.939  0.0965  0.2214  0.4822
 3862SOL     OW15445   4.784   2.588   0.715  0.1586 -0.3788  0.3284
 3862SOL    HW115446   4.711   2.527   0.713  1.1342 -1.5995  0.8245
 3862SOL    HW215447   4.783   2.623   0.805  1.1208 -1.5971  0.8324
 3862SOL     MW15448   4.774   2.585   0.727  0.4066 -0.6910  0.4564
 3863SOL     OW15449   0.085   2.255   4.594 -0.3326  0.5985 -0.3242
 3863SOL    HW115450   0.079   2.217   4.507 -1.1528 -1.4710  0.5860
 3863SOL    HW215451  -0.006   2.262   4.624 -0.1333  2.2057  0.0263
 3863SOL     MW15452   0.073   2.251   4.587 -0.4121  0.5393 -0.1628
 3864SOL     OW15453   3.245   4.679   2.002  0.4748  0.2903 -0.0373
 3864SOL    HW115454   3.236   4.586   2.021  0.2420  0.8494  3.2476
 3864SOL    HW215455   3.339   4.694   1.996  0.4953 -0.2220 -1.0866
 3864SOL     MW15456   3.256   4.669   2.004  0.4476  0.2963  0.2489
 3865SOL     OW15457   5.430   2.619   0.310  0.0999  0.1919 -0.3546
 3865SOL    HW115458   5.385   2.609   0.226 -1.4406  1.2732  0.3062
 3865SOL    HW215459   5.397   2.701   0.346  1.6034  0.3436  0.8040
 3865SOL     MW15460   5.420   2.628   0.304  0.0952  0.3498 -0.1217
 3866SOL     OW15461   2.515   1.065   4.035  0.3579 -0.4973 -0.2006
 3866SOL    HW115462   2.527   0.976   4.068  1.3119 -0.2891  0.0488
 3866SOL    HW215463   2.421   1.073   4.022  0.1730 -1.2784  0.5335
 3866SOL     MW15464   2.505   1.055   4.038  0.4564 -0.5706 -0.0747
 3867SOL     OW15465   0.945   2.547   4.296  0.5668 -0.2251  0.0380
 3867SOL    HW115466   0.876   2.614   4.296  0.1187 -0.6540 -1.2864
 3867SOL    HW215467   0.941   2.508   4.383 -0.8480 -0.2073  0.0035
 3867SOL     MW15468   0.935   2.551   4.307  0.3283 -0.2778 -0.1360
 3868SOL     OW15469   3.345   1.975   4.782  0.2644  0.5242  0.2342
 3868SOL    HW115470   3.274   2.014   4.731  0.7486 -0.4510 -1.2409
 3868SOL    HW215471   3.391   1.918   4.721  1.6428  0.2519  1.4489
 3868SOL     MW15472   3.342   1.973   4.768  0.5028  0.3645  0.2009
 3869SOL     OW15473   1.913   5.318   4.285  0.1421 -0.2672  0.4073
 3869SOL    HW115474   1.978   5.311   4.355 -0.1292 -0.8866  0.5954
 3869SOL    HW215475   1.835   5.352   4.328  0.3414  0.5191  0.1725
 3869SOL     MW15476   1.911   5.322   4.299  0.1329 -0.2458  0.4013
 3870SOL     OW15477   3.890   3.947   4.958 -0.0099 -0.2109  0.3020
 3870SOL    HW115478   3.829   3.896   4.904 -2.3406  2.3746  0.2819
 3870SOL    HW215479   3.901   3.895   5.038  0.6695 -2.3910 -1.1008
 3870SOL     MW15480   3.884   3.933   4.961 -0.2213 -0.1590  0.1198
 3871SOL     OW15481   4.161   3.367   0.534  0.4611  0.4187 -0.3279
 3871SOL    HW115482   4.205   3.292   0.575  1.3091  0.3723 -1.2736
 3871SOL    HW215483   4.069   3.356   0.556  0.9428  0.7466  2.0925
 3871SOL     MW15484   4.155   3.356   0.542  0.6313  0.4548 -0.1391
 3872SOL     OW15485   4.543   0.117   5.192 -0.0098 -0.4142 -0.1005
 3872SOL    HW115486   4.452   0.128   5.164  0.1141  1.8640  0.2157
 3872SOL    HW215487   4.595   0.156   5.121  0.8228 -2.3774 -0.6535
 3872SOL     MW15488   4.538   0.124   5.179  0.1127 -0.3739 -0.1308
 3873SOL     OW15489   1.507   5.015   0.700 -0.7802  0.4314 -0.9322
 3873SOL    HW115490   1.477   4.970   0.621  0.4953 -0.2344 -1.0688
 3873SOL    HW215491   1.516   4.945   0.765  0.2387  0.6238 -0.8437
 3873SOL     MW15492   1.504   5.000   0.698 -0.4865  0.3708 -0.9384
 3874SOL     OW15493   4.191   4.341   1.009  0.0992 -0.5663 -0.2808
 3874SOL    HW115494   4.142   4.384   0.940  1.0475  0.5308 -0.3024
 3874SOL    HW215495   4.159   4.251   1.009  1.0334 -1.0164 -3.1325
 3874SOL     MW15496   4.181   4.335   1.000  0.3402 -0.4834 -0.6486
 3875SOL     OW15497   5.427   1.416   0.847 -0.2390 -0.2565  0.6549
 3875SOL    HW115498   5.483   1.485   0.812 -0.2030 -0.4718  0.2814
 3875SOL    HW215499   5.356   1.463   0.891  0.5272  0.0187  1.6252
 3875SOL     MW15500   5.425   1.431   0.848 -0.1363 -0.2488  0.7313
 3876SOL     OW15501   0.661   5.043   1.258  0.4059 -0.5689 -0.4062
 3876SOL    HW115502   0.751   5.036   1.290  0.3069 -1.5335 -0.3216
 3876SOL    HW215503   0.662   4.996   1.174  0.5264  1.4199 -1.5793
 3876SOL     MW15504   0.672   5.036   1.251  0.4086 -0.4378 -0.5455
 3877SOL     OW15505   2.117   2.531   3.063  0.1760  0.0096  0.3135
 3877SOL    HW115506   2.093   2.481   2.985 -1.2976 -0.2552  0.9076
 3877SOL    HW215507   2.187   2.479   3.104 -0.5316 -0.9743  0.3097
 3877SOL     MW15508   2.123   2.518   3.059 -0.1032 -0.1502  0.3891
 3878SOL     OW15509   1.400   0.217   4.482 -0.1624  0.0627 -0.6841
 3878SOL    HW115510   1.341   0.208   4.408 -0.8765 -1.7294  0.0427
 3878SOL    HW215511   1.376   0.146   4.541  0.8913  0.9693  0.9274
 3878SOL     MW15512   1.390   0.207   4.480 -0.1189 -0.0507 -0.3848
 3879SOL     OW15513   1.791   2.806   2.433  0.3747  0.0891 -0.1884
 3879SOL    HW115514   1.823   2.879   2.380  1.6156 -1.4229 -1.6659
 3879SOL    HW215515   1.767   2.845   2.517 -0.8082  2.4433 -1.5519
 3879SOL     MW15516   1.792   2.820   2.437  0.3822  0.1969 -0.5521
 3880SOL     OW15517   3.484   2.254   3.055 -0.1133  0.4257  0.4617
 3880SOL    HW115518   3.566   2.297   3.029  0.3896 -0.2226  0.9312
 3880SOL    HW215519   3.495   2.236   3.148 -1.2598  1.3297  0.7924
 3880SOL     MW15520   3.496   2.257   3.063 -0.1957  0.4585  0.5641
 3881SOL     OW15521  -0.008   2.797   2.230 -0.5794 -0.0559 -0.2841
 3881SOL    HW115522  -0.032   2.830   2.317 -0.5828 -0.0404 -0.2909
 3881SOL    HW215523   0.073   2.843   2.208 -0.1721 -0.6120  0.0296
 3881SOL     MW15524  -0.000   2.807   2.238 -0.5277 -0.1251 -0.2448
 3882SOL     OW15525   0.123   4.360   2.614  0.3548 -0.9027 -0.4611
 3882SOL    HW115526   0.074   4.374   2.533  0.9057  2.3705 -0.3932
 3882SOL    HW215527   0.065   4.393   2.683  1.8619  1.4495 -0.2034
 3882SOL     MW15528   0.109   4.366   2.613  0.6183 -0.1826 -0.4194
 3883SOL     OW15529   5.219   4.411   1.606 -0.1147  0.1898  0.7078
 3883SOL    HW115530   5.160   4.426   1.532  0.4542  0.9189  0.3860
 3883SOL    HW215531   5.299   4.375   1.566  0.8817  2.2621  0.7083
 3883SOL     MW15532   5.222   4.408   1.591  0.0857  0.5484  0.6667
 3884SOL     OW15533   2.735   0.998   3.191  0.1213  0.0350 -0.3527
 3884SOL    HW115534   2.687   0.928   3.146 -0.3649 -0.2840  0.6389
 3884SOL    HW215535   2.693   1.004   3.276  0.0785  1.6368 -0.4666
 3884SOL     MW15536   2.723   0.990   3.196  0.0536  0.1992 -0.2403
 3885SOL     OW15537   3.215   3.369   3.628  0.5357  0.1035 -0.1683
 3885SOL    HW115538   3.212   3.446   3.571 -2.3296 -0.4248 -0.9115
 3885SOL    HW215539   3.284   3.314   3.590 -0.2092  0.4856 -2.2433
 3885SOL     MW15540   3.224   3.371   3.616  0.0735  0.0848 -0.5291
 3886SOL     OW15541   2.025   1.792   2.965 -0.1148 -0.7257  0.1920
 3886SOL    HW115542   1.957   1.777   3.030  0.0708  0.1016  0.5861
 3886SOL    HW215543   2.080   1.861   3.002 -0.9325  0.9151 -1.5324
 3886SOL     MW15544   2.024   1.799   2.978 -0.1957 -0.4098  0.0217
 3887SOL     OW15545   5.495   4.022   4.281  0.2013  0.6638  0.1737
 3887SOL    HW115546   5.500   3.977   4.196  0.3071  2.2746 -0.7234
 3887SOL    HW215547   5.427   3.976   4.329 -0.9969  0.6665 -1.4163
 3887SOL     MW15548   5.487   4.011   4.276  0.0614  0.8703 -0.1447
 3888SOL     OW15549   1.477   2.497   1.888  0.9011 -0.1556 -0.2950
 3888SOL    HW115550   1.499   2.422   1.833  3.2892 -0.7991  1.3275
 3888SOL    HW215551   1.540   2.565   1.863  0.8981  0.1319  0.4333
 3888SOL     MW15552   1.488   2.496   1.878  1.2065 -0.2012  0.0059
 3889SOL     OW15553   2.660   5.326   2.660 -0.1826  0.6760 -0.4664
 3889SOL    HW115554   2.583   5.379   2.641 -2.2452 -1.0888  2.0891
 3889SOL    HW215555   2.643   5.291   2.748  1.7643 -2.8073 -1.2862
 3889SOL     MW15556   2.648   5.328   2.669 -0.1974  0.0042 -0.2442
 3890SOL     OW15557   0.140   4.030   0.994  0.2722  0.0915  0.3971
 3890SOL    HW115558   0.185   4.108   0.961 -0.1967  0.5023  0.7045
 3890SOL    HW215559   0.122   3.979   0.915 -1.5895  1.4655 -0.1515
 3890SOL     MW15560   0.143   4.034   0.979 -0.0261  0.3200  0.3662
 3891SOL     OW15561   0.739   1.308   4.770 -0.9364  0.0501  0.2826
 3891SOL    HW115562   0.734   1.391   4.818 -3.6017  0.0979  0.1064
 3891SOL    HW215563   0.780   1.248   4.831 -0.9803  0.9734  1.2607
 3891SOL     MW15564   0.744   1.311   4.784 -1.2832  0.1744  0.3852
 3892SOL     OW15565   0.171   3.259   4.720  0.5756  0.1769  0.9792
 3892SOL    HW115566   0.119   3.190   4.762 -1.2791  1.3793  0.7982
 3892SOL    HW215567   0.177   3.232   4.629  0.3756 -0.0559  1.0315
 3892SOL     MW15568   0.165   3.246   4.714  0.3126  0.3010  0.9627
 3893SOL     OW15569   5.364   1.254   2.508 -0.1285  0.2047 -0.4471
 3893SOL    HW115570   5.283   1.229   2.462  0.8015  0.4890 -2.3534
 3893SOL    HW215571   5.423   1.180   2.495  0.5971  0.8425 -0.8719
 3893SOL     MW15572   5.361   1.241   2.500  0.0834  0.3227 -0.7455
 3894SOL     OW15573   5.449   4.801   3.810  0.0648 -0.5098 -0.7624
 3894SOL    HW115574   5.453   4.712   3.844 -1.7349 -0.6618 -0.8894
 3894SOL    HW215575   5.500   4.853   3.873  1.1099 -1.5945 -0.6802
 3894SOL     MW15576   5.456   4.796   3.822 -0.0318 -0.6681 -0.7682
 3895SOL     OW15577   1.096   0.443   1.543  0.6419 -0.5831  0.3143
 3895SOL    HW115578   1.019   0.412   1.590  0.4392 -2.4089 -1.1025
 3895SOL    HW215579   1.069   0.446   1.451  2.8177 -3.6650 -0.5960
 3895SOL     MW15580   1.083   0.439   1.537  0.8945 -1.2114  0.0164
 3896SOL     OW15581   0.766   1.922   5.409 -0.0762 -0.4366  0.3930
 3896SOL    HW115582   0.769   1.847   5.468  0.3469 -0.1678  0.7200
 3896SOL    HW215583   0.673   1.935   5.391 -0.3634  0.4779  2.3083
 3896SOL     MW15584   0.754   1.914   5.414 -0.0588 -0.2851  0.6801
 3897SOL     OW15585   2.479   1.619   1.448 -0.0628  0.6154 -0.4210
 3897SOL    HW115586   2.439   1.532   1.441  1.6681 -0.0779 -2.9228
 3897SOL    HW215587   2.442   1.669   1.376  0.0872  1.5071  0.1011
 3897SOL     MW15588   2.469   1.614   1.438  0.1779  0.6408 -0.6744
 3898SOL     OW15589   1.211   5.142   4.099 -0.3441 -0.1713 -0.0671
 3898SOL    HW115590   1.261   5.063   4.080 -1.3933 -0.5670 -1.3130
 3898SOL    HW215591   1.239   5.168   4.187  1.0918 -1.0848 -0.2313
 3898SOL     MW15592   1.221   5.135   4.108 -0.2946 -0.3389 -0.2477
 3899SOL     OW15593   4.018   2.940   2.562 -0.0970  0.6905 -0.5281
 3899SOL    HW115594   4.100   2.935   2.513  0.3946  0.3080  0.3151
 3899SOL    HW215595   3.969   2.863   2.534  1.2412 -0.9793  1.3979
 3899SOL     MW15596   4.022   2.929   2.552  0.1372  0.4278 -0.1736
 3900SOL     OW15597   1.687   1.664   1.254 -0.1301  0.9639  0.0402
 3900SOL    HW115598   1.671   1.729   1.187  0.5173  1.4247  0.3247
 3900SOL    HW215599   1.601   1.648   1.293 -0.3771  1.2476 -0.3842
 3900SOL     MW15600   1.674   1.670   1.251 -0.0789  1.0592  0.0223
 3901SOL     OW15601   4.241   1.261   0.298 -0.0095 -0.6589 -0.1432
 3901SOL    HW115602   4.259   1.171   0.269 -1.3765 -1.2005  0.5872
 3901SOL    HW215603   4.155   1.255   0.341  1.0282  0.4393  2.2841
 3901SOL     MW15604   4.232   1.248   0.300 -0.0516 -0.5876  0.2610
 3902SOL     OW15605   2.253   4.892   2.457  0.0751  0.1979  0.1356
 3902SOL    HW115606   2.332   4.946   2.451 -0.2358  0.6837  0.2886
 3902SOL    HW215607   2.184   4.948   2.420 -0.4197  0.2352  1.0969
 3902SOL     MW15608   2.254   4.906   2.451 -0.0281  0.2649  0.2782
 3903SOL     OW15609   1.072   3.391   0.582 -0.1784  0.5160 -0.3211
 3903SOL    HW115610   0.982   3.382   0.550 -0.0423 -0.1733 -0.5317
 3903SOL    HW215611   1.068   3.464   0.644 -1.0541 -0.0501  0.3052
 3903SOL     MW15612   1.060   3.399   0.586 -0.2731  0.3553 -0.2679
 3904SOL     OW15613   0.308   4.879   3.587 -0.7624 -0.5266 -0.7766
 3904SOL    HW115614   0.345   4.808   3.535 -1.1856  0.4024 -2.4095
 3904SOL    HW215615   0.217   4.852   3.603 -0.4453 -1.1328  0.1419
 3904SOL     MW15616   0.301   4.866   3.582 -0.7760 -0.4852 -0.8680
 3905SOL     OW15617   1.751   1.650   0.218 -0.6756  0.7462 -0.5283
 3905SOL    HW115618   1.779   1.712   0.150  1.3461 -1.1293 -1.5223
 3905SOL    HW215619   1.678   1.603   0.179 -1.2192  1.4248 -0.3563
 3905SOL     MW15620   1.746   1.652   0.204 -0.4864  0.5930 -0.6335
 3906SOL     OW15621   1.251   2.708   5.436 -0.1368 -0.0042 -0.6270
 3906SOL    HW115622   1.207   2.636   5.482 -0.0188 -1.0501 -2.0589
 3906SOL    HW215623   1.282   2.766   5.505  1.9185 -2.5578  0.7782
 3906SOL     MW15624   1.249   2.706   5.451  0.1414 -0.4649 -0.6304
 3907SOL     OW15625   4.747   3.907   4.554 -0.4526  0.1867 -0.2444
 3907SOL    HW115626   4.819   3.924   4.614  0.0349 -1.2230 -0.3948
 3907SOL    HW215627   4.713   3.993   4.532  1.2071  0.8881 -0.1970
 3907SOL     MW15628   4.752   3.920   4.559 -0.1777  0.0960 -0.2576
 3908SOL     OW15629   1.848   3.194   3.344 -0.3103 -0.3929 -0.5835
 3908SOL    HW115630   1.912   3.175   3.413  0.4184  1.4959 -0.6659
 3908SOL    HW215631   1.768   3.151   3.373  0.4202 -1.0014  0.6226
 3908SOL     MW15632   1.846   3.186   3.356 -0.1235 -0.2290 -0.4396
 3909SOL     OW15633   5.215   2.549   5.243  0.1471 -0.1676 -0.5684
 3909SOL    HW115634   5.275   2.529   5.171  0.8890 -0.6317  0.1555
 3909SOL    HW215635   5.257   2.511   5.321 -0.8807 -0.1212  0.0322
 3909SOL     MW15636   5.228   2.542   5.244  0.1105 -0.2210 -0.3988
 3910SOL     OW15637   3.678   2.294   0.340 -0.1958  0.1434  0.4070
 3910SOL    HW115638   3.697   2.244   0.419  1.9190 -1.4319 -1.0195
 3910SOL    HW215639   3.590   2.266   0.315 -0.1631 -0.7022  1.1962
 3910SOL     MW15640   3.669   2.284   0.347  0.0791 -0.1665  0.3254
 3911SOL     OW15641   0.915   4.946   1.229  0.2322 -0.0136 -0.2269
 3911SOL    HW115642   0.979   4.922   1.295  0.4214 -2.2530 -1.1581
 3911SOL    HW215643   0.962   5.005   1.170  0.8974 -0.2544  0.0553
 3911SOL     MW15644   0.929   4.951   1.230  0.3416 -0.3311 -0.3100
 3912SOL     OW15645   0.956   1.687   0.236 -0.0592 -0.2206 -0.0968
 3912SOL    HW115646   0.867   1.677   0.203 -0.5273 -0.0309  1.0360
 3912SOL    HW215647   0.970   1.782   0.239 -0.5474 -0.1536  1.4576
 3912SOL     MW15648   0.946   1.698   0.232 -0.1816 -0.1878  0.2472
 3913SOL     OW15649   3.878   4.821   1.428 -0.3756  0.3103  0.3728
 3913SOL    HW115650   3.961   4.823   1.381 -0.7364 -0.3410 -0.3102
 3913SOL    HW215651   3.841   4.735   1.408 -1.8310  1.0887 -0.4116
 3913SOL     MW15652   3.884   4.810   1.420 -0.6081  0.3266  0.1850
 3914SOL     OW15653   5.328   4.705   0.980 -0.2140  0.2117 -0.3602
 3914SOL    HW115654   5.310   4.623   1.026  0.5781  0.4845  0.4609
 3914SOL    HW215655   5.402   4.685   0.922  0.4278  0.5073  0.3417
 3914SOL     MW15656   5.335   4.692   0.978 -0.0304  0.2844 -0.1653
 3915SOL     OW15657   5.280   4.989   0.528  0.0306  0.8695  0.0713
 3915SOL    HW115658   5.248   4.961   0.614  0.6564  0.1161  0.0760
 3915SOL    HW215659   5.275   5.084   0.530  0.7777  0.9120  1.2465
 3915SOL     MW15660   5.276   4.997   0.540  0.2063  0.7785  0.2224
 3916SOL     OW15661   4.840   5.485   0.156  0.3717  0.1157  0.2494
 3916SOL    HW115662   4.822   5.549   0.087 -0.7565  1.4391  1.7037
 3916SOL    HW215663   4.754   5.448   0.177  0.3240  1.2408  2.3032
 3916SOL     MW15664   4.827   5.488   0.150  0.2211  0.4291  0.6985
 3917SOL     OW15665   4.490   2.986   1.124  0.1054  0.6832 -0.2932
 3917SOL    HW115666   4.490   2.907   1.178  0.8119  1.5352  0.9985
 3917SOL    HW215667   4.570   2.980   1.073  0.4598  0.8357  0.2358
 3917SOL     MW15668   4.500   2.975   1.125  0.2412  0.8118 -0.0601
 3918SOL     OW15669   0.088   1.842   4.645 -0.4509  0.1000 -0.0988
 3918SOL    HW115670   0.034   1.829   4.567  0.5115 -0.2773 -0.7072
 3918SOL    HW215671   0.136   1.760   4.656 -0.3106  0.2744  0.6901
 3918SOL     MW15672   0.087   1.830   4.636 -0.3098  0.0740 -0.0757
 3919SOL     OW15673   4.451   0.733   4.584 -0.1343 -0.1701 -0.3159
 3919SOL    HW115674   4.502   0.729   4.504 -1.6579 -0.0918 -1.3401
 3919SOL    HW215675   4.448   0.826   4.607 -0.7044 -0.0433 -0.8725
 3919SOL     MW15676   4.457   0.744   4.577 -0.4023 -0.1438 -0.5183
 3920SOL     OW15677   3.928   4.957   0.950 -0.5040 -0.3607 -0.2174
 3920SOL    HW115678   3.923   5.034   1.007 -1.2186 -2.7446  3.2808
 3920SOL    HW215679   3.864   4.975   0.881 -1.4870  1.7064  1.0969
 3920SOL     MW15680   3.919   4.969   0.948 -0.7213 -0.4012  0.3986
 3921SOL     OW15681   1.009   1.038   0.115 -0.2470  0.5121  0.4566
 3921SOL    HW115682   0.939   1.075   0.167 -0.4048  0.7778  0.0611
 3921SOL    HW215683   1.014   0.946   0.143  0.9382  1.0765  2.2888
 3921SOL     MW15684   1.001   1.031   0.125 -0.1155  0.6183  0.6405
 3922SOL     OW15685   3.783   4.357   1.204 -0.1878  0.0333  0.1921
 3922SOL    HW115686   3.697   4.331   1.236 -0.2885  0.7578  0.5319
 3922SOL    HW215687   3.790   4.317   1.117 -2.4429  2.9719 -1.5576
 3922SOL     MW15688   3.773   4.349   1.197 -0.4894  0.5023  0.0116
 3923SOL     OW15689   1.892   3.743   5.119  0.3819 -0.1477  0.0629
 3923SOL    HW115690   1.857   3.766   5.205  1.0360  0.8657  0.0808
 3923SOL    HW215691   1.860   3.812   5.061  0.7740 -0.2647 -0.3008
 3923SOL     MW15692   1.884   3.755   5.122  0.5158 -0.0329  0.0186
 3924SOL     OW15693   1.123   0.904   1.527 -0.7978 -0.0902  0.1687
 3924SOL    HW115694   1.150   0.995   1.514  2.1932 -1.1783 -3.0901
 3924SOL    HW215695   1.098   0.874   1.439 -3.1579 -2.0894  1.3969
 3924SOL     MW15696   1.123   0.912   1.514 -0.7171 -0.4854 -0.0912
 3925SOL     OW15697   0.777   1.948   1.016  0.4529 -0.0561 -0.4932
 3925SOL    HW115698   0.849   1.931   1.077 -0.5299 -0.7895  0.5047
 3925SOL    HW215699   0.698   1.931   1.067 -0.5160  2.6795 -0.9633
 3925SOL     MW15700   0.776   1.943   1.030  0.2031  0.2002 -0.4256
 3926SOL     OW15701   1.242   0.316   2.832  0.0985  0.3229 -0.2872
 3926SOL    HW115702   1.316   0.341   2.776 -0.1243 -0.5405 -0.9771
 3926SOL    HW215703   1.165   0.323   2.776  0.1430 -3.3023 -1.0635
 3926SOL     MW15704   1.242   0.320   2.818  0.0757 -0.2517 -0.4749
 3927SOL     OW15705   4.631   3.008   0.588  0.1775  0.1476  0.2003
 3927SOL    HW115706   4.571   3.080   0.571 -0.1295 -0.3166 -0.7177
 3927SOL    HW215707   4.696   3.014   0.518  1.5330  0.9582  1.4575
 3927SOL     MW15708   4.632   3.018   0.577  0.3117  0.1920  0.2437
 3928SOL     OW15709   3.481   3.013   1.967 -0.0753 -0.1117 -0.2499
 3928SOL    HW115710   3.466   3.046   2.055  1.3712  1.3890 -0.5280
 3928SOL    HW215711   3.421   3.063   1.911  0.9684  0.9595 -0.4531
 3928SOL     MW15712   3.472   3.023   1.971  0.2435  0.2175 -0.3115
 3929SOL     OW15713   3.103   4.364   5.345  0.0750 -0.2132  0.5066
 3929SOL    HW115714   3.181   4.309   5.349 -1.2198 -2.1876  0.0663
 3929SOL    HW215715   3.045   4.329   5.412 -0.6931  0.8033  0.3996
 3929SOL     MW15716   3.105   4.352   5.354 -0.1891 -0.3358  0.4365
 3930SOL     OW15717   2.481   4.239   2.260  0.8410 -0.2314  0.1100
 3930SOL    HW115718   2.413   4.176   2.283  1.0598 -0.7595 -0.6527
 3930SOL    HW215719   2.443   4.289   2.188  1.2974 -0.6035 -0.3931
 3930SOL     MW15720   2.467   4.237   2.254  0.9275 -0.3466 -0.0520
 3931SOL     OW15721   0.327   3.876   1.560 -0.3466  0.1964  0.1516
 3931SOL    HW115722   0.414   3.881   1.599  0.7049  0.2737 -2.0303
 3931SOL    HW215723   0.329   3.795   1.509 -1.9967 -0.4214  1.0334
 3931SOL     MW15724   0.339   3.866   1.558 -0.4232  0.1272 -0.0148
 3932SOL     OW15725   5.036   0.165   2.533 -0.7347 -0.3032 -0.5318
 3932SOL    HW115726   4.988   0.196   2.456 -0.7216  0.8883 -0.0805
 3932SOL    HW215727   4.973   0.108   2.579 -2.0230  1.7515  0.4037
 3932SOL     MW15728   5.022   0.162   2.529 -0.8979  0.1124 -0.3543
 3933SOL     OW15729   1.924   3.245   2.619  0.1003 -0.0400  0.2761
 3933SOL    HW115730   1.957   3.169   2.571 -0.6393 -0.3560  0.2468
 3933SOL    HW215731   1.938   3.222   2.711 -0.2596 -0.2805  0.2728
 3933SOL     MW15732   1.930   3.232   2.625 -0.0404 -0.1112  0.2720
 3934SOL     OW15733   5.072   4.157   1.398  0.0753  0.8190  0.1200
 3934SOL    HW115734   5.064   4.250   1.377  0.2128  0.7916 -0.0595
 3934SOL    HW215735   5.025   4.146   1.480  1.1958  1.3054  0.8500
 3934SOL     MW15736   5.065   4.167   1.406  0.2363  0.8778  0.1905
 3935SOL     OW15737   0.962   1.090   2.788  0.1846  0.6094  0.0845
 3935SOL    HW115738   1.045   1.094   2.835 -0.3200  0.0872  1.0378
 3935SOL    HW215739   0.926   1.004   2.809 -0.7387  0.9394 -0.0783
 3935SOL     MW15740   0.968   1.079   2.797  0.0018  0.5848  0.1857
 3936SOL     OW15741   2.951   0.296   1.969  0.1579  0.1429 -0.4000
 3936SOL    HW115742   2.916   0.207   1.966  1.0741 -0.2262 -0.4624
 3936SOL    HW215743   3.046   0.284   1.975  0.2046  1.0650  1.7590
 3936SOL     MW15744   2.959   0.283   1.970  0.2812  0.2137 -0.1316
 3937SOL     OW15745   1.958   3.858   2.584 -0.0328 -0.0995  0.4986
 3937SOL    HW115746   1.976   3.940   2.631  1.7994 -0.3307  0.2667
 3937SOL    HW215747   2.021   3.796   2.620  0.1039 -0.8023 -0.8978
 3937SOL     MW15748   1.968   3.861   2.595  0.2192 -0.2191  0.2902
 3938SOL     OW15749   1.074   0.884   0.507  0.0935  0.0524 -0.0174
 3938SOL    HW115750   1.036   0.798   0.491 -0.1962 -0.1425  1.6135
 3938SOL    HW215751   1.147   0.889   0.445  1.8027 -2.4769  1.6309
 3938SOL     MW15752   1.078   0.874   0.497  0.2752 -0.2963  0.4024
 3939SOL     OW15753   3.508   3.925   1.645 -0.2244 -0.1201  0.1558
 3939SOL    HW115754   3.461   3.918   1.562 -0.8586 -0.0389  0.4998
 3939SOL    HW215755   3.556   4.008   1.638  0.4813 -0.5759 -0.4997
 3939SOL     MW15756   3.508   3.935   1.633 -0.2153 -0.1680  0.1159
 3940SOL     OW15757   0.285   0.182   5.228 -0.4390 -0.4063  0.4644
 3940SOL    HW115758   0.249   0.247   5.167  1.1453  1.0702  1.0271
 3940SOL    HW215759   0.288   0.101   5.177 -0.1837  0.5225 -1.0704
 3940SOL     MW15760   0.281   0.180   5.213 -0.2035 -0.0984  0.3399
 3941SOL     OW15761   3.075   1.817   0.847 -0.1806 -0.5719  0.0907
 3941SOL    HW115762   3.052   1.892   0.901 -0.7809 -0.8575  0.2413
 3941SOL    HW215763   3.118   1.854   0.770  2.3821 -0.2460  1.5794
 3941SOL     MW15764   3.078   1.831   0.844  0.0706 -0.5667  0.3006
 3942SOL     OW15765   4.771   3.615   4.676  0.1690  0.5495 -0.4582
 3942SOL    HW115766   4.726   3.594   4.758  0.8695 -0.7652 -0.3832
 3942SOL    HW215767   4.701   3.634   4.614 -0.3711  1.8481  0.4976
 3942SOL     MW15768   4.756   3.615   4.679  0.1896  0.5474 -0.3262
 3943SOL     OW15769   5.329   4.333   5.205 -0.8021  0.6078  0.0261
 3943SOL    HW115770   5.313   4.320   5.111 -1.4713  0.7655  0.1117
 3943SOL    HW215771   5.242   4.341   5.243 -0.5764 -0.3942  0.8101
 3943SOL     MW15772   5.316   4.332   5.198 -0.8588  0.4997  0.1374
 3944SOL     OW15773   0.976   0.666   0.426  0.6002  0.4678 -0.2285
 3944SOL    HW115774   1.039   0.684   0.357 -0.1373  1.5466 -0.6376
 3944SOL    HW215775   0.943   0.578   0.406 -0.4578  1.1961 -1.9620
 3944SOL     MW15776   0.980   0.657   0.415  0.3703  0.6992 -0.5028
 3945SOL     OW15777   0.619   0.039   0.420  0.2556 -0.0904  0.0519
 3945SOL    HW115778   0.568   0.093   0.480  0.7070 -0.3590  0.6860
 3945SOL    HW215779   0.651   0.100   0.353 -1.0359  0.0472 -0.4553
 3945SOL     MW15780   0.617   0.054   0.419  0.1480 -0.1072  0.0681
 3946SOL     OW15781   0.880   1.676   2.476  0.3018  0.9577  0.1479
 3946SOL    HW115782   0.933   1.739   2.428 -0.2738  2.5779  1.5559
 3946SOL    HW215783   0.818   1.643   2.411  4.1442 -2.6988 -2.2225
 3946SOL     MW15784   0.879   1.680   2.461  0.7200  0.6970  0.0247
 3947SOL     OW15785   4.845   3.497   0.476 -0.3031  0.3940 -0.1765
 3947SOL    HW115786   4.756   3.502   0.442  0.1595 -2.0556 -2.0077
 3947SOL    HW215787   4.835   3.459   0.564 -1.0593 -0.7906 -0.7405
 3947SOL     MW15788   4.833   3.492   0.483 -0.3407 -0.0712 -0.4831
 3948SOL     OW15789   4.213   1.195   0.834 -0.0885  0.1108 -0.0050
 3948SOL    HW115790   4.153   1.187   0.908  1.5357  0.6586  1.4308
 3948SOL    HW215791   4.210   1.109   0.792 -1.6165  0.0340  0.2032
 3948SOL     MW15792   4.205   1.183   0.838 -0.0762  0.1711  0.2054
 3949SOL     OW15793   1.406   2.515   2.137  0.2491 -0.1807  0.2430
 3949SOL    HW115794   1.469   2.572   2.182  0.8614 -1.3176  0.8652
 3949SOL    HW215795   1.444   2.503   2.050  1.1279 -1.1847  0.7457
 3949SOL     MW15796   1.419   2.521   2.131  0.4400 -0.4548  0.3870
 3950SOL     OW15797   2.531   2.871   3.966  0.0425 -0.2672 -0.5112
 3950SOL    HW115798   2.535   2.827   3.881 -1.0438  0.7319 -1.1205
 3950SOL    HW215799   2.581   2.951   3.954 -0.8521  0.3074 -0.5041
 3950SOL     MW15800   2.538   2.875   3.953 -0.2111 -0.0657 -0.5883
 3951SOL     OW15801   1.313   1.596   2.451  0.2604  0.0650  0.4590
 3951SOL    HW115802   1.346   1.592   2.541  2.2972 -2.0129 -0.2592
 3951SOL    HW215803   1.271   1.511   2.437 -1.5667  1.0113 -0.0676
 3951SOL     MW15804   1.312   1.585   2.460  0.2873 -0.0799  0.2996
 3952SOL     OW15805   4.837   1.906   0.150  0.0527 -0.3314 -0.0629
 3952SOL    HW115806   4.858   1.944   0.065 -2.0869  2.3895  0.5016
 3952SOL    HW215807   4.754   1.861   0.136  0.4226 -1.1496  0.3006
 3952SOL     MW15808   4.829   1.905   0.137 -0.1738 -0.0878  0.0559
 3953SOL     OW15809   2.289   0.058   3.893  0.0475  0.3256 -0.6054
 3953SOL    HW115810   2.334  -0.010   3.943 -0.8635  0.8037  0.9566
 3953SOL    HW215811   2.359   0.105   3.848  0.8891 -0.3317 -0.0208
 3953SOL     MW15812   2.304   0.055   3.894  0.0386  0.3027 -0.3306
 3954SOL     OW15813   1.026   4.513   3.446  0.5936 -0.0013 -0.5206
 3954SOL    HW115814   0.952   4.569   3.426  0.3580  0.3420  1.1586
 3954SOL    HW215815   1.076   4.508   3.364 -0.9668  0.2109 -1.5145
 3954SOL     MW15816   1.023   4.520   3.433  0.3637  0.0698 -0.4329
 3955SOL     OW15817   2.214   4.886   3.809 -0.6518  0.1419 -0.3679
 3955SOL    HW115818   2.191   4.830   3.735  1.0191 -0.5207 -0.4398
 3955SOL    HW215819   2.271   4.832   3.863 -1.0614  0.9420  0.9198
 3955SOL     MW15820   2.219   4.872   3.807 -0.4904  0.1595 -0.2122
 3956SOL     OW15821   3.229   0.974   0.470 -0.0216  0.7090 -0.0210
 3956SOL    HW115822   3.309   0.939   0.508  0.0889  0.7076 -0.2503
 3956SOL    HW215823   3.179   0.896   0.443  0.5579  0.7203 -1.2149
 3956SOL     MW15824   3.233   0.959   0.471  0.0667  0.7102 -0.2032
 3957SOL     OW15825   2.963   2.715   2.954 -0.1774  0.1994  0.0638
 3957SOL    HW115826   3.054   2.724   2.924  0.0217  0.4050  0.7058
 3957SOL    HW215827   2.952   2.621   2.972  0.1853  0.2841  0.7951
 3957SOL     MW15828   2.973   2.704   2.953 -0.1055  0.2365  0.2396
 3958SOL     OW15829   2.449   2.566   0.609 -0.3769 -0.4145 -0.2287
 3958SOL    HW115830   2.476   2.500   0.673  1.7134 -0.0484 -0.6714
 3958SOL    HW215831   2.478   2.649   0.647 -0.6682 -0.0107 -0.8762
 3958SOL     MW15832   2.456   2.568   0.622 -0.1466 -0.3159 -0.3683
 3959SOL     OW15833   4.594   0.882   1.696 -0.3190 -0.1773  0.3849
 3959SOL    HW115834   4.588   0.877   1.791  2.0223 -0.8056  0.5601
 3959SOL    HW215835   4.550   0.803   1.665 -1.5639  0.2982  0.8919
 3959SOL     MW15836   4.588   0.872   1.704 -0.1787 -0.1968  0.4722
 3960SOL     OW15837   0.685   4.792   3.094 -0.3857 -0.3714  0.1756
 3960SOL    HW115838   0.690   4.879   3.133  0.5576 -0.2859 -0.1188
 3960SOL    HW215839   0.714   4.804   3.004 -1.3268 -0.8000 -0.1901
 3960SOL     MW15840   0.689   4.805   3.088 -0.3854 -0.4153  0.0911
 3961SOL     OW15841   5.236   2.592   3.023 -0.1333 -0.2997  0.1912
 3961SOL    HW115842   5.266   2.670   3.070 -0.8745  0.3812 -0.4293
 3961SOL    HW215843   5.291   2.590   2.944  0.9491 -1.3092  0.9285
 3961SOL     MW15844   5.247   2.602   3.018 -0.0896 -0.3418  0.2062
 3962SOL     OW15845   1.142   2.949   5.314 -0.8580 -0.2669  0.0516
 3962SOL    HW115846   1.102   2.941   5.227 -1.0131 -0.7726  0.1686
 3962SOL    HW215847   1.181   2.864   5.331  2.4039  0.8453 -1.0611
 3962SOL     MW15848   1.142   2.937   5.305 -0.4603 -0.1893 -0.0759
 3963SOL     OW15849   2.887   1.149   0.487  0.0354  0.2740 -0.1182
 3963SOL    HW115850   2.829   1.223   0.506  0.0528  0.1165  0.5745
 3963SOL    HW215851   2.932   1.133   0.570 -0.7437 -1.1967  0.0534
 3963SOL     MW15852   2.885   1.157   0.500 -0.0621  0.0656 -0.0075
 3964SOL     OW15853   2.745   0.590   5.513  0.1791 -0.3169 -0.0496
 3964SOL    HW115854   2.803   0.598   5.436 -2.0117 -0.7609 -1.8630
 3964SOL    HW215855   2.693   0.670   5.512 -2.4894 -1.9369 -1.4193
 3964SOL     MW15856   2.746   0.601   5.503 -0.4429 -0.5811 -0.4571
 3965SOL     OW15857   0.848   3.075   4.233 -0.5470 -0.3407 -0.3691
 3965SOL    HW115858   0.908   3.042   4.166 -1.6179 -0.1961 -1.4349
 3965SOL    HW215859   0.903   3.087   4.311  0.5666 -1.2655 -0.9817
 3965SOL     MW15860   0.863   3.073   4.235 -0.5416 -0.4406 -0.5839
 3966SOL     OW15861   1.823   2.201   5.345  0.0402 -0.1386  1.0073
 3966SOL    HW115862   1.819   2.185   5.250  0.2926 -1.3161  1.1781
 3966SOL    HW215863   1.914   2.182   5.369 -0.5971 -2.5024  1.8830
 3966SOL     MW15864   1.834   2.197   5.336 -0.0091 -0.5919  1.1413
 3967SOL     OW15865   0.163   1.795   1.067 -0.2185  0.1821 -0.3078
 3967SOL    HW115866   0.167   1.829   1.156  2.9868  0.4588 -0.4514
 3967SOL    HW215867   0.202   1.708   1.072 -0.9669 -0.2405 -1.3072
 3967SOL     MW15868   0.168   1.788   1.079  0.0960  0.1634 -0.4541
 3968SOL     OW15869   4.489   2.126   1.128 -0.1322  0.1814 -0.6344
 3968SOL    HW115870   4.582   2.116   1.148 -0.3650 -1.3479 -0.2032
 3968SOL    HW215871   4.487   2.172   1.044  0.9868  0.9168 -0.2703
 3968SOL     MW15872   4.500   2.131   1.120 -0.0188  0.0798 -0.5326
 3969SOL     OW15873   3.871   4.581   2.341 -0.6010 -0.4363 -0.0669
 3969SOL    HW115874   3.914   4.513   2.288 -1.7969 -0.2612 -1.3087
 3969SOL    HW215875   3.898   4.561   2.431  1.4540 -0.7729 -0.7040
 3969SOL     MW15876   3.880   4.570   2.346 -0.4911 -0.4570 -0.3074
 3970SOL     OW15877   4.597   1.254   3.275  0.5031  0.3188 -0.3089
 3970SOL    HW115878   4.597   1.257   3.371 -0.6526 -1.2351 -0.2282
 3970SOL    HW215879   4.533   1.320   3.249 -0.4953 -0.4778  0.0778
 3970SOL     MW15880   4.589   1.263   3.284  0.2273  0.0179 -0.2490
 3971SOL     OW15881   0.347   2.772   0.080 -0.2388  0.6092 -0.4729
 3971SOL    HW115882   0.320   2.838   0.016 -0.3943  0.9699 -0.0434
 3971SOL    HW215883   0.424   2.811   0.122  0.7718 -0.2717 -1.4690
 3971SOL     MW15884   0.353   2.786   0.077 -0.1294  0.5426 -0.5454
 3972SOL     OW15885   2.577   1.664   0.528 -0.1871 -0.2236 -0.7934
 3972SOL    HW115886   2.545   1.749   0.557  1.5645 -0.0166  0.6694
 3972SOL    HW215887   2.602   1.619   0.608  0.1220 -1.6326 -1.6506
 3972SOL     MW15888   2.576   1.669   0.542  0.0767 -0.3775 -0.7159
 3973SOL     OW15889   2.234   1.745   2.180  0.1047 -0.3092 -0.0145
 3973SOL    HW115890   2.252   1.680   2.248 -3.9171 -2.4194 -0.6542
 3973SOL    HW215891   2.286   1.821   2.206  1.9832 -2.3692  3.0342
 3973SOL     MW15892   2.243   1.746   2.192 -0.1697 -0.8430  0.2939
 3974SOL     OW15893   4.766   2.321   0.460  0.4826  0.2363 -0.7491
 3974SOL    HW115894   4.763   2.398   0.404 -0.3433  1.4462  0.8667
 3974SOL    HW215895   4.683   2.277   0.445  0.0953  0.7716 -0.2087
 3974SOL     MW15896   4.755   2.325   0.451  0.3273  0.4597 -0.4731
 3975SOL     OW15897   4.811   1.650   3.998  0.6968 -0.3029  0.1307
 3975SOL    HW115898   4.823   1.713   4.069  0.4344 -0.1764  0.0630
 3975SOL    HW215899   4.847   1.693   3.920  1.7314 -0.7585  0.3357
 3975SOL     MW15900   4.817   1.663   3.997  0.7957 -0.3450  0.1483
 3976SOL     OW15901   3.043   1.425   0.580  0.1746  0.3966  0.5024
 3976SOL    HW115902   3.073   1.422   0.671  0.3241  2.5103  0.5689
 3976SOL    HW215903   3.102   1.366   0.533  1.7865  1.2678  1.3485
 3976SOL     MW15904   3.054   1.417   0.586  0.4001  0.7787  0.6192
 3977SOL     OW15905   1.779   0.132   4.978 -0.4022  0.2003  0.1228
 3977SOL    HW115906   1.846   0.091   4.924  0.0977  2.2044 -0.8782
 3977SOL    HW215907   1.823   0.206   5.019 -1.2696 -0.1749  1.8401
 3977SOL     MW15908   1.793   0.136   4.976 -0.4493  0.4088  0.2145
 3978SOL     OW15909   4.734   2.497   3.332  0.8180 -0.2477  0.2367
 3978SOL    HW115910   4.816   2.522   3.376  0.3703  0.9210  0.4529
 3978SOL    HW215911   4.668   2.502   3.400  0.4578 -0.5415 -0.0867
 3978SOL     MW15912   4.736   2.501   3.346  0.7146 -0.1357  0.2230
 3979SOL     OW15913   0.621   0.371   4.740 -0.0493 -0.8023 -1.1226
 3979SOL    HW115914   0.638   0.458   4.703 -0.7206 -0.2840 -0.2570
 3979SOL    HW215915   0.672   0.312   4.686  2.0448  0.3480 -0.5210
 3979SOL     MW15916   0.630   0.375   4.728  0.1328 -0.5887 -0.9348
 3980SOL     OW15917   1.302   0.341   3.416 -0.0466  1.0520  0.2856
 3980SOL    HW115918   1.309   0.316   3.508 -0.2106 -1.7808 -0.3745
 3980SOL    HW215919   1.264   0.429   3.418 -1.9766  0.3094  2.8882
 3980SOL     MW15920   1.298   0.349   3.428 -0.3147  0.5943  0.5343
 3981SOL     OW15921   2.590   5.048   4.242 -0.5143  0.3990 -0.0359
 3981SOL    HW115922   2.518   5.082   4.295  0.0655  1.1495  0.2863
 3981SOL    HW215923   2.607   5.116   4.177 -1.2570 -0.5418 -1.2574
 3981SOL     MW15924   2.583   5.061   4.241 -0.5351  0.3746 -0.1510
 3982SOL     OW15925   5.366   4.927   5.386 -0.1335 -0.2480  0.2023
 3982SOL    HW115926   5.303   4.984   5.342 -0.8367 -0.1603  1.2672
 3982SOL    HW215927   5.353   4.947   5.479  1.1475 -0.5708  0.4593
 3982SOL     MW15928   5.356   4.937   5.393 -0.0595 -0.2781  0.3715
 3983SOL     OW15929   3.802   3.254   5.380 -0.1245  0.3979  0.6641
 3983SOL    HW115930   3.818   3.320   5.447  0.3627  1.3120 -0.3385
 3983SOL    HW215931   3.715   3.275   5.346 -0.1696  0.2259  0.6709
 3983SOL     MW15932   3.793   3.265   5.384 -0.0679  0.4929  0.5366
 3984SOL     OW15933   1.006   4.196   0.343  0.0463 -0.2311  0.1777
 3984SOL    HW115934   1.032   4.267   0.401 -0.0826  0.2835 -0.3883
 3984SOL    HW215935   1.068   4.126   0.361  2.2294  1.1460 -1.5077
 3984SOL     MW15936   1.017   4.196   0.353  0.3092  0.0110 -0.1105
 3985SOL     OW15937   0.783   4.670   3.715 -0.3041 -0.0828  0.4992
 3985SOL    HW115938   0.748   4.603   3.773  2.1440 -1.4844  0.5050
 3985SOL    HW215939   0.774   4.634   3.627  0.8310 -0.3687  0.4843
 3985SOL     MW15940   0.778   4.657   3.711  0.1546 -0.2988  0.4980
 3986SOL     OW15941   3.597   4.122   2.373 -0.1473  0.4311 -0.0292
 3986SOL    HW115942   3.577   4.095   2.462  0.3825  0.7693  0.1972
 3986SOL    HW215943   3.673   4.069   2.348 -0.6925 -0.1299 -0.5172
 3986SOL     MW15944   3.604   4.112   2.381 -0.1493  0.4026 -0.0627
 3987SOL     OW15945   0.154   1.968   4.877 -0.5948  0.1018 -0.7827
 3987SOL    HW115946   0.132   1.926   4.793  0.6128  1.8411 -2.0348
 3987SOL    HW215947   0.208   2.043   4.853 -0.3883  0.7837  1.5703
 3987SOL     MW15948   0.158   1.972   4.863 -0.4138  0.4117 -0.6418
 3988SOL     OW15949   0.518   4.026   0.652 -0.2595  0.1542 -0.7068
 3988SOL    HW115950   0.560   4.087   0.713 -0.5436  0.8561 -1.2051
 3988SOL    HW215951   0.444   3.990   0.702 -0.0372  0.1410 -0.3808
 3988SOL     MW15952   0.514   4.029   0.667 -0.2674  0.2423 -0.7289
 3989SOL     OW15953   1.202   3.902   1.844 -0.5002 -0.4409 -0.4584
 3989SOL    HW115954   1.189   3.961   1.771  1.7763  0.1733 -0.4569
 3989SOL    HW215955   1.272   3.843   1.815 -0.2701 -0.8349  0.8267
 3989SOL     MW15956   1.210   3.902   1.831 -0.1793 -0.4127 -0.2937
 3990SOL     OW15957   2.509   0.744   4.521 -0.3932  0.0156 -0.4668
 3990SOL    HW115958   2.533   0.823   4.473  0.4934 -1.0248 -1.8050
 3990SOL    HW215959   2.439   0.772   4.580  0.5699  2.0116 -0.1843
 3990SOL     MW15960   2.503   0.758   4.523 -0.1564  0.1379 -0.6019
 3991SOL     OW15961   0.838   3.606   2.418  0.3543 -0.1151 -0.4963
 3991SOL    HW115962   0.784   3.666   2.469  0.1516 -1.7030  1.2664
 3991SOL    HW215963   0.914   3.589   2.474  0.4424 -1.3978 -0.9687
 3991SOL     MW15964   0.841   3.611   2.432  0.3396 -0.4826 -0.3311
 3992SOL     OW15965   0.412   5.050   0.743 -1.4763 -0.4073 -0.6852
 3992SOL    HW115966   0.390   5.050   0.649 -3.3030 -0.5396 -0.2979
 3992SOL    HW215967   0.455   4.966   0.758  1.7559  0.8704 -1.9701
 3992SOL     MW15968   0.414   5.040   0.733 -1.2964 -0.2607 -0.8001
 3993SOL     OW15969   3.987   5.500   4.576 -0.0861  0.7252 -0.2366
 3993SOL    HW115970   4.045   5.449   4.520  0.9451  0.8791  0.6715
 3993SOL    HW215971   3.972   5.444   4.652 -2.2399  0.1215 -1.0274
 3993SOL     MW15972   3.992   5.486   4.579 -0.2298  0.6676 -0.2216
 3994SOL     OW15973   3.578   0.144   0.426 -0.3136  0.2533 -0.1250
 3994SOL    HW115974   3.516   0.201   0.471  0.0253  0.7127 -0.2287
 3994SOL    HW215975   3.546   0.056   0.443 -0.2137  0.4143  0.9851
 3994SOL     MW15976   3.566   0.140   0.434 -0.2575  0.3327  0.0038
 3995SOL     OW15977   2.159   0.825   2.959 -0.5672 -0.2887  0.2798
 3995SOL    HW115978   2.207   0.745   2.935  0.0002  0.1583 -0.1011
 3995SOL    HW215979   2.219   0.873   3.016 -0.7338  0.0680  0.1572
 3995SOL     MW15980   2.173   0.821   2.963 -0.5159 -0.1858  0.2154
 3996SOL     OW15981   5.047   1.990   0.801 -0.2682  0.7446  0.1229
 3996SOL    HW115982   5.140   1.991   0.823 -0.0075 -0.0566 -0.8457
 3996SOL    HW215983   5.002   2.016   0.882  0.7333 -0.1939  1.0090
 3996SOL     MW15984   5.053   1.993   0.815 -0.1066  0.5219  0.1124
 3997SOL     OW15985   2.128   3.666   1.126  1.1599 -0.0476 -0.3283
 3997SOL    HW115986   2.101   3.744   1.175  2.9544  1.0174 -0.9195
 3997SOL    HW215987   2.185   3.618   1.187  2.0754  0.4361 -0.7752
 3997SOL     MW15988   2.132   3.670   1.140  1.5068  0.1507 -0.4612
 3998SOL     OW15989   1.187   4.399   5.116  0.1476  0.3323 -0.3307
 3998SOL    HW115990   1.107   4.448   5.098 -0.9639 -1.1151  0.4185
 3998SOL    HW215991   1.219   4.373   5.029 -1.0359 -0.3087 -0.6013
 3998SOL     MW15992   1.181   4.402   5.103 -0.1462  0.0649 -0.2694
 3999SOL     OW15993   1.602   2.640   3.346 -0.6510  0.9859  0.1383
 3999SOL    HW115994   1.691   2.658   3.377  0.0191 -1.2348 -0.3765
 3999SOL    HW215995   1.592   2.699   3.271  0.9653  0.2392 -0.7270
 3999SOL     MW15996   1.612   2.650   3.340 -0.3583  0.6060 -0.0383
 4000SOL     OW15997   2.982   1.004   3.857  0.6598  0.0383 -0.1204
 4000SOL    HW115998   2.999   0.914   3.828 -1.4422 -0.3705 -0.2990
 4000SOL    HW215999   3.007   1.058   3.782  1.9747 -0.3716  0.0013
 4000SOL     MW16000   2.987   0.999   3.843  0.5590 -0.0665 -0.1277
 4001SOL     OW16001   0.838   1.187   3.378  0.0549 -0.4065  0.2611
 4001SOL    HW116002   0.911   1.132   3.409  0.7079  0.6875  0.7472
 4001SOL    HW216003   0.818   1.244   3.453  0.2644  0.8815 -0.6217
 4001SOL     MW16004   0.845   1.187   3.392  0.1653 -0.1015  0.2103
 4002SOL     OW16005   4.314   3.237   2.646  0.0993  0.1064 -0.4049
 4002SOL    HW116006   4.352   3.228   2.559  0.4154 -1.1316 -0.1559
 4002SOL    HW216007   4.221   3.214   2.633 -0.2749  1.6661 -0.7271
 4002SOL     MW16008   4.307   3.233   2.633  0.0919  0.1476 -0.4143
 4003SOL     OW16009   0.411   2.137   1.880  0.3865 -0.0976 -0.1101
 4003SOL    HW116010   0.395   2.106   1.790 -2.1034 -1.0155  0.5510
 4003SOL    HW216011   0.420   2.231   1.871 -1.1798 -0.0011 -1.2501
 4003SOL     MW16012   0.410   2.145   1.867 -0.1328 -0.2028 -0.1714
 4004SOL     OW16013   4.201   1.868   4.296 -0.0675  0.0256  0.6105
 4004SOL    HW116014   4.120   1.833   4.333  1.1162 -1.2192  2.1985
 4004SOL    HW216015   4.214   1.818   4.216 -1.6954  1.4266 -0.5949
 4004SOL     MW16016   4.192   1.857   4.291 -0.1243  0.0456  0.6595
 4005SOL     OW16017   3.139   3.321   1.244 -0.2289 -0.3955  0.1912
 4005SOL    HW116018   3.115   3.265   1.170 -1.8306 -0.5878  0.8169
 4005SOL    HW216019   3.100   3.278   1.320  0.2926  0.4749  0.9646
 4005SOL     MW16020   3.131   3.309   1.244 -0.3672 -0.3087  0.3703
 4006SOL     OW16021   4.786   3.788   3.452 -0.3783 -0.4496 -0.6242
 4006SOL    HW116022   4.756   3.728   3.384 -1.9404 -0.1316 -0.2499
 4006SOL    HW216023   4.731   3.768   3.528  0.8566 -0.3160  0.3430
 4006SOL     MW16024   4.775   3.778   3.453 -0.4202 -0.3918 -0.4525
 4007SOL     OW16025   3.486   3.089   0.658 -0.4035  0.1854 -0.4496
 4007SOL    HW116026   3.442   3.019   0.609 -0.7738 -2.0036  2.7422
 4007SOL    HW216027   3.417   3.153   0.675 -1.0010 -0.5116 -0.2138
 4007SOL     MW16028   3.471   3.088   0.654 -0.5274 -0.1841 -0.0108
 4008SOL     OW16029   1.174   2.663   2.547  0.3093  0.5510  0.3212
 4008SOL    HW116030   1.166   2.603   2.473  0.7488  1.0574 -0.1424
 4008SOL    HW216031   1.129   2.742   2.518 -1.1104  0.1294  1.2932
 4008SOL     MW16032   1.167   2.665   2.534  0.1838  0.5619  0.3863
 4009SOL     OW16033   0.567   1.240   3.167  0.5813 -0.7481  0.2568
 4009SOL    HW116034   0.619   1.248   3.087 -1.9327 -2.0612 -1.6629
 4009SOL    HW216035   0.504   1.311   3.162 -0.4285 -1.6068  0.3787
 4009SOL     MW16036   0.566   1.250   3.156  0.1302 -1.0261  0.0266
 4010SOL     OW16037   5.230   2.823   1.774 -0.0377 -0.3588 -0.2639
 4010SOL    HW116038   5.253   2.850   1.685  0.1811  2.1731  0.4878
 4010SOL    HW216039   5.313   2.826   1.822 -0.5628  1.0498  0.6230
 4010SOL     MW16040   5.244   2.827   1.769 -0.0769  0.1456 -0.0541
 4011SOL     OW16041   4.741   4.606   4.743 -0.0201  0.0372  0.4428
 4011SOL    HW116042   4.818   4.637   4.696  0.4396 -0.9158  0.5401
 4011SOL    HW216043   4.771   4.527   4.788 -1.1309 -0.5187  0.2400
 4011SOL     MW16044   4.755   4.600   4.743 -0.1034 -0.1560  0.4293
 4012SOL     OW16045   3.057   1.873   5.079  0.5330  0.1279 -0.3718
 4012SOL    HW116046   3.152   1.870   5.084  0.5615  1.6008  0.9182
 4012SOL    HW216047   3.038   1.934   5.008  0.6685  2.2200  1.2739
 4012SOL     MW16048   3.067   1.881   5.071  0.5540  0.5843  0.0040
 4013SOL     OW16049   4.763   3.529   4.246  0.1011  0.0245  0.4908
 4013SOL    HW116050   4.841   3.586   4.245  0.7346 -0.8247 -0.8323
 4013SOL    HW216051   4.785   3.460   4.309  0.8389 -0.7374 -0.5706
 4013SOL     MW16052   4.776   3.528   4.254  0.2767 -0.1817  0.1856
 4014SOL     OW16053   3.705   3.066   3.726 -0.2742  0.6087  0.1161
 4014SOL    HW116054   3.645   3.021   3.666  0.3433 -0.0016 -0.0639
 4014SOL    HW216055   3.756   3.124   3.669  0.9343 -0.6318 -0.1230
 4014SOL     MW16056   3.704   3.068   3.711 -0.0404  0.3717  0.0624
 4015SOL     OW16057   3.008   5.490   1.640  0.0406 -0.6316 -0.8197
 4015SOL    HW116058   2.985   5.445   1.559 -1.5679  0.2446 -0.8804
 4015SOL    HW216059   2.926   5.495   1.689  0.7205 -0.0013  0.2910
 4015SOL     MW16060   2.995   5.485   1.636 -0.0783 -0.4387 -0.6853
 4016SOL     OW16061   2.490   1.574   1.737 -0.5817  0.0581 -0.2559
 4016SOL    HW116062   2.477   1.663   1.772  0.5926  0.3850 -0.5809
 4016SOL    HW216063   2.474   1.582   1.643 -1.2708 -0.2618 -0.1697
 4016SOL     MW16064   2.486   1.587   1.730 -0.5196  0.0590 -0.2865
 4017SOL     OW16065   2.160   1.200   0.448 -1.0487  0.1035 -0.2075
 4017SOL    HW116066   2.076   1.227   0.410 -1.4197  0.0275  0.5547
 4017SOL    HW216067   2.161   1.240   0.535  0.1195  0.8806 -0.5597
 4017SOL     MW16068   2.149   1.209   0.454 -0.9467  0.1932 -0.1550
 4018SOL     OW16069   3.400   3.446   1.362  0.2390  0.3967  0.7988
 4018SOL    HW116070   3.384   3.411   1.275  1.2585  0.4849  0.5642
 4018SOL    HW216071   3.492   3.428   1.379  0.4495  1.7608  1.2227
 4018SOL     MW16072   3.410   3.439   1.353  0.3964  0.5826  0.8230
 4019SOL     OW16073   4.282   3.519   5.460 -0.3387  0.3614  0.3312
 4019SOL    HW116074   4.350   3.548   5.520 -0.5208 -1.0481  1.2616
 4019SOL    HW216075   4.321   3.446   5.412 -0.5633  0.7842 -0.5230
 4019SOL     MW16076   4.295   3.513   5.461 -0.3908  0.2351  0.3410
 4020SOL     OW16077   4.307   2.959   2.951 -0.4482  0.3988  0.2274
 4020SOL    HW116078   4.296   3.053   2.942  1.6842  0.8534  1.5223
 4020SOL    HW216079   4.329   2.946   3.044 -0.3629 -1.3284  0.0078
 4020SOL     MW16080   4.308   2.969   2.962 -0.1643  0.2359  0.3650
 4021SOL     OW16081   0.751   0.905   2.856 -0.7325  0.2111 -0.1912
 4021SOL    HW116082   0.674   0.904   2.798 -0.0084  0.8150 -1.1987
 4021SOL    HW216083   0.807   0.835   2.822 -1.3266 -1.0265  1.2714
 4021SOL     MW16084   0.748   0.896   2.844 -0.7158  0.1300 -0.1329
 4022SOL     OW16085   2.020   0.145   2.851 -0.4580 -0.1249  0.0133
 4022SOL    HW116086   2.098   0.106   2.811  0.7819  0.7909  1.3919
 4022SOL    HW216087   1.967   0.174   2.777  1.5588  1.1942 -1.0049
 4022SOL     MW16088   2.023   0.144   2.836 -0.0411  0.1612  0.0595
 4023SOL     OW16089   4.348   0.166   0.348 -0.3562  0.0671 -0.2211
 4023SOL    HW116090   4.418   0.230   0.339 -0.3999  0.2125  0.4573
 4023SOL    HW216091   4.377   0.091   0.295  1.2827 -0.6976  1.6526
 4023SOL     MW16092   4.360   0.164   0.340 -0.1520 -0.0122  0.1056
 4024SOL     OW16093   1.187   3.547   0.287 -0.1922  0.3942 -0.4609
 4024SOL    HW116094   1.147   3.577   0.369  0.7188 -0.8602  0.4989
 4024SOL    HW216095   1.132   3.584   0.218 -2.4951 -0.5525  0.7582
 4024SOL     MW16096   1.175   3.556   0.289 -0.3704  0.1124 -0.1820
 4025SOL     OW16097   0.356   1.109   0.715 -0.2087  0.2230 -0.7590
 4025SOL    HW116098   0.360   1.063   0.799  0.6639  0.4242 -0.6813
 4025SOL    HW216099   0.263   1.120   0.698 -0.4256 -1.1705 -0.5635
 4025SOL     MW16100   0.345   1.104   0.724 -0.1248  0.0704 -0.7240
 4026SOL     OW16101   3.047   2.059   2.130  0.4814 -0.5781  0.5846
 4026SOL    HW116102   3.135   2.074   2.166  0.5571  0.4552  0.0188
 4026SOL    HW216103   3.050   1.969   2.097  1.3437 -0.5479  0.5475
 4026SOL     MW16104   3.059   2.049   2.130  0.6015 -0.4420  0.5074
 4027SOL     OW16105   0.756   2.736   4.276  0.1621 -0.1624  0.0050
 4027SOL    HW116106   0.671   2.718   4.314 -0.5593  0.6438 -1.1606
 4027SOL    HW216107   0.791   2.808   4.329  0.0968 -0.4455  0.4381
 4027SOL     MW16108   0.750   2.743   4.287  0.0614 -0.0954 -0.0887
 4028SOL     OW16109   4.155   1.094   2.363  0.0985 -0.0971  0.1412
 4028SOL    HW116110   4.104   1.143   2.299  0.8622  1.3404  0.5911
 4028SOL    HW216111   4.115   1.116   2.447  0.7881  0.1993  0.3977
 4028SOL     MW16112   4.143   1.103   2.365  0.2845  0.1249  0.2316
 4029SOL     OW16113   0.390   5.124   4.429 -0.0900 -0.0830 -0.4088
 4029SOL    HW116114   0.475   5.088   4.404  1.1660 -0.5263  3.7430
 4029SOL    HW216115   0.336   5.048   4.450 -0.5568  0.2525 -0.3625
 4029SOL     MW16116   0.394   5.110   4.428  0.0110 -0.0968  0.1286
 4030SOL     OW16117   0.232   3.214   4.030  0.0110  0.2250  0.6472
 4030SOL    HW116118   0.254   3.169   3.948  0.9069  1.4183  0.2035
 4030SOL    HW216119   0.225   3.306   4.006 -0.9508  0.4441  1.6978
 4030SOL     MW16120   0.234   3.220   4.017  0.0026  0.4058  0.7249
 4031SOL     OW16121   4.769   1.152   4.438 -0.3037 -0.4932  0.2704
 4031SOL    HW116122   4.815   1.126   4.358 -1.7430  0.9774 -1.0862
 4031SOL    HW216123   4.677   1.137   4.419 -0.9832  2.8249  0.4040
 4031SOL     MW16124   4.763   1.147   4.426 -0.5749  0.1198  0.1138
 4032SOL     OW16125   4.852   2.899   0.758  0.0223 -0.3544 -0.2306
 4032SOL    HW116126   4.771   2.937   0.723 -0.9717 -0.3433  1.8978
 4032SOL    HW216127   4.891   2.969   0.810  0.9797 -0.6278 -0.5696
 4032SOL     MW16128   4.846   2.913   0.760  0.0176 -0.3880 -0.0015
 4033SOL     OW16129   3.936   1.387   4.134 -0.2890 -0.3372  0.4188
 4033SOL    HW116130   3.934   1.345   4.220  0.5721  1.9074  1.6222
 4033SOL    HW216131   4.018   1.358   4.095  0.6985  0.8147  1.5804
 4033SOL     MW16132   3.946   1.378   4.140 -0.0523  0.0976  0.7216
 4034SOL     OW16133   5.117   4.459   0.181  0.1134  0.3034  0.1612
 4034SOL    HW116134   5.106   4.401   0.256 -0.5917  1.3570  0.8880
 4034SOL    HW216135   5.172   4.409   0.120 -0.8699 -1.3219  0.5459
 4034SOL     MW16136   5.123   4.445   0.182 -0.1028  0.2302  0.3035
 4035SOL     OW16137   0.848   0.319   5.141 -0.0251  0.5196  0.2549
 4035SOL    HW116138   0.835   0.408   5.175  1.0543  0.0770  1.9315
 4035SOL    HW216139   0.923   0.286   5.190 -0.7777 -1.5370  0.0859
 4035SOL     MW16140   0.856   0.326   5.152  0.0167  0.1996  0.4479
 4036SOL     OW16141   1.573   3.382   1.881  0.4217  0.0759  0.1173
 4036SOL    HW116142   1.620   3.427   1.951  0.0000  0.5448  0.1121
 4036SOL    HW216143   1.518   3.318   1.926  2.0976 -1.4934  0.0353
 4036SOL     MW16144   1.572   3.380   1.896  0.5822 -0.0649  0.1061
 4037SOL     OW16145   1.620   0.592   1.111 -0.7490  0.7527  0.1839
 4037SOL    HW116146   1.532   0.616   1.141 -0.7158 -0.3522  1.2475
 4037SOL    HW216147   1.678   0.627   1.178 -0.3276  1.7526 -0.6755
 4037SOL     MW16148   1.616   0.599   1.123 -0.6908  0.7393  0.2101
 4038SOL     OW16149   0.052   2.926   4.727  0.3329  0.0012 -0.1998
 4038SOL    HW116150   0.029   2.955   4.815  0.3506  1.3153 -0.6125
 4038SOL    HW216151  -0.024   2.947   4.673 -0.1201 -1.7780 -0.3360
 4038SOL     MW16152   0.040   2.932   4.731  0.2772 -0.0583 -0.2701
 4039SOL     OW16153   1.664   1.066   1.975 -0.3427 -0.2703 -0.1304
 4039SOL    HW116154   1.584   1.098   1.932 -0.1874 -0.7853 -0.8135
 4039SOL    HW216155   1.647   0.973   1.990  0.9850 -0.9573 -2.3583
 4039SOL     MW16156   1.651   1.058   1.971 -0.1529 -0.4241 -0.5031
 4040SOL     OW16157   4.554   1.704   1.867 -0.7269 -0.2817  0.6291
 4040SOL    HW116158   4.613   1.702   1.942  0.0706 -1.8593  0.0099
 4040SOL    HW216159   4.521   1.794   1.865  2.0123  0.8240  0.7225
 4040SOL     MW16160   4.558   1.715   1.877 -0.2741 -0.3421  0.5618
 4041SOL     OW16161   2.873   3.614   0.397 -0.3825 -0.1913  0.0788
 4041SOL    HW116162   2.801   3.613   0.460 -1.2966 -0.6957 -0.9354
 4041SOL    HW216163   2.928   3.539   0.421  0.4459  0.8351  1.5320
 4041SOL     MW16164   2.871   3.604   0.408 -0.3935 -0.1245  0.1350
 4042SOL     OW16165   2.479   0.561   4.775  0.2516  0.0444  0.1797
 4042SOL    HW116166   2.448   0.599   4.857  1.2990  0.8887  0.2079
 4042SOL    HW216167   2.540   0.626   4.740 -0.2738 -0.2310 -1.3496
 4042SOL     MW16168   2.483   0.574   4.781  0.3184  0.1173 -0.0125
 4043SOL     OW16169   3.256   1.260   0.506  0.2077 -0.0530 -0.2002
 4043SOL    HW116170   3.247   1.166   0.495  1.3353 -0.4918  2.0254
 4043SOL    HW216171   3.301   1.289   0.426  0.0987 -1.4457 -0.7914
 4043SOL     MW16172   3.261   1.252   0.494  0.3381 -0.2875  0.0090
 4044SOL     OW16173   0.046   0.293   3.156  0.3104 -0.3176  0.0560
 4044SOL    HW116174   0.031   0.374   3.206  2.6053 -0.1028  0.5170
 4044SOL    HW216175  -0.000   0.225   3.205 -0.3601  0.4677  0.5316
 4044SOL     MW16176   0.039   0.295   3.169  0.5184 -0.1896  0.1759
 4045SOL     OW16177   5.148   1.647   4.535 -0.5254 -0.5573 -0.5504
 4045SOL    HW116178   5.126   1.620   4.624  1.8703  0.1076  0.3062
 4045SOL    HW216179   5.075   1.702   4.509 -1.5757 -1.2588  0.7423
 4045SOL     MW16180   5.136   1.650   4.543 -0.3531 -0.5620 -0.2752
 4046SOL     OW16181   4.954   0.500   5.191 -0.5528  0.0817  0.0618
 4046SOL    HW116182   4.894   0.440   5.146 -1.2635  0.8033  0.0154
 4046SOL    HW216183   5.030   0.447   5.212 -0.4293 -0.4043 -1.5148
 4046SOL     MW16184   4.956   0.486   5.188 -0.6280  0.1118 -0.1459
 4047SOL     OW16185   2.845   0.989   3.509 -0.3341  0.0522 -0.4119
 4047SOL    HW116186   2.904   0.995   3.433  0.3191  0.9709  0.1513
 4047SOL    HW216187   2.860   0.901   3.543  2.1427  0.8506  0.8098
 4047SOL     MW16188   2.854   0.979   3.503  0.0666  0.2720 -0.1834
 4048SOL     OW16189   5.094   3.643   0.680 -0.2961 -0.3651 -0.0595
 4048SOL    HW116190   5.130   3.589   0.610  0.5334 -1.8224  1.4332
 4048SOL    HW216191   5.029   3.587   0.724  1.8805 -0.9553  2.6692
 4048SOL     MW16192   5.090   3.629   0.677  0.0887 -0.6272  0.4809
 4049SOL     OW16193   0.766   0.539   4.312 -0.4928 -0.1134  0.0005
 4049SOL    HW116194   0.851   0.508   4.343 -0.9902  0.1378  1.7334
 4049SOL    HW216195   0.785   0.625   4.275  0.0483 -0.1204  0.2440
 4049SOL     MW16196   0.779   0.546   4.311 -0.4872 -0.0821  0.2535
 4050SOL     OW16197   2.613   2.444   5.368 -0.9714  0.4136 -0.0993
 4050SOL    HW116198   2.590   2.536   5.367  0.5507  0.8237 -0.2380
 4050SOL    HW216199   2.583   2.412   5.454 -0.7807  1.2357  0.2789
 4050SOL     MW16200   2.606   2.452   5.379 -0.7522  0.5714 -0.0686
 4051SOL     OW16201   3.085   2.862   3.371  0.5621  0.6346 -0.4543
 4051SOL    HW116202   3.045   2.832   3.452  2.6070 -0.9487  0.0273
 4051SOL    HW216203   3.145   2.793   3.346  1.5509  2.0321 -2.1983
 4051SOL     MW16204   3.087   2.850   3.378  0.9505  0.6108 -0.6159
 4052SOL     OW16205   3.395   3.919   4.358 -0.2168  0.2639  0.2837
 4052SOL    HW116206   3.431   3.847   4.410  0.5200  0.1889 -0.2975
 4052SOL    HW216207   3.300   3.912   4.369 -0.0745  0.5625  2.0002
 4052SOL     MW16208   3.388   3.909   4.366 -0.1042  0.2926  0.4290
 4053SOL     OW16209   4.684   4.212   1.853  0.2694 -0.8306 -0.0621
 4053SOL    HW116210   4.609   4.182   1.905  1.2365 -1.1206  1.2049
 4053SOL    HW216211   4.653   4.293   1.812  0.0880  0.5167  2.5500
 4053SOL     MW16212   4.670   4.218   1.854  0.3700 -0.6952  0.4345
 4054SOL     OW16213   5.277   3.393   4.988 -0.5249  0.0553 -0.5363
 4054SOL    HW116214   5.197   3.422   4.943 -1.8128  0.1141  1.6406
 4054SOL    HW216215   5.313   3.326   4.931 -2.5513 -0.5019 -1.2620
 4054SOL     MW16216   5.271   3.388   4.975 -0.9491 -0.0085 -0.3505
 4055SOL     OW16217   2.882   2.044   4.540  0.2930  0.2118  0.0209
 4055SOL    HW116218   2.871   1.969   4.597  2.4472 -0.1937 -0.0239
 4055SOL    HW216219   2.848   2.118   4.590  1.2713 -0.2824  1.4434
 4055SOL     MW16220   2.876   2.044   4.553  0.6940  0.0966  0.1973
 4056SOL     OW16221   1.134   2.257   3.026 -0.2025 -0.0384  0.0527
 4056SOL    HW116222   1.215   2.206   3.030 -0.5753 -0.7629 -1.0789
 4056SOL    HW216223   1.127   2.282   2.933 -0.5655  1.2081  0.3914
 4056SOL     MW16224   1.144   2.254   3.014 -0.2967  0.0285 -0.0488
 4057SOL     OW16225   2.414   1.468   2.117  0.6551  0.5350  0.0419
 4057SOL    HW116226   2.334   1.488   2.069 -0.7214  0.0995  2.0072
 4057SOL    HW216227   2.446   1.387   2.078 -0.7593 -0.1377  0.2261
 4057SOL     MW16228   2.408   1.460   2.106  0.2979  0.3931  0.3171
 4058SOL     OW16229   0.212   1.026   4.420  0.1898 -0.2224 -0.7265
 4058SOL    HW116230   0.211   1.121   4.408 -0.5086  0.0126  0.9434
 4058SOL    HW216231   0.162   0.992   4.346 -0.0605  0.7449 -1.0151
 4058SOL     MW16232   0.206   1.034   4.409  0.0683 -0.0685 -0.5497
 4059SOL     OW16233   0.176   0.899   1.433 -0.2859  0.0930 -0.2881
 4059SOL    HW116234   0.203   0.844   1.360 -0.5570 -2.1171  1.1617
 4059SOL    HW216235   0.122   0.967   1.394 -1.0920 -1.4850 -2.0575
 4059SOL     MW16236   0.173   0.900   1.419 -0.4238 -0.3920 -0.3290
 4060SOL     OW16237   1.523   4.068   4.666  0.6901  0.3389 -0.5247
 4060SOL    HW116238   1.436   4.094   4.636  0.2081 -1.7201 -1.0663
 4060SOL    HW216239   1.528   4.102   4.755  0.6167  3.1887 -1.5011
 4060SOL     MW16240   1.512   4.076   4.673  0.6190  0.4401 -0.7190
 4061SOL     OW16241   4.756   5.122   3.240 -0.0442 -0.0907 -0.4697
 4061SOL    HW116242   4.779   5.164   3.323  1.1953  2.3221 -1.9193
 4061SOL    HW216243   4.694   5.182   3.199 -0.2476 -0.9788 -1.5148
 4061SOL     MW16244   4.751   5.135   3.245  0.0885  0.1045 -0.7891
 4062SOL     OW16245   3.774   1.216   4.763 -0.2214 -0.1475 -0.5987
 4062SOL    HW116246   3.738   1.205   4.851  0.6570  0.0490 -0.1981
 4062SOL    HW216247   3.737   1.143   4.713 -0.1923 -0.6718  0.1173
 4062SOL     MW16248   3.765   1.205   4.768 -0.1052 -0.1894 -0.4558
 4063SOL     OW16249   3.209   5.138   2.194 -0.5545  0.1128  0.4651
 4063SOL    HW116250   3.301   5.148   2.219 -0.9039  0.0901  1.8328
 4063SOL    HW216251   3.173   5.076   2.258 -1.8721  1.2520  0.8712
 4063SOL     MW16252   3.216   5.131   2.205 -0.7679  0.2557  0.6921
 4064SOL     OW16253   2.670   4.100   1.828  0.3597 -0.0643 -0.1301
 4064SOL    HW116254   2.706   4.013   1.808 -0.1615 -0.1492 -0.7352
 4064SOL    HW216255   2.578   4.095   1.802  0.3188  0.6681 -0.1564
 4064SOL     MW16256   2.663   4.088   1.822  0.2877  0.0186 -0.2109
 4065SOL     OW16257   3.425   0.047   1.611 -0.4086  0.3624  0.1202
 4065SOL    HW116258   3.459   0.049   1.522 -1.5141 -0.2717 -0.3343
 4065SOL    HW216259   3.365   0.121   1.616 -2.0951 -0.8835 -0.4315
 4065SOL     MW16260   3.422   0.057   1.600 -0.7660  0.1217 -0.0086
 4066SOL     OW16261   0.601   4.771   0.053  0.0076  0.1349 -0.1749
 4066SOL    HW116262   0.512   4.735   0.052 -0.4485  1.2293 -0.8213
 4066SOL    HW216263   0.646   4.720   0.120 -0.9510 -0.8001 -0.2045
 4066SOL     MW16264   0.595   4.760   0.062 -0.1735  0.1553 -0.2615
 4067SOL     OW16265   3.612   0.103   4.579  0.8557 -0.0940  0.0963
 4067SOL    HW116266   3.668   0.158   4.633  0.2990  1.4000 -0.7756
 4067SOL    HW216267   3.615   0.143   4.492 -1.5123  0.0615  0.0042
 4067SOL     MW16268   3.619   0.115   4.575  0.4813  0.1172 -0.0271
 4068SOL     OW16269   1.112   4.798   1.800  0.5552  0.0631  0.2305
 4068SOL    HW116270   1.079   4.888   1.792 -1.0361 -0.5343 -0.1675
 4068SOL    HW216271   1.157   4.797   1.885 -1.0187  0.7575  1.1155
 4068SOL     MW16272   1.114   4.810   1.810  0.1500  0.0755  0.2928
 4069SOL     OW16273   0.322   0.594   4.002  0.4823 -0.1720 -0.0576
 4069SOL    HW116274   0.233   0.589   4.036  0.8746 -1.0607  0.8938
 4069SOL    HW216275   0.371   0.531   4.054  1.4132 -0.5922 -1.3910
 4069SOL     MW16276   0.317   0.585   4.013  0.6517 -0.3396 -0.1065
 4070SOL     OW16277   0.044   3.142   2.304 -0.0944  0.3838 -0.3022
 4070SOL    HW116278   0.102   3.166   2.376  0.3809  0.4044 -0.6815
 4070SOL    HW216279   0.057   3.212   2.239 -2.4646  1.8136  0.6237
 4070SOL     MW16280   0.053   3.154   2.305 -0.3370  0.5694 -0.2323
 4071SOL     OW16281   2.805   2.500   3.096  0.2985 -0.1065  1.0320
 4071SOL    HW116282   2.766   2.540   3.174 -1.2244 -0.8547  0.6722
 4071SOL    HW216283   2.784   2.407   3.104  1.0452 -0.3489  0.2466
 4071SOL     MW16284   2.798   2.493   3.107  0.1992 -0.2333  0.8854
 4072SOL     OW16285   3.590   4.605   1.729 -0.8957 -0.0204  0.2352
 4072SOL    HW116286   3.535   4.573   1.657 -1.4548  0.0695  0.6119
 4072SOL    HW216287   3.642   4.529   1.755 -1.4708 -0.3480  0.4432
 4072SOL     MW16288   3.589   4.591   1.723 -1.0409 -0.0508  0.3100
 4073SOL     OW16289   3.849   1.564   1.442 -0.6746  0.1860 -0.4247
 4073SOL    HW116290   3.934   1.585   1.404 -0.4655  0.1095 -0.0034
 4073SOL    HW216291   3.826   1.478   1.405 -1.7024  1.2743 -2.4395
 4073SOL     MW16292   3.857   1.555   1.433 -0.7794  0.3155 -0.6287
 4074SOL     OW16293   1.254   4.309   4.850  0.1577 -0.3758  0.0277
 4074SOL    HW116294   1.259   4.379   4.785 -0.4984  0.3117  0.6915
 4074SOL    HW216295   1.167   4.271   4.838  0.8255 -1.6858 -0.9090
 4074SOL     MW16296   1.244   4.313   4.840  0.1592 -0.4555 -0.0072
 4075SOL     OW16297   2.524   2.713   3.743  0.3663 -0.0724  0.3795
 4075SOL    HW116298   2.593   2.743   3.684  0.2550  0.0126  0.2931
 4075SOL    HW216299   2.443   2.744   3.704  0.4149  1.8719  1.6754
 4075SOL     MW16300   2.522   2.720   3.731  0.3583  0.1874  0.5343
 4076SOL     OW16301   2.371   4.785   2.198  0.4438 -0.2701  0.3567
 4076SOL    HW116302   2.306   4.823   2.256 -0.5760  1.7170 -1.9193
 4076SOL    HW216303   2.453   4.831   2.220 -0.1114  1.0724 -0.2632
 4076SOL     MW16304   2.373   4.796   2.208  0.2422  0.1561 -0.0140
 4077SOL     OW16305   3.923   2.541   1.400 -0.0473  0.4665 -0.0866
 4077SOL    HW116306   3.833   2.564   1.419  0.0684  1.3841 -0.6190
 4077SOL    HW216307   3.941   2.465   1.457 -0.7545  1.0377  0.9300
 4077SOL     MW16308   3.914   2.534   1.410 -0.1230  0.6571 -0.0246
 4078SOL     OW16309   0.445   1.302   5.382 -0.3733 -0.4622 -0.8252
 4078SOL    HW116310   0.488   1.260   5.457 -0.1424 -0.1095 -0.7570
 4078SOL    HW216311   0.391   1.371   5.421  0.6398  0.4874 -1.0486
 4078SOL     MW16312   0.444   1.306   5.397 -0.2140 -0.2955 -0.8451
 4079SOL     OW16313   3.958   0.095   0.707  0.8229 -0.4252 -0.1784
 4079SOL    HW116314   4.027   0.086   0.642  0.2090 -3.2148 -0.5517
 4079SOL    HW216315   3.895   0.155   0.667  2.3854  1.2367 -0.3144
 4079SOL     MW16316   3.959   0.102   0.694  0.9443 -0.5696 -0.2436
 4080SOL     OW16317   0.607   3.571   1.159  0.0468 -0.2681 -0.2140
 4080SOL    HW116318   0.700   3.589   1.150  0.0592 -0.5414 -0.6968
 4080SOL    HW216319   0.580   3.541   1.072 -0.7785  1.0928 -0.4470
 4080SOL     MW16320   0.615   3.569   1.147 -0.0572 -0.1289 -0.3056
 4081SOL     OW16321   0.845   4.750   2.215  0.4222 -0.2418  0.5042
 4081SOL    HW116322   0.851   4.795   2.130  0.8600 -1.7757 -0.3254
 4081SOL    HW216323   0.755   4.719   2.219  0.0191  0.9551  1.2377
 4081SOL     MW16324   0.834   4.752   2.205  0.4266 -0.2849  0.4919
 4082SOL     OW16325   3.249   1.644   5.382 -0.2192 -0.5883  0.8004
 4082SOL    HW116326   3.229   1.631   5.289  1.0074  0.6913  0.3253
 4082SOL    HW216327   3.262   1.739   5.391 -1.7062 -0.4936  2.5801
 4082SOL     MW16328   3.248   1.655   5.371 -0.2525 -0.4124  0.9674
 4083SOL     OW16329   2.023   3.917   0.676 -0.4812  1.0902  0.3539
 4083SOL    HW116330   2.067   3.879   0.752 -0.2738  0.0847 -0.2496
 4083SOL    HW216331   1.940   3.950   0.710  0.4025  2.3776  1.3722
 4083SOL     MW16332   2.018   3.916   0.690 -0.3415  1.1263  0.4070
 4084SOL     OW16333   4.544   2.710   3.065  0.5866 -0.6861 -0.6302
 4084SOL    HW116334   4.626   2.674   3.030  0.4360  1.6380 -3.8405
 4084SOL    HW216335   4.572   2.780   3.124  0.8470 -2.2521  1.1744
 4084SOL     MW16336   4.558   2.714   3.068  0.6006 -0.5891 -0.8101
 4085SOL     OW16337   0.812   3.897   4.561 -0.1308 -1.1068 -0.0324
 4085SOL    HW116338   0.725   3.900   4.521 -0.7580 -0.1658  1.3027
 4085SOL    HW216339   0.863   3.961   4.512 -1.1387  0.6816  1.1325
 4085SOL     MW16340   0.807   3.906   4.550 -0.3401 -0.7574  0.2877
 4086SOL     OW16341   0.012   0.201   0.707 -0.0557  0.4163  0.5213
 4086SOL    HW116342  -0.007   0.288   0.743  0.5932  0.9647 -0.4031
 4086SOL    HW216343   0.086   0.216   0.648  0.4776 -0.8924  0.8446
 4086SOL     MW16344   0.019   0.214   0.704  0.0956  0.3190  0.4443
 4087SOL     OW16345   1.868   5.348   3.978 -0.0554  0.6071 -0.1219
 4087SOL    HW116346   1.908   5.324   4.062 -0.3929  0.6219  0.0475
 4087SOL    HW216347   1.940   5.383   3.926 -0.0015  1.3926  0.4670
 4087SOL     MW16348   1.882   5.349   3.982 -0.0917  0.7096 -0.0248
 4088SOL     OW16349   5.280   3.448   3.439  0.7408  0.3256 -0.3011
 4088SOL    HW116350   5.325   3.500   3.506 -2.0771 -0.4856  2.4806
 4088SOL    HW216351   5.318   3.361   3.448  0.3783  0.2194  0.3037
 4088SOL     MW16352   5.290   3.444   3.449  0.3337  0.2082  0.1324
 4089SOL     OW16353   3.269   2.551   3.587 -0.6691  0.2588  0.9752
 4089SOL    HW116354   3.182   2.541   3.546 -1.0270  0.5618  1.6469
 4089SOL    HW216355   3.271   2.642   3.616  0.1377  0.4358  0.3863
 4089SOL     MW16356   3.258   2.561   3.585 -0.6117  0.3203  0.9858
 4090SOL     OW16357   1.533   4.082   0.162 -0.2424 -0.7255 -0.0402
 4090SOL    HW116358   1.623   4.055   0.177 -0.2291 -0.6189  0.0695
 4090SOL    HW216359   1.507   4.036   0.083 -0.2299 -1.0958  0.1670
 4090SOL     MW16360   1.541   4.072   0.154 -0.2391 -0.7593  0.0003
 4091SOL     OW16361   2.678   3.610   5.257 -0.0312  0.2176  1.4233
 4091SOL    HW116362   2.736   3.541   5.222 -1.6535 -0.3069 -0.3811
 4091SOL    HW216363   2.622   3.564   5.320  0.5008  0.4190  2.0539
 4091SOL     MW16364   2.678   3.595   5.260 -0.1707  0.1762  1.2730
 4092SOL     OW16365   1.209   0.186   0.085  0.1084  0.0567 -0.0524
 4092SOL    HW116366   1.176   0.096   0.093  0.8638 -0.0677  2.4233
 4092SOL    HW216367   1.299   0.176   0.054  0.6079 -0.1668  1.3916
 4092SOL     MW16368   1.216   0.173   0.082  0.2691  0.0121  0.4493
 4093SOL     OW16369   0.104   1.909   2.210  0.1911  0.3829 -0.3105
 4093SOL    HW116370   0.042   1.975   2.179 -0.7039 -0.6120 -0.6855
 4093SOL    HW216371   0.178   1.916   2.150 -0.6327 -0.1025 -1.4166
 4093SOL     MW16372   0.105   1.918   2.198 -0.0289  0.1934 -0.5001
 4094SOL     OW16373   0.884   4.122   1.777  0.4913 -0.1668 -0.2873
 4094SOL    HW116374   0.910   4.044   1.729  2.3737 -0.6325  1.3297
 4094SOL    HW216375   0.790   4.111   1.793  0.7485 -2.1851  0.0217
 4094SOL     MW16376   0.875   4.111   1.773  0.7652 -0.4848 -0.0407
 4095SOL     OW16377   3.152   2.606   4.631  0.2282 -0.1843  0.3345
 4095SOL    HW116378   3.182   2.677   4.687  0.3028 -0.0883  0.1730
 4095SOL    HW216379   3.073   2.639   4.589  0.6891  0.0917 -0.3301
 4095SOL     MW16380   3.146   2.619   4.633  0.2967 -0.1367  0.2288
 4096SOL     OW16381   3.097   3.518   2.803 -0.3174  0.0028  0.1964
 4096SOL    HW116382   3.168   3.472   2.847  0.1024  1.3540  0.9652
 4096SOL    HW216383   3.088   3.601   2.850  0.9514  2.1026 -2.8786
 4096SOL     MW16384   3.105   3.523   2.815 -0.1012  0.4446 -0.0988
 4097SOL     OW16385   1.793   3.201   3.743 -0.2207 -0.4061  0.0984
 4097SOL    HW116386   1.881   3.176   3.768  0.3683  1.1941 -0.2853
 4097SOL    HW216387   1.752   3.119   3.714  0.4985 -1.5085  2.0149
 4097SOL     MW16388   1.799   3.187   3.742 -0.0533 -0.3424  0.2946
 4098SOL     OW16389  -0.014   1.209   1.008 -0.6977 -0.4803 -0.3502
 4098SOL    HW116390  -0.029   1.294   0.967 -0.5123  0.2122  0.9428
 4098SOL    HW216391   0.079   1.211   1.033 -0.8905 -0.7218  0.4146
 4098SOL     MW16392  -0.004   1.220   1.006 -0.6987 -0.4226 -0.0868
 4099SOL     OW16393   5.220   0.480   1.440  0.2930 -0.3799  0.1621
 4099SOL    HW116394   5.132   0.495   1.405  0.7602 -1.5406 -1.6691
 4099SOL    HW216395   5.205   0.442   1.526 -0.9829  0.1518  0.1935
 4099SOL     MW16396   5.207   0.477   1.446  0.1895 -0.4604 -0.0683
 4100SOL     OW16397   3.218   4.278   2.356 -0.4703  0.4268  0.2521
 4100SOL    HW116398   3.229   4.223   2.433  1.6731 -0.0755 -0.3607
 4100SOL    HW216399   3.273   4.355   2.373  0.7627 -0.1024 -1.1062
 4100SOL     MW16400   3.226   4.281   2.368 -0.0381  0.2948 -0.0002
 4101SOL     OW16401   4.117   2.662   2.838  0.3138 -0.0496  0.4098
 4101SOL    HW116402   4.050   2.608   2.797  1.8838 -2.1787  0.5060
 4101SOL    HW216403   4.092   2.752   2.816 -1.2345 -0.8991 -1.5621
 4101SOL     MW16404   4.105   2.667   2.830  0.3166 -0.4309  0.1697
 4102SOL     OW16405   2.948   0.865   2.801  0.0423  0.0463 -0.3324
 4102SOL    HW116406   2.954   0.900   2.712  1.7784  0.9325  0.0901
 4102SOL    HW216407   2.876   0.913   2.841 -0.1807  0.2750 -1.0036
 4102SOL     MW16408   2.940   0.876   2.795  0.2360  0.1890 -0.3642
 4103SOL     OW16409   0.182   3.587   3.550 -0.1542 -0.2100 -0.8558
 4103SOL    HW116410   0.262   3.609   3.597 -0.3372 -1.3592  0.0307
 4103SOL    HW216411   0.193   3.628   3.464  0.6523  1.0212 -0.1948
 4103SOL     MW16412   0.194   3.595   3.545 -0.0744 -0.1995 -0.6577
 4104SOL     OW16413   3.331   0.728   3.613 -0.2218 -0.2958  0.2260
 4104SOL    HW116414   3.301   0.638   3.603  0.1396 -0.3237 -0.8207
 4104SOL    HW216415   3.348   0.757   3.523  1.2648  0.2671  0.6590
 4104SOL     MW16416   3.329   0.720   3.600  0.0148 -0.2273  0.1474
 4105SOL     OW16417   2.862   2.301   3.578  0.0105  0.3546 -0.1408
 4105SOL    HW116418   2.828   2.309   3.667  1.3507 -0.4576  0.4811
 4105SOL    HW216419   2.785   2.284   3.524 -0.7190 -0.0409  0.9921
 4105SOL     MW16420   2.848   2.300   3.583  0.0887  0.2000  0.0838
 4106SOL     OW16421   1.545   3.383   1.458  0.1147 -0.1617  0.2260
 4106SOL    HW116422   1.507   3.297   1.472  2.5882 -1.3538  0.2441
 4106SOL    HW216423   1.517   3.434   1.534 -2.5843 -0.4201 -0.5002
 4106SOL     MW16424   1.537   3.378   1.470  0.0858 -0.3474  0.1354
 4107SOL     OW16425   0.542   4.499   5.345  0.5491  0.0800 -0.0290
 4107SOL    HW116426   0.448   4.502   5.362 -0.1926 -0.5005 -3.2547
 4107SOL    HW216427   0.561   4.581   5.299  1.3171 -0.3869 -0.5764
 4107SOL     MW16428   0.533   4.510   5.341  0.5524 -0.0541 -0.5120
 4108SOL     OW16429   4.750   0.697   4.842 -0.1950 -0.4173 -0.6278
 4108SOL    HW116430   4.809   0.759   4.885  1.2542 -1.3284 -1.2209
 4108SOL    HW216431   4.718   0.744   4.764  0.7199 -0.3296 -0.9590
 4108SOL     MW16432   4.753   0.711   4.837  0.1077 -0.5227 -0.7462
 4109SOL     OW16433   1.395   3.383   0.840  0.4400 -0.0926 -0.2072
 4109SOL    HW116434   1.311   3.368   0.883  0.1476  2.0779  0.0977
 4109SOL    HW216435   1.379   3.362   0.748 -1.1677  2.4017 -0.5908
 4109SOL     MW16436   1.382   3.378   0.834  0.1967  0.5045 -0.2173
 4110SOL     OW16437   4.416   0.873   2.157 -0.2281 -0.3430  0.0078
 4110SOL    HW116438   4.432   0.923   2.237  0.4429 -0.8194  0.1856
 4110SOL    HW216439   4.402   0.939   2.089 -0.0769  0.0733  0.3785
 4110SOL     MW16440   4.416   0.888   2.158 -0.1228 -0.3507  0.0780
 4111SOL     OW16441   0.257   4.914   1.126  1.1868 -0.4474 -0.1639
 4111SOL    HW116442   0.172   4.910   1.082  1.7974  1.0786 -1.5571
 4111SOL    HW216443   0.236   4.939   1.216  0.1532 -0.1708 -0.4633
 4111SOL     MW16444   0.243   4.916   1.131  1.1327 -0.2167 -0.3806
 4112SOL     OW16445   2.914   4.364   0.259  0.3399 -0.1605 -0.4586
 4112SOL    HW116446   2.921   4.395   0.349  1.9270 -1.3259 -0.1369
 4112SOL    HW216447   2.936   4.440   0.205 -0.4937  0.5082  0.1369
 4112SOL     MW16448   2.918   4.378   0.264  0.4363 -0.2241 -0.3412
 4113SOL     OW16449   2.210   4.819   5.325 -0.5050  0.5724 -0.2547
 4113SOL    HW116450   2.277   4.800   5.391 -0.2635  0.9664 -0.3834
 4113SOL    HW216451   2.258   4.828   5.243 -0.9843 -1.6191 -0.8282
 4113SOL     MW16452   2.225   4.818   5.323 -0.5354  0.3423 -0.3446
 4114SOL     OW16453   3.476   1.163   2.283  0.1151 -0.2218 -0.8979
 4114SOL    HW116454   3.496   1.219   2.209  0.8254 -0.4786 -0.9101
 4114SOL    HW216455   3.469   1.224   2.357 -1.9359  0.1882 -1.3837
 4114SOL     MW16456   3.478   1.178   2.283 -0.0565 -0.2022 -0.9617
 4115SOL     OW16457   4.749   3.747   2.864  0.2711  0.3500 -0.0016
 4115SOL    HW116458   4.655   3.761   2.872  0.1404 -0.7237  0.5398
 4115SOL    HW216459   4.788   3.823   2.905 -0.3400  1.2844 -1.1002
 4115SOL     MW16460   4.742   3.758   2.870  0.1761  0.3322 -0.0729
 4116SOL     OW16461   3.763   2.694   2.570  0.0419 -0.5323 -0.2376
 4116SOL    HW116462   3.717   2.715   2.651 -1.2010 -0.3487 -0.9671
 4116SOL    HW216463   3.826   2.627   2.595 -0.3132 -0.4717  0.8805
 4116SOL     MW16464   3.765   2.688   2.583 -0.1626 -0.5011 -0.1878
 4117SOL     OW16465   1.362   1.990   4.792  0.5593 -0.0231  0.4001
 4117SOL    HW116466   1.281   2.029   4.760 -0.2026 -1.7868  0.0053
 4117SOL    HW216467   1.387   1.928   4.723  1.9409  0.0946  0.7741
 4117SOL     MW16468   1.355   1.987   4.779  0.6386 -0.2338  0.3974
 4118SOL     OW16469   1.790   2.343   2.864 -0.0679 -0.4899 -0.2245
 4118SOL    HW116470   1.783   2.250   2.846  0.8207 -0.0670 -3.1724
 4118SOL    HW216471   1.758   2.352   2.954  1.2382 -3.7921  0.7127
 4118SOL     MW16472   1.785   2.333   2.873  0.2130 -0.8585 -0.4819
 4119SOL     OW16473   0.987   0.383   0.685  0.3829  0.2117  0.2893
 4119SOL    HW116474   0.956   0.466   0.721  0.3280 -0.2256  1.3081
 4119SOL    HW216475   0.986   0.323   0.760 -3.3527 -1.8307 -1.1030
 4119SOL     MW16476   0.983   0.386   0.700 -0.1023 -0.1057  0.2415
 4120SOL     OW16477   1.967   3.253   5.435  0.5694  0.1159 -0.2826
 4120SOL    HW116478   1.959   3.178   5.376 -2.5160 -1.5001  1.9208
 4120SOL    HW216479   1.917   3.323   5.394 -1.1708 -0.8543  0.1135
 4120SOL     MW16480   1.960   3.253   5.423 -0.0483 -0.2152  0.0501
 4121SOL     OW16481   2.249   0.110   0.053  0.3402  0.4611 -0.0498
 4121SOL    HW116482   2.341   0.130   0.071 -0.0973  1.6950  0.9946
 4121SOL    HW216483   2.203   0.193   0.065 -1.0551 -0.3437  0.5350
 4121SOL     MW16484   2.255   0.123   0.057  0.1056  0.5160  0.1588
 4122SOL     OW16485   0.760   3.217   3.115 -0.4746 -0.2171 -0.2569
 4122SOL    HW116486   0.788   3.126   3.126  1.5929  0.3840 -0.2404
 4122SOL    HW216487   0.834   3.261   3.073 -1.3891  1.4968 -0.1874
 4122SOL     MW16488   0.773   3.211   3.111 -0.3270  0.0793 -0.2459
 4123SOL     OW16489   4.125   0.067   1.385  0.0383 -0.2518  0.2789
 4123SOL    HW116490   4.118  -0.022   1.417  1.0111  0.0516  1.3997
 4123SOL    HW216491   4.188   0.062   1.313 -0.4024 -0.5547 -0.0965
 4123SOL     MW16492   4.132   0.055   1.380  0.1064 -0.2518  0.3743
 4124SOL     OW16493   1.499   4.977   2.542 -0.2024 -0.5226 -0.5246
 4124SOL    HW116494   1.484   5.072   2.544  1.1988 -0.2979 -0.2032
 4124SOL    HW216495   1.570   4.962   2.603 -0.8049 -1.8789 -0.1253
 4124SOL     MW16496   1.506   4.987   2.550 -0.1001 -0.6675 -0.4324
 4125SOL     OW16497   4.266   0.958   0.709 -0.0157 -0.1291 -0.5608
 4125SOL    HW116498   4.316   1.005   0.642 -0.0979 -0.4551 -0.8492
 4125SOL    HW216499   4.184   0.934   0.665 -0.3225  0.1888 -0.1636
 4125SOL     MW16500   4.262   0.961   0.695 -0.0655 -0.1301 -0.5469
 4126SOL     OW16501   5.192   0.222   4.996 -0.2326 -0.2551 -0.3307
 4126SOL    HW116502   5.112   0.171   5.009  0.9022 -1.8712  0.7676
 4126SOL    HW216503   5.205   0.221   4.901 -1.9590  0.8294 -0.6268
 4126SOL     MW16504   5.183   0.215   4.986 -0.3083 -0.3231 -0.2280
 4127SOL     OW16505   3.576   2.794   3.984  0.1015 -0.4341 -0.0987
 4127SOL    HW116506   3.496   2.746   4.001  0.9016 -1.5721  0.5709
 4127SOL    HW216507   3.557   2.884   4.010 -0.7847 -0.8045  0.5445
 4127SOL     MW16508   3.564   2.799   3.989  0.0905 -0.6272  0.0694
 4128SOL     OW16509   2.750   5.015   4.770  0.5514 -0.4728 -0.0925
 4128SOL    HW116510   2.707   5.095   4.799  0.5673 -0.3002 -0.5234
 4128SOL    HW216511   2.739   4.954   4.842  1.3749  0.2216  0.6425
 4128SOL     MW16512   2.743   5.018   4.783  0.6589 -0.3618 -0.0536
 4129SOL     OW16513   2.039   4.477   4.138 -0.1405 -0.6120 -0.2692
 4129SOL    HW116514   2.033   4.504   4.230  0.6209 -0.2680 -0.3100
 4129SOL    HW216515   1.966   4.522   4.095 -0.3997 -0.6427  0.1324
 4129SOL     MW16516   2.029   4.486   4.144 -0.0762 -0.5719 -0.2230
 4130SOL     OW16517   5.060   4.976   5.226  0.1115 -0.1177  0.2154
 4130SOL    HW116518   5.078   4.884   5.205 -1.1117 -0.1868 -0.6318
 4130SOL    HW216519   5.070   5.022   5.143  0.0675  0.4096  0.5014
 4130SOL     MW16520   5.063   4.970   5.213 -0.0507 -0.0590  0.1436
 4131SOL     OW16521   0.440   2.796   3.404 -0.4359  0.2257 -0.0695
 4131SOL    HW116522   0.391   2.715   3.391 -0.4730  0.2431 -0.0374
 4131SOL    HW216523   0.518   2.770   3.453 -0.4346  0.2054 -0.0826
 4131SOL     MW16524   0.444   2.783   3.409 -0.4405  0.2253 -0.0671
 4132SOL     OW16525   3.472   3.623   1.702 -0.0687  0.0127 -0.4846
 4132SOL    HW116526   3.496   3.715   1.710  0.6383 -0.0040 -2.2053
 4132SOL    HW216527   3.549   3.580   1.666 -1.0312 -0.9010 -1.5404
 4132SOL     MW16528   3.485   3.629   1.699 -0.1014 -0.1064 -0.8400
 4133SOL     OW16529   1.584   0.840   2.330 -0.3854  0.2482 -0.7608
 4133SOL    HW116530   1.663   0.813   2.284  0.3927  2.0700 -0.5955
 4133SOL    HW216531   1.571   0.931   2.304 -2.3796  0.0295 -0.6779
 4133SOL     MW16532   1.593   0.848   2.321 -0.5410  0.4535 -0.7290
 4134SOL     OW16533   0.684   0.347   2.225  0.1406 -0.4937 -0.6576
 4134SOL    HW116534   0.620   0.280   2.202 -0.5913  0.7709 -2.5997
 4134SOL    HW216535   0.632   0.427   2.237  1.2759  0.4903 -1.9572
 4134SOL     MW16536   0.669   0.349   2.223  0.1923 -0.2059 -1.0726
 4135SOL     OW16537   4.519   2.281   2.741 -0.1535  0.4929  0.3566
 4135SOL    HW116538   4.434   2.318   2.763 -0.2628  0.7394 -0.4540
 4135SOL    HW216539   4.572   2.295   2.820 -1.2189 -0.8383  1.3550
 4135SOL     MW16540   4.515   2.288   2.754 -0.3038  0.3541  0.3806
 4136SOL     OW16541   3.338   4.316   4.842 -0.2194 -0.2324 -0.4039
 4136SOL    HW116542   3.286   4.397   4.843  0.0620 -0.0340  1.4235
 4136SOL    HW216543   3.294   4.260   4.778 -1.6970  0.5624 -0.1316
 4136SOL     MW16544   3.326   4.319   4.834 -0.3725 -0.1052 -0.1351
 4137SOL     OW16545   0.256   4.290   0.925 -0.2737  0.0726  0.2727
 4137SOL    HW116546   0.342   4.314   0.958  0.5347 -0.1883 -1.5236
 4137SOL    HW216547   0.262   4.304   0.830 -2.4569  0.8067  0.1777
 4137SOL     MW16548   0.268   4.295   0.917 -0.4497  0.1332  0.0306
 4138SOL     OW16549   3.716   0.399   3.561  0.1460 -0.1671 -0.1530
 4138SOL    HW116550   3.693   0.491   3.575  1.2199  0.3208 -1.4248
 4138SOL    HW216551   3.724   0.391   3.466  0.5897 -1.4600 -0.0215
 4138SOL     MW16552   3.714   0.410   3.550  0.3402 -0.2701 -0.2990
 4139SOL     OW16553   2.581   0.663   2.705 -0.0383  0.0212  0.1985
 4139SOL    HW116554   2.507   0.723   2.718 -1.4977 -1.9188  1.4942
 4139SOL    HW216555   2.566   0.627   2.617  0.5416  1.1046 -0.3637
 4139SOL     MW16556   2.569   0.666   2.695 -0.1509 -0.0885  0.2924
 4140SOL     OW16557   1.988   4.218   2.049 -0.0272 -0.7644  0.1790
 4140SOL    HW116558   1.982   4.128   2.081 -1.1084 -0.7188  0.1343
 4140SOL    HW216559   1.978   4.272   2.127 -0.8425 -0.6773  0.0272
 4140SOL     MW16560   1.986   4.213   2.063 -0.2700 -0.7474  0.1538
 4141SOL     OW16561   3.119   0.627   5.315  0.0420  0.6828  0.2687
 4141SOL    HW116562   3.028   0.621   5.286 -0.1825 -0.7326  1.1673
 4141SOL    HW216563   3.169   0.577   5.251 -0.1245 -0.3741  0.9427
 4141SOL     MW16564   3.114   0.620   5.303 -0.0081  0.3663  0.4700
 4142SOL     OW16565   5.227   1.068   1.236  0.1130  0.7755  0.3504
 4142SOL    HW116566   5.228   0.987   1.288  0.6764  0.5152 -0.0689
 4142SOL    HW216567   5.247   1.040   1.147 -4.4382  0.6414 -0.8886
 4142SOL     MW16568   5.229   1.054   1.231 -0.3975  0.7250  0.1381
 4143SOL     OW16569   3.396   4.355   5.337  0.3445  0.2816 -0.0896
 4143SOL    HW116570   3.491   4.356   5.329  0.4126  1.6687  0.4831
 4143SOL    HW216571   3.380   4.327   5.427  0.2150  0.0509 -0.1849
 4143SOL     MW16572   3.406   4.352   5.347  0.3366  0.4297 -0.0285
 4144SOL     OW16573   0.519   2.386   1.883 -0.2213 -0.4829  0.2730
 4144SOL    HW116574   0.563   2.368   1.966 -1.3401  0.1509  1.0259
 4144SOL    HW216575   0.515   2.481   1.878 -0.3822 -0.5212 -0.3928
 4144SOL     MW16576   0.524   2.395   1.893 -0.3851 -0.4067  0.2842
 4145SOL     OW16577   3.065   5.444   3.120  0.4813  0.0837  0.5379
 4145SOL    HW116578   3.055   5.530   3.160 -0.5892 -0.0550  0.5881
 4145SOL    HW216579   2.980   5.426   3.078  1.3290 -0.0621 -1.2299
 4145SOL     MW16580   3.053   5.453   3.120  0.4527  0.0473  0.3180
 4146SOL     OW16581   3.852   2.268   1.375 -0.2734 -0.5524 -0.5037
 4146SOL    HW116582   3.891   2.184   1.352 -1.3032 -1.0374 -0.5093
 4146SOL    HW216583   3.814   2.254   1.462  0.5193  0.2431 -0.0097
 4146SOL     MW16584   3.853   2.256   1.384 -0.3037 -0.5127 -0.4412
 4147SOL     OW16585   1.290   1.347   1.215 -0.5573  0.3479  0.7229
 4147SOL    HW116586   1.382   1.339   1.187 -0.8625  2.8368 -1.3742
 4147SOL    HW216587   1.240   1.318   1.139 -1.4417  3.1251  0.1498
 4147SOL     MW16588   1.296   1.342   1.202 -0.7096  1.0221  0.3811
 4148SOL     OW16589   2.992   0.292   0.577  0.3505 -0.4653 -0.2078
 4148SOL    HW116590   2.977   0.265   0.668  0.8359  0.5753  0.2004
 4148SOL    HW216591   3.086   0.304   0.571  0.2505  0.1898 -0.6251
 4148SOL     MW16592   3.002   0.290   0.588  0.3999 -0.2482 -0.2089
 4149SOL     OW16593   4.675   1.058   2.307 -0.3024  0.9222  0.0744
 4149SOL    HW116594   4.597   1.031   2.355 -0.4030  2.6769  0.9887
 4149SOL    HW216595   4.641   1.114   2.237 -0.0212 -0.2334 -1.0072
 4149SOL     MW16596   4.660   1.062   2.304 -0.2793  0.9989  0.0530
 4150SOL     OW16597   4.725   2.339   2.520  0.3362  0.1710 -0.6940
 4150SOL    HW116598   4.669   2.393   2.463 -0.2828 -1.1538 -1.4155
 4150SOL    HW216599   4.664   2.275   2.558  1.1009 -0.2452 -0.1625
 4150SOL     MW16600   4.710   2.338   2.517  0.3548 -0.0519 -0.7183
 4151SOL     OW16601   4.815   3.254   2.714 -0.3201 -0.4421  0.0372
 4151SOL    HW116602   4.843   3.341   2.740  0.0044 -0.4132 -0.3929
 4151SOL    HW216603   4.723   3.249   2.739 -0.7881  0.6064 -1.3470
 4151SOL     MW16604   4.807   3.264   2.720 -0.3384 -0.3042 -0.1951
 4152SOL     OW16605   0.557   2.107   5.127 -0.1617  0.3373 -0.2310
 4152SOL    HW116606   0.592   2.047   5.061  0.9181  2.1702 -1.4112
 4152SOL    HW216607   0.634   2.150   5.165 -0.9013  1.1742  0.3921
 4152SOL     MW16608   0.571   2.105   5.124 -0.1182  0.6791 -0.3023
 4153SOL     OW16609   3.385   5.178   0.559  0.3702  0.7560 -0.2936
 4153SOL    HW116610   3.307   5.219   0.596 -0.4578  0.6313 -1.8258
 4153SOL    HW216611   3.422   5.127   0.632 -0.8135  1.0373  0.5357
 4153SOL     MW16612   3.379   5.176   0.573  0.1126  0.7760 -0.3836
 4154SOL     OW16613   2.713   1.279   3.949 -0.4824 -0.7508 -0.1290
 4154SOL    HW116614   2.775   1.219   3.990  0.2709  2.0541  3.3111
 4154SOL    HW216615   2.629   1.258   3.988  0.1226  1.4841  2.7129
 4154SOL     MW16616   2.710   1.269   3.959 -0.3085 -0.1056  0.6752
 4155SOL     OW16617   5.298   4.460   4.409 -0.1150 -0.3313  0.3696
 4155SOL    HW116618   5.324   4.459   4.501  0.4945  2.4042  0.3235
 4155SOL    HW216619   5.206   4.487   4.410 -0.0311 -0.0329  0.1722
 4155SOL     MW16620   5.290   4.464   4.421 -0.0262  0.0570  0.3384
 4156SOL     OW16621   2.711   4.060   0.185 -0.3002  0.1384  0.6390
 4156SOL    HW116622   2.703   3.979   0.135 -1.2284  0.4315  0.2960
 4156SOL    HW216623   2.805   4.068   0.202  0.3646  0.8942 -2.5834
 4156SOL     MW16624   2.722   4.051   0.180 -0.3339  0.2726  0.1826
 4157SOL     OW16625   1.654   3.652   5.319 -0.7070  0.1734 -0.1537
 4157SOL    HW116626   1.735   3.638   5.368 -1.6677  0.2709  1.5554
 4157SOL    HW216627   1.661   3.595   5.243  0.1087 -1.3182  1.0032
 4157SOL     MW16628   1.665   3.643   5.315 -0.7256 -0.0051  0.2132
 4158SOL     OW16629   0.163   4.134   2.202 -0.0900  0.1233 -0.2190
 4158SOL    HW116630   0.127   4.113   2.288  0.7190  1.9177  0.6135
 4158SOL    HW216631   0.246   4.087   2.199 -0.7947 -1.1382 -0.6673
 4158SOL     MW16632   0.169   4.126   2.213 -0.0767  0.1915 -0.1699
 4159SOL     OW16633   1.379   2.782   0.478 -0.3059  0.1229 -0.1728
 4159SOL    HW116634   1.434   2.831   0.539 -1.4494  0.3589  0.6946
 4159SOL    HW216635   1.431   2.778   0.398  2.3897 -2.4698  1.5109
 4159SOL     MW16636   1.393   2.788   0.475 -0.1072 -0.1788  0.1538
 4160SOL     OW16637   4.881   2.552   0.369 -0.3713 -0.1753  0.0006
 4160SOL    HW116638   4.852   2.639   0.396  1.7922  1.4903 -2.5422
 4160SOL    HW216639   4.951   2.530   0.430 -0.7093 -0.0085  0.4541
 4160SOL     MW16640   4.886   2.560   0.380 -0.1376  0.0592 -0.2669
 4161SOL     OW16641   4.124   1.202   1.537  0.5446  0.5587  0.3649
 4161SOL    HW116642   4.209   1.171   1.504  0.4000 -1.3258  1.5862
 4161SOL    HW216643   4.146   1.263   1.607  0.9024  0.0385  0.7092
 4161SOL     MW16644   4.138   1.206   1.541  0.5719  0.2509  0.5653
 4162SOL     OW16645   1.563   0.365   3.271 -0.1268 -0.5751 -0.1964
 4162SOL    HW116646   1.641   0.348   3.324  0.2397  1.1097 -0.1413
 4162SOL    HW216647   1.490   0.354   3.332  0.1328 -1.0047  0.0434
 4162SOL     MW16648   1.564   0.362   3.286 -0.0467 -0.4144 -0.1587
 4163SOL     OW16649   0.414   1.455   3.217 -0.0931  0.3291  0.1673
 4163SOL    HW116650   0.489   1.513   3.231 -0.2676  0.4074  0.7946
 4163SOL    HW216651   0.360   1.500   3.152 -0.2751  0.9131  0.7218
 4163SOL     MW16652   0.417   1.468   3.210 -0.1387  0.4139  0.3186
 4164SOL     OW16653   4.669   5.273   1.243  0.2693 -0.0973 -0.8585
 4164SOL    HW116654   4.642   5.285   1.333  0.6809 -3.2244 -0.2191
 4164SOL    HW216655   4.622   5.341   1.194 -1.8940  0.1134  1.3407
 4164SOL     MW16656   4.660   5.283   1.248  0.0451 -0.4707 -0.4951
 4165SOL     OW16657   4.011   1.399   5.199 -0.4503 -0.5674 -0.0429
 4165SOL    HW116658   4.029   1.407   5.292  0.0264  0.0592 -0.1880
 4165SOL    HW216659   4.057   1.319   5.173  2.5753  1.1598 -0.4787
 4165SOL     MW16660   4.019   1.390   5.207 -0.0020 -0.2661 -0.1172
 4166SOL     OW16661   4.886   5.474   2.633 -0.0994 -0.0800 -0.1717
 4166SOL    HW116662   4.915   5.525   2.709  0.4787  0.4332 -0.7214
 4166SOL    HW216663   4.886   5.384   2.664  2.1040 -0.1214 -0.0946
 4166SOL     MW16664   4.890   5.469   2.647  0.2566 -0.0196 -0.2322
 4167SOL     OW16665   2.731   0.257   5.385  0.2816  0.5768 -0.5554
 4167SOL    HW116666   2.816   0.259   5.427  0.8978  0.5401 -1.7616
 4167SOL    HW216667   2.669   0.279   5.455  0.9309 -2.2317  1.0646
 4167SOL     MW16668   2.734   0.260   5.399  0.4436  0.2126 -0.5025
 4168SOL     OW16669   2.727   5.186   1.592  0.1123  0.5445 -0.1939
 4168SOL    HW116670   2.759   5.147   1.673 -0.8524  2.4807  1.1829
 4168SOL    HW216671   2.800   5.237   1.559 -0.4339  2.2948  1.1849
 4168SOL     MW16672   2.740   5.187   1.598 -0.0811  1.0164  0.1588
 4169SOL     OW16673   2.941   2.561   0.922 -0.1683 -0.3646 -0.0470
 4169SOL    HW116674   3.016   2.597   0.970 -0.1637  1.1912 -1.1214
 4169SOL    HW216675   2.878   2.539   0.990  0.6496 -0.2067  0.7929
 4169SOL     MW16676   2.943   2.563   0.937 -0.0630 -0.1452 -0.0770
 4170SOL     OW16677   4.742   0.491   3.475  0.3855  0.2184  0.2043
 4170SOL    HW116678   4.804   0.438   3.526  0.8421 -1.1136 -1.6178
 4170SOL    HW216679   4.796   0.530   3.406 -0.7342 -0.7566 -1.2708
 4170SOL     MW16680   4.757   0.489   3.473  0.3006 -0.0769 -0.2178
 4171SOL     OW16681   1.786   3.757   0.438 -0.6068  0.4373  0.3210
 4171SOL    HW116682   1.791   3.690   0.505 -0.5134 -0.7818 -0.8489
 4171SOL    HW216683   1.852   3.822   0.462  1.3829 -1.3617 -0.0660
 4171SOL     MW16684   1.795   3.757   0.449 -0.3401  0.0510  0.1217
 4172SOL     OW16685   0.013   1.120   1.323  0.1911 -0.0246 -0.1153
 4172SOL    HW116686   0.065   1.200   1.330  0.7420 -0.4389  0.7890
 4172SOL    HW216687  -0.070   1.148   1.285  0.5264  0.9039 -0.1870
 4172SOL     MW16688   0.009   1.134   1.319  0.3046  0.0413 -0.0087
 4173SOL     OW16689   2.339   2.172   3.729 -0.4450 -0.3207  0.3697
 4173SOL    HW116690   2.255   2.138   3.698 -0.7809  1.0949 -0.3576
 4173SOL    HW216691   2.316   2.248   3.782  0.3926  0.7686 -0.7702
 4173SOL     MW16692   2.325   2.177   3.732 -0.3808 -0.0000  0.1307
 4174SOL     OW16693   3.462   1.878   0.892 -0.5712  0.0842 -0.0616
 4174SOL    HW116694   3.389   1.889   0.832 -1.4036  2.7664  1.2830
 4174SOL    HW216695   3.440   1.800   0.942 -1.4021 -0.3980 -1.1442
 4174SOL     MW16696   3.450   1.870   0.891 -0.7841  0.3658 -0.0281
 4175SOL     OW16697   4.248   5.431   3.238 -0.1041  0.3096  0.0474
 4175SOL    HW116698   4.193   5.460   3.310 -0.0205  1.7466 -0.4447
 4175SOL    HW216699   4.266   5.510   3.187  2.8603  0.0511  0.4656
 4175SOL     MW16700   4.244   5.444   3.241  0.2861  0.4605  0.0379
 4176SOL     OW16701   4.041   2.937   0.392 -0.2489 -0.2907  0.1644
 4176SOL    HW116702   4.083   2.854   0.371  1.7905  0.5327  0.6808
 4176SOL    HW216703   3.972   2.947   0.327 -0.5653 -2.3800  0.1268
 4176SOL     MW16704   4.038   2.928   0.381 -0.0283 -0.4527  0.2257
 4177SOL     OW16705   4.603   4.564   0.084 -0.0850  0.3395 -0.2601
 4177SOL    HW116706   4.664   4.609   0.143 -1.7743  0.1869  1.7119
 4177SOL    HW216707   4.625   4.471   0.094 -0.4967  0.2989  0.2996
 4177SOL     MW16708   4.614   4.558   0.093 -0.3540  0.3148  0.0640
 4178SOL     OW16709   0.555   1.456   0.230  0.3590 -0.0820  0.0240
 4178SOL    HW116710   0.603   1.526   0.185 -0.0011  1.1384  1.4391
 4178SOL    HW216711   0.596   1.450   0.316 -1.4327  0.4186  0.9692
 4178SOL     MW16712   0.566   1.464   0.236  0.0836  0.1383  0.3262
 4179SOL     OW16713   0.192   0.789   2.472  0.1142 -0.7518 -0.1294
 4179SOL    HW116714   0.159   0.876   2.450  0.4528 -0.4124  0.6658
 4179SOL    HW216715   0.285   0.802   2.489  0.8139 -1.7652 -2.7158
 4179SOL     MW16716   0.200   0.802   2.472  0.2471 -0.8381 -0.3587
 4180SOL     OW16717   4.706   2.459   5.316  0.0276 -0.4194 -0.0654
 4180SOL    HW116718   4.752   2.511   5.383 -0.4437  0.6145 -0.5168
 4180SOL    HW216719   4.616   2.453   5.349 -0.1606 -0.0652 -0.5025
 4180SOL     MW16720   4.700   2.465   5.329 -0.0568 -0.2417 -0.1792
 4181SOL     OW16721   0.970   2.786   4.820 -0.1246  0.3061  0.5711
 4181SOL    HW116722   0.888   2.750   4.853 -0.6869 -0.1496 -1.2196
 4181SOL    HW216723   1.022   2.710   4.794  0.7039  0.6120  1.2607
 4181SOL     MW16724   0.966   2.772   4.821 -0.0905  0.2869  0.4301
 4182SOL     OW16725   2.965   2.626   0.433 -0.0680 -0.0851 -0.6181
 4182SOL    HW116726   2.926   2.605   0.517 -1.6571  1.3850 -0.9423
 4182SOL    HW216727   2.930   2.560   0.373 -1.3243  0.6266 -0.7004
 4182SOL     MW16728   2.956   2.615   0.436 -0.4323  0.1942 -0.6702
 4183SOL     OW16729   1.262   0.703   1.634  0.1371  0.0450  1.0370
 4183SOL    HW116730   1.227   0.624   1.594  2.4303  0.1813 -1.5735
 4183SOL    HW216731   1.204   0.773   1.604  1.0567 -0.0445 -1.2019
 4183SOL     MW16732   1.250   0.702   1.625  0.5484  0.0510  0.4162
 4184SOL     OW16733   1.046   3.050   0.587  0.0357 -0.7637 -0.0575
 4184SOL    HW116734   1.028   3.144   0.593  1.9685 -0.3623 -0.0929
 4184SOL    HW216735   1.102   3.042   0.510 -1.1686 -2.1502 -0.8454
 4184SOL     MW16736   1.051   3.061   0.578  0.1290 -0.8898 -0.1629
 4185SOL     OW16737   0.531   2.517   0.906 -0.4042  0.0239  0.0787
 4185SOL    HW116738   0.542   2.611   0.918  0.6643 -0.0048 -0.5541
 4185SOL    HW216739   0.439   2.500   0.930 -0.1998  0.9702  1.6690
 4185SOL     MW16740   0.520   2.527   0.910 -0.2412  0.1413  0.2013
 4186SOL     OW16741   2.497   0.089   2.005  0.1011  0.0216 -0.0692
 4186SOL    HW116742   2.467   0.180   2.002 -0.1449  0.0237  1.4812
 4186SOL    HW216743   2.428   0.039   1.962 -0.7297  0.3678  0.8249
 4186SOL     MW16744   2.484   0.094   1.999 -0.0367  0.0662  0.2437
 4187SOL     OW16745   2.432   3.902   0.397  0.1141 -0.2764  0.8432
 4187SOL    HW116746   2.360   3.848   0.430  0.3830  0.4882  2.8428
 4187SOL    HW216747   2.506   3.879   0.454  1.8276 -1.8049 -1.7912
 4187SOL     MW16748   2.432   3.892   0.409  0.3679 -0.3742  0.7619
 4188SOL     OW16749   0.587   0.592   1.733 -0.0662 -0.0407  0.5391
 4188SOL    HW116750   0.526   0.521   1.713  0.0345  0.6469 -2.9017
 4188SOL    HW216751   0.540   0.672   1.709  1.2163  0.7053  0.3682
 4188SOL     MW16752   0.573   0.593   1.727  0.1108  0.1428  0.0767
 4189SOL     OW16753   2.243   0.603   2.824  0.3688 -0.2406  0.5981
 4189SOL    HW116754   2.221   0.603   2.731 -0.4431  1.2389  0.7591
 4189SOL    HW216755   2.276   0.515   2.841 -1.1670 -1.1106 -0.6909
 4189SOL     MW16756   2.245   0.592   2.814  0.0683 -0.1626  0.4537
 4190SOL     OW16757   4.612   2.136   4.377  0.0012  0.1889 -0.4863
 4190SOL    HW116758   4.645   2.162   4.463 -0.9424 -1.0202  0.2736
 4190SOL    HW216759   4.543   2.073   4.396  0.4288 -0.8533 -2.1594
 4190SOL     MW16760   4.608   2.131   4.391 -0.0649 -0.0993 -0.6032
 4191SOL     OW16761   2.353   0.891   3.147  0.4344 -0.8265  0.1614
 4191SOL    HW116762   2.383   0.858   3.232  1.3070 -1.0272 -0.2204
 4191SOL    HW216763   2.328   0.982   3.164 -0.0988 -1.0778  0.7858
 4191SOL     MW16764   2.354   0.899   3.160  0.4778 -0.8844  0.1925
 4192SOL     OW16765   1.061   0.493   4.263 -0.5028  0.1996 -0.1858
 4192SOL    HW116766   1.009   0.521   4.188  1.4183  0.2994 -1.5669
 4192SOL    HW216767   1.121   0.566   4.279 -0.6450  0.0315  1.2376
 4192SOL     MW16768   1.062   0.506   4.255 -0.2751  0.1909 -0.1804
 4193SOL     OW16769   2.564   3.895   3.790 -0.1580  0.6582  0.1526
 4193SOL    HW116770   2.654   3.909   3.760 -0.5191  0.2348 -1.1800
 4193SOL    HW216771   2.510   3.946   3.729 -0.9037 -0.1193  0.1466
 4193SOL     MW16772   2.569   3.904   3.778 -0.2997  0.5045 -0.0187
 4194SOL     OW16773   2.023   2.701   2.793 -0.3084 -0.7210 -0.2647
 4194SOL    HW116774   2.115   2.719   2.815 -0.3453  1.7877 -1.8381
 4194SOL    HW216775   2.021   2.606   2.778  1.5912 -1.1338  1.5006
 4194SOL     MW16776   2.035   2.691   2.794 -0.0699 -0.4527 -0.2401
 4195SOL     OW16777   4.323   2.543   5.119  0.7796 -0.0812  0.3066
 4195SOL    HW116778   4.269   2.561   5.042  0.0541  0.6795  0.9668
 4195SOL    HW216779   4.396   2.605   5.111  0.0210  0.9325  0.8681
 4195SOL     MW16780   4.325   2.553   5.108  0.5896  0.1460  0.4630
 4196SOL     OW16781   5.058   4.109   0.467  0.4683 -0.0066 -0.4888
 4196SOL    HW116782   5.145   4.077   0.443 -0.1899 -2.6329  0.2744
 4196SOL    HW216783   5.048   4.191   0.418  2.7312 -0.4478 -1.8217
 4196SOL     MW16784   5.068   4.116   0.458  0.6737 -0.3993 -0.5618
 4197SOL     OW16785   5.279   4.099   1.897 -0.4412  0.2711 -0.4920
 4197SOL    HW116786   5.368   4.088   1.929 -1.2010 -0.1859  1.6773
 4197SOL    HW216787   5.229   4.032   1.943 -1.9771  0.7560 -1.3771
 4197SOL     MW16788   5.284   4.089   1.907 -0.7351  0.2746 -0.3276
 4198SOL     OW16789   2.094   1.082   2.355 -0.0184 -0.0226  0.8265
 4198SOL    HW116790   2.145   1.098   2.276 -0.2016  1.5377  0.9827
 4198SOL    HW216791   2.023   1.023   2.327  0.8499 -0.8045  0.2282
 4198SOL     MW16792   2.091   1.076   2.342  0.0693  0.0771  0.7699
 4199SOL     OW16793   3.188   4.399   1.608 -0.4677 -0.0160 -0.3080
 4199SOL    HW116794   3.208   4.310   1.635  1.5823 -0.0698 -1.8110
 4199SOL    HW216795   3.161   4.391   1.517 -0.9665  0.8290 -0.2452
 4199SOL     MW16796   3.187   4.387   1.600 -0.2691  0.0853 -0.4923
 4200SOL     OW16797   0.247   0.430   0.331  0.4147 -0.1574  0.4146
 4200SOL    HW116798   0.220   0.522   0.333 -3.5365 -1.0649 -0.9879
 4200SOL    HW216799   0.296   0.421   0.249  0.9473  0.7106  0.6306
 4200SOL     MW16800   0.249   0.440   0.321 -0.0229 -0.1624  0.2627
 4201SOL     OW16801   3.471   2.524   1.773 -0.3419 -0.2856 -0.0275
 4201SOL    HW116802   3.490   2.593   1.836 -0.7189  0.2231 -0.4572
 4201SOL    HW216803   3.424   2.458   1.823  0.6648 -0.5836  0.5592
 4201SOL     MW16804   3.468   2.524   1.787 -0.2613 -0.2586 -0.0074
 4202SOL     OW16805   4.548   4.544   4.390  0.0421 -0.1345  0.0873
 4202SOL    HW116806   4.640   4.570   4.386 -0.5853  2.2966  0.1409
 4202SOL    HW216807   4.503   4.603   4.329 -1.6083 -0.7113  0.6824
 4202SOL     MW16808   4.554   4.555   4.382 -0.2495  0.1028  0.1704
 4203SOL     OW16809   4.352   0.298   4.864 -0.0561 -0.5358  0.6860
 4203SOL    HW116810   4.437   0.264   4.837 -0.0905 -1.0710  1.2530
 4203SOL    HW216811   4.346   0.383   4.820  0.9391 -0.3119  0.9567
 4203SOL     MW16812   4.362   0.305   4.855  0.0669 -0.5756  0.7933
 4204SOL     OW16813   2.124   0.885   0.810 -0.0692  0.1799 -1.0412
 4204SOL    HW116814   2.052   0.859   0.753  0.9302 -1.8826 -1.4911
 4204SOL    HW216815   2.195   0.909   0.750  0.0925  0.7784 -0.6260
 4204SOL     MW16816   2.124   0.885   0.795  0.0794 -0.0075 -1.0456
 4205SOL     OW16817   2.741   4.351   1.621 -0.4626 -0.2830  0.0067
 4205SOL    HW116818   2.817   4.408   1.628 -0.5823  0.0896 -1.4741
 4205SOL    HW216819   2.695   4.361   1.705  1.3597 -0.9238  1.1437
 4205SOL     MW16820   2.745   4.359   1.633 -0.2446 -0.3174 -0.0373
 4206SOL     OW16821   2.984   5.280   1.475  0.0919  0.1622  0.0340
 4206SOL    HW116822   2.966   5.260   1.383  2.8124  0.4203 -0.6366
 4206SOL    HW216823   3.079   5.288   1.480  0.1492 -1.0897  3.1508
 4206SOL     MW16824   2.994   5.279   1.464  0.4475  0.0350  0.3472
 4207SOL     OW16825   0.358   0.413   4.689 -0.5024  0.1358 -0.2366
 4207SOL    HW116826   0.350   0.388   4.597  1.1188  2.6781 -1.1654
 4207SOL    HW216827   0.449   0.394   4.711 -0.7993 -0.1685  0.7726
 4207SOL     MW16828   0.368   0.407   4.680 -0.3329  0.4223 -0.2263
 4208SOL     OW16829   1.858   0.142   2.620  0.1440 -0.2457  0.0433
 4208SOL    HW116830   1.763   0.144   2.604  0.3979  0.3238 -1.5833
 4208SOL    HW216831   1.887   0.061   2.578  0.3682 -0.4644  0.6180
 4208SOL     MW16832   1.849   0.132   2.613  0.2052 -0.2008 -0.0914
 4209SOL     OW16833   2.409   3.392   4.505  0.4450 -0.3184  0.2367
 4209SOL    HW116834   2.350   3.351   4.568 -0.7313 -0.9439 -1.2194
 4209SOL    HW216835   2.405   3.485   4.526 -0.1954 -0.4759  0.8457
 4209SOL     MW16836   2.401   3.399   4.516  0.2124 -0.4186  0.1283
 4210SOL     OW16837   4.633   3.062   4.132 -0.3832 -0.1452  0.3014
 4210SOL    HW116838   4.560   3.114   4.164  0.0746  0.6344  0.1031
 4210SOL    HW216839   4.679   3.034   4.211  0.6805  1.6744  0.3778
 4210SOL     MW16840   4.630   3.065   4.146 -0.1885  0.1875  0.2858
 4211SOL     OW16841   5.342   2.535   3.555  0.3416  0.1415 -0.4743
 4211SOL    HW116842   5.298   2.500   3.477  0.7600  0.4160 -0.8404
 4211SOL    HW216843   5.300   2.490   3.628 -0.6514  0.5062 -0.8063
 4211SOL     MW16844   5.331   2.525   3.554  0.2680  0.2233 -0.5636
 4212SOL     OW16845   5.214   0.517   2.126  0.2727 -0.1965 -0.2394
 4212SOL    HW116846   5.248   0.517   2.215  0.6220 -1.1342 -0.3568
 4212SOL    HW216847   5.282   0.559   2.074  0.5542 -0.6146 -0.2199
 4212SOL     MW16848   5.227   0.522   2.131  0.3534 -0.3701 -0.2519
 4213SOL     OW16849   3.393   3.219   1.128  0.5484  0.3333  0.0401
 4213SOL    HW116850   3.413   3.288   1.065 -0.0677  1.5204  1.1031
 4213SOL    HW216851   3.313   3.249   1.171  0.1465 -1.1613  0.3833
 4213SOL     MW16852   3.385   3.232   1.125  0.4181  0.2940  0.2201
 4214SOL     OW16853   2.765   4.257   2.090 -0.0132 -0.1457 -0.0778
 4214SOL    HW116854   2.831   4.254   2.022 -1.1964 -1.2042 -1.2414
 4214SOL    HW216855   2.808   4.221   2.168  0.5924 -1.4726 -0.9897
 4214SOL     MW16856   2.779   4.252   2.092 -0.0872 -0.4511 -0.3435
 4215SOL     OW16857   2.667   4.515   4.600 -0.2810  0.0787  0.2308
 4215SOL    HW116858   2.752   4.486   4.569 -0.4238  0.7816 -0.8838
 4215SOL    HW216859   2.669   4.500   4.695  0.5595 -1.1728  0.0324
 4215SOL     MW16860   2.678   4.510   4.608 -0.1917  0.0084  0.0627
 4216SOL     OW16861   5.463   3.060   2.781 -0.3824 -0.2519  0.2152
 4216SOL    HW116862   5.543   3.109   2.803 -0.2031 -0.9996  1.3356
 4216SOL    HW216863   5.439   3.017   2.863 -1.6371 -0.4781 -0.2522
 4216SOL     MW16864   5.470   3.061   2.795 -0.5201 -0.3766  0.2988
 4217SOL     OW16865   2.358   2.692   3.479 -0.1389  0.1613 -0.6204
 4217SOL    HW116866   2.291   2.721   3.417  0.1940  1.4948 -0.3841
 4217SOL    HW216867   2.439   2.729   3.445  0.0132  1.1300  0.7206
 4217SOL     MW16868   2.360   2.700   3.467 -0.0768  0.4560 -0.4185
 4218SOL     OW16869   0.044   3.390   3.080 -0.3556  1.1867 -0.0719
 4218SOL    HW116870   0.081   3.331   3.015 -0.0320  0.4764  0.7399
 4218SOL    HW216871  -0.009   3.333   3.136  1.2701  1.3463  1.7203
 4218SOL     MW16872   0.042   3.375   3.079 -0.1060  1.1162  0.2614
 4219SOL     OW16873   2.097   1.135   4.731 -0.4791  0.3026  0.1972
 4219SOL    HW116874   2.027   1.089   4.779 -0.5014 -1.3490 -1.3170
 4219SOL    HW216875   2.066   1.138   4.641  1.4284 -0.5935 -0.5465
 4219SOL     MW16876   2.084   1.129   4.726 -0.2378 -0.0235 -0.0918
 4220SOL     OW16877   4.390   0.056   3.789 -0.3313 -0.0756 -0.0905
 4220SOL    HW116878   4.448   0.067   3.714 -0.0719 -0.7116  0.0085
 4220SOL    HW216879   4.407  -0.034   3.820 -0.3677  0.2034  0.7774
 4220SOL     MW16880   4.399   0.046   3.784 -0.3028 -0.1213  0.0333
 4221SOL     OW16881   2.352   5.164   5.023  0.5048 -0.3416 -0.2525
 4221SOL    HW116882   2.377   5.196   4.937  0.5643 -0.1512 -0.1638
 4221SOL    HW216883   2.368   5.237   5.082 -1.3665  0.2029 -0.3584
 4221SOL     MW16884   2.357   5.177   5.020  0.2729 -0.2475 -0.2547
 4222SOL     OW16885   1.208   3.849   1.328  0.1186  0.4021  0.0775
 4222SOL    HW116886   1.153   3.782   1.289 -0.2231 -0.6606  2.2578
 4222SOL    HW216887   1.287   3.803   1.356 -1.0978  0.3005  3.7406
 4222SOL     MW16888   1.211   3.835   1.326 -0.0809  0.2531  0.8255
 4223SOL     OW16889   4.118   4.996   0.704  0.0208 -0.3368  0.1515
 4223SOL    HW116890   4.054   4.999   0.775  0.1193 -0.5764  0.2510
 4223SOL    HW216891   4.067   5.018   0.626 -0.3578 -1.2916  0.1168
 4223SOL     MW16892   4.103   4.999   0.703 -0.0150 -0.4897  0.1598
 4224SOL     OW16893   2.477   2.887   4.977  0.0632 -0.1639 -0.5050
 4224SOL    HW116894   2.559   2.906   5.022  0.5822 -2.4186 -0.3638
 4224SOL    HW216895   2.494   2.911   4.886 -0.4430  2.8657  0.1027
 4224SOL     MW16896   2.490   2.893   4.971  0.0649 -0.0647 -0.4092
 4225SOL     OW16897   3.264   4.109   4.656 -0.0231  0.2117 -0.1988
 4225SOL    HW116898   3.225   4.022   4.652  0.4603 -0.1192  1.6704
 4225SOL    HW216899   3.339   4.105   4.597 -0.9420 -0.1073 -1.3845
 4225SOL     MW16900   3.268   4.098   4.648 -0.0788  0.1285 -0.1113
 4226SOL     OW16901   3.964   1.705   3.242 -0.3300  0.7210 -0.1863
 4226SOL    HW116902   3.986   1.778   3.184  2.0247  0.5140  0.3244
 4226SOL    HW216903   3.947   1.631   3.184  0.7726  0.8236 -0.6582
 4226SOL     MW16904   3.965   1.705   3.227  0.1126  0.7076 -0.1813
 4227SOL     OW16905   2.350   2.142   4.856 -0.4307  0.5858 -0.4440
 4227SOL    HW116906   2.437   2.130   4.820  0.1130  0.8610  0.7164
 4227SOL    HW216907   2.342   2.074   4.923 -0.8460  0.9531 -0.1112
 4227SOL     MW16908   2.360   2.132   4.860 -0.4142  0.6680 -0.2529
 4228SOL     OW16909   0.275   2.439   0.992  0.1648  0.5510 -0.0036
 4228SOL    HW116910   0.224   2.515   0.965  0.5619  1.1725  0.9584
 4228SOL    HW216911   0.266   2.378   0.919 -0.7343  1.2312 -0.4884
 4228SOL     MW16912   0.267   2.441   0.979  0.1005  0.7177  0.0575
 4229SOL     OW16913   1.537   0.673   0.876  1.0124 -0.2459 -0.6191
 4229SOL    HW116914   1.564   0.665   0.968  0.6525 -0.2218 -0.5065
 4229SOL    HW216915   1.521   0.583   0.848 -2.7705 -0.1269  0.5661
 4229SOL     MW16916   1.538   0.661   0.885  0.4821 -0.2276 -0.4530
 4230SOL     OW16917   3.954   1.196   2.181  0.6065 -0.1183  0.0173
 4230SOL    HW116918   3.910   1.172   2.100  1.1691  0.6007 -0.5116
 4230SOL    HW216919   3.882   1.217   2.242  0.1944  0.1050 -0.5352
 4230SOL     MW16920   3.939   1.196   2.179  0.6258  0.0023 -0.1211
 4231SOL     OW16921   3.471   4.771   2.476  0.1858  0.1574  0.5176
 4231SOL    HW116922   3.524   4.821   2.413 -1.0505 -1.9357 -2.4543
 4231SOL    HW216923   3.404   4.832   2.504  0.9158  1.2460 -0.0135
 4231SOL     MW16924   3.470   4.785   2.471  0.1210  0.0288  0.0692
 4232SOL     OW16925   1.811   3.481   2.458  0.5461 -0.2386  0.0131
 4232SOL    HW116926   1.778   3.461   2.545  0.0060  1.4114  0.2337
 4232SOL    HW216927   1.904   3.500   2.471  0.6081 -0.6200  0.1248
 4232SOL     MW16928   1.819   3.481   2.471  0.4849 -0.0762  0.0556
 4233SOL     OW16929   0.486   4.446   3.827  0.5424  0.2740 -0.3702
 4233SOL    HW116930   0.469   4.440   3.733  0.1113 -0.4268 -0.2513
 4233SOL    HW216931   0.425   4.384   3.867  0.8091  0.4731  0.3653
 4233SOL     MW16932   0.476   4.437   3.820  0.5213  0.2097 -0.2609
 4234SOL     OW16933   5.481   0.914   3.402 -0.4177  0.2058  0.5639
 4234SOL    HW116934   5.413   0.862   3.445 -0.1803  0.2035  0.9397
 4234SOL    HW216935   5.561   0.891   3.448 -0.1931  0.3520  0.2458
 4234SOL     MW16936   5.482   0.904   3.413 -0.3586  0.2242  0.5713
 4235SOL     OW16937   1.181   3.456   5.350  0.0935  0.4938  0.2037
 4235SOL    HW116938   1.147   3.523   5.409  0.5643  0.2701  0.7351
 4235SOL    HW216939   1.139   3.474   5.266 -0.2280  1.0947  0.4911
 4235SOL     MW16940   1.171   3.467   5.347  0.1126  0.5421  0.3085
 4236SOL     OW16941   0.913   3.837   0.519 -0.3089 -0.4753 -0.4856
 4236SOL    HW116942   0.871   3.912   0.477  0.3600  0.1790 -0.0210
 4236SOL    HW216943   0.965   3.876   0.590  1.1240 -1.2229 -1.0846
 4236SOL     MW16944   0.915   3.852   0.522 -0.0398 -0.4873 -0.5028
 4237SOL     OW16945   1.777   1.806   0.012  0.0706  0.2036  0.1200
 4237SOL    HW116946   1.776   1.720  -0.030  0.6678  1.0597 -1.7739
 4237SOL    HW216947   1.870   1.830   0.014 -0.2774  2.2848 -2.7449
 4237SOL     MW16948   1.789   1.798   0.007  0.1025  0.5796 -0.4892
 4238SOL     OW16949   4.062   4.031   4.749 -0.6764 -0.3004 -0.5382
 4238SOL    HW116950   4.061   3.960   4.684 -0.5787 -0.8748  0.0780
 4238SOL    HW216951   3.982   4.017   4.800 -0.6773  0.0612 -0.4415
 4238SOL     MW16952   4.052   4.020   4.747 -0.6640 -0.3276 -0.4469
 4239SOL     OW16953   4.536   0.613   0.106 -0.1670  0.6642 -0.3789
 4239SOL    HW116954   4.615   0.569   0.073 -0.1456  0.0610  0.4625
 4239SOL    HW216955   4.464   0.559   0.073 -0.2437  1.1740 -1.0844
 4239SOL     MW16956   4.537   0.601   0.097 -0.1741  0.6523 -0.3615
 4240SOL     OW16957   4.052   3.615   5.334  0.0993 -0.3426 -0.2746
 4240SOL    HW116958   4.080   3.696   5.290 -0.2236  0.0719  0.2813
 4240SOL    HW216959   4.133   3.580   5.371 -0.0502  0.8311  1.2878
 4240SOL     MW16960   4.066   3.621   5.333  0.0388 -0.1393 -0.0034
 4241SOL     OW16961   0.992   0.236   2.705  0.3096 -1.0331 -0.2116
 4241SOL    HW116962   0.998   0.177   2.630 -2.0337 -1.2226 -0.3438
 4241SOL    HW216963   0.933   0.306   2.676 -0.9125 -1.2740  1.5013
 4241SOL     MW16964   0.985   0.237   2.692 -0.1468 -1.0882 -0.0092
 4242SOL     OW16965   1.295   3.610   3.870 -0.1691  0.7914 -0.1310
 4242SOL    HW116966   1.314   3.631   3.779  1.1961 -0.7672 -0.2355
 4242SOL    HW216967   1.309   3.693   3.917  1.4603  1.0516 -1.0141
 4242SOL     MW16968   1.299   3.623   3.864  0.2143  0.6252 -0.2574
 4243SOL     OW16969   4.416   5.208   2.490 -0.2581  0.0441 -0.2612
 4243SOL    HW116970   4.476   5.199   2.416  0.0071  1.4797 -0.2410
 4243SOL    HW216971   4.421   5.300   2.514  0.8083 -0.6503  2.5404
 4243SOL     MW16972   4.424   5.218   2.483 -0.0876  0.1390  0.1000
 4244SOL     OW16973   3.526   2.456   3.575 -0.0998  0.9986 -0.0128
 4244SOL    HW116974   3.439   2.493   3.586 -0.2916  0.2450  1.1254
 4244SOL    HW216975   3.554   2.433   3.664 -0.4855 -2.6764 -0.6719
 4244SOL     MW16976   3.519   2.458   3.588 -0.1737  0.4317  0.0485
 4245SOL     OW16977   3.561   0.640   0.531  0.0626  0.0566  0.1250
 4245SOL    HW116978   3.625   0.624   0.461 -0.8123 -1.6464 -0.3314
 4245SOL    HW216979   3.508   0.561   0.534 -1.4081  1.0308  1.1764
 4245SOL     MW16980   3.562   0.628   0.522 -0.2377 -0.0367  0.2012
 4246SOL     OW16981   3.866   4.559   2.009 -0.1074 -0.0187  0.2846
 4246SOL    HW116982   3.876   4.654   2.013 -0.6468  0.0539  0.0147
 4246SOL    HW216983   3.956   4.526   2.003  0.1660  0.3988  1.6305
 4246SOL     MW16984   3.879   4.567   2.009 -0.1415  0.0440  0.4224
 4247SOL     OW16985   2.903   3.160   3.388 -0.6456 -0.0333  0.0832
 4247SOL    HW116986   2.852   3.117   3.320  0.8054  0.0949 -1.1339
 4247SOL    HW216987   2.983   3.190   3.344 -1.4683  3.8397  0.8093
 4247SOL     MW16988   2.907   3.159   3.374 -0.5652  0.4789  0.0203
 4248SOL     OW16989   0.962   4.474   2.275 -0.2762 -0.0949 -0.2612
 4248SOL    HW116990   0.932   4.475   2.366 -1.0605 -1.4088 -0.4714
 4248SOL    HW216991   0.928   4.555   2.238  1.0924  1.0564  0.9089
 4248SOL     MW16992   0.954   4.484   2.282 -0.2014 -0.1157 -0.1383
 4249SOL     OW16993   1.376   4.788   1.145  0.4745  0.0248  0.0880
 4249SOL    HW116994   1.414   4.790   1.233  0.7378 -0.4376 -0.0133
 4249SOL    HW216995   1.287   4.754   1.159  0.3969  0.2788  0.2171
 4249SOL     MW16996   1.369   4.784   1.158  0.4982 -0.0019  0.0915
 4250SOL     OW16997   2.452   0.131   0.242 -0.5421 -0.4800  0.8692
 4250SOL    HW116998   2.394   0.130   0.318 -2.6618 -0.1646 -0.6491
 4250SOL    HW216999   2.510   0.206   0.258 -2.0900  0.6570  1.3874
 4250SOL     MW17000   2.452   0.141   0.254 -1.0116 -0.2941  0.7412
 4251SOL     OW17001   1.648   1.444   4.972  0.0454  0.2845  0.3986
 4251SOL    HW117002   1.642   1.507   5.044  0.9956  0.1704  0.5931
 4251SOL    HW217003   1.737   1.455   4.938  0.1965 -0.8593  0.3724
 4251SOL     MW17004   1.659   1.453   4.977  0.1864  0.1235  0.4201
 4252SOL     OW17005   5.421   2.860   2.483 -0.1626  0.0998  0.1236
 4252SOL    HW117006   5.402   2.954   2.489 -1.2116 -0.0167 -0.9538
 4252SOL    HW217007   5.335   2.819   2.472  0.2927 -0.9844  0.5492
 4252SOL     MW17008   5.408   2.867   2.482 -0.2386 -0.0539  0.0401
 4253SOL     OW17009   3.674   5.170   5.066 -0.1448 -0.3354 -0.1347
 4253SOL    HW117010   3.669   5.127   4.980 -1.8281  0.2376 -0.3527
 4253SOL    HW217011   3.764   5.202   5.072  0.7725 -2.6388 -0.5571
 4253SOL     MW17012   3.685   5.168   5.056 -0.2429 -0.5569 -0.2167
 4254SOL     OW17013   4.236   2.887   2.412  0.1901 -0.1704  0.0248
 4254SOL    HW117014   4.230   2.920   2.322  0.6044  0.0922  0.0891
 4254SOL    HW217015   4.324   2.913   2.441  0.1980 -0.5766  0.3775
 4254SOL     MW17016   4.247   2.895   2.404  0.2442 -0.1888  0.0782
 4255SOL     OW17017   1.712   1.174   4.762  0.7946  0.6510 -0.1785
 4255SOL    HW117018   1.750   1.204   4.679  0.8365  0.0597 -0.3781
 4255SOL    HW217019   1.693   1.254   4.810  0.2982  1.0268 -0.9716
 4255SOL     MW17020   1.714   1.188   4.757  0.7364  0.6234 -0.3056
 4256SOL     OW17021   0.469   0.552   1.021 -0.0042 -0.3293  0.5360
 4256SOL    HW117022   0.411   0.626   1.001 -0.2675 -0.7063 -0.1096
 4256SOL    HW217023   0.419   0.499   1.084  0.2042  0.0624  1.0365
 4256SOL     MW17024   0.455   0.555   1.027 -0.0112 -0.3274  0.5174
 4257SOL     OW17025   2.626   0.339   2.314  0.0115 -0.2107 -0.1256
 4257SOL    HW117026   2.597   0.378   2.232  1.3544  1.5687  0.1808
 4257SOL    HW217027   2.718   0.317   2.299  0.3756  0.4687  0.9871
 4257SOL     MW17028   2.634   0.341   2.302  0.2300  0.1040  0.0561
 4258SOL     OW17029   3.072   1.015   3.043  0.8109 -0.3038  0.3048
 4258SOL    HW117030   3.022   1.090   3.011  0.8592  0.3022  1.6321
 4258SOL    HW217031   3.035   0.940   2.995 -0.2403  0.3558  0.0531
 4258SOL     MW17032   3.061   1.015   3.032  0.6825 -0.1418  0.4425
 4259SOL     OW17033   0.419   4.039   4.568  0.0651 -0.1898  0.1256
 4259SOL    HW117034   0.463   3.968   4.522  0.7544  0.2224  0.1344
 4259SOL    HW217035   0.489   4.101   4.589 -0.5720  0.6529 -0.1736
 4259SOL     MW17036   0.433   4.038   4.565  0.0718 -0.0291  0.0885
 4260SOL     OW17037   2.739   4.349   3.930  0.4290 -0.1383 -0.1400
 4260SOL    HW117038   2.699   4.362   4.016  1.5467 -0.2641  0.4255
 4260SOL    HW217039   2.728   4.432   3.885 -0.3758 -0.1455  0.0354
 4260SOL     MW17040   2.732   4.361   3.936  0.4690 -0.1553 -0.0452
 4261SOL     OW17041   2.316   0.460   1.397  0.4255 -0.1433  0.0095
 4261SOL    HW117042   2.256   0.527   1.429 -0.3224 -0.5828 -0.4350
 4261SOL    HW217043   2.260   0.397   1.352  1.3077 -0.1202 -1.1924
 4261SOL     MW17044   2.301   0.461   1.395  0.4427 -0.1966 -0.2012
 4262SOL     OW17045   3.827   2.294   0.933  0.3753 -0.2511  0.5133
 4262SOL    HW117046   3.787   2.210   0.911  0.7539 -0.0414 -1.1040
 4262SOL    HW217047   3.919   2.273   0.950  0.4498 -0.1709  0.2035
 4262SOL     MW17048   3.834   2.280   0.933  0.4333 -0.2140  0.2666
 4263SOL     OW17049   4.927   1.610   0.537 -0.1855  0.1798 -0.6808
 4263SOL    HW117050   4.879   1.693   0.535  0.5236  0.6165  0.0286
 4263SOL    HW217051   4.890   1.560   0.465  0.7967  1.9290 -2.5357
 4263SOL     MW17052   4.916   1.614   0.527  0.0310  0.4596 -0.8274
 4264SOL     OW17053   3.214   3.345   0.392  0.1943 -0.0318  0.2471
 4264SOL    HW117054   3.170   3.263   0.414  0.8387 -0.2027  0.9430
 4264SOL    HW217055   3.215   3.348   0.297 -1.1643 -0.1079  0.2132
 4264SOL     MW17056   3.208   3.335   0.383  0.1029 -0.0634  0.3319
 4265SOL     OW17057   3.506   4.112   0.717  0.2986  0.0614 -0.3602
 4265SOL    HW117058   3.556   4.087   0.794  0.6638 -0.3439 -0.7257
 4265SOL    HW217059   3.562   4.175   0.672  0.6386 -0.6371 -0.9400
 4265SOL     MW17060   3.519   4.117   0.721  0.3889 -0.0799 -0.4812
 4266SOL     OW17061   0.505   0.493   5.097  1.1957 -0.1198  0.1752
 4266SOL    HW117062   0.445   0.544   5.042 -0.1028 -1.9636 -0.1899
 4266SOL    HW217063   0.504   0.405   5.059  1.0478 -1.2079  2.5267
 4266SOL     MW17064   0.497   0.488   5.085  1.0106 -0.4951  0.4295
 4267SOL     OW17065   3.905   1.932   0.736  0.1335  0.3130  0.4102
 4267SOL    HW117066   3.920   1.850   0.689  0.0226  0.5095  0.0195
 4267SOL    HW217067   3.950   1.921   0.820  0.9128  0.2052 -0.0090
 4267SOL     MW17068   3.913   1.920   0.740  0.2190  0.3244  0.3065
 4268SOL     OW17069   4.078   1.108   5.107 -0.6310  0.0658 -0.0879
 4268SOL    HW117070   4.148   1.123   5.172  1.2340 -0.8426 -1.7879
 4268SOL    HW217071   4.026   1.037   5.144 -0.2136  0.2414  0.8726
 4268SOL     MW17072   4.080   1.101   5.120 -0.3388 -0.0280 -0.1826
 4269SOL     OW17073   2.289   4.775   4.379 -0.1350 -0.6189 -0.0848
 4269SOL    HW117074   2.216   4.801   4.435 -0.1416 -0.7588 -0.0299
 4269SOL    HW217075   2.357   4.744   4.440  0.6031  1.0231 -0.0061
 4269SOL     MW17076   2.289   4.774   4.394 -0.0413 -0.4266 -0.0677
 4270SOL     OW17077   3.566   2.668   2.016 -0.0800  0.3587 -0.3180
 4270SOL    HW117078   3.478   2.693   2.042  0.5088  1.4912  0.6662
 4270SOL    HW217079   3.621   2.742   2.042  1.5530 -1.3734  1.4846
 4270SOL     MW17080   3.562   2.680   2.022  0.2044  0.2820  0.0387
 4271SOL     OW17081   3.561   5.342   4.642  0.1667  0.0592  0.2101
 4271SOL    HW117082   3.587   5.433   4.626  0.5873 -0.3175 -1.4545
 4271SOL    HW217083   3.472   5.337   4.607 -0.0186 -0.0686  0.6960
 4271SOL     MW17084   3.553   5.353   4.635  0.1968 -0.0054  0.0592
 4272SOL     OW17085   2.629   3.262   0.540 -0.0100 -0.4217  0.3067
 4272SOL    HW117086   2.626   3.222   0.454 -0.7320 -2.1922  1.1095
 4272SOL    HW217087   2.661   3.193   0.598 -1.0874  0.2049  1.7140
 4272SOL     MW17088   2.632   3.248   0.536 -0.2403 -0.5682  0.5896
 4273SOL     OW17089   2.428   5.193   4.403 -0.0926  0.5172  0.3400
 4273SOL    HW117090   2.459   5.268   4.352 -0.0053  0.2490 -0.0073
 4273SOL    HW217091   2.336   5.184   4.378 -1.3086  2.9780  3.3579
 4273SOL     MW17092   2.420   5.202   4.393 -0.2371  0.7979  0.6819
 4274SOL     OW17093   2.577   1.202   4.304  0.5586  0.5525  0.0818
 4274SOL    HW117094   2.513   1.196   4.233  0.5423 -0.1236  0.1490
 4274SOL    HW217095   2.552   1.132   4.365  0.9023  0.7740  0.4834
 4274SOL     MW17096   2.566   1.192   4.303  0.6005  0.4943  0.1418
 4275SOL     OW17097   4.506   3.759   1.348  0.1946  0.2638 -0.0225
 4275SOL    HW117098   4.579   3.808   1.386 -1.9379  2.7943  1.1029
 4275SOL    HW217099   4.545   3.676   1.320  3.3445  1.2410  1.0501
 4275SOL     MW17100   4.520   3.754   1.349  0.3248  0.7128  0.2589
 4276SOL     OW17101   2.853   0.116   1.158 -0.4807 -0.2496  0.0076
 4276SOL    HW117102   2.792   0.060   1.206 -0.4786 -0.3581 -0.1146
 4276SOL    HW217103   2.805   0.198   1.145 -0.2046  0.0660  0.8686
 4276SOL     MW17104   2.839   0.119   1.163 -0.4451 -0.2231  0.1022
 4277SOL     OW17105   5.179   2.447   3.359 -0.1919  0.1681 -0.1460
 4277SOL    HW117106   5.105   2.505   3.378  0.1690  0.6920 -0.3223
 4277SOL    HW217107   5.162   2.369   3.411  0.3126  1.2187  1.7006
 4277SOL     MW17108   5.168   2.445   3.368 -0.0811  0.3697  0.0678
 4278SOL     OW17109   2.319   3.207   4.693 -0.5909  0.0097  0.7800
 4278SOL    HW117110   2.234   3.215   4.736 -0.9078  1.6784 -0.1011
 4278SOL    HW217111   2.304   3.144   4.622 -1.2764  0.8169  0.2018
 4278SOL     MW17112   2.307   3.200   4.689 -0.7192  0.3267  0.5932
 4279SOL     OW17113   4.384   1.458   2.705  0.1997 -0.2180  0.3862
 4279SOL    HW117114   4.414   1.519   2.773 -0.4356 -0.0876  0.5594
 4279SOL    HW217115   4.435   1.378   2.720  0.4049 -0.0289  0.7189
 4279SOL     MW17116   4.395   1.456   2.716  0.1446 -0.1771  0.4510
 4280SOL     OW17117   1.208   2.374   3.542  0.4150  0.4484  0.2454
 4280SOL    HW117118   1.301   2.355   3.551  0.1580 -0.8387  0.3626
 4280SOL    HW217119   1.185   2.340   3.455 -0.3071 -0.9370  0.9328
 4280SOL     MW17120   1.217   2.367   3.532  0.2897  0.1063  0.3484
 4281SOL     OW17121   1.154   2.823   3.813  0.3693  0.3249 -0.1645
 4281SOL    HW117122   1.201   2.742   3.794 -0.7971 -0.6744  1.0566
 4281SOL    HW217123   1.196   2.857   3.892 -1.0144 -0.6551  1.0235
 4281SOL     MW17124   1.165   2.817   3.821  0.0429  0.0715  0.1439
 4282SOL     OW17125   2.521   2.421   3.668  0.6320  0.1950 -0.2649
 4282SOL    HW117126   2.598   2.384   3.711 -0.9158 -0.4925  2.1347
 4282SOL    HW217127   2.527   2.515   3.685  1.6677  0.3743 -1.4421
 4282SOL     MW17128   2.532   2.428   3.676  0.5664  0.1299 -0.1084
 4283SOL     OW17129  -0.003   0.562   3.276  0.5265  0.3914 -0.3636
 4283SOL    HW117130  -0.040   0.625   3.213  0.5062  0.5389 -0.2038
 4283SOL    HW217131   0.090   0.583   3.278  0.3641  1.0563  0.4220
 4283SOL     MW17132   0.004   0.573   3.268  0.5031  0.4954 -0.2426
 4284SOL     OW17133   1.251   3.285   4.072 -0.5550 -0.0092  0.2122
 4284SOL    HW117134   1.241   3.237   3.990  0.7180 -2.0156  1.1716
 4284SOL    HW217135   1.336   3.328   4.064 -0.2207 -0.5814  0.6481
 4284SOL     MW17136   1.260   3.285   4.060 -0.3492 -0.3393  0.3908
 4285SOL     OW17137   3.695   2.248   1.605 -0.1095 -0.4195 -0.4618
 4285SOL    HW117138   3.622   2.186   1.600 -0.4550 -0.0790  0.2151
 4285SOL    HW217139   3.677   2.299   1.684  0.2324  0.4558 -0.9393
 4285SOL     MW17140   3.683   2.247   1.614 -0.1100 -0.2639 -0.4363
 4286SOL     OW17141   0.689   1.292   2.129  0.0458  0.0567 -0.1526
 4286SOL    HW117142   0.641   1.297   2.046 -0.8665  1.1596  0.4156
 4286SOL    HW217143   0.781   1.285   2.103 -0.2198  0.4663 -1.2636
 4286SOL     MW17144   0.695   1.292   2.115 -0.1050  0.2503 -0.2221
 4287SOL     OW17145   2.909   3.951   0.447 -0.4250 -0.1570  0.1279
 4287SOL    HW117146   2.988   3.908   0.481 -0.7409 -2.0805 -1.3739
 4287SOL    HW217147   2.941   4.006   0.376 -0.2456  0.5514  0.7451
 4287SOL     MW17148   2.923   3.952   0.443 -0.4425 -0.3126  0.0146
 4288SOL     OW17149   2.285   2.835   3.830  0.0786  0.4791  0.0977
 4288SOL    HW117150   2.267   2.924   3.798 -2.6520  0.3433  1.0376
 4288SOL    HW217151   2.351   2.848   3.899  1.1898  1.5000 -1.0898
 4288SOL     MW17152   2.291   2.848   3.835 -0.1287  0.5924  0.0660
 4289SOL     OW17153   1.631   5.349   2.361  1.2215  0.3571  0.1215
 4289SOL    HW117154   1.572   5.332   2.434  2.3138  0.1442  0.9937
 4289SOL    HW217155   1.597   5.296   2.289 -0.5212  1.4276  0.1036
 4289SOL     MW17156   1.619   5.340   2.361  1.1383  0.4669  0.2308
 4290SOL     OW17157   2.322   2.230   0.599  0.7977  0.0421 -0.9193
 4290SOL    HW117158   2.412   2.205   0.579  0.5184 -1.4950 -0.4306
 4290SOL    HW217159   2.271   2.193   0.526  0.4085 -0.5178 -0.3751
 4290SOL     MW17160   2.327   2.222   0.587  0.7121 -0.2263 -0.7871
 4291SOL     OW17161   1.753   2.254   4.906  0.0873  0.2558 -0.2017
 4291SOL    HW117162   1.831   2.214   4.943  0.1135 -1.6796 -2.1404
 4291SOL    HW217163   1.787   2.316   4.841  0.0145  0.9289  0.3969
 4291SOL     MW17164   1.767   2.257   4.902  0.0814  0.0942 -0.3732
 4292SOL     OW17165   3.006   1.806   1.621  0.0530 -0.4805  0.1476
 4292SOL    HW117166   2.967   1.720   1.608 -0.8203 -0.1013  0.1305
 4292SOL    HW217167   2.935   1.867   1.601  0.2758  0.2165  1.3831
 4292SOL     MW17168   2.992   1.803   1.617 -0.0303 -0.3427  0.3036
 4293SOL     OW17169   3.123   4.305   0.955  0.0950  0.1630  0.0729
 4293SOL    HW117170   3.069   4.382   0.938 -0.4766 -0.3023 -0.2911
 4293SOL    HW217171   3.194   4.310   0.891  0.2617  0.5699  0.2886
 4293SOL     MW17172   3.125   4.316   0.945  0.0432  0.1555  0.0539
 4294SOL     OW17173   4.563   4.770   2.203 -0.2752 -0.3212  0.1276
 4294SOL    HW117174   4.639   4.744   2.151  0.9633 -1.7843  2.4999
 4294SOL    HW217175   4.599   4.829   2.270 -1.3556 -0.4895  0.8769
 4294SOL     MW17176   4.577   4.775   2.205 -0.2549 -0.5301  0.5272
 4295SOL     OW17177   4.610   3.778   2.373 -0.0841  0.8753  0.1305
 4295SOL    HW117178   4.671   3.707   2.356  1.0583  2.1885 -1.6094
 4295SOL    HW217179   4.657   3.837   2.431 -1.3985 -0.1719  2.4071
 4295SOL     MW17180   4.624   3.776   2.378 -0.1061  0.9094  0.1992
 4296SOL     OW17181   3.214   1.350   4.991 -0.0544 -0.1922  0.1540
 4296SOL    HW117182   3.218   1.434   5.036 -0.7290  0.2150 -0.5261
 4296SOL    HW217183   3.163   1.294   5.049  0.0333 -0.0115  0.4091
 4296SOL     MW17184   3.208   1.354   5.004 -0.1295 -0.1170  0.0996
 4297SOL     OW17185   5.216   3.537   2.965 -0.5169 -0.3152 -0.2645
 4297SOL    HW117186   5.129   3.561   2.997 -0.1112  0.8763 -0.0029
 4297SOL    HW217187   5.275   3.561   3.036 -0.0272 -1.7448 -0.1641
 4297SOL     MW17188   5.213   3.543   2.978 -0.4023 -0.3457 -0.2182
 4298SOL     OW17189   3.907   3.014   2.183  0.1889  0.2321  0.1219
 4298SOL    HW117190   3.970   3.029   2.112 -0.3864  1.2431 -0.1821
 4298SOL    HW217191   3.945   2.941   2.233  0.6449 -0.4255 -1.1570
 4298SOL     MW17192   3.920   3.007   2.181  0.1736  0.2773 -0.0808
 4299SOL     OW17193   5.301   4.894   4.338  0.4724 -0.7518 -0.0358
 4299SOL    HW117194   5.250   4.974   4.354 -0.0610 -0.9847 -0.5479
 4299SOL    HW217195   5.347   4.878   4.421 -0.4951 -0.6877  0.5233
 4299SOL     MW17196   5.300   4.903   4.351  0.2802 -0.7734 -0.0298
 4300SOL     OW17197   0.189   3.961   0.054 -0.0897 -0.0557 -0.0508
 4300SOL    HW117198   0.177   3.904  -0.023 -0.3272  0.3985 -0.3520
 4300SOL    HW217199   0.274   3.935   0.089 -0.3445 -0.8418  0.0184
 4300SOL     MW17200   0.198   3.950   0.048 -0.1527 -0.0982 -0.0805
 4301SOL     OW17201   1.561   3.812   2.114  0.2473  0.1213 -0.5152
 4301SOL    HW117202   1.559   3.907   2.123  0.8328  0.0094  1.2665
 4301SOL    HW217203   1.474   3.789   2.080 -0.1983  1.2252 -0.1571
 4301SOL     MW17204   1.549   3.821   2.111  0.2652  0.2483 -0.2412
 4302SOL     OW17205   0.680   5.172   5.329  0.1863 -0.0971 -0.1036
 4302SOL    HW117206   0.770   5.191   5.353  0.1326  1.0482 -0.7361
 4302SOL    HW217207   0.636   5.257   5.330  0.0206 -0.0043 -3.4267
 4302SOL     MW17208   0.686   5.185   5.332  0.1582  0.0614 -0.6099
 4303SOL     OW17209   2.678   4.373   4.184  0.0711  0.1258  0.1918
 4303SOL    HW117210   2.725   4.453   4.208  0.8359 -0.4323  0.6373
 4303SOL    HW217211   2.586   4.392   4.201  0.3030  0.7305  0.8194
 4303SOL     MW17212   2.673   4.385   4.190  0.1987  0.1318  0.3292
 4304SOL     OW17213   2.860   1.434   4.497  0.3904 -0.1589 -0.2549
 4304SOL    HW117214   2.780   1.483   4.518  1.1995  1.1186 -0.0377
 4304SOL    HW217215   2.883   1.462   4.408  0.0964 -1.2316 -0.6791
 4304SOL     MW17216   2.853   1.444   4.488  0.4563 -0.1327 -0.2814
 4305SOL     OW17217   1.627   1.386   2.131 -0.2212  0.4486  0.0789
 4305SOL    HW117218   1.656   1.476   2.143 -1.4496  0.6572  1.8814
 4305SOL    HW217219   1.539   1.394   2.095 -0.4349 -0.0150  0.4921
 4305SOL     MW17220   1.620   1.398   2.128 -0.4058  0.4160  0.3625
 4306SOL     OW17221   4.209   0.585   0.432 -0.0834  0.0336 -1.0695
 4306SOL    HW117222   4.174   0.514   0.379  0.2429 -0.8623 -0.1151
 4306SOL    HW217223   4.265   0.542   0.496 -1.9853  0.8550  1.2850
 4306SOL     MW17224   4.212   0.571   0.433 -0.2851  0.0240 -0.6459
 4307SOL     OW17225   0.871   2.066   1.798 -0.3764  0.5931 -0.0031
 4307SOL    HW117226   0.839   2.156   1.802  0.1554  0.7263  2.2947
 4307SOL    HW217227   0.831   2.023   1.874  1.0655 -0.5314  0.1520
 4307SOL     MW17228   0.862   2.072   1.808 -0.1238  0.4662  0.3109
 4308SOL     OW17229   3.306   4.345   2.936 -0.1055 -0.0424  0.2781
 4308SOL    HW117230   3.316   4.383   2.848 -1.0519 -0.3415  0.0284
 4308SOL    HW217231   3.395   4.345   2.972  0.0769  1.4504 -0.1054
 4308SOL     MW17232   3.319   4.350   2.929 -0.2033  0.1104  0.1971
 4309SOL     OW17233   2.184   3.537   2.162  0.1592 -0.2060  0.2930
 4309SOL    HW117234   2.158   3.605   2.225 -1.9276 -1.2208  0.6306
 4309SOL    HW217235   2.124   3.550   2.088  1.5700  0.0068 -0.8627
 4309SOL     MW17236   2.173   3.547   2.161  0.0726 -0.3087  0.1883
 4310SOL     OW17237   4.812   4.787   2.634  0.6023 -0.6297  0.3602
 4310SOL    HW117238   4.724   4.787   2.672  0.3163 -0.1806 -0.2941
 4310SOL    HW217239   4.823   4.698   2.601 -0.8711  0.0924 -2.3799
 4310SOL     MW17240   4.802   4.775   2.635  0.3771 -0.4798 -0.0744
 4311SOL     OW17241   4.981   3.124   2.553 -0.0851 -0.4700  0.1910
 4311SOL    HW117242   5.065   3.128   2.598 -0.1432 -0.9169  0.3451
 4311SOL    HW217243   4.921   3.172   2.610 -0.0574 -0.6392  0.3634
 4311SOL     MW17244   4.984   3.131   2.566 -0.0890 -0.5489  0.2328
 4312SOL     OW17245   2.278   3.749   5.246  0.1358  0.1614 -0.1366
 4312SOL    HW117246   2.317   3.673   5.203  1.3302  0.0135  1.1073
 4312SOL    HW217247   2.247   3.805   5.175  2.4993  0.1817 -1.2435
 4312SOL     MW17248   2.279   3.747   5.232  0.5912  0.1451 -0.1191
 4313SOL     OW17249   5.297   0.336   4.756  0.2940  0.1543  0.3890
 4313SOL    HW117250   5.331   0.413   4.802  0.4252 -0.6025  1.5952
 4313SOL    HW217251   5.371   0.275   4.754 -0.4401 -0.8165  1.4727
 4313SOL     MW17252   5.311   0.338   4.762  0.2168 -0.0669  0.6821
 4314SOL     OW17253   1.742   0.857   4.455 -0.3393 -0.0177  0.3627
 4314SOL    HW117254   1.680   0.810   4.399  0.6444 -0.3841 -0.4594
 4314SOL    HW217255   1.699   0.863   4.540  0.1999 -4.1323  1.1090
 4314SOL     MW17256   1.729   0.852   4.459 -0.1444 -0.5913  0.3530
 4315SOL     OW17257   3.529   1.114   5.350 -0.4664 -0.2550 -0.1084
 4315SOL    HW117258   3.454   1.123   5.291  0.0828  0.7108 -0.6769
 4315SOL    HW217259   3.600   1.162   5.307  0.7092 -1.7394  0.0580
 4315SOL     MW17260   3.529   1.121   5.337 -0.2456 -0.3214 -0.1599
 4316SOL     OW17261   4.309   1.240   1.218  0.5938 -0.0763  0.6234
 4316SOL    HW117262   4.370   1.240   1.144  0.5647  0.1329  0.5977
 4316SOL    HW217263   4.242   1.176   1.195  0.6779 -0.1363  0.5467
 4316SOL     MW17264   4.308   1.232   1.206  0.6008 -0.0572  0.6103
 4317SOL     OW17265   1.026   1.009   3.468  0.3214 -0.0362  0.2854
 4317SOL    HW117266   0.988   0.928   3.433  0.8366 -0.1277 -0.0729
 4317SOL    HW217267   1.111   1.016   3.425  0.3594  0.6025  0.4573
 4317SOL     MW17268   1.032   0.999   3.458  0.3922  0.0339  0.2616
 4318SOL     OW17269   3.681   0.149   1.017 -0.3019  0.0036 -0.2843
 4318SOL    HW117270   3.727   0.067   1.037 -1.0431 -0.0349  1.3958
 4318SOL    HW217271   3.690   0.201   1.097 -1.0217  1.0146 -0.8508
 4318SOL     MW17272   3.688   0.145   1.030 -0.4889  0.1281 -0.1417
 4319SOL     OW17273   5.230   1.817   4.929  0.2593  0.4630 -0.1695
 4319SOL    HW117274   5.299   1.871   4.966  0.2508  0.2122  0.2131
 4319SOL    HW217275   5.151   1.844   4.975 -0.0464  1.2653 -1.1080
 4319SOL     MW17276   5.229   1.827   4.939  0.2191  0.5336 -0.2407
 4320SOL     OW17277   0.424   3.391   4.732 -0.0146 -0.2083 -0.1695
 4320SOL    HW117278   0.501   3.339   4.709  0.7449 -1.2339  3.8130
 4320SOL    HW217279   0.351   3.329   4.728  0.3152 -0.7268  1.1034
 4320SOL     MW17280   0.424   3.376   4.729  0.1248 -0.4060  0.5033
 4321SOL     OW17281   1.104   0.423   1.919  0.1096  0.2182 -0.1356
 4321SOL    HW117282   1.138   0.512   1.917 -1.0415  0.6890  0.5121
 4321SOL    HW217283   1.037   0.421   1.851  0.1828 -0.1819 -0.2002
 4321SOL     MW17284   1.100   0.434   1.910 -0.0284  0.2273 -0.0609
 4322SOL     OW17285   5.446   3.823   2.811 -0.0173 -0.4645 -0.2163
 4322SOL    HW117286   5.400   3.834   2.728 -2.7127 -1.0261  1.1064
 4322SOL    HW217287   5.466   3.913   2.839 -0.1426 -0.2187 -0.8954
 4322SOL     MW17288   5.443   3.836   2.804 -0.3784 -0.5049 -0.1339
 4323SOL     OW17289   5.154   5.142   4.423  0.3033  0.2052  0.2348
 4323SOL    HW117290   5.070   5.172   4.388  0.8700 -0.3507 -1.7105
 4323SOL    HW217291   5.187   5.216   4.474 -0.0131  1.5218 -1.4039
 4323SOL     MW17292   5.147   5.155   4.425  0.3354  0.3026 -0.2240
 4324SOL     OW17293   0.239   3.808   2.851 -0.2330 -0.5711  0.4242
 4324SOL    HW117294   0.143   3.806   2.854 -0.2425  0.1651  0.8552
 4324SOL    HW217295   0.263   3.729   2.803 -1.1029 -0.1635 -0.7345
 4324SOL     MW17296   0.230   3.798   2.845 -0.3456 -0.4246  0.3311
 4325SOL     OW17297   1.320   1.391   5.144  0.0895 -0.2325  0.2577
 4325SOL    HW117298   1.311   1.343   5.062 -1.1853 -2.7927  1.7448
 4325SOL    HW217299   1.290   1.480   5.124 -1.9297 -1.2461 -1.6432
 4325SOL     MW17300   1.315   1.396   5.131 -0.3322 -0.6900  0.2047
 4326SOL     OW17301   3.180   2.085   5.484 -0.1376  0.3282  0.3321
 4326SOL    HW117302   3.247   2.065   5.418  2.5925  2.1671  2.3559
 4326SOL    HW217303   3.145   2.000   5.508  0.0248 -0.5445 -2.1617
 4326SOL     MW17304   3.184   2.072   5.478  0.2327  0.4519  0.2719
 4327SOL     OW17305   1.525   3.821   4.264 -0.6338  0.4002  0.3485
 4327SOL    HW117306   1.512   3.739   4.217 -1.8858  1.0883 -0.5684
 4327SOL    HW217307   1.514   3.889   4.197 -0.2626  1.3406  1.2122
 4327SOL     MW17308   1.522   3.819   4.249 -0.7465  0.6086  0.3417
 4328SOL     OW17309   5.348   2.606   2.787 -0.0597 -0.0404  0.1352
 4328SOL    HW117310   5.306   2.624   2.702 -1.1939 -0.2448  0.6318
 4328SOL    HW217311   5.429   2.658   2.785 -1.2366  1.8866 -0.1158
 4328SOL     MW17312   5.353   2.615   2.776 -0.3555  0.1802  0.1666
 4329SOL     OW17313   5.275   3.681   1.167 -0.1657  0.5627  0.0833
 4329SOL    HW117314   5.262   3.773   1.142 -2.0393  0.2729 -0.1306
 4329SOL    HW217315   5.314   3.641   1.089  0.5246  1.1307  0.1243
 4329SOL     MW17316   5.279   3.688   1.154 -0.3172  0.5983  0.0612
 4330SOL     OW17317   3.260   5.366   2.958 -0.0174  0.2033 -0.2180
 4330SOL    HW117318   3.330   5.422   2.991  0.6327 -1.2325  0.9315
 4330SOL    HW217319   3.181   5.395   3.004  0.2547  0.3894  0.1317
 4330SOL     MW17320   3.259   5.377   2.968  0.1006  0.0433 -0.0261
 4331SOL     OW17321   1.828   5.384   5.257  0.1509  0.2054 -0.0400
 4331SOL    HW117322   1.774   5.443   5.204  0.3553  0.4716  0.0475
 4331SOL    HW217323   1.774   5.305   5.267 -0.7066  0.8843  0.9915
 4331SOL     MW17324   1.814   5.381   5.252  0.0673  0.3264  0.1033
 4332SOL     OW17325   3.713   1.568   2.907  0.6158 -0.0214  0.1399
 4332SOL    HW117326   3.658   1.490   2.921 -0.7488  0.6956 -0.9285
 4332SOL    HW217327   3.676   1.633   2.966  0.0519  0.5722 -0.8373
 4332SOL     MW17328   3.701   1.566   2.916  0.3689  0.1464 -0.1220
 4333SOL     OW17329   0.099   1.233   0.653 -0.0785  0.1492  0.0446
 4333SOL    HW117330   0.128   1.303   0.711 -1.2778  2.1374 -1.6434
 4333SOL    HW217331   0.009   1.214   0.681 -0.0510 -0.1208 -0.0434
 4333SOL     MW17332   0.091   1.239   0.664 -0.2285  0.3692 -0.1827
 4334SOL     OW17333   4.668   5.461   4.360 -0.3007 -0.2983 -0.0214
 4334SOL    HW117334   4.757   5.487   4.384  0.5836 -1.3790 -1.8795
 4334SOL    HW217335   4.639   5.530   4.299  0.1188 -1.0165 -1.0648
 4334SOL     MW17336   4.676   5.473   4.355 -0.1338 -0.5286 -0.3928
 4335SOL     OW17337   3.646   2.445   0.720 -0.0754  0.2014  0.2857
 4335SOL    HW117338   3.700   2.444   0.799  0.4452  0.3387 -0.0633
 4335SOL    HW217339   3.705   2.416   0.650 -0.3427  0.7427 -0.1699
 4335SOL     MW17340   3.661   2.441   0.721 -0.0430  0.2883  0.1827
 4336SOL     OW17341   5.084   0.650   1.706 -0.1099  0.3381  0.1085
 4336SOL    HW117342   5.156   0.712   1.710  1.1342 -1.1084  2.7637
 4336SOL    HW217343   5.006   0.703   1.724  0.6665  1.4470  0.3187
 4336SOL     MW17344   5.083   0.665   1.709  0.1487  0.2949  0.4753
 4337SOL     OW17345   4.561   5.335   1.485  0.0949  0.9266  0.4616
 4337SOL    HW117346   4.636   5.394   1.492  2.9420 -2.3021  0.0464
 4337SOL    HW217347   4.558   5.291   1.570 -0.2597 -0.1383 -0.0853
 4337SOL     MW17348   4.570   5.337   1.497  0.4140  0.3769  0.3385
 4338SOL     OW17349   2.226   1.759   1.740  0.2330  0.0540 -0.2881
 4338SOL    HW117350   2.138   1.734   1.712 -0.5279  0.0611  1.8830
 4338SOL    HW217351   2.262   1.808   1.666 -0.9569 -1.3005 -1.8508
 4338SOL     MW17352   2.219   1.762   1.727 -0.0167 -0.1185 -0.2102
 4339SOL     OW17353   3.688   1.848   4.847  0.3489  0.0396  0.0253
 4339SOL    HW117354   3.612   1.867   4.792  0.8745  0.2147 -0.6522
 4339SOL    HW217355   3.688   1.916   4.914  0.4255  0.5792 -0.5177
 4339SOL     MW17356   3.679   1.859   4.849  0.4260  0.1311 -0.1310
 4340SOL     OW17357   2.159   0.224   2.386 -0.7042 -0.1144  0.5318
 4340SOL    HW117358   2.153   0.133   2.356  0.2341 -0.7050  1.9911
 4340SOL    HW217359   2.213   0.219   2.466  0.3502  1.8688  0.0075
 4340SOL     MW17360   2.165   0.211   2.393 -0.4491  0.0639  0.6515
 4341SOL     OW17361   2.823   4.780   0.214  1.0165  0.2164  0.2287
 4341SOL    HW117362   2.742   4.730   0.203  2.2493 -1.9352  0.3969
 4341SOL    HW217363   2.831   4.830   0.132  0.1820 -0.5279 -0.3303
 4341SOL     MW17364   2.813   4.780   0.202  1.0675 -0.1543  0.1786
 4342SOL     OW17365   4.442   2.153   1.963  0.0861  0.0279 -0.0169
 4342SOL    HW117366   4.417   2.060   1.955 -2.3266  0.5441  0.5865
 4342SOL    HW217367   4.463   2.164   2.056  1.4817 -0.1343 -0.3001
 4342SOL     MW17368   4.441   2.142   1.974 -0.0441  0.0732  0.0241
 4343SOL     OW17369   0.595   3.476   0.148  0.5610  0.0675  0.2003
 4343SOL    HW117370   0.672   3.450   0.096  0.7344  0.0682  0.4567
 4343SOL    HW217371   0.602   3.425   0.229  1.9078  2.2043  1.5269
 4343SOL     MW17372   0.606   3.466   0.151  0.7556  0.3411  0.4030
 4344SOL     OW17373   4.721   0.831   4.612  0.0803  0.0015  0.6526
 4344SOL    HW117374   4.777   0.909   4.624 -0.4549  0.5453 -0.2689
 4344SOL    HW217375   4.742   0.800   4.524 -0.6892 -0.0917  0.4973
 4344SOL     MW17376   4.731   0.837   4.602 -0.0868  0.0592  0.5148
 4345SOL     OW17377   0.623   1.890   4.987  0.1325 -0.4060 -0.3242
 4345SOL    HW117378   0.558   1.820   4.978  0.7980 -1.1799  0.7183
 4345SOL    HW217379   0.708   1.845   4.983  0.5699  0.0918  1.8367
 4345SOL     MW17380   0.626   1.875   4.985  0.2737 -0.4414  0.0859
 4346SOL     OW17381   5.342   4.967   0.164  0.2373  0.4140  0.2594
 4346SOL    HW117382   5.306   5.055   0.169  0.8219  0.5753  2.2796
 4346SOL    HW217383   5.266   4.911   0.150 -0.1055  1.2333 -1.3455
 4346SOL     MW17384   5.328   4.971   0.163  0.2683  0.5395  0.3126
 4347SOL     OW17385   2.429   3.781   0.820  0.0617  0.4255  0.3087
 4347SOL    HW117386   2.510   3.832   0.820 -0.4098  1.2791 -2.0019
 4347SOL    HW217387   2.457   3.692   0.843  1.6627  0.7028 -0.4203
 4347SOL     MW17388   2.443   3.776   0.823  0.2063  0.5702 -0.0804
 4348SOL     OW17389   4.876   0.753   0.876 -0.1369 -0.7762  0.2319
 4348SOL    HW117390   4.954   0.793   0.837 -1.0836 -0.2224 -1.1916
 4348SOL    HW217391   4.813   0.825   0.884 -0.3012 -1.0859  1.9627
 4348SOL     MW17392   4.878   0.767   0.872 -0.2791 -0.7450  0.2713
 4349SOL     OW17393   3.677   5.193   1.891  0.2537  0.0967 -0.3572
 4349SOL    HW117394   3.651   5.103   1.908  0.1188  0.5156  1.9758
 4349SOL    HW217395   3.596   5.243   1.897  0.7415  0.7399  1.6840
 4349SOL     MW17396   3.664   5.188   1.894  0.2989  0.2327  0.2028
 4350SOL     OW17397   5.103   3.369   0.854  0.0494 -0.1576 -0.4968
 4350SOL    HW117398   5.061   3.294   0.895 -1.8751  2.1265  2.0901
 4350SOL    HW217399   5.177   3.390   0.912  1.5912 -0.9465 -2.0966
 4350SOL     MW17400   5.107   3.362   0.867  0.0004  0.0338 -0.3704
 4351SOL     OW17401   0.580   2.470   1.193  0.3834  0.3554  0.0722
 4351SOL    HW117402   0.670   2.447   1.215 -0.5725 -3.0778  1.1462
 4351SOL    HW217403   0.571   2.448   1.100  0.2809 -0.9344  0.3666
 4351SOL     MW17404   0.590   2.464   1.184  0.2479 -0.2492  0.2474
 4352SOL     OW17405   0.161   2.533   4.567 -0.8274 -0.3660  0.5244
 4352SOL    HW117406   0.150   2.438   4.563  1.1466 -0.6289  0.6675
 4352SOL    HW217407   0.150   2.562   4.477  0.1603 -0.9366  0.2108
 4352SOL     MW17408   0.158   2.524   4.555 -0.4482 -0.4727  0.5026
 4353SOL     OW17409   4.414   3.728   5.280  0.2617  0.1052 -0.2971
 4353SOL    HW117410   4.395   3.807   5.331 -2.2223 -0.9288  0.4981
 4353SOL    HW217411   4.347   3.665   5.306  2.7347 -2.6897 -0.1223
 4353SOL     MW17412   4.403   3.730   5.289  0.2603 -0.3849 -0.1729
 4354SOL     OW17413   0.757   2.345   5.259 -0.3025 -0.1933  0.3296
 4354SOL    HW117414   0.736   2.362   5.351 -0.7486  1.5366 -0.0539
 4354SOL    HW217415   0.715   2.416   5.211  3.7041  1.7278 -0.7690
 4354SOL     MW17416   0.749   2.356   5.265  0.1533  0.2741  0.1399
 4355SOL     OW17417   0.449   0.241   0.168  0.3030  0.3140  0.2581
 4355SOL    HW117418   0.392   0.303   0.123  0.3587  0.3151  0.1880
 4355SOL    HW217419   0.486   0.291   0.241  0.1421  0.2858  0.3588
 4355SOL     MW17420   0.447   0.256   0.171  0.2895  0.3105  0.2620
 4356SOL     OW17421   0.621   3.902   2.799  0.2189 -0.4822  1.0175
 4356SOL    HW117422   0.567   3.978   2.822 -0.1420 -0.3945 -0.1034
 4356SOL    HW217423   0.577   3.828   2.840  0.6303 -0.1041  2.2172
 4356SOL     MW17424   0.609   3.902   2.807  0.2253 -0.4226  1.0276
 4357SOL     OW17425   4.809   5.162   0.463  0.4669 -0.4691  0.4876
 4357SOL    HW117426   4.732   5.219   0.461  0.5116 -0.3997 -1.7767
 4357SOL    HW217427   4.825   5.146   0.556 -0.7992  1.5140  1.1078
 4357SOL     MW17428   4.801   5.167   0.475  0.3106 -0.2064  0.2771
 4358SOL     OW17429   3.179   2.408   1.290  0.2881 -0.4856  0.4884
 4358SOL    HW117430   3.189   2.315   1.271 -2.6563 -0.9367  0.7266
 4358SOL    HW217431   3.159   2.411   1.384  0.5422  0.4122  0.5212
 4358SOL     MW17432   3.178   2.396   1.300 -0.0563 -0.4284  0.5231
 4359SOL     OW17433   0.331   4.065   1.840  0.3360 -0.1417  0.3481
 4359SOL    HW117434   0.360   4.051   1.930 -0.8392  1.2936  0.9698
 4359SOL    HW217435   0.268   3.995   1.824 -0.5051  0.4204  1.1344
 4359SOL     MW17436   0.327   4.054   1.849  0.0779  0.1140  0.5283
 4360SOL     OW17437   3.547   2.485   3.847 -0.3306  0.6461 -0.5252
 4360SOL    HW117438   3.459   2.448   3.856 -0.2267  0.9056  3.1204
 4360SOL    HW217439   3.597   2.445   3.919  1.9928  1.9565 -1.3047
 4360SOL     MW17440   3.542   2.475   3.858 -0.0199  0.8471 -0.1583
 4361SOL     OW17441   4.410   1.138   5.190 -0.3976  0.3440  0.6312
 4361SOL    HW117442   4.400   1.055   5.143 -0.4790  0.7539 -0.0823
 4361SOL    HW217443   4.333   1.142   5.248  0.1031 -0.5257  1.3877
 4361SOL     MW17444   4.399   1.128   5.192 -0.3439  0.2851  0.6367
 4362SOL     OW17445   0.566   1.057   5.321  0.4279  0.3533  0.4033
 4362SOL    HW117446   0.647   1.078   5.367 -0.2914  2.1029  0.9343
 4362SOL    HW217447   0.511   1.134   5.331 -0.9350 -0.3960 -0.8185
 4362SOL     MW17448   0.569   1.069   5.328  0.1614  0.4814  0.3149
 4363SOL     OW17449   1.762   0.550   4.084  0.2744  0.3341  0.4350
 4363SOL    HW117450   1.696   0.556   4.154  1.4145 -0.6175  1.6485
 4363SOL    HW217451   1.845   0.570   4.127  0.9180  0.5705 -0.8541
 4363SOL     MW17452   1.764   0.553   4.099  0.5028  0.2425  0.4253
 4364SOL     OW17453   1.983   5.123   1.002 -0.3794 -0.1723 -0.3418
 4364SOL    HW117454   1.911   5.084   0.952 -0.3023  1.5316 -1.8643
 4364SOL    HW217455   1.969   5.217   0.995  0.9002  0.1584  1.0342
 4364SOL     MW17456   1.972   5.130   0.995 -0.2058  0.0881 -0.3605
 4365SOL     OW17457   4.937   2.712   2.502 -0.7928  0.8283 -0.3794
 4365SOL    HW117458   4.916   2.630   2.547  0.3378  0.9492  0.4109
 4365SOL    HW217459   4.950   2.776   2.573 -1.0135  1.5338 -0.9564
 4365SOL     MW17460   4.936   2.710   2.517 -0.6763  0.9341 -0.3521
 4366SOL     OW17461   1.996   2.013   2.583 -0.1781  0.3917 -0.4680
 4366SOL    HW117462   1.966   2.028   2.493 -1.7983  0.8101  0.0940
 4366SOL    HW217463   1.989   1.918   2.595  1.1833  0.1786 -1.1218
 4366SOL     MW17464   1.991   2.003   2.573 -0.2112  0.4180 -0.4798
 4367SOL     OW17465   1.398   2.059   4.394 -0.2939 -0.1067  0.2171
 4367SOL    HW117466   1.311   2.056   4.432  0.8278 -1.0309  2.9192
 4367SOL    HW217467   1.417   1.968   4.368  0.6229 -0.3483  1.6208
 4367SOL     MW17468   1.389   2.047   4.395 -0.0329 -0.2560  0.7427
 4368SOL     OW17469   3.201   1.455   2.359  0.2454 -0.1703 -0.1544
 4368SOL    HW117470   3.146   1.377   2.366  0.5017 -0.2247  1.6196
 4368SOL    HW217471   3.291   1.422   2.365  0.3479  0.2708  0.8899
 4368SOL     MW17472   3.206   1.441   2.360  0.2913 -0.1208  0.2064
 4369SOL     OW17473   3.084   3.825   0.955  0.1420 -0.5609  0.3056
 4369SOL    HW117474   3.076   3.764   0.882  0.8652 -0.5832  0.2330
 4369SOL    HW217475   3.026   3.898   0.932 -0.0392 -0.8120 -0.0383
 4369SOL     MW17476   3.076   3.827   0.942  0.2114 -0.5959  0.2523
 4370SOL     OW17477   3.508   1.372   2.095 -0.7146 -0.0246  0.1298
 4370SOL    HW117478   3.446   1.330   2.035  0.2793 -0.0915 -0.8828
 4370SOL    HW217479   3.486   1.465   2.090 -1.2409 -0.1350  0.3782
 4370SOL     MW17480   3.497   1.379   2.086 -0.6547 -0.0473  0.0320
 4371SOL     OW17481   3.330   0.691   2.307  0.4593 -0.2700 -0.7767
 4371SOL    HW117482   3.295   0.641   2.234 -3.4503  3.4940 -1.8811
 4371SOL    HW217483   3.382   0.760   2.267  0.3598  0.3779  0.1674
 4371SOL     MW17484   3.333   0.693   2.293 -0.0539  0.2948 -0.7972
 4372SOL     OW17485   1.417   4.862   0.468 -0.0676 -0.2183 -0.5971
 4372SOL    HW117486   1.487   4.906   0.419  0.6764  0.9582  1.4168
 4372SOL    HW217487   1.454   4.776   0.489  1.0924  0.5877  0.9259
 4372SOL     MW17488   1.431   4.857   0.464  0.1761  0.0355 -0.1443
 4373SOL     OW17489   2.584   3.303   3.720 -0.5026 -0.0704  0.2704
 4373SOL    HW117490   2.502   3.331   3.679 -0.7230 -1.6217 -0.4458
 4373SOL    HW217491   2.650   3.319   3.652 -0.4162  0.0126  0.3754
 4373SOL     MW17492   2.582   3.308   3.706 -0.5198 -0.2583  0.1922
 4374SOL     OW17493   1.411   1.757   5.487  0.2261  0.1906  0.2264
 4374SOL    HW117494   1.486   1.802   5.527 -1.7096  2.3516  1.7254
 4374SOL    HW217495   1.398   1.803   5.404 -0.8225  1.4787  1.0624
 4374SOL     MW17496   1.419   1.769   5.482 -0.1559  0.6321  0.5253
 4375SOL     OW17497   1.349   1.602   3.842  0.7039  0.0311 -0.2940
 4375SOL    HW117498   1.283   1.655   3.797  1.9791  0.5703 -1.6247
 4375SOL    HW217499   1.331   1.512   3.814  0.6362  0.2020 -0.8020
 4375SOL     MW17500   1.339   1.597   3.832  0.8584  0.1220 -0.5294
 4376SOL     OW17501   0.572   1.298   1.599  0.5250 -0.1900  0.3670
 4376SOL    HW117502   0.494   1.256   1.563  0.2892 -0.7786  1.5369
 4376SOL    HW217503   0.551   1.392   1.597 -1.4378 -0.4253  3.2584
 4376SOL     MW17504   0.559   1.305   1.594  0.2436 -0.2954  0.8869
 4377SOL     OW17505   2.391   1.843   2.622  0.3149  0.3411 -0.1059
 4377SOL    HW117506   2.463   1.884   2.575 -0.2939 -0.1695 -1.5583
 4377SOL    HW217507   2.432   1.772   2.672  1.0172  1.1009  0.4264
 4377SOL     MW17508   2.405   1.839   2.622  0.3269  0.3730 -0.2237
 4378SOL     OW17509   3.835   0.613   1.420  0.9092  0.1749  0.0593
 4378SOL    HW117510   3.908   0.552   1.408 -0.1764 -0.7328 -3.0448
 4378SOL    HW217511   3.871   0.699   1.397  1.5091  0.0968  0.6860
 4378SOL     MW17512   3.849   0.616   1.415  0.8470  0.0487 -0.2579
 4379SOL     OW17513   1.744   2.897   3.885  0.2436 -0.1553 -0.5317
 4379SOL    HW117514   1.825   2.868   3.843  1.0033  0.5163  0.4010
 4379SOL    HW217515   1.699   2.817   3.910 -0.4362 -0.5972 -2.9175
 4379SOL     MW17516   1.749   2.883   3.883  0.2538 -0.1259 -0.7177
 4380SOL     OW17517   0.495   0.672   0.278 -0.3302  0.4113  0.0334
 4380SOL    HW117518   0.498   0.590   0.327 -0.8989 -0.8767 -1.9527
 4380SOL    HW217519   0.428   0.724   0.322 -0.9060 -0.7380  0.5678
 4380SOL     MW17520   0.487   0.668   0.290 -0.4767  0.0993 -0.1524
 4381SOL     OW17521   1.657   1.449   3.743  0.0628  0.1084  0.5532
 4381SOL    HW117522   1.691   1.536   3.725  1.4378 -0.8795 -2.1379
 4381SOL    HW217523   1.570   1.448   3.703  0.6206 -0.1511 -0.6959
 4381SOL     MW17524   1.650   1.460   3.736  0.3102 -0.0513  0.0488
 4382SOL     OW17525   4.975   3.589   3.076  0.0619 -0.4051 -0.4013
 4382SOL    HW117526   4.927   3.547   3.005  0.0907 -1.3603  0.1381
 4382SOL    HW217527   4.907   3.628   3.131 -0.0468 -0.9202 -0.1660
 4382SOL     MW17528   4.960   3.589   3.074  0.0517 -0.5933 -0.3022
 4383SOL     OW17529   1.577   0.296   1.446 -0.4167  0.3345  0.4529
 4383SOL    HW117530   1.648   0.301   1.382 -0.3717 -2.7916  0.1011
 4383SOL    HW217531   1.622   0.275   1.529 -0.7545  0.6109  0.7078
 4383SOL     MW17532   1.592   0.294   1.449 -0.4542 -0.0303  0.4405
 4384SOL     OW17533   2.880   3.536   0.785  0.1102  0.3064 -0.0625
 4384SOL    HW117534   2.874   3.474   0.713  1.3122  0.3543 -0.2304
 4384SOL    HW217535   2.974   3.548   0.799 -0.0679 -0.1736  1.9207
 4384SOL     MW17536   2.891   3.529   0.778  0.2413  0.2511  0.1698
 4385SOL     OW17537   4.199   3.884   1.702  0.0428  0.0535 -0.1059
 4385SOL    HW117538   4.124   3.923   1.656 -0.4649  0.3145  0.9182
 4385SOL    HW217539   4.264   3.954   1.705 -1.0123  1.0296  2.0702
 4385SOL     MW17540   4.198   3.898   1.697 -0.1572  0.2118  0.3038
 4386SOL     OW17541   4.111   0.603   2.168  0.0854  0.4661  0.7050
 4386SOL    HW117542   4.103   0.633   2.259  0.6473 -0.5638  1.1155
 4386SOL    HW217543   4.198   0.633   2.141 -0.6312  1.9954  0.0147
 4386SOL     MW17544   4.121   0.611   2.176  0.0656  0.5301  0.6692
 4387SOL     OW17545   0.054   1.656   2.111  0.2224  0.8800  0.5538
 4387SOL    HW117546   0.068   1.736   2.162 -1.7646  0.9381  1.0979
 4387SOL    HW217547  -0.007   1.604   2.164  1.3417 -0.9540  0.1460
 4387SOL     MW17548   0.048   1.659   2.125  0.1113  0.6527  0.5712
 4388SOL     OW17549   4.579   4.772   2.771  0.5471 -0.0038  0.0153
 4388SOL    HW117550   4.619   4.779   2.857 -0.3808  0.6246  0.4223
 4388SOL    HW217551   4.526   4.852   2.763 -0.4829 -0.7232 -0.5504
 4388SOL     MW17552   4.577   4.783   2.781  0.2965 -0.0154 -0.0051
 4389SOL     OW17553   1.108   2.068   1.454  0.2885  0.1477 -0.4819
 4389SOL    HW117554   1.134   2.151   1.414  0.1791 -0.0186 -0.9056
 4389SOL    HW217555   1.012   2.068   1.447  0.3778 -0.8882 -2.2870
 4389SOL     MW17556   1.099   2.079   1.448  0.2859 -0.0062 -0.7672
 4390SOL     OW17557   0.644   1.443   0.499  0.3319  0.4455  0.8111
 4390SOL    HW117558   0.598   1.359   0.500  0.7548  0.2125  0.9452
 4390SOL    HW217559   0.733   1.421   0.526  0.1423  1.1228  2.0393
 4390SOL     MW17560   0.650   1.429   0.502  0.3618  0.5024  0.9855
 4391SOL     OW17561   0.196   2.320   4.924 -0.1839  0.3421  0.1901
 4391SOL    HW117562   0.102   2.303   4.930  0.2668 -2.2245  1.6708
 4391SOL    HW217563   0.229   2.252   4.864  0.6669  1.7225 -0.9808
 4391SOL     MW17564   0.188   2.309   4.917 -0.0173  0.1902  0.2298
 4392SOL     OW17565   2.765   1.960   0.017  0.0166  0.2366 -0.2520
 4392SOL    HW117566   2.745   1.916   0.099 -0.2662  2.3034  0.8348
 4392SOL    HW217567   2.680   1.982  -0.021  0.1086 -1.4452 -1.5977
 4392SOL     MW17568   2.752   1.957   0.023 -0.0078  0.2859 -0.2851
 4393SOL     OW17569   3.714   0.253   4.371 -0.3306 -0.0623  0.1339
 4393SOL    HW117570   3.682   0.331   4.328  1.6547  0.5858 -0.2846
 4393SOL    HW217571   3.759   0.285   4.449 -0.4644 -0.8962  0.5704
 4393SOL     MW17572   3.716   0.267   4.375 -0.0936 -0.0860  0.1362
 4394SOL     OW17573   3.290   0.783   4.208  0.2518 -0.1088  0.2396
 4394SOL    HW117574   3.246   0.764   4.126  1.5347 -0.8888 -0.3036
 4394SOL    HW217575   3.295   0.879   4.210  0.5150 -0.0843 -0.7745
 4394SOL     MW17576   3.285   0.793   4.198  0.4497 -0.2055  0.0402
 4395SOL     OW17577   3.050   1.990   4.327 -0.0600  0.0968  0.4320
 4395SOL    HW117578   2.984   2.009   4.393  0.7907 -0.1263  1.3750
 4395SOL    HW217579   3.119   1.943   4.374 -0.5693 -2.3945 -1.1027
 4395SOL     MW17580   3.051   1.986   4.341 -0.0163 -0.2507  0.3562
 4396SOL     OW17581   0.578   1.168   0.560 -0.5289  0.2348  0.1631
 4396SOL    HW117582   0.646   1.105   0.585 -0.3944  0.7102  1.0251
 4396SOL    HW217583   0.506   1.150   0.620 -0.2845  1.2465  0.7855
 4396SOL     MW17584   0.578   1.157   0.571 -0.4804  0.4252  0.3531
 4397SOL     OW17585   5.255   1.861   2.916  0.2542  0.4744 -0.5165
 4397SOL    HW117586   5.334   1.811   2.938  0.9804  0.6406 -2.4850
 4397SOL    HW217587   5.191   1.795   2.889  0.3066  0.4428 -0.5635
 4397SOL     MW17588   5.257   1.846   2.915  0.3538  0.4916 -0.7745
 4398SOL     OW17589   1.414   4.926   4.110  0.1999 -0.5472 -0.1212
 4398SOL    HW117590   1.370   4.846   4.080 -0.9224 -0.6899  1.7463
 4398SOL    HW217591   1.398   4.929   4.204  0.4161  1.7695 -0.0909
 4398SOL     MW17592   1.406   4.916   4.118  0.0839 -0.2689  0.1217
 4399SOL     OW17593   3.638   4.113   0.012  0.0386 -0.4877 -0.3674
 4399SOL    HW117594   3.716   4.133   0.062 -0.1775 -1.0672  0.2153
 4399SOL    HW217595   3.630   4.185  -0.050 -0.4830  1.0382  1.3753
 4399SOL     MW17596   3.647   4.125   0.011 -0.0559 -0.3666 -0.0697
 4400SOL     OW17597   1.459   2.232   3.520 -0.4068 -0.3838 -0.2595
 4400SOL    HW117598   1.455   2.146   3.563 -1.1179  0.5556  1.6500
 4400SOL    HW217599   1.542   2.269   3.548 -0.1389 -0.4047 -1.0160
 4400SOL     MW17600   1.469   2.225   3.529 -0.4636 -0.2662 -0.1119
 4401SOL     OW17601   3.883   0.966   4.244 -0.2737 -0.2142  0.2455
 4401SOL    HW117602   3.860   0.992   4.155  1.9564  1.8678  0.1502
 4401SOL    HW217603   3.960   0.910   4.234 -0.6974 -0.8992  0.8021
 4401SOL     MW17604   3.890   0.962   4.231 -0.0425 -0.0354  0.3046
 4402SOL     OW17605   4.823   2.777   2.265  0.0761 -0.1370  0.4882
 4402SOL    HW117606   4.884   2.718   2.221  1.4444  1.6993 -0.2083
 4402SOL    HW217607   4.842   2.767   2.358  0.3934 -0.6442  0.3717
 4402SOL     MW17608   4.833   2.768   2.271  0.2919  0.0331  0.3841
 4403SOL     OW17609   4.258   0.231   5.098  0.0204  0.3105 -0.3076
 4403SOL    HW117610   4.167   0.261   5.098 -0.0874 -0.0076 -0.8650
 4403SOL    HW217611   4.294   0.264   5.016  0.6087  1.0205  0.2245
 4403SOL     MW17612   4.251   0.239   5.088  0.0819  0.3607 -0.3109
 4404SOL     OW17613   3.908   0.276   4.562 -0.3992 -0.1107  0.2230
 4404SOL    HW117614   3.984   0.334   4.553 -1.0788  0.4471 -5.0876
 4404SOL    HW217615   3.940   0.191   4.533 -1.6555  0.0883 -1.8874
 4404SOL     MW17616   3.922   0.273   4.557 -0.6470 -0.0139 -0.7270
 4405SOL     OW17617   3.581   1.064   2.916 -0.2131  0.0461 -0.4666
 4405SOL    HW117618   3.509   1.007   2.945 -0.2295  1.0295  1.6756
 4405SOL    HW217619   3.658   1.006   2.916 -0.0983  0.0504  2.3316
 4405SOL     MW17620   3.582   1.049   2.920 -0.2005  0.1725  0.1658
 4406SOL     OW17621   0.777   3.651   5.127 -0.5362  0.0040 -0.3622
 4406SOL    HW117622   0.803   3.561   5.146  1.9241  0.6279 -0.3922
 4406SOL    HW217623   0.835   3.678   5.055 -1.4644  1.5036 -0.5998
 4406SOL     MW17624   0.788   3.643   5.120 -0.3400  0.2758 -0.3964
 4407SOL     OW17625   4.424   1.933   0.824 -0.5651 -0.8395 -0.7071
 4407SOL    HW117626   4.460   1.884   0.750  0.7808 -1.2973  0.2069
 4407SOL    HW217627   4.499   1.980   0.860 -1.3362 -0.0904 -0.0329
 4407SOL     MW17628   4.438   1.932   0.819 -0.4915 -0.8022 -0.5038
 4408SOL     OW17629   4.039   5.181   0.064 -0.0435  0.3090 -0.1009
 4408SOL    HW117630   4.130   5.176   0.093 -0.0224 -2.1142 -0.4117
 4408SOL    HW217631   3.998   5.243   0.125  1.0459 -1.1441  2.2523
 4408SOL     MW17632   4.045   5.188   0.075  0.0987 -0.1872  0.1605
 4409SOL     OW17633   3.688   3.279   1.733  0.4169 -0.7201  0.2019
 4409SOL    HW117634   3.650   3.240   1.654 -0.0136  0.8074 -0.3885
 4409SOL    HW217635   3.614   3.323   1.775  1.2986  1.5730 -0.5160
 4409SOL     MW17636   3.674   3.280   1.728  0.4746 -0.2310  0.0344
 4410SOL     OW17637   3.289   0.349   4.815 -0.5288  0.0449 -0.6677
 4410SOL    HW117638   3.289   0.272   4.758 -0.6877  0.5547 -1.3660
 4410SOL    HW217639   3.217   0.402   4.784 -1.2447 -0.1083  0.6370
 4410SOL     MW17640   3.280   0.346   4.804 -0.6408  0.0906 -0.5901
 4411SOL     OW17641   2.389   4.341   3.614 -0.0764  0.2156 -0.3533
 4411SOL    HW117642   2.394   4.366   3.706  0.1909  0.4206 -0.4228
 4411SOL    HW217643   2.444   4.404   3.568  2.0654 -1.5021 -0.3174
 4411SOL     MW17644   2.397   4.352   3.620  0.2320  0.0220 -0.3576
 4412SOL     OW17645   5.242   3.744   4.220  0.4409  0.1188 -0.0877
 4412SOL    HW117646   5.316   3.689   4.244  0.0074 -0.8895 -0.9896
 4412SOL    HW217647   5.280   3.815   4.169  0.9300  0.3316  0.5557
 4412SOL     MW17648   5.256   3.746   4.217  0.4480  0.0169 -0.1208
 4413SOL     OW17649   4.687   3.430   3.601  0.4049  0.3529  0.2434
 4413SOL    HW117650   4.631   3.352   3.602  0.3354  0.3579 -1.0649
 4413SOL    HW217651   4.720   3.437   3.690  1.2287 -1.7599  0.1587
 4413SOL     MW17652   4.684   3.421   3.612  0.5015  0.0831  0.0651
 4414SOL     OW17653   2.108   4.248   1.751  0.5555  0.3082  0.2681
 4414SOL    HW117654   2.061   4.264   1.833 -0.8925  1.0962 -0.6770
 4414SOL    HW217655   2.095   4.328   1.700 -0.9005 -1.1332 -1.8126
 4414SOL     MW17656   2.100   4.260   1.755  0.1838  0.2245 -0.1192
 4415SOL     OW17657   2.757   4.112   4.250  0.4952  0.2418  0.1127
 4415SOL    HW117658   2.745   4.049   4.179  0.8205  1.1395 -0.7596
 4415SOL    HW217659   2.779   4.194   4.206  1.3822  0.6623  1.2863
 4415SOL     MW17660   2.758   4.115   4.235  0.6504  0.4105  0.1513
 4416SOL     OW17661   3.120   0.219   3.859  0.2369  0.1224 -0.9691
 4416SOL    HW117662   3.060   0.263   3.797  2.3476  0.1896 -3.1010
 4416SOL    HW217663   3.136   0.134   3.819  2.1747  0.4226 -0.9162
 4416SOL     MW17664   3.114   0.214   3.846  0.7551  0.1695 -1.2352
 4417SOL     OW17665   1.609   5.057   4.296  0.0989 -0.0489  0.4027
 4417SOL    HW117666   1.621   5.135   4.241  3.2136 -1.8305 -1.7420
 4417SOL    HW217667   1.552   5.000   4.246  0.3200 -0.3828  0.5261
 4417SOL     MW17668   1.603   5.060   4.283  0.5260 -0.3197  0.1440
 4418SOL     OW17669   0.173   0.003   1.404  0.3841 -1.0651 -0.0938
 4418SOL    HW117670   0.115   0.049   1.463  0.8038 -0.7939  0.1154
 4418SOL    HW217671   0.172   0.055   1.323  1.1340 -0.4691  0.2620
 4418SOL     MW17672   0.166   0.016   1.401  0.5338 -0.9541 -0.0215
 4419SOL     OW17673   4.858   0.048   2.180  0.0113 -0.3102  0.2644
 4419SOL    HW117674   4.798   0.028   2.252  0.9453  0.8816  1.4131
 4419SOL    HW217675   4.803   0.089   2.113 -0.6997 -0.5658  0.6864
 4419SOL     MW17676   4.843   0.051   2.180  0.0399 -0.1904  0.4654
 4420SOL     OW17677   1.525   0.925   1.080  0.2280  0.6697  0.2269
 4420SOL    HW117678   1.466   0.972   1.022 -0.5842 -0.9495 -0.3298
 4420SOL    HW217679   1.468   0.888   1.148  0.3256 -1.9638 -1.0093
 4420SOL     MW17680   1.510   0.926   1.081  0.1365  0.1253 -0.0026
 4421SOL     OW17681   0.067   1.752   5.402 -0.0497  0.3733 -0.0666
 4421SOL    HW117682   0.057   1.787   5.490  1.8186  0.2628  0.2123
 4421SOL    HW217683  -0.023   1.731   5.375 -0.9512  2.8785  0.7369
 4421SOL     MW17684   0.054   1.754   5.410  0.0740  0.6798  0.0719
 4422SOL     OW17685   0.628   2.328   4.700 -0.0979  0.1596  0.1513
 4422SOL    HW117686   0.544   2.371   4.685 -1.7677 -3.2032 -1.2131
 4422SOL    HW217687   0.666   2.318   4.613  0.9860  0.2268  0.5978
 4422SOL     MW17688   0.622   2.332   4.687 -0.1729 -0.2623  0.0338
 4423SOL     OW17689   5.166   1.965   5.405  0.0950  0.5280 -1.0941
 4423SOL    HW117690   5.156   1.877   5.368 -0.1780  0.3000 -0.4951
 4423SOL    HW217691   5.238   2.004   5.356  1.2462 -0.5874 -0.3434
 4423SOL     MW17692   5.174   1.959   5.394  0.2074  0.3561 -0.9214
 4424SOL     OW17693   0.267   2.768   2.886 -0.7332 -0.6979  0.5248
 4424SOL    HW117694   0.195   2.740   2.829  0.6134 -0.0501 -1.6114
 4424SOL    HW217695   0.225   2.822   2.953 -2.2726 -0.5394 -0.5170
 4424SOL     MW17696   0.252   2.772   2.887 -0.7579 -0.5947  0.1180
 4425SOL     OW17697   0.202   3.256   3.721 -0.4584  0.4698  0.5546
 4425SOL    HW117698   0.271   3.318   3.745 -2.0405  2.6225 -0.1776
 4425SOL    HW217699   0.129   3.278   3.778 -1.0796 -0.7340  0.2483
 4425SOL     MW17700   0.202   3.267   3.731 -0.7405  0.5913  0.4217
 4426SOL     OW17701   1.232   3.047   0.816  0.3846  0.1050 -0.0636
 4426SOL    HW117702   1.190   3.077   0.735  0.0134 -0.7558 -0.2038
 4426SOL    HW217703   1.185   2.967   0.839 -0.3154  0.9685  1.6846
 4426SOL     MW17704   1.221   3.040   0.808  0.2475  0.1054  0.1423
 4427SOL     OW17705   2.870   5.327   2.316 -0.3844 -0.5493 -0.0387
 4427SOL    HW117706   2.882   5.348   2.409  0.3066 -0.8550 -0.0512
 4427SOL    HW217707   2.814   5.397   2.283  1.0345  0.7310  0.1384
 4427SOL     MW17708   2.865   5.339   2.324 -0.1143 -0.4246 -0.0176
 4428SOL     OW17709   4.407   4.056   1.567 -0.2435  0.2327  0.5098
 4428SOL    HW117710   4.443   4.000   1.498 -1.0944  0.6630 -0.3024
 4428SOL    HW217711   4.466   4.131   1.569  0.7631 -0.5450  1.4393
 4428SOL     MW17712   4.419   4.058   1.558 -0.2236  0.1882  0.5248
 4429SOL     OW17713   4.212   1.439   1.379  0.5112 -0.1308  0.0616
 4429SOL    HW117714   4.148   1.373   1.403 -0.7717  1.3329  0.8587
 4429SOL    HW217715   4.272   1.394   1.319 -0.8825 -1.7078 -0.2241
 4429SOL     MW17716   4.212   1.425   1.375  0.1685 -0.1453  0.1271
 4430SOL     OW17717   4.859   2.437   4.402 -0.1280 -0.1408  0.2622
 4430SOL    HW117718   4.885   2.473   4.317  0.7791 -0.1103  0.5416
 4430SOL    HW217719   4.765   2.455   4.408 -0.2328 -0.2500 -0.7807
 4430SOL     MW17720   4.850   2.444   4.392 -0.0253 -0.1508  0.1644
 4431SOL     OW17721   1.883   1.040   1.666 -0.0028 -0.0893 -0.1300
 4431SOL    HW117722   1.915   1.103   1.603 -1.5196 -0.0063 -0.8561
 4431SOL    HW217723   1.929   1.062   1.747  1.0258  0.6052 -0.8783
 4431SOL     MW17724   1.893   1.051   1.669 -0.0653  0.0102 -0.3187
 4432SOL     OW17725   2.192   4.844   3.143  0.0636 -0.0569  0.2796
 4432SOL    HW117726   2.108   4.878   3.113 -0.4592 -1.0526  0.5533
 4432SOL    HW217727   2.220   4.905   3.210  0.0205  0.8037 -0.4702
 4432SOL     MW17728   2.185   4.856   3.148 -0.0088 -0.0742  0.2186
 4433SOL     OW17729   2.272   5.230   2.660 -0.6245 -0.2330 -0.6720
 4433SOL    HW117730   2.257   5.194   2.572  0.0129 -0.3096 -0.7556
 4433SOL    HW217731   2.269   5.154   2.718 -0.0520 -0.3250 -0.7546
 4433SOL     MW17732   2.269   5.216   2.656 -0.4696 -0.2545 -0.6933
 4434SOL     OW17733   2.526   4.254   2.911  0.7293 -0.2798  0.1132
 4434SOL    HW117734   2.574   4.228   2.991  2.2342 -0.6044 -0.8515
 4434SOL    HW217735   2.437   4.222   2.926  0.7347  0.4499  2.0399
 4434SOL     MW17736   2.521   4.246   2.923  0.9226 -0.2279  0.2363
 4435SOL     OW17737   4.901   3.156   2.942  0.3951 -0.0498 -0.2007
 4435SOL    HW117738   4.980   3.191   2.981 -0.1325  0.2125  0.6591
 4435SOL    HW217739   4.908   3.178   2.849  0.9170  0.7401  0.0164
 4435SOL     MW17740   4.912   3.163   2.935  0.3943  0.0849 -0.0628
 4436SOL     OW17741   3.056   1.602   1.018 -0.0644 -0.5507  0.0582
 4436SOL    HW117742   2.990   1.533   1.007 -2.0957  1.3026 -0.0091
 4436SOL    HW217743   3.050   1.654   0.938  0.1162  0.7628  0.8704
 4436SOL     MW17744   3.047   1.600   1.006 -0.3014 -0.1453  0.1535
 4437SOL     OW17745   2.567   4.746   2.803 -0.1573  0.4245 -0.3721
 4437SOL    HW117746   2.620   4.697   2.866 -2.5734 -0.0622  1.3918
 4437SOL    HW217747   2.484   4.698   2.798 -2.0510  3.3793  0.1759
 4437SOL     MW17748   2.563   4.733   2.810 -0.7090  0.7405 -0.0761
 4438SOL     OW17749   4.710   2.312   2.935 -0.2414  0.4181  0.5074
 4438SOL    HW117750   4.735   2.357   2.854 -0.7569 -1.4821 -0.7609
 4438SOL    HW217751   4.792   2.303   2.984  0.1376  1.2763  0.0419
 4438SOL     MW17752   4.724   2.317   2.931 -0.2589  0.2847  0.2854
 4439SOL     OW17753   1.017   3.589   4.829 -0.1460 -0.5007  0.3432
 4439SOL    HW117754   0.924   3.570   4.815 -0.4206 -0.1508  1.6132
 4439SOL    HW217755   1.049   3.613   4.742 -0.8894 -2.0522 -0.4055
 4439SOL     MW17756   1.009   3.590   4.816 -0.2763 -0.6545  0.4099
 4440SOL     OW17757   1.456   4.157   0.822 -0.6321  0.4336 -0.0271
 4440SOL    HW117758   1.381   4.178   0.767 -2.3344  0.9821  2.3601
 4440SOL    HW217759   1.495   4.242   0.842 -0.1679  0.2553 -0.1638
 4440SOL     MW17760   1.452   4.170   0.817 -0.7906  0.4810  0.2610
 4441SOL     OW17761   2.606   2.752   1.052 -0.7705 -0.2172 -0.3821
 4441SOL    HW117762   2.549   2.737   1.127 -1.5096  0.0431 -0.8833
 4441SOL    HW217763   2.645   2.838   1.068 -3.2048  1.2381 -1.6851
 4441SOL     MW17764   2.604   2.761   1.063 -1.1768  0.0024 -0.6130
 4442SOL     OW17765   1.060   3.481   4.186 -0.1220 -0.1951  0.1750
 4442SOL    HW117766   0.979   3.479   4.135  0.9071 -0.1255 -1.5033
 4442SOL    HW217767   1.110   3.406   4.156  0.8866  0.3521  0.4408
 4442SOL     MW17768   1.056   3.471   4.176  0.1388 -0.1162 -0.0058
 4443SOL     OW17769   0.673   4.239   3.042 -0.1500 -0.1502  0.0529
 4443SOL    HW117770   0.636   4.151   3.042 -0.9908  0.1927  0.2619
 4443SOL    HW217771   0.687   4.259   2.949 -0.9977 -0.0882 -0.0740
 4443SOL     MW17772   0.670   4.230   3.030 -0.3661 -0.0984  0.0634
 4444SOL     OW17773   3.838   1.565   3.555  0.2639  0.3948  0.4446
 4444SOL    HW117774   3.868   1.492   3.503 -0.3916  0.7341 -0.4344
 4444SOL    HW217775   3.865   1.544   3.645 -0.8157 -1.4088  0.3813
 4444SOL     MW17776   3.845   1.553   3.560  0.0418  0.2073  0.3240
 4445SOL     OW17777   0.905   1.724   3.916  0.1924 -0.1524 -0.4334
 4445SOL    HW117778   0.971   1.725   3.985  1.4400 -0.9271 -1.5684
 4445SOL    HW217779   0.927   1.799   3.860 -0.0195 -0.2882 -0.7006
 4445SOL     MW17780   0.916   1.734   3.918  0.3250 -0.2690 -0.6129
 4446SOL     OW17781   2.367   0.169   5.191  0.0860  0.1467  0.3601
 4446SOL    HW117782   2.449   0.124   5.211  0.1541  0.5458  0.9971
 4446SOL    HW217783   2.300   0.118   5.237  0.1121  0.4537  0.7395
 4446SOL     MW17784   2.369   0.157   5.199  0.0980  0.2371  0.4902
 4447SOL     OW17785   0.745   3.065   5.296 -0.0306 -0.0535  0.2112
 4447SOL    HW117786   0.787   3.052   5.381 -1.6276  1.2654  1.2659
 4447SOL    HW217787   0.681   2.994   5.290  1.0064 -0.9564 -0.5489
 4447SOL     MW17788   0.743   3.054   5.307 -0.1023 -0.0003  0.2489
 4448SOL     OW17789   0.812   4.146   3.741  0.3184  0.4052  0.2526
 4448SOL    HW117790   0.764   4.109   3.814  0.2419  1.1080  0.5643
 4448SOL    HW217791   0.809   4.078   3.673  1.2181 -0.6686  1.2237
 4448SOL     MW17792   0.806   4.132   3.742  0.4238  0.3577  0.4168
 4449SOL     OW17793   1.541   4.802   1.374 -0.1931  0.5099 -0.4915
 4449SOL    HW117794   1.596   4.747   1.430  0.9144  0.7775 -1.2697
 4449SOL    HW217795   1.510   4.871   1.432 -2.6225 -1.5200  0.8041
 4449SOL     MW17796   1.544   4.804   1.389 -0.3623  0.2843 -0.4253
 4450SOL     OW17797   2.303   3.408   0.372 -0.6815 -0.2156  0.5078
 4450SOL    HW117798   2.296   3.315   0.395  0.1572 -0.4988 -0.3420
 4450SOL    HW217799   2.387   3.436   0.408 -0.8043  0.1527  0.5134
 4450SOL     MW17800   2.313   3.399   0.380 -0.5899 -0.2047  0.3997
 4451SOL     OW17801   4.377   4.233   0.702  0.2319  0.2960 -0.1387
 4451SOL    HW117802   4.319   4.161   0.726 -0.6563  0.2960 -2.0788
 4451SOL    HW217803   4.464   4.205   0.730 -0.4539 -0.4323  1.3336
 4451SOL     MW17804   4.381   4.220   0.709  0.0304  0.2028 -0.1986
 4452SOL     OW17805   4.296   0.514   5.504  0.1041 -0.2602 -0.1888
 4452SOL    HW117806   4.326   0.462   5.429 -0.1545 -0.8290  0.0956
 4452SOL    HW217807   4.247   0.586   5.465 -0.3952 -0.7899 -0.5545
 4452SOL     MW17808   4.294   0.517   5.489  0.0070 -0.4008 -0.1992
 4453SOL     OW17809   0.885   3.764   3.377  0.5771  0.2895 -0.1451
 4453SOL    HW117810   0.925   3.770   3.290  0.1879  1.4457 -0.2576
 4453SOL    HW217811   0.795   3.736   3.360  0.4492  0.6919 -0.1240
 4453SOL     MW17812   0.879   3.761   3.364  0.5109  0.4890 -0.1568
 4454SOL     OW17813   3.358   2.958   2.710 -0.0991 -0.3462 -0.7381
 4454SOL    HW117814   3.328   2.942   2.799 -0.7817 -0.5613 -1.0059
 4454SOL    HW217815   3.403   3.043   2.715 -0.5989 -0.1045 -0.3051
 4454SOL     MW17816   3.360   2.967   2.722 -0.2505 -0.3428 -0.7170
 4455SOL     OW17817   0.676   1.978   2.430  0.0519 -0.3648  0.3647
 4455SOL    HW117818   0.753   1.982   2.486  0.2181 -0.4798  0.1453
 4455SOL    HW217819   0.635   2.064   2.439  0.2217 -0.2941  0.4601
 4455SOL     MW17820   0.681   1.990   2.438  0.0949 -0.3704  0.3488
 4456SOL     OW17821   1.525   1.958   3.126  0.0050  0.3410  0.5133
 4456SOL    HW117822   1.469   2.020   3.078 -1.0418 -1.5835 -0.8969
 4456SOL    HW217823   1.534   1.997   3.213 -1.8249  1.7414  0.1506
 4456SOL     MW17824   1.519   1.971   3.131 -0.3633  0.2739  0.2863
 4457SOL     OW17825   4.781   4.580   5.311  0.0535  0.1494 -0.2759
 4457SOL    HW117826   4.690   4.585   5.340 -0.2749 -1.3868 -0.9865
 4457SOL    HW217827   4.819   4.664   5.338 -1.3225  0.4540  0.8234
 4457SOL     MW17828   4.774   4.592   5.318 -0.1646 -0.0083 -0.2261
 4458SOL     OW17829   3.197   2.973   5.331  0.4285 -0.1050  0.1532
 4458SOL    HW117830   3.281   2.935   5.356  0.7899  0.0716 -0.7472
 4458SOL    HW217831   3.133   2.924   5.383  1.0924 -0.1009  1.0026
 4458SOL     MW17832   3.199   2.962   5.341  0.5598 -0.0818  0.1467
 4459SOL     OW17833   2.096   2.142   5.410  0.1640  0.0908 -0.1695
 4459SOL    HW117834   2.167   2.203   5.387  0.9974 -0.1341  1.5839
 4459SOL    HW217835   2.089   2.084   5.335  1.9905  0.0125 -0.3339
 4459SOL     MW17836   2.104   2.143   5.398  0.5045  0.0520  0.0339
 4460SOL     OW17837   2.105   2.706   1.849 -0.3899  0.3158  0.4665
 4460SOL    HW117838   2.031   2.657   1.886 -0.1607 -0.8766 -0.6120
 4460SOL    HW217839   2.152   2.739   1.926 -1.1676 -0.2271  1.1939
 4460SOL     MW17840   2.101   2.704   1.864 -0.4601  0.0937  0.4215
 4461SOL     OW17841   1.272   1.541   4.116 -0.1037  0.1895 -0.4441
 4461SOL    HW117842   1.351   1.572   4.161  0.4117  0.5459 -1.5760
 4461SOL    HW217843   1.290   1.554   4.023 -1.8652  1.1650 -0.7013
 4461SOL     MW17844   1.284   1.547   4.110 -0.2632  0.3600 -0.6219
 4462SOL     OW17845   1.155   5.017   3.698  0.2396  0.3099 -0.8383
 4462SOL    HW117846   1.221   5.086   3.707  1.7758 -0.9570 -1.8260
 4462SOL    HW217847   1.198   4.938   3.731 -0.2721 -0.8106 -2.6890
 4462SOL     MW17848   1.169   5.016   3.703  0.3708  0.0043 -1.2017
 4463SOL     OW17849   1.497   4.615   4.766 -0.0657  0.3121  0.4905
 4463SOL    HW117850   1.426   4.561   4.732  1.4672 -1.6948  0.3119
 4463SOL    HW217851   1.466   4.643   4.852 -1.0272 -0.6292  0.4698
 4463SOL     MW17852   1.484   4.612   4.773  0.0074 -0.0653  0.4649
 4464SOL     OW17853   1.829   5.488   1.386 -0.4130 -0.1729  0.2765
 4464SOL    HW117854   1.888   5.416   1.368 -1.6545 -0.9894 -0.6887
 4464SOL    HW217855   1.790   5.511   1.301 -2.0354 -0.1847  0.9647
 4464SOL     MW17856   1.831   5.482   1.373 -0.7796 -0.2789  0.2411
 4465SOL     OW17857   5.461   1.260   1.661 -0.0400 -0.2138 -0.2241
 4465SOL    HW117858   5.404   1.324   1.619 -0.3823 -0.9305 -0.8861
 4465SOL    HW217859   5.407   1.181   1.666 -0.3438  0.0697  2.4155
 4465SOL     MW17860   5.446   1.258   1.657 -0.1228 -0.2692  0.0291
 4466SOL     OW17861   5.010   0.002   1.658  0.0056 -0.0183 -0.0959
 4466SOL    HW117862   4.944   0.042   1.715  0.2139  0.0687  0.0821
 4466SOL    HW217863   4.958  -0.040   1.589 -0.1803  1.6793 -1.0347
 4466SOL     MW17864   4.995   0.002   1.657  0.0084  0.2102 -0.1933
 4467SOL     OW17865   2.409   2.823   2.395  0.5928 -0.2755 -0.0169
 4467SOL    HW117866   2.324   2.831   2.351  1.3920 -1.0132 -1.7930
 4467SOL    HW217867   2.388   2.787   2.481 -1.3266  4.0653  1.5967
 4467SOL     MW17868   2.395   2.819   2.400  0.4494  0.1857 -0.0377
 4468SOL     OW17869   5.363   1.804   1.898 -0.2163 -0.3293  0.5693
 4468SOL    HW117870   5.372   1.723   1.949  0.4811  0.4885  1.8117
 4468SOL    HW217871   5.452   1.836   1.889 -0.2030 -0.9335 -2.0775
 4468SOL     MW17872   5.375   1.798   1.904 -0.1253 -0.3020  0.3895
 4469SOL     OW17873   2.629   1.475   4.255 -0.0182 -0.3195  0.8505
 4469SOL    HW117874   2.620   1.380   4.263  0.2786 -0.4263  0.0472
 4469SOL    HW217875   2.650   1.505   4.343  3.6636 -1.4477  0.5612
 4469SOL     MW17876   2.631   1.467   4.267  0.4911 -0.4776  0.7106
 4470SOL     OW17877   5.171   1.890   3.375 -0.4308  0.2444  0.0768
 4470SOL    HW117878   5.158   1.884   3.281 -0.6524  3.8386 -0.2312
 4470SOL    HW217879   5.266   1.890   3.387 -0.3819  0.9719 -0.2817
 4470SOL     MW17880   5.182   1.889   3.365 -0.4529  0.7976 -0.0085
 4471SOL     OW17881   1.662   4.632   0.078 -0.0318  0.1425  0.2110
 4471SOL    HW117882   1.584   4.584   0.107 -0.7625  0.0444 -1.8022
 4471SOL    HW217883   1.714   4.642   0.158 -1.6405 -0.6405  1.4234
 4471SOL     MW17884   1.658   4.627   0.092 -0.3313  0.0297  0.1085
 4472SOL     OW17885   3.557   1.057   3.433 -0.0346  0.2134  0.9131
 4472SOL    HW117886   3.462   1.052   3.441  0.1744 -1.5852  2.9607
 4472SOL    HW217887   3.576   1.017   3.349 -0.9678 -1.5854  1.5127
 4472SOL     MW17888   3.547   1.051   3.423 -0.1273 -0.2471  1.2519
 4473SOL     OW17889   3.572   1.335   3.038 -0.4070  0.1050  0.2455
 4473SOL    HW117890   3.480   1.355   3.019 -0.1729  1.3102  0.3231
 4473SOL    HW217891   3.582   1.243   3.014 -1.4457  0.1685 -0.4723
 4473SOL     MW17892   3.561   1.326   3.033 -0.5100  0.2675  0.1635
 4474SOL     OW17893   0.697   1.148   0.914  0.5533 -0.5842  1.3256
 4474SOL    HW117894   0.607   1.117   0.908  0.4256 -0.2083  1.3245
 4474SOL    HW217895   0.717   1.180   0.826  0.4515 -0.0026  1.5160
 4474SOL     MW17896   0.688   1.148   0.902  0.5239 -0.4617  1.3498
 4475SOL     OW17897   0.411   1.539   3.782 -0.1274  0.4700  0.0558
 4475SOL    HW117898   0.406   1.620   3.731  0.6783 -0.0835 -0.9362
 4475SOL    HW217899   0.409   1.469   3.716 -1.9359 -0.3858  0.9353
 4475SOL     MW17900   0.410   1.540   3.767 -0.2558  0.2896  0.0414
 4476SOL     OW17901   2.305   2.821   5.287  0.5843  0.2902  0.2768
 4476SOL    HW117902   2.376   2.761   5.312  0.2739 -0.3905 -0.4271
 4476SOL    HW217903   2.282   2.866   5.369  0.6337 -0.7564  0.8885
 4476SOL     MW17904   2.311   2.819   5.301  0.5509  0.0691  0.2650
 4477SOL     OW17905   5.228   4.316   5.484  0.0291  0.0260 -0.1357
 4477SOL    HW117906   5.316   4.281   5.468  0.5204  1.6773 -1.2946
 4477SOL    HW217907   5.179   4.242   5.521  1.9784 -0.8370  0.8730
 4477SOL     MW17908   5.233   4.302   5.487  0.3415  0.1269 -0.1549
 4478SOL     OW17909   4.349   5.343   0.604 -0.0882 -0.3637  0.1547
 4478SOL    HW117910   4.312   5.305   0.525  0.0518  1.1307 -0.6626
 4478SOL    HW217911   4.423   5.286   0.626  0.2402 -0.4633 -1.1336
 4478SOL     MW17912   4.354   5.331   0.597 -0.0282 -0.1852 -0.1148
 4479SOL     OW17913   4.653   3.240   0.817  0.2059 -0.6236 -0.2816
 4479SOL    HW117914   4.729   3.292   0.793  0.9200 -2.6862 -3.0679
 4479SOL    HW217915   4.604   3.295   0.878  1.4975  2.7232 -2.0025
 4479SOL     MW17916   4.657   3.253   0.822  0.4627 -0.4592 -0.8586
 4480SOL     OW17917   1.082   3.642   4.557  0.1127 -0.2529 -0.0587
 4480SOL    HW117918   1.003   3.662   4.507  0.0291  1.4819  0.7019
 4480SOL    HW217919   1.104   3.552   4.532 -0.5874  0.1346 -2.2893
 4480SOL     MW17920   1.075   3.633   4.547  0.0124  0.0188 -0.2468
 4481SOL     OW17921   1.028   0.510   5.359 -0.2187 -0.3145 -0.6470
 4481SOL    HW117922   1.082   0.587   5.372 -0.8377  0.0483 -0.1853
 4481SOL    HW217923   1.039   0.459   5.439 -3.0792  1.3367  0.9537
 4481SOL     MW17924   1.036   0.513   5.371 -0.6641 -0.0567 -0.3829
 4482SOL     OW17925   1.112   3.509   5.069 -0.1499 -0.4903 -0.4705
 4482SOL    HW117926   1.087   3.497   4.977 -0.9123  1.0527 -0.5104
 4482SOL    HW217927   1.201   3.546   5.064 -0.2115 -0.3557 -0.5959
 4482SOL     MW17928   1.120   3.512   5.056 -0.2554 -0.2756 -0.4917
 4483SOL     OW17929   0.498   1.729   4.090 -0.0531  0.5794  0.0894
 4483SOL    HW117930   0.509   1.753   4.182 -0.5673  1.2031 -0.0002
 4483SOL    HW217931   0.558   1.656   4.076 -0.2972  0.1873  1.0348
 4483SOL     MW17932   0.507   1.723   4.100 -0.1501  0.6091  0.1990
 4484SOL     OW17933   3.104   0.721   1.420 -0.5756 -0.2463  0.1901
 4484SOL    HW117934   3.062   0.774   1.352 -1.0168 -0.6683  0.1326
 4484SOL    HW217935   3.179   0.681   1.375  0.2877  0.9900  0.4472
 4484SOL     MW17936   3.108   0.723   1.405 -0.5216 -0.1421  0.2157
 4485SOL     OW17937   3.123   2.420   5.116  0.4407 -0.1888  0.0406
 4485SOL    HW117938   3.164   2.436   5.031 -1.1173  2.1269 -0.3653
 4485SOL    HW217939   3.165   2.483   5.176  0.6216 -0.9132  0.6902
 4485SOL     MW17940   3.134   2.430   5.113  0.2644  0.0149  0.0718
 4486SOL     OW17941   4.746   4.727   2.014 -0.4427  0.2251  0.0821
 4486SOL    HW117942   4.838   4.700   2.009 -0.9046 -1.7806  1.1040
 4486SOL    HW217943   4.731   4.778   1.935  1.4078  0.1123 -0.3812
 4486SOL     MW17944   4.756   4.730   2.003 -0.2650 -0.0461  0.1536
 4487SOL     OW17945   4.535   0.120   3.565 -0.6378  0.3623  0.2853
 4487SOL    HW117946   4.552   0.067   3.488  0.7357  0.8220  0.2485
 4487SOL    HW217947   4.620   0.129   3.608 -0.5569  3.3663 -0.2717
 4487SOL     MW17948   4.548   0.114   3.561 -0.4516  0.8057  0.2093
 4488SOL     OW17949   5.223   3.389   4.075 -0.5104 -0.1213 -0.0662
 4488SOL    HW117950   5.146   3.445   4.075  0.2829  1.0803  1.7687
 4488SOL    HW217951   5.193   3.306   4.039 -2.2391  0.8243 -0.9016
 4488SOL     MW17952   5.209   3.386   4.071 -0.6301  0.1536  0.0618
 4489SOL     OW17953   3.126   4.925   1.021 -0.2678 -0.4705  0.7277
 4489SOL    HW117954   3.207   4.951   1.065  0.0789  0.8961 -0.6365
 4489SOL    HW217955   3.134   4.830   1.009  1.2997 -0.2978  0.2820
 4489SOL     MW17956   3.137   4.916   1.025 -0.0228 -0.2734  0.4960
 4490SOL     OW17957   1.683   5.313   4.692 -0.1531 -0.6359  0.2640
 4490SOL    HW117958   1.610   5.372   4.711  0.2134  0.4617 -1.4693
 4490SOL    HW217959   1.759   5.371   4.685  0.3198 -1.3687 -0.9342
 4490SOL     MW17960   1.684   5.328   4.694 -0.0457 -0.5892 -0.1113
 4491SOL     OW17961   4.269   2.838   0.676 -0.2292  0.1946  0.4246
 4491SOL    HW117962   4.315   2.890   0.610  2.0988 -1.0976  0.9368
 4491SOL    HW217963   4.283   2.885   0.758  1.6700 -1.0142  0.8486
 4491SOL     MW17964   4.277   2.851   0.678  0.3120 -0.1256  0.5444
 4492SOL     OW17965   0.426   0.396   5.335 -0.0735  0.7609  0.3044
 4492SOL    HW117966   0.426   0.437   5.249 -1.3529  1.1519  0.4775
 4492SOL    HW217967   0.383   0.312   5.322  0.9599  0.2142  0.3067
 4492SOL     MW17968   0.421   0.391   5.323 -0.1049  0.7410  0.3268
 4493SOL     OW17969   3.630   0.812   0.976  0.1198 -0.1751 -0.4449
 4493SOL    HW117970   3.543   0.848   0.963 -0.2186 -0.3183  1.2307
 4493SOL    HW217971   3.635   0.739   0.914 -1.0335 -0.3179 -0.3911
 4493SOL     MW17972   3.620   0.808   0.966 -0.0712 -0.2117 -0.2235
 4494SOL     OW17973   1.323   3.963   3.182  0.6739 -0.1732 -1.0478
 4494SOL    HW117974   1.229   3.982   3.180  0.4854 -0.7722  0.3586
 4494SOL    HW217975   1.365   4.048   3.182  0.2058  0.1062 -2.9083
 4494SOL     MW17976   1.316   3.976   3.182  0.5899 -0.2141 -1.1060
 4495SOL     OW17977   4.573   5.014   3.999  0.2435  0.0590  0.0332
 4495SOL    HW117978   4.492   4.995   3.952 -0.0760  0.9926  0.1829
 4495SOL    HW217979   4.642   5.006   3.932 -0.3373  2.7347 -1.0144
 4495SOL     MW17980   4.572   5.011   3.984  0.1283  0.5210 -0.0817
 4496SOL     OW17981   2.647   3.400   4.035  0.0771  0.7613 -0.0649
 4496SOL    HW117982   2.592   3.439   4.102 -0.7623  1.0949 -0.9188
 4496SOL    HW217983   2.721   3.461   4.025  1.2029 -0.2010  1.8089
 4496SOL     MW17984   2.650   3.412   4.042  0.1138  0.6808  0.0657
 4497SOL     OW17985   4.630   4.330   5.172  0.3437  0.2627  0.0775
 4497SOL    HW117986   4.702   4.374   5.217 -0.1433  1.3675 -0.1874
 4497SOL    HW217987   4.566   4.400   5.156 -0.1440 -0.4092 -0.9783
 4497SOL     MW17988   4.631   4.345   5.176  0.2190  0.3181 -0.0916
 4498SOL     OW17989   5.206   3.965   1.129  0.4601  0.0575 -0.3495
 4498SOL    HW117990   5.249   3.979   1.045 -0.3382 -1.0306 -0.9561
 4498SOL    HW217991   5.262   4.010   1.193  0.8645  1.2321 -1.4972
 4498SOL     MW17992   5.219   3.973   1.127  0.4097  0.0685 -0.5741
 4499SOL     OW17993   0.660   1.318   4.386 -0.1219 -0.2744  0.1291
 4499SOL    HW117994   0.731   1.298   4.446  1.1593  0.8211 -0.9469
 4499SOL    HW217995   0.702   1.330   4.301 -1.7689 -0.9297 -0.8355
 4499SOL     MW17996   0.674   1.317   4.383 -0.1687 -0.2180 -0.1321
 4500SOL     OW17997   4.954   2.590   3.448  0.2082  0.8599 -0.0520
 4500SOL    HW117998   4.984   2.624   3.532 -0.1353 -0.3108  0.5718
 4500SOL    HW217999   4.921   2.666   3.401 -1.0901  1.3365  1.5256
 4500SOL     MW18000   4.953   2.604   3.452 -0.0020  0.7710  0.2298
 4501SOL     OW18001   0.887   4.217   2.195 -0.5326  0.2203 -0.6090
 4501SOL    HW118002   0.964   4.160   2.205 -0.2990  0.6135 -0.1117
 4501SOL    HW218003   0.919   4.303   2.220 -1.5187  0.1214  1.1220
 4501SOL     MW18004   0.901   4.220   2.200 -0.6289  0.2580 -0.3237
 4502SOL     OW18005   1.790   3.909   0.119  0.1035 -0.2885 -0.1566
 4502SOL    HW118006   1.797   3.819   0.152  0.7839  0.0704  0.7375
 4502SOL    HW218007   1.808   3.902   0.025  0.6519 -1.0282 -0.0017
 4502SOL     MW18008   1.793   3.897   0.111  0.2608 -0.3372 -0.0223
 4503SOL     OW18009   1.846   0.394   0.085  0.1145 -0.3580 -0.5877
 4503SOL    HW118010   1.829   0.360  -0.002  0.0100  1.1886 -1.2082
 4503SOL    HW218011   1.776   0.358   0.139  0.0213 -1.1096 -1.1923
 4503SOL     MW18012   1.835   0.385   0.081  0.0892 -0.2562 -0.7445
 4504SOL     OW18013   4.501   2.973   2.487 -0.4919 -0.1844  0.0680
 4504SOL    HW118014   4.548   2.928   2.417  0.1551  0.0548  0.3434
 4504SOL    HW218015   4.529   2.928   2.567  0.7439  1.1539  0.4308
 4504SOL     MW18016   4.511   2.961   2.488 -0.2509  0.0175  0.1497
 4505SOL     OW18017   4.019   3.639   2.468  0.1899  0.6560  0.0421
 4505SOL    HW118018   4.097   3.599   2.430 -0.7655 -0.6717 -0.5972
 4505SOL    HW218019   3.976   3.683   2.395 -1.2762 -1.3031 -0.3760
 4505SOL     MW18020   4.023   3.639   2.454 -0.1201  0.2352 -0.0932
 4506SOL     OW18021   5.378   0.065   5.095  0.1573  0.0533 -0.3560
 4506SOL    HW118022   5.312   0.124   5.059  0.2159  0.3345 -0.0094
 4506SOL    HW218023   5.331   0.009   5.156  0.2484  0.2993 -0.0577
 4506SOL     MW18024   5.364   0.065   5.098  0.1765  0.1208 -0.2734
 4507SOL     OW18025   1.979   2.155   0.174 -0.2271 -0.3129 -0.7061
 4507SOL    HW118026   1.889   2.180   0.155 -0.6264 -0.6848  0.5512
 4507SOL    HW218027   2.024   2.158   0.090 -1.1273  1.0217 -1.1664
 4507SOL     MW18028   1.973   2.159   0.161 -0.3935 -0.1897 -0.6041
 4508SOL     OW18029   0.110   0.716   4.779  0.4351 -0.1650  0.3283
 4508SOL    HW118030   0.032   0.766   4.806  0.4601  0.0317  0.0324
 4508SOL    HW218031   0.092   0.627   4.810 -1.2448 -0.8293 -2.2573
 4508SOL     MW18032   0.097   0.711   4.787  0.2233 -0.2248 -0.0406
 4509SOL     OW18033   2.330   1.128   3.376 -1.5872  0.4461  0.2583
 4509SOL    HW118034   2.350   1.220   3.359  3.0558 -0.2039  1.0030
 4509SOL    HW218035   2.365   1.110   3.463 -1.6153 -2.1824 -0.1663
 4509SOL     MW18036   2.337   1.137   3.385 -0.9965  0.0264  0.2993
 4510SOL     OW18037   4.565   2.539   1.211  0.4839 -0.4502  0.5185
 4510SOL    HW118038   4.544   2.624   1.250 -0.9303 -0.5026 -0.0853
 4510SOL    HW218039   4.538   2.476   1.277  1.4279 -0.4420  0.9195
 4510SOL     MW18040   4.559   2.542   1.224  0.4237 -0.4558  0.4926
 4511SOL     OW18041   3.658   2.049   5.418  0.1677 -0.2057 -0.6462
 4511SOL    HW118042   3.572   2.036   5.457  0.9436 -0.8128  0.9695
 4511SOL    HW218043   3.678   2.141   5.433  0.1238 -0.2471 -0.3369
 4511SOL     MW18044   3.650   2.059   5.425  0.2614 -0.2887 -0.3998
 4512SOL     OW18045   5.063   1.940   3.126 -0.2677  0.0201  0.1263
 4512SOL    HW118046   5.108   1.937   3.042 -1.1355 -0.6056 -0.3252
 4512SOL    HW218047   4.978   1.899   3.110 -1.2643  1.7184  0.7996
 4512SOL     MW18048   5.058   1.934   3.113 -0.5064  0.1574  0.1547
 4513SOL     OW18049   1.477   4.401   4.036 -0.1799  0.1273  0.0187
 4513SOL    HW118050   1.534   4.334   4.074  0.7512  0.3415 -0.9383
 4513SOL    HW218051   1.534   4.476   4.022 -0.7063  0.3667 -0.9173
 4513SOL     MW18052   1.492   4.402   4.039 -0.1281  0.1854 -0.2236
 4514SOL     OW18053   1.039   3.608   1.521  0.2942  0.2090  0.4139
 4514SOL    HW118054   0.951   3.605   1.558  0.8184  0.8944  1.7845
 4514SOL    HW218055   1.076   3.690   1.554  2.0247 -0.8439  1.2101
 4514SOL     MW18056   1.032   3.618   1.530  0.5828  0.1620  0.6913
 4515SOL     OW18057   1.511   3.275   4.403 -0.1964  0.1695  0.0884
 4515SOL    HW118058   1.541   3.196   4.357 -0.2579 -0.3885  0.9826
 4515SOL    HW218059   1.580   3.339   4.387  0.0361 -0.1789 -0.3335
 4515SOL     MW18060   1.524   3.273   4.395 -0.1745  0.0534  0.1489
 4516SOL     OW18061   0.827   0.167   0.244  0.0619  0.4941  0.2954
 4516SOL    HW118062   0.792   0.147   0.157 -0.9544 -1.9865  1.1880
 4516SOL    HW218063   0.909   0.119   0.249 -0.5352 -0.4760  1.1399
 4516SOL     MW18064   0.833   0.159   0.233 -0.1446  0.0524  0.5177
 4517SOL     OW18065   3.832   3.929   2.050  0.5466 -0.2398  0.7282
 4517SOL    HW118066   3.905   3.905   1.992  0.7009 -1.1441  1.2783
 4517SOL    HW218067   3.790   4.003   2.005  2.4308  1.0302  0.9374
 4517SOL     MW18068   3.836   3.935   2.037  0.8075 -0.1930  0.8254
 4518SOL     OW18069   3.385   0.866   3.001  0.0288  0.3967  0.3127
 4518SOL    HW118070   3.320   0.876   2.931  1.0451  0.9730 -0.5828
 4518SOL    HW218071   3.436   0.789   2.976  0.0500  0.2780  0.7132
 4518SOL     MW18072   3.383   0.857   2.989  0.1616  0.4553  0.2494
 4519SOL     OW18073   1.961   4.713   5.426  0.1631  0.7576  0.1229
 4519SOL    HW118074   2.006   4.638   5.466 -1.3953 -0.4177 -0.2206
 4519SOL    HW218075   2.031   4.762   5.383  1.5042  0.6446  2.0484
 4519SOL     MW18076   1.976   4.709   5.425  0.1353  0.5927  0.3254
 4520SOL     OW18077   5.071   1.301   3.212  0.2567 -0.0249 -0.1124
 4520SOL    HW118078   5.013   1.264   3.146 -0.4994  0.0482  0.5028
 4520SOL    HW218079   5.077   1.234   3.280 -0.5939  0.6937  0.6966
 4520SOL     MW18080   5.064   1.288   3.213  0.0510  0.0764  0.0699
 4521SOL     OW18081   3.001   5.272   4.601 -0.5732  0.5787  0.2105
 4521SOL    HW118082   2.930   5.335   4.587 -1.6618 -0.7205 -0.3717
 4521SOL    HW218083   2.956   5.189   4.616  0.8291 -0.5422 -1.4631
 4521SOL     MW18084   2.986   5.269   4.601 -0.5330  0.2689 -0.0783
 4522SOL     OW18085   4.444   1.271   0.995  0.2404 -0.0229 -0.0239
 4522SOL    HW118086   4.535   1.283   0.967  0.1352  4.7501  0.8274
 4522SOL    HW218087   4.395   1.260   0.914  1.1448  2.0535 -0.9193
 4522SOL     MW18088   4.449   1.271   0.981  0.3427  0.8539 -0.0295
 4523SOL     OW18089   0.381   1.234   5.007 -0.4514  0.2154 -0.2879
 4523SOL    HW118090   0.320   1.213   5.077 -2.0182 -1.1336 -1.9555
 4523SOL    HW218091   0.422   1.151   4.985 -0.1213  0.5793 -1.0796
 4523SOL     MW18092   0.378   1.221   5.013 -0.6097  0.0893 -0.6027
 4524SOL     OW18093   2.336   5.378   1.875 -0.0260 -0.2029 -0.2949
 4524SOL    HW118094   2.385   5.376   1.793  1.3721  1.0297  0.4464
 4524SOL    HW218095   2.246   5.399   1.850  0.6646  1.6501 -1.4200
 4524SOL     MW18096   2.331   5.380   1.862  0.2414  0.1921 -0.3441
 4525SOL     OW18097   4.065   3.235   4.790 -0.8190 -0.2593  0.0269
 4525SOL    HW118098   4.067   3.178   4.867 -2.1405 -0.1995  0.1278
 4525SOL    HW218099   4.058   3.175   4.716  1.4974 -0.3792 -0.1896
 4525SOL     MW18100   4.065   3.220   4.791 -0.6917 -0.2670  0.0121
 4526SOL     OW18101   3.284   4.943   1.928 -0.0291  0.2021  0.0716
 4526SOL    HW118102   3.199   4.902   1.938  0.5192 -0.7580  0.9560
 4526SOL    HW218103   3.291   5.002   2.003  0.9360 -1.3129  1.2303
 4526SOL     MW18104   3.274   4.945   1.939  0.1646 -0.1147  0.3331
 4527SOL     OW18105   1.759   1.172   0.717 -0.0683  0.4069 -0.0023
 4527SOL    HW118106   1.768   1.096   0.775 -0.3432 -1.1776 -1.9255
 4527SOL    HW218107   1.817   1.152   0.643  1.8962  3.3192  0.5867
 4527SOL     MW18108   1.768   1.159   0.715  0.1480  0.5769 -0.1731
 4528SOL     OW18109   3.634   2.487   2.250  0.1492  0.4060  0.7507
 4528SOL    HW118110   3.597   2.552   2.309  2.2940  2.0014  0.4762
 4528SOL    HW218111   3.637   2.530   2.165  3.5465  0.9058  0.9797
 4528SOL     MW18112   3.630   2.501   2.247  0.8587  0.6742  0.7449
 4529SOL     OW18113   3.046   2.723   3.945  0.4779 -0.1847  0.1617
 4529SOL    HW118114   2.991   2.720   4.024  1.3299 -0.2484  0.7696
 4529SOL    HW218115   3.132   2.750   3.977  0.2127  2.4419 -1.1284
 4529SOL     MW18116   3.050   2.726   3.959  0.5530  0.1434  0.0744
 4530SOL     OW18117   2.230   0.500   0.460  0.3149 -0.1613  0.4478
 4530SOL    HW118118   2.152   0.557   0.457  0.9142  0.6959  0.7458
 4530SOL    HW218119   2.194   0.412   0.466 -0.6557  0.0761 -1.1551
 4530SOL     MW18120   2.215   0.496   0.461  0.2673 -0.0212  0.2808
 4531SOL     OW18121   5.476   4.613   0.787  0.5438 -0.2883  0.5855
 4531SOL    HW118122   5.539   4.609   0.859  0.5253 -0.4050  0.5961
 4531SOL    HW218123   5.472   4.523   0.754  1.9868  0.1048 -0.8009
 4531SOL     MW18124   5.484   4.601   0.792  0.7261 -0.2530  0.4093
 4532SOL     OW18125   4.927   0.880   5.050  0.3534 -0.6005 -0.2673
 4532SOL    HW118126   4.964   0.794   5.072  3.3437  1.2422  2.8092
 4532SOL    HW218127   4.993   0.921   4.994 -0.5670  0.0958 -0.8750
 4532SOL     MW18128   4.940   0.874   5.046  0.6184 -0.2755  0.0487
 4533SOL     OW18129   1.322   2.563   3.973  0.4574  0.6166 -0.3173
 4533SOL    HW118130   1.288   2.542   3.886  1.6553 -0.2596 -0.6080
 4533SOL    HW218131   1.246   2.591   4.023 -0.1175  2.0661 -1.9119
 4533SOL     MW18132   1.308   2.564   3.968  0.5371  0.6900 -0.5587
 4534SOL     OW18133  -0.007   0.275   2.161 -0.3761 -0.4410 -0.3220
 4534SOL    HW118134  -0.023   0.291   2.254 -1.5327  1.4094 -0.7726
 4534SOL    HW218135   0.070   0.328   2.140 -0.3315 -0.5702 -0.4876
 4534SOL     MW18136   0.001   0.284   2.170 -0.5185 -0.2206 -0.4009
 4535SOL     OW18137   0.340   5.410   5.139 -0.7937 -0.1151  0.7789
 4535SOL    HW118138   0.406   5.432   5.205 -0.8006  0.1563  0.6968
 4535SOL    HW218139   0.285   5.344   5.181 -0.1236 -0.7803  0.6453
 4535SOL     MW18140   0.341   5.404   5.153 -0.7088 -0.1655  0.7513
 4536SOL     OW18141   4.067   1.397   1.753 -0.3024 -0.2454 -0.4594
 4536SOL    HW118142   4.106   1.380   1.839 -0.7544 -0.1439 -0.2305
 4536SOL    HW218143   4.082   1.490   1.737  0.2307 -0.3733 -0.7224
 4536SOL     MW18144   4.074   1.406   1.762 -0.2920 -0.2488 -0.4638
 4537SOL     OW18145   2.705   0.459   1.861 -0.2080  0.5114 -0.3246
 4537SOL    HW118146   2.686   0.543   1.819  0.0681  0.2097 -1.0547
 4537SOL    HW218147   2.789   0.473   1.906 -0.1885  0.6392 -0.4015
 4537SOL     MW18148   2.714   0.472   1.862 -0.1701  0.4891 -0.4279
 4538SOL     OW18149   4.209   3.648   2.216  0.2790 -0.4424  0.2084
 4538SOL    HW118150   4.266   3.606   2.152  1.2979 -1.4465  1.7257
 4538SOL    HW218151   4.267   3.707   2.265 -0.1793 -0.6694  1.0544
 4538SOL     MW18152   4.224   3.650   2.214  0.3507 -0.6000  0.5109
 4539SOL     OW18153   0.482   1.502   5.045  0.0970 -0.1419  0.2849
 4539SOL    HW118154   0.440   1.549   4.973  0.8917  0.5437  0.2611
 4539SOL    HW218155   0.468   1.409   5.025  3.1234 -0.1477 -2.5421
 4539SOL     MW18156   0.475   1.496   5.033  0.5861 -0.0549 -0.0800
 4540SOL     OW18157   0.419   3.563   5.445  0.6332  0.2768  0.0325
 4540SOL    HW118158   0.481   3.538   5.513  2.1042  0.4679 -1.1754
 4540SOL    HW218159   0.355   3.492   5.444  1.4729 -0.5127  0.5583
 4540SOL     MW18160   0.419   3.550   5.453  0.9290  0.2002 -0.0548
 4541SOL     OW18161   4.051   5.197   2.712  0.4300  0.3340 -0.1975
 4541SOL    HW118162   4.113   5.262   2.746  0.1612  0.1463  0.6877
 4541SOL    HW218163   4.094   5.113   2.727 -0.4550  0.1219  1.4313
 4541SOL     MW18164   4.064   5.195   2.719  0.2823  0.2828  0.1243
 4542SOL     OW18165   2.976   1.642   3.823 -0.1378 -0.2899  0.3654
 4542SOL    HW118166   3.008   1.727   3.854 -0.5826 -0.6455  1.8940
 4542SOL    HW218167   2.919   1.611   3.893 -0.0275 -1.8337 -0.1921
 4542SOL     MW18168   2.973   1.649   3.836 -0.1806 -0.5330  0.4897
 4543SOL     OW18169   2.562   2.390   4.087  0.0185 -0.0536 -0.0911
 4543SOL    HW118170   2.502   2.464   4.083  0.6275  0.4688  0.2480
 4543SOL    HW218171   2.636   2.422   4.137 -0.3401 -1.3460  1.3416
 4543SOL     MW18172   2.564   2.403   4.093  0.0506 -0.1522  0.1357
 4544SOL     OW18173   2.355   4.476   3.304  0.0978 -0.5285  0.1753
 4544SOL    HW118174   2.368   4.512   3.216 -3.4914 -0.5732 -0.5232
 4544SOL    HW218175   2.370   4.382   3.293  0.6902 -0.4062 -0.1174
 4544SOL     MW18176   2.358   4.468   3.291 -0.2859 -0.5185  0.0484
 4545SOL     OW18177   5.301   3.968   0.430 -0.2934  0.5456  0.4403
 4545SOL    HW118178   5.371   4.019   0.389 -1.0796  0.5465 -0.9815
 4545SOL    HW218179   5.266   3.914   0.359 -0.4414 -0.9158  1.5818
 4545SOL     MW18180   5.305   3.968   0.415 -0.4130  0.3586  0.4044
 4546SOL     OW18181   5.172   0.117   3.193  0.0893  0.0872  0.7079
 4546SOL    HW118182   5.178   0.210   3.214 -0.3467 -0.0425  1.4266
 4546SOL    HW218183   5.195   0.112   3.100 -2.1590  1.2048  0.0112
 4546SOL     MW18184   5.176   0.128   3.184 -0.2543  0.2137  0.7107
 4547SOL     OW18185   1.794   4.609   3.074  0.3591  0.0018 -0.2694
 4547SOL    HW118186   1.812   4.613   3.168 -1.9383  0.6792  0.1965
 4547SOL    HW218187   1.791   4.515   3.054 -0.2142 -0.1641  0.5676
 4547SOL     MW18188   1.796   4.597   3.084 -0.0084  0.0673 -0.1026
 4548SOL     OW18189   3.090   0.730   0.320  0.2232  0.0102 -0.0152
 4548SOL    HW118190   3.110   0.757   0.231 -1.6436  3.4200  0.4196
 4548SOL    HW218191   3.035   0.652   0.310  0.1607  0.2571 -1.8191
 4548SOL     MW18192   3.085   0.723   0.308 -0.0238  0.4783 -0.1905
 4549SOL     OW18193   0.367   4.657   5.005  0.7890  0.0314  0.3870
 4549SOL    HW118194   0.454   4.696   5.005  1.6619 -1.6876  2.3154
 4549SOL    HW218195   0.317   4.711   5.067  0.8652  0.2858  0.2275
 4549SOL     MW18196   0.372   4.669   5.013  0.9105 -0.1561  0.6134
 4550SOL     OW18197   3.395   4.561   1.498  0.6363  0.0983 -0.8740
 4550SOL    HW118198   3.342   4.512   1.560  1.0046  1.0745  0.2564
 4550SOL    HW218199   3.448   4.495   1.453 -1.7182 -0.9334 -2.2812
 4550SOL     MW18200   3.395   4.547   1.500  0.3820  0.0912 -0.9095
 4551SOL     OW18201   2.133   2.345   1.943 -0.0011  0.0492  0.2162
 4551SOL    HW118202   2.215   2.303   1.969  0.3153  0.5455  0.0412
 4551SOL    HW218203   2.161   2.421   1.891 -0.5624  0.5088  0.5827
 4551SOL     MW18204   2.147   2.350   1.939 -0.0325  0.1716  0.2407
 4552SOL     OW18205   0.875   2.412   2.016  0.4601  0.1290  0.7183
 4552SOL    HW118206   0.944   2.464   2.058  0.9036  0.0998  0.0361
 4552SOL    HW218207   0.795   2.460   2.033  1.0524  2.0522 -1.4139
 4552SOL     MW18208   0.874   2.424   2.024  0.5927  0.3714  0.3580
 4553SOL     OW18209   0.975   4.690   4.373  0.0823  0.4844 -0.5219
 4553SOL    HW118210   1.011   4.660   4.289  1.0705  0.8137 -0.2382
 4553SOL    HW218211   0.881   4.700   4.357 -0.0715 -1.4432 -0.9941
 4553SOL     MW18212   0.968   4.688   4.360  0.1891  0.2798 -0.5460
 4554SOL     OW18213   0.738   5.323   2.875 -0.0281  0.2637 -0.9792
 4554SOL    HW118214   0.675   5.322   2.948 -2.0172  0.1195 -2.6262
 4554SOL    HW218215   0.787   5.405   2.888 -0.0344  0.0351  0.7419
 4554SOL     MW18216   0.736   5.334   2.886 -0.2835  0.2160 -0.9697
 4555SOL     OW18217   2.555   4.758   4.495 -0.0553 -0.2708 -0.5847
 4555SOL    HW118218   2.596   4.844   4.503 -2.7300  0.9249  4.1312
 4555SOL    HW218219   2.627   4.696   4.504  1.4299  1.5903  1.2237
 4555SOL     MW18220   2.569   4.761   4.497 -0.2076  0.1205  0.2505
 4556SOL     OW18221   2.978   2.759   3.639 -0.3534 -0.3195  0.0617
 4556SOL    HW118222   3.014   2.747   3.727 -1.1824 -0.0770  0.4472
 4556SOL    HW218223   2.990   2.675   3.596 -2.1363 -1.2489  1.2412
 4556SOL     MW18224   2.984   2.747   3.645 -0.6877 -0.4074  0.2620
 4557SOL     OW18225   1.191   1.546   0.066 -0.2976  0.5508 -0.0009
 4557SOL    HW118226   1.105   1.583   0.086  0.3708  1.5699  1.1233
 4557SOL    HW218227   1.242   1.619   0.032  0.0979 -0.0717 -0.7614
 4557SOL     MW18228   1.186   1.560   0.064 -0.1614  0.6015  0.0457
 4558SOL     OW18229   3.128   2.030   3.191  0.1057 -0.0446  0.2585
 4558SOL    HW118230   3.165   2.087   3.124  2.7778 -3.1051 -1.1787
 4558SOL    HW218231   3.045   2.001   3.154 -0.2061  1.1330 -0.0018
 4558SOL     MW18232   3.122   2.034   3.178  0.4078 -0.2856  0.0412
 4559SOL     OW18233   1.653   5.143   1.103 -0.7645  0.5450  0.1296
 4559SOL    HW118234   1.704   5.063   1.112 -0.7469  0.2298 -2.2712
 4559SOL    HW218235   1.565   5.119   1.134 -0.4313 -0.0033  0.6639
 4559SOL     MW18236   1.648   5.130   1.108 -0.7196  0.4344 -0.1094
 4560SOL     OW18237   2.770   3.269   1.147  0.0316  0.6298  0.4660
 4560SOL    HW118238   2.724   3.185   1.159 -0.8245  1.1374  0.8640
 4560SOL    HW218239   2.739   3.301   1.062  0.2488  0.6133  0.3800
 4560SOL     MW18240   2.760   3.262   1.138 -0.0502  0.6926  0.5060
 4561SOL     OW18241   0.165   3.844   1.775 -0.4566 -0.0044  1.0095
 4561SOL    HW118242   0.177   3.776   1.840 -1.2813 -1.5645 -0.3967
 4561SOL    HW218243   0.232   3.826   1.709 -0.9823  0.2728  0.3930
 4561SOL     MW18244   0.175   3.833   1.775 -0.6295 -0.1686  0.7506
 4562SOL     OW18245   1.112   3.577   3.311 -0.2414  0.0113 -0.7041
 4562SOL    HW118246   1.070   3.497   3.343 -1.5447  0.8791 -0.1645
 4562SOL    HW218247   1.078   3.646   3.367  1.5296  0.8569 -0.5952
 4562SOL     MW18248   1.102   3.576   3.322 -0.1816  0.2306 -0.6211
 4563SOL     OW18249   2.661   3.290   4.584 -0.1085  0.4606  0.1057
 4563SOL    HW118250   2.583   3.321   4.537  0.6365  0.6590 -1.0271
 4563SOL    HW218251   2.632   3.283   4.676 -2.1040 -1.5569 -0.5808
 4563SOL     MW18252   2.647   3.293   4.590 -0.2686  0.2278 -0.1272
 4564SOL     OW18253   2.706   2.659   4.641  0.0809  0.1300  0.0818
 4564SOL    HW118254   2.618   2.690   4.619  0.6255  2.5347  0.9969
 4564SOL    HW218255   2.713   2.671   4.736  1.4290  0.1039  0.0125
 4564SOL     MW18256   2.696   2.665   4.651  0.3232  0.4345  0.1901
 4565SOL     OW18257   3.376   1.249   4.814  0.0741  0.2568 -0.3640
 4565SOL    HW118258   3.310   1.274   4.879 -0.6954  0.2082 -1.0982
 4565SOL    HW218259   3.346   1.291   4.733  0.6952 -0.1637 -0.8196
 4565SOL     MW18260   3.364   1.258   4.812  0.0551  0.1967 -0.5163
 4566SOL     OW18261   1.871   5.203   3.630  0.7172 -0.3694 -0.1957
 4566SOL    HW118262   1.902   5.292   3.646  1.6375 -0.8420  0.7632
 4566SOL    HW218263   1.799   5.213   3.568  1.0893  0.9981 -0.4267
 4566SOL     MW18264   1.866   5.216   3.624  0.8826 -0.2549 -0.1025
 4567SOL     OW18265   4.141   4.301   4.770  0.6190  0.5390 -0.3738
 4567SOL    HW118266   4.108   4.216   4.741  0.8496  0.6231 -0.9145
 4567SOL    HW218267   4.204   4.281   4.839 -0.2814  0.3564  0.4047
 4567SOL     MW18268   4.145   4.288   4.775  0.5333  0.5264 -0.3433
 4568SOL     OW18269   2.020   3.143   0.967  0.1072 -0.4081 -0.0184
 4568SOL    HW118270   2.040   3.233   0.943 -0.0395 -0.2101  0.6112
 4568SOL    HW218271   2.105   3.099   0.968  0.1094 -0.4548 -1.0287
 4568SOL     MW18272   2.033   3.149   0.964  0.0887 -0.3887 -0.0671
 4569SOL     OW18273   2.569   0.592   0.928 -0.0108  0.6921  0.1258
 4569SOL    HW118274   2.558   0.576   0.835 -0.1847 -0.6938  0.3623
 4569SOL    HW218275   2.480   0.601   0.961 -0.1505 -1.6421  0.5812
 4569SOL     MW18276   2.556   0.591   0.920 -0.0510  0.2159  0.2144
 4570SOL     OW18277   0.083   0.778   2.717  0.2167 -0.2002  0.2582
 4570SOL    HW118278   0.040   0.861   2.737 -1.3693 -0.9115 -0.0286
 4570SOL    HW218279   0.118   0.790   2.629 -0.8471 -0.1248 -0.1780
 4570SOL     MW18280   0.082   0.790   2.709 -0.1225 -0.2816  0.1656
 4571SOL     OW18281   4.745   2.876   1.422  0.4582  0.1263  0.0459
 4571SOL    HW118282   4.705   2.916   1.499  1.7669 -0.1919  0.9164
 4571SOL    HW218283   4.772   2.789   1.451 -0.2460 -0.5294 -1.1737
 4571SOL     MW18284   4.743   2.870   1.436  0.5356  0.0016  0.0012
 4572SOL     OW18285   0.795   4.720   0.896 -0.6761  0.0895  0.0189
 4572SOL    HW118286   0.819   4.646   0.840 -3.2409 -1.4416  0.7506
 4572SOL    HW218287   0.827   4.695   0.983 -0.4868  0.4246  0.0467
 4572SOL     MW18288   0.803   4.707   0.900 -0.9802 -0.0636  0.1161
 4573SOL     OW18289   1.408   5.154   3.725 -0.0935 -0.2959 -0.3282
 4573SOL    HW118290   1.434   5.212   3.654 -0.3676  1.5032  0.9632
 4573SOL    HW218291   1.484   5.096   3.737  0.7124  0.6159 -0.8467
 4573SOL     MW18292   1.421   5.154   3.718 -0.0254  0.0511 -0.2293
 4574SOL     OW18293   2.169   4.757   3.572 -0.6185  0.0586 -0.1775
 4574SOL    HW118294   2.246   4.739   3.516 -0.9083 -0.1551 -0.5156
 4574SOL    HW218295   2.100   4.782   3.510 -0.3786  1.8810  0.2497
 4574SOL     MW18296   2.170   4.758   3.557 -0.6249  0.2645 -0.1661
 4575SOL     OW18297   0.042   4.039   2.442  0.1387  0.3926  0.5140
 4575SOL    HW118298   0.040   4.061   2.535 -0.6662  0.2011  0.5567
 4575SOL    HW218299  -0.050   4.046   2.415  0.4915  1.3997 -0.4940
 4575SOL     MW18300   0.030   4.043   2.450  0.0808  0.4970  0.3904
 4576SOL     OW18301   0.582   4.589   3.252 -0.3993 -0.2830 -0.0579
 4576SOL    HW118302   0.608   4.668   3.205 -3.1114  1.4295  1.0677
 4576SOL    HW218303   0.507   4.555   3.203  0.0718 -1.5720  0.0713
 4576SOL     MW18304   0.576   4.595   3.240 -0.6862 -0.2288  0.1027
 4577SOL     OW18305   4.609   1.892   0.602 -0.1392  0.0416 -0.2390
 4577SOL    HW118306   4.606   1.801   0.571  0.2382  0.0079 -0.1886
 4577SOL    HW218307   4.700   1.904   0.629 -0.6583 -0.2715  1.8317
 4577SOL     MW18308   4.621   1.882   0.602 -0.1573 -0.0028  0.0325
 4578SOL     OW18309   1.506   0.382   3.992 -0.2080  0.3736  0.0162
 4578SOL    HW118310   1.464   0.445   4.050 -1.5232  0.2683 -0.7796
 4578SOL    HW218311   1.454   0.302   4.001  1.3414 -0.6099  0.8981
 4578SOL     MW18312   1.494   0.379   4.001 -0.1780  0.2342  0.0272
 4579SOL     OW18313   5.253   1.551   3.557 -0.5059 -0.0466  0.0680
 4579SOL    HW118314   5.293   1.465   3.566 -2.3306 -0.9886 -0.1948
 4579SOL    HW218315   5.322   1.613   3.579  1.1048 -1.5387 -0.6114
 4579SOL     MW18316   5.267   1.548   3.561 -0.5333 -0.3582 -0.0526
 4580SOL     OW18317   4.715   1.284   1.818 -0.0287  1.0501 -0.2662
 4580SOL    HW118318   4.738   1.196   1.849  1.9174  1.3027 -0.8651
 4580SOL    HW218319   4.760   1.293   1.734 -3.4056  1.2032 -2.2544
 4580SOL     MW18320   4.724   1.274   1.811 -0.2118  1.1020 -0.5974
 4581SOL     OW18321   3.934   4.451   0.279  0.0524 -0.0387  0.4997
 4581SOL    HW118322   3.846   4.487   0.279  0.2703  0.5062 -0.0482
 4581SOL    HW218323   3.983   4.507   0.219  0.5947 -0.7550  0.2569
 4581SOL     MW18324   3.929   4.462   0.271  0.1497 -0.0606  0.3985
 4582SOL     OW18325   3.706   4.613   0.244 -0.3836  0.0649  0.2542
 4582SOL    HW118326   3.625   4.564   0.261 -0.7316  0.1741 -0.9458
 4582SOL    HW218327   3.718   4.668   0.321 -1.2316 -0.2682  0.6353
 4582SOL     MW18328   3.697   4.614   0.256 -0.5367  0.0362  0.1493
 4583SOL     OW18329   1.993   2.943   1.449 -0.6663  0.5896  0.3162
 4583SOL    HW118330   1.982   2.941   1.354 -2.5123 -0.7343  0.5161
 4583SOL    HW218331   1.910   2.911   1.483  0.4204 -0.1822  2.3572
 4583SOL     MW18332   1.981   2.939   1.441 -0.7635  0.3213  0.6030
 4584SOL     OW18333   1.454   1.564   0.979  0.4277  0.0024 -0.0748
 4584SOL    HW118334   1.503   1.633   0.934  0.6385  0.6976  1.1671
 4584SOL    HW218335   1.513   1.536   1.049 -0.2538 -0.3844  0.3482
 4584SOL     MW18336   1.468   1.570   0.982  0.3674  0.0419  0.1384
 4585SOL     OW18337   2.935   4.112   0.912  0.6212 -0.0924  0.0843
 4585SOL    HW118338   2.909   4.128   0.822  1.4648  1.5999  0.1023
 4585SOL    HW218339   2.980   4.192   0.939 -1.4322  0.3428  2.6966
 4585SOL     MW18340   2.937   4.125   0.904  0.4663  0.1800  0.4210
 4586SOL     OW18341   1.695   4.218   1.140  0.0996 -0.3938  0.2256
 4586SOL    HW118342   1.744   4.258   1.211 -0.4011  2.1079 -0.7581
 4586SOL    HW218343   1.626   4.167   1.184  0.6648 -0.0663  1.5230
 4586SOL     MW18344   1.692   4.216   1.155  0.1078 -0.0316  0.2658
 4587SOL     OW18345   1.053   0.441   3.761  0.7895  0.7188  0.7072
 4587SOL    HW118346   1.124   0.408   3.705 -0.3196  0.2672 -0.4936
 4587SOL    HW218347   1.066   0.536   3.764  1.9472  0.5626  1.2527
 4587SOL     MW18348   1.064   0.449   3.754  0.7957  0.6410  0.6233
 4588SOL     OW18349   1.164   3.450   2.865 -0.4015 -0.1249 -0.4381
 4588SOL    HW118350   1.177   3.461   2.771  1.1313  1.3499 -0.0934
 4588SOL    HW218351   1.252   3.445   2.902 -0.8710  2.1163  1.1966
 4588SOL     MW18352   1.177   3.451   2.858 -0.2654  0.3508 -0.1847
 4589SOL     OW18353   3.408   2.063   2.130 -0.1281  0.5031  0.0328
 4589SOL    HW118354   3.469   2.045   2.058 -1.9552  1.9204 -1.9977
 4589SOL    HW218355   3.464   2.096   2.200  1.7588 -1.0927 -0.6022
 4589SOL     MW18356   3.423   2.065   2.130 -0.1205  0.4802 -0.3084
 4590SOL     OW18357   0.449   4.127   2.808 -0.3093  0.5866  0.0880
 4590SOL    HW118358   0.419   4.205   2.855  1.1550  0.5243  1.1826
 4590SOL    HW218359   0.376   4.065   2.816 -1.7434  1.9950 -1.3058
 4590SOL     MW18360   0.436   4.129   2.815 -0.3054  0.7589  0.0497
 4591SOL     OW18361   3.737   4.743   4.975 -0.1062  0.3640 -0.4490
 4591SOL    HW118362   3.745   4.650   4.994  1.6854  0.5589 -0.1211
 4591SOL    HW218363   3.664   4.773   5.030  0.4908 -0.4773  0.8303
 4591SOL     MW18364   3.728   4.735   4.985  0.1996  0.2813 -0.2432
 4592SOL     OW18365   2.694   1.944   3.556  0.3950  0.0865  0.6348
 4592SOL    HW118366   2.724   1.860   3.590  0.2884 -0.7412 -1.2005
 4592SOL    HW218367   2.773   1.988   3.525  0.1853 -0.5598 -0.9214
 4592SOL     MW18368   2.708   1.939   3.556  0.3545 -0.1022  0.2007
 4593SOL     OW18369   2.271   3.131   0.397  0.5593 -0.2879  0.6393
 4593SOL    HW118370   2.321   3.136   0.315 -0.5599  1.1362 -0.0119
 4593SOL    HW218371   2.181   3.153   0.371  0.2611  0.5698  2.3105
 4593SOL     MW18372   2.266   3.135   0.383  0.3778  0.0042  0.7699
 4594SOL     OW18373   2.765   3.651   2.937  0.4283 -0.2882 -0.6737
 4594SOL    HW118374   2.709   3.607   2.873 -1.1523  1.8131 -0.8377
 4594SOL    HW218375   2.704   3.688   3.000  1.8153 -0.0615  0.5825
 4594SOL     MW18376   2.750   3.650   2.937  0.4035  0.0098 -0.5339
 4595SOL     OW18377   3.909   2.862   4.081 -0.3376  0.2601  0.0908
 4595SOL    HW118378   3.858   2.807   4.140 -0.5207 -0.0489 -0.3487
 4595SOL    HW218379   3.986   2.809   4.060 -0.1833  0.4410  0.1910
 4595SOL     MW18380   3.913   2.848   4.086 -0.3413  0.2437  0.0474
 4596SOL     OW18381   2.562   3.966   1.126  0.6507 -0.1914 -0.1856
 4596SOL    HW118382   2.598   3.889   1.082 -1.5265 -1.1729 -0.3636
 4596SOL    HW218383   2.604   4.040   1.082  1.0946 -1.2177 -1.5628
 4596SOL     MW18384   2.572   3.965   1.115  0.4289 -0.4484 -0.3847
 4597SOL     OW18385   0.164   2.887   4.359  0.4474  0.5773  0.4509
 4597SOL    HW118386   0.128   2.967   4.320 -0.1036  0.6046  1.0006
 4597SOL    HW218387   0.224   2.919   4.426 -0.0247  0.5329  0.8976
 4597SOL     MW18388   0.167   2.902   4.363  0.3164  0.5751  0.5785
 4598SOL     OW18389   2.656   4.179   3.461  0.4651 -0.0894  0.2707
 4598SOL    HW118390   2.711   4.128   3.402  3.7992  1.4454  1.7969
 4598SOL    HW218391   2.578   4.200   3.409  1.0860 -2.6655 -1.9286
 4598SOL     MW18392   2.653   4.175   3.447  0.9714 -0.2227  0.1845
 4599SOL     OW18393   4.629   0.650   1.242 -0.0037 -0.3259 -0.2444
 4599SOL    HW118394   4.721   0.676   1.241  0.0467 -0.4343  0.7952
 4599SOL    HW218395   4.611   0.621   1.152  0.5731  1.0448 -0.8283
 4599SOL     MW18396   4.638   0.650   1.230  0.0766 -0.1643 -0.1861
 4600SOL     OW18397   0.044   0.618   3.650  0.4031 -0.7704 -0.1991
 4600SOL    HW118398   0.091   0.701   3.641  0.4474 -0.4854  2.2023
 4600SOL    HW218399   0.111   0.551   3.633  0.7294 -0.3426 -0.6277
 4600SOL     MW18400   0.059   0.620   3.647  0.4505 -0.6792  0.0535
 4601SOL     OW18401   4.095   1.770   3.499  0.3698 -0.1390  0.5487
 4601SOL    HW118402   4.034   1.714   3.451  0.8903 -1.7823  1.6700
 4601SOL    HW218403   4.063   1.768   3.589  1.4413 -0.1460  0.9436
 4601SOL     MW18404   4.083   1.762   3.504  0.5736 -0.3502  0.7428
 4602SOL     OW18405   5.084   2.659   3.681  0.5176 -0.2854  0.5415
 4602SOL    HW118406   5.039   2.639   3.763  1.3400 -2.2462  0.5479
 4602SOL    HW218407   5.136   2.737   3.701 -1.1685  0.7394  1.1357
 4602SOL     MW18408   5.085   2.667   3.694  0.4070 -0.4052  0.6184
 4603SOL     OW18409   2.259   3.996   3.439  0.3299  0.1176 -0.4494
 4603SOL    HW118410   2.335   4.009   3.496  0.5814  0.1040 -0.7775
 4603SOL    HW218411   2.296   3.963   3.357 -0.2734 -3.0441  0.4089
 4603SOL     MW18412   2.273   3.993   3.436  0.2849 -0.2889 -0.3816
 4604SOL     OW18413   0.532   4.842   1.086 -0.0133 -0.1771 -0.4940
 4604SOL    HW118414   0.443   4.875   1.092 -0.1480 -0.3061 -1.5969
 4604SOL    HW218415   0.539   4.805   0.998  1.3167  0.3932 -0.6598
 4604SOL     MW18416   0.522   4.842   1.075  0.1397 -0.1206 -0.6564
 4605SOL     OW18417   1.569   2.222   4.606  0.3685 -0.4265 -0.2494
 4605SOL    HW118418   1.534   2.218   4.695  0.9182  3.7522  0.3507
 4605SOL    HW218419   1.491   2.217   4.550 -0.3404  0.2171  0.6476
 4605SOL     MW18420   1.555   2.221   4.610  0.3482  0.1909 -0.0577
 4606SOL     OW18421   4.605   1.232   2.665 -0.3261  0.2860 -0.1837
 4606SOL    HW118422   4.650   1.156   2.628 -1.1499  0.1142 -0.8664
 4606SOL    HW218423   4.556   1.198   2.740 -1.3052 -0.0328 -0.9413
 4606SOL     MW18424   4.604   1.218   2.670 -0.5569  0.2232 -0.3681
 4607SOL     OW18425   3.806   1.307   1.307  0.5803 -0.1485  0.5455
 4607SOL    HW118426   3.846   1.221   1.314  0.9769 -0.1080 -0.8906
 4607SOL    HW218427   3.823   1.334   1.217 -2.9991 -0.2961 -0.3321
 4607SOL     MW18428   3.813   1.300   1.296  0.1729 -0.1622  0.2493
 4608SOL     OW18429   0.468   0.807   3.098 -0.0788 -0.0635 -0.5682
 4608SOL    HW118430   0.390   0.806   3.042 -2.3407  1.9180  2.2116
 4608SOL    HW218431   0.506   0.894   3.083 -0.3890  0.2681  0.4787
 4608SOL     MW18432   0.463   0.818   3.089 -0.4081  0.2326 -0.0783
 4609SOL     OW18433   3.071   2.081   1.482 -0.5103  0.6465  0.1399
 4609SOL    HW118434   3.020   2.063   1.404  0.9105 -1.6738 -0.3490
 4609SOL    HW218435   3.009   2.072   1.554 -1.2110 -0.2274 -0.5501
 4609SOL     MW18436   3.056   2.078   1.482 -0.4181  0.2376 -0.0110
 4610SOL     OW18437   4.129   3.826   0.981 -0.2602 -0.1604  0.2263
 4610SOL    HW118438   4.107   3.765   0.910  0.8156 -0.5836  0.2479
 4610SOL    HW218439   4.209   3.791   1.020  0.5053  1.3712  0.1164
 4610SOL     MW18440   4.136   3.814   0.977 -0.0245 -0.0185  0.2150
 4611SOL     OW18441   0.304   1.210   3.564 -0.4373 -0.6347  0.5270
 4611SOL    HW118442   0.314   1.305   3.554 -0.2518 -0.7094 -0.0297
 4611SOL    HW218443   0.384   1.174   3.526 -0.6044 -1.0256  0.5462
 4611SOL     MW18444   0.315   1.218   3.558 -0.4349 -0.6943  0.4582
 4612SOL     OW18445   4.615   2.089   2.552 -0.0187 -0.1348  0.4057
 4612SOL    HW118446   4.574   2.120   2.633  0.5616  1.0405  0.2738
 4612SOL    HW218447   4.706   2.073   2.577  0.2712  0.6647 -0.1038
 4612SOL     MW18448   4.622   2.091   2.566  0.0927  0.1180  0.3236
 4613SOL     OW18449   4.166   3.456   0.799 -0.4410  0.1551  0.8791
 4613SOL    HW118450   4.177   3.440   0.705  1.5872 -1.4155  1.3254
 4613SOL    HW218451   4.105   3.388   0.827  0.0911 -0.3007  0.9432
 4613SOL     MW18452   4.159   3.445   0.791 -0.1132 -0.1043  0.9445
 4614SOL     OW18453   0.748   0.779   0.183  0.2788  0.3029 -0.4538
 4614SOL    HW118454   0.795   0.756   0.263  1.3181  0.1413 -1.0991
 4614SOL    HW218455   0.660   0.744   0.197  0.9080 -1.2139 -0.0580
 4614SOL     MW18456   0.743   0.772   0.195  0.4924  0.0880 -0.4857
 4615SOL     OW18457   4.682   1.769   4.882  0.4506 -0.1052  0.1643
 4615SOL    HW118458   4.658   1.748   4.972  1.9746  1.8102  1.0981
 4615SOL    HW218459   4.625   1.842   4.859  0.0963 -0.5632 -0.4152
 4615SOL     MW18460   4.671   1.775   4.891  0.6004  0.0814  0.2096
 4616SOL     OW18461   5.201   0.830   4.682 -0.3440 -1.0293 -0.7247
 4616SOL    HW118462   5.134   0.898   4.673 -0.6857 -1.2858 -0.1231
 4616SOL    HW218463   5.277   0.865   4.634  0.6123  1.2692  2.1377
 4616SOL     MW18464   5.202   0.843   4.675 -0.2653 -0.7679 -0.2813
 4617SOL     OW18465   1.992   0.816   2.722  0.2117 -0.3345 -0.2154
 4617SOL    HW118466   2.042   0.812   2.804  2.9549  1.2323 -1.6891
 4617SOL    HW218467   1.920   0.754   2.736  2.6967 -3.0440  1.9576
 4617SOL     MW18468   1.989   0.808   2.734  0.8809 -0.4808 -0.1259
 4618SOL     OW18469   2.535   2.044   4.551  0.0969  0.1098 -0.1005
 4618SOL    HW118470   2.576   2.065   4.467 -0.8288 -0.7248 -0.7900
 4618SOL    HW218471   2.604   2.001   4.601  0.6217  0.4881 -0.4890
 4618SOL     MW18472   2.549   2.041   4.546  0.0456  0.0514 -0.2385
 4619SOL     OW18473   2.609   5.044   1.934  0.5069  0.3889  0.6581
 4619SOL    HW118474   2.684   5.025   1.879  0.1525 -0.5688  0.5001
 4619SOL    HW218475   2.623   5.135   1.962  1.4866  0.3693  0.2763
 4619SOL     MW18476   2.620   5.053   1.930  0.5870  0.2638  0.5890
 4620SOL     OW18477   5.012   4.263   0.940 -0.2576  0.3133  0.2151
 4620SOL    HW118478   5.103   4.268   0.910 -0.3200  0.6125  0.0711
 4620SOL    HW218479   5.012   4.192   1.004 -0.3112 -1.0666 -1.2341
 4620SOL     MW18480   5.024   4.254   0.944 -0.2724  0.1749  0.0112
 4621SOL     OW18481   5.096   0.116   4.129  0.0202 -0.1013  0.4491
 4621SOL    HW118482   5.029   0.131   4.061  0.6551  0.0386 -0.1583
 4621SOL    HW218483   5.050   0.133   4.211 -0.2789  1.6336 -0.0194
 4621SOL     MW18484   5.082   0.121   4.131  0.0632  0.1387  0.3114
 4622SOL     OW18485   3.324   0.169   3.581 -0.8639  0.8785  0.2560
 4622SOL    HW118486   3.405   0.200   3.621 -1.1971  3.4841 -0.8452
 4622SOL    HW218487   3.271   0.138   3.654  0.9452 -0.5255  1.0297
 4622SOL     MW18488   3.328   0.169   3.595 -0.6750  1.0323  0.2141
 4623SOL     OW18489   1.395   0.851   4.990  0.0049  0.1319 -0.6948
 4623SOL    HW118490   1.407   0.774   4.934 -0.5849 -1.1698  0.8684
 4623SOL    HW218491   1.303   0.845   5.018  0.5153  0.2181  1.0934
 4623SOL     MW18492   1.385   0.840   4.987 -0.0052 -0.0237 -0.2658
 4624SOL     OW18493   4.024   5.010   1.987 -0.5398  0.3529 -0.3340
 4624SOL    HW118494   3.954   4.948   2.008  0.8325 -0.7923  1.0817
 4624SOL    HW218495   4.051   4.986   1.899 -0.6183 -0.5209 -0.1344
 4624SOL     MW18496   4.018   4.999   1.979 -0.3742  0.0945 -0.1272
 4625SOL     OW18497   4.029   2.840   3.246  0.3499 -0.1579 -0.5637
 4625SOL    HW118498   4.020   2.785   3.325  2.1228 -0.0319 -0.2179
 4625SOL    HW218499   4.121   2.829   3.221  0.7742  2.6447 -0.4929
 4625SOL     MW18500   4.040   2.831   3.253  0.6312  0.2170 -0.5104
 4626SOL     OW18501   2.240   1.115   4.036  0.2642  0.0910  0.2098
 4626SOL    HW118502   2.226   1.167   3.956  0.9706 -0.3390 -0.2081
 4626SOL    HW218503   2.198   1.166   4.105  0.2858  0.8469 -0.3144
 4626SOL     MW18504   2.233   1.128   4.034  0.3574  0.1327  0.0892
 4627SOL     OW18505   4.064   3.111   3.414  0.0534  0.1321  0.3212
 4627SOL    HW118506   4.096   3.074   3.496  0.9260  0.4534  0.1430
 4627SOL    HW218507   4.096   3.052   3.346  0.6828  0.6967  0.1059
 4627SOL     MW18508   4.072   3.099   3.416  0.2456  0.2455  0.2709
 4628SOL     OW18509   0.771   5.065   4.783 -0.2307  0.0499  0.0940
 4628SOL    HW118510   0.734   5.136   4.731  1.3292  0.5938 -0.3416
 4628SOL    HW218511   0.743   5.083   4.873 -2.1297 -0.3480 -0.3925
 4628SOL     MW18512   0.763   5.076   4.788 -0.2741  0.0686 -0.0241
 4629SOL     OW18513   0.495   5.438   2.268  0.0846 -0.1441  0.3167
 4629SOL    HW118514   0.568   5.428   2.330  1.2683  0.4656 -0.9129
 4629SOL    HW218515   0.487   5.352   2.227 -1.7079 -1.0006  2.3063
 4629SOL     MW18516   0.504   5.426   2.270  0.0066 -0.1757  0.4140
 4630SOL     OW18517   1.562   5.157   2.943 -0.2936  0.4416  0.6549
 4630SOL    HW118518   1.641   5.207   2.925  0.5851 -0.9737  0.4727
 4630SOL    HW218519   1.496   5.195   2.885  0.4097  1.2138  0.3457
 4630SOL     MW18520   1.564   5.168   2.933 -0.0910  0.3593  0.5920
 4631SOL     OW18521   0.993   0.523   1.080 -0.3162 -0.1387  0.3731
 4631SOL    HW118522   0.963   0.533   1.170 -1.3728  2.0490 -0.1614
 4631SOL    HW218523   1.031   0.608   1.057 -0.2059 -0.5922 -1.2895
 4631SOL     MW18524   0.994   0.535   1.088 -0.4374  0.0833  0.0918
 4632SOL     OW18525   2.581   0.630   3.490  0.3279 -0.1861  0.3759
 4632SOL    HW118526   2.662   0.593   3.456 -0.4128 -0.4702 -1.1566
 4632SOL    HW218527   2.538   0.556   3.533  0.3976 -0.2840  0.2782
 4632SOL     MW18528   2.586   0.616   3.491  0.2420 -0.2350  0.1672
 4633SOL     OW18529   4.249   1.225   4.578  0.6064 -0.0627 -0.0835
 4633SOL    HW118530   4.167   1.240   4.625  0.0549  0.1308 -1.0712
 4633SOL    HW218531   4.276   1.137   4.605  0.1847 -0.0463  0.4086
 4633SOL     MW18532   4.242   1.215   4.587  0.4819 -0.0358 -0.1470
 4634SOL     OW18533   2.317   1.365   3.578  0.5698  0.0759  0.2245
 4634SOL    HW118534   2.328   1.448   3.625  0.3131  0.4554 -0.3728
 4634SOL    HW218535   2.406   1.331   3.570  0.5471 -0.4294  1.7259
 4634SOL     MW18536   2.330   1.371   3.583  0.5340  0.0598  0.3403
 4635SOL     OW18537   4.894   4.202   2.060 -0.5245 -0.3586  0.4040
 4635SOL    HW118538   4.908   4.286   2.016 -2.5346  0.4980  1.2582
 4635SOL    HW218539   4.971   4.190   2.116  0.3430  0.3041 -0.6135
 4635SOL     MW18540   4.906   4.211   2.062 -0.6708 -0.1641  0.3831
 4636SOL     OW18541   4.020   5.268   2.213 -0.1838  0.1533 -0.0478
 4636SOL    HW118542   3.972   5.197   2.170  0.9710 -0.4510 -0.3814
 4636SOL    HW218543   4.052   5.229   2.294 -2.0807  1.1983  1.2810
 4636SOL     MW18544   4.018   5.253   2.218 -0.2788  0.2097  0.0796
 4637SOL     OW18545   3.351   4.462   2.667  0.3000  0.2572  0.0138
 4637SOL    HW118546   3.444   4.480   2.680 -0.1964  2.7608  0.6912
 4637SOL    HW218547   3.331   4.500   2.581 -0.0029 -0.8259 -0.4147
 4637SOL     MW18548   3.360   4.470   2.658  0.1977  0.4391  0.0456
 4638SOL     OW18549   5.192   0.837   1.374 -0.3351  0.6657  0.8100
 4638SOL    HW118550   5.098   0.834   1.393 -0.7430  2.3166 -0.7539
 4638SOL    HW218551   5.203   0.779   1.299  0.2111 -0.7439  1.9157
 4638SOL     MW18552   5.182   0.829   1.367 -0.3174  0.6966  0.7514
 4639SOL     OW18553   2.734   2.496   2.835 -0.3828  0.1375 -0.0836
 4639SOL    HW118554   2.771   2.409   2.821 -3.1748 -1.2484  0.3515
 4639SOL    HW218555   2.749   2.514   2.928  0.7537  0.4436 -0.3112
 4639SOL     MW18556   2.740   2.487   2.845 -0.5947 -0.0008 -0.0571
 4640SOL     OW18557   1.096   4.987   0.535 -0.0441 -0.0573 -0.2333
 4640SOL    HW118558   1.145   4.934   0.597 -1.1081 -1.7182 -0.7285
 4640SOL    HW218559   1.112   4.947   0.450  2.3436  2.8732 -1.3654
 4640SOL     MW18560   1.104   4.975   0.532  0.1253  0.1053 -0.4416
 4641SOL     OW18561   0.028   0.201   1.550  0.3823  0.6188 -0.0148
 4641SOL    HW118562   0.018   0.233   1.640  0.2000  0.4456  0.0269
 4641SOL    HW218563  -0.051   0.150   1.534  0.3956  0.6843 -0.2892
 4641SOL     MW18564   0.017   0.199   1.560  0.3607  0.6050 -0.0446
 4642SOL     OW18565   1.111   5.419   5.258 -0.5696 -0.6870 -0.0349
 4642SOL    HW118566   1.200   5.399   5.286 -0.0490 -0.1887 -1.2633
 4642SOL    HW218567   1.102   5.374   5.174 -1.0196  0.3355 -0.5544
 4642SOL     MW18568   1.121   5.410   5.251 -0.5606 -0.4923 -0.2587
 4643SOL     OW18569   3.403   1.902   4.284  0.3324 -0.0460 -0.0541
 4643SOL    HW118570   3.395   1.974   4.347 -0.7621 -0.1179 -0.0888
 4643SOL    HW218571   3.490   1.866   4.300 -0.2747 -0.7298  2.1789
 4643SOL     MW18572   3.413   1.907   4.294  0.1146 -0.1427  0.2273
 4644SOL     OW18573   1.623   3.872   3.198  0.2427 -0.1109 -0.1184
 4644SOL    HW118574   1.594   3.783   3.176  0.4851 -0.3871  0.6613
 4644SOL    HW218575   1.603   3.882   3.291  0.3055  0.6189 -0.1818
 4644SOL     MW18576   1.617   3.862   3.207  0.2818 -0.0529 -0.0267
 4645SOL     OW18577   1.637   2.858   4.821  0.7398  0.0765 -0.3666
 4645SOL    HW118578   1.708   2.843   4.884  0.4593  0.7568  0.1247
 4645SOL    HW218579   1.682   2.874   4.738  1.1453  0.0762 -0.1502
 4645SOL     MW18580   1.652   2.858   4.819  0.7558  0.1635 -0.2760
 4646SOL     OW18581   5.304   3.223   0.722  0.1534  0.1445 -0.0862
 4646SOL    HW118582   5.259   3.169   0.656 -0.5754  1.0843 -0.3783
 4646SOL    HW218583   5.236   3.279   0.758  1.0985  1.6959 -0.6320
 4646SOL     MW18584   5.290   3.223   0.718  0.1811  0.4634 -0.1935
 4647SOL     OW18585   3.011   3.879   4.890 -0.1580  0.6841  0.3212
 4647SOL    HW118586   2.994   3.785   4.893  1.1462  0.3057 -1.7793
 4647SOL    HW218587   2.963   3.915   4.964  0.2429 -1.7645  1.8568
 4647SOL     MW18588   3.003   3.871   4.900  0.0603  0.3222  0.2489
 4648SOL     OW18589   1.340   0.479   4.196 -0.2651  0.5348 -0.3768
 4648SOL    HW118590   1.375   0.505   4.281 -0.9461  1.1116 -0.2649
 4648SOL    HW218591   1.252   0.447   4.215 -0.2046  0.1107 -0.7918
 4648SOL     MW18592   1.333   0.478   4.209 -0.3445  0.5543 -0.4156
 4649SOL     OW18593   0.862   2.821   1.715 -0.4059 -0.7992 -0.5975
 4649SOL    HW118594   0.883   2.878   1.790 -0.3214  0.2159 -1.3759
 4649SOL    HW218595   0.767   2.815   1.716 -0.5841  1.0591 -1.6948
 4649SOL     MW18596   0.853   2.828   1.725 -0.4179 -0.4314 -0.8376
 4650SOL     OW18597   1.990   3.328   1.276 -0.1589 -0.0314  0.1876
 4650SOL    HW118598   1.930   3.349   1.347 -0.5151  0.2641 -0.1923
 4650SOL    HW218599   1.942   3.263   1.223  0.2877 -0.5981  0.4700
 4650SOL     MW18600   1.976   3.322   1.278 -0.1473 -0.0661  0.1752
 4651SOL     OW18601   1.303   4.969   5.156 -0.0433 -0.3738 -0.0918
 4651SOL    HW118602   1.227   4.968   5.215  0.3864  1.8816  0.5933
 4651SOL    HW218603   1.271   4.928   5.076 -0.2715 -4.9568  1.9980
 4651SOL     MW18604   1.289   4.964   5.153 -0.0175 -0.6718  0.2634
 4652SOL     OW18605   4.381   1.887   1.633 -0.2251 -0.2940  0.5909
 4652SOL    HW118606   4.371   1.800   1.594  2.4869 -0.5879  0.3446
 4652SOL    HW218607   4.325   1.944   1.580 -0.9820 -1.6499 -0.1179
 4652SOL     MW18608   4.372   1.883   1.621  0.0252 -0.5052  0.4687
 4653SOL     OW18609   3.988   0.473   0.654  0.5986  0.1607 -0.2767
 4653SOL    HW118610   4.048   0.523   0.599  1.4221  0.7106  1.0791
 4653SOL    HW218611   4.004   0.504   0.743 -2.0112  0.6530  0.1111
 4653SOL     MW18612   3.998   0.483   0.659  0.3699  0.2941 -0.0535
 4654SOL     OW18613   5.274   0.968   4.245  0.0820  0.7003  0.0649
 4654SOL    HW118614   5.213   0.906   4.206 -1.0239  2.3341 -0.9196
 4654SOL    HW218615   5.360   0.943   4.211 -0.0924 -1.1520  0.8613
 4654SOL     MW18616   5.277   0.957   4.236 -0.0819  0.6724  0.0408
 4655SOL     OW18617   2.088   3.461   2.495  0.1433  0.5430  0.0499
 4655SOL    HW118618   2.053   3.375   2.519 -0.9844  0.8062 -0.5793
 4655SOL    HW218619   2.178   3.443   2.468  0.1479 -0.3352  0.6042
 4655SOL     MW18620   2.095   3.448   2.495 -0.0004  0.4643  0.0403
 4656SOL     OW18621   1.516   1.089   1.550 -0.2153  0.4782  0.0231
 4656SOL    HW118622   1.562   1.024   1.602  0.3772  1.4696  0.7760
 4656SOL    HW218623   1.557   1.083   1.463  0.3785  0.3926  0.3019
 4656SOL     MW18624   1.527   1.080   1.545 -0.0635  0.5942  0.1552
 4657SOL     OW18625   0.683   2.818   0.460 -0.5731  0.3120 -0.2775
 4657SOL    HW118626   0.724   2.881   0.519 -0.3953  0.9449 -1.0622
 4657SOL    HW218627   0.747   2.747   0.452  0.3548  1.2329 -1.3895
 4657SOL     MW18628   0.696   2.817   0.466 -0.4315  0.5109 -0.5203
 4658SOL     OW18629   0.417   3.180   5.348 -0.1105 -0.1544  1.1461
 4658SOL    HW118630   0.470   3.230   5.285 -0.7711 -1.3029 -0.3856
 4658SOL    HW218631   0.347   3.240   5.372 -0.2595  0.0602  0.2121
 4658SOL     MW18632   0.415   3.194   5.343 -0.2141 -0.2739  0.8305
 4659SOL     OW18633   1.172   2.616   2.113  0.0877 -0.0874  0.4805
 4659SOL    HW118634   1.263   2.590   2.116  0.2624  0.5063  0.5921
 4659SOL    HW218635   1.137   2.595   2.200  0.5704  1.2185  1.0202
 4659SOL     MW18636   1.179   2.610   2.125  0.1719  0.1558  0.5639
 4660SOL     OW18637   4.890   0.112   5.414 -0.2722 -0.1845  1.0861
 4660SOL    HW118638   4.809   0.162   5.420  0.4506  1.1203  0.4599
 4660SOL    HW218639   4.958   0.174   5.440  0.8426 -0.2559 -1.4012
 4660SOL     MW18640   4.888   0.127   5.418 -0.0370 -0.0266  0.6875
 4661SOL     OW18641   3.549   4.340   4.187 -0.2543 -0.4306  0.2210
 4661SOL    HW118642   3.473   4.374   4.234 -1.8336 -1.5155 -1.4083
 4661SOL    HW218643   3.531   4.246   4.178  1.7922 -0.9178  0.6667
 4661SOL     MW18644   3.537   4.332   4.192 -0.1945 -0.6318  0.0695
 4662SOL     OW18645   3.858   4.802   3.676 -0.2902  0.5390 -0.0551
 4662SOL    HW118646   3.835   4.869   3.740 -0.5396  0.5244 -0.1287
 4662SOL    HW218647   3.787   4.805   3.612 -2.6128 -2.6512  2.0708
 4662SOL     MW18648   3.846   4.811   3.676 -0.6194  0.1288  0.2076
 4663SOL     OW18649   4.028   1.554   0.201 -0.3371 -0.1837 -0.0427
 4663SOL    HW118650   3.952   1.608   0.224 -0.1265  0.1171 -0.0416
 4663SOL    HW218651   4.102   1.614   0.207 -0.2103 -0.2425 -0.9456
 4663SOL     MW18652   4.028   1.569   0.205 -0.2939 -0.1527 -0.1582
 4664SOL     OW18653   2.179   2.405   0.998 -0.6288 -0.1680  0.0729
 4664SOL    HW118654   2.092   2.366   0.990 -0.6019  0.0139 -1.1909
 4664SOL    HW218655   2.239   2.331   0.987 -0.6050 -0.1673  0.1921
 4664SOL     MW18656   2.176   2.390   0.996 -0.6223 -0.1446 -0.0736
 4665SOL     OW18657   3.216   4.902   1.332  0.1532 -0.3490 -0.7111
 4665SOL    HW118658   3.276   4.875   1.402 -0.9212  1.3851  0.9552
 4665SOL    HW218659   3.131   4.909   1.375 -1.0436 -1.4466 -2.7311
 4665SOL     MW18660   3.213   4.899   1.347 -0.1376 -0.2675 -0.7564
 4666SOL     OW18661   1.343   5.264   2.811  0.2176  0.1828 -0.0111
 4666SOL    HW118662   1.288   5.334   2.846  1.1071  0.9226 -0.0483
 4666SOL    HW218663   1.281   5.198   2.780 -0.6332  0.7935  0.3431
 4666SOL     MW18664   1.328   5.264   2.811  0.2225  0.3557  0.0295
 4667SOL     OW18665   2.013   1.683   5.143  0.0852 -0.8135  0.0047
 4667SOL    HW118666   1.952   1.735   5.091 -0.1332 -1.6345 -0.5701
 4667SOL    HW218667   2.075   1.747   5.178  0.1979 -0.2332 -1.2080
 4667SOL     MW18668   2.013   1.698   5.141  0.0717 -0.8443 -0.2241
 4668SOL     OW18669   3.402   4.226   0.106 -0.0251  0.3026  0.1392
 4668SOL    HW118670   3.332   4.167   0.135  1.6230 -1.4872  0.7315
 4668SOL    HW218671   3.471   4.167   0.074  1.0636  1.9964 -0.7884
 4668SOL     MW18672   3.402   4.211   0.106  0.3252  0.2903  0.0963
 4669SOL     OW18673   0.307   0.005   3.070  0.7389  0.0865  0.5754
 4669SOL    HW118674   0.353   0.080   3.107 -0.7189  0.5300  1.5615
 4669SOL    HW218675   0.285   0.032   2.981 -1.9479  1.9101  1.6775
 4669SOL     MW18676   0.310   0.018   3.063  0.2083  0.3768  0.8427
 4670SOL     OW18677   1.104   3.188   1.302  0.2800  0.1224 -0.0165
 4670SOL    HW118678   1.178   3.212   1.246  0.8787 -0.8648  0.3259
 4670SOL    HW218679   1.087   3.096   1.281 -0.9325  0.3599 -0.1615
 4670SOL     MW18680   1.111   3.180   1.292  0.2014  0.0264  0.0088
 4671SOL     OW18681   0.879   4.512   5.347 -0.0583  0.3528  0.0094
 4671SOL    HW118682   0.938   4.572   5.391  1.8896 -0.1690 -1.7376
 4671SOL    HW218683   0.799   4.514   5.400  1.2026  1.7048  2.0049
 4671SOL     MW18684   0.876   4.520   5.360  0.3525  0.4591  0.0412
 4672SOL     OW18685   0.141   5.248   3.312  0.5258 -0.0626 -0.4102
 4672SOL    HW118686   0.111   5.173   3.364 -0.9426  0.5026 -0.4031
 4672SOL    HW218687   0.231   5.263   3.343  0.1392 -0.5285  1.0658
 4672SOL     MW18688   0.149   5.240   3.323  0.2883 -0.0499 -0.2204
 4673SOL     OW18689   1.546   3.929   0.550  0.2769  0.9507 -0.3226
 4673SOL    HW118690   1.563   4.018   0.521  0.7117  1.3086  0.9434
 4673SOL    HW218691   1.632   3.888   0.557  0.1435  0.6936 -0.1298
 4673SOL     MW18692   1.559   3.935   0.547  0.3155  0.9636 -0.1358
 4674SOL     OW18693   0.218   2.983   3.382 -0.3216  0.2722  0.8752
 4674SOL    HW118694   0.290   2.921   3.392 -1.9556 -1.7879  0.6168
 4674SOL    HW218695   0.198   3.011   3.471  0.8890  1.0318  0.9315
 4674SOL     MW18696   0.224   2.978   3.394 -0.3758  0.1057  0.8493
 4675SOL     OW18697   0.087   4.957   3.991 -0.4355  0.6172  0.0170
 4675SOL    HW118698   0.134   5.024   3.942  0.8174 -0.9352 -1.0286
 4675SOL    HW218699   0.154   4.913   4.043 -0.7541 -1.2637 -1.0493
 4675SOL     MW18700   0.101   4.960   3.991 -0.3159  0.1777 -0.2534
 4676SOL     OW18701   1.455   1.292   3.575 -0.2714 -0.0755  0.2595
 4676SOL    HW118702   1.387   1.326   3.633  0.1091  0.0914  0.6066
 4676SOL    HW218703   1.406   1.253   3.502 -0.7139  1.2245 -0.1685
 4676SOL     MW18704   1.440   1.291   3.573 -0.2793  0.1123  0.2491
 4677SOL     OW18705   0.726   4.658   4.294 -0.0312 -0.3870 -0.4648
 4677SOL    HW118706   0.707   4.723   4.226 -0.5811  0.3086  0.3245
 4677SOL    HW218707   0.640   4.623   4.318 -0.2733  1.4938  1.8863
 4677SOL     MW18708   0.713   4.662   4.288 -0.1326 -0.0572 -0.0628
 4678SOL     OW18709   3.282   5.482   3.349 -0.0120 -0.2566  0.1532
 4678SOL    HW118710   3.218   5.421   3.386  0.2343 -0.3586  0.4176
 4678SOL    HW218711   3.331   5.514   3.424 -0.5620  0.7716  0.0865
 4678SOL     MW18712   3.280   5.478   3.363 -0.0509 -0.1381  0.1785
 4679SOL     OW18713   3.032   2.831   1.682  0.2297  0.2658 -0.2218
 4679SOL    HW118714   3.045   2.810   1.775 -1.9706 -0.7525 -0.0748
 4679SOL    HW218715   3.112   2.800   1.640  0.8963 -0.0981  1.2209
 4679SOL     MW18716   3.044   2.824   1.689  0.0334  0.0889 -0.0183
 4680SOL     OW18717   2.116   2.180   4.435  0.0032 -0.3035 -0.3247
 4680SOL    HW118718   2.069   2.255   4.398 -1.5251 -1.7221 -1.4401
 4680SOL    HW218719   2.049   2.132   4.483  1.1739 -0.4575  1.2046
 4680SOL     MW18720   2.101   2.184   4.436 -0.0426 -0.5048 -0.2717
 4681SOL     OW18721   1.498   2.792   1.127 -0.1727  0.0299  0.4714
 4681SOL    HW118722   1.521   2.745   1.207  0.0855  0.7923  0.8615
 4681SOL    HW218723   1.571   2.774   1.067  0.8051  1.2837  1.2145
 4681SOL     MW18724   1.511   2.784   1.129 -0.0145  0.2880  0.6165
 4682SOL     OW18725   1.657   4.404   4.861 -0.5255 -0.4654 -0.0731
 4682SOL    HW118726   1.596   4.330   4.860 -1.5429  0.3657 -0.6118
 4682SOL    HW218727   1.606   4.478   4.828  0.5515  0.4271  0.2108
 4682SOL     MW18728   1.643   4.404   4.857 -0.5179 -0.2448 -0.1057
 4683SOL     OW18729   2.418   4.718   3.445 -0.3009 -0.1386 -0.3236
 4683SOL    HW118730   2.394   4.656   3.377  2.8230 -1.4759 -0.3914
 4683SOL    HW218731   2.421   4.803   3.401 -0.0024 -0.7076 -1.4256
 4683SOL     MW18732   2.415   4.721   3.431  0.1372 -0.3826 -0.4733
 4684SOL     OW18733   0.625   1.164   3.785  0.1980 -0.6246 -0.1383
 4684SOL    HW118734   0.644   1.094   3.723  1.5267  1.0831 -1.7476
 4684SOL    HW218735   0.690   1.153   3.855  0.9117 -0.5500 -0.7806
 4684SOL     MW18736   0.636   1.154   3.786  0.4594 -0.3964 -0.4265
 4685SOL     OW18737   1.902   4.764   2.851 -0.3724  0.6375 -0.0562
 4685SOL    HW118738   1.882   4.711   2.929 -1.4644  0.2705 -0.5655
 4685SOL    HW218739   1.954   4.838   2.885 -0.4894  0.2696  0.9550
 4685SOL     MW18740   1.906   4.767   2.866 -0.5272  0.5435  0.0081
 4686SOL     OW18741   0.762   4.111   5.220 -0.3872  0.0241  0.0105
 4686SOL    HW118742   0.814   4.108   5.300  1.3686 -0.3158 -1.1020
 4686SOL    HW218743   0.709   4.030   5.223 -1.3422  0.6580  1.4235
 4686SOL     MW18744   0.762   4.100   5.231 -0.2847  0.0617  0.0490
 4687SOL     OW18745   3.549   3.721   5.023  0.2575  0.3684  0.2115
 4687SOL    HW118746   3.497   3.773   4.963 -0.4196 -0.5736 -0.0428
 4687SOL    HW218747   3.528   3.630   5.001  1.4824 -0.0241  0.5700
 4687SOL     MW18748   3.540   3.716   5.013  0.3277  0.1976  0.2248
 4688SOL     OW18749   4.901   4.376   0.013 -0.2131  0.2857 -0.3050
 4688SOL    HW118750   4.966   4.394   0.082  0.4274 -0.0626 -0.8026
 4688SOL    HW218751   4.869   4.462  -0.012 -2.7387  0.3305  2.5271
 4688SOL     MW18752   4.905   4.389   0.019 -0.4544  0.2469 -0.0061
 4689SOL     OW18753   2.435   3.957   1.677  0.1785 -0.5608  0.1086
 4689SOL    HW118754   2.444   4.005   1.594  1.3702 -1.5014 -0.3410
 4689SOL    HW218755   2.343   3.968   1.701  0.3016  1.5950 -0.1649
 4689SOL     MW18756   2.424   3.965   1.669  0.3468 -0.4053  0.0160
 4690SOL     OW18757   5.211   1.157   0.073 -0.1578 -0.2153  0.4452
 4690SOL    HW118758   5.244   1.104   0.001  1.2977 -1.1574  1.7684
 4690SOL    HW218759   5.118   1.170   0.052  0.4775  0.6109 -2.2155
 4690SOL     MW18760   5.203   1.152   0.061  0.1099 -0.2301  0.2740
 4691SOL     OW18761   2.742   0.239   1.704  0.1253 -0.3363  0.2770
 4691SOL    HW118762   2.648   0.221   1.708  0.2370 -0.7720  1.5363
 4691SOL    HW218763   2.755   0.311   1.766  0.3554  1.0986 -1.3787
 4691SOL     MW18764   2.731   0.246   1.712  0.1690 -0.2084  0.2263
 4692SOL     OW18765   2.719   4.961   4.484 -0.2273 -0.1691  0.5270
 4692SOL    HW118766   2.704   5.032   4.421  2.7994  0.7631  0.7045
 4692SOL    HW218767   2.697   5.000   4.569 -0.0261  0.0552  0.4766
 4692SOL     MW18768   2.714   4.975   4.487  0.1859 -0.0210  0.5433
 4693SOL     OW18769   0.363   1.603   2.985  0.0002 -0.3697 -0.1570
 4693SOL    HW118770   0.430   1.562   2.931  1.3196  0.8758  0.4762
 4693SOL    HW218771   0.339   1.682   2.937  0.1315 -0.0044  0.3686
 4693SOL     MW18772   0.368   1.608   2.972  0.1859 -0.1635 -0.0086
 4694SOL     OW18773   3.015   0.543   2.319 -0.3759  0.0542 -0.2287
 4694SOL    HW118774   2.958   0.478   2.277 -1.9510 -0.1148  1.9889
 4694SOL    HW218775   3.097   0.496   2.336 -0.5426 -0.5369 -1.0113
 4694SOL     MW18776   3.018   0.528   2.316 -0.5989 -0.0431 -0.0450
 4695SOL     OW18777   0.247   1.781   1.545  0.2586 -0.0892 -0.2054
 4695SOL    HW118778   0.341   1.780   1.528  0.5386  0.7893  1.2023
 4695SOL    HW218779   0.227   1.693   1.576  0.6013 -0.2909 -0.5533
 4695SOL     MW18780   0.256   1.770   1.547  0.3383 -0.0026 -0.0697
 4696SOL     OW18781   2.796   1.279   3.105 -0.0922 -0.4547  0.2883
 4696SOL    HW118782   2.738   1.284   3.029  1.1041  1.4775 -0.5718
 4696SOL    HW218783   2.785   1.189   3.137 -1.2191 -1.0865 -1.6809
 4696SOL     MW18784   2.787   1.268   3.099 -0.0833 -0.2882 -0.0739
 4697SOL     OW18785   5.410   2.398   1.648  0.0960  0.1545  0.0646
 4697SOL    HW118786   5.369   2.387   1.562 -0.2451 -0.9684  0.3578
 4697SOL    HW218787   5.348   2.452   1.697  0.1585  0.5617 -0.2991
 4697SOL     MW18788   5.397   2.403   1.643  0.0603  0.0629  0.0556
 4698SOL     OW18789   4.872   4.858   3.469  0.8889  0.0176  0.4681
 4698SOL    HW118790   4.946   4.906   3.433  0.9350  0.6460  1.3971
 4698SOL    HW218791   4.887   4.855   3.563 -0.2957  0.2101  0.6839
 4698SOL     MW18792   4.883   4.864   3.476  0.7432  0.1227  0.6146
 4699SOL     OW18793   3.600   2.442   2.652  0.0602  0.5772  0.1158
 4699SOL    HW118794   3.619   2.523   2.605 -0.5708  0.1629 -0.8986
 4699SOL    HW218795   3.538   2.467   2.720 -0.6044  0.8654 -0.5764
 4699SOL     MW18796   3.595   2.455   2.655 -0.1056  0.5610 -0.1027
 4700SOL     OW18797   1.873   2.653   0.777 -0.2217 -0.2308 -0.0830
 4700SOL    HW118798   1.923   2.710   0.719 -2.3123  1.4761 -0.3500
 4700SOL    HW218799   1.836   2.586   0.720  0.3101 -0.4719 -0.1564
 4700SOL     MW18800   1.875   2.652   0.763 -0.4212 -0.0432 -0.1266
 4701SOL     OW18801   3.096   0.172   1.439  0.1621 -0.3123  0.0571
 4701SOL    HW118802   3.146   0.247   1.473  0.4911 -0.7653  0.5872
 4701SOL    HW218803   3.083   0.116   1.515  3.0784 -2.5908 -0.9586
 4701SOL     MW18804   3.100   0.175   1.453  0.5776 -0.6619 -0.0050
 4702SOL     OW18805   3.363   1.092   5.129 -0.3874 -0.0691 -0.1060
 4702SOL    HW118806   3.341   1.000   5.142 -1.6249  0.2924  0.5231
 4702SOL    HW218807   3.431   1.092   5.061 -1.8581 -1.3059 -1.6536
 4702SOL     MW18808   3.369   1.080   5.122 -0.7341 -0.1812 -0.2236
 4703SOL     OW18809   4.521   1.446   4.402  1.0334 -0.2321 -0.0822
 4703SOL    HW118810   4.464   1.371   4.387 -0.6873  1.1966 -1.0673
 4703SOL    HW218811   4.565   1.461   4.318  1.9751 -0.6074  0.3363
 4703SOL     MW18812   4.519   1.439   4.389  0.9337 -0.0972 -0.1548
 4704SOL     OW18813   5.057   3.478   2.625  0.4303  0.2447  0.2342
 4704SOL    HW118814   5.036   3.443   2.538  2.1621 -1.1667  0.3045
 4704SOL    HW218815   5.151   3.463   2.634  0.4598  1.2198  1.9987
 4704SOL     MW18816   5.067   3.471   2.615  0.6558  0.1889  0.4690
 4705SOL     OW18817   0.875   4.035   1.182 -0.6761 -0.0540 -0.7973
 4705SOL    HW118818   0.862   4.130   1.186 -0.6874 -0.0621 -0.6322
 4705SOL    HW218819   0.810   4.000   1.242  1.1114  0.0021  1.2709
 4705SOL     MW18820   0.865   4.043   1.190 -0.4488 -0.0478 -0.5114
 4706SOL     OW18821   1.124   2.722   0.221  0.3866  0.4371 -0.0050
 4706SOL    HW118822   1.151   2.789   0.283  0.7806 -1.3167  1.8271
 4706SOL    HW218823   1.061   2.668   0.269  1.2327 -1.4045 -0.8274
 4706SOL     MW18824   1.120   2.724   0.235  0.5453 -0.0232  0.1243
 4707SOL     OW18825   1.583   2.982   3.695 -0.0801 -0.6566  0.0001
 4707SOL    HW118826   1.531   3.050   3.737  0.3440 -0.2601 -0.1029
 4707SOL    HW218827   1.639   2.948   3.765  0.1127 -0.4981 -0.0745
 4707SOL     MW18828   1.583   2.986   3.709 -0.0011 -0.5855 -0.0227
 4708SOL     OW18829   2.949   4.186   2.272  0.0152  0.0654 -0.8642
 4708SOL    HW118830   2.957   4.092   2.256  0.1390 -0.3086  1.1863
 4708SOL    HW218831   3.038   4.216   2.290 -0.2242  0.2248  0.1247
 4708SOL     MW18832   2.961   4.178   2.272  0.0004  0.0379 -0.4751
 4709SOL     OW18833   0.410   2.035   0.031  0.3202  0.1872 -0.3579
 4709SOL    HW118834   0.319   2.027   0.002  0.5549  2.5216 -2.0688
 4709SOL    HW218835   0.457   1.969  -0.021  0.1637  1.8490 -2.7740
 4709SOL     MW18836   0.404   2.025   0.021  0.3302  0.6987 -0.8862
 4710SOL     OW18837   4.297   2.871   3.206 -0.3603 -0.2419 -0.2894
 4710SOL    HW118838   4.371   2.899   3.260 -1.2788  1.0332  0.3775
 4710SOL    HW218839   4.310   2.777   3.194  1.3124 -0.0625 -0.1346
 4710SOL     MW18840   4.308   2.863   3.211 -0.2637 -0.0557 -0.1842
 4711SOL     OW18841   4.745   2.920   0.998 -0.1466 -0.3652  0.1487
 4711SOL    HW118842   4.824   2.929   1.051 -0.1998  0.0952  0.1606
 4711SOL    HW218843   4.772   2.869   0.922  0.3111  0.2978 -0.1443
 4711SOL     MW18844   4.758   2.915   0.995 -0.0948 -0.2214  0.1127
 4712SOL     OW18845   0.569   0.598   2.236  0.9650  0.1396 -0.6026
 4712SOL    HW118846   0.619   0.679   2.248  2.0080 -0.2800 -1.8787
 4712SOL    HW218847   0.534   0.604   2.147  1.2856 -0.9255 -0.8179
 4712SOL     MW18848   0.571   0.609   2.226  1.1396 -0.0505 -0.7935
 4713SOL     OW18849   3.663   2.817   0.585  0.1030 -0.5146  0.0813
 4713SOL    HW118850   3.747   2.830   0.630  0.0843 -1.1016  0.2995
 4713SOL    HW218851   3.639   2.727   0.606 -1.2633  0.0656  1.1400
 4713SOL     MW18852   3.671   2.807   0.593 -0.0743 -0.5155  0.2447
 4714SOL     OW18853   4.960   3.081   1.898  0.0197  0.3037 -0.0755
 4714SOL    HW118854   4.965   2.986   1.882  1.1542  0.3376 -0.0064
 4714SOL    HW218855   5.048   3.104   1.928 -0.6258  1.1489  1.2160
 4714SOL     MW18856   4.972   3.072   1.899  0.0823  0.4162  0.0987
 4715SOL     OW18857   2.834   2.763   5.214 -0.4481  0.4245  0.1380
 4715SOL    HW118858   2.852   2.706   5.139 -0.4215  1.0288 -0.3232
 4715SOL    HW218859   2.830   2.851   5.177  0.0113  0.7851  0.9130
 4715SOL     MW18860   2.836   2.767   5.200 -0.3859  0.5480  0.1782
 4716SOL     OW18861   5.011   3.451   1.851  0.2655 -0.0607  0.6709
 4716SOL    HW118862   5.095   3.411   1.832  0.3807 -0.1649  1.3662
 4716SOL    HW218863   5.015   3.537   1.808  0.8265  0.0358  0.9020
 4716SOL     MW18864   5.022   3.457   1.843  0.3520 -0.0617  0.7895
 4717SOL     OW18865   4.527   1.686   3.794 -0.8112  0.3358 -0.4754
 4717SOL    HW118866   4.458   1.633   3.753  0.0260 -0.4178 -0.9502
 4717SOL    HW218867   4.608   1.638   3.775 -0.1872  1.0419  0.3382
 4717SOL     MW18868   4.528   1.673   3.787 -0.6241  0.3297 -0.4320
 4718SOL     OW18869   2.835   3.683   2.506 -0.0945 -0.1871 -0.2125
 4718SOL    HW118870   2.859   3.591   2.498  0.1866 -0.3402  1.7681
 4718SOL    HW218871   2.740   3.684   2.491  0.2479 -0.3648 -2.7938
 4718SOL     MW18872   2.826   3.672   2.503 -0.0147 -0.2294 -0.2894
 4719SOL     OW18873   1.950   5.476   3.586 -0.0649 -0.0972  0.1286
 4719SOL    HW118874   2.008   5.489   3.661 -0.1357  2.3721 -0.1849
 4719SOL    HW218875   1.869   5.522   3.609  0.1314  1.2472 -1.6630
 4719SOL     MW18876   1.947   5.483   3.598 -0.0489  0.3910 -0.1409
 4720SOL     OW18877   1.472   1.185   2.530 -0.1745  0.4395 -0.3661
 4720SOL    HW118878   1.494   1.156   2.441 -1.1344 -0.2232 -0.4049
 4720SOL    HW218879   1.388   1.230   2.520  0.1772  1.2065  0.0692
 4720SOL     MW18880   1.464   1.187   2.517 -0.2524  0.4528 -0.3153
 4721SOL     OW18881   4.730   5.061   2.127 -0.1682  0.2745  0.7415
 4721SOL    HW118882   4.679   5.047   2.047 -3.0337  1.0992  2.2933
 4721SOL    HW218883   4.793   5.130   2.104  0.9484 -1.3560 -1.4750
 4721SOL     MW18884   4.732   5.068   2.113 -0.3921  0.1714  0.6564
 4722SOL     OW18885   4.985   1.560   2.395 -0.2066 -0.1134 -0.0974
 4722SOL    HW118886   5.070   1.540   2.435 -0.2926  1.1707  0.7680
 4722SOL    HW218887   4.937   1.607   2.463 -1.1486  0.2713 -1.0069
 4722SOL     MW18888   4.990   1.563   2.409 -0.3382  0.1002 -0.1031
 4723SOL     OW18889   4.594   0.532   4.970  0.3688 -0.6355  0.4984
 4723SOL    HW118890   4.550   0.584   5.038 -0.2302 -0.3848 -0.0692
 4723SOL    HW218891   4.645   0.597   4.921 -1.7225 -0.2400 -1.2920
 4723SOL     MW18892   4.595   0.547   4.972  0.0244 -0.5528  0.1965
 4724SOL     OW18893   1.810   4.594   1.248  0.2274 -0.0707 -0.6682
 4724SOL    HW118894   1.860   4.580   1.168  1.0512 -3.5611  0.2498
 4724SOL    HW218895   1.719   4.578   1.222  0.3391  0.0710 -1.1575
 4724SOL     MW18896   1.805   4.590   1.234  0.3472 -0.4994 -0.6133
 4725SOL     OW18897   0.962   5.011   4.339 -0.0358 -0.1668  0.0549
 4725SOL    HW118898   0.885   4.955   4.349 -1.0586  1.3643  1.1598
 4725SOL    HW218899   1.014   4.993   4.417 -0.2715  0.2570  0.3142
 4725SOL     MW18900   0.959   5.002   4.350 -0.1969  0.0834  0.2295
 4726SOL     OW18901   5.292   1.479   1.538  0.0227  0.2040  0.0312
 4726SOL    HW118902   5.321   1.555   1.589  0.5263  0.8536 -1.1646
 4726SOL    HW218903   5.200   1.467   1.563  0.0297  1.0107  0.4903
 4726SOL     MW18904   5.284   1.487   1.547  0.0881  0.3904 -0.0631
 4727SOL     OW18905   1.145   2.019   0.652  0.2209  0.6586 -0.2839
 4727SOL    HW118906   1.163   2.085   0.719  2.1454 -1.6448  1.6978
 4727SOL    HW218907   1.227   1.969   0.647 -1.7204 -2.7981 -0.1357
 4727SOL     MW18908   1.158   2.021   0.660  0.2188 -0.0788 -0.0112
 4728SOL     OW18909   0.298   4.342   2.910  0.1483 -0.0770  0.0422
 4728SOL    HW118910   0.324   4.363   2.999 -0.2314 -0.0383  0.1443
 4728SOL    HW218911   0.204   4.355   2.908  0.3632  1.6735 -0.8321
 4728SOL     MW18912   0.290   4.346   2.921  0.1272  0.1521 -0.0567
 4729SOL     OW18913   4.707   3.388   1.051 -0.1272 -0.5109  0.5201
 4729SOL    HW118914   4.758   3.466   1.029  0.3956 -1.2220 -0.9008
 4729SOL    HW218915   4.655   3.414   1.128  1.2574  0.6950  1.0905
 4729SOL     MW18916   4.707   3.402   1.058  0.1169 -0.4476  0.4113
 4730SOL     OW18917   2.707   2.936   3.284  0.1189  0.3770  0.4950
 4730SOL    HW118918   2.779   2.918   3.223  1.1118 -0.3286  1.8255
 4730SOL    HW218919   2.751   2.952   3.368 -1.3139 -1.1414  1.5893
 4730SOL     MW18920   2.722   2.936   3.287  0.0626  0.0923  0.8054
 4731SOL     OW18921   0.276   0.355   2.088  1.1487  0.4149 -0.2906
 4731SOL    HW118922   0.327   0.292   2.138 -0.7923 -0.0483  1.2225
 4731SOL    HW218923   0.339   0.423   2.063  2.6971 -0.6827  0.4950
 4731SOL     MW18924   0.290   0.356   2.091  1.0985  0.2151  0.0037
 4732SOL     OW18925   1.428   2.332   2.716 -0.0947 -0.8413  0.0483
 4732SOL    HW118926   1.471   2.248   2.703  1.7410  0.2735 -1.6554
 4732SOL    HW218927   1.496   2.397   2.699 -0.8525  1.0534  3.4114
 4732SOL     MW18928   1.442   2.330   2.712  0.0433 -0.4560  0.2607
 4733SOL     OW18929   1.222   0.126   4.890  0.0396  0.6421 -0.5085
 4733SOL    HW118930   1.240   0.195   4.954 -0.6205 -1.5616  2.2690
 4733SOL    HW218931   1.127   0.117   4.891  0.0507  0.2595 -1.5338
 4733SOL     MW18932   1.212   0.134   4.898 -0.0435  0.3110 -0.2842
 4734SOL     OW18933   5.108   4.661   4.108 -0.4791 -0.4494 -0.0248
 4734SOL    HW118934   5.029   4.623   4.069 -1.3669 -0.4849  1.7187
 4734SOL    HW218935   5.076   4.719   4.177  0.9642  1.1726 -0.6200
 4734SOL     MW18936   5.094   4.664   4.112 -0.4080 -0.2463  0.1222
 4735SOL     OW18937   1.233   4.836   2.060 -0.1026 -0.5279  0.1701
 4735SOL    HW118938   1.310   4.893   2.057 -0.9943  0.6945 -0.4182
 4735SOL    HW218939   1.268   4.750   2.082  1.5840 -0.2748 -1.2737
 4735SOL     MW18940   1.247   4.832   2.062 -0.0008 -0.3390 -0.0900
 4736SOL     OW18941   3.441   3.214   3.545 -0.3302 -0.0328  0.3783
 4736SOL    HW118942   3.427   3.120   3.531 -0.8479  0.3810 -2.3737
 4736SOL    HW218943   3.533   3.228   3.527 -0.5886  0.2031 -0.8378
 4736SOL     MW18944   3.451   3.204   3.541 -0.4295  0.0504 -0.1296
 4737SOL     OW18945   2.077   1.193   0.953  0.2972  0.5582  0.5509
 4737SOL    HW118946   2.042   1.275   0.917 -0.2966 -0.0728 -0.3408
 4737SOL    HW218947   2.062   1.128   0.885 -0.4054 -0.5752  1.7385
 4737SOL     MW18948   2.071   1.196   0.940  0.1313  0.3324  0.5888
 4738SOL     OW18949   1.716   1.862   1.092  0.0044  0.9190 -0.1105
 4738SOL    HW118950   1.799   1.841   1.050 -0.6562  0.4502 -1.2156
 4738SOL    HW218951   1.651   1.852   1.023 -1.0557  0.5617  0.9152
 4738SOL     MW18952   1.718   1.858   1.078 -0.2158  0.8132 -0.1206
 4739SOL     OW18953   4.046   3.055   5.029 -0.1267 -0.8046  0.3942
 4739SOL    HW118954   3.973   2.995   5.016 -2.1097  1.6425 -0.5698
 4739SOL    HW218955   4.037   3.084   5.120  0.0345 -0.9576  0.4601
 4739SOL     MW18956   4.036   3.051   5.039 -0.3599 -0.5109  0.2792
 4740SOL     OW18957   0.135   2.537   5.307 -0.0383 -0.0244  0.1649
 4740SOL    HW118958   0.073   2.598   5.267 -1.8122  0.5731  3.4404
 4740SOL    HW218959   0.133   2.460   5.251  0.1793  1.8452 -2.5956
 4740SOL     MW18960   0.127   2.535   5.295 -0.2375  0.2914  0.2308
 4741SOL     OW18961   3.508   1.653   4.982  0.0241 -0.1771  0.8227
 4741SOL    HW118962   3.593   1.671   4.941 -0.0067 -2.0053 -0.1379
 4741SOL    HW218963   3.520   1.569   5.026 -1.7785 -1.4819 -0.9585
 4741SOL     MW18964   3.520   1.644   4.982 -0.2106 -0.5782  0.4717
 4742SOL     OW18965   4.303   1.042   3.783  0.0766  0.1638 -0.2787
 4742SOL    HW118966   4.213   1.012   3.772 -0.1753  1.0299 -0.6359
 4742SOL    HW218967   4.305   1.080   3.871  0.1309  0.0256 -0.2198
 4742SOL     MW18968   4.292   1.043   3.793  0.0513  0.2570 -0.3169
 4743SOL     OW18969   4.594   0.565   0.966  0.5868  0.0046  0.0335
 4743SOL    HW118970   4.602   0.511   0.887  2.4858 -2.2501  1.6280
 4743SOL    HW218971   4.592   0.655   0.933  1.6783 -0.8286 -2.5756
 4743SOL     MW18972   4.595   0.569   0.952  0.9696 -0.3907 -0.0964
 4744SOL     OW18973   2.876   3.372   0.569  0.1650  0.5889 -0.3122
 4744SOL    HW118974   2.934   3.296   0.566  2.5505  2.2890  0.0941
 4744SOL    HW218975   2.788   3.335   0.570  1.2133 -2.1259 -0.8697
 4744SOL     MW18976   2.872   3.358   0.569  0.6045  0.4590 -0.3316
 4745SOL     OW18977   0.264   2.961   3.879  0.2081 -0.0268 -0.6296
 4745SOL    HW118978   0.326   2.950   3.951  0.4268 -0.5749 -0.8978
 4745SOL    HW218979   0.291   2.897   3.814 -2.3276 -2.3591  0.3899
 4745SOL     MW18980   0.275   2.952   3.880 -0.0885 -0.3955 -0.5335
 4746SOL     OW18981   1.246   1.105   4.156  0.3252  0.6899  0.1166
 4746SOL    HW118982   1.210   1.017   4.147  0.0674  0.7456  0.5524
 4746SOL    HW218983   1.339   1.092   4.174  0.1249  0.4766  1.0173
 4746SOL     MW18984   1.253   1.092   4.157  0.2666  0.6697  0.2877
 4747SOL     OW18985   2.749   5.420   0.433 -0.1332 -0.2365 -0.4317
 4747SOL    HW118986   2.770   5.336   0.473  1.1197 -0.2366 -1.0298
 4747SOL    HW218987   2.707   5.397   0.350 -2.0834 -0.2351  0.4905
 4747SOL     MW18988   2.746   5.406   0.427 -0.2224 -0.2363 -0.3902
 4748SOL     OW18989   0.081   1.880   2.677  0.1966  0.1235  0.1996
 4748SOL    HW118990   0.019   1.952   2.681 -0.7575 -0.7194  1.5397
 4748SOL    HW218991   0.031   1.807   2.639  0.6525 -0.2842  0.3672
 4748SOL     MW18992   0.067   1.880   2.672  0.1328 -0.0366  0.3926
 4749SOL     OW18993   3.799   2.187   3.268  0.1207  0.2229 -0.0451
 4749SOL    HW118994   3.849   2.123   3.318  0.0038  0.5940  0.5723
 4749SOL    HW218995   3.863   2.228   3.210  0.5642  0.7518  0.7939
 4749SOL     MW18996   3.813   2.184   3.267  0.1625  0.3381  0.1413
 4750SOL     OW18997   4.782   2.650   0.978 -0.8073 -0.1566  0.2700
 4750SOL    HW118998   4.712   2.710   1.003 -1.0082 -0.0981 -0.4147
 4750SOL    HW218999   4.828   2.632   1.059 -0.0089  1.8488  0.3068
 4750SOL     MW19000   4.779   2.655   0.991 -0.7308  0.1076  0.1870
 4751SOL     OW19001   0.469   0.173   0.613 -0.1055 -0.3470  0.2634
 4751SOL    HW119002   0.387   0.220   0.602 -0.4176 -0.7167  0.9078
 4751SOL    HW219003   0.451   0.110   0.683  0.2753 -1.4535 -0.6044
 4751SOL     MW19004   0.456   0.171   0.621 -0.0967 -0.5360  0.2348
 4752SOL     OW19005   1.427   3.758   1.766 -0.4794 -0.3381 -0.1307
 4752SOL    HW119006   1.425   3.663   1.765 -0.6064 -0.4513  2.6373
 4752SOL    HW219007   1.502   3.780   1.822 -0.6320  1.1684 -0.4676
 4752SOL     MW19008   1.436   3.749   1.773 -0.5152 -0.1597  0.1805
 4753SOL     OW19009   4.714   5.444   2.411 -0.1924 -0.4160 -0.2921
 4753SOL    HW119010   4.706   5.352   2.385 -1.0694 -0.5934  0.5300
 4753SOL    HW219011   4.769   5.441   2.490 -0.6839 -0.2999  0.0565
 4753SOL     MW19012   4.720   5.432   2.418 -0.3676 -0.4238 -0.1422
 4754SOL     OW19013   5.339   0.461   0.647 -0.0289 -0.1828  0.3156
 4754SOL    HW119014   5.330   0.386   0.589 -1.7292  0.1110  0.1632
 4754SOL    HW219015   5.311   0.428   0.733  0.3697 -0.0244  0.5110
 4754SOL     MW19016   5.334   0.447   0.651 -0.1955 -0.1249  0.3211
 4755SOL     OW19017   0.909   3.794   3.100 -1.1260 -0.0180  0.2037
 4755SOL    HW119018   0.908   3.718   3.041 -0.1700 -0.4041  0.6527
 4755SOL    HW219019   0.826   3.838   3.084 -1.8670 -1.3600  0.1979
 4755SOL     MW19020   0.899   3.790   3.090 -1.0985 -0.2392  0.2604
 4756SOL     OW19021   2.017   3.882   3.394  0.0685  0.2830 -0.6203
 4756SOL    HW119022   1.974   3.886   3.479 -1.0273 -1.8291 -1.0250
 4756SOL    HW219023   2.110   3.897   3.414 -0.2490  0.4372  0.8622
 4756SOL     MW19024   2.024   3.884   3.407 -0.1124  0.0324 -0.4823
 4757SOL     OW19025   3.685   1.176   0.919 -0.9114  0.3176 -0.5656
 4757SOL    HW119026   3.606   1.185   0.866 -1.0094  0.7130 -0.3538
 4757SOL    HW219027   3.723   1.264   0.920 -2.3931  1.0568  2.3215
 4757SOL     MW19028   3.680   1.188   0.912 -1.1136  0.4628 -0.1689
 4758SOL     OW19029   4.231   3.889   4.897  1.2762  0.5048  0.3546
 4758SOL    HW119030   4.182   3.949   4.840  1.2786 -0.3029 -0.5241
 4758SOL    HW219031   4.166   3.823   4.922  2.1854 -1.5254 -2.1545
 4758SOL     MW19032   4.216   3.888   4.893  1.3929  0.1415 -0.0791
 4759SOL     OW19033   4.040   3.179   3.845  0.1179  0.3692 -0.2632
 4759SOL    HW119034   4.115   3.213   3.894 -0.4337 -0.4531  1.2334
 4759SOL    HW219035   4.046   3.084   3.855 -1.0936  0.2896 -0.1174
 4759SOL     MW19036   4.050   3.171   3.853 -0.1078  0.2538 -0.0529
 4760SOL     OW19037   3.065   3.959   2.764  0.7143  0.4815 -0.5063
 4760SOL    HW119038   3.143   3.998   2.803 -0.7323  2.4012  0.6765
 4760SOL    HW219039   3.006   4.033   2.750 -0.2507 -0.6607 -3.0237
 4760SOL     MW19040   3.067   3.974   2.767  0.4056  0.5810 -0.6771
 4761SOL     OW19041   0.934   4.058   4.385 -0.1092 -0.5597 -0.1002
 4761SOL    HW119042   0.860   4.026   4.334 -0.4048 -2.0322  1.1748
 4761SOL    HW219043   1.000   3.990   4.376  0.1817 -0.3922  0.7118
 4761SOL     MW19044   0.933   4.045   4.377 -0.1098 -0.7268  0.1669
 4762SOL     OW19045   4.283   2.731   3.510  0.1027  0.5091 -0.5793
 4762SOL    HW119046   4.371   2.695   3.518 -0.1257  0.3707  2.6345
 4762SOL    HW219047   4.227   2.656   3.490  0.5001  0.3358 -1.0565
 4762SOL     MW19048   4.287   2.717   3.508  0.1244  0.4692 -0.2289
 4763SOL     OW19049   1.649   3.300   0.896  0.2041 -0.7631 -0.1261
 4763SOL    HW119050   1.681   3.285   0.807  0.5836  1.6410 -0.4509
 4763SOL    HW219051   1.558   3.328   0.884  1.1158  2.5503 -0.0962
 4763SOL     MW19052   1.641   3.301   0.883  0.3694 -0.0312 -0.1639
 4764SOL     OW19053   0.001   3.025   1.147 -0.2734 -0.1862  0.3260
 4764SOL    HW119054   0.086   2.983   1.162  0.0077  0.4565  0.5532
 4764SOL    HW219055  -0.035   3.036   1.235 -0.3455  0.0461  0.2658
 4764SOL     MW19056   0.008   3.021   1.160 -0.2467 -0.0742  0.3474
 4765SOL     OW19057   0.481   0.181   3.346  0.4639  0.1648  0.0928
 4765SOL    HW119058   0.491   0.091   3.314 -1.0001  0.5205 -1.5473
 4765SOL    HW219059   0.406   0.177   3.405  0.3049  0.3200 -0.0959
 4765SOL     MW19060   0.473   0.169   3.349  0.2561  0.2302 -0.1413
 4766SOL     OW19061   3.627   1.996   1.247 -0.0058  0.2452  0.3727
 4766SOL    HW119062   3.607   2.088   1.263 -1.5578  0.1774 -0.9302
 4766SOL    HW219063   3.553   1.948   1.282 -0.5216 -0.2868 -1.3288
 4766SOL     MW19064   3.615   2.002   1.253 -0.2705  0.1684 -0.0119
 4767SOL     OW19065   1.317   2.580   3.686  0.3491 -0.2348  0.4301
 4767SOL    HW119066   1.360   2.644   3.630 -0.5733  1.5034  1.6162
 4767SOL    HW219067   1.257   2.533   3.628  1.4386 -0.4420 -0.5685
 4767SOL     MW19068   1.315   2.582   3.672  0.3705 -0.0388  0.4541
 4768SOL     OW19069   3.233   1.761   3.312 -0.1394  0.3241  0.5557
 4768SOL    HW119070   3.239   1.820   3.237  0.1503 -1.0575 -0.5385
 4768SOL    HW219071   3.208   1.677   3.275  3.4478 -1.3402  1.5206
 4768SOL     MW19072   3.230   1.758   3.298  0.3569 -0.0658  0.5392
 4769SOL     OW19073   3.537   5.035   3.839  0.1067 -0.3570 -0.3851
 4769SOL    HW119074   3.496   5.112   3.801  3.1132  1.8502  0.4103
 4769SOL    HW219075   3.630   5.059   3.848  1.1210 -3.8931  0.4238
 4769SOL     MW19076   3.544   5.048   3.835  0.6214 -0.5271 -0.1797
 4770SOL     OW19077   2.959   3.617   4.926  0.2511  0.0813  0.0900
 4770SOL    HW119078   2.916   3.571   4.998 -0.4198 -0.9710 -0.9290
 4770SOL    HW219079   3.037   3.564   4.908 -1.0685 -1.3472 -1.7732
 4770SOL     MW19080   2.964   3.604   4.933 -0.0037 -0.2362 -0.2790
 4771SOL     OW19081   4.227   4.204   0.193  0.0905  0.1972  0.0575
 4771SOL    HW119082   4.231   4.299   0.183 -2.2710  0.1518 -2.9443
 4771SOL    HW219083   4.178   4.191   0.274 -0.6520  1.6183 -0.1142
 4771SOL     MW19084   4.221   4.215   0.202 -0.3068  0.3733 -0.3487
 4772SOL     OW19085   2.800   1.711   5.417  0.4493 -0.0347  0.0837
 4772SOL    HW119086   2.818   1.798   5.453  0.6582  0.0361 -0.1897
 4772SOL    HW219087   2.821   1.718   5.324  0.3891 -0.3554  0.0438
 4772SOL     MW19088   2.805   1.723   5.410  0.4683 -0.0667  0.0436
 4773SOL     OW19089   4.561   5.152   0.696  0.0544 -0.1638 -0.8718
 4773SOL    HW119090   4.575   5.059   0.682 -1.0105 -0.1595 -2.1654
 4773SOL    HW219091   4.648   5.192   0.684  0.3149 -0.8729 -1.3787
 4773SOL     MW19092   4.574   5.145   0.693 -0.0486 -0.2541 -1.1023
 4774SOL     OW19093   1.143   0.127   4.563  0.0079 -0.3516 -0.2861
 4774SOL    HW119094   1.117   0.130   4.655  2.3422 -1.3140  0.4893
 4774SOL    HW219095   1.086   0.190   4.520 -1.5462 -0.2881  1.7044
 4774SOL     MW19096   1.132   0.135   4.569  0.1077 -0.4667  0.0679
 4775SOL     OW19097   2.756   1.120   5.355  0.2802  0.3715 -0.1977
 4775SOL    HW119098   2.827   1.179   5.381 -0.9289  2.1604 -0.7742
 4775SOL    HW219099   2.754   1.054   5.424  2.1083  0.6023  0.1289
 4775SOL     MW19100   2.765   1.119   5.367  0.3594  0.6300 -0.2297
 4776SOL     OW19101   0.130   4.220   1.725  0.1896  0.1946 -0.1775
 4776SOL    HW119102   0.206   4.218   1.783 -0.0879  0.6762  0.2058
 4776SOL    HW219103   0.163   4.190   1.641  0.7718  0.2603  0.0266
 4776SOL     MW19104   0.144   4.216   1.722  0.2286  0.2647 -0.1023
 4777SOL     OW19105   3.554   5.248   4.138  0.3270 -0.6876  0.4229
 4777SOL    HW119106   3.576   5.255   4.231  0.6419 -0.6265  0.3427
 4777SOL    HW219107   3.637   5.254   4.092  0.1552 -0.5384  0.1242
 4777SOL     MW19108   3.567   5.249   4.144  0.3453 -0.6607  0.3744
 4778SOL     OW19109   2.404   3.650   4.575 -0.2551  0.0670  0.0457
 4778SOL    HW119110   2.435   3.632   4.664  0.6371 -0.8269 -0.4291
 4778SOL    HW219111   2.385   3.744   4.575 -0.6413  0.0085  1.2803
 4778SOL     MW19112   2.405   3.660   4.586 -0.1903 -0.0549  0.1430
 4779SOL     OW19113   3.591   3.913   0.539  0.0994  0.5567 -0.1067
 4779SOL    HW119114   3.593   3.956   0.453  0.3208  0.9310  0.0848
 4779SOL    HW219115   3.545   3.974   0.596  0.2157  0.4391  0.1139
 4779SOL     MW19116   3.586   3.926   0.535  0.1426  0.5896 -0.0540
 4780SOL     OW19117   2.060   0.469   4.142  0.2853 -0.6330  0.3810
 4780SOL    HW119118   2.109   0.532   4.195  0.1453  1.5471 -1.8838
 4780SOL    HW219119   2.043   0.515   4.059  0.1774 -3.6858 -1.4473
 4780SOL     MW19120   2.064   0.483   4.138  0.2536 -0.7447 -0.1430
 4781SOL     OW19121   4.565   2.956   3.250 -0.1954  0.4665 -0.0714
 4781SOL    HW119122   4.625   2.949   3.324  0.7264  1.7714 -0.6490
 4781SOL    HW219123   4.556   3.051   3.236  0.5416  0.2569 -2.3146
 4781SOL     MW19124   4.572   2.968   3.258  0.0170  0.6067 -0.4325
 4782SOL     OW19125   3.402   4.866   0.077  0.4827 -0.4883 -0.1812
 4782SOL    HW119126   3.460   4.854   0.002 -0.0882 -1.6113 -0.4630
 4782SOL    HW219127   3.395   4.779   0.117 -0.4882 -0.2418  0.2228
 4782SOL     MW19128   3.408   4.854   0.073  0.2853 -0.6005 -0.1656
 4783SOL     OW19129   4.070   2.925   2.859 -0.1858  0.9461  0.0005
 4783SOL    HW119130   4.156   2.938   2.900 -0.5430  0.2871  0.9935
 4783SOL    HW219131   4.087   2.929   2.765  1.0329  0.2243  0.1724
 4783SOL     MW19132   4.083   2.927   2.852 -0.0755  0.7693  0.1496
 4784SOL     OW19133   1.270   2.950   0.100  0.0105  0.4035  0.3519
 4784SOL    HW119134   1.237   2.980   0.016 -0.6176  0.4560  0.6086
 4784SOL    HW219135   1.365   2.959   0.094 -0.1142  1.8648  0.1983
 4784SOL     MW19136   1.278   2.955   0.089 -0.0859  0.5973  0.3651
 4785SOL     OW19137   3.522   3.351   3.813 -0.2248 -0.1609 -0.3574
 4785SOL    HW119138   3.595   3.344   3.874  0.3978  0.3476 -1.0232
 4785SOL    HW219139   3.557   3.319   3.730 -0.4910  0.8780 -0.8905
 4785SOL     MW19140   3.536   3.346   3.810 -0.1792  0.0372 -0.5109
 4786SOL     OW19141   1.475   5.053   3.356  0.2405  0.4171  0.9407
 4786SOL    HW119142   1.419   5.073   3.281  3.1338 -0.0639 -1.5566
 4786SOL    HW219143   1.424   4.992   3.408 -1.0331 -1.3087 -2.0511
 4786SOL     MW19144   1.461   5.048   3.353  0.4479  0.1346  0.2381
 4787SOL     OW19145   1.998   1.283   1.563  0.4007  0.3946 -0.1363
 4787SOL    HW119146   1.914   1.328   1.556  0.2425  0.1641  0.2541
 4787SOL    HW219147   2.043   1.328   1.634  0.6600  0.5979 -0.4277
 4787SOL     MW19148   1.993   1.295   1.571  0.4136  0.3911 -0.1236
 4788SOL     OW19149   1.824   1.496   2.739 -0.4027  0.1939 -0.4829
 4788SOL    HW119150   1.783   1.478   2.655 -0.9214 -2.3841  0.2249
 4788SOL    HW219151   1.845   1.410   2.775 -1.8048  1.0369  2.7892
 4788SOL     MW19152   1.821   1.483   2.733 -0.6486 -0.0282  0.0266
 4789SOL     OW19153   5.127   3.312   3.659 -0.5059 -0.4972  0.2026
 4789SOL    HW119154   5.199   3.353   3.611  0.8437 -1.5037  1.2926
 4789SOL    HW219155   5.049   3.357   3.627  0.6019  0.7460 -0.9020
 4789SOL     MW19156   5.126   3.323   3.649 -0.1913 -0.4669  0.2007
 4790SOL     OW19157   1.748   4.283   1.855  0.4235  0.6548  1.1633
 4790SOL    HW119158   1.657   4.273   1.882 -0.1619 -0.6803 -1.0548
 4790SOL    HW219159   1.796   4.223   1.913 -0.3749 -0.0418  1.1286
 4790SOL     MW19160   1.743   4.274   1.866  0.2463  0.3947  0.8749
 4791SOL     OW19161   2.440   2.177   1.260  0.2178 -0.1890  0.1344
 4791SOL    HW119162   2.533   2.168   1.239  0.1750 -1.8945  0.5408
 4791SOL    HW219163   2.435   2.256   1.315  1.3195  0.2654 -0.3946
 4791SOL     MW19164   2.451   2.186   1.264  0.3534 -0.3491  0.1187
 4792SOL     OW19165   0.537   3.644   4.814 -0.0558  0.2789 -0.2911
 4792SOL    HW119166   0.498   3.560   4.793  3.3074 -1.4422 -0.2588
 4792SOL    HW219167   0.561   3.637   4.907 -0.3894  1.5985 -0.0769
 4792SOL     MW19168   0.535   3.633   4.823  0.3320  0.2275 -0.2596
 4793SOL     OW19169   3.254   2.771   0.951 -0.4286  0.1014 -0.0744
 4793SOL    HW119170   3.317   2.843   0.953 -1.3647  1.0077 -1.5188
 4793SOL    HW219171   3.297   2.703   0.898  0.1383 -0.1229  0.6500
 4793SOL     MW19172   3.267   2.771   0.944 -0.4758  0.1887 -0.1666
 4794SOL     OW19173   2.545   0.575   2.451  0.0867 -0.1636  0.2515
 4794SOL    HW119174   2.542   0.642   2.383 -1.0613 -0.4543 -0.0085
 4794SOL    HW219175   2.590   0.501   2.409 -1.4302 -0.6771 -0.5282
 4794SOL     MW19176   2.551   0.574   2.436 -0.2544 -0.2665  0.1184
 4795SOL     OW19177   4.097   1.923   0.968  0.5899  0.2660  0.5398
 4795SOL    HW119178   4.179   1.872   0.962  0.5494  0.1500  0.9600
 4795SOL    HW219179   4.126   2.014   0.968  0.6315  0.2686 -0.7895
 4795SOL     MW19180   4.111   1.928   0.967  0.5900  0.2515  0.4234
 4796SOL     OW19181   3.206   3.230   4.920  0.2793 -0.1022  0.0676
 4796SOL    HW119182   3.273   3.180   4.966  0.1314 -0.8006 -0.4554
 4796SOL    HW219183   3.124   3.208   4.965  0.2696 -0.0300  0.0846
 4796SOL     MW19184   3.204   3.221   4.932  0.2591 -0.1824  0.0028
 4797SOL     OW19185   0.696   5.350   1.750  0.0868 -0.1283 -0.0685
 4797SOL    HW119186   0.702   5.361   1.845 -2.4920 -1.2647  0.3255
 4797SOL    HW219187   0.752   5.274   1.732 -0.9957 -1.2337  0.9408
 4797SOL     MW19188   0.704   5.341   1.760 -0.3819 -0.4153  0.1112
 4798SOL     OW19189   3.874   2.759   2.307  0.2270 -0.1176  0.0132
 4798SOL    HW119190   3.801   2.783   2.249 -0.7665  2.4869  2.1430
 4798SOL    HW219191   3.844   2.784   2.394  2.5651 -1.7477  1.3922
 4798SOL     MW19192   3.861   2.765   2.311  0.3991  0.0072  0.4624
 4799SOL     OW19193   4.706   4.667   3.278  0.2781 -0.1111 -0.6100
 4799SOL    HW119194   4.613   4.687   3.286 -0.1618 -1.1633 -2.5893
 4799SOL    HW219195   4.749   4.733   3.333 -1.5468  1.2074 -0.6792
 4799SOL     MW19196   4.700   4.678   3.286 -0.0118 -0.0770 -0.8723
 4800SOL     OW19197   4.476   4.031   4.242 -0.0066 -0.2436  0.2837
 4800SOL    HW119198   4.420   4.073   4.176  1.9134  1.1216 -0.5703
 4800SOL    HW219199   4.489   4.099   4.309  0.2786 -0.7017  0.7008
 4800SOL     MW19200   4.471   4.045   4.242  0.2757 -0.1274  0.2278
 4801SOL     OW19201   0.893   1.031   4.246  0.0841 -0.3676  0.0786
 4801SOL    HW119202   0.835   0.961   4.216  0.0153 -0.2910  0.0327
 4801SOL    HW219203   0.905   1.087   4.169 -0.6455  0.2104  0.3632
 4801SOL     MW19204   0.887   1.029   4.232 -0.0181 -0.2838  0.1091
 4802SOL     OW19205   2.357   2.363   5.039 -0.2368 -0.2061 -0.1824
 4802SOL    HW119206   2.295   2.402   4.977  0.6509 -1.3665 -1.8911
 4802SOL    HW219207   2.379   2.278   5.000  1.2666 -0.4678  1.1389
 4802SOL     MW19208   2.352   2.357   5.026  0.0693 -0.3881 -0.2320
 4803SOL     OW19209   0.449   0.788   2.475  0.0921 -0.8798  0.7268
 4803SOL    HW119210   0.479   0.866   2.522  0.9308  0.0561 -1.2113
 4803SOL    HW219211   0.491   0.715   2.520  1.0007 -0.0139  1.3389
 4803SOL     MW19212   0.458   0.789   2.487  0.3158 -0.6492  0.5571
 4804SOL     OW19213   3.050   0.526   4.728 -0.1684 -0.4320 -0.1858
 4804SOL    HW119214   2.958   0.537   4.750  0.2865  2.7298  0.6504
 4804SOL    HW219215   3.050   0.499   4.636 -1.9226  0.0498 -0.3571
 4804SOL     MW19216   3.038   0.524   4.719 -0.3347  0.0345 -0.1007
 4805SOL     OW19217   1.599   0.183   2.601  0.3427  0.0123 -0.2647
 4805SOL    HW119218   1.509   0.193   2.569  0.5886  0.8125 -0.7444
 4805SOL    HW219219   1.589   0.156   2.692 -0.3728 -2.9688 -1.1373
 4805SOL     MW19220   1.586   0.181   2.608  0.2826 -0.2669 -0.4378
 4806SOL     OW19221   5.083   3.744   2.558 -0.5197 -0.6770  0.1734
 4806SOL    HW119222   5.061   3.650   2.562  0.9621 -1.0106  1.1054
 4806SOL    HW219223   5.053   3.779   2.641  1.1141 -0.8565  0.8752
 4806SOL     MW19224   5.076   3.736   2.569 -0.1209 -0.7427  0.3825
 4807SOL     OW19225   2.606   2.080   1.548 -0.8096  0.3979  0.1108
 4807SOL    HW119226   2.525   2.103   1.594 -0.7226 -0.3821  0.6767
 4807SOL    HW219227   2.604   1.984   1.542  0.5072  0.2850  0.9746
 4807SOL     MW19228   2.596   2.071   1.554 -0.6299  0.2836  0.2938
 4808SOL     OW19229   4.056   2.622   3.744  0.1371  0.0166  0.1422
 4808SOL    HW119230   3.994   2.695   3.754 -0.5013 -0.4434 -0.3176
 4808SOL    HW219231   4.005   2.544   3.766  1.1105 -0.2267  1.6967
 4808SOL     MW19232   4.041   2.622   3.748  0.1800 -0.0734  0.2824
 4809SOL     OW19233   1.706   0.247   3.812  0.4254  0.4122 -0.2797
 4809SOL    HW119234   1.627   0.263   3.863 -0.8983 -2.0972 -1.3351
 4809SOL    HW219235   1.761   0.324   3.826 -1.6323  1.6414  1.5454
 4809SOL     MW19236   1.703   0.259   3.820 -0.0075  0.2483 -0.1812
 4810SOL     OW19237   0.638   3.404   2.329  0.3399 -0.0590  0.1372
 4810SOL    HW119238   0.638   3.382   2.236  2.8753  1.3064 -0.2763
 4810SOL    HW219239   0.709   3.467   2.339 -2.0357  2.5024  2.4300
 4810SOL     MW19240   0.647   3.409   2.319  0.3604  0.4437  0.3778
 4811SOL     OW19241   2.904   0.111   2.774  0.2353  0.4236 -0.1923
 4811SOL    HW119242   2.896   0.183   2.837 -1.0750 -0.3525  0.5911
 4811SOL    HW219243   2.998   0.097   2.765  0.4772  1.3019  0.7302
 4811SOL     MW19244   2.915   0.118   2.781  0.0986  0.4367  0.0260
 4812SOL     OW19245   2.120   1.376   1.770 -0.2265  0.1315 -1.0087
 4812SOL    HW119246   2.085   1.404   1.854  0.6252 -1.3933 -0.0823
 4812SOL    HW219247   2.215   1.378   1.781 -0.0495  1.2415 -2.4262
 4812SOL     MW19248   2.127   1.380   1.782 -0.0948  0.0784 -1.0716
 4813SOL     OW19249   5.438   4.876   4.617  0.3180  0.2495 -0.4753
 4813SOL    HW119250   5.520   4.899   4.574 -0.3119  0.1204 -1.7954
 4813SOL    HW219251   5.413   4.954   4.665  0.3163  0.9027 -1.5167
 4813SOL     MW19252   5.445   4.889   4.618  0.2371  0.3166 -0.7776
 4814SOL     OW19253   3.257   2.154   1.155  0.0840  0.3603  0.4566
 4814SOL    HW119254   3.316   2.147   1.231  1.1531  0.5576 -0.3321
 4814SOL    HW219255   3.314   2.139   1.080 -1.0727 -0.3716 -0.2865
 4814SOL     MW19256   3.272   2.152   1.155  0.0728  0.2919  0.2605
 4815SOL     OW19257   1.609   1.633   3.273  0.4137  0.7817  0.0003
 4815SOL    HW119258   1.632   1.551   3.317 -0.6671  0.6417  0.3319
 4815SOL    HW219259   1.515   1.641   3.286  0.5551  2.2191  0.2059
 4815SOL     MW19260   1.600   1.623   3.280  0.2935  0.9478  0.0691
 4816SOL     OW19261   1.671   4.810   5.350 -0.3901 -0.7446 -0.0749
 4816SOL    HW119262   1.668   4.886   5.408  1.2394 -0.7270  0.0495
 4816SOL    HW219263   1.676   4.735   5.409  2.5800 -0.6695 -0.0482
 4816SOL     MW19264   1.671   4.810   5.365  0.1987 -0.7327 -0.0556
 4817SOL     OW19265   0.810   3.467   4.119  0.2489  0.0585 -0.5418
 4817SOL    HW119266   0.729   3.456   4.068 -1.0608  0.6542  1.3045
 4817SOL    HW219267   0.786   3.440   4.208  1.5346  2.0068  0.4699
 4817SOL     MW19268   0.796   3.462   4.124  0.2459  0.3841 -0.1760
 4818SOL     OW19269   2.154   0.890   1.268 -0.5714  0.2577  0.0640
 4818SOL    HW119270   2.188   0.958   1.326  0.7464 -2.2991  2.5063
 4818SOL    HW219271   2.223   0.877   1.203 -1.1828  1.7272 -0.9323
 4818SOL     MW19272   2.167   0.897   1.267 -0.4809  0.1185  0.2491
 4819SOL     OW19273   0.912   4.452   1.998  0.1742  0.4565  0.1956
 4819SOL    HW119274   0.962   4.433   1.919 -1.5030 -2.5998 -0.2703
 4819SOL    HW219275   0.966   4.419   2.069  0.5073  0.7457  0.0794
 4819SOL     MW19276   0.925   4.445   1.997  0.0021  0.1023  0.1211
 4820SOL     OW19277   4.928   4.540   0.745 -0.2710 -0.3067  0.6937
 4820SOL    HW119278   4.939   4.584   0.829 -1.1181  0.5291  0.3848
 4820SOL    HW219279   4.882   4.459   0.767 -0.1154 -0.2964  1.0770
 4820SOL     MW19280   4.924   4.535   0.759 -0.3595 -0.1984  0.7032
 4821SOL     OW19281   1.201   2.516   0.852 -0.4079 -0.5211 -0.1418
 4821SOL    HW119282   1.204   2.461   0.930 -1.0436 -2.1190 -1.1934
 4821SOL    HW219283   1.109   2.515   0.825 -0.1853 -0.0440 -0.9539
 4821SOL     MW19284   1.190   2.509   0.859 -0.4608 -0.6646 -0.3804
 4822SOL     OW19285   4.853   1.360   5.170 -0.6982 -0.4892  0.0096
 4822SOL    HW119286   4.822   1.406   5.248  0.1390 -1.2930  0.8571
 4822SOL    HW219287   4.786   1.376   5.104 -2.0652 -0.7727  1.2594
 4822SOL     MW19288   4.841   1.368   5.172 -0.7660 -0.6284  0.2781
 4823SOL     OW19289   0.236   3.433   0.624 -0.2970  0.7390  0.0066
 4823SOL    HW119290   0.158   3.378   0.619 -0.8161  1.4580 -0.0312
 4823SOL    HW219291   0.301   3.378   0.667 -0.3927 -0.3390 -1.1684
 4823SOL     MW19292   0.234   3.419   0.629 -0.3757  0.6931 -0.1487
 4824SOL     OW19293   2.394   4.080   5.284 -0.1954  0.5556  0.2850
 4824SOL    HW119294   2.356   4.122   5.361 -1.5796 -1.6299  0.8720
 4824SOL    HW219295   2.421   3.993   5.314  1.8475  0.6459 -1.0566
 4824SOL     MW19296   2.392   4.074   5.298 -0.1111  0.2874  0.1884
 4825SOL     OW19297   1.653   0.353   2.041 -0.0332  0.0262  0.1414
 4825SOL    HW119298   1.705   0.295   1.985  0.1276  0.3928 -0.1002
 4825SOL    HW219299   1.573   0.304   2.059 -0.5265  0.2672 -1.2238
 4825SOL     MW19300   1.650   0.339   2.036 -0.0757  0.1040 -0.0643
 4826SOL     OW19301   0.848   3.401   2.063  0.2524  0.8283 -0.1247
 4826SOL    HW119302   0.895   3.364   2.137 -0.9928 -2.5277 -0.8294
 4826SOL    HW219303   0.914   3.404   1.993 -0.0136 -2.3596 -0.6666
 4826SOL     MW19304   0.863   3.397   2.063  0.0590 -0.0094 -0.2843
 4827SOL     OW19305   0.198   2.939   2.192 -0.4085 -0.0684 -0.7990
 4827SOL    HW119306   0.161   3.024   2.217 -1.0826 -1.1360  2.2256
 4827SOL    HW219307   0.278   2.932   2.243 -1.3950 -2.0422  0.5934
 4827SOL     MW19308   0.203   2.949   2.202 -0.6211 -0.4577 -0.2335
 4828SOL     OW19309   4.174   4.657   2.763 -0.0599  0.4529 -0.3288
 4828SOL    HW119310   4.244   4.636   2.700 -0.5327 -0.3922 -0.5804
 4828SOL    HW219311   4.177   4.752   2.770  1.4904  0.3948  0.0934
 4828SOL     MW19312   4.184   4.667   2.756  0.0780  0.3373 -0.3070
 4829SOL     OW19313   0.769   3.304   1.445  0.2364  0.3437 -0.1673
 4829SOL    HW119314   0.846   3.337   1.397  0.4790 -0.0370 -0.0438
 4829SOL    HW219315   0.806   3.261   1.522 -0.1783  1.3887  0.6326
 4829SOL     MW19316   0.784   3.303   1.449  0.2144  0.4287 -0.0491
 4830SOL     OW19317   4.845   0.872   2.804  0.5096 -0.4774 -0.2666
 4830SOL    HW119318   4.899   0.853   2.880 -0.0419 -1.3111 -0.0764
 4830SOL    HW219319   4.758   0.888   2.840  0.2547 -0.8349 -0.7151
 4830SOL     MW19320   4.841   0.872   2.818  0.4064 -0.6299 -0.2996
 4831SOL     OW19321   4.831   3.653   0.932 -0.3577  0.2437  0.3344
 4831SOL    HW119322   4.773   3.712   0.885 -1.0538 -0.1998  0.6084
 4831SOL    HW219323   4.884   3.710   0.987  0.7290  0.8034 -1.2298
 4831SOL     MW19324   4.830   3.668   0.933 -0.3077  0.2586  0.1692
 4832SOL     OW19325   1.157   1.102   4.633 -0.2832  0.1429 -0.0274
 4832SOL    HW119326   1.243   1.060   4.635 -0.7877 -0.9033  0.5713
 4832SOL    HW219327   1.173   1.191   4.664  0.5727 -0.0634  0.1436
 4832SOL     MW19328   1.170   1.108   4.637 -0.2382 -0.0175  0.0712
 4833SOL     OW19329   3.136   1.164   2.535  0.2758 -0.0824  0.4325
 4833SOL    HW119330   3.158   1.140   2.445 -0.7171 -1.7112  0.5799
 4833SOL    HW219331   3.057   1.218   2.526  1.5950  1.9170  0.2084
 4833SOL     MW19332   3.128   1.168   2.522  0.3176 -0.0350  0.4227
 4834SOL     OW19333   2.508   1.007   1.070  0.1078 -0.4185 -0.1184
 4834SOL    HW119334   2.498   1.093   1.031 -3.2199 -0.1972  0.8674
 4834SOL    HW219335   2.580   0.966   1.023  0.4932  2.1782 -1.9337
 4834SOL     MW19336   2.516   1.013   1.059 -0.2689 -0.0577 -0.2246
 4835SOL     OW19337   4.896   5.081   0.952 -0.3077  0.4441  0.1538
 4835SOL    HW119338   4.919   5.139   1.024  0.1226  1.1730 -0.5574
 4835SOL    HW219339   4.814   5.039   0.980 -0.3186  0.9576  0.9164
 4835SOL     MW19340   4.889   5.083   0.965 -0.2540  0.6031  0.1604
 4836SOL     OW19341   3.306   3.503   3.847 -0.4559 -0.3247 -0.7250
 4836SOL    HW119342   3.395   3.471   3.834 -0.4684 -0.5828 -0.1761
 4836SOL    HW219343   3.250   3.437   3.807 -0.5183 -1.3557  0.9781
 4836SOL     MW19344   3.310   3.491   3.840 -0.4655 -0.4897 -0.4367
 4837SOL     OW19345   5.000   4.164   3.470  0.2545  0.4645  0.9774
 4837SOL    HW119346   4.931   4.198   3.413  0.8286  0.0455  0.0073
 4837SOL    HW219347   5.079   4.209   3.440  0.6381 -0.0929  1.1444
 4837SOL     MW19348   5.001   4.174   3.458  0.3771  0.3395  0.8746
 4838SOL     OW19349   4.879   2.074   5.433 -0.2020 -0.1284  0.1902
 4838SOL    HW119350   4.972   2.056   5.423 -0.3330 -0.2794 -0.8527
 4838SOL    HW219351   4.875   2.165   5.463  0.2650  0.0870 -0.3842
 4838SOL     MW19352   4.890   2.084   5.435 -0.1590 -0.1201 -0.0168
 4839SOL     OW19353   0.305   3.038   2.717  0.5133  0.5250 -0.1460
 4839SOL    HW119354   0.292   3.095   2.793 -0.5050 -0.0043  0.0824
 4839SOL    HW219355   0.302   2.949   2.753  0.1204  0.2735 -0.7927
 4839SOL     MW19356   0.303   3.034   2.732  0.3326  0.4250 -0.1995
 4840SOL     OW19357   1.433   5.433   1.660  0.4450  0.3996  0.1448
 4840SOL    HW119358   1.352   5.439   1.608 -0.0150 -2.4329  0.3514
 4840SOL    HW219359   1.491   5.378   1.606  2.1604  2.1071  0.1559
 4840SOL     MW19360   1.430   5.427   1.646  0.6057  0.2556  0.1726
 4841SOL     OW19361   3.511   2.876   0.852  1.0296 -0.4212 -0.0965
 4841SOL    HW119362   3.596   2.835   0.866  1.1800 -0.8750 -2.0544
 4841SOL    HW219363   3.528   2.948   0.790  0.1472  0.1153  0.2595
 4841SOL     MW19364   3.524   2.880   0.846  0.9359 -0.4106 -0.3016
 4842SOL     OW19365   5.257   0.327   4.464 -0.2337  0.6437 -0.0385
 4842SOL    HW119366   5.337   0.349   4.417  0.0507  0.8058  0.5010
 4842SOL    HW219367   5.279   0.342   4.556 -1.0798  1.3014  0.0704
 4842SOL     MW19368   5.270   0.332   4.470 -0.3056  0.7486  0.0445
 4843SOL     OW19369   2.353   2.923   4.191  0.0315 -0.5344  0.3778
 4843SOL    HW119370   2.387   3.006   4.225  2.5397 -1.9974  1.7037
 4843SOL    HW219371   2.423   2.888   4.137 -1.2689 -1.5051 -0.7777
 4843SOL     MW19372   2.366   2.929   4.188  0.1861 -0.8459  0.3996
 4844SOL     OW19373   1.162   0.354   2.321 -0.6352  0.0368 -0.3729
 4844SOL    HW119374   1.246   0.382   2.284  0.1866 -0.3169  1.1445
 4844SOL    HW219375   1.098   0.416   2.284  0.4190  0.8728 -0.8617
 4844SOL     MW19376   1.164   0.366   2.311 -0.3951  0.0985 -0.2412
 4845SOL     OW19377   2.073   5.284   5.181 -0.5265 -0.5258  0.7728
 4845SOL    HW119378   2.096   5.206   5.231  0.2474 -0.5913  0.3391
 4845SOL    HW219379   1.985   5.307   5.209 -0.4266 -1.0622  1.5256
 4845SOL     MW19380   2.065   5.277   5.191 -0.4147 -0.6028  0.8137
 4846SOL     OW19381   4.320   0.253   2.005 -0.5248  0.0304  0.4042
 4846SOL    HW119382   4.245   0.240   2.062 -1.6667 -0.8613 -1.2249
 4846SOL    HW219383   4.284   0.256   1.916  1.3474 -0.3868 -0.4387
 4846SOL     MW19384   4.306   0.252   2.001 -0.4313 -0.1371  0.0878
 4847SOL     OW19385   2.056   2.728   4.032  0.2554 -0.3148 -0.4988
 4847SOL    HW119386   2.109   2.649   4.044  2.0331  0.7205 -1.1574
 4847SOL    HW219387   2.033   2.727   3.940 -2.5637 -1.6905  0.0933
 4847SOL     MW19388   2.060   2.718   4.022  0.1221 -0.3583 -0.5073
 4848SOL     OW19389   0.998   1.811   0.670  0.6484  0.6525 -0.3313
 4848SOL    HW119390   0.907   1.831   0.694  0.6895  1.6907 -1.0103
 4848SOL    HW219391   1.040   1.896   0.660  1.1611  0.2264 -2.0346
 4848SOL     MW19392   0.991   1.824   0.672  0.7193  0.7309 -0.6363
 4849SOL     OW19393   1.830   0.380   5.077  0.3094  0.6502  0.5150
 4849SOL    HW119394   1.783   0.400   4.996  0.5944 -0.7791 -0.0256
 4849SOL    HW219395   1.922   0.375   5.051  0.6662  2.2529  1.3440
 4849SOL     MW19396   1.836   0.382   5.064  0.3916  0.6724  0.5519
 4850SOL     OW19397   3.115   1.470   1.404  0.1225 -0.4755  0.2428
 4850SOL    HW119398   3.100   1.560   1.372  0.5564 -0.3048  0.5217
 4850SOL    HW219399   3.109   1.416   1.325  0.5432 -0.1221 -0.0386
 4850SOL     MW19400   3.112   1.475   1.389  0.2319 -0.4084  0.2425
 4851SOL     OW19401   3.352   3.064   3.778  0.0700  0.2359 -0.2565
 4851SOL    HW119402   3.360   3.152   3.741  2.3825  0.4464  0.5840
 4851SOL    HW219403   3.403   3.067   3.859 -0.8707 -1.5460  0.4564
 4851SOL     MW19404   3.359   3.076   3.783  0.2456  0.0348 -0.0576
 4852SOL     OW19405   2.135   2.737   5.038 -0.2392 -0.5601  0.3986
 4852SOL    HW119406   2.200   2.718   4.970 -1.0821  0.9987 -0.8984
 4852SOL    HW219407   2.187   2.750   5.118  0.9265 -0.6619 -0.3252
 4852SOL     MW19408   2.150   2.736   5.040 -0.1979 -0.3736  0.1399
 4853SOL     OW19409   0.250   5.164   2.420  0.1682 -0.5546  0.1534
 4853SOL    HW119410   0.304   5.163   2.341 -0.1122  1.3230 -0.1206
 4853SOL    HW219411   0.305   5.203   2.487  0.2166 -1.6332  0.7690
 4853SOL     MW19412   0.264   5.169   2.418  0.1385 -0.4523  0.1971
 4854SOL     OW19413   1.569   4.546   1.860  0.2811 -0.5489  0.4855
 4854SOL    HW119414   1.650   4.513   1.822  0.0162  0.1595 -0.7452
 4854SOL    HW219415   1.500   4.502   1.811 -0.0746  1.1698 -0.6398
 4854SOL     MW19416   1.570   4.536   1.849  0.2017 -0.2382  0.1839
 4855SOL     OW19417   0.309   1.238   4.748  0.1743 -0.4002 -0.2937
 4855SOL    HW119418   0.284   1.146   4.743 -0.4311 -0.3680  1.4614
 4855SOL    HW219419   0.332   1.251   4.840  0.2885  1.2055 -0.5286
 4855SOL     MW19420   0.309   1.228   4.759  0.1114 -0.1906 -0.0991
 4856SOL     OW19421   0.989   1.667   1.311 -0.1901 -0.3794  0.3867
 4856SOL    HW119422   1.012   1.716   1.231  0.3073  1.2505  1.4843
 4856SOL    HW219423   1.073   1.632   1.342 -0.0827  0.5160  1.1479
 4856SOL     MW19424   1.003   1.669   1.304 -0.1127 -0.0561  0.6247
 4857SOL     OW19425   0.032   1.029   2.426 -0.6214 -0.7002 -0.1990
 4857SOL    HW119426  -0.051   0.984   2.408 -1.2875  0.4338 -0.0343
 4857SOL    HW219427   0.060   1.062   2.340 -0.4194 -0.9438 -0.2277
 4857SOL     MW19428   0.025   1.027   2.413 -0.6808 -0.5862 -0.1816
 4858SOL     OW19429   5.153   1.503   0.581 -0.3045 -0.3174  0.4565
 4858SOL    HW119430   5.077   1.552   0.550  1.1478  1.2182 -0.8914
 4858SOL    HW219431   5.139   1.414   0.548 -0.8606  0.2727 -0.9967
 4858SOL     MW19432   5.142   1.498   0.572 -0.1898 -0.0453  0.0979
 4859SOL     OW19433   1.576   2.248   4.223 -0.0199 -0.0275 -0.1088
 4859SOL    HW119434   1.525   2.177   4.261 -0.6495  0.4734 -0.0015
 4859SOL    HW219435   1.512   2.317   4.205  0.7064  0.8420  0.5760
 4859SOL     MW19436   1.562   2.248   4.225 -0.0075  0.1480 -0.0074
 4860SOL     OW19437   3.303   1.841   3.899  0.0797 -0.2719  0.4560
 4860SOL    HW119438   3.378   1.901   3.902  0.9101 -1.2903  0.8263
 4860SOL    HW219439   3.336   1.763   3.853 -0.3963 -1.1654  1.5645
 4860SOL     MW19440   3.317   1.838   3.894  0.1251 -0.5166  0.6453
 4861SOL     OW19441   5.323   4.232   0.274 -0.2931  0.5358  0.1115
 4861SOL    HW119442   5.407   4.195   0.248 -1.8052 -2.5405 -0.9780
 4861SOL    HW219443   5.262   4.201   0.207 -2.7203  0.4206  2.2216
 4861SOL     MW19444   5.326   4.223   0.262 -0.7974  0.1273  0.2421
 4862SOL     OW19445   3.214   4.404   2.058  0.4293 -0.7312  0.1107
 4862SOL    HW119446   3.303   4.376   2.040  1.1165 -0.2635  2.4822
 4862SOL    HW219447   3.211   4.418   2.153 -1.2045  2.5361 -0.2678
 4862SOL     MW19448   3.225   4.402   2.068  0.3081 -0.2531  0.3659
 4863SOL     OW19449   1.164   2.921   4.283 -0.1013 -0.0228  0.2667
 4863SOL    HW119450   1.189   3.012   4.301  0.0886  0.1925 -1.0012
 4863SOL    HW219451   1.188   2.874   4.362  0.9002  0.8289  0.4958
 4863SOL     MW19452   1.170   2.927   4.295  0.0512  0.1138  0.1337
 4864SOL     OW19453   1.513   4.827   4.595  0.3510  0.1663 -0.0457
 4864SOL    HW119454   1.515   4.750   4.651 -1.5536 -0.9817 -1.4455
 4864SOL    HW219455   1.446   4.883   4.635 -0.8696 -0.5678 -0.9950
 4864SOL     MW19456   1.504   4.825   4.607 -0.0491 -0.0746 -0.3464
 4865SOL     OW19457   2.493   2.131   1.823 -0.0750  0.1953  0.2272
 4865SOL    HW119458   2.433   2.057   1.833 -1.0419  0.9699  0.3363
 4865SOL    HW219459   2.452   2.201   1.874  0.2309  1.1464 -0.8054
 4865SOL     MW19460   2.480   2.130   1.831 -0.1596  0.4162  0.1090
 4866SOL     OW19461   3.433   5.113   2.719  0.1013  0.1674  0.4608
 4866SOL    HW119462   3.422   5.201   2.683 -0.4172  0.6835  1.8227
 4866SOL    HW219463   3.519   5.085   2.686 -0.2599  0.6630 -1.0061
 4866SOL     MW19464   3.443   5.121   2.710 -0.0113  0.2969  0.4474
 4867SOL     OW19465   0.077   3.707   1.292 -0.0580 -0.1821 -0.3691
 4867SOL    HW119466   0.124   3.773   1.241 -0.6643  2.0183  1.7274
 4867SOL    HW219467  -0.015   3.719   1.267 -0.2602  0.3385  0.5988
 4867SOL     MW19468   0.071   3.717   1.282 -0.1615  0.1662  0.0232
 4868SOL     OW19469   4.431   1.881   2.749  0.1219 -0.3503 -0.5861
 4868SOL    HW119470   4.388   1.927   2.821  0.8092 -0.8184  0.1376
 4868SOL    HW219471   4.387   1.913   2.670 -1.5914 -0.8534  0.1209
 4868SOL     MW19472   4.420   1.891   2.748 -0.0094 -0.4746 -0.4029
 4869SOL     OW19473   0.957   2.564   3.857  0.8101  0.0881 -0.3054
 4869SOL    HW119474   0.998   2.638   3.900  1.7467  1.0335 -2.6683
 4869SOL    HW219475   0.875   2.599   3.822  0.8608 -0.2059 -0.7217
 4869SOL     MW19476   0.952   2.578   3.858  0.9365  0.1715 -0.6612
 4870SOL     OW19477   2.889   1.007   1.754 -0.0208 -0.1756 -0.1330
 4870SOL    HW119478   2.943   0.940   1.712 -0.1400  0.5736 -1.5462
 4870SOL    HW219479   2.880   1.076   1.688 -0.5084  0.9097  1.0218
 4870SOL     MW19480   2.895   1.007   1.740 -0.0985  0.0592 -0.1661
 4871SOL     OW19481   1.204   0.387   5.033 -0.1373  0.0570 -0.0922
 4871SOL    HW119482   1.156   0.342   5.102  0.0932  0.3259  0.2494
 4871SOL    HW219483   1.171   0.477   5.035  0.2147  0.1872 -0.0019
 4871SOL     MW19484   1.194   0.393   5.042 -0.0627  0.1081 -0.0369
 4872SOL     OW19485   3.408   5.017   0.867 -0.0244  0.3606 -0.2136
 4872SOL    HW119486   3.404   4.960   0.944  1.1769  1.4083  0.6728
 4872SOL    HW219487   3.497   5.007   0.834 -0.3706  0.3270 -1.1568
 4872SOL     MW19488   3.419   5.008   0.872  0.0851  0.4904 -0.2209
 4873SOL     OW19489   1.749   2.450   3.861  0.4128 -0.3541 -0.6817
 4873SOL    HW119490   1.702   2.523   3.901  1.2955  0.5236 -1.2094
 4873SOL    HW219491   1.797   2.411   3.934  0.5886  0.1076 -0.5451
 4873SOL     MW19492   1.749   2.454   3.875  0.5483 -0.1826 -0.7317
 4874SOL     OW19493   5.023   4.149   4.209  0.1264  0.0344 -0.1500
 4874SOL    HW119494   5.113   4.182   4.216 -0.1145  0.9999 -1.3861
 4874SOL    HW219495   5.017   4.082   4.278  1.2144  1.2257  1.1576
 4874SOL     MW19496   5.034   4.145   4.219  0.2348  0.3105 -0.1408
 4875SOL     OW19497   1.404   4.362   5.273  0.0056 -0.0910 -0.6291
 4875SOL    HW119498   1.472   4.419   5.236  0.3310 -0.4410 -0.5720
 4875SOL    HW219499   1.330   4.372   5.213  0.2552 -0.0427 -0.9337
 4875SOL     MW19500   1.403   4.371   5.260  0.0792 -0.1296 -0.6608
 4876SOL     OW19501   4.266   2.924   0.942 -0.0109 -0.2260  0.0767
 4876SOL    HW119502   4.358   2.926   0.965 -0.2808 -1.6983  1.4163
 4876SOL    HW219503   4.234   2.840   0.975 -2.0704  0.6860  0.5742
 4876SOL     MW19504   4.274   2.914   0.949 -0.3091 -0.2977  0.3119
 4877SOL     OW19505   4.709   4.655   1.595  0.0928  0.5087  0.1190
 4877SOL    HW119506   4.655   4.729   1.626 -0.9403 -0.3937  0.5381
 4877SOL    HW219507   4.718   4.670   1.501 -1.1199  0.5625 -0.0087
 4877SOL     MW19508   4.703   4.667   1.587 -0.1947  0.4001  0.1563
 4878SOL     OW19509   2.862   4.150   0.653  0.0879  0.5074  0.2568
 4878SOL    HW119510   2.773   4.183   0.658 -0.0679  0.0425  0.6192
 4878SOL    HW219511   2.862   4.088   0.580 -0.2063 -0.4226  1.0201
 4878SOL     MW19512   2.851   4.146   0.644  0.0303  0.3288  0.4009
 4879SOL     OW19513   0.939   1.138   0.454  0.0376 -0.0041  0.3805
 4879SOL    HW119514   0.995   1.064   0.476  0.8618  0.8610  1.3338
 4879SOL    HW219515   0.872   1.102   0.397  0.7750 -1.3517  0.3320
 4879SOL     MW19516   0.938   1.124   0.450  0.2375 -0.0659  0.4963
 4880SOL     OW19517   0.170   1.441   2.893 -0.3263 -0.7105 -0.4632
 4880SOL    HW119518   0.100   1.475   2.949  0.9261 -1.6028  1.7469
 4880SOL    HW219519   0.245   1.497   2.911  0.9923 -2.8738  1.2161
 4880SOL     MW19520   0.171   1.452   2.902  0.0028 -1.1017  0.0347
 4881SOL     OW19521   0.443   1.076   0.353 -0.1294 -0.0116  0.3695
 4881SOL    HW119522   0.507   1.111   0.416 -0.2338  0.5414  0.1753
 4881SOL    HW219523   0.488   1.002   0.313  0.1979  0.0490  0.6128
 4881SOL     MW19524   0.457   1.071   0.356 -0.1008  0.0669  0.3758
 4882SOL     OW19525   0.406   0.674   3.728  0.4673  0.0573  0.1799
 4882SOL    HW119526   0.375   0.663   3.818  1.6831 -0.7251  0.5303
 4882SOL    HW219527   0.330   0.655   3.674 -0.0544 -0.3308  1.0255
 4882SOL     MW19528   0.392   0.671   3.733  0.5561 -0.0925  0.3330
 4883SOL     OW19529   1.806   3.662   2.260 -0.7017  0.8377  0.0732
 4883SOL    HW119530   1.793   3.610   2.339  0.1966  0.4620 -0.0207
 4883SOL    HW219531   1.793   3.753   2.289 -1.5127  0.6269  0.3955
 4883SOL     MW19532   1.803   3.667   2.274 -0.6905  0.7626  0.1024
 4884SOL     OW19533   1.894   4.595   3.921 -0.4213 -0.0754 -0.0798
 4884SOL    HW119534   1.909   4.676   3.873  0.4985 -0.3593 -0.3041
 4884SOL    HW219535   1.815   4.557   3.882  1.0125 -0.9686 -2.3356
 4884SOL     MW19536   1.886   4.600   3.910 -0.1200 -0.2261 -0.3973
 4885SOL     OW19537   4.021   3.760   1.227  0.1005 -0.2887  0.2225
 4885SOL    HW119538   4.092   3.736   1.288  1.2998 -4.8923 -2.5170
 4885SOL    HW219539   4.065   3.770   1.143 -2.2931 -2.1872 -1.3659
 4885SOL     MW19540   4.036   3.758   1.224 -0.0524 -1.1211 -0.3316
 4886SOL     OW19541   3.820   5.349   2.979 -0.4858 -0.4334  0.0053
 4886SOL    HW119542   3.847   5.413   3.046  0.2052 -0.3045 -0.3882
 4886SOL    HW219543   3.777   5.279   3.029 -2.3600  0.8783  0.3564
 4886SOL     MW19544   3.818   5.349   2.994 -0.6372 -0.2490 -0.0001
 4887SOL     OW19545   5.153   3.607   2.031 -0.3466 -1.0735  0.0301
 4887SOL    HW119546   5.107   3.604   2.115 -1.1089 -3.3778 -0.3731
 4887SOL    HW219547   5.107   3.543   1.977  1.5934 -1.3931 -1.3563
 4887SOL     MW19548   5.141   3.598   2.035 -0.1959 -1.4094 -0.1990
 4888SOL     OW19549   5.365   2.921   4.192  0.1158 -0.1084 -0.0995
 4888SOL    HW119550   5.425   2.989   4.222 -0.1014 -0.0696  0.2547
 4888SOL    HW219551   5.353   2.864   4.268 -0.0284 -0.3074 -0.2689
 4888SOL     MW19552   5.371   2.922   4.205  0.0696 -0.1289 -0.0758
 4889SOL     OW19553   3.389   5.244   3.686 -0.2561  0.5723 -0.2148
 4889SOL    HW119554   3.447   5.264   3.612  0.2618  0.3070  0.1123
 4889SOL    HW219555   3.415   5.307   3.754  1.3120 -1.0628  0.7864
 4889SOL     MW19556   3.400   5.255   3.686  0.0109  0.3290 -0.0448
 4890SOL     OW19557   0.102   5.063   0.270 -0.1221  0.0014 -0.0858
 4890SOL    HW119558   0.025   5.026   0.228 -0.5922 -0.4954  1.1758
 4890SOL    HW219559   0.071   5.146   0.307 -0.0748 -0.2316  0.4830
 4890SOL     MW19560   0.088   5.069   0.269 -0.1762 -0.0920  0.1485
 4891SOL     OW19561   5.142   3.256   3.007 -0.3276 -0.3399  0.1597
 4891SOL    HW119562   5.155   3.345   2.973  2.1742 -0.5454  0.3934
 4891SOL    HW219563   5.163   3.200   2.932  2.4569 -0.7452  1.1454
 4891SOL     MW19564   5.146   3.261   2.993  0.3491 -0.4181  0.3158
 4892SOL     OW19565   3.277   2.961   1.193  0.2107  0.3661  0.5084
 4892SOL    HW119566   3.205   3.021   1.213  0.0370  1.1409 -2.0401
 4892SOL    HW219567   3.340   3.014   1.144  1.3842 -0.8798  0.5911
 4892SOL     MW19568   3.276   2.975   1.189  0.3387  0.3058  0.1928
 4893SOL     OW19569   2.499   5.388   4.222 -0.1617  0.1438 -0.0374
 4893SOL    HW119570   2.406   5.394   4.202 -0.5414  1.7528  1.8553
 4893SOL    HW219571   2.518   5.467   4.274  1.6312 -1.4390  1.9078
 4893SOL     MW19572   2.490   5.399   4.226  0.0192  0.1472  0.4539
 4894SOL     OW19573   3.527   1.719   1.855  0.2617  0.1482 -0.5630
 4894SOL    HW119574   3.611   1.674   1.849 -0.0484 -0.3096 -1.9701
 4894SOL    HW219575   3.517   1.762   1.769  0.0509  2.0261  0.3445
 4894SOL     MW19576   3.536   1.719   1.843  0.1950  0.3300 -0.6270
 4895SOL     OW19577   1.279   1.707   0.392 -0.1104  0.2937  0.4392
 4895SOL    HW119578   1.331   1.640   0.348  0.2591  0.6716  0.2975
 4895SOL    HW219579   1.201   1.660   0.422  0.2888 -0.2708  0.6201
 4895SOL     MW19580   1.275   1.692   0.390 -0.0120  0.2698  0.4442
 4896SOL     OW19581   4.952   1.205   4.186  0.2142  0.0013 -0.0680
 4896SOL    HW119582   4.948   1.299   4.199 -0.1660  0.0619 -0.5987
 4896SOL    HW219583   5.039   1.190   4.149  0.0708  0.2092 -0.4908
 4896SOL     MW19584   4.963   1.215   4.183  0.1472  0.0357 -0.1901
 4897SOL     OW19585   4.029   1.673   2.953 -0.3688 -0.2366  0.1871
 4897SOL    HW119586   3.985   1.594   2.922  0.3037 -0.1706 -1.0065
 4897SOL    HW219587   4.016   1.737   2.883  0.2074  0.2963  0.5563
 4897SOL     MW19588   4.022   1.671   2.940 -0.2089 -0.1599  0.0815
 4898SOL     OW19589   2.821   4.694   1.070  0.2199 -0.2387  0.2225
 4898SOL    HW119590   2.886   4.639   1.026  2.2066  1.6768  0.5545
 4898SOL    HW219591   2.795   4.644   1.147  0.1875 -1.6563 -0.6704
 4898SOL     MW19592   2.826   4.681   1.074  0.4700 -0.1750  0.1507
 4899SOL     OW19593   1.773   0.133   1.872 -0.1209 -0.2101  0.1858
 4899SOL    HW119594   1.760   0.038   1.882  0.7094 -0.7631 -2.8249
 4899SOL    HW219595   1.715   0.157   1.800  1.2121  1.0983 -0.5067
 4899SOL     MW19596   1.764   0.124   1.864  0.1560 -0.1134 -0.2883
 4900SOL     OW19597   0.235   0.977   4.683  0.0366 -0.1655  0.1573
 4900SOL    HW119598   0.185   0.904   4.720  1.3664 -1.0476  0.2800
 4900SOL    HW219599   0.200   0.987   4.595  0.9843 -2.1256 -0.4933
 4900SOL     MW19600   0.224   0.969   4.677  0.3282 -0.5293  0.0897
 4901SOL     OW19601   0.779   3.966   4.876 -0.4037 -0.0327 -0.0078
 4901SOL    HW119602   0.742   4.054   4.872 -1.5813 -0.5153 -0.1892
 4901SOL    HW219603   0.780   3.937   4.784  1.1012  0.2279 -0.0896
 4901SOL     MW19604   0.774   3.974   4.863 -0.3618 -0.0611 -0.0415
 4902SOL     OW19605   3.439   3.267   0.093 -0.4517  0.0594 -0.3311
 4902SOL    HW119606   3.486   3.303   0.018 -0.3490 -0.2913 -0.4355
 4902SOL    HW219607   3.508   3.234   0.150 -0.4829  1.0021  0.2793
 4902SOL     MW19608   3.454   3.268   0.091 -0.4426  0.1352 -0.2664
 4903SOL     OW19609   5.232   2.351   0.405  0.4578  0.0237  0.0596
 4903SOL    HW119610   5.320   2.324   0.430  0.1429 -2.1244 -0.9119
 4903SOL    HW219611   5.234   2.447   0.407  2.5214  0.0025  0.9558
 4903SOL     MW19612   5.244   2.360   0.408  0.6816 -0.2540  0.0500
 4904SOL     OW19613   2.995   2.533   3.490  0.1386  0.0945 -0.2630
 4904SOL    HW119614   2.960   2.448   3.517  1.4638 -0.2744  0.3670
 4904SOL    HW219615   2.999   2.528   3.395  0.8768 -0.8531 -0.2064
 4904SOL     MW19616   2.991   2.521   3.481  0.4027 -0.0740 -0.1751
 4905SOL     OW19617   4.848   5.255   2.919 -0.7729  0.2859  0.1513
 4905SOL    HW119618   4.866   5.164   2.894  1.6672  1.1513 -1.6762
 4905SOL    HW219619   4.927   5.283   2.965 -1.9389  1.2090  1.6825
 4905SOL     MW19620   4.861   5.247   2.921 -0.6098  0.5149  0.1133
 4906SOL     OW19621   4.837   1.306   1.575 -0.4317 -0.3258  0.1594
 4906SOL    HW119622   4.767   1.309   1.510  0.6655 -1.9719 -1.2037
 4906SOL    HW219623   4.887   1.386   1.560 -1.8162  0.7312  0.9675
 4906SOL     MW19624   4.835   1.316   1.565 -0.4685 -0.4012  0.0884
 4907SOL     OW19625   1.287   4.462   4.618 -0.7627 -0.4886 -0.0314
 4907SOL    HW119626   1.327   4.408   4.550 -0.1474  0.3146 -0.3220
 4907SOL    HW219627   1.222   4.515   4.571  1.8400  2.4309 -0.7030
 4907SOL     MW19628   1.284   4.462   4.603 -0.3508 -0.0121 -0.1546
 4908SOL     OW19629   0.717   2.127   3.140 -0.0980  0.1134 -0.5397
 4908SOL    HW119630   0.785   2.072   3.100 -0.2163  0.2852 -0.9794
 4908SOL    HW219631   0.737   2.125   3.234 -0.1918 -0.8010 -0.5366
 4908SOL     MW19632   0.729   2.120   3.147 -0.1252  0.0183 -0.5956
 4909SOL     OW19633   4.379   0.427   2.700  0.6576  0.2780  0.2018
 4909SOL    HW119634   4.473   0.443   2.697  1.0004 -1.5853 -0.8132
 4909SOL    HW219635   4.339   0.512   2.678  2.2287  0.3147 -3.1294
 4909SOL     MW19636   4.386   0.440   2.697  0.9026  0.0442 -0.3546
 4910SOL     OW19637   4.315   2.477   1.837 -0.0919 -0.4567  0.0068
 4910SOL    HW119638   4.272   2.516   1.761 -1.2961 -0.5629  0.5960
 4910SOL    HW219639   4.274   2.391   1.846  1.4719 -1.2818 -0.3982
 4910SOL     MW19640   4.304   2.471   1.828 -0.0459 -0.5759  0.0304
 4911SOL     OW19641   0.958   5.296   4.670  0.4262  0.2063 -0.0325
 4911SOL    HW119642   0.926   5.209   4.695  2.6418 -0.8763 -0.6726
 4911SOL    HW219643   0.919   5.312   4.584  0.1467 -0.2290  0.0097
 4911SOL     MW19644   0.949   5.287   4.662  0.6741  0.0120 -0.1090
 4912SOL     OW19645   0.075   0.765   1.655  0.4490 -0.0296  0.2337
 4912SOL    HW119646   0.094   0.806   1.570 -0.3373 -1.1720 -0.5326
 4912SOL    HW219647   0.144   0.798   1.713  0.2785  1.7525 -0.5068
 4912SOL     MW19648   0.086   0.774   1.651  0.3265  0.0523  0.0408
 4913SOL     OW19649   3.462   2.938   3.542 -0.1910 -0.1556 -0.2997
 4913SOL    HW119650   3.496   2.878   3.608  0.3596  0.4443 -0.0204
 4913SOL    HW219651   3.502   2.909   3.460 -1.4219 -1.3380 -0.5213
 4913SOL     MW19652   3.471   2.927   3.540 -0.2781 -0.2302 -0.2923
 4914SOL     OW19653   4.679   3.821   0.784  0.6005  0.4532  0.1997
 4914SOL    HW119654   4.660   3.792   0.695  1.5868 -2.2914  0.7745
 4914SOL    HW219655   4.736   3.897   0.773  0.7757  0.1015 -1.5199
 4914SOL     MW19656   4.684   3.827   0.771  0.7492  0.0569  0.0531
 4915SOL     OW19657   2.136   3.584   0.275 -0.1952  0.3778  0.8134
 4915SOL    HW119658   2.196   3.517   0.309 -0.4821  0.0920  0.7615
 4915SOL    HW219659   2.130   3.648   0.346  0.7865  0.8175  0.5198
 4915SOL     MW19660   2.143   3.584   0.289 -0.1063  0.3975  0.7692
 4916SOL     OW19661   0.672   1.946   0.233  0.3294 -0.5600  0.8625
 4916SOL    HW119662   0.580   1.924   0.248 -0.0888  0.7576  0.3561
 4916SOL    HW219663   0.711   1.947   0.321 -0.1323 -1.1360  1.0764
 4916SOL     MW19664   0.666   1.943   0.247  0.2168 -0.4650  0.8250
 4917SOL     OW19665   1.175   1.520   1.433 -0.6554  0.7153 -0.1162
 4917SOL    HW119666   1.248   1.578   1.455  0.3955 -0.8381  0.6956
 4917SOL    HW219667   1.208   1.466   1.361 -1.7925  1.4148 -1.2073
 4917SOL     MW19668   1.189   1.520   1.426 -0.6664  0.6060 -0.1519
 4918SOL     OW19669   2.883   3.800   0.761  0.3036  0.0467 -0.1059
 4918SOL    HW119670   2.861   3.706   0.756  0.5014  0.0526 -1.1916
 4918SOL    HW219671   2.956   3.811   0.701  1.1026  0.6807  0.9513
 4918SOL     MW19672   2.890   3.789   0.753  0.4312  0.1286 -0.1095
 4919SOL     OW19673   0.760   4.543   3.483  0.3122 -0.4152  0.2812
 4919SOL    HW119674   0.728   4.564   3.395  2.2820  0.1597 -0.3539
 4919SOL    HW219675   0.755   4.448   3.489  0.6559 -0.5072 -0.6803
 4919SOL     MW19676   0.756   4.534   3.473  0.6084 -0.3534  0.0768
 4920SOL     OW19677   4.550   4.578   2.570 -0.2686  0.0287  0.1819
 4920SOL    HW119678   4.637   4.580   2.531 -0.8376 -1.9514 -1.4322
 4920SOL    HW219679   4.564   4.597   2.662  1.6306  1.4266 -0.3358
 4920SOL     MW19680   4.563   4.580   2.577 -0.0983 -0.0458 -0.0910
 4921SOL     OW19681   1.997   0.064   4.865 -0.3355 -0.4421 -0.2271
 4921SOL    HW119682   2.025  -0.021   4.899 -0.1421 -0.8305 -1.3147
 4921SOL    HW219683   2.074   0.121   4.875 -0.8982  0.0158  1.7868
 4921SOL     MW19684   2.011   0.060   4.870 -0.3828 -0.4332 -0.1085
 4922SOL     OW19685   0.427   4.124   5.462 -0.4349 -0.4779  0.4923
 4922SOL    HW119686   0.462   4.162   5.543 -0.3297  0.2240  0.1274
 4922SOL    HW219687   0.334   4.112   5.479 -0.4088 -0.3546  0.7228
 4922SOL     MW19688   0.420   4.127   5.475 -0.4181 -0.3723  0.4751
 4923SOL     OW19689   1.935   1.573   3.447 -0.1305 -0.1100  0.2881
 4923SOL    HW119690   1.859   1.516   3.440  1.0568 -1.8404  0.6258
 4923SOL    HW219691   2.009   1.518   3.420  0.9359  1.7497 -0.8875
 4923SOL     MW19692   1.935   1.559   3.442  0.1580 -0.0935  0.1808
 4924SOL     OW19693   4.820   1.754   4.255  0.0111 -0.4304  0.4461
 4924SOL    HW119694   4.857   1.666   4.247  0.3702 -0.3079  0.7802
 4924SOL    HW219695   4.830   1.777   4.347  1.5387  0.6689  0.0367
 4924SOL     MW19696   4.826   1.745   4.266  0.2526 -0.2740  0.4365
 4925SOL     OW19697   0.950   2.902   2.757  0.1700  0.3318  0.6816
 4925SOL    HW119698   0.974   2.989   2.724 -0.4054  0.4154  0.4784
 4925SOL    HW219699   0.856   2.907   2.772  0.1135 -0.2912  0.5662
 4925SOL     MW19700   0.941   2.914   2.754  0.0891  0.2627  0.6408
 4926SOL     OW19701   0.927   3.758   4.127  0.1346  0.0627 -0.2064
 4926SOL    HW119702   1.011   3.799   4.149  1.1979 -1.9184 -0.3159
 4926SOL    HW219703   0.938   3.667   4.153 -2.0024 -0.2646 -0.2754
 4926SOL     MW19704   0.940   3.752   4.133 -0.0029 -0.2328 -0.2292
 4927SOL     OW19705   1.055   0.123   2.241 -0.7797  0.1603  0.0950
 4927SOL    HW119706   1.083   0.213   2.258 -2.2565  0.6422  0.1309
 4927SOL    HW219707   1.016   0.126   2.153  1.4856 -1.0413 -1.0354
 4927SOL     MW19708   1.054   0.135   2.232 -0.6787  0.0682 -0.0451
 4928SOL     OW19709   4.984   1.973   4.997 -0.5876  0.4661  0.3450
 4928SOL    HW119710   5.049   2.028   5.042 -2.1935  3.0534 -0.2382
 4928SOL    HW219711   4.913   1.964   5.061 -1.3458  1.1177 -0.3862
 4928SOL     MW19712   4.983   1.979   5.011 -0.8903  0.8807  0.1768
 4929SOL     OW19713   1.967   0.420   4.383  0.6801  0.0937 -0.5922
 4929SOL    HW119714   1.995   0.421   4.291  0.2786  0.6646 -0.7107
 4929SOL    HW219715   1.984   0.509   4.414  1.2620 -0.2290  0.0293
 4929SOL     MW19716   1.973   0.431   4.375  0.7032  0.1255 -0.5278
 4930SOL     OW19717   0.340   1.909   3.536  0.5096 -0.1896  0.2934
 4930SOL    HW119718   0.396   1.860   3.596 -0.2071 -1.7572 -0.2858
 4930SOL    HW219719   0.265   1.935   3.590  0.0536 -1.2582  0.1933
 4930SOL     MW19720   0.338   1.906   3.551  0.3595 -0.5270  0.2064
 4931SOL     OW19721   2.030   0.924   4.062 -0.0626  0.0096 -0.0166
 4931SOL    HW119722   2.105   0.984   4.060  0.5704 -0.6527  1.9344
 4931SOL    HW219723   2.066   0.839   4.038 -0.0124 -0.4526  1.6164
 4931SOL     MW19724   2.044   0.921   4.059  0.0249 -0.1343  0.4422
 4932SOL     OW19725   5.309   2.798   0.813  0.4357 -0.1524  0.6383
 4932SOL    HW119726   5.316   2.705   0.836  1.4975 -0.5858 -1.2355
 4932SOL    HW219727   5.217   2.809   0.786  0.3156 -0.6616  0.8304
 4932SOL     MW19728   5.298   2.787   0.813  0.5562 -0.2731  0.4230
 4933SOL     OW19729   4.060   3.536   1.534  0.1886  0.3134 -0.1079
 4933SOL    HW119730   4.134   3.591   1.558 -0.2622  0.6089  0.6553
 4933SOL    HW219731   3.992   3.558   1.599 -0.5541  0.0383 -0.7767
 4933SOL     MW19732   4.061   3.546   1.545  0.0358  0.3160 -0.0958
 4934SOL     OW19733   2.102   0.633   2.139 -0.2854 -0.2722  0.7855
 4934SOL    HW119734   2.134   0.543   2.145 -0.1084 -0.2519  0.1741
 4934SOL    HW219735   2.160   0.675   2.075 -0.1590  0.3680  1.3080
 4934SOL     MW19736   2.114   0.627   2.132 -0.2465 -0.1877  0.7742
 4935SOL     OW19737   3.048   1.811   0.308  0.8105  0.2858  0.3480
 4935SOL    HW119738   2.956   1.822   0.283  1.2060  2.0251 -0.5383
 4935SOL    HW219739   3.070   1.893   0.353  1.4240 -0.9004  2.3469
 4935SOL     MW19740   3.039   1.823   0.311  0.9396  0.3566  0.4904
 4936SOL     OW19741   0.520   2.681   4.376 -0.2709 -0.5011  0.5514
 4936SOL    HW119742   0.518   2.587   4.364 -0.0146 -0.4283 -0.1071
 4936SOL    HW219743   0.508   2.694   4.470  1.5073 -1.2607  0.9249
 4936SOL     MW19744   0.518   2.671   4.386 -0.0105 -0.5890  0.5149
 4937SOL     OW19745   0.324   1.160   2.427  0.7812 -0.0103  0.0458
 4937SOL    HW119746   0.298   1.193   2.513  0.6644  0.5283 -0.1897
 4937SOL    HW219747   0.420   1.160   2.430  1.0773 -5.4826  2.2636
 4937SOL     MW19748   0.333   1.164   2.438  0.8042 -0.6419  0.2996
 4938SOL     OW19749   1.457   0.084   2.345 -0.1725  0.4168  0.5237
 4938SOL    HW119750   1.473   0.179   2.340 -0.6954  0.4330 -2.5772
 4938SOL    HW219751   1.544   0.045   2.341  0.0033  0.7605  0.9834
 4938SOL     MW19752   1.470   0.092   2.344 -0.2170  0.4629  0.1856
 4939SOL     OW19753   4.295   5.115   0.119 -0.1673 -0.4782 -0.1692
 4939SOL    HW119754   4.336   5.030   0.131  1.4151  0.1826 -0.5421
 4939SOL    HW219755   4.358   5.165   0.066 -0.9295  0.9882  0.2321
 4939SOL     MW19756   4.309   5.111   0.114 -0.0623 -0.2059 -0.1656
 4940SOL     OW19757   1.416   3.518   0.147  0.0182 -0.2898  0.0787
 4940SOL    HW119758   1.402   3.439   0.093  0.7512  0.3747 -1.1319
 4940SOL    HW219759   1.333   3.530   0.192 -1.3305  0.1515 -2.3186
 4940SOL     MW19760   1.403   3.509   0.146 -0.0606 -0.1483 -0.3832
 4941SOL     OW19761   2.474   4.172   1.480  0.1269 -0.1447 -0.5554
 4941SOL    HW119762   2.569   4.169   1.487  0.4716  2.5145 -2.1845
 4941SOL    HW219763   2.453   4.266   1.484 -2.4922 -0.6879  0.3321
 4941SOL     MW19764   2.484   4.184   1.481 -0.1642  0.1262 -0.6503
 4942SOL     OW19765   3.312   3.447   4.340 -0.3032 -0.1558 -0.1769
 4942SOL    HW119766   3.283   3.488   4.422 -0.4808 -1.9231  0.6799
 4942SOL    HW219767   3.404   3.426   4.355 -0.4351 -0.8247 -0.2865
 4942SOL     MW19768   3.320   3.450   4.353 -0.3428 -0.4676 -0.0813
 4943SOL     OW19769   1.717   1.383   0.912 -0.1266  0.4991 -0.1098
 4943SOL    HW119770   1.735   1.308   0.856 -0.9939  0.2542 -0.0789
 4943SOL    HW219771   1.661   1.348   0.981  1.1766  0.7197  1.1160
 4943SOL     MW19772   1.712   1.369   0.914 -0.0708  0.4960  0.0511
 4944SOL     OW19773   0.132   4.273   3.705 -0.6279 -0.0138  0.2130
 4944SOL    HW119774   0.051   4.259   3.656 -0.0983 -0.4984 -0.5522
 4944SOL    HW219775   0.127   4.211   3.778  0.6147 -2.6619 -1.8094
 4944SOL     MW19776   0.121   4.263   3.708 -0.4010 -0.4148 -0.1438
 4945SOL     OW19777   3.288   4.414   3.521  0.0719  0.2577 -0.2735
 4945SOL    HW119778   3.344   4.352   3.473  0.6128  0.9554 -0.5752
 4945SOL    HW219779   3.253   4.471   3.452 -0.7155  0.0577 -0.0400
 4945SOL     MW19780   3.291   4.414   3.506  0.0404  0.3214 -0.2822
 4946SOL     OW19781   3.464   3.639   2.996  0.1719  0.2530 -0.1370
 4946SOL    HW119782   3.476   3.693   3.075  0.0089 -0.1220  0.1493
 4946SOL    HW219783   3.535   3.665   2.938  0.7431  0.0017  0.4397
 4946SOL     MW19784   3.474   3.649   2.999  0.2241  0.1728 -0.0265
 4947SOL     OW19785   2.452   1.629   4.147  0.1322  0.1880 -0.0815
 4947SOL    HW119786   2.501   1.648   4.067 -0.5250  1.7910 -0.1404
 4947SOL    HW219787   2.512   1.578   4.200  0.4016 -1.3926 -1.7948
 4947SOL     MW19788   2.466   1.625   4.143  0.0826  0.1908 -0.3084
 4948SOL     OW19789   4.336   4.125   4.010 -0.2691  0.6319 -0.2460
 4948SOL    HW119790   4.339   4.210   3.967  0.3151  0.4218 -0.6290
 4948SOL    HW219791   4.293   4.068   3.946 -1.5524  0.8407  0.3859
 4948SOL     MW19792   4.331   4.128   3.996 -0.3586  0.6317 -0.2141
 4949SOL     OW19793   3.571   3.076   3.967  0.2747  0.1397 -0.7337
 4949SOL    HW119794   3.628   3.067   3.890 -0.6289 -0.9071 -1.3102
 4949SOL    HW219795   3.630   3.102   4.038  1.4401 -0.6572 -1.3778
 4949SOL     MW19796   3.586   3.078   3.966  0.3082 -0.0963 -0.8900
 4950SOL     OW19797   4.160   2.269   0.330 -0.0931  0.2314  0.1292
 4950SOL    HW119798   4.220   2.207   0.290 -0.3015 -0.7660  1.2942
 4950SOL    HW219799   4.077   2.254   0.285 -0.2583 -0.6903  0.6992
 4950SOL     MW19800   4.157   2.259   0.319 -0.1409 -0.0143  0.3513
 4951SOL     OW19801   0.667   3.602   2.051 -0.5862 -0.3367  0.4552
 4951SOL    HW119802   0.746   3.549   2.046  0.0905  0.6907  0.0198
 4951SOL    HW219803   0.624   3.591   1.966  1.2182  2.2784 -0.9394
 4951SOL     MW19804   0.671   3.594   2.040 -0.2686  0.1296  0.2210
 4952SOL     OW19805   0.814   2.866   3.533  0.0163  0.2232 -0.0177
 4952SOL    HW119806   0.757   2.790   3.542  0.3060  0.2774  4.1191
 4952SOL    HW219807   0.882   2.837   3.472 -0.5923 -2.3896  0.4061
 4952SOL     MW19808   0.816   2.853   3.527 -0.0245 -0.1043  0.5661
 4953SOL     OW19809   3.229   5.052   3.773 -0.8565 -0.2423 -0.3771
 4953SOL    HW119810   3.197   4.999   3.700 -0.9925 -0.7660  0.0538
 4953SOL    HW219811   3.296   5.109   3.734  0.1252 -1.5260 -0.6588
 4953SOL     MW19812   3.234   5.052   3.759 -0.7482 -0.4737 -0.3580
 4954SOL     OW19813   1.279   0.248   3.664  0.0327 -0.0513  0.6353
 4954SOL    HW119814   1.233   0.166   3.647 -0.1331  0.0462  0.6081
 4954SOL    HW219815   1.299   0.247   3.758 -1.2885  0.5467  0.9397
 4954SOL     MW19816   1.276   0.238   3.674 -0.1577  0.0377  0.6708
 4955SOL     OW19817   4.134   1.393   3.418 -0.0325  0.2130  0.4551
 4955SOL    HW119818   4.129   1.384   3.323 -2.0822 -0.9019  0.6118
 4955SOL    HW219819   4.186   1.319   3.447  0.5901  0.5505  0.2233
 4955SOL     MW19820   4.140   1.382   3.410 -0.2152  0.1135  0.4455
 4956SOL     OW19821   1.604   0.087   3.278 -0.3016 -0.5175 -0.1300
 4956SOL    HW119822   1.553   0.162   3.247 -0.3282 -0.8663 -0.9764
 4956SOL    HW219823   1.613   0.101   3.372  0.3268  0.9324 -0.3689
 4956SOL     MW19824   1.599   0.099   3.286 -0.2246 -0.3765 -0.2690
 4957SOL     OW19825   4.636   1.513   4.133  0.1267 -0.0754  0.1640
 4957SOL    HW119826   4.702   1.566   4.087  1.9449 -1.8278  0.6024
 4957SOL    HW219827   4.623   1.437   4.077  0.5074 -1.0214  1.3177
 4957SOL     MW19828   4.643   1.510   4.120  0.4082 -0.4208  0.3678
 4958SOL     OW19829   4.073   4.594   1.110 -0.4169 -0.2822 -0.1821
 4958SOL    HW119830   4.050   4.503   1.090 -1.9056  0.2286 -0.9432
 4958SOL    HW219831   3.992   4.642   1.098  0.4026  1.1955  0.0010
 4958SOL     MW19832   4.060   4.588   1.106 -0.5026 -0.0277 -0.2561
 4959SOL     OW19833   2.952   3.384   2.221  0.1489 -0.2016  0.4291
 4959SOL    HW119834   2.983   3.474   2.216 -1.6837  0.5330  1.5167
 4959SOL    HW219835   2.936   3.369   2.314  0.0324 -1.5251  0.2158
 4959SOL     MW19836   2.954   3.394   2.232 -0.1006 -0.2770  0.5410
 4960SOL     OW19837   1.549   0.695   1.531 -0.2585 -0.1824 -0.5449
 4960SOL    HW119838   1.461   0.720   1.559 -0.3985 -0.7978 -0.4263
 4960SOL    HW219839   1.544   0.601   1.516  0.9063 -0.6617  1.5596
 4960SOL     MW19840   1.537   0.686   1.533 -0.1273 -0.3225 -0.2603
 4961SOL     OW19841   4.352   4.672   1.507 -0.3022  0.2197 -0.0519
 4961SOL    HW119842   4.360   4.647   1.415  0.4742  0.9343 -0.1887
 4961SOL    HW219843   4.359   4.589   1.555  0.0344 -0.0692 -0.5986
 4961SOL     MW19844   4.354   4.658   1.502 -0.1597  0.2742 -0.1394
 4962SOL     OW19845   2.053   0.626   1.011 -0.1361 -0.0398 -0.0018
 4962SOL    HW119846   2.132   0.589   1.050  0.2092  1.6410  0.9875
 4962SOL    HW219847   2.085   0.676   0.936 -0.3669 -0.1787 -0.1914
 4962SOL     MW19848   2.067   0.628   1.007 -0.1214  0.1576  0.1006
 4963SOL     OW19849   1.232   4.999   0.051 -0.2289 -0.3592  0.5724
 4963SOL    HW119850   1.182   4.971  -0.025 -0.1614 -0.4160  0.5485
 4963SOL    HW219851   1.311   4.945   0.049 -0.2936 -0.4651  0.7642
 4963SOL     MW19852   1.236   4.989   0.041 -0.2285 -0.3801  0.5939
 4964SOL     OW19853   3.542   0.202   2.504  0.0157 -0.2237 -0.1941
 4964SOL    HW119854   3.619   0.145   2.506  0.4763  0.3725 -0.5909
 4964SOL    HW219855   3.511   0.204   2.595  1.4309  0.7864  0.3100
 4964SOL     MW19856   3.548   0.195   2.516  0.2558 -0.0180 -0.1804
 4965SOL     OW19857   3.853   0.127   1.729  0.2212 -0.1522 -0.3748
 4965SOL    HW119858   3.846   0.031   1.735  0.2094 -0.1270  0.0840
 4965SOL    HW219859   3.763   0.158   1.738  0.1680 -0.1187 -1.0128
 4965SOL     MW19860   3.841   0.118   1.731  0.2129 -0.1447 -0.3978
 4966SOL     OW19861   2.068   4.305   4.533 -0.2319 -0.1548  0.3419
 4966SOL    HW119862   2.015   4.234   4.571 -1.1414  1.0208  1.3456
 4966SOL    HW219863   2.027   4.385   4.565  1.5090  0.8281  0.2123
 4966SOL     MW19864   2.056   4.306   4.542 -0.1255  0.1215  0.4538
 4967SOL     OW19865   1.021   2.167   4.012  0.0918  0.2214 -0.2895
 4967SOL    HW119866   0.968   2.105   4.062  1.2489 -0.4491  0.1253
 4967SOL    HW219867   1.058   2.226   4.077  1.1189 -0.2890 -0.3863
 4967SOL     MW19868   1.019   2.166   4.027  0.3714  0.0702 -0.2488
 4968SOL     OW19869   3.509   1.634   3.116  0.7872 -0.2786  0.3859
 4968SOL    HW119870   3.440   1.684   3.072  0.0960 -1.3544  0.2020
 4968SOL    HW219871   3.517   1.675   3.203 -0.0148 -0.0693  0.3692
 4968SOL     MW19872   3.501   1.646   3.122  0.5961 -0.3895  0.3602
 4969SOL     OW19873   2.317   1.029   1.677  0.3316 -0.3299 -0.9474
 4969SOL    HW119874   2.399   1.066   1.709 -1.1761  1.6554  0.8725
 4969SOL    HW219875   2.305   1.069   1.591  0.8005  0.1049 -0.8194
 4969SOL     MW19876   2.326   1.039   1.670  0.1986 -0.0201 -0.6981
 4970SOL     OW19877   4.544   1.205   5.416  0.2352 -0.2215  0.1251
 4970SOL    HW119878   4.534   1.167   5.329 -1.3656 -0.7605  0.5096
 4970SOL    HW219879   4.614   1.155   5.457 -0.1035 -1.0470 -0.2873
 4970SOL     MW19880   4.552   1.194   5.410 -0.0130 -0.3962  0.1216
 4971SOL     OW19881   5.019   0.434   4.044 -0.2711  0.0191  0.4219
 4971SOL    HW119882   5.068   0.394   4.116 -0.5380  1.3329  1.3667
 4971SOL    HW219883   4.941   0.379   4.035  1.5131 -2.4460 -1.4713
 4971SOL     MW19884   5.016   0.422   4.052 -0.0769 -0.1283  0.3005
 4972SOL     OW19885   4.385   1.842   4.699 -0.1339  0.2520 -0.1020
 4972SOL    HW119886   4.347   1.801   4.776  0.8217  0.3317  0.4286
 4972SOL    HW219887   4.436   1.773   4.656 -0.9146  0.1219 -0.8504
 4972SOL     MW19888   4.387   1.828   4.703 -0.1115  0.2455 -0.1299
 4973SOL     OW19889   3.750   3.542   0.290  0.1924  0.1678 -0.3095
 4973SOL    HW119890   3.680   3.523   0.352  0.5286  0.0401  0.0312
 4973SOL    HW219891   3.736   3.633   0.264  0.3008  0.3484  0.2683
 4973SOL     MW19892   3.739   3.551   0.294  0.2493  0.1746 -0.1919
 4974SOL     OW19893   3.261   3.128   1.849 -0.1127  0.4368  0.1920
 4974SOL    HW119894   3.249   3.223   1.847 -2.2856  0.2204 -0.1975
 4974SOL    HW219895   3.246   3.099   1.759  0.3262 -0.2889  0.3415
 4974SOL     MW19896   3.257   3.136   1.837 -0.3347  0.3162  0.1613
 4975SOL     OW19897   1.162   4.171   5.271 -0.9322 -0.1745  0.2324
 4975SOL    HW119898   1.135   4.236   5.206 -2.1842 -1.0646 -0.1772
 4975SOL    HW219899   1.238   4.128   5.232 -0.1135  0.9828  0.4937
 4975SOL     MW19900   1.169   4.174   5.258 -0.9877 -0.1403  0.2134
 4976SOL     OW19901   1.448   5.258   2.546 -0.5667 -0.2148 -0.4539
 4976SOL    HW119902   1.376   5.305   2.503 -0.7053  0.2314  0.2405
 4976SOL    HW219903   1.436   5.278   2.639  1.1368  0.8477 -0.4140
 4976SOL     MW19904   1.437   5.267   2.553 -0.3664 -0.0217 -0.3599
 4977SOL     OW19905   2.596   3.817   3.098  0.1846 -0.1168  0.4565
 4977SOL    HW119906   2.551   3.739   3.132  1.4671 -0.2358  1.9843
 4977SOL    HW219907   2.658   3.842   3.167  0.1762  1.9712 -0.2146
 4977SOL     MW19908   2.598   3.810   3.111  0.3477  0.1352  0.5662
 4978SOL     OW19909   0.433   2.495   4.617  0.4671  0.1795  0.6829
 4978SOL    HW119910   0.342   2.511   4.643  0.2399  2.0074 -1.0528
 4978SOL    HW219911   0.426   2.451   4.532  1.1539  2.1805 -0.4685
 4978SOL     MW19912   0.421   2.491   4.609  0.5259  0.6696  0.3133
 4979SOL     OW19913   0.633   3.612   0.576 -0.2621 -0.2511  0.0438
 4979SOL    HW119914   0.721   3.584   0.550  0.1385 -0.9085  1.9544
 4979SOL    HW219915   0.648   3.680   0.642 -1.2162  0.2455 -0.2282
 4979SOL     MW19916   0.646   3.617   0.581 -0.3329 -0.2717  0.2536
 4980SOL     OW19917   5.314   2.227   4.695 -0.6865  0.1208  0.1041
 4980SOL    HW119918   5.235   2.280   4.699 -0.7914 -0.0432  0.1750
 4980SOL    HW219919   5.284   2.139   4.673 -0.3611  0.5112 -2.2293
 4980SOL     MW19920   5.300   2.223   4.692 -0.6583  0.1498 -0.1855
 4981SOL     OW19921   5.429   2.275   4.932  0.6508  0.0681 -0.5671
 4981SOL    HW119922   5.389   2.250   4.849 -2.0431 -0.4129  0.7327
 4981SOL    HW219923   5.389   2.360   4.953 -1.5495 -1.3903  1.8003
 4981SOL     MW19924   5.418   2.283   4.924  0.0243 -0.1801 -0.0977
 4982SOL     OW19925   2.656   1.112   3.739 -0.1348  0.1373  0.1317
 4982SOL    HW119926   2.678   1.023   3.765  0.8184 -0.6421 -2.8758
 4982SOL    HW219927   2.692   1.167   3.808  1.3017 -1.7210  0.9466
 4982SOL     MW19928   2.664   1.108   3.751  0.1711 -0.2003 -0.1490
 4983SOL     OW19929   1.265   2.238   1.830 -0.6217  0.5231 -0.3731
 4983SOL    HW119930   1.311   2.261   1.749  1.2693 -0.9207  0.2213
 4983SOL    HW219931   1.205   2.167   1.805  0.1741 -0.1253 -0.4758
 4983SOL     MW19932   1.263   2.232   1.816 -0.2777  0.2552 -0.3102
 4984SOL     OW19933   5.386   4.076   0.673 -0.0297 -0.1005 -0.5583
 4984SOL    HW119934   5.310   4.134   0.680  0.2740  0.1325  1.5960
 4984SOL    HW219935   5.365   4.017   0.601 -2.6148 -0.5396  0.4583
 4984SOL     MW19936   5.374   4.076   0.665 -0.3217 -0.1269 -0.1524
 4985SOL     OW19937   3.399   4.108   4.153 -0.5680 -0.3605  0.1632
 4985SOL    HW119938   3.310   4.080   4.132 -0.1950 -2.3683  1.0042
 4985SOL    HW219939   3.426   4.051   4.225  2.0335 -1.0434 -1.2186
 4985SOL     MW19940   3.391   4.097   4.160 -0.1872 -0.7049  0.0939
 4986SOL     OW19941   0.803   1.275   1.120 -0.3113 -0.2312  0.0382
 4986SOL    HW119942   0.740   1.345   1.139  0.3463  0.9590 -1.8610
 4986SOL    HW219943   0.770   1.236   1.039 -0.5431 -2.0252  0.9534
 4986SOL     MW19944   0.790   1.279   1.112 -0.2568 -0.3085 -0.0878
 4987SOL     OW19945   3.815   4.156   5.178 -0.4702  0.2525  0.2563
 4987SOL    HW119946   3.870   4.200   5.113 -1.3444  1.8863  0.5703
 4987SOL    HW219947   3.748   4.112   5.126 -0.1794  0.1179 -0.0133
 4987SOL     MW19948   3.814   4.156   5.163 -0.5449  0.4444  0.2620
 4988SOL     OW19949   1.172   3.397   1.676 -0.1492  0.0527  0.5806
 4988SOL    HW119950   1.114   3.450   1.621 -1.4091 -0.0869  1.7244
 4988SOL    HW219951   1.162   3.308   1.643 -1.3461 -0.1226  1.3536
 4988SOL     MW19952   1.163   3.393   1.665 -0.4637  0.0124  0.8260
 4989SOL     OW19953   3.470   4.309   3.287 -0.2398  0.6390 -0.3041
 4989SOL    HW119954   3.526   4.325   3.362  0.1546 -1.4110 -0.1172
 4989SOL    HW219955   3.518   4.345   3.213  1.5297 -1.3230 -0.1898
 4989SOL     MW19956   3.483   4.316   3.287  0.0372  0.1255 -0.2655
 4990SOL     OW19957   3.117   4.772   2.398  0.0642 -0.3531  0.2162
 4990SOL    HW119958   3.130   4.864   2.421 -0.4131 -0.5321  1.2460
 4990SOL    HW219959   3.096   4.773   2.305  0.5721  0.5280  0.1010
 4990SOL     MW19960   3.116   4.784   2.389  0.0681 -0.2632  0.3333
 4991SOL     OW19961   4.901   3.056   4.785 -0.4701 -0.4823  0.0550
 4991SOL    HW119962   4.980   3.093   4.826 -0.3838 -0.5705 -0.0314
 4991SOL    HW219963   4.882   3.115   4.713 -1.8519  0.8951  1.4647
 4991SOL     MW19964   4.909   3.068   4.781 -0.6359 -0.3173  0.2244
 4992SOL     OW19965   3.666   4.234   3.843  0.5596 -0.3823 -0.1905
 4992SOL    HW119966   3.729   4.263   3.910  0.7249  0.3857 -0.6709
 4992SOL    HW219967   3.688   4.285   3.766  0.4423 -1.3548 -0.8804
 4992SOL     MW19968   3.677   4.245   3.842  0.5658 -0.4084 -0.3403
 4993SOL     OW19969   0.525   4.036   0.373 -0.0586 -0.6722 -0.1110
 4993SOL    HW119970   0.526   4.020   0.467 -0.5331 -0.2050 -0.0222
 4993SOL    HW219971   0.616   4.022   0.345  0.2674  0.0408  0.5614
 4993SOL     MW19972   0.537   4.032   0.381 -0.0776 -0.5211 -0.0135
 4994SOL     OW19973   3.780   0.906   2.203 -0.2298  0.0816  0.0922
 4994SOL    HW119974   3.865   0.915   2.161  0.5190 -0.8023  1.3347
 4994SOL    HW219975   3.765   0.991   2.245 -1.1545  1.1013 -2.1404
 4994SOL     MW19976   3.789   0.918   2.203 -0.2523  0.0990 -0.0346
 4995SOL     OW19977   3.752   0.213   4.794  0.8068  0.2549  0.3970
 4995SOL    HW119978   3.796   0.267   4.728  0.5496  2.2788  1.7666
 4995SOL    HW219979   3.689   0.273   4.835 -1.4889 -1.8706  0.1754
 4995SOL     MW19980   3.750   0.228   4.791  0.4800  0.2419  0.5439
 4996SOL     OW19981   1.553   0.973   2.694 -0.3003  0.0307  0.3782
 4996SOL    HW119982   1.473   0.924   2.713 -0.1926  0.3025  1.5867
 4996SOL    HW219983   1.522   1.056   2.658 -0.5554  0.1174  0.7973
 4996SOL     MW19984   1.539   0.977   2.692 -0.3192  0.0766  0.5866
 4997SOL     OW19985   0.658   4.363   1.906  0.0857  0.5381  0.2406
 4997SOL    HW119986   0.580   4.395   1.952  0.3040  1.5825 -0.0898
 4997SOL    HW219987   0.731   4.405   1.951  0.5153 -0.9156  0.9405
 4997SOL     MW19988   0.657   4.372   1.918  0.1687  0.4857  0.2879
 4998SOL     OW19989   3.337   3.862   1.011  0.2222  0.3292  0.1186
 4998SOL    HW119990   3.379   3.782   0.980 -0.3937 -0.7872  2.0430
 4998SOL    HW219991   3.244   3.845   1.002  0.0968  1.1262 -0.1337
 4998SOL     MW19992   3.331   3.850   1.006  0.1273  0.2883  0.3327
 4999SOL     OW19993   2.156   2.745   0.874  0.8832  0.0616  0.1397
 4999SOL    HW119994   2.091   2.703   0.931  0.6455 -1.0103 -0.8910
 4999SOL    HW219995   2.194   2.673   0.824  2.8716  0.6501  0.6900
 4999SOL     MW19996   2.153   2.730   0.875  1.1073 -0.0003  0.0782
 5000SOL     OW19997   0.130   3.287   1.436 -0.0431 -0.0518 -0.1624
 5000SOL    HW119998   0.071   3.325   1.372 -1.3802  1.4508  1.8383
 5000SOL    HW219999   0.091   3.201   1.456 -0.4764  0.1237 -0.2441
 5000SOL     MW20000   0.118   3.281   1.431 -0.2697  0.1630  0.0833
 5001SOL     OW20001   0.453   3.140   0.535 -0.1252  0.2145  0.5446
 5001SOL    HW120002   0.466   3.193   0.614  0.3621 -0.5173  0.9719
 5001SOL    HW220003   0.478   3.198   0.463 -1.0998  1.0746  0.8723
 5001SOL     MW20004   0.458   3.154   0.536 -0.1876  0.2309  0.6412
 5002SOL     OW20005   4.568   1.946   2.303 -0.7426 -0.0513 -0.3214
 5002SOL    HW120006   4.507   1.873   2.295  0.9557 -1.6535  0.4217
 5002SOL    HW220007   4.569   1.965   2.397 -1.6541  1.4017 -0.5865
 5002SOL     MW20008   4.560   1.939   2.314 -0.6419 -0.0704 -0.2602
 5003SOL     OW20009   0.154   0.862   3.614 -0.1424 -0.0532  0.3848
 5003SOL    HW120010   0.215   0.910   3.558 -0.6907 -1.1864 -1.2303
 5003SOL    HW220011   0.086   0.926   3.636  0.1818  0.4593 -0.0732
 5003SOL     MW20012   0.153   0.876   3.610 -0.1711 -0.1326  0.1195
 5004SOL     OW20013   0.218   0.269   1.834  0.3476  0.0283 -0.2350
 5004SOL    HW120014   0.123   0.270   1.827  0.3676 -0.2202 -0.5227
 5004SOL    HW220015   0.236   0.315   1.916  0.1150  2.8202 -1.6128
 5004SOL     MW20016   0.208   0.275   1.844  0.3204  0.3539 -0.4482
 5005SOL     OW20017   4.553  -0.006   1.110 -0.0112  0.5783 -0.3754
 5005SOL    HW120018   4.595   0.080   1.099 -0.2179  0.5904 -1.1182
 5005SOL    HW220019   4.555  -0.045   1.023  0.1813 -0.2266 -0.0181
 5005SOL     MW20020   4.559   0.000   1.098 -0.0130  0.4768 -0.4247
 5006SOL     OW20021   4.279   0.639   3.421  0.1933 -0.9863  0.4048
 5006SOL    HW120022   4.356   0.684   3.388  0.1913 -0.1674  1.4592
 5006SOL    HW220023   4.311   0.586   3.494  0.1729 -2.6305 -0.7211
 5006SOL     MW20024   4.293   0.638   3.426  0.1904 -1.0919  0.3957
 5007SOL     OW20025   1.654   0.568   2.215  0.2296 -0.4959  0.1296
 5007SOL    HW120026   1.691   0.537   2.298 -0.2524  0.1541  0.5888
 5007SOL    HW220027   1.650   0.489   2.161 -1.5323 -1.4150  1.4869
 5007SOL     MW20028   1.659   0.554   2.219 -0.0576 -0.5304  0.3622
 5008SOL     OW20029   1.140   2.377   0.251  0.1115 -0.1512  0.1119
 5008SOL    HW120030   1.073   2.328   0.203  0.2032 -0.5225  0.3533
 5008SOL    HW220031   1.142   2.336   0.338 -1.1797  1.5477  0.9830
 5008SOL     MW20032   1.132   2.365   0.256 -0.0421  0.0187  0.2543
 5009SOL     OW20033   3.960   4.916   3.355  0.0106 -0.1370 -0.4340
 5009SOL    HW120034   3.925   4.830   3.375  1.4152 -0.7596 -0.4814
 5009SOL    HW220035   4.031   4.928   3.419  0.1384  0.7702 -0.7324
 5009SOL     MW20036   3.965   4.907   3.366  0.2067 -0.1005 -0.4783
 5010SOL     OW20037   0.079   2.290   5.187 -0.2684 -0.1312  0.1179
 5010SOL    HW120038   0.009   2.326   5.241  0.5952  1.8339 -0.0185
 5010SOL    HW220039   0.142   2.255   5.250  0.3875  1.4992  0.4115
 5010SOL     MW20040   0.078   2.290   5.202 -0.0739  0.3291  0.1381
 5011SOL     OW20041   3.847   4.871   2.645  0.0378 -0.0323  0.0591
 5011SOL    HW120042   3.895   4.881   2.728  0.3703  0.5776 -0.1963
 5011SOL    HW220043   3.805   4.956   2.632  0.6366  0.1482 -0.7902
 5011SOL     MW20044   3.848   4.883   2.654  0.1570  0.0689 -0.0824
 5012SOL     OW20045   0.314   4.648   0.716  0.0638 -0.4142  0.6038
 5012SOL    HW120046   0.268   4.732   0.712  0.2436 -0.3232  0.4264
 5012SOL    HW220047   0.283   4.607   0.797 -0.1756 -0.2641  0.5865
 5012SOL     MW20048   0.304   4.654   0.726  0.0561 -0.3834  0.5789
 5013SOL     OW20049   2.891   2.675   4.166 -0.2660  0.4301 -0.2442
 5013SOL    HW120050   2.837   2.611   4.212 -0.2867  0.9080  0.4063
 5013SOL    HW220051   2.830   2.745   4.142 -0.1989  0.3197 -0.7384
 5013SOL     MW20052   2.876   2.676   4.169 -0.2600  0.4772 -0.2242
 5014SOL     OW20053   0.129   3.775   4.502 -0.7146 -0.0144 -0.0789
 5014SOL    HW120054   0.135   3.679   4.502  1.4257  0.0442 -1.4555
 5014SOL    HW220055   0.177   3.801   4.581 -0.9182 -0.0554  0.0601
 5014SOL     MW20056   0.136   3.766   4.512 -0.4667 -0.0121 -0.2373
 5015SOL     OW20057   3.522   4.669   1.988 -0.1283  0.5667  0.9588
 5015SOL    HW120058   3.600   4.719   2.014 -0.2084  0.8735  0.6004
 5015SOL    HW220059   3.530   4.658   1.894 -0.5400  0.6217  0.9161
 5015SOL     MW20060   3.533   4.674   1.980 -0.1913  0.6130  0.9075
 5016SOL     OW20061   1.488   2.337   0.268 -0.0654 -0.0766 -0.3920
 5016SOL    HW120062   1.574   2.355   0.230 -0.0607 -0.7887 -0.7266
 5016SOL    HW220063   1.434   2.311   0.193 -0.7377  0.9001 -0.2779
 5016SOL     MW20064   1.492   2.336   0.253 -0.1509 -0.0427 -0.4202
 5017SOL     OW20065   1.397   1.002   4.563 -0.4460 -0.8860 -0.1182
 5017SOL    HW120066   1.465   0.960   4.616 -0.6099  0.1408  0.9384
 5017SOL    HW220067   1.446   1.058   4.503 -0.3496  0.3951  1.1155
 5017SOL     MW20068   1.412   1.004   4.562 -0.4546 -0.5906  0.1750
 5018SOL     OW20069   5.179   1.579   0.893  0.5820  0.5555  0.7175
 5018SOL    HW120070   5.151   1.575   0.802 -1.6425  0.6843  1.3401
 5018SOL    HW220071   5.227   1.662   0.901 -0.7903  1.4320  0.0653
 5018SOL     MW20072   5.182   1.589   0.883  0.1216  0.6842  0.7137
 5019SOL     OW20073   0.431   2.322   5.393 -0.3110  0.0003  0.0070
 5019SOL    HW120074   0.404   2.393   5.451 -1.0852 -1.4457  1.5413
 5019SOL    HW220075   0.395   2.345   5.308 -1.8786  0.7313  0.8230
 5019SOL     MW20076   0.423   2.334   5.390 -0.6108 -0.0912  0.3078
 5020SOL     OW20077   2.169   2.476   4.025 -0.2288  0.3754 -0.4159
 5020SOL    HW120078   2.234   2.498   4.093 -0.9960 -0.1531  0.5214
 5020SOL    HW220079   2.217   2.482   3.943  1.1285 -0.3615  0.2792
 5020SOL     MW20080   2.184   2.479   4.023 -0.1532  0.2134 -0.2069
 5021SOL     OW20081   5.009   1.531   4.259 -0.0625  0.0874  0.4847
 5021SOL    HW120082   5.096   1.540   4.296 -0.0757  0.9690  0.3252
 5021SOL    HW220083   4.958   1.486   4.327  0.5552 -0.6291  0.4901
 5021SOL     MW20084   5.014   1.526   4.273  0.0149  0.1085  0.4650
 5022SOL     OW20085   0.122   5.029   2.855 -0.1911 -0.3098 -0.5522
 5022SOL    HW120086   0.188   5.097   2.867  0.1663 -0.8809  0.9777
 5022SOL    HW220087   0.142   4.991   2.770 -0.2516  1.3160 -1.3291
 5022SOL     MW20088   0.133   5.033   2.846 -0.1531 -0.1748 -0.4558
 5023SOL     OW20089   0.204   0.964   0.448  0.3784 -0.3933  0.6666
 5023SOL    HW120090   0.287   1.007   0.430  0.4444 -0.3387  1.0808
 5023SOL    HW220091   0.217   0.874   0.418  0.6446 -0.4253  0.8656
 5023SOL     MW20092   0.216   0.958   0.442  0.4209 -0.3904  0.7451
 5024SOL     OW20093   2.426   5.262   0.525 -1.1375 -0.3993 -0.3339
 5024SOL    HW120094   2.341   5.224   0.502 -1.0422 -1.9988  1.7021
 5024SOL    HW220095   2.405   5.346   0.565 -1.6835 -0.4007 -0.6102
 5024SOL     MW20096   2.413   5.268   0.527 -1.1952 -0.6043 -0.1086
 5025SOL     OW20097   4.360   3.348   5.263  0.1403  0.1813  0.2087
 5025SOL    HW120098   4.356   3.257   5.292  1.7593 -0.2445 -0.8050
 5025SOL    HW220099   4.453   3.369   5.259 -0.1120  1.1891 -1.5998
 5025SOL     MW20100   4.371   3.339   5.266  0.3152  0.2558 -0.1526
 5026SOL     OW20101   2.279   5.286   3.663 -0.3381  0.2228  0.4675
 5026SOL    HW120102   2.286   5.194   3.638 -1.2445  0.0614  0.7810
 5026SOL    HW220103   2.272   5.333   3.581 -0.8102 -0.0777  0.3296
 5026SOL     MW20104   2.279   5.280   3.649 -0.5146  0.1637  0.4900
 5027SOL     OW20105   5.462   2.670   4.745  0.0637  0.2116 -0.0997
 5027SOL    HW120106   5.522   2.624   4.687 -1.1142  0.8758 -1.9368
 5027SOL    HW220107   5.495   2.760   4.749  0.4636  0.0431  0.7736
 5027SOL     MW20108   5.474   2.676   4.738 -0.0359  0.2751 -0.2231
 5028SOL     OW20109   4.718   3.921   0.320  0.4548 -0.5174 -0.6270
 5028SOL    HW120110   4.699   3.875   0.238  0.5432 -0.4583 -0.6807
 5028SOL    HW220111   4.799   3.882   0.351 -0.6345 -2.0140  0.5074
 5028SOL     MW20112   4.726   3.910   0.314  0.3267 -0.7014 -0.4887
 5029SOL     OW20113   5.246   2.940   1.031  0.6882  0.6711  0.4299
 5029SOL    HW120114   5.281   2.900   0.951 -2.2460 -0.3330 -0.5075
 5029SOL    HW220115   5.316   2.931   1.095  2.0732 -1.2737 -1.2205
 5029SOL     MW20116   5.259   2.934   1.029  0.4899  0.2936  0.0986
 5030SOL     OW20117   1.376   0.581   4.851  0.5778 -0.3305  0.6622
 5030SOL    HW120118   1.378   0.522   4.776  1.4398 -1.3078  1.4223
 5030SOL    HW220119   1.288   0.570   4.887  0.4541 -0.5154  0.3142
 5030SOL     MW20120   1.365   0.572   4.846  0.6723 -0.4793  0.7150
 5031SOL     OW20121   3.606   2.274   1.257 -0.9959 -0.2838  0.0377
 5031SOL    HW120122   3.696   2.258   1.285 -0.3487  0.2096 -1.6187
 5031SOL    HW220123   3.563   2.314   1.333  0.8254  1.5956  0.1607
 5031SOL     MW20124   3.612   2.277   1.270 -0.6799  0.0199 -0.1586
 5032SOL     OW20125   1.257   4.352   1.346 -0.4058 -0.2305  0.4930
 5032SOL    HW120126   1.232   4.267   1.310 -2.3132  0.4579  0.0658
 5032SOL    HW220127   1.345   4.339   1.379 -0.9258 -2.6058  1.1504
 5032SOL     MW20128   1.265   4.339   1.346 -0.7166 -0.4464  0.5225
 5033SOL     OW20129   1.733   0.456   1.683  0.4390  0.1678 -0.1712
 5033SOL    HW120130   1.650   0.480   1.725  0.5305 -0.7305  0.5643
 5033SOL    HW220131   1.797   0.457   1.754  0.7862 -0.4391 -0.4666
 5033SOL     MW20132   1.730   0.459   1.698  0.4952 -0.0249 -0.1149
 5034SOL     OW20133   2.352   4.117   0.842  0.2247 -0.4697  0.6491
 5034SOL    HW120134   2.429   4.089   0.793 -0.0301 -1.3777  0.7634
 5034SOL    HW220135   2.301   4.168   0.780  1.3330  0.9138  0.8119
 5034SOL     MW20136   2.355   4.120   0.828  0.3340 -0.4088  0.6846
 5035SOL     OW20137   5.497   0.512   1.395 -0.4583 -0.0260  0.4350
 5035SOL    HW120138   5.513   0.425   1.432  0.4196  0.6570  1.7271
 5035SOL    HW220139   5.402   0.525   1.404 -0.5404 -0.6835  0.5767
 5035SOL     MW20140   5.487   0.502   1.401 -0.3564 -0.0228  0.6185
 5036SOL     OW20141   3.889   0.260   0.914  0.0266 -0.2896 -0.5191
 5036SOL    HW120142   3.914   0.203   0.841  0.7701 -1.6908  0.7932
 5036SOL    HW220143   3.805   0.225   0.944  0.5367 -0.7652  0.3600
 5036SOL     MW20144   3.881   0.249   0.908  0.1871 -0.5298 -0.2386
 5037SOL     OW20145   2.509   4.104   2.659 -0.4028 -0.3571 -0.1116
 5037SOL    HW120146   2.553   4.130   2.579  0.1930 -2.3473 -0.4846
 5037SOL    HW220147   2.560   4.146   2.729 -0.0519  0.2062 -0.6922
 5037SOL     MW20148   2.521   4.113   2.658 -0.2816 -0.5398 -0.2337
 5038SOL     OW20149   0.616   4.963   4.383 -0.3227 -0.2775  0.2534
 5038SOL    HW120150   0.626   4.874   4.415  0.0500 -0.6901 -0.9670
 5038SOL    HW220151   0.653   4.962   4.294 -1.5174  0.7560 -0.2946
 5038SOL     MW20152   0.622   4.952   4.375 -0.4279 -0.1980  0.0271
 5039SOL     OW20153   3.930   2.552   5.132 -0.0449  0.0163 -0.3562
 5039SOL    HW120154   3.878   2.630   5.151 -0.3752  0.0410 -1.3259
 5039SOL    HW220155   4.000   2.583   5.073  0.4775 -0.2123  0.1308
 5039SOL     MW20156   3.933   2.566   5.127 -0.0203 -0.0098 -0.4180
 5040SOL     OW20157   2.191   0.207   3.565 -0.2400 -0.7097 -0.2917
 5040SOL    HW120158   2.144   0.273   3.616 -1.1387 -0.5759 -1.2552
 5040SOL    HW220159   2.126   0.175   3.502  0.5737 -1.5441 -0.7305
 5040SOL     MW20160   2.176   0.211   3.564 -0.2509 -0.7994 -0.4712
 5041SOL     OW20161   2.562   4.447   5.112  0.3354 -0.2785  0.0752
 5041SOL    HW120162   2.584   4.473   5.023 -0.1403  0.7609  0.2423
 5041SOL    HW220163   2.489   4.386   5.102 -0.0697  0.2504 -0.2278
 5041SOL     MW20164   2.555   4.443   5.100  0.2227 -0.0778  0.0578
 5042SOL     OW20165   1.802   4.723   0.269  0.2346 -0.2440 -0.7795
 5042SOL    HW120166   1.877   4.678   0.307 -0.3580 -0.5842  0.0067
 5042SOL    HW220167   1.841   4.785   0.207  1.2921  0.8935  0.9285
 5042SOL     MW20168   1.817   4.725   0.266  0.2941 -0.1420 -0.4602
 5043SOL     OW20169   5.135   2.124   1.253  0.3255  0.1989  0.3318
 5043SOL    HW120170   5.111   2.031   1.247  1.0149 -0.0209  0.9101
 5043SOL    HW220171   5.197   2.137   1.181 -0.1137  0.3294 -0.0308
 5043SOL     MW20172   5.140   2.114   1.243  0.3575  0.1875  0.3594
 5044SOL     OW20173   2.426   5.199   1.203  0.0420 -0.1374  0.6248
 5044SOL    HW120174   2.410   5.107   1.183 -0.5443 -0.1781  1.2522
 5044SOL    HW220175   2.521   5.210   1.192  0.1361 -0.8445  0.6826
 5044SOL     MW20176   2.436   5.189   1.199 -0.0210 -0.2331  0.7125
 5045SOL     OW20177   5.456   0.879   4.596 -0.2860  0.1363 -0.1183
 5045SOL    HW120178   5.437   0.960   4.549 -0.6817  0.2755  0.2774
 5045SOL    HW220179   5.478   0.816   4.527 -1.9995  0.0147 -0.5826
 5045SOL     MW20180   5.457   0.881   4.581 -0.5560  0.1386 -0.1271
 5046SOL     OW20181   2.816   1.779   0.716  0.3699 -0.2058  0.4471
 5046SOL    HW120182   2.911   1.770   0.719  0.3317 -1.8357 -1.1557
 5046SOL    HW220183   2.800   1.854   0.659  0.7667 -1.4328 -1.3996
 5046SOL     MW20184   2.826   1.787   0.709  0.4158 -0.5715  0.0055
 5047SOL     OW20185   1.927   4.240   0.477  0.2745  0.4696 -0.2555
 5047SOL    HW120186   1.848   4.218   0.428  0.6564  0.8740 -1.0623
 5047SOL    HW220187   1.996   4.189   0.437  0.4492  0.1881  0.3901
 5047SOL     MW20188   1.926   4.231   0.466  0.3458  0.4854 -0.2761
 5048SOL     OW20189   0.036   2.811   3.977 -0.2084 -0.6778 -0.2364
 5048SOL    HW120190  -0.025   2.850   4.039 -1.9024 -2.4687 -0.6828
 5048SOL    HW220191   0.099   2.881   3.958  0.3539 -0.0194  3.3626
 5048SOL     MW20192   0.036   2.825   3.983 -0.3533 -0.8228  0.1672
 5049SOL     OW20193   4.700   0.695   3.088  0.5981 -0.2725  0.2236
 5049SOL    HW120194   4.709   0.604   3.062  1.5761 -0.5696  1.4720
 5049SOL    HW220195   4.639   0.733   3.025  0.2826 -1.7480 -0.3888
 5049SOL     MW20196   4.694   0.688   3.076  0.6829 -0.4994  0.3050
 5050SOL     OW20197   2.266   3.088   3.741 -0.0578  0.4508 -0.1353
 5050SOL    HW120198   2.267   3.127   3.653 -1.1993  0.1582 -0.2884
 5050SOL    HW220199   2.297   3.158   3.798 -0.6514  1.1080 -0.6004
 5050SOL     MW20200   2.270   3.102   3.737 -0.2799  0.4975 -0.2144
 5051SOL     OW20201   0.924   0.025   2.905 -0.4061  0.0004  0.6642
 5051SOL    HW120202   0.962   0.017   2.992  1.6453  1.0146 -0.0691
 5051SOL    HW220203   0.959   0.107   2.871 -0.8430 -0.5496 -1.2538
 5051SOL     MW20204   0.933   0.034   2.911 -0.1994  0.0598  0.3248
 5052SOL     OW20205   0.331   4.420   3.582 -0.2535  0.1794 -0.1510
 5052SOL    HW120206   0.367   4.366   3.512 -0.7030  1.0326 -1.0535
 5052SOL    HW220207   0.265   4.364   3.624  1.2899 -1.0019  0.8212
 5052SOL     MW20208   0.327   4.406   3.579 -0.1135  0.1374 -0.1420
 5053SOL     OW20209   0.589   4.244   0.781 -0.5885 -0.5392 -0.4920
 5053SOL    HW120210   0.561   4.309   0.717  0.8700 -0.3240 -0.9598
 5053SOL    HW220211   0.685   4.246   0.776 -0.4938 -1.8358  0.3858
 5053SOL     MW20212   0.598   4.253   0.772 -0.3897 -0.6776 -0.4395
 5054SOL     OW20213   1.178   1.259   1.904  0.4997  0.0151 -0.6626
 5054SOL    HW120214   1.176   1.291   1.814  0.8003  1.9617 -0.0472
 5054SOL    HW220215   1.247   1.311   1.946  0.5168 -0.9980  0.6398
 5054SOL     MW20216   1.187   1.270   1.898  0.5404  0.1346 -0.4171
 5055SOL     OW20217   4.507   4.079   4.849  0.1811  0.1128 -0.4973
 5055SOL    HW120218   4.471   4.053   4.934  0.8172 -0.0415 -0.2694
 5055SOL    HW220219   4.489   4.173   4.843 -0.6798 -0.0526 -0.6003
 5055SOL     MW20220   4.500   4.087   4.859  0.1523  0.0719 -0.4813
 5056SOL     OW20221   1.720   3.678   1.413  0.0380  0.2745  0.1652
 5056SOL    HW120222   1.769   3.706   1.490  0.3334  1.2314 -0.3698
 5056SOL    HW220223   1.747   3.587   1.400  0.8191  0.4440  0.5336
 5056SOL     MW20224   1.729   3.670   1.421  0.1758  0.4187  0.1438
 5057SOL     OW20225   3.508   2.711   2.404 -0.1162 -0.4053  0.3550
 5057SOL    HW120226   3.435   2.773   2.402  0.9735  0.8990  0.3544
 5057SOL    HW220227   3.566   2.743   2.473  1.8019  0.1654 -1.4305
 5057SOL     MW20228   3.506   2.723   2.412  0.2689 -0.1653  0.1263
 5058SOL     OW20229   1.222   4.604   2.870  0.0729  0.1970  0.2981
 5058SOL    HW120230   1.285   4.673   2.887 -0.3350  1.0247 -1.3831
 5058SOL    HW220231   1.270   4.539   2.818  0.4350 -0.7994  1.8051
 5058SOL     MW20232   1.236   4.604   2.865  0.0671  0.1754  0.2758
 5059SOL     OW20233   0.164   4.171   4.754 -0.1336  0.1911 -0.0465
 5059SOL    HW120234   0.204   4.257   4.750  0.7976 -0.1684  1.0420
 5059SOL    HW220235   0.228   4.116   4.800 -0.6891 -1.0896 -0.7317
 5059SOL     MW20236   0.177   4.175   4.759 -0.0855 -0.0188  0.0051
 5060SOL     OW20237   0.859   1.732   2.739  0.0137 -0.3303  0.3115
 5060SOL    HW120238   0.860   1.698   2.650  0.3181  0.0017  0.1843
 5060SOL    HW220239   0.950   1.726   2.768 -0.1916 -1.0429  0.8363
 5060SOL     MW20240   0.871   1.727   2.732  0.0264 -0.3790  0.3624
 5061SOL     OW20241   2.254   0.302   2.892  0.3815 -0.6824 -0.1639
 5061SOL    HW120242   2.276   0.290   2.800  0.6945 -1.3743 -0.0046
 5061SOL    HW220243   2.176   0.246   2.905 -0.4932  0.4613 -0.3267
 5061SOL     MW20244   2.247   0.293   2.882  0.3096 -0.6246 -0.1644
 5062SOL     OW20245  -0.001   0.172   4.733  0.0619  0.9841 -0.1402
 5062SOL    HW120246  -0.020   0.108   4.664 -2.1552  0.7082  0.6380
 5062SOL    HW220247   0.042   0.121   4.802  0.8444  0.9400 -0.6495
 5062SOL     MW20248   0.002   0.157   4.733 -0.1218  0.9432 -0.1058
 5063SOL     OW20249   3.372   5.299   3.197 -0.5572  0.1278 -0.3471
 5063SOL    HW120250   3.330   5.363   3.255 -0.1550  0.0298  0.0602
 5063SOL    HW220251   3.317   5.298   3.119  0.7798  2.8106 -1.4281
 5063SOL     MW20252   3.359   5.307   3.195 -0.3346  0.4587 -0.4334
 5064SOL     OW20253   0.220   3.744   5.340 -0.0639 -0.1214  0.4033
 5064SOL    HW120254   0.156   3.689   5.295 -0.5529 -0.0209  0.9633
 5064SOL    HW220255   0.282   3.683   5.378  0.5646 -0.1986 -0.6839
 5064SOL     MW20256   0.220   3.730   5.339 -0.0460 -0.1184  0.3358
 5065SOL     OW20257   2.608   2.858   2.019  0.2578  0.6812  0.1609
 5065SOL    HW120258   2.668   2.899   1.957 -0.4333  0.0887 -0.9305
 5065SOL    HW220259   2.524   2.903   2.006 -0.0503  0.1340  0.2260
 5065SOL     MW20260   2.605   2.869   2.010  0.1299  0.5353  0.0295
 5066SOL     OW20261   1.955   4.610   2.629  0.1985  0.2903  0.2429
 5066SOL    HW120262   1.925   4.672   2.696 -0.0684 -0.2422  0.6284
 5066SOL    HW220263   1.946   4.524   2.671 -0.6763 -0.1141 -0.7212
 5066SOL     MW20264   1.950   4.607   2.643  0.0523  0.1703  0.1688
 5067SOL     OW20265   0.344   4.767   4.781 -0.3341  0.4875 -0.2596
 5067SOL    HW120266   0.345   4.711   4.859  1.0324 -0.1122 -0.6900
 5067SOL    HW220267   0.263   4.742   4.736 -0.0731 -0.6927 -0.1214
 5067SOL     MW20268   0.334   4.757   4.785 -0.1258  0.2596 -0.2970
 5068SOL     OW20269   3.732   1.891   2.370 -1.0407  0.1076  0.0764
 5068SOL    HW120270   3.670   1.964   2.370 -1.9242 -0.6142 -0.2120
 5068SOL    HW220271   3.762   1.885   2.279  1.1651  1.8151  0.6126
 5068SOL     MW20272   3.728   1.899   2.358 -0.8714  0.2338  0.1081
 5069SOL     OW20273   3.315   4.179   5.120 -0.2075 -0.7584  0.0138
 5069SOL    HW120274   3.345   4.248   5.180 -0.2823 -0.5221 -0.2197
 5069SOL    HW220275   3.311   4.222   5.035 -2.5613 -0.3794  0.2605
 5069SOL     MW20276   3.319   4.193   5.117 -0.5184 -0.6796  0.0155
 5070SOL     OW20277   5.428   4.389   4.651 -0.0613  0.3700 -0.2213
 5070SOL    HW120278   5.464   4.302   4.637 -0.0018  0.3558  0.0218
 5070SOL    HW220279   5.459   4.415   4.737  1.4263  1.3815 -1.0201
 5070SOL     MW20280   5.436   4.381   4.660  0.1368  0.4977 -0.2925
 5071SOL     OW20281   4.406   0.547   4.765  0.1090  0.5996  0.8190
 5071SOL    HW120282   4.483   0.542   4.821 -0.7826 -0.9721  2.0091
 5071SOL    HW220283   4.425   0.617   4.704  2.9330 -0.4128  0.3740
 5071SOL     MW20284   4.418   0.555   4.765  0.3564  0.2688  0.9144
 5072SOL     OW20285   1.269   2.662   4.950 -0.1964  0.1615  0.2004
 5072SOL    HW120286   1.313   2.740   4.983  0.3341  0.4622 -1.1461
 5072SOL    HW220287   1.262   2.677   4.856  0.9449 -1.9105 -0.2650
 5072SOL     MW20288   1.274   2.674   4.942  0.0176 -0.0652 -0.0316
 5073SOL     OW20289   4.172   4.921   2.446  0.4150 -0.2902  0.2076
 5073SOL    HW120290   4.250   4.876   2.412 -0.8890 -2.4029 -0.2190
 5073SOL    HW220291   4.185   5.013   2.423  1.8954 -0.8783 -1.5762
 5073SOL     MW20292   4.184   4.927   2.439  0.4376 -0.6359 -0.0754
 5074SOL     OW20293   3.067   1.156   5.436 -1.0569 -0.0343 -0.7135
 5074SOL    HW120294   3.085   1.088   5.502  0.6779 -1.5686 -2.6431
 5074SOL    HW220295   3.119   1.231   5.464 -1.7471 -0.0033  0.5843
 5074SOL     MW20296   3.076   1.157   5.448 -0.9232 -0.2267 -0.7944
 5075SOL     OW20297   5.218   4.668   1.745  0.7583 -0.0782  0.1878
 5075SOL    HW120298   5.223   4.578   1.714  0.4188  0.0480 -0.2497
 5075SOL    HW220299   5.153   4.666   1.815 -1.0548  0.2332 -1.4025
 5075SOL     MW20300   5.210   4.656   1.750  0.4827 -0.0222 -0.0718
 5076SOL     OW20301   2.856   0.604   3.908  0.3257 -0.1384  0.0302
 5076SOL    HW120302   2.886   0.551   3.834  1.6195 -0.4891  0.7709
 5076SOL    HW220303   2.826   0.686   3.867  0.9785 -0.3378 -0.8914
 5076SOL     MW20304   2.856   0.608   3.893  0.5749 -0.2088  0.0070
 5077SOL     OW20305   4.455   5.009   1.890 -0.5520  1.0093 -0.2604
 5077SOL    HW120306   4.447   5.099   1.924  0.4828  0.6153  1.1475
 5077SOL    HW220307   4.377   4.964   1.924 -0.9836  1.3244 -0.8221
 5077SOL     MW20308   4.444   5.015   1.899 -0.4748  0.9992 -0.1521
 5078SOL     OW20309   3.086   3.456   5.284 -0.5659  0.0163  0.2280
 5078SOL    HW120310   3.019   3.478   5.348 -0.0440 -0.6285  1.0235
 5078SOL    HW220311   3.136   3.537   5.274 -1.4035  0.4810 -0.3199
 5078SOL     MW20312   3.084   3.469   5.291 -0.6063 -0.0067  0.2597
 5079SOL     OW20313   1.956   2.516   0.449 -0.1061 -0.4754  0.1249
 5079SOL    HW120314   2.025   2.527   0.514  0.4406 -0.8824 -0.3879
 5079SOL    HW220315   1.878   2.494   0.500 -1.4347  5.4895  1.4199
 5079SOL     MW20316   1.955   2.515   0.464 -0.2062  0.2361  0.2250
 5080SOL     OW20317   2.248   0.613   4.254  0.6123 -0.0094  0.1956
 5080SOL    HW120318   2.318   0.566   4.300  0.9208  0.5814  0.3309
 5080SOL    HW220319   2.239   0.696   4.301  0.7104  0.4655 -0.6017
 5080SOL     MW20320   2.256   0.617   4.266  0.6643  0.1271  0.1108
 5081SOL     OW20321   2.813   0.550   3.121  0.2339 -0.5297 -0.5401
 5081SOL    HW120322   2.838   0.477   3.066  2.1446 -1.3408  1.2505
 5081SOL    HW220323   2.875   0.620   3.099 -1.3137  0.4677 -1.9417
 5081SOL     MW20324   2.824   0.549   3.111  0.2804 -0.5058 -0.4903
 5082SOL     OW20325   0.585   2.817   1.723 -0.0920  0.6322  0.3816
 5082SOL    HW120326   0.597   2.855   1.810 -2.3108 -0.2056  1.1071
 5082SOL    HW220327   0.572   2.892   1.666 -0.1620  1.1353  1.0418
 5082SOL     MW20328   0.585   2.832   1.727 -0.3850  0.5893  0.5589
 5083SOL     OW20329   0.069   4.762   3.559  0.1065  0.4201  0.3307
 5083SOL    HW120330  -0.008   4.719   3.522  0.4791  0.8905 -1.0645
 5083SOL    HW220331   0.051   4.765   3.653 -0.9630 -0.6758  0.2021
 5083SOL     MW20332   0.056   4.757   3.566  0.0173  0.3400  0.1356
 5084SOL     OW20333   4.480   5.364   5.114  0.2739  0.1504  0.2700
 5084SOL    HW120334   4.503   5.444   5.162 -2.1528  1.2440 -0.2229
 5084SOL    HW220335   4.389   5.347   5.139 -0.9738  0.4717 -3.4444
 5084SOL     MW20336   4.471   5.372   5.124 -0.1964  0.3315 -0.2686
 5085SOL     OW20337   3.939   1.858   2.695 -0.3845  0.9552 -0.0970
 5085SOL    HW120338   3.972   1.813   2.617 -1.0727  0.6558 -0.2144
 5085SOL    HW220339   3.929   1.949   2.667 -1.0113  0.7717 -0.4767
 5085SOL     MW20340   3.942   1.864   2.681 -0.5528  0.8934 -0.1606
 5086SOL     OW20341   1.607   2.117   2.346  0.3063  0.1521  0.1851
 5086SOL    HW120342   1.602   2.212   2.340 -2.8756  0.1271  1.1296
 5086SOL    HW220343   1.559   2.085   2.270 -1.4850 -0.6030  1.5685
 5086SOL     MW20344   1.600   2.125   2.336 -0.3303  0.0522  0.4831
 5087SOL     OW20345   2.915   1.103   4.100  0.3284  0.3252  0.0875
 5087SOL    HW120346   2.949   1.064   4.020  0.2910  1.1571 -0.3417
 5087SOL    HW220347   2.960   1.188   4.107  0.6305  0.1027  1.1571
 5087SOL     MW20348   2.925   1.109   4.091  0.3623  0.4032  0.1695
 5088SOL     OW20349   1.364   2.937   3.091 -0.5386 -0.2728 -0.1005
 5088SOL    HW120350   1.436   2.992   3.120 -0.6377 -0.4379  0.4675
 5088SOL    HW220351   1.326   2.902   3.172  0.0944 -1.8999 -0.4767
 5088SOL     MW20352   1.368   2.939   3.105 -0.4703 -0.5022 -0.0759
 5089SOL     OW20353   5.286   0.822   1.664 -0.0567  0.0730  0.1850
 5089SOL    HW120354   5.376   0.795   1.681 -0.6069 -2.2087 -0.3214
 5089SOL    HW220355   5.278   0.819   1.569 -1.0143 -0.9998  0.2869
 5089SOL     MW20356   5.297   0.818   1.654 -0.2497 -0.3564  0.1332
 5090SOL     OW20357   4.341   1.072   1.426 -0.2284  0.1172  0.4086
 5090SOL    HW120358   4.352   1.119   1.344 -0.1383 -0.7685 -0.0975
 5090SOL    HW220359   4.369   0.983   1.407  1.0218  0.1820  1.7307
 5090SOL     MW20360   4.346   1.067   1.413 -0.0568  0.0121  0.5130
 5091SOL     OW20361   2.702   2.103   1.308  0.1976  0.1052  0.2284
 5091SOL    HW120362   2.751   2.185   1.316  1.9504 -0.8983  0.0901
 5091SOL    HW220363   2.656   2.094   1.391  3.2788 -0.8082  1.9524
 5091SOL     MW20364   2.702   2.112   1.319  0.8164 -0.1402  0.4314
 5092SOL     OW20365   5.301   1.605   0.077  0.3612 -0.1654 -0.2383
 5092SOL    HW120366   5.304   1.701   0.070  0.2613 -0.1618 -0.2428
 5092SOL    HW220367   5.372   1.582   0.137  1.8184 -0.2609 -1.9258
 5092SOL     MW20368   5.310   1.615   0.084  0.5349 -0.1772 -0.4549
 5093SOL     OW20369   4.691   1.832   3.319 -0.2199 -0.3877  0.0057
 5093SOL    HW120370   4.673   1.904   3.258 -1.8914  0.8502  1.8607
 5093SOL    HW220371   4.737   1.873   3.392 -0.8566 -1.2701  0.9210
 5093SOL     MW20372   4.694   1.846   3.320 -0.5153 -0.3422  0.3603
 5094SOL     OW20373   2.490   3.695   1.757 -0.0550 -0.1354 -0.7951
 5094SOL    HW120374   2.426   3.649   1.701 -0.1292  0.4408 -1.1940
 5094SOL    HW220375   2.484   3.786   1.729  0.4065  0.0454 -0.3077
 5094SOL     MW20376   2.481   3.700   1.746 -0.0054 -0.0385 -0.7838
 5095SOL     OW20377   1.243   0.156   4.266 -0.2152  0.3500 -0.4419
 5095SOL    HW120378   1.310   0.094   4.236 -1.2276 -0.8926 -0.2200
 5095SOL    HW220379   1.175   0.153   4.199  0.4084  2.4997 -1.2759
 5095SOL     MW20380   1.243   0.148   4.254 -0.2650  0.4661 -0.5203
 5096SOL     OW20381   2.558   4.374   0.617  0.0751  0.7312 -0.5100
 5096SOL    HW120382   2.551   4.317   0.540 -0.8243  1.3480 -0.8947
 5096SOL    HW220383   2.470   4.409   0.629  0.3389  1.0737  0.4769
 5096SOL     MW20384   2.546   4.371   0.609 -0.0063  0.8540 -0.4329
 5097SOL     OW20385   0.418   2.500   1.576 -0.6474  0.4323  0.1831
 5097SOL    HW120386   0.410   2.553   1.655 -1.7566  1.9349 -0.8634
 5097SOL    HW220387   0.352   2.432   1.585  0.2848 -0.3558  1.2180
 5097SOL     MW20388   0.409   2.498   1.587 -0.6701  0.5237  0.1816
 5098SOL     OW20389   1.527   1.547   0.120 -0.2749 -0.3968  0.4452
 5098SOL    HW120390   1.521   1.463   0.074 -1.8595 -0.9938  1.6571
 5098SOL    HW220391   1.456   1.600   0.083  0.2664  0.1688  0.1920
 5098SOL     MW20392   1.517   1.543   0.109 -0.4084 -0.4009  0.5679
 5099SOL     OW20393   0.364   1.805   4.911 -0.2835 -0.2606  0.4349
 5099SOL    HW120394   0.274   1.839   4.910 -0.9553 -1.7591 -2.5583
 5099SOL    HW220395   0.386   1.793   4.818  2.6369 -0.9691  1.1175
 5099SOL     MW20396   0.355   1.808   4.899  0.0043 -0.5431  0.1391
 5100SOL     OW20397   2.442   0.499   4.450 -0.7669  0.3610 -0.2681
 5100SOL    HW120398   2.423   0.437   4.521 -0.4003  0.1576 -0.3480
 5100SOL    HW220399   2.474   0.577   4.494  1.9456 -0.6295 -0.2840
 5100SOL     MW20400   2.444   0.501   4.465 -0.3728  0.2081 -0.2804
 5101SOL     OW20401   3.464   5.152   2.254  0.1378  0.4218 -0.0001
 5101SOL    HW120402   3.463   5.179   2.162 -1.0039  1.3332  0.2537
 5101SOL    HW220403   3.496   5.230   2.301 -1.1772  0.6430  0.5530
 5101SOL     MW20404   3.468   5.166   2.248 -0.1767  0.5668  0.1032
 5102SOL     OW20405   3.124   0.675   4.013 -0.4623 -0.0533 -0.1932
 5102SOL    HW120406   3.042   0.657   4.059 -0.2138 -2.2038 -0.4911
 5102SOL    HW220407   3.098   0.696   3.924 -0.7208 -1.2288 -0.4214
 5102SOL     MW20408   3.110   0.675   4.007 -0.4636 -0.4791 -0.2606
 5103SOL     OW20409   0.809   3.565   0.855  0.0573  0.4534 -0.1886
 5103SOL    HW120410   0.879   3.602   0.801  1.8391 -0.9602  1.0569
 5103SOL    HW220411   0.820   3.607   0.941 -0.7552  0.3614 -0.0276
 5103SOL     MW20412   0.819   3.575   0.859  0.1814  0.2606 -0.0086
 5104SOL     OW20413   1.930   1.270   3.221  0.1815 -0.1774  0.2720
 5104SOL    HW120414   1.957   1.213   3.293  1.4462 -1.5973 -1.2537
 5104SOL    HW220415   1.984   1.349   3.231  1.3344 -0.9320  0.1257
 5104SOL     MW20416   1.940   1.273   3.231  0.4910 -0.4558  0.0580
 5105SOL     OW20417   3.696   2.887   2.118 -0.0037  0.6634 -0.1627
 5105SOL    HW120418   3.769   2.949   2.123  0.3713  0.3237 -1.2494
 5105SOL    HW220419   3.622   2.940   2.088 -0.5901  1.2943  2.1616
 5105SOL     MW20420   3.696   2.902   2.115 -0.0307  0.7007 -0.0043
 5106SOL     OW20421   2.207   5.503   2.703 -0.3963 -0.0548  0.1842
 5106SOL    HW120422   2.290   5.508   2.751 -1.0078 -0.6499  1.3557
 5106SOL    HW220423   2.204   5.413   2.670 -0.6888 -0.1205  0.3843
 5106SOL     MW20424   2.217   5.492   2.705 -0.5120 -0.1394  0.3598
 5107SOL     OW20425   2.127   3.673   3.907  0.1377 -0.2250  0.6153
 5107SOL    HW120426   2.199   3.711   3.857  0.3541 -0.6216  0.6159
 5107SOL    HW220427   2.050   3.684   3.852  0.3129 -0.3463  0.3448
 5107SOL     MW20428   2.127   3.679   3.894  0.1879 -0.2913  0.5807
 5108SOL     OW20429   4.046   3.054   5.358 -0.4155  0.0718  0.2355
 5108SOL    HW120430   3.983   3.116   5.395  0.0269  1.0758 -0.6341
 5108SOL    HW220431   4.132   3.089   5.383 -0.1597 -0.1345 -0.3307
 5108SOL     MW20432   4.049   3.066   5.366 -0.3261  0.1739  0.0517
 5109SOL     OW20433   1.483   2.242   4.867 -0.0276 -0.2150  0.3527
 5109SOL    HW120434   1.420   2.283   4.927 -1.0063  0.9871 -1.4043
 5109SOL    HW220435   1.568   2.274   4.897 -0.6031  1.4098  0.3457
 5109SOL     MW20436   1.486   2.251   4.879 -0.2265  0.1469  0.1269
 5110SOL     OW20437   4.681   2.372   3.940  0.1168  0.2006  0.3334
 5110SOL    HW120438   4.608   2.320   3.974 -0.6990  2.0979  1.7041
 5110SOL    HW220439   4.759   2.328   3.972 -0.4833 -0.9398  0.2832
 5110SOL     MW20440   4.681   2.360   3.949 -0.0645  0.2975  0.5025
 5111SOL     OW20441   5.130   0.092   2.172  0.0401  0.9280 -0.0823
 5111SOL    HW120442   5.039   0.092   2.199 -0.8869  0.3142 -2.8831
 5111SOL    HW220443   5.179   0.073   2.252 -2.4308 -1.2961  1.0484
 5111SOL     MW20444   5.125   0.090   2.186 -0.3949  0.5647 -0.2961
 5112SOL     OW20445   3.479   5.398   0.444 -0.4056 -0.0257  0.4626
 5112SOL    HW120446   3.458   5.308   0.469  2.8024 -1.1335 -0.4448
 5112SOL    HW220447   3.427   5.413   0.365  1.2261 -2.2709 -1.1703
 5112SOL     MW20448   3.470   5.388   0.437  0.2139 -0.4550  0.1374
 5113SOL     OW20449   4.635   2.087   1.388 -0.0527  0.2981  0.0447
 5113SOL    HW120450   4.699   2.128   1.446 -0.0543  0.2915  0.0508
 5113SOL    HW220451   4.645   1.993   1.404 -1.1150  0.3408  1.1765
 5113SOL     MW20452   4.644   2.080   1.398 -0.1889  0.3027  0.1903
 5114SOL     OW20453   2.671   1.273   0.115  0.0431 -0.2041 -0.1089
 5114SOL    HW120454   2.739   1.339   0.105 -0.6084  0.5319  0.2015
 5114SOL    HW220455   2.641   1.254   0.026 -2.1307  2.4808 -0.0941
 5114SOL     MW20456   2.676   1.279   0.103 -0.3186  0.2338 -0.0672
 5115SOL     OW20457   1.904   5.179  -0.004 -0.3880 -0.1511 -0.4377
 5115SOL    HW120458   1.980   5.143  -0.050 -0.7275 -0.4126 -0.8108
 5115SOL    HW220459   1.940   5.226   0.070  0.1485 -0.1109 -0.7215
 5115SOL     MW20460   1.918   5.180  -0.000 -0.3628 -0.1794 -0.5218
 5116SOL     OW20461   1.213   2.304   2.149 -0.1312  0.6775 -0.5116
 5116SOL    HW120462   1.259   2.382   2.178 -0.1855  1.4040 -2.3027
 5116SOL    HW220463   1.240   2.291   2.058  2.2110 -3.1071  0.4734
 5116SOL     MW20464   1.222   2.312   2.141  0.1617  0.2860 -0.6148
 5117SOL     OW20465   5.215   3.848   4.682  0.1170  0.8111  0.1368
 5117SOL    HW120466   5.292   3.905   4.685 -0.6418  1.9751 -1.0409
 5117SOL    HW220467   5.196   3.828   4.774  1.7832  0.5144  0.4463
 5117SOL     MW20468   5.223   3.853   4.694  0.2332  0.9221  0.0257
 5118SOL     OW20469   3.446   2.436   0.427 -0.2754  0.1498 -0.3372
 5118SOL    HW120470   3.422   2.477   0.510  0.6095 -1.3986  0.7466
 5118SOL    HW220471   3.542   2.431   0.430 -0.2208  0.2234 -1.5400
 5118SOL     MW20472   3.455   2.441   0.438 -0.1552 -0.0390 -0.3525
 5119SOL     OW20473   3.635   3.468   4.715  0.1500 -0.2315  0.0094
 5119SOL    HW120474   3.656   3.561   4.705 -1.7538  0.2243  0.0427
 5119SOL    HW220475   3.721   3.425   4.717  1.0473  1.2589 -2.3457
 5119SOL     MW20476   3.649   3.474   4.714  0.0212  0.0176 -0.2878
 5120SOL     OW20477   2.031   0.512   5.323 -0.0987 -0.5479  0.5456
 5120SOL    HW120478   1.947   0.471   5.343 -0.0816 -0.9043 -0.0794
 5120SOL    HW220479   2.082   0.503   5.404  0.2932 -2.7495  0.1207
 5120SOL     MW20480   2.027   0.505   5.336 -0.0464 -0.8754  0.4112
 5121SOL     OW20481   2.858   3.447   5.129  0.1288  0.3492 -0.6152
 5121SOL    HW120482   2.838   3.373   5.072  0.8126 -0.6883  0.4423
 5121SOL    HW220483   2.940   3.423   5.172  0.0142  1.4254  0.2526
 5121SOL     MW20484   2.866   3.434   5.127  0.2017  0.3542 -0.3687
 5122SOL     OW20485   1.958   4.922   1.468  0.7128 -0.0872  0.2508
 5122SOL    HW120486   2.011   4.982   1.522  1.2542  0.0650 -0.4392
 5122SOL    HW220487   2.005   4.918   1.385 -1.4936  1.7816 -1.1903
 5122SOL     MW20488   1.971   4.929   1.464  0.4997  0.1715 -0.0220
 5123SOL     OW20489   3.508   3.386   1.916 -0.3676 -0.0375 -0.2115
 5123SOL    HW120490   3.509   3.482   1.920 -0.0948 -0.0396 -0.1744
 5123SOL    HW220491   3.551   3.358   1.996 -0.9549 -0.2040  0.0496
 5123SOL     MW20492   3.514   3.395   1.927 -0.4078 -0.0591 -0.1733
 5124SOL     OW20493   2.120   5.401   3.005  0.1525 -0.3308  0.3947
 5124SOL    HW120494   2.114   5.453   2.924 -1.1796  0.6727  1.0918
 5124SOL    HW220495   2.159   5.460   3.069  0.3735 -0.8203  0.7201
 5124SOL     MW20496   2.124   5.415   3.003  0.0103 -0.2650  0.5256
 5125SOL     OW20497   0.433   3.869   3.957 -0.0718 -0.8103 -0.3720
 5125SOL    HW120498   0.400   3.940   4.012  0.6105 -1.4688  0.9269
 5125SOL    HW220499   0.467   3.913   3.879 -1.2737  0.1235 -0.3904
 5125SOL     MW20500   0.433   3.884   3.954 -0.1383 -0.7751 -0.2081
 5126SOL     OW20501   5.294   5.337   4.110  0.0399 -0.0654  0.3379
 5126SOL    HW120502   5.332   5.349   4.024  1.3397 -1.8766  0.6218
 5126SOL    HW220503   5.292   5.243   4.124 -1.6351  0.1029  1.6625
 5126SOL     MW20504   5.298   5.327   4.101 -0.0081 -0.2757  0.5438
 5127SOL     OW20505   0.360   4.409   3.169  0.2302 -0.1429 -0.1432
 5127SOL    HW120506   0.397   4.353   3.237 -0.2957 -2.4358 -1.6308
 5127SOL    HW220507   0.267   4.415   3.191  0.0616 -0.8782 -0.6426
 5127SOL     MW20508   0.353   4.403   3.181  0.1413 -0.5305 -0.3976
 5128SOL     OW20509   4.768   4.675   1.328  0.0439 -0.7124 -0.3975
 5128SOL    HW120510   4.856   4.659   1.361  0.0742  0.2707  0.0222
 5128SOL    HW220511   4.744   4.594   1.282  0.8041 -1.3211  0.2639
 5128SOL     MW20512   4.776   4.662   1.326  0.1451 -0.6644 -0.2591
 5129SOL     OW20513   2.107   2.550   1.645  0.2776  0.1858 -0.5577
 5129SOL    HW120514   2.125   2.602   1.567 -0.6612  1.3748 -0.0163
 5129SOL    HW220515   2.133   2.607   1.718  0.5578 -0.6621  0.0125
 5129SOL     MW20516   2.113   2.564   1.644  0.1933  0.2295 -0.4154
 5130SOL     OW20517   1.814   2.162   3.818  0.7004  0.1671 -0.2836
 5130SOL    HW120518   1.867   2.090   3.784  0.9857  0.3607 -0.2544
 5130SOL    HW220519   1.875   2.213   3.871  0.5629  0.5765 -0.5172
 5130SOL     MW20520   1.829   2.159   3.821  0.7193  0.2443 -0.3098
 5131SOL     OW20521   3.067   4.013   5.217  0.5431  0.1272  0.1990
 5131SOL    HW120522   3.033   4.081   5.157 -1.6289  0.8648  2.1087
 5131SOL    HW220523   3.142   4.054   5.259 -0.8028  1.5136  1.4115
 5131SOL     MW20524   3.072   4.027   5.214  0.0928  0.3991  0.5987
 5132SOL     OW20525   2.597   5.109   0.348  0.4892 -0.8750 -0.8234
 5132SOL    HW120526   2.545   5.156   0.413  1.1599 -0.4565 -0.5702
 5132SOL    HW220527   2.654   5.052   0.400  0.4288 -1.1692 -1.0805
 5132SOL     MW20528   2.598   5.108   0.363  0.5673 -0.8591 -0.8239
 5133SOL     OW20529   3.672   3.990   4.394 -0.2713  0.1919  0.0204
 5133SOL    HW120530   3.605   4.055   4.412 -0.7891 -1.0015  2.7923
 5133SOL    HW220531   3.626   3.920   4.347 -0.1483  0.8882 -1.1751
 5133SOL     MW20532   3.658   3.989   4.390 -0.3218  0.1282  0.2222
 5134SOL     OW20533   0.303   2.141   4.739 -0.6402  0.1931 -0.2686
 5134SOL    HW120534   0.368   2.131   4.670 -1.2547 -1.9462 -0.6134
 5134SOL    HW220535   0.224   2.172   4.694 -0.4802  0.7051 -0.1990
 5134SOL     MW20536   0.301   2.143   4.725 -0.6984 -0.0152 -0.3038
 5135SOL     OW20537   3.468   2.894   5.428  0.1535 -0.0384 -0.2198
 5135SOL    HW120538   3.408   2.842   5.481 -0.2731  1.6173  0.9870
 5135SOL    HW220539   3.499   2.833   5.361 -1.9270 -1.2748 -0.1459
 5135SOL     MW20540   3.464   2.880   5.426 -0.1675  0.0153 -0.0559
 5136SOL     OW20541   0.975   0.581   3.988 -0.0385 -0.0667 -0.3934
 5136SOL    HW120542   0.880   0.575   3.990 -0.0567 -0.0817 -1.0203
 5136SOL    HW220543   1.004   0.502   3.943  0.2029  0.4258 -1.1367
 5136SOL     MW20544   0.967   0.570   3.983 -0.0099 -0.0056 -0.5688
 5137SOL     OW20545   3.600   4.324   4.850 -0.3254  0.2651 -0.1536
 5137SOL    HW120546   3.504   4.332   4.844 -0.3561  0.5149  0.6599
 5137SOL    HW220547   3.616   4.230   4.843 -0.7640  0.0538  1.4197
 5137SOL     MW20548   3.590   4.313   4.848 -0.3854  0.2700  0.1520
 5138SOL     OW20549   0.971   0.229   4.850 -0.6761 -0.2420 -0.4013
 5138SOL    HW120550   0.913   0.223   4.774 -0.4767  1.0653 -0.6841
 5138SOL    HW220551   0.926   0.289   4.909 -0.5753 -0.8344  0.2818
 5138SOL     MW20552   0.958   0.236   4.847 -0.6377 -0.1505 -0.3500
 5139SOL     OW20553   3.754   5.389   1.027  0.1937  0.5211  0.1118
 5139SOL    HW120554   3.662   5.375   1.006  0.1786 -1.0038  1.0623
 5139SOL    HW220555   3.801   5.352   0.952  0.0580 -0.6534  0.5924
 5139SOL     MW20556   3.748   5.383   1.015  0.1744  0.1756  0.2950
 5140SOL     OW20557   2.631   4.734   1.592  0.3661  0.2281  0.0592
 5140SOL    HW120558   2.650   4.819   1.551  1.7423 -0.0839 -0.0097
 5140SOL    HW220559   2.695   4.729   1.664 -0.4179 -0.2902  0.7310
 5140SOL     MW20560   2.642   4.744   1.596  0.4419  0.1218  0.1364
 5141SOL     OW20561   3.794   1.644   1.712 -0.4998 -0.2726  0.9395
 5141SOL    HW120562   3.799   1.606   1.625  0.9772 -0.6855  1.1661
 5141SOL    HW220563   3.770   1.736   1.697 -0.8952 -0.5007  0.1526
 5141SOL     MW20564   3.792   1.651   1.699 -0.3613 -0.3546  0.8678
 5142SOL     OW20565   4.453   2.270   0.111  0.1337 -0.3344  0.0603
 5142SOL    HW120566   4.484   2.360   0.119 -0.8802  0.2407 -1.9212
 5142SOL    HW220567   4.512   2.219   0.167  2.3148  1.1823 -0.7464
 5142SOL     MW20568   4.464   2.275   0.119  0.2831 -0.0666 -0.2966
 5143SOL     OW20569   4.826   0.928   3.089  0.3057  0.5846  0.1632
 5143SOL    HW120570   4.778   0.846   3.093  1.9055 -0.3572  1.3548
 5143SOL    HW220571   4.828   0.960   3.179 -0.3979  2.0202 -0.2996
 5143SOL     MW20572   4.820   0.922   3.101  0.4204  0.6478  0.2565
 5144SOL     OW20573   5.411   1.691   0.520  0.0688 -0.1274 -0.7119
 5144SOL    HW120574   5.457   1.645   0.449  0.3595 -1.8136  0.4914
 5144SOL    HW220575   5.355   1.624   0.559 -0.8335  1.0258  0.0271
 5144SOL     MW20576   5.410   1.677   0.516 -0.0095 -0.1956 -0.4633
 5145SOL     OW20577   3.625   2.001   3.360 -0.1988 -0.0919  0.3322
 5145SOL    HW120578   3.686   2.065   3.321  0.2502 -0.6355  0.1279
 5145SOL    HW220579   3.668   1.974   3.441 -0.9505  0.7445  1.0321
 5145SOL     MW20580   3.639   2.006   3.365 -0.2375 -0.0544  0.3957
 5146SOL     OW20581   1.806   4.671   3.359  0.3434 -0.6380  0.9088
 5146SOL    HW120582   1.809   4.751   3.411  0.6630 -0.4729  0.6428
 5146SOL    HW220583   1.896   4.639   3.360  0.1847 -1.0789  1.1443
 5146SOL     MW20584   1.818   4.677   3.366  0.3640 -0.6733  0.9049
 5147SOL     OW20585   2.785   1.402   0.533  0.2138 -0.0019  0.1704
 5147SOL    HW120586   2.880   1.407   0.532  0.1467  1.5827  0.4327
 5147SOL    HW220587   2.758   1.445   0.452 -0.2831 -0.8663 -0.1416
 5147SOL     MW20588   2.793   1.408   0.522  0.1416  0.0903  0.1641
 5148SOL     OW20589   3.129   4.114   5.502  0.5166  0.2197 -0.4939
 5148SOL    HW120590   3.195   4.046   5.487  1.2959  0.8690 -0.0692
 5148SOL    HW220591   3.049   4.078   5.465  0.5581 -1.5785  1.0370
 5148SOL     MW20592   3.127   4.101   5.495  0.6217  0.0726 -0.2435
 5149SOL     OW20593   3.327   1.665   1.072 -0.2463 -0.2994  0.1334
 5149SOL    HW120594   3.236   1.651   1.047 -0.5817  0.0371  1.1208
 5149SOL    HW220595   3.322   1.728   1.145  0.7686 -0.3083  0.2185
 5149SOL     MW20596   3.315   1.672   1.078 -0.1593 -0.2575  0.2707
 5150SOL     OW20597   1.720   2.400   2.069 -0.3527 -0.3991 -0.3133
 5150SOL    HW120598   1.643   2.371   2.019  0.0111  0.5543 -1.4506
 5150SOL    HW220599   1.701   2.373   2.159 -0.7168 -2.7747 -1.0340
 5150SOL     MW20600   1.707   2.393   2.074 -0.3527 -0.5812 -0.5512
 5151SOL     OW20601   2.085   4.953   1.241  0.3114  0.3181  0.3177
 5151SOL    HW120602   2.064   5.038   1.202  3.0332  0.7183 -0.5046
 5151SOL    HW220603   2.054   4.889   1.177  0.3842  0.8060 -0.2214
 5151SOL     MW20604   2.078   4.956   1.228  0.6691  0.4318  0.1434
 5152SOL     OW20605   1.938   4.853   3.806  0.1141  0.1953  0.0917
 5152SOL    HW120606   1.889   4.908   3.867 -0.0816 -0.5562  0.6236
 5152SOL    HW220607   2.028   4.885   3.813 -0.0511  0.6704  0.1379
 5152SOL     MW20608   1.943   4.864   3.815  0.0679  0.1599  0.1657
 5153SOL     OW20609   4.935   3.255   1.198  0.6453 -0.5374 -0.1939
 5153SOL    HW120610   4.863   3.309   1.167 -0.7055 -2.5869 -0.8366
 5153SOL    HW220611   4.895   3.194   1.259  1.9219 -1.4336 -0.2195
 5153SOL     MW20612   4.921   3.254   1.202  0.6358 -0.9145 -0.2795
 5154SOL     OW20613   1.455   3.689   2.770 -0.3165 -0.5120  0.5011
 5154SOL    HW120614   1.398   3.766   2.765 -0.4167 -0.6349 -0.4410
 5154SOL    HW220615   1.544   3.724   2.760 -0.4673 -0.6751 -2.0261
 5154SOL     MW20616   1.459   3.703   2.768 -0.3486 -0.5486  0.0570
 5155SOL     OW20617   1.482   1.961   3.892  0.2210  0.5304 -0.0911
 5155SOL    HW120618   1.414   2.028   3.888 -0.0668  0.4337  2.1806
 5155SOL    HW220619   1.558   2.005   3.930  1.0045  0.2740 -1.2959
 5155SOL     MW20620   1.483   1.975   3.896  0.2845  0.4852  0.0455
 5156SOL     OW20621   1.150   1.144   2.589 -0.2728  0.2701  0.3388
 5156SOL    HW120622   1.060   1.127   2.617 -0.2458  1.7801  1.4459
 5156SOL    HW220623   1.201   1.075   2.631 -0.7139  0.3709  1.0629
 5156SOL     MW20624   1.145   1.133   2.598 -0.3258  0.4763  0.5732
 5157SOL     OW20625   0.402   3.381   5.010 -0.2573 -0.3682  0.1840
 5157SOL    HW120626   0.312   3.353   5.027 -0.1481 -1.3009 -0.6568
 5157SOL    HW220627   0.437   3.401   5.097 -0.9263 -1.1052  0.6467
 5157SOL     MW20628   0.395   3.380   5.024 -0.3290 -0.5820  0.1356
 5158SOL     OW20629   2.621   4.473   2.184 -0.1867 -0.1156  0.3262
 5158SOL    HW120630   2.559   4.456   2.255 -2.1508 -0.1586 -1.3185
 5158SOL    HW220631   2.655   4.387   2.161 -2.4049 -0.6547 -1.2173
 5158SOL     MW20632   2.617   4.460   2.190 -0.7221 -0.1901 -0.0819
 5159SOL     OW20633   2.054   1.172   3.467  0.0655  0.2196 -0.2998
 5159SOL    HW120634   2.141   1.198   3.438  0.2299 -1.4083 -1.3574
 5159SOL    HW220635   2.069   1.132   3.553  0.1513  1.1650  0.1424
 5159SOL     MW20636   2.067   1.170   3.474  0.0975  0.1322 -0.3785
 5160SOL     OW20637   4.308   1.703   4.924 -0.0600  0.2881  0.0720
 5160SOL    HW120638   4.260   1.765   4.979 -0.2431 -0.0133  0.2564
 5160SOL    HW220639   4.333   1.632   4.983 -2.3109 -1.2171 -0.6397
 5160SOL     MW20640   4.305   1.702   4.938 -0.3716  0.0568  0.0045
 5161SOL     OW20641   0.395   3.684   0.364 -0.4014 -0.4193  0.1897
 5161SOL    HW120642   0.424   3.736   0.289 -2.2697  2.7513  1.4907
 5161SOL    HW220643   0.473   3.676   0.419  0.2616 -0.2852 -0.6998
 5161SOL     MW20644   0.408   3.689   0.361 -0.5557  0.0037  0.2424
 5162SOL     OW20645   2.113   2.884   4.709 -0.5501  0.1451  0.7047
 5162SOL    HW120646   2.160   2.805   4.736  1.4149  0.1730 -2.1194
 5162SOL    HW220647   2.117   2.942   4.785  0.7039 -1.3162  1.8285
 5162SOL     MW20648   2.120   2.881   4.722 -0.1380 -0.0384  0.4870
 5163SOL     OW20649   3.842   2.151   4.413 -0.3655  0.1048 -0.4215
 5163SOL    HW120650   3.772   2.126   4.474 -1.2469  0.6773 -1.1757
 5163SOL    HW220651   3.813   2.116   4.329 -0.4573  1.5914 -1.0260
 5163SOL     MW20652   3.829   2.143   4.410 -0.4901  0.3684 -0.5954
 5164SOL     OW20653   5.317   5.402   0.984  0.0520 -0.2444 -0.2499
 5164SOL    HW120654   5.329   5.307   0.986 -2.2462 -0.6077 -0.6715
 5164SOL    HW220655   5.402   5.437   0.957  1.0307 -2.1401  0.2294
 5164SOL     MW20656   5.330   5.394   0.981 -0.1169 -0.5335 -0.2425
 5165SOL     OW20657   1.543   2.027   0.668  0.1267 -0.7759 -0.1437
 5165SOL    HW120658   1.513   2.068   0.587 -0.9728  3.0389  1.9472
 5165SOL    HW220659   1.462   2.001   0.713  0.6995 -2.4770 -0.0229
 5165SOL     MW20660   1.529   2.029   0.664  0.0593 -0.5053  0.1394
 5166SOL     OW20661   0.754   1.999   0.491 -0.1155  0.3282  0.2752
 5166SOL    HW120662   0.836   2.049   0.481  2.5956 -3.6190  0.6384
 5166SOL    HW220663   0.746   1.986   0.585 -2.2280  2.0752  0.4008
 5166SOL     MW20664   0.764   2.004   0.502 -0.0389  0.0465  0.3378
 5167SOL     OW20665   2.773   1.318   1.863 -0.2449  0.7346  0.0723
 5167SOL    HW120666   2.778   1.266   1.783  0.7907 -1.3932  1.4261
 5167SOL    HW220667   2.710   1.273   1.917  0.9618  0.6203  1.4435
 5167SOL     MW20668   2.766   1.306   1.859  0.0422  0.4476  0.4211
 5168SOL     OW20669   3.669   2.795   0.315  1.0887  0.3947 -0.2482
 5168SOL    HW120670   3.661   2.822   0.406  0.1552  1.2835 -0.5788
 5168SOL    HW220671   3.753   2.749   0.311  1.9377  1.7940  0.7120
 5168SOL     MW20672   3.679   2.793   0.326  1.0779  0.6876 -0.1676
 5169SOL     OW20673   0.215   2.365   1.241 -0.3931  0.0805  0.1859
 5169SOL    HW120674   0.261   2.282   1.228  0.1097  0.2064  1.1089
 5169SOL    HW220675   0.214   2.405   1.154 -0.6722 -0.8977 -0.2764
 5169SOL     MW20676   0.221   2.359   1.228 -0.3644 -0.0286  0.2449
 5170SOL     OW20677   0.263   2.457   2.836  0.0065  0.1443  0.0125
 5170SOL    HW120678   0.176   2.473   2.873  0.2900 -0.1359  0.8210
 5170SOL    HW220679   0.312   2.414   2.906  1.0169  0.9316 -0.1777
 5170SOL     MW20680   0.259   2.454   2.850  0.1722  0.2092  0.0917
 5171SOL     OW20681   0.179   3.245   2.888 -0.6052  0.3060  0.0892
 5171SOL    HW120682   0.241   3.263   2.959  0.4207  0.4421 -0.8166
 5171SOL    HW220683   0.196   3.313   2.823 -1.4755  0.1336 -0.3393
 5171SOL     MW20684   0.189   3.256   2.889 -0.5853  0.3014 -0.0816
 5172SOL     OW20685   4.241   5.226   1.667  0.1223 -0.3777  0.2724
 5172SOL    HW120686   4.262   5.134   1.686  1.3423  0.0611  1.1703
 5172SOL    HW220687   4.191   5.256   1.743  1.4015  0.2176  0.9114
 5172SOL     MW20688   4.237   5.218   1.679  0.4422 -0.2453  0.4692
 5173SOL     OW20689   3.529   1.134   0.160 -0.5197 -0.0303 -0.3024
 5173SOL    HW120690   3.608   1.105   0.206 -1.1475 -0.2297  0.6736
 5173SOL    HW220691   3.561   1.164   0.075  0.7760  1.0133  0.5083
 5173SOL     MW20692   3.543   1.134   0.155 -0.4342  0.0778 -0.0737
 5174SOL     OW20693   2.215   4.699   4.137  0.5525  0.1987  0.5013
 5174SOL    HW120694   2.234   4.719   4.229 -1.1407 -0.5562  1.0747
 5174SOL    HW220695   2.138   4.642   4.141  0.2908  0.3509 -1.4109
 5174SOL     MW20696   2.207   4.694   4.149  0.3022  0.1216  0.3299
 5175SOL     OW20697   0.657   3.272   4.624  0.5386  0.0597 -0.5398
 5175SOL    HW120698   0.643   3.177   4.625  0.9416 -0.0008 -0.1497
 5175SOL    HW220699   0.702   3.288   4.541  0.1558 -0.0392 -0.7702
 5175SOL     MW20700   0.661   3.262   4.613  0.5412  0.0393 -0.5194
 5176SOL     OW20701   2.796   2.941   5.423  0.5932  0.2115  0.2613
 5176SOL    HW120702   2.822   2.866   5.370 -0.9826  0.9948 -1.7163
 5176SOL    HW220703   2.835   3.017   5.379  1.3286  0.6980  1.6678
 5176SOL     MW20704   2.804   2.941   5.411  0.4856  0.3740  0.1882
 5177SOL     OW20705   4.315   0.553   2.993  0.0009 -0.1327  0.1145
 5177SOL    HW120706   4.385   0.594   3.044 -0.3209 -1.1148  1.3939
 5177SOL    HW220707   4.341   0.461   2.988 -1.0568 -0.4525  0.3627
 5177SOL     MW20708   4.327   0.546   2.999 -0.1757 -0.2994  0.3100
 5178SOL     OW20709   0.657   5.069   0.606  0.0520  0.2147  0.0143
 5178SOL    HW120710   0.577   5.053   0.656  0.2911  1.6497  0.9372
 5178SOL    HW220711   0.626   5.104   0.522 -0.3198  2.0765  0.8695
 5178SOL     MW20712   0.643   5.071   0.602  0.0350  0.6368  0.2419
 5179SOL     OW20713   0.798   0.186   4.614  0.2383  0.4181  1.2137
 5179SOL    HW120714   0.734   0.125   4.578  0.4472  1.2085 -0.5971
 5179SOL    HW220715   0.848   0.215   4.538  0.3472  2.5902  2.0597
 5179SOL     MW20716   0.796   0.182   4.600  0.2790  0.7974  1.0902
 5180SOL     OW20717   1.241   1.853   1.509  0.3891 -0.8012  0.3419
 5180SOL    HW120718   1.174   1.910   1.473  0.0587 -2.5501 -2.0272
 5180SOL    HW220719   1.223   1.851   1.603  0.3196  2.7465  0.5278
 5180SOL     MW20720   1.230   1.860   1.516  0.3379 -0.5710  0.0624
 5181SOL     OW20721   4.889   2.848   4.214 -0.0558 -0.6140 -0.6322
 5181SOL    HW120722   4.898   2.942   4.234  1.7192 -0.8661 -0.0532
 5181SOL    HW220723   4.834   2.814   4.285  0.3926 -0.2332 -0.0936
 5181SOL     MW20724   4.883   2.856   4.226  0.2288 -0.5975 -0.4891
 5182SOL     OW20725   3.341   0.119   4.685  0.1028  0.3931  0.1762
 5182SOL    HW120726   3.338   0.061   4.761  0.8613 -1.4581 -1.1223
 5182SOL    HW220727   3.435   0.137   4.673 -0.0610  1.1833  0.0401
 5182SOL     MW20728   3.353   0.113   4.693  0.1789  0.2573 -0.0075
 5183SOL     OW20729   4.198   4.696   0.493 -0.8107  0.4002  0.4918
 5183SOL    HW120730   4.209   4.611   0.451 -0.3555  0.4510  0.5100
 5183SOL    HW220731   4.218   4.681   0.585  1.1573  0.9226  0.1789
 5183SOL     MW20732   4.202   4.683   0.500 -0.5005  0.4736  0.4541
 5184SOL     OW20733   0.930   0.884   2.449 -0.0218  0.0265  0.3305
 5184SOL    HW120734   0.845   0.852   2.420 -0.5733  1.9795 -0.3627
 5184SOL    HW220735   0.989   0.809   2.439 -1.5853 -1.2836  0.5867
 5184SOL     MW20736   0.927   0.871   2.444 -0.2926  0.1088  0.2745
 5185SOL     OW20737   4.884   0.277   3.276 -0.0690 -0.0313 -0.7707
 5185SOL    HW120738   4.875   0.263   3.370 -0.2920 -0.6050 -0.8720
 5185SOL    HW220739   4.975   0.305   3.265  0.0942 -0.4118 -0.4319
 5185SOL     MW20740   4.894   0.278   3.287 -0.0766 -0.1534 -0.7403
 5186SOL     OW20741   0.086   1.702   3.238  0.5251 -0.1386 -0.8023
 5186SOL    HW120742   0.152   1.669   3.299 -0.9505 -0.4330  0.7154
 5186SOL    HW220743   0.125   1.781   3.201  1.2292  0.4401  1.0539
 5186SOL     MW20744   0.099   1.708   3.241  0.4263 -0.1022 -0.3704
 5187SOL     OW20745   1.811   5.377   3.202  0.9806  0.4633 -0.0481
 5187SOL    HW120746   1.768   5.312   3.257  1.5650  0.1623  0.0643
 5187SOL    HW220747   1.763   5.458   3.219 -0.5656 -0.1771 -1.1504
 5187SOL     MW20748   1.799   5.379   3.212  0.8575  0.3428 -0.1748
 5188SOL     OW20749   4.803   1.076   3.339 -0.5971  0.3987 -0.1819
 5188SOL    HW120750   4.761   1.035   3.415  1.4497  1.0528  1.4137
 5188SOL    HW220751   4.752   1.155   3.323 -1.1166  0.2098  0.4781
 5188SOL     MW20752   4.791   1.081   3.347 -0.4016  0.4583  0.1069
 5189SOL     OW20753   1.550   0.421   0.775 -0.0137  0.1505 -0.1334
 5189SOL    HW120754   1.631   0.459   0.739  1.6593 -0.4966  2.6584
 5189SOL    HW220755   1.580   0.355   0.837 -2.7803 -2.2327 -1.0891
 5189SOL     MW20756   1.564   0.418   0.778 -0.1537 -0.2374  0.1016
 5190SOL     OW20757   4.555   2.032   4.831 -0.6668 -0.0555 -0.6180
 5190SOL    HW120758   4.495   1.975   4.783 -2.4546  2.6512 -1.8224
 5190SOL    HW220759   4.610   2.072   4.763  0.8450 -0.5966  0.2398
 5190SOL     MW20760   4.555   2.030   4.816 -0.7022  0.2217 -0.6624
 5191SOL     OW20761   0.996   3.771   2.217 -0.2389  0.1364 -0.0321
 5191SOL    HW120762   0.929   3.711   2.250  1.6740 -1.8799  0.4280
 5191SOL    HW220763   0.990   3.764   2.122 -1.0028  0.4043 -0.0138
 5191SOL     MW20764   0.987   3.763   2.209 -0.0918 -0.0874  0.0292
 5192SOL     OW20765   4.401   4.665   4.178  0.6296  0.1088 -0.0354
 5192SOL    HW120766   4.345   4.591   4.201  0.9252 -0.0628  0.1508
 5192SOL    HW220767   4.343   4.741   4.176 -0.1845 -0.4736 -2.6789
 5192SOL     MW20768   4.387   4.665   4.181  0.5633  0.0123 -0.3500
 5193SOL     OW20769   2.081   3.849   4.252 -0.1907  0.4737  0.1621
 5193SOL    HW120770   2.100   3.943   4.257 -0.9056  0.6427 -0.1699
 5193SOL    HW220771   2.034   3.830   4.334 -0.8305  0.5992 -0.1699
 5193SOL     MW20772   2.077   3.859   4.263 -0.3641  0.5114  0.0771
 5194SOL     OW20773   4.434   3.692   1.777  0.3316  0.3680  0.0392
 5194SOL    HW120774   4.414   3.744   1.856  1.2671  1.3821 -0.3594
 5194SOL    HW220775   4.376   3.729   1.710  1.0804  1.0038 -0.2734
 5194SOL     MW20776   4.424   3.704   1.779  0.5472  0.5792 -0.0519
 5195SOL     OW20777   3.204   0.414   4.057  0.5131 -0.3261 -0.4441
 5195SOL    HW120778   3.144   0.361   4.005 -0.6156 -1.9678  2.3510
 5195SOL    HW220779   3.180   0.505   4.037 -1.0944 -0.9279 -1.3746
 5195SOL     MW20780   3.194   0.419   4.048  0.1629 -0.6133 -0.2054
 5196SOL     OW20781   5.360   1.120   5.167 -0.5041 -0.6086 -0.4506
 5196SOL    HW120782   5.419   1.125   5.242 -0.2733 -0.8646 -0.6117
 5196SOL    HW220783   5.415   1.144   5.092 -0.9626  0.5768 -0.4324
 5196SOL     MW20784   5.375   1.124   5.167 -0.5332 -0.4897 -0.4689
 5197SOL     OW20785   5.034   0.434   0.216 -0.6859 -0.4363  0.2420
 5197SOL    HW120786   4.992   0.384   0.285 -2.8752 -0.3819 -0.9585
 5197SOL    HW220787   5.111   0.473   0.257 -1.6652 -0.7777  2.5097
 5197SOL     MW20788   5.039   0.433   0.230 -1.0915 -0.4730  0.3786
 5198SOL     OW20789   0.540   3.158   3.939 -0.3980 -0.2414 -0.0817
 5198SOL    HW120790   0.481   3.119   4.003  0.7835 -1.1204  0.5325
 5198SOL    HW220791   0.513   3.122   3.855  0.3793 -2.1234  0.4159
 5198SOL     MW20792   0.529   3.148   3.937 -0.1472 -0.5949  0.0606
 5199SOL     OW20793   2.998   0.871   1.229 -0.1021  0.2733 -0.4137
 5199SOL    HW120794   3.069   0.927   1.200  0.5749 -0.2587  0.1781
 5199SOL    HW220795   2.989   0.805   1.159  0.7591 -0.3308  0.0261
 5199SOL     MW20796   3.006   0.869   1.216  0.0948  0.1279 -0.2816
 5200SOL     OW20797   1.459   2.970   2.372  0.3126  0.2274 -0.3589
 5200SOL    HW120798   1.514   3.014   2.436  2.3519  2.3628 -3.2796
 5200SOL    HW220799   1.382   3.027   2.362  0.6310  0.6028 -0.7101
 5200SOL     MW20800   1.456   2.983   2.379  0.6144  0.5488 -0.7778
 5201SOL     OW20801   2.791   2.062   5.082 -0.0238 -0.2539 -0.4146
 5201SOL    HW120802   2.880   2.032   5.100  0.5625  1.4880 -0.2626
 5201SOL    HW220803   2.788   2.151   5.116 -0.5753  1.2174 -3.9446
 5201SOL     MW20804   2.802   2.070   5.089 -0.0194  0.1574 -0.8470
 5202SOL     OW20805   2.697   3.342   0.893 -0.1300 -0.1541  0.8246
 5202SOL    HW120806   2.710   3.253   0.860  0.8773 -0.1588  1.1959
 5202SOL    HW220807   2.764   3.394   0.850 -1.6635  0.7681 -0.5612
 5202SOL     MW20808   2.707   3.337   0.884 -0.1974 -0.0367  0.6947
 5203SOL     OW20809   0.954   3.133   2.631 -0.6511 -0.0517  0.0544
 5203SOL    HW120810   0.873   3.145   2.581 -0.6522 -1.5132 -0.3676
 5203SOL    HW220811   0.992   3.220   2.637 -0.6141  0.2148 -2.5869
 5203SOL     MW20812   0.949   3.145   2.625 -0.6465 -0.2047 -0.3377
 5204SOL     OW20813   3.660   3.972   3.783  0.0196 -0.0170  0.9336
 5204SOL    HW120814   3.675   4.059   3.821 -0.6239  0.2923  0.5029
 5204SOL    HW220815   3.569   3.952   3.805 -0.9494  0.8829 -1.7395
 5204SOL     MW20816   3.650   3.981   3.790 -0.1868  0.1378  0.5363
 5205SOL     OW20817   2.201   1.607   3.107  0.3108 -0.6152  0.7519
 5205SOL    HW120818   2.218   1.523   3.064  1.1830  0.3159 -0.7896
 5205SOL    HW220819   2.156   1.659   3.041 -0.6054  0.0092  1.8333
 5205SOL     MW20820   2.197   1.602   3.093  0.3052 -0.4161  0.6930
 5206SOL     OW20821   0.744   4.805   0.515  0.0226 -0.5317 -0.1799
 5206SOL    HW120822   0.739   4.900   0.522 -0.6821 -0.3627 -2.3065
 5206SOL    HW220823   0.749   4.788   0.421  0.0152 -2.6124  0.1423
 5206SOL     MW20824   0.744   4.815   0.504 -0.0685 -0.7764 -0.4108
 5207SOL     OW20825   0.072   1.804   4.197 -0.1042  0.5751 -0.1860
 5207SOL    HW120826  -0.019   1.818   4.223  0.1076 -0.4367  1.2265
 5207SOL    HW220827   0.111   1.891   4.197 -0.8170  0.9027  0.2242
 5207SOL     MW20828   0.065   1.817   4.200 -0.1683  0.4875  0.0473
 5208SOL     OW20829   2.847   2.388   4.951 -0.3202 -0.6097 -0.1446
 5208SOL    HW120830   2.806   2.393   5.038  1.5157 -1.3783  0.8193
 5208SOL    HW220831   2.941   2.390   4.969  0.1394  1.6217 -2.3107
 5208SOL     MW20832   2.854   2.389   4.965 -0.0263 -0.4224 -0.2985
 5209SOL     OW20833   1.139   1.074   5.100 -0.5784  0.2052  0.0269
 5209SOL    HW120834   1.185   1.057   5.183 -2.3545 -1.2912  0.7820
 5209SOL    HW220835   1.053   1.106   5.126 -0.9640  0.2591 -1.2561
 5209SOL     MW20836   1.134   1.076   5.114 -0.8551  0.0206 -0.0407
 5210SOL     OW20837   3.139   4.863   4.406 -0.2362 -0.1706 -0.5755
 5210SOL    HW120838   3.143   4.943   4.355  0.3900 -0.0459 -0.3366
 5210SOL    HW220839   3.070   4.879   4.471 -0.9784 -0.3024 -1.3144
 5210SOL     MW20840   3.130   4.875   4.408 -0.2510 -0.1715 -0.6395
 5211SOL     OW20841   3.358   1.071   3.183 -0.0012  0.4369  0.2417
 5211SOL    HW120842   3.333   1.020   3.106 -0.2510 -0.2162  0.7463
 5211SOL    HW220843   3.355   1.162   3.153 -1.4664  0.2906 -0.1525
 5211SOL     MW20844   3.354   1.076   3.169 -0.2207  0.3346  0.2559
 5212SOL     OW20845   1.025   4.135   0.618 -0.2656 -0.7010  0.7626
 5212SOL    HW120846   1.109   4.177   0.598 -0.5654 -0.9895 -1.3731
 5212SOL    HW220847   0.972   4.204   0.657  0.4871 -0.1325  0.8048
 5212SOL     MW20848   1.029   4.149   0.621 -0.2076 -0.6652  0.4946
 5213SOL     OW20849   2.861   5.229   3.847 -0.1707  0.5392  0.0030
 5213SOL    HW120850   2.795   5.259   3.910 -1.2998 -0.9910 -0.3735
 5213SOL    HW220851   2.832   5.141   3.822  1.7783  0.0013 -0.5540
 5213SOL     MW20852   2.849   5.222   3.852 -0.0657  0.2745 -0.1165
 5214SOL     OW20853   0.364   2.265   0.182 -0.6912  0.0319  0.2997
 5214SOL    HW120854   0.346   2.358   0.166 -1.3845  0.0495  1.0784
 5214SOL    HW220855   0.399   2.232   0.099 -0.1029  1.0660  0.1184
 5214SOL     MW20856   0.366   2.273   0.169 -0.7046  0.1666  0.3762
 5215SOL     OW20857   3.900   3.750   3.501  0.1147 -0.3997  0.4266
 5215SOL    HW120858   3.978   3.708   3.536  0.7627  1.4808  1.3937
 5215SOL    HW220859   3.882   3.822   3.562  0.0506  1.7402 -1.9329
 5215SOL     MW20860   3.908   3.754   3.513  0.1895  0.1150  0.2484
 5216SOL     OW20861   1.782   0.558   3.804  0.2114  0.0131  0.0901
 5216SOL    HW120862   1.774   0.578   3.898 -1.5089 -0.6289  0.1250
 5216SOL    HW220863   1.700   0.591   3.766  1.0421  0.5801 -1.2586
 5216SOL     MW20864   1.770   0.565   3.811  0.0975  0.0035 -0.0781
 5217SOL     OW20865   4.446   2.530   0.961  0.0628 -0.1990 -0.3811
 5217SOL    HW120866   4.366   2.584   0.959  0.8708  1.0486 -2.5119
 5217SOL    HW220867   4.478   2.538   1.051 -1.2372  0.7362  0.0370
 5217SOL     MW20868   4.440   2.538   0.972 -0.0002  0.0805 -0.6004
 5218SOL     OW20869   3.482   0.774   5.256 -0.6686  0.1588  0.1007
 5218SOL    HW120870   3.389   0.762   5.273 -0.3738 -1.1690  0.9667
 5218SOL    HW220871   3.522   0.781   5.343  0.0945  0.2476 -0.2449
 5218SOL     MW20872   3.475   0.773   5.270 -0.5332  0.0002  0.1673
 5219SOL     OW20873   2.220   3.317   2.771  0.0223  0.7024  0.2550
 5219SOL    HW120874   2.131   3.301   2.802 -0.4703  0.7998 -1.0264
 5219SOL    HW220875   2.242   3.404   2.803 -0.1026  0.4441  1.0768
 5219SOL     MW20876   2.212   3.326   2.779 -0.0568  0.6818  0.1962
 5220SOL     OW20877   4.551   4.935   0.371  0.0174 -0.1365 -0.0949
 5220SOL    HW120878   4.613   4.891   0.314  0.1924  0.3729 -0.3082
 5220SOL    HW220879   4.465   4.911   0.337  0.1167 -0.0437 -0.4105
 5220SOL     MW20880   4.548   4.927   0.359  0.0525 -0.0594 -0.1626
 5221SOL     OW20881   0.413   2.595   3.625 -0.3582  0.4279  0.5925
 5221SOL    HW120882   0.345   2.528   3.625  0.6030 -0.5930  0.5300
 5221SOL    HW220883   0.372   2.672   3.662 -1.9448  0.2608 -0.7109
 5221SOL     MW20884   0.399   2.596   3.629 -0.4383  0.2758  0.4177
 5222SOL     OW20885   3.451   4.270   1.990  0.5252 -0.5594  0.2831
 5222SOL    HW120886   3.513   4.306   2.054  0.3589  0.2289  0.0051
 5222SOL    HW220887   3.406   4.200   2.038 -1.5674  1.7699  1.9841
 5222SOL     MW20888   3.454   4.266   2.005  0.2360 -0.1603  0.4653
 5223SOL     OW20889   5.334   2.037   4.248 -0.3581  1.1140 -0.4489
 5223SOL    HW120890   5.377   2.057   4.165  0.5667 -1.5288 -0.6809
 5223SOL    HW220891   5.265   1.975   4.224  0.7904 -0.7481  0.8813
 5223SOL     MW20892   5.330   2.032   4.234 -0.0927  0.5373 -0.3083
 5224SOL     OW20893   1.618   3.155   4.635  0.2783  0.0658 -0.0708
 5224SOL    HW120894   1.610   3.226   4.572  0.5722 -0.0333 -0.2222
 5224SOL    HW220895   1.665   3.086   4.588 -0.4172 -0.4131 -0.0765
 5224SOL     MW20896   1.623   3.155   4.621  0.2269 -0.0082 -0.0909
 5225SOL     OW20897   4.186   2.517   1.607  0.2832  0.3839 -0.1094
 5225SOL    HW120898   4.196   2.446   1.543  2.4183 -0.8002  1.4189
 5225SOL    HW220899   4.095   2.510   1.636 -0.1215 -0.3977 -1.4691
 5225SOL     MW20900   4.176   2.507   1.603  0.5047  0.1323 -0.0878
 5226SOL     OW20901   0.294   5.034   1.448 -0.6738 -0.2486 -0.0601
 5226SOL    HW120902   0.361   4.966   1.457  0.4719  0.5539 -2.0165
 5226SOL    HW220903   0.257   5.042   1.535  0.4925 -2.0204  0.6648
 5226SOL     MW20904   0.298   5.026   1.460 -0.3778 -0.3727 -0.2177
 5227SOL     OW20905   3.099   4.350   1.372  0.2451 -0.1545 -0.4422
 5227SOL    HW120906   3.035   4.421   1.379 -0.3442 -0.7884  1.2456
 5227SOL    HW220907   3.046   4.271   1.363  0.6948 -0.7872  1.8279
 5227SOL     MW20908   3.084   4.349   1.372  0.2272 -0.3167  0.0644
 5228SOL     OW20909   1.229   1.199   0.214  0.9696  0.5026 -0.1366
 5228SOL    HW120910   1.168   1.144   0.166  1.1973  0.9629 -0.9779
 5228SOL    HW220911   1.175   1.246   0.277  0.8323 -0.9934  0.9166
 5228SOL     MW20912   1.215   1.198   0.216  0.9811  0.3700 -0.1095
 5229SOL     OW20913   2.307   0.319   2.617 -0.5029  0.3929 -0.1659
 5229SOL    HW120914   2.395   0.287   2.597 -0.4585 -0.0112  0.6299
 5229SOL    HW220915   2.305   0.407   2.579 -0.0886  0.0437 -1.0148
 5229SOL     MW20916   2.318   0.326   2.610 -0.4442  0.2964 -0.1727
 5230SOL     OW20917   1.755   1.600   1.967 -0.5078  0.6672  0.2450
 5230SOL    HW120918   1.811   1.523   1.975 -1.1126  0.2123  0.2166
 5230SOL    HW220919   1.776   1.654   2.043  0.5286  0.8861 -0.1790
 5230SOL     MW20920   1.765   1.597   1.978 -0.4525  0.6370  0.1871
 5231SOL     OW20921   5.228   4.416   3.658 -0.2353  0.2139 -0.7752
 5231SOL    HW120922   5.256   4.440   3.746  2.0596 -4.3486  0.0694
 5231SOL    HW220923   5.133   4.419   3.661 -0.2088  0.2207  1.9010
 5231SOL     MW20924   5.220   4.419   3.669  0.0618 -0.3693 -0.3245
 5232SOL     OW20925   0.875   5.090   2.990 -0.6030 -0.4051 -0.0230
 5232SOL    HW120926   0.840   5.059   3.074  0.3657  0.8753  0.8846
 5232SOL    HW220927   0.820   5.165   2.967  0.4901  0.6118  0.5970
 5232SOL     MW20928   0.863   5.095   2.998 -0.3390 -0.1111  0.1726
 5233SOL     OW20929   1.421   1.138   0.438  0.0245 -0.2918  0.1423
 5233SOL    HW120930   1.386   1.172   0.356 -0.3105  0.4211  0.5706
 5233SOL    HW220931   1.496   1.085   0.412  0.0350  0.0806 -0.6146
 5233SOL     MW20932   1.426   1.136   0.424 -0.0170 -0.1528  0.1002
 5234SOL     OW20933   1.961   2.930   1.147  0.1641 -0.4344 -0.1997
 5234SOL    HW120934   1.980   2.990   1.075 -0.6406  1.6189  1.2410
 5234SOL    HW220935   1.932   2.849   1.103 -2.5655  1.4736 -2.2189
 5234SOL     MW20936   1.960   2.927   1.132 -0.2883  0.0727 -0.2738
 5235SOL     OW20937   1.470   0.559   3.081 -0.4115 -0.2389  0.0359
 5235SOL    HW120938   1.538   0.626   3.073  1.4668 -2.0922 -0.3885
 5235SOL    HW220939   1.501   0.502   3.152 -0.2778 -2.4200 -1.6672
 5235SOL     MW20940   1.483   0.560   3.089 -0.1539 -0.7553 -0.2364
 5236SOL     OW20941   3.807   5.501   0.022 -0.4325  0.6027  0.4447
 5236SOL    HW120942   3.896   5.486   0.054 -0.6992  0.8403  1.3334
 5236SOL    HW220943   3.784   5.420  -0.024  0.1933  0.4962  0.3096
 5236SOL     MW20944   3.816   5.489   0.020 -0.3865  0.6195  0.5411
 5237SOL     OW20945   4.374   4.142   1.283 -0.1234 -0.2991  0.4455
 5237SOL    HW120946   4.302   4.188   1.327  0.1418  1.5488 -0.9303
 5237SOL    HW220947   4.341   4.054   1.269 -1.8345  0.2862  0.5518
 5237SOL     MW20948   4.361   4.137   1.287 -0.3085  0.0124  0.2830
 5238SOL     OW20949   3.362   5.404   0.217 -0.3954 -0.2451 -0.2891
 5238SOL    HW120950   3.421   5.465   0.175  0.1326  0.0746  0.8794
 5238SOL    HW220951   3.378   5.321   0.173  0.3171  0.0254 -0.5555
 5238SOL     MW20952   3.371   5.401   0.206 -0.2366 -0.1696 -0.1736
 5239SOL     OW20953   1.498   1.067   0.696 -0.1401 -0.0650  0.1825
 5239SOL    HW120954   1.449   1.110   0.626  1.5166 -0.1340 -1.0691
 5239SOL    HW220955   1.585   1.107   0.692  0.8514 -2.1151  0.2692
 5239SOL     MW20956   1.503   1.078   0.687  0.1989 -0.3363  0.0334
 5240SOL     OW20957   2.577   1.962   2.472 -0.0374  0.2741 -0.2215
 5240SOL    HW120958   2.670   1.940   2.477 -0.0601  0.4214  1.7495
 5240SOL    HW220959   2.576   2.055   2.446  0.3595  0.2902 -0.1856
 5240SOL     MW20960   2.589   1.971   2.469  0.0105  0.2950  0.0354
 5241SOL     OW20961   4.390   1.541   3.600 -0.2427  0.0775  0.4433
 5241SOL    HW120962   4.454   1.555   3.530 -1.5932 -0.4727 -0.9660
 5241SOL    HW220963   4.308   1.576   3.564 -1.0255 -0.4573  1.6653
 5241SOL     MW20964   4.387   1.548   3.586 -0.5158 -0.0614  0.4193
 5242SOL     OW20965   1.607   3.546   4.842  0.0574  0.0895 -0.3478
 5242SOL    HW120966   1.633   3.636   4.820 -0.6751  0.3980  0.0132
 5242SOL    HW220967   1.546   3.522   4.772 -1.0101  0.4769  0.4332
 5242SOL     MW20968   1.603   3.554   4.830 -0.1730  0.1786 -0.2016
 5243SOL     OW20969   0.470   1.562   0.848 -0.0374 -0.4876 -0.6330
 5243SOL    HW120970   0.558   1.524   0.845  0.1799 -0.0855  0.4369
 5243SOL    HW220971   0.470   1.626   0.776  0.6796 -0.1998 -0.3846
 5243SOL     MW20972   0.482   1.565   0.838  0.0822 -0.3993 -0.4642
 5244SOL     OW20973   4.273   5.014   2.114  0.1155 -0.1744 -0.2842
 5244SOL    HW120974   4.179   5.000   2.100  0.0511  0.9418 -1.0844
 5244SOL    HW220975   4.280   5.105   2.141  0.8465 -0.6673  1.3065
 5244SOL     MW20976   4.262   5.024   2.116  0.2008 -0.0946 -0.1830
 5245SOL     OW20977   4.048   0.782   3.526  0.4062 -0.7008  0.7419
 5245SOL    HW120978   3.966   0.778   3.477  1.3214  1.8816 -1.2825
 5245SOL    HW220979   4.098   0.707   3.495 -0.4147 -1.1282  0.4257
 5245SOL     MW20980   4.044   0.772   3.516  0.4183 -0.4249  0.4423
 5246SOL     OW20981   1.608   4.678   4.374  0.0851 -0.6069  0.2982
 5246SOL    HW120982   1.516   4.660   4.356  0.5199 -1.4507 -1.2759
 5246SOL    HW220983   1.607   4.738   4.448 -1.7073 -0.9843  0.6195
 5246SOL     MW20984   1.596   4.683   4.381 -0.0887 -0.7632  0.1378
 5247SOL     OW20985   0.264   5.220   3.046 -0.0150 -0.1077  0.0021
 5247SOL    HW120986   0.259   5.316   3.046  2.8474  0.1483 -0.2348
 5247SOL    HW220987   0.236   5.194   3.134 -1.0967  0.9028 -0.0271
 5247SOL     MW20988   0.260   5.229   3.057  0.2129  0.0544 -0.0319
 5248SOL     OW20989   1.351   3.627   5.119 -0.3131  0.6405  0.1272
 5248SOL    HW120990   1.441   3.659   5.130  0.9023 -2.1033 -0.8760
 5248SOL    HW220991   1.326   3.597   5.206 -0.1465  1.1096  0.3423
 5248SOL     MW20992   1.360   3.627   5.131 -0.1362  0.3493  0.0263
 5249SOL     OW20993   1.858   1.718   0.466 -0.5296  0.0772  0.0879
 5249SOL    HW120994   1.809   1.685   0.541 -0.6954 -1.5744 -0.6857
 5249SOL    HW220995   1.811   1.683   0.390 -0.6255  2.0675 -0.8201
 5249SOL     MW20996   1.846   1.709   0.465 -0.5631  0.1206 -0.1273
 5250SOL     OW20997   5.054   2.743   1.322 -0.3121  0.0217  0.2765
 5250SOL    HW120998   5.097   2.709   1.244  1.9717  0.6823  1.1813
 5250SOL    HW220999   5.072   2.678   1.390  2.7534  2.0450  1.6292
 5250SOL     MW21000   5.062   2.730   1.321  0.3727  0.3652  0.5655
 5251SOL     OW21001   4.140   5.026   3.127  0.4050 -0.0386 -0.3854
 5251SOL    HW121002   4.112   5.117   3.129  0.6638  0.0358  0.0799
 5251SOL    HW221003   4.090   4.984   3.196  2.7113  0.4952  1.7438
 5251SOL     MW21004   4.130   5.032   3.136  0.7334  0.0393 -0.0533
 5252SOL     OW21005   4.439   2.955   4.588  0.5740  0.1046 -0.5235
 5252SOL    HW121006   4.446   2.922   4.677  1.3392 -1.2852 -1.0623
 5252SOL    HW221007   4.491   3.035   4.588 -0.3184  0.7075  0.5225
 5252SOL     MW21008   4.447   2.961   4.599  0.5577  0.0039 -0.4585
 5253SOL     OW21009   5.135   2.112   2.559 -0.5344  0.0395 -0.0475
 5253SOL    HW121010   5.205   2.076   2.614  0.1786 -1.1427 -1.6374
 5253SOL    HW221011   5.059   2.056   2.577 -0.1811 -0.6214 -0.5177
 5253SOL     MW21012   5.135   2.100   2.568 -0.3979 -0.1965 -0.3112
 5254SOL     OW21013   3.668   0.958   3.187 -0.1344 -0.3436  0.5097
 5254SOL    HW121014   3.618   0.999   3.116 -0.1841 -1.3228 -0.0392
 5254SOL    HW221015   3.639   0.867   3.187  0.1538 -0.4447  1.5421
 5254SOL     MW21016   3.658   0.951   3.178 -0.1039 -0.4819  0.5716
 5255SOL     OW21017   4.587   4.865   0.643 -0.3278 -0.0743 -0.3298
 5255SOL    HW121018   4.562   4.860   0.551 -0.9965 -2.5068 -0.0722
 5255SOL    HW221019   4.652   4.795   0.654  0.8092  1.0957  0.7611
 5255SOL     MW21020   4.592   4.856   0.633 -0.2678 -0.2359 -0.1572
 5256SOL     OW21021   4.657   4.964   0.995 -0.3195 -0.5116 -0.0644
 5256SOL    HW121022   4.634   4.874   0.972 -0.8539 -0.7067  1.1388
 5256SOL    HW221023   4.573   5.006   1.012 -0.1215  0.4284 -1.2834
 5256SOL     MW21024   4.643   4.958   0.994 -0.3626 -0.4163 -0.0664
 5257SOL     OW21025   5.056   3.150   1.589  0.3431  0.6088 -0.3713
 5257SOL    HW121026   5.101   3.232   1.569  1.6400 -0.5111 -2.3649
 5257SOL    HW221027   5.033   3.157   1.681 -0.4100  3.5735 -0.6806
 5257SOL     MW21028   5.059   3.161   1.598  0.4127  0.8450 -0.6661
 5258SOL     OW21029   3.607   4.720   3.986 -0.1551  0.5990 -0.4253
 5258SOL    HW121030   3.614   4.815   3.975  0.6739  0.5621 -0.3345
 5258SOL    HW221031   3.683   4.685   3.939  0.1185  0.0599  0.3878
 5258SOL     MW21032   3.618   4.728   3.979 -0.0140  0.5253 -0.3096
 5259SOL     OW21033   1.054   1.869   1.123 -0.2432  0.0079  0.2912
 5259SOL    HW121034   1.143   1.872   1.158 -0.1325  0.7680 -0.0400
 5259SOL    HW221035   1.057   1.801   1.056  0.2253  0.3786 -0.0711
 5259SOL     MW21036   1.065   1.861   1.119 -0.1691  0.1527  0.2024
 5260SOL     OW21037   2.650   1.828   1.495 -0.5425 -0.2855 -0.1976
 5260SOL    HW121038   2.595   1.751   1.483 -0.5315 -0.1905 -0.9577
 5260SOL    HW221039   2.708   1.828   1.418  1.3157 -1.0344  1.1478
 5260SOL     MW21040   2.651   1.818   1.483 -0.3032 -0.3692 -0.1227
 5261SOL     OW21041   4.841   0.705   4.396 -0.3242  0.3595 -0.6712
 5261SOL    HW121042   4.870   0.639   4.460 -0.1312 -0.1688 -1.2901
 5261SOL    HW221043   4.904   0.777   4.406  0.0653  0.0264 -0.6707
 5261SOL     MW21044   4.853   0.706   4.406 -0.2496  0.2492 -0.7504
 5262SOL     OW21045   2.052   3.136   0.644  0.3072 -0.2730  0.3298
 5262SOL    HW121046   2.141   3.156   0.673 -0.2072 -0.0648  1.8247
 5262SOL    HW221047   2.060   3.126   0.549  1.7115  0.9271  0.2845
 5262SOL     MW21048   2.064   3.137   0.635  0.4211 -0.0927  0.5154
 5263SOL     OW21049   3.128   4.531   3.164  0.1518 -0.7592 -0.1881
 5263SOL    HW121050   3.071   4.545   3.239  1.8859 -0.6044  1.1653
 5263SOL    HW221051   3.211   4.572   3.189  0.4756  0.2722 -2.6355
 5263SOL     MW21052   3.132   4.538   3.177  0.4152 -0.6074 -0.3281
 5264SOL     OW21053   4.940   3.115   4.248 -0.4246 -0.0829 -0.2603
 5264SOL    HW121054   5.018   3.139   4.199  0.0156 -0.8762  0.0322
 5264SOL    HW221055   4.914   3.195   4.294 -0.5815  0.5467 -1.4171
 5264SOL     MW21056   4.947   3.128   4.248 -0.3884 -0.1039 -0.3710
 5265SOL     OW21057   4.682   0.287   5.446 -0.1231 -0.2432 -0.0364
 5265SOL    HW121058   4.711   0.350   5.511 -2.0204  1.5521 -0.8081
 5265SOL    HW221059   4.590   0.270   5.468 -0.5789 -0.2009 -1.7405
 5265SOL     MW21060   4.674   0.293   5.457 -0.4243 -0.0080 -0.3534
 5266SOL     OW21061   4.280   3.195   0.185  0.5637  0.0672 -0.0035
 5266SOL    HW121062   4.312   3.180   0.273 -0.7323  0.1184  0.5034
 5266SOL    HW221063   4.230   3.277   0.191  0.8025  0.2939 -0.8830
 5266SOL     MW21064   4.277   3.204   0.197  0.4284  0.1028 -0.0512
 5267SOL     OW21065   2.357   0.768   1.669  0.5612  0.1653  0.0465
 5267SOL    HW121066   2.337   0.749   1.761  0.8601  0.9081  0.2727
 5267SOL    HW221067   2.355   0.864   1.664 -1.2300  0.1270 -1.1202
 5267SOL     MW21068   2.354   0.778   1.680  0.3701  0.2555 -0.0739
 5268SOL     OW21069   4.949   1.300   0.043 -0.1515 -0.1650  0.0025
 5268SOL    HW121070   4.959   1.333   0.132  0.8420  1.3919 -0.6493
 5268SOL    HW221071   5.009   1.353  -0.010  0.2228 -1.8993 -1.4020
 5268SOL     MW21072   4.958   1.311   0.047  0.0236 -0.1877 -0.2607
 5269SOL     OW21073   0.669   0.877   2.325  0.4346  0.2641 -0.3855
 5269SOL    HW121074   0.670   0.901   2.233  1.0041 -1.3515 -0.8226
 5269SOL    HW221075   0.576   0.865   2.345  0.2121  1.8106 -0.3982
 5269SOL     MW21076   0.657   0.879   2.316  0.4790  0.2553 -0.4431
 5270SOL     OW21077   3.900   5.268   4.828 -0.3239  1.0017 -0.1658
 5270SOL    HW121078   3.985   5.225   4.832 -0.7054  0.3067  0.9547
 5270SOL    HW221079   3.842   5.203   4.790 -0.1287  1.9248 -2.1712
 5270SOL     MW21080   3.904   5.254   4.824 -0.3477  1.0309 -0.2790
 5271SOL     OW21081   0.608   5.364   1.086 -0.0396 -0.3458 -0.4759
 5271SOL    HW121082   0.677   5.300   1.068  0.0572 -0.0591 -1.1543
 5271SOL    HW221083   0.529   5.311   1.096  0.1699 -0.6285 -0.2581
 5271SOL     MW21084   0.607   5.349   1.085 -0.0004 -0.3453 -0.5349
 5272SOL     OW21085   4.304   2.476   3.755 -0.2251  0.3917  0.2318
 5272SOL    HW121086   4.245   2.527   3.699 -0.0765  0.0114 -0.2745
 5272SOL    HW221087   4.313   2.392   3.711  1.3119  0.7055 -0.0975
 5272SOL     MW21088   4.297   2.472   3.742 -0.0094  0.3832  0.1248
 5273SOL     OW21089   4.550   2.430   4.726 -0.3023 -0.0801  0.4345
 5273SOL    HW121090   4.458   2.430   4.752 -0.3906  1.1290  0.1992
 5273SOL    HW221091   4.559   2.508   4.672  1.0901  0.4158  1.3290
 5273SOL     MW21092   4.539   2.440   4.723 -0.1354  0.1381  0.5189
 5274SOL     OW21093   3.195   3.901   2.278  0.1049 -0.2152  0.1012
 5274SOL    HW121094   3.244   3.983   2.281 -0.4261  0.1229 -0.1232
 5274SOL    HW221095   3.181   3.879   2.370  0.0689  0.0638  0.1655
 5274SOL     MW21096   3.199   3.909   2.290  0.0323 -0.1362  0.0807
 5275SOL     OW21097   2.622   3.892   5.262 -0.3673  0.0462 -0.1019
 5275SOL    HW121098   2.687   3.941   5.312  1.2892 -0.1976 -1.9043
 5275SOL    HW221099   2.647   3.800   5.275 -1.2924 -0.1383  0.4126
 5275SOL     MW21100   2.634   3.886   5.270 -0.2737 -0.0086 -0.2667
 5276SOL     OW21101   2.254   4.262   2.909  0.0776 -0.7235  0.3757
 5276SOL    HW121102   2.178   4.318   2.896  0.3107 -0.2726  0.8947
 5276SOL    HW221103   2.240   4.222   2.995 -0.8363 -2.6797 -0.6086
 5276SOL     MW21104   2.242   4.264   2.918 -0.0095 -0.9162  0.3162
 5277SOL     OW21105   1.109   2.120   4.746 -0.3253  0.8039  0.0716
 5277SOL    HW121106   1.083   2.144   4.835 -0.5937  1.4125 -0.1574
 5277SOL    HW221107   1.032   2.075   4.710 -0.1203  0.3199  0.2307
 5277SOL     MW21108   1.095   2.117   4.753 -0.3334  0.8198  0.0626
 5278SOL     OW21109   0.920   3.571   2.913  0.2992  0.1906  0.0807
 5278SOL    HW121110   1.007   3.534   2.929 -0.0564 -1.1014 -0.7725
 5278SOL    HW221111   0.909   3.565   2.818 -0.1408  1.7469  0.0071
 5278SOL     MW21112   0.930   3.565   2.903  0.1973  0.2244 -0.0380
 5279SOL     OW21113   3.398   0.543   1.877 -0.3660  0.0639 -0.6957
 5279SOL    HW121114   3.488   0.569   1.860 -0.0442 -0.2326  0.5122
 5279SOL    HW221115   3.391   0.454   1.843  0.2704 -0.5224  0.6595
 5279SOL     MW21116   3.409   0.535   1.870 -0.2433 -0.0491 -0.3676
 5280SOL     OW21117   0.283   3.071   1.822 -0.3177 -0.1179  0.5580
 5280SOL    HW121118   0.249   3.028   1.744 -1.0912  0.4477  0.5721
 5280SOL    HW221119   0.372   3.099   1.798 -0.6384  0.2535 -0.1962
 5280SOL     MW21120   0.290   3.069   1.809 -0.4578  0.0021  0.4633
 5281SOL     OW21121   0.509   5.002   2.711 -0.1016  0.1047  0.5532
 5281SOL    HW121122   0.576   5.043   2.656 -0.3782 -0.9732 -0.6387
 5281SOL    HW221123   0.556   4.973   2.788  0.9220 -1.0309 -0.4617
 5281SOL     MW21124   0.524   5.004   2.714 -0.0060 -0.1787  0.2707
 5282SOL     OW21125   4.850   3.964   1.858 -0.5024 -0.9379 -0.3663
 5282SOL    HW121126   4.819   3.885   1.902 -1.7512 -0.6949 -0.7525
 5282SOL    HW221127   4.806   4.036   1.904  0.8689 -0.4173  0.1973
 5282SOL     MW21128   4.840   3.963   1.870 -0.4868 -0.8402 -0.3436
 5283SOL     OW21129   1.091   1.300   1.017  0.0297 -0.1089  0.6671
 5283SOL    HW121130   1.005   1.326   1.050 -1.1689  2.1319 -3.6009
 5283SOL    HW221131   1.074   1.218   0.969  0.5017 -0.1715  0.6058
 5283SOL     MW21132   1.077   1.293   1.015 -0.0633  0.1699  0.1129
 5284SOL     OW21133   4.376   4.690   0.126 -0.4517 -0.0768  0.0906
 5284SOL    HW121134   4.377   4.754   0.055  1.0582 -0.0726  0.0790
 5284SOL    HW221135   4.463   4.649   0.123 -0.0478  0.4650  2.4182
 5284SOL     MW21136   4.388   4.693   0.116 -0.2067 -0.0069  0.3870
 5285SOL     OW21137   0.397   2.317   3.278 -0.0792  0.0196 -0.5723
 5285SOL    HW121138   0.408   2.246   3.342 -0.1964  0.1273 -0.4315
 5285SOL    HW221139   0.430   2.281   3.196 -2.3480 -1.0802 -1.0857
 5285SOL     MW21140   0.402   2.303   3.276 -0.3847 -0.1074 -0.6200
 5286SOL     OW21141   5.259   1.083   1.732 -0.6018  0.7811  0.1885
 5286SOL    HW121142   5.271   0.994   1.700  1.4656  1.3048 -0.6251
 5286SOL    HW221143   5.164   1.098   1.727 -0.8281 -0.8430 -1.0690
 5286SOL     MW21144   5.248   1.074   1.727 -0.3662  0.6402 -0.0766
 5287SOL     OW21145   1.998   5.298   0.263  0.2007 -0.6043 -0.2976
 5287SOL    HW121146   1.960   5.217   0.298 -0.9313  0.6533  1.5654
 5287SOL    HW221147   2.068   5.321   0.324  0.1703  0.0926 -0.5114
 5287SOL     MW21148   2.002   5.291   0.275  0.0519 -0.3541 -0.0865
 5288SOL     OW21149   4.892   2.004   2.597  0.5181  0.2325 -0.1103
 5288SOL    HW121150   4.881   1.942   2.669 -1.2222  1.0621  0.3997
 5288SOL    HW221151   4.871   1.953   2.518 -0.0151 -0.0557  0.2149
 5288SOL     MW21152   4.888   1.990   2.596  0.2270  0.3018 -0.0034
 5289SOL     OW21153   2.205   1.198   3.800 -0.2178  0.5340  0.0268
 5289SOL    HW121154   2.158   1.245   3.731 -0.7988 -1.6598 -1.1682
 5289SOL    HW221155   2.292   1.180   3.762  0.0939  0.8584  0.5721
 5289SOL     MW21156   2.210   1.202   3.786 -0.2522  0.2947 -0.0564
 5290SOL     OW21157   1.315   4.553   2.070 -0.2219 -0.6732  0.3922
 5290SOL    HW121158   1.402   4.527   2.102  0.9863  1.4458 -0.9642
 5290SOL    HW221159   1.297   4.491   1.999  1.2571  0.1960 -0.8113
 5290SOL     MW21160   1.324   4.541   2.065  0.1221 -0.2907  0.0645
 5291SOL     OW21161   4.756   2.129   2.143 -0.2869 -0.0598  0.3793
 5291SOL    HW121162   4.759   2.204   2.085  0.3036 -0.1477  0.2900
 5291SOL    HW221163   4.805   2.157   2.221 -0.5834 -0.1403  0.5960
 5291SOL     MW21164   4.763   2.142   2.146 -0.2493 -0.0813  0.3956
 5292SOL     OW21165   5.257   2.988   2.227  0.3798 -0.4601  0.0371
 5292SOL    HW121166   5.334   2.932   2.233 -0.7797 -1.9891  2.3557
 5292SOL    HW221167   5.266   3.050   2.299 -0.0905 -0.0206 -0.2713
 5292SOL     MW21168   5.268   2.989   2.237  0.1712 -0.5995  0.2944
 5293SOL     OW21169   0.260   1.832   5.230 -0.3508 -0.4945  0.0371
 5293SOL    HW121170   0.190   1.822   5.295 -2.2590 -0.9235 -1.9599
 5293SOL    HW221171   0.236   1.911   5.181  0.9046 -0.3130 -0.3169
 5293SOL     MW21172   0.248   1.841   5.232 -0.4344 -0.5262 -0.2639
 5294SOL     OW21173   4.506   2.017   3.779 -0.1418  0.2619  0.2639
 5294SOL    HW121174   4.531   1.936   3.823  1.1948 -1.0151 -2.6000
 5294SOL    HW221175   4.435   1.993   3.721  0.1611  1.1792 -0.5137
 5294SOL     MW21176   4.500   2.004   3.778  0.0681  0.2158 -0.2022
 5295SOL     OW21177   0.490   2.588   2.376 -0.0488  0.0826 -0.3104
 5295SOL    HW121178   0.424   2.520   2.390  0.5601 -0.4609 -0.0136
 5295SOL    HW221179   0.528   2.602   2.463 -0.3463  0.9883 -0.3227
 5295SOL     MW21180   0.486   2.581   2.389 -0.0089  0.1290 -0.2740
 5296SOL     OW21181   4.014   4.268   1.637 -0.4885  0.4734 -0.1568
 5296SOL    HW121182   4.037   4.351   1.594 -2.3505  0.7365 -0.7421
 5296SOL    HW221183   3.995   4.208   1.565 -0.5124 -0.0442  0.2750
 5296SOL     MW21184   4.014   4.271   1.623 -0.7299  0.4408 -0.1765
 5297SOL     OW21185   2.039   0.407   3.097  0.3584 -0.1664 -0.0583
 5297SOL    HW121186   2.000   0.486   3.135  0.4969 -1.1535  2.3256
 5297SOL    HW221187   2.132   0.427   3.091  0.3585 -0.0513  0.2988
 5297SOL     MW21188   2.046   0.419   3.101  0.3762 -0.2780  0.2925
 5298SOL     OW21189   2.663   4.209   5.238  0.3381 -0.1813 -0.0555
 5298SOL    HW121190   2.578   4.166   5.243 -0.1221  0.5113 -1.3909
 5298SOL    HW221191   2.644   4.297   5.205  1.3209  0.8711  1.9652
 5298SOL     MW21192   2.650   4.215   5.234  0.4050  0.0421  0.0322
 5299SOL     OW21193   4.799   1.943   5.181 -0.1911  0.2775  0.2502
 5299SOL    HW121194   4.814   1.910   5.270  1.0420  0.2835  0.0744
 5299SOL    HW221195   4.752   2.025   5.193 -1.1422 -0.3269  0.8220
 5299SOL     MW21196   4.795   1.949   5.194 -0.1550  0.2009  0.3009
 5300SOL     OW21197   3.927   4.799   4.076  0.1981 -0.2901  0.3100
 5300SOL    HW121198   3.897   4.753   4.154 -0.7944 -0.7795 -0.3320
 5300SOL    HW221199   3.976   4.734   4.026 -0.4169 -0.4119 -0.1548
 5300SOL     MW21200   3.929   4.785   4.079 -0.0077 -0.3684  0.1683
 5301SOL     OW21201   4.138   1.366   2.378 -0.5856  0.3502  0.3282
 5301SOL    HW121202   4.188   1.294   2.340 -0.4514  1.2854 -1.3828
 5301SOL    HW221203   4.167   1.444   2.330 -1.3556  1.4218  1.5143
 5301SOL     MW21204   4.148   1.367   2.367 -0.6670  0.6071  0.2610
 5302SOL     OW21205   1.477   4.180   4.908 -0.2904 -0.0480 -0.0940
 5302SOL    HW121206   1.407   4.240   4.884  0.3908  0.3984 -1.0130
 5302SOL    HW221207   1.441   4.129   4.981 -1.3060  0.6479 -0.0925
 5302SOL     MW21208   1.464   4.181   4.914 -0.3332  0.0982 -0.2114
 5303SOL     OW21209   4.065   1.085   1.782 -0.3130  0.4302  0.3191
 5303SOL    HW121210   4.093   1.112   1.695 -1.1466 -0.4681 -0.2526
 5303SOL    HW221211   4.125   1.129   1.842  2.2918 -1.3016 -0.8155
 5303SOL     MW21212   4.076   1.094   1.779 -0.0862  0.0936  0.1007
 5304SOL     OW21213   1.377   1.207   3.276 -0.0255 -0.0370  0.0132
 5304SOL    HW121214   1.470   1.221   3.257  0.2426  0.7581  1.6921
 5304SOL    HW221215   1.332   1.273   3.224  0.4584  0.3506  0.0719
 5304SOL     MW21216   1.383   1.218   3.267  0.0708  0.1144  0.2357
 5305SOL     OW21217   4.940   0.166   2.824  0.3454  0.7339  0.3483
 5305SOL    HW121218   4.851   0.163   2.858  0.9373 -1.2422  1.9489
 5305SOL    HW221219   4.955   0.258   2.804 -1.8166  1.2025  0.6529
 5305SOL     MW21220   4.931   0.177   2.826  0.1444  0.5409  0.5922
 5306SOL     OW21221   4.578   1.057   0.221  0.3926 -0.2056 -0.3897
 5306SOL    HW121222   4.622   0.973   0.232  0.4899 -0.0517  0.5111
 5306SOL    HW221223   4.496   1.035   0.176 -0.1180 -0.9659  0.8340
 5306SOL     MW21224   4.573   1.043   0.217  0.3397 -0.2832 -0.1177
 5307SOL     OW21225   4.203   1.796   4.029 -0.8121  0.3611 -0.4457
 5307SOL    HW121226   4.144   1.761   3.962  0.4966 -1.6427 -0.6531
 5307SOL    HW221227   4.272   1.730   4.036  0.0205  1.3764  1.6344
 5307SOL     MW21228   4.204   1.783   4.021 -0.5380  0.2346 -0.2060
 5308SOL     OW21229   3.161   1.599   5.115  0.1340 -0.0823  0.7241
 5308SOL    HW121230   3.085   1.556   5.153  1.2050 -0.2364  2.8030
 5308SOL    HW221231   3.128   1.683   5.084 -1.2520 -0.9178 -0.1807
 5308SOL     MW21232   3.147   1.604   5.116  0.0937 -0.2090  0.8744
 5309SOL     OW21233   0.199   2.908   3.139  0.6390  0.5272  0.4317
 5309SOL    HW121234   0.163   2.825   3.169 -0.6595  1.0890  0.5189
 5309SOL    HW221235   0.211   2.959   3.219  1.6252  0.3510  0.3971
 5309SOL     MW21236   0.196   2.904   3.153  0.5990  0.5766  0.4385
 5310SOL     OW21237   4.391   4.318   3.822  0.3715 -0.5374 -0.0589
 5310SOL    HW121238   4.480   4.283   3.823  0.4246 -0.4612 -0.9808
 5310SOL    HW221239   4.367   4.319   3.729 -1.0293 -1.6921  0.2491
 5310SOL     MW21240   4.399   4.314   3.810  0.1990 -0.6755 -0.1375
 5311SOL     OW21241   2.144   1.547   5.470 -0.1885 -0.4701  0.0500
 5311SOL    HW121242   2.179   1.465   5.505 -0.0607 -1.5819 -2.4480
 5311SOL    HW221243   2.050   1.531   5.461 -0.2181 -0.2234 -0.0968
 5311SOL     MW21244   2.137   1.534   5.473 -0.1759 -0.5808 -0.2885
 5312SOL     OW21245   2.277   4.200   0.045 -0.2722 -0.2897 -0.0243
 5312SOL    HW121246   2.307   4.127   0.100  0.2263  0.8397  1.2349
 5312SOL    HW221247   2.184   4.182   0.030  0.2914 -2.3686 -1.6581
 5312SOL     MW21248   2.269   4.188   0.050 -0.1362 -0.4113 -0.0723
 5313SOL     OW21249   3.863   1.479   3.137 -0.2491 -0.0481  0.2503
 5313SOL    HW121250   3.800   1.502   3.068 -0.0844 -0.0742  0.0875
 5313SOL    HW221251   3.809   1.453   3.211 -0.4646  1.5469  0.6969
 5313SOL     MW21252   3.848   1.479   3.137 -0.2556  0.1528  0.2867
 5314SOL     OW21253   3.576   0.185   0.758 -0.7398 -0.1877 -1.0538
 5314SOL    HW121254   3.596   0.216   0.847 -1.4895 -1.5849 -0.3784
 5314SOL    HW221255   3.651   0.214   0.706  0.4985 -0.7340  0.3503
 5314SOL     MW21256   3.588   0.193   0.763 -0.6772 -0.4365 -0.7876
 5315SOL     OW21257   1.470   2.394   3.287  0.6916  0.1935 -0.4662
 5315SOL    HW121258   1.501   2.473   3.331 -1.0067  0.3369  0.5390
 5315SOL    HW221259   1.441   2.337   3.358 -1.1277 -0.0004 -1.3322
 5315SOL     MW21260   1.471   2.397   3.301  0.2413  0.1870 -0.4484
 5316SOL     OW21261   4.338   1.385   5.469  0.3098  0.3388  0.0335
 5316SOL    HW121262   4.401   1.313   5.480  1.7781  1.7832  1.8124
 5316SOL    HW221263   4.386   1.450   5.417 -0.9016  0.2062 -1.3185
 5316SOL     MW21264   4.353   1.384   5.463  0.3427  0.5067  0.0882
 5317SOL     OW21265   2.544   2.707   0.254  0.2579  0.1167 -0.1898
 5317SOL    HW121266   2.560   2.759   0.333 -0.2914  0.4334 -0.2825
 5317SOL    HW221267   2.530   2.618   0.286  0.5278  0.1500  0.0270
 5317SOL     MW21268   2.544   2.702   0.268  0.2221  0.1615 -0.1739
 5318SOL     OW21269   0.233   3.276   4.462  0.0107  0.1058 -0.1766
 5318SOL    HW121270   0.311   3.323   4.432  1.1383 -1.3591  0.2715
 5318SOL    HW221271   0.202   3.230   4.384  1.1237 -1.2682  0.1283
 5318SOL     MW21272   0.239   3.276   4.448  0.2975 -0.2576 -0.0802
 5319SOL     OW21273   1.009   4.162   4.775 -0.8522  0.1863  0.1317
 5319SOL    HW121274   0.975   4.221   4.707 -1.1744 -2.2128 -1.9549
 5319SOL    HW221275   0.968   4.077   4.756  0.6919 -1.1038  2.0786
 5319SOL     MW21276   0.999   4.158   4.764 -0.6958 -0.2860  0.1139
 5320SOL     OW21277   3.413   4.780   0.723 -0.4112  0.0611  0.3968
 5320SOL    HW121278   3.400   4.809   0.633  2.2627  1.1349  0.2747
 5320SOL    HW221279   3.396   4.858   0.776 -0.8717 -0.2666  0.7393
 5320SOL     MW21280   3.409   4.794   0.718 -0.1278  0.1566  0.4250
 5321SOL     OW21281   0.783   3.351   4.394 -0.0689 -1.0245 -0.3377
 5321SOL    HW121282   0.816   3.437   4.421  0.1078 -0.4238 -2.2970
 5321SOL    HW221283   0.862   3.299   4.380 -0.1049 -0.9764 -0.7382
 5321SOL     MW21284   0.798   3.355   4.395 -0.0509 -0.9415 -0.6398
 5322SOL     OW21285   4.967   2.605   3.044 -0.0749  0.1894 -0.0087
 5322SOL    HW121286   4.968   2.681   3.103 -0.4414 -0.1490  0.4443
 5322SOL    HW221287   5.059   2.593   3.020  0.3083 -0.5197  1.6360
 5322SOL     MW21288   4.979   2.613   3.049 -0.0728  0.0553  0.2598
 5323SOL     OW21289   0.827   2.389   0.474  0.0188  0.0827 -0.4216
 5323SOL    HW121290   0.878   2.308   0.480  2.2877  1.2897 -2.1539
 5323SOL    HW221291   0.809   2.399   0.381 -0.5602  1.3913 -0.1895
 5323SOL     MW21292   0.831   2.380   0.463  0.2351  0.4047 -0.6136
 5324SOL     OW21293   5.509   4.101   3.904  0.1714  0.7289 -0.4873
 5324SOL    HW121294   5.464   4.185   3.901 -0.0297  0.6182 -0.5725
 5324SOL    HW221295   5.443   4.039   3.934  0.4065  0.6580 -0.1177
 5324SOL     MW21296   5.495   4.104   3.907  0.1757  0.7056 -0.4509
 5325SOL     OW21297   4.871   4.180   1.609 -0.2166 -0.1569  0.4821
 5325SOL    HW121298   4.805   4.179   1.680 -1.1916 -0.7054 -0.3983
 5325SOL    HW221299   4.895   4.272   1.600 -0.7028  0.0254  0.9681
 5325SOL     MW21300   4.865   4.191   1.617 -0.4037 -0.2038  0.4316
 5326SOL     OW21301   4.720   5.060   4.857  0.5815  0.4126  0.6793
 5326SOL    HW121302   4.735   5.126   4.924  3.5702  1.8869 -1.2750
 5326SOL    HW221303   4.757   4.979   4.894 -1.1411  0.2538  2.1957
 5326SOL     MW21304   4.726   5.058   4.870  0.7436  0.5810  0.6232
 5327SOL     OW21305   1.515   3.076   0.577 -0.4354 -0.3665 -0.0186
 5327SOL    HW121306   1.425   3.105   0.586 -0.4980 -0.9065  1.1874
 5327SOL    HW221307   1.547   3.065   0.666  0.1362 -2.3009 -0.4122
 5327SOL     MW21308   1.508   3.078   0.589 -0.3702 -0.6832  0.0854
 5328SOL     OW21309   1.567   1.415   0.543 -0.0224  0.3640 -0.2597
 5328SOL    HW121310   1.515   1.383   0.469 -1.3707  0.5494  0.5795
 5328SOL    HW221311   1.547   1.355   0.614  0.5061  0.7590  0.2253
 5328SOL     MW21312   1.558   1.404   0.542 -0.1274  0.4383 -0.0902
 5329SOL     OW21313   3.451   0.760   4.823 -0.1852 -0.5157 -0.0966
 5329SOL    HW121314   3.419   0.841   4.783 -1.6998 -1.5105 -1.0182
 5329SOL    HW221315   3.436   0.694   4.756  0.7427 -1.6253  0.7559
 5329SOL     MW21316   3.445   0.762   4.809 -0.2603 -0.7851 -0.1054
 5330SOL     OW21317   4.277   4.626   0.749 -0.6332 -0.1555  0.6393
 5330SOL    HW121318   4.295   4.663   0.836  0.9813 -0.8147  0.6163
 5330SOL    HW221319   4.354   4.574   0.729 -0.5444  0.7416 -1.6135
 5330SOL     MW21320   4.289   4.624   0.758 -0.4151 -0.1251  0.3480
 5331SOL     OW21321   0.533   4.811   0.803  0.3607 -0.0384 -0.4932
 5331SOL    HW121322   0.613   4.758   0.805 -0.5927 -1.6224  2.2899
 5331SOL    HW221323   0.465   4.749   0.777 -0.2127  0.9128 -1.2924
 5331SOL     MW21324   0.535   4.796   0.800  0.1652 -0.1194 -0.2393
 5332SOL     OW21325   5.420   2.766   3.423  0.8738 -0.6069  0.1589
 5332SOL    HW121326   5.392   2.710   3.496 -0.4160 -1.6146 -1.0569
 5332SOL    HW221327   5.469   2.837   3.465 -1.1668 -0.2764  2.1803
 5332SOL     MW21328   5.423   2.768   3.438  0.4474 -0.6936  0.2620
 5333SOL     OW21329   2.637   1.015   4.540  0.5969 -0.4099 -0.4652
 5333SOL    HW121330   2.680   0.997   4.623  1.8759 -2.1392 -1.4415
 5333SOL    HW221331   2.709   1.029   4.478 -0.3309  1.0599 -1.2523
 5333SOL     MW21332   2.652   1.014   4.543  0.6419 -0.4431 -0.6909
 5334SOL     OW21333   4.362   1.879   3.558 -0.3971 -0.0323  0.3547
 5334SOL    HW121334   4.281   1.828   3.556  0.2470 -1.3113  2.6936
 5334SOL    HW221335   4.427   1.818   3.593  1.7433  0.8109 -1.9327
 5334SOL     MW21336   4.360   1.865   3.563 -0.0407 -0.0881  0.3613
 5335SOL     OW21337   4.014   3.947   0.668  0.2445  0.1543 -0.1112
 5335SOL    HW121338   3.990   3.857   0.690 -1.3391  0.7931  0.9436
 5335SOL    HW221339   4.093   3.964   0.719  1.4433 -1.0663 -1.4435
 5335SOL     MW21340   4.021   3.937   0.677  0.1953  0.0798 -0.1467
 5336SOL     OW21341   2.935   2.149   5.396 -0.2895  0.4530 -0.4344
 5336SOL    HW121342   2.894   2.091   5.460  0.0309 -0.8358 -1.3415
 5336SOL    HW221343   3.029   2.139   5.412 -0.0657 -1.7328 -2.5443
 5336SOL     MW21344   2.942   2.140   5.406 -0.2198  0.0082 -0.8206
 5337SOL     OW21345   3.661   5.279   4.380 -0.1178 -0.4578 -0.2085
 5337SOL    HW121346   3.707   5.358   4.350  0.3901 -1.1625 -1.3566
 5337SOL    HW221347   3.646   5.294   4.473  2.7421 -0.3366  0.3254
 5337SOL     MW21348   3.665   5.291   4.388  0.3133 -0.5325 -0.2871
 5338SOL     OW21349   4.381   4.045   5.099  0.4715 -0.1721 -0.1411
 5338SOL    HW121350   4.310   3.982   5.091  0.7309 -0.3671 -0.9613
 5338SOL    HW221351   4.457   3.992   5.122  0.4133  0.0039  0.4690
 5338SOL     MW21352   4.382   4.030   5.101  0.4973 -0.1745 -0.1680
 5339SOL     OW21353   1.931   1.458   4.905  0.3280 -0.4339  0.0677
 5339SOL    HW121354   1.956   1.366   4.918  1.2995 -0.2582 -0.5094
 5339SOL    HW221355   1.996   1.508   4.954  2.4522  0.1186 -3.0632
 5339SOL     MW21356   1.942   1.453   4.913  0.7243 -0.3407 -0.4070
 5340SOL     OW21357   4.884   0.954   2.154 -0.2466  0.2040 -0.5618
 5340SOL    HW121358   4.835   0.986   2.230 -1.0356 -0.6024 -0.7028
 5340SOL    HW221359   4.835   0.876   2.125  0.8293 -0.3189 -1.0442
 5340SOL     MW21360   4.871   0.948   2.160 -0.2099  0.0338 -0.6416
 5341SOL     OW21361   3.169   0.505   0.473 -0.2701 -0.0962 -0.2766
 5341SOL    HW121362   3.178   0.435   0.409 -2.9893 -0.4447 -0.3923
 5341SOL    HW221363   3.184   0.585   0.423 -0.0678 -0.4593 -0.8055
 5341SOL     MW21364   3.172   0.506   0.459 -0.5923 -0.1873 -0.3591
 5342SOL     OW21365   4.536   2.767   4.109 -1.0055 -0.2352  0.1065
 5342SOL    HW121366   4.522   2.725   4.024  2.0272 -1.0756 -0.0793
 5342SOL    HW221367   4.552   2.859   4.088 -0.3335 -0.4264 -0.2369
 5342SOL     MW21368   4.536   2.774   4.095 -0.5313 -0.3673  0.0388
 5343SOL     OW21369   1.961   0.705   4.485 -0.4286  0.3201 -0.4335
 5343SOL    HW121370   1.957   0.706   4.581 -0.1694 -2.0448 -0.3348
 5343SOL    HW221371   1.871   0.723   4.457 -0.7328 -0.0251  0.2933
 5343SOL     MW21372   1.949   0.707   4.494 -0.4343 -0.0268 -0.3278
 5344SOL     OW21373   2.991   0.860   0.876  0.1969  0.2807  0.0774
 5344SOL    HW121374   3.001   0.793   0.808 -0.0140  1.3159 -0.9966
 5344SOL    HW221375   2.898   0.857   0.898 -0.1690  1.3519 -1.1996
 5344SOL     MW21376   2.980   0.851   0.870  0.1231  0.5504 -0.2236
 5345SOL     OW21377   2.513   0.223   3.026  0.2767  0.4772 -0.0488
 5345SOL    HW121378   2.424   0.252   3.007 -0.3700 -1.2192  0.1974
 5345SOL    HW221379   2.515   0.213   3.122  0.4202 -0.3647 -0.1297
 5345SOL     MW21380   2.502   0.225   3.036  0.2123  0.1523 -0.0277
 5346SOL     OW21381   1.766   3.184   1.133 -0.0151  0.1103 -0.4394
 5346SOL    HW121382   1.813   3.108   1.099  0.2286  0.5032 -0.9853
 5346SOL    HW221383   1.734   3.230   1.055 -2.7930 -1.0397 -0.1130
 5346SOL     MW21384   1.768   3.180   1.119 -0.3395  0.0134 -0.4675
 5347SOL     OW21385   3.962   4.340   2.746 -0.1922 -0.3982 -0.5637
 5347SOL    HW121386   3.928   4.423   2.716  0.9362 -0.1278 -1.1479
 5347SOL    HW221387   3.925   4.275   2.687 -1.2510 -0.3575  0.0296
 5347SOL     MW21388   3.953   4.342   2.735 -0.1833 -0.3584 -0.5625
 5348SOL     OW21389   1.391   3.726   5.426  0.1272  0.5816  0.5423
 5348SOL    HW121390   1.359   3.654   5.481 -2.1522  1.4505  0.4579
 5348SOL    HW221391   1.479   3.698   5.400 -0.6835 -2.2306  0.4126
 5348SOL     MW21392   1.399   3.713   5.430 -0.2684  0.3328  0.5149
 5349SOL     OW21393   3.005   4.238   3.331 -0.0145  0.0892 -0.0022
 5349SOL    HW121394   3.086   4.280   3.301  0.5788  0.4634  1.9796
 5349SOL    HW221395   2.952   4.311   3.364 -0.7224 -0.2705 -0.3403
 5349SOL     MW21396   3.009   4.253   3.331 -0.0292  0.0911  0.2082
 5350SOL     OW21397   0.104   1.679   0.785 -0.6301 -0.6437 -0.2910
 5350SOL    HW121398   0.075   1.709   0.698 -0.1370  1.4729  0.2048
 5350SOL    HW221399   0.044   1.721   0.846 -0.8090 -1.9102  0.4156
 5350SOL     MW21400   0.093   1.688   0.781 -0.5899 -0.5348 -0.1371
 5351SOL     OW21401   0.857   1.574   5.400 -0.2736 -0.2634 -0.3240
 5351SOL    HW121402   0.915   1.629   5.348  0.7421 -1.2508 -0.2549
 5351SOL    HW221403   0.769   1.593   5.365 -0.1607  2.3781  0.5922
 5351SOL     MW21404   0.853   1.583   5.389 -0.1291 -0.0517 -0.1979
 5352SOL     OW21405   5.342   3.705   3.872  0.0924  0.3902 -0.6669
 5352SOL    HW121406   5.256   3.695   3.831  0.1248 -1.9341 -0.2660
 5352SOL    HW221407   5.347   3.635   3.936  1.5396  1.6927  0.7329
 5352SOL     MW21408   5.332   3.695   3.875  0.2818  0.2594 -0.4364
 5353SOL     OW21409   4.289   3.282   3.647  0.5039  0.1820  0.5638
 5353SOL    HW121410   4.330   3.317   3.726  1.6984  0.9218 -0.3580
 5353SOL    HW221411   4.202   3.323   3.646  0.6430  0.5161  1.2467
 5353SOL     MW21412   4.283   3.292   3.657  0.6746  0.3195  0.5332
 5354SOL     OW21413   4.078   2.373   1.208  0.4020  0.0971 -0.2229
 5354SOL    HW121414   4.104   2.464   1.191 -1.3943  0.4807 -1.2278
 5354SOL    HW221415   3.991   2.381   1.248  0.7044 -1.1647  0.7545
 5354SOL     MW21416   4.070   2.386   1.211  0.2108 -0.0153 -0.2264
 5355SOL     OW21417   2.929   4.949   3.512 -0.0978 -0.7023  0.0097
 5355SOL    HW121418   2.885   4.949   3.597  2.1400  1.2469  1.2919
 5355SOL    HW221419   3.015   4.909   3.529  1.7190  2.6534 -0.3936
 5355SOL     MW21420   2.935   4.944   3.525  0.4212 -0.0232  0.1222
 5356SOL     OW21421   0.105   0.537   4.163 -0.1275 -0.2020 -1.1410
 5356SOL    HW121422   0.021   0.537   4.118 -2.1676 -0.0206  2.2770
 5356SOL    HW221423   0.101   0.613   4.222  1.8773 -0.9332  0.0541
 5356SOL     MW21424   0.094   0.547   4.165 -0.1320 -0.2724 -0.5505
 5357SOL     OW21425   0.890   1.923   2.037  0.2435  1.0072 -0.2718
 5357SOL    HW121426   0.858   1.980   2.106  1.1690 -0.3967  1.3932
 5357SOL    HW221427   0.820   1.859   2.023  0.9452 -0.0904  1.0445
 5357SOL     MW21428   0.877   1.922   2.044  0.4518  0.6870  0.1098
 5358SOL     OW21429   0.409   0.082   4.489 -0.5615  0.1335 -0.5795
 5358SOL    HW121430   0.488   0.047   4.447  0.3846  0.6880  0.6669
 5358SOL    HW221431   0.436   0.099   4.579 -2.0039  0.7248 -0.2420
 5358SOL     MW21432   0.423   0.080   4.495 -0.6250  0.2802 -0.3768
 5359SOL     OW21433   1.190   2.582   1.841 -0.3865  0.6226 -0.2099
 5359SOL    HW121434   1.153   2.578   1.929 -1.0365  0.8295 -0.4607
 5359SOL    HW221435   1.271   2.532   1.846  1.1657  3.1197  1.2582
 5359SOL     MW21436   1.196   2.575   1.853 -0.2710  0.9687 -0.0541
 5360SOL     OW21437   3.496   1.066   1.915  0.0611 -0.0158  0.3441
 5360SOL    HW121438   3.487   0.972   1.928  1.1874 -0.2673 -0.5015
 5360SOL    HW221439   3.590   1.079   1.901 -0.2462  1.0420 -0.9037
 5360SOL     MW21440   3.507   1.056   1.915  0.1659  0.0874  0.0761
 5361SOL     OW21441   2.982   4.112   0.235  0.3291  0.5502 -0.1523
 5361SOL    HW121442   3.019   4.111   0.146  0.3058 -0.4203 -0.1661
 5361SOL    HW221443   2.971   4.204   0.255  2.9004  0.9221 -0.1068
 5361SOL     MW21444   2.985   4.123   0.226  0.6552  0.4736 -0.1483
 5362SOL     OW21445   2.344   4.907   5.110  0.2584 -0.6544 -0.0946
 5362SOL    HW121446   2.312   4.990   5.074 -2.6333 -2.0984 -1.1971
 5362SOL    HW221447   2.361   4.853   5.033  0.3407 -1.6545  0.6095
 5362SOL     MW21448   2.342   4.911   5.095 -0.1012 -0.9673 -0.1456
 5363SOL     OW21449   4.764   4.299   2.540 -0.5357  0.0306 -0.3959
 5363SOL    HW121450   4.701   4.253   2.485 -0.1518 -0.2111 -0.6336
 5363SOL    HW221451   4.839   4.240   2.545  0.3453  1.0251 -1.4778
 5363SOL     MW21452   4.765   4.286   2.534 -0.3737  0.1269 -0.5649
 5364SOL     OW21453   1.798   2.094   2.772 -0.5519 -0.6747  0.7883
 5364SOL    HW121454   1.868   2.050   2.723 -1.0951 -0.1055 -0.5207
 5364SOL    HW221455   1.761   2.025   2.828  0.6272 -1.1283  1.0414
 5364SOL     MW21456   1.802   2.079   2.773 -0.4705 -0.6599  0.6531
 5365SOL     OW21457   3.702   4.824   3.467  0.0737  0.2347 -0.1725
 5365SOL    HW121458   3.614   4.804   3.500 -0.0837  1.8816  0.4790
 5365SOL    HW221459   3.720   4.754   3.404 -2.0747  0.3672 -1.0189
 5365SOL     MW21460   3.693   4.812   3.463 -0.2215  0.4625 -0.1975
 5366SOL     OW21461   0.908   1.086   1.297 -0.0569 -0.3866 -0.1172
 5366SOL    HW121462   0.867   1.154   1.244 -0.0314 -0.8282 -0.7147
 5366SOL    HW221463   0.842   1.017   1.303 -0.0391 -0.3688  0.3876
 5366SOL     MW21464   0.895   1.086   1.291 -0.0513 -0.4409 -0.1291
 5367SOL     OW21465   5.349   5.420   2.395 -0.1345  0.0794 -0.0135
 5367SOL    HW121466   5.381   5.333   2.371 -1.0306 -0.5569  0.9810
 5367SOL    HW221467   5.408   5.481   2.350  1.5179 -1.0377  0.5402
 5367SOL     MW21468   5.361   5.417   2.386 -0.0377 -0.1450  0.1847
 5368SOL     OW21469   4.757   1.478   0.349  0.1974 -0.1646  0.2230
 5368SOL    HW121470   4.678   1.487   0.295 -1.5694  2.0967  2.8935
 5368SOL    HW221471   4.777   1.385   0.346 -1.7114 -0.6050 -1.7150
 5368SOL     MW21472   4.749   1.467   0.342 -0.2731  0.0685  0.3168
 5369SOL     OW21473   1.544   1.782   2.043  0.4674 -0.4149 -0.0902
 5369SOL    HW121474   1.539   1.754   2.134 -0.2037 -0.4713 -0.1379
 5369SOL    HW221475   1.608   1.722   2.003  1.2740  0.0496  0.4920
 5369SOL     MW21476   1.551   1.770   2.049  0.4848 -0.3626 -0.0218
 5370SOL     OW21477   4.493   5.466   2.782  0.2313 -0.2475 -0.6846
 5370SOL    HW121478   4.460   5.467   2.692 -0.1158  0.9436 -0.5727
 5370SOL    HW221479   4.530   5.379   2.794 -0.6086 -0.7585 -1.6588
 5370SOL     MW21480   4.493   5.455   2.772  0.0794 -0.1604 -0.7950
 5371SOL     OW21481   2.687   5.122   3.284 -0.0907  0.3007 -0.3498
 5371SOL    HW121482   2.726   5.070   3.214 -0.0615 -0.6340  0.3466
 5371SOL    HW221483   2.597   5.089   3.292 -0.1973  0.6265 -0.1611
 5371SOL     MW21484   2.680   5.111   3.276 -0.1006  0.2228 -0.2365
 5372SOL     OW21485   2.111   3.679   2.698 -0.1541  0.6363  0.3667
 5372SOL    HW121486   2.187   3.719   2.656 -0.0438 -0.4573 -0.5345
 5372SOL    HW221487   2.097   3.598   2.649 -2.3548  1.1598  0.0388
 5372SOL     MW21488   2.119   3.674   2.686 -0.4217  0.5633  0.2093
 5373SOL     OW21489   2.188   4.059   5.002 -0.2408 -0.9985 -0.1902
 5373SOL    HW121490   2.211   4.093   4.915  1.4653  0.6425  0.8275
 5373SOL    HW221491   2.219   3.968   5.001  0.3617 -0.8000 -1.0870
 5373SOL     MW21492   2.195   4.052   4.991  0.0547 -0.7630 -0.1747
 5374SOL     OW21493   4.289   2.907   5.072  0.2341 -0.0060 -0.4357
 5374SOL    HW121494   4.251   2.852   5.140 -1.5694 -2.0765 -2.9123
 5374SOL    HW221495   4.220   2.969   5.050  0.5435  0.1892 -0.8668
 5374SOL     MW21496   4.275   2.908   5.078  0.0428 -0.2461 -0.8079
 5375SOL     OW21497   2.100   3.901   1.267  0.1251  0.1756 -0.1397
 5375SOL    HW121498   2.191   3.911   1.295 -0.6946  0.5879  2.7621
 5375SOL    HW221499   2.089   3.966   1.198  1.6917  1.0833  0.4034
 5375SOL     MW21500   2.111   3.911   1.262  0.2207  0.3445  0.3013
 5376SOL     OW21501   2.078   4.338   4.971  0.2328  0.4929 -0.4706
 5376SOL    HW121502   2.132   4.308   5.045 -0.5070  1.3317  0.4451
 5376SOL    HW221503   2.062   4.431   4.990 -2.2222  0.0691 -0.2476
 5376SOL     MW21504   2.083   4.346   4.983 -0.1762  0.5460 -0.3249
 5377SOL     OW21505   3.318   3.922   5.054 -0.4039 -0.1097  0.2079
 5377SOL    HW121506   3.223   3.917   5.045 -0.4097  0.7067 -0.2454
 5377SOL    HW221507   3.335   4.008   5.091  0.1352 -0.4214  0.7062
 5377SOL     MW21508   3.308   3.932   5.057 -0.3356 -0.0451  0.2137
 5378SOL     OW21509   2.029   0.919   3.286 -0.3674  0.1745 -0.2478
 5378SOL    HW121510   1.948   0.950   3.325  0.1005  1.5526 -0.3050
 5378SOL    HW221511   2.095   0.930   3.354 -0.1105 -0.3801 -0.3955
 5378SOL     MW21512   2.027   0.924   3.299 -0.2746  0.2799 -0.2740
 5379SOL     OW21513   2.421   5.012   1.747  0.0741  0.5041 -0.1395
 5379SOL    HW121514   2.480   5.009   1.672  0.7223  1.3571  0.3148
 5379SOL    HW221515   2.473   4.976   1.820  0.1072  1.4195  0.3007
 5379SOL     MW21516   2.436   5.007   1.747  0.1613  0.7305 -0.0250
 5380SOL     OW21517   2.911   2.554   2.118 -0.0423 -0.4587 -0.0125
 5380SOL    HW121518   2.898   2.460   2.106 -1.7356 -0.2401 -0.2114
 5380SOL    HW221519   2.831   2.583   2.161 -0.4140  1.1929 -1.7012
 5380SOL     MW21520   2.899   2.546   2.122 -0.3067 -0.2193 -0.2542
 5381SOL     OW21521   0.380   3.440   3.812  0.3458  0.0708 -0.0980
 5381SOL    HW121522   0.457   3.425   3.866  0.3250 -0.2850 -0.1632
 5381SOL    HW221523   0.382   3.533   3.791 -0.8503  0.7410  2.3750
 5381SOL     MW21524   0.390   3.450   3.816  0.1900  0.1111  0.2103
 5382SOL     OW21525   1.399   1.863   5.243  0.1520  0.4205  0.0851
 5382SOL    HW121526   1.464   1.932   5.228  1.7435 -0.9440  0.4727
 5382SOL    HW221527   1.317   1.911   5.258  0.6683  2.1476 -2.0659
 5382SOL     MW21528   1.397   1.878   5.243  0.4218  0.4669 -0.1407
 5383SOL     OW21529   2.343   4.383   4.426  0.0861  0.8893 -0.2124
 5383SOL    HW121530   2.364   4.473   4.450  1.6633  0.8746 -1.3789
 5383SOL    HW221531   2.274   4.357   4.488  0.2803  2.5611  0.7641
 5383SOL     MW21532   2.337   4.391   4.437  0.3128  1.1015 -0.2368
 5384SOL     OW21533   3.797   3.888   1.294  0.4337 -0.3644  0.3460
 5384SOL    HW121534   3.744   3.849   1.225  1.3646  0.3504 -0.8143
 5384SOL    HW221535   3.879   3.838   1.293  1.2269  0.9053 -0.4419
 5384SOL     MW21536   3.801   3.876   1.285  0.6544 -0.1104  0.0966
 5385SOL     OW21537   5.179   1.030   3.023  0.2310  0.3150 -0.1581
 5385SOL    HW121538   5.158   0.937   3.011 -1.5294  0.7388 -0.5375
 5385SOL    HW221539   5.100   1.076   2.998  0.4580  1.8585  1.7444
 5385SOL     MW21540   5.166   1.024   3.018  0.0347  0.5668  0.0368
 5386SOL     OW21541   5.472   0.236   2.905 -0.0657 -0.2956  0.1743
 5386SOL    HW121542   5.490   0.230   2.998 -1.7162 -0.9251  0.4875
 5386SOL    HW221543   5.515   0.160   2.867 -2.3169 -2.0679  0.9704
 5386SOL     MW21544   5.480   0.226   2.912 -0.5652 -0.6031  0.3163
 5387SOL     OW21545   2.482   2.017   3.879 -0.4104 -0.1469  0.4751
 5387SOL    HW121546   2.428   1.975   3.946  0.4724 -0.7307  0.8442
 5387SOL    HW221547   2.420   2.069   3.827 -1.4057 -1.2493  0.5180
 5387SOL     MW21548   2.467   2.018   3.881 -0.4248 -0.3628  0.5279
 5388SOL     OW21549   3.669   2.095   4.628 -0.3431  0.3587  0.2081
 5388SOL    HW121550   3.653   2.001   4.621  0.8820  0.0643  1.1042
 5388SOL    HW221551   3.744   2.103   4.687  0.9518  1.7789 -1.4882
 5388SOL     MW21552   3.677   2.084   4.634 -0.0205  0.5028  0.1057
 5389SOL     OW21553   2.223   0.394   0.058 -0.3782  0.0511  0.0305
 5389SOL    HW121554   2.284   0.400  -0.016 -0.8438  0.3105 -0.3366
 5389SOL    HW221555   2.250   0.464   0.117  1.7418 -1.8088  1.4574
 5389SOL     MW21556   2.234   0.404   0.056 -0.1664 -0.1537  0.1662
 5390SOL     OW21557   0.496   4.865   1.419 -0.5991  0.2506 -0.0737
 5390SOL    HW121558   0.476   4.785   1.371 -2.0588  0.4940  0.0729
 5390SOL    HW221559   0.561   4.910   1.365 -1.1459 -0.1562 -1.1069
 5390SOL     MW21560   0.502   4.860   1.406 -0.8560  0.2297 -0.1872
 5391SOL     OW21561   2.941   1.325   1.069 -0.4695  0.0791  0.1433
 5391SOL    HW121562   3.016   1.342   1.126 -0.5141 -1.0982  0.5820
 5391SOL    HW221563   2.979   1.300   0.985 -0.3948  0.6509  0.0011
 5391SOL     MW21564   2.955   1.324   1.065 -0.4657  0.0016  0.1812
 5392SOL     OW21565   1.158   5.016   4.538  0.0876  0.3315  0.5905
 5392SOL    HW121566   1.212   4.960   4.483  1.3806  1.9653  0.0797
 5392SOL    HW221567   1.210   5.027   4.618  0.0777  1.1270  0.4960
 5392SOL     MW21568   1.172   5.011   4.541  0.2519  0.6425  0.5130
 5393SOL     OW21569   1.135   4.429   0.777  0.8124  0.3940  0.5274
 5393SOL    HW121570   1.130   4.366   0.849 -0.3574 -0.9519 -0.6773
 5393SOL    HW221571   1.209   4.486   0.800 -0.3044  0.8731  3.4430
 5393SOL     MW21572   1.144   4.428   0.789  0.5197  0.2831  0.7464
 5394SOL     OW21573   4.063   4.303   3.666 -0.5399 -0.4218 -0.1275
 5394SOL    HW121574   4.151   4.315   3.630 -0.0432 -2.1163  0.4234
 5394SOL    HW221575   4.073   4.318   3.760 -1.1701  0.7875 -0.2241
 5394SOL     MW21576   4.076   4.307   3.673 -0.5570 -0.4839 -0.0693
 5395SOL     OW21577   3.667   4.023   0.935 -0.1450  0.4136 -0.1812
 5395SOL    HW121578   3.712   3.939   0.943 -1.2692 -0.1382  0.7298
 5395SOL    HW221579   3.612   4.027   1.013 -0.8985  1.5132 -0.7520
 5395SOL     MW21580   3.666   4.012   0.946 -0.3854  0.4837 -0.1376
 5396SOL     OW21581   4.573   1.778   1.353 -0.3185 -0.5142  0.1647
 5396SOL    HW121582   4.544   1.755   1.441 -0.2374 -0.5912  0.1717
 5396SOL    HW221583   4.617   1.699   1.321 -1.3013 -0.8582 -0.3618
 5396SOL     MW21584   4.575   1.765   1.360 -0.4339 -0.5681  0.0982
 5397SOL     OW21585   2.069   3.855   2.954  0.5191 -0.1241 -0.5124
 5397SOL    HW121586   2.143   3.803   2.924  1.1160  0.7753 -0.6596
 5397SOL    HW221587   1.997   3.793   2.963  1.1087 -0.8973 -1.0277
 5397SOL     MW21588   2.070   3.840   2.951  0.6710 -0.1079 -0.5972
 5398SOL     OW21589   5.229   2.542   4.316  0.5675 -0.3167 -0.1026
 5398SOL    HW121590   5.203   2.450   4.309 -0.7769  0.0799 -0.7193
 5398SOL    HW221591   5.175   2.587   4.250 -0.7569  1.2812  1.9463
 5398SOL     MW21592   5.219   2.536   4.307  0.2259 -0.0614  0.0807
 5399SOL     OW21593   1.463   1.538   1.774  0.2988 -0.7857 -0.0892
 5399SOL    HW121594   1.548   1.569   1.744  1.8003 -2.1672  2.4590
 5399SOL    HW221595   1.402   1.608   1.750  2.0735  0.1739 -2.1139
 5399SOL     MW21596   1.466   1.551   1.767  0.7182 -0.8397 -0.0222
 5400SOL     OW21597   2.157   2.679   4.423 -0.2520 -0.2126 -1.1219
 5400SOL    HW121598   2.122   2.679   4.512  1.5650  1.3572 -0.3341
 5400SOL    HW221599   2.109   2.748   4.378 -1.2018 -1.0357 -1.4063
 5400SOL     MW21600   2.147   2.688   4.428 -0.1410 -0.1170 -1.0575
 5401SOL     OW21601   1.156   0.988   1.208  0.0998 -0.4071 -0.1136
 5401SOL    HW121602   1.201   1.041   1.274 -2.1177  1.6574 -0.0726
 5401SOL    HW221603   1.063   1.012   1.219 -0.4184 -0.2122 -3.7189
 5401SOL     MW21604   1.150   0.998   1.218 -0.2504 -0.1179 -0.5699
 5402SOL     OW21605   0.624   3.925   3.149  0.2469  0.2249 -0.1748
 5402SOL    HW121606   0.586   3.959   3.230  1.8578  1.3097  0.1859
 5402SOL    HW221607   0.570   3.850   3.126  0.5538 -0.9858  2.6599
 5402SOL     MW21608   0.612   3.920   3.156  0.4924  0.2088  0.2342
 5403SOL     OW21609   3.608   0.846   5.017 -0.1903 -0.4990  0.2185
 5403SOL    HW121610   3.550   0.810   4.950 -0.7586  0.9245 -0.1058
 5403SOL    HW221611   3.555   0.844   5.098 -0.7125  0.7111 -0.0583
 5403SOL     MW21612   3.594   0.841   5.019 -0.3299 -0.1618  0.1416
 5404SOL     OW21613   0.666   4.242   4.511  0.0560  0.0046 -0.8265
 5404SOL    HW121614   0.737   4.274   4.566 -0.0417 -1.9790  0.5444
 5404SOL    HW221615   0.700   4.248   4.421  0.5670  2.4096 -0.5401
 5404SOL     MW21616   0.679   4.247   4.506  0.1089  0.0586 -0.6144
 5405SOL     OW21617   3.904   4.201   0.713  0.3818  0.5487 -0.2424
 5405SOL    HW121618   3.951   4.126   0.676  0.0085 -0.2785  0.9084
 5405SOL    HW221619   3.956   4.277   0.686  0.3408 -0.0237 -2.0983
 5405SOL     MW21620   3.917   4.201   0.705  0.3288  0.3695 -0.3326
 5406SOL     OW21621   4.998   5.150   2.332 -0.3263 -0.3667 -0.3157
 5406SOL    HW121622   4.982   5.204   2.410 -1.5705 -0.8918 -0.1866
 5406SOL    HW221623   4.998   5.212   2.260 -1.5887 -0.1559 -0.1499
 5406SOL     MW21624   4.996   5.165   2.333 -0.6472 -0.4069 -0.2780
 5407SOL     OW21625   4.914   4.914   1.509 -0.2873  0.2540 -0.8644
 5407SOL    HW121626   4.822   4.890   1.496 -0.6679 -0.0469  1.8193
 5407SOL    HW221627   4.959   4.832   1.526 -0.2177  0.6809  1.2256
 5407SOL     MW21628   4.908   4.901   1.509 -0.3271  0.2701 -0.2533
 5408SOL     OW21629   0.076   1.333   0.016  0.0889 -0.0202  0.5228
 5408SOL    HW121630   0.054   1.262  -0.043 -0.4718  1.5469 -1.2454
 5408SOL    HW221631   0.165   1.313   0.047  0.8882 -0.3213 -1.7900
 5408SOL     MW21632   0.085   1.321   0.013  0.1195  0.1419  0.0004
 5409SOL     OW21633   4.502   4.271   3.095  0.2525  0.0878  0.5344
 5409SOL    HW121634   4.480   4.186   3.058  2.3926 -0.7634  1.1138
 5409SOL    HW221635   4.444   4.280   3.171 -0.9869 -0.1651 -0.3435
 5409SOL     MW21636   4.492   4.261   3.100  0.3678 -0.0535  0.4962
 5410SOL     OW21637   4.309   2.158   4.941 -0.1909  0.3323 -0.1691
 5410SOL    HW121638   4.261   2.116   4.869 -0.6895  0.0189  0.3318
 5410SOL    HW221639   4.401   2.153   4.916 -0.3152 -0.3235 -0.5013
 5410SOL     MW21640   4.314   2.152   4.929 -0.2706  0.2082 -0.1475
 5411SOL     OW21641   4.377   3.779   4.305  0.3960 -0.4312 -0.6006
 5411SOL    HW121642   4.433   3.748   4.377 -1.1618 -0.4850  0.6559
 5411SOL    HW221643   4.402   3.870   4.291  0.8406 -0.4743 -0.0964
 5411SOL     MW21644   4.387   3.786   4.313  0.2535 -0.4436 -0.3752
 5412SOL     OW21645   2.756   3.679   4.310 -0.0872  0.2961 -0.3123
 5412SOL    HW121646   2.722   3.715   4.228  1.8907 -1.6321 -2.1183
 5412SOL    HW221647   2.792   3.754   4.356 -2.4458  1.6399 -0.4811
 5412SOL     MW21648   2.756   3.693   4.305 -0.1360  0.2213 -0.5651
 5413SOL     OW21649   1.734   3.659   1.149 -0.5835 -0.3356  0.3224
 5413SOL    HW121650   1.807   3.605   1.117 -0.1509  0.5702 -0.2451
 5413SOL    HW221651   1.756   3.676   1.241 -0.7189 -1.1019  0.5057
 5413SOL     MW21652   1.746   3.654   1.157 -0.5455 -0.3178  0.2733
 5414SOL     OW21653   2.886   0.525   4.282  0.1888  0.6857 -0.2045
 5414SOL    HW121654   2.832   0.454   4.247  2.1374 -0.7398 -0.5002
 5414SOL    HW221655   2.838   0.605   4.260 -1.9473 -0.5029 -0.0957
 5414SOL     MW21656   2.873   0.526   4.275  0.1648  0.3511 -0.2285
 5415SOL     OW21657   3.046   3.608   1.870 -0.0447 -0.1055 -0.1804
 5415SOL    HW121658   2.962   3.583   1.833 -0.4933 -0.1026  0.8237
 5415SOL    HW221659   3.070   3.534   1.927 -0.1725  0.6193  0.8357
 5415SOL     MW21660   3.039   3.595   1.873 -0.1185 -0.0123  0.0782
 5416SOL     OW21661   3.766   4.573   0.863 -0.0193 -0.1091 -0.3557
 5416SOL    HW121662   3.797   4.649   0.913 -0.7734  0.4357 -0.6964
 5416SOL    HW221663   3.698   4.534   0.918  0.3962 -0.5636 -0.1636
 5416SOL     MW21664   3.761   4.578   0.876 -0.0626 -0.0975 -0.3747
 5417SOL     OW21665   2.862   1.712   4.287 -0.7449 -0.2872 -0.2171
 5417SOL    HW121666   2.836   1.797   4.251 -0.2664 -0.5235 -1.1616
 5417SOL    HW221667   2.958   1.716   4.291 -0.8014  0.0614  1.9270
 5417SOL     MW21668   2.871   1.723   4.283 -0.6909 -0.2728 -0.0635
 5418SOL     OW21669   3.040   3.826   3.945  0.5037 -0.2285 -0.2147
 5418SOL    HW121670   3.045   3.754   4.008 -0.0141  1.4092  1.8068
 5418SOL    HW221671   3.105   3.889   3.976 -0.4683  1.0620 -0.7017
 5418SOL     MW21672   3.049   3.825   3.957  0.3130  0.1464 -0.0183
 5419SOL     OW21673   4.464   3.659   2.067  0.0581 -0.0796 -0.3299
 5419SOL    HW121674   4.432   3.747   2.044  1.3639  0.3859 -0.4883
 5419SOL    HW221675   4.485   3.665   2.160  3.6849  1.0334 -1.0428
 5419SOL     MW21676   4.463   3.671   2.076  0.6896  0.1225 -0.4414
 5420SOL     OW21677   3.138   3.906   1.889  0.1420 -0.4448  0.6445
 5420SOL    HW121678   3.064   3.914   1.950 -2.0630  0.7479 -1.9820
 5420SOL    HW221679   3.148   3.812   1.877 -1.4933 -0.6431  0.5218
 5420SOL     MW21680   3.130   3.895   1.896 -0.3496 -0.3175  0.2925
 5421SOL     OW21681   1.194   3.023   2.067  0.3029 -0.1276  0.0784
 5421SOL    HW121682   1.187   3.035   2.161 -0.0691  1.1200 -0.0978
 5421SOL    HW221683   1.241   3.100   2.036 -0.6998  0.1043 -0.9158
 5421SOL     MW21684   1.199   3.034   2.075  0.1269  0.0618 -0.0715
 5422SOL     OW21685   2.183   1.619   2.633  0.2523 -0.3387  0.2214
 5422SOL    HW121686   2.235   1.699   2.642 -0.6651  0.3816 -0.5430
 5422SOL    HW221687   2.096   1.644   2.666 -0.3523 -0.6551 -1.0472
 5422SOL     MW21688   2.178   1.632   2.638  0.0575 -0.2870 -0.0388
 5423SOL     OW21689   4.100   3.586   3.534 -0.1541  0.5426 -0.4576
 5423SOL    HW121690   4.158   3.579   3.610 -0.7625  0.2531 -0.0133
 5423SOL    HW221691   4.152   3.632   3.469  0.2608  1.0873  0.2458
 5423SOL     MW21692   4.114   3.591   3.536 -0.1789  0.5753 -0.3107
 5424SOL     OW21693   1.184   1.367   3.177 -0.2834  0.8637  0.0082
 5424SOL    HW121694   1.206   1.397   3.088 -1.6546  1.7949 -0.0411
 5424SOL    HW221695   1.089   1.378   3.183 -0.7802 -2.4576  0.3954
 5424SOL     MW21696   1.175   1.372   3.166 -0.5225  0.5578  0.0515
 5425SOL     OW21697   0.735   1.867   0.751 -0.0936  0.0182 -0.1875
 5425SOL    HW121698   0.741   1.856   0.846  1.0765 -0.1365 -0.2629
 5425SOL    HW221699   0.658   1.817   0.726 -1.0572  0.9468  0.8091
 5425SOL     MW21700   0.726   1.860   0.760 -0.0672  0.1173 -0.0695
 5426SOL     OW21701   2.996   0.547   0.915  0.2994 -0.1024  0.3993
 5426SOL    HW121702   2.980   0.454   0.901 -0.1278  0.0731 -0.3746
 5426SOL    HW221703   2.960   0.589   0.837  1.2568  0.6423  0.3352
 5426SOL     MW21704   2.989   0.541   0.903  0.3673  0.0154  0.2920
 5427SOL     OW21705   5.123   3.980   3.628 -0.3695  0.0698 -0.2760
 5427SOL    HW121706   5.096   3.994   3.718 -1.0131 -0.5918 -0.3507
 5427SOL    HW221707   5.065   4.035   3.576 -2.1950 -1.9301 -0.4929
 5427SOL     MW21708   5.112   3.989   3.632 -0.6856 -0.2709 -0.3133
 5428SOL     OW21709   0.591   3.549   1.798 -0.2382 -0.4228  0.1426
 5428SOL    HW121710   0.518   3.502   1.758 -1.0362  0.8341  0.0623
 5428SOL    HW221711   0.661   3.545   1.733 -0.3858 -1.2410  0.0248
 5428SOL     MW21712   0.590   3.542   1.785 -0.3592 -0.3667  0.1173
 5429SOL     OW21713   2.679   1.538   0.321 -0.2648 -0.1044 -0.4703
 5429SOL    HW121714   2.637   1.580   0.396  1.2119  0.2551  0.1835
 5429SOL    HW221715   2.608   1.525   0.258 -1.3899  0.2640  0.6854
 5429SOL     MW21716   2.664   1.542   0.323 -0.2198 -0.0112 -0.2387
 5430SOL     OW21717   1.098   1.835   4.883 -0.0089  0.3411  0.0502
 5430SOL    HW121718   1.171   1.875   4.931 -0.6850 -0.4763  1.8559
 5430SOL    HW221719   1.123   1.743   4.875 -0.2985  0.3015 -0.3974
 5430SOL     MW21720   1.110   1.828   4.888 -0.1325  0.2314  0.2241
 5431SOL     OW21721   5.120   0.575   4.735 -0.5010 -0.9123 -0.2196
 5431SOL    HW121722   5.170   0.655   4.719 -1.8267 -0.1904 -0.8767
 5431SOL    HW221723   5.184   0.504   4.724 -0.0603 -0.1646 -3.2855
 5431SOL     MW21724   5.135   0.576   4.731 -0.6143 -0.7242 -0.6962
 5432SOL     OW21725   1.310   1.794   3.055 -0.3168 -0.1190  0.2452
 5432SOL    HW121726   1.334   1.726   3.118 -0.9125  0.8666  1.5877
 5432SOL    HW221727   1.388   1.850   3.049  0.5963 -1.4916 -1.7382
 5432SOL     MW21728   1.323   1.793   3.062 -0.2762 -0.1686  0.1631
 5433SOL     OW21729   1.909   5.449   4.623  0.4863  0.5386 -0.6266
 5433SOL    HW121730   1.945   5.487   4.703  1.4559 -0.1042 -0.7420
 5433SOL    HW221731   1.869   5.523   4.578 -0.5981  0.8040  0.7170
 5433SOL     MW21732   1.909   5.464   4.628  0.4716  0.4903 -0.4694
 5434SOL     OW21733   2.698   4.694   2.593  0.6334  0.6506  0.0837
 5434SOL    HW121734   2.786   4.674   2.624  0.5691 -0.6390 -0.5046
 5434SOL    HW221735   2.648   4.714   2.672  0.7539 -1.4597  0.7559
 5434SOL     MW21736   2.703   4.694   2.607  0.6406  0.2154  0.0944
 5435SOL     OW21737   4.228   0.645   2.656 -0.4399  0.4737 -0.0941
 5435SOL    HW121738   4.159   0.646   2.722 -0.8719 -0.9675 -0.4852
 5435SOL    HW221739   4.184   0.665   2.574 -0.0935  1.1831 -0.1140
 5435SOL     MW21740   4.214   0.648   2.654 -0.4509  0.3800 -0.1467
 5436SOL     OW21741   2.680   3.016   1.196  0.2959  0.0599 -0.1708
 5436SOL    HW121742   2.723   2.972   1.270  0.4243  0.1851 -0.1710
 5436SOL    HW221743   2.587   2.993   1.205  0.1055  1.0976  0.7586
 5436SOL     MW21744   2.674   3.007   1.206  0.2880  0.2088 -0.0518
 5437SOL     OW21745   0.046   4.535   3.799  0.0788 -0.1972 -0.2779
 5437SOL    HW121746   0.126   4.587   3.811  0.3458 -0.6382 -0.1437
 5437SOL    HW221747   0.075   4.444   3.807  0.1939 -0.5725 -3.4583
 5437SOL     MW21748   0.060   4.530   3.801  0.1277 -0.3017 -0.6679
 5438SOL     OW21749   4.914   4.989   2.791  0.2322 -0.0428 -0.5963
 5438SOL    HW121750   4.999   4.972   2.831  0.1498  0.3316 -0.2514
 5438SOL    HW221751   4.902   4.918   2.728  1.6266  0.9502 -2.0281
 5438SOL     MW21752   4.923   4.978   2.788  0.4001  0.1322 -0.7354
 5439SOL     OW21753   4.718   5.242   5.066  0.2364  0.1087  0.2773
 5439SOL    HW121754   4.776   5.318   5.065 -0.2626  0.6033 -3.1406
 5439SOL    HW221755   4.634   5.275   5.097  0.6188  0.3648  1.0729
 5439SOL     MW21756   4.715   5.256   5.070  0.2215  0.2048 -0.0584
 5440SOL     OW21757   4.906   0.430   2.745 -0.2616  0.4988 -0.0547
 5440SOL    HW121758   4.822   0.427   2.698 -0.4174  1.1355  0.1728
 5440SOL    HW221759   4.966   0.474   2.685 -0.0589 -0.0517 -0.2594
 5440SOL     MW21760   4.903   0.435   2.731 -0.2556  0.5098 -0.0518
 5441SOL     OW21761   0.701   2.117   1.343 -0.0954 -0.3847  0.0214
 5441SOL    HW121762   0.749   2.197   1.358  1.9389 -1.6225  0.4499
 5441SOL    HW221763   0.695   2.110   1.247 -1.2063  0.7516 -0.0177
 5441SOL     MW21764   0.706   2.126   1.332  0.0228 -0.3977  0.0712
 5442SOL     OW21765   5.015   3.887   3.277 -0.0544 -0.4651 -0.3163
 5442SOL    HW121766   4.949   3.851   3.336  2.5458 -2.3951  1.6396
 5442SOL    HW221767   5.057   3.957   3.328  0.2134 -0.0381 -1.0939
 5442SOL     MW21768   5.012   3.892   3.291  0.3128 -0.6575 -0.1655
 5443SOL     OW21769   5.312   4.161   3.610 -0.0608 -0.5578  0.1286
 5443SOL    HW121770   5.284   4.241   3.655 -0.0609 -1.0092  0.9323
 5443SOL    HW221771   5.237   4.103   3.615 -0.4918 -0.1884 -1.5128
 5443SOL     MW21772   5.299   4.164   3.616 -0.1160 -0.5683  0.0214
 5444SOL     OW21773   4.851   1.058   1.298 -0.2708  0.1577 -0.6082
 5444SOL    HW121774   4.864   1.153   1.298  2.0985 -0.0886 -0.2664
 5444SOL    HW221775   4.904   1.027   1.224 -0.7496 -0.9197 -0.5147
 5444SOL     MW21776   4.860   1.066   1.288 -0.0288 -0.0118 -0.5525
 5445SOL     OW21777   3.090   3.119   1.423  0.2232  0.4040  0.3924
 5445SOL    HW121778   3.052   3.169   1.495  1.2875  1.9317 -0.0679
 5445SOL    HW221779   3.035   3.040   1.418 -0.8111  0.9756  1.8634
 5445SOL     MW21780   3.078   3.115   1.432  0.2270  0.6728  0.5218
 5446SOL     OW21781   5.429   3.395   1.655  0.2083 -0.5047  0.2563
 5446SOL    HW121782   5.425   3.490   1.644 -0.7738 -0.6755 -1.0310
 5446SOL    HW221783   5.486   3.366   1.583 -1.8646 -1.1323 -1.2198
 5446SOL     MW21784   5.436   3.404   1.644 -0.1827 -0.6069 -0.0974
 5447SOL     OW21785   3.822   3.241   2.320 -0.1155  0.5858  0.3630
 5447SOL    HW121786   3.749   3.230   2.382  0.3189 -0.8679  0.6474
 5447SOL    HW221787   3.844   3.152   2.293  0.6322  1.1081 -0.8191
 5447SOL     MW21788   3.815   3.229   2.325  0.0358  0.4666  0.2481
 5448SOL     OW21789   3.143   1.557   3.596 -0.3273 -0.5645 -0.0533
 5448SOL    HW121790   3.099   1.522   3.673 -1.0578 -0.4764 -0.4230
 5448SOL    HW221791   3.094   1.636   3.574 -0.0029 -0.4814 -0.4918
 5448SOL     MW21792   3.131   1.563   3.603 -0.3793 -0.5426 -0.1568
 5449SOL     OW21793   4.681   1.799   2.663 -0.3861  0.3002  0.3567
 5449SOL    HW121794   4.629   1.756   2.596 -2.1841  2.1909  0.4245
 5449SOL    HW221795   4.617   1.845   2.718  1.2874  2.2873  0.8021
 5449SOL     MW21796   4.666   1.800   2.661 -0.4020  0.7966  0.4224
 5450SOL     OW21797   2.229   5.399   4.162 -0.2676 -0.0345 -0.3907
 5450SOL    HW121798   2.151   5.454   4.158 -0.4039 -0.2827 -1.4802
 5450SOL    HW221799   2.203   5.324   4.214 -0.3358  0.5149  0.3906
 5450SOL     MW21800   2.216   5.397   4.168 -0.2938  0.0041 -0.4302
 5451SOL     OW21801   0.367   5.279   3.446  0.1217 -0.1773  0.0928
 5451SOL    HW121802   0.396   5.188   3.446 -1.9985 -0.9224 -0.4603
 5451SOL    HW221803   0.437   5.327   3.402  1.0826 -1.6038  0.0115
 5451SOL     MW21804   0.379   5.273   3.440 -0.0267 -0.4553  0.0116
 5452SOL     OW21805   0.239   4.746   0.341 -0.3182 -0.2728  0.0500
 5452SOL    HW121806   0.148   4.769   0.322 -0.5876  0.2409  1.8042
 5452SOL    HW221807   0.235   4.653   0.365 -0.2625 -0.4373 -0.5683
 5452SOL     MW21808   0.227   4.737   0.342 -0.3456 -0.2281  0.1954
 5453SOL     OW21809   2.799   1.749   5.124  0.0990  0.3045 -0.3473
 5453SOL    HW121810   2.735   1.819   5.113 -1.8753 -1.1294  1.3188
 5453SOL    HW221811   2.881   1.787   5.093 -1.0506  3.0365 -0.3142
 5453SOL     MW21812   2.801   1.763   5.118 -0.3009  0.4707 -0.1298
 5454SOL     OW21813   4.556   5.472   3.334  0.2157 -0.7719  0.1197
 5454SOL    HW121814   4.477   5.439   3.292 -1.6249  2.5732  0.6146
 5454SOL    HW221815   4.595   5.530   3.269  0.6106 -0.1236  0.9159
 5454SOL     MW21816   4.551   5.475   3.320  0.0307 -0.2607  0.2850
 5455SOL     OW21817   4.096   1.321   0.606  0.7213 -0.8470 -0.1441
 5455SOL    HW121818   4.146   1.294   0.683  1.7049 -1.3082 -0.9302
 5455SOL    HW221819   4.086   1.416   0.617  0.4350 -0.9676  0.7780
 5455SOL     MW21820   4.101   1.330   0.618  0.8105 -0.9215 -0.1267
 5456SOL     OW21821   5.324   1.498   1.271 -0.0778 -0.1870 -0.1287
 5456SOL    HW121822   5.309   1.499   1.365  3.8374  1.3873  0.6966
 5456SOL    HW221823   5.297   1.585   1.242  0.7460  0.1273  0.0148
 5456SOL     MW21824   5.318   1.510   1.279  0.5288  0.0548 -0.0047
 5457SOL     OW21825   5.207   3.170   2.735 -0.0171  0.0692  0.9168
 5457SOL    HW121826   5.256   3.251   2.723  0.7844 -0.1483  2.4714
 5457SOL    HW221827   5.274   3.103   2.752 -0.5657 -1.2005 -1.4144
 5457SOL     MW21828   5.222   3.172   2.736  0.0153 -0.1212  0.8174
 5458SOL     OW21829   2.418   0.818   3.419 -0.0552  0.8074 -0.3531
 5458SOL    HW121830   2.472   0.894   3.440  0.5084  0.3344 -0.0361
 5458SOL    HW221831   2.475   0.743   3.436 -0.0617  0.3454 -2.1512
 5458SOL     MW21832   2.432   0.818   3.424  0.0161  0.6877 -0.5427
 5459SOL     OW21833   2.721   4.625   3.865 -0.3850  0.2316 -0.4685
 5459SOL    HW121834   2.765   4.641   3.948 -0.4549 -0.7140 -0.2359
 5459SOL    HW221835   2.695   4.711   3.834  1.7355  0.8460 -0.6740
 5459SOL     MW21836   2.723   4.638   3.871 -0.1225  0.1892 -0.4650
 5460SOL     OW21837   0.730   2.072   2.806 -0.2003  0.6199 -0.0365
 5460SOL    HW121838   0.666   2.032   2.864  0.2654 -0.8323 -0.4764
 5460SOL    HW221839   0.679   2.132   2.751 -0.9989  0.2947  0.3463
 5460SOL     MW21840   0.716   2.075   2.806 -0.2429  0.3923 -0.0438
 5461SOL     OW21841   0.275   4.177   0.425  0.1088 -0.0379  0.0252
 5461SOL    HW121842   0.275   4.162   0.519 -0.5674 -1.4360 -0.1715
 5461SOL    HW221843   0.362   4.149   0.396  0.8106  1.6552  0.3825
 5461SOL     MW21844   0.286   4.171   0.433  0.1121 -0.0001  0.0458
 5462SOL     OW21845   0.351   2.723   1.145  0.4420 -0.2412  0.0551
 5462SOL    HW121846   0.334   2.683   1.230 -1.6353 -1.5238 -0.8999
 5462SOL    HW221847   0.283   2.790   1.135 -0.0408 -0.8702 -1.0476
 5462SOL     MW21848   0.341   2.726   1.154  0.1143 -0.4859 -0.2083
 5463SOL     OW21849   2.317   1.919   0.020 -0.3182  0.6070  0.2411
 5463SOL    HW121850   2.368   1.838   0.015  2.1211  2.0910 -0.7393
 5463SOL    HW221851   2.309   1.936   0.113  1.5345  0.5644  0.4599
 5463SOL     MW21852   2.323   1.911   0.031  0.2312  0.7915  0.1436
 5464SOL     OW21853   5.324   5.034   1.464 -0.3168  0.1018  0.2066
 5464SOL    HW121854   5.336   5.018   1.558  2.0054 -1.2203 -0.2548
 5464SOL    HW221855   5.367   5.118   1.449  0.4392 -0.2878  0.1362
 5464SOL     MW21856   5.331   5.043   1.474  0.0772 -0.1173  0.1385
 5465SOL     OW21857   1.033   0.389   0.127  0.2890  0.4203 -0.4948
 5465SOL    HW121858   1.089   0.312   0.119 -0.8081 -0.2285 -2.8976
 5465SOL    HW221859   0.956   0.358   0.174  0.7027  0.6151  0.3425
 5465SOL     MW21860   1.030   0.375   0.132  0.2015  0.3622 -0.6952
 5466SOL     OW21861   4.721   3.706   1.953 -0.4255 -0.0660  0.2175
 5466SOL    HW121862   4.719   3.686   1.859  0.3225 -2.5861  0.6612
 5466SOL    HW221863   4.629   3.706   1.980 -0.5522 -2.0052 -0.0727
 5466SOL     MW21864   4.709   3.703   1.944 -0.3459 -0.6368  0.2371
 5467SOL     OW21865   2.807   1.225   1.593 -0.5379 -0.1220 -0.7613
 5467SOL    HW121866   2.891   1.267   1.609 -0.6160 -0.2359 -0.0170
 5467SOL    HW221867   2.797   1.227   1.497 -0.2341  0.9287 -0.7845
 5467SOL     MW21868   2.817   1.231   1.582 -0.5090 -0.0021 -0.6690
 5468SOL     OW21869   4.083   5.108   3.811 -0.3713 -0.2467  0.3708
 5468SOL    HW121870   4.062   5.168   3.883  0.9614 -0.4980  1.0090
 5468SOL    HW221871   4.140   5.159   3.754 -0.3838 -0.4504  0.1759
 5468SOL     MW21872   4.088   5.122   3.813 -0.2023 -0.3049  0.4275
 5469SOL     OW21873   1.712   4.174   5.380 -0.2417 -0.1016 -0.0032
 5469SOL    HW121874   1.619   4.190   5.394 -0.1342  0.7615 -0.2304
 5469SOL    HW221875   1.756   4.237   5.436  0.1975  0.0174 -0.4698
 5469SOL     MW21876   1.706   4.184   5.389 -0.1717  0.0241 -0.0920
 5470SOL     OW21877   2.294   2.298   5.327  0.0787  0.0180  0.0770
 5470SOL    HW121878   2.292   2.316   5.233  0.9321 -0.1491  0.0193
 5470SOL    HW221879   2.385   2.317   5.353 -0.4337  1.1819  1.0932
 5470SOL     MW21880   2.306   2.303   5.318  0.1223  0.1456  0.1997
 5471SOL     OW21881   2.344   4.513   0.762 -0.2896 -0.6797  0.2238
 5471SOL    HW121882   2.289   4.591   0.776 -0.7424 -0.8659 -0.4466
 5471SOL    HW221883   2.416   4.523   0.824  2.1426  2.5620 -2.7177
 5471SOL     MW21884   2.346   4.525   0.771 -0.0362 -0.2885 -0.2386
 5472SOL     OW21885   3.622   4.943   1.909  0.5191  0.0002 -0.6762
 5472SOL    HW121886   3.653   4.908   1.825 -0.5431 -0.3523 -0.9441
 5472SOL    HW221887   3.526   4.937   1.903  0.4096  0.6199  0.2899
 5472SOL     MW21888   3.613   4.938   1.897  0.3691  0.0344 -0.5868
 5473SOL     OW21889   3.718   1.456   0.196  0.0145 -0.6692  0.1125
 5473SOL    HW121890   3.774   1.383   0.168  0.9307 -0.5659  1.5335
 5473SOL    HW221891   3.688   1.496   0.115  0.5604 -1.8315 -0.6960
 5473SOL     MW21892   3.722   1.452   0.182  0.2017 -0.8048  0.1909
 5474SOL     OW21893   4.592   4.292   0.157 -0.2273 -0.1392 -0.3067
 5474SOL    HW121894   4.615   4.324   0.245 -2.4767 -1.6795  0.9327
 5474SOL    HW221895   4.530   4.221   0.173 -1.5846  0.2782 -3.2130
 5474SOL     MW21896   4.587   4.287   0.170 -0.6890 -0.2829 -0.5201
 5475SOL     OW21897   0.165   5.064   0.581 -0.6952  0.0187  0.3329
 5475SOL    HW121898   0.136   4.988   0.631  2.6211 -1.3016  0.4419
 5475SOL    HW221899   0.146   5.042   0.490 -0.3886 -0.6345  0.4242
 5475SOL     MW21900   0.159   5.052   0.576 -0.2314 -0.2339  0.3586
 5476SOL     OW21901   2.190   1.726   1.007 -0.0632 -0.0368 -0.2302
 5476SOL    HW121902   2.200   1.631   0.994  0.5163  0.0280 -0.2882
 5476SOL    HW221903   2.167   1.735   1.099  0.2030 -0.2112 -0.1464
 5476SOL     MW21904   2.188   1.715   1.017  0.0451 -0.0508 -0.2269
 5477SOL     OW21905   0.760   4.270   2.702 -0.8439 -0.4494  0.0278
 5477SOL    HW121906   0.786   4.257   2.610  0.2506 -1.7118  0.4896
 5477SOL    HW221907   0.776   4.363   2.718 -1.5123 -0.0927 -1.1797
 5477SOL     MW21908   0.765   4.280   2.692 -0.7894 -0.5653 -0.0677
 5478SOL     OW21909   1.707   0.150   3.540  0.3306 -0.6711  0.2635
 5478SOL    HW121910   1.720   0.192   3.625  1.0365 -1.0144  0.3333
 5478SOL    HW221911   1.754   0.205   3.478 -1.7472  0.6473 -0.2378
 5478SOL     MW21912   1.715   0.162   3.543  0.1550 -0.5463  0.2082
 5479SOL     OW21913   2.200   0.805   0.122 -0.1828 -0.2515 -0.0014
 5479SOL    HW121914   2.237   0.794   0.035  2.0314 -0.2519  0.8483
 5479SOL    HW221915   2.125   0.747   0.125 -0.8978  0.4768 -2.1900
 5479SOL     MW21916   2.195   0.797   0.111  0.0092 -0.1584 -0.1728
 5480SOL     OW21917   4.990   5.187   5.433  0.0665 -0.0486  0.7776
 5480SOL    HW121918   4.900   5.172   5.462 -0.0489 -0.8016  0.0661
 5480SOL    HW221919   5.003   5.125   5.361  0.2202  1.9652 -1.0550
 5480SOL     MW21920   4.980   5.177   5.427  0.0714  0.1128  0.4519
 5481SOL     OW21921   3.632   5.478   2.797 -0.1695 -0.0720  0.5481
 5481SOL    HW121922   3.666   5.564   2.772 -1.6441  1.3408  2.9644
 5481SOL    HW221923   3.698   5.442   2.856  0.4092 -0.5934 -0.3983
 5481SOL     MW21924   3.645   5.485   2.801 -0.2842  0.0421  0.7363
 5482SOL     OW21925   4.110   4.790   3.597  0.0317  0.0555 -0.1924
 5482SOL    HW121926   4.015   4.798   3.608 -0.0480 -0.3588 -0.5586
 5482SOL    HW221927   4.143   4.772   3.685 -0.3307 -0.6878 -0.2010
 5482SOL     MW21928   4.102   4.789   3.610 -0.0249 -0.0927 -0.2403
 5483SOL     OW21929   2.632   1.598   4.555  0.1113  0.0200 -0.1476
 5483SOL    HW121930   2.614   1.505   4.573  0.2687 -0.1614 -0.8932
 5483SOL    HW221931   2.684   1.627   4.631  0.0786 -0.5063  0.0829
 5483SOL     MW21932   2.637   1.590   4.567  0.1273 -0.0706 -0.2135
 5484SOL     OW21933   1.051   5.123   1.069 -0.5329  0.1992 -0.0537
 5484SOL    HW121934   1.105   5.200   1.056 -2.0499  1.3723  0.3391
 5484SOL    HW221935   0.980   5.132   1.005  0.4336 -2.0526 -1.5947
 5484SOL     MW21936   1.049   5.134   1.059 -0.6034  0.0611 -0.2007
 5485SOL     OW21937   2.117   5.327   4.901  0.6207  0.8157 -0.0760
 5485SOL    HW121938   2.047   5.263   4.887  0.3958  0.8702  0.7752
 5485SOL    HW221939   2.130   5.328   4.996  0.6474  2.0046 -0.0827
 5485SOL     MW21940   2.110   5.319   4.911  0.5953  0.9749  0.0321
 5486SOL     OW21941   2.140   0.879   0.434 -0.3300  0.0326 -0.0090
 5486SOL    HW121942   2.074   0.942   0.461 -0.8305  0.5696 -2.2632
 5486SOL    HW221943   2.097   0.794   0.439 -0.4128  0.1178  0.7802
 5486SOL     MW21944   2.126   0.876   0.438 -0.4047  0.1122 -0.1965
 5487SOL     OW21945   4.354   3.725   1.099  0.6586  0.1660  0.2217
 5487SOL    HW121946   4.436   3.750   1.141  0.7782  2.3452 -1.1372
 5487SOL    HW221947   4.379   3.656   1.037  1.2289 -0.0844  0.7249
 5487SOL     MW21948   4.368   3.719   1.096  0.7469  0.4129  0.1122
 5488SOL     OW21949   1.124   2.699   4.133 -0.2923 -0.4539 -0.0372
 5488SOL    HW121950   1.086   2.637   4.195  1.8532 -1.7219  0.1270
 5488SOL    HW221951   1.150   2.774   4.186  1.2058 -1.3810  0.5842
 5488SOL     MW21952   1.122   2.700   4.148  0.1741 -0.7349  0.0634
 5489SOL     OW21953   5.421   0.089   3.281  0.4612  0.1769  0.7809
 5489SOL    HW121954   5.333   0.114   3.253 -0.6405 -0.1209  3.6468
 5489SOL    HW221955   5.440   0.009   3.234 -0.8523  0.1955  0.1833
 5489SOL     MW21956   5.412   0.082   3.272  0.1521  0.1412  1.0713
 5490SOL     OW21957   4.428   0.835   2.643  0.2573 -0.5855  1.0188
 5490SOL    HW121958   4.498   0.779   2.608  0.5699  1.8124 -2.6707
 5490SOL    HW221959   4.356   0.775   2.659  1.1647 -2.3608 -0.9704
 5490SOL     MW21960   4.428   0.820   2.641  0.4135 -0.5058  0.2919
 5491SOL     OW21961   2.659   0.136   4.653 -0.3524 -0.4150  0.3762
 5491SOL    HW121962   2.587   0.200   4.652 -0.4526 -0.5103  1.1006
 5491SOL    HW221963   2.736   0.186   4.625 -0.4583 -0.0126  0.7967
 5491SOL     MW21964   2.659   0.151   4.649 -0.3788 -0.3757  0.5227
 5492SOL     OW21965   4.438   0.542   1.947 -0.3582 -0.5604  0.0026
 5492SOL    HW121966   4.368   0.578   1.892  0.6049 -0.7020 -1.3624
 5492SOL    HW221967   4.418   0.448   1.953 -1.0896 -0.3590  0.8627
 5492SOL     MW21968   4.426   0.534   1.941 -0.3286 -0.5528 -0.0620
 5493SOL     OW21969   2.952   5.150   2.912  0.3261  0.0588 -0.3296
 5493SOL    HW121970   2.919   5.233   2.947 -2.0478 -1.7119  1.9792
 5493SOL    HW221971   3.009   5.116   2.981  0.8416 -0.5135 -1.0235
 5493SOL     MW21972   2.955   5.156   2.925  0.0882 -0.2411 -0.1229
 5494SOL     OW21973   3.785   3.367   3.953  0.3701  0.3380  0.4931
 5494SOL    HW121974   3.844   3.344   3.880  0.4736  0.2451  0.6047
 5494SOL    HW221975   3.789   3.291   4.011  0.2529  0.3940  0.5740
 5494SOL     MW21976   3.793   3.354   3.951  0.3683  0.3333  0.5177
 5495SOL     OW21977   3.818   0.711   3.359 -0.4497 -0.5603 -0.4681
 5495SOL    HW121978   3.806   0.632   3.411  0.5302  0.3310  1.2312
 5495SOL    HW221979   3.730   0.736   3.331 -0.8193 -1.9580 -0.6036
 5495SOL     MW21980   3.805   0.704   3.362 -0.3716 -0.6252 -0.2679
 5496SOL     OW21981   5.420   0.653   0.453  0.2660  0.1066  0.2613
 5496SOL    HW121982   5.410   0.579   0.514 -0.8810 -0.9807 -1.1706
 5496SOL    HW221983   5.398   0.730   0.506 -0.9672 -0.8311  1.1910
 5496SOL     MW21984   5.416   0.653   0.468 -0.0387 -0.1526  0.1970
 5497SOL     OW21985   3.293   2.843   2.994 -0.1140  0.4159 -0.0137
 5497SOL    HW121986   3.332   2.900   3.061 -1.7441  0.0151  1.3687
 5497SOL    HW221987   3.272   2.763   3.042  1.4159 -1.0893 -1.7437
 5497SOL     MW21988   3.295   2.840   3.009 -0.1268  0.1719 -0.0582
 5498SOL     OW21989   4.941   4.422   1.885 -0.3292 -0.0123 -0.3263
 5498SOL    HW121990   5.034   4.399   1.882  0.3705  2.4718 -0.1287
 5498SOL    HW221991   4.915   4.430   1.793  0.2247  1.1783 -0.4038
 5498SOL     MW21992   4.950   4.420   1.873 -0.1687  0.4581 -0.3109
 5499SOL     OW21993   3.919   2.916   3.819 -0.4589 -0.6755  0.7166
 5499SOL    HW121994   3.905   2.897   3.912 -1.0564  1.1278  1.0431
 5499SOL    HW221995   3.843   2.969   3.794 -0.2009 -0.9626 -0.7519
 5499SOL     MW21996   3.907   2.920   3.828 -0.5023 -0.4814  0.5704
 5500SOL     OW21997   3.149   3.551   4.126  0.1710  0.1605 -0.5233
 5500SOL    HW121998   3.194   3.519   4.205  0.9389 -0.3616 -1.1523
 5500SOL    HW221999   3.196   3.509   4.054 -0.4189  0.7633 -1.2661
 5500SOL     MW22000   3.161   3.541   4.127  0.1938  0.1708 -0.6989
   5.49390   5.49390   5.49390
