Protein
22000
    1SOL     OW    1   1.933   4.161   4.409 -0.2457  0.4026  0.4410
    1SOL    HW1    2   1.888   4.194   4.487 -0.0270 -0.7582  1.0883
    1SOL    HW2    3   1.920   4.066   4.412 -1.7199  0.4643 -1.8864
    1SOL     MW    4   1.926   4.153   4.419 -0.4064  0.2619  0.2260
    2SOL     OW    5   2.982   1.187   0.085 -0.3200  0.3323 -0.1495
    2SOL    HW1    6   2.990   1.278   0.054  0.2096 -0.0503 -1.1743
    2SOL    HW2    7   2.896   1.184   0.126  0.3301  1.7517  1.4841
    2SOL     MW    8   2.972   1.198   0.087 -0.1690  0.4650 -0.0715
    3SOL     OW    9   4.812   2.804   4.193 -0.4069 -0.2581  0.6393
    3SOL    HW1   10   4.895   2.851   4.188 -2.1941  3.1192 -0.8776
    3SOL    HW2   11   4.822   2.731   4.131  0.7824  1.3044 -1.1135
    3SOL     MW   12   4.824   2.801   4.184 -0.4835  0.3743  0.2208
    4SOL     OW   13   0.252   2.954   3.347 -0.2499  0.4211  0.4253
    4SOL    HW1   14   0.298   2.871   3.361 -0.2926  0.7295  2.8215
    4SOL    HW2   15   0.243   2.961   3.252 -0.3945 -2.3918  0.1541
    4SOL     MW   16   0.257   2.944   3.337 -0.2739  0.1005  0.6974
    5SOL     OW   17   3.995   1.221   0.082 -0.5738 -0.1294  0.0707
    5SOL    HW1   18   4.002   1.145   0.024 -0.8293  1.4378 -2.0843
    5SOL    HW2   19   3.909   1.212   0.123 -1.4409  0.0076 -1.6710
    5SOL     MW   20   3.985   1.210   0.080 -0.7175  0.0888 -0.4282
    6SOL     OW   21   2.176   4.697   5.279  0.1270 -0.1326  0.0761
    6SOL    HW1   22   2.118   4.637   5.232  0.4711 -0.4468  0.0505
    6SOL    HW2   23   2.195   4.766   5.216 -0.6262  0.2464  0.2475
    6SOL     MW   24   2.171   4.698   5.265  0.0747 -0.1243  0.0948
    7SOL     OW   25   5.400   0.896   5.105  0.0277  0.2489 -0.1434
    7SOL    HW1   26   5.348   0.958   5.054  1.4208  0.6441 -1.1564
    7SOL    HW2   27   5.361   0.897   5.192  0.4227  3.0980  0.1017
    7SOL     MW   28   5.388   0.904   5.109  0.2566  0.6642 -0.2417
    8SOL     OW   29   2.618   3.598   3.827  0.2412 -0.4242  0.3283
    8SOL    HW1   30   2.564   3.521   3.812  0.3295  0.0837 -3.7490
    8SOL    HW2   31   2.701   3.579   3.783  0.3791  1.8538 -0.5264
    8SOL     MW   32   2.622   3.586   3.820  0.2702 -0.0676 -0.3030
    9SOL     OW   33   4.457   0.797   0.279 -0.0043  0.1454  0.1471
    9SOL    HW1   34   4.483   0.845   0.200 -0.7256 -0.5641 -0.5514
    9SOL    HW2   35   4.492   0.848   0.351  1.0754  0.5723 -0.6494
    9SOL     MW   36   4.464   0.810   0.278  0.0416  0.1092 -0.0443
   10SOL     OW   37   1.133   0.228   2.329 -0.0877  0.4818 -0.4854
   10SOL    HW1   38   1.132   0.149   2.383 -1.0946  0.1145 -1.0140
   10SOL    HW2   39   1.153   0.196   2.241  0.6117  0.9585 -0.5034
   10SOL     MW   40   1.135   0.214   2.325 -0.1271  0.4958 -0.5554
   11SOL     OW   41   1.843   3.287   4.464 -0.5946  0.2883 -0.6062
   11SOL    HW1   42   1.854   3.197   4.432 -1.1626  0.3738 -1.0575
   11SOL    HW2   43   1.791   3.330   4.397  0.8734  1.3712 -1.1066
   11SOL     MW   44   1.838   3.281   4.451 -0.4794  0.4379 -0.7280
   12SOL     OW   45   3.130   3.598   4.706  0.6571  0.1740 -0.1637
   12SOL    HW1   46   3.168   3.668   4.653  3.2249 -0.4210  0.7386
   12SOL    HW2   47   3.134   3.632   4.796  1.2672 -0.8059  0.1994
   12SOL     MW   48   3.136   3.611   4.711  1.0639 -0.0276 -0.0017
   13SOL     OW   49   3.735   4.096   4.272 -0.3154 -0.6896 -0.4087
   13SOL    HW1   50   3.811   4.057   4.316  0.2447 -0.7240 -1.3843
   13SOL    HW2   51   3.659   4.062   4.319  0.2868  1.3025  2.2734
   13SOL     MW   52   3.735   4.087   4.284 -0.1666 -0.4390 -0.1903
   14SOL     OW   53   3.905   0.466   2.957 -0.7603  0.0793  0.6513
   14SOL    HW1   54   3.996   0.437   2.966 -0.3881  1.5471  2.3289
   14SOL    HW2   55   3.853   0.396   2.996 -0.1741  0.1092  1.5174
   14SOL     MW   56   3.910   0.454   2.963 -0.6376  0.2710  0.9770
   15SOL     OW   57   2.025   0.689   4.573  0.1810 -0.4387 -0.1758
   15SOL    HW1   58   2.038   0.781   4.553  0.1416  0.1476  2.1361
   15SOL    HW2   59   2.003   0.648   4.490 -2.2528  2.0713 -0.9020
   15SOL     MW   60   2.024   0.695   4.560 -0.1356 -0.0423  0.0272
   16SOL     OW   61   2.589   2.498   3.474 -0.0517 -0.4565 -0.1811
   16SOL    HW1   62   2.548   2.560   3.534  1.4219 -0.9154  1.4118
   16SOL    HW2   63   2.521   2.433   3.455 -0.3985 -0.6878  1.6193
   16SOL     MW   64   2.575   2.497   3.479  0.0926 -0.5448  0.2533
   17SOL     OW   65   2.935   1.861   0.578 -0.6703  0.2480 -0.0483
   17SOL    HW1   66   2.975   1.777   0.557 -0.9390  0.2139 -0.4454
   17SOL    HW2   67   2.846   1.854   0.542 -0.0448  1.4865 -2.0193
   17SOL     MW   68   2.928   1.849   0.570 -0.6246  0.4022 -0.3515
   18SOL     OW   69   1.908   2.754   0.911 -0.0736 -0.3314 -0.9175
   18SOL    HW1   70   1.939   2.768   1.001 -1.8363 -0.0668 -0.3235
   18SOL    HW2   71   1.814   2.771   0.915 -0.7344 -3.1365 -2.1676
   18SOL     MW   72   1.900   2.758   0.923 -0.3838 -0.6566 -1.0015
   19SOL     OW   73   3.012   1.823   1.218  0.0820 -0.5248 -0.0646
   19SOL    HW1   74   2.935   1.845   1.271  1.0992  0.7089  0.9570
   19SOL    HW2   75   3.024   1.899   1.161  0.3991 -0.8204 -0.3966
   19SOL     MW   76   3.004   1.836   1.217  0.2528 -0.4047  0.0237
   20SOL     OW   77   1.137   4.306   2.864 -0.2444 -0.4592 -0.4371
   20SOL    HW1   78   1.175   4.353   2.790 -0.4750  0.2943 -0.0862
   20SOL    HW2   79   1.210   4.297   2.926 -0.2270 -0.4724 -0.4592
   20SOL     MW   80   1.151   4.311   2.863 -0.2717 -0.3644 -0.3950
   21SOL     OW   81   3.205   4.974   2.475  0.4881  0.1784  0.0796
   21SOL    HW1   82   3.240   4.972   2.385 -0.7464  0.0523 -0.4130
   21SOL    HW2   83   3.210   4.883   2.504 -2.8214 -0.6224 -1.3880
   21SOL     MW   84   3.210   4.962   2.467 -0.0936  0.0597 -0.1713
   22SOL     OW   85   3.626   5.003   3.944 -0.2718  0.3802 -0.5688
   22SOL    HW1   86   3.564   5.054   3.997 -0.9423 -0.2375 -0.7281
   22SOL    HW2   87   3.574   4.973   3.869 -0.1950 -1.3298  0.0071
   22SOL     MW   88   3.611   5.006   3.941 -0.3478  0.0822 -0.5155
   23SOL     OW   89   0.165   0.148   3.840 -0.6845 -0.3588  0.2544
   23SOL    HW1   90   0.186   0.131   3.748  0.7420 -0.7313  0.6343
   23SOL    HW2   91   0.073   0.175   3.838 -0.1844  1.4959 -1.5117
   23SOL     MW   92   0.156   0.149   3.828 -0.4378 -0.1690  0.0769
   24SOL     OW   93   4.373   3.779   0.262  0.1804  0.2234 -0.3569
   24SOL    HW1   94   4.377   3.874   0.277  1.5896  0.3988 -1.5804
   24SOL    HW2   95   4.326   3.744   0.338  2.0909  1.5795  1.5386
   24SOL     MW   96   4.367   3.787   0.274  0.6054  0.4195 -0.2709
   25SOL     OW   97   2.589   4.337   2.708 -0.4151  0.0802  0.1673
   25SOL    HW1   98   2.640   4.279   2.764  1.4196 -0.9735 -2.4208
   25SOL    HW2   99   2.499   4.306   2.716  0.3523 -2.4214 -0.2661
   25SOL     MW  100   2.584   4.326   2.716 -0.0820 -0.3749 -0.2195
   26SOL     OW  101   5.124   2.494   1.484 -0.0731  0.0876 -0.4016
   26SOL    HW1  102   5.108   2.483   1.391  1.6402  0.3997 -0.7738
   26SOL    HW2  103   5.039   2.519   1.521 -0.3468  2.1105 -2.2326
   26SOL     MW  104   5.111   2.496   1.477  0.1112  0.3865 -0.6836
   27SOL     OW  105   1.881   0.961   2.370 -0.0155 -0.2979  0.2322
   27SOL    HW1  106   1.899   0.872   2.402  0.2212 -0.2719  0.1681
   27SOL    HW2  107   1.802   0.987   2.418  1.1557  0.3148  1.9294
   27SOL     MW  108   1.873   0.953   2.380  0.1647 -0.2161  0.4413
   28SOL     OW  109   0.574   3.213   4.562  0.2770 -0.0724  0.3382
   28SOL    HW1  110   0.589   3.126   4.600  1.9427  0.3966  0.8554
   28SOL    HW2  111   0.511   3.255   4.621 -0.0170 -0.6907  0.4650
   28SOL     MW  112   0.568   3.207   4.575  0.4526 -0.0915  0.4207
   29SOL     OW  113   5.362   0.863   5.370 -0.0171  0.1334  0.4895
   29SOL    HW1  114   5.341   0.828   5.456  1.0353 -0.8841  0.3595
   29SOL    HW2  115   5.455   0.845   5.359  0.0174  0.8841 -0.5714
   29SOL     MW  116   5.371   0.856   5.379  0.1221  0.0993  0.3371
   30SOL     OW  117   0.272   2.367   2.359 -0.0212 -0.3893 -0.0545
   30SOL    HW1  118   0.337   2.434   2.379  0.2219 -0.1141 -1.6145
   30SOL    HW2  119   0.294   2.294   2.418 -0.4189  0.9393  1.8014
   30SOL     MW  120   0.283   2.366   2.369 -0.0410 -0.1840 -0.0166
   31SOL     OW  121   4.045   3.545   3.845  0.1371  0.3142 -0.0445
   31SOL    HW1  122   4.073   3.587   3.926 -0.1858 -1.3919  1.0034
   31SOL    HW2  123   4.126   3.518   3.802  0.2768 -0.1226  0.4791
   31SOL     MW  124   4.059   3.547   3.850  0.1136  0.0399  0.1567
   32SOL     OW  125   2.435   3.879   1.991 -0.4845  0.5568  0.4177
   32SOL    HW1  126   2.512   3.905   2.042  0.3344 -2.2647  0.8116
   32SOL    HW2  127   2.384   3.824   2.051 -1.0477 -0.3882 -0.8851
   32SOL     MW  128   2.438   3.875   2.005 -0.4518  0.0747  0.3013
   33SOL     OW  129   2.267   3.526   0.489 -0.3002  0.1876  0.0771
   33SOL    HW1  130   2.338   3.552   0.430 -1.4568  0.5228 -1.2486
   33SOL    HW2  131   2.218   3.460   0.439 -1.6336  0.8700  0.4408
   33SOL     MW  132   2.270   3.521   0.475 -0.6189  0.3179 -0.0460
   34SOL     OW  133   2.030   3.304   2.678  0.5189 -0.4289  0.5090
   34SOL    HW1  134   2.019   3.399   2.682  2.2167 -0.2400  1.0687
   34SOL    HW2  135   2.005   3.282   2.588  2.0103  0.8392 -0.2717
   34SOL     MW  136   2.025   3.313   2.667  0.9271 -0.2424  0.4807
   35SOL     OW  137   4.698   2.990   4.040  0.1601 -0.4371  0.8341
   35SOL    HW1  138   4.731   3.079   4.052  3.3925 -1.3554 -0.1588
   35SOL    HW2  139   4.740   2.940   4.111 -0.6039 -1.3882  0.6282
   35SOL     MW  140   4.708   2.995   4.051  0.4761 -0.6764  0.6806
   36SOL     OW  141   2.835   2.342   2.565 -0.1311  0.3329  0.6386
   36SOL    HW1  142   2.793   2.376   2.486  0.9282 -1.2599 -0.6734
   36SOL    HW2  143   2.847   2.419   2.620 -1.4754  1.3932 -0.4559
   36SOL     MW  144   2.831   2.357   2.562 -0.1676  0.2647  0.3306
   37SOL     OW  145   4.653   3.421   4.473  0.1624  0.0350  0.1809
   37SOL    HW1  146   4.694   3.490   4.526  0.0634  2.1720 -2.3385
   37SOL    HW2  147   4.726   3.366   4.444  0.5273  0.3937  0.4169
   37SOL     MW  148   4.668   3.423   4.476  0.1964  0.3545 -0.1114
   38SOL     OW  149   1.557   5.355   2.389  0.0987 -0.1255  0.0867
   38SOL    HW1  150   1.587   5.268   2.416 -0.0736  0.2236  1.4900
   38SOL    HW2  151   1.635   5.410   2.396 -0.2718  0.2737  1.3622
   38SOL     MW  152   1.571   5.351   2.393  0.0292 -0.0297  0.4296
   39SOL     OW  153   1.924   2.654   4.345 -0.4283 -0.3205  0.2843
   39SOL    HW1  154   2.016   2.636   4.327 -0.7591 -0.8941 -0.9575
   39SOL    HW2  155   1.919   2.661   4.440  0.4463 -3.1336  0.6362
   39SOL     MW  156   1.935   2.652   4.355 -0.3587 -0.7540  0.1704
   40SOL     OW  157   2.853   3.442   3.313  0.1196  0.1110  0.1764
   40SOL    HW1  158   2.934   3.478   3.347  0.9406 -0.7457 -0.7930
   40SOL    HW2  159   2.837   3.490   3.232  0.7582 -1.0518 -0.6700
   40SOL     MW  160   2.861   3.453   3.307  0.3065 -0.1475 -0.0560
   41SOL     OW  161   0.229   2.854   4.071 -0.1671  0.2445 -0.0284
   41SOL    HW1  162   0.246   2.888   4.159 -0.5776  0.7933 -0.1499
   41SOL    HW2  163   0.262   2.764   4.073  0.0825  0.3407  0.5984
   41SOL     MW  164   0.236   2.847   4.083 -0.1877  0.3271  0.0363
   42SOL     OW  165   1.336   2.049   2.009  0.7940  0.2130 -0.4713
   42SOL    HW1  166   1.265   2.069   1.948  0.7487  0.1823 -0.4284
   42SOL    HW2  167   1.307   2.086   2.092  0.7542  0.0527 -0.4149
   42SOL     MW  168   1.323   2.057   2.012  0.7831  0.1885 -0.4586
   43SOL     OW  169   1.284   2.101   0.141 -0.0496 -0.3377 -0.7719
   43SOL    HW1  170   1.222   2.097   0.214 -1.4400 -0.8135 -1.9362
   43SOL    HW2  171   1.287   2.194   0.118 -0.1812 -0.2845 -0.5770
   43SOL     MW  172   1.276   2.113   0.148 -0.2444 -0.3918 -0.8960
   44SOL     OW  173   3.622   3.004   3.896  0.2427  0.4106  0.6137
   44SOL    HW1  174   3.636   3.036   3.986  0.1337 -0.0479  0.7950
   44SOL    HW2  175   3.579   2.919   3.907  0.0320  0.4506  0.1206
   44SOL     MW  176   3.618   2.997   3.909  0.2018  0.3570  0.5738
   45SOL     OW  177   5.356   2.094   4.746 -0.0980 -0.0393 -0.0769
   45SOL    HW1  178   5.384   2.126   4.831 -1.5825 -0.9140  0.7864
   45SOL    HW2  179   5.426   2.119   4.686  0.8465  0.8279  1.3444
   45SOL     MW  180   5.368   2.102   4.749 -0.1672 -0.0402  0.2155
   46SOL     OW  181   3.063   2.831   2.781 -0.5603  0.0618 -0.0536
   46SOL    HW1  182   2.995   2.894   2.806 -0.6802 -0.3655  0.7061
   46SOL    HW2  183   3.107   2.873   2.707 -1.2254  0.6358 -0.1366
   46SOL     MW  184   3.060   2.845   2.775 -0.6608  0.0805  0.0330
   47SOL     OW  185   3.563   3.388   5.010  0.1679 -0.3568  0.0224
   47SOL    HW1  186   3.502   3.314   5.013  0.7810 -0.9162 -0.7337
   47SOL    HW2  187   3.530   3.444   4.940 -0.7716  0.5364  1.1487
   47SOL     MW  188   3.551   3.385   5.001  0.1261 -0.3141  0.0698
   48SOL     OW  189   1.530   4.181   2.284 -0.2301  0.5081  0.8331
   48SOL    HW1  190   1.577   4.257   2.249  2.2860 -1.0559  0.5832
   48SOL    HW2  191   1.482   4.146   2.210  0.0486  0.8000  0.5120
   48SOL     MW  192   1.530   4.187   2.270  0.1277  0.3453  0.7600
   49SOL     OW  193   0.627   2.407   1.517  0.3011  0.2689  0.0932
   49SOL    HW1  194   0.659   2.490   1.552  0.6386  0.3098 -0.2985
   49SOL    HW2  195   0.695   2.343   1.540  0.8456  0.4179 -1.0295
   49SOL     MW  196   0.640   2.409   1.525  0.4140  0.2932 -0.1007
   50SOL     OW  197   0.695   1.459   4.477 -0.3096 -0.6604  0.3062
   50SOL    HW1  198   0.695   1.397   4.550  1.3363 -1.9805 -0.7560
   50SOL    HW2  199   0.677   1.405   4.400 -1.1748  0.5729 -0.3921
   50SOL     MW  200   0.692   1.444   4.476 -0.2097 -0.6715  0.0808
   51SOL     OW  201   0.683   3.344   3.737 -0.2392  0.0497  0.3257
   51SOL    HW1  202   0.728   3.292   3.671 -2.3798  0.2147 -1.3750
   51SOL    HW2  203   0.753   3.383   3.789  1.4701 -1.8927 -0.3998
   51SOL     MW  204   0.698   3.343   3.735 -0.2944 -0.1778  0.0152
   52SOL     OW  205   0.172   3.315   3.646  0.0245  0.0278 -0.1726
   52SOL    HW1  206   0.166   3.321   3.741  0.4145 -1.9116  0.0133
   52SOL    HW2  207   0.083   3.293   3.617  0.5507 -2.8759  0.1327
   52SOL     MW  208   0.160   3.313   3.654  0.1418 -0.5922 -0.1097
   53SOL     OW  209   2.674   5.006   2.684 -0.3025 -0.4274  0.0315
   53SOL    HW1  210   2.723   5.081   2.718  2.9480 -2.1576 -0.4517
   53SOL    HW2  211   2.628   4.970   2.761 -2.4146  2.2501  0.1602
   53SOL     MW  212   2.674   5.011   2.699 -0.1568 -0.3061 -0.0139
   54SOL     OW  213   3.451   1.993   2.691  0.2697  0.1719  0.3432
   54SOL    HW1  214   3.495   1.918   2.649  1.3504  0.6098  0.6740
   54SOL    HW2  215   3.388   2.023   2.625 -0.0815 -0.9304  0.1503
   54SOL     MW  216   3.448   1.987   2.677  0.3631  0.0868  0.3608
   55SOL     OW  217   0.140   3.280   0.217  0.1578 -0.0200  0.2683
   55SOL    HW1  218   0.107   3.368   0.200 -0.7275 -0.5400 -0.8159
   55SOL    HW2  219   0.095   3.224   0.154 -1.0499 -1.6384  2.4224
   55SOL     MW  220   0.130   3.284   0.207 -0.1102 -0.2938  0.4052
   56SOL     OW  221   0.022   4.945   4.271  0.0456  0.2115 -0.1650
   56SOL    HW1  222  -0.017   5.018   4.223  0.3456 -0.4317 -1.4311
   56SOL    HW2  223   0.106   4.979   4.301  0.2963  0.3160 -0.9661
   56SOL     MW  224   0.028   4.959   4.268  0.1161  0.1425 -0.4296
   57SOL     OW  225   1.462   3.026   4.867  0.0498  0.1696  0.0333
   57SOL    HW1  226   1.425   3.021   4.779  1.5001 -2.0468 -0.5187
   57SOL    HW2  227   1.557   3.031   4.854  0.3892 -1.5905  1.4324
   57SOL     MW  228   1.469   3.026   4.854  0.2789 -0.3394  0.1417
   58SOL     OW  229   5.084   2.077   5.356 -0.1718  0.4744 -0.3792
   58SOL    HW1  230   5.145   2.124   5.299 -0.4800  0.7202 -0.5067
   58SOL    HW2  231   5.061   1.999   5.305  0.7507 -0.0948  0.0518
   58SOL     MW  232   5.089   2.073   5.342 -0.0932  0.4330 -0.3404
   59SOL     OW  233   1.401   1.885   4.605  0.4676 -0.0359  0.7995
   59SOL    HW1  234   1.445   1.906   4.687  0.2180  0.1404  0.8872
   59SOL    HW2  235   1.473   1.868   4.544  0.7015  1.8256  0.5120
   59SOL     MW  236   1.416   1.885   4.608  0.4656  0.2249  0.7740
   60SOL     OW  237   0.136   5.293   1.642 -0.1010  0.4488 -0.2163
   60SOL    HW1  238   0.189   5.249   1.709  2.3310  0.5098 -1.9919
   60SOL    HW2  239   0.135   5.231   1.569 -0.6851  1.3732 -0.9998
   60SOL     MW  240   0.143   5.279   1.641  0.1356  0.5749 -0.5439
   61SOL     OW  241   3.812   4.879   0.154  0.2567 -0.0558  0.2914
   61SOL    HW1  242   3.763   4.952   0.117 -1.5117 -0.4868  1.6837
   61SOL    HW2  243   3.903   4.910   0.156 -0.3842  1.9146  0.4144
   61SOL     MW  244   3.818   4.892   0.149 -0.0517  0.1413  0.4854
   62SOL     OW  245   5.349   4.575   0.440 -0.3188 -0.6396 -0.5812
   62SOL    HW1  246   5.389   4.490   0.455  0.3564 -0.0777  1.2192
   62SOL    HW2  247   5.272   4.576   0.496 -0.9585 -0.4695 -1.4467
   62SOL     MW  248   5.344   4.564   0.449 -0.3143 -0.5459 -0.4616
   63SOL     OW  249   4.660   2.231   0.126  0.1994  0.2124 -0.2142
   63SOL    HW1  250   4.626   2.232   0.216 -0.2187  2.0240 -0.3452
   63SOL    HW2  251   4.626   2.311   0.087  0.6269 -0.3945 -1.9128
   63SOL     MW  252   4.652   2.242   0.133  0.2006  0.3666 -0.4484
   64SOL     OW  253   3.386   0.491   0.733 -0.2794  0.4316  0.0696
   64SOL    HW1  254   3.349   0.555   0.673 -0.7299 -1.2404 -1.5488
   64SOL    HW2  255   3.373   0.407   0.689  1.8851 -0.6185  1.2747
   64SOL     MW  256   3.379   0.488   0.720 -0.0600  0.0831  0.0167
   65SOL     OW  257   0.992   3.670   2.208 -0.0170 -0.5164  0.3822
   65SOL    HW1  258   1.005   3.618   2.287  0.6774 -1.2714 -0.2011
   65SOL    HW2  259   1.068   3.649   2.153 -0.2696  0.3154 -0.3110
   65SOL     MW  260   1.004   3.661   2.211  0.0396 -0.5066  0.2188
   66SOL     OW  261   2.187   0.589   3.761 -0.3006 -0.1542 -0.0007
   66SOL    HW1  262   2.279   0.581   3.785  0.1788  1.7112 -1.0240
   66SOL    HW2  263   2.186   0.579   3.666 -0.9484  1.0774 -0.1528
   66SOL     MW  264   2.199   0.587   3.752 -0.3222  0.2423 -0.1511
   67SOL     OW  265   4.044   4.754   4.572 -0.6954  0.1332 -0.5035
   67SOL    HW1  266   3.991   4.821   4.615  2.7255  2.2813  0.7768
   67SOL    HW2  267   4.061   4.689   4.640  0.3110  0.7617 -0.1321
   67SOL     MW  268   4.039   4.754   4.586 -0.1287  0.4886 -0.2921
   68SOL     OW  269   2.145   5.274   5.091 -0.5004 -0.2608 -0.5421
   68SOL    HW1  270   2.115   5.257   5.181  0.3793 -3.0481 -0.6796
   68SOL    HW2  271   2.233   5.311   5.102 -0.9199  0.7166 -0.2887
   68SOL     MW  272   2.153   5.277   5.104 -0.4415 -0.4925 -0.5273
   69SOL     OW  273   4.471   1.491   2.410 -0.5847 -0.3758 -0.7027
   69SOL    HW1  274   4.551   1.536   2.385 -0.9839  3.5834  3.7090
   69SOL    HW2  275   4.401   1.533   2.360 -0.3735 -0.8651 -1.4297
   69SOL     MW  276   4.472   1.502   2.401 -0.6088  0.0684 -0.2310
   70SOL     OW  277   0.603   1.796   5.437  0.4748  0.2358  0.0265
   70SOL    HW1  278   0.604   1.729   5.369  1.4283  0.9316 -0.6704
   70SOL    HW2  279   0.517   1.788   5.477 -0.3459  0.2223 -1.6698
   70SOL     MW  280   0.592   1.786   5.433  0.4918  0.3231 -0.2799
   71SOL     OW  281   0.221   1.908   3.278 -0.4951  0.2867 -0.0100
   71SOL    HW1  282   0.316   1.898   3.280 -0.5760 -0.4302  1.0918
   71SOL    HW2  283   0.201   1.971   3.348 -0.8286  0.4726 -0.2678
   71SOL     MW  284   0.231   1.915   3.287 -0.5482  0.2188  0.0981
   72SOL     OW  285   1.495   1.421   3.756  1.1112 -1.0635 -0.0261
   72SOL    HW1  286   1.468   1.500   3.803  0.2104 -0.9739 -0.6789
   72SOL    HW2  287   1.510   1.357   3.826 -0.9316 -1.1480  0.3880
   72SOL     MW  288   1.494   1.423   3.771  0.7344 -1.0628 -0.0567
   73SOL     OW  289   4.098   4.142   1.227  0.1815 -0.2221 -0.6264
   73SOL    HW1  290   4.076   4.194   1.304  0.6853 -2.1802  0.9368
   73SOL    HW2  291   4.193   4.147   1.221  0.2071 -0.6608 -0.6494
   73SOL     MW  292   4.107   4.149   1.236  0.2493 -0.5289 -0.4292
   74SOL     OW  293   1.713   3.071   4.769  0.2484 -0.3677 -0.5560
   74SOL    HW1  294   1.737   3.164   4.778 -1.0924  0.0203 -0.8430
   74SOL    HW2  295   1.791   3.024   4.800  1.2748  0.8313 -1.2212
   74SOL     MW  296   1.726   3.077   4.774  0.2081 -0.1646 -0.6779
   75SOL     OW  297   0.416   2.369   3.915 -0.3354  0.0448 -0.1887
   75SOL    HW1  298   0.359   2.294   3.907 -0.2722 -0.0749  0.3990
   75SOL    HW2  299   0.370   2.428   3.975  0.7130 -0.6199  1.3360
   75SOL     MW  300   0.403   2.367   3.922 -0.1931 -0.0556  0.0817
   76SOL     OW  301   3.144   3.727   4.959 -0.2665 -0.4325  0.1393
   76SOL    HW1  302   3.188   3.686   5.034 -0.3505  1.5821  1.3501
   76SOL    HW2  303   3.052   3.733   4.986 -0.4398 -0.3580 -0.4543
   76SOL     MW  304   3.138   3.722   4.972 -0.2995 -0.1651  0.2183
   77SOL     OW  305   3.678   2.830   5.469  0.4887 -0.1212 -0.2068
   77SOL    HW1  306   3.594   2.848   5.427  0.3203  1.2210  0.6255
   77SOL    HW2  307   3.729   2.783   5.403  0.5362  2.5432 -2.2602
   77SOL     MW  308   3.673   2.826   5.455  0.4733  0.3917 -0.3631
   78SOL     OW  309   1.289   2.099   4.476  0.1186 -0.7705 -0.8052
   78SOL    HW1  310   1.256   2.077   4.390  0.8762 -1.5057 -0.9171
   78SOL    HW2  311   1.314   2.015   4.515 -3.7527 -1.0211  1.6891
   78SOL     MW  312   1.288   2.086   4.470 -0.2800 -0.8967 -0.5002
   79SOL     OW  313   3.490   3.444   0.926 -0.0848  0.6936 -0.1443
   79SOL    HW1  314   3.531   3.362   0.896  2.1641  1.7444 -0.1385
   79SOL    HW2  315   3.470   3.492   0.846  1.2953  1.3487 -0.1244
   79SOL     MW  316   3.493   3.439   0.912  0.3797  0.9120 -0.1410
   80SOL     OW  317   1.996   0.700   0.913 -0.2517  0.3069  0.0259
   80SOL    HW1  318   1.974   0.729   0.825 -0.6983 -0.6759 -0.1968
   80SOL    HW2  319   1.912   0.694   0.958 -0.1493 -0.3813  0.1398
   80SOL     MW  320   1.983   0.703   0.908 -0.2958  0.0930  0.0119
   81SOL     OW  321   2.369   4.514   3.362 -0.6751  0.7483 -0.8242
   81SOL    HW1  322   2.404   4.581   3.303 -1.9274  0.5404 -1.8387
   81SOL    HW2  323   2.439   4.501   3.426 -1.6086  5.5810  1.6821
   81SOL     MW  324   2.383   4.521   3.363 -0.9549  1.3403 -0.6332
   82SOL     OW  325   0.506   5.192   0.979  0.1314 -0.2503 -0.5293
   82SOL    HW1  326   0.591   5.151   0.961  0.3739  0.7763 -1.8849
   82SOL    HW2  327   0.502   5.266   0.918 -1.0836  0.6305  0.5788
   82SOL     MW  328   0.517   5.196   0.968  0.0069 -0.0061 -0.5610
   83SOL     OW  329   4.778   3.603   2.383  0.0781  0.3994 -0.1396
   83SOL    HW1  330   4.852   3.661   2.398  0.4260 -0.1026  0.1343
   83SOL    HW2  331   4.701   3.659   2.392  0.4422  1.0634 -1.1005
   83SOL     MW  332   4.778   3.617   2.386  0.1692  0.4202 -0.2276
   84SOL     OW  333   4.455   0.550   2.731  0.7053 -0.0294  0.3710
   84SOL    HW1  334   4.530   0.582   2.681 -0.5500  0.0537 -1.5749
   84SOL    HW2  335   4.407   0.494   2.670 -1.2398  0.5402  1.2772
   84SOL     MW  336   4.458   0.547   2.717  0.2956  0.0541  0.2379
   85SOL     OW  337   0.381   4.367   2.840  0.5746 -0.4905  0.1311
   85SOL    HW1  338   0.341   4.335   2.921 -0.2121 -1.1574 -0.4987
   85SOL    HW2  339   0.309   4.403   2.790  1.0305 -0.2207 -0.3419
   85SOL     MW  340   0.367   4.367   2.844  0.5322 -0.5413 -0.0101
   86SOL     OW  341   0.745   1.384   1.270  0.7520 -0.2774  0.2483
   86SOL    HW1  342   0.756   1.468   1.315 -0.7573  0.3006 -0.3758
   86SOL    HW2  343   0.725   1.322   1.340  2.2993 -0.2293  0.7615
   86SOL     MW  344   0.744   1.387   1.285  0.7569 -0.1972  0.2341
   87SOL     OW  345   0.988   5.215   0.150  0.6701  0.5225  0.1347
   87SOL    HW1  346   0.937   5.286   0.189 -0.6380  0.3620 -1.2160
   87SOL    HW2  347   0.953   5.135   0.190 -0.8662  0.3361 -1.5060
   87SOL     MW  348   0.977   5.214   0.160  0.3060  0.4781 -0.2483
   88SOL     OW  349   3.936   3.592   0.367  0.6390 -0.1860  0.0455
   88SOL    HW1  350   3.865   3.656   0.373  0.8127 -0.0830  1.4708
   88SOL    HW2  351   3.898   3.518   0.320  0.2324  0.6736 -1.0275
   88SOL     MW  352   3.922   3.591   0.362  0.6092 -0.0628  0.0906
   89SOL     OW  353   2.270   0.661   2.353  0.0312 -0.0666 -0.1145
   89SOL    HW1  354   2.278   0.700   2.266  0.4325  0.2223  0.0509
   89SOL    HW2  355   2.321   0.581   2.349 -0.9051 -0.6645 -0.4964
   89SOL     MW  356   2.277   0.656   2.341 -0.0373 -0.1061 -0.1422
   90SOL     OW  357   5.130   0.723   4.956 -0.0891 -0.1489 -0.4103
   90SOL    HW1  358   5.092   0.641   4.988 -1.1512 -0.3964 -2.1604
   90SOL    HW2  359   5.093   0.791   5.013 -0.1404 -0.7566  0.2974
   90SOL     MW  360   5.120   0.721   4.968 -0.2316 -0.2583 -0.5437
   91SOL     OW  361   0.061   0.087   0.388 -0.0075  0.1005  0.1199
   91SOL    HW1  362   0.039   0.065   0.297 -0.3855  1.0411 -0.0294
   91SOL    HW2  363  -0.006   0.043   0.440 -0.7966  0.9039 -0.1773
   91SOL     MW  364   0.049   0.079   0.383 -0.1569  0.3237  0.0628
   92SOL     OW  365   4.284   5.430   5.031 -0.0359 -0.1314 -0.2453
   92SOL    HW1  366   4.374   5.419   4.999  0.7097  0.6151  1.4735
   92SOL    HW2  367   4.235   5.359   4.990  1.8005 -1.8860  0.4528
   92SOL     MW  368   4.289   5.420   5.021  0.2946 -0.2604  0.0641
   93SOL     OW  369   5.470   3.084   3.963 -0.4824 -0.5469  0.3763
   93SOL    HW1  370   5.409   3.078   3.889 -0.6481 -1.3301  0.5701
   93SOL    HW2  371   5.553   3.111   3.923 -0.6286 -0.7320 -0.0618
   93SOL     MW  372   5.473   3.087   3.948 -0.5223 -0.6708  0.3451
   94SOL     OW  373   5.060   4.867   2.058 -0.3975  0.3974  0.6916
   94SOL    HW1  374   5.065   4.953   2.015  0.5995 -0.0783 -0.1688
   94SOL    HW2  375   5.143   4.859   2.105  0.0923 -0.6398 -0.3079
   94SOL     MW  376   5.071   4.877   2.058 -0.2072  0.2038  0.4535
   95SOL     OW  377   0.359   4.387   5.067  0.0151 -0.3240 -0.2394
   95SOL    HW1  378   0.455   4.388   5.076 -0.0479  0.8926  0.6113
   95SOL    HW2  379   0.343   4.395   4.973  0.7732  0.7969 -0.3029
   95SOL     MW  380   0.370   4.388   5.056  0.1040 -0.0248 -0.1386
   96SOL     OW  381   1.322   3.748   3.826 -0.0882  0.0484 -0.5253
   96SOL    HW1  382   1.312   3.843   3.832 -1.7193 -0.0195 -1.6412
   96SOL    HW2  383   1.275   3.724   3.747 -2.3987 -2.0338  1.3191
   96SOL     MW  384   1.315   3.757   3.817 -0.5928 -0.2268 -0.4320
   97SOL     OW  385   5.450   1.775   1.878  0.6203  0.4080  0.5556
   97SOL    HW1  386   5.440   1.857   1.830 -1.4830 -0.5835 -0.8824
   97SOL    HW2  387   5.411   1.792   1.964  1.3201  1.2486  0.7086
   97SOL     MW  388   5.444   1.787   1.883  0.4407  0.3887  0.3911
   98SOL     OW  389   3.194   1.093   3.798 -0.3023  0.0283 -0.1468
   98SOL    HW1  390   3.242   1.069   3.877  3.2114 -0.6859 -2.2374
   98SOL    HW2  391   3.199   1.188   3.794 -1.6116  0.1687  1.0537
   98SOL     MW  392   3.201   1.102   3.807 -0.0201 -0.0452 -0.2607
   99SOL     OW  393   4.252   3.646   1.392 -0.2110  0.0316  0.0099
   99SOL    HW1  394   4.216   3.656   1.481 -0.8641 -1.6972 -0.0343
   99SOL    HW2  395   4.236   3.731   1.351  0.1693  0.8877  1.5653
   99SOL     MW  396   4.245   3.658   1.398 -0.2459 -0.0801  0.2034
  100SOL     OW  397   1.549   2.762   4.167  0.4540 -0.3446  0.8411
  100SOL    HW1  398   1.475   2.750   4.227 -0.4505  1.0972  0.0753
  100SOL    HW2  399   1.515   2.820   4.099  2.0373 -0.3828 -0.0258
  100SOL     MW  400   1.535   2.768   4.166  0.5409 -0.1649  0.6321
  101SOL     OW  401   1.945   2.382   1.470 -0.1695 -0.4302 -0.0834
  101SOL    HW1  402   1.890   2.359   1.546 -0.3999  0.2708 -0.0282
  101SOL    HW2  403   2.022   2.327   1.479 -0.3996 -0.6825  0.4188
  101SOL     MW  404   1.948   2.372   1.481 -0.2285 -0.3727 -0.0120
  102SOL     OW  405   4.954   5.000   1.349 -0.4595  0.6680  0.1212
  102SOL    HW1  406   4.875   5.016   1.297 -1.4610  0.1051  1.3901
  102SOL    HW2  407   4.922   4.949   1.424  1.4162 -1.1276 -0.2294
  102SOL     MW  408   4.940   4.996   1.352 -0.3476  0.3661  0.2387
  103SOL     OW  409   5.333   2.013   0.284  0.2979 -0.2368 -0.2760
  103SOL    HW1  410   5.298   2.082   0.228  1.2262  0.8014  0.3969
  103SOL    HW2  411   5.360   1.944   0.223  0.5100  0.5192 -1.0494
  103SOL     MW  412   5.332   2.013   0.269  0.4439 -0.0071 -0.2889
  104SOL     OW  413   2.211   4.272   5.144 -0.3213 -0.4552 -0.2337
  104SOL    HW1  414   2.305   4.266   5.164 -0.4231 -0.7356  0.1763
  104SOL    HW2  415   2.171   4.206   5.200 -0.6336 -1.2231 -1.3415
  104SOL     MW  416   2.218   4.263   5.154 -0.3743 -0.5894 -0.3230
  105SOL     OW  417   4.625   5.316   5.477  0.3811 -0.1873  0.2888
  105SOL    HW1  418   4.652   5.239   5.427  1.5685  1.0159 -1.0488
  105SOL    HW2  419   4.560   5.359   5.422 -1.0535 -0.7435  1.4998
  105SOL     MW  420   4.620   5.312   5.463  0.3495 -0.1045  0.2726
  106SOL     OW  421   3.514   0.801   5.116 -0.8164 -0.3527 -0.5115
  106SOL    HW1  422   3.504   0.868   5.049 -0.6878 -1.6461 -1.8766
  106SOL    HW2  423   3.521   0.850   5.198  1.8280  1.4362 -1.6890
  106SOL     MW  424   3.513   0.816   5.118 -0.4614 -0.2893 -0.8370
  107SOL     OW  425   0.430   2.024   4.177 -0.1000  0.1866 -0.0819
  107SOL    HW1  426   0.500   2.044   4.239 -0.3662  0.8636  0.0008
  107SOL    HW2  427   0.453   1.937   4.143 -0.1747 -0.3965  1.2785
  107SOL     MW  428   0.442   2.015   4.181 -0.1436  0.1986  0.1029
  108SOL     OW  429   2.730   1.926   3.515  0.4026 -0.2027 -0.1225
  108SOL    HW1  430   2.684   1.842   3.514 -1.6842  0.8603 -1.1854
  108SOL    HW2  431   2.786   1.924   3.438  0.0186 -0.4570 -0.3983
  108SOL     MW  432   2.731   1.915   3.505  0.0863 -0.0992 -0.2939
  109SOL     OW  433   3.914   3.927   0.305 -0.1660  0.1118 -0.1928
  109SOL    HW1  434   3.934   3.891   0.218  1.1198 -0.0004  0.1191
  109SOL    HW2  435   3.975   4.001   0.314 -1.5527  1.2883 -0.1114
  109SOL     MW  436   3.925   3.932   0.295 -0.1789  0.2481 -0.1424
  110SOL     OW  437   0.003   2.662   2.566  0.0009  0.6244  0.3529
  110SOL    HW1  438   0.040   2.729   2.508 -0.3977  1.5372  1.1279
  110SOL    HW2  439   0.078   2.611   2.595  0.0644 -0.8222 -2.1212
  110SOL     MW  440   0.017   2.664   2.562 -0.0420  0.5561  0.1354
  111SOL     OW  441   2.669   1.873   0.521  0.7161 -0.8927  0.2203
  111SOL    HW1  442   2.663   1.832   0.434 -0.4565  1.7926 -1.0920
  111SOL    HW2  443   2.582   1.862   0.559  0.6504 -0.4217  0.2155
  111SOL     MW  444   2.657   1.866   0.514  0.5576 -0.4886  0.0517
  112SOL     OW  445   4.333   4.402   0.964  0.7044  0.0673 -0.1420
  112SOL    HW1  446   4.305   4.493   0.973 -0.3751 -0.4618  2.8393
  112SOL    HW2  447   4.404   4.392   1.027 -0.3485 -1.5157  0.8785
  112SOL     MW  448   4.338   4.412   0.973  0.4314 -0.2031  0.3703
  113SOL     OW  449   2.192   1.006   2.309 -0.3374 -0.6624 -0.0226
  113SOL    HW1  450   2.189   1.060   2.230  0.5302  1.1752  1.1559
  113SOL    HW2  451   2.100   0.985   2.327 -1.0964  2.8730  1.0421
  113SOL     MW  452   2.180   1.010   2.301 -0.3235  0.0254  0.2645
  114SOL     OW  453   2.034   2.984   4.070 -0.1965  0.2774 -0.1012
  114SOL    HW1  454   1.960   2.924   4.070 -0.3296  0.4417 -0.3517
  114SOL    HW2  455   2.092   2.950   4.139 -1.9243  1.9077  2.2930
  114SOL     MW  456   2.032   2.972   4.079 -0.4347  0.5071  0.1732
  115SOL     OW  457   3.464   5.006   4.492 -0.4622 -0.0047  0.6823
  115SOL    HW1  458   3.543   4.966   4.456 -0.2145  1.9409 -1.1905
  115SOL    HW2  459   3.464   4.980   4.584  1.9759 -0.6575  0.5859
  115SOL     MW  460   3.474   4.998   4.499 -0.1184  0.1608  0.4302
  116SOL     OW  461   5.240   2.153   4.323  0.9846  0.6811  0.1474
  116SOL    HW1  462   5.177   2.086   4.347  0.4414  0.1656 -2.3920
  116SOL    HW2  463   5.238   2.216   4.395  0.4070 -1.2300  1.8854
  116SOL     MW  464   5.232   2.152   4.335  0.8411  0.3705  0.0448
  117SOL     OW  465   1.769   2.910   4.557 -0.1885 -0.3003  0.2036
  117SOL    HW1  466   1.823   2.953   4.491 -1.2860  0.9950  0.1128
  117SOL    HW2  467   1.743   2.981   4.617 -0.4472 -1.1838  1.1745
  117SOL     MW  468   1.772   2.925   4.557 -0.3621 -0.2476  0.3162
  118SOL     OW  469   0.391   1.542   4.669  0.0916  0.4372 -0.2014
  118SOL    HW1  470   0.360   1.626   4.702  1.5706  1.6960 -1.8026
  118SOL    HW2  471   0.319   1.507   4.617  0.2302  1.8166 -1.3581
  118SOL     MW  472   0.378   1.548   4.667  0.2987  0.7750 -0.5544
  119SOL     OW  473   3.881   3.430   4.941 -0.2820  0.3274  0.2122
  119SOL    HW1  474   3.895   3.510   4.890  0.5461 -0.1374 -0.3121
  119SOL    HW2  475   3.865   3.461   5.030 -0.3589  1.0921 -0.0598
  119SOL     MW  476   3.881   3.445   4.946 -0.1858  0.3658  0.1103
  120SOL     OW  477   2.765   5.338   4.710 -0.0595 -0.0903  0.0224
  120SOL    HW1  478   2.758   5.246   4.737  2.0920  0.3746  2.6526
  120SOL    HW2  479   2.695   5.382   4.758  0.5187 -0.0367  0.8525
  120SOL     MW  480   2.755   5.332   4.720  0.2899 -0.0239  0.4654
  121SOL     OW  481   3.398   2.293   1.124 -0.3777  0.3370  0.4343
  121SOL    HW1  482   3.378   2.380   1.090  0.5405  0.7912  1.0258
  121SOL    HW2  483   3.431   2.244   1.048  2.7862  1.6982  0.7876
  121SOL     MW  484   3.400   2.298   1.110  0.1449  0.5694  0.5552
  122SOL     OW  485   0.824   4.603   5.059  0.0753  0.4835 -0.2554
  122SOL    HW1  486   0.768   4.669   5.101 -1.1104 -0.0238 -0.9943
  122SOL    HW2  487   0.768   4.526   5.050  1.5025 -0.7237  0.7848
  122SOL     MW  488   0.810   4.602   5.063  0.1062  0.2640 -0.2168
  123SOL     OW  489   3.004   1.379   2.661 -0.4440  0.3930  0.4205
  123SOL    HW1  490   3.025   1.468   2.692  0.2615 -0.4419  2.5663
  123SOL    HW2  491   3.089   1.342   2.637 -0.3603 -0.4685  1.8886
  123SOL     MW  492   3.018   1.386   2.662 -0.3430  0.1759  0.8831
  124SOL     OW  493   5.303   0.746   4.168 -0.5332 -0.2590 -0.1257
  124SOL    HW1  494   5.363   0.723   4.097  0.7918 -0.8800  1.1490
  124SOL    HW2  495   5.277   0.663   4.206 -3.0813 -0.0879 -1.2623
  124SOL     MW  496   5.308   0.733   4.164 -0.6898 -0.3166 -0.1080
  125SOL     OW  497   3.705   2.099   0.850 -0.3351  0.5697  0.4909
  125SOL    HW1  498   3.749   2.158   0.911 -0.3040  0.3783  0.6537
  125SOL    HW2  499   3.731   2.131   0.764  0.4836  0.1887  0.5925
  125SOL     MW  500   3.714   2.111   0.847 -0.2263  0.4964  0.5248
  126SOL     OW  501   3.593   4.509   2.101 -0.1646 -0.0475 -0.2282
  126SOL    HW1  502   3.634   4.590   2.070 -0.4788  0.0743 -0.3318
  126SOL    HW2  503   3.541   4.478   2.027  0.1431 -0.4741 -0.2682
  126SOL     MW  504   3.591   4.516   2.087 -0.1654 -0.0865 -0.2465
  127SOL     OW  505   1.861   0.100   5.228 -0.1097  0.4506 -0.2679
  127SOL    HW1  506   1.842   0.164   5.296  1.7280  3.2708 -2.2119
  127SOL    HW2  507   1.777   0.083   5.186 -0.6338  1.5887  0.3008
  127SOL     MW  508   1.848   0.106   5.231  0.0584  0.9573 -0.4440
  128SOL     OW  509   2.246   2.830   0.881  0.4602 -0.4287 -0.4594
  128SOL    HW1  510   2.226   2.751   0.932 -1.2312 -0.0841 -0.5286
  128SOL    HW2  511   2.199   2.817   0.799 -0.1477  0.7899 -0.3252
  128SOL     MW  512   2.237   2.818   0.877  0.1658 -0.2286 -0.4511
  129SOL     OW  513   0.597   3.427   0.682  0.3603  0.6004  0.6432
  129SOL    HW1  514   0.684   3.407   0.715  0.6300  0.9972  0.1807
  129SOL    HW2  515   0.582   3.363   0.612  0.6761  1.1329  0.0764
  129SOL     MW  516   0.606   3.416   0.677  0.4353  0.7193  0.5114
  130SOL     OW  517   4.985   2.432   0.527  0.3590  0.1724 -0.5977
  130SOL    HW1  518   4.970   2.388   0.610 -1.4055  1.9405  0.1151
  130SOL    HW2  519   4.936   2.379   0.463  0.1698 -0.1753 -0.1707
  130SOL     MW  520   4.977   2.420   0.529  0.1089  0.3542 -0.4518
  131SOL     OW  521   1.054   0.670   4.274 -0.4720 -0.0636 -0.0864
  131SOL    HW1  522   0.996   0.734   4.232 -0.5871 -0.7736 -1.0588
  131SOL    HW2  523   1.127   0.722   4.307  1.3657  0.3333 -4.0984
  131SOL     MW  524   1.056   0.685   4.273 -0.2514 -0.1037 -0.7245
  132SOL     OW  525   1.929   1.575   0.450  0.5658 -0.4448  0.3178
  132SOL    HW1  526   1.930   1.553   0.543 -0.1753 -0.4735  0.3231
  132SOL    HW2  527   1.963   1.498   0.406 -0.2167 -0.8893  0.4792
  132SOL     MW  528   1.933   1.563   0.456  0.3708 -0.5054  0.3391
  133SOL     OW  529   5.024   0.471   3.113 -0.1221  0.3876  0.0288
  133SOL    HW1  530   5.061   0.392   3.073  2.0189  0.9342  0.7837
  133SOL    HW2  531   4.938   0.445   3.144  0.0303 -1.2930 -0.8487
  133SOL     MW  532   5.018   0.458   3.112  0.1715  0.2424  0.0131
  134SOL     OW  533   5.378   2.895   4.728 -0.2234 -0.7566 -0.8957
  134SOL    HW1  534   5.292   2.932   4.707 -1.2271 -0.0610  3.5368
  134SOL    HW2  535   5.438   2.970   4.722 -0.0382 -1.0053 -2.8751
  134SOL     MW  536   5.375   2.909   4.724 -0.3282 -0.6994 -0.5817
  135SOL     OW  537   2.880   0.131   1.107 -0.0722  0.4057  0.2565
  135SOL    HW1  538   2.809   0.114   1.169  0.5105  0.3197  0.9081
  135SOL    HW2  539   2.939   0.056   1.116  1.0733  1.3628  1.1100
  135SOL     MW  540   2.878   0.119   1.116  0.1490  0.5172  0.4492
  136SOL     OW  541   3.478   2.472   5.402 -0.6665  0.0482  0.2308
  136SOL    HW1  542   3.445   2.475   5.492  0.0521 -0.9213  0.5484
  136SOL    HW2  543   3.530   2.391   5.398  0.8899  1.0221 -0.4933
  136SOL     MW  544   3.481   2.462   5.413 -0.3752  0.0488  0.1787
  137SOL     OW  545   0.011   0.466   0.266  0.4257 -0.1609 -0.4418
  137SOL    HW1  546   0.097   0.463   0.306  1.2706  0.7414 -2.0938
  137SOL    HW2  547   0.009   0.391   0.206  0.0717 -0.1701 -0.4212
  137SOL     MW  548   0.021   0.456   0.263  0.4885 -0.0466 -0.6506
  138SOL     OW  549   0.923   1.862   3.560  0.0243  0.2777  0.2164
  138SOL    HW1  550   0.874   1.938   3.530 -2.0196 -1.9585 -2.6987
  138SOL    HW2  551   1.015   1.883   3.544 -0.6303  1.4263 -2.4610
  138SOL     MW  552   0.928   1.874   3.554 -0.3211  0.1385 -0.4995
  139SOL     OW  553   3.880   3.436   2.814  0.0819  0.1391 -0.6034
  139SOL    HW1  554   3.785   3.445   2.814  0.1745  1.9467 -2.7057
  139SOL    HW2  555   3.907   3.469   2.900 -1.0996  0.8512 -0.4830
  139SOL     MW  556   3.872   3.441   2.825 -0.0575  0.4617 -0.8571
  140SOL     OW  557   0.575   0.570   3.031 -0.0387  0.8766  0.1778
  140SOL    HW1  558   0.595   0.648   3.082  0.8259  0.1681  0.9568
  140SOL    HW2  559   0.488   0.542   3.062 -0.6509  1.8894 -0.5835
  140SOL     MW  560   0.566   0.576   3.041 -0.0064  0.9155  0.1801
  141SOL     OW  561   3.288   1.539   3.213 -0.6039 -0.0714 -0.0670
  141SOL    HW1  562   3.204   1.564   3.251 -0.8019 -0.6641 -0.1105
  141SOL    HW2  563   3.353   1.568   3.277 -0.8075  0.7540 -0.2144
  141SOL     MW  564   3.285   1.546   3.226 -0.6553 -0.0416 -0.0914
  142SOL     OW  565   2.782   1.933   0.047 -0.1841  0.3540  0.4994
  142SOL    HW1  566   2.876   1.932   0.030 -0.2474 -0.3520  0.1775
  142SOL    HW2  567   2.742   1.914  -0.037 -0.5615 -0.9870  0.9665
  142SOL     MW  568   2.789   1.931   0.034 -0.2405  0.0919  0.5180
  143SOL     OW  569   2.896   1.361   3.869  0.4604  0.2093 -0.0283
  143SOL    HW1  570   2.804   1.380   3.851  0.3213  0.4742  0.8963
  143SOL    HW2  571   2.894   1.288   3.930  0.7749  1.2660  1.3090
  143SOL     MW  572   2.884   1.354   3.875  0.4829  0.3785  0.2612
  144SOL     OW  573   1.292   4.951   5.440 -0.1750 -0.7966  1.1768
  144SOL    HW1  574   1.322   5.036   5.408 -0.2385 -1.2489 -0.1503
  144SOL    HW2  575   1.299   4.957   5.535 -1.7325  1.2821  1.2349
  144SOL     MW  576   1.297   4.963   5.448 -0.3825 -0.5884  1.0143
  145SOL     OW  577   1.798   4.096   4.687  0.7502  0.2730 -0.1370
  145SOL    HW1  578   1.731   4.036   4.653  0.3889  1.6120 -1.9117
  145SOL    HW2  579   1.755   4.143   4.758  0.5267 -0.4147  0.1890
  145SOL     MW  580   1.784   4.094   4.691  0.6753  0.3564 -0.3225
  146SOL     OW  581   3.727   2.665   0.694 -0.1745  0.2276  0.7467
  146SOL    HW1  582   3.682   2.676   0.777  1.2502  1.1811  1.4400
  146SOL    HW2  583   3.707   2.575   0.667  0.5565 -0.6267  2.8822
  146SOL     MW  584   3.719   2.655   0.701  0.1014  0.2403  1.1088
  147SOL     OW  585   3.442   2.455   3.306  0.1381  0.4127  0.1273
  147SOL    HW1  586   3.354   2.449   3.268  0.4094  0.1114 -0.4700
  147SOL    HW2  587   3.438   2.402   3.385  0.4103 -1.5876 -1.1128
  147SOL     MW  588   3.430   2.448   3.311  0.2077  0.1180 -0.1079
  148SOL     OW  589   5.211   2.682   2.921  0.5886 -0.2199  0.0099
  148SOL    HW1  590   5.264   2.658   2.845 -1.9092 -1.9939 -1.3082
  148SOL    HW2  591   5.155   2.753   2.890 -0.2879 -0.7941  0.2511
  148SOL     MW  592   5.211   2.688   2.908  0.1566 -0.5205 -0.1280
  149SOL     OW  593   1.590   3.389   1.694 -0.6451  0.0970 -0.2685
  149SOL    HW1  594   1.650   3.376   1.620 -1.2194 -0.0522 -0.7171
  149SOL    HW2  595   1.646   3.380   1.771 -0.2054 -0.7502 -0.6612
  149SOL     MW  596   1.605   3.386   1.694 -0.6624 -0.0306 -0.3762
  150SOL     OW  597   2.416   5.479   3.465 -0.2291  0.0417 -0.3184
  150SOL    HW1  598   2.422   5.421   3.390 -0.4263 -1.5481  0.8394
  150SOL    HW2  599   2.489   5.453   3.521  0.7365  2.1103 -0.5214
  150SOL     MW  600   2.426   5.468   3.463 -0.1308  0.1030 -0.1961
  151SOL     OW  601   0.574   4.969   3.772 -0.4163  0.8238  0.3644
  151SOL    HW1  602   0.643   4.937   3.714 -0.5623 -1.2424  1.2334
  151SOL    HW2  603   0.614   5.043   3.818  0.1888  1.5443 -1.2542
  151SOL     MW  604   0.588   4.975   3.770 -0.3575  0.6515  0.2684
  152SOL     OW  605   2.833   0.455   4.316  0.0365 -0.1412 -0.1407
  152SOL    HW1  606   2.823   0.517   4.244 -0.3271  0.9849  0.8385
  152SOL    HW2  607   2.896   0.496   4.375 -2.1306  0.6234  1.8080
  152SOL     MW  608   2.839   0.468   4.315 -0.2875  0.1008  0.2341
  153SOL     OW  609   1.156   1.850   3.844  0.2049 -0.0205 -0.0063
  153SOL    HW1  610   1.145   1.815   3.755  0.2268  0.5302 -0.2280
  153SOL    HW2  611   1.194   1.937   3.831  0.5457 -0.0796  0.5593
  153SOL     MW  612   1.160   1.857   3.831  0.2513  0.0424  0.0377
  154SOL     OW  613   3.325   2.644   2.536  0.2980 -0.0534 -0.0674
  154SOL    HW1  614   3.237   2.626   2.502  0.5018  1.1346 -1.3290
  154SOL    HW2  615   3.356   2.560   2.569 -0.7091 -0.8474 -1.0828
  154SOL     MW  616   3.318   2.631   2.536  0.1952 -0.0029 -0.3589
  155SOL     OW  617   2.931   1.702   5.466  0.2490  0.2828 -0.3961
  155SOL    HW1  618   2.838   1.686   5.449  0.8866 -1.8926 -2.3380
  155SOL    HW2  619   2.972   1.616   5.456  2.2712  0.7773  2.3531
  155SOL     MW  620   2.924   1.689   5.463  0.5894  0.0676 -0.2928
  156SOL     OW  621   5.139   2.475   4.108  0.7369  0.5178  0.0042
  156SOL    HW1  622   5.202   2.403   4.109  0.9957  0.7262 -0.7032
  156SOL    HW2  623   5.056   2.434   4.083  1.2755  0.7398 -2.3249
  156SOL     MW  624   5.136   2.460   4.105  0.8390  0.5729 -0.3845
  157SOL     OW  625   2.176   0.628   4.215 -0.1351  0.0683 -0.4575
  157SOL    HW1  626   2.098   0.615   4.269  0.1240 -0.1386 -0.1312
  157SOL    HW2  627   2.231   0.552   4.233  0.6940  0.8238  0.2735
  157SOL     MW  628   2.173   0.617   4.224  0.0042  0.1385 -0.3221
  158SOL     OW  629   0.523   3.190   0.501 -0.0999 -0.2378  0.0192
  158SOL    HW1  630   0.446   3.243   0.480 -0.0105 -0.0453  0.1758
  158SOL    HW2  631   0.503   3.104   0.466 -0.4571 -0.2317  0.2029
  158SOL     MW  632   0.511   3.186   0.494 -0.1342 -0.2124  0.0627
  159SOL     OW  633   0.309   3.280   2.298  0.2314 -0.5071  0.2957
  159SOL    HW1  634   0.401   3.281   2.271  0.3048 -1.4712  0.4515
  159SOL    HW2  635   0.260   3.281   2.216  0.3892 -0.3531  0.2019
  159SOL     MW  636   0.315   3.280   2.284  0.2610 -0.6108  0.3037
  160SOL     OW  637   3.953   4.655   3.343  0.4181 -1.0647 -0.0329
  160SOL    HW1  638   4.015   4.710   3.391  1.0934  0.1289 -2.1518
  160SOL    HW2  639   3.869   4.668   3.388  1.2264 -0.9107  1.4887
  160SOL     MW  640   3.950   4.663   3.355  0.6081 -0.8922 -0.1094
  161SOL     OW  641   3.006   0.628   0.282 -0.2014  0.5339 -0.1795
  161SOL    HW1  642   2.954   0.700   0.249  0.1899  0.2128 -1.5717
  161SOL    HW2  643   3.090   0.635   0.235 -0.2769 -0.9963 -0.6122
  161SOL     MW  644   3.010   0.638   0.272 -0.1610  0.2969 -0.4131
  162SOL     OW  645   1.219   0.081   3.280  0.8322 -0.2964 -0.5562
  162SOL    HW1  646   1.223   0.085   3.185  1.4134 -0.2830 -0.5372
  162SOL    HW2  647   1.255   0.165   3.309 -0.0329  0.0089 -0.3280
  162SOL     MW  648   1.224   0.092   3.272  0.7959 -0.2556 -0.5246
  163SOL     OW  649   1.790   2.058   0.962  0.0132  0.5451  0.4719
  163SOL    HW1  650   1.742   2.127   1.009 -0.3914  1.1989 -0.8635
  163SOL    HW2  651   1.863   2.036   1.020 -1.9674 -0.6682  2.6982
  163SOL     MW  652   1.793   2.064   0.976 -0.2922  0.4734  0.5860
  164SOL     OW  653   3.920   0.341   3.857  0.0925  0.2048 -0.0500
  164SOL    HW1  654   3.997   0.315   3.806  1.0923  0.7473  1.1267
  164SOL    HW2  655   3.951   0.415   3.911 -1.1979  0.3036  0.5920
  164SOL     MW  656   3.934   0.347   3.857  0.0553  0.2869  0.1828
  165SOL     OW  657   3.903   2.917   4.184 -0.4236 -0.1125 -0.4586
  165SOL    HW1  658   3.858   2.991   4.142 -2.0293 -1.6435 -1.5980
  165SOL    HW2  659   3.995   2.942   4.182 -0.7147  1.1017 -2.4668
  165SOL     MW  660   3.909   2.930   4.178 -0.6664 -0.1530 -0.8616
  166SOL     OW  661   2.483   1.228   0.245 -0.4113  0.5407 -0.0281
  166SOL    HW1  662   2.482   1.322   0.227 -1.6397  0.4287 -0.5910
  166SOL    HW2  663   2.403   1.194   0.205 -1.0966 -0.4015  1.9900
  166SOL     MW  664   2.473   1.235   0.238 -0.6562  0.4058  0.1582
  167SOL     OW  665   5.052   1.226   0.374  0.4099 -0.5543  0.0719
  167SOL    HW1  666   5.096   1.203   0.293 -2.2144  1.0372 -1.9920
  167SOL    HW2  667   4.962   1.194   0.363 -0.2441  0.4152  1.9984
  167SOL     MW  668   5.046   1.219   0.362 -0.0097 -0.2265  0.0543
  168SOL     OW  669   3.761   2.520   1.102 -0.2490  0.6705 -0.1654
  168SOL    HW1  670   3.710   2.513   1.182  0.3120  2.4022  0.3943
  168SOL    HW2  671   3.851   2.532   1.132  0.3861 -1.3311 -1.1177
  168SOL     MW  672   3.766   2.521   1.116 -0.0959  0.6360 -0.2156
  169SOL     OW  673   3.214   2.921   2.580 -0.1145  0.3444  0.3277
  169SOL    HW1  674   3.248   3.009   2.562 -0.9282  0.8338  1.0682
  169SOL    HW2  675   3.284   2.879   2.630 -0.3414  1.1467  1.3609
  169SOL     MW  676   3.227   2.927   2.584 -0.2477  0.5097  0.5547
  170SOL     OW  677   2.155   3.742   4.064  0.0044  0.0040  0.0590
  170SOL    HW1  678   2.175   3.768   3.974  2.2552 -0.8334  0.2672
  170SOL    HW2  679   2.154   3.646   4.061 -0.3582 -0.0228  0.8451
  170SOL     MW  680   2.157   3.733   4.052  0.2461 -0.1066  0.1863
  171SOL     OW  681   4.921   0.930   1.735  0.0269  0.3501  0.2551
  171SOL    HW1  682   4.987   0.862   1.737  0.7352  1.0238  0.0885
  171SOL    HW2  683   4.908   0.954   1.827 -0.2520 -0.0353  0.3162
  171SOL     MW  684   4.927   0.924   1.747  0.0819  0.3870  0.2416
  172SOL     OW  685   2.668   0.432   3.067 -0.1040 -0.1611 -0.1885
  172SOL    HW1  686   2.603   0.470   3.008  0.1937  1.5801  0.5508
  172SOL    HW2  687   2.650   0.338   3.064 -0.9718  0.0074 -1.9773
  172SOL     MW  688   2.658   0.425   3.059 -0.1770  0.0834 -0.3228
  173SOL     OW  689   5.152   2.135   3.110  0.0996 -0.3328  0.4089
  173SOL    HW1  690   5.071   2.142   3.159  0.2490 -3.5216  1.3267
  173SOL    HW2  691   5.125   2.117   3.020 -0.1797  0.0749  0.4099
  173SOL     MW  692   5.138   2.134   3.104  0.0829 -0.6888  0.5265
  174SOL     OW  693   4.588   4.437   4.204  0.2543 -0.1428  0.1842
  174SOL    HW1  694   4.663   4.484   4.167  0.1274 -2.0000 -2.7822
  174SOL    HW2  695   4.617   4.346   4.210 -1.0876 -0.5486  1.0703
  174SOL     MW  696   4.601   4.431   4.200  0.0663 -0.4325 -0.0821
  175SOL     OW  697   1.444   0.847   0.983 -0.2107  0.1020  0.2106
  175SOL    HW1  698   1.446   0.767   0.930 -2.7430  0.8389 -1.1716
  175SOL    HW2  699   1.462   0.917   0.920 -1.1840  0.8279  0.7066
  175SOL     MW  700   1.446   0.846   0.968 -0.6595  0.2892  0.0972
  176SOL     OW  701   1.443   4.573   3.566  0.0976 -0.0751 -0.5474
  176SOL    HW1  702   1.483   4.542   3.485  0.2207 -0.3674 -0.3752
  176SOL    HW2  703   1.475   4.663   3.575  0.5006 -0.2173 -0.5499
  176SOL     MW  704   1.452   4.581   3.557  0.1649 -0.1307 -0.5256
  177SOL     OW  705   1.917   2.389   4.101 -0.2078 -0.6946 -0.0553
  177SOL    HW1  706   1.863   2.419   4.174 -0.3355  1.2668 -0.8877
  177SOL    HW2  707   1.893   2.297   4.090  0.8566 -1.5042  3.2337
  177SOL     MW  708   1.907   2.381   4.109 -0.0879 -0.5472  0.2592
  178SOL     OW  709   3.311   2.456   0.489 -0.0842 -0.4599  0.0917
  178SOL    HW1  710   3.379   2.397   0.458  0.2012 -1.3573  2.2890
  178SOL    HW2  711   3.249   2.400   0.535 -0.6440  0.7492  0.8657
  178SOL     MW  712   3.311   2.441   0.491 -0.1193 -0.4200  0.4721
  179SOL     OW  713   4.148   2.280   3.023 -0.3884  0.1691 -0.4474
  179SOL    HW1  714   4.155   2.291   2.928  1.3689  1.0242 -0.2730
  179SOL    HW2  715   4.072   2.224   3.036  1.1018 -2.5771 -2.5367
  179SOL     MW  716   4.139   2.274   3.013  0.0273 -0.0730 -0.6925
  180SOL     OW  717   3.769   1.189   0.995 -0.3235  0.2945  0.4060
  180SOL    HW1  718   3.710   1.236   0.937 -0.3228  0.8850  0.8693
  180SOL    HW2  719   3.785   1.106   0.951  1.3926  1.5275 -1.5122
  180SOL     MW  720   3.764   1.185   0.982 -0.1037  0.5280  0.2197
  181SOL     OW  721   4.698   2.867   2.925 -0.2937  0.4506 -0.7596
  181SOL    HW1  722   4.605   2.889   2.915 -0.5551 -0.0674  0.4044
  181SOL    HW2  723   4.728   2.850   2.836 -1.3357  0.5481 -1.1452
  181SOL     MW  724   4.690   2.868   2.912 -0.4605  0.3968 -0.6600
  182SOL     OW  725   0.478   4.121   4.095  0.0028 -0.3932 -0.1536
  182SOL    HW1  726   0.535   4.090   4.025 -2.1231  1.5779 -2.9505
  182SOL    HW2  727   0.433   4.043   4.127  2.0371 -1.5302  0.1147
  182SOL     MW  728   0.480   4.107   4.090 -0.0089 -0.2864 -0.4773
  183SOL     OW  729   1.974   5.462   4.043  0.4840  1.2373  0.1288
  183SOL    HW1  730   1.956   5.368   4.036  0.1178  1.3690 -0.9839
  183SOL    HW2  731   2.055   5.474   3.993  0.3571  1.5532 -0.0023
  183SOL     MW  732   1.982   5.451   4.035  0.4209  1.2946 -0.0304
  184SOL     OW  733   0.849   2.212   1.556  0.4970  0.1393 -0.3327
  184SOL    HW1  734   0.868   2.168   1.473  2.1927  1.0435 -0.4922
  184SOL    HW2  735   0.904   2.291   1.553  0.4165  0.3020  1.5636
  184SOL     MW  736   0.859   2.217   1.545  0.7038  0.2759 -0.1103
  185SOL     OW  737   3.029   1.628   0.794  0.7951 -0.1932  1.0898
  185SOL    HW1  738   3.011   1.534   0.804 -0.1565 -0.2368 -0.6515
  185SOL    HW2  739   2.942   1.669   0.792  1.1879  0.6781  1.3772
  185SOL     MW  740   3.015   1.621   0.795  0.7236 -0.0872  0.9037
  186SOL     OW  741   4.425   3.902   2.553 -0.0746  0.1090 -0.0316
  186SOL    HW1  742   4.489   3.962   2.589 -1.0353  1.5696 -0.6685
  186SOL    HW2  743   4.348   3.912   2.609 -0.2244 -0.5870 -0.1012
  186SOL     MW  744   4.423   3.911   2.565 -0.2168  0.2068 -0.1220
  187SOL     OW  745   4.627   3.439   4.051 -0.2534  0.0156  0.2222
  187SOL    HW1  746   4.557   3.448   3.986 -0.3894 -0.5616  0.2848
  187SOL    HW2  747   4.592   3.480   4.130 -0.1523  0.5705 -0.0140
  187SOL     MW  748   4.614   3.446   4.053 -0.2579  0.0128  0.2000
  188SOL     OW  749   0.745   4.443   1.715  1.4389 -0.2970  0.2285
  188SOL    HW1  750   0.773   4.384   1.785  0.6304  0.3557  1.1326
  188SOL    HW2  751   0.721   4.385   1.643  0.2413 -1.1416  1.2479
  188SOL     MW  752   0.745   4.428   1.715  1.1821 -0.3216  0.4748
  189SOL     OW  753   2.610   1.123   3.205 -0.1774  0.4262  0.2553
  189SOL    HW1  754   2.664   1.101   3.129 -1.1617 -2.5956  0.3221
  189SOL    HW2  755   2.539   1.177   3.170  0.8843  1.4228 -0.4310
  189SOL     MW  756   2.608   1.127   3.191 -0.1675  0.1670  0.1760
  190SOL     OW  757   1.547   2.147   3.272  0.2059 -0.0640 -0.4207
  190SOL    HW1  758   1.586   2.219   3.222  0.3751  0.6673  0.7283
  190SOL    HW2  759   1.571   2.165   3.363  0.0660 -1.4644 -0.0841
  190SOL     MW  760   1.555   2.159   3.277  0.2096 -0.1496 -0.2305
  191SOL     OW  761   4.015   1.446   1.748  0.0169 -0.5831  0.8787
  191SOL    HW1  762   3.999   1.508   1.819  0.4894 -1.0160  1.3786
  191SOL    HW2  763   3.956   1.373   1.766 -0.5430 -0.2912  0.2882
  191SOL     MW  764   4.006   1.445   1.759  0.0057 -0.6011  0.8671
  192SOL     OW  765   2.433   3.228   1.733  0.9748 -0.3743 -0.1964
  192SOL    HW1  766   2.403   3.206   1.645  2.9424  0.9102 -1.2587
  192SOL    HW2  767   2.509   3.171   1.747  1.0649 -0.1163  0.4236
  192SOL     MW  768   2.439   3.218   1.724  1.2382 -0.1768 -0.2530
  193SOL     OW  769   4.769   3.720   0.382 -0.1824  0.3439  0.0414
  193SOL    HW1  770   4.854   3.746   0.347 -0.6961  0.6060 -1.0348
  193SOL    HW2  771   4.726   3.672   0.311 -1.0299  0.4082  0.4867
  193SOL     MW  772   4.774   3.717   0.368 -0.3566  0.3857 -0.0394
  194SOL     OW  773   4.579   2.345   1.860 -0.1025 -0.4377  0.3642
  194SOL    HW1  774   4.497   2.359   1.908  0.4035  1.1826  0.8154
  194SOL    HW2  775   4.613   2.262   1.894 -0.7473 -0.3092  1.3728
  194SOL     MW  776   4.573   2.336   1.870 -0.1203 -0.2139  0.5510
  195SOL     OW  777   2.004   3.109   0.428  0.6688  0.3142  0.3540
  195SOL    HW1  778   1.947   3.133   0.355  0.7067 -0.7227 -0.0377
  195SOL    HW2  779   1.964   3.150   0.504  0.5808  1.3463 -0.2214
  195SOL     MW  780   1.992   3.117   0.428  0.6624  0.3136  0.2302
  196SOL     OW  781   0.705   0.244   2.446  0.3229 -0.1704  0.5601
  196SOL    HW1  782   0.761   0.247   2.524  0.3382  1.1853  0.5161
  196SOL    HW2  783   0.754   0.292   2.379  0.5708 -1.7949 -0.4961
  196SOL     MW  784   0.719   0.251   2.447  0.3566 -0.2048  0.4193
  197SOL     OW  785   5.305   0.996   1.538 -0.2113 -0.0669 -0.3596
  197SOL    HW1  786   5.372   0.944   1.495  1.0401  0.7390  0.5524
  197SOL    HW2  787   5.244   0.932   1.574  0.4101 -0.8344 -0.6410
  197SOL     MW  788   5.306   0.981   1.537  0.0284 -0.0620 -0.2789
  198SOL     OW  789   5.042   5.057   3.876 -0.4697  0.0124 -0.3186
  198SOL    HW1  790   4.980   5.036   3.945 -1.1392  0.2665 -0.8259
  198SOL    HW2  791   4.987   5.085   3.802  0.1304 -1.4858 -1.4002
  198SOL     MW  792   5.027   5.058   3.875 -0.4786 -0.1469 -0.5220
  199SOL     OW  793   1.469   1.339   0.564  0.0450  0.1110  0.5487
  199SOL    HW1  794   1.475   1.412   0.626  1.9637  0.0202  0.5292
  199SOL    HW2  795   1.506   1.374   0.483  0.7668 -0.8065  0.4714
  199SOL     MW  796   1.475   1.353   0.562  0.3830 -0.0181  0.5363
  200SOL     OW  797   3.202   0.082   2.780  0.3985 -0.2627  0.0234
  200SOL    HW1  798   3.276   0.029   2.812 -0.8844 -1.8197  0.5741
  200SOL    HW2  799   3.186   0.145   2.850  0.1457 -1.0309  0.6738
  200SOL     MW  800   3.210   0.083   2.793  0.2019 -0.5604  0.1772
  201SOL     OW  801   0.649   0.607   3.614  0.5116  0.1252 -0.3644
  201SOL    HW1  802   0.719   0.548   3.642 -0.2011 -0.5438  0.0352
  201SOL    HW2  803   0.593   0.554   3.557  1.2617  1.1272 -2.1144
  201SOL     MW  804   0.651   0.593   3.610  0.5164  0.1679 -0.5373
  202SOL     OW  805   2.854   4.428   4.577  0.2178  0.1650 -0.2141
  202SOL    HW1  806   2.907   4.406   4.500 -0.3666  0.3245 -0.6690
  202SOL    HW2  807   2.889   4.511   4.608  1.0787 -0.3652  0.2675
  202SOL     MW  808   2.865   4.435   4.571  0.2532  0.1175 -0.2107
  203SOL     OW  809   3.563   4.277   0.947  0.1743 -0.0498 -0.4812
  203SOL    HW1  810   3.560   4.187   0.917 -0.2173 -0.0179 -0.5347
  203SOL    HW2  811   3.483   4.289   0.998  0.6074  0.0338  0.1984
  203SOL     MW  812   3.553   4.267   0.950  0.1796 -0.0350 -0.4011
  204SOL     OW  813   0.246   2.100   0.736 -0.1264  0.3265  0.1276
  204SOL    HW1  814   0.157   2.135   0.744 -0.5145 -0.6634  0.1963
  204SOL    HW2  815   0.248   2.026   0.796  0.8365  0.5051  0.3278
  204SOL     MW  816   0.235   2.095   0.745 -0.0528  0.2226  0.1620
  205SOL     OW  817   4.001   4.064   4.878 -0.1381  0.6758  0.7518
  205SOL    HW1  818   4.027   3.998   4.813 -1.8079  0.9498 -0.2663
  205SOL    HW2  819   4.026   4.027   4.962 -0.5082 -1.0239  0.1574
  205SOL     MW  820   4.007   4.051   4.880 -0.3993  0.4933  0.5454
  206SOL     OW  821   2.787   2.572   3.135 -0.1518 -0.4795 -0.0826
  206SOL    HW1  822   2.870   2.566   3.183 -0.8116 -0.4375  1.0949
  206SOL    HW2  823   2.811   2.556   3.044  0.8492 -2.5717  0.4846
  206SOL     MW  824   2.801   2.569   3.130 -0.1081 -0.7420  0.1407
  207SOL     OW  825   2.740   2.715   2.717 -0.3507  0.3437 -0.5294
  207SOL    HW1  826   2.733   2.805   2.687 -1.2086  1.2514  2.0872
  207SOL    HW2  827   2.651   2.680   2.711 -0.4925  0.4724  0.6662
  207SOL     MW  828   2.728   2.722   2.712 -0.4786  0.4764 -0.0414
  208SOL     OW  829   1.084   3.158   0.255 -0.1681 -0.4914 -0.1034
  208SOL    HW1  830   1.168   3.138   0.297 -0.8005  0.2653  1.6070
  208SOL    HW2  831   1.048   3.229   0.307 -0.4889  1.3563 -2.6559
  208SOL     MW  832   1.090   3.165   0.267 -0.2901 -0.1580 -0.2112
  209SOL     OW  833   0.600   2.226   2.266 -0.6370 -0.0081 -0.2406
  209SOL    HW1  834   0.695   2.223   2.257 -0.4369 -1.0451  1.7878
  209SOL    HW2  835   0.567   2.176   2.191  0.3756  0.5773 -1.1038
  209SOL     MW  836   0.608   2.219   2.255 -0.4817 -0.0659 -0.0915
  210SOL     OW  837   1.366   1.539   2.851 -0.2371  0.4201 -0.0561
  210SOL    HW1  838   1.368   1.625   2.808  3.8480 -0.1641 -1.5024
  210SOL    HW2  839   1.441   1.539   2.910  0.2309 -2.2961 -0.4963
  210SOL     MW  840   1.376   1.550   2.853  0.3458 -0.0024 -0.2976
  211SOL     OW  841   1.404   4.586   5.006  0.0842  0.2109  0.0322
  211SOL    HW1  842   1.374   4.596   5.097  0.2473  0.1936  0.0893
  211SOL    HW2  843   1.329   4.551   4.959 -0.1753  0.7512  0.0437
  211SOL     MW  844   1.391   4.583   5.012  0.0719  0.2778  0.0410
  212SOL     OW  845   4.950   1.044   4.760  0.2233  0.0598 -0.0616
  212SOL    HW1  846   5.028   1.038   4.815 -0.4262 -0.4836  0.8322
  212SOL    HW2  847   4.947   0.960   4.714  0.2014  0.1013 -0.1353
  212SOL     MW  848   4.960   1.032   4.761  0.1374 -0.0044  0.0434
  213SOL     OW  849   4.422   3.484   3.849  0.1096  1.0249  0.0174
  213SOL    HW1  850   4.365   3.445   3.915  1.2899  0.6910  0.8641
  213SOL    HW2  851   4.364   3.502   3.775 -0.7085 -1.2570  0.0423
  213SOL     MW  852   4.407   3.482   3.848  0.1559  0.6900  0.1290
  214SOL     OW  853   2.240   2.164   2.280 -0.2750 -0.7527  0.6490
  214SOL    HW1  854   2.188   2.095   2.240 -1.2333 -0.5270  1.4833
  214SOL    HW2  855   2.177   2.219   2.326  0.0508  2.2277 -2.0669
  214SOL     MW  856   2.225   2.162   2.280 -0.3559 -0.3423  0.4082
  215SOL     OW  857   1.725   0.865   0.838  0.2344 -0.1406 -0.0991
  215SOL    HW1  858   1.689   0.951   0.816 -2.1100 -0.7735  0.9034
  215SOL    HW2  859   1.677   0.804   0.782 -1.4183 -1.1547  2.2271
  215SOL     MW  860   1.714   0.868   0.828 -0.2773 -0.3514  0.3270
  216SOL     OW  861   4.769   0.919   3.618 -0.6846  0.1703 -0.1643
  216SOL    HW1  862   4.756   0.986   3.685  1.5935  0.3089  0.2192
  216SOL    HW2  863   4.725   0.842   3.653  0.6111  0.1833  1.6456
  216SOL     MW  864   4.761   0.918   3.631 -0.2271  0.1897  0.1165
  217SOL     OW  865   3.503   3.494   4.481  0.2767 -0.1109  0.2637
  217SOL    HW1  866   3.507   3.417   4.424  0.0510 -1.2790  1.7817
  217SOL    HW2  867   3.576   3.484   4.541  0.4140  1.0245  0.3163
  217SOL     MW  868   3.513   3.483   4.481  0.2654 -0.1151  0.4648
  218SOL     OW  869   2.372   1.476   0.551  0.2249  0.1330  0.3090
  218SOL    HW1  870   2.294   1.453   0.601  0.7941 -2.0668  0.2753
  218SOL    HW2  871   2.421   1.394   0.542  1.3123  0.9244 -1.8316
  218SOL     MW  872   2.369   1.463   0.556  0.4370 -0.0473  0.0306
  219SOL     OW  873   5.195   0.533   5.292 -0.0765 -0.2956 -0.1629
  219SOL    HW1  874   5.223   0.567   5.377  0.2583 -0.1913 -0.3125
  219SOL    HW2  875   5.260   0.567   5.230  0.1597 -1.0481 -0.3386
  219SOL     MW  876   5.207   0.542   5.295 -0.0034 -0.3786 -0.2045
  220SOL     OW  877   0.482   3.012   3.754 -0.1911 -0.0613  0.3238
  220SOL    HW1  878   0.475   3.070   3.678 -1.6315 -1.0814 -0.3800
  220SOL    HW2  879   0.575   3.011   3.775  0.0298  1.4865 -0.4190
  220SOL     MW  880   0.493   3.019   3.747 -0.3472  0.0063  0.1386
  221SOL     OW  881   1.773   2.798   3.754 -0.5411 -0.1527  0.6324
  221SOL    HW1  882   1.790   2.704   3.741  1.3458  0.3451 -1.2550
  221SOL    HW2  883   1.858   2.834   3.778 -1.1477  1.1467  0.8910
  221SOL     MW  884   1.786   2.790   3.755 -0.3772  0.0773  0.4239
  222SOL     OW  885   5.273   0.642   0.071 -0.0944 -0.1051 -0.4734
  222SOL    HW1  886   5.279   0.640   0.167 -0.9469  1.2057 -0.3744
  222SOL    HW2  887   5.344   0.584   0.042  1.0590  0.5265  0.9275
  222SOL     MW  888   5.283   0.634   0.080 -0.0559  0.1436 -0.2814
  223SOL     OW  889   2.369   1.413   2.306  0.7191  0.6171 -0.1753
  223SOL    HW1  890   2.376   1.329   2.353  0.5714  0.2224 -0.8423
  223SOL    HW2  891   2.280   1.443   2.323 -0.5020 -1.1273 -2.7723
  223SOL     MW  892   2.358   1.406   2.314  0.5439  0.3432 -0.5931
  224SOL     OW  893   4.192   1.513   1.000  0.2811  0.2881 -0.2193
  224SOL    HW1  894   4.102   1.488   0.981 -0.7683  2.9927  0.6954
  224SOL    HW2  895   4.220   1.563   0.923  1.0034 -0.4515 -0.4561
  224SOL     MW  896   4.184   1.517   0.988  0.2392  0.5397 -0.1325
  225SOL     OW  897   2.285   4.774   1.613 -0.2361  0.9418 -0.1488
  225SOL    HW1  898   2.346   4.845   1.590 -0.4559  0.7954 -1.2135
  225SOL    HW2  899   2.251   4.799   1.699  1.3978  0.9818  0.5211
  225SOL     MW  900   2.289   4.786   1.621 -0.0551  0.9282 -0.1993
  226SOL     OW  901   1.110   0.754   2.739  0.7468 -0.4888  0.3474
  226SOL    HW1  902   1.143   0.809   2.668  0.3793  1.2894  1.4653
  226SOL    HW2  903   1.018   0.740   2.717  0.7088 -0.1942  0.3064
  226SOL     MW  904   1.102   0.759   2.727  0.6949 -0.2235  0.4852
  227SOL     OW  905   0.270   5.396   0.471 -0.0602  0.1530  0.0747
  227SOL    HW1  906   0.322   5.463   0.515 -1.3098 -0.1761  2.1926
  227SOL    HW2  907   0.190   5.442   0.445 -1.1009 -0.5339  1.9006
  227SOL     MW  908   0.266   5.411   0.473 -0.3534  0.0229  0.5796
  228SOL     OW  909   2.921   1.295   5.130  0.1082  0.1825 -0.5284
  228SOL    HW1  910   2.848   1.343   5.171 -1.2813 -1.4306 -0.9934
  228SOL    HW2  911   2.886   1.265   5.046  1.9324  0.8634 -1.5919
  228SOL     MW  912   2.907   1.297   5.125  0.1638  0.0632 -0.7241
  229SOL     OW  913   5.141   5.045   5.413  0.4230 -0.2662 -0.1524
  229SOL    HW1  914   5.198   5.110   5.372  0.5460 -0.6673 -0.6301
  229SOL    HW2  915   5.201   4.988   5.461  0.3325 -0.1410  0.1114
  229SOL     MW  916   5.156   5.046   5.414  0.4272 -0.3015 -0.1798
  230SOL     OW  917   2.453   2.031   4.155  0.0462  0.1484  0.3054
  230SOL    HW1  918   2.381   2.065   4.209 -0.7305 -0.8140 -0.0916
  230SOL    HW2  919   2.523   2.013   4.218  0.4726  2.3281  0.5456
  230SOL     MW  920   2.453   2.033   4.170  0.0014  0.3042  0.2853
  231SOL     OW  921   3.864   5.345   4.993 -0.2204 -0.1007  0.2465
  231SOL    HW1  922   3.812   5.342   5.073 -1.5148 -0.6340 -0.5837
  231SOL    HW2  923   3.954   5.356   5.023 -0.9264  2.3127  1.6837
  231SOL     MW  924   3.869   5.346   5.007 -0.4765  0.1400  0.3242
  232SOL     OW  925   0.200   3.733   1.425  0.2849 -0.0417  0.0953
  232SOL    HW1  926   0.161   3.663   1.478 -0.2682  1.4808  1.8213
  232SOL    HW2  927   0.235   3.794   1.490  1.5627  0.8522 -1.3786
  232SOL     MW  928   0.199   3.732   1.440  0.3776  0.2677  0.1275
  233SOL     OW  929   3.519   0.687   4.395  0.4980 -0.1210  0.0037
  233SOL    HW1  930   3.555   0.750   4.458 -1.2864 -1.9268  3.1161
  233SOL    HW2  931   3.425   0.689   4.409  0.0236 -0.7712 -2.5852
  233SOL     MW  932   3.512   0.695   4.405  0.2089 -0.4354  0.0707
  234SOL     OW  933   3.268   2.792   1.883 -0.1067 -0.8169  0.0170
  234SOL    HW1  934   3.346   2.846   1.895  0.0243 -0.6802 -1.2929
  234SOL    HW2  935   3.247   2.800   1.790 -0.8518 -1.9907  0.0632
  234SOL     MW  936   3.275   2.800   1.873 -0.1853 -0.9497 -0.1448
  235SOL     OW  937  -0.006   2.045   3.984  0.5320  0.2613  0.8210
  235SOL    HW1  938   0.080   2.087   3.990  0.8022 -0.1582  0.0163
  235SOL    HW2  939  -0.027   2.047   3.891  1.3010 -2.8242  0.4746
  235SOL     MW  940   0.002   2.051   3.973  0.6650 -0.1874  0.6736
  236SOL     OW  941   0.860   0.163   0.513  0.1064  0.4315  0.0546
  236SOL    HW1  942   0.924   0.132   0.577 -1.1421 -0.3875  0.9690
  236SOL    HW2  943   0.874   0.108   0.436  0.5657  0.3252  0.2117
  236SOL     MW  944   0.870   0.152   0.511  0.0054  0.3131  0.1917
  237SOL     OW  945   3.982   3.206   0.621  0.0613  0.2054  0.9936
  237SOL    HW1  946   3.956   3.126   0.666  0.0472  0.1773  0.9351
  237SOL    HW2  947   4.043   3.178   0.553 -0.6212  0.1345  0.3983
  237SOL     MW  948   3.986   3.192   0.618 -0.0279  0.1927  0.9099
  238SOL     OW  949   4.621   3.956   4.286  0.0545  0.4526 -0.4648
  238SOL    HW1  950   4.574   3.899   4.225 -1.4977  1.7844 -0.5841
  238SOL    HW2  951   4.600   3.921   4.373 -1.4903  1.2165 -0.4986
  238SOL     MW  952   4.612   3.944   4.289 -0.3420  0.7209 -0.4844
  239SOL     OW  953   0.173   4.281   1.301  0.3001 -0.1807  0.6907
  239SOL    HW1  954   0.247   4.309   1.355 -0.0684  1.0421  0.5940
  239SOL    HW2  955   0.131   4.212   1.353  0.7795 -0.0129  1.3195
  239SOL     MW  956   0.177   4.276   1.315  0.3143 -0.0027  0.7588
  240SOL     OW  957   2.060   5.414   0.114  0.2853 -0.2071  0.0795
  240SOL    HW1  958   2.028   5.329   0.144  1.4703 -0.5439  0.4057
  240SOL    HW2  959   2.052   5.471   0.191 -2.2671  0.5202 -0.6212
  240SOL     MW  960   2.055   5.410   0.128  0.1102 -0.1571  0.0316
  241SOL     OW  961   2.065   0.949   4.535 -0.2955  0.2723 -0.2172
  241SOL    HW1  962   1.990   1.008   4.527  0.4184  1.2654  0.2146
  241SOL    HW2  963   2.069   0.926   4.627 -0.6304 -0.5464 -0.4002
  241SOL     MW  964   2.056   0.954   4.545 -0.2470  0.2946 -0.1853
  242SOL     OW  965   0.720   3.557   2.448 -0.2822 -0.1415 -0.5313
  242SOL    HW1  966   0.739   3.622   2.516 -0.9651 -0.3291 -0.1448
  242SOL    HW2  967   0.638   3.587   2.409 -1.8115 -1.8972  1.1310
  242SOL     MW  968   0.712   3.569   2.452 -0.5654 -0.3903 -0.2690
  243SOL     OW  969   3.184   0.556   2.815  0.5278  0.5347 -0.0335
  243SOL    HW1  970   3.180   0.464   2.842  0.9051  0.4552 -0.2274
  243SOL    HW2  971   3.213   0.552   2.723  3.4175  0.9046  0.7395
  243SOL     MW  972   3.187   0.544   2.806  0.9460  0.5719  0.0406
  244SOL     OW  973   3.033   5.028   3.282 -0.0850 -0.2505  0.1421
  244SOL    HW1  974   3.006   5.113   3.247 -1.5683 -0.3378  0.9869
  244SOL    HW2  975   3.121   5.043   3.317  0.5146  0.3940 -1.5436
  244SOL     MW  976   3.041   5.041   3.282 -0.1981 -0.1792  0.0345
  245SOL     OW  977   2.620   5.146   4.120 -0.0782  0.1353 -0.0857
  245SOL    HW1  978   2.696   5.089   4.139  0.0181  0.0265 -0.7631
  245SOL    HW2  979   2.574   5.153   4.203 -0.0592 -0.9020  0.0260
  245SOL     MW  980   2.624   5.139   4.133 -0.0635 -0.0114 -0.1581
  246SOL     OW  981   0.930   1.739   4.892  0.2690 -0.0309  0.0656
  246SOL    HW1  982   1.003   1.683   4.917 -0.5636 -1.5607 -0.7789
  246SOL    HW2  983   0.863   1.679   4.860 -2.2120  1.0901  2.6869
  246SOL     MW  984   0.931   1.724   4.891 -0.1552 -0.0832  0.2931
  247SOL     OW  985   1.562   2.678   5.439  0.0239 -0.3946  0.2661
  247SOL    HW1  986   1.556   2.614   5.369 -0.9139 -1.5606  1.3571
  247SOL    HW2  987   1.479   2.672   5.485  1.2445 -0.9834  2.5567
  247SOL     MW  988   1.551   2.669   5.436  0.0601 -0.6193  0.6990
  248SOL     OW  989   4.753   4.001   0.817 -0.4461 -0.0995  0.4753
  248SOL    HW1  990   4.700   4.062   0.868 -1.1824  0.4581 -0.9014
  248SOL    HW2  991   4.839   4.044   0.811 -1.0929  1.0833 -0.8889
  248SOL     MW  992   4.758   4.015   0.823 -0.6232  0.1233  0.1244
  249SOL     OW  993   1.563   1.113   2.238 -0.1461 -0.0075 -0.0753
  249SOL    HW1  994   1.611   1.195   2.229  0.1384 -0.3470 -2.0295
  249SOL    HW2  995   1.560   1.097   2.333  2.9170  0.4500  0.1989
  249SOL     MW  996   1.569   1.121   2.249  0.2824  0.0076 -0.2904
  250SOL     OW  997   5.441   3.718   1.291 -0.2877 -0.0897 -0.8135
  250SOL    HW1  998   5.530   3.722   1.325 -0.5830 -0.6968  0.0693
  250SOL    HW2  999   5.400   3.800   1.320  0.0192  0.2531 -1.3415
  250SOL     MW 1000   5.447   3.729   1.299 -0.2862 -0.1236 -0.7681
  251SOL     OW 1001   1.388   0.047   4.001 -0.2687  0.8821  0.0785
  251SOL    HW1 1002   1.384  -0.041   4.040  1.6164  0.6049 -0.2602
  251SOL    HW2 1003   1.308   0.053   3.949  0.0997 -1.1088 -0.8363
  251SOL     MW 1004   1.377   0.036   4.000  0.0198  0.5917 -0.0819
  252SOL     OW 1005   4.702   2.417   4.910 -0.0305 -0.5723 -0.5027
  252SOL    HW1 1006   4.776   2.357   4.919  2.9248  2.8572  0.2128
  252SOL    HW2 1007   4.698   2.436   4.817  2.5298  1.9204 -0.2231
  252SOL     MW 1008   4.711   2.411   4.900  0.6755  0.1858 -0.3753
  253SOL     OW 1009   0.017   1.067   0.636  0.2073 -0.1913  0.7107
  253SOL    HW1 1010   0.084   1.005   0.608  1.6269  1.6413 -0.2500
  253SOL    HW2 1011   0.054   1.153   0.613 -1.8884  0.9762  1.4490
  253SOL     MW 1012   0.030   1.070   0.629  0.1208  0.1927  0.6822
  254SOL     OW 1013   4.879   4.403   1.964 -0.0306  0.5088  0.0009
  254SOL    HW1 1014   4.971   4.378   1.963 -0.4736 -1.2889 -1.5288
  254SOL    HW2 1015   4.866   4.452   1.883 -0.3776  0.9386  0.3104
  254SOL     MW 1016   4.889   4.406   1.953 -0.1317  0.3337 -0.1553
  255SOL     OW 1017   1.996   0.895   4.797 -0.5331 -0.3042  0.2810
  255SOL    HW1 1018   2.076   0.851   4.825 -0.8281 -0.0914  1.5016
  255SOL    HW2 1019   1.998   0.980   4.841 -0.3172  0.6541 -1.5025
  255SOL     MW 1020   2.007   0.900   4.806 -0.5432 -0.1543  0.2090
  256SOL     OW 1021   4.067   1.487   1.472  0.0679  0.4357 -0.2663
  256SOL    HW1 1022   4.055   1.461   1.563  0.2501  0.9443 -0.0919
  256SOL    HW2 1023   3.980   1.482   1.433  0.2562 -1.4423 -0.5186
  256SOL     MW 1024   4.055   1.483   1.478  0.1153  0.2604 -0.2763
  257SOL     OW 1025   2.601   3.870   3.905 -0.2556  0.3348  0.8372
  257SOL    HW1 1026   2.513   3.899   3.880 -0.3632 -0.6236  0.0187
  257SOL    HW2 1027   2.601   3.776   3.887  1.7181  0.6942 -1.6966
  257SOL     MW 1028   2.590   3.862   3.899 -0.0167  0.2581  0.4081
  258SOL     OW 1029   1.535   1.666   2.472  0.2316 -0.3970  0.5817
  258SOL    HW1 1030   1.628   1.686   2.478  0.1073  0.0018  1.2836
  258SOL    HW2 1031   1.492   1.751   2.462 -0.0879 -0.5457  0.6741
  258SOL     MW 1032   1.542   1.679   2.471  0.1748 -0.3650  0.6834
  259SOL     OW 1033   2.877   2.386   1.403 -0.1828  0.0890  0.4994
  259SOL    HW1 1034   2.968   2.399   1.378 -0.0328 -1.1185  0.3701
  259SOL    HW2 1035   2.875   2.403   1.497  0.8105 -2.7414  1.1171
  259SOL     MW 1036   2.888   2.390   1.412 -0.0365 -0.4279  0.5619
  260SOL     OW 1037   3.472   4.890   1.632 -0.4616 -0.1013  0.1488
  260SOL    HW1 1038   3.510   4.894   1.720  1.1092  3.3388 -0.5204
  260SOL    HW2 1039   3.398   4.951   1.634 -0.0013  0.5398 -1.0254
  260SOL     MW 1040   3.468   4.898   1.644 -0.2016  0.4211 -0.0872
  261SOL     OW 1041   4.319   5.312   3.136  0.7015 -0.1832 -0.4293
  261SOL    HW1 1042   4.255   5.258   3.089 -2.0509  0.8027  1.8553
  261SOL    HW2 1043   4.339   5.262   3.215 -0.2046  1.0859  0.6583
  261SOL     MW 1044   4.313   5.298   3.140  0.2332  0.1054  0.0024
  262SOL     OW 1045   1.105   5.481   4.633 -0.1865  0.7993 -0.0210
  262SOL    HW1 1046   1.116   5.481   4.728  0.7607  0.6193 -0.1205
  262SOL    HW2 1047   1.054   5.402   4.615  0.1161  0.5248  0.2954
  262SOL     MW 1048   1.100   5.471   4.643 -0.0265  0.7411  0.0068
  263SOL     OW 1049   4.517   0.879   1.296  0.1668  0.3687  0.0727
  263SOL    HW1 1050   4.500   0.967   1.262 -3.6528 -0.5486 -0.9171
  263SOL    HW2 1051   4.550   0.893   1.385  0.3104  2.7617 -0.2945
  263SOL     MW 1052   4.519   0.892   1.303 -0.3038  0.5576 -0.1010
  264SOL     OW 1053   0.898   4.156   5.128 -0.2488  0.3865  0.0484
  264SOL    HW1 1054   0.831   4.090   5.143 -0.5698  0.2072 -1.8463
  264SOL    HW2 1055   0.880   4.224   5.193 -2.7298  0.6597 -0.8146
  264SOL     MW 1056   0.887   4.156   5.138 -0.6075  0.3985 -0.3046
  265SOL     OW 1057   1.909   3.873   5.285 -0.5930  0.3300 -0.3447
  265SOL    HW1 1058   1.953   3.813   5.346  0.6091 -0.2531 -1.7437
  265SOL    HW2 1059   1.817   3.872   5.313 -0.1545 -0.2424  1.1842
  265SOL     MW 1060   1.903   3.865   5.297 -0.3830  0.1821 -0.3280
  266SOL     OW 1061   2.211   5.031   1.858  0.5525  0.7763 -1.0551
  266SOL    HW1 1062   2.214   5.112   1.910  3.5368  0.2282 -0.1851
  266SOL    HW2 1063   2.142   5.047   1.793 -1.7230  2.4173  1.5398
  266SOL     MW 1064   2.203   5.044   1.856  0.6432  0.9162 -0.6116
  267SOL     OW 1065   1.758   4.778   0.179  0.2076  0.0999 -0.4252
  267SOL    HW1 1066   1.702   4.701   0.169  0.6304 -0.3453  0.4779
  267SOL    HW2 1067   1.848   4.744   0.172  0.3891  0.7250 -1.3470
  267SOL     MW 1068   1.763   4.764   0.177  0.2850  0.1229 -0.4276
  268SOL     OW 1069   0.431   0.760   0.984 -0.0443  0.3448 -0.5825
  268SOL    HW1 1070   0.357   0.703   1.007  0.3365 -0.2744 -0.8604
  268SOL    HW2 1071   0.401   0.808   0.907 -0.9451  1.6784  0.5342
  268SOL     MW 1072   0.417   0.759   0.977 -0.1108  0.4362 -0.4751
  269SOL     OW 1073   4.112   0.283   4.675 -0.8515 -0.2879 -0.2205
  269SOL    HW1 1074   4.176   0.324   4.617 -0.3691 -0.9925 -0.1982
  269SOL    HW2 1075   4.106   0.343   4.750  0.4902 -0.6629  0.2135
  269SOL     MW 1076   4.120   0.296   4.677 -0.6180 -0.4261 -0.1621
  270SOL     OW 1077   0.942   1.303   3.590 -0.3158 -0.1603  0.2335
  270SOL    HW1 1078   0.863   1.251   3.601  0.5771 -1.3299  1.5132
  270SOL    HW2 1079   0.929   1.379   3.646 -1.3234  0.6712 -1.0819
  270SOL     MW 1080   0.930   1.306   3.598 -0.3305 -0.2036  0.2289
  271SOL     OW 1081   3.376   5.144   0.236  0.1497  0.1835 -0.2358
  271SOL    HW1 1082   3.284   5.163   0.222 -0.6590 -2.5841  0.7750
  271SOL    HW2 1083   3.399   5.084   0.165  1.0370  0.4050 -0.1536
  271SOL     MW 1084   3.367   5.139   0.225  0.1597 -0.1424 -0.0959
  272SOL     OW 1085   2.355   0.153   3.048  0.1539 -0.9819 -0.2210
  272SOL    HW1 1086   2.283   0.097   3.077 -0.5506 -0.5219 -1.0223
  272SOL    HW2 1087   2.313   0.238   3.029  0.4912 -1.2813 -2.7148
  272SOL     MW 1088   2.340   0.157   3.049  0.1069 -0.9614 -0.6428
  273SOL     OW 1089   5.193   0.875   2.058 -0.5519 -0.3006 -0.2590
  273SOL    HW1 1090   5.181   0.807   1.992 -0.6403 -0.2912 -0.2523
  273SOL    HW2 1091   5.128   0.855   2.125 -1.7311  0.7725 -1.0552
  273SOL     MW 1092   5.183   0.864   2.058 -0.7142 -0.1620 -0.3601
  274SOL     OW 1093   2.168   1.861   2.488 -0.1627 -0.3658 -0.3868
  274SOL    HW1 1094   2.089   1.908   2.463  0.2935 -0.3113 -1.8393
  274SOL    HW2 1095   2.148   1.769   2.470  0.3929 -0.2609 -1.6914
  274SOL     MW 1096   2.155   1.855   2.482 -0.0332 -0.3454 -0.7397
  275SOL     OW 1097   3.144   5.174   5.381 -0.3446  0.3562 -0.4766
  275SOL    HW1 1098   3.128   5.259   5.423 -0.2866  0.1103  0.0532
  275SOL    HW2 1099   3.058   5.145   5.351 -0.1312  1.4034 -2.2393
  275SOL     MW 1100   3.131   5.181   5.383 -0.3099  0.4588 -0.6344
  276SOL     OW 1101   3.249   1.373   2.908 -0.1854 -0.3731 -0.0628
  276SOL    HW1 1102   3.208   1.458   2.894  0.3961 -0.1408 -0.3708
  276SOL    HW2 1103   3.340   1.393   2.930  0.3514 -0.9554 -1.5863
  276SOL     MW 1104   3.256   1.386   2.909 -0.0422 -0.4179 -0.2972
  277SOL     OW 1105   0.290   4.379   3.568 -0.1876 -0.0273 -0.1979
  277SOL    HW1 1106   0.339   4.427   3.635 -2.1976  2.9452 -0.6497
  277SOL    HW2 1107   0.305   4.428   3.488  0.5062 -2.3347 -1.5588
  277SOL     MW 1108   0.298   4.391   3.567 -0.3561  0.0578 -0.4299
  278SOL     OW 1109   2.101   3.230   3.992 -0.2215  0.4432 -0.0092
  278SOL    HW1 1110   2.192   3.219   3.963  0.5632  1.8312  1.7563
  278SOL    HW2 1111   2.070   3.140   4.005  0.8878 -0.0599 -0.6087
  278SOL     MW 1112   2.109   3.217   3.990  0.0209  0.5565  0.1401
  279SOL     OW 1113   2.365   0.235   4.537 -0.2421 -0.0399 -0.3107
  279SOL    HW1 1114   2.362   0.260   4.629  0.2525  0.1073 -0.3309
  279SOL    HW2 1115   2.274   0.216   4.514 -0.4422  0.4629  0.0606
  279SOL     MW 1116   2.353   0.236   4.546 -0.2044  0.0433 -0.2658
  280SOL     OW 1117   2.636   0.406   1.507  0.4723 -0.0118 -0.5990
  280SOL    HW1 1118   2.601   0.346   1.441 -0.4499  0.1653 -0.2868
  280SOL    HW2 1119   2.705   0.454   1.462  0.9655 -1.0278 -0.9639
  280SOL     MW 1120   2.641   0.405   1.493  0.4174 -0.1192 -0.6058
  281SOL     OW 1121   1.987   3.409   5.409 -0.0831  0.3506 -0.4810
  281SOL    HW1 1122   1.906   3.366   5.438 -0.3865  0.9949 -0.3482
  281SOL    HW2 1123   1.966   3.502   5.412  0.7557  0.5347 -0.1886
  281SOL     MW 1124   1.974   3.415   5.413 -0.0146  0.4567 -0.4266
  282SOL     OW 1125   0.419   3.265   1.558 -0.1171  0.3527 -0.0688
  282SOL    HW1 1126   0.401   3.293   1.647  0.1190 -0.7348  0.3315
  282SOL    HW2 1127   0.346   3.208   1.535  0.9353 -1.2310  0.2943
  282SOL     MW 1128   0.407   3.261   1.566  0.0478  0.0108  0.0289
  283SOL     OW 1129   4.612   1.037   3.846  0.7377  0.5616  0.1545
  283SOL    HW1 1130   4.594   1.131   3.842  0.7237  0.7373  2.6210
  283SOL    HW2 1131   4.684   1.029   3.908 -0.3583 -1.1500  1.3006
  283SOL     MW 1132   4.619   1.048   3.853  0.5956  0.3650  0.6170
  284SOL     OW 1133   0.453   3.129   5.140  0.6482  0.0451 -0.3549
  284SOL    HW1 1134   0.534   3.095   5.179  0.4026 -0.3391 -0.1785
  284SOL    HW2 1135   0.394   3.141   5.214  0.0664 -1.0062 -0.6344
  284SOL     MW 1136   0.456   3.126   5.154  0.5423 -0.1387 -0.3681
  285SOL     OW 1137   1.495   5.015   5.009 -0.2904 -0.6128 -0.2382
  285SOL    HW1 1138   1.569   5.061   4.968 -0.5642  1.3205  1.3022
  285SOL    HW2 1139   1.533   4.974   5.086 -0.3686 -1.7613 -0.7852
  285SOL     MW 1140   1.510   5.016   5.013 -0.3355 -0.5123 -0.1110
  286SOL     OW 1141   3.120   0.612   1.423  1.1175 -0.6915  0.3406
  286SOL    HW1 1142   3.125   0.695   1.471 -0.8756  0.3056 -1.0275
  286SOL    HW2 1143   3.183   0.555   1.467  1.1362  0.9126  2.5666
  286SOL     MW 1144   3.129   0.615   1.435  0.8647 -0.3585  0.4505
  287SOL     OW 1145   4.550   4.339   5.105 -0.1793 -0.2296  0.5806
  287SOL    HW1 1146   4.493   4.385   5.043  2.3064 -0.0301 -1.6797
  287SOL    HW2 1147   4.595   4.273   5.053  2.5363  0.4028  1.9469
  287SOL     MW 1148   4.548   4.336   5.091  0.4866 -0.1231  0.4661
  288SOL     OW 1149   3.634   0.161   3.544 -0.1944  0.0076 -0.4720
  288SOL    HW1 1150   3.646   0.219   3.619 -0.8987  0.1037 -0.4223
  288SOL    HW2 1151   3.570   0.096   3.574  1.2077 -1.3238 -0.2476
  288SOL     MW 1152   3.627   0.160   3.557 -0.1051 -0.1505 -0.4369
  289SOL     OW 1153   0.183   1.507   5.060 -0.0927  0.6525  0.5249
  289SOL    HW1 1154   0.118   1.438   5.043  0.8624 -0.1408 -0.0225
  289SOL    HW2 1155   0.179   1.563   4.983 -0.1022  0.5811  0.4735
  289SOL     MW 1156   0.174   1.505   5.048  0.0284  0.5418  0.4482
  290SOL     OW 1157   5.219   4.574   3.275 -0.3306 -0.4956  0.5391
  290SOL    HW1 1158   5.291   4.538   3.328 -1.3196 -0.9201  1.6446
  290SOL    HW2 1159   5.239   4.547   3.186  1.1791 -0.1170  0.7391
  290SOL     MW 1160   5.231   4.566   3.271 -0.2640 -0.5014  0.7062
  291SOL     OW 1161   0.374   4.747   0.026 -0.0361 -0.4166 -0.2466
  291SOL    HW1 1162   0.323   4.799  -0.036 -0.4161 -0.0561  0.3573
  291SOL    HW2 1163   0.310   4.719   0.092  0.7528  1.1935  1.2769
  291SOL     MW 1164   0.359   4.750   0.027  0.0162 -0.1644  0.0257
  292SOL     OW 1165   2.115   1.144   0.659 -0.5071 -0.3391 -0.3478
  292SOL    HW1 1166   2.067   1.169   0.737 -1.5241 -0.5970 -0.8708
  292SOL    HW2 1167   2.054   1.160   0.587  0.5460  0.2770 -1.1341
  292SOL     MW 1168   2.101   1.149   0.660 -0.5024 -0.2932 -0.5154
  293SOL     OW 1169   0.721   1.761   2.761 -0.1914  0.4100 -0.3375
  293SOL    HW1 1170   0.647   1.821   2.776  0.7765  1.8676 -1.1149
  293SOL    HW2 1171   0.794   1.819   2.740  0.7907 -1.0724 -1.1553
  293SOL     MW 1172   0.721   1.776   2.760  0.0582  0.4068 -0.5417
  294SOL     OW 1173   5.042   2.152   2.211  0.1218  0.0635 -0.1286
  294SOL    HW1 1174   4.991   2.072   2.194  1.0198 -0.6220  0.3490
  294SOL    HW2 1175   5.049   2.194   2.125  0.4407 -0.8478 -0.5627
  294SOL     MW 1176   5.036   2.147   2.198  0.2776 -0.1409 -0.1231
  295SOL     OW 1177   1.975   4.893   4.104 -0.4270 -0.3512  0.3124
  295SOL    HW1 1178   1.942   4.982   4.097 -0.9899 -0.4171  1.7659
  295SOL    HW2 1179   1.907   4.838   4.066  0.3192 -0.1237 -1.4282
  295SOL     MW 1180   1.962   4.897   4.099 -0.4035 -0.3305  0.2757
  296SOL     OW 1181   4.088   3.454   5.286  0.6268  1.2342  0.0493
  296SOL    HW1 1182   4.025   3.490   5.348 -0.2728  1.0602 -0.7395
  296SOL    HW2 1183   4.056   3.366   5.268  1.0579  1.1661 -0.4151
  296SOL     MW 1184   4.076   3.447   5.292  0.5668  1.2032 -0.1111
  297SOL     OW 1185   1.169   1.350   5.244  0.3800 -0.5480  0.4022
  297SOL    HW1 1186   1.207   1.330   5.158 -2.2002  0.6333 -1.1395
  297SOL    HW2 1187   1.207   1.435   5.267 -1.0596  0.5487 -1.0446
  297SOL     MW 1188   1.179   1.358   5.236 -0.1346 -0.2564  0.0196
  298SOL     OW 1189   4.722   0.545   4.852 -0.0990 -0.1902  0.3485
  298SOL    HW1 1190   4.794   0.605   4.832 -0.1096  0.3337  1.7295
  298SOL    HW2 1191   4.674   0.589   4.922 -1.0999 -1.0594  0.2325
  298SOL     MW 1192   4.725   0.559   4.859 -0.2285 -0.2344  0.5104
  299SOL     OW 1193   4.170   5.277   1.891 -0.0150 -0.1038  0.0846
  299SOL    HW1 1194   4.153   5.183   1.888  2.1418 -0.5023 -1.8571
  299SOL    HW2 1195   4.086   5.316   1.866 -0.9709 -1.4758  0.9849
  299SOL     MW 1196   4.157   5.270   1.887  0.1387 -0.3304 -0.0487
  300SOL     OW 1197   0.948   4.605   2.033  0.6217  0.7724 -0.6044
  300SOL    HW1 1198   0.899   4.677   1.994 -0.6027 -0.1678 -0.8450
  300SOL    HW2 1199   0.885   4.559   2.089  0.5609 -1.7256 -2.5436
  300SOL     MW 1200   0.934   4.608   2.035  0.4572  0.3322 -0.8835
  301SOL     OW 1201   3.776   1.746   0.623 -0.3126 -0.1826  0.0233
  301SOL    HW1 1202   3.871   1.754   0.618 -0.1631 -2.1614 -1.4430
  301SOL    HW2 1203   3.743   1.817   0.568  0.3172  0.0474 -0.0655
  301SOL     MW 1204   3.784   1.756   0.615 -0.2129 -0.4065 -0.1758
  302SOL     OW 1205   0.892   2.176   1.825 -0.7248 -0.2468  0.2550
  302SOL    HW1 1206   0.983   2.207   1.821 -0.8812  0.3948  1.2434
  302SOL    HW2 1207   0.860   2.184   1.735  0.5644 -1.6805 -0.3626
  302SOL     MW 1208   0.900   2.181   1.813 -0.5798 -0.3482  0.3024
  303SOL     OW 1209   0.474   0.474   3.467  0.4066 -0.5502 -0.4002
  303SOL    HW1 1210   0.458   0.387   3.503 -1.5939 -1.1669 -2.5638
  303SOL    HW2 1211   0.553   0.463   3.414  0.6047 -0.8427 -0.0503
  303SOL     MW 1212   0.482   0.462   3.465  0.1758 -0.6666 -0.6324
  304SOL     OW 1213   1.288   0.234   0.617  0.6021 -0.1122 -0.3479
  304SOL    HW1 1214   1.254   0.323   0.608 -4.1722 -1.8322 -3.2925
  304SOL    HW2 1215   1.317   0.210   0.529  1.1078 -1.7223  0.2322
  304SOL     MW 1216   1.287   0.242   0.605  0.0556 -0.5385 -0.6506
  305SOL     OW 1217   3.385   4.473   2.589  0.1870 -0.2777  0.1857
  305SOL    HW1 1218   3.356   4.449   2.678 -0.6668  0.0798  0.0126
  305SOL    HW2 1219   3.448   4.406   2.566 -0.4194 -1.0176  0.6322
  305SOL     MW 1220   3.389   4.462   2.598  0.0000 -0.3267  0.2207
  306SOL     OW 1221   4.528   2.234   4.015  0.5379 -0.3714 -0.9265
  306SOL    HW1 1222   4.571   2.278   4.089 -0.5853 -0.9097  0.0724
  306SOL    HW2 1223   4.473   2.302   3.976 -1.4864 -0.8874  0.8469
  306SOL     MW 1224   4.527   2.249   4.020  0.1350 -0.5063 -0.5716
  307SOL     OW 1225   0.047   1.121   1.233 -0.0754 -0.1962  0.0453
  307SOL    HW1 1226   0.134   1.122   1.272 -0.2826 -1.0927  0.5668
  307SOL    HW2 1227  -0.008   1.168   1.295 -0.2776 -1.0661  0.5445
  307SOL     MW 1228   0.051   1.127   1.246 -0.1278 -0.4223  0.1760
  308SOL     OW 1229   4.233   0.666   2.859 -1.0859 -0.0885  0.2894
  308SOL    HW1 1230   4.315   0.624   2.832 -0.9893 -2.1678  3.4174
  308SOL    HW2 1231   4.180   0.668   2.779  0.5074 -2.4219 -0.9328
  308SOL     MW 1232   4.237   0.661   2.845 -0.8696 -0.6533  0.5334
  309SOL     OW 1233   3.615   4.388   0.700  0.1669 -0.4796  0.0139
  309SOL    HW1 1234   3.593   4.365   0.791  0.0752  1.8404  0.6546
  309SOL    HW2 1235   3.677   4.321   0.673 -0.7430 -1.9463  1.3501
  309SOL     MW 1236   3.620   4.376   0.708  0.0387 -0.3704  0.2670
  310SOL     OW 1237   2.187   1.143   5.391 -0.2085  0.1188 -0.3901
  310SOL    HW1 1238   2.232   1.108   5.314  0.1697  0.7017 -0.4443
  310SOL    HW2 1239   2.095   1.123   5.377  0.1464 -2.4368  0.4098
  310SOL     MW 1240   2.181   1.136   5.379 -0.1147 -0.1337 -0.2946
  311SOL     OW 1241   4.668   2.492   2.317  0.3791  0.4191  0.3543
  311SOL    HW1 1242   4.695   2.410   2.276 -1.0743  0.2237 -0.2712
  311SOL    HW2 1243   4.714   2.494   2.400 -0.9593 -1.9410  1.2481
  311SOL     MW 1244   4.677   2.482   2.322  0.0217  0.0920  0.3886
  312SOL     OW 1245   4.892   2.982   1.785  0.1847  0.3987 -0.3294
  312SOL    HW1 1246   4.979   3.005   1.752  0.3973 -1.8346 -1.5489
  312SOL    HW2 1247   4.834   2.991   1.710 -0.0699 -0.9128 -0.3197
  312SOL     MW 1248   4.896   2.986   1.771  0.1793 -0.0551 -0.4843
  313SOL     OW 1249   1.786   4.081   2.174  0.3844  0.0400 -0.4826
  313SOL    HW1 1250   1.738   4.102   2.254  0.4441  0.4321 -0.5474
  313SOL    HW2 1251   1.878   4.095   2.197  0.3933  0.2670 -0.6518
  313SOL     MW 1252   1.791   4.086   2.187  0.3932  0.1192 -0.5125
  314SOL     OW 1253   1.930   2.412   2.804 -0.0604 -0.5198 -0.0973
  314SOL    HW1 1254   1.937   2.348   2.733 -0.3793 -0.3976 -0.2412
  314SOL    HW2 1255   1.971   2.491   2.768  1.0443 -0.8737  0.3652
  314SOL     MW 1256   1.936   2.414   2.790  0.0402 -0.5495 -0.0565
  315SOL     OW 1257   1.312   4.645   1.369  0.0399  0.3452  0.0580
  315SOL    HW1 1258   1.407   4.655   1.360  0.1802 -0.4677  0.4984
  315SOL    HW2 1259   1.299   4.632   1.463 -0.2301 -2.0057 -0.2344
  315SOL     MW 1260   1.323   4.645   1.380  0.0233 -0.0598  0.0769
  316SOL     OW 1261   1.190   2.092   1.734 -0.2788 -0.3585  0.2713
  316SOL    HW1 1262   1.168   2.003   1.708  0.8642 -0.2541 -1.2430
  316SOL    HW2 1263   1.203   2.138   1.651 -1.0994  1.2990  1.0095
  316SOL     MW 1264   1.189   2.087   1.720 -0.2375 -0.1329  0.1720
  317SOL     OW 1265   1.816   3.660   4.855 -0.1333  0.0710  0.0202
  317SOL    HW1 1266   1.744   3.600   4.878  0.3244 -1.1737 -1.6091
  317SOL    HW2 1267   1.775   3.746   4.853 -1.2745 -0.4333  0.4674
  317SOL     MW 1268   1.802   3.663   4.857 -0.2208 -0.1529 -0.1311
  318SOL     OW 1269   0.825   3.538   4.626 -0.1557  0.0010 -0.1621
  318SOL    HW1 1270   0.762   3.486   4.577 -1.0151 -0.2424  1.1455
  318SOL    HW2 1271   0.805   3.520   4.718  0.4840  1.5050  0.3084
  318SOL     MW 1272   0.814   3.529   4.632 -0.1838  0.1624  0.0655
  319SOL     OW 1273   2.307   2.079   0.980  0.2091  0.1663 -0.0094
  319SOL    HW1 1274   2.256   2.159   0.994 -3.0238 -1.6512 -0.2887
  319SOL    HW2 1275   2.321   2.076   0.885  1.1714  0.8078  0.0967
  319SOL     MW 1276   2.302   2.089   0.970 -0.0816  0.0158 -0.0315
  320SOL     OW 1277   3.082   2.229   2.389  0.1448  0.2802 -0.6127
  320SOL    HW1 1278   3.070   2.271   2.303  0.2518  1.2939 -0.1430
  320SOL    HW2 1279   3.001   2.245   2.436 -0.0776 -0.6420 -0.6613
  320SOL     MW 1280   3.070   2.236   2.384  0.1300  0.2920 -0.5588
  321SOL     OW 1281   4.643   4.805   3.429  0.6650 -0.0255  0.0313
  321SOL    HW1 1282   4.625   4.826   3.520  0.2115  1.4406 -0.3817
  321SOL    HW2 1283   4.646   4.889   3.384  0.9559 -0.7126 -1.3056
  321SOL     MW 1284   4.641   4.818   3.435  0.6441  0.0742 -0.1927
  322SOL     OW 1285   4.897   2.268   4.603 -0.5322  0.3570  1.1020
  322SOL    HW1 1286   4.989   2.288   4.582 -0.4206 -0.1533  1.0816
  322SOL    HW2 1287   4.859   2.352   4.626 -0.6264  0.9700 -1.0459
  322SOL     MW 1288   4.904   2.281   4.603 -0.5300  0.3701  0.8244
  323SOL     OW 1289   0.667   2.944   3.481 -0.1551 -0.3838 -0.3536
  323SOL    HW1 1290   0.590   3.000   3.484 -0.8231 -1.0262 -2.8120
  323SOL    HW2 1291   0.645   2.869   3.536 -0.8995 -0.0951 -0.2459
  323SOL     MW 1292   0.655   2.942   3.488 -0.3359 -0.4290 -0.6545
  324SOL     OW 1293   5.214   3.382   4.174  0.1646 -0.2688 -0.2108
  324SOL    HW1 1294   5.239   3.306   4.121  0.7697  0.4237 -0.9480
  324SOL    HW2 1295   5.127   3.406   4.142  0.0846 -0.4827 -0.1588
  324SOL     MW 1296   5.206   3.375   4.163  0.2318 -0.2075 -0.2985
  325SOL     OW 1297   0.382   4.961   2.947 -0.3890  0.1054 -0.2701
  325SOL    HW1 1298   0.391   4.927   3.036 -2.0716  0.7753  0.2007
  325SOL    HW2 1299   0.384   5.056   2.958 -0.4395  0.1926 -0.9629
  325SOL     MW 1300   0.383   4.969   2.960 -0.6108  0.2023 -0.2985
  326SOL     OW 1301   2.097   5.453   3.152  0.3426  0.4579 -0.1392
  326SOL    HW1 1302   2.008   5.431   3.124  0.8807 -1.0031 -0.7871
  326SOL    HW2 1303   2.137   5.368   3.175  1.4914  1.1106  0.3642
  326SOL     MW 1304   2.091   5.439   3.152  0.5586  0.3544 -0.1577
  327SOL     OW 1305   1.044   4.062   2.720  0.3875 -0.2092  0.1234
  327SOL    HW1 1306   1.015   4.153   2.716  3.1894  0.7615 -0.6057
  327SOL    HW2 1307   0.988   4.016   2.658 -0.3322  1.2614 -0.3735
  327SOL     MW 1308   1.033   4.068   2.712  0.6541  0.1033 -0.0335
  328SOL     OW 1309   3.864   0.921   0.530 -0.5445  0.1668  0.5031
  328SOL    HW1 1310   3.929   0.938   0.598  0.0041  0.4400 -0.0789
  328SOL    HW2 1311   3.883   0.832   0.501 -1.5332 -0.3977  1.5072
  328SOL     MW 1312   3.875   0.912   0.535 -0.6008  0.1295  0.5571
  329SOL     OW 1313   5.442   3.510   4.107  0.2967 -0.2894  0.4399
  329SOL    HW1 1314   5.516   3.475   4.157  0.3876 -0.3607  0.2570
  329SOL    HW2 1315   5.365   3.486   4.158  0.4589  0.5851  1.0987
  329SOL     MW 1316   5.441   3.502   4.120  0.3291 -0.1865  0.5008
  330SOL     OW 1317   1.474   1.334   1.886 -0.6580 -0.7406  0.8186
  330SOL    HW1 1318   1.382   1.336   1.913 -0.2986  0.0157  2.1149
  330SOL    HW2 1319   1.516   1.400   1.942  0.7033 -1.2057  0.3789
  330SOL     MW 1320   1.468   1.343   1.897 -0.4377 -0.7034  0.9283
  331SOL     OW 1321   2.756   1.757   0.290 -0.0407 -0.0140 -0.4138
  331SOL    HW1 1322   2.773   1.667   0.262  2.9299 -0.5167  2.3663
  331SOL    HW2 1323   2.794   1.811   0.222 -0.7028 -0.8868 -1.5053
  331SOL     MW 1324   2.763   1.752   0.278  0.2548 -0.1901 -0.1976
  332SOL     OW 1325   4.304   3.511   4.279 -0.0177 -0.7520 -0.0187
  332SOL    HW1 1326   4.279   3.552   4.361 -1.6924 -0.4878 -0.6246
  332SOL    HW2 1327   4.277   3.419   4.288 -0.4851 -0.6555 -0.3670
  332SOL     MW 1328   4.297   3.504   4.290 -0.2919 -0.7058 -0.1408
  333SOL     OW 1329   3.263   0.408   1.117  0.6703  0.0501  0.0928
  333SOL    HW1 1330   3.220   0.371   1.040  0.8618  2.9559 -1.5508
  333SOL    HW2 1331   3.354   0.420   1.090  1.0208  0.0066  1.2177
  333SOL     MW 1332   3.269   0.405   1.104  0.7397  0.4165  0.0264
  334SOL     OW 1333   4.273   3.930   4.888 -0.1973  0.1558  0.5309
  334SOL    HW1 1334   4.306   3.888   4.808 -3.2336 -0.8857 -0.2864
  334SOL    HW2 1335   4.297   3.870   4.958 -0.0420 -0.3574  0.0441
  334SOL     MW 1336   4.281   3.917   4.886 -0.5661 -0.0432  0.3639
  335SOL     OW 1337   2.644   1.633   5.006  0.0130  0.2971 -0.0046
  335SOL    HW1 1338   2.585   1.704   5.030  0.4741  0.6523  0.0873
  335SOL    HW2 1339   2.677   1.657   4.919  2.2969  1.6210  1.1511
  335SOL     MW 1340   2.641   1.645   4.998  0.3644  0.5120  0.1551
  336SOL     OW 1341   4.614   0.686   5.054  0.0196 -0.4622  0.0577
  336SOL    HW1 1342   4.633   0.773   5.018  0.2055 -1.0793 -1.3707
  336SOL    HW2 1343   4.523   0.691   5.083 -0.2340 -0.0427 -0.7942
  336SOL     MW 1344   4.605   0.698   5.053  0.0109 -0.4875 -0.2342
  337SOL     OW 1345   1.940   2.738   2.708 -0.0382 -0.5283  0.2936
  337SOL    HW1 1346   1.858   2.746   2.757  0.1916 -2.3380  1.0740
  337SOL    HW2 1347   2.003   2.789   2.759 -0.5227  0.3268  0.0544
  337SOL     MW 1348   1.938   2.745   2.721 -0.0708 -0.6505  0.3629
  338SOL     OW 1349   2.270   2.542   1.453  0.3157  0.1979 -0.3777
  338SOL    HW1 1350   2.219   2.605   1.505  0.7194 -0.8094  1.3446
  338SOL    HW2 1351   2.358   2.547   1.489  0.8495  0.1090 -1.6258
  338SOL     MW 1352   2.275   2.550   1.464  0.4357  0.0576 -0.3170
  339SOL     OW 1353   3.407   2.728   4.291 -0.6139 -0.5057  0.3543
  339SOL    HW1 1354   3.481   2.733   4.351  0.9252 -0.9000 -1.4228
  339SOL    HW2 1355   3.330   2.739   4.347  0.7771  0.3602  2.2093
  339SOL     MW 1356   3.406   2.730   4.306 -0.2388 -0.4453  0.3642
  340SOL     OW 1357   1.474   1.387   1.138  0.1431 -0.3558  0.6202
  340SOL    HW1 1358   1.437   1.449   1.075 -0.5821  0.0566  1.4305
  340SOL    HW2 1359   1.568   1.406   1.138  0.0393  0.1936  0.2570
  340SOL     MW 1360   1.481   1.398   1.130  0.0369 -0.2327  0.6775
  341SOL     OW 1361   5.077   2.729   0.247  0.3523 -0.1801 -0.3381
  341SOL    HW1 1362   5.111   2.795   0.187 -0.5365  0.8595  0.2536
  341SOL    HW2 1363   5.129   2.740   0.327  0.9833 -0.9992 -0.6292
  341SOL     MW 1364   5.088   2.739   0.250  0.3193 -0.1519 -0.2996
  342SOL     OW 1365   4.129   3.922   4.035 -0.1782  0.1972  0.0663
  342SOL    HW1 1366   4.129   3.827   4.038 -0.4131  0.1700 -0.5332
  342SOL    HW2 1367   4.156   3.950   4.122  2.4812 -0.4348 -0.4677
  342SOL     MW 1368   4.132   3.914   4.046  0.1321  0.1128 -0.0788
  343SOL     OW 1369   0.246   4.660   0.778 -0.6986  0.0029  0.5865
  343SOL    HW1 1370   0.259   4.659   0.684 -0.6943 -0.2242  0.5889
  343SOL    HW2 1371   0.301   4.732   0.810  0.5772 -0.9383  0.6032
  343SOL     MW 1372   0.255   4.669   0.770 -0.5347 -0.1466  0.5889
  344SOL     OW 1373   5.052   3.787   5.387  0.2272 -0.4221 -0.0775
  344SOL    HW1 1374   5.137   3.755   5.356  0.3023 -1.4758  1.1434
  344SOL    HW2 1375   5.072   3.869   5.432  0.4637 -0.1937 -0.5953
  344SOL     MW 1376   5.065   3.794   5.389  0.2671 -0.5277  0.0125
  345SOL     OW 1377   0.650   1.541   3.688  0.3124  0.4812  0.2965
  345SOL    HW1 1378   0.609   1.457   3.708  1.8446 -0.5447 -0.7075
  345SOL    HW2 1379   0.699   1.526   3.608  2.4177  1.7120  1.2733
  345SOL     MW 1380   0.651   1.528   3.680  0.7781  0.5074  0.2931
  346SOL     OW 1381   2.979   4.357   4.349  0.0909 -0.0216  0.3222
  346SOL    HW1 1382   2.896   4.323   4.314  1.4461 -0.8780 -2.3693
  346SOL    HW2 1383   2.994   4.437   4.300 -0.7079  2.1023  3.2615
  346SOL     MW 1384   2.970   4.363   4.338  0.1621  0.1406  0.3539
  347SOL     OW 1385   1.767   0.414   2.833  0.0532 -0.3443  0.1507
  347SOL    HW1 1386   1.793   0.473   2.762  0.8094 -0.7648  0.0679
  347SOL    HW2 1387   1.690   0.368   2.799 -0.0600  0.0205 -0.0912
  347SOL     MW 1388   1.761   0.416   2.820  0.1355 -0.3514  0.1091
  348SOL     OW 1389   3.124   1.170   1.614  0.2183 -0.0406 -0.3765
  348SOL    HW1 1390   3.197   1.132   1.564  1.7750  2.7367 -0.4147
  348SOL    HW2 1391   3.051   1.173   1.552  1.4334  1.2309 -1.8194
  348SOL     MW 1392   3.124   1.165   1.599  0.5731  0.4777 -0.5661
  349SOL     OW 1393   4.596   0.572   2.402 -0.5016  0.2742 -0.1579
  349SOL    HW1 1394   4.686   0.581   2.370 -0.2903 -1.5920 -0.1846
  349SOL    HW2 1395   4.561   0.662   2.400  0.9984  0.8843 -1.1651
  349SOL     MW 1396   4.603   0.585   2.397 -0.2825  0.1134 -0.2903
  350SOL     OW 1397   3.385   4.958   0.415  0.1977  0.2858 -0.6205
  350SOL    HW1 1398   3.404   5.042   0.374  0.6796 -0.0259 -1.0411
  350SOL    HW2 1399   3.378   4.978   0.508 -1.4405  1.0986 -0.8757
  350SOL     MW 1400   3.386   4.971   0.422  0.0497  0.3500 -0.7070
  351SOL     OW 1401   5.090   5.379   0.627 -0.4485  0.3022  0.8876
  351SOL    HW1 1402   5.110   5.374   0.533  3.1858  0.3997  1.5187
  351SOL    HW2 1403   5.075   5.288   0.653  0.5516  0.0309  0.5513
  351SOL     MW 1404   5.090   5.367   0.618  0.1447  0.2800  0.9253
  352SOL     OW 1405   3.041   1.446   5.470 -0.8709 -0.3363  0.3657
  352SOL    HW1 1406   3.059   1.460   5.377 -0.1838 -1.9934  0.2147
  352SOL    HW2 1407   3.125   1.418   5.506 -1.5623 -1.5753  1.0752
  352SOL     MW 1408   3.054   1.445   5.463 -0.8715 -0.7070  0.4372
  353SOL     OW 1409   4.764   4.371   4.517 -0.3430  0.3443 -0.3252
  353SOL    HW1 1410   4.670   4.374   4.500 -0.6514  0.0953  1.1964
  353SOL    HW2 1411   4.798   4.308   4.454 -0.9782  1.3358 -1.7175
  353SOL     MW 1412   4.756   4.363   4.507 -0.4638  0.4394 -0.3087
  354SOL     OW 1413   4.956   0.547   5.121 -0.0017 -0.9766  0.1229
  354SOL    HW1 1414   5.027   0.547   5.185  0.2682 -0.5643 -0.1739
  354SOL    HW2 1415   4.893   0.610   5.154  1.3273  1.2081 -1.3064
  354SOL     MW 1416   4.957   0.555   5.133  0.2030 -0.6441 -0.0981
  355SOL     OW 1417   4.542   3.453   5.470 -0.0545 -0.3011 -0.5465
  355SOL    HW1 1418   4.625   3.428   5.429  0.3721  0.0257  0.0990
  355SOL    HW2 1419   4.487   3.482   5.398  1.3627  2.1698 -0.7380
  355SOL     MW 1420   4.546   3.454   5.456  0.1815  0.0570 -0.4884
  356SOL     OW 1421   3.727   0.640   0.569 -0.5750 -0.0530 -0.2610
  356SOL    HW1 1422   3.684   0.663   0.486  1.6957  0.0579 -1.4776
  356SOL    HW2 1423   3.708   0.713   0.627 -1.7106  0.1489 -0.8508
  356SOL     MW 1424   3.719   0.652   0.566 -0.4297 -0.0130 -0.4922
  357SOL     OW 1425   4.925   2.115   3.275  0.6178  0.0188 -0.0010
  357SOL    HW1 1426   4.851   2.056   3.292  1.0795 -0.5934 -0.0627
  357SOL    HW2 1427   4.907   2.192   3.328  0.7810 -0.8280  1.3487
  357SOL     MW 1428   4.914   2.117   3.284  0.6978 -0.1679  0.1639
  358SOL     OW 1429   1.664   3.005   3.950 -0.1149 -0.7231  0.1216
  358SOL    HW1 1430   1.705   3.026   4.034 -2.6453  0.1635  1.2622
  358SOL    HW2 1431   1.713   2.930   3.917  1.6940 -0.3786  1.8113
  358SOL     MW 1432   1.675   2.998   3.957 -0.2072 -0.5655  0.4839
  359SOL     OW 1433   3.912   2.371   1.891  0.1348 -0.0804 -0.3118
  359SOL    HW1 1434   3.899   2.438   1.824 -0.6280  0.0587 -0.0407
  359SOL    HW2 1435   4.005   2.349   1.886  0.5230  1.3714 -0.0704
  359SOL     MW 1436   3.922   2.377   1.882  0.0869  0.1232 -0.2462
  360SOL     OW 1437   4.673   5.382   0.928 -0.5431 -0.1456  0.1336
  360SOL    HW1 1438   4.664   5.417   0.839 -0.0469 -1.6561 -0.5625
  360SOL    HW2 1439   4.724   5.447   0.975  1.4442 -0.4621 -1.4554
  360SOL     MW 1440   4.678   5.395   0.923 -0.2252 -0.3795 -0.1589
  361SOL     OW 1441   0.843   2.614   2.877 -0.2015 -0.3708 -0.3936
  361SOL    HW1 1442   0.864   2.695   2.831  1.4380 -0.5165  0.0295
  361SOL    HW2 1443   0.888   2.622   2.961 -1.7857 -0.8197  0.5479
  361SOL     MW 1444   0.851   2.625   2.882 -0.1944 -0.4469 -0.2189
  362SOL     OW 1445   1.784   5.071   4.831  0.7278 -0.6976 -0.3974
  362SOL    HW1 1446   1.878   5.079   4.851  0.2946 -0.0060  1.5412
  362SOL    HW2 1447   1.769   5.134   4.761  1.3272  0.7268  0.7259
  362SOL     MW 1448   1.794   5.080   4.825  0.7491 -0.4267 -0.0054
  363SOL     OW 1449   1.371   3.461   1.157  0.5164  0.2618 -0.0021
  363SOL    HW1 1450   1.365   3.381   1.106  1.6852  0.9634 -1.3364
  363SOL    HW2 1451   1.328   3.441   1.240  0.5980 -1.6577 -0.3848
  363SOL     MW 1452   1.365   3.449   1.161  0.6765  0.1059 -0.2219
  364SOL     OW 1453   5.317   5.134   0.330 -0.5105  0.0460 -0.2472
  364SOL    HW1 1454   5.291   5.043   0.315 -0.3135 -0.2272  0.9518
  364SOL    HW2 1455   5.347   5.135   0.421  1.5415  0.8189 -0.8742
  364SOL     MW 1456   5.318   5.122   0.340 -0.2226  0.1100 -0.1739
  365SOL     OW 1457   3.470   3.397   2.320  0.0773 -0.0278 -0.2300
  365SOL    HW1 1458   3.412   3.458   2.273  0.9536  0.9744 -0.0360
  365SOL    HW2 1459   3.410   3.337   2.364 -0.7898 -0.2082 -1.5785
  365SOL     MW 1460   3.455   3.397   2.319  0.0785  0.0774 -0.3778
  366SOL     OW 1461   2.323   3.982   1.701 -0.2898  0.6747  1.0385
  366SOL    HW1 1462   2.394   3.955   1.759 -0.5611 -1.4972  0.4691
  366SOL    HW2 1463   2.244   3.945   1.741 -0.9578  1.9952  1.0076
  366SOL     MW 1464   2.322   3.974   1.714 -0.4100  0.5657  0.9617
  367SOL     OW 1465   1.341   3.778   4.359 -0.0227 -0.3377 -0.5454
  367SOL    HW1 1466   1.264   3.746   4.405  0.0377  2.1230  1.5416
  367SOL    HW2 1467   1.413   3.723   4.390 -0.2312  0.3750  1.3353
  367SOL     MW 1468   1.340   3.767   4.369 -0.0417  0.0685 -0.0375
  368SOL     OW 1469   2.990   4.550   3.163  0.2716  0.6616  0.1736
  368SOL    HW1 1470   2.974   4.638   3.196 -0.9039  0.2195  0.8482
  368SOL    HW2 1471   2.915   4.499   3.192  0.0551 -0.1788 -1.6756
  368SOL     MW 1472   2.979   4.555   3.171  0.0934  0.4974  0.0232
  369SOL     OW 1473   0.366   0.765   5.051  0.3817  0.0559 -0.0085
  369SOL    HW1 1474   0.288   0.806   5.012  0.3652 -0.3898 -0.4636
  369SOL    HW2 1475   0.364   0.675   5.017  0.1248 -0.4862  1.3975
  369SOL     MW 1476   0.356   0.759   5.041  0.3467 -0.0705  0.1133
  370SOL     OW 1477   0.326   4.280   5.425  0.7456  0.0658 -0.4283
  370SOL    HW1 1478   0.372   4.196   5.428 -0.3187 -0.5408 -0.6215
  370SOL    HW2 1479   0.319   4.300   5.331 -1.6696 -1.1804 -0.5937
  370SOL     MW 1480   0.331   4.272   5.413  0.3001 -0.1714 -0.4742
  371SOL     OW 1481   0.562   4.925   1.851  0.5346  0.2857  0.1862
  371SOL    HW1 1482   0.549   5.005   1.903 -2.6972  0.1055 -0.1540
  371SOL    HW2 1483   0.499   4.863   1.887  0.4524 -0.9094 -1.8777
  371SOL     MW 1484   0.553   4.928   1.863  0.1104  0.1097 -0.1215
  372SOL     OW 1485   1.995   0.716   1.973  0.0737  0.3561  0.1650
  372SOL    HW1 1486   1.921   0.722   1.912 -0.9656  0.2892  1.3694
  372SOL    HW2 1487   2.069   0.691   1.919 -0.8667  0.0975 -1.0405
  372SOL     MW 1488   1.995   0.714   1.959 -0.1798  0.3144  0.1648
  373SOL     OW 1489   2.382   3.236   2.125 -0.0484 -1.1245  0.0719
  373SOL    HW1 1490   2.430   3.310   2.089 -0.4870 -0.8896 -0.0475
  373SOL    HW2 1491   2.353   3.187   2.048 -0.7026 -0.8061  0.1084
  373SOL     MW 1492   2.384   3.239   2.111 -0.1883 -1.0537  0.0613
  374SOL     OW 1493   1.014   3.682   0.778 -0.0874 -0.4908  0.2572
  374SOL    HW1 1494   1.109   3.687   0.792 -0.3492  0.2354  2.0831
  374SOL    HW2 1495   0.977   3.731   0.851 -1.7756  2.9933 -2.6381
  374SOL     MW 1496   1.021   3.689   0.789 -0.3371  0.0482  0.1203
  375SOL     OW 1497   4.768   0.702   1.794 -0.6193 -0.1708 -0.3186
  375SOL    HW1 1498   4.817   0.689   1.875  2.6394 -2.1877 -2.3553
  375SOL    HW2 1499   4.775   0.795   1.776  1.6969 -0.2141  0.0548
  375SOL     MW 1500   4.775   0.712   1.802  0.0944 -0.4346 -0.5315
  376SOL     OW 1501   1.794   0.051   4.294  0.1434 -0.6324 -0.2428
  376SOL    HW1 1502   1.874   0.036   4.244  1.0376 -1.6195  1.4033
  376SOL    HW2 1503   1.766   0.138   4.268  1.5805 -0.3902 -1.0905
  376SOL     MW 1504   1.801   0.060   4.285  0.4419 -0.7278 -0.1406
  377SOL     OW 1505   2.144   3.882   1.903 -0.0107 -0.1611 -0.3320
  377SOL    HW1 1506   2.102   3.837   1.976 -2.2787  1.8522 -0.3020
  377SOL    HW2 1507   2.231   3.905   1.936 -0.9705  0.6895  1.7938
  377SOL     MW 1508   2.150   3.879   1.916 -0.4239  0.2055 -0.0560
  378SOL     OW 1509   4.235   2.939   3.240 -0.5238  0.1271 -0.0739
  378SOL    HW1 1510   4.234   2.977   3.152  0.0660 -2.5719 -1.3847
  378SOL    HW2 1511   4.154   2.889   3.245  0.0256 -0.7429  0.3999
  378SOL     MW 1512   4.225   2.937   3.229 -0.3780 -0.3298 -0.1810
  379SOL     OW 1513   2.078   3.975   0.679  0.1724 -0.1009 -0.7457
  379SOL    HW1 1514   2.078   4.011   0.590  1.1292 -0.2452 -0.8228
  379SOL    HW2 1515   2.171   3.961   0.698  0.1142  1.4233  0.8995
  379SOL     MW 1516   2.090   3.978   0.670  0.2874  0.0758 -0.5449
  380SOL     OW 1517   1.988   4.321   0.475 -0.2699 -0.5350  0.0273
  380SOL    HW1 1518   1.985   4.416   0.481  0.7590 -0.5298  0.6365
  380SOL    HW2 1519   1.950   4.290   0.557 -2.0201 -0.6896 -0.8005
  380SOL     MW 1520   1.983   4.329   0.487 -0.3622 -0.5541 -0.0007
  381SOL     OW 1521   3.737   4.534   2.385  0.5158 -0.3797  0.0526
  381SOL    HW1 1522   3.682   4.539   2.464 -1.8011 -0.6107 -1.4245
  381SOL    HW2 1523   3.674   4.534   2.313  2.5470 -0.1486 -1.8199
  381SOL     MW 1524   3.722   4.534   2.386  0.4792 -0.3797 -0.3762
  382SOL     OW 1525   2.662   3.790   0.917 -0.0596 -0.1612  0.2688
  382SOL    HW1 1526   2.742   3.760   0.873 -0.3623 -0.7522  0.0993
  382SOL    HW2 1527   2.614   3.837   0.849 -0.4111 -0.8579  0.0242
  382SOL     MW 1528   2.666   3.792   0.902 -0.1434 -0.3260  0.2158
  383SOL     OW 1529   0.036   4.526   2.405 -0.0925  0.0249  0.1563
  383SOL    HW1 1530   0.076   4.602   2.364 -0.4283  0.2759  0.2891
  383SOL    HW2 1531  -0.053   4.524   2.371 -0.2808  0.0631  0.6402
  383SOL     MW 1532   0.030   4.535   2.395 -0.1596  0.0620  0.2352
  384SOL     OW 1533   3.730   3.104   0.017 -0.3586  0.0760  0.2270
  384SOL    HW1 1534   3.702   3.013   0.021  0.6068 -0.1896  1.6668
  384SOL    HW2 1535   3.755   3.125   0.107  0.9703  1.2669 -0.3909
  384SOL     MW 1536   3.730   3.095   0.029 -0.0649  0.1944  0.3322
  385SOL     OW 1537   1.430   2.969   1.093 -0.0420  0.3515  0.9088
  385SOL    HW1 1538   1.354   2.913   1.106 -0.1160  0.1194 -0.3655
  385SOL    HW2 1539   1.404   3.029   1.023  0.0260  2.0369  2.2745
  385SOL     MW 1540   1.417   2.970   1.086 -0.0428  0.5376  0.9205
  386SOL     OW 1541   5.407   5.042   4.999 -0.4537 -0.8683 -0.0319
  386SOL    HW1 1542   5.447   5.129   4.994 -1.0815 -0.5577  0.2010
  386SOL    HW2 1543   5.468   4.985   4.953 -0.0612 -0.2937 -0.2396
  386SOL     MW 1544   5.420   5.046   4.992 -0.4838 -0.7550 -0.0287
  387SOL     OW 1545   4.858   4.234   1.446 -0.0422 -0.3923 -0.4420
  387SOL    HW1 1546   4.894   4.270   1.365  0.7444  0.2629  0.1726
  387SOL    HW2 1547   4.909   4.155   1.462  0.4841  0.0085 -0.0858
  387SOL     MW 1548   4.869   4.229   1.438  0.1259 -0.2571 -0.3178
  388SOL     OW 1549   1.315   4.293   0.614 -0.0066  0.2755 -0.6899
  388SOL    HW1 1550   1.342   4.300   0.705  0.9755  3.1870 -1.0910
  388SOL    HW2 1551   1.395   4.269   0.567 -0.2266 -0.0461 -0.8970
  388SOL     MW 1552   1.329   4.291   0.619  0.0910  0.6070 -0.7678
  389SOL     OW 1553   4.545   2.874   3.745 -0.2269  0.2493  0.3960
  389SOL    HW1 1554   4.604   2.867   3.820  0.9367 -1.6327 -0.6212
  389SOL    HW2 1555   4.577   2.951   3.697 -1.0663  1.5539  1.8376
  389SOL     MW 1556   4.557   2.883   3.748 -0.1854  0.1754  0.4503
  390SOL     OW 1557   1.605   3.901   3.724 -0.6007 -0.1268 -0.6288
  390SOL    HW1 1558   1.530   3.885   3.667  0.1671 -0.5888 -1.5373
  390SOL    HW2 1559   1.574   3.968   3.786 -0.8771  1.9432 -2.8307
  390SOL     MW 1560   1.592   3.908   3.725 -0.5378  0.0791 -1.0270
  391SOL     OW 1561   2.041   4.012   4.736 -0.1526  0.0006 -0.2267
  391SOL    HW1 1562   2.026   3.939   4.796 -0.7308  1.8374  1.9736
  391SOL    HW2 1563   1.954   4.048   4.719  0.2923  1.4654  0.4503
  391SOL     MW 1564   2.028   4.007   4.741 -0.1696  0.4233  0.1416
  392SOL     OW 1565   0.072   4.898   3.359 -0.4420  0.1803  0.9118
  392SOL    HW1 1566   0.107   4.985   3.340 -0.8097 -0.3181 -2.7369
  392SOL    HW2 1567  -0.018   4.901   3.325 -0.7604 -1.3753  1.5551
  392SOL     MW 1568   0.065   4.910   3.352 -0.5299 -0.0826  0.5271
  393SOL     OW 1569   0.197   0.417   2.084 -0.3162  0.5804  0.1059
  393SOL    HW1 1570   0.197   0.495   2.029  0.0896  1.0955  0.8194
  393SOL    HW2 1571   0.286   0.383   2.079 -0.4945  0.1477 -0.2135
  393SOL     MW 1572   0.208   0.422   2.076 -0.2871  0.5910  0.1563
  394SOL     OW 1573   2.383   2.104   0.711 -0.0698  0.3472 -0.2833
  394SOL    HW1 1574   2.395   2.178   0.652 -0.8433  0.1538 -0.6865
  394SOL    HW2 1575   2.399   2.027   0.657  0.6159  0.2062  0.1078
  394SOL     MW 1576   2.387   2.104   0.697 -0.0810  0.3044 -0.2849
  395SOL     OW 1577   4.998   0.596   3.635 -0.3509  0.3509  0.4061
  395SOL    HW1 1578   4.961   0.640   3.558 -0.8408 -0.3970  0.2061
  395SOL    HW2 1579   5.081   0.641   3.651 -1.0622  1.6978  0.5101
  395SOL     MW 1580   5.004   0.608   3.627 -0.5047  0.4276  0.3938
  396SOL     OW 1581   0.933   0.724   3.663 -0.5229 -0.5038  0.0138
  396SOL    HW1 1582   0.976   0.641   3.683  0.8428  0.1215 -0.2103
  396SOL    HW2 1583   1.005   0.787   3.655 -1.4278  0.4417 -1.0652
  396SOL     MW 1584   0.948   0.721   3.664 -0.4639 -0.3028 -0.1530
  397SOL     OW 1585   1.504   4.333   1.521 -0.4503  0.3730 -0.4756
  397SOL    HW1 1586   1.542   4.256   1.478  1.2354  0.3461  0.8979
  397SOL    HW2 1587   1.442   4.296   1.584 -0.5459  0.2055 -0.6676
  397SOL     MW 1588   1.501   4.318   1.524 -0.2468  0.3481 -0.3243
  398SOL     OW 1589   4.537   0.157   4.056  0.0088  0.1104 -0.2102
  398SOL    HW1 1590   4.453   0.203   4.056 -1.0711 -1.7153 -0.8445
  398SOL    HW2 1591   4.594   0.210   4.001 -0.9214  1.0747 -0.2715
  398SOL     MW 1592   4.534   0.170   4.049 -0.2485  0.0001 -0.2992
  399SOL     OW 1593   5.306   2.594   0.861 -0.3571  0.1364 -0.4780
  399SOL    HW1 1594   5.334   2.524   0.802  1.1505  0.3492 -0.0675
  399SOL    HW2 1595   5.222   2.564   0.896  0.2656 -1.4805 -0.2751
  399SOL     MW 1596   5.299   2.581   0.858 -0.0844 -0.0434 -0.3995
  400SOL     OW 1597   3.569   3.099   3.593  0.0205  0.7283 -0.1483
  400SOL    HW1 1598   3.504   3.168   3.588  0.6394  1.4860  1.5931
  400SOL    HW2 1599   3.611   3.111   3.678  1.4765 -0.5983 -0.6245
  400SOL     MW 1600   3.566   3.109   3.603  0.2861  0.6554  0.0137
  401SOL     OW 1601   3.376   2.500   5.158  0.5191 -0.0339 -0.4564
  401SOL    HW1 1602   3.403   2.512   5.249 -0.5450 -1.9602  0.1644
  401SOL    HW2 1603   3.303   2.561   5.147 -0.0438 -0.5304  0.3454
  401SOL     MW 1604   3.370   2.509   5.169  0.3108 -0.3440 -0.2743
  402SOL     OW 1605   0.574   1.829   1.831 -0.6307 -0.4276  0.5069
  402SOL    HW1 1606   0.625   1.896   1.786 -0.8110 -0.5103  0.1786
  402SOL    HW2 1607   0.592   1.844   1.924 -0.6702  0.0782  0.4355
  402SOL     MW 1608   0.583   1.840   1.837 -0.6588 -0.3734  0.4558
  403SOL     OW 1609   0.684   4.802   5.175 -0.0218  0.0562 -0.2671
  403SOL    HW1 1610   0.606   4.759   5.209  0.7804 -0.5548  0.8457
  403SOL    HW2 1611   0.731   4.832   5.252  0.2649  1.4851 -0.9689
  403SOL     MW 1612   0.680   4.800   5.189  0.1176  0.1609 -0.2145
  404SOL     OW 1613   0.195   2.887   0.582  0.3964  0.3723 -0.1946
  404SOL    HW1 1614   0.168   2.978   0.571 -0.2194  0.1725 -0.3396
  404SOL    HW2 1615   0.258   2.890   0.654  2.6089  1.3433 -2.0013
  404SOL     MW 1616   0.200   2.899   0.590  0.6008  0.4710 -0.4444
  405SOL     OW 1617   1.632   1.710   3.387  0.2123 -0.0349 -0.3410
  405SOL    HW1 1618   1.557   1.666   3.426  0.4561  0.8864  1.2543
  405SOL    HW2 1619   1.611   1.715   3.294 -1.0418 -1.0555 -0.1420
  405SOL     MW 1620   1.620   1.705   3.380  0.0830 -0.0476 -0.1113
  406SOL     OW 1621   5.039   5.101   1.918  0.9079  0.2523 -0.1165
  406SOL    HW1 1622   5.056   5.194   1.900  3.1272  0.0924  0.7897
  406SOL    HW2 1623   4.950   5.086   1.886  0.5557  2.6430 -0.4459
  406SOL     MW 1624   5.030   5.111   1.912  1.1469  0.5378 -0.0426
  407SOL     OW 1625   2.163   2.278   5.359 -0.6514  0.1224 -0.2400
  407SOL    HW1 1626   2.148   2.229   5.439  0.2794 -0.2102 -0.2568
  407SOL    HW2 1627   2.213   2.355   5.386 -0.2495 -0.0399 -0.5090
  407SOL     MW 1628   2.168   2.282   5.372 -0.4808  0.0590 -0.2766
  408SOL     OW 1629   4.269   1.488   1.715  0.2900 -0.6697 -0.2575
  408SOL    HW1 1630   4.176   1.470   1.722  0.3208 -0.8583 -0.3246
  408SOL    HW2 1631   4.289   1.477   1.622  0.6860 -2.1564 -0.0165
  408SOL     MW 1632   4.260   1.485   1.704  0.3446 -0.8842 -0.2353
  409SOL     OW 1633   2.828   2.223   0.317 -0.2733 -0.3288 -0.1078
  409SOL    HW1 1634   2.761   2.179   0.369 -0.7243  0.7028  0.2227
  409SOL    HW2 1635   2.911   2.185   0.347 -0.6183 -0.6481  0.4521
  409SOL     MW 1636   2.830   2.213   0.328 -0.3752 -0.2376  0.0062
  410SOL     OW 1637   1.154  -0.001   0.531 -0.4382 -0.0641  0.4828
  410SOL    HW1 1638   1.168   0.088   0.564  0.3758  0.0423 -0.0895
  410SOL    HW2 1639   1.236  -0.021   0.485 -0.3917 -1.3250  1.0838
  410SOL     MW 1640   1.167   0.008   0.529 -0.3281 -0.2119  0.4865
  411SOL     OW 1641   1.454   0.601   4.215  0.2742 -0.6248 -0.1134
  411SOL    HW1 1642   1.397   0.549   4.158 -0.3239 -0.5010  0.3710
  411SOL    HW2 1643   1.397   0.667   4.253 -0.2820 -2.9037  3.5202
  411SOL     MW 1644   1.439   0.603   4.212  0.1265 -0.9007  0.4137
  412SOL     OW 1645   3.163   1.630   3.699  0.2334  0.3063 -0.5286
  412SOL    HW1 1646   3.138   1.621   3.607  0.6245  0.6305 -0.6690
  412SOL    HW2 1647   3.182   1.540   3.727 -0.3132  0.1534 -0.6360
  412SOL     MW 1648   3.162   1.617   3.691  0.2135  0.3282 -0.5603
  413SOL     OW 1649   2.022   2.651   1.560 -0.3415 -0.1637  0.2886
  413SOL    HW1 1650   2.025   2.574   1.503  0.7848  1.0257 -1.3602
  413SOL    HW2 1651   1.987   2.720   1.505  2.3587  1.4519  0.4041
  413SOL     MW 1652   2.018   2.650   1.546  0.1484  0.1954  0.0923
  414SOL     OW 1653   4.551   0.363   1.658  0.0205 -0.1555  0.0320
  414SOL    HW1 1654   4.503   0.431   1.610 -0.1654 -0.2151  0.1340
  414SOL    HW2 1655   4.639   0.365   1.620 -0.0713 -0.0703 -0.1804
  414SOL     MW 1656   4.556   0.372   1.647 -0.0151 -0.1522  0.0178
  415SOL     OW 1657   0.766   3.149   0.738 -0.1190  0.5404  0.3199
  415SOL    HW1 1658   0.712   3.081   0.698 -0.7704  0.7427  0.8168
  415SOL    HW2 1659   0.734   3.154   0.829  2.2055 -0.8305  1.2739
  415SOL     MW 1660   0.755   3.141   0.745  0.0952  0.3908  0.5056
  416SOL     OW 1661   0.113   1.323   2.389 -0.4628  0.4751  0.3312
  416SOL    HW1 1662   0.159   1.320   2.472  0.0137 -1.5314  0.0455
  416SOL    HW2 1663   0.064   1.241   2.386 -1.4347  1.0672 -0.8439
  416SOL     MW 1664   0.113   1.312   2.399 -0.5262  0.2941  0.1442
  417SOL     OW 1665   4.362   2.712   5.332 -0.3351  0.1643 -0.4711
  417SOL    HW1 1666   4.378   2.736   5.423 -0.7623  0.9613 -0.5965
  417SOL    HW2 1667   4.442   2.735   5.286  0.2395 -1.1012 -0.1581
  417SOL     MW 1668   4.374   2.718   5.338 -0.3162  0.1044 -0.4471
  418SOL     OW 1669   4.541   1.585   0.999  0.3641 -0.3917  0.1350
  418SOL    HW1 1670   4.526   1.536   1.080 -0.8925  0.2188  0.2997
  418SOL    HW2 1671   4.635   1.605   1.000  0.1852  0.5517  1.9953
  418SOL     MW 1672   4.551   1.581   1.009  0.1804 -0.1928  0.3942
  419SOL     OW 1673   1.636   1.963   1.889 -0.0382  0.0726 -0.0938
  419SOL    HW1 1674   1.640   1.872   1.858  0.1412  0.1739 -0.3633
  419SOL    HW2 1675   1.603   2.013   1.815  0.0213  0.2545  0.0027
  419SOL     MW 1676   1.632   1.958   1.876 -0.0076  0.1088 -0.1159
  420SOL     OW 1677   2.017   1.949   4.226 -0.0990 -0.1746 -0.1938
  420SOL    HW1 1678   2.069   1.948   4.146  0.2837 -1.5251  0.0550
  420SOL    HW2 1679   1.927   1.938   4.196 -0.1239  0.8034 -0.5231
  420SOL     MW 1680   2.012   1.948   4.212 -0.0532 -0.2223 -0.2041
  421SOL     OW 1681   2.820   2.548   4.182  0.6893 -0.1717  0.1751
  421SOL    HW1 1682   2.895   2.530   4.126  0.1429 -2.6711  0.1420
  421SOL    HW2 1683   2.835   2.494   4.260 -0.9078 -0.5013  0.2839
  421SOL     MW 1684   2.831   2.539   4.185  0.4149 -0.5338  0.1848
  422SOL     OW 1685   2.955   4.171   3.871 -0.3351 -0.5829 -0.2517
  422SOL    HW1 1686   2.887   4.221   3.916  0.7179  1.2638 -0.6360
  422SOL    HW2 1687   2.909   4.094   3.837 -1.3926 -1.6079  3.0551
  422SOL     MW 1688   2.940   4.168   3.873 -0.3357 -0.4777  0.1224
  423SOL     OW 1689   1.216   3.843   0.091  0.3782 -0.4364 -0.1619
  423SOL    HW1 1690   1.163   3.884   0.022  2.6215  2.2403 -0.4998
  423SOL    HW2 1691   1.159   3.843   0.168 -0.8089  0.4406 -0.9958
  423SOL     MW 1692   1.202   3.848   0.092  0.5134  0.0185 -0.3119
  424SOL     OW 1693   5.127   0.342   1.398  0.3748  0.0016  0.6452
  424SOL    HW1 1694   5.205   0.388   1.366  0.7919  0.0392  1.6694
  424SOL    HW2 1695   5.149   0.249   1.389  0.6485  0.0098  1.1442
  424SOL     MW 1696   5.140   0.336   1.393  0.4632  0.0075  0.8402
  425SOL     OW 1697   3.464   1.146   0.428 -0.5778 -0.0270 -0.1386
  425SOL    HW1 1698   3.409   1.109   0.360 -1.1492  2.5702 -1.2136
  425SOL    HW2 1699   3.493   1.230   0.393 -0.7553  1.3748  2.7536
  425SOL     MW 1700   3.461   1.152   0.415 -0.6737  0.4849  0.0941
  426SOL     OW 1701   0.358   3.879   0.660  0.4406 -0.6603 -0.0318
  426SOL    HW1 1702   0.427   3.944   0.644 -0.0404  0.3547  1.7337
  426SOL    HW2 1703   0.366   3.858   0.753  0.0062 -2.5002 -0.3809
  426SOL     MW 1704   0.367   3.885   0.670  0.3234 -0.7659  0.1495
  427SOL     OW 1705   0.170   3.325   4.230 -0.5032 -0.6732 -0.0533
  427SOL    HW1 1706   0.210   3.273   4.160 -1.3024 -0.7569 -0.4652
  427SOL    HW2 1707   0.240   3.383   4.260 -0.3672 -0.0495 -1.5002
  427SOL     MW 1708   0.184   3.326   4.225 -0.5881 -0.6041 -0.2913
  428SOL     OW 1709   2.129   0.116   5.262 -0.4404 -0.2787  0.1635
  428SOL    HW1 1710   2.035   0.134   5.255 -0.1397  1.2713 -0.1666
  428SOL    HW2 1711   2.144   0.047   5.197 -1.5044 -1.2944  0.9381
  428SOL     MW 1712   2.119   0.109   5.253 -0.5381 -0.2103  0.2204
  429SOL     OW 1713   1.988   0.502   4.381 -0.2568  0.1587  0.6256
  429SOL    HW1 1714   2.001   0.418   4.425 -0.1475  0.3282  0.9267
  429SOL    HW2 1715   1.905   0.493   4.336  0.0892 -0.3548  0.0729
  429SOL     MW 1716   1.979   0.490   4.381 -0.1985  0.1146  0.5934
  430SOL     OW 1717   1.296   5.111   2.481 -0.2502  0.4312  0.7949
  430SOL    HW1 1718   1.226   5.070   2.430 -0.3995 -1.0948  2.1377
  430SOL    HW2 1719   1.357   5.039   2.500  0.5551  1.2721  1.5037
  430SOL     MW 1720   1.295   5.096   2.477 -0.1663  0.3435  1.0575
  431SOL     OW 1721   3.652   2.393   0.569 -0.2622 -0.4159 -0.3340
  431SOL    HW1 1722   3.687   2.380   0.480 -1.4582 -0.4627 -0.8177
  431SOL    HW2 1723   3.582   2.328   0.577 -1.2379  0.6490  0.0302
  431SOL     MW 1724   3.648   2.383   0.558 -0.5402 -0.2856 -0.3493
  432SOL     OW 1725   2.794   2.835   1.170 -0.0797  0.3594  0.6342
  432SOL    HW1 1726   2.761   2.759   1.219  0.9545 -0.7763 -0.3812
  432SOL    HW2 1727   2.736   2.841   1.094  1.7695 -1.5178 -1.0480
  432SOL     MW 1728   2.782   2.826   1.167  0.2894 -0.0263  0.2888
  433SOL     OW 1729   2.560   0.015   4.881  0.1192  0.0714  0.3277
  433SOL    HW1 1730   2.570   0.058   4.797 -1.1979  0.0065  0.1151
  433SOL    HW2 1731   2.512   0.078   4.935 -2.0800 -1.1336 -0.0735
  433SOL     MW 1732   2.555   0.028   4.878 -0.3309 -0.0912  0.2491
  434SOL     OW 1733   3.387   1.484   2.264 -0.7992 -0.7418  0.0436
  434SOL    HW1 1734   3.472   1.450   2.294 -0.7587 -1.3577 -0.7597
  434SOL    HW2 1735   3.369   1.438   2.183 -0.5578  1.4168 -1.3312
  434SOL     MW 1736   3.396   1.474   2.258 -0.7631 -0.5443 -0.2352
  435SOL     OW 1737   2.380   2.326   3.410  0.3750 -0.2152 -0.2808
  435SOL    HW1 1738   2.325   2.366   3.343  1.7527  0.7980 -0.8636
  435SOL    HW2 1739   2.319   2.285   3.471 -0.9395 -1.8001 -2.5080
  435SOL     MW 1740   2.365   2.326   3.409  0.3831 -0.2884 -0.6405
  436SOL     OW 1741   4.655   5.194   1.636  0.2979  0.0616 -0.3126
  436SOL    HW1 1742   4.652   5.164   1.545  2.3391 -0.2400 -0.3420
  436SOL    HW2 1743   4.585   5.258   1.643 -1.5778 -1.7499 -1.3703
  436SOL     MW 1744   4.646   5.198   1.625  0.3191 -0.2089 -0.4518
  437SOL     OW 1745   4.103   0.976   4.044 -0.0893  0.0169  0.4413
  437SOL    HW1 1746   4.076   1.057   4.088  1.1690  0.6490  0.0811
  437SOL    HW2 1747   4.080   0.989   3.952 -0.2729 -0.2091  0.4553
  437SOL     MW 1748   4.097   0.988   4.038  0.0482  0.0689  0.3970
  438SOL     OW 1749   1.374   1.244   1.348  0.3876  0.4765  0.1657
  438SOL    HW1 1750   1.458   1.207   1.375 -0.0708  0.7264  2.1519
  438SOL    HW2 1751   1.396   1.310   1.283  1.6883  0.2088  0.3133
  438SOL     MW 1752   1.387   1.248   1.343  0.4954  0.4742  0.4388
  439SOL     OW 1753   4.024   4.413   0.539 -0.7919  0.1637  0.0953
  439SOL    HW1 1754   3.989   4.491   0.496 -2.0190  1.1327  2.6260
  439SOL    HW2 1755   4.103   4.444   0.584 -1.0874 -0.1040  0.8170
  439SOL     MW 1756   4.029   4.427   0.540 -0.9868  0.2535  0.5116
  440SOL     OW 1757   1.059   2.143   3.268  0.4739  0.3143 -0.1777
  440SOL    HW1 1758   1.038   2.118   3.178  0.1636  0.4392 -0.1420
  440SOL    HW2 1759   0.986   2.199   3.294  0.3618 -0.0505  0.2919
  440SOL     MW 1760   1.047   2.147   3.260  0.4198  0.2836 -0.1130
  441SOL     OW 1761   1.768   3.348   1.929 -0.2144  0.1892  0.1015
  441SOL    HW1 1762   1.810   3.278   1.979  1.4952  0.9823 -0.1280
  441SOL    HW2 1763   1.841   3.405   1.902 -1.3808  1.2350 -0.9934
  441SOL     MW 1764   1.783   3.346   1.932 -0.1449  0.4246 -0.0680
  442SOL     OW 1765   2.698   0.068   1.307 -0.1053  0.4900  0.5158
  442SOL    HW1 1766   2.715  -0.012   1.258 -1.1578  1.1861 -1.1069
  442SOL    HW2 1767   2.745   0.058   1.389  2.5119 -0.3907 -0.9816
  442SOL     MW 1768   2.706   0.057   1.311  0.0950  0.4663  0.1164
  443SOL     OW 1769   1.550   2.488   5.265  0.4683 -0.1357  0.1765
  443SOL    HW1 1770   1.541   2.496   5.170  2.0941 -2.3739 -0.2597
  443SOL    HW2 1771   1.481   2.427   5.290 -0.2259  0.7733  0.5375
  443SOL     MW 1772   1.540   2.481   5.256  0.5876 -0.3059  0.1669
  444SOL     OW 1773   0.305   4.746   5.069  0.0956  0.8118 -0.0891
  444SOL    HW1 1774   0.243   4.776   5.003  0.0979  0.3861 -0.2855
  444SOL    HW2 1775   0.377   4.707   5.020 -0.2732 -0.2272  0.1760
  444SOL     MW 1776   0.306   4.745   5.055  0.0487  0.6243 -0.0803
  445SOL     OW 1777   3.910   1.687   5.398 -0.1664  0.4978  0.1071
  445SOL    HW1 1778   4.004   1.702   5.391 -0.1539  0.7155  0.6624
  445SOL    HW2 1779   3.901   1.592   5.398 -0.0588  0.4777 -1.2296
  445SOL     MW 1780   3.921   1.677   5.397 -0.1510  0.5231  0.0071
  446SOL     OW 1781   4.428   2.669   2.598 -0.6606  0.1675 -0.1139
  446SOL    HW1 1782   4.406   2.720   2.520 -1.1575  0.8326  0.4558
  446SOL    HW2 1783   4.377   2.708   2.668 -0.9894 -1.0669  0.3595
  446SOL     MW 1784   4.419   2.680   2.597 -0.7663  0.0946  0.0196
  447SOL     OW 1785   1.521   2.277   1.501  0.4878 -0.1965 -0.5060
  447SOL    HW1 1786   1.556   2.190   1.481 -0.4020 -0.4245 -1.1325
  447SOL    HW2 1787   1.426   2.267   1.495  0.2834  0.4315  1.0665
  447SOL     MW 1788   1.513   2.264   1.498  0.3477 -0.1453 -0.3849
  448SOL     OW 1789   1.323   1.313   4.985  0.5120  0.0441  0.5289
  448SOL    HW1 1790   1.417   1.317   4.973  0.4069  2.3688 -0.0609
  448SOL    HW2 1791   1.287   1.337   4.899 -0.6145 -0.4981  0.8269
  448SOL     MW 1792   1.330   1.317   4.973  0.3544  0.2722  0.4916
  449SOL     OW 1793   5.434   0.338   3.035 -0.5153  0.4303 -0.2576
  449SOL    HW1 1794   5.393   0.397   3.098  0.6687  1.0450 -0.0312
  449SOL    HW2 1795   5.450   0.257   3.084  3.7679  2.0518  1.5397
  449SOL     MW 1796   5.431   0.335   3.049  0.1846  0.7166  0.0015
  450SOL     OW 1797   1.160   3.649   4.519  0.1966 -0.4379 -0.2161
  450SOL    HW1 1798   1.100   3.593   4.470 -0.1572  0.0301 -0.3264
  450SOL    HW2 1799   1.103   3.702   4.575  0.3433  1.1524 -1.4745
  450SOL     MW 1800   1.145   3.649   4.520  0.1701 -0.1744 -0.3913
  451SOL     OW 1801   2.514   4.061   3.021 -0.4505 -0.0533 -0.8506
  451SOL    HW1 1802   2.426   4.042   3.053  0.7552 -1.0284  2.2912
  451SOL    HW2 1803   2.533   4.149   3.054  0.5927 -0.8410  0.8263
  451SOL     MW 1804   2.505   4.070   3.030 -0.1626 -0.2790 -0.2337
  452SOL     OW 1805   5.171   3.091   0.896  0.0594 -0.4341 -0.4385
  452SOL    HW1 1806   5.228   3.017   0.874  0.8114  0.5038 -1.7849
  452SOL    HW2 1807   5.173   3.096   0.991  0.8345 -1.4953 -0.3825
  452SOL     MW 1808   5.178   3.082   0.905  0.2549 -0.4499 -0.6037
  453SOL     OW 1809   4.937   1.447   5.443  0.1318 -0.3733 -0.1672
  453SOL    HW1 1810   4.983   1.531   5.440 -1.7156  0.6765 -0.7056
  453SOL    HW2 1811   4.926   1.428   5.536  0.8775 -0.2213 -0.0396
  453SOL     MW 1812   4.941   1.455   5.454 -0.0092 -0.2195 -0.2198
  454SOL     OW 1813   1.014   0.415   4.153 -0.0343  0.0504 -0.1873
  454SOL    HW1 1814   1.016   0.496   4.204 -1.0701 -1.1252  1.8899
  454SOL    HW2 1815   0.922   0.390   4.152  0.2007 -0.8373 -1.2230
  454SOL     MW 1816   1.003   0.422   4.160 -0.1368 -0.2137 -0.0540
  455SOL     OW 1817   2.718   1.657   2.736 -0.4003  0.2284 -0.3085
  455SOL    HW1 1818   2.745   1.675   2.645  0.1282  0.1439 -0.1712
  455SOL    HW2 1819   2.730   1.740   2.781  0.3188  0.0132 -0.0860
  455SOL     MW 1820   2.723   1.670   2.730 -0.2406  0.1901 -0.2624
  456SOL     OW 1821   2.378   1.612   0.852 -0.3752 -0.1451 -0.4461
  456SOL    HW1 1822   2.381   1.522   0.886 -2.4199  0.3328  1.2416
  456SOL    HW2 1823   2.438   1.660   0.909 -0.5731 -0.1438 -0.2345
  456SOL     MW 1824   2.386   1.607   0.864 -0.6623 -0.0837 -0.2029
  457SOL     OW 1825   4.236   4.374   2.778 -0.2038 -0.0227  0.0396
  457SOL    HW1 1826   4.315   4.328   2.807 -0.2737 -0.3692 -0.3223
  457SOL    HW2 1827   4.174   4.305   2.754  0.2798  0.2133 -2.1112
  457SOL     MW 1828   4.238   4.360   2.779 -0.1509 -0.0368 -0.2821
  458SOL     OW 1829   1.286   2.840   1.590  0.3424  0.0374 -0.2166
  458SOL    HW1 1830   1.355   2.852   1.525 -1.0003 -1.9665 -2.1646
  458SOL    HW2 1831   1.320   2.770   1.647  0.2741 -0.3801 -0.6783
  458SOL     MW 1832   1.299   2.833   1.589  0.1618 -0.2726 -0.5251
  459SOL     OW 1833   1.257   3.171   3.475 -0.6775  0.0232 -0.5317
  459SOL    HW1 1834   1.343   3.206   3.495 -0.5345 -1.5001  2.0441
  459SOL    HW2 1835   1.271   3.108   3.405 -0.0379  1.0587 -1.3559
  459SOL     MW 1836   1.270   3.167   3.469 -0.5773 -0.0392 -0.3074
  460SOL     OW 1837   4.992   1.241   0.673 -0.0367 -0.1323  0.1202
  460SOL    HW1 1838   5.069   1.201   0.714  0.0253 -0.4893 -0.3273
  460SOL    HW2 1839   5.013   1.242   0.579 -0.2243  0.5530  0.0832
  460SOL     MW 1840   5.005   1.236   0.666 -0.0527 -0.0903  0.0582
  461SOL     OW 1841   1.382   1.030   0.057 -0.3427  0.1217  0.0247
  461SOL    HW1 1842   1.404   0.943   0.091  1.9067  0.9239  0.7935
  461SOL    HW2 1843   1.366   1.083   0.135 -0.1956  0.7652 -0.3753
  461SOL     MW 1844   1.383   1.025   0.071 -0.0359  0.3068  0.0719
  462SOL     OW 1845   4.111   2.024   4.943  0.0293 -0.1499  0.3776
  462SOL    HW1 1846   4.081   1.984   4.862 -2.8822 -0.4284  1.4916
  462SOL    HW2 1847   4.147   1.951   4.994  1.8491  0.0227 -0.5543
  462SOL     MW 1848   4.112   2.009   4.939 -0.1105 -0.1634  0.4009
  463SOL     OW 1849   5.430   2.537   0.345 -1.0655  0.3329 -0.0013
  463SOL    HW1 1850   5.481   2.582   0.278 -0.8748  0.3998  0.1849
  463SOL    HW2 1851   5.447   2.587   0.425 -0.8623 -0.0580  0.2055
  463SOL     MW 1852   5.439   2.549   0.347 -1.0151  0.2914  0.0490
  464SOL     OW 1853   3.251   1.581   1.483 -0.5281 -0.4884  0.2286
  464SOL    HW1 1854   3.227   1.603   1.393  1.4527 -2.3355 -0.8431
  464SOL    HW2 1855   3.301   1.656   1.514  0.0988 -0.4795 -0.7802
  464SOL     MW 1856   3.254   1.594   1.476 -0.1943 -0.7237 -0.0377
  465SOL     OW 1857   0.949   3.293   1.239 -0.1662 -0.3081  0.1973
  465SOL    HW1 1858   0.923   3.360   1.302 -0.4616 -0.8221  0.6293
  465SOL    HW2 1859   1.038   3.270   1.265  0.5257  0.9717 -0.8728
  465SOL     MW 1860   0.957   3.299   1.251 -0.1154 -0.2100  0.1156
  466SOL     OW 1861   1.645   3.863   4.580  0.2446 -0.3230 -0.2921
  466SOL    HW1 1862   1.616   3.772   4.580  1.5258 -0.7769 -1.7812
  466SOL    HW2 1863   1.713   3.866   4.513 -0.2164  1.8886 -0.7223
  466SOL     MW 1864   1.650   3.851   4.572  0.3496 -0.0980 -0.5378
  467SOL     OW 1865   0.441   0.557   1.477 -0.1514  0.2718  0.3175
  467SOL    HW1 1866   0.518   0.524   1.523  1.4198  0.6044 -1.9134
  467SOL    HW2 1867   0.429   0.496   1.404 -1.1117  1.0401 -0.1882
  467SOL     MW 1868   0.450   0.545   1.474 -0.0732  0.4127 -0.0328
  468SOL     OW 1869   4.243   0.434   4.488 -0.1837  0.0389  0.1877
  468SOL    HW1 1870   4.310   0.402   4.428 -0.4215 -1.7579  0.8335
  468SOL    HW2 1871   4.248   0.530   4.481  3.1715  0.0406  0.9930
  468SOL     MW 1872   4.252   0.442   4.479  0.2154 -0.1909  0.3735
  469SOL     OW 1873   0.746   5.418   1.785 -0.1098 -0.0839 -0.1773
  469SOL    HW1 1874   0.835   5.385   1.775  0.3844  1.3202 -0.6725
  469SOL    HW2 1875   0.707   5.364   1.854  0.6189 -1.6951 -0.9908
  469SOL     MW 1876   0.752   5.407   1.792  0.0467 -0.1104 -0.3448
  470SOL     OW 1877   4.100   0.476   0.198 -0.2392  0.4342  0.4710
  470SOL    HW1 1878   4.074   0.550   0.253 -0.7438  1.5326 -1.1689
  470SOL    HW2 1879   4.027   0.464   0.138  0.9824  0.3814 -1.0664
  470SOL     MW 1880   4.087   0.484   0.198 -0.1474  0.5680  0.0643
  471SOL     OW 1881   4.109   3.639   4.083  0.2105  0.0786  0.2299
  471SOL    HW1 1882   4.188   3.621   4.135  0.1867 -0.6362  0.0201
  471SOL    HW2 1883   4.039   3.594   4.129  0.2545 -0.9072 -0.6280
  471SOL     MW 1884   4.110   3.631   4.096  0.2130 -0.1391  0.0932
  472SOL     OW 1885   3.436   0.732   1.768  0.3217 -0.2224 -0.3218
  472SOL    HW1 1886   3.524   0.746   1.804  0.0030 -1.4819  1.0235
  472SOL    HW2 1887   3.433   0.788   1.690  0.7994  3.3303  1.9389
  472SOL     MW 1888   3.447   0.741   1.763  0.3421  0.0712  0.1398
  473SOL     OW 1889   2.329   0.215   2.063 -0.1022  0.3508 -0.4045
  473SOL    HW1 1890   2.373   0.240   2.144 -1.5227 -0.9557  0.8275
  473SOL    HW2 1891   2.382   0.254   1.994  0.3644  2.7334  1.1860
  473SOL     MW 1892   2.341   0.223   2.064 -0.2243  0.4886 -0.0431
  474SOL     OW 1893   0.543   2.324   2.538 -0.0014 -0.4360 -0.2737
  474SOL    HW1 1894   0.574   2.299   2.451 -0.2590 -1.1984 -0.1453
  474SOL    HW2 1895   0.617   2.370   2.577  1.2786 -2.8324  0.2946
  474SOL     MW 1896   0.557   2.327   2.532  0.1295 -0.8403 -0.1845
  475SOL     OW 1897   3.444   5.102   4.122 -0.1228 -0.3428  0.0076
  475SOL    HW1 1898   3.356   5.134   4.142 -0.5082 -1.1390 -0.3775
  475SOL    HW2 1899   3.495   5.119   4.202 -0.6552  0.0101  0.2725
  475SOL     MW 1900   3.440   5.108   4.135 -0.2403 -0.3996 -0.0078
  476SOL     OW 1901   4.517   1.416   1.241 -0.0087  0.1022 -0.0326
  476SOL    HW1 1902   4.425   1.435   1.224  0.5556  3.0885 -0.2599
  476SOL    HW2 1903   4.524   1.321   1.231 -2.5280  0.0510 -2.5326
  476SOL     MW 1904   4.506   1.406   1.238 -0.2590  0.4779 -0.3817
  477SOL     OW 1905   5.203   3.940   0.786 -0.6324  0.4368  0.0684
  477SOL    HW1 1906   5.208   3.900   0.873  3.0047  0.7199  0.1155
  477SOL    HW2 1907   5.168   3.870   0.730  0.0124 -0.8498  1.2102
  477SOL     MW 1908   5.199   3.926   0.790 -0.0842  0.3083  0.2206
  478SOL     OW 1909   0.285   3.982   4.499  0.5867  0.8638 -1.0037
  478SOL    HW1 1910   0.359   4.029   4.536  1.1859 -0.1375 -0.8889
  478SOL    HW2 1911   0.315   3.954   4.413  0.6362 -0.1876 -0.6624
  478SOL     MW 1912   0.298   3.984   4.493  0.6698  0.6011 -0.9453
  479SOL     OW 1913   3.110   4.168   1.156  0.3572 -0.3928 -0.0314
  479SOL    HW1 1914   3.181   4.232   1.150  0.8819 -0.9957 -0.3913
  479SOL    HW2 1915   3.109   4.142   1.248 -0.2107  0.5106  0.2342
  479SOL     MW 1916   3.119   4.173   1.167  0.3516 -0.3543 -0.0434
  480SOL     OW 1917   2.661   4.690   3.285  0.0487 -0.1662 -0.4980
  480SOL    HW1 1918   2.741   4.720   3.328  0.2225  0.2630 -1.1087
  480SOL    HW2 1919   2.670   4.595   3.281  0.0065 -0.2240  0.4409
  480SOL     MW 1920   2.672   4.682   3.290  0.0655 -0.1187 -0.4560
  481SOL     OW 1921   3.145   3.799   0.190 -0.6056 -0.1202  0.5490
  481SOL    HW1 1922   3.163   3.772   0.100  1.1065 -1.2945  1.1898
  481SOL    HW2 1923   3.159   3.894   0.191 -2.0377  0.1276 -0.7069
  481SOL     MW 1924   3.149   3.808   0.179 -0.5698 -0.2388  0.4703
  482SOL     OW 1925   2.905   3.108   3.968 -0.7763  0.6068  0.1887
  482SOL    HW1 1926   2.867   3.121   3.882 -0.7455  0.2370  0.1186
  482SOL    HW2 1927   2.871   3.181   4.021  1.0912  2.2685 -0.7453
  482SOL     MW 1928   2.896   3.119   3.964 -0.5333  0.7721  0.0602
  483SOL     OW 1929   4.311   3.057   5.125  0.2071  0.0618  0.0820
  483SOL    HW1 1930   4.272   2.981   5.081  1.8017 -0.3338 -0.7371
  483SOL    HW2 1931   4.392   3.023   5.163  0.0336  0.9624  1.3279
  483SOL     MW 1932   4.316   3.043   5.124  0.3890  0.1265  0.1366
  484SOL     OW 1933   1.745   4.794   1.739  0.0450  0.2609 -0.5476
  484SOL    HW1 1934   1.700   4.721   1.698 -1.6123  1.7127 -1.4577
  484SOL    HW2 1935   1.826   4.804   1.688  0.2346 -0.8224 -0.4836
  484SOL     MW 1936   1.750   4.786   1.727 -0.1429  0.3081 -0.6559
  485SOL     OW 1937   0.266   2.570   4.089 -0.3164 -0.4572  0.1233
  485SOL    HW1 1938   0.188   2.561   4.034 -0.6982  2.6269  0.0287
  485SOL    HW2 1939   0.234   2.557   4.178 -0.9026  0.4361  0.0551
  485SOL     MW 1940   0.251   2.567   4.093 -0.4403  0.0519  0.1025
  486SOL     OW 1941   0.837   3.871   0.905 -0.4118  0.0901 -0.3706
  486SOL    HW1 1942   0.755   3.919   0.913 -0.3384  0.1549  0.0511
  486SOL    HW2 1943   0.897   3.916   0.965 -0.2206 -0.2685 -0.2908
  486SOL     MW 1944   0.834   3.883   0.914 -0.3779  0.0525 -0.3064
  487SOL     OW 1945   3.800   3.906   1.693 -0.2287  0.0859  0.6866
  487SOL    HW1 1946   3.824   3.986   1.646  1.6426 -1.0515 -0.3824
  487SOL    HW2 1947   3.717   3.879   1.653  0.4301  0.1248 -0.7570
  487SOL     MW 1948   3.792   3.913   1.682  0.0952 -0.0548  0.3650
  488SOL     OW 1949   2.659   0.595   0.340  0.4662 -0.0864  0.1696
  488SOL    HW1 1950   2.620   0.577   0.425 -1.0202  0.1131 -0.4291
  488SOL    HW2 1951   2.737   0.540   0.336 -0.8020 -1.9865  0.6646
  488SOL     MW 1952   2.664   0.586   0.350  0.1136 -0.3041  0.1563
  489SOL     OW 1953   1.563   2.511   4.012 -0.3037  0.8864  0.8128
  489SOL    HW1 1954   1.566   2.441   4.077 -3.6006  0.2707  0.4764
  489SOL    HW2 1955   1.570   2.592   4.062  0.5279  0.3845  1.5327
  489SOL     MW 1956   1.565   2.512   4.027 -0.6193  0.7433  0.8619
  490SOL     OW 1957   1.991   3.273   3.712 -0.0487  0.1991 -1.0589
  490SOL    HW1 1958   1.904   3.264   3.751  0.4818  0.2481  0.1788
  490SOL    HW2 1959   2.044   3.316   3.780  2.0981 -3.7021  0.0947
  490SOL     MW 1960   1.987   3.277   3.726  0.2941 -0.2940 -0.7528
  491SOL     OW 1961   0.197   0.998   2.080 -0.0302 -0.0813  0.2111
  491SOL    HW1 1962   0.209   0.922   2.137  0.5915 -1.1882 -1.3284
  491SOL    HW2 1963   0.103   1.002   2.066  0.0577 -1.8175 -1.2441
  491SOL     MW 1964   0.187   0.989   2.086  0.0606 -0.4452 -0.1723
  492SOL     OW 1965   2.624   4.314   3.086  0.4237 -0.4163 -0.3527
  492SOL    HW1 1966   2.536   4.327   3.123  0.9796  0.2682  0.8021
  492SOL    HW2 1967   2.633   4.385   3.022 -0.5976 -1.6900 -2.0084
  492SOL     MW 1968   2.614   4.325   3.082  0.3641 -0.4917 -0.4169
  493SOL     OW 1969   0.855   3.999   1.963  0.2662 -0.2531  0.2910
  493SOL    HW1 1970   0.842   4.087   1.998 -0.8576 -0.4216  0.3380
  493SOL    HW2 1971   0.812   3.941   2.026 -0.7400 -0.6585 -0.7237
  493SOL     MW 1972   0.848   4.003   1.976 -0.0065 -0.3266  0.1671
  494SOL     OW 1973   3.571   3.021   3.259  0.5479  0.7193  0.2944
  494SOL    HW1 1974   3.649   3.022   3.314  0.9541  1.4801 -0.2794
  494SOL    HW2 1975   3.591   3.080   3.187 -0.3707  0.5394 -0.1309
  494SOL     MW 1976   3.583   3.029   3.257  0.4823  0.7937  0.1665
  495SOL     OW 1977   1.645   2.611   3.534 -0.3138 -0.0546 -0.0319
  495SOL    HW1 1978   1.724   2.661   3.514 -0.3076  1.2437  2.7598
  495SOL    HW2 1979   1.591   2.619   3.455  0.1853  3.4427 -0.1974
  495SOL     MW 1980   1.648   2.619   3.521 -0.2491  0.5593  0.3043
  496SOL     OW 1981   1.976   5.354   1.098  0.2673  0.9601  0.7153
  496SOL    HW1 1982   2.048   5.294   1.118 -0.9923 -0.2728  1.7231
  496SOL    HW2 1983   2.016   5.440   1.098  1.6309  0.3618  1.9034
  496SOL     MW 1984   1.990   5.357   1.100  0.2806  0.7257  0.9964
  497SOL     OW 1985   3.059   2.822   1.140  0.1943 -0.6268 -0.4906
  497SOL    HW1 1986   3.071   2.746   1.083  2.4364 -1.9615  1.5239
  497SOL    HW2 1987   2.964   2.831   1.149 -0.1655 -1.5635 -2.8150
  497SOL     MW 1988   3.048   2.813   1.134  0.4353 -0.9176 -0.5303
  498SOL     OW 1989   3.772   3.457   5.199 -0.2858  0.4210  1.0469
  498SOL    HW1 1990   3.731   3.418   5.276 -0.0143  1.5306  1.7882
  498SOL    HW2 1991   3.712   3.439   5.127  0.0720 -1.7558  1.2333
  498SOL     MW 1992   3.759   3.450   5.200 -0.2053  0.2844  1.1657
  499SOL     OW 1993   1.734   2.409   2.113 -0.3260 -0.1696 -0.1907
  499SOL    HW1 1994   1.742   2.426   2.207  1.5299  0.8167 -0.4762
  499SOL    HW2 1995   1.660   2.348   2.106 -0.5327 -0.2417  1.8896
  499SOL     MW 1996   1.726   2.403   2.124 -0.1149 -0.0526  0.0390
  500SOL     OW 1997   3.250   1.276   2.029  0.6829 -0.2940 -0.2490
  500SOL    HW1 1998   3.261   1.355   1.975  0.9954  0.7115  1.2222
  500SOL    HW2 1999   3.177   1.298   2.087  0.5052 -1.2571 -0.0995
  500SOL     MW 2000   3.242   1.289   2.030  0.7001 -0.2885 -0.0415
  501SOL     OW 2001   2.320   3.730   2.177  0.1200  0.0497  0.2779
  501SOL    HW1 2002   2.286   3.665   2.117 -1.3271 -0.5876  1.6998
  501SOL    HW2 2003   2.407   3.698   2.200  0.1333 -0.4279 -0.4120
  501SOL     MW 2004   2.327   3.718   2.173 -0.0635 -0.0930  0.3716
  502SOL     OW 2005   4.228   4.654   1.039  0.3254  0.2040 -0.4611
  502SOL    HW1 2006   4.217   4.725   0.976 -2.3056 -0.2764 -0.6610
  502SOL    HW2 2007   4.299   4.683   1.096  0.3991  2.2520 -1.5185
  502SOL     MW 2008   4.235   4.667   1.039 -0.0019  0.4047 -0.6221
  503SOL     OW 2009   1.408   4.953   2.908  0.1746 -0.1294 -0.4330
  503SOL    HW1 2010   1.420   5.020   2.976  1.0661  0.3487 -1.0346
  503SOL    HW2 2011   1.348   4.994   2.845 -0.1469 -0.3193 -0.2458
  503SOL     MW 2012   1.402   4.967   2.908  0.2475 -0.0925 -0.4861
  504SOL     OW 2013   5.041   2.861   2.777 -0.0525  0.3051  0.6800
  504SOL    HW1 2014   5.121   2.852   2.725 -0.3960  2.6785 -0.3763
  504SOL    HW2 2015   5.064   2.923   2.846  0.1567 -2.1997  3.0224
  504SOL     MW 2016   5.054   2.868   2.779 -0.0697  0.2883  0.8447
  505SOL     OW 2017   2.042   3.042   2.942 -0.3466  0.1140  0.2080
  505SOL    HW1 2018   2.095   3.121   2.954  0.9996 -0.9508  1.7556
  505SOL    HW2 2019   1.991   3.059   2.864  0.9060  1.9772 -0.2694
  505SOL     MW 2020   2.043   3.054   2.934 -0.0139  0.2162  0.3450
  506SOL     OW 2021   0.894   5.230   3.665 -0.6358  0.0750  0.0386
  506SOL    HW1 2022   0.914   5.314   3.624  1.8775 -0.9981 -1.1585
  506SOL    HW2 2023   0.949   5.167   3.619 -1.4863 -2.0480  1.7437
  506SOL     MW 2024   0.903   5.232   3.654 -0.4230 -0.3341  0.1036
  507SOL     OW 2025   1.943   1.526   0.724 -0.1340 -0.4353  0.6672
  507SOL    HW1 2026   2.027   1.487   0.748  0.3422 -0.3289 -0.7473
  507SOL    HW2 2027   1.885   1.451   0.710  0.4105 -0.6128 -0.7308
  507SOL     MW 2028   1.946   1.511   0.725 -0.0033 -0.4444  0.3072
  508SOL     OW 2029   4.255   3.340   0.311 -0.3656  0.0656  0.6548
  508SOL    HW1 2030   4.247   3.427   0.351 -3.4417  0.6452 -0.9237
  508SOL    HW2 2031   4.232   3.280   0.381 -2.6497  0.8767  0.6901
  508SOL     MW 2032   4.251   3.344   0.325 -1.0518  0.2436  0.4572
  509SOL     OW 2033   0.596   1.956   5.189  0.4160  0.1696 -0.0813
  509SOL    HW1 2034   0.605   1.924   5.278  0.6155  1.8983  0.5606
  509SOL    HW2 2035   0.680   1.938   5.148  0.2260 -0.8940 -0.0346
  509SOL     MW 2036   0.608   1.949   5.195  0.4172  0.2548  0.0068
  510SOL     OW 2037   3.258   4.837   1.153 -0.0902 -0.2802 -0.5817
  510SOL    HW1 2038   3.267   4.849   1.058  1.7006 -0.6408 -0.4819
  510SOL    HW2 2039   3.189   4.772   1.162 -0.4141 -0.1031 -1.6269
  510SOL     MW 2040   3.250   4.830   1.142  0.0976 -0.3037 -0.7028
  511SOL     OW 2041   4.413   2.104   5.120 -0.7825 -0.1228  0.3908
  511SOL    HW1 2042   4.432   2.013   5.143 -0.0112 -0.3682 -1.0756
  511SOL    HW2 2043   4.459   2.118   5.037 -0.3005  1.8169  0.9148
  511SOL     MW 2044   4.421   2.094   5.112 -0.6220  0.0941  0.2702
  512SOL     OW 2045   0.264   2.183   4.966 -0.3136 -0.0839 -0.3483
  512SOL    HW1 2046   0.358   2.177   4.979 -0.2732  0.1603 -0.5258
  512SOL    HW2 2047   0.250   2.269   4.926 -1.0036  1.8095  3.4178
  512SOL     MW 2048   0.274   2.193   4.963 -0.3968  0.1898  0.1111
  513SOL     OW 2049   2.997   1.603   3.933 -0.4647  0.2098  0.3213
  513SOL    HW1 2050   3.048   1.617   3.853  2.8098  0.4324  2.2476
  513SOL    HW2 2051   2.954   1.518   3.920  1.0508 -0.3818 -1.1857
  513SOL     MW 2052   2.998   1.594   3.921  0.1485  0.1626  0.3750
  514SOL     OW 2053   5.259   4.500   3.012  0.2107 -0.5184  0.0338
  514SOL    HW1 2054   5.290   4.410   3.026 -0.0796 -0.4867  0.9831
  514SOL    HW2 2055   5.167   4.490   2.988 -0.0267 -0.4593  0.8701
  514SOL     MW 2056   5.251   4.487   3.011  0.1431 -0.5068  0.2624
  515SOL     OW 2057   5.394   0.191   3.902 -0.0885  0.5068 -0.3624
  515SOL    HW1 2058   5.433   0.206   3.988  1.7188  2.1387 -1.3827
  515SOL    HW2 2059   5.344   0.271   3.884 -0.0649  0.3843 -1.0111
  515SOL     MW 2060   5.392   0.203   3.911  0.1459  0.7000 -0.5760
  516SOL     OW 2061   0.834   1.145   0.604 -0.0213  0.9679 -0.6488
  516SOL    HW1 2062   0.886   1.122   0.682 -0.6839  0.9550 -0.2045
  516SOL    HW2 2063   0.868   1.230   0.578  1.2300  0.3233 -1.2424
  516SOL     MW 2064   0.845   1.153   0.611  0.0541  0.8838 -0.6679
  517SOL     OW 2065   2.026   2.492   5.139  0.2899  0.9170 -0.1695
  517SOL    HW1 2066   1.974   2.424   5.182  0.5750  0.5205 -0.4465
  517SOL    HW2 2067   1.967   2.529   5.072  0.1261  0.9646 -0.0008
  517SOL     MW 2068   2.012   2.488   5.136  0.3054  0.8724 -0.1834
  518SOL     OW 2069   0.777   2.080   2.895  0.9040 -0.1092  0.5685
  518SOL    HW1 2070   0.750   2.012   2.956  1.0604 -0.6048  0.0961
  518SOL    HW2 2071   0.744   2.161   2.933 -0.1914 -0.5611  0.6307
  518SOL     MW 2072   0.769   2.082   2.908  0.7838 -0.2305  0.5160
  519SOL     OW 2073   1.494   0.900   2.062  0.3038  0.1544  0.1754
  519SOL    HW1 2074   1.400   0.894   2.077  0.3725 -0.6235  0.3245
  519SOL    HW2 2075   1.525   0.964   2.126  0.0557 -0.4663  0.9215
  519SOL     MW 2076   1.486   0.908   2.072  0.2808 -0.0246  0.2900
  520SOL     OW 2077   5.206   2.190   0.522  0.3043  0.7199 -0.1995
  520SOL    HW1 2078   5.189   2.255   0.454 -2.3933  0.9864  0.6324
  520SOL    HW2 2079   5.164   2.110   0.489 -0.7717  0.7715  0.9575
  520SOL     MW 2080   5.198   2.188   0.509 -0.1788  0.7606  0.0551
  521SOL     OW 2081   0.736   2.394   4.551  0.5878 -0.0302  0.0632
  521SOL    HW1 2082   0.737   2.304   4.582 -1.4176 -0.2140 -0.2992
  521SOL    HW2 2083   0.745   2.387   4.456  0.9644  0.1995  0.0776
  521SOL     MW 2084   0.738   2.382   4.543  0.3793 -0.0243  0.0187
  522SOL     OW 2085   2.322   3.541   3.388  0.0740  0.2846 -0.0923
  522SOL    HW1 2086   2.260   3.474   3.357  1.6630 -1.6627  0.6827
  522SOL    HW2 2087   2.318   3.610   3.323 -1.0737 -0.9322 -1.3765
  522SOL     MW 2088   2.313   3.541   3.376  0.1305 -0.1205 -0.1575
  523SOL     OW 2089   0.195   5.158   3.340 -0.4468 -0.2567  0.0050
  523SOL    HW1 2090   0.118   5.210   3.317  0.2963  1.5413  1.3332
  523SOL    HW2 2091   0.224   5.194   3.424  1.6561 -1.1018 -0.3026
  523SOL     MW 2092   0.189   5.169   3.348 -0.0825 -0.1347  0.1357
  524SOL     OW 2093   3.235   0.500   4.145 -0.3191  0.5260 -0.6172
  524SOL    HW1 2094   3.314   0.480   4.095 -0.1771 -0.6973  0.0633
  524SOL    HW2 2095   3.266   0.553   4.219 -0.2399  0.6197 -0.7169
  524SOL     MW 2096   3.249   0.504   4.148 -0.2908  0.3814 -0.5429
  525SOL     OW 2097   3.818   0.133   4.175  0.2328  0.0994 -0.1284
  525SOL    HW1 2098   3.808   0.155   4.083  0.1674  1.3423  0.1646
  525SOL    HW2 2099   3.729   0.135   4.210  0.4288  1.2847  0.3181
  525SOL     MW 2100   3.805   0.136   4.168  0.2495  0.4102 -0.0337
  526SOL     OW 2101   1.179   1.224   5.506  0.3725  0.8234  0.1178
  526SOL    HW1 2102   1.234   1.146   5.500  0.2705  0.7403  0.2738
  526SOL    HW2 2103   1.187   1.265   5.419  1.2768  1.2154  0.3714
  526SOL     MW 2104   1.187   1.220   5.494  0.4752  0.8629  0.1703
  527SOL     OW 2105   3.330   0.563   2.530  0.3468  0.3963  0.4871
  527SOL    HW1 2106   3.387   0.623   2.578  1.2111 -0.4608  0.5626
  527SOL    HW2 2107   3.358   0.476   2.557 -2.1671 -0.0873  1.8918
  527SOL     MW 2108   3.341   0.559   2.539  0.1356  0.2247  0.6766
  528SOL     OW 2109   0.753   0.289   2.014  0.1448 -0.0279 -0.2431
  528SOL    HW1 2110   0.770   0.260   1.925  0.2995 -1.5483  0.2555
  528SOL    HW2 2111   0.786   0.218   2.070 -3.4077 -0.9874  0.9340
  528SOL     MW 2112   0.760   0.276   2.010 -0.2901 -0.3454 -0.0286
  529SOL     OW 2113   2.310   2.328   1.287  0.6900  0.4876  0.2452
  529SOL    HW1 2114   2.405   2.314   1.282  1.0275  2.3706  0.6467
  529SOL    HW2 2115   2.300   2.404   1.345 -1.0667  0.3759  0.1371
  529SOL     MW 2116   2.321   2.336   1.294  0.5083  0.7144  0.2828
  530SOL     OW 2117   0.270   4.987   4.054  0.3883  0.4362 -0.1898
  530SOL    HW1 2118   0.211   4.915   4.072 -1.5503  1.7750 -0.8922
  530SOL    HW2 2119   0.220   5.046   3.997  1.5979  2.6983  0.9445
  530SOL     MW 2120   0.256   4.986   4.049  0.2950  0.8971 -0.1345
  531SOL     OW 2121   4.284   4.892   2.180 -0.3598 -0.8459 -0.2806
  531SOL    HW1 2122   4.258   4.828   2.245  0.9173 -0.4580  0.6621
  531SOL    HW2 2123   4.366   4.857   2.144  0.8358  0.6260  0.8750
  531SOL     MW 2124   4.291   4.879   2.183 -0.0433 -0.6078 -0.0120
  532SOL     OW 2125   0.673   3.677   0.624 -0.2084  0.5533  0.5384
  532SOL    HW1 2126   0.651   3.584   0.615 -1.0249  0.6719  1.2279
  532SOL    HW2 2127   0.608   3.711   0.684  1.2064  1.1678  1.7673
  532SOL     MW 2128   0.662   3.669   0.630 -0.1318  0.6471  0.7840
  533SOL     OW 2129   2.930   4.827   3.960  0.2778  0.4308  0.2342
  533SOL    HW1 2130   3.017   4.844   3.924  0.5103  1.5982  1.2543
  533SOL    HW2 2131   2.905   4.742   3.924  1.5441  0.3853 -0.6205
  533SOL     MW 2132   2.938   4.819   3.950  0.4697  0.5744  0.2553
  534SOL     OW 2133   4.550   0.312   0.275 -0.5951  0.3180 -0.8391
  534SOL    HW1 2134   4.608   0.241   0.249  0.7115  0.4188  1.5339
  534SOL    HW2 2135   4.462   0.273   0.276  0.1241 -1.3463  0.5722
  534SOL     MW 2136   4.546   0.298   0.272 -0.3358  0.1179 -0.3547
  535SOL     OW 2137   2.506   5.288   2.891 -0.3519  0.2452 -0.8361
  535SOL    HW1 2138   2.557   5.325   2.963 -0.8294  1.7323 -1.2246
  535SOL    HW2 2139   2.430   5.249   2.934  0.7744 -1.4837 -0.3058
  535SOL     MW 2140   2.503   5.288   2.906 -0.2688  0.2143 -0.8179
  536SOL     OW 2141   1.546   0.749   1.224  0.4179  0.2390  0.1120
  536SOL    HW1 2142   1.631   0.719   1.192 -0.6387 -1.3526 -1.4276
  536SOL    HW2 2143   1.509   0.799   1.151 -0.6470 -0.5334  0.1000
  536SOL     MW 2144   1.552   0.751   1.210  0.1463 -0.0636 -0.0866
  537SOL     OW 2145   4.718   0.213   0.745 -0.0257  0.4793 -0.3573
  537SOL    HW1 2146   4.778   0.225   0.671  0.6108 -1.0805 -0.1527
  537SOL    HW2 2147   4.652   0.281   0.735 -0.1543  0.1017 -2.5633
  537SOL     MW 2148   4.717   0.223   0.734  0.0393  0.2313 -0.6135
  538SOL     OW 2149   1.938   4.137   1.128  0.8617  0.8043  0.1061
  538SOL    HW1 2150   2.032   4.119   1.123  0.5881 -0.4863 -0.9519
  538SOL    HW2 2151   1.898   4.071   1.071 -0.7673  0.7110  1.2752
  538SOL     MW 2152   1.945   4.126   1.120  0.6182  0.6272  0.1203
  539SOL     OW 2153   5.366   1.048   3.159  0.0537  0.3988  0.1382
  539SOL    HW1 2154   5.292   1.078   3.104 -1.3844 -1.8125  0.7465
  539SOL    HW2 2155   5.377   1.117   3.224 -1.0771  1.0687 -0.3509
  539SOL     MW 2156   5.358   1.061   3.160 -0.2752  0.2015  0.1534
  540SOL     OW 2157   1.518   2.760   4.877 -0.2473 -0.4789 -0.4040
  540SOL    HW1 2158   1.496   2.850   4.903 -2.3891 -1.4103  1.3770
  540SOL    HW2 2159   1.494   2.756   4.784 -0.3623  0.7127 -0.4489
  540SOL     MW 2160   1.512   2.771   4.869 -0.5362 -0.4456 -0.1817
  541SOL     OW 2161   2.179   5.384   3.426  0.6839  0.0214  0.4875
  541SOL    HW1 2162   2.264   5.423   3.441  0.2267  0.4891  1.9783
  541SOL    HW2 2163   2.173   5.313   3.490 -0.1392  0.1287  0.5382
  541SOL     MW 2164   2.189   5.380   3.436  0.5200  0.0950  0.6848
  542SOL     OW 2165   0.679   5.222   3.421 -0.8353 -0.0178  0.0455
  542SOL    HW1 2166   0.607   5.221   3.358 -0.3522 -1.1415 -0.5052
  542SOL    HW2 2167   0.742   5.159   3.388 -0.0159  0.2454  1.0287
  542SOL     MW 2168   0.678   5.214   3.409 -0.6686 -0.1279  0.1009
  543SOL     OW 2169   0.596   2.724   4.518  0.2596  0.4101  0.2300
  543SOL    HW1 2170   0.650   2.771   4.455 -0.0897  0.6004  0.0693
  543SOL    HW2 2171   0.556   2.653   4.468  1.0417 -0.2723  0.5431
  543SOL     MW 2172   0.597   2.721   4.504  0.3150  0.3471  0.2495
  544SOL     OW 2173   1.271   1.033   4.786 -0.5419 -0.1380  0.2497
  544SOL    HW1 2174   1.228   1.073   4.862 -1.7364 -0.5137 -0.2176
  544SOL    HW2 2175   1.202   0.983   4.742  0.3455 -0.6698 -0.5840
  544SOL     MW 2176   1.257   1.031   4.790 -0.5812 -0.2542  0.0831
  545SOL     OW 2177   1.955   5.232   2.172  0.0938 -0.7406  0.0539
  545SOL    HW1 2178   1.879   5.176   2.190 -0.1073 -2.4894 -4.6216
  545SOL    HW2 2179   1.919   5.320   2.163 -0.7609 -0.9623  1.1396
  545SOL     MW 2180   1.941   5.236   2.173 -0.0413 -0.9929 -0.4056
  546SOL     OW 2181   2.499   1.477   3.083  0.1108  0.6123 -0.1141
  546SOL    HW1 2182   2.468   1.560   3.048  1.3076  0.7450 -0.8875
  546SOL    HW2 2183   2.579   1.498   3.131 -0.6901  0.2049  1.4899
  546SOL     MW 2184   2.505   1.490   3.084  0.1615  0.5771 -0.0078
  547SOL     OW 2185   0.072   5.060   3.015  0.2164  0.1494 -0.1720
  547SOL    HW1 2186   0.123   5.127   2.969  0.9252  0.7689  1.4700
  547SOL    HW2 2187   0.136   4.993   3.038 -0.5041 -1.2023 -1.8873
  547SOL     MW 2188   0.086   5.060   3.012  0.2149  0.0557 -0.1814
  548SOL     OW 2189   2.622   4.431   0.211  0.3130 -0.1625  0.2039
  548SOL    HW1 2190   2.619   4.482   0.292 -0.2037  2.1225 -1.1822
  548SOL    HW2 2191   2.543   4.455   0.164  1.5298  0.0719 -1.8476
  548SOL     MW 2192   2.612   4.441   0.215  0.4026  0.1600 -0.2362
  549SOL     OW 2193   0.057   3.682   4.957 -0.1483 -0.0094  0.2189
  549SOL    HW1 2194   0.149   3.657   4.959 -0.3245 -0.6215  1.9993
  549SOL    HW2 2195   0.013   3.620   5.014 -1.1918  2.0130  1.7652
  549SOL     MW 2196   0.063   3.671   4.965 -0.3045  0.1712  0.6447
  550SOL     OW 2197   0.291   4.828   1.461  0.3251  0.0602 -0.2252
  550SOL    HW1 2198   0.280   4.922   1.446  0.4269  0.0707 -0.2365
  550SOL    HW2 2199   0.369   4.823   1.517 -0.0876  0.0240  0.3484
  550SOL     MW 2200   0.300   4.840   1.466  0.2853  0.0569 -0.1532
  551SOL     OW 2201   1.593   3.597   3.668  0.1513  0.1739 -0.2451
  551SOL    HW1 2202   1.667   3.658   3.668 -0.1131  0.5594 -2.1638
  551SOL    HW2 2203   1.528   3.637   3.725  1.1219  0.2031  0.8548
  551SOL     MW 2204   1.594   3.610   3.675  0.2417  0.2270 -0.3499
  552SOL     OW 2205   3.833   0.754   2.899 -0.6425  0.0173 -0.3840
  552SOL    HW1 2206   3.802   0.722   2.814  0.9030 -1.1682 -0.5362
  552SOL    HW2 2207   3.876   0.678   2.939 -0.8000  0.7232  1.2106
  552SOL     MW 2208   3.834   0.740   2.893 -0.4648 -0.0441 -0.1994
  553SOL     OW 2209   2.940   4.761   3.324  0.3350 -0.4205 -0.7469
  553SOL    HW1 2210   2.983   4.741   3.407 -1.4341  0.9209  0.5825
  553SOL    HW2 2211   2.994   4.830   3.285  1.2604 -1.1640 -0.8264
  553SOL     MW 2212   2.953   4.767   3.330  0.2270 -0.3440 -0.5869
  554SOL     OW 2213   4.472   1.390   0.806  0.4602 -0.1379  0.2382
  554SOL    HW1 2214   4.465   1.432   0.892  0.0464  0.9135 -0.3043
  554SOL    HW2 2215   4.519   1.308   0.824  1.4447  0.6268  1.2751
  554SOL     MW 2216   4.477   1.385   0.819  0.5333  0.0946  0.3015
  555SOL     OW 2217   0.325   1.899   0.922 -0.4421  0.0238 -0.1558
  555SOL    HW1 2218   0.295   1.824   0.973 -3.0172  0.3298 -1.0911
  555SOL    HW2 2219   0.347   1.965   0.987 -1.2220 -0.4532  0.6158
  555SOL     MW 2220   0.324   1.898   0.937 -0.8716  0.0019 -0.1768
  556SOL     OW 2221   4.217   2.161   0.823  0.0284  0.4875  0.2393
  556SOL    HW1 2222   4.245   2.070   0.813  0.4721  0.3652  2.2263
  556SOL    HW2 2223   4.152   2.159   0.894 -1.1459  1.5123 -0.7619
  556SOL     MW 2224   4.212   2.149   0.831 -0.0651  0.6030  0.3655
  557SOL     OW 2225   0.571   1.124   1.536 -0.2511  0.0426 -0.8322
  557SOL    HW1 2226   0.604   1.040   1.567 -1.5693 -0.3284 -0.4105
  557SOL    HW2 2227   0.609   1.188   1.597 -2.0149 -0.5817  1.0205
  557SOL     MW 2228   0.580   1.122   1.548 -0.6456 -0.0848 -0.5411
  558SOL     OW 2229   2.822   4.872   4.452 -0.3143 -0.0939 -0.4340
  558SOL    HW1 2230   2.817   4.898   4.361 -2.0204  0.4917 -0.2138
  558SOL    HW2 2231   2.731   4.855   4.477 -0.0570  1.1278  1.5311
  558SOL     MW 2232   2.810   4.873   4.444 -0.4998  0.1375 -0.1542
  559SOL     OW 2233   0.402   4.517   3.770  0.0831 -0.3729  0.1459
  559SOL    HW1 2234   0.323   4.568   3.785  0.6560  0.1766  1.3740
  559SOL    HW2 2235   0.465   4.551   3.832  0.2316 -3.1759  1.7042
  559SOL     MW 2236   0.400   4.528   3.780  0.1754 -0.6613  0.5026
  560SOL     OW 2237   0.637   4.503   2.454  0.2086  0.2478  0.4357
  560SOL    HW1 2238   0.545   4.529   2.449 -0.1944 -0.9781  0.9776
  560SOL    HW2 2239   0.656   4.505   2.548  1.2158  1.9716  0.2423
  560SOL     MW 2240   0.627   4.507   2.466  0.2860  0.3115  0.4804
  561SOL     OW 2241   1.606   0.095   5.109 -0.4938  0.1563 -0.2095
  561SOL    HW1 2242   1.551   0.021   5.136 -1.3152  0.9570  0.3509
  561SOL    HW2 2243   1.568   0.124   5.027  0.5136 -0.7261 -1.0177
  561SOL     MW 2244   1.594   0.089   5.102 -0.4700  0.1458 -0.2412
  562SOL     OW 2245   3.896   1.968   1.960  0.1961  0.1001  0.1536
  562SOL    HW1 2246   3.897   2.060   1.934  0.2861  0.1489  0.3282
  562SOL    HW2 2247   3.912   1.970   2.054  3.2391 -0.2556 -0.2796
  562SOL     MW 2248   3.898   1.980   1.969  0.5971  0.0608  0.1205
  563SOL     OW 2249   1.378   0.621   4.541 -0.4801  0.0678  0.3380
  563SOL    HW1 2250   1.447   0.570   4.582  0.4525  1.2916  0.3540
  563SOL    HW2 2251   1.341   0.563   4.475  0.4497 -0.6753  0.4481
  563SOL     MW 2252   1.382   0.607   4.538 -0.2417  0.1293  0.3542
  564SOL     OW 2253   2.263   1.126   4.912 -0.1886 -0.6696 -0.1919
  564SOL    HW1 2254   2.325   1.105   4.842  0.4936 -1.5313  0.6582
  564SOL    HW2 2255   2.283   1.064   4.982 -0.2860  0.7082  1.1165
  564SOL     MW 2256   2.274   1.116   4.912 -0.1137 -0.6035  0.0845
  565SOL     OW 2257   4.772   3.632   1.123  0.4961  0.1617 -0.5843
  565SOL    HW1 2258   4.730   3.585   1.051 -0.2979  2.4375 -1.7143
  565SOL    HW2 2259   4.826   3.566   1.166  0.9852 -1.3387 -3.2339
  565SOL     MW 2260   4.773   3.618   1.119  0.4571  0.2610 -1.0681
  566SOL     OW 2261   1.246   3.661   3.023 -0.4304  0.6155  0.0734
  566SOL    HW1 2262   1.315   3.728   3.022  1.0135 -0.7897  1.0102
  566SOL    HW2 2263   1.258   3.614   2.941 -1.3392  1.3609 -0.5063
  566SOL     MW 2264   1.257   3.664   3.013 -0.3619  0.5310  0.1191
  567SOL     OW 2265   0.544   0.151   0.750  0.2283 -0.6638 -0.2829
  567SOL    HW1 2266   0.580   0.215   0.688 -2.1623  1.5774  0.4276
  567SOL    HW2 2267   0.597   0.162   0.829  1.6432 -1.6806 -1.0507
  567SOL     MW 2268   0.555   0.161   0.752  0.1034 -0.5071 -0.2903
  568SOL     OW 2269   3.454   4.451   1.886 -0.1385 -0.6903 -0.4540
  568SOL    HW1 2270   3.388   4.391   1.852 -1.0940  0.2158 -0.2699
  568SOL    HW2 2271   3.492   4.492   1.809 -1.0260  0.0410 -0.5222
  568SOL     MW 2272   3.450   4.448   1.872 -0.3744 -0.4807 -0.4391
  569SOL     OW 2273   3.516   5.319   2.006 -0.0633  0.1759 -0.0226
  569SOL    HW1 2274   3.426   5.350   1.995  0.3112  1.5056  0.5164
  569SOL    HW2 2275   3.511   5.255   2.077 -0.7467 -0.5969 -0.7432
  569SOL     MW 2276   3.504   5.315   2.014 -0.1028  0.2472 -0.0459
  570SOL     OW 2277   0.058   2.660   4.695  0.1312  0.2513 -0.1294
  570SOL    HW1 2278   0.145   2.676   4.660  0.3128 -1.6570 -0.6547
  570SOL    HW2 2279   0.016   2.746   4.696  1.2498  0.8711 -1.9394
  570SOL     MW 2280   0.064   2.673   4.691  0.2976  0.0864 -0.4283
  571SOL     OW 2281   1.242   3.249   4.098 -0.8483  0.9195  0.1940
  571SOL    HW1 2282   1.238   3.216   4.008 -0.6028  0.8170  0.2220
  571SOL    HW2 2283   1.267   3.341   4.089 -2.7778  1.4696  0.0346
  571SOL     MW 2284   1.244   3.256   4.085 -1.0639  0.9768  0.1772
  572SOL     OW 2285   0.263   1.264   3.474  0.5005 -0.1707  0.1874
  572SOL    HW1 2286   0.353   1.295   3.465  0.2451 -0.0328 -2.7629
  572SOL    HW2 2287   0.258   1.186   3.420 -1.0953 -0.3460  0.5207
  572SOL     MW 2288   0.274   1.258   3.466  0.2635 -0.1755 -0.1476
  573SOL     OW 2289   4.662   4.409   0.934 -0.0704 -0.2716 -0.5593
  573SOL    HW1 2290   4.600   4.469   0.892  0.9503  0.1286 -1.5432
  573SOL    HW2 2291   4.747   4.451   0.923  0.1953  0.5151  3.0668
  573SOL     MW 2292   4.665   4.422   0.927  0.0943 -0.1197 -0.2211
  574SOL     OW 2293   0.412   3.766   3.214 -0.3595 -0.0860 -0.2500
  574SOL    HW1 2294   0.389   3.673   3.218 -0.2040 -0.1568 -0.8880
  574SOL    HW2 2295   0.336   3.811   3.251 -0.8598 -0.4135 -0.8545
  574SOL     MW 2296   0.400   3.760   3.220 -0.4036 -0.1370 -0.4091
  575SOL     OW 2297   2.631   4.443   1.958  0.0941  0.0703 -0.0480
  575SOL    HW1 2298   2.547   4.443   2.004 -0.0696 -0.7878 -0.3341
  575SOL    HW2 2299   2.693   4.479   2.022 -0.0280 -1.5526  1.0575
  575SOL     MW 2300   2.628   4.447   1.972  0.0575 -0.2473  0.0569
  576SOL     OW 2301   0.928   0.014   0.294  0.3287  0.0007 -0.1004
  576SOL    HW1 2302   1.006   0.039   0.244  0.4364 -1.1129 -0.5184
  576SOL    HW2 2303   0.862  -0.005   0.228 -0.7419  2.1749  0.2594
  576SOL     MW 2304   0.930   0.015   0.279  0.2054  0.1365 -0.1079
  577SOL     OW 2305   0.643   1.244   3.381  0.1558  0.2267 -0.5666
  577SOL    HW1 2306   0.702   1.296   3.326 -0.0135  0.1781 -0.7958
  577SOL    HW2 2307   0.626   1.165   3.331  0.3380 -0.0087 -0.2559
  577SOL     MW 2308   0.648   1.241   3.368  0.1575  0.1904 -0.5562
  578SOL     OW 2309   0.286   1.531   3.361  0.1312 -0.0638 -0.6201
  578SOL    HW1 2310   0.265   1.572   3.444 -0.9480  0.2351 -1.0275
  578SOL    HW2 2311   0.279   1.437   3.378  1.2406 -0.0691 -0.0499
  578SOL     MW 2312   0.283   1.524   3.373  0.1351 -0.0262 -0.5993
  579SOL     OW 2313   4.267   5.112   3.327  0.3463  0.0948  0.0308
  579SOL    HW1 2314   4.308   5.072   3.251  1.7238  1.4083  0.0439
  579SOL    HW2 2315   4.173   5.095   3.314  0.6805 -1.1240 -1.0902
  579SOL     MW 2316   4.260   5.105   3.315  0.5654  0.1069 -0.1110
  580SOL     OW 2317   0.589   0.813   2.739  0.3024  0.2838  0.4261
  580SOL    HW1 2318   0.493   0.809   2.735  0.3696 -1.5414  0.0907
  580SOL    HW2 2319   0.614   0.854   2.656 -0.2060  2.3691  1.2157
  580SOL     MW 2320   0.580   0.818   2.728  0.2459  0.3171  0.4842
  581SOL     OW 2321   1.883   3.336   0.594 -0.2017  0.4786 -0.5283
  581SOL    HW1 2322   1.811   3.278   0.570  0.1772  0.5748 -2.0200
  581SOL    HW2 2323   1.845   3.424   0.591 -0.3175  0.4444 -0.1037
  581SOL     MW 2324   1.869   3.340   0.590 -0.1680  0.4866 -0.6649
  582SOL     OW 2325   4.802   4.642   4.195  0.2861 -0.1711  0.0089
  582SOL    HW1 2326   4.864   4.571   4.207  2.3164  1.8110  2.0627
  582SOL    HW2 2327   4.835   4.691   4.119  1.1875  0.7536  0.9647
  582SOL     MW 2328   4.814   4.639   4.186  0.6614  0.2010  0.3942
  583SOL     OW 2329   4.264   4.224   1.947 -0.8014 -0.8727 -0.3266
  583SOL    HW1 2330   4.235   4.199   1.859 -0.9945 -0.7887 -0.2886
  583SOL    HW2 2331   4.186   4.210   2.002 -0.5148 -1.4795 -0.0664
  583SOL     MW 2332   4.250   4.219   1.943 -0.7895 -0.9396 -0.2884
  584SOL     OW 2333   2.082   5.152   3.243  0.2455 -0.6959 -0.0262
  584SOL    HW1 2334   2.001   5.197   3.220  0.4307 -0.4538 -0.2133
  584SOL    HW2 2335   2.099   5.094   3.169  1.3254  0.7474 -0.9582
  584SOL     MW 2336   2.074   5.150   3.231  0.4075 -0.4802 -0.1695
  585SOL     OW 2337   3.915   5.049   3.867 -0.2910 -0.3869 -0.2810
  585SOL    HW1 2338   3.859   4.976   3.839 -1.9217  0.7935 -0.2429
  585SOL    HW2 2339   3.862   5.127   3.850  1.3794  0.7928 -0.2523
  585SOL     MW 2340   3.901   5.050   3.861 -0.2859 -0.0848 -0.2725
  586SOL     OW 2341   1.330   2.471   2.979  0.8661 -0.1892 -0.4812
  586SOL    HW1 2342   1.269   2.527   3.027  2.2541  0.6222  0.4190
  586SOL    HW2 2343   1.342   2.394   3.035 -0.2243 -0.9290 -1.2242
  586SOL     MW 2344   1.324   2.468   2.993  0.9042 -0.1801 -0.4610
  587SOL     OW 2345   1.735   3.360   0.045  0.1201  0.0256 -0.1762
  587SOL    HW1 2346   1.666   3.302   0.078  0.7023 -1.3402 -1.2518
  587SOL    HW2 2347   1.693   3.446   0.040 -1.3537 -0.6649 -0.3080
  587SOL     MW 2348   1.720   3.364   0.049  0.0060 -0.2376 -0.3308
  588SOL     OW 2349   1.222   4.858   3.688 -0.0462  0.1331 -0.7919
  588SOL    HW1 2350   1.212   4.876   3.781 -3.0865  0.5289 -1.0852
  588SOL    HW2 2351   1.210   4.763   3.680  1.3705 -0.0764 -0.7147
  588SOL     MW 2352   1.219   4.848   3.699 -0.2541  0.1569 -0.8195
  589SOL     OW 2353   0.040   3.206   5.279 -0.2537 -0.0869  0.0991
  589SOL    HW1 2354   0.049   3.212   5.184 -1.4846 -0.0363 -0.0412
  589SOL    HW2 2355   0.129   3.211   5.313  0.3432 -1.5995 -1.1258
  589SOL     MW 2356   0.052   3.207   5.272 -0.3349 -0.2741 -0.0757
  590SOL     OW 2357   0.390   0.760   1.679 -0.5159 -0.1254 -0.1855
  590SOL    HW1 2358   0.304   0.769   1.720 -1.1203  0.8439 -1.5667
  590SOL    HW2 2359   0.385   0.677   1.631  0.3573 -1.5026  1.9490
  590SOL     MW 2360   0.378   0.751   1.678 -0.4815 -0.1776 -0.0891
  591SOL     OW 2361   4.748   3.926   3.705 -0.2842 -0.2048  0.3085
  591SOL    HW1 2362   4.829   3.937   3.755  0.6233 -2.5571 -0.4874
  591SOL    HW2 2363   4.714   4.015   3.695  2.0785  0.8608  0.8594
  591SOL     MW 2364   4.754   3.939   3.710  0.1344 -0.3695  0.2771
  592SOL     OW 2365   3.092   0.926   0.074  0.1033  0.0521  0.6710
  592SOL    HW1 2366   3.064   0.835   0.068 -0.7011  0.3184  0.2644
  592SOL    HW2 2367   3.023   0.970   0.124  1.7013 -0.0323  3.1657
  592SOL     MW 2368   3.080   0.920   0.080  0.2049  0.0754  0.9383
  593SOL     OW 2369   1.062   3.014   4.644 -0.2312  0.2885  0.6177
  593SOL    HW1 2370   1.041   2.928   4.608 -3.1353  1.5270 -0.9791
  593SOL    HW2 2371   1.039   3.008   4.737 -1.9994 -0.2613  0.1890
  593SOL     MW 2372   1.056   3.002   4.651 -0.8293  0.3767  0.3584
  594SOL     OW 2373   2.232   1.833   1.093  0.0477 -0.1610  0.3588
  594SOL    HW1 2374   2.302   1.770   1.107  1.6194  1.4104 -0.0234
  594SOL    HW2 2375   2.275   1.907   1.050 -1.9792  0.6252 -0.4429
  594SOL     MW 2376   2.246   1.835   1.089 -0.0106  0.1408  0.2073
  595SOL     OW 2377   0.078   1.637   2.192  0.4076 -0.4297  0.6427
  595SOL    HW1 2378   0.159   1.615   2.238  2.6873  3.6570 -0.8950
  595SOL    HW2 2379   0.105   1.656   2.102 -2.1266  1.5127  0.1674
  595SOL     MW 2380   0.092   1.637   2.187  0.3750  0.3421  0.3850
  596SOL     OW 2381   3.440   4.427   4.151  0.7949  0.2665  0.7537
  596SOL    HW1 2382   3.488   4.452   4.072 -1.4511  0.3149 -0.6673
  596SOL    HW2 2383   3.397   4.344   4.128  1.6002 -0.7269  2.6082
  596SOL     MW 2384   3.441   4.419   4.138  0.6105  0.1455  0.8092
  597SOL     OW 2385   3.585   1.218   4.809 -0.3280 -0.0806 -0.3375
  597SOL    HW1 2386   3.530   1.269   4.749 -1.2449 -0.2870  0.3068
  597SOL    HW2 2387   3.605   1.279   4.880  0.8027  0.1809 -0.8630
  597SOL     MW 2388   3.581   1.232   4.810 -0.3006 -0.0736 -0.3223
  598SOL     OW 2389   1.368   2.669   2.522 -0.0453  1.2535  0.4223
  598SOL    HW1 2390   1.280   2.706   2.533 -1.0992 -0.8716 -0.2725
  598SOL    HW2 2391   1.361   2.580   2.557  0.9408 -0.0402 -2.3969
  598SOL     MW 2392   1.356   2.662   2.528 -0.0539  0.8158 -0.0275
  599SOL     OW 2393   1.186   1.320   2.024 -0.2741  0.3020 -0.3053
  599SOL    HW1 2394   1.195   1.242   1.970  0.3466  1.0849 -1.3808
  599SOL    HW2 2395   1.241   1.303   2.101  0.2167 -0.1318 -0.7486
  599SOL     MW 2396   1.194   1.308   2.027 -0.1318  0.3467 -0.4997
  600SOL     OW 2397   4.399   4.104   0.922 -0.3080 -0.3006  0.5820
  600SOL    HW1 2398   4.307   4.097   0.898  0.5534 -1.2415 -2.9580
  600SOL    HW2 2399   4.435   4.017   0.904  1.8274  0.8463 -1.0637
  600SOL     MW 2400   4.392   4.092   0.917  0.0757 -0.2742 -0.0818
  601SOL     OW 2401   2.464   2.841   1.197 -0.2397  0.1518  0.4280
  601SOL    HW1 2402   2.495   2.910   1.139  0.2006 -0.2126  0.2147
  601SOL    HW2 2403   2.462   2.763   1.142 -2.3453  0.3084  0.2236
  601SOL     MW 2404   2.468   2.840   1.183 -0.4529  0.1252  0.3745
  602SOL     OW 2405   2.503   4.441   3.611 -0.6250  0.2287 -0.7617
  602SOL    HW1 2406   2.511   4.352   3.646  0.2409  0.6101  0.0437
  602SOL    HW2 2407   2.472   4.493   3.684  1.0296  1.0027 -0.5784
  602SOL     MW 2408   2.500   4.436   3.625 -0.3023  0.3766 -0.6351
  603SOL     OW 2409   4.948   4.013   5.065 -0.0409  0.4782 -0.1222
  603SOL    HW1 2410   4.998   3.934   5.045  0.9581  0.7873  1.0486
  603SOL    HW2 2411   4.858   3.991   5.042  0.1500 -1.1612  0.5857
  603SOL     MW 2412   4.943   4.000   5.059  0.1115  0.3079  0.1183
  604SOL     OW 2413   4.394   0.144   1.678  0.0161 -0.0128  0.0306
  604SOL    HW1 2414   4.469   0.201   1.664  1.3063 -1.7933 -0.6768
  604SOL    HW2 2415   4.418   0.062   1.636 -1.7984 -1.0736  0.9402
  604SOL     MW 2416   4.407   0.141   1.671 -0.0510 -0.3765  0.0565
  605SOL     OW 2417   2.190   2.828   3.567  0.3358 -0.0115 -0.2947
  605SOL    HW1 2418   2.165   2.740   3.539  0.8709 -0.2800  0.0422
  605SOL    HW2 2419   2.257   2.855   3.504  0.0093  0.2457 -0.5308
  605SOL     MW 2420   2.195   2.820   3.555  0.3625 -0.0130 -0.2818
  606SOL     OW 2421   4.343   1.148   0.218 -0.3561  0.3044  0.0003
  606SOL    HW1 2422   4.316   1.074   0.163  1.1502 -0.0897 -0.2723
  606SOL    HW2 2423   4.299   1.224   0.181  0.1961 -0.0441 -1.4310
  606SOL     MW 2424   4.334   1.148   0.207 -0.0926  0.2093 -0.2178
  607SOL     OW 2425   2.791   1.733   4.063  0.2104 -0.0585  0.3220
  607SOL    HW1 2426   2.742   1.677   4.123  0.0830 -0.8410 -0.4751
  607SOL    HW2 2427   2.870   1.682   4.042  1.6839  1.3835  1.9815
  607SOL     MW 2428   2.795   1.719   4.068  0.3827  0.0260  0.4324
  608SOL     OW 2429   0.953   2.929   0.151  0.0254  0.0466  0.3937
  608SOL    HW1 2430   0.868   2.929   0.195 -0.5615  3.1292 -0.4976
  608SOL    HW2 2431   1.001   3.002   0.190  1.0993  0.2466 -1.1857
  608SOL     MW 2432   0.949   2.938   0.162  0.0877  0.4668  0.0774
  609SOL     OW 2433   5.026   2.939   0.681 -0.0475 -0.1177 -0.1244
  609SOL    HW1 2434   4.980   2.917   0.762 -1.4192  1.7970 -0.3209
  609SOL    HW2 2435   4.968   2.908   0.611  0.8594 -1.2290 -0.4248
  609SOL     MW 2436   5.013   2.932   0.682 -0.1070 -0.0149 -0.1880
  610SOL     OW 2437   0.737   2.903   4.392 -0.7781  0.2206  0.4742
  610SOL    HW1 2438   0.795   2.971   4.427  0.0578  0.5113 -1.3745
  610SOL    HW2 2439   0.686   2.948   4.325 -1.6224 -0.5476  0.5827
  610SOL     MW 2440   0.738   2.918   4.388 -0.7792  0.1595  0.2515
  611SOL     OW 2441   5.235   5.188   4.489  0.3579  0.1614 -0.2501
  611SOL    HW1 2442   5.252   5.282   4.484  3.9983 -0.3573 -0.6645
  611SOL    HW2 2443   5.234   5.169   4.583 -2.4112  0.7997 -0.0770
  611SOL     MW 2444   5.237   5.198   4.501  0.4694  0.1767 -0.2810
  612SOL     OW 2445   1.035   2.382   2.070  0.6605 -0.2161  0.2103
  612SOL    HW1 2446   1.126   2.390   2.097  0.2971  1.7756  1.0711
  612SOL    HW2 2447   0.987   2.437   2.132 -0.7735  0.9794 -1.8423
  612SOL     MW 2448   1.040   2.390   2.081  0.4304  0.1919  0.0578
  613SOL     OW 2449   2.354   0.928   1.076 -0.7369 -0.1993  0.0822
  613SOL    HW1 2450   2.434   0.895   1.036 -0.0675  1.2137  0.1738
  613SOL    HW2 2451   2.292   0.935   1.004 -0.8028 -1.3248  0.0134
  613SOL     MW 2452   2.356   0.925   1.062 -0.6596 -0.1625  0.0851
  614SOL     OW 2453   0.010   4.658   0.896 -0.2169 -0.1557 -0.2769
  614SOL    HW1 2454   0.097   4.670   0.858  0.1589 -0.3199  0.5261
  614SOL    HW2 2455   0.012   4.570   0.933 -0.4611  0.1373  0.4404
  614SOL     MW 2456   0.021   4.648   0.896 -0.2001 -0.1392 -0.0823
  615SOL     OW 2457   0.103   4.887   0.096  0.2817  0.1521 -0.2810
  615SOL    HW1 2458   0.062   4.902   0.181 -0.0379 -0.2874 -0.3574
  615SOL    HW2 2459   0.030   4.877   0.035  0.4979 -0.5436 -0.4323
  615SOL     MW 2460   0.089   4.888   0.099  0.2685  0.0068 -0.3102
  616SOL     OW 2461   4.488   1.939   0.465 -0.2400 -0.0866  0.4935
  616SOL    HW1 2462   4.509   1.892   0.546 -0.3016  1.0365  1.1775
  616SOL    HW2 2463   4.393   1.935   0.459 -0.2491 -0.0005  0.5793
  616SOL     MW 2464   4.479   1.932   0.474 -0.2491  0.0682  0.5920
  617SOL     OW 2465   4.533   1.273   1.679 -0.3326 -0.3278  0.2325
  617SOL    HW1 2466   4.506   1.341   1.617  1.4941 -1.1657 -1.6018
  617SOL    HW2 2467   4.607   1.229   1.636  0.5590 -1.4452  2.7194
  617SOL     MW 2468   4.539   1.276   1.666  0.0154 -0.5781  0.3160
  618SOL     OW 2469   5.265   4.633   4.198  0.3354 -0.2130 -0.5071
  618SOL    HW1 2470   5.245   4.723   4.170  0.0252  0.1440  0.7910
  618SOL    HW2 2471   5.333   4.643   4.264 -1.2746 -0.6907  1.3263
  618SOL     MW 2472   5.271   4.646   4.203  0.0896 -0.2284 -0.1062
  619SOL     OW 2473   1.547   2.629   1.203 -0.2981  0.5704 -0.1268
  619SOL    HW1 2474   1.510   2.686   1.136  0.8010  1.2227 -0.2125
  619SOL    HW2 2475   1.517   2.667   1.286  0.3980  1.2673 -0.1855
  619SOL     MW 2476   1.539   2.641   1.205 -0.0683  0.7431 -0.1453
  620SOL     OW 2477   0.800   3.585   0.284 -0.4291  0.9079  0.2492
  620SOL    HW1 2478   0.765   3.673   0.271 -0.7315  0.9304  1.1354
  620SOL    HW2 2479   0.722   3.530   0.294 -0.2314  0.6929  0.6240
  620SOL     MW 2480   0.786   3.589   0.283 -0.4425  0.8832  0.4106
  621SOL     OW 2481   4.429   3.464   0.838  0.3646 -0.3293  0.5255
  621SOL    HW1 2482   4.419   3.436   0.748  1.6116 -0.5563  0.4398
  621SOL    HW2 2483   4.340   3.463   0.874 -0.3139  0.9028 -1.0113
  621SOL     MW 2484   4.417   3.460   0.831  0.4373 -0.2007  0.3178
  622SOL     OW 2485   3.000   2.443   0.846  0.0315  0.0008  0.1779
  622SOL    HW1 2486   3.054   2.427   0.768 -1.3298 -1.5917 -0.5115
  622SOL    HW2 2487   2.924   2.491   0.813 -1.3900 -2.1575  0.1196
  622SOL     MW 2488   2.997   2.447   0.832 -0.3247 -0.4793  0.0822
  623SOL     OW 2489   4.456   4.906   0.509 -0.2774 -0.9223  0.0902
  623SOL    HW1 2490   4.495   4.951   0.434  0.7528 -2.1563 -0.1391
  623SOL    HW2 2491   4.440   4.976   0.572  0.5368 -0.1136 -0.5606
  623SOL     MW 2492   4.459   4.921   0.507 -0.0413 -0.9767 -0.0225
  624SOL     OW 2493   3.977   1.906   0.915 -0.2377 -0.4663  0.3949
  624SOL    HW1 2494   3.896   1.942   0.878  1.1813  2.2619 -0.3310
  624SOL    HW2 2495   3.977   1.935   1.006  0.7995  1.3074 -0.1300
  624SOL     MW 2496   3.966   1.914   0.922  0.0767  0.1100  0.2348
  625SOL     OW 2497   3.824   5.164   4.531  0.4540  0.3306 -0.0550
  625SOL    HW1 2498   3.790   5.079   4.506  1.8395 -0.6142  1.0762
  625SOL    HW2 2499   3.878   5.191   4.456  1.7761 -0.8477  0.4201
  625SOL     MW 2500   3.827   5.157   4.518  0.8006  0.0588  0.1506
  626SOL     OW 2501   1.798   0.125   3.053 -0.0812  0.1191 -0.0115
  626SOL    HW1 2502   1.812   0.077   3.134  0.0563 -0.2639 -0.2544
  626SOL    HW2 2503   1.796   0.217   3.079  0.0749  0.0066  0.4088
  626SOL     MW 2504   1.800   0.130   3.066 -0.0436  0.0557  0.0112
  627SOL     OW 2505   4.342   3.144   2.734  0.0225  0.6776 -0.3991
  627SOL    HW1 2506   4.325   3.154   2.640 -0.7308 -0.1968 -0.3711
  627SOL    HW2 2507   4.412   3.206   2.752  1.7947 -0.7315 -1.9994
  627SOL     MW 2508   4.349   3.153   2.724  0.1530  0.3853 -0.6004
  628SOL     OW 2509   5.384   3.251   1.227 -0.3070  0.2803  0.1352
  628SOL    HW1 2510   5.448   3.297   1.173  0.2414 -0.3612  0.2153
  628SOL    HW2 2511   5.302   3.258   1.178 -0.3679  1.7880  0.4137
  628SOL     MW 2512   5.381   3.257   1.214 -0.2446  0.3912  0.1811
  629SOL     OW 2513   4.203   1.896   5.384  0.1636 -0.1257 -0.1372
  629SOL    HW1 2514   4.219   1.839   5.459 -1.0916 -1.7946 -1.0573
  629SOL    HW2 2515   4.117   1.934   5.401 -0.7580 -1.5877 -1.3125
  629SOL     MW 2516   4.194   1.894   5.396 -0.1150 -0.5265 -0.4054
  630SOL     OW 2517   1.093   2.370   5.093 -0.1759  0.0128 -0.2753
  630SOL    HW1 2518   1.013   2.422   5.096 -0.7426 -0.7390 -1.4904
  630SOL    HW2 2519   1.146   2.403   5.165 -1.6943  0.3320  0.7488
  630SOL     MW 2520   1.090   2.380   5.102 -0.4428 -0.0426 -0.2997
  631SOL     OW 2521   2.529   5.179   3.801 -0.9271 -0.1737 -0.3438
  631SOL    HW1 2522   2.508   5.097   3.846 -0.5096  0.1949  0.5543
  631SOL    HW2 2523   2.454   5.236   3.818 -1.4889 -0.5562 -1.4728
  631SOL     MW 2524   2.517   5.176   3.809 -0.9456 -0.1755 -0.3734
  632SOL     OW 2525   1.855   3.040   5.346  0.3586 -0.1480  0.1173
  632SOL    HW1 2526   1.770   3.004   5.320  0.2851 -0.0595  0.2309
  632SOL    HW2 2527   1.897   3.064   5.264  0.4724 -0.6345  0.0336
  632SOL     MW 2528   1.849   3.039   5.332  0.3637 -0.1989  0.1211
  633SOL     OW 2529   3.030   3.315   5.290 -0.1544 -0.1702  0.0468
  633SOL    HW1 2530   3.072   3.285   5.209  1.0249  0.5322  0.3791
  633SOL    HW2 2531   3.019   3.409   5.277 -0.4337 -0.1429  0.4977
  633SOL     MW 2532   3.034   3.323   5.278 -0.0392 -0.0768  0.1470
  634SOL     OW 2533   5.125   4.565   1.784 -0.2259 -0.0865  0.6086
  634SOL    HW1 2534   5.174   4.557   1.866  2.8142 -1.3742 -1.1580
  634SOL    HW2 2535   5.120   4.659   1.768  0.3673  0.1276  1.5904
  634SOL     MW 2536   5.130   4.576   1.792  0.2392 -0.2239  0.5081
  635SOL     OW 2537   3.257   0.929   4.798 -0.6982  1.1665  0.5066
  635SOL    HW1 2538   3.339   0.978   4.802 -0.5229  1.4070 -3.1277
  635SOL    HW2 2539   3.275   0.849   4.849  1.0368  2.1237  1.4994
  635SOL     MW 2540   3.270   0.925   4.805 -0.4537  1.3198  0.1685
  636SOL     OW 2541   3.844   0.040   2.035  0.1885  0.5934  0.3563
  636SOL    HW1 2542   3.774   0.042   2.100 -0.5914 -0.6641 -0.4042
  636SOL    HW2 2543   3.904  -0.027   2.065  0.0493  0.3136  0.0271
  636SOL     MW 2544   3.842   0.032   2.047  0.0708  0.3966  0.2168
  637SOL     OW 2545   3.468   3.173   0.281  0.7783 -0.6359 -0.0618
  637SOL    HW1 2546   3.534   3.117   0.323 -0.0848 -0.5124  1.5358
  637SOL    HW2 2547   3.501   3.262   0.294  1.5321 -0.6863 -1.5045
  637SOL     MW 2548   3.481   3.177   0.288  0.7643 -0.6266 -0.0419
  638SOL     OW 2549   2.638   4.524   2.894 -1.0385  0.0360  0.6810
  638SOL    HW1 2550   2.554   4.568   2.903 -0.2483  2.1693 -1.3894
  638SOL    HW2 2551   2.636   4.486   2.806  0.6494  1.3416  0.0347
  638SOL     MW 2552   2.627   4.525   2.884 -0.7213  0.4762  0.3332
  639SOL     OW 2553   1.363   1.205   3.615  0.7358 -0.2205 -0.0355
  639SOL    HW1 2554   1.274   1.227   3.644  0.9279  1.6817 -0.7553
  639SOL    HW2 2555   1.414   1.283   3.633  1.8601 -0.6289 -1.3131
  639SOL     MW 2556   1.358   1.217   3.621  0.9043 -0.0293 -0.2912
  640SOL     OW 2557   5.452   1.611   4.018  0.4934  0.4114  0.0358
  640SOL    HW1 2558   5.529   1.659   4.049  1.2470  0.4497 -1.7990
  640SOL    HW2 2559   5.381   1.676   4.021  0.8037  0.7398  0.5219
  640SOL     MW 2560   5.452   1.626   4.022  0.6296  0.4584 -0.1369
  641SOL     OW 2561   0.140   0.893   4.946 -0.1295 -0.0962  0.5253
  641SOL    HW1 2562   0.140   0.982   4.910  1.5352 -0.1251  0.3474
  641SOL    HW2 2563   0.061   0.888   5.000 -0.3833  1.3985  0.3272
  641SOL     MW 2564   0.130   0.904   4.948  0.0511  0.0915  0.4772
  642SOL     OW 2565   3.235   3.225   5.447  0.3500  0.5308 -0.2760
  642SOL    HW1 2566   3.318   3.191   5.414  0.4416  0.5610 -0.0796
  642SOL    HW2 2567   3.179   3.233   5.370  0.8463  1.4226 -0.5538
  642SOL     MW 2568   3.238   3.221   5.433  0.4252  0.6488 -0.2864
  643SOL     OW 2569   4.063   4.319   1.426  0.6497 -0.5485  0.1584
  643SOL    HW1 2570   4.080   4.404   1.386  0.6408  0.0822  1.4241
  643SOL    HW2 2571   4.124   4.316   1.501 -0.1687 -1.1360  0.8170
  643SOL     MW 2572   4.073   4.329   1.431  0.5438 -0.5430  0.4047
  644SOL     OW 2573   1.747   3.291   2.989 -0.0242  0.5509 -0.1747
  644SOL    HW1 2574   1.834   3.319   3.018  0.7180 -1.3030 -0.4955
  644SOL    HW2 2575   1.688   3.325   3.057  0.9204  1.8514  0.0366
  644SOL     MW 2576   1.751   3.299   3.002  0.1917  0.4800 -0.1887
  645SOL     OW 2577   5.373   5.203   0.066  0.2328  0.5565 -0.1722
  645SOL    HW1 2578   5.436   5.142   0.029 -0.6853 -0.6580  0.1988
  645SOL    HW2 2579   5.358   5.171   0.155  1.0939  2.4003  0.7007
  645SOL     MW 2580   5.379   5.191   0.073  0.2255  0.6371 -0.0130
  646SOL     OW 2581   1.585   0.713   0.640  0.5891  0.0372  0.2523
  646SOL    HW1 2582   1.660   0.662   0.606  0.8178  1.3132 -1.2887
  646SOL    HW2 2583   1.547   0.657   0.708  1.7727 -1.4899 -0.2737
  646SOL     MW 2584   1.590   0.699   0.644  0.7699  0.0050 -0.0123
  647SOL     OW 2585   0.910   1.944   2.036 -0.1663 -0.2886  0.7513
  647SOL    HW1 2586   0.908   1.849   2.022 -0.9988 -0.2769  0.7401
  647SOL    HW2 2587   0.954   1.979   1.959 -2.2324 -0.4590 -0.5931
  647SOL     MW 2588   0.915   1.936   2.024 -0.5374 -0.3089  0.5777
  648SOL     OW 2589   3.268   2.785   1.607  1.0033 -0.1013 -0.1497
  648SOL    HW1 2590   3.237   2.694   1.613  2.4813 -0.5489  2.2079
  648SOL    HW2 2591   3.353   2.778   1.565  1.1158  0.1820  0.0319
  648SOL     MW 2592   3.275   2.772   1.603  1.2069 -0.1223  0.1754
  649SOL     OW 2593   4.331   5.245   1.375  0.2630  0.3037 -0.3049
  649SOL    HW1 2594   4.300   5.158   1.350 -2.1344  0.9434  0.1919
  649SOL    HW2 2595   4.312   5.300   1.299 -1.7798  1.0992  0.6979
  649SOL     MW 2596   4.324   5.241   1.362 -0.3054  0.4874 -0.1130
  650SOL     OW 2597   0.482   0.991   2.934  0.3554  0.1429 -1.0776
  650SOL    HW1 2598   0.554   0.955   2.881  0.7030  2.2144 -2.1075
  650SOL    HW2 2599   0.521   1.067   2.978 -0.3727 -0.6052  0.9460
  650SOL     MW 2600   0.496   0.996   2.933  0.3067  0.3123 -0.9504
  651SOL     OW 2601   3.635   3.921   3.442 -0.1413 -0.4733 -0.2948
  651SOL    HW1 2602   3.553   3.877   3.462 -0.0943 -0.5966 -0.3706
  651SOL    HW2 2603   3.641   3.918   3.346 -0.0204 -0.5188 -0.2861
  651SOL     MW 2604   3.625   3.915   3.432 -0.1198 -0.4949 -0.3034
  652SOL     OW 2605   3.338   4.319   1.137 -0.3984  0.1565  0.1944
  652SOL    HW1 2606   3.406   4.353   1.195 -0.5486  0.1197  0.3898
  652SOL    HW2 2607   3.345   4.373   1.058  0.1927 -0.1730  0.0158
  652SOL     MW 2608   3.348   4.330   1.134 -0.3420  0.1096  0.1965
  653SOL     OW 2609   1.407   3.163   1.285  0.2816 -0.6093 -0.1486
  653SOL    HW1 2610   1.499   3.189   1.275  0.4361 -1.0289  0.1359
  653SOL    HW2 2611   1.391   3.102   1.213 -0.6003  1.5773 -1.9051
  653SOL     MW 2612   1.417   3.159   1.275  0.1885 -0.3831 -0.3370
  654SOL     OW 2613   4.520   3.417   2.487 -0.2940 -0.1263 -0.0005
  654SOL    HW1 2614   4.485   3.335   2.520  1.1573 -0.4852  0.7323
  654SOL    HW2 2615   4.587   3.391   2.424 -2.0029  0.5375 -2.2501
  654SOL     MW 2616   4.524   3.403   2.483 -0.3270 -0.0873 -0.1947
  655SOL     OW 2617   4.190   3.890   2.711 -0.1697  0.2342  0.5951
  655SOL    HW1 2618   4.119   3.870   2.649  0.6720 -0.5480 -0.1394
  655SOL    HW2 2619   4.194   3.813   2.768  0.4008  0.0667  0.3342
  655SOL     MW 2620   4.181   3.878   2.710  0.0111  0.1126  0.4677
  656SOL     OW 2621   5.123   1.446   1.950  0.3726 -0.2474 -0.0673
  656SOL    HW1 2622   5.166   1.418   2.031  2.0021  0.3894 -0.6661
  656SOL    HW2 2623   5.068   1.372   1.926  0.3957 -0.7257  1.2501
  656SOL     MW 2624   5.122   1.433   1.957  0.5842 -0.2271  0.0247
  657SOL     OW 2625   2.702   1.259   4.360  0.2611  0.0173 -0.0212
  657SOL    HW1 2626   2.626   1.221   4.405 -0.9520  4.0297  1.7199
  657SOL    HW2 2627   2.758   1.291   4.430  1.2150  1.3854 -1.3434
  657SOL     MW 2628   2.700   1.258   4.375  0.2279  0.7060  0.0324
  658SOL     OW 2629   0.565   1.692   4.929 -0.1790  0.3362  0.5957
  658SOL    HW1 2630   0.548   1.600   4.909  1.9300 -0.5580  2.5227
  658SOL    HW2 2631   0.660   1.698   4.938 -0.2348  2.7843  0.2788
  658SOL     MW 2632   0.575   1.681   4.928  0.0838  0.5351  0.8018
  659SOL     OW 2633   3.673   4.608   1.279 -0.3345 -0.1897 -0.0164
  659SOL    HW1 2634   3.705   4.546   1.214 -0.1787 -1.6002  1.3523
  659SOL    HW2 2635   3.746   4.669   1.292 -0.3817  0.1329 -1.1520
  659SOL     MW 2636   3.686   4.608   1.272 -0.3206 -0.3290  0.0135
  660SOL     OW 2637   4.718   1.150   0.143  0.4850 -0.2745 -0.4467
  660SOL    HW1 2638   4.801   1.112   0.113  0.5326  0.5872 -1.4504
  660SOL    HW2 2639   4.698   1.217   0.079 -1.1248 -0.6247 -0.3421
  660SOL     MW 2640   4.726   1.154   0.131  0.2850 -0.2090 -0.5618
  661SOL     OW 2641   4.503   0.302   4.970 -0.1888 -0.5762 -0.0980
  661SOL    HW1 2642   4.488   0.380   4.916 -0.0735 -0.4409  0.0640
  661SOL    HW2 2643   4.575   0.327   5.028 -1.3500 -0.1673  1.2026
  661SOL     MW 2644   4.510   0.315   4.970 -0.3227 -0.5065  0.0892
  662SOL     OW 2645   4.258   4.568  -0.008  0.2873  0.0606 -0.0653
  662SOL    HW1 2646   4.327   4.506   0.015  1.7972  1.3135 -1.0746
  662SOL    HW2 2647   4.232   4.607   0.075  1.4492  0.2348  0.2309
  662SOL     MW 2648   4.263   4.565   0.005  0.6294  0.2433 -0.1566
  663SOL     OW 2649   2.255   2.001   4.654  0.1792 -0.4323  0.6698
  663SOL    HW1 2650   2.334   1.966   4.615  0.4456 -0.7703  1.4860
  663SOL    HW2 2651   2.241   2.085   4.610  0.7743 -0.5520  0.2529
  663SOL     MW 2652   2.263   2.008   4.644  0.2895 -0.4909  0.7209
  664SOL     OW 2653   3.177   1.863   1.904 -0.1856 -0.3816  0.0566
  664SOL    HW1 2654   3.142   1.924   1.969  2.1591 -0.5549  1.6082
  664SOL    HW2 2655   3.272   1.877   1.907  0.1313 -1.7602 -1.9818
  664SOL     MW 2656   3.185   1.872   1.913  0.1551 -0.5803 -0.0057
  665SOL     OW 2657   5.441   0.131   2.508 -0.0565 -0.6963  0.3681
  665SOL    HW1 2658   5.465   0.201   2.447  0.4515 -1.5953 -0.5018
  665SOL    HW2 2659   5.345   0.133   2.510 -0.0590 -0.2409  0.0365
  665SOL     MW 2660   5.432   0.140   2.501  0.0082 -0.7531  0.2143
  666SOL     OW 2661   2.355   3.132   2.578 -0.7931  0.0911  0.2833
  666SOL    HW1 2662   2.356   3.037   2.591 -0.2653 -0.5091 -3.1756
  666SOL    HW2 2663   2.324   3.144   2.488  1.4492  3.0574 -0.2546
  666SOL     MW 2664   2.351   3.121   2.568 -0.4385  0.3940 -0.2283
  667SOL     OW 2665   1.177   4.337   1.070 -0.2966  0.1745  0.3057
  667SOL    HW1 2666   1.197   4.428   1.090  0.3018  0.1952 -0.3577
  667SOL    HW2 2667   1.217   4.287   1.141 -0.3564  0.4095  0.5031
  667SOL     MW 2668   1.184   4.342   1.081 -0.2277  0.2072  0.2460
  668SOL     OW 2669   0.444   4.147   3.667  0.2427 -0.0184 -0.1121
  668SOL    HW1 2670   0.439   4.200   3.588  2.2254  1.1156  0.4714
  668SOL    HW2 2671   0.398   4.199   3.733 -0.4410 -0.4520 -0.2367
  668SOL     MW 2672   0.437   4.160   3.665  0.4090  0.0713 -0.0533
  669SOL     OW 2673   4.553   0.730   4.730 -0.2102 -0.3489  0.1473
  669SOL    HW1 2674   4.591   0.645   4.749 -1.1907 -1.1960 -1.4176
  669SOL    HW2 2675   4.610   0.767   4.662 -0.1692 -0.0580  0.3387
  669SOL     MW 2676   4.565   0.724   4.724 -0.3305 -0.4201 -0.0285
  670SOL     OW 2677   2.717   3.618   3.485  0.3628  0.1497  0.0015
  670SOL    HW1 2678   2.776   3.562   3.434  2.0941 -0.1048  2.1630
  670SOL    HW2 2679   2.763   3.702   3.492  0.1259  0.1979  1.0815
  670SOL     MW 2680   2.730   3.622   3.479  0.5541  0.1233  0.4164
  671SOL     OW 2681   1.386   4.211   3.586  0.0939  0.1592 -0.0455
  671SOL    HW1 2682   1.446   4.239   3.656  0.6973 -2.1066  0.4187
  671SOL    HW2 2683   1.361   4.122   3.610 -1.5281  0.1535 -1.5557
  671SOL     MW 2684   1.391   4.203   3.598 -0.0365 -0.1315 -0.1794
  672SOL     OW 2685   3.609   2.989   2.738 -0.0630  0.2894 -0.0916
  672SOL    HW1 2686   3.702   3.012   2.735 -0.3815  1.5036 -1.6787
  672SOL    HW2 2687   3.603   2.907   2.688  0.5746 -1.6955  2.8087
  672SOL     MW 2688   3.620   2.981   2.732 -0.0221  0.1908  0.0765
  673SOL     OW 2689   1.727   4.185   4.235  0.3853 -0.0770 -0.5935
  673SOL    HW1 2690   1.800   4.166   4.293 -0.4086 -1.4648 -0.0000
  673SOL    HW2 2691   1.660   4.121   4.258 -0.9409  0.9952 -1.2777
  673SOL     MW 2692   1.728   4.174   4.245  0.1139 -0.1174 -0.6051
  674SOL     OW 2693   4.145   4.537   2.581  0.3716 -0.5090 -0.2333
  674SOL    HW1 2694   4.102   4.485   2.514 -1.4386  0.2556  0.2608
  674SOL    HW2 2695   4.184   4.473   2.640  0.2988 -1.2234 -0.9414
  674SOL     MW 2696   4.144   4.522   2.580  0.1305 -0.5026 -0.2607
  675SOL     OW 2697   3.046   3.437   1.763 -0.2321 -0.5478  0.0964
  675SOL    HW1 2698   2.979   3.464   1.699  0.0394 -0.9386 -0.3650
  675SOL    HW2 2699   3.063   3.345   1.741 -0.1203 -0.6794  0.7253
  675SOL     MW 2700   3.039   3.428   1.752 -0.1831 -0.6147  0.1178
  676SOL     OW 2701   4.598   1.007   3.417  0.8731  0.3545  0.3170
  676SOL    HW1 2702   4.660   0.990   3.488  0.2503  2.7553  1.5432
  676SOL    HW2 2703   4.513   0.977   3.451  1.0798 -1.8544 -0.9111
  676SOL     MW 2704   4.595   1.001   3.431  0.8199  0.3791  0.3168
  677SOL     OW 2705   2.186   4.868   5.074  0.1152  0.1810  0.2203
  677SOL    HW1 2706   2.280   4.889   5.073  0.2927 -0.4015  1.6513
  677SOL    HW2 2707   2.172   4.817   4.995  1.1595 -0.2767  0.3078
  677SOL     MW 2708   2.196   4.864   5.064  0.2716  0.0479  0.4147
  678SOL     OW 2709   0.910   2.991   5.191 -0.4846 -0.0600  0.1213
  678SOL    HW1 2710   0.938   3.011   5.102 -0.8285 -0.2112 -0.0235
  678SOL    HW2 2711   0.908   3.076   5.235 -2.8511  0.4287 -0.7499
  678SOL     MW 2712   0.913   3.004   5.185 -0.8315 -0.0168 -0.0088
  679SOL     OW 2713   5.334   4.919   4.480  0.8419  0.3535  0.4288
  679SOL    HW1 2714   5.403   4.903   4.415  1.3270 -0.5491  1.1365
  679SOL    HW2 2715   5.301   5.006   4.459 -0.9913 -0.9388 -2.8046
  679SOL     MW 2716   5.339   4.928   4.469  0.6693  0.0725  0.1055
  680SOL     OW 2717   1.404   3.590   1.651 -0.1205  0.3822 -0.6100
  680SOL    HW1 2718   1.350   3.619   1.724  0.5345  1.8597 -0.6589
  680SOL    HW2 2719   1.454   3.516   1.685  0.7155  1.5061  0.7205
  680SOL     MW 2720   1.404   3.584   1.665  0.0704  0.7152 -0.4459
  681SOL     OW 2721   1.394   0.822   4.912 -0.1656  0.3888  0.4213
  681SOL    HW1 2722   1.351   0.812   4.997 -0.0191  0.5083  0.5086
  681SOL    HW2 2723   1.343   0.889   4.867 -0.9175 -0.4364 -0.0153
  681SOL     MW 2724   1.382   0.829   4.917 -0.2431  0.2985  0.3766
  682SOL     OW 2725   5.169   2.434   0.340  0.0359  0.7680 -0.2578
  682SOL    HW1 2726   5.105   2.440   0.411  0.4047  0.1963  0.1370
  682SOL    HW2 2727   5.242   2.489   0.369  1.3564 -1.5398  1.1188
  682SOL     MW 2728   5.170   2.442   0.353  0.2522  0.3994 -0.0310
  683SOL     OW 2729   0.532   2.440   3.654  0.1173 -0.0982 -0.1548
  683SOL    HW1 2730   0.483   2.448   3.736  1.7669  1.1159  0.7631
  683SOL    HW2 2731   0.585   2.361   3.666  0.4534  0.1494  0.0282
  683SOL     MW 2732   0.533   2.431   3.666  0.3715  0.0889 -0.0139
  684SOL     OW 2733   0.491   1.388   5.262  0.9530  0.3613  0.5104
  684SOL    HW1 2734   0.454   1.367   5.176  1.1077  0.5919  0.3881
  684SOL    HW2 2735   0.531   1.307   5.292  2.8901  0.8605 -0.6223
  684SOL     MW 2736   0.491   1.375   5.255  1.2208  0.4547  0.3498
  685SOL     OW 2737   3.236   5.321   3.126 -0.1416  0.0850  0.2762
  685SOL    HW1 2738   3.197   5.267   3.057  0.1926 -0.2919  0.3823
  685SOL    HW2 2739   3.181   5.305   3.202 -0.2640  0.1823  0.2089
  685SOL     MW 2740   3.224   5.312   3.127 -0.1145  0.0492  0.2812
  686SOL     OW 2741   0.836   1.755   0.687  0.3661  0.3254 -0.4957
  686SOL    HW1 2742   0.764   1.733   0.628 -0.7313  1.1592  0.4740
  686SOL    HW2 2743   0.840   1.851   0.684 -0.2502  0.4379  1.3675
  686SOL     MW 2744   0.827   1.765   0.679  0.1467  0.4465 -0.1331
  687SOL     OW 2745   4.993   0.547   0.142  0.5628  0.3494  0.2794
  687SOL    HW1 2746   4.937   0.623   0.129  0.5430  0.0386 -1.7108
  687SOL    HW2 2747   5.072   0.566   0.092  0.2048 -1.2784 -1.0123
  687SOL     MW 2748   4.996   0.559   0.134  0.5144  0.1012 -0.1407
  688SOL     OW 2749   4.598   1.818   0.685  0.1173 -0.0899 -0.0696
  688SOL    HW1 2750   4.629   1.881   0.749 -0.7014  1.0920 -0.7907
  688SOL    HW2 2751   4.678   1.786   0.642  0.4911  1.1834 -0.3485
  688SOL     MW 2752   4.612   1.822   0.687  0.0603  0.2244 -0.1976
  689SOL     OW 2753   3.128   2.393   0.266 -0.6173  0.2818  0.0552
  689SOL    HW1 2754   3.053   2.453   0.273 -0.2744  0.5318  3.4063
  689SOL    HW2 2755   3.180   2.411   0.345  1.2125 -2.2028 -0.4746
  689SOL     MW 2756   3.125   2.403   0.277 -0.3392 -0.0042  0.4163
  690SOL     OW 2757   1.493   2.357   1.224 -0.3527  0.1514  0.0567
  690SOL    HW1 2758   1.527   2.339   1.312 -1.7390  1.9950  1.0422
  690SOL    HW2 2759   1.501   2.452   1.214 -3.0174  0.4082 -0.5138
  690SOL     MW 2760   1.498   2.367   1.234 -0.8712  0.4203  0.1098
  691SOL     OW 2761   3.931   0.721   5.377 -0.0748 -0.4180 -0.1721
  691SOL    HW1 2762   3.928   0.641   5.325  0.1215 -1.1418  0.8825
  691SOL    HW2 2763   3.855   0.714   5.435  0.4009 -0.2429  0.4822
  691SOL     MW 2764   3.920   0.710   5.378  0.0112 -0.4882  0.0467
  692SOL     OW 2765   5.114   0.221   3.000 -0.4764 -0.0611 -0.2032
  692SOL    HW1 2766   5.146   0.174   3.077  0.9510  0.7905 -0.2573
  692SOL    HW2 2767   5.111   0.155   2.931 -3.3533 -1.2548  0.9060
  692SOL     MW 2768   5.117   0.207   3.001 -0.6620 -0.1049 -0.0681
  693SOL     OW 2769   5.399   5.184   3.763 -0.2292 -1.2926 -0.1017
  693SOL    HW1 2770   5.377   5.164   3.672 -0.9759 -0.3833 -0.1373
  693SOL    HW2 2771   5.362   5.271   3.778  1.3181 -0.7150  0.5808
  693SOL     MW 2772   5.392   5.192   3.753 -0.1267 -1.1023 -0.0189
  694SOL     OW 2773  -0.022   5.377   2.901 -0.4611  0.3030  0.1427
  694SOL    HW1 2774   0.011   5.457   2.858  1.7267  0.0052  1.1040
  694SOL    HW2 2775   0.032   5.307   2.864 -0.3523 -0.3075  1.4094
  694SOL     MW 2776  -0.011   5.378   2.891 -0.1671  0.1868  0.4279
  695SOL     OW 2777   0.028   3.954   4.165 -0.4898 -0.5462  0.0968
  695SOL    HW1 2778  -0.034   3.891   4.128 -0.0467 -0.3989 -0.9182
  695SOL    HW2 2779   0.098   3.961   4.100 -0.8361  1.4899 -0.1362
  695SOL     MW 2780   0.029   3.947   4.152 -0.4774 -0.2667 -0.0629
  696SOL     OW 2781   0.915   3.430   3.887 -0.3066 -0.5567 -0.0564
  696SOL    HW1 2782   0.915   3.360   3.952 -1.0523 -1.0637 -0.5803
  696SOL    HW2 2783   0.873   3.504   3.931 -0.3396 -0.7287  0.2061
  696SOL     MW 2784   0.910   3.430   3.901 -0.4063 -0.6436 -0.0899
  697SOL     OW 2785   0.865   1.185   5.284  0.1788  0.0281 -0.1027
  697SOL    HW1 2786   0.889   1.256   5.224  0.6859 -1.6236 -1.9818
  697SOL    HW2 2787   0.875   1.223   5.371  2.4795  1.6828 -0.9686
  697SOL     MW 2788   0.870   1.199   5.288  0.5382  0.0284 -0.4541
  698SOL     OW 2789   0.185   4.435   2.605 -0.5673  0.1398  0.1042
  698SOL    HW1 2790   0.141   4.486   2.538  0.1828 -1.3400 -1.5977
  698SOL    HW2 2791   0.118   4.375   2.639  0.1552 -2.8895 -3.2578
  698SOL     MW 2792   0.171   4.434   2.601 -0.3788 -0.4374 -0.5440
  699SOL     OW 2793   1.525   1.268   4.432 -0.4392  0.0940  0.0563
  699SOL    HW1 2794   1.442   1.301   4.466  1.0620  2.7258  1.4767
  699SOL    HW2 2795   1.537   1.183   4.476 -2.9435 -1.0548 -1.2672
  699SOL     MW 2796   1.516   1.261   4.442 -0.5676  0.2838  0.0687
  700SOL     OW 2797   2.488   0.862   1.960  0.1072 -0.2040 -0.0393
  700SOL    HW1 2798   2.576   0.829   1.942  0.2208  0.3471 -0.5445
  700SOL    HW2 2799   2.460   0.902   1.878  0.3560  1.7619  0.7610
  700SOL     MW 2800   2.495   0.863   1.947  0.1536  0.1182 -0.0015
  701SOL     OW 2801   2.624   1.927   2.554  0.2111 -0.8260 -0.2012
  701SOL    HW1 2802   2.687   1.975   2.608 -0.6878 -0.7691  0.8212
  701SOL    HW2 2803   2.672   1.849   2.525  0.9917 -0.4004 -0.0729
  701SOL     MW 2804   2.638   1.923   2.557  0.1959 -0.7642 -0.0539
  702SOL     OW 2805   0.603   4.163   0.104  0.2760 -0.4649  0.3044
  702SOL    HW1 2806   0.527   4.107   0.086 -1.2078  1.4729  0.2782
  702SOL    HW2 2807   0.612   4.160   0.199 -1.1206  0.8056  0.5243
  702SOL     MW 2808   0.594   4.155   0.114 -0.0927 -0.0542  0.3292
  703SOL     OW 2809   1.566   2.749   0.315  0.0065 -0.7371  0.2269
  703SOL    HW1 2810   1.657   2.729   0.338  0.2329  0.8222  0.8110
  703SOL    HW2 2811   1.573   2.816   0.247 -0.7076 -2.7195 -1.8931
  703SOL     MW 2812   1.579   2.755   0.310 -0.0559 -0.7913  0.0303
  704SOL     OW 2813   0.791   1.126   4.347  0.3216  0.4285 -0.0435
  704SOL    HW1 2814   0.806   1.037   4.378 -0.0353  1.0587  2.1347
  704SOL    HW2 2815   0.878   1.165   4.341  0.5674 -0.3176 -1.9917
  704SOL     MW 2816   0.804   1.120   4.350  0.3074  0.4137 -0.0141
  705SOL     OW 2817   3.289   4.758   5.339  0.1528 -0.0783 -0.3657
  705SOL    HW1 2818   3.362   4.815   5.363  0.7448 -0.3161 -1.5479
  705SOL    HW2 2819   3.319   4.670   5.361  0.8717 -0.3463 -2.2675
  705SOL     MW 2820   3.302   4.754   5.345  0.3206 -0.1430 -0.7605
  706SOL     OW 2821   1.327   0.194   1.038 -0.1599 -0.3017 -0.4723
  706SOL    HW1 2822   1.330   0.238   1.123 -0.2660  0.8572 -1.0463
  706SOL    HW2 2823   1.234   0.192   1.015 -0.1933 -1.1367 -0.3187
  706SOL     MW 2824   1.315   0.199   1.046 -0.1778 -0.2602 -0.5261
  707SOL     OW 2825   1.507   3.597   4.571  0.1191  0.1104  0.0505
  707SOL    HW1 2826   1.435   3.572   4.630 -1.9644  0.9986 -1.9554
  707SOL    HW2 2827   1.559   3.517   4.561 -0.5759 -0.5718  1.5544
  707SOL     MW 2828   1.504   3.584   4.578 -0.2366  0.1367 -0.0138
  708SOL     OW 2829   1.725   3.778   2.989  0.4471  0.2034  0.1502
  708SOL    HW1 2830   1.714   3.689   2.954 -0.6506  0.2693  0.2737
  708SOL    HW2 2831   1.673   3.778   3.070  1.0347  0.7463  0.5304
  708SOL     MW 2832   1.717   3.767   2.995  0.3818  0.2813  0.2147
  709SOL     OW 2833   2.608   5.130   1.660 -0.3703 -0.1535 -0.0158
  709SOL    HW1 2834   2.581   5.089   1.743  0.2579 -1.4715 -0.4470
  709SOL    HW2 2835   2.606   5.224   1.679 -1.9897 -0.3412  0.9587
  709SOL     MW 2836   2.604   5.137   1.673 -0.4972 -0.3462  0.0538
  710SOL     OW 2837   2.001   2.380   2.082 -0.5441 -0.4518 -0.1038
  710SOL    HW1 2838   1.905   2.373   2.080 -0.4887 -1.1162 -0.5914
  710SOL    HW2 2839   2.017   2.461   2.130 -1.3176 -1.2170  1.5621
  710SOL     MW 2840   1.991   2.390   2.088 -0.6360 -0.6348  0.0470
  711SOL     OW 2841   2.525   2.559   1.527 -0.2521  0.7986 -0.1654
  711SOL    HW1 2842   2.533   2.631   1.590 -0.3853  1.0191 -0.4012
  711SOL    HW2 2843   2.552   2.481   1.577 -1.4056  0.7948  0.5103
  711SOL     MW 2844   2.530   2.558   1.542 -0.4168  0.8263 -0.1091
  712SOL     OW 2845   4.148   3.899   2.000 -0.1511 -0.3926 -0.0833
  712SOL    HW1 2846   4.101   3.816   2.014  0.4308 -0.7155 -0.0074
  712SOL    HW2 2847   4.221   3.876   1.942  0.0943  0.0405  0.0475
  712SOL     MW 2848   4.151   3.885   1.995 -0.0452 -0.3785 -0.0568
  713SOL     OW 2849   5.169   1.725   4.669 -0.0716 -0.5030 -0.1416
  713SOL    HW1 2850   5.182   1.707   4.575  1.7352 -0.2898  0.0388
  713SOL    HW2 2851   5.144   1.817   4.672  0.1245 -0.4372 -0.4123
  713SOL     MW 2852   5.168   1.734   4.657  0.1848 -0.4673 -0.1532
  714SOL     OW 2853   1.196   5.244   1.591 -0.0197  0.2320 -0.2703
  714SOL    HW1 2854   1.213   5.183   1.663  1.4174 -1.4713 -1.9364
  714SOL    HW2 2855   1.212   5.331   1.629 -3.2342 -0.2016  2.4907
  714SOL     MW 2856   1.201   5.247   1.606 -0.2472 -0.0416 -0.1301
  715SOL     OW 2857   3.074   3.502   0.834  0.1396  0.2713  0.3009
  715SOL    HW1 2858   3.049   3.577   0.779 -1.2223 -1.3176 -1.3676
  715SOL    HW2 2859   2.995   3.448   0.838  1.1008 -1.1022  1.4470
  715SOL     MW 2860   3.061   3.505   0.827  0.0883 -0.1079  0.2340
  716SOL     OW 2861   1.514   3.731   2.105 -0.0397 -0.0770 -0.1551
  716SOL    HW1 2862   1.513   3.647   2.151 -1.2204  0.1954  0.3470
  716SOL    HW2 2863   1.494   3.709   2.014  2.2336 -0.6102 -0.5979
  716SOL     MW 2864   1.511   3.718   2.099  0.1002 -0.1104 -0.1475
  717SOL     OW 2865   1.354   2.430   2.624  0.3293  0.2408 -0.3923
  717SOL    HW1 2866   1.445   2.399   2.632  0.0714 -0.5024 -0.2424
  717SOL    HW2 2867   1.304   2.351   2.607 -0.9824 -0.2663  4.3593
  717SOL     MW 2868   1.360   2.416   2.623  0.1284  0.0808  0.2352
  718SOL     OW 2869   0.434   4.322   2.189  0.1596  0.2352 -0.1007
  718SOL    HW1 2870   0.429   4.381   2.264 -0.1170  0.3264 -0.1908
  718SOL    HW2 2871   0.350   4.277   2.187 -0.0320  0.5956 -0.6472
  718SOL     MW 2872   0.423   4.324   2.198  0.0997  0.2930 -0.1822
  719SOL     OW 2873   4.006   5.069   5.215  0.4419  0.7422 -0.0904
  719SOL    HW1 2874   4.093   5.092   5.247  0.2626 -1.5383  2.4367
  719SOL    HW2 2875   4.013   4.977   5.189 -1.0160  0.7454 -0.6018
  719SOL     MW 2876   4.018   5.060   5.216  0.2323  0.4507  0.1676
  720SOL     OW 2877   5.159   5.097   0.738  0.1044  0.1514  0.0317
  720SOL    HW1 2878   5.127   5.022   0.686  1.3204  0.5654 -1.3945
  720SOL    HW2 2879   5.164   5.063   0.827  0.3132 -1.3943 -0.5197
  720SOL     MW 2880   5.156   5.083   0.743  0.2868  0.0065 -0.2215
  721SOL     OW 2881   4.401   4.490   4.922 -0.0811  0.3150 -0.3856
  721SOL    HW1 2882   4.387   4.570   4.972 -0.3280  0.4116 -0.6135
  721SOL    HW2 2883   4.452   4.518   4.846  0.6561  0.1036  0.0097
  721SOL     MW 2884   4.406   4.504   4.919 -0.0183  0.3003 -0.3642
  722SOL     OW 2885   0.551   1.174   0.658 -0.0360  0.2076 -0.4972
  722SOL    HW1 2886   0.539   1.269   0.650  1.5880  0.4000 -1.1094
  722SOL    HW2 2887   0.643   1.164   0.683 -0.9329 -1.1102  2.8200
  722SOL     MW 2888   0.561   1.185   0.660  0.0571  0.0636 -0.1509
  723SOL     OW 2889   2.028   0.424   2.635 -0.2621  0.1067  0.1104
  723SOL    HW1 2890   1.996   0.343   2.676 -0.9645  0.7044  0.7658
  723SOL    HW2 2891   1.949   0.466   2.601 -0.0940  1.2500  1.0930
  723SOL     MW 2892   2.014   0.419   2.636 -0.3305  0.3296  0.3201
  724SOL     OW 2893   4.376   2.680   1.884 -0.2380  0.0800 -0.1407
  724SOL    HW1 2894   4.430   2.735   1.940  0.2698 -1.4144  0.9219
  724SOL    HW2 2895   4.402   2.703   1.795  0.3024  1.1965  0.2915
  724SOL     MW 2896   4.386   2.690   1.880 -0.1038  0.0317  0.0507
  725SOL     OW 2897   0.478   1.851   3.315 -0.1607  0.0972  0.1620
  725SOL    HW1 2898   0.466   1.869   3.408 -1.1426  0.1599  0.0302
  725SOL    HW2 2899   0.524   1.767   3.313  0.5841  0.4828  0.7062
  725SOL     MW 2900   0.482   1.842   3.327 -0.1910  0.1546  0.2148
  726SOL     OW 2901   5.435   0.646   0.565  0.1714  0.2924  0.5553
  726SOL    HW1 2902   5.359   0.588   0.565  0.3973 -0.2607 -3.4160
  726SOL    HW2 2903   5.399   0.734   0.552  0.1234  0.2069  0.0994
  726SOL     MW 2904   5.421   0.650   0.564  0.1942  0.2106 -0.0115
  727SOL     OW 2905   4.785   3.650   3.772  0.6081 -0.3594  0.3260
  727SOL    HW1 2906   4.880   3.659   3.778  0.4173  2.1940  0.7019
  727SOL    HW2 2907   4.754   3.737   3.744 -1.5407 -1.4546 -1.0068
  727SOL     MW 2908   4.793   3.663   3.769  0.3086 -0.1727  0.2035
  728SOL     OW 2909   1.011   1.433   2.435 -0.0686  0.3015 -0.2499
  728SOL    HW1 2910   0.932   1.438   2.381  0.3805  0.6929 -0.8879
  728SOL    HW2 2911   1.037   1.341   2.432 -1.4420 -0.2048  1.3773
  728SOL     MW 2912   1.004   1.422   2.428 -0.1869  0.2868 -0.1233
  729SOL     OW 2913   4.004   2.775   2.039 -0.1611  0.5569 -0.7962
  729SOL    HW1 2914   4.039   2.765   1.950 -0.6037 -1.6656 -0.7666
  729SOL    HW2 2915   3.939   2.705   2.047  1.1351 -0.4584  1.8798
  729SOL     MW 2916   4.000   2.765   2.029 -0.0519  0.1424 -0.4499
  730SOL     OW 2917   3.930   0.780   1.098 -0.5749  0.0419  0.0770
  730SOL    HW1 2918   3.842   0.746   1.114 -0.3784 -1.3903 -1.5459
  730SOL    HW2 2919   3.926   0.816   1.010  0.4048  0.2206  0.0964
  730SOL     MW 2920   3.918   0.780   1.089 -0.4243 -0.1186 -0.1283
  731SOL     OW 2921   5.416   1.988   1.723 -0.7425 -0.0729 -0.4853
  731SOL    HW1 2922   5.508   2.005   1.701 -1.2406  0.5570 -2.2728
  731SOL    HW2 2923   5.381   2.074   1.747 -0.7347 -0.4177  0.8518
  731SOL     MW 2924   5.424   2.001   1.723 -0.8053 -0.0364 -0.5429
  732SOL     OW 2925   0.201   2.948   0.060 -0.5206 -0.0135  0.2023
  732SOL    HW1 2926   0.165   2.889   0.126 -0.4010 -1.2859 -0.8312
  732SOL    HW2 2927   0.208   2.895  -0.019  1.3216  0.8598 -0.2946
  732SOL     MW 2928   0.198   2.934   0.059 -0.2695 -0.0646  0.0064
  733SOL     OW 2929   4.696   4.847   2.880 -0.5112 -0.3764 -0.7560
  733SOL    HW1 2930   4.772   4.814   2.928 -1.4932 -0.6355  0.6873
  733SOL    HW2 2931   4.712   4.820   2.789  1.0986 -0.4343 -0.4933
  733SOL     MW 2932   4.708   4.839   2.875 -0.4309 -0.4170 -0.5376
  734SOL     OW 2933   4.979   4.888   4.263  0.0279  0.0992 -0.3799
  734SOL    HW1 2934   4.937   4.973   4.251 -0.5428 -0.3598 -1.9050
  734SOL    HW2 2935   4.920   4.826   4.219  1.0266 -0.9103 -0.3315
  734SOL     MW 2936   4.966   4.891   4.256  0.0827 -0.0888 -0.5690
  735SOL     OW 2937   4.594   3.916   2.231 -0.5989  0.2855  0.2576
  735SOL    HW1 2938   4.574   3.847   2.295 -0.5903 -1.2699 -1.3637
  735SOL    HW2 2939   4.554   3.995   2.269  0.4266 -0.2932  2.7533
  735SOL     MW 2940   4.586   3.917   2.244 -0.4665  0.0123  0.3695
  736SOL     OW 2941   3.589   3.864   2.290 -0.4579  0.2708  0.6150
  736SOL    HW1 2942   3.563   3.933   2.351 -1.4702 -1.4153  2.2016
  736SOL    HW2 2943   3.574   3.783   2.338  1.7089 -1.0604 -0.7763
  736SOL     MW 2944   3.584   3.862   2.304 -0.3101 -0.1154  0.6400
  737SOL     OW 2945   2.647   2.887   2.239 -0.1070  0.8563 -0.3948
  737SOL    HW1 2946   2.693   2.827   2.298  1.7266  1.6849 -0.9004
  737SOL    HW2 2947   2.593   2.830   2.184  0.0793 -0.1404  0.4264
  737SOL     MW 2948   2.646   2.872   2.239  0.1516  0.8348 -0.3544
  738SOL     OW 2949   3.447   3.279   2.931 -0.1705  0.6108  0.3100
  738SOL    HW1 2950   3.502   3.211   2.969  0.2108 -0.6882 -2.3240
  738SOL    HW2 2951   3.445   3.348   2.997  2.5799 -0.3339  1.5293
  738SOL     MW 2952   3.454   3.279   2.944  0.2304  0.3235  0.1289
  739SOL     OW 2953   4.428   5.172   2.594 -0.3292  0.1987 -0.5104
  739SOL    HW1 2954   4.504   5.224   2.620  0.2880 -0.4753 -0.9487
  739SOL    HW2 2955   4.374   5.168   2.673  1.4850 -1.7719  0.7536
  739SOL     MW 2956   4.431   5.178   2.608 -0.0180 -0.1399 -0.4047
  740SOL     OW 2957   2.781   1.740   4.737  0.1913 -0.2385 -0.2900
  740SOL    HW1 2958   2.813   1.829   4.747 -1.9997  0.5727  0.1828
  740SOL    HW2 2959   2.762   1.731   4.644  1.7019 -0.7359 -0.5781
  740SOL     MW 2960   2.782   1.750   4.727  0.1042 -0.1983 -0.2663
  741SOL     OW 2961   4.294   0.547   0.033  0.1000 -0.8691  0.2531
  741SOL    HW1 2962   4.374   0.572   0.079 -0.4552  1.9581 -0.1109
  741SOL    HW2 2963   4.230   0.533   0.103 -0.8323  3.7103  0.6694
  741SOL     MW 2964   4.296   0.549   0.048 -0.0904  0.0790  0.2598
  742SOL     OW 2965   1.248   3.787   2.139 -0.3526  0.1618  0.2469
  742SOL    HW1 2966   1.340   3.765   2.126 -0.4949 -0.6952  0.5546
  742SOL    HW2 2967   1.246   3.882   2.145  0.5648  0.1680  0.6223
  742SOL     MW 2968   1.259   3.796   2.138 -0.2534  0.0529  0.3343
  743SOL     OW 2969   0.120   4.384   0.740 -0.1231 -0.2598 -0.5194
  743SOL    HW1 2970   0.124   4.387   0.836 -1.9078  1.9034 -0.4496
  743SOL    HW2 2971   0.141   4.473   0.712 -3.5535  0.2681 -1.8805
  743SOL     MW 2972   0.123   4.396   0.749 -0.7907  0.0847 -0.6847
  744SOL     OW 2973   4.405   3.864   1.950 -0.4814 -0.6006  1.2099
  744SOL    HW1 2974   4.481   3.887   1.897 -1.6190 -1.9812 -1.1956
  744SOL    HW2 2975   4.438   3.863   2.040  1.6952  1.2542  0.5225
  744SOL     MW 2976   4.419   3.867   1.955 -0.3484 -0.5399  0.8140
  745SOL     OW 2977   3.178   3.256   1.055 -0.2923  0.3513 -0.5650
  745SOL    HW1 2978   3.242   3.269   0.984 -1.7029 -0.6619 -2.0980
  745SOL    HW2 2979   3.154   3.344   1.082  2.2726  0.7884  0.6007
  745SOL     MW 2980   3.183   3.269   1.049 -0.1445  0.2776 -0.6121
  746SOL     OW 2981   0.064   0.736   4.651 -0.2089  0.0549 -0.0664
  746SOL    HW1 2982   0.130   0.673   4.681  0.4275  1.0280  0.6273
  746SOL    HW2 2983   0.073   0.734   4.555  1.3300  0.6640  0.0281
  746SOL     MW 2984   0.074   0.728   4.643  0.0695  0.2574  0.0345
  747SOL     OW 2985   0.549   5.224   2.744 -0.0914 -0.4846 -0.4070
  747SOL    HW1 2986   0.575   5.315   2.760  1.7411 -1.1838  0.8000
  747SOL    HW2 2987   0.624   5.172   2.773 -1.1961 -2.4073 -0.8693
  747SOL     MW 2988   0.562   5.229   2.750  0.0018 -0.8203 -0.3117
  748SOL     OW 2989   2.129   2.584   3.469 -0.1111 -0.1100  0.0183
  748SOL    HW1 2990   2.039   2.617   3.466  0.3147  1.3186  1.5993
  748SOL    HW2 2991   2.151   2.567   3.377 -1.7657  0.1435 -0.4606
  748SOL     MW 2992   2.120   2.586   3.457 -0.2684  0.1053  0.1594
  749SOL     OW 2993   0.978   3.739   4.723 -0.1833 -0.4441 -0.3378
  749SOL    HW1 2994   0.898   3.688   4.710 -0.5295 -0.1971  0.7167
  749SOL    HW2 2995   1.004   3.719   4.813  0.0065  0.7844 -0.1070
  749SOL     MW 2996   0.971   3.730   4.733 -0.2033 -0.2552 -0.1733
  750SOL     OW 2997   4.226   2.469   3.203  0.2623  0.2605 -0.8005
  750SOL    HW1 2998   4.279   2.433   3.274  1.5638  1.4866 -1.0986
  750SOL    HW2 2999   4.212   2.395   3.144  0.5810 -0.3874 -0.0865
  750SOL     MW 3000   4.231   2.455   3.205  0.4697  0.3345 -0.7473
  751SOL     OW 3001   2.395   5.159   4.985 -0.3908 -0.2607  0.0085
  751SOL    HW1 3002   2.473   5.208   5.012 -0.4327  0.2032 -0.6964
  751SOL    HW2 3003   2.403   5.075   5.030  0.6070 -0.2904 -0.1961
  751SOL     MW 3004   2.406   5.155   4.995 -0.2685 -0.2051 -0.1080
  752SOL     OW 3005   2.927   2.653   3.581 -0.2205  0.5189 -0.1150
  752SOL    HW1 3006   2.853   2.696   3.539  0.6509 -0.5870 -3.0616
  752SOL    HW2 3007   2.888   2.598   3.649 -1.7028  2.6253  0.8211
  752SOL     MW 3008   2.912   2.651   3.584 -0.2987  0.6470 -0.3724
  753SOL     OW 3009   1.691   1.986   4.619  0.3135  0.6911 -0.1235
  753SOL    HW1 3010   1.637   2.058   4.652 -0.7177  0.1628 -0.6012
  753SOL    HW2 3011   1.739   1.955   4.695 -0.9606  0.4035  0.5895
  753SOL     MW 3012   1.690   1.991   4.633  0.0184  0.5867 -0.0934
  754SOL     OW 3013   0.569   0.680   1.960  0.3438 -0.4024 -0.2548
  754SOL    HW1 3014   0.565   0.637   1.874 -1.1822  0.7346 -0.8081
  754SOL    HW2 3015   0.596   0.770   1.941  1.6057 -0.5492  0.6727
  754SOL     MW 3016   0.572   0.686   1.947  0.3100 -0.2756 -0.2069
  755SOL     OW 3017   3.331   4.971   1.983 -0.7849 -0.3331 -0.2708
  755SOL    HW1 3018   3.412   4.972   1.931 -1.7523  1.7526 -1.8855
  755SOL    HW2 3019   3.328   5.058   2.022 -1.7285 -0.7724  0.6633
  755SOL     MW 3020   3.341   4.982   1.981 -1.0295 -0.1223 -0.3579
  756SOL     OW 3021   2.372   1.709   4.314  0.1575  0.2286  0.1929
  756SOL    HW1 3022   2.364   1.683   4.222 -0.2981  2.7218 -0.5332
  756SOL    HW2 3023   2.408   1.797   4.312 -1.7267  1.1676  2.2913
  756SOL     MW 3024   2.375   1.717   4.302 -0.1421  0.6680  0.3686
  757SOL     OW 3025   4.114   2.799   4.398  0.1926 -0.6297  0.6369
  757SOL    HW1 3026   4.041   2.764   4.449 -0.6094 -0.0984 -0.1037
  757SOL    HW2 3027   4.156   2.862   4.457 -2.3517  2.0189 -0.1226
  757SOL     MW 3028   4.110   2.803   4.412 -0.2358 -0.2226  0.4448
  758SOL     OW 3029   2.528   1.271   0.508 -0.3148 -0.0550  0.1019
  758SOL    HW1 3030   2.613   1.314   0.501 -0.4279  0.2366  0.4844
  758SOL    HW2 3031   2.506   1.247   0.418  0.4889 -0.7616  0.0773
  758SOL     MW 3032   2.536   1.273   0.496 -0.2264 -0.1082  0.1477
  759SOL     OW 3033   2.365   3.597   1.235 -0.0138  0.0437  0.1662
  759SOL    HW1 3034   2.394   3.600   1.143  0.9616  2.1126  0.4918
  759SOL    HW2 3035   2.444   3.574   1.284 -0.0604  0.8952  0.6509
  759SOL     MW 3036   2.379   3.594   1.229  0.1051  0.4175  0.2699
  760SOL     OW 3037   3.056   2.233   5.291 -0.1347 -0.1106 -0.9036
  760SOL    HW1 3038   2.987   2.187   5.242  0.8670 -1.8508 -0.7887
  760SOL    HW2 3039   3.130   2.235   5.230 -0.3431  2.0548 -1.1563
  760SOL     MW 3040   3.056   2.227   5.277 -0.0332 -0.0561 -0.9212
  761SOL     OW 3041   2.447   2.312   0.554 -0.3323 -0.3262  0.0956
  761SOL    HW1 3042   2.524   2.260   0.532  0.0956  0.1739  0.4055
  761SOL    HW2 3043   2.481   2.398   0.578 -0.6601 -0.9591  3.3272
  761SOL     MW 3044   2.461   2.316   0.554 -0.3195 -0.3432  0.5489
  762SOL     OW 3045   4.619   3.153   0.775  0.2938 -0.2442 -0.5238
  762SOL    HW1 3046   4.576   3.207   0.708 -0.2033  0.5974  0.4556
  762SOL    HW2 3047   4.684   3.211   0.815  0.4825 -0.6957 -0.1691
  762SOL     MW 3048   4.622   3.167   0.771  0.2543 -0.1943 -0.3530
  763SOL     OW 3049   3.707   0.651   4.185 -0.3196  0.2048  0.3731
  763SOL    HW1 3050   3.650   0.663   4.261  0.3020  0.1258  0.8527
  763SOL    HW2 3051   3.683   0.565   4.151  0.0840 -0.1815  1.0617
  763SOL     MW 3052   3.697   0.642   4.190 -0.1883  0.1452  0.5227
  764SOL     OW 3053   1.602   3.879   2.302 -0.2786  0.3422 -0.2785
  764SOL    HW1 3054   1.597   3.974   2.296 -0.0063  0.3285 -0.7949
  764SOL    HW2 3055   1.567   3.847   2.219  0.5600  0.0294 -0.5292
  764SOL     MW 3056   1.597   3.887   2.291 -0.1364  0.3004 -0.3767
  765SOL     OW 3057   3.505   1.629   1.006 -0.5010  0.7369 -0.3882
  765SOL    HW1 3058   3.479   1.606   0.917 -1.6613 -3.8225  0.8432
  765SOL    HW2 3059   3.424   1.657   1.048 -0.6779 -0.3315  0.0146
  765SOL     MW 3060   3.491   1.629   1.000 -0.6722  0.0165 -0.1790
  766SOL     OW 3061   2.851   3.989   4.838  0.0886  0.2448  0.2048
  766SOL    HW1 3062   2.758   3.984   4.817  0.2127  0.1825 -0.3447
  766SOL    HW2 3063   2.886   4.053   4.777 -0.0003  2.0230  1.9338
  766SOL     MW 3064   2.844   3.996   4.828  0.0931  0.4645  0.3558
  767SOL     OW 3065   2.374   3.907   4.261  0.4340  0.2522 -0.4016
  767SOL    HW1 3066   2.321   3.828   4.259 -1.3504  1.3634  0.8127
  767SOL    HW2 3067   2.324   3.971   4.211  0.4114  1.4427  1.0917
  767SOL     MW 3068   2.361   3.905   4.254  0.2027  0.5469 -0.0550
  768SOL     OW 3069   0.070   4.201   2.714 -0.4739 -0.4542  0.2211
  768SOL    HW1 3070  -0.005   4.153   2.749 -0.3021  0.7394  2.4156
  768SOL    HW2 3071   0.146   4.163   2.759 -0.0641  0.1288  0.0376
  768SOL     MW 3072   0.070   4.190   2.724 -0.3995 -0.2268  0.4785
  769SOL     OW 3073   3.557   4.523   3.271 -0.0470 -0.4815 -0.1306
  769SOL    HW1 3074   3.587   4.558   3.354 -1.7182  1.7533 -0.3829
  769SOL    HW2 3075   3.486   4.462   3.294 -1.3085  1.0195  0.0832
  769SOL     MW 3076   3.552   4.519   3.285 -0.4224 -0.0032 -0.1356
  770SOL     OW 3077   4.963   0.736   4.324  0.0303 -0.0642 -0.1451
  770SOL    HW1 3078   4.882   0.748   4.373 -0.0132  0.6425 -0.3702
  770SOL    HW2 3079   5.032   0.751   4.388 -0.0210 -0.0403 -0.0946
  770SOL     MW 3080   4.961   0.739   4.338  0.0182  0.0293 -0.1674
  771SOL     OW 3081   1.004   5.041   1.653  0.3813 -0.3013  0.0069
  771SOL    HW1 3082   0.970   5.111   1.708  0.8443  0.6415 -0.8730
  771SOL    HW2 3083   0.998   5.075   1.564  0.9305 -1.2503 -0.4142
  771SOL     MW 3084   0.999   5.054   1.649  0.5109 -0.3021 -0.1596
  772SOL     OW 3085   3.672   0.826   3.165  0.6297 -0.3156 -0.2448
  772SOL    HW1 3086   3.628   0.908   3.191 -1.4236 -1.2292 -0.6106
  772SOL    HW2 3087   3.652   0.817   3.072  2.2860 -0.4170 -0.6188
  772SOL     MW 3088   3.664   0.836   3.157  0.5788 -0.4456 -0.3395
  773SOL     OW 3089   0.592   1.880   0.870  0.0665 -0.1840  0.2795
  773SOL    HW1 3090   0.500   1.901   0.882  0.0011 -0.4287  0.2112
  773SOL    HW2 3091   0.630   1.960   0.832 -0.2305 -0.2666 -0.2102
  773SOL     MW 3092   0.585   1.893   0.866  0.0201 -0.2259  0.2081
  774SOL     OW 3093   5.340   5.183   1.494  0.4440 -0.0540  0.5058
  774SOL    HW1 3094   5.244   5.180   1.499  0.3186 -0.5384 -1.2643
  774SOL    HW2 3095   5.362   5.270   1.529 -1.0806  1.9781 -2.9723
  774SOL     MW 3096   5.330   5.194   1.499  0.2328  0.1441 -0.1661
  775SOL     OW 3097   2.648   2.053   0.792 -0.0640  0.0337  0.1048
  775SOL    HW1 3098   2.701   2.123   0.755 -0.0455 -0.6925 -1.2879
  775SOL    HW2 3099   2.560   2.068   0.760 -0.0832 -0.5121 -0.1128
  775SOL     MW 3100   2.644   2.064   0.783 -0.0641 -0.1291 -0.1014
  776SOL     OW 3101   4.430   3.319   2.239  0.4260 -0.0422 -0.1254
  776SOL    HW1 3102   4.419   3.405   2.198 -0.0924  0.2186  0.5535
  776SOL    HW2 3103   4.477   3.336   2.320  2.2794 -0.6722 -1.0236
  776SOL     MW 3104   4.434   3.332   2.244  0.5969 -0.0895 -0.1535
  777SOL     OW 3105   4.199   3.161   3.421 -0.1468 -0.2517  0.3112
  777SOL    HW1 3106   4.203   3.087   3.361  2.1376  0.4196 -0.4618
  777SOL    HW2 3107   4.220   3.124   3.507  2.0430 -0.4118 -0.2316
  777SOL     MW 3108   4.202   3.147   3.424  0.4260 -0.1862  0.1428
  778SOL     OW 3109   0.628   3.180   0.025 -0.2216 -0.2772 -0.4755
  778SOL    HW1 3110   0.630   3.108  -0.039 -1.3986 -0.6321 -0.1303
  778SOL    HW2 3111   0.540   3.177   0.062  0.7624 -0.8027  2.0132
  778SOL     MW 3112   0.617   3.170   0.021 -0.2463 -0.3899 -0.1127
  779SOL     OW 3113   3.012   3.595   3.493  0.1236  0.1493 -0.5226
  779SOL    HW1 3114   2.958   3.584   3.572  0.4314  1.2026 -0.1554
  779SOL    HW2 3115   3.101   3.576   3.522  0.0449 -1.0528 -1.0061
  779SOL     MW 3116   3.016   3.591   3.507  0.1529  0.1303 -0.5375
  780SOL     OW 3117   4.156   0.326   3.305 -0.0358  0.3358  0.3976
  780SOL    HW1 3118   4.189   0.258   3.364 -0.8443  0.0774  0.5781
  780SOL    HW2 3119   4.061   0.325   3.320 -0.4423 -0.6723 -1.8502
  780SOL     MW 3120   4.148   0.317   3.314 -0.1913  0.1737  0.1329
  781SOL     OW 3121   2.866   3.681   0.743  0.1767 -0.4892  1.1055
  781SOL    HW1 3122   2.790   3.679   0.686 -0.2981  0.4946  1.6871
  781SOL    HW2 3123   2.927   3.742   0.702  2.5574 -4.2116 -1.6139
  781SOL     MW 3124   2.864   3.688   0.731  0.4207 -0.8398  0.8319
  782SOL     OW 3125   3.287   0.686   2.126 -0.5938  0.3116  0.2685
  782SOL    HW1 3126   3.379   0.676   2.102 -0.4063  1.0932  0.6425
  782SOL    HW2 3127   3.260   0.598   2.152 -0.0826 -0.0166 -0.2749
  782SOL     MW 3128   3.295   0.673   2.126 -0.5043  0.3696  0.2468
  783SOL     OW 3129   2.794   2.027   3.774 -0.4222 -0.0340  0.4239
  783SOL    HW1 3130   2.740   1.981   3.838  0.0604 -1.6797 -0.2860
  783SOL    HW2 3131   2.791   1.972   3.696  2.4064 -0.3254  0.4008
  783SOL     MW 3132   2.787   2.014   3.772  0.0017 -0.2820  0.3300
  784SOL     OW 3133   3.635   2.722   1.715  0.0695 -0.0910  0.1161
  784SOL    HW1 3134   3.616   2.726   1.621  0.8314  1.8341 -0.0032
  784SOL    HW2 3135   3.709   2.661   1.721  0.0302 -0.2159 -0.5318
  784SOL     MW 3136   3.642   2.715   1.703  0.1620  0.1395  0.0179
  785SOL     OW 3137   4.581   2.331   0.794 -0.2388 -0.2678 -0.0677
  785SOL    HW1 3138   4.672   2.308   0.772  0.9742  2.2483  1.7306
  785SOL    HW2 3139   4.549   2.256   0.844  0.3827 -1.7210 -1.7517
  785SOL     MW 3140   4.589   2.319   0.797 -0.0040 -0.1317 -0.0530
  786SOL     OW 3141   0.858   2.567   5.046 -0.5443  0.7592 -0.3793
  786SOL    HW1 3142   0.835   2.611   5.128  0.5042 -0.7574  0.7843
  786SOL    HW2 3143   0.904   2.634   4.996  1.8154  0.8840  1.7242
  786SOL     MW 3144   0.861   2.581   5.050 -0.1080  0.5810  0.0389
  787SOL     OW 3145   4.389   3.165   2.447 -0.4766 -0.0169  0.2701
  787SOL    HW1 3146   4.339   3.088   2.419  0.0918 -0.2513 -0.1193
  787SOL    HW2 3147   4.374   3.229   2.377  0.1273 -0.2483 -0.0790
  787SOL     MW 3148   4.380   3.163   2.434 -0.3265 -0.0765  0.1755
  788SOL     OW 3149   4.922   2.552   4.693 -0.3762  0.0551 -0.4478
  788SOL    HW1 3150   5.012   2.530   4.717  0.1552  0.4870 -1.9524
  788SOL    HW2 3151   4.901   2.627   4.749 -0.4789 -1.1654  1.2143
  788SOL     MW 3152   4.931   2.559   4.703 -0.3214 -0.0458 -0.4276
  789SOL     OW 3153   3.456   1.853   5.417 -0.2746 -0.2640  0.4792
  789SOL    HW1 3154   3.479   1.894   5.501  1.8070  1.2671 -0.7179
  789SOL    HW2 3155   3.361   1.859   5.413 -0.2419  2.8739  1.2605
  789SOL     MW 3156   3.447   1.859   5.428 -0.0039  0.3337  0.4260
  790SOL     OW 3157   4.623   1.610   3.209  0.2265 -0.0529  0.1376
  790SOL    HW1 3158   4.650   1.676   3.145  0.5654  0.5582  0.8913
  790SOL    HW2 3159   4.661   1.528   3.178 -1.9091 -0.3661 -1.9573
  790SOL     MW 3160   4.631   1.608   3.197 -0.0035 -0.0148 -0.0341
  791SOL     OW 3161   2.579   3.425   2.044  0.1595  0.8573 -0.0858
  791SOL    HW1 3162   2.586   3.482   2.121 -0.9863  0.8753  0.0365
  791SOL    HW2 3163   2.650   3.362   2.054  0.0493  0.8730  0.9890
  791SOL     MW 3164   2.589   3.424   2.055 -0.0012  0.8616  0.0674
  792SOL     OW 3165   3.473   2.370   4.915  0.1439  0.9568  0.2877
  792SOL    HW1 3166   3.427   2.418   4.984 -0.0873  0.4775  0.4678
  792SOL    HW2 3167   3.424   2.288   4.906  0.8996  0.4864  0.4074
  792SOL     MW 3168   3.460   2.366   4.923  0.2110  0.8352  0.3261
  793SOL     OW 3169   2.219   5.149   1.114  0.1712 -0.0472  0.9349
  793SOL    HW1 3170   2.250   5.058   1.109 -0.3635 -0.1846 -0.3983
  793SOL    HW2 3171   2.241   5.186   1.028 -3.4715 -0.2265 -0.2296
  793SOL     MW 3172   2.226   5.142   1.102 -0.3636 -0.0877  0.6151
  794SOL     OW 3173   2.715   1.107   1.433  0.2015 -0.0046 -0.2507
  794SOL    HW1 3174   2.786   1.053   1.397 -0.9953  1.0065 -4.7445
  794SOL    HW2 3175   2.644   1.046   1.451  0.3278 -0.4411 -1.1876
  794SOL     MW 3176   2.715   1.093   1.431  0.0645  0.0690 -0.9459
  795SOL     OW 3177   0.961   3.138   3.762  0.8114 -0.1170  0.1994
  795SOL    HW1 3178   0.911   3.164   3.685  1.1531 -0.4820 -0.1552
  795SOL    HW2 3179   1.023   3.210   3.776  0.9273 -0.1710 -0.0308
  795SOL     MW 3180   0.963   3.151   3.754  0.8700 -0.1706  0.1245
  796SOL     OW 3181   0.696   0.199   1.484  0.1268 -0.0746  0.0251
  796SOL    HW1 3182   0.755   0.250   1.428  1.3393 -0.5540  0.8139
  796SOL    HW2 3183   0.730   0.109   1.478 -0.9287 -0.4891 -0.0046
  796SOL     MW 3184   0.708   0.194   1.476  0.1469 -0.1890  0.1223
  797SOL     OW 3185   2.745   3.128   1.363 -0.1325 -0.0868  0.6362
  797SOL    HW1 3186   2.768   3.036   1.374 -2.3094 -0.9498 -1.2236
  797SOL    HW2 3187   2.784   3.153   1.279  0.1451  0.5681  0.9579
  797SOL     MW 3188   2.753   3.119   1.353 -0.3756 -0.1134  0.4393
  798SOL     OW 3189   0.569   2.565   4.981  0.1016 -0.2342 -0.2550
  798SOL    HW1 3190   0.663   2.568   4.998  0.3495  0.2567 -1.5811
  798SOL    HW2 3191   0.563   2.554   4.886 -1.1849  1.0116 -0.3468
  798SOL     MW 3192   0.580   2.564   4.971 -0.0313 -0.0119 -0.4365
  799SOL     OW 3193   2.680   2.701   0.219  0.4835  0.3854  0.5975
  799SOL    HW1 3194   2.720   2.622   0.257  0.5962  0.6583  1.0487
  799SOL    HW2 3195   2.711   2.773   0.274 -0.9769  0.5609  1.2135
  799SOL     MW 3196   2.689   2.700   0.231  0.3110  0.4428  0.7341
  800SOL     OW 3197   1.957   3.688   0.011 -1.0453 -0.1079  0.3417
  800SOL    HW1 3198   1.887   3.736   0.055 -0.1231  0.7344  0.9598
  800SOL    HW2 3199   2.036   3.709   0.063  0.2682  1.5690 -2.1238
  800SOL     MW 3200   1.958   3.697   0.024 -0.7591  0.2146  0.1052
  801SOL     OW 3201   2.422   3.150   3.954  0.2261 -0.9613 -0.2898
  801SOL    HW1 3202   2.421   3.056   3.935 -0.7975 -1.0581  0.1229
  801SOL    HW2 3203   2.400   3.155   4.047  0.3033 -0.3192 -0.3054
  801SOL     MW 3204   2.419   3.139   3.963  0.1049 -0.8915 -0.2390
  802SOL     OW 3205   5.295   4.523   2.006 -0.0511  0.0953  0.2901
  802SOL    HW1 3206   5.300   4.503   2.099 -2.7989  2.5023  1.0823
  802SOL    HW2 3207   5.384   4.552   1.983  0.5434 -0.0695  2.2428
  802SOL     MW 3208   5.307   4.524   2.015 -0.3268  0.3823  0.6415
  803SOL     OW 3209   3.574   0.392   0.266  0.3381 -0.1711 -0.7231
  803SOL    HW1 3210   3.517   0.325   0.228  0.3091 -0.0999 -0.8043
  803SOL    HW2 3211   3.649   0.343   0.300 -0.8691 -0.5753  1.5810
  803SOL     MW 3212   3.576   0.377   0.266  0.1799 -0.2137 -0.4385
  804SOL     OW 3213   1.221   0.822   1.897 -0.6247  0.4379  0.2142
  804SOL    HW1 3214   1.284   0.753   1.877  0.0721  1.5169 -1.6343
  804SOL    HW2 3215   1.192   0.853   1.811 -0.4611  2.8025  0.9228
  804SOL     MW 3216   1.226   0.817   1.883 -0.5146  0.8787  0.0683
  805SOL     OW 3217   3.200   1.408   4.102  0.0301 -0.2465  0.1497
  805SOL    HW1 3218   3.289   1.433   4.078 -0.0910 -0.6929 -0.8088
  805SOL    HW2 3219   3.145   1.444   4.032 -0.4074 -0.9741  0.1097
  805SOL     MW 3220   3.205   1.416   4.090 -0.0414 -0.3968  0.0219
  806SOL     OW 3221   0.556   0.682   0.534 -0.0267 -0.1650 -0.3146
  806SOL    HW1 3222   0.581   0.590   0.535  0.8053  0.0597  0.1938
  806SOL    HW2 3223   0.635   0.729   0.560 -0.4675  0.6876 -0.4801
  806SOL     MW 3224   0.569   0.676   0.538  0.0234 -0.0271 -0.2707
  807SOL     OW 3225   4.879   0.942   2.003 -0.4903  0.2098 -0.0707
  807SOL    HW1 3226   4.949   1.003   2.026 -0.4017 -0.2639  0.9673
  807SOL    HW2 3227   4.799   0.982   2.036 -0.5036  0.0148  0.1350
  807SOL     MW 3228   4.878   0.955   2.010 -0.4807  0.1242  0.0885
  808SOL     OW 3229   5.005   1.715   2.400  0.2179 -0.2374 -0.6237
  808SOL    HW1 3230   5.056   1.787   2.436  0.0364 -0.1735 -0.4912
  808SOL    HW2 3231   5.060   1.638   2.411  0.8746  0.0409 -1.7601
  808SOL     MW 3232   5.018   1.715   2.406  0.2787 -0.1936 -0.7522
  809SOL     OW 3233   5.023   3.995   0.347  0.1026 -0.4681 -0.1391
  809SOL    HW1 3234   5.111   3.960   0.357  0.8474  0.3421 -2.9309
  809SOL    HW2 3235   5.030   4.087   0.375  0.2841 -0.2558 -0.8787
  809SOL     MW 3236   5.035   4.002   0.352  0.2211 -0.3372 -0.5912
  810SOL     OW 3237   1.015   2.236   3.680 -0.2754 -0.1268  0.0786
  810SOL    HW1 3238   0.951   2.246   3.611  0.3354 -0.8224 -0.6158
  810SOL    HW2 3239   1.074   2.167   3.648  0.7920  0.4707  0.7043
  810SOL     MW 3240   1.015   2.228   3.667 -0.0606 -0.1393  0.0698
  811SOL     OW 3241   1.809   5.449   2.742 -0.4123 -0.0412  0.2238
  811SOL    HW1 3242   1.737   5.413   2.689  0.3166  0.0299 -0.8495
  811SOL    HW2 3243   1.768   5.519   2.793 -0.8602  0.9917 -1.4544
  811SOL     MW 3244   1.795   5.453   2.742 -0.3763  0.1001 -0.1285
  812SOL     OW 3245   0.722   1.250   4.665 -0.0579 -0.6834  0.0396
  812SOL    HW1 3246   0.773   1.175   4.637 -0.8941 -0.7592 -1.3812
  812SOL    HW2 3247   0.633   1.216   4.674 -0.2127 -0.1392  0.6310
  812SOL     MW 3248   0.717   1.236   4.663 -0.1848 -0.6234 -0.0666
  813SOL     OW 3249   3.430   1.143   1.196 -0.2081  0.1602  0.1488
  813SOL    HW1 3250   3.389   1.229   1.208  0.8307  0.7639 -0.5397
  813SOL    HW2 3251   3.500   1.140   1.261 -0.1566 -0.1164  0.0834
  813SOL     MW 3252   3.433   1.154   1.206 -0.0685  0.2021  0.0523
  814SOL     OW 3253   0.358   0.555   3.225 -0.2058  0.2442  0.0038
  814SOL    HW1 3254   0.390   0.523   3.309 -2.3162  0.4300  0.9426
  814SOL    HW2 3255   0.397   0.642   3.216  0.7796 -0.1574  0.3325
  814SOL     MW 3256   0.367   0.562   3.235 -0.3498  0.2166  0.1661
  815SOL     OW 3257   0.206   0.075   1.595  0.0556  0.2356 -0.0493
  815SOL    HW1 3258   0.189  -0.020   1.596  0.4231  0.1632  1.2121
  815SOL    HW2 3259   0.136   0.112   1.649 -1.3101  0.9501 -2.1863
  815SOL     MW 3260   0.194   0.067   1.602 -0.0722  0.3178 -0.1614
  816SOL     OW 3261   3.655   5.432   2.672 -0.2219 -0.2797  0.3222
  816SOL    HW1 3262   3.636   5.410   2.581  0.9033 -1.2956  0.3081
  816SOL    HW2 3263   3.744   5.400   2.686 -0.2859  0.0923  1.7164
  816SOL     MW 3264   3.664   5.425   2.662 -0.0860 -0.3621  0.4989
  817SOL     OW 3265   5.236   0.402   3.808 -0.0936 -0.3445  0.2012
  817SOL    HW1 3266   5.297   0.461   3.764  0.1606 -0.6411  0.1611
  817SOL    HW2 3267   5.177   0.372   3.738 -0.0772 -0.3260  0.1792
  817SOL     MW 3268   5.236   0.406   3.794 -0.0589 -0.3801  0.1933
  818SOL     OW 3269   2.690   1.015   2.969  0.3893  0.1392 -0.0424
  818SOL    HW1 3270   2.612   0.969   2.939 -1.2691  1.1039  2.4400
  818SOL    HW2 3271   2.747   0.947   3.004 -1.3547 -0.3177  2.1567
  818SOL     MW 3272   2.687   1.001   2.970 -0.0462  0.2042  0.5569
  819SOL     OW 3273   4.588   2.105   3.783  0.0221 -0.4738  0.0976
  819SOL    HW1 3274   4.498   2.095   3.753 -0.4632  0.1149  1.2780
  819SOL    HW2 3275   4.582   2.166   3.857  1.8130  2.3111 -1.8702
  819SOL     MW 3276   4.576   2.111   3.789  0.1892 -0.0419 -0.0032
  820SOL     OW 3277   3.019   0.061   4.349  0.2384 -0.0405 -0.4970
  820SOL    HW1 3278   3.062  -0.013   4.392  2.4016  0.4997 -1.6304
  820SOL    HW2 3279   2.925   0.045   4.364  0.7163 -2.0370  0.8078
  820SOL     MW 3280   3.012   0.049   4.357  0.5765 -0.2269 -0.4751
  821SOL     OW 3281   3.106   5.203   0.212  0.2881 -0.0175 -0.0023
  821SOL    HW1 3282   3.057   5.206   0.294 -0.0136  0.6710 -0.2026
  821SOL    HW2 3283   3.059   5.139   0.158 -0.0488  0.2115  0.0201
  821SOL     MW 3284   3.094   5.195   0.215  0.2063  0.0999 -0.0251
  822SOL     OW 3285   1.576   4.859   5.273  0.4892  0.4693 -0.0192
  822SOL    HW1 3286   1.490   4.874   5.311  0.0512  0.1658 -0.8702
  822SOL    HW2 3287   1.635   4.915   5.323 -0.6861  3.1642 -1.4640
  822SOL     MW 3288   1.573   4.868   5.284  0.2827  0.7755 -0.3131
  823SOL     OW 3289   5.296   1.675   2.962  0.0614  0.0439  0.5285
  823SOL    HW1 3290   5.258   1.746   3.014 -3.7120 -2.3951  1.4640
  823SOL    HW2 3291   5.230   1.656   2.896  0.6928 -2.8906  0.6160
  823SOL     MW 3292   5.283   1.682   2.960 -0.3408 -0.6440  0.6595
  824SOL     OW 3293   1.955   2.942   1.160 -0.3793 -0.2316  0.0016
  824SOL    HW1 3294   2.035   2.963   1.112 -0.4585 -1.2379 -0.6043
  824SOL    HW2 3295   1.886   2.989   1.114 -0.6650 -2.2470 -1.7834
  824SOL     MW 3296   1.956   2.951   1.148 -0.4260 -0.6184 -0.3045
  825SOL     OW 3297   1.563   5.011   1.786 -0.4746  0.0020  0.2871
  825SOL    HW1 3298   1.568   5.057   1.702 -0.0078 -1.0048 -0.2587
  825SOL    HW2 3299   1.621   4.936   1.775 -0.3228 -0.0856  1.5607
  825SOL     MW 3300   1.571   5.007   1.773 -0.3954 -0.1381  0.3803
  826SOL     OW 3301   4.652   0.883   4.509  0.0810  0.3797 -0.0589
  826SOL    HW1 3302   4.681   0.792   4.508  0.9371  0.5874  2.1520
  826SOL    HW2 3303   4.567   0.882   4.464  0.8568 -1.1933 -1.5696
  826SOL     MW 3304   4.644   0.872   4.503  0.2899  0.2049  0.0307
  827SOL     OW 3305   3.943   4.905   1.017  0.1168  0.3264 -0.2770
  827SOL    HW1 3306   3.972   4.964   1.086  1.3749 -0.6575  0.0699
  827SOL    HW2 3307   4.024   4.871   0.979 -0.5691 -1.1373 -0.4829
  827SOL     MW 3308   3.957   4.908   1.021  0.1901  0.0131 -0.2590
  828SOL     OW 3309   4.194   0.037   4.639  0.0321  0.0347 -0.1365
  828SOL    HW1 3310   4.160   0.126   4.645 -3.6132 -1.2551  1.5831
  828SOL    HW2 3311   4.277   0.040   4.687  1.2059  2.8404 -2.0458
  828SOL     MW 3312   4.201   0.049   4.646 -0.2843  0.2287 -0.1608
  829SOL     OW 3313   2.578   3.031   1.053  0.1061  0.1649 -0.3461
  829SOL    HW1 3314   2.635   3.010   0.979  1.3333  0.7397  0.4082
  829SOL    HW2 3315   2.511   3.089   1.016  0.2426 -0.1741 -1.1548
  829SOL     MW 3316   2.577   3.035   1.039  0.2807  0.1951 -0.3531
  830SOL     OW 3317   0.763   3.787   2.104 -0.4531 -0.5559 -0.2088
  830SOL    HW1 3318   0.834   3.722   2.105 -0.9618 -1.1704 -1.5990
  830SOL    HW2 3319   0.739   3.797   2.196  2.0367  0.3656  0.4257
  830SOL     MW 3320   0.769   3.780   2.116 -0.1995 -0.5166 -0.3055
  831SOL     OW 3321   1.636   3.744   1.123  0.0303  0.3020  0.0138
  831SOL    HW1 3322   1.697   3.695   1.068  0.3135  0.4134  0.2256
  831SOL    HW2 3323   1.687   3.770   1.200 -0.4354 -0.1121  0.4810
  831SOL     MW 3324   1.650   3.741   1.126  0.0070  0.2633  0.1007
  832SOL     OW 3325   3.616   2.689   0.944  0.0882 -0.2782  0.1666
  832SOL    HW1 3326   3.619   2.777   0.983 -1.8742 -0.6853  1.3783
  832SOL    HW2 3327   3.682   2.640   0.992 -0.4264 -0.0486  1.1464
  832SOL     MW 3328   3.625   2.694   0.955 -0.2289 -0.3009  0.4471
  833SOL     OW 3329   5.081   2.057   2.730 -0.3207 -0.1776  0.1840
  833SOL    HW1 3330   5.040   2.120   2.671  2.5193  0.0112 -1.7374
  833SOL    HW2 3331   5.121   1.992   2.672  1.1030 -0.9684  1.9696
  833SOL     MW 3332   5.081   2.056   2.715  0.2251 -0.2547  0.1666
  834SOL     OW 3333   2.755   3.779   1.575 -0.0376 -0.5491 -0.2534
  834SOL    HW1 3334   2.788   3.692   1.551 -0.0348 -0.6662  0.1778
  834SOL    HW2 3335   2.680   3.761   1.632  0.8188 -0.2664  0.9992
  834SOL     MW 3336   2.750   3.765   1.579  0.0724 -0.5279 -0.0379
  835SOL     OW 3337   3.487   1.064   3.660  0.5248 -0.8412  0.0442
  835SOL    HW1 3338   3.478   1.141   3.605  0.1007  1.8782  3.5361
  835SOL    HW2 3339   3.397   1.033   3.673  0.1322  0.8602  2.0033
  835SOL     MW 3340   3.474   1.070   3.655  0.4202 -0.2753  0.7420
  836SOL     OW 3341   1.783   5.092   5.283 -0.5042 -0.1959  0.4450
  836SOL    HW1 3342   1.813   5.003   5.266 -3.0052 -1.0859  0.3264
  836SOL    HW2 3343   1.863   5.140   5.307  0.9231 -2.4059  0.3892
  836SOL     MW 3344   1.797   5.087   5.284 -0.6416 -0.5927  0.4227
  837SOL     OW 3345   4.492   3.138   3.417  0.1621 -0.0170 -0.1297
  837SOL    HW1 3346   4.403   3.157   3.447 -0.9528 -1.3668 -2.3202
  837SOL    HW2 3347   4.544   3.136   3.497 -2.0186 -0.4762  1.3658
  837SOL     MW 3348   4.487   3.140   3.431 -0.2598 -0.2486 -0.2187
  838SOL     OW 3349   5.130   3.747   0.627  0.1194 -0.3508 -0.1651
  838SOL    HW1 3350   5.129   3.762   0.532 -1.9571  3.5833  0.2773
  838SOL    HW2 3351   5.038   3.728   0.649  0.1988  0.7602  1.2616
  838SOL     MW 3352   5.118   3.746   0.618 -0.1362  0.2951  0.0741
  839SOL     OW 3353   2.486   5.429   2.272  0.7364 -0.3849  0.1551
  839SOL    HW1 3354   2.459   5.517   2.299  0.1048  0.0131 -1.6263
  839SOL    HW2 3355   2.443   5.370   2.334 -2.3860  0.3562 -1.1298
  839SOL     MW 3356   2.477   5.433   2.283  0.2558 -0.2391 -0.2374
  840SOL     OW 3357   2.111   1.695   1.897 -0.1449 -0.0986 -0.0570
  840SOL    HW1 3358   2.078   1.779   1.865  0.3964  0.6309  1.1911
  840SOL    HW2 3359   2.034   1.639   1.900 -0.6022  0.4887 -0.5176
  840SOL     MW 3360   2.097   1.699   1.893 -0.1341  0.0700  0.0438
  841SOL     OW 3361   4.360   2.356   3.417  0.1979  0.0151 -0.0752
  841SOL    HW1 3362   4.407   2.289   3.368 -2.8260 -1.0794 -1.7030
  841SOL    HW2 3363   4.376   2.334   3.509 -0.3471 -2.7172 -0.5549
  841SOL     MW 3364   4.368   2.345   3.422 -0.2590 -0.4748 -0.3450
  842SOL     OW 3365   4.586   4.875   3.676  0.5849 -0.2991 -0.6148
  842SOL    HW1 3366   4.573   4.782   3.696 -0.9291  0.2973  1.4704
  842SOL    HW2 3367   4.499   4.907   3.653  1.0923  0.6179 -1.3127
  842SOL     MW 3368   4.573   4.867   3.676  0.4560 -0.1054 -0.4372
  843SOL     OW 3369   2.427   4.731   0.253  0.5305  0.2789  0.4877
  843SOL    HW1 3370   2.461   4.819   0.236  0.6728  0.0551 -0.4743
  843SOL    HW2 3371   2.483   4.696   0.321 -0.0458  1.2285  1.4832
  843SOL     MW 3372   2.438   4.738   0.259  0.4750  0.3718  0.4920
  844SOL     OW 3373   0.834   3.652   4.003 -0.8862 -0.3071 -0.7918
  844SOL    HW1 3374   0.799   3.636   4.091 -0.3885 -1.0855 -0.7184
  844SOL    HW2 3375   0.853   3.746   4.001  1.4866 -0.6579  0.8742
  844SOL     MW 3376   0.832   3.662   4.014 -0.5187 -0.4516 -0.5691
  845SOL     OW 3377   5.411   3.646   4.713  0.4516  0.1207 -0.2997
  845SOL    HW1 3378   5.458   3.654   4.796  0.6686 -0.2898 -0.3809
  845SOL    HW2 3379   5.332   3.699   4.726  0.2608 -0.3021  0.3290
  845SOL     MW 3380   5.407   3.654   4.726  0.4550  0.0140 -0.2296
  846SOL     OW 3381   3.561   0.221   5.002  0.4292  0.3734 -0.1720
  846SOL    HW1 3382   3.585   0.146   4.949  1.9290  1.3229 -0.8975
  846SOL    HW2 3383   3.499   0.186   5.066 -0.1527 -1.1300 -1.4901
  846SOL     MW 3384   3.556   0.207   5.004  0.5467  0.3025 -0.4336
  847SOL     OW 3385   5.420   3.590   1.861  0.2762 -0.0171  0.1490
  847SOL    HW1 3386   5.387   3.513   1.908  1.2977 -1.2678 -1.0858
  847SOL    HW2 3387   5.341   3.634   1.830 -0.3672  0.0687  1.7871
  847SOL     MW 3388   5.406   3.586   1.863  0.3246 -0.1662  0.2006
  848SOL     OW 3389   1.771   4.681   2.276 -0.1852  0.1533  0.6492
  848SOL    HW1 3390   1.831   4.683   2.352 -0.3518  0.3235  0.7777
  848SOL    HW2 3391   1.829   4.677   2.200 -0.0273 -2.6279  0.8366
  848SOL     MW 3392   1.786   4.681   2.276 -0.1863 -0.1810  0.6897
  849SOL     OW 3393   4.349   0.596   0.453  0.2884  0.1850 -0.0998
  849SOL    HW1 3394   4.394   0.664   0.404  0.0364 -0.6768 -1.5699
  849SOL    HW2 3395   4.417   0.532   0.475  0.1565 -0.0974 -0.5119
  849SOL     MW 3396   4.363   0.596   0.450  0.2393  0.0385 -0.3407
  850SOL     OW 3397   0.498   5.464   0.354  0.3968  0.2203 -0.2496
  850SOL    HW1 3398   0.561   5.394   0.337  1.1018  1.1385 -1.6649
  850SOL    HW2 3399   0.416   5.419   0.374  1.7274 -1.0207  2.9362
  850SOL     MW 3400   0.496   5.449   0.354  0.6574  0.1790 -0.0229
  851SOL     OW 3401   1.684   4.953   0.597  0.1795 -0.0198  0.0906
  851SOL    HW1 3402   1.699   5.037   0.554  1.2140  0.3162  1.0588
  851SOL    HW2 3403   1.727   4.961   0.682 -0.1545 -1.3488  0.4155
  851SOL     MW 3404   1.691   4.964   0.602  0.2691 -0.1469  0.2561
  852SOL     OW 3405   0.624   0.875   1.628  0.3041  0.1354  0.2334
  852SOL    HW1 3406   0.540   0.830   1.638  0.6515 -0.2398  1.6121
  852SOL    HW2 3407   0.688   0.805   1.618  0.6272  0.3787  0.5741
  852SOL     MW 3408   0.622   0.860   1.628  0.3899  0.1185  0.4535
  853SOL     OW 3409   1.200   4.576   0.789 -0.2019  0.0976  0.2513
  853SOL    HW1 3410   1.223   4.510   0.854 -1.9496  0.9942  1.8669
  853SOL    HW2 3411   1.179   4.525   0.710  0.1580 -1.1349  0.9272
  853SOL     MW 3412   1.200   4.561   0.787 -0.3795  0.0546  0.5446
  854SOL     OW 3413   4.580   5.062   4.518  0.5059 -0.2963  0.0689
  854SOL    HW1 3414   4.554   5.152   4.538 -0.6487 -0.5349 -0.2958
  854SOL    HW2 3415   4.504   5.009   4.543  0.1543 -0.9018 -2.0962
  854SOL     MW 3416   4.567   5.066   4.524  0.3131 -0.4043 -0.2549
  855SOL     OW 3417   2.215   4.129   1.158  0.2461 -0.7277  0.4012
  855SOL    HW1 3418   2.198   4.218   1.189  1.0093 -0.4147 -0.0502
  855SOL    HW2 3419   2.231   4.079   1.238 -0.5556 -0.5515  0.6847
  855SOL     MW 3420   2.215   4.134   1.172  0.2412 -0.6651  0.3797
  856SOL     OW 3421   4.196   4.161   5.237 -0.1770  1.1160 -0.0369
  856SOL    HW1 3422   4.224   4.155   5.145 -0.9435 -2.4611 -0.1789
  856SOL    HW2 3423   4.179   4.254   5.251  0.1713  1.8180 -3.4361
  856SOL     MW 3424   4.198   4.172   5.227 -0.2305  0.7480 -0.4902
  857SOL     OW 3425   0.523   3.381   5.102  0.0157 -0.3400 -0.2680
  857SOL    HW1 3426   0.508   3.287   5.097  1.7723 -0.6725  0.0287
  857SOL    HW2 3427   0.535   3.398   5.196  1.0809 -0.0780 -0.4388
  857SOL     MW 3428   0.522   3.371   5.114  0.3769 -0.3490 -0.2519
  858SOL     OW 3429   4.542   0.571   0.142  0.2033  0.1532  0.0019
  858SOL    HW1 3430   4.545   0.487   0.189 -2.7646  0.0087  0.0744
  858SOL    HW2 3431   4.536   0.637   0.211 -1.0059  0.1539 -0.0875
  858SOL     MW 3432   4.542   0.569   0.157 -0.3314  0.1348 -0.0003
  859SOL     OW 3433   1.804   3.531   3.167 -0.3731  0.3948  0.4254
  859SOL    HW1 3434   1.859   3.608   3.153 -1.4417  1.2872  0.9384
  859SOL    HW2 3435   1.748   3.555   3.241 -0.9460 -0.7599  0.3919
  859SOL     MW 3436   1.804   3.544   3.175 -0.5832  0.3612  0.4868
  860SOL     OW 3437   3.875   3.768   3.497  0.2506  0.0115  0.2687
  860SOL    HW1 3438   3.872   3.737   3.588  0.3945 -0.8638 -0.0254
  860SOL    HW2 3439   3.790   3.811   3.484 -0.5969 -1.6362  0.1939
  860SOL     MW 3440   3.864   3.770   3.507  0.1605 -0.3115  0.2215
  861SOL     OW 3441   0.539   4.083   0.664 -0.2349  0.1376  0.0018
  861SOL    HW1 3442   0.608   4.047   0.608  0.4374  0.7624  0.4006
  861SOL    HW2 3443   0.550   4.178   0.657 -0.4622  0.2299  0.7923
  861SOL     MW 3444   0.549   4.091   0.656 -0.1779  0.2294  0.1541
  862SOL     OW 3445   3.571   0.523   3.485 -0.3177  0.3474  0.0953
  862SOL    HW1 3446   3.618   0.479   3.556 -1.0842  0.5373  0.7335
  862SOL    HW2 3447   3.495   0.467   3.468 -1.1007  1.2088  0.6595
  862SOL     MW 3448   3.567   0.510   3.492 -0.5160  0.4820  0.2492
  863SOL     OW 3449   1.212   0.672   1.552 -0.4184  0.1129  0.7569
  863SOL    HW1 3450   1.248   0.678   1.641  0.2722  1.0169  0.4251
  863SOL    HW2 3451   1.235   0.755   1.511  1.3662 -1.1868 -1.0420
  863SOL     MW 3452   1.220   0.683   1.558 -0.1016  0.0622  0.4841
  864SOL     OW 3453   2.870   2.200   4.187  0.0249 -0.2959 -0.6628
  864SOL    HW1 3454   2.966   2.206   4.183 -0.0021  1.8018  0.2932
  864SOL    HW2 3455   2.841   2.233   4.102  0.1381 -0.5914 -0.8182
  864SOL     MW 3456   2.879   2.205   4.176  0.0360 -0.0652 -0.5603
  865SOL     OW 3457   1.869   5.423   4.523 -0.2134 -0.3489 -0.3218
  865SOL    HW1 3458   1.863   5.480   4.446 -1.4510 -0.1019 -0.0613
  865SOL    HW2 3459   1.853   5.480   4.597  1.4436 -0.4964  0.1889
  865SOL     MW 3460   1.866   5.437   4.522 -0.1597 -0.3362 -0.2231
  866SOL     OW 3461   2.970   5.458   3.613  0.0511 -0.0426  0.0737
  866SOL    HW1 3462   2.988   5.402   3.537 -1.8754  1.0349 -1.2806
  866SOL    HW2 3463   2.937   5.397   3.680  1.5295 -0.9783 -0.0086
  866SOL     MW 3464   2.968   5.443   3.612 -0.0063 -0.0244 -0.1102
  867SOL     OW 3465   1.261   0.288   1.316 -0.4700  0.4315  0.0125
  867SOL    HW1 3466   1.309   0.370   1.309  3.0861 -1.5478 -1.2329
  867SOL    HW2 3467   1.299   0.243   1.391 -0.0556 -1.3718 -1.2062
  867SOL     MW 3468   1.272   0.293   1.325  0.0382 -0.0527 -0.3029
  868SOL     OW 3469   4.209   0.006   0.019  0.7438 -0.2023 -0.3739
  868SOL    HW1 3470   4.274  -0.029  -0.042  2.6136  0.7185  0.9730
  868SOL    HW2 3471   4.243   0.093   0.042 -1.8494  1.0118 -0.8249
  868SOL     MW 3472   4.222   0.013   0.014  0.6512  0.0710 -0.2592
  869SOL     OW 3473   4.594   3.354   1.558 -0.3374 -0.1803  0.5037
  869SOL    HW1 3474   4.554   3.432   1.520  1.7557  0.6466 -0.1256
  869SOL    HW2 3475   4.627   3.305   1.484 -0.7467 -1.1766  0.9658
  869SOL     MW 3476   4.593   3.358   1.544 -0.1219 -0.2020  0.4823
  870SOL     OW 3477   0.627   1.722   0.505  0.2418  0.1084 -0.1411
  870SOL    HW1 3478   0.605   1.815   0.508 -1.3191 -0.2365  2.1390
  870SOL    HW2 3479   0.550   1.680   0.468 -1.1576 -0.6280  3.1961
  870SOL     MW 3480   0.615   1.729   0.501 -0.1371 -0.0300  0.5780
  871SOL     OW 3481   2.673   4.761   0.058 -0.0307  0.3342  0.4101
  871SOL    HW1 3482   2.696   4.717   0.140  0.0991 -0.3960 -0.0120
  871SOL    HW2 3483   2.757   4.781   0.018 -0.0683  1.6110  0.9180
  871SOL     MW 3484   2.687   4.758   0.064 -0.0189  0.4042  0.4211
  872SOL     OW 3485   1.911   1.332   3.383  0.0050  0.6591 -0.6103
  872SOL    HW1 3486   1.970   1.316   3.310 -0.4843 -0.9988 -0.6903
  872SOL    HW2 3487   1.918   1.426   3.400 -0.0775  1.1533 -2.9481
  872SOL     MW 3488   1.919   1.342   3.376 -0.0682  0.5102 -0.9198
  873SOL     OW 3489   0.466   3.932   1.397 -0.1511 -0.0775 -0.6873
  873SOL    HW1 3490   0.555   3.967   1.386  0.6732 -1.5531  0.7954
  873SOL    HW2 3491   0.472   3.842   1.364  0.1044 -1.6178  3.0547
  873SOL     MW 3492   0.478   3.925   1.392 -0.0129 -0.4636 -0.0184
  874SOL     OW 3493   0.091   2.637   0.116 -0.2940  0.6937  0.5651
  874SOL    HW1 3494   0.072   2.578   0.042 -0.2116  2.9138 -1.3528
  874SOL    HW2 3495   0.031   2.710   0.104  0.2537  1.4837  2.3123
  874SOL     MW 3496   0.081   2.639   0.105 -0.2134  1.0790  0.5433
  875SOL     OW 3497   3.677   0.397   3.745 -0.4510  0.5436  0.2963
  875SOL    HW1 3498   3.610   0.364   3.805  0.6564 -0.4158  1.0590
  875SOL    HW2 3499   3.760   0.376   3.788  0.3581  0.8421 -1.0598
  875SOL     MW 3500   3.679   0.390   3.759 -0.2057  0.4590  0.2204
  876SOL     OW 3501   1.407   1.854   1.029  0.2307 -0.8798 -0.1066
  876SOL    HW1 3502   1.419   1.908   0.951 -1.1744 -0.3702 -0.0089
  876SOL    HW2 3503   1.446   1.905   1.100  0.2686 -0.6963 -0.2591
  876SOL     MW 3504   1.413   1.867   1.028  0.0557 -0.7911 -0.1136
  877SOL     OW 3505   0.167   3.983   2.602  0.1224  0.2545 -0.0249
  877SOL    HW1 3506   0.084   3.979   2.555  0.1517  0.7164 -0.1232
  877SOL    HW2 3507   0.208   3.898   2.586 -0.2958  0.0535 -0.0387
  877SOL     MW 3508   0.162   3.972   2.594  0.0726  0.2879 -0.0393
  878SOL     OW 3509   1.087   2.059   0.993  0.3788  0.3877  0.1044
  878SOL    HW1 3510   1.004   2.098   0.966  0.8131  1.0655 -0.2604
  878SOL    HW2 3511   1.153   2.102   0.939  1.1641  1.0058  1.4890
  878SOL     MW 3512   1.085   2.069   0.983  0.5349  0.5536  0.2349
  879SOL     OW 3513   5.000   1.635   1.353  0.1988  0.1303 -0.0183
  879SOL    HW1 3514   5.054   1.624   1.432 -0.7587 -0.6868  0.5387
  879SOL    HW2 3515   4.958   1.720   1.364  1.6383  0.9618 -0.6441
  879SOL     MW 3516   5.002   1.645   1.365  0.2605  0.1321 -0.0271
  880SOL     OW 3517   1.147   1.846   0.691 -0.3577  0.2366  0.1313
  880SOL    HW1 3518   1.098   1.833   0.610  0.1739  0.2058 -0.1882
  880SOL    HW2 3519   1.122   1.771   0.745  0.8754 -0.9001 -0.8094
  880SOL     MW 3520   1.137   1.834   0.688 -0.1318  0.0871 -0.0300
  881SOL     OW 3521   4.851   3.193   4.718 -0.4742  0.5761 -0.2420
  881SOL    HW1 3522   4.763   3.164   4.693 -0.3107  0.1102 -0.2829
  881SOL    HW2 3523   4.848   3.288   4.709 -1.4795  0.7409  1.3431
  881SOL     MW 3524   4.839   3.201   4.714 -0.5820  0.5375 -0.0444
  882SOL     OW 3525   2.934   3.588   5.289  0.0376 -0.5522  0.2804
  882SOL    HW1 3526   3.012   3.611   5.338 -0.4780 -0.0715  0.8948
  882SOL    HW2 3527   2.861   3.618   5.344 -0.5539  0.2015 -0.8638
  882SOL     MW 3528   2.934   3.595   5.302 -0.1041 -0.3942  0.2126
  883SOL     OW 3529   2.415   3.247   0.925  0.3441  0.0306 -0.2900
  883SOL    HW1 3530   2.416   3.313   0.856 -0.9434 -1.4630 -1.8450
  883SOL    HW2 3531   2.335   3.265   0.974  0.9945  0.7845  0.4973
  883SOL     MW 3532   2.405   3.258   0.922  0.2626 -0.0641 -0.3883
  884SOL     OW 3533   2.794   3.255   1.990  0.1597 -0.6071  0.0115
  884SOL    HW1 3534   2.883   3.228   2.011  0.5065 -0.0828 -0.7594
  884SOL    HW2 3535   2.802   3.347   1.965 -0.7877 -0.1806  1.1628
  884SOL     MW 3536   2.806   3.263   1.990  0.0828 -0.4854  0.0602
  885SOL     OW 3537   1.391   1.701   0.493 -0.1891  0.0893  0.0615
  885SOL    HW1 3538   1.458   1.694   0.425  0.0880  0.1931  0.3221
  885SOL    HW2 3539   1.431   1.660   0.570  0.3298  1.8381  0.7703
  885SOL     MW 3540   1.405   1.695   0.494 -0.0872  0.3264  0.1856
  886SOL     OW 3541   1.729   0.340   4.207 -0.5628 -0.0664  0.1304
  886SOL    HW1 3542   1.636   0.340   4.185 -0.6085  3.8977 -0.3671
  886SOL    HW2 3543   1.772   0.387   4.136  1.8140 -1.3093  0.6081
  886SOL     MW 3544   1.723   0.346   4.195 -0.2644  0.2820  0.1279
  887SOL     OW 3545   3.067   2.096   2.727 -0.4154  0.0285  0.0167
  887SOL    HW1 3546   3.059   2.032   2.798  2.5237 -0.1104  0.3413
  887SOL    HW2 3547   2.980   2.098   2.688 -1.7908 -0.9508  2.6973
  887SOL     MW 3548   3.055   2.088   2.731 -0.2152 -0.1146  0.4014
  888SOL     OW 3549   3.003   0.369   1.231  0.0940 -0.5274 -0.0823
  888SOL    HW1 3550   2.974   0.289   1.189 -0.3384  0.1389 -1.0803
  888SOL    HW2 3551   3.095   0.378   1.205 -0.4111  0.3612 -1.7152
  888SOL     MW 3552   3.011   0.360   1.222 -0.0260 -0.3283 -0.4191
  889SOL     OW 3553   4.710   1.286   4.279 -0.3245 -0.4976  0.0349
  889SOL    HW1 3554   4.703   1.226   4.354  0.1275  1.9635  2.1811
  889SOL    HW2 3555   4.669   1.367   4.309  0.4836  0.8131 -2.1540
  889SOL     MW 3556   4.704   1.289   4.293 -0.1632 -0.0148  0.0294
  890SOL     OW 3557   2.244   3.155   2.340  0.9103  0.2872 -0.3591
  890SOL    HW1 3558   2.216   3.066   2.315 -2.7996  1.0525  0.4246
  890SOL    HW2 3559   2.280   3.192   2.259 -1.6117 -0.5662 -2.0138
  890SOL     MW 3560   2.245   3.148   2.326  0.1125  0.2760 -0.4706
  891SOL     OW 3561   0.595   3.409   0.211 -0.3312 -0.5403  0.3571
  891SOL    HW1 3562   0.641   3.333   0.175 -0.3733 -0.3193 -0.1648
  891SOL    HW2 3563   0.532   3.371   0.272 -2.0064 -1.1153 -1.6403
  891SOL     MW 3564   0.593   3.394   0.215 -0.5511 -0.5856  0.0346
  892SOL     OW 3565   1.288   3.320   0.754 -0.0810 -0.2113  0.0887
  892SOL    HW1 3566   1.232   3.342   0.829  1.8619 -1.9300  2.2252
  892SOL    HW2 3567   1.241   3.250   0.708 -0.2127 -0.9302  1.2631
  892SOL     MW 3568   1.275   3.314   0.758  0.1509 -0.5233  0.5125
  893SOL     OW 3569   0.422   5.179   4.191 -0.5067  0.0801 -0.0882
  893SOL    HW1 3570   0.391   5.143   4.108  0.0244 -1.6245  0.4142
  893SOL    HW2 3571   0.376   5.262   4.200  0.3682  0.9099 -2.6791
  893SOL     MW 3572   0.412   5.185   4.182 -0.3267 -0.0319 -0.3555
  894SOL     OW 3573   2.859   4.792   1.241 -0.0323  0.3571 -0.3570
  894SOL    HW1 3574   2.792   4.842   1.194 -0.6145 -0.0772  0.0137
  894SOL    HW2 3575   2.816   4.763   1.321  0.8390  0.7639  0.2777
  894SOL     MW 3576   2.845   4.795   1.245  0.0047  0.3536 -0.2283
  895SOL     OW 3577   4.520   0.785   3.858  0.5451 -0.0515 -0.1273
  895SOL    HW1 3578   4.562   0.871   3.861  2.5567 -0.9490 -0.8591
  895SOL    HW2 3579   4.554   0.739   3.934 -1.2535  0.0567  0.8002
  895SOL     MW 3580   4.529   0.790   3.868  0.5724 -0.1526 -0.1023
  896SOL     OW 3581   5.341   0.715   1.847 -0.1100 -0.2961 -0.2518
  896SOL    HW1 3582   5.428   0.725   1.808  0.7635 -0.5042  1.5383
  896SOL    HW2 3583   5.321   0.622   1.836  1.0382 -0.8016  1.5061
  896SOL     MW 3584   5.350   0.704   1.841  0.1488 -0.3875  0.2024
  897SOL     OW 3585   2.588   1.856   1.581  0.5191 -0.0904 -0.5456
  897SOL    HW1 3586   2.633   1.875   1.663  0.5992 -3.2685  0.2766
  897SOL    HW2 3587   2.656   1.819   1.524 -0.1390 -0.7289 -0.9381
  897SOL     MW 3588   2.603   1.854   1.584  0.4451 -0.5790 -0.4906
  898SOL     OW 3589   2.218   2.659   0.111 -0.0275 -0.1804  0.4190
  898SOL    HW1 3590   2.264   2.609   0.044 -0.7342 -0.7497  0.3472
  898SOL    HW2 3591   2.192   2.740   0.068  0.2767 -0.1716  0.2542
  898SOL     MW 3592   2.221   2.663   0.097 -0.0790 -0.2522  0.3887
  899SOL     OW 3593   0.672   4.106   3.162 -0.0578  0.4892 -0.2533
  899SOL    HW1 3594   0.681   4.056   3.081 -0.1017  0.7440 -0.4160
  899SOL    HW2 3595   0.630   4.187   3.136 -0.8737  0.2097  0.1672
  899SOL     MW 3596   0.668   4.110   3.149 -0.1679  0.4860 -0.2203
  900SOL     OW 3597   0.772   1.564   4.725  0.3486  0.7736  0.2361
  900SOL    HW1 3598   0.738   1.564   4.636  0.4102 -1.1231  0.1644
  900SOL    HW2 3599   0.712   1.507   4.773  1.7105 -0.2170  0.8141
  900SOL     MW 3600   0.760   1.557   4.720  0.5308  0.4040  0.3009
  901SOL     OW 3601   3.885   0.115   3.431  0.4869 -0.1476 -0.3029
  901SOL    HW1 3602   3.805   0.160   3.461 -0.5325 -1.7989 -0.4295
  901SOL    HW2 3603   3.879   0.117   3.336  0.2947 -0.7507 -0.3100
  901SOL     MW 3604   3.874   0.121   3.423  0.3318 -0.4362 -0.3200
  902SOL     OW 3605   1.075   0.171   1.003  0.8038 -0.4728  0.6621
  902SOL    HW1 3606   1.021   0.250   1.002 -1.8926 -2.1544 -0.7417
  902SOL    HW2 3607   1.020   0.105   1.045  2.4627 -1.9110  0.6873
  902SOL     MW 3608   1.061   0.172   1.008  0.6710 -0.8722  0.4856
  903SOL     OW 3609   2.608   3.370   1.063 -0.6998 -0.1282 -0.3022
  903SOL    HW1 3610   2.582   3.463   1.062  0.0477  0.1861  2.0535
  903SOL    HW2 3611   2.538   3.325   1.017 -1.9546  1.4365 -0.0097
  903SOL     MW 3612   2.596   3.376   1.057 -0.7647  0.1123  0.0368
  904SOL     OW 3613   1.951   4.155   2.926  0.3987  0.1215  0.1595
  904SOL    HW1 3614   2.046   4.173   2.927  0.2876  0.7220  0.3677
  904SOL    HW2 3615   1.941   4.078   2.983  1.0001 -1.2596 -1.5197
  904SOL     MW 3616   1.962   4.147   2.934  0.4614  0.0216 -0.0288
  905SOL     OW 3617   1.175   0.172   4.266  0.0221  0.1018  0.3903
  905SOL    HW1 3618   1.228   0.212   4.335  0.0036  0.5754  0.1312
  905SOL    HW2 3619   1.185   0.231   4.191 -1.3020  0.4780  0.4905
  905SOL     MW 3620   1.183   0.185   4.265 -0.1498  0.2106  0.3700
  906SOL     OW 3621   0.030   2.641   1.036 -0.5838  0.2822  0.5434
  906SOL    HW1 3622  -0.037   2.632   0.969  0.2873  0.4430 -0.3739
  906SOL    HW2 3623   0.001   2.584   1.107 -1.0165 -0.6729 -0.3842
  906SOL     MW 3624   0.018   2.633   1.037 -0.5277  0.1805  0.3072
  907SOL     OW 3625   3.463   1.137   4.512  0.0459 -0.6572 -0.3055
  907SOL    HW1 3626   3.415   1.212   4.545  0.5966 -1.8233  3.7194
  907SOL    HW2 3627   3.396   1.070   4.496 -0.1557 -0.3632 -0.7051
  907SOL     MW 3628   3.448   1.138   4.514  0.0906 -0.7688  0.1585
  908SOL     OW 3629   0.369   4.624   1.302 -0.3530  0.0618 -0.4359
  908SOL    HW1 3630   0.334   4.634   1.213 -1.3118  0.9808  0.0134
  908SOL    HW2 3631   0.333   4.699   1.349  0.0070 -0.5083  0.7687
  908SOL     MW 3632   0.360   4.635   1.297 -0.4297  0.1064 -0.2242
  909SOL     OW 3633   1.649   3.002   1.607 -0.4477 -0.2744 -0.2405
  909SOL    HW1 3634   1.603   3.046   1.679  1.1609 -0.4499  0.9367
  909SOL    HW2 3635   1.647   3.066   1.536 -0.8747  0.4489  0.3978
  909SOL     MW 3636   1.643   3.016   1.607 -0.2965 -0.2043 -0.0081
  910SOL     OW 3637   5.282   3.667   3.199  0.1873 -0.2905  0.7265
  910SOL    HW1 3638   5.211   3.623   3.152 -0.1904  2.0617 -1.1069
  910SOL    HW2 3639   5.311   3.736   3.139  2.3462  0.4200  2.4577
  910SOL     MW 3640   5.277   3.670   3.185  0.4153  0.1016  0.7134
  911SOL     OW 3641   0.298   0.398  -0.012 -0.4210  0.1527 -0.2642
  911SOL    HW1 3642   0.304   0.388   0.083 -0.0719  2.1203 -0.0257
  911SOL    HW2 3643   0.206   0.417  -0.029 -0.7461 -1.4560 -0.5157
  911SOL     MW 3644   0.287   0.399  -0.002 -0.4180  0.1986 -0.2658
  912SOL     OW 3645   4.262   4.676   3.966  0.2569  0.0286 -0.0099
  912SOL    HW1 3646   4.236   4.678   3.874 -1.5650 -1.8252  0.3884
  912SOL    HW2 3647   4.289   4.586   3.981 -1.0107 -0.1314  1.6154
  912SOL     MW 3648   4.262   4.665   3.956 -0.1386 -0.2292  0.2492
  913SOL     OW 3649   1.598   1.103   0.833  0.1167 -0.3935 -0.2030
  913SOL    HW1 3650   1.618   1.181   0.781 -0.3558 -0.2186 -0.1320
  913SOL    HW2 3651   1.507   1.116   0.860 -0.1685 -1.2779 -0.7233
  913SOL     MW 3652   1.589   1.115   0.830  0.0197 -0.4843 -0.2605
  914SOL     OW 3653   3.417   2.452   4.570 -0.2566 -0.0289 -0.4629
  914SOL    HW1 3654   3.354   2.478   4.637  0.6926 -0.6521  0.7097
  914SOL    HW2 3655   3.462   2.534   4.546 -0.1530  0.0865  0.1283
  914SOL     MW 3656   3.414   2.466   4.575 -0.1218 -0.0939 -0.2371
  915SOL     OW 3657   5.066   0.432   2.086  0.2966 -0.7403  0.1939
  915SOL    HW1 3658   4.991   0.375   2.068 -0.2863 -1.0025  2.9416
  915SOL    HW2 3659   5.039   0.518   2.054  0.0221 -1.4028 -1.4404
  915SOL     MW 3660   5.053   0.435   2.080  0.1868 -0.8587  0.3364
  916SOL     OW 3661   4.117   2.603   4.911 -0.5602  0.5275 -0.5085
  916SOL    HW1 3662   4.026   2.625   4.891 -0.2596  0.4033 -2.1442
  916SOL    HW2 3663   4.162   2.687   4.915 -0.2468  0.4991 -2.4580
  916SOL     MW 3664   4.111   2.616   4.909 -0.4816  0.5080 -0.9674
  917SOL     OW 3665   0.027   3.817   4.394 -0.3822  0.0777  0.0862
  917SOL    HW1 3666  -0.068   3.807   4.386 -0.4117  0.0518  0.4789
  917SOL    HW2 3667   0.051   3.867   4.315 -0.2942 -2.5064 -1.6379
  917SOL     MW 3668   0.018   3.822   4.383 -0.3747 -0.2564 -0.0842
  918SOL     OW 3669   0.745   0.438   4.181 -0.3692 -0.3392  0.2936
  918SOL    HW1 3670   0.724   0.377   4.111  1.9492  0.8230 -1.5813
  918SOL    HW2 3671   0.691   0.410   4.255 -1.7486 -2.6110 -1.4409
  918SOL     MW 3672   0.735   0.427   4.182 -0.2490 -0.4812 -0.1685
  919SOL     OW 3673   2.054   2.076   3.336  0.1280 -0.4231 -0.0740
  919SOL    HW1 3674   1.993   2.095   3.407 -1.1431 -1.3437 -0.8944
  919SOL    HW2 3675   2.118   2.017   3.376 -0.6746 -1.0780  0.2604
  919SOL     MW 3676   2.055   2.071   3.350 -0.1375 -0.6248 -0.1362
  920SOL     OW 3677   4.517   3.686   2.416 -0.2797  0.2954 -0.3856
  920SOL    HW1 3678   4.509   3.601   2.459  0.7338  0.7786  0.8039
  920SOL    HW2 3679   4.469   3.747   2.471 -1.2900  0.4664 -1.4129
  920SOL     MW 3680   4.510   3.683   2.428 -0.2793  0.3791 -0.3648
  921SOL     OW 3681   0.650   1.529   2.616 -0.0886  0.0233 -0.3160
  921SOL    HW1 3682   0.554   1.529   2.622 -0.0773  0.2732 -0.1286
  921SOL    HW2 3683   0.676   1.617   2.643  0.2681 -0.4602  0.9737
  921SOL     MW 3684   0.641   1.540   2.620 -0.0415 -0.0066 -0.1270
  922SOL     OW 3685   3.019   1.124   1.349 -0.4414  0.2715  0.0536
  922SOL    HW1 3686   2.987   1.068   1.279  0.6862 -0.1475 -0.1410
  922SOL    HW2 3687   3.111   1.099   1.361 -0.0632  1.6996  0.3256
  922SOL     MW 3688   3.027   1.114   1.342 -0.2487  0.4007  0.0635
  923SOL     OW 3689   3.054   0.910   3.959 -0.6746 -1.0433  0.0867
  923SOL    HW1 3690   2.970   0.955   3.966 -0.1846 -0.0571 -0.1166
  923SOL    HW2 3691   3.111   0.973   3.914  0.3416 -1.4585  0.7522
  923SOL     MW 3692   3.051   0.924   3.954 -0.4818 -0.9702  0.1459
  924SOL     OW 3693   4.698   1.464   4.791 -0.7999  0.4538 -0.3203
  924SOL    HW1 3694   4.769   1.402   4.774 -1.3849 -0.2972 -0.0687
  924SOL    HW2 3695   4.680   1.454   4.885 -1.7666  0.0453 -0.5355
  924SOL     MW 3696   4.705   1.455   4.801 -0.9985  0.3054 -0.3157
  925SOL     OW 3697   2.049   3.897   2.558  0.0622 -0.3135 -0.7133
  925SOL    HW1 3698   1.997   3.952   2.500  0.2107 -0.0809 -0.6277
  925SOL    HW2 3699   1.985   3.847   2.608 -0.0704 -0.3377 -0.9082
  925SOL     MW 3700   2.034   3.898   2.557  0.0642 -0.2868 -0.7273
  926SOL     OW 3701   2.562   1.662   3.443  0.6435 -0.4610  0.3330
  926SOL    HW1 3702   2.621   1.594   3.474  0.5470  0.1877  2.0680
  926SOL    HW2 3703   2.479   1.616   3.427  1.1125 -1.0661 -0.4069
  926SOL     MW 3704   2.559   1.648   3.445  0.6912 -0.4554  0.4604
  927SOL     OW 3705   4.075   5.071   2.239  0.4926  0.1085 -0.0505
  927SOL    HW1 3706   4.003   5.034   2.189  0.3949  1.1076 -0.6892
  927SOL    HW2 3707   4.146   5.008   2.231 -0.4126 -1.0607  0.8919
  927SOL     MW 3708   4.075   5.058   2.231  0.3642  0.0868 -0.0116
  928SOL     OW 3709   3.888   3.456   2.192  0.2284 -0.4620  0.3916
  928SOL    HW1 3710   3.942   3.378   2.184  0.7655 -0.1519  0.9202
  928SOL    HW2 3711   3.810   3.437   2.140 -0.7136 -2.2614  2.3210
  928SOL     MW 3712   3.884   3.444   2.184  0.1765 -0.6526  0.7063
  929SOL     OW 3713   4.548   0.929   0.493  0.6002  0.3228  0.3728
  929SOL    HW1 3714   4.466   0.930   0.542  0.2286 -0.5360 -0.2061
  929SOL    HW2 3715   4.606   0.871   0.542  0.7020  0.5527  0.5264
  929SOL     MW 3716   4.545   0.922   0.505  0.5656  0.2423  0.3183
  930SOL     OW 3717   2.158   0.058   3.863 -0.3209  0.2964  0.1458
  930SOL    HW1 3718   2.182  -0.034   3.850 -0.3726  0.2647  0.2673
  930SOL    HW2 3719   2.219   0.107   3.808 -1.3174  0.1101 -1.1636
  930SOL     MW 3720   2.169   0.053   3.855 -0.4551  0.2685 -0.0063
  931SOL     OW 3721   0.697   4.183   0.362 -0.0840  0.0384 -0.4392
  931SOL    HW1 3722   0.773   4.230   0.399 -1.3302  1.5692  0.2934
  931SOL    HW2 3723   0.681   4.112   0.425 -0.2368  0.7010  0.2935
  931SOL     MW 3724   0.705   4.180   0.375 -0.2631  0.3192 -0.2516
  932SOL     OW 3725   1.322   0.974   4.515  0.1346  0.4583 -0.2378
  932SOL    HW1 3726   1.412   0.943   4.510 -0.5225 -1.5331 -0.7259
  932SOL    HW2 3727   1.320   1.032   4.591  1.0259 -2.5068  2.2573
  932SOL     MW 3728   1.333   0.977   4.524  0.1645 -0.1762  0.0191
  933SOL     OW 3729   3.364   2.169   4.756 -0.6570  0.6132 -0.1730
  933SOL    HW1 3730   3.366   2.074   4.760  1.3572  0.5199 -1.6667
  933SOL    HW2 3731   3.449   2.193   4.718  0.1953  3.1830  2.9757
  933SOL     MW 3732   3.375   2.160   4.751 -0.2901  0.9302  0.0389
  934SOL     OW 3733   0.481   5.159   2.250  0.2988  0.2972 -0.1950
  934SOL    HW1 3734   0.477   5.230   2.313  0.3116  0.1387 -0.0159
  934SOL    HW2 3735   0.545   5.187   2.185  0.9356  0.0808  0.3253
  934SOL     MW 3736   0.488   5.171   2.249  0.3819  0.2492 -0.1054
  935SOL     OW 3737   0.838   4.462   0.657 -0.0205  0.5224 -0.5263
  935SOL    HW1 3738   0.745   4.445   0.645  0.1066 -0.1593 -0.5603
  935SOL    HW2 3739   0.882   4.392   0.609  0.5113  0.9620 -0.6866
  935SOL     MW 3740   0.832   4.451   0.649  0.0639  0.4914 -0.5512
  936SOL     OW 3741   1.583   2.245   4.683  0.4935  0.0662 -0.7515
  936SOL    HW1 3742   1.529   2.290   4.618  0.2567  1.7941  0.5593
  936SOL    HW2 3743   1.644   2.312   4.713  0.0865 -0.4385  1.3461
  936SOL     MW 3744   1.584   2.259   4.678  0.4111  0.2228 -0.3152
  937SOL     OW 3745   1.418   0.370   3.618 -0.3125  0.3208  0.0203
  937SOL    HW1 3746   1.344   0.361   3.678 -0.5234  0.5669 -0.2003
  937SOL    HW2 3747   1.381   0.352   3.532  0.4435 -2.2659  0.1499
  937SOL     MW 3748   1.404   0.367   3.615 -0.2427  0.0212  0.0087
  938SOL     OW 3749   4.589   4.032   2.725  0.1411  0.3995 -0.0478
  938SOL    HW1 3750   4.618   3.958   2.777  1.4378 -0.2757 -1.6225
  938SOL    HW2 3751   4.669   4.063   2.681 -0.9492  0.5212 -2.0956
  938SOL     MW 3752   4.603   4.027   2.726  0.1675  0.3287 -0.5115
  939SOL     OW 3753   1.880   2.602   1.787 -0.1694  0.3607  0.3562
  939SOL    HW1 3754   1.943   2.648   1.841 -0.1553 -1.3099  1.8609
  939SOL    HW2 3755   1.916   2.606   1.698 -0.1139  3.0178  0.4425
  939SOL     MW 3756   1.892   2.608   1.782 -0.1605  0.4870  0.5599
  940SOL     OW 3757   3.630   0.571   3.207 -0.2106  0.0159 -0.0237
  940SOL    HW1 3758   3.623   0.666   3.209 -0.5194 -0.0234  0.8064
  940SOL    HW2 3759   3.607   0.542   3.295 -1.9873 -0.9589 -0.7576
  940SOL     MW 3760   3.626   0.579   3.218 -0.4775 -0.1139 -0.0114
  941SOL     OW 3761   1.573   4.215   3.134 -0.4659  0.2455  0.1811
  941SOL    HW1 3762   1.511   4.203   3.206 -1.8559 -1.1312 -1.1658
  941SOL    HW2 3763   1.518   4.233   3.057  0.9957  2.2687 -0.4790
  941SOL     MW 3764   1.558   4.216   3.133 -0.4567  0.3282 -0.0759
  942SOL     OW 3765   2.939   5.112   0.440 -0.2054 -0.1277 -0.4536
  942SOL    HW1 3766   2.970   5.104   0.530 -0.5895 -1.5057 -0.4150
  942SOL    HW2 3767   2.927   5.021   0.411  0.9921  0.2401 -2.2765
  942SOL     MW 3768   2.942   5.099   0.448 -0.1013 -0.2570 -0.6820
  943SOL     OW 3769   3.671   5.105   1.368 -0.1343  0.0605  0.0453
  943SOL    HW1 3770   3.630   5.141   1.447  0.3660 -1.1628  0.8942
  943SOL    HW2 3771   3.608   5.040   1.336 -0.9977  1.5472 -1.4310
  943SOL     MW 3772   3.658   5.101   1.374 -0.1808  0.0942 -0.0350
  944SOL     OW 3773   4.880   0.254   1.311 -0.6452  0.3546  0.2661
  944SOL    HW1 3774   4.972   0.277   1.323 -0.9331  3.1414 -1.8141
  944SOL    HW2 3775   4.874   0.229   1.218 -1.9234 -0.1532  0.4675
  944SOL     MW 3776   4.891   0.254   1.300 -0.8457  0.6464  0.0256
  945SOL     OW 3777   4.642   4.125   4.934  0.0373 -0.4056  0.5140
  945SOL    HW1 3778   4.708   4.117   4.866 -1.5465 -1.5335 -0.9688
  945SOL    HW2 3779   4.641   4.040   4.977  0.7037  0.1549  1.6876
  945SOL     MW 3780   4.650   4.113   4.931 -0.0801 -0.4782  0.4744
  946SOL     OW 3781   1.536   3.767   5.113 -0.2721 -0.1445  0.5546
  946SOL    HW1 3782   1.610   3.825   5.098  0.4276 -0.7467  1.5323
  946SOL    HW2 3783   1.502   3.793   5.199 -1.4178  0.3431 -0.0202
  946SOL     MW 3784   1.541   3.778   5.122 -0.3292 -0.1592  0.6062
  947SOL     OW 3785   0.763   4.919   4.391  0.6625  0.0138 -0.2353
  947SOL    HW1 3786   0.786   4.828   4.410  0.5959  0.4521  2.3872
  947SOL    HW2 3787   0.745   4.920   4.297 -0.3252 -2.8836 -0.1854
  947SOL     MW 3788   0.764   4.907   4.381  0.5275 -0.3010  0.1068
  948SOL     OW 3789   1.548   5.265   2.133  0.2838  0.1268  0.2315
  948SOL    HW1 3790   1.532   5.323   2.058  1.3894  0.2585  0.0810
  948SOL    HW2 3791   1.538   5.321   2.209 -0.8567 -0.0088  0.1893
  948SOL     MW 3792   1.545   5.280   2.133  0.2793  0.1263  0.2068
  949SOL     OW 3793   1.308   4.866   2.280  0.2280  0.0669 -0.2910
  949SOL    HW1 3794   1.321   4.910   2.196 -0.4058  1.1673  0.1748
  949SOL    HW2 3795   1.265   4.784   2.258 -0.1962  0.4766 -1.0296
  949SOL     MW 3796   1.304   4.861   2.267  0.0926  0.2602 -0.3259
  950SOL     OW 3797   4.859   2.840   3.874  0.4442  0.4644 -0.2389
  950SOL    HW1 3798   4.933   2.897   3.851  2.2687 -0.4442  2.8690
  950SOL    HW2 3799   4.802   2.895   3.928 -1.7399  1.3906 -3.2155
  950SOL     MW 3800   4.861   2.854   3.878  0.3982  0.4667 -0.2221
  951SOL     OW 3801   1.726   3.120   4.206  0.4759 -0.2762  0.0219
  951SOL    HW1 3802   1.739   3.201   4.158  1.0729  0.5594  1.5388
  951SOL    HW2 3803   1.632   3.117   4.224 -0.0668 -1.4143 -2.4843
  951SOL     MW 3804   1.716   3.130   4.202  0.4828 -0.3149 -0.1047
  952SOL     OW 3805   2.072   4.203   1.817  0.1572 -0.0655  0.3289
  952SOL    HW1 3806   2.042   4.112   1.811 -0.7648  0.2585  0.0277
  952SOL    HW2 3807   2.164   4.195   1.845  0.6665 -1.1463 -1.4918
  952SOL     MW 3808   2.080   4.190   1.820  0.1044 -0.1624  0.0572
  953SOL     OW 3809   3.668   3.680   4.159 -0.0266 -0.3454  0.6884
  953SOL    HW1 3810   3.595   3.681   4.097  1.3729  0.0193 -1.0375
  953SOL    HW2 3811   3.745   3.703   4.106  1.1915  0.3299  2.6429
  953SOL     MW 3812   3.669   3.683   4.144  0.3085 -0.2123  0.7177
  954SOL     OW 3813   4.218   0.759   2.096  0.1263 -0.5763 -0.1664
  954SOL    HW1 3814   4.146   0.763   2.159  1.2465  0.2154  1.1290
  954SOL    HW2 3815   4.179   0.723   2.017 -1.4837 -0.9901  0.7734
  954SOL     MW 3816   4.203   0.755   2.094  0.0636 -0.5279  0.1198
  955SOL     OW 3817   4.016   1.396   3.338  0.2266 -0.0191  0.2017
  955SOL    HW1 3818   4.002   1.450   3.260  1.2701  0.7538  0.5246
  955SOL    HW2 3819   4.043   1.311   3.304  1.7528  0.6261 -0.3036
  955SOL     MW 3820   4.018   1.392   3.323  0.5556  0.1624  0.1784
  956SOL     OW 3821   5.326   2.920   0.760  0.3949  0.4768 -0.3636
  956SOL    HW1 3822   5.254   2.892   0.703 -1.4023  0.2382  1.8513
  956SOL    HW2 3823   5.372   2.839   0.782 -1.2040 -0.0582  1.3605
  956SOL     MW 3824   5.323   2.906   0.756 -0.0398  0.3778  0.1407
  957SOL     OW 3825   1.834   2.374   0.028 -0.4518  0.1155 -0.3854
  957SOL    HW1 3826   1.796   2.454   0.064  1.1293  0.4219  0.7175
  957SOL    HW2 3827   1.830   2.385  -0.067 -0.5570  1.3581 -0.2489
  957SOL     MW 3828   1.829   2.385   0.021 -0.2628  0.3138 -0.2268
  958SOL     OW 3829   0.213   4.712   3.525  0.6343  0.0957  0.2865
  958SOL    HW1 3830   0.159   4.759   3.460 -0.1061 -1.4602 -0.2741
  958SOL    HW2 3831   0.169   4.728   3.608 -1.4543 -2.0519 -0.2952
  958SOL     MW 3832   0.200   4.720   3.527  0.2722 -0.3784  0.1402
  959SOL     OW 3833   0.167   1.266   0.508 -0.3625  0.0646 -0.1575
  959SOL    HW1 3834   0.196   1.223   0.427  0.8248 -1.4858  1.0255
  959SOL    HW2 3835   0.109   1.336   0.478 -1.5913 -1.7001 -2.2743
  959SOL     MW 3836   0.163   1.270   0.494 -0.3678 -0.3598 -0.2770
  960SOL     OW 3837   4.249   4.761   3.401  0.4572  0.3697  0.1578
  960SOL    HW1 3838   4.289   4.821   3.464  1.7420 -1.3879  1.1132
  960SOL    HW2 3839   4.319   4.741   3.339  0.6194 -1.4276  0.8560
  960SOL     MW 3840   4.263   4.766   3.401  0.6424 -0.0854  0.3695
  961SOL     OW 3841   5.369   3.848   3.034 -0.1481  0.4490  0.0583
  961SOL    HW1 3842   5.421   3.923   3.064 -2.0652  1.5764  0.7720
  961SOL    HW2 3843   5.433   3.781   3.012  1.5873  1.0062  2.8667
  961SOL     MW 3844   5.384   3.849   3.035 -0.1713  0.6647  0.5092
  962SOL     OW 3845   3.477   2.773   1.442 -0.1568  0.5501 -0.0356
  962SOL    HW1 3846   3.501   2.858   1.403 -0.1691  0.3166 -0.5637
  962SOL    HW2 3847   3.427   2.729   1.374  3.1768 -1.5276 -1.4231
  962SOL     MW 3848   3.474   2.778   1.428  0.2684  0.2542 -0.2808
  963SOL     OW 3849   2.723   3.301   1.600 -0.0666 -0.4572 -0.3883
  963SOL    HW1 3850   2.713   3.247   1.678 -0.2908 -0.6931 -0.5806
  963SOL    HW2 3851   2.742   3.239   1.530  0.4462 -0.2196 -0.4686
  963SOL     MW 3852   2.724   3.286   1.601 -0.0297 -0.4570 -0.4232
  964SOL     OW 3853   1.515   2.026   0.531 -0.0070  0.1405 -0.5592
  964SOL    HW1 3854   1.466   1.974   0.595 -1.2138  1.4961 -0.3181
  964SOL    HW2 3855   1.607   2.008   0.551 -0.3487  0.3798  1.4645
  964SOL     MW 3856   1.521   2.017   0.542 -0.2053  0.3446 -0.2693
  965SOL     OW 3857   5.469   5.108   1.271  0.4920  0.6349 -0.0024
  965SOL    HW1 3858   5.433   5.123   1.359  0.7635  1.7338 -0.0676
  965SOL    HW2 3859   5.421   5.032   1.239 -1.3381  1.6532  0.1763
  965SOL     MW 3860   5.458   5.100   1.278  0.2925  0.9059  0.0122
  966SOL     OW 3861   1.457   2.495   4.963 -0.3547  0.4094  0.3323
  966SOL    HW1 3862   1.384   2.460   4.912 -1.2966  1.1962  1.1015
  966SOL    HW2 3863   1.471   2.583   4.927  1.1859 -0.2392 -0.7660
  966SOL     MW 3864   1.449   2.502   4.952 -0.2781  0.4271  0.2901
  967SOL     OW 3865   0.797   4.536   0.924  0.0343 -0.2797  0.4258
  967SOL    HW1 3866   0.830   4.544   0.835 -0.1374 -0.7425  0.3175
  967SOL    HW2 3867   0.709   4.573   0.920  0.4592  0.7948  0.6760
  967SOL     MW 3868   0.790   4.542   0.912  0.0667 -0.2014  0.4439
  968SOL     OW 3869   3.311   3.931  -0.005  0.8301  0.1562 -0.0581
  968SOL    HW1 3870   3.237   3.989   0.012 -1.8833 -2.5153 -1.6543
  968SOL    HW2 3871   3.389   3.985   0.010 -1.3668  2.8931  2.6517
  968SOL     MW 3872   3.312   3.945  -0.001  0.2015  0.1646  0.0844
  969SOL     OW 3873   4.770   1.952   4.473  0.2872  0.6422 -0.3084
  969SOL    HW1 3874   4.798   1.882   4.531 -1.1102  0.9277  0.7660
  969SOL    HW2 3875   4.851   1.997   4.448  0.9307  0.4720  1.3785
  969SOL     MW 3876   4.784   1.949   4.477  0.1907  0.6569  0.0450
  970SOL     OW 3877   2.522   4.357   1.563  0.5829  0.0053  0.2418
  970SOL    HW1 3878   2.514   4.308   1.645  4.5506 -1.1649  0.1294
  970SOL    HW2 3879   2.605   4.404   1.571  0.3421  1.0912 -2.5086
  970SOL     MW 3880   2.531   4.357   1.574  1.0600 -0.0055 -0.1247
  971SOL     OW 3881   1.384   1.857   0.242  0.5529  0.0781  0.0397
  971SOL    HW1 3882   1.409   1.893   0.328  2.1423 -2.4625  0.7606
  971SOL    HW2 3883   1.361   1.933   0.190  0.5647  1.8143  2.3980
  971SOL     MW 3884   1.384   1.871   0.247  0.7579 -0.0249  0.4339
  972SOL     OW 3885   2.742   4.230   1.415 -0.1315 -0.3262  0.0574
  972SOL    HW1 3886   2.781   4.143   1.404  0.6571 -0.1477  1.2471
  972SOL    HW2 3887   2.679   4.219   1.486  0.0716  0.1004  0.3062
  972SOL     MW 3888   2.739   4.218   1.422 -0.0046 -0.2487  0.2415
  973SOL     OW 3889   5.069   5.320   4.303 -0.6349  0.0221 -0.0130
  973SOL    HW1 3890   5.112   5.266   4.370 -0.0780  0.0943 -0.3059
  973SOL    HW2 3891   4.979   5.331   4.335  0.1103  1.6901  1.7234
  973SOL     MW 3892   5.063   5.315   4.316 -0.4682  0.2449  0.1718
  974SOL     OW 3893   0.812   4.905   1.494  0.0809 -0.2833 -0.4288
  974SOL    HW1 3894   0.853   4.883   1.411 -0.5290  0.0174 -0.8183
  974SOL    HW2 3895   0.881   4.950   1.543 -0.0701  1.1885 -1.4903
  974SOL     MW 3896   0.826   4.908   1.490 -0.0165 -0.0564 -0.6145
  975SOL     OW 3897   3.562   3.431   0.317 -0.3555  0.0326  0.2322
  975SOL    HW1 3898   3.575   3.526   0.319 -1.5353  0.1960  1.8641
  975SOL    HW2 3899   3.615   3.398   0.390 -0.0207 -0.5650 -0.2732
  975SOL     MW 3900   3.571   3.439   0.327 -0.4636 -0.0230  0.3764
  976SOL     OW 3901   1.419   2.897   3.981  0.2877 -0.0699 -0.4040
  976SOL    HW1 3902   1.420   2.807   3.950 -0.3895 -0.4867  0.7241
  976SOL    HW2 3903   1.499   2.935   3.946 -0.2716 -0.5756 -2.3713
  976SOL     MW 3904   1.429   2.891   3.972  0.1294 -0.1880 -0.5115
  977SOL     OW 3905   1.595   2.210   0.006 -0.5676 -0.1032 -0.0022
  977SOL    HW1 3906   1.657   2.137   0.006 -1.0095 -0.4786 -0.2182
  977SOL    HW2 3907   1.650   2.288   0.016  0.0073 -0.3773 -0.9461
  977SOL     MW 3908   1.610   2.211   0.008 -0.5506 -0.1863 -0.1507
  978SOL     OW 3909   3.798   1.198   3.907  0.6012  0.6678  0.4330
  978SOL    HW1 3910   3.711   1.227   3.934  0.8110  0.6971  1.1096
  978SOL    HW2 3911   3.797   1.103   3.918  0.5994  0.6517  0.2891
  978SOL     MW 3912   3.787   1.189   3.912  0.6278  0.6695  0.5012
  979SOL     OW 3913   3.282   1.378   1.658  0.8482 -0.0470 -0.2926
  979SOL    HW1 3914   3.271   1.438   1.584  0.3172  1.0872  0.6731
  979SOL    HW2 3915   3.208   1.317   1.650  0.5467  0.3349 -0.4592
  979SOL     MW 3916   3.271   1.378   1.648  0.7416  0.1470 -0.1903
  980SOL     OW 3917   0.320   2.569   5.130 -0.1670  0.0815 -0.5103
  980SOL    HW1 3918   0.397   2.563   5.075 -0.0264 -3.6999 -0.1529
  980SOL    HW2 3919   0.246   2.565   5.069 -0.0452  0.1001 -0.6586
  980SOL     MW 3920   0.320   2.568   5.115 -0.1334 -0.4001 -0.4835
  981SOL     OW 3921   1.693   1.233   3.274  0.2696 -0.1434  0.5688
  981SOL    HW1 3922   1.702   1.244   3.179 -0.7837  2.4166  0.6916
  981SOL    HW2 3923   1.752   1.298   3.312  0.2659 -0.7517  1.6555
  981SOL     MW 3924   1.701   1.243   3.267  0.1343  0.1065  0.7236
  982SOL     OW 3925   1.058   1.142   4.104 -0.1100  0.3854  0.4068
  982SOL    HW1 3926   1.018   1.227   4.085 -1.7031 -0.7607 -1.8230
  982SOL    HW2 3927   1.135   1.163   4.156 -1.6591  3.0050  1.8702
  982SOL     MW 3928   1.063   1.155   4.108 -0.5122  0.5740  0.3087
  983SOL     OW 3929   0.596   0.671   3.938  0.1745 -0.1291  0.1993
  983SOL    HW1 3930   0.516   0.721   3.923  1.6102  1.8360 -1.5507
  983SOL    HW2 3931   0.584   0.592   3.886 -1.1956 -0.5651  1.1318
  983SOL     MW 3932   0.584   0.667   3.929  0.1829  0.0666  0.0946
  984SOL     OW 3933   0.891   5.077   0.712  0.3282 -0.5215  0.3033
  984SOL    HW1 3934   0.949   5.031   0.773 -0.2069  1.0804  2.1179
  984SOL    HW2 3935   0.916   5.043   0.625  3.1531 -0.7499  1.0965
  984SOL     MW 3936   0.902   5.067   0.708  0.6213 -0.3457  0.6372
  985SOL     OW 3937   3.329   3.163   2.458 -0.5156  0.2355 -0.1050
  985SOL    HW1 3938   3.266   3.232   2.479  0.1825  1.4915 -1.9230
  985SOL    HW2 3939   3.402   3.178   2.518 -0.1791  1.3855 -0.7704
  985SOL     MW 3940   3.330   3.174   2.468 -0.3832  0.5435 -0.4229
  986SOL     OW 3941   1.142   4.303   0.020  0.4842 -0.2126  0.2924
  986SOL    HW1 3942   1.061   4.256   0.039  0.3955 -0.3878 -0.4919
  986SOL    HW2 3943   1.124   4.393   0.045  0.3812 -0.4331  1.0377
  986SOL     MW 3944   1.129   4.308   0.026  0.4597 -0.2633  0.2874
  987SOL     OW 3945   2.769   1.687   2.469  0.5740 -0.5387 -0.3805
  987SOL    HW1 3946   2.706   1.630   2.424  0.2617 -0.2540 -0.3007
  987SOL    HW2 3947   2.787   1.756   2.406 -1.5943  1.1471  0.7213
  987SOL     MW 3948   2.763   1.688   2.455  0.2565 -0.2864 -0.2292
  988SOL     OW 3949   2.625   2.637   4.477  0.4600  0.1610 -0.4739
  988SOL    HW1 3950   2.641   2.552   4.518 -0.5717 -0.4708 -1.3332
  988SOL    HW2 3951   2.591   2.616   4.390  1.0068  1.4645 -1.0267
  988SOL     MW 3952   2.623   2.623   4.471  0.3980  0.2470 -0.6547
  989SOL     OW 3953   4.316   2.121   2.548  0.0215 -0.2417  0.0536
  989SOL    HW1 3954   4.256   2.140   2.620  0.3618 -0.1198  0.3034
  989SOL    HW2 3955   4.258   2.094   2.476 -0.3149 -0.3802  0.3725
  989SOL     MW 3956   4.301   2.120   2.548  0.0220 -0.2439  0.1264
  990SOL     OW 3957   4.804   0.868   0.889 -0.2858 -0.1549 -0.1350
  990SOL    HW1 3958   4.746   0.794   0.906 -0.2276 -0.1736 -0.0194
  990SOL    HW2 3959   4.808   0.874   0.793 -1.1134  0.3478 -0.1474
  990SOL     MW 3960   4.797   0.859   0.879 -0.3843 -0.0929 -0.1218
  991SOL     OW 3961   4.403   0.958   4.768  0.3515  0.0075 -0.2933
  991SOL    HW1 3962   4.450   0.877   4.747  0.4059  0.4080 -1.8307
  991SOL    HW2 3963   4.382   0.996   4.683  0.1351  1.5057  0.4054
  991SOL     MW 3964   4.407   0.952   4.755  0.3308  0.2506 -0.4007
  992SOL     OW 3965   2.834   4.997   4.191 -0.9403 -0.1484 -0.3888
  992SOL    HW1 3966   2.889   5.073   4.210 -0.4544 -0.4009 -0.7603
  992SOL    HW2 3967   2.886   4.945   4.130 -0.3914 -1.8051  1.4238
  992SOL     MW 3968   2.848   5.000   4.186 -0.8078 -0.3928 -0.2043
  993SOL     OW 3969   3.001   2.319   1.111  0.0805  0.1936  0.2545
  993SOL    HW1 3970   3.019   2.354   1.024 -2.2089 -0.6242 -0.6112
  993SOL    HW2 3971   2.923   2.367   1.140 -0.9063 -1.5399  0.6004
  993SOL     MW 3972   2.993   2.330   1.104 -0.3389 -0.1330  0.1879
  994SOL     OW 3973   5.466   1.056   3.657  0.3371 -0.7735  0.1880
  994SOL    HW1 3974   5.447   1.011   3.575 -0.3216 -0.9914  0.4492
  994SOL    HW2 3975   5.494   1.143   3.631 -0.9253 -0.4736 -0.2488
  994SOL     MW 3976   5.467   1.061   3.643  0.0912 -0.7630  0.1655
  995SOL     OW 3977   2.408   0.218   2.345 -0.1115 -0.1490  0.4782
  995SOL    HW1 3978   2.416   0.307   2.379 -1.2763  1.7334 -3.4889
  995SOL    HW2 3979   2.315   0.198   2.351  0.1261 -1.1017  1.2348
  995SOL     MW 3980   2.397   0.227   2.350 -0.2302 -0.0300  0.0672
  996SOL     OW 3981   1.220   0.289   3.800  0.4816 -0.1265  0.3595
  996SOL    HW1 3982   1.164   0.360   3.770  0.6797 -0.9132 -2.1077
  996SOL    HW2 3983   1.228   0.302   3.895 -1.8253  1.4200  0.4015
  996SOL     MW 3984   1.214   0.299   3.808  0.2116 -0.0293  0.0491
  997SOL     OW 3985   4.760   1.117   4.465 -0.0199 -0.4700 -0.3471
  997SOL    HW1 3986   4.839   1.104   4.412  0.4143 -1.5044  0.5265
  997SOL    HW2 3987   4.734   1.029   4.492  1.3811  0.0838  3.4470
  997SOL     MW 3988   4.767   1.104   4.462  0.2151 -0.5315  0.2504
  998SOL     OW 3989   0.828   4.823   1.900 -0.0353 -0.0773  0.1436
  998SOL    HW1 3990   0.851   4.761   1.831  1.2577  0.0067  0.4671
  998SOL    HW2 3991   0.751   4.868   1.867  0.1523 -0.5178 -0.9394
  998SOL     MW 3992   0.821   4.821   1.887  0.1543 -0.1229  0.0464
  999SOL     OW 3993   2.221   5.438   0.656  0.0386  0.7361 -0.0247
  999SOL    HW1 3994   2.254   5.374   0.719 -2.1669  0.6352  1.1409
  999SOL    HW2 3995   2.256   5.522   0.685  2.4141  0.2436 -1.1808
  999SOL     MW 3996   2.230   5.441   0.668  0.0604  0.6601 -0.0235
 1000SOL     OW 3997   4.372   0.877   3.481 -0.2416 -0.4226  0.0015
 1000SOL    HW1 3998   4.328   0.843   3.559 -0.5559  0.4200  0.2034
 1000SOL    HW2 3999   4.301   0.908   3.425 -0.0783 -1.7348 -0.9941
 1000SOL     MW 4000   4.357   0.876   3.484 -0.2609 -0.4827 -0.1001
 1001SOL     OW 4001  -0.013   1.790   0.726 -0.4979 -0.0848 -0.7557
 1001SOL    HW1 4002   0.041   1.750   0.794  1.7533  2.6918 -0.7237
 1001SOL    HW2 4003   0.031   1.769   0.644 -1.1578 -0.4010 -1.0369
 1001SOL     MW 4004  -0.000   1.782   0.725 -0.2942  0.2302 -0.7876
 1002SOL     OW 4005   3.890   4.226   4.549 -0.4974 -0.3227  0.4871
 1002SOL    HW1 4006   3.980   4.257   4.560  0.1705 -0.8813 -2.5640
 1002SOL    HW2 4007   3.844   4.257   4.627  1.8511  1.6869  1.1845
 1002SOL     MW 4008   3.896   4.234   4.560 -0.1113 -0.1370  0.1858
 1003SOL     OW 4009   4.933   1.428   2.749  0.1282 -0.5947 -0.3654
 1003SOL    HW1 4010   4.999   1.494   2.771  0.5544 -0.4112 -2.0359
 1003SOL    HW2 4011   4.953   1.354   2.808  0.4329  0.2740  0.6530
 1003SOL     MW 4012   4.944   1.427   2.760  0.2218 -0.4600 -0.4489
 1004SOL     OW 4013   3.928   3.561   0.002  0.2269  0.4596  0.0215
 1004SOL    HW1 4014   3.857   3.624  -0.001 -0.0258  0.3149  1.9405
 1004SOL    HW2 4015   3.910   3.507   0.079  2.5781  0.6330  0.7844
 1004SOL     MW 4016   3.917   3.562   0.012  0.4956  0.4633  0.3648
 1005SOL     OW 4017   2.018   3.936   4.151  0.1547 -0.7761  0.1806
 1005SOL    HW1 4018   2.083   4.006   4.147 -0.4309 -0.1377  1.3708
 1005SOL    HW2 4019   2.062   3.860   4.113  0.6776  0.3074 -1.5295
 1005SOL     MW 4020   2.032   3.935   4.145  0.1467 -0.5557  0.1140
 1006SOL     OW 4021   4.468   3.337   0.589  0.6192  0.0847  0.2170
 1006SOL    HW1 4022   4.520   3.316   0.511  1.8324 -0.2531  1.0882
 1006SOL    HW2 4023   4.404   3.266   0.595 -1.0898  1.3121 -1.7611
 1006SOL     MW 4024   4.466   3.325   0.580  0.5557  0.1986  0.0753
 1007SOL     OW 4025   3.738   0.452   1.883 -0.0775 -0.1495  0.9350
 1007SOL    HW1 4026   3.742   0.359   1.861  1.0137  0.4144 -1.5393
 1007SOL    HW2 4027   3.822   0.488   1.856 -0.3825  1.5369  2.0435
 1007SOL     MW 4028   3.749   0.445   1.877  0.0231  0.1386  0.7601
 1008SOL     OW 4029   5.242   3.575   1.010 -0.0085 -0.1120 -0.4135
 1008SOL    HW1 4030   5.212   3.488   0.983  0.7307 -0.2705 -0.7341
 1008SOL    HW2 4031   5.261   3.565   1.103  1.2846 -0.6404 -0.7179
 1008SOL     MW 4032   5.240   3.562   1.018  0.2517 -0.2000 -0.4935
 1009SOL     OW 4033   2.112   2.030   5.218 -0.1161 -0.1347  0.1965
 1009SOL    HW1 4034   2.048   1.972   5.259  0.1218  0.3577  1.2966
 1009SOL    HW2 4035   2.112   2.109   5.272  0.1389  0.5851 -0.8245
 1009SOL     MW 4036   2.104   2.033   5.231 -0.0530  0.0205  0.2067
 1010SOL     OW 4037   4.774   4.069   4.667  0.6073 -0.5141  0.6639
 1010SOL    HW1 4038   4.835   4.007   4.627 -1.1651 -2.2541  0.5388
 1010SOL    HW2 4039   4.799   4.154   4.630  1.6516 -1.4701 -0.9354
 1010SOL     MW 4040   4.785   4.072   4.657  0.5141 -0.8593  0.4432
 1011SOL     OW 4041   1.140   1.329   0.889 -0.2667 -0.3972  0.5074
 1011SOL    HW1 4042   1.148   1.333   0.984  0.3900 -0.7253  0.4740
 1011SOL    HW2 4043   1.081   1.254   0.873 -1.5404  0.5397  0.6883
 1011SOL     MW 4044   1.133   1.320   0.899 -0.3457 -0.3193  0.5263
 1012SOL     OW 4045   2.095   4.914   5.442 -0.1737  0.4533 -0.6250
 1012SOL    HW1 4046   2.087   4.858   5.364 -0.6261 -1.9487  1.0103
 1012SOL    HW2 4047   2.183   4.896   5.475 -0.6831 -0.0901  0.4712
 1012SOL     MW 4048   2.105   4.904   5.436 -0.2968  0.0763 -0.2753
 1013SOL     OW 4049   1.260   0.860   4.256  0.6334 -0.0274 -0.0279
 1013SOL    HW1 4050   1.267   0.894   4.346 -0.9533  0.8952 -0.2087
 1013SOL    HW2 4051   1.307   0.924   4.203  2.3012 -1.0134  0.2024
 1013SOL     MW 4052   1.267   0.873   4.261  0.6438 -0.0355 -0.0216
 1014SOL     OW 4053   3.913   4.734   1.277 -0.2270 -0.1671  0.1437
 1014SOL    HW1 4054   3.867   4.809   1.315  1.3098  0.8555  0.1173
 1014SOL    HW2 4055   3.922   4.756   1.185 -0.8654 -0.9903 -0.1191
 1014SOL     MW 4056   3.909   4.747   1.270 -0.1120 -0.1416  0.1067
 1015SOL     OW 4057   2.150   3.764   1.216 -0.2041  0.0015  0.4832
 1015SOL    HW1 4058   2.144   3.760   1.121 -1.3285 -1.1637  0.5813
 1015SOL    HW2 4059   2.222   3.705   1.238  0.1522  0.3834  0.3574
 1015SOL     MW 4060   2.159   3.756   1.207 -0.3024 -0.0988  0.4797
 1016SOL     OW 4061   1.589   2.976   5.243 -0.0966 -0.3409  0.1360
 1016SOL    HW1 4062   1.582   3.057   5.192 -0.1488  0.0226  0.7082
 1016SOL    HW2 4063   1.555   3.000   5.330 -0.1166 -0.9785  0.3064
 1016SOL     MW 4064   1.583   2.990   5.248 -0.1058 -0.3760  0.2311
 1017SOL     OW 4065   3.299   4.625   3.920 -0.2352  0.4405 -0.1418
 1017SOL    HW1 4066   3.392   4.609   3.935 -0.4059  0.1159  0.6712
 1017SOL    HW2 4067   3.255   4.551   3.962 -0.7932 -0.5987 -2.4545
 1017SOL     MW 4068   3.305   4.614   3.927 -0.3285  0.2659 -0.3338
 1018SOL     OW 4069   3.867   2.014   5.110 -0.1342  0.2848 -0.6061
 1018SOL    HW1 4070   3.950   2.007   5.063  1.3362 -0.6444  1.9536
 1018SOL    HW2 4071   3.843   1.924   5.131 -0.2732  0.6809  1.1072
 1018SOL     MW 4072   3.875   2.002   5.106  0.0362  0.2166 -0.0591
 1019SOL     OW 4073   4.519   1.330   4.986  0.2402  0.0200  0.4518
 1019SOL    HW1 4074   4.462   1.401   4.956 -2.6502 -2.9918 -2.0207
 1019SOL    HW2 4075   4.540   1.280   4.907  1.5568 -2.2359  2.0916
 1019SOL     MW 4076   4.514   1.333   4.972  0.0388 -0.6543  0.3452
 1020SOL     OW 4077   1.166   5.025   4.768 -0.2245 -0.4936  0.4899
 1020SOL    HW1 4078   1.228   4.959   4.797  2.0313  1.5492  0.6125
 1020SOL    HW2 4079   1.215   5.080   4.707 -1.3993  2.1248  1.7311
 1020SOL     MW 4080   1.180   5.024   4.764 -0.0861  0.1031  0.6645
 1021SOL     OW 4081   3.010   0.192   2.620 -0.0425 -0.3328 -0.0559
 1021SOL    HW1 4082   2.943   0.124   2.612 -0.3945 -0.1369  1.0536
 1021SOL    HW2 4083   3.073   0.155   2.683  1.9743 -1.3487 -2.4897
 1021SOL     MW 4084   3.010   0.178   2.627  0.1706 -0.4377 -0.2254
 1022SOL     OW 4085   1.403   0.878   0.395  0.4592  0.3461  0.3039
 1022SOL    HW1 4086   1.321   0.907   0.434  0.4284  1.4131 -0.5288
 1022SOL    HW2 4087   1.446   0.827   0.464 -0.8564 -0.1708  0.7680
 1022SOL     MW 4088   1.398   0.875   0.409  0.2869  0.4165  0.2567
 1023SOL     OW 4089   2.757   3.562   5.051  0.4847  0.1585  0.2211
 1023SOL    HW1 4090   2.716   3.645   5.026  0.1319 -0.3546 -0.9999
 1023SOL    HW2 4091   2.802   3.581   5.134 -0.2462  1.3514  0.3710
 1023SOL     MW 4092   2.758   3.575   5.058  0.3460  0.2455  0.0840
 1024SOL     OW 4093   5.482   1.164   5.232  0.3460 -0.1503  0.0564
 1024SOL    HW1 4094   5.484   1.164   5.328 -1.5661 -2.5182  0.2010
 1024SOL    HW2 4095   5.430   1.087   5.209  0.3290  0.6109 -2.8997
 1024SOL     MW 4096   5.475   1.154   5.241  0.0990 -0.3560 -0.3035
 1025SOL     OW 4097   0.752   1.403   3.169  0.8410 -0.3194 -0.4906
 1025SOL    HW1 4098   0.742   1.482   3.115 -0.5697  2.5689  3.4879
 1025SOL    HW2 4099   0.843   1.407   3.200  1.6143 -1.9078 -2.3511
 1025SOL     MW 4100   0.762   1.414   3.166  0.7594 -0.1530 -0.2194
 1026SOL     OW 4101   1.649   2.842   0.926 -0.2963  0.0673  0.1206
 1026SOL    HW1 4102   1.596   2.885   0.994  0.0682  1.1142 -0.2388
 1026SOL    HW2 4103   1.597   2.851   0.846 -2.0323 -3.5191  0.6069
 1026SOL     MW 4104   1.635   2.849   0.924 -0.4719 -0.2578  0.1369
 1027SOL     OW 4105   0.155   2.954   3.067  0.1630 -0.3555 -0.3445
 1027SOL    HW1 4106   0.143   2.980   2.976  1.3885 -0.5649 -0.5926
 1027SOL    HW2 4107   0.098   2.877   3.078 -0.8564  0.3549 -0.5891
 1027SOL     MW 4108   0.146   2.947   3.056  0.1894 -0.2914 -0.4076
 1028SOL     OW 4109   3.177   2.520   1.646  0.1570  0.1769 -0.9777
 1028SOL    HW1 4110   3.149   2.484   1.561 -1.9442 -1.4728  0.3119
 1028SOL    HW2 4111   3.212   2.444   1.693 -0.6729  0.5933  0.3629
 1028SOL     MW 4112   3.178   2.505   1.641 -0.2182  0.0190 -0.6410
 1029SOL     OW 4113   1.913   5.191   4.085 -0.1833 -0.2659  0.1693
 1029SOL    HW1 4114   1.982   5.217   4.147  0.1594  0.5188 -0.5236
 1029SOL    HW2 4115   1.844   5.154   4.141  0.4954 -0.4033  0.9387
 1029SOL     MW 4116   1.913   5.190   4.100 -0.0526 -0.1830  0.1791
 1030SOL     OW 4117   4.903   2.909   3.119  0.4708  0.0151  0.3895
 1030SOL    HW1 4118   4.907   2.842   3.188 -0.4014 -0.3724  0.0839
 1030SOL    HW2 4119   4.822   2.889   3.072 -0.9270  2.5471  1.5508
 1030SOL     MW 4120   4.893   2.898   3.122  0.1802  0.2897  0.4991
 1031SOL     OW 4121   2.414   2.770   4.152  0.2826 -0.4185 -1.0470
 1031SOL    HW1 4122   2.487   2.714   4.177  2.0179  1.9977 -0.3585
 1031SOL    HW2 4123   2.392   2.818   4.233  0.1151  1.2163 -2.0239
 1031SOL     MW 4124   2.421   2.769   4.166  0.4833  0.1001 -1.0839
 1032SOL     OW 4125   3.650   3.374   5.417  0.1833  0.4685 -1.0256
 1032SOL    HW1 4126   3.687   3.388   5.504 -4.5896  1.7711  1.1199
 1032SOL    HW2 4127   3.656   3.280   5.403 -0.7512 -0.1185  1.8169
 1032SOL     MW 4128   3.655   3.364   5.426 -0.5473  0.5601 -0.3871
 1033SOL     OW 4129   5.289   4.246   1.255 -0.4661 -0.1158 -0.0852
 1033SOL    HW1 4130   5.234   4.268   1.330 -2.3772  1.6758 -1.8786
 1033SOL    HW2 4131   5.371   4.291   1.271 -1.6097  2.0866 -0.0056
 1033SOL     MW 4132   5.292   4.254   1.267 -0.8572  0.3954 -0.3046
 1034SOL     OW 4133   4.293   0.862   3.074  0.3372  0.5037 -0.6443
 1034SOL    HW1 4134   4.242   0.923   3.020  0.2970  0.1006 -1.0601
 1034SOL    HW2 4135   4.281   0.777   3.033 -0.2204  0.0675  0.3686
 1034SOL     MW 4136   4.285   0.859   3.062  0.2607  0.3963 -0.5679
 1035SOL     OW 4137   0.650   4.170   2.468  0.6559 -0.1398  0.0567
 1035SOL    HW1 4138   0.589   4.155   2.541  0.2036 -0.3719 -0.3682
 1035SOL    HW2 4139   0.628   4.258   2.437 -0.9649 -1.0387 -1.4991
 1035SOL     MW 4140   0.639   4.180   2.474  0.3905 -0.2846 -0.1969
 1036SOL     OW 4141   0.495   5.182   1.714  0.3320 -0.9284  0.7193
 1036SOL    HW1 4142   0.486   5.098   1.669 -1.7319 -0.2108 -0.3304
 1036SOL    HW2 4143   0.408   5.200   1.749  0.2823  1.4586 -0.4277
 1036SOL     MW 4144   0.483   5.173   1.713  0.0614 -0.5310  0.4381
 1037SOL     OW 4145   3.523   3.664   2.441  0.3163  0.0396 -0.6568
 1037SOL    HW1 4146   3.534   3.570   2.434 -1.6573 -0.1862 -1.1932
 1037SOL    HW2 4147   3.432   3.676   2.469  1.0162  1.7359  1.1357
 1037SOL     MW 4148   3.513   3.654   2.444  0.1533  0.2278 -0.4960
 1038SOL     OW 4149   3.075   4.337   2.809  0.2367  0.4785  0.2569
 1038SOL    HW1 4150   3.095   4.336   2.715 -1.8396 -0.6607 -0.2518
 1038SOL    HW2 4151   3.015   4.411   2.820 -1.9601 -1.1406  0.0059
 1038SOL     MW 4152   3.070   4.346   2.798 -0.3103  0.1254  0.1597
 1039SOL     OW 4153   1.959   0.413   0.389  0.0086 -0.2698 -0.0134
 1039SOL    HW1 4154   1.905   0.354   0.337 -2.1533  1.6714 -0.1019
 1039SOL    HW2 4155   1.990   0.479   0.327 -2.4195  1.9504  0.9736
 1039SOL     MW 4156   1.956   0.414   0.375 -0.5790  0.2629  0.1016
 1040SOL     OW 4157   3.160   0.939   2.110 -0.2207  0.1348  0.3085
 1040SOL    HW1 4158   3.152   0.984   2.026  0.9736  1.8757  1.0672
 1040SOL    HW2 4159   3.204   0.856   2.090  0.3789  0.6943 -0.7269
 1040SOL     MW 4160   3.165   0.934   2.097  0.0090  0.4292  0.2731
 1041SOL     OW 4161   3.847   2.257   1.026 -0.1511 -0.2796 -0.2856
 1041SOL    HW1 4162   3.830   2.349   1.006  0.5420 -0.1175 -0.1563
 1041SOL    HW2 4163   3.853   2.254   1.121 -1.2307 -0.6521 -0.2265
 1041SOL     MW 4164   3.846   2.268   1.035 -0.2006 -0.3065 -0.2615
 1042SOL     OW 4165   0.971   1.408   0.588  0.4880  0.1581 -0.3032
 1042SOL    HW1 4166   0.937   1.486   0.545 -1.0514 -2.1132 -3.6031
 1042SOL    HW2 4167   0.949   1.420   0.681 -0.3659  3.2260 -0.8027
 1042SOL     MW 4168   0.964   1.419   0.595  0.1816  0.2601 -0.7896
 1043SOL     OW 4169   4.133   3.105   1.424 -0.4245  0.7246 -0.1917
 1043SOL    HW1 4170   4.187   3.173   1.383  0.0346  0.4868  0.0040
 1043SOL    HW2 4171   4.157   3.025   1.378 -0.2602  0.5373  0.2192
 1043SOL     MW 4172   4.143   3.104   1.413 -0.3447  0.6702 -0.1140
 1044SOL     OW 4173   1.369   5.407   1.043  0.0467  0.6700  0.7552
 1044SOL    HW1 4174   1.440   5.402   1.107  0.4270 -0.3872  0.2746
 1044SOL    HW2 4175   1.358   5.500   1.027 -0.8580  1.0830  3.2305
 1044SOL     MW 4176   1.376   5.418   1.049 -0.0204  0.5875  1.0105
 1045SOL     OW 4177   3.809   5.111   2.013 -0.1563 -0.3745  0.2084
 1045SOL    HW1 4178   3.807   5.170   1.938 -0.3732 -1.9464 -1.0827
 1045SOL    HW2 4179   3.735   5.138   2.066 -0.1707  0.5919 -0.2783
 1045SOL     MW 4180   3.799   5.122   2.010 -0.1859 -0.4520 -0.0192
 1046SOL     OW 4181   0.796   2.774   3.345  0.3401 -0.4947  0.3422
 1046SOL    HW1 4182   0.866   2.829   3.310  0.6624  0.8482  2.8888
 1046SOL    HW2 4183   0.735   2.835   3.386 -1.0558 -1.8196  0.3322
 1046SOL     MW 4184   0.797   2.788   3.346  0.2027 -0.4924  0.6669
 1047SOL     OW 4185   4.652   0.686   4.068 -0.4241 -0.4818 -0.2747
 1047SOL    HW1 4186   4.722   0.655   4.011  0.4112  1.0154 -0.1097
 1047SOL    HW2 4187   4.692   0.756   4.120 -1.3048 -1.4344  1.7950
 1047SOL     MW 4188   4.666   0.691   4.068 -0.4299 -0.4121  0.0114
 1048SOL     OW 4189   3.153   4.758   4.323  0.2779 -0.4018  0.5894
 1048SOL    HW1 4190   3.210   4.815   4.270  0.7668 -1.0619  0.3861
 1048SOL    HW2 4191   3.090   4.817   4.363  0.2782  0.1915 -0.2546
 1048SOL     MW 4192   3.153   4.773   4.321  0.3405 -0.4104  0.4553
 1049SOL     OW 4193   0.922   3.248   2.222 -0.3095  0.0096  0.2628
 1049SOL    HW1 4194   0.916   3.247   2.317 -0.5181  0.6263  0.2563
 1049SOL    HW2 4195   1.015   3.242   2.204  0.0050  2.8742  0.5670
 1049SOL     MW 4196   0.933   3.247   2.232 -0.2959  0.4552  0.3009
 1050SOL     OW 4197   2.068   3.766   4.894 -0.2971  0.3441  0.2613
 1050SOL    HW1 4198   2.057   3.825   4.969 -0.3483  1.6829 -0.7535
 1050SOL    HW2 4199   1.986   3.716   4.891 -0.6592  0.9001  0.5757
 1050SOL     MW 4200   2.056   3.767   4.903 -0.3500  0.5867  0.1717
 1051SOL     OW 4201   0.856   4.566   2.883  0.5495  0.2999  0.2386
 1051SOL    HW1 4202   0.885   4.483   2.922 -0.8073 -0.4753 -0.3373
 1051SOL    HW2 4203   0.801   4.605   2.951 -0.8516 -0.4892 -0.4076
 1051SOL     MW 4204   0.853   4.560   2.897  0.1964  0.0997  0.0822
 1052SOL     OW 4205   4.140   2.173   4.470  0.1227 -0.8193  0.7507
 1052SOL    HW1 4206   4.104   2.259   4.493  1.2171  0.3621 -1.6685
 1052SOL    HW2 4207   4.071   2.130   4.420  1.3160  0.8948 -2.6796
 1052SOL     MW 4208   4.127   2.179   4.467  0.4155 -0.4486  0.0019
 1053SOL     OW 4209   0.642   5.105   1.383 -0.7358 -0.6132  0.5013
 1053SOL    HW1 4210   0.709   5.042   1.411 -0.8116 -0.4364  1.0931
 1053SOL    HW2 4211   0.667   5.187   1.426 -1.1839 -0.4833  0.5154
 1053SOL     MW 4212   0.654   5.107   1.392 -0.8029 -0.5739  0.5789
 1054SOL     OW 4213   1.801   5.467   2.371 -0.0182  0.1616 -0.0642
 1054SOL    HW1 4214   1.829   5.558   2.371  0.3455  0.0583 -0.6317
 1054SOL    HW2 4215   1.881   5.417   2.390  0.4884 -0.1996 -2.7000
 1054SOL     MW 4216   1.815   5.472   2.374  0.0932  0.1021 -0.4743
 1055SOL     OW 4217   1.081   0.538   3.794 -0.0397  0.2000  0.3338
 1055SOL    HW1 4218   1.083   0.586   3.877  0.9003  0.1709  0.3378
 1055SOL    HW2 4219   1.154   0.574   3.743 -0.9285  0.5969 -0.7069
 1055SOL     MW 4220   1.091   0.549   3.798 -0.0331  0.2471  0.2011
 1056SOL     OW 4221   1.406   4.274   2.918  0.5280 -0.3551  0.0467
 1056SOL    HW1 4222   1.467   4.346   2.899 -0.4991  0.5225  0.0215
 1056SOL    HW2 4223   1.420   4.213   2.846  2.0572 -0.6332  0.5387
 1056SOL     MW 4224   1.416   4.276   2.906  0.5923 -0.2783  0.1065
 1057SOL     OW 4225   5.051   0.582   0.745  0.1812  0.1870  0.5807
 1057SOL    HW1 4226   5.103   0.504   0.725  0.0731  0.2166  0.1812
 1057SOL    HW2 4227   4.962   0.549   0.757 -0.0479  0.3532 -0.5130
 1057SOL     MW 4228   5.046   0.568   0.744  0.1380  0.2121  0.3896
 1058SOL     OW 4229   3.096   3.151   0.510 -0.3391  0.5023  0.2901
 1058SOL    HW1 4230   3.164   3.109   0.458  0.3252  0.4855  1.1587
 1058SOL    HW2 4231   3.143   3.211   0.568 -1.0349  0.3023  1.0828
 1058SOL     MW 4232   3.110   3.153   0.510 -0.3432  0.4746  0.5028
 1059SOL     OW 4233   4.205   0.143   4.307  0.3344 -0.2538 -0.5864
 1059SOL    HW1 4234   4.289   0.173   4.340  0.5568 -1.5935  0.1175
 1059SOL    HW2 4235   4.162   0.103   4.382 -0.0187 -1.5106 -1.4257
 1059SOL     MW 4236   4.210   0.142   4.321  0.3177 -0.5862 -0.6038
 1060SOL     OW 4237   0.331   1.885   2.424 -0.2940  0.0008 -0.1257
 1060SOL    HW1 4238   0.295   1.803   2.457 -1.0387  0.1525 -0.5170
 1060SOL    HW2 4239   0.426   1.875   2.430 -0.3741 -0.9778 -0.3898
 1060SOL     MW 4240   0.338   1.873   2.429 -0.3996 -0.1051 -0.2096
 1061SOL     OW 4241   1.145   2.026   3.501  0.3908  0.2042  0.4533
 1061SOL    HW1 4242   1.124   2.062   3.415 -2.2212 -0.4591  0.7141
 1061SOL    HW2 4243   1.199   1.950   3.482  0.9163  0.8011 -0.5083
 1061SOL     MW 4244   1.149   2.021   3.487  0.1237  0.1957  0.3636
 1062SOL     OW 4245   1.863   4.225   0.712 -0.1018 -0.1657  0.2172
 1062SOL    HW1 4246   1.790   4.264   0.664 -0.1126 -0.7031 -0.2115
 1062SOL    HW2 4247   1.848   4.251   0.803 -1.0139 -0.5430  0.1926
 1062SOL     MW 4248   1.852   4.233   0.718 -0.2199 -0.2828  0.1592
 1063SOL     OW 4249   5.295   3.009   2.484  0.3710  0.4596 -0.7163
 1063SOL    HW1 4250   5.280   2.958   2.405  0.1478  0.7833 -0.8838
 1063SOL    HW2 4251   5.207   3.025   2.519  0.4731  0.1872 -0.3163
 1063SOL     MW 4252   5.282   3.004   2.478  0.3555  0.4661 -0.6866
 1064SOL     OW 4253   3.944   3.990   4.447  0.3300 -0.5097 -0.4511
 1064SOL    HW1 4254   3.999   3.958   4.519  0.6356 -0.3929 -0.6316
 1064SOL    HW2 4255   3.898   4.065   4.484  2.6789  1.4269 -1.1911
 1064SOL     MW 4256   3.945   3.995   4.461  0.6698 -0.2468 -0.5689
 1065SOL     OW 4257   2.894   3.215   2.299 -0.7417 -0.6289 -0.4800
 1065SOL    HW1 4258   2.801   3.195   2.293 -1.0488  0.8164 -0.8506
 1065SOL    HW2 4259   2.919   3.185   2.387 -1.1167 -2.6372 -1.0170
 1065SOL     MW 4260   2.885   3.209   2.310 -0.8290 -0.7009 -0.5962
 1066SOL     OW 4261   2.071   0.208   2.012 -0.2315  0.5000 -0.2550
 1066SOL    HW1 4262   2.082   0.210   1.917  0.9462 -0.2803 -0.1603
 1066SOL    HW2 4263   2.159   0.193   2.046 -0.7285  0.1330  0.9340
 1066SOL     MW 4264   2.083   0.206   2.004 -0.1444  0.3531 -0.0907
 1067SOL     OW 4265   2.534   2.889  -0.023  0.3014  0.1892  0.7296
 1067SOL    HW1 4266   2.627   2.908  -0.020  0.0370  2.0185 -0.7801
 1067SOL    HW2 4267   2.507   2.885   0.069  1.8724 -0.6274  1.1871
 1067SOL     MW 4268   2.542   2.891  -0.011  0.4687  0.3189  0.5949
 1068SOL     OW 4269   3.696   3.317   1.237 -0.2198  0.5599 -0.1171
 1068SOL    HW1 4270   3.742   3.256   1.295  0.6225  0.7691 -0.5542
 1068SOL    HW2 4271   3.604   3.292   1.245  0.0649 -0.4882  0.0473
 1068SOL     MW 4272   3.690   3.306   1.246 -0.0755  0.4525 -0.1520
 1069SOL     OW 4273   3.138   0.659   0.656 -0.7251 -0.1839 -0.0151
 1069SOL    HW1 4274   3.144   0.709   0.738 -0.9456  1.9640 -1.2523
 1069SOL    HW2 4275   3.050   0.621   0.658 -0.6714 -0.2984  0.8017
 1069SOL     MW 4276   3.128   0.661   0.667 -0.7465  0.0764 -0.0689
 1070SOL     OW 4277   2.365   1.611   4.028  0.0062  0.0426  0.1184
 1070SOL    HW1 4278   2.314   1.668   3.971  0.4592  1.3377  0.9526
 1070SOL    HW2 4279   2.456   1.625   4.000  0.1159 -0.2999  0.3042
 1070SOL     MW 4280   2.370   1.620   4.017  0.0782  0.1646  0.2490
 1071SOL     OW 4281   3.775   4.849   1.521 -0.1318 -0.3853  0.3729
 1071SOL    HW1 4282   3.796   4.771   1.574 -0.8199  0.3529  1.7929
 1071SOL    HW2 4283   3.681   4.862   1.536  0.0210  0.8331  0.3117
 1071SOL     MW 4284   3.766   4.840   1.530 -0.2003 -0.1348  0.5469
 1072SOL     OW 4285   5.359   4.190   3.338 -0.3812  0.0004 -0.4128
 1072SOL    HW1 4286   5.385   4.135   3.412  0.3720 -1.1992 -1.5291
 1072SOL    HW2 4287   5.279   4.149   3.305 -0.7645  0.5846 -0.2337
 1072SOL     MW 4288   5.352   4.178   3.343 -0.3339 -0.0784 -0.5328
 1073SOL     OW 4289   2.274   2.588   5.127  0.2433 -0.0184 -0.7911
 1073SOL    HW1 4290   2.189   2.545   5.121  0.3132 -0.1767 -0.6171
 1073SOL    HW2 4291   2.256   2.678   5.100 -0.4092  0.5236  1.2540
 1073SOL     MW 4292   2.261   2.594   5.123  0.1687  0.0307 -0.5071
 1074SOL     OW 4293   1.766   0.503   0.614 -0.1124 -0.0934  0.1056
 1074SOL    HW1 4294   1.754   0.432   0.677  1.7986 -0.1684  0.4406
 1074SOL    HW2 4295   1.822   0.466   0.546  1.4772  1.2674  0.6277
 1074SOL     MW 4296   1.771   0.489   0.613  0.3357  0.0712  0.2154
 1075SOL     OW 4297   3.575   5.125   2.632 -0.0706 -0.0634 -0.2987
 1075SOL    HW1 4298   3.500   5.174   2.600  0.2099 -0.5940 -1.8058
 1075SOL    HW2 4299   3.563   5.036   2.600  1.1173 -0.1989 -0.4350
 1075SOL     MW 4300   3.564   5.120   2.624  0.1173 -0.1486 -0.5091
 1076SOL     OW 4301   1.575   1.791   2.128  0.3404 -0.0169 -0.2348
 1076SOL    HW1 4302   1.636   1.825   2.194  0.2402  0.3763 -0.3413
 1076SOL    HW2 4303   1.595   1.842   2.049  0.8131 -0.8425 -0.6595
 1076SOL     MW 4304   1.586   1.802   2.127  0.3881 -0.0723 -0.3028
 1077SOL     OW 4305   2.916   5.057   0.085  0.3538  0.1267  0.4407
 1077SOL    HW1 4306   2.867   5.134   0.055 -0.7841 -0.3431  0.9991
 1077SOL    HW2 4307   2.895   4.990   0.020 -1.4036 -0.6391  1.7168
 1077SOL     MW 4308   2.907   5.059   0.073 -0.0169 -0.0315  0.6755
 1078SOL     OW 4309   4.420   0.878   4.372  0.1252 -0.0423 -0.0209
 1078SOL    HW1 4310   4.355   0.812   4.348 -0.6543  0.7571 -0.1793
 1078SOL    HW2 4311   4.444   0.919   4.289  0.0144  0.3884  0.1545
 1078SOL     MW 4312   4.414   0.875   4.359  0.0113  0.1152 -0.0187
 1079SOL     OW 4313   1.504   4.141   2.683  0.2475 -0.2465 -0.2643
 1079SOL    HW1 4314   1.479   4.210   2.621  0.2046  0.9210  1.0002
 1079SOL    HW2 4315   1.599   4.152   2.693  0.3590 -0.8569 -0.6072
 1079SOL     MW 4316   1.513   4.151   2.677  0.2563 -0.1751 -0.1463
 1080SOL     OW 4317   1.012   0.870   0.972  0.3825 -0.4222  0.5696
 1080SOL    HW1 4318   0.961   0.850   1.051 -0.8292  0.6185  0.0882
 1080SOL    HW2 4319   1.044   0.785   0.943 -1.5576 -1.2386  0.6143
 1080SOL     MW 4320   1.009   0.856   0.978 -0.0210 -0.3935  0.5137
 1081SOL     OW 4321   4.354   0.795   5.086  0.3156  0.6812 -0.7199
 1081SOL    HW1 4322   4.322   0.791   5.177  1.2149  0.2038 -0.4164
 1081SOL    HW2 4323   4.332   0.884   5.057 -1.3220  0.3727 -0.5523
 1081SOL     MW 4324   4.347   0.806   5.094  0.2211  0.5806 -0.6596
 1082SOL     OW 4325   0.350   4.269   3.908  0.3143 -0.0252  0.1929
 1082SOL    HW1 4326   0.363   4.364   3.902  2.1341 -0.2407  0.0421
 1082SOL    HW2 4327   0.396   4.244   3.988  0.2405 -0.8445 -0.0160
 1082SOL     MW 4328   0.358   4.278   3.917  0.5378 -0.1576  0.1469
 1083SOL     OW 4329   1.353   4.194   3.327 -0.1087  0.1432  0.1081
 1083SOL    HW1 4330   1.383   4.182   3.417 -1.4702  1.6750  0.8225
 1083SOL    HW2 4331   1.294   4.120   3.311  0.3323 -0.2731  0.3656
 1083SOL     MW 4332   1.349   4.183   3.337 -0.2266  0.2860  0.2325
 1084SOL     OW 4333   0.301   5.444   4.123  0.1534 -0.4589  0.3647
 1084SOL    HW1 4334   0.211   5.448   4.155 -0.7139 -2.7128 -1.5133
 1084SOL    HW2 4335   0.343   5.523   4.158 -3.3614  2.3616 -1.1709
 1084SOL     MW 4336   0.295   5.455   4.131 -0.4076 -0.3864 -0.0723
 1085SOL     OW 4337   0.333   0.690   3.860 -0.2004 -0.0188 -0.3763
 1085SOL    HW1 4338   0.304   0.714   3.948 -1.0091  0.0641 -0.6543
 1085SOL    HW2 4339   0.301   0.762   3.805  0.2151 -0.1206 -0.7521
 1085SOL     MW 4340   0.325   0.702   3.864 -0.2507 -0.0212 -0.4600
 1086SOL     OW 4341   4.426   4.738   2.559  0.0318  0.3826 -0.0247
 1086SOL    HW1 4342   4.450   4.676   2.490  1.6217  0.1380  0.7037
 1086SOL    HW2 4343   4.450   4.823   2.524 -0.3975  0.3951 -0.2901
 1086SOL     MW 4344   4.432   4.741   2.546  0.1804  0.3529  0.0345
 1087SOL     OW 4345   2.480   3.655   4.254 -0.2671  0.2634 -0.5091
 1087SOL    HW1 4346   2.411   3.675   4.317  0.0812  0.4757 -0.1941
 1087SOL    HW2 4347   2.515   3.740   4.228  0.6570  0.1204  0.2119
 1087SOL     MW 4348   2.476   3.668   4.259 -0.1042  0.2722 -0.3765
 1088SOL     OW 4349   4.865   4.762   0.940  0.1182 -0.1054 -0.3064
 1088SOL    HW1 4350   4.904   4.850   0.937  0.7925 -0.2785  1.5322
 1088SOL    HW2 4351   4.864   4.740   1.034 -1.2847 -1.5254 -0.6092
 1088SOL     MW 4352   4.870   4.770   0.952  0.0249 -0.3093 -0.1098
 1089SOL     OW 4353   3.419   3.254   1.274 -0.0577  0.0860 -0.7674
 1089SOL    HW1 4354   3.375   3.198   1.210  2.0655  0.7222 -2.9636
 1089SOL    HW2 4355   3.369   3.335   1.273 -0.1760  0.0147 -1.4915
 1089SOL     MW 4356   3.407   3.257   1.266  0.1989  0.1583 -1.1412
 1090SOL     OW 4357   4.158   1.152   1.873 -0.5689 -0.3765  0.2756
 1090SOL    HW1 4358   4.082   1.148   1.931 -0.5685  2.1772  0.5888
 1090SOL    HW2 4359   4.218   1.212   1.917  1.1224 -1.3992 -0.5575
 1090SOL     MW 4360   4.156   1.160   1.886 -0.3523 -0.1805  0.2090
 1091SOL     OW 4361   3.836   1.734   1.160  0.6037  0.3688  0.3924
 1091SOL    HW1 4362   3.855   1.655   1.209  1.2421  0.5699  0.4831
 1091SOL    HW2 4363   3.819   1.704   1.071 -1.4499 -0.0856  0.8880
 1091SOL     MW 4364   3.836   1.720   1.155  0.4225  0.3364  0.4674
 1092SOL     OW 4365   2.372   0.174   0.749  0.0124 -0.2706  0.6530
 1092SOL    HW1 4366   2.458   0.214   0.736 -0.1263 -0.4767 -1.0270
 1092SOL    HW2 4367   2.326   0.236   0.805  0.8380  0.4395  0.5752
 1092SOL     MW 4368   2.377   0.187   0.755  0.1003 -0.2061  0.4280
 1093SOL     OW 4369   3.446   2.113   0.909  0.1119 -0.0570  0.5150
 1093SOL    HW1 4370   3.538   2.093   0.893  0.2215  1.1230 -0.5384
 1093SOL    HW2 4371   3.415   2.043   0.966  1.2875 -1.2615 -0.2631
 1093SOL     MW 4372   3.454   2.102   0.914  0.2764 -0.0602  0.2805
 1094SOL     OW 4373   0.113   1.362   4.572 -0.2400 -0.5517 -0.5679
 1094SOL    HW1 4374   0.053   1.378   4.645 -0.4703 -1.7628 -0.4726
 1094SOL    HW2 4375   0.063   1.385   4.494 -0.8926 -1.6457 -0.4963
 1094SOL     MW 4376   0.099   1.367   4.571 -0.3530 -0.8468 -0.5466
 1095SOL     OW 4377   2.326   5.394   2.067 -0.3587  0.2463 -0.1883
 1095SOL    HW1 4378   2.316   5.482   2.031  0.1419  1.1205  1.7005
 1095SOL    HW2 4379   2.401   5.399   2.126 -0.1892 -1.5070 -0.1780
 1095SOL     MW 4380   2.334   5.406   2.070 -0.2729  0.1337  0.0548
 1096SOL     OW 4381   1.048   2.744   4.570  0.1617 -0.5789  0.4145
 1096SOL    HW1 4382   1.004   2.723   4.652 -1.2928 -1.1779 -0.4817
 1096SOL    HW2 4383   1.102   2.667   4.551  0.5803 -0.3953  0.8567
 1096SOL     MW 4384   1.049   2.731   4.578  0.0291 -0.6320  0.3563
 1097SOL     OW 4385   0.267   3.011   1.257  0.7962  0.5347  0.0848
 1097SOL    HW1 4386   0.345   2.960   1.278  0.5980  0.1588 -0.0904
 1097SOL    HW2 4387   0.197   2.946   1.247  0.5221  0.8459 -0.0479
 1097SOL     MW 4388   0.268   2.996   1.259  0.7357  0.5264  0.0454
 1098SOL     OW 4389   4.302   3.586   4.543 -0.5767 -0.2940  0.0037
 1098SOL    HW1 4390   4.311   3.517   4.608 -0.9939 -0.9136 -0.5879
 1098SOL    HW2 4391   4.210   3.611   4.547 -0.6434 -0.4510 -0.4592
 1098SOL     MW 4392   4.291   3.580   4.552 -0.6386 -0.3934 -0.1313
 1099SOL     OW 4393   2.430   3.401   3.816  0.1180  0.1054 -0.4256
 1099SOL    HW1 4394   2.439   3.314   3.857 -0.1313  0.2591 -0.0364
 1099SOL    HW2 4395   2.440   3.384   3.723 -1.0436 -0.5253 -0.4673
 1099SOL     MW 4396   2.432   3.387   3.810 -0.0626  0.0443 -0.3811
 1100SOL     OW 4397   2.057   1.353   1.434 -0.2590  0.1726 -0.2159
 1100SOL    HW1 4398   1.962   1.353   1.431 -0.2303 -0.0080 -2.0030
 1100SOL    HW2 4399   2.084   1.416   1.367  0.8839 -0.0794 -0.0252
 1100SOL     MW 4400   2.049   1.361   1.425 -0.1090  0.1173 -0.4203
 1101SOL     OW 4401   2.526   4.726   5.290 -0.1109 -0.1123 -0.2469
 1101SOL    HW1 4402   2.569   4.740   5.374  0.8810 -0.3753 -0.6929
 1101SOL    HW2 4403   2.461   4.658   5.307 -0.2891  0.2203  0.4196
 1101SOL     MW 4404   2.523   4.719   5.303 -0.0068 -0.1034 -0.2187
 1102SOL     OW 4405   3.427   3.816   0.919 -0.2699 -0.2563  0.4111
 1102SOL    HW1 4406   3.337   3.813   0.950 -0.7136 -0.1229 -0.8366
 1102SOL    HW2 4407   3.478   3.774   0.989 -1.4073 -1.1963  0.7015
 1102SOL     MW 4408   3.422   3.810   0.932 -0.4723 -0.3596  0.2885
 1103SOL     OW 4409   3.506   3.760   3.153 -0.0620 -0.1684 -0.2255
 1103SOL    HW1 4410   3.585   3.716   3.185  0.7852 -0.0717 -2.0514
 1103SOL    HW2 4411   3.533   3.800   3.071 -2.0729 -0.2587 -0.9838
 1103SOL     MW 4412   3.520   3.760   3.147 -0.2109 -0.1676 -0.5563
 1104SOL     OW 4413   0.950   5.137   4.284 -1.1860 -0.4616  0.2258
 1104SOL    HW1 4414   0.914   5.062   4.332 -1.4704  0.7645  2.0343
 1104SOL    HW2 4415   0.875   5.173   4.237 -1.4054 -0.3751  0.6366
 1104SOL     MW 4416   0.936   5.132   4.285 -1.2505 -0.2936  0.5099
 1105SOL     OW 4417   0.025   2.203   2.237  0.4409  0.1985 -0.1433
 1105SOL    HW1 4418  -0.029   2.277   2.264  3.0975  1.8150  1.1383
 1105SOL    HW2 4419   0.031   2.148   2.316 -1.8192 -1.7239 -1.1815
 1105SOL     MW 4420   0.019   2.205   2.251  0.4917  0.1594 -0.1122
 1106SOL     OW 4421   0.214   1.309   2.637  0.0810  0.5196  0.5719
 1106SOL    HW1 4422   0.280   1.241   2.651 -0.3658 -0.1080 -0.2693
 1106SOL    HW2 4423   0.239   1.380   2.697  0.1791 -0.6399  1.9443
 1106SOL     MW 4424   0.226   1.310   2.647  0.0364  0.2908  0.6399
 1107SOL     OW 4425   1.650   5.302   2.940 -0.4725  0.1733 -0.2304
 1107SOL    HW1 4426   1.731   5.313   2.890 -0.5538 -0.0322 -0.4083
 1107SOL    HW2 4427   1.605   5.386   2.932 -0.7193 -0.0202 -0.9236
 1107SOL     MW 4428   1.655   5.314   2.932 -0.5145  0.1222 -0.3419
 1108SOL     OW 4429   0.612   2.003   2.423 -0.1427 -0.6666 -0.1021
 1108SOL    HW1 4430   0.611   2.088   2.380 -1.2702 -1.4287 -1.6696
 1108SOL    HW2 4431   0.596   2.022   2.515  1.2536  0.9233 -0.1535
 1108SOL     MW 4432   0.610   2.016   2.429 -0.1083 -0.5606 -0.3094
 1109SOL     OW 4433   3.732   2.329   3.513  0.0699 -0.4964  0.2950
 1109SOL    HW1 4434   3.680   2.252   3.488  0.1830 -0.1220 -1.1713
 1109SOL    HW2 4435   3.773   2.304   3.597 -0.9533 -1.5093  0.5153
 1109SOL     MW 4436   3.731   2.316   3.521 -0.0466 -0.5781  0.1355
 1110SOL     OW 4437   2.429   0.193   5.048  0.7092  0.4836  0.6594
 1110SOL    HW1 4438   2.417   0.105   5.085  1.6875  0.8786  1.9967
 1110SOL    HW2 4439   2.361   0.200   4.981 -0.2777 -0.7813  1.4738
 1110SOL     MW 4440   2.419   0.182   5.044  0.7081  0.3723  0.9349
 1111SOL     OW 4441   3.963   1.304   4.446 -0.1855 -0.7056  0.0147
 1111SOL    HW1 4442   3.953   1.305   4.541 -3.0420 -0.1569 -0.1953
 1111SOL    HW2 4443   4.005   1.388   4.425 -0.8544 -0.1835  0.7135
 1111SOL     MW 4444   3.967   1.315   4.455 -0.6368 -0.5685  0.0772
 1112SOL     OW 4445   2.649   2.866   2.939 -0.0864 -0.0839  0.0966
 1112SOL    HW1 4446   2.694   2.792   2.898 -0.5360 -1.1017  1.3692
 1112SOL    HW2 4447   2.557   2.839   2.940 -0.2782  0.5794  0.3859
 1112SOL     MW 4448   2.643   2.853   2.934 -0.1685 -0.1293  0.2965
 1113SOL     OW 4449   5.239   3.242   1.536 -0.2960 -0.1955 -0.3662
 1113SOL    HW1 4450   5.183   3.311   1.572  2.4323  1.8434  0.2789
 1113SOL    HW2 4451   5.230   3.169   1.597 -0.6397  0.8767  0.8926
 1113SOL     MW 4452   5.231   3.242   1.548  0.0093  0.2027 -0.1225
 1114SOL     OW 4453   1.679   3.100   2.558  0.2881  0.0711 -0.3267
 1114SOL    HW1 4454   1.594   3.124   2.595  0.8982  1.5115  0.2121
 1114SOL    HW2 4455   1.737   3.092   2.634  0.2609 -2.8158 -0.4982
 1114SOL     MW 4456   1.676   3.102   2.572  0.3627 -0.1141 -0.2797
 1115SOL     OW 4457   3.359   2.243   1.462  0.1752  0.3325  0.7435
 1115SOL    HW1 4458   3.293   2.174   1.474 -0.4089  0.3945 -1.6335
 1115SOL    HW2 4459   3.428   2.202   1.411  0.8475  0.9463  1.1378
 1115SOL     MW 4460   3.359   2.229   1.457  0.1865  0.4190  0.4897
 1116SOL     OW 4461   0.684   2.679   0.846 -0.2937 -0.1352  0.0214
 1116SOL    HW1 4462   0.691   2.735   0.769  1.8797  0.7632  0.7844
 1116SOL    HW2 4463   0.590   2.663   0.856 -0.6827  0.3848 -2.3107
 1116SOL     MW 4464   0.673   2.684   0.838 -0.0653  0.0464 -0.1795
 1117SOL     OW 4465   3.127   1.581   1.223  0.6932  0.1160 -0.1425
 1117SOL    HW1 4466   3.051   1.526   1.236  1.2721 -0.4190  1.0966
 1117SOL    HW2 4467   3.092   1.670   1.217 -0.3265 -0.3768 -2.9516
 1117SOL     MW 4468   3.113   1.585   1.224  0.6368 -0.0155 -0.3435
 1118SOL     OW 4469   4.420   4.377   1.638 -0.0066  0.3867 -0.0034
 1118SOL    HW1 4470   4.506   4.334   1.639 -1.3448 -2.5130  0.0321
 1118SOL    HW2 4471   4.412   4.412   1.549  1.1723  0.6538 -0.0226
 1118SOL     MW 4472   4.430   4.376   1.627 -0.0270  0.0497 -0.0013
 1119SOL     OW 4473   0.562   1.424   4.843  0.6812  0.8781  0.0093
 1119SOL    HW1 4474   0.525   1.349   4.889 -1.3420  2.3967  1.0263
 1119SOL    HW2 4475   0.513   1.430   4.762 -1.4243  2.8220  1.3024
 1119SOL     MW 4476   0.551   1.415   4.839  0.1527  1.3213  0.3050
 1120SOL     OW 4477   3.396   0.106   3.916  0.3572  0.2405 -0.1160
 1120SOL    HW1 4478   3.432   0.020   3.936  1.7086  0.6290 -0.8095
 1120SOL    HW2 4479   3.343   0.093   3.838 -1.8173 -0.5041  1.3794
 1120SOL     MW 4480   3.394   0.094   3.909  0.2518  0.1949 -0.0134
 1121SOL     OW 4481   2.613   1.506   2.361  0.0002  0.1592  0.4103
 1121SOL    HW1 4482   2.539   1.453   2.332  0.3951  0.7472 -1.9156
 1121SOL    HW2 4483   2.687   1.472   2.310  0.9164  0.8911  1.2144
 1121SOL     MW 4484   2.613   1.495   2.351  0.1680  0.3282  0.2155
 1122SOL     OW 4485   3.180   1.794   2.519  0.0711 -0.3234 -0.2430
 1122SOL    HW1 4486   3.267   1.756   2.531  0.3534  0.0240 -1.1012
 1122SOL    HW2 4487   3.196   1.887   2.506 -0.4702 -0.1910  0.0035
 1122SOL     MW 4488   3.193   1.801   2.519  0.0380 -0.2620 -0.3213
 1123SOL     OW 4489   0.175   5.106   1.463  0.2171  0.7308 -0.1851
 1123SOL    HW1 4490   0.117   5.104   1.387  0.5723 -0.8519 -0.4555
 1123SOL    HW2 4491   0.263   5.117   1.426  0.3398  0.4499  0.0104
 1123SOL     MW 4492   0.179   5.107   1.449  0.2783  0.4923 -0.1947
 1124SOL     OW 4493   4.708   4.291   3.373 -0.2568 -0.3867 -0.1117
 1124SOL    HW1 4494   4.622   4.315   3.407 -0.1182 -0.6306  0.4259
 1124SOL    HW2 4495   4.745   4.373   3.340 -0.5506 -0.2151 -0.0138
 1124SOL     MW 4496   4.702   4.305   3.373 -0.2767 -0.3959 -0.0304
 1125SOL     OW 4497   2.911   0.966   3.346  0.4173  0.6390  0.4581
 1125SOL    HW1 4498   2.959   1.040   3.310  0.8574  0.5753  0.9090
 1125SOL    HW2 4499   2.880   0.996   3.432  0.5726  0.3175  0.6313
 1125SOL     MW 4500   2.913   0.979   3.353  0.4935  0.5897  0.5380
 1126SOL     OW 4501   1.281   3.272   2.980 -0.5894 -0.3905  0.3845
 1126SOL    HW1 4502   1.219   3.291   3.051 -1.1393 -0.2387 -0.1264
 1126SOL    HW2 4503   1.291   3.355   2.933  0.2193 -0.3447  0.6201
 1126SOL     MW 4504   1.274   3.285   2.983 -0.5562 -0.3652  0.3492
 1127SOL     OW 4505   2.586   3.999   5.027  0.6629  0.4607  0.3456
 1127SOL    HW1 4506   2.515   3.997   5.091 -0.7987  2.2796 -1.1005
 1127SOL    HW2 4507   2.598   3.908   5.000 -1.1285  0.1175  0.6380
 1127SOL     MW 4508   2.579   3.987   5.032  0.2465  0.6496  0.1979
 1128SOL     OW 4509   0.582   3.422   5.381 -0.8274  0.0217  0.6499
 1128SOL    HW1 4510   0.516   3.456   5.442 -0.5882  0.1021  0.8703
 1128SOL    HW2 4511   0.601   3.334   5.413 -0.5464  0.1424  0.8237
 1128SOL     MW 4512   0.576   3.415   5.393 -0.7608  0.0474  0.7003
 1129SOL     OW 4513   1.295   3.538   0.602  0.1224 -0.7083 -0.3270
 1129SOL    HW1 4514   1.313   3.457   0.649 -0.8014 -2.7047 -3.1496
 1129SOL    HW2 4515   1.206   3.527   0.568 -0.4258  1.9662  0.0410
 1129SOL     MW 4516   1.286   3.526   0.603 -0.0660 -0.6215 -0.6412
 1130SOL     OW 4517   3.945   5.344   3.503 -0.3333 -0.3102  0.0316
 1130SOL    HW1 4518   3.937   5.289   3.426 -0.9302  1.3987 -1.1941
 1130SOL    HW2 4519   3.916   5.431   3.474  1.2034  0.8343  1.6709
 1130SOL     MW 4520   3.940   5.348   3.490 -0.2130  0.0551  0.0846
 1131SOL     OW 4521   4.673   4.295   0.497  0.0285 -0.6226  0.2117
 1131SOL    HW1 4522   4.588   4.271   0.534  0.6235 -1.1756  1.2688
 1131SOL    HW2 4523   4.723   4.214   0.495 -0.4462 -1.0182 -3.3326
 1131SOL     MW 4524   4.669   4.282   0.501  0.0439 -0.7440 -0.1067
 1132SOL     OW 4525   4.751   3.565   1.689 -1.1872 -0.3631 -0.8287
 1132SOL    HW1 4526   4.696   3.488   1.676 -0.2566 -1.1914 -0.0499
 1132SOL    HW2 4527   4.793   3.550   1.774 -2.3623  1.8662  0.2144
 1132SOL     MW 4528   4.750   3.553   1.698 -1.2185 -0.1838 -0.5955
 1133SOL     OW 4529   4.529   1.487   3.439 -0.3717  0.0336  0.4311
 1133SOL    HW1 4530   4.574   1.403   3.429  0.6180  0.6760 -0.6163
 1133SOL    HW2 4531   4.562   1.541   3.368 -0.9126  1.3643  1.1613
 1133SOL     MW 4532   4.539   1.483   3.429 -0.3143  0.2862  0.3905
 1134SOL     OW 4533   3.061   3.440   1.399 -0.1962  0.1595 -0.9494
 1134SOL    HW1 4534   3.071   3.346   1.385 -1.9120 -0.1465 -0.3395
 1134SOL    HW2 4535   3.074   3.479   1.312 -0.9221 -0.7887 -1.5082
 1134SOL     MW 4536   3.064   3.433   1.386 -0.5088 -0.0011 -0.9429
 1135SOL     OW 4537   4.211   4.748   2.389 -0.4270 -0.1273  0.7034
 1135SOL    HW1 4538   4.144   4.723   2.452  0.5120 -0.7282  1.4832
 1135SOL    HW2 4539   4.287   4.772   2.442  0.3354 -0.5247 -0.1816
 1135SOL     MW 4540   4.212   4.748   2.404 -0.2092 -0.2551  0.6899
 1136SOL     OW 4541   3.272   2.504   4.786  0.2660 -0.0533 -0.6518
 1136SOL    HW1 4542   3.269   2.588   4.832 -0.5355 -0.3473 -0.1462
 1136SOL    HW2 4543   3.349   2.460   4.822 -0.5533 -0.4250  0.6835
 1136SOL     MW 4544   3.282   2.509   4.796  0.0585 -0.1385 -0.4161
 1137SOL     OW 4545   5.039   5.181   2.197 -0.4995  0.0669  0.3154
 1137SOL    HW1 4546   5.012   5.162   2.107 -2.1913 -1.8474  1.1418
 1137SOL    HW2 4547   5.009   5.270   2.213 -0.6113  0.2575 -0.8510
 1137SOL     MW 4548   5.031   5.190   2.187 -0.7304 -0.1537  0.2719
 1138SOL     OW 4549   4.615   2.101   2.772 -0.8499  0.2201  0.3707
 1138SOL    HW1 4550   4.631   2.013   2.739 -2.2919  0.3694 -0.8168
 1138SOL    HW2 4551   4.672   2.157   2.720 -1.4641  0.2040 -0.3294
 1138SOL     MW 4552   4.624   2.097   2.761 -1.1131  0.2372  0.1291
 1139SOL     OW 4553   0.192   2.278   1.295  0.1262  0.3992 -0.0130
 1139SOL    HW1 4554   0.147   2.204   1.336 -0.5953 -0.1048 -1.6193
 1139SOL    HW2 4555   0.182   2.263   1.201  3.1835  0.5796 -0.4778
 1139SOL     MW 4556   0.185   2.266   1.288  0.4252  0.3578 -0.2781
 1140SOL     OW 4557   2.928   1.845   3.353  0.4694 -0.3740  0.7939
 1140SOL    HW1 4558   2.982   1.905   3.302 -0.1095 -1.0672 -0.6942
 1140SOL    HW2 4559   2.989   1.778   3.383  0.6835 -0.3831  0.3476
 1140SOL     MW 4560   2.943   1.844   3.350  0.4227 -0.4639  0.5463
 1141SOL     OW 4561   0.073   3.376   1.036 -0.0588  0.0279  0.4553
 1141SOL    HW1 4562   0.063   3.301   0.977  1.6231 -0.9221  1.3249
 1141SOL    HW2 4563   0.078   3.452   0.977 -0.6276 -0.6475 -0.4987
 1141SOL     MW 4564   0.072   3.377   1.021  0.0837 -0.1802  0.4445
 1142SOL     OW 4565   4.394   1.016   0.909 -0.1515  0.5298 -0.6176
 1142SOL    HW1 4566   4.343   1.054   0.981  0.7613  1.0633 -0.2308
 1142SOL    HW2 4567   4.382   0.921   0.919 -2.3489  0.6558 -1.5166
 1142SOL     MW 4568   4.386   1.008   0.920 -0.3160  0.6143 -0.6832
 1143SOL     OW 4569   1.108   5.121   2.283 -0.6555 -0.5309 -0.2163
 1143SOL    HW1 4570   1.184   5.109   2.226 -0.0437  0.9003  0.2507
 1143SOL    HW2 4571   1.036   5.081   2.236 -0.0985  0.2996 -1.8510
 1143SOL     MW 4572   1.109   5.115   2.270 -0.5059 -0.2414 -0.3658
 1144SOL     OW 4573   0.083   1.424   1.122  0.2278  0.0392 -0.1268
 1144SOL    HW1 4574   0.064   1.427   1.216  0.2227 -0.9044 -0.0927
 1144SOL    HW2 4575   0.175   1.401   1.116  0.7782  2.0747 -0.3444
 1144SOL     MW 4576   0.092   1.421   1.133  0.2976  0.1790 -0.1503
 1145SOL     OW 4577   4.747   3.208   5.304 -1.4423 -0.1295  0.5384
 1145SOL    HW1 4578   4.789   3.141   5.358 -1.5653 -1.2261 -0.6692
 1145SOL    HW2 4579   4.806   3.283   5.309 -1.2843 -0.3101  1.8996
 1145SOL     MW 4580   4.760   3.209   5.312 -1.4378 -0.2930  0.5581
 1146SOL     OW 4581   2.354   4.016   5.266  0.3197  0.3377  0.0841
 1146SOL    HW1 4582   2.346   3.937   5.319 -0.4337 -0.1315 -0.6942
 1146SOL    HW2 4583   2.360   4.087   5.329  2.0138 -0.3981  0.8196
 1146SOL     MW 4584   2.354   4.015   5.281  0.4401  0.1835  0.0786
 1147SOL     OW 4585   1.565   4.116   1.385 -0.7196  0.0066 -0.9328
 1147SOL    HW1 4586   1.661   4.114   1.381 -0.7300  0.1140 -1.3196
 1147SOL    HW2 4587   1.541   4.030   1.417 -0.4612  0.2597 -0.0419
 1147SOL     MW 4588   1.574   4.105   1.388 -0.6879  0.0528 -0.8683
 1148SOL     OW 4589   2.863   4.558   0.191  0.7937  0.2744  0.5623
 1148SOL    HW1 4590   2.894   4.545   0.102  1.5755 -0.6755  0.9630
 1148SOL    HW2 4591   2.787   4.500   0.199  0.6839  0.4085  0.4980
 1148SOL     MW 4592   2.857   4.549   0.181  0.8797  0.1700  0.6054
 1149SOL     OW 4593   1.770   2.365   3.479  0.5082  0.1844 -0.0044
 1149SOL    HW1 4594   1.706   2.296   3.492  1.0198 -0.0567  1.4268
 1149SOL    HW2 4595   1.737   2.438   3.532  2.5014 -0.7101  2.7027
 1149SOL     MW 4596   1.758   2.366   3.488  0.8288  0.0390  0.5254
 1150SOL     OW 4597   0.176   1.698   0.564 -0.0731  0.4265  0.8849
 1150SOL    HW1 4598   0.208   1.788   0.555  1.4060 -0.1972 -0.3981
 1150SOL    HW2 4599   0.238   1.657   0.624  1.8011 -0.8312 -1.7238
 1150SOL     MW 4600   0.188   1.704   0.571  0.3561  0.1857  0.3867
 1151SOL     OW 4601   2.125   3.884   3.803  0.1684 -0.2619  0.2502
 1151SOL    HW1 4602   2.124   3.840   3.718 -2.1266  0.9478 -0.4459
 1151SOL    HW2 4603   2.036   3.873   3.836  0.5552  0.7480  1.7189
 1151SOL     MW 4604   2.113   3.877   3.796 -0.0759  0.0222  0.3491
 1152SOL     OW 4605   4.860   2.564   1.572 -0.7944 -0.2720  0.0231
 1152SOL    HW1 4606   4.798   2.518   1.515  0.4240 -2.2339  0.1839
 1152SOL    HW2 4607   4.883   2.643   1.524 -2.4660 -0.1027 -0.5827
 1152SOL     MW 4608   4.855   2.568   1.559 -0.8524 -0.5015 -0.0339
 1153SOL     OW 4609   1.425   1.667   3.880 -0.1424  0.4281  0.8628
 1153SOL    HW1 4610   1.339   1.625   3.882  0.4661 -0.9405 -0.1930
 1153SOL    HW2 4611   1.423   1.723   3.803 -0.1327  0.5447  0.9457
 1153SOL     MW 4612   1.414   1.669   3.871 -0.0633  0.2678  0.7383
 1154SOL     OW 4613   0.576   1.368   1.072  0.1033 -0.4590  0.3612
 1154SOL    HW1 4614   0.598   1.443   1.016 -0.6505  0.4974  1.3040
 1154SOL    HW2 4615   0.648   1.363   1.134  0.0935 -0.4503  0.3731
 1154SOL     MW 4616   0.588   1.377   1.073  0.0055 -0.3355  0.4834
 1155SOL     OW 4617   2.861   0.412   0.336  0.0904 -0.6648 -0.2102
 1155SOL    HW1 4618   2.926   0.481   0.321  0.2846 -0.7124  0.4102
 1155SOL    HW2 4619   2.864   0.396   0.430 -1.8212  0.2971  0.0545
 1155SOL     MW 4620   2.870   0.419   0.346 -0.1295 -0.5478 -0.0969
 1156SOL     OW 4621   2.495   2.367   5.133 -0.0894  1.0126 -0.0147
 1156SOL    HW1 4622   2.406   2.403   5.137 -0.8157 -0.7602  1.9807
 1156SOL    HW2 4623   2.492   2.304   5.061  0.3475  2.6918 -1.5892
 1156SOL     MW 4624   2.483   2.364   5.124 -0.1264  1.0006  0.0392
 1157SOL     OW 4625   1.173   4.459   3.241  0.0940  0.7485 -0.5573
 1157SOL    HW1 4626   1.084   4.429   3.259  0.1486  0.8014 -0.1917
 1157SOL    HW2 4627   1.229   4.393   3.283  0.2188  2.2908  1.8958
 1157SOL     MW 4628   1.169   4.446   3.249  0.1170  0.9527 -0.1965
 1158SOL     OW 4629   1.694   0.154   0.700  0.0253 -0.5232 -0.3091
 1158SOL    HW1 4630   1.618   0.180   0.752  1.0880  0.9884  0.5888
 1158SOL    HW2 4631   1.740   0.090   0.753 -0.1740 -0.7994 -0.4705
 1158SOL     MW 4632   1.690   0.149   0.713  0.1358 -0.3651 -0.2148
 1159SOL     OW 4633   2.604   1.880   4.341 -0.1197 -0.8993 -0.5907
 1159SOL    HW1 4634   2.691   1.910   4.367 -0.2444 -1.3032  0.3280
 1159SOL    HW2 4635   2.616   1.788   4.317 -0.3986 -1.1365  0.1503
 1159SOL     MW 4636   2.616   1.872   4.341 -0.1714 -0.9814 -0.3782
 1160SOL     OW 4637   1.336   0.249   4.511  0.2898  0.1027 -0.1732
 1160SOL    HW1 4638   1.429   0.257   4.490  0.1428  0.4314 -0.7444
 1160SOL    HW2 4639   1.333   0.205   4.596  0.9920  0.7490  0.1955
 1160SOL     MW 4640   1.347   0.245   4.519  0.3609  0.2275 -0.1991
 1161SOL     OW 4641   1.368   0.172   0.370 -0.4943  0.1378 -0.1278
 1161SOL    HW1 4642   1.412   0.088   0.360 -0.4110  0.3268 -1.5301
 1161SOL    HW2 4643   1.303   0.174   0.299 -2.0306  0.3204  1.2404
 1161SOL     MW 4644   1.365   0.161   0.359 -0.6803  0.1854 -0.1322
 1162SOL     OW 4645   5.449   3.481   3.838  0.9518  0.7003 -0.2657
 1162SOL    HW1 4646   5.445   3.496   3.932  3.0239 -1.6606  0.3160
 1162SOL    HW2 4647   5.358   3.477   3.810  0.2997  1.4793  1.6011
 1162SOL     MW 4648   5.437   3.482   3.847  1.1336  0.4978  0.0477
 1163SOL     OW 4649   3.280   1.358   0.082 -0.0219 -0.3051 -0.0618
 1163SOL    HW1 4650   3.280   1.267   0.052 -1.4024  0.4045 -2.4695
 1163SOL    HW2 4651   3.366   1.392   0.057  1.1193 -1.3043  2.2718
 1163SOL     MW 4652   3.291   1.351   0.075 -0.0526 -0.3422 -0.0713
 1164SOL     OW 4653   1.315   2.045   1.358  0.5950 -0.1066 -0.0543
 1164SOL    HW1 4654   1.239   2.000   1.321  0.2225 -0.4664  1.1040
 1164SOL    HW2 4655   1.386   1.981   1.353  0.5917 -0.0930 -0.2919
 1164SOL     MW 4656   1.314   2.031   1.353  0.5469 -0.1509  0.0636
 1165SOL     OW 4657   4.656   2.306   3.628 -0.1300  0.4757 -0.6098
 1165SOL    HW1 4658   4.596   2.378   3.647  1.7420  1.7776  0.8567
 1165SOL    HW2 4659   4.631   2.237   3.689 -2.0360 -0.2335 -2.1220
 1165SOL     MW 4660   4.645   2.307   3.639 -0.1343  0.5516 -0.6156
 1166SOL     OW 4661   3.682   4.388   5.362  0.6513  0.4856 -0.2239
 1166SOL    HW1 4662   3.690   4.379   5.457 -0.7466  1.6265  0.0358
 1166SOL    HW2 4663   3.691   4.299   5.328  1.0405  0.0531  0.9890
 1166SOL     MW 4664   3.684   4.375   5.369  0.5222  0.5762 -0.0354
 1167SOL     OW 4665   3.381   2.396   2.623  0.2946 -0.2966  0.6725
 1167SOL    HW1 4666   3.348   2.360   2.704 -0.5187  0.3452  0.6438
 1167SOL    HW2 4667   3.465   2.353   2.609 -0.2412 -1.4928  1.0804
 1167SOL     MW 4668   3.387   2.386   2.631  0.1219 -0.3676  0.7210
 1168SOL     OW 4669   3.641   3.574   1.750 -0.1281 -0.3099  0.4914
 1168SOL    HW1 4670   3.731   3.606   1.739 -0.0391 -0.2404  1.3250
 1168SOL    HW2 4671   3.611   3.555   1.661  0.7916 -0.5505  0.2153
 1168SOL     MW 4672   3.649   3.575   1.737  0.0010 -0.3318  0.5628
 1169SOL     OW 4673   3.312   3.615   4.270  0.3018  0.1445 -0.1497
 1169SOL    HW1 4674   3.236   3.559   4.253 -1.6112  2.6318 -0.2544
 1169SOL    HW2 4675   3.326   3.608   4.365 -0.0628 -0.3175 -0.1268
 1169SOL     MW 4676   3.304   3.607   4.280  0.0102  0.4038 -0.1601
 1170SOL     OW 4677   0.824   2.456   3.588 -0.0992  0.0383 -0.0112
 1170SOL    HW1 4678   0.891   2.523   3.574 -1.3333  0.9776 -1.8561
 1170SOL    HW2 4679   0.800   2.427   3.500 -2.1152 -0.2373  0.5693
 1170SOL     MW 4680   0.829   2.461   3.575 -0.5153  0.1232 -0.1731
 1171SOL     OW 4681   4.750   4.058   5.402  0.5135  0.3325  0.1929
 1171SOL    HW1 4682   4.751   3.971   5.361  1.2274  1.3019 -2.0155
 1171SOL    HW2 4683   4.752   4.040   5.496  3.1046 -2.0596 -0.1682
 1171SOL     MW 4684   4.751   4.044   5.409  0.9365  0.1504 -0.1360
 1172SOL     OW 4685   4.317   2.169   1.527 -0.1843 -0.2094  0.5004
 1172SOL    HW1 4686   4.304   2.217   1.445 -1.2174  0.4903  1.0488
 1172SOL    HW2 4687   4.393   2.113   1.511 -1.1328 -1.0383 -1.3610
 1172SOL     MW 4688   4.325   2.168   1.515 -0.4380 -0.2260  0.3323
 1173SOL     OW 4689   4.917   5.378   3.808 -0.8056 -0.2138 -0.3976
 1173SOL    HW1 4690   4.906   5.447   3.873  0.9347 -1.3379  1.2322
 1173SOL    HW2 4691   4.838   5.324   3.816 -0.3123 -0.7532  1.4065
 1173SOL     MW 4692   4.906   5.380   3.817 -0.5197 -0.4268  0.0420
 1174SOL     OW 4693   2.765   4.242   4.239  0.0783  0.3463 -0.3446
 1174SOL    HW1 4694   2.795   4.261   4.150  0.8838 -0.8064 -0.3430
 1174SOL    HW2 4695   2.705   4.168   4.229 -1.7954  1.7604 -0.1820
 1174SOL     MW 4696   2.761   4.235   4.227 -0.0585  0.3797 -0.3236
 1175SOL     OW 4697   0.546   4.401   0.656  0.4749 -0.0419 -0.3101
 1175SOL    HW1 4698   0.488   4.389   0.581  0.6146 -2.9877 -0.0788
 1175SOL    HW2 4699   0.488   4.391   0.732  0.9487 -1.2919 -0.0817
 1175SOL     MW 4700   0.531   4.398   0.656  0.5534 -0.5790 -0.2513
 1176SOL     OW 4701   1.568   3.234   5.107  0.2462 -0.0687  0.0641
 1176SOL    HW1 4702   1.610   3.308   5.151 -1.2159  0.3563  0.8108
 1176SOL    HW2 4703   1.615   3.226   5.024  0.8911  1.2494  0.2779
 1176SOL     MW 4704   1.579   3.243   5.102  0.1416  0.1545  0.1871
 1177SOL     OW 4705   5.143   1.469   4.133  0.4286 -0.2213  0.0008
 1177SOL    HW1 4706   5.071   1.443   4.075  0.2895  0.1694 -0.0074
 1177SOL    HW2 4707   5.213   1.406   4.115  0.2353 -0.3540 -0.2910
 1177SOL     MW 4708   5.143   1.458   4.123  0.3860 -0.1882 -0.0376
 1178SOL     OW 4709   2.319   5.439   4.486  0.0203  0.1791 -0.1659
 1178SOL    HW1 4710   2.333   5.507   4.553  1.2314 -0.6170  0.4288
 1178SOL    HW2 4711   2.264   5.482   4.420  1.3414  1.9968 -0.1843
 1178SOL     MW 4712   2.314   5.453   4.486  0.3445  0.3099 -0.0921
 1179SOL     OW 4713   1.430   5.361   3.724 -0.2686  0.1371  0.0104
 1179SOL    HW1 4714   1.415   5.321   3.639 -2.8308  1.7603 -0.4050
 1179SOL    HW2 4715   1.497   5.428   3.708  0.8920 -1.0125 -0.1750
 1179SOL     MW 4716   1.437   5.364   3.711 -0.4480  0.1977 -0.0665
 1180SOL     OW 4717   1.790   1.931   0.609 -0.3200 -0.6432 -0.0948
 1180SOL    HW1 4718   1.854   1.927   0.538 -0.3501  0.1391 -0.1677
 1180SOL    HW2 4719   1.821   2.002   0.665 -0.8684 -0.5763  0.1275
 1180SOL     MW 4720   1.802   1.940   0.607 -0.3941 -0.5345 -0.0757
 1181SOL     OW 4721   3.582   4.371   0.145 -0.0939 -0.0365  0.5001
 1181SOL    HW1 4722   3.658   4.375   0.203 -0.6242  0.4040  1.1752
 1181SOL    HW2 4723   3.528   4.445   0.170 -1.2944 -0.9705  0.8000
 1181SOL     MW 4724   3.585   4.381   0.155 -0.3155 -0.0997  0.6249
 1182SOL     OW 4725   5.144   4.295   1.486  0.0072  0.2625  0.1610
 1182SOL    HW1 4726   5.198   4.339   1.551 -1.4617  0.7473  1.1002
 1182SOL    HW2 4727   5.129   4.207   1.522  1.2595 -0.3666 -0.7551
 1182SOL     MW 4728   5.149   4.289   1.499 -0.0205  0.2440  0.1639
 1183SOL     OW 4729   4.781   0.678   1.428 -0.5840  0.4793 -0.1507
 1183SOL    HW1 4730   4.749   0.717   1.346 -0.1109 -0.9825 -1.0779
 1183SOL    HW2 4731   4.874   0.700   1.430  0.2546 -2.4231 -1.8955
 1183SOL     MW 4732   4.789   0.686   1.418 -0.4161 -0.0794 -0.4928
 1184SOL     OW 4733   2.856   2.723   4.618 -0.0927 -0.1698  0.3348
 1184SOL    HW1 4734   2.770   2.710   4.578  0.3029  2.5035 -1.7154
 1184SOL    HW2 4735   2.840   2.784   4.690 -0.0454 -0.6232  0.7357
 1184SOL     MW 4736   2.843   2.729   4.622 -0.0360  0.1143  0.1237
 1185SOL     OW 4737   4.838   0.193   2.917 -0.3016 -0.2118  0.2970
 1185SOL    HW1 4738   4.814   0.230   2.832 -0.7466 -1.0643  0.0404
 1185SOL    HW2 4739   4.933   0.198   2.919 -0.2394 -0.8119 -0.5523
 1185SOL     MW 4740   4.847   0.198   2.906 -0.3506 -0.3978  0.1554
 1186SOL     OW 4741   5.283   2.338   1.932 -0.5159 -0.3811  0.3361
 1186SOL    HW1 4742   5.271   2.432   1.921 -0.6204 -0.1932  1.8322
 1186SOL    HW2 4743   5.299   2.326   2.026  0.4067 -1.7636  0.0474
 1186SOL     MW 4744   5.284   2.348   1.943 -0.4112 -0.5340  0.4907
 1187SOL     OW 4745   3.449   3.485   3.109  0.0103  0.0409  0.1549
 1187SOL    HW1 4746   3.477   3.461   3.197  1.1993 -1.8758 -0.6662
 1187SOL    HW2 4747   3.475   3.576   3.099  0.6297  0.0321  1.4837
 1187SOL     MW 4748   3.456   3.493   3.119  0.2418 -0.2056  0.2199
 1188SOL     OW 4749   4.784   2.265   2.256  0.4464 -0.0872 -0.1181
 1188SOL    HW1 4750   4.773   2.218   2.338 -0.5975 -2.2268 -1.3998
 1188SOL    HW2 4751   4.874   2.249   2.230  0.3051 -0.7732 -0.1881
 1188SOL     MW 4752   4.794   2.257   2.263  0.2947 -0.4489 -0.2912
 1189SOL     OW 4753   2.523   2.607   1.044 -0.3405 -0.9955 -0.2237
 1189SOL    HW1 4754   2.579   2.536   1.077  0.1895 -0.4435  0.0851
 1189SOL    HW2 4755   2.585   2.670   1.006 -0.5141  0.6247  1.9626
 1189SOL     MW 4756   2.538   2.606   1.044 -0.2949 -0.7175  0.0957
 1190SOL     OW 4757   3.952   2.354   2.783  0.2151 -0.0782 -0.1224
 1190SOL    HW1 4758   3.862   2.364   2.813 -0.2619  1.3075 -1.8667
 1190SOL    HW2 4759   3.995   2.435   2.810  1.8857 -1.8680  3.3811
 1190SOL     MW 4760   3.946   2.365   2.791  0.3679 -0.1299  0.1028
 1191SOL     OW 4761   3.642   1.840   1.538 -0.0111  0.2972  0.5597
 1191SOL    HW1 4762   3.658   1.871   1.449 -0.5104 -0.4800  0.1805
 1191SOL    HW2 4763   3.652   1.917   1.593 -0.6165  0.9988 -0.2755
 1191SOL     MW 4764   3.645   1.854   1.534 -0.1525  0.2876  0.4043
 1192SOL     OW 4765   3.433   3.802   0.526 -0.1103 -0.2357  0.1773
 1192SOL    HW1 4766   3.432   3.890   0.563  3.1534 -0.3373  0.7710
 1192SOL    HW2 4767   3.436   3.744   0.602 -0.7777 -0.8228 -0.2278
 1192SOL     MW 4768   3.433   3.806   0.540  0.2221 -0.3239  0.2014
 1193SOL     OW 4769   2.077   1.705   4.335 -0.1819  0.2015 -0.3539
 1193SOL    HW1 4770   2.065   1.792   4.296 -1.0067 -0.6103 -1.9750
 1193SOL    HW2 4771   2.170   1.686   4.322 -0.4368 -0.0457 -1.9489
 1193SOL     MW 4772   2.087   1.714   4.328 -0.3201  0.0659 -0.7656
 1194SOL     OW 4773   0.416   2.436   5.353 -0.2149 -0.2479 -0.1676
 1194SOL    HW1 4774   0.488   2.377   5.331 -1.4240 -2.1487  0.6826
 1194SOL    HW2 4775   0.403   2.489   5.275  0.3625 -1.7241 -1.3094
 1194SOL     MW 4776   0.424   2.435   5.340 -0.2957 -0.6802 -0.2049
 1195SOL     OW 4777   1.363   1.772   1.647 -0.5252  0.5466  0.2908
 1195SOL    HW1 4778   1.378   1.742   1.737 -2.0290 -0.5510  0.2037
 1195SOL    HW2 4779   1.401   1.703   1.593 -1.1195  0.3749  0.0884
 1195SOL     MW 4780   1.370   1.759   1.652 -0.7938  0.3841  0.2538
 1196SOL     OW 4781   0.470   2.951   1.673  0.3692 -0.4063 -0.2947
 1196SOL    HW1 4782   0.552   2.928   1.629 -0.1171  0.1658 -1.5631
 1196SOL    HW2 4783   0.417   2.992   1.604 -0.4947  0.3854  0.8041
 1196SOL     MW 4784   0.474   2.954   1.659  0.1964 -0.2317 -0.3164
 1197SOL     OW 4785   1.787   0.085   3.349 -0.0447  0.3513  0.0861
 1197SOL    HW1 4786   1.738   0.011   3.386  0.6485  0.5421  1.4321
 1197SOL    HW2 4787   1.764   0.159   3.405  0.4310  0.8316 -0.3503
 1197SOL     MW 4788   1.778   0.085   3.361  0.1049  0.4372  0.2025
 1198SOL     OW 4789   0.121   5.171   3.945  0.3310 -0.3378  0.3656
 1198SOL    HW1 4790   0.044   5.189   3.891  0.3167  0.2472  0.5664
 1198SOL    HW2 4791   0.173   5.251   3.939  1.8684 -1.4012 -1.3172
 1198SOL     MW 4792   0.118   5.184   3.937  0.5259 -0.3991  0.1759
 1199SOL     OW 4793   0.992   1.769   3.034 -0.1868 -0.3320 -0.7650
 1199SOL    HW1 4794   1.036   1.685   3.047  0.3523 -0.1867 -1.5624
 1199SOL    HW2 4795   1.000   1.786   2.940  3.0364  2.3806 -0.1749
 1199SOL     MW 4796   0.998   1.760   3.024  0.2948  0.0338 -0.7915
 1200SOL     OW 4797   4.774   5.085   1.862  0.4777 -0.5405  0.3115
 1200SOL    HW1 4798   4.723   5.120   1.788  1.4185 -1.3160 -0.7414
 1200SOL    HW2 4799   4.722   5.106   1.939 -0.5195  0.3366 -0.5700
 1200SOL     MW 4800   4.761   5.092   1.862  0.4705 -0.5275  0.0638
 1201SOL     OW 4801   4.868   2.463   4.068 -0.3831  0.1273  0.3178
 1201SOL    HW1 4802   4.847   2.380   4.110  0.0130  0.1304  0.5301
 1201SOL    HW2 4803   4.857   2.445   3.974 -0.2692 -0.1729  0.3594
 1201SOL     MW 4804   4.864   2.450   4.061 -0.3178  0.0893  0.3503
 1202SOL     OW 4805   3.298   2.992   3.119 -0.9283 -0.4905  0.3413
 1202SOL    HW1 4806   3.203   3.001   3.130 -1.0712 -0.2986 -0.9513
 1202SOL    HW2 4807   3.309   2.952   3.033  0.1882  0.0959  0.1975
 1202SOL     MW 4808   3.287   2.988   3.109 -0.8037 -0.3909  0.1574
 1203SOL     OW 4809   2.234   2.470   3.188  0.5503  0.4838  0.2127
 1203SOL    HW1 4810   2.325   2.452   3.167  0.8625  0.7899  1.2437
 1203SOL    HW2 4811   2.185   2.400   3.146  1.2489  0.3449 -0.3934
 1203SOL     MW 4812   2.239   2.459   3.180  0.6797  0.5052  0.2671
 1204SOL     OW 4813   3.054   1.157   3.213  0.7806 -0.2698 -0.3665
 1204SOL    HW1 4814   3.043   1.182   3.121 -0.9169  1.7200  0.3324
 1204SOL    HW2 4815   3.147   1.173   3.231  0.6728  1.4436 -1.1679
 1204SOL     MW 4816   3.065   1.162   3.203  0.5495  0.2042 -0.3796
 1205SOL     OW 4817   2.724   4.740   1.480  0.3193  0.1230 -0.5160
 1205SOL    HW1 4818   2.630   4.735   1.463 -0.1067  0.4383  1.4080
 1205SOL    HW2 4819   2.745   4.658   1.524  0.5642  0.7042  0.5023
 1205SOL     MW 4820   2.715   4.729   1.484  0.2961  0.2378 -0.1393
 1206SOL     OW 4821   5.264   3.212   4.659  0.2225 -0.4111  0.2709
 1206SOL    HW1 4822   5.285   3.251   4.574  1.3078 -0.3891  0.5384
 1206SOL    HW2 4823   5.178   3.172   4.647 -0.3897  1.0428 -0.3543
 1206SOL     MW 4824   5.255   3.212   4.647  0.2831 -0.2221  0.2251
 1207SOL     OW 4825   3.381   1.884   3.461  0.2513  0.3556  0.3085
 1207SOL    HW1 4826   3.444   1.956   3.459 -0.2603  0.8327  0.7701
 1207SOL    HW2 4827   3.381   1.856   3.553  0.8727 -0.6315  0.0227
 1207SOL     MW 4828   3.389   1.890   3.473  0.2654  0.2903  0.3310
 1208SOL     OW 4829   2.649   4.338   4.784 -0.7059  0.3975 -0.0421
 1208SOL    HW1 4830   2.619   4.248   4.767  1.5265 -0.6428  1.1368
 1208SOL    HW2 4831   2.731   4.346   4.735 -1.5012  2.2831 -1.1714
 1208SOL     MW 4832   2.655   4.327   4.776 -0.5219  0.5057 -0.0357
 1209SOL     OW 4833   4.279   3.203   2.056 -0.6926  0.4439  0.0973
 1209SOL    HW1 4834   4.316   3.264   2.120 -0.3671  0.8651 -0.4937
 1209SOL    HW2 4835   4.327   3.121   2.070 -0.0233  0.7810 -0.1819
 1209SOL     MW 4836   4.290   3.200   2.066 -0.5652  0.5410 -0.0141
 1210SOL     OW 4837   4.360   4.043   0.475  0.2260  0.1211 -0.3160
 1210SOL    HW1 4838   4.378   4.111   0.541  0.5337 -1.4448  1.2930
 1210SOL    HW2 4839   4.414   3.969   0.502  0.0734 -0.7096 -2.1596
 1210SOL     MW 4840   4.369   4.043   0.487  0.2458 -0.1857 -0.3460
 1211SOL     OW 4841   1.756   4.114   1.739 -0.5729 -0.1508  0.4247
 1211SOL    HW1 4842   1.734   4.131   1.831  1.3667 -0.1452  0.9454
 1211SOL    HW2 4843   1.802   4.030   1.742  0.6139  0.4526 -0.3419
 1211SOL     MW 4844   1.759   4.105   1.751 -0.1727 -0.0728  0.3932
 1212SOL     OW 4845   3.753   1.107   4.554 -0.0735  0.3936  0.2153
 1212SOL    HW1 4846   3.666   1.135   4.584 -0.8466 -1.6007 -0.0550
 1212SOL    HW2 4847   3.808   1.113   4.632 -0.8534  0.0730  0.8007
 1212SOL     MW 4848   3.749   1.111   4.568 -0.2723  0.0972  0.2557
 1213SOL     OW 4849   0.339   0.916   4.575  0.1678  0.3870 -0.4270
 1213SOL    HW1 4850   0.387   0.970   4.638  0.6930  0.2972 -0.7510
 1213SOL    HW2 4851   0.273   0.871   4.628  0.8728 -0.0075  0.1369
 1213SOL     MW 4852   0.336   0.917   4.590  0.3253  0.3250 -0.3963
 1214SOL     OW 4853   2.650   4.657   2.225  0.7578  0.4847  0.2493
 1214SOL    HW1 4854   2.659   4.566   2.253  1.0396 -0.2258 -1.9557
 1214SOL    HW2 4855   2.570   4.687   2.269  2.0961  0.1391  3.2179
 1214SOL     MW 4856   2.641   4.649   2.235  0.9652  0.3495  0.3471
 1215SOL     OW 4857   0.736   3.185   5.023  0.1058 -0.7216 -0.0753
 1215SOL    HW1 4858   0.772   3.201   4.936  0.8482  0.5168  0.4277
 1215SOL    HW2 4859   0.668   3.251   5.034  2.2397  1.4143  1.4889
 1215SOL     MW 4860   0.732   3.195   5.014  0.4740 -0.2897  0.1893
 1216SOL     OW 4861   1.349   1.267   2.217  0.1224 -0.0729 -0.6538
 1216SOL    HW1 4862   1.417   1.201   2.225 -0.1572 -0.3637 -0.6757
 1216SOL    HW2 4863   1.357   1.320   2.296  0.2829 -0.1919 -0.5906
 1216SOL     MW 4864   1.359   1.265   2.228  0.1071 -0.1254 -0.6485
 1217SOL     OW 4865   0.075   0.671   3.591  0.2708 -0.8967  0.5579
 1217SOL    HW1 4866  -0.019   0.654   3.583  0.3484 -0.8361 -0.6497
 1217SOL    HW2 4867   0.109   0.597   3.640 -0.3330 -1.1791  0.5585
 1217SOL     MW 4868   0.067   0.660   3.596  0.2034 -0.9251  0.4034
 1218SOL     OW 4869   3.842   3.074   3.262 -0.6520 -0.1147 -0.4395
 1218SOL    HW1 4870   3.891   2.993   3.251  1.3606  1.0484 -0.5390
 1218SOL    HW2 4871   3.836   3.111   3.174  1.8745  1.6743  0.0462
 1218SOL     MW 4872   3.847   3.069   3.250 -0.0710  0.2632 -0.3900
 1219SOL     OW 4873   2.620   3.492   1.346  0.2615  0.0073 -0.4288
 1219SOL    HW1 4874   2.668   3.543   1.280  0.8256  0.4563  0.3095
 1219SOL    HW2 4875   2.686   3.433   1.383  0.5233  1.2994  1.2798
 1219SOL     MW 4876   2.635   3.491   1.342  0.3672  0.2301 -0.1156
 1220SOL     OW 4877   1.560   1.099   4.214 -0.2329 -0.1711  0.2016
 1220SOL    HW1 4878   1.559   1.153   4.293 -0.6250  1.6511 -0.9916
 1220SOL    HW2 4879   1.648   1.061   4.211  0.7446  1.9560  0.1059
 1220SOL     MW 4880   1.571   1.101   4.224 -0.1580  0.3344  0.0366
 1221SOL     OW 4881   0.867   3.340   2.515 -0.1767  0.3551  0.3957
 1221SOL    HW1 4882   0.802   3.271   2.505 -0.6184  0.7551  0.4487
 1221SOL    HW2 4883   0.826   3.418   2.476  0.0511  0.7438  0.9125
 1221SOL     MW 4884   0.854   3.341   2.509 -0.2041  0.4561  0.4686
 1222SOL     OW 4885   3.806   2.164   1.347 -0.0380  0.1255  0.0692
 1222SOL    HW1 4886   3.739   2.224   1.379  0.2119  1.3617 -1.5999
 1222SOL    HW2 4887   3.758   2.103   1.290  0.1142  0.5027 -0.4709
 1222SOL     MW 4888   3.791   2.164   1.344  0.0135  0.3320 -0.2136
 1223SOL     OW 4889   4.338   0.766   1.037 -0.3042  0.1002  0.7104
 1223SOL    HW1 4890   4.304   0.780   1.126 -0.0379  1.4016  0.6302
 1223SOL    HW2 4891   4.430   0.744   1.051 -0.2003  0.5470  0.7594
 1223SOL     MW 4892   4.345   0.765   1.050 -0.2568  0.3240  0.7064
 1224SOL     OW 4893   1.966   1.408   2.981  0.1858 -0.3297  0.0889
 1224SOL    HW1 4894   2.021   1.438   3.054 -0.4446 -0.3691  0.5833
 1224SOL    HW2 4895   1.965   1.482   2.920  2.0501 -0.8698 -0.6781
 1224SOL     MW 4896   1.973   1.421   2.983  0.3437 -0.4039  0.0540
 1225SOL     OW 4897   2.380   4.115   0.943  0.1096  0.2029 -0.2347
 1225SOL    HW1 4898   2.354   4.111   1.035  0.2797 -2.0900 -0.2279
 1225SOL    HW2 4899   2.472   4.142   0.945 -0.3374  1.7965  0.1299
 1225SOL     MW 4900   2.389   4.118   0.955  0.0741  0.1134 -0.1871
 1226SOL     OW 4901   2.693   1.043   3.740  0.1082  0.5305 -0.1467
 1226SOL    HW1 4902   2.670   1.033   3.647 -0.0134  0.3741 -0.0986
 1226SOL    HW2 4903   2.650   0.970   3.784 -0.3975  0.9913  0.1297
 1226SOL     MW 4904   2.685   1.033   3.733  0.0279  0.5695 -0.1051
 1227SOL     OW 4905   5.446   5.274   2.216 -0.7719  0.3558  0.0768
 1227SOL    HW1 4906   5.459   5.293   2.309 -1.2917 -0.2085  0.2692
 1227SOL    HW2 4907   5.404   5.188   2.215  0.8626 -0.4831 -0.7385
 1227SOL     MW 4908   5.443   5.265   2.228 -0.6292  0.1762 -0.0029
 1228SOL     OW 4909   4.405   3.574   2.095  0.5051 -0.0060  0.4436
 1228SOL    HW1 4910   4.332   3.612   2.047 -1.4764 -1.8406  1.7816
 1228SOL    HW2 4911   4.481   3.626   2.069 -0.4294 -0.5130 -4.2200
 1228SOL     MW 4912   4.405   3.585   2.086  0.1318 -0.3057  0.0179
 1229SOL     OW 4913   5.169   3.111   4.993 -0.1161 -0.2914 -0.4499
 1229SOL    HW1 4914   5.138   3.077   5.078 -0.5294 -0.1070 -0.5250
 1229SOL    HW2 4915   5.192   3.202   5.011  1.1486 -0.6465 -0.2102
 1229SOL     MW 4916   5.168   3.119   5.007 -0.0071 -0.3132 -0.4288
 1230SOL     OW 4917   0.057   0.368   3.459 -0.4016  0.1261  0.7003
 1230SOL    HW1 4918   0.116   0.310   3.411 -0.4635 -1.4630  2.4426
 1230SOL    HW2 4919   0.008   0.413   3.390  3.3134  2.1748 -0.8771
 1230SOL     MW 4920   0.058   0.366   3.444  0.0661  0.1849  0.7214
 1231SOL     OW 4921   3.516   5.095   1.014  0.8080 -0.6958 -0.0391
 1231SOL    HW1 4922   3.528   5.007   1.047 -0.8982 -0.1721  2.2609
 1231SOL    HW2 4923   3.604   5.127   0.996  1.6507 -1.9839  1.5788
 1231SOL     MW 4924   3.529   5.088   1.016  0.6975 -0.7937  0.4625
 1232SOL     OW 4925   5.457   0.267   1.948  0.3690 -0.2984  0.0149
 1232SOL    HW1 4926   5.523   0.326   1.986  0.3231 -1.1913  1.5492
 1232SOL    HW2 4927   5.471   0.184   1.993 -1.4283 -0.6662 -0.0375
 1232SOL     MW 4928   5.467   0.264   1.959  0.1330 -0.4598  0.2046
 1233SOL     OW 4929   1.918   1.947   2.379 -0.6798 -0.1312 -0.0804
 1233SOL    HW1 4930   1.896   1.854   2.378  0.0793 -0.3186 -2.1222
 1233SOL    HW2 4931   1.852   1.988   2.323 -1.8232  0.8165  1.8434
 1233SOL     MW 4932   1.906   1.941   2.372 -0.7290 -0.0339 -0.0955
 1234SOL     OW 4933   3.503   0.494   4.939  0.3850 -0.2684 -0.4213
 1234SOL    HW1 4934   3.549   0.521   5.018  0.5097 -0.1660 -0.5280
 1234SOL    HW2 4935   3.500   0.398   4.944  0.3998 -0.2627 -0.2982
 1234SOL     MW 4936   3.509   0.485   4.950  0.4029 -0.2546 -0.4192
 1235SOL     OW 4937   3.375   3.189   4.964  0.0436  0.1453  0.4612
 1235SOL    HW1 4938   3.433   3.114   4.950 -2.3138 -1.6663 -0.2629
 1235SOL    HW2 4939   3.346   3.214   4.877  0.3716  1.5822  0.7455
 1235SOL     MW 4940   3.379   3.182   4.951 -0.2162  0.0973  0.4049
 1236SOL     OW 4941   2.826   1.465   2.931  0.0409  0.1364 -0.3030
 1236SOL    HW1 4942   2.795   1.383   2.892  1.6890 -1.0174  0.6976
 1236SOL    HW2 4943   2.816   1.530   2.862 -0.4564 -1.0946 -1.4283
 1236SOL     MW 4944   2.821   1.462   2.917  0.1882 -0.1689 -0.3190
 1237SOL     OW 4945   0.311   1.523   3.812 -1.0551  0.3259 -0.7211
 1237SOL    HW1 4946   0.399   1.548   3.842 -1.7680  0.8931  1.0331
 1237SOL    HW2 4947   0.277   1.602   3.770 -1.9740  1.3194  1.6920
 1237SOL     MW 4948   0.318   1.536   3.810 -1.2640  0.5257 -0.1877
 1238SOL     OW 4949   5.037   5.447   4.686 -0.1354  0.2571 -0.0553
 1238SOL    HW1 4950   4.948   5.454   4.652  0.0100  0.3491 -0.4132
 1238SOL    HW2 4951   5.025   5.409   4.773 -0.5269  0.2958 -0.0879
 1238SOL     MW 4952   5.024   5.443   4.693 -0.1669  0.2738 -0.1053
 1239SOL     OW 4953   3.314   1.517   1.905 -0.5289  0.2483 -0.8239
 1239SOL    HW1 4954   3.392   1.572   1.912  0.3021 -1.0032  0.2258
 1239SOL    HW2 4955   3.317   1.482   1.816  1.4558 -1.6050 -0.1302
 1239SOL     MW 4956   3.324   1.519   1.895 -0.1684 -0.1492 -0.6007
 1240SOL     OW 4957   4.914   3.881   4.418  0.2006  0.1250  0.1762
 1240SOL    HW1 4958   4.833   3.831   4.433  0.2014 -0.4919 -1.6188
 1240SOL    HW2 4959   4.984   3.824   4.451 -0.0484  0.5887  1.5783
 1240SOL     MW 4960   4.913   3.867   4.424  0.1688  0.1054  0.1259
 1241SOL     OW 4961   4.028   4.580   2.204  0.2326 -0.3448  0.0344
 1241SOL    HW1 4962   4.057   4.646   2.267  0.2225 -0.4183  0.1149
 1241SOL    HW2 4963   3.971   4.628   2.144  1.8942  0.2191 -1.1836
 1241SOL     MW 4964   4.025   4.594   2.204  0.4440 -0.2820 -0.1112
 1242SOL     OW 4965   4.271   0.825   3.722  0.0262  0.0734 -0.1301
 1242SOL    HW1 4966   4.219   0.904   3.709 -0.5803 -0.0845  1.2188
 1242SOL    HW2 4967   4.355   0.857   3.755  1.2070  0.3987 -3.1473
 1242SOL     MW 4968   4.275   0.839   3.725  0.0997  0.0948 -0.3437
 1243SOL     OW 4969   2.807   2.090   2.670  0.4195  0.3137  0.3823
 1243SOL    HW1 4970   2.778   2.163   2.615 -0.9848  0.1147  0.8200
 1243SOL    HW2 4971   2.805   2.126   2.759 -0.2728 -0.2455  0.5988
 1243SOL     MW 4972   2.803   2.104   2.674  0.1511  0.2166  0.4661
 1244SOL     OW 4973   5.412   1.450   2.668  0.1471 -0.4778  0.1178
 1244SOL    HW1 4974   5.429   1.358   2.651 -0.1262 -0.3519 -0.8630
 1244SOL    HW2 4975   5.328   1.468   2.626  0.4277  0.3294 -0.1286
 1244SOL     MW 4976   5.404   1.441   2.661  0.1481 -0.3584 -0.0393
 1245SOL     OW 4977   3.461   4.894   3.737 -0.1648 -0.0053 -0.0828
 1245SOL    HW1 4978   3.368   4.887   3.760  0.0243  1.6270  1.3295
 1245SOL    HW2 4979   3.462   4.945   3.656 -0.5097 -0.3638 -0.3170
 1245SOL     MW 4980   3.449   4.900   3.729 -0.1847  0.1578  0.0680
 1246SOL     OW 4981   2.780   4.430   3.625 -0.4290 -0.0267 -0.0900
 1246SOL    HW1 4982   2.781   4.358   3.561 -2.6053 -1.0727  0.9601
 1246SOL    HW2 4983   2.690   4.460   3.627 -0.1004  0.9917  1.3910
 1246SOL     MW 4984   2.769   4.424   3.617 -0.6655 -0.0302  0.2340
 1247SOL     OW 4985   1.351   4.846   2.551  0.0349  0.3893  0.2330
 1247SOL    HW1 4986   1.278   4.805   2.596 -0.6044  0.7654 -0.4429
 1247SOL    HW2 4987   1.335   4.829   2.458  0.9995  0.1535  0.0999
 1247SOL     MW 4988   1.340   4.839   2.545  0.0765  0.4072  0.1294
 1248SOL     OW 4989   0.302   2.947   4.315  0.0409  0.2091  0.0422
 1248SOL    HW1 4990   0.242   3.013   4.351  0.3243 -0.1916  1.3046
 1248SOL    HW2 4991   0.385   2.993   4.306 -0.0325  0.3128 -0.1133
 1248SOL     MW 4992   0.305   2.962   4.318  0.0678  0.1711  0.1839
 1249SOL     OW 4993   3.017   0.636   2.519  0.4064  0.1031 -0.4278
 1249SOL    HW1 4994   3.019   0.665   2.610 -0.8855  0.3973 -0.4744
 1249SOL    HW2 4995   3.098   0.586   2.508 -0.0860 -1.1796  1.2964
 1249SOL     MW 4996   3.028   0.633   2.529  0.1780 -0.0235 -0.2130
 1250SOL     OW 4997   1.106   0.620   0.913 -0.4180 -0.5687  0.3240
 1250SOL    HW1 4998   1.195   0.602   0.884  0.5289  1.0850  2.0127
 1250SOL    HW2 4999   1.051   0.592   0.839  1.5375 -0.6775 -1.1839
 1250SOL     MW 5000   1.110   0.614   0.900 -0.0465 -0.3709  0.3471
 1251SOL     OW 5001   0.108   3.733   0.300 -0.0162  0.8109 -0.0850
 1251SOL    HW1 5002   0.184   3.780   0.334  0.0176  0.2904  0.5963
 1251SOL    HW2 5003   0.082   3.675   0.372  0.5226 -0.9035 -1.2101
 1251SOL     MW 5004   0.114   3.732   0.314  0.0571  0.5248 -0.1418
 1252SOL     OW 5005   0.257   5.304   4.538  0.4537  0.3916  0.3613
 1252SOL    HW1 5006   0.206   5.349   4.605 -1.9448 -1.0079 -0.3987
 1252SOL    HW2 5007   0.304   5.374   4.493 -0.7249  1.7664  1.1752
 1252SOL     MW 5008   0.257   5.318   4.541 -0.0042  0.3885  0.3682
 1253SOL     OW 5009   1.204   0.496   0.616 -0.1143 -0.7839  0.3943
 1253SOL    HW1 5010   1.225   0.568   0.557 -0.0175 -0.5075  0.7629
 1253SOL    HW2 5011   1.110   0.503   0.631 -0.0604 -0.5614  0.6480
 1253SOL     MW 5012   1.195   0.506   0.611 -0.0950 -0.7200  0.4739
 1254SOL     OW 5013   4.703   1.306   1.924 -0.0057  0.3200  0.1650
 1254SOL    HW1 5014   4.661   1.231   1.965 -0.6832  0.1178 -0.8383
 1254SOL    HW2 5015   4.654   1.318   1.842  0.4675  1.4913  0.0391
 1254SOL     MW 5016   4.691   1.298   1.918 -0.0318  0.4440  0.0205
 1255SOL     OW 5017   0.952   4.549   2.429 -0.1160  0.4822 -0.1654
 1255SOL    HW1 5018   0.908   4.618   2.480 -1.0809  0.4849 -0.9814
 1255SOL    HW2 5019   0.996   4.596   2.358  0.6217  0.4064  0.2325
 1255SOL     MW 5020   0.952   4.564   2.427 -0.1451  0.4728 -0.2189
 1256SOL     OW 5021   4.886   3.750   0.846  0.1932 -0.1177  0.2129
 1256SOL    HW1 5022   4.830   3.825   0.828  0.7489  0.0180 -1.0307
 1256SOL    HW2 5023   4.828   3.687   0.890 -0.6820  0.4111 -0.1675
 1256SOL     MW 5024   4.871   3.751   0.850  0.1523 -0.0326  0.0050
 1257SOL     OW 5025   1.737   1.532   3.665  0.1348  0.3516  0.3098
 1257SOL    HW1 5026   1.807   1.468   3.655  1.3359  1.0902  3.0207
 1257SOL    HW2 5027   1.662   1.481   3.698 -0.8495 -0.4967 -2.9281
 1257SOL     MW 5028   1.736   1.517   3.668  0.1626  0.3375  0.2424
 1258SOL     OW 5029   2.813   1.661   3.645 -0.5983  0.0805 -0.0941
 1258SOL    HW1 5030   2.805   1.733   3.708  0.7119  0.9593 -0.8900
 1258SOL    HW2 5031   2.766   1.588   3.686 -1.9398  1.3604  0.7518
 1258SOL     MW 5032   2.806   1.661   3.658 -0.6023  0.3568 -0.0877
 1259SOL     OW 5033   4.066   1.334   5.137 -0.2226 -0.0213 -0.5606
 1259SOL    HW1 5034   4.067   1.333   5.041 -1.0530  1.3729 -0.6076
 1259SOL    HW2 5035   4.070   1.242   5.162  1.8071 -0.3829 -1.8934
 1259SOL     MW 5036   4.067   1.322   5.128 -0.0691  0.1109 -0.7373
 1260SOL     OW 5037   2.612   3.157   2.238  0.0417 -0.6353 -0.2251
 1260SOL    HW1 5038   2.642   3.072   2.206  2.1332  1.1317 -3.5782
 1260SOL    HW2 5039   2.530   3.172   2.191  0.2647 -0.3732 -0.5406
 1260SOL     MW 5040   2.605   3.148   2.228  0.3380 -0.3755 -0.6948
 1261SOL     OW 5041   1.939   2.884   4.908 -0.1600  0.4854  0.0925
 1261SOL    HW1 5042   1.995   2.914   4.836  0.0566 -0.7738 -0.2921
 1261SOL    HW2 5043   1.937   2.957   4.969  0.3727  1.2541 -0.7801
 1261SOL     MW 5044   1.946   2.897   4.907 -0.0641  0.4226 -0.0684
 1262SOL     OW 5045   4.221   1.914   0.462 -0.4634  0.3838  0.4202
 1262SOL    HW1 5046   4.200   1.999   0.500  0.4444  0.7536  0.1115
 1262SOL    HW2 5047   4.203   1.924   0.369  0.0879  0.3865  0.3110
 1262SOL     MW 5048   4.216   1.926   0.455 -0.2766  0.4315  0.3667
 1263SOL     OW 5049   3.626   4.374   4.341  0.2312 -0.5954 -0.4270
 1263SOL    HW1 5050   3.670   4.291   4.322  1.2246  0.1089 -1.3534
 1263SOL    HW2 5051   3.561   4.383   4.272 -0.6745 -1.1351  0.3382
 1263SOL     MW 5052   3.624   4.364   4.330  0.2424 -0.5743 -0.4476
 1264SOL     OW 5053   3.710   4.296   1.795  0.5971 -0.3342 -0.0873
 1264SOL    HW1 5054   3.678   4.249   1.872 -1.0193  0.7270 -0.0394
 1264SOL    HW2 5055   3.793   4.255   1.774 -0.5400 -2.9589  0.1431
 1264SOL     MW 5056   3.716   4.285   1.803  0.2446 -0.5343 -0.0517
 1265SOL     OW 5057   0.953   1.900   2.768 -0.4674  0.3536  0.0711
 1265SOL    HW1 5058   0.909   1.975   2.808  0.8134  1.9649 -1.3719
 1265SOL    HW2 5059   0.972   1.929   2.679  0.0280 -1.7383 -0.5602
 1265SOL     MW 5060   0.950   1.913   2.761 -0.2401  0.2921 -0.1944
 1266SOL     OW 5061   4.554   3.110   2.021  0.2665  0.3587  0.1073
 1266SOL    HW1 5062   4.526   3.138   1.934  2.6029 -0.9733 -1.1939
 1266SOL    HW2 5063   4.523   3.020   2.029 -0.4511  0.6609  0.9523
 1266SOL     MW 5064   4.547   3.102   2.011  0.4737  0.2269  0.0489
 1267SOL     OW 5065   5.263   2.825   2.271  0.0571 -0.3622  0.4665
 1267SOL    HW1 5066   5.206   2.753   2.243 -1.1716  0.6429  0.3024
 1267SOL    HW2 5067   5.339   2.819   2.213 -0.2351 -1.2419  0.1532
 1267SOL     MW 5068   5.266   2.815   2.260 -0.1376 -0.3462  0.4054
 1268SOL     OW 5069   2.647   5.481   3.630  0.2555 -0.1256  0.4473
 1268SOL    HW1 5070   2.703   5.437   3.565  0.1361 -0.8683  0.8429
 1268SOL    HW2 5071   2.640   5.419   3.702 -1.7063 -0.3845  0.0885
 1268SOL     MW 5072   2.653   5.468   3.631 -0.0109 -0.2538  0.4520
 1269SOL     OW 5073   4.129   0.090   1.335 -0.0746 -0.9139  0.0036
 1269SOL    HW1 5074   4.171   0.028   1.275 -1.0863 -1.3106 -0.3201
 1269SOL    HW2 5075   4.078   0.148   1.278  0.9595  0.3335  0.2886
 1269SOL     MW 5076   4.127   0.090   1.320 -0.0717 -0.8050 -0.0013
 1270SOL     OW 5077   4.932   3.581   3.438 -0.4629 -0.4743 -0.3879
 1270SOL    HW1 5078   5.025   3.571   3.460 -0.6301  0.0102  0.5753
 1270SOL    HW2 5079   4.917   3.675   3.441 -1.2862 -0.6232  0.7800
 1270SOL     MW 5080   4.942   3.592   3.441 -0.5897 -0.4313 -0.1151
 1271SOL     OW 5081   3.185   3.168   2.733  0.4449  0.5591  0.6437
 1271SOL    HW1 5082   3.148   3.205   2.813 -1.0550  1.1945 -0.3013
 1271SOL    HW2 5083   3.236   3.240   2.694  0.2052  0.6173  0.4374
 1271SOL     MW 5084   3.187   3.182   2.738  0.2222  0.6479  0.4963
 1272SOL     OW 5085   5.179   1.970   3.748 -0.3951 -0.6175 -0.4274
 1272SOL    HW1 5086   5.268   2.000   3.727 -0.0157 -1.3827  0.0543
 1272SOL    HW2 5087   5.143   1.940   3.665  0.7542 -2.7481 -0.2206
 1272SOL     MW 5088   5.186   1.970   3.735 -0.1994 -0.9882 -0.3393
 1273SOL     OW 5089   3.981   0.704   3.518  0.0143  0.1938 -0.1074
 1273SOL    HW1 5090   3.989   0.758   3.440 -4.0188  1.2465  0.0207
 1273SOL    HW2 5091   3.966   0.766   3.589  1.1794 -0.8741  1.1324
 1273SOL     MW 5092   3.980   0.719   3.517 -0.3529  0.1918  0.0677
 1274SOL     OW 5093   4.468   4.131   2.324  0.1954  0.3315  0.1354
 1274SOL    HW1 5094   4.376   4.153   2.339 -0.1684 -1.2741  0.4017
 1274SOL    HW2 5095   4.487   4.166   2.237 -1.8254 -2.5749 -1.6554
 1274SOL     MW 5096   4.458   4.139   2.314 -0.1099 -0.2461 -0.0598
 1275SOL     OW 5097   0.566   2.977   2.828 -0.0697  0.0646 -0.0588
 1275SOL    HW1 5098   0.493   2.919   2.808  0.3281 -0.6813  0.6052
 1275SOL    HW2 5099   0.636   2.949   2.768  0.2663 -0.4401  0.5645
 1275SOL     MW 5100   0.566   2.966   2.818  0.0243 -0.0955  0.1060
 1276SOL     OW 5101   3.985   3.538   0.791  0.0227 -0.4644  0.4968
 1276SOL    HW1 5102   3.966   3.476   0.721  1.3951 -0.7130  0.3064
 1276SOL    HW2 5103   4.053   3.594   0.755  0.7152 -0.5612  1.5949
 1276SOL     MW 5104   3.992   3.537   0.777  0.2871 -0.5086  0.6130
 1277SOL     OW 5105   2.188   1.758   3.871  0.4502  0.0812 -0.0626
 1277SOL    HW1 5106   2.208   1.703   3.795 -0.0712 -0.0347 -0.1170
 1277SOL    HW2 5107   2.109   1.719   3.909  0.4262  0.4330  0.2544
 1277SOL     MW 5108   2.181   1.746   3.866  0.3804  0.1114 -0.0290
 1278SOL     OW 5109   2.491   4.306   5.221  0.3793  0.0449  0.0686
 1278SOL    HW1 5110   2.532   4.269   5.299 -1.1040  1.2604  1.4914
 1278SOL    HW2 5111   2.565   4.339   5.168  1.4931 -2.0013  0.2474
 1278SOL     MW 5112   2.506   4.305   5.224  0.3320 -0.0614  0.2737
 1279SOL     OW 5113   0.952   4.635   1.146 -0.2206 -0.0256 -0.1763
 1279SOL    HW1 5114   0.903   4.603   1.070 -0.9478  1.8683 -0.5623
 1279SOL    HW2 5115   1.043   4.619   1.124 -0.5259 -1.6831 -0.3744
 1279SOL     MW 5116   0.957   4.629   1.133 -0.3528  0.0046 -0.2511
 1280SOL     OW 5117   2.807   3.902   0.251 -1.1382  0.3834  0.2774
 1280SOL    HW1 5118   2.896   3.938   0.254 -1.1155  0.7413 -2.2058
 1280SOL    HW2 5119   2.818   3.811   0.277 -0.1948  0.6410  0.8608
 1280SOL     MW 5120   2.820   3.895   0.255 -1.0145  0.4622  0.0342
 1281SOL     OW 5121   2.425   1.041   4.725 -0.4877  0.1111 -0.1152
 1281SOL    HW1 5122   2.466   1.096   4.659  0.3515  0.2129  0.4800
 1281SOL    HW2 5123   2.419   0.955   4.683  1.6869 -0.2779  0.2769
 1281SOL     MW 5124   2.429   1.037   4.711 -0.1019  0.0743  0.0112
 1282SOL     OW 5125   0.315   4.171   2.490 -0.0780 -0.1332 -0.4839
 1282SOL    HW1 5126   0.255   4.108   2.528 -0.0132  0.8288  1.3040
 1282SOL    HW2 5127   0.269   4.255   2.495  0.7842  0.3582 -0.5595
 1282SOL     MW 5128   0.302   4.174   2.495  0.0407  0.0529 -0.2647
 1283SOL     OW 5129   0.492   1.883   4.760 -0.0609 -0.3213  0.4954
 1283SOL    HW1 5130   0.518   1.800   4.799  2.8812 -0.4635 -1.3830
 1283SOL    HW2 5131   0.565   1.942   4.780  0.7734  0.0604 -3.0218
 1283SOL     MW 5132   0.505   1.880   4.767  0.4225 -0.2906 -0.1953
 1284SOL     OW 5133   1.142   1.713   0.227 -0.2855  0.5316 -0.3851
 1284SOL    HW1 5134   1.211   1.780   0.230 -2.7482  3.2892 -0.4589
 1284SOL    HW2 5135   1.148   1.676   0.139  1.9442 -0.3851  0.0792
 1284SOL     MW 5136   1.152   1.717   0.216 -0.3154  0.7673 -0.3351
 1285SOL     OW 5137   0.397   5.145   4.768  0.0209 -0.4576  0.2915
 1285SOL    HW1 5138   0.441   5.061   4.760 -1.0159 -0.9936 -0.1109
 1285SOL    HW2 5139   0.377   5.170   4.677  1.9064  1.1331  0.2554
 1285SOL     MW 5140   0.400   5.138   4.755  0.1296 -0.3226  0.2354
 1286SOL     OW 5141   3.571   0.670   0.314  0.7573 -0.0231  0.2764
 1286SOL    HW1 5142   3.587   0.576   0.316  1.5174  0.1016  0.1765
 1286SOL    HW2 5143   3.477   0.678   0.331  0.5324 -0.8356 -0.5112
 1286SOL     MW 5144   3.561   0.659   0.317  0.8258 -0.1111  0.1628
 1287SOL     OW 5145   1.386   1.752   3.178 -0.3731 -0.4057 -0.1484
 1287SOL    HW1 5146   1.336   1.786   3.252  0.2435  0.7684 -0.2576
 1287SOL    HW2 5147   1.378   1.657   3.185 -0.1205 -0.3217  1.5726
 1287SOL     MW 5148   1.379   1.744   3.188 -0.2618 -0.2446  0.0579
 1288SOL     OW 5149   0.593   4.759   1.213  0.0139  0.0462 -0.3089
 1288SOL    HW1 5150   0.516   4.720   1.255  0.2253 -0.0217  0.0204
 1288SOL    HW2 5151   0.638   4.805   1.284  0.7022 -0.5829 -0.3168
 1288SOL     MW 5152   0.589   4.760   1.228  0.1291 -0.0430 -0.2678
 1289SOL     OW 5153   5.490   2.673   3.582  0.0041  0.4270  0.2064
 1289SOL    HW1 5154   5.401   2.671   3.617 -0.4123  1.2720 -0.7310
 1289SOL    HW2 5155   5.540   2.723   3.646  0.0893 -1.0434  1.3177
 1289SOL     MW 5156   5.485   2.679   3.594 -0.0383  0.3469  0.2287
 1290SOL     OW 5157   0.935   2.708   4.834  0.6243 -0.5643  0.4811
 1290SOL    HW1 5158   1.022   2.716   4.873  0.4608  0.2729  0.6855
 1290SOL    HW2 5159   0.883   2.776   4.876  0.0071 -0.7130 -0.0234
 1290SOL     MW 5160   0.940   2.718   4.845  0.5243 -0.4762  0.4427
 1291SOL     OW 5161   1.913   4.734   2.506  0.2542 -0.8463 -0.1182
 1291SOL    HW1 5162   1.988   4.793   2.515  0.0977 -0.3866 -1.5152
 1291SOL    HW2 5163   1.919   4.675   2.581  0.2516  1.1168  1.5145
 1291SOL     MW 5164   1.923   4.734   2.516  0.2338 -0.5362 -0.0880
 1292SOL     OW 5165   1.975   1.643   3.976 -0.0553  0.9153 -0.3963
 1292SOL    HW1 5166   1.907   1.691   3.927  0.2589  0.0418 -1.7442
 1292SOL    HW2 5167   1.929   1.608   4.052 -1.6824 -1.2750 -2.2367
 1292SOL     MW 5168   1.960   1.644   3.979 -0.2234  0.5231 -0.8045
 1293SOL     OW 5169   3.657   0.557   5.195  0.0103  0.2435 -0.3255
 1293SOL    HW1 5170   3.674   0.500   5.270 -0.0952  0.9467  0.2471
 1293SOL    HW2 5171   3.589   0.618   5.227 -0.0917  0.4954 -1.0154
 1293SOL     MW 5172   3.650   0.558   5.209 -0.0162  0.3657 -0.3405
 1294SOL     OW 5173   2.036   3.595   2.683 -1.0974 -0.1919  0.1887
 1294SOL    HW1 5174   2.034   3.605   2.778 -2.4515  0.9639  0.0642
 1294SOL    HW2 5175   2.127   3.613   2.659 -0.4930 -1.4845  1.3229
 1294SOL     MW 5176   2.047   3.598   2.692 -1.1934 -0.2094  0.3180
 1295SOL     OW 5177   0.706   4.902   2.591  0.5851  0.4066 -0.2461
 1295SOL    HW1 5178   0.614   4.899   2.619  0.8450 -1.3770  0.4771
 1295SOL    HW2 5179   0.701   4.931   2.499 -0.7377 -0.0754 -0.3541
 1295SOL     MW 5180   0.693   4.906   2.583  0.4490  0.1165 -0.1673
 1296SOL     OW 5181   1.791   5.258   1.319 -0.0682  0.4894 -0.2983
 1296SOL    HW1 5182   1.799   5.303   1.404 -1.0188  1.1200 -0.5196
 1296SOL    HW2 5183   1.857   5.300   1.264 -0.1272  0.7742 -0.1566
 1296SOL     MW 5184   1.800   5.269   1.323 -0.1975  0.6066 -0.3085
 1297SOL     OW 5185   1.791   1.278   0.710 -0.6415  0.1394 -0.4175
 1297SOL    HW1 5186   1.798   1.234   0.625 -2.5562 -0.3830 -0.3572
 1297SOL    HW2 5187   1.816   1.211   0.774 -0.8872 -0.0209 -0.4863
 1297SOL     MW 5188   1.795   1.264   0.707 -0.9181  0.0520 -0.4186
 1298SOL     OW 5189   0.350   3.894   4.245 -0.0602  0.3461 -0.2047
 1298SOL    HW1 5190   0.294   3.860   4.176  0.2111  2.1994 -1.3945
 1298SOL    HW2 5191   0.427   3.837   4.243 -0.4780 -0.2121 -0.7687
 1298SOL     MW 5192   0.353   3.882   4.236 -0.0790  0.5119 -0.4292
 1299SOL     OW 5193   3.989   1.870   2.205  0.0564 -0.2842  0.2341
 1299SOL    HW1 5194   3.925   1.893   2.272 -0.3461 -0.6215 -0.0333
 1299SOL    HW2 5195   3.949   1.798   2.156  0.4310 -0.1757 -0.2452
 1299SOL     MW 5196   3.976   1.863   2.207  0.0529 -0.3135  0.1385
 1300SOL     OW 5197   4.312   3.207   4.538  0.1722 -0.4878  0.1300
 1300SOL    HW1 5198   4.396   3.189   4.580  0.1274 -0.4268  0.2445
 1300SOL    HW2 5199   4.287   3.293   4.571  0.7615  0.1514 -1.0080
 1300SOL     MW 5200   4.320   3.216   4.547  0.2419 -0.3982 -0.0010
 1301SOL     OW 5201   1.947   3.584   3.808  0.1715  0.2485  0.1657
 1301SOL    HW1 5202   2.037   3.592   3.776 -0.2684  1.8489 -0.8279
 1301SOL    HW2 5203   1.956   3.558   3.899  1.6266  0.2092  0.0444
 1301SOL     MW 5204   1.960   3.581   3.815  0.3014  0.4483  0.0230
 1302SOL     OW 5205   0.619   3.986   2.898 -0.4113 -0.5100 -1.0145
 1302SOL    HW1 5206   0.714   3.994   2.896 -0.5398  1.4770 -0.7101
 1302SOL    HW2 5207   0.588   4.039   2.825 -1.3453  0.4117  0.0069
 1302SOL     MW 5208   0.627   3.994   2.888 -0.5473 -0.1376 -0.8447
 1303SOL     OW 5209   1.577   3.682   0.720  0.5942  0.8708 -0.0228
 1303SOL    HW1 5210   1.592   3.621   0.648  2.2238  1.8765 -0.5839
 1303SOL    HW2 5211   1.542   3.627   0.790  0.7577 -0.4718 -0.9423
 1303SOL     MW 5212   1.575   3.667   0.720  0.8238  0.8277 -0.2124
 1304SOL     OW 5213   1.485   2.885   1.424  0.1805 -0.3708  0.6075
 1304SOL    HW1 5214   1.454   2.970   1.393  0.2009 -1.0042 -1.2048
 1304SOL    HW2 5215   1.562   2.907   1.477  0.6825  0.7009 -0.5076
 1304SOL     MW 5216   1.491   2.899   1.427  0.2474 -0.3147  0.2328
 1305SOL     OW 5217   4.128   4.577   1.359  0.5399  0.7311 -0.1033
 1305SOL    HW1 5218   4.184   4.584   1.282  1.0301  3.5174  0.3925
 1305SOL    HW2 5219   4.055   4.636   1.341  0.3257  0.9224  1.2660
 1305SOL     MW 5220   4.126   4.586   1.347  0.5752  1.1123  0.1355
 1306SOL     OW 5221   2.454   0.039   0.154  0.2153 -0.0146 -0.7041
 1306SOL    HW1 5222   2.462   0.132   0.130 -1.8729  0.7451  1.2012
 1306SOL    HW2 5223   2.433   0.040   0.247  1.0060 -2.4842 -0.4461
 1306SOL     MW 5224   2.452   0.051   0.163  0.0492 -0.2335 -0.4272
 1307SOL     OW 5225   2.502   2.594   2.763  0.6821  0.6210 -0.2008
 1307SOL    HW1 5226   2.509   2.500   2.783  1.2960  0.6623 -0.2182
 1307SOL    HW2 5227   2.445   2.597   2.685  0.5495  0.2759 -0.1206
 1307SOL     MW 5228   2.495   2.582   2.756  0.7437  0.5821 -0.1927
 1308SOL     OW 5229   3.871   4.842   0.699 -0.5074  0.3314 -0.6717
 1308SOL    HW1 5230   3.858   4.878   0.787 -1.1363  0.3553 -0.7695
 1308SOL    HW2 5231   3.816   4.763   0.697  0.3992 -0.3149 -0.6573
 1308SOL     MW 5232   3.862   4.836   0.710 -0.4718  0.2518 -0.6824
 1309SOL     OW 5233   4.191   0.544   1.557 -0.1263  0.1150 -0.1041
 1309SOL    HW1 5234   4.160   0.564   1.469  2.2441 -0.9716 -1.2664
 1309SOL    HW2 5235   4.147   0.461   1.580  1.0550 -0.8811 -1.3049
 1309SOL     MW 5236   4.181   0.536   1.549  0.3284 -0.1516 -0.4066
 1310SOL     OW 5237   0.428   0.526   2.367 -0.0978  0.4218 -0.7513
 1310SOL    HW1 5238   0.500   0.517   2.304 -0.5625  0.2253 -1.2702
 1310SOL    HW2 5239   0.440   0.452   2.427  0.0337  0.2896 -0.9364
 1310SOL     MW 5240   0.439   0.515   2.366 -0.1405  0.3797 -0.8414
 1311SOL     OW 5241   0.659   2.577   3.921 -0.2147 -0.1025  0.0702
 1311SOL    HW1 5242   0.624   2.656   3.880  0.5726 -0.0622 -0.5442
 1311SOL    HW2 5243   0.585   2.516   3.923  0.3003 -1.1466 -3.9623
 1311SOL     MW 5244   0.645   2.579   3.916 -0.0480 -0.2310 -0.5246
 1312SOL     OW 5245   4.160   1.644   1.963 -0.3380  0.2167  0.2613
 1312SOL    HW1 5246   4.230   1.591   1.925 -0.5738 -0.6322  0.9792
 1312SOL    HW2 5247   4.147   1.715   1.900  1.6850  0.8407  0.4796
 1312SOL     MW 5248   4.167   1.646   1.950 -0.1092  0.1879  0.3812
 1313SOL     OW 5249   1.358   2.721   4.357  0.0175 -0.4076 -0.1323
 1313SOL    HW1 5250   1.279   2.668   4.348  0.5583 -1.1278 -0.7888
 1313SOL    HW2 5251   1.386   2.707   4.447 -0.1157 -0.8588 -0.1602
 1313SOL     MW 5252   1.351   2.712   4.367  0.0697 -0.5576 -0.2199
 1314SOL     OW 5253   0.867   5.183   5.343 -0.7644 -0.4366 -0.0646
 1314SOL    HW1 5254   0.909   5.167   5.428 -0.8278  1.8408  0.4446
 1314SOL    HW2 5255   0.939   5.209   5.285 -0.4353 -3.5379 -1.2963
 1314SOL     MW 5256   0.882   5.184   5.347 -0.7304 -0.5421 -0.1571
 1315SOL     OW 5257   5.185   4.892   0.310  0.3526  0.5613  0.0892
 1315SOL    HW1 5258   5.127   4.817   0.300  0.9787  0.2186 -1.2629
 1315SOL    HW2 5259   5.273   4.853   0.318  1.0131  1.0983 -3.0993
 1315SOL     MW 5260   5.189   4.877   0.309  0.5173  0.5862 -0.4921
 1316SOL     OW 5261   2.076   0.959   3.609  0.4767  0.0756  0.4126
 1316SOL    HW1 5262   1.991   0.950   3.566  0.6777 -1.5786  0.2841
 1316SOL    HW2 5263   2.124   1.020   3.553 -0.5583  0.9105  0.4004
 1316SOL     MW 5264   2.071   0.965   3.596  0.3699 -0.0293  0.3946
 1317SOL     OW 5265   0.832   0.304   2.707  0.0700 -0.2091  0.2414
 1317SOL    HW1 5266   0.917   0.347   2.711  1.2580 -2.2062 -1.5947
 1317SOL    HW2 5267   0.769   0.375   2.719  1.9414  1.3650  1.4331
 1317SOL     MW 5268   0.835   0.319   2.709  0.4616 -0.2632  0.1589
 1318SOL     OW 5269   0.290   4.842   2.061  0.3590  0.3892  0.2948
 1318SOL    HW1 5270   0.269   4.931   2.091  0.5673  0.1229  1.2558
 1318SOL    HW2 5271   0.230   4.827   1.988  1.5464  1.9873 -1.0866
 1318SOL     MW 5272   0.280   4.852   2.056  0.5377  0.5597  0.2410
 1319SOL     OW 5273   4.058   0.927   1.750 -0.1695 -0.3235 -0.0911
 1319SOL    HW1 5274   4.087   0.996   1.810 -1.5571  0.4978 -0.3201
 1319SOL    HW2 5275   4.044   0.851   1.805  0.1698 -0.0584  0.3665
 1319SOL     MW 5276   4.060   0.926   1.765 -0.3037 -0.1845 -0.0618
 1320SOL     OW 5277   4.901   4.499   2.219 -0.5873  0.1845 -0.0105
 1320SOL    HW1 5278   4.880   4.591   2.204 -3.1562 -0.1958  0.8090
 1320SOL    HW2 5279   4.897   4.459   2.132 -3.6809  0.1561  0.0314
 1320SOL     MW 5280   4.898   4.506   2.206 -1.3121  0.1322  0.0997
 1321SOL     OW 5281   5.117   0.497   3.373 -0.1552  0.1614  0.0922
 1321SOL    HW1 5282   5.091   0.481   3.282 -1.1175 -1.3398  0.6058
 1321SOL    HW2 5283   5.094   0.589   3.388 -3.9527 -0.6204  0.0390
 1321SOL     MW 5284   5.111   0.507   3.363 -0.7645 -0.1308  0.1511
 1322SOL     OW 5285   5.259   0.682   3.653 -0.1660 -0.3114  0.0499
 1322SOL    HW1 5286   5.293   0.688   3.742  0.3607  0.4519 -0.1930
 1322SOL    HW2 5287   5.284   0.765   3.612 -0.3799 -0.6641 -0.8186
 1322SOL     MW 5288   5.266   0.694   3.659 -0.1259 -0.2588 -0.0924
 1323SOL     OW 5289   4.947   0.872   0.368 -0.2435  0.5929  0.5640
 1323SOL    HW1 5290   4.934   0.893   0.275  1.8024 -0.5753 -0.0394
 1323SOL    HW2 5291   4.907   0.945   0.415 -1.6169  1.0557 -1.2058
 1323SOL     MW 5292   4.940   0.884   0.362 -0.1574  0.5026  0.2602
 1324SOL     OW 5293   3.472   1.592   0.746  0.4932  0.4233  0.2792
 1324SOL    HW1 5294   3.406   1.542   0.697  1.4473 -0.5253 -0.0901
 1324SOL    HW2 5295   3.478   1.676   0.700  0.0649  0.2378 -0.1282
 1324SOL     MW 5296   3.464   1.596   0.734  0.5605  0.2781  0.1798
 1325SOL     OW 5297   3.686   1.501   3.312 -0.1679  0.2363 -0.1146
 1325SOL    HW1 5298   3.614   1.558   3.338  0.5538  0.2576  2.0202
 1325SOL    HW2 5299   3.765   1.553   3.328  0.5009 -1.2225  1.7653
 1325SOL     MW 5300   3.687   1.515   3.317  0.0101  0.0523  0.3993
 1326SOL     OW 5301   2.106   3.351   3.018 -0.3239  0.0665 -0.0715
 1326SOL    HW1 5302   2.177   3.332   2.956 -1.7482 -0.7129 -1.5341
 1326SOL    HW2 5303   2.078   3.440   2.994 -0.2760  0.1237  0.0837
 1326SOL     MW 5304   2.112   3.360   3.007 -0.5001 -0.0260 -0.2389
 1327SOL     OW 5305   1.556   5.427   4.421 -0.3845  0.5467 -0.6098
 1327SOL    HW1 5306   1.515   5.493   4.366  0.5868  2.1993  0.5626
 1327SOL    HW2 5307   1.649   5.432   4.399 -0.4488 -1.4971 -1.5513
 1327SOL     MW 5308   1.563   5.436   4.411 -0.2684  0.4966 -0.5802
 1328SOL     OW 5309   1.883   1.174   0.461 -0.2970  0.1533 -0.4529
 1328SOL    HW1 5310   1.803   1.122   0.451 -0.0117 -0.2223 -0.8181
 1328SOL    HW2 5311   1.921   1.176   0.373  1.0617 -1.2465  0.0593
 1328SOL     MW 5312   1.877   1.167   0.448 -0.0865 -0.0740 -0.4341
 1329SOL     OW 5313   2.884   2.415   5.431 -0.1245 -0.4358  0.4843
 1329SOL    HW1 5314   2.824   2.348   5.463  0.9752 -1.6336  0.1086
 1329SOL    HW2 5315   2.942   2.369   5.370  2.0503  0.3369  1.8529
 1329SOL     MW 5316   2.884   2.400   5.428  0.2947 -0.4902  0.6114
 1330SOL     OW 5317   5.180   3.916   4.055  0.6691 -0.0559 -0.0495
 1330SOL    HW1 5318   5.173   3.994   4.001  2.0993 -1.0533 -1.8044
 1330SOL    HW2 5319   5.112   3.857   4.021  0.5354 -0.1165  0.3141
 1330SOL     MW 5320   5.170   3.918   4.044  0.8351 -0.1913 -0.2276
 1331SOL     OW 5321   4.039   1.755   0.570 -0.1587  0.7008 -0.0145
 1331SOL    HW1 5322   4.077   1.692   0.632 -1.5746 -0.0632  0.1312
 1331SOL    HW2 5323   4.113   1.804   0.537  0.8860 -0.3831  0.6351
 1331SOL     MW 5324   4.053   1.753   0.573 -0.2062  0.4643  0.0873
 1332SOL     OW 5325   2.270   1.425   2.674 -0.0434  0.9027  0.4494
 1332SOL    HW1 5326   2.340   1.490   2.675 -0.1775  1.0480  1.5078
 1332SOL    HW2 5327   2.292   1.367   2.600  1.7826  0.3110  1.3896
 1332SOL     MW 5328   2.282   1.426   2.665  0.1732  0.8456  0.7052
 1333SOL     OW 5329   0.893   4.957   0.235  0.3526 -0.5150  0.4185
 1333SOL    HW1 5330   0.815   4.908   0.210  0.3432 -0.4395  0.3032
 1333SOL    HW2 5331   0.966   4.910   0.194  0.1435  1.0237 -1.8779
 1333SOL     MW 5332   0.893   4.945   0.227  0.3247 -0.3083  0.1098
 1334SOL     OW 5333   3.934   3.579   2.411  0.2309 -0.1644 -0.1210
 1334SOL    HW1 5334   4.023   3.605   2.384 -0.4265  0.1692 -2.1366
 1334SOL    HW2 5335   3.898   3.535   2.334 -1.6519  0.4769  0.3480
 1334SOL     MW 5336   3.941   3.577   2.398 -0.0943 -0.0396 -0.3190
 1335SOL     OW 5337   0.976   0.880   3.120  0.4434  0.4044 -0.0390
 1335SOL    HW1 5338   0.900   0.861   3.065 -1.0733 -0.7360  2.2977
 1335SOL    HW2 5339   1.049   0.887   3.058 -1.2683 -0.0081 -2.2340
 1335SOL     MW 5340   0.976   0.879   3.105  0.0302  0.2056 -0.0209
 1336SOL     OW 5341   0.579   4.935   0.014 -0.0970 -0.2491 -0.6396
 1336SOL    HW1 5342   0.568   4.994   0.088  1.4623  0.0265 -0.5960
 1336SOL    HW2 5343   0.522   4.860   0.034 -1.0434  0.6013 -0.0374
 1336SOL     MW 5344   0.570   4.933   0.026 -0.0186 -0.1050 -0.5569
 1337SOL     OW 5345   3.918   1.201   4.154  0.1590 -0.2603 -0.1568
 1337SOL    HW1 5346   3.871   1.212   4.071  0.1951 -0.8053 -0.2587
 1337SOL    HW2 5347   3.851   1.211   4.221 -0.5339 -2.8712 -0.3510
 1337SOL     MW 5348   3.903   1.203   4.152  0.0749 -0.6643 -0.1947
 1338SOL     OW 5349   1.643   4.502   2.587  0.5035  0.2213  0.0818
 1338SOL    HW1 5350   1.624   4.593   2.612 -0.0304 -0.1795  1.2102
 1338SOL    HW2 5351   1.563   4.471   2.546  1.2702  0.7728 -1.9294
 1338SOL     MW 5352   1.631   4.510   2.585  0.5333  0.2406 -0.0312
 1339SOL     OW 5353   4.075   2.814   0.870  0.0171 -0.5328  0.4343
 1339SOL    HW1 5354   4.160   2.856   0.885  0.6353 -1.1270 -1.2322
 1339SOL    HW2 5355   4.023   2.881   0.826 -0.2048 -0.3668  0.9344
 1339SOL     MW 5356   4.079   2.828   0.866  0.0678 -0.5876  0.2850
 1340SOL     OW 5357   2.963   2.835   3.923  0.0788  0.2432 -0.3268
 1340SOL    HW1 5358   3.059   2.831   3.920  0.2252 -0.9265  2.5119
 1340SOL    HW2 5359   2.944   2.928   3.938  0.9313  0.2735  0.7870
 1340SOL     MW 5360   2.973   2.846   3.925  0.2067  0.0974  0.1792
 1341SOL     OW 5361   2.428   3.084   1.337  0.2459 -0.4433 -0.5979
 1341SOL    HW1 5362   2.415   2.995   1.304  2.2518 -1.4177  1.0115
 1341SOL    HW2 5363   2.521   3.101   1.323  0.1215  0.9710  0.1164
 1341SOL     MW 5364   2.438   3.074   1.331  0.4868 -0.3870 -0.3004
 1342SOL     OW 5365   2.341   2.477   2.215  0.6968  0.0541  0.7289
 1342SOL    HW1 5366   2.367   2.447   2.128  2.6495 -0.0848  1.3264
 1342SOL    HW2 5367   2.295   2.403   2.254 -0.9840  0.4140 -0.4720
 1342SOL     MW 5368   2.338   2.464   2.209  0.7316  0.0824  0.6517
 1343SOL     OW 5369   0.029   3.247   0.805  0.2403  0.3967  0.1816
 1343SOL    HW1 5370   0.107   3.280   0.761 -0.1790  0.6613 -0.3718
 1343SOL    HW2 5371  -0.018   3.199   0.737 -0.1680  0.3907  0.4682
 1343SOL     MW 5372   0.033   3.245   0.791  0.1344  0.4298  0.1475
 1344SOL     OW 5373   2.134   4.503   3.530 -0.0492  0.3601  0.0812
 1344SOL    HW1 5374   2.196   4.518   3.459  0.7900 -0.8128  0.5181
 1344SOL    HW2 5375   2.068   4.444   3.493 -0.6093  1.1553 -0.2173
 1344SOL     MW 5376   2.133   4.497   3.516 -0.0134  0.3118  0.0989
 1345SOL     OW 5377   4.509   4.247   2.078  0.2859 -0.3018  0.0666
 1345SOL    HW1 5378   4.427   4.241   2.029  0.8255 -1.3931 -0.7176
 1345SOL    HW2 5379   4.525   4.341   2.085  1.3699 -0.0236 -3.8820
 1345SOL     MW 5380   4.500   4.259   2.073  0.4938 -0.4059 -0.5393
 1346SOL     OW 5381   0.619   2.184   3.732 -0.9113  0.2393  0.0243
 1346SOL    HW1 5382   0.682   2.124   3.772 -1.1377 -0.0023  0.0204
 1346SOL    HW2 5383   0.535   2.138   3.737 -1.2060  0.8171  0.6097
 1346SOL     MW 5384   0.616   2.170   3.738 -0.9780  0.2823  0.0987
 1347SOL     OW 5385   2.824   5.373   0.414  0.1769  0.1325 -0.3441
 1347SOL    HW1 5386   2.858   5.285   0.397 -0.1941 -0.0124 -0.3553
 1347SOL    HW2 5387   2.762   5.361   0.485  1.5914  0.7112  1.0414
 1347SOL     MW 5388   2.820   5.360   0.421  0.3105  0.1880 -0.1682
 1348SOL     OW 5389   4.134   3.764   2.997  0.0838 -0.4193 -0.2168
 1348SOL    HW1 5390   4.184   3.808   3.066  1.4060 -0.3033 -1.2136
 1348SOL    HW2 5391   4.084   3.697   3.044  0.1009  0.3737  0.9856
 1348SOL     MW 5392   4.134   3.761   3.012  0.2552 -0.3030 -0.1905
 1349SOL     OW 5393   3.402   0.764   3.395  0.3633  0.4367 -0.3729
 1349SOL    HW1 5394   3.466   0.708   3.441 -1.7633 -1.6939  0.1730
 1349SOL    HW2 5395   3.320   0.715   3.400 -0.9483  2.2484 -2.6075
 1349SOL     MW 5396   3.400   0.750   3.402 -0.0768  0.3959 -0.5891
 1350SOL     OW 5397   3.991   0.810   4.840 -0.1730  0.3209 -0.6657
 1350SOL    HW1 5398   3.912   0.808   4.893  0.0321  1.9612 -0.2406
 1350SOL    HW2 5399   4.053   0.754   4.887 -0.4906  0.5082 -0.0134
 1350SOL     MW 5400   3.989   0.802   4.853 -0.1874  0.5549 -0.5278
 1351SOL     OW 5401   0.934   2.183   3.979  0.3833 -0.2915  0.2877
 1351SOL    HW1 5402   0.932   2.246   3.907  0.1247  0.8360  1.2306
 1351SOL    HW2 5403   0.900   2.232   4.054  0.1414 -1.5885  1.0570
 1351SOL     MW 5404   0.930   2.198   3.980  0.3193 -0.3132  0.5068
 1352SOL     OW 5405   2.371   2.771   2.382  0.1430  0.1273 -0.2589
 1352SOL    HW1 5406   2.386   2.678   2.396  0.5716  0.0538 -1.1593
 1352SOL    HW2 5407   2.459   2.809   2.372  0.1558  1.0427  2.4027
 1352SOL     MW 5408   2.384   2.764   2.382  0.1995  0.2351 -0.0334
 1353SOL     OW 5409   2.911   0.610   0.954 -0.4627 -0.1626 -0.2660
 1353SOL    HW1 5410   2.990   0.658   0.978 -0.8969  1.9478 -2.7186
 1353SOL    HW2 5411   2.938   0.518   0.953  1.8970  0.4814 -0.8619
 1353SOL     MW 5412   2.924   0.604   0.957 -0.2162  0.1900 -0.6563
 1354SOL     OW 5413   4.471   1.854   1.827  0.5645  0.1005 -0.3200
 1354SOL    HW1 5414   4.476   1.891   1.915 -0.1150 -1.3359  0.3557
 1354SOL    HW2 5415   4.540   1.787   1.824 -1.3703 -2.0648  0.2805
 1354SOL     MW 5416   4.480   1.850   1.838  0.2299 -0.3606 -0.1566
 1355SOL     OW 5417   1.889   2.193   4.470 -0.2123  0.2020 -0.2616
 1355SOL    HW1 5418   1.839   2.119   4.435 -0.2906  0.0227  0.2283
 1355SOL    HW2 5419   1.973   2.155   4.494 -0.9285 -0.1648  1.8490
 1355SOL     MW 5420   1.893   2.179   4.468 -0.3140  0.1321  0.0713
 1356SOL     OW 5421   0.782   5.069   2.815  0.6157 -0.0122 -0.4275
 1356SOL    HW1 5422   0.835   5.119   2.753  1.4383  0.0666  0.3328
 1356SOL    HW2 5423   0.769   4.984   2.772  2.2332 -0.4040 -0.1897
 1356SOL     MW 5424   0.787   5.065   2.801  0.9281 -0.0522 -0.2998
 1357SOL     OW 5425   0.174   4.910   4.876 -0.5862  0.3743 -0.6969
 1357SOL    HW1 5426   0.225   4.985   4.846 -1.4376  1.1308 -0.3216
 1357SOL    HW2 5427   0.123   4.883   4.800 -0.6590  0.5115 -0.6979
 1357SOL     MW 5428   0.174   4.916   4.863 -0.7045  0.4887 -0.6490
 1358SOL     OW 5429   4.528   2.060   3.033 -0.1882  0.5485  0.5217
 1358SOL    HW1 5430   4.575   2.076   2.951  0.1542  2.4643  1.0473
 1358SOL    HW2 5431   4.559   2.129   3.092 -1.3406 -0.0540  1.8821
 1358SOL     MW 5432   4.538   2.071   3.030 -0.2919  0.7166  0.7631
 1359SOL     OW 5433   2.857   3.516   1.563  0.4158 -0.1828 -0.3741
 1359SOL    HW1 5434   2.814   3.433   1.584  1.9160 -0.4756  1.9049
 1359SOL    HW2 5435   2.927   3.492   1.502 -0.8092 -0.1095 -1.8878
 1359SOL     MW 5436   2.860   3.502   1.558  0.4510 -0.2109 -0.2761
 1360SOL     OW 5437   4.060   4.184   0.256  0.5607 -0.3429 -0.0700
 1360SOL    HW1 5438   4.064   4.234   0.175 -0.0845  0.3739  0.3238
 1360SOL    HW2 5439   4.128   4.223   0.312 -0.4446  0.6169  0.5109
 1360SOL     MW 5440   4.069   4.195   0.253  0.3494 -0.1283  0.0548
 1361SOL     OW 5441   5.089   2.860   4.197  0.2308  0.3390  0.4696
 1361SOL    HW1 5442   5.148   2.932   4.175 -0.1758  0.4918 -0.1254
 1361SOL    HW2 5443   5.113   2.789   4.138 -0.8191  0.7311 -0.4672
 1361SOL     MW 5444   5.099   2.860   4.187  0.0444  0.4088  0.2735
 1362SOL     OW 5445   1.533   5.053   0.313 -0.3058 -0.1498 -0.2857
 1362SOL    HW1 5446   1.563   5.026   0.226  1.4762 -0.6421  0.4335
 1362SOL    HW2 5447   1.484   4.978   0.346  0.4462 -0.6280 -0.2278
 1362SOL     MW 5448   1.531   5.040   0.306  0.0186 -0.2741 -0.1862
 1363SOL     OW 5449   3.380   2.008   4.521  0.0883 -0.0145  0.2782
 1363SOL    HW1 5450   3.293   2.030   4.488  0.9492 -1.2694 -3.3159
 1363SOL    HW2 5451   3.421   2.093   4.537 -1.3205  0.6195  0.7076
 1363SOL     MW 5452   3.374   2.022   4.518  0.0182 -0.0940 -0.1269
 1364SOL     OW 5453   3.305   2.345   2.054  0.1446  0.2637  0.4340
 1364SOL    HW1 5454   3.389   2.388   2.069  1.0384 -1.0100 -0.6779
 1364SOL    HW2 5455   3.249   2.374   2.126  1.3722  1.5241  0.9098
 1364SOL     MW 5456   3.308   2.354   2.065  0.4162  0.2620  0.3526
 1365SOL     OW 5457   0.982   2.612   1.369  0.1998 -0.0178  0.2429
 1365SOL    HW1 5458   1.032   2.692   1.389 -1.1745  0.7732  0.6539
 1365SOL    HW2 5459   1.020   2.580   1.287  1.0482  0.8285  0.2878
 1365SOL     MW 5460   0.993   2.618   1.361  0.1324  0.1918  0.3013
 1366SOL     OW 5461   1.523   3.874   1.497  0.3165  0.6024  0.0618
 1366SOL    HW1 5462   1.450   3.814   1.482  0.2333  0.5437  0.6882
 1366SOL    HW2 5463   1.599   3.817   1.504  0.1334  0.4883  1.4112
 1366SOL     MW 5464   1.523   3.859   1.496  0.2824  0.5803  0.3147
 1367SOL     OW 5465   4.478   4.305   3.524  0.7551  0.0232  0.0741
 1367SOL    HW1 5466   4.432   4.387   3.542  1.9498  1.0699 -1.4330
 1367SOL    HW2 5467   4.410   4.238   3.529 -0.4856  1.2468  0.1249
 1367SOL     MW 5468   4.463   4.307   3.527  0.7492  0.3138 -0.1123
 1368SOL     OW 5469   4.184   1.329   0.393  0.3890  0.3251 -0.2094
 1368SOL    HW1 5470   4.215   1.240   0.376  1.4877  0.7969 -0.7511
 1368SOL    HW2 5471   4.261   1.384   0.384 -0.5444  1.5203 -1.4227
 1368SOL     MW 5472   4.198   1.324   0.390  0.4102  0.5385 -0.4340
 1369SOL     OW 5473   0.264   2.950   5.071 -0.2569  0.1910  0.2337
 1369SOL    HW1 5474   0.349   2.995   5.075  0.0731 -0.4472  0.6509
 1369SOL    HW2 5475   0.200   3.020   5.077  0.2478  0.6080  0.9760
 1369SOL     MW 5476   0.267   2.965   5.072 -0.1500  0.1627  0.3821
 1370SOL     OW 5477   2.610   5.122   2.262  0.6646  0.0956 -0.5750
 1370SOL    HW1 5478   2.687   5.173   2.286 -0.1892  0.6054  1.2386
 1370SOL    HW2 5479   2.538   5.165   2.308 -0.5823 -0.8666 -1.5700
 1370SOL     MW 5480   2.611   5.134   2.271  0.3957  0.0377 -0.4702
 1371SOL     OW 5481   5.243   2.814   3.696 -0.1023  1.2767  0.2118
 1371SOL    HW1 5482   5.217   2.824   3.605  0.8952 -0.7288 -0.3508
 1371SOL    HW2 5483   5.169   2.769   3.737  0.3521  0.1706 -0.1606
 1371SOL     MW 5484   5.230   2.810   3.690  0.0836  0.8784  0.0921
 1372SOL     OW 5485   0.799   0.769   0.621 -0.0367  0.3046 -0.1125
 1372SOL    HW1 5486   0.792   0.818   0.539 -1.3996  1.5780  0.6951
 1372SOL    HW2 5487   0.782   0.835   0.689  1.0244 -0.7215  1.1976
 1372SOL     MW 5488   0.796   0.784   0.620 -0.0753  0.3363  0.1586
 1373SOL     OW 5489   1.707   3.000   2.155  0.1409 -0.0726  0.0600
 1373SOL    HW1 5490   1.616   3.008   2.126 -0.3688  0.8113  1.7555
 1373SOL    HW2 5491   1.708   2.921   2.207 -0.0301  0.6590  1.2127
 1373SOL     MW 5492   1.695   2.991   2.158  0.0537  0.1342  0.4246
 1374SOL     OW 5493   2.856   1.107   3.977 -0.0187 -0.2299  0.3634
 1374SOL    HW1 5494   2.846   1.093   4.071 -0.7207 -1.1948  0.1633
 1374SOL    HW2 5495   2.781   1.062   3.938  0.3704 -0.0118 -0.6720
 1374SOL     MW 5496   2.845   1.099   3.984 -0.0587 -0.3255  0.2053
 1375SOL     OW 5497   3.469   4.499   1.402 -0.0455  0.1156  0.2901
 1375SOL    HW1 5498   3.511   4.435   1.460  2.2431  3.0990  2.2246
 1375SOL    HW2 5499   3.539   4.530   1.345 -1.1554  0.7537 -0.7846
 1375SOL     MW 5500   3.483   4.495   1.402  0.1053  0.5792  0.4002
 1376SOL     OW 5501   1.112   3.937   3.526  0.0931 -0.0361 -0.4447
 1376SOL    HW1 5502   1.068   3.852   3.535  0.0284  0.0845  0.4840
 1376SOL    HW2 5503   1.076   3.990   3.597 -1.4047  1.4803 -2.2476
 1376SOL     MW 5504   1.102   3.933   3.537 -0.1069  0.1735 -0.5566
 1377SOL     OW 5505   3.905   5.069   2.969 -0.1229 -0.2382  0.4918
 1377SOL    HW1 5506   3.840   5.000   2.980 -0.1939 -0.3809 -0.6637
 1377SOL    HW2 5507   3.878   5.114   2.889  1.1016 -0.1905  0.0880
 1377SOL     MW 5508   3.893   5.066   2.960  0.0247 -0.2503  0.2922
 1378SOL     OW 5509   0.221   2.861   2.144 -0.3501  0.3221 -0.3554
 1378SOL    HW1 5510   0.280   2.921   2.098  1.6064 -1.2720 -0.0737
 1378SOL    HW2 5511   0.231   2.778   2.098 -0.6313 -0.5689  1.1396
 1378SOL     MW 5512   0.230   2.858   2.132 -0.1356  0.0040 -0.1279
 1379SOL     OW 5513   4.041   1.333   3.860 -0.2103 -0.5441 -1.0820
 1379SOL    HW1 5514   4.051   1.371   3.773 -1.9913  1.8878 -0.3184
 1379SOL    HW2 5515   3.974   1.265   3.848 -0.3617 -0.3074 -1.6220
 1379SOL     MW 5516   4.034   1.329   3.847 -0.4577 -0.2025 -1.0534
 1380SOL     OW 5517   4.658   0.756   3.300  0.4593 -0.1863 -0.1294
 1380SOL    HW1 5518   4.625   0.840   3.333  0.8918  0.5006 -1.3759
 1380SOL    HW2 5519   4.597   0.691   3.336  0.6894  0.5218  1.6799
 1380SOL     MW 5520   4.646   0.758   3.309  0.5441 -0.0077 -0.0573
 1381SOL     OW 5521   3.311   4.184   4.054 -0.1133 -0.2201 -0.1679
 1381SOL    HW1 5522   3.383   4.203   3.993 -1.0322 -0.1410 -1.2658
 1381SOL    HW2 5523   3.337   4.103   4.097  0.7987 -0.0048 -0.2933
 1381SOL     MW 5524   3.324   4.176   4.051 -0.1142 -0.1824 -0.3245
 1382SOL     OW 5525   5.180   3.799   4.774  0.0076 -0.4014 -0.0505
 1382SOL    HW1 5526   5.120   3.746   4.721  0.3315 -1.1502  0.3208
 1382SOL    HW2 5527   5.176   3.886   4.735 -1.0634 -0.5215 -0.2475
 1382SOL     MW 5528   5.172   3.803   4.762 -0.0880 -0.5126 -0.0282
 1383SOL     OW 5529   4.903   2.791   1.432 -0.5907  0.1930 -0.2325
 1383SOL    HW1 5530   4.984   2.843   1.434  0.8669 -1.9295  0.8336
 1383SOL    HW2 5531   4.844   2.840   1.375  2.1547  0.8699 -2.7425
 1383SOL     MW 5532   4.906   2.804   1.425 -0.0527  0.0080 -0.4173
 1384SOL     OW 5533   4.457   3.739   3.874 -0.4629  1.0281 -0.6085
 1384SOL    HW1 5534   4.456   3.785   3.790  0.0476 -0.4322 -1.4451
 1384SOL    HW2 5535   4.458   3.646   3.851 -2.5004  0.5126  1.0183
 1384SOL     MW 5536   4.457   3.733   3.860 -0.6583  0.7752 -0.5073
 1385SOL     OW 5537   4.666   2.516   0.537 -0.4969 -0.3748  0.1446
 1385SOL    HW1 5538   4.703   2.520   0.448 -0.2020 -0.1652  0.2746
 1385SOL    HW2 5539   4.599   2.449   0.532 -1.4283  0.5717 -0.5891
 1385SOL     MW 5540   4.662   2.508   0.525 -0.5784 -0.2268  0.0673
 1386SOL     OW 5541   2.646   0.616   4.786 -0.1773 -0.4096 -0.5238
 1386SOL    HW1 5542   2.715   0.676   4.815 -1.6411  1.0576  0.0176
 1386SOL    HW2 5543   2.643   0.549   4.855 -0.1982  0.2490  0.1199
 1386SOL     MW 5544   2.655   0.615   4.798 -0.3674 -0.1375 -0.3721
 1387SOL     OW 5545   4.649   3.855   1.046 -0.2744 -0.6172  0.1346
 1387SOL    HW1 5546   4.685   3.911   0.978 -1.7203  0.7573  0.4380
 1387SOL    HW2 5547   4.712   3.783   1.054  1.0463  0.3461 -1.0792
 1387SOL     MW 5548   4.662   3.853   1.038 -0.2904 -0.3179  0.0181
 1388SOL     OW 5549   2.007   3.165   1.317  0.3638 -0.3270 -0.1166
 1388SOL    HW1 5550   2.012   3.086   1.262  0.3633 -0.6510  0.3464
 1388SOL    HW2 5551   2.090   3.210   1.300  0.2869 -0.3305 -0.5224
 1388SOL     MW 5552   2.019   3.161   1.308  0.3539 -0.3689 -0.1093
 1389SOL     OW 5553   0.977   0.369   0.333  0.3107  0.2252 -0.2036
 1389SOL    HW1 5554   0.920   0.310   0.382 -0.9143  0.8911 -0.7874
 1389SOL    HW2 5555   0.982   0.448   0.387 -1.7439  1.2978 -1.4654
 1389SOL     MW 5556   0.971   0.372   0.346 -0.1091  0.4478 -0.4398
 1390SOL     OW 5557   0.723   1.500   2.075 -0.2127  0.2761 -0.5301
 1390SOL    HW1 5558   0.754   1.446   2.147  0.1313 -0.6740 -1.3716
 1390SOL    HW2 5559   0.652   1.450   2.035 -1.5335  1.5275  0.1249
 1390SOL     MW 5560   0.718   1.487   2.079 -0.3377  0.3147 -0.5540
 1391SOL     OW 5561   3.674   0.418   5.443 -0.2763  0.8857  0.2296
 1391SOL    HW1 5562   3.755   0.395   5.488 -0.8474 -1.7349  0.0520
 1391SOL    HW2 5563   3.618   0.454   5.511 -0.6481 -1.7849  1.4433
 1391SOL     MW 5564   3.677   0.420   5.457 -0.3970  0.2083  0.3622
 1392SOL     OW 5565   0.781   2.096   3.528 -0.0928 -0.0050 -0.2990
 1392SOL    HW1 5566   0.723   2.134   3.594  2.2740  0.2540  1.7974
 1392SOL    HW2 5567   0.726   2.084   3.451 -2.6079  1.2219  1.1917
 1392SOL     MW 5568   0.767   2.100   3.527 -0.1118  0.1852  0.1602
 1393SOL     OW 5569   2.523   0.922   0.126 -0.2586  0.2330  0.2291
 1393SOL    HW1 5570   2.530   0.875   0.043  0.0332  0.0577  0.3512
 1393SOL    HW2 5571   2.445   0.885   0.168  0.7467 -1.1865  0.9594
 1393SOL     MW 5572   2.514   0.911   0.121 -0.0925  0.0288  0.3382
 1394SOL     OW 5573   3.538   3.744   1.158 -0.1190  0.2808 -0.5757
 1394SOL    HW1 5574   3.595   3.818   1.181 -0.0484  0.1105 -0.1983
 1394SOL    HW2 5575   3.597   3.683   1.113  0.2064 -0.2892  0.5924
 1394SOL     MW 5576   3.553   3.746   1.155 -0.0683  0.1860 -0.3779
 1395SOL     OW 5577   2.770   0.924   2.619 -0.0374 -0.1335 -0.9874
 1395SOL    HW1 5578   2.801   1.001   2.666 -0.0911 -0.5686 -0.2126
 1395SOL    HW2 5579   2.796   0.938   2.528  0.2238  0.6496 -0.7958
 1395SOL     MW 5580   2.777   0.935   2.614 -0.0108 -0.0889 -0.8637
 1396SOL     OW 5581   0.479   4.660   4.878  0.9020 -0.0345  0.6027
 1396SOL    HW1 5582   0.536   4.617   4.813 -0.3863  1.0457 -1.3483
 1396SOL    HW2 5583   0.480   4.752   4.853 -2.7159 -0.1217 -0.4368
 1396SOL     MW 5584   0.487   4.666   4.866  0.2739  0.0926  0.2199
 1397SOL     OW 5585   2.584   2.261   1.259  0.6812 -0.2329 -0.0400
 1397SOL    HW1 5586   2.562   2.190   1.199  2.7859 -0.5284 -0.5517
 1397SOL    HW2 5587   2.578   2.222   1.346  0.1469 -0.5385 -0.2112
 1397SOL     MW 5588   2.581   2.247   1.263  0.8822 -0.3098 -0.1274
 1398SOL     OW 5589   0.401   2.840   0.831 -1.0899 -0.1180 -0.2239
 1398SOL    HW1 5590   0.395   2.908   0.898  1.1834 -0.8785  0.8593
 1398SOL    HW2 5591   0.405   2.758   0.880 -0.8169 -0.8150 -1.3590
 1398SOL     MW 5592   0.401   2.838   0.846 -0.7640 -0.3046 -0.2305
 1399SOL     OW 5593   1.165   4.846   3.178  0.6485 -0.7308 -0.4047
 1399SOL    HW1 5594   1.191   4.914   3.240 -1.2410 -1.4548  1.3012
 1399SOL    HW2 5595   1.233   4.779   3.186  0.6308 -0.6434  0.6336
 1399SOL     MW 5596   1.177   4.846   3.187  0.4044 -0.8123 -0.0534
 1400SOL     OW 5597   4.053   1.411   4.878 -0.1922  0.6265  0.2412
 1400SOL    HW1 5598   4.009   1.472   4.938  0.2128  1.1951 -0.0274
 1400SOL    HW2 5599   3.985   1.349   4.853  0.0640 -0.7389  2.6999
 1400SOL     MW 5600   4.038   1.411   4.882 -0.1075  0.5245  0.5216
 1401SOL     OW 5601   3.872   1.646   4.484 -0.8206 -0.0838 -0.1066
 1401SOL    HW1 5602   3.886   1.633   4.577 -1.6285  1.0901  0.1991
 1401SOL    HW2 5603   3.955   1.621   4.443 -0.6897 -1.2926  0.8380
 1401SOL     MW 5604   3.884   1.641   4.490 -0.9073 -0.0882  0.0535
 1402SOL     OW 5605   5.041   4.640   4.738 -0.0087  0.3290  0.2656
 1402SOL    HW1 5606   5.046   4.690   4.656  0.5797  1.7732  1.1455
 1402SOL    HW2 5607   4.950   4.653   4.767  0.3284  1.5194  0.8462
 1402SOL     MW 5608   5.030   4.648   4.731  0.1098  0.6663  0.4526
 1403SOL     OW 5609   1.618   0.784   2.549  0.2256 -0.3213 -0.2688
 1403SOL    HW1 5610   1.563   0.768   2.626 -0.5839 -1.2721 -1.0205
 1403SOL    HW2 5611   1.600   0.874   2.525 -0.6012 -0.4547 -0.1749
 1403SOL     MW 5612   1.609   0.793   2.556  0.0162 -0.4601 -0.3530
 1404SOL     OW 5613   0.073   4.120   4.404  0.0926  0.4162 -0.1575
 1404SOL    HW1 5614   0.019   4.056   4.358 -0.3581 -0.0777  1.0326
 1404SOL    HW2 5615   0.156   4.075   4.420  0.0102  0.3629  0.1096
 1404SOL     MW 5616   0.077   4.106   4.400  0.0243  0.3461  0.0290
 1405SOL     OW 5617   3.587   5.157   1.615 -0.6426 -0.7477 -0.3132
 1405SOL    HW1 5618   3.546   5.072   1.600 -0.3942 -1.3074  1.8950
 1405SOL    HW2 5619   3.515   5.214   1.643 -0.5696 -0.6209 -0.3809
 1405SOL     MW 5620   3.572   5.153   1.616 -0.6014 -0.8031 -0.0392
 1406SOL     OW 5621   2.177   3.005   0.083 -0.1635  0.2448  0.1423
 1406SOL    HW1 5622   2.095   3.028   0.126  0.4038  1.9727  0.3691
 1406SOL    HW2 5623   2.150   2.961   0.002 -1.3368  1.1527  0.0123
 1406SOL     MW 5624   2.163   3.002   0.078 -0.2411  0.5822  0.1547
 1407SOL     OW 5625   1.842   1.715   1.409 -0.4382 -0.0589 -0.0962
 1407SOL    HW1 5626   1.914   1.715   1.473 -0.4688  0.5036 -0.0603
 1407SOL    HW2 5627   1.883   1.744   1.327 -0.4925 -0.3574 -0.2316
 1407SOL     MW 5628   1.856   1.719   1.406 -0.4490 -0.0251 -0.1089
 1408SOL     OW 5629   5.162   1.824   3.119 -0.0728 -0.5066  0.3112
 1408SOL    HW1 5630   5.165   1.787   3.207  2.4663 -0.4371  0.3224
 1408SOL    HW2 5631   5.158   1.919   3.133  1.8558 -0.4086  0.4252
 1408SOL     MW 5632   5.162   1.832   3.132  0.4991 -0.4851  0.3272
 1409SOL     OW 5633   2.759   4.444   0.915  0.2525 -0.5850  0.3128
 1409SOL    HW1 5634   2.700   4.369   0.917  1.5647 -1.7092 -0.8461
 1409SOL    HW2 5635   2.756   4.480   1.003  0.0377 -2.3653  1.0634
 1409SOL     MW 5636   2.751   4.439   0.926  0.3930 -0.9568  0.2606
 1410SOL     OW 5637   3.327   3.612   5.160  0.0651  0.0345 -0.0744
 1410SOL    HW1 5638   3.375   3.561   5.225 -0.2059  0.4165  0.4386
 1410SOL    HW2 5639   3.345   3.703   5.184 -1.1411  0.1871  0.3092
 1410SOL     MW 5640   3.336   3.617   5.172 -0.1240  0.1029  0.0404
 1411SOL     OW 5641   4.047   5.031   4.146 -0.0551  0.1368 -0.4492
 1411SOL    HW1 5642   4.048   5.078   4.063  0.1251 -2.1247 -1.8143
 1411SOL    HW2 5643   4.037   4.939   4.122 -1.8079 -0.4738  2.1170
 1411SOL     MW 5644   4.046   5.025   4.133 -0.2564 -0.2309 -0.2954
 1412SOL     OW 5645   0.470   0.997   3.446 -0.6238 -0.1424  0.1444
 1412SOL    HW1 5646   0.385   1.003   3.403 -1.1560 -1.2851  0.9938
 1412SOL    HW2 5647   0.527   0.958   3.380 -0.8958  0.0835 -0.2331
 1412SOL     MW 5648   0.466   0.993   3.432 -0.7268 -0.2597  0.2048
 1413SOL     OW 5649   3.353   1.207   3.183 -0.1569  0.6001 -0.5857
 1413SOL    HW1 5650   3.353   1.181   3.091 -0.7330  0.1635 -0.4736
 1413SOL    HW2 5651   3.345   1.302   3.182 -1.6910  0.4981 -0.9917
 1413SOL     MW 5652   3.352   1.215   3.171 -0.4271  0.5311 -0.6233
 1414SOL     OW 5653   4.533   1.025   4.185  0.1986 -0.1101 -0.0247
 1414SOL    HW1 5654   4.607   1.000   4.129  0.6152 -0.2913  0.6081
 1414SOL    HW2 5655   4.551   1.116   4.210  0.8947 -0.5739  1.2142
 1414SOL     MW 5656   4.545   1.033   4.181  0.3411 -0.1927  0.2149
 1415SOL     OW 5657   2.766   1.231   0.236  0.0428 -0.5315 -0.0789
 1415SOL    HW1 5658   2.762   1.326   0.226  3.1259 -0.3030 -0.2654
 1415SOL    HW2 5659   2.675   1.202   0.231 -0.9316  2.3154 -0.7634
 1415SOL     MW 5660   2.754   1.239   0.234  0.3127 -0.1378 -0.1904
 1416SOL     OW 5661   5.057   4.967   3.391 -0.3841 -0.4112 -0.3057
 1416SOL    HW1 5662   5.108   5.037   3.433  0.5607 -1.2265 -0.0687
 1416SOL    HW2 5663   5.028   4.912   3.464  1.1001 -1.7220 -0.6649
 1416SOL     MW 5664   5.060   4.969   3.406 -0.0731 -0.6834 -0.3213
 1417SOL     OW 5665   3.401   3.805   3.503 -0.0680  0.2464 -0.1052
 1417SOL    HW1 5666   3.401   3.710   3.500  2.3646  0.2107 -0.6361
 1417SOL    HW2 5667   3.343   3.826   3.577  0.2845 -1.6697  0.7856
 1417SOL     MW 5668   3.393   3.796   3.512  0.2885 -0.0035 -0.0591
 1418SOL     OW 5669   2.478   3.420   4.420 -0.5107 -0.1167  0.2013
 1418SOL    HW1 5670   2.508   3.358   4.355  2.5016 -0.5591  1.8233
 1418SOL    HW2 5671   2.500   3.506   4.384  0.4753 -0.3242  0.2808
 1418SOL     MW 5672   2.485   3.423   4.407  0.0012 -0.1999  0.4191
 1419SOL     OW 5673   0.589   3.149   1.398  0.1518 -0.1716 -0.4882
 1419SOL    HW1 5674   0.674   3.192   1.406  0.0028  0.4461 -2.0391
 1419SOL    HW2 5675   0.537   3.184   1.471  0.4471  1.2997 -0.9576
 1419SOL     MW 5676   0.593   3.159   1.408  0.1705  0.0959 -0.7469
 1420SOL     OW 5677   2.590   1.873   1.234 -0.2172 -0.0123 -0.4092
 1420SOL    HW1 5678   2.514   1.870   1.292  0.0370  0.1314 -0.0679
 1420SOL    HW2 5679   2.573   1.948   1.176 -0.1646  0.2422 -0.0968
 1420SOL     MW 5680   2.578   1.883   1.234 -0.1779  0.0387 -0.3255
 1421SOL     OW 5681   3.595   0.217   0.976 -0.6254  0.5345 -0.0965
 1421SOL    HW1 5682   3.517   0.164   0.993  0.3376 -0.7932  0.2794
 1421SOL    HW2 5683   3.653   0.199   1.049  0.3388  0.9465 -0.7414
 1421SOL     MW 5684   3.592   0.208   0.987 -0.3787  0.4173 -0.1309
 1422SOL     OW 5685   5.073   3.688   4.513  0.0423 -0.5434  0.1299
 1422SOL    HW1 5686   5.139   3.713   4.448  1.5860 -2.0681  1.0151
 1422SOL    HW2 5687   5.052   3.597   4.492  0.1422 -0.8806  1.3811
 1422SOL     MW 5688   5.079   3.679   4.502  0.2527 -0.7817  0.4034
 1423SOL     OW 5689   3.172   0.664   1.164  0.3743 -0.2495 -0.3613
 1423SOL    HW1 5690   3.199   0.573   1.149 -1.0293 -0.4598 -1.9565
 1423SOL    HW2 5691   3.135   0.665   1.252 -1.2043 -1.6633 -0.9667
 1423SOL     MW 5692   3.171   0.653   1.173 -0.0074 -0.4574 -0.6430
 1424SOL     OW 5693   4.455   0.999   1.929  0.0748  0.4245 -0.4031
 1424SOL    HW1 5694   4.372   1.033   1.961  0.5424  0.9519  0.2858
 1424SOL    HW2 5695   4.440   0.981   1.836 -1.2278 -0.8947  0.0383
 1424SOL     MW 5696   4.443   1.001   1.921 -0.0321  0.3231 -0.2584
 1425SOL     OW 5697   0.200   3.660   1.869  0.4593 -0.3569 -0.0471
 1425SOL    HW1 5698   0.127   3.599   1.861 -1.0540  1.1658  1.3553
 1425SOL    HW2 5699   0.192   3.717   1.792  0.6916 -0.6885 -0.3225
 1425SOL     MW 5700   0.190   3.660   1.858  0.2953 -0.2044  0.0972
 1426SOL     OW 5701   2.911   2.576   5.216  0.0345  0.4100  0.4230
 1426SOL    HW1 5702   2.826   2.616   5.199 -1.2374 -2.7877 -1.6022
 1426SOL    HW2 5703   2.900   2.528   5.297 -0.7317 -1.3864 -0.6942
 1426SOL     MW 5704   2.899   2.575   5.224 -0.2264 -0.2293  0.0207
 1427SOL     OW 5705   4.802   3.865   1.473 -0.5955 -0.2632 -0.3416
 1427SOL    HW1 5706   4.773   3.884   1.562 -0.3364 -0.9976 -0.0934
 1427SOL    HW2 5707   4.721   3.860   1.422 -1.0775 -3.1448  0.5107
 1427SOL     MW 5708   4.788   3.866   1.478 -0.6240 -0.7261 -0.2007
 1428SOL     OW 5709   2.231   4.233   2.917  0.3695 -0.2859  0.0724
 1428SOL    HW1 5710   2.261   4.313   2.961 -1.1683  0.9016 -0.9286
 1428SOL    HW2 5711   2.255   4.246   2.825 -1.1459 -0.3110 -0.3479
 1428SOL     MW 5712   2.238   4.245   2.911 -0.0213 -0.1371 -0.1096
 1429SOL     OW 5713   1.675   3.018   2.960  0.7907 -0.3260  0.4778
 1429SOL    HW1 5714   1.695   3.107   2.930  0.0490 -0.2181  0.2788
 1429SOL    HW2 5715   1.732   3.005   3.036  2.9461 -0.7124 -1.1060
 1429SOL     MW 5716   1.685   3.028   2.966  0.9717 -0.3617  0.2496
 1430SOL     OW 5717   4.472   0.503   2.113 -0.3695  0.4519 -0.4757
 1430SOL    HW1 5718   4.536   0.472   2.049 -0.2660  1.6716 -0.9976
 1430SOL    HW2 5719   4.497   0.594   2.129 -1.6469  0.7827 -0.2793
 1430SOL     MW 5720   4.484   0.511   2.107 -0.5198  0.6504 -0.5174
 1431SOL     OW 5721   4.493   5.327   4.465 -0.5136 -0.6466  0.1051
 1431SOL    HW1 5722   4.541   5.406   4.492 -1.4648  0.0801 -0.3006
 1431SOL    HW2 5723   4.459   5.348   4.378  0.8035 -2.2113 -0.8624
 1431SOL     MW 5724   4.495   5.340   4.457 -0.4668 -0.7538 -0.0707
 1432SOL     OW 5725   4.364   1.529   4.936  0.2733  0.4714 -0.2385
 1432SOL    HW1 5726   4.271   1.518   4.955 -0.2999  1.2329 -2.3128
 1432SOL    HW2 5727   4.366   1.570   4.849  2.5879 -1.2204 -1.0801
 1432SOL     MW 5728   4.352   1.533   4.927  0.4962  0.3523 -0.6118
 1433SOL     OW 5729   2.766   4.504   1.636  0.0897  0.3934  0.3640
 1433SOL    HW1 5730   2.848   4.456   1.626  0.8986  1.9680 -1.2355
 1433SOL    HW2 5731   2.759   4.520   1.730  1.6589  0.2768  0.5320
 1433SOL     MW 5732   2.775   4.500   1.647  0.3941  0.5800  0.1807
 1434SOL     OW 5733   4.877   4.286   5.071 -0.1277  0.2445  0.0783
 1434SOL    HW1 5734   4.810   4.283   5.002  0.8079  1.1456 -0.9093
 1434SOL    HW2 5735   4.918   4.200   5.069  0.8674  0.7160 -1.5299
 1434SOL     MW 5736   4.873   4.275   5.062  0.1194  0.4202 -0.2540
 1435SOL     OW 5737   3.853   4.175   3.011  0.4133  0.1572 -0.1532
 1435SOL    HW1 5738   3.780   4.232   2.991 -0.1186 -0.1439  0.8578
 1435SOL    HW2 5739   3.916   4.231   3.056  0.0356  0.0430  0.5387
 1435SOL     MW 5740   3.852   4.189   3.014  0.2968  0.1040  0.0648
 1436SOL     OW 5741   1.823   0.756   1.778  0.0932  0.0978 -0.6313
 1436SOL    HW1 5742   1.901   0.807   1.754  0.2757 -0.5954 -1.5766
 1436SOL    HW2 5743   1.802   0.706   1.699 -1.9718  1.0701 -0.7518
 1436SOL     MW 5744   1.831   0.756   1.765 -0.1478  0.1335 -0.7678
 1437SOL     OW 5745   3.957   2.746   0.519  0.1144 -0.0670 -0.0325
 1437SOL    HW1 5746   4.032   2.701   0.558 -0.0771  0.6618  1.2355
 1437SOL    HW2 5747   3.882   2.717   0.570 -0.1599  0.8271  0.0863
 1437SOL     MW 5748   3.957   2.737   0.530  0.0548  0.1408  0.1450
 1438SOL     OW 5749   3.584   0.862   1.050 -0.2902  0.1362  0.0441
 1438SOL    HW1 5750   3.633   0.917   1.111  1.2698  0.5786 -1.5583
 1438SOL    HW2 5751   3.608   0.773   1.075 -0.4823  0.2665  0.7266
 1438SOL     MW 5752   3.593   0.858   1.061 -0.1151  0.2095 -0.0737
 1439SOL     OW 5753   0.233   3.958   3.290 -0.2806  1.2048 -0.6151
 1439SOL    HW1 5754   0.293   4.032   3.299  0.0562  0.8780 -0.0153
 1439SOL    HW2 5755   0.210   3.935   3.380 -0.3031  0.5266 -0.7859
 1439SOL     MW 5756   0.238   3.964   3.303 -0.2404  1.0761 -0.5602
 1440SOL     OW 5757   3.858   4.536   3.916 -0.2573 -0.1728  0.7358
 1440SOL    HW1 5758   3.946   4.502   3.933 -1.1029 -1.1350  3.8426
 1440SOL    HW2 5759   3.851   4.615   3.970 -1.7186 -0.8562  1.6033
 1440SOL     MW 5760   3.868   4.542   3.925 -0.5527 -0.3834  1.2446
 1441SOL     OW 5761   3.251   4.521   3.671 -0.3737 -0.4142  0.1297
 1441SOL    HW1 5762   3.265   4.545   3.763  0.6597 -0.8913  0.1029
 1441SOL    HW2 5763   3.315   4.574   3.622  0.4627 -1.6248 -0.1216
 1441SOL     MW 5764   3.261   4.531   3.676 -0.1343 -0.6302  0.0941
 1442SOL     OW 5765   2.512   2.749   1.741 -0.4101  0.3508 -0.3750
 1442SOL    HW1 5766   2.600   2.761   1.776  0.3456 -0.9324 -1.7565
 1442SOL    HW2 5767   2.493   2.830   1.694  0.1466  0.5062 -0.3286
 1442SOL     MW 5768   2.521   2.761   1.739 -0.2421  0.2064 -0.5459
 1443SOL     OW 5769   2.137   0.812   0.024 -0.1602 -0.2227  0.4044
 1443SOL    HW1 5770   2.170   0.837   0.110  2.2268 -0.5342 -0.3484
 1443SOL    HW2 5771   2.146   0.717   0.022  0.0514 -0.1951 -0.2694
 1443SOL     MW 5772   2.142   0.803   0.035  0.1725 -0.2591  0.2218
 1444SOL     OW 5773   5.014   4.152   3.466  0.3413  0.5370 -0.3202
 1444SOL    HW1 5774   5.007   4.137   3.372  1.6598  0.7367 -0.4739
 1444SOL    HW2 5775   5.041   4.244   3.474  0.6563  0.3999  0.2355
 1444SOL     MW 5776   5.016   4.162   3.455  0.5504  0.5450 -0.2688
 1445SOL     OW 5777   1.052   3.024   4.925  0.1151  0.6336  0.3848
 1445SOL    HW1 5778   1.081   3.114   4.939  2.2169 -0.0921  0.9589
 1445SOL    HW2 5779   1.112   2.971   4.976 -2.0680 -1.0282  1.3781
 1445SOL     MW 5780   1.063   3.029   4.933  0.1047  0.3280  0.5854
 1446SOL     OW 5781   3.179   0.118   3.341 -0.1733 -0.2479  0.3067
 1446SOL    HW1 5782   3.092   0.157   3.341 -0.3676 -0.5260  3.0395
 1446SOL    HW2 5783   3.239   0.192   3.350 -0.1815 -0.1479 -0.4243
 1446SOL     MW 5784   3.176   0.132   3.342 -0.1992 -0.2707  0.5630
 1447SOL     OW 5785   2.561   0.302   1.246 -0.0871  0.0959  0.1516
 1447SOL    HW1 5786   2.622   0.229   1.250  0.2857  0.4832  2.1205
 1447SOL    HW2 5787   2.610   0.373   1.205 -0.0539 -0.3548 -0.6072
 1447SOL     MW 5788   2.575   0.302   1.241 -0.0351  0.0878  0.3065
 1448SOL     OW 5789   4.118   3.066   0.213 -0.6216 -0.2220 -0.2250
 1448SOL    HW1 5790   4.113   2.996   0.278 -0.6598  1.4129  1.6188
 1448SOL    HW2 5791   4.126   3.020   0.129 -1.7890 -2.4239  0.7805
 1448SOL     MW 5792   4.119   3.051   0.211 -0.7759 -0.2946  0.1398
 1449SOL     OW 5793   0.769   0.373   5.340 -0.4742  0.0607 -0.3266
 1449SOL    HW1 5794   0.727   0.346   5.258 -2.3252  4.5436 -1.0980
 1449SOL    HW2 5795   0.816   0.453   5.318  0.2746  0.5794  2.7117
 1449SOL     MW 5796   0.769   0.380   5.327 -0.6153  0.7010 -0.0364
 1450SOL     OW 5797   0.883   0.171   4.670  0.1893  0.1162 -0.0900
 1450SOL    HW1 5798   0.955   0.121   4.631 -0.9471 -1.0106 -0.8315
 1450SOL    HW2 5799   0.861   0.235   4.603  0.3653  0.3306  0.0556
 1450SOL     MW 5800   0.890   0.173   4.656  0.0664 -0.0006 -0.1663
 1451SOL     OW 5801   1.294   3.651   4.965  0.3164 -0.0171 -0.1566
 1451SOL    HW1 5802   1.382   3.676   4.991  0.8310 -0.8511 -1.0534
 1451SOL    HW2 5803   1.304   3.610   4.880 -1.0522  0.6389 -0.6665
 1451SOL     MW 5804   1.306   3.649   4.958  0.2071 -0.0399 -0.3367
 1452SOL     OW 5805   0.482   0.987   1.162  0.0023  0.1293  0.4533
 1452SOL    HW1 5806   0.431   1.063   1.135  3.0152  2.4745  0.8994
 1452SOL    HW2 5807   0.470   0.924   1.091 -0.2353  2.1743 -1.4324
 1452SOL     MW 5808   0.474   0.988   1.150  0.3576  0.6913  0.2690
 1453SOL     OW 5809   2.056   0.966   1.580  0.0337  0.3312  0.0972
 1453SOL    HW1 5810   2.084   1.043   1.530  0.8629 -0.3954 -0.6019
 1453SOL    HW2 5811   2.137   0.930   1.615 -0.3682 -0.1239  0.5736
 1453SOL     MW 5812   2.070   0.972   1.578  0.0884  0.1800  0.0687
 1454SOL     OW 5813   3.389   2.571   1.034  0.2268 -0.5515  0.3759
 1454SOL    HW1 5814   3.460   2.612   0.986  0.3162 -0.0002  0.9724
 1454SOL    HW2 5815   3.310   2.594   0.985  0.5178 -2.0609 -0.9134
 1454SOL     MW 5816   3.388   2.579   1.021  0.2755 -0.6741  0.2872
 1455SOL     OW 5817   2.669   5.218   0.924 -0.1218 -0.1609  0.6684
 1455SOL    HW1 5818   2.625   5.256   0.848 -2.2830 -1.7920  0.9990
 1455SOL    HW2 5819   2.751   5.183   0.889 -0.2203  0.7254 -0.5252
 1455SOL     MW 5820   2.674   5.219   0.910 -0.4110 -0.2563  0.5579
 1456SOL     OW 5821   2.539   5.112   4.483  0.8232 -0.3249  0.7327
 1456SOL    HW1 5822   2.533   5.199   4.445 -1.5593 -0.8993 -0.3550
 1456SOL    HW2 5823   2.516   5.052   4.412 -0.5362 -1.6387  2.2012
 1456SOL     MW 5824   2.535   5.115   4.469  0.3442 -0.5666  0.7815
 1457SOL     OW 5825   4.421   1.965   4.069  0.4020 -0.4268  0.2602
 1457SOL    HW1 5826   4.384   1.999   4.151  0.4130 -0.6176  0.3447
 1457SOL    HW2 5827   4.445   2.043   4.020  1.5001 -0.3176  0.9379
 1457SOL     MW 5828   4.419   1.979   4.073  0.5439 -0.4373  0.3578
 1458SOL     OW 5829   5.267   1.778   1.654  0.3819 -0.1832  0.3588
 1458SOL    HW1 5830   5.295   1.699   1.702  0.9101 -1.1334 -1.4241
 1458SOL    HW2 5831   5.334   1.843   1.674  1.6868 -1.1795 -0.5850
 1458SOL     MW 5832   5.279   1.776   1.663  0.6166 -0.4324  0.0097
 1459SOL     OW 5833   5.097   0.674   1.151 -0.1614 -0.1774 -0.0651
 1459SOL    HW1 5834   5.020   0.699   1.201  0.6496  0.1973  1.0441
 1459SOL    HW2 5835   5.085   0.714   1.066 -1.3676 -0.4537 -0.0484
 1459SOL     MW 5836   5.086   0.682   1.147 -0.2120 -0.1648  0.0790
 1460SOL     OW 5837   4.119   4.114   3.755  0.1489  0.1195  0.1090
 1460SOL    HW1 5838   4.041   4.103   3.700 -0.7223  1.7205  0.9360
 1460SOL    HW2 5839   4.109   4.049   3.824 -1.4244  1.4657  1.2114
 1460SOL     MW 5840   4.107   4.104   3.756 -0.1640  0.4968  0.3560
 1461SOL     OW 5841   5.293   0.906   4.735 -0.1652 -0.8368  0.2695
 1461SOL    HW1 5842   5.363   0.847   4.705  1.2801 -0.1561  2.0783
 1461SOL    HW2 5843   5.310   0.988   4.688 -0.3764 -0.9752 -0.0507
 1461SOL     MW 5844   5.304   0.909   4.725 -0.0072 -0.7674  0.4600
 1462SOL     OW 5845   2.778   2.599   0.724  0.0893  0.1752 -0.2861
 1462SOL    HW1 5846   2.697   2.592   0.672 -0.4735  0.6941  0.5022
 1462SOL    HW2 5847   2.756   2.660   0.794  1.4598  1.0366 -0.5855
 1462SOL     MW 5848   2.765   2.606   0.726  0.1927  0.3519 -0.2235
 1463SOL     OW 5849   1.294   5.305   2.987 -0.2356 -0.3551  0.2738
 1463SOL    HW1 5850   1.224   5.267   3.041  0.5254 -0.1259  1.4646
 1463SOL    HW2 5851   1.260   5.301   2.898 -1.3327 -1.2209  0.6995
 1463SOL     MW 5852   1.281   5.300   2.982 -0.2786 -0.4366  0.4807
 1464SOL     OW 5853   4.206   1.204   2.161  0.0359 -0.2558  0.0265
 1464SOL    HW1 5854   4.210   1.296   2.136  0.1719  0.5560  2.6952
 1464SOL    HW2 5855   4.297   1.178   2.176  0.0763 -1.1198 -1.5134
 1464SOL     MW 5856   4.218   1.212   2.160  0.0585 -0.2625  0.1710
 1465SOL     OW 5857   3.056   5.423   1.140  0.2356  0.5858 -0.2784
 1465SOL    HW1 5858   3.036   5.455   1.228  0.7130  1.5346 -0.5037
 1465SOL    HW2 5859   3.132   5.474   1.113 -0.0050  0.4168 -1.3032
 1465SOL     MW 5860   3.063   5.434   1.148  0.2659  0.6856 -0.4385
 1466SOL     OW 5861   5.073   4.941   0.539  0.4303 -0.4574 -0.4799
 1466SOL    HW1 5862   5.120   4.946   0.456  0.6549 -0.6572 -0.3673
 1466SOL    HW2 5863   4.980   4.942   0.515  0.4894  0.0742 -0.6935
 1466SOL     MW 5864   5.067   4.941   0.526  0.4666 -0.4149 -0.4928
 1467SOL     OW 5865   1.138   4.349   4.544  0.5066 -0.9487  0.3395
 1467SOL    HW1 5866   1.214   4.362   4.488  1.2404 -1.2693  1.2438
 1467SOL    HW2 5867   1.173   4.317   4.627 -0.3459  1.2283  1.6475
 1467SOL     MW 5868   1.152   4.347   4.547  0.4914 -0.7110  0.6227
 1468SOL     OW 5869   2.048   0.169   2.907 -0.3160 -0.5671 -0.0856
 1468SOL    HW1 5870   1.968   0.161   2.959 -0.3632 -0.6938 -0.1764
 1468SOL    HW2 5871   2.094   0.243   2.945 -0.5797 -0.3568 -0.1667
 1468SOL     MW 5872   2.043   0.177   2.918 -0.3558 -0.5564 -0.1076
 1469SOL     OW 5873   2.642   3.045   3.162  0.2907  0.7661  0.2508
 1469SOL    HW1 5874   2.622   3.031   3.069 -0.2200 -1.6860  0.6551
 1469SOL    HW2 5875   2.558   3.063   3.203  0.4251  1.1735  0.3558
 1469SOL     MW 5876   2.629   3.046   3.155  0.2425  0.5044  0.3160
 1470SOL     OW 5877   1.017   2.033   2.520 -0.0729  0.5405 -0.2259
 1470SOL    HW1 5878   1.039   1.953   2.473  1.3543  0.5309  0.3987
 1470SOL    HW2 5879   1.101   2.068   2.550 -0.8387  0.9833  1.5963
 1470SOL     MW 5880   1.031   2.028   2.518  0.0118  0.5959  0.0873
 1471SOL     OW 5881   3.869   0.943   0.885 -0.1937 -0.2569 -0.3772
 1471SOL    HW1 5882   3.945   0.953   0.827 -0.0621  0.4163 -0.0998
 1471SOL    HW2 5883   3.804   0.897   0.833  0.2019 -0.3270 -0.8103
 1471SOL     MW 5884   3.871   0.939   0.871 -0.1262 -0.1797 -0.3971
 1472SOL     OW 5885   3.388   0.038   5.126 -0.0887 -0.4333 -0.5375
 1472SOL    HW1 5886   3.305   0.049   5.172 -0.4499 -0.4116 -1.1739
 1472SOL    HW2 5887   3.389  -0.055   5.103  1.0833 -0.9380  1.3419
 1472SOL     MW 5888   3.377   0.027   5.129  0.0151 -0.4951 -0.3784
 1473SOL     OW 5889   2.692   2.592   1.331  0.1627 -0.2596  0.4355
 1473SOL    HW1 5890   2.761   2.541   1.374 -0.4426 -0.0525  1.6831
 1473SOL    HW2 5891   2.623   2.599   1.397 -0.1818  1.3295 -0.0682
 1473SOL     MW 5892   2.692   2.586   1.345  0.0411 -0.0297  0.5307
 1474SOL     OW 5893   0.458   0.388   4.112  0.5234  0.4515 -0.6284
 1474SOL    HW1 5894   0.482   0.463   4.166  0.9655 -1.3435  1.8816
 1474SOL    HW2 5895   0.533   0.375   4.055  1.2928  0.7754  0.2795
 1474SOL     MW 5896   0.471   0.396   4.112  0.6785  0.2632 -0.1909
 1475SOL     OW 5897   3.083   0.665   5.360  0.1653  1.0446  0.4468
 1475SOL    HW1 5898   3.023   0.599   5.393  0.1292  1.7849  1.9573
 1475SOL    HW2 5899   3.034   0.711   5.292 -0.4825  0.7511  0.7162
 1475SOL     MW 5900   3.069   0.663   5.355  0.0777  1.1018  0.6746
 1476SOL     OW 5901   1.573   0.085   2.896 -0.1564  0.6902  0.2149
 1476SOL    HW1 5902   1.502   0.112   2.954  0.2882 -2.4389  2.4225
 1476SOL    HW2 5903   1.653   0.098   2.949  0.4659 -0.2967 -0.4636
 1476SOL     MW 5904   1.574   0.090   2.910 -0.0198  0.1633  0.4106
 1477SOL     OW 5905   4.521   0.397   3.254  0.1635  0.3939  0.4804
 1477SOL    HW1 5906   4.444   0.360   3.211 -0.2789  0.7825  0.9323
 1477SOL    HW2 5907   4.538   0.337   3.327  0.0782  0.4953  0.5847
 1477SOL     MW 5908   4.513   0.384   3.258  0.0960  0.4566  0.5516
 1478SOL     OW 5909   3.590   3.238   4.362 -0.4823  0.0222  0.1048
 1478SOL    HW1 5910   3.503   3.200   4.373 -1.0830  1.5188  0.9326
 1478SOL    HW2 5911   3.581   3.297   4.287  0.1298 -0.6413 -0.4987
 1478SOL     MW 5912   3.578   3.241   4.354 -0.4808  0.1289  0.1335
 1479SOL     OW 5913   0.156   2.834   2.405  0.2140 -0.2864  0.2190
 1479SOL    HW1 5914   0.196   2.915   2.437  2.9070 -1.3029 -0.3022
 1479SOL    HW2 5915   0.185   2.828   2.314 -1.7742 -0.7809 -0.4119
 1479SOL     MW 5916   0.165   2.844   2.397  0.3042 -0.4798  0.0715
 1480SOL     OW 5917   0.026   4.243   2.401 -0.2277 -0.1802  0.3480
 1480SOL    HW1 5918   0.095   4.255   2.336 -0.6662 -0.5102 -0.1888
 1480SOL    HW2 5919   0.006   4.332   2.431  0.8097 -0.1311  0.9208
 1480SOL     MW 5920   0.032   4.256   2.396 -0.1510 -0.2161  0.3526
 1481SOL     OW 5921   0.073   2.617   0.611  0.1974 -0.3050 -0.2560
 1481SOL    HW1 5922   0.098   2.710   0.603 -0.3712 -0.2259 -1.3167
 1481SOL    HW2 5923   0.141   2.570   0.562 -0.8789 -0.2077 -1.9277
 1481SOL     MW 5924   0.085   2.623   0.604 -0.0132 -0.2824 -0.6058
 1482SOL     OW 5925   2.411   3.163   3.186 -0.5983 -0.3283  0.0633
 1482SOL    HW1 5926   2.336   3.187   3.241  1.3257  2.9302  1.5969
 1482SOL    HW2 5927   2.460   3.245   3.175  1.2703 -1.6874 -3.2966
 1482SOL     MW 5928   2.408   3.177   3.192 -0.1128 -0.0852 -0.1705
 1483SOL     OW 5929   2.249   1.761   3.241  0.4768  0.0823 -0.0930
 1483SOL    HW1 5930   2.203   1.825   3.187  0.8101 -0.1711 -0.6888
 1483SOL    HW2 5931   2.339   1.762   3.209  0.3606 -1.0792 -0.5044
 1483SOL     MW 5932   2.255   1.769   3.230  0.5046 -0.0988 -0.2219
 1484SOL     OW 5933   2.784   1.742   0.807  0.6993  0.1111 -0.2273
 1484SOL    HW1 5934   2.732   1.675   0.763  0.7087  0.0952 -0.2139
 1484SOL    HW2 5935   2.751   1.825   0.771  1.8027  0.0341 -1.4765
 1484SOL     MW 5936   2.773   1.744   0.796  0.8418  0.0992 -0.3855
 1485SOL     OW 5937   3.740   3.940   0.548 -0.2105  0.0370  0.7227
 1485SOL    HW1 5938   3.774   3.949   0.459  0.2464 -0.1468  0.8733
 1485SOL    HW2 5939   3.648   3.916   0.537 -1.1221  3.3255  0.3118
 1485SOL     MW 5940   3.733   3.938   0.536 -0.2687  0.4344  0.6894
 1486SOL     OW 5941   0.245   3.568   0.603 -0.5858 -0.2780 -0.0895
 1486SOL    HW1 5942   0.301   3.637   0.641 -0.2520 -0.3126 -0.5150
 1486SOL    HW2 5943   0.169   3.566   0.661  0.4720 -1.2115  1.3604
 1486SOL     MW 5944   0.243   3.577   0.616 -0.4077 -0.4019  0.0416
 1487SOL     OW 5945   2.360   1.049   1.779  0.1876 -0.0820  0.0372
 1487SOL    HW1 5946   2.427   1.110   1.749 -2.9441  2.9062 -1.5061
 1487SOL    HW2 5947   2.306   1.099   1.840 -1.4419 -1.8988  0.2087
 1487SOL     MW 5948   2.362   1.063   1.783 -0.4219  0.0679 -0.1384
 1488SOL     OW 5949   2.104   0.528   4.799  0.1045  0.1076  0.0391
 1488SOL    HW1 5950   2.192   0.502   4.770  0.0466 -1.7599  1.3327
 1488SOL    HW2 5951   2.063   0.566   4.721  1.9890  0.8904 -0.6258
 1488SOL     MW 5952   2.110   0.529   4.785  0.3383 -0.0312  0.1196
 1489SOL     OW 5953   4.419   2.392   5.243 -0.2637  0.0505  0.0529
 1489SOL    HW1 5954   4.511   2.404   5.219 -0.1162  2.1358  1.4162
 1489SOL    HW2 5955   4.377   2.474   5.219 -2.0428 -1.1760 -1.3957
 1489SOL     MW 5956   4.426   2.404   5.237 -0.4726  0.1604  0.0420
 1490SOL     OW 5957   5.337   2.417   2.203 -0.1526  0.3037  0.0714
 1490SOL    HW1 5958   5.316   2.450   2.290 -0.8996 -2.6909  1.1661
 1490SOL    HW2 5959   5.409   2.471   2.173 -0.8087  2.3570  1.9078
 1490SOL     MW 5960   5.343   2.428   2.210 -0.3322  0.1832  0.4466
 1491SOL     OW 5961   5.273   3.196   2.850 -0.6911 -0.3768 -0.3394
 1491SOL    HW1 5962   5.346   3.163   2.798 -0.0693  1.0515 -0.4118
 1491SOL    HW2 5963   5.247   3.121   2.905  2.4578 -0.2914  1.5143
 1491SOL     MW 5964   5.279   3.182   2.850 -0.2084 -0.1830 -0.1114
 1492SOL     OW 5965   2.063   3.946   5.075  0.1713 -0.0619  0.0449
 1492SOL    HW1 5966   2.032   3.931   5.164  0.0950  2.1506  0.4499
 1492SOL    HW2 5967   2.127   4.017   5.084  2.1279 -1.5289 -1.3438
 1492SOL     MW 5968   2.067   3.953   5.088  0.4120  0.0335 -0.0810
 1493SOL     OW 5969   4.100   1.559   4.402 -0.3491 -0.1836 -0.0376
 1493SOL    HW1 5970   4.124   1.591   4.315 -0.6958 -0.8313 -0.3846
 1493SOL    HW2 5971   4.177   1.574   4.456  0.6514 -1.6524 -0.9616
 1493SOL     MW 5972   4.113   1.565   4.397 -0.2654 -0.4545 -0.2003
 1494SOL     OW 5973   1.618   1.903   5.247 -0.0360 -0.1697 -0.0045
 1494SOL    HW1 5974   1.684   1.958   5.289 -0.7896  1.4387 -0.8486
 1494SOL    HW2 5975   1.537   1.926   5.291 -0.3437 -0.7421 -0.2637
 1494SOL     MW 5976   1.616   1.913   5.258 -0.1719 -0.0371 -0.1458
 1495SOL     OW 5977   4.323   2.348   0.153  0.1839  0.0099 -0.5038
 1495SOL    HW1 5978   4.332   2.276   0.090 -0.7655  0.1502 -0.8216
 1495SOL    HW2 5979   4.234   2.381   0.139  0.1792  0.4528  0.4896
 1495SOL     MW 5980   4.313   2.343   0.143  0.0618  0.0846 -0.4173
 1496SOL     OW 5981   1.567   0.412   5.288  0.3481 -0.2310 -0.1492
 1496SOL    HW1 5982   1.556   0.318   5.278 -0.2666 -0.3960  1.6716
 1496SOL    HW2 5983   1.498   0.438   5.349  1.5477  1.1188  0.6997
 1496SOL     MW 5984   1.557   0.403   5.294  0.4230 -0.0793  0.1926
 1497SOL     OW 5985   3.422   3.687   1.940 -0.1433 -1.2288 -0.5595
 1497SOL    HW1 5986   3.508   3.662   1.904  1.1036  0.3398  1.1278
 1497SOL    HW2 5987   3.362   3.680   1.866  1.9976  0.4303 -2.6007
 1497SOL     MW 5988   3.426   3.683   1.926  0.2904 -0.8156 -0.6048
 1498SOL     OW 5989   1.446   3.865   5.359  0.1986  0.0121 -0.0378
 1498SOL    HW1 5990   1.473   3.954   5.382  1.4414 -0.6256  1.0600
 1498SOL    HW2 5991   1.357   3.876   5.323  1.2401  1.9899 -2.3030
 1498SOL     MW 5992   1.438   3.878   5.357  0.4910  0.1836 -0.1872
 1499SOL     OW 5993   4.244   1.439   1.243  0.1023 -0.2957 -0.1495
 1499SOL    HW1 5994   4.182   1.458   1.313 -0.4139 -0.6560 -0.5054
 1499SOL    HW2 5995   4.206   1.480   1.166  1.9068  2.3258  0.2285
 1499SOL     MW 5996   4.231   1.447   1.242  0.2672 -0.0062 -0.1467
 1500SOL     OW 5997   3.999   1.924   1.206 -0.3511  0.2137  0.2370
 1500SOL    HW1 5998   3.933   1.858   1.182 -1.4435  0.6514  1.8854
 1500SOL    HW2 5999   4.045   1.886   1.280  0.2188  0.5738  0.0730
 1500SOL     MW 6000   3.996   1.910   1.212 -0.4180  0.3158  0.4270
 1501SOL     OW 6001   0.144   2.501   4.366 -0.4792  0.2626 -0.8339
 1501SOL    HW1 6002   0.197   2.568   4.409  0.2842 -1.4485  1.0659
 1501SOL    HW2 6003   0.062   2.546   4.345  0.9198  2.4460 -2.0353
 1501SOL     MW 6004   0.141   2.515   4.369 -0.2024  0.3231 -0.7445
 1502SOL     OW 6005   0.887   1.605   5.273 -0.4480  0.3167  0.1830
 1502SOL    HW1 6006   0.794   1.609   5.251 -0.0384 -0.8238 -1.9720
 1502SOL    HW2 6007   0.914   1.697   5.281 -1.5068  0.6814 -0.2816
 1502SOL     MW 6008   0.878   1.617   5.271 -0.5311  0.2174 -0.1523
 1503SOL     OW 6009   2.798   1.829   1.383 -0.9096 -0.1270 -0.1843
 1503SOL    HW1 6010   2.817   1.919   1.410  1.6163 -0.3125 -1.1172
 1503SOL    HW2 6011   2.722   1.837   1.325 -1.3776  1.2289  0.5548
 1503SOL     MW 6012   2.790   1.842   1.379 -0.6462  0.0228 -0.2091
 1504SOL     OW 6013   4.415   5.298   0.980 -0.3114  0.3213 -0.2297
 1504SOL    HW1 6014   4.427   5.217   1.030  0.7050  0.3440 -0.4207
 1504SOL    HW2 6015   4.495   5.347   0.995 -0.2591  0.6091 -1.3674
 1504SOL     MW 6016   4.427   5.294   0.988 -0.1746  0.3611 -0.3998
 1505SOL     OW 6017   4.717   0.615   4.466  0.1011 -0.0607  0.3487
 1505SOL    HW1 6018   4.767   0.539   4.494 -1.9550 -1.2269  1.0827
 1505SOL    HW2 6019   4.662   0.583   4.394  1.2798  1.5092 -1.3581
 1505SOL     MW 6020   4.716   0.601   4.460 -0.0112 -0.0090  0.2241
 1506SOL     OW 6021   1.035   3.853   1.794  0.1630  0.4602  0.6282
 1506SOL    HW1 6022   0.967   3.877   1.857 -0.0875  4.1728 -0.7709
 1506SOL    HW2 6023   1.114   3.897   1.826  0.3675  1.2118 -0.8087
 1506SOL     MW 6024   1.037   3.862   1.806  0.1571  1.0317  0.2651
 1507SOL     OW 6025   4.531   0.987   2.842 -0.1476 -0.3038 -0.1511
 1507SOL    HW1 6026   4.534   0.976   2.937 -0.8360 -0.6201 -0.1553
 1507SOL    HW2 6027   4.600   0.929   2.809  0.6602  0.4414  0.1922
 1507SOL     MW 6028   4.540   0.978   2.850 -0.1323 -0.2489 -0.1077
 1508SOL     OW 6029   3.058   0.698   3.078 -0.2284 -0.4543 -0.0415
 1508SOL    HW1 6030   3.153   0.686   3.079 -0.1677 -0.0130  0.0139
 1508SOL    HW2 6031   3.025   0.635   3.015  0.0124 -1.2359  0.5961
 1508SOL     MW 6032   3.066   0.689   3.070 -0.1898 -0.4979  0.0472
 1509SOL     OW 6033   1.189   0.187   2.057 -0.4820 -0.1114  0.3935
 1509SOL    HW1 6034   1.269   0.238   2.042 -1.1176  0.9576  0.5004
 1509SOL    HW2 6035   1.118   0.251   2.045 -1.4672 -1.5248 -2.0544
 1509SOL     MW 6036   1.190   0.202   2.053 -0.6895 -0.1555  0.0938
 1510SOL     OW 6037   3.006   2.843   1.581  0.2616 -0.1310  0.1486
 1510SOL    HW1 6038   2.964   2.767   1.542 -0.6968 -0.1840  1.2442
 1510SOL    HW2 6039   3.099   2.819   1.587  0.2501 -0.5510 -0.9957
 1510SOL     MW 6040   3.013   2.830   1.576  0.1374 -0.1916  0.1423
 1511SOL     OW 6041   1.213   2.264   1.508  0.5665  0.2199 -0.0773
 1511SOL    HW1 6042   1.198   2.199   1.439  0.2195  1.2754 -1.0362
 1511SOL    HW2 6043   1.130   2.311   1.514  1.0758  1.1380 -0.0286
 1511SOL     MW 6044   1.200   2.261   1.500  0.5872  0.4726 -0.1938
 1512SOL     OW 6045   4.356   2.418   1.974  0.0108  0.4226  0.4585
 1512SOL    HW1 6046   4.381   2.509   1.957 -1.5665  0.9338  0.6595
 1512SOL    HW2 6047   4.365   2.408   2.069 -1.5880  0.9914  0.7081
 1512SOL     MW 6048   4.360   2.428   1.984 -0.3958  0.5609  0.5162
 1513SOL     OW 6049   3.791   4.275   0.283 -1.0881  0.0205 -0.0944
 1513SOL    HW1 6050   3.826   4.264   0.371 -0.4281 -1.3134 -0.4953
 1513SOL    HW2 6051   3.861   4.244   0.225 -1.5951  0.6579 -1.0843
 1513SOL     MW 6052   3.804   4.269   0.287 -1.0685 -0.0687 -0.2724
 1514SOL     OW 6053   4.727   1.549   1.651  0.3097 -0.2539  0.3036
 1514SOL    HW1 6054   4.743   1.625   1.594  2.9538 -1.6102 -0.9409
 1514SOL    HW2 6055   4.648   1.509   1.615 -1.2332  1.8993  1.0792
 1514SOL     MW 6056   4.719   1.554   1.639  0.4507 -0.1519  0.2435
 1515SOL     OW 6057   2.329   1.654   5.236 -0.3322 -0.8710  0.3941
 1515SOL    HW1 6058   2.279   1.707   5.173  2.3986 -0.4882 -1.6779
 1515SOL    HW2 6059   2.342   1.571   5.191  0.0805 -1.2819  1.2608
 1515SOL     MW 6060   2.324   1.650   5.222  0.0702 -0.8746  0.2398
 1516SOL     OW 6061   0.255   4.245   3.077 -0.1557  0.1674  0.1449
 1516SOL    HW1 6062   0.206   4.316   3.119  0.2715 -0.0382  1.0164
 1516SOL    HW2 6063   0.199   4.168   3.088  0.0451  0.0726  0.5322
 1516SOL     MW 6064   0.242   4.245   3.084 -0.0753  0.1289  0.3060
 1517SOL     OW 6065   4.171   4.672   1.622 -0.3372 -0.0621  0.1698
 1517SOL    HW1 6066   4.203   4.762   1.632  0.8333 -0.4997  0.4225
 1517SOL    HW2 6067   4.175   4.656   1.528  1.9562 -0.7256  0.3369
 1517SOL     MW 6068   4.175   4.682   1.611  0.1062 -0.2031  0.2235
 1518SOL     OW 6069   3.166   3.134   4.705 -0.0752  0.5981 -0.2591
 1518SOL    HW1 6070   3.126   3.127   4.619 -1.1454 -0.5212  0.3009
 1518SOL    HW2 6071   3.092   3.134   4.766  0.6267  1.9319  0.6544
 1518SOL     MW 6072   3.151   3.133   4.702 -0.1224  0.6255 -0.0705
 1519SOL     OW 6073   4.852   2.349   4.349  0.1585 -0.3417 -0.1525
 1519SOL    HW1 6074   4.907   2.428   4.354  0.5362 -0.6634  1.5415
 1519SOL    HW2 6075   4.860   2.309   4.436 -2.6659 -0.4853  0.1358
 1519SOL     MW 6076   4.860   2.354   4.361 -0.1547 -0.4013  0.1013
 1520SOL     OW 6077   3.250   5.265   3.832 -0.0793  0.3838  0.3121
 1520SOL    HW1 6078   3.331   5.311   3.849  0.3192 -0.9145  2.2258
 1520SOL    HW2 6079   3.249   5.252   3.737  2.3627 -0.2904  0.3295
 1520SOL     MW 6080   3.260   5.269   3.822  0.2843  0.1313  0.5593
 1521SOL     OW 6081   3.480   1.945   0.176 -0.7477 -0.3210 -0.1944
 1521SOL    HW1 6082   3.390   1.938   0.208 -0.7451 -1.2782 -0.3522
 1521SOL    HW2 6083   3.534   1.918   0.250 -0.4686  1.7845  0.4368
 1521SOL     MW 6084   3.475   1.941   0.189 -0.7116 -0.1740 -0.1338
 1522SOL     OW 6085   3.943   0.420   3.529  0.0498  0.1906  0.4337
 1522SOL    HW1 6086   3.944   0.516   3.531 -0.6487  0.1925  1.1156
 1522SOL    HW2 6087   4.021   0.395   3.578  1.0305  0.3985 -0.9640
 1522SOL     MW 6088   3.953   0.429   3.535  0.0860  0.2174  0.3420
 1523SOL     OW 6089   3.565   1.650   1.926  0.1176 -0.1940 -0.0054
 1523SOL    HW1 6090   3.644   1.676   1.879  0.6959 -0.0325  1.0330
 1523SOL    HW2 6091   3.526   1.733   1.954  0.5839 -0.3404  1.0928
 1523SOL     MW 6092   3.570   1.664   1.923  0.2513 -0.1921  0.2681
 1524SOL     OW 6093   2.066   0.452   0.809  0.0202  0.3222 -0.8708
 1524SOL    HW1 6094   2.109   0.470   0.725  2.6012  3.7026  0.9060
 1524SOL    HW2 6095   2.063   0.537   0.853 -2.9048 -0.9613  1.7950
 1524SOL     MW 6096   2.071   0.465   0.804 -0.0239  0.5906 -0.3021
 1525SOL     OW 6097   0.498   1.477   2.874 -0.5086 -0.2735  0.0221
 1525SOL    HW1 6098   0.411   1.441   2.891  0.0148 -1.1779  0.9046
 1525SOL    HW2 6099   0.497   1.500   2.782 -1.0452 -2.1215 -0.4795
 1525SOL     MW 6100   0.487   1.475   2.865 -0.5103 -0.6258  0.0709
 1526SOL     OW 6101   1.440   0.907   3.516  0.4840  0.2554  0.8059
 1526SOL    HW1 6102   1.488   0.825   3.526 -0.2316 -0.1896  0.7061
 1526SOL    HW2 6103   1.373   0.887   3.450  0.7162  1.1105  0.2999
 1526SOL     MW 6104   1.437   0.894   3.509  0.4221  0.3079  0.7283
 1527SOL     OW 6105   3.026   4.575   4.165  0.0228  0.0653 -0.0319
 1527SOL    HW1 6106   3.089   4.640   4.197 -0.3537  0.1406  0.5573
 1527SOL    HW2 6107   3.078   4.519   4.107  0.3423  0.9178 -0.5878
 1527SOL     MW 6108   3.041   4.576   4.162  0.0155  0.1840 -0.0276
 1528SOL     OW 6109   4.937   1.471   1.056 -0.5072 -0.0300 -0.9152
 1528SOL    HW1 6110   4.990   1.511   1.126 -2.7668  1.0107  0.3060
 1528SOL    HW2 6111   4.995   1.473   0.979  1.3926  0.5642  0.4408
 1528SOL     MW 6112   4.951   1.477   1.055 -0.5532  0.1793 -0.5853
 1529SOL     OW 6113   4.302   0.227   5.141 -0.4388  0.0252  0.0581
 1529SOL    HW1 6114   4.370   0.240   5.076  0.0239  2.3369  0.9088
 1529SOL    HW2 6115   4.273   0.136   5.128  1.6291 -0.4984 -1.3953
 1529SOL     MW 6116   4.307   0.217   5.131 -0.1148  0.2541 -0.0191
 1530SOL     OW 6117   0.072   1.621   1.494 -0.0838  0.2615 -0.3494
 1530SOL    HW1 6118   0.135   1.681   1.452  1.2381 -0.0616  1.0584
 1530SOL    HW2 6119  -0.005   1.674   1.509 -0.1998  0.6810 -2.1256
 1530SOL     MW 6120   0.070   1.635   1.490  0.0705  0.2738 -0.3966
 1531SOL     OW 6121   2.689   2.144   2.319  0.5555 -0.3812  0.3954
 1531SOL    HW1 6122   2.624   2.144   2.249  0.2721 -1.4570  0.6459
 1531SOL    HW2 6123   2.706   2.052   2.336  1.4080 -0.1211  1.0264
 1531SOL     MW 6124   2.683   2.133   2.312  0.6283 -0.4856  0.5082
 1532SOL     OW 6125   2.077   5.347   2.865  0.2000  0.3000  0.1621
 1532SOL    HW1 6126   2.067   5.440   2.887  0.5430  0.0858  1.2823
 1532SOL    HW2 6127   1.990   5.320   2.835 -0.2863  0.6437  1.2080
 1532SOL     MW 6128   2.064   5.356   2.864  0.1816  0.3166  0.4394
 1533SOL     OW 6129   0.931   1.678   1.987 -0.1779  0.2089  0.4003
 1533SOL    HW1 6130   0.864   1.619   2.021  0.3747 -0.7396 -0.1013
 1533SOL    HW2 6131   1.014   1.637   2.011  0.2213  0.9923  0.3888
 1533SOL     MW 6132   0.933   1.665   1.994 -0.0560  0.1878  0.3346
 1534SOL     OW 6133   1.203   4.643   2.165  0.3357 -0.1789  0.2845
 1534SOL    HW1 6134   1.135   4.606   2.109  0.8497  0.1719 -0.5929
 1534SOL    HW2 6135   1.285   4.622   2.120  0.7273  0.5934  0.6197
 1534SOL     MW 6136   1.205   4.635   2.152  0.4516 -0.0351  0.2151
 1535SOL     OW 6137   3.623   2.355   1.400  0.4148  0.1922  0.1340
 1535SOL    HW1 6138   3.538   2.369   1.356 -0.7401  0.8269  2.4131
 1535SOL    HW2 6139   3.639   2.436   1.448 -0.9564 -1.9728  4.8602
 1535SOL     MW 6140   3.614   2.367   1.400  0.0914 -0.0037  1.0307
 1536SOL     OW 6141   3.460   0.801   2.904 -0.3869  0.1326  0.2107
 1536SOL    HW1 6142   3.384   0.787   2.960 -0.8225  0.8036 -0.1935
 1536SOL    HW2 6143   3.497   0.714   2.891 -1.3865 -0.2828  0.0033
 1536SOL     MW 6144   3.455   0.788   2.909 -0.5706  0.1653  0.1324
 1537SOL     OW 6145   4.359   3.919   1.543 -0.4603 -0.8581  0.1484
 1537SOL    HW1 6146   4.424   3.898   1.476 -1.5017 -1.5896 -0.6667
 1537SOL    HW2 6147   4.380   3.860   1.615 -0.5632 -1.5156 -0.3456
 1537SOL     MW 6148   4.370   3.909   1.544 -0.6068 -1.0359 -0.0192
 1538SOL     OW 6149   1.222   1.648   2.335  0.0459 -0.3030 -0.0012
 1538SOL    HW1 6150   1.182   1.567   2.366 -0.8247 -0.7561 -2.1077
 1538SOL    HW2 6151   1.151   1.713   2.338 -0.1254 -0.4170 -1.1902
 1538SOL     MW 6152   1.208   1.646   2.339 -0.0875 -0.3756 -0.4231
 1539SOL     OW 6153   5.434   0.103   5.385 -0.3902 -0.1865  0.2063
 1539SOL    HW1 6154   5.390   0.068   5.308 -0.3476  0.5976 -0.1818
 1539SOL    HW2 6155   5.526   0.110   5.358 -0.8912  3.6135 -1.0448
 1539SOL     MW 6156   5.440   0.099   5.372 -0.4489  0.4003 -0.0036
 1540SOL     OW 6157   2.263   4.229   3.575 -0.1865 -0.6054 -0.2479
 1540SOL    HW1 6158   2.296   4.318   3.587  1.9436 -1.3614  0.0812
 1540SOL    HW2 6159   2.253   4.195   3.664 -2.3598 -0.2774 -0.3291
 1540SOL     MW 6160   2.266   4.236   3.588 -0.1920 -0.6602 -0.2162
 1541SOL     OW 6161   2.765   1.889   5.251 -0.0190  0.1123 -0.0443
 1541SOL    HW1 6162   2.794   1.803   5.220  0.9196  0.6782 -0.7956
 1541SOL    HW2 6163   2.671   1.890   5.233 -0.1158 -0.8931  0.3234
 1541SOL     MW 6164   2.757   1.878   5.245  0.0888  0.0561 -0.0934
 1542SOL     OW 6165   0.510   4.570   2.077 -0.3655 -0.4100  0.4755
 1542SOL    HW1 6166   0.471   4.482   2.076 -1.8599  0.2279 -0.5777
 1542SOL    HW2 6167   0.528   4.590   1.986  1.2508 -0.1351  0.8287
 1542SOL     MW 6168   0.507   4.561   2.065 -0.3499 -0.2931  0.3859
 1543SOL     OW 6169   0.976   3.549   0.043  0.3896  0.0278 -0.0807
 1543SOL    HW1 6170   0.935   3.555   0.129  0.3535  0.6913 -0.1420
 1543SOL    HW2 6171   1.026   3.467   0.046 -0.1052 -0.2685  0.3514
 1543SOL     MW 6172   0.977   3.539   0.054  0.3217  0.0748 -0.0332
 1544SOL     OW 6173   5.405   5.465   0.159  0.0118 -0.2602 -0.2710
 1544SOL    HW1 6174   5.375   5.379   0.130  2.0603 -0.3456 -2.4131
 1544SOL    HW2 6175   5.428   5.511   0.078  2.5615  0.9062  1.0099
 1544SOL     MW 6176   5.404   5.460   0.145  0.6004 -0.1219 -0.3812
 1545SOL     OW 6177   4.330   5.157   4.611  0.3599 -0.7029 -0.6963
 1545SOL    HW1 6178   4.275   5.117   4.544 -1.2434  0.4882 -0.1540
 1545SOL    HW2 6179   4.363   5.237   4.569  0.2648 -0.5333 -0.4495
 1545SOL     MW 6180   4.327   5.162   4.597  0.1425 -0.5287 -0.5953
 1546SOL     OW 6181   3.331   1.035   0.173  0.3580 -0.6866 -0.4497
 1546SOL    HW1 6182   3.253   0.996   0.134 -0.9228 -0.2426  1.5140
 1546SOL    HW2 6183   3.395   1.040   0.102 -1.7654 -0.0272 -2.3956
 1546SOL     MW 6184   3.329   1.030   0.159 -0.0777 -0.5454 -0.4474
 1547SOL     OW 6185   0.310   0.394   0.255  0.3512  0.7107  0.5446
 1547SOL    HW1 6186   0.338   0.485   0.261  0.2576  0.6840  1.6809
 1547SOL    HW2 6187   0.383   0.344   0.291  0.4169  0.3250 -0.1116
 1547SOL     MW 6188   0.323   0.399   0.260  0.3476  0.6579  0.6060
 1548SOL     OW 6189   0.144   2.847   5.292 -0.6374 -0.1173 -0.2958
 1548SOL    HW1 6190   0.185   2.873   5.209  1.0914 -1.8055 -0.0382
 1548SOL    HW2 6191   0.067   2.903   5.299  0.2945  1.5053 -2.0359
 1548SOL     MW 6192   0.140   2.858   5.282 -0.2968 -0.1257 -0.4856
 1549SOL     OW 6193   5.184   4.228   4.548  0.4169  0.7738  0.2529
 1549SOL    HW1 6194   5.178   4.320   4.520 -1.4729  1.4507  2.5549
 1549SOL    HW2 6195   5.094   4.197   4.549  1.1213 -1.6617 -1.9026
 1549SOL     MW 6196   5.172   4.236   4.545  0.2651  0.5487  0.2716
 1550SOL     OW 6197   5.123   1.957   3.474  0.3383 -0.1098 -0.3349
 1550SOL    HW1 6198   5.055   1.978   3.410 -2.6006 -2.3045  1.7826
 1550SOL    HW2 6199   5.159   1.874   3.444  2.3561  1.1142 -1.5274
 1550SOL     MW 6200   5.119   1.949   3.462  0.2204 -0.2340 -0.2165
 1551SOL     OW 6201   0.538   1.570   2.286  0.0608  0.4528  0.0236
 1551SOL    HW1 6202   0.590   1.567   2.205 -0.9324  0.3433 -0.6329
 1551SOL    HW2 6203   0.543   1.481   2.321 -2.9346 -0.7698 -2.2087
 1551SOL     MW 6204   0.545   1.558   2.280 -0.4498  0.2823 -0.3462
 1552SOL     OW 6205   4.822   3.192   1.952 -0.1539 -0.1539 -0.5442
 1552SOL    HW1 6206   4.851   3.127   1.887 -0.2621  0.0134 -0.7641
 1552SOL    HW2 6207   4.733   3.166   1.974 -0.6195  0.5669 -1.4919
 1552SOL     MW 6208   4.814   3.181   1.946 -0.2274 -0.0402 -0.6936
 1553SOL     OW 6209   0.256   0.094   0.732 -0.4361  0.4131 -0.4839
 1553SOL    HW1 6210   0.344   0.131   0.740 -0.2180 -0.4003  1.2451
 1553SOL    HW2 6211   0.198   0.170   0.727  0.1325  1.0409  1.5054
 1553SOL     MW 6212   0.260   0.108   0.732 -0.3354  0.3894 -0.0079
 1554SOL     OW 6213   0.388   2.404   2.753 -0.1338  0.0567  0.4562
 1554SOL    HW1 6214   0.446   2.365   2.687 -1.0508 -0.8211  0.1338
 1554SOL    HW2 6215   0.446   2.450   2.813  0.8845 -0.6797  0.0595
 1554SOL     MW 6216   0.403   2.405   2.752 -0.1208 -0.1500  0.3642
 1555SOL     OW 6217   4.010   4.543   5.054  0.1801  0.5270 -0.1704
 1555SOL    HW1 6218   3.952   4.467   5.049  1.8753 -0.9805  1.1640
 1555SOL    HW2 6219   4.050   4.549   4.967  0.6649 -0.7151 -0.0572
 1555SOL     MW 6220   4.008   4.534   5.042  0.4591  0.1750  0.0149
 1556SOL     OW 6221   2.820   3.786   1.942 -0.4668  0.3214 -0.5120
 1556SOL    HW1 6222   2.848   3.694   1.941  0.8092  0.6778 -0.1504
 1556SOL    HW2 6223   2.737   3.787   1.895 -1.1967 -1.2265  0.6656
 1556SOL     MW 6224   2.813   3.775   1.936 -0.3969  0.1688 -0.3150
 1557SOL     OW 6225   1.579   4.084   0.474 -0.2619 -0.2206  1.0386
 1557SOL    HW1 6226   1.500   4.062   0.425 -0.9035  1.2262  1.3765
 1557SOL    HW2 6227   1.577   4.028   0.551 -0.3875 -0.9498  0.5144
 1557SOL     MW 6228   1.569   4.074   0.477 -0.3601 -0.1287  1.0148
 1558SOL     OW 6229   2.847   0.134   0.551  0.0730 -0.4397  0.0934
 1558SOL    HW1 6230   2.785   0.174   0.490  0.1871 -1.3286 -0.6198
 1558SOL    HW2 6231   2.882   0.058   0.504 -1.0072 -2.0950  1.8030
 1558SOL     MW 6232   2.844   0.129   0.537 -0.0507 -0.7654  0.2210
 1559SOL     OW 6233   4.065   3.067   3.897 -0.3072 -0.2018  0.1153
 1559SOL    HW1 6234   4.041   2.975   3.887 -0.5082 -0.1564  0.1652
 1559SOL    HW2 6235   4.099   3.074   3.986 -0.3876 -0.2078  0.1464
 1559SOL     MW 6236   4.066   3.057   3.907 -0.3432 -0.1968  0.1257
 1560SOL     OW 6237   0.064   4.760   4.066 -0.5919  0.2904  0.0722
 1560SOL    HW1 6238   0.065   4.674   4.108  1.9787  0.9199  1.5592
 1560SOL    HW2 6239   0.029   4.819   4.133 -0.6548  0.6751 -0.2954
 1560SOL     MW 6240   0.060   4.756   4.080 -0.2709  0.4202  0.2155
 1561SOL     OW 6241   3.731   3.386   4.076  0.8266  0.3103  0.2929
 1561SOL    HW1 6242   3.770   3.403   3.990 -1.3009  1.2680 -0.5546
 1561SOL    HW2 6243   3.782   3.439   4.136  2.6657 -0.7460 -0.2456
 1561SOL     MW 6244   3.742   3.395   4.072  0.7896  0.2977  0.1155
 1562SOL     OW 6245   0.414   0.976   0.226 -0.4733 -0.7232  0.3225
 1562SOL    HW1 6246   0.465   1.016   0.296  1.9080 -0.3852 -1.4816
 1562SOL    HW2 6247   0.444   0.885   0.224 -0.3752 -0.6828 -0.3520
 1562SOL     MW 6248   0.424   0.969   0.234 -0.1559 -0.6748  0.0052
 1563SOL     OW 6249   4.355   5.022   1.124  0.2704  0.3170 -0.3149
 1563SOL    HW1 6250   4.406   4.941   1.130 -0.0890  0.1621  1.3488
 1563SOL    HW2 6251   4.286   5.011   1.190 -0.1637  1.7235 -0.5038
 1563SOL     MW 6252   4.353   5.010   1.133  0.1689  0.4772 -0.1261
 1564SOL     OW 6253   0.630   1.862   3.021 -0.2927  0.0584  0.1750
 1564SOL    HW1 6254   0.538   1.882   3.037 -0.5450 -1.5024  0.9050
 1564SOL    HW2 6255   0.635   1.767   3.032  1.4458  0.1477  0.3167
 1564SOL     MW 6256   0.618   1.852   3.024 -0.1024 -0.1300  0.2866
 1565SOL     OW 6257   1.981   3.699   2.095 -0.5883 -0.1108  0.2382
 1565SOL    HW1 6258   1.907   3.757   2.075 -0.3526  0.4378  0.9042
 1565SOL    HW2 6259   1.970   3.676   2.187 -0.6033 -1.0349  0.0185
 1565SOL     MW 6260   1.970   3.704   2.104 -0.5600 -0.1588  0.2954
 1566SOL     OW 6261   0.638   2.055   1.672 -0.3040 -0.3978 -0.1183
 1566SOL    HW1 6262   0.722   2.087   1.637 -0.4512 -0.2806 -0.3751
 1566SOL    HW2 6263   0.577   2.063   1.598 -0.8151  0.5942  0.3823
 1566SOL     MW 6264   0.641   2.060   1.658 -0.3883 -0.2558 -0.0871
 1567SOL     OW 6265   3.369   1.372   0.612 -0.1587  0.4008 -0.4765
 1567SOL    HW1 6266   3.314   1.307   0.655  1.6075 -0.5325  0.5181
 1567SOL    HW2 6267   3.378   1.340   0.522 -1.1607  0.5460 -0.6409
 1567SOL     MW 6268   3.363   1.359   0.606 -0.0609  0.2999 -0.3702
 1568SOL     OW 6269   4.316   3.132   0.465 -0.0649 -0.4851  0.2843
 1568SOL    HW1 6270   4.244   3.074   0.443  0.5910 -1.2031 -0.0366
 1568SOL    HW2 6271   4.391   3.095   0.418  0.5051  0.2463  0.6014
 1568SOL     MW 6272   4.317   3.120   0.456  0.0920 -0.4834  0.2838
 1569SOL     OW 6273   1.670   1.550   4.535 -0.0901  0.0528 -0.2827
 1569SOL    HW1 6274   1.650   1.477   4.477  1.3492  0.0804 -0.8595
 1569SOL    HW2 6275   1.633   1.525   4.619 -1.8913 -0.1581 -1.1036
 1569SOL     MW 6276   1.663   1.537   4.538 -0.1364  0.0294 -0.4616
 1570SOL     OW 6277   3.465   2.984   1.941 -0.0689  0.0198  0.1451
 1570SOL    HW1 6278   3.559   2.965   1.931 -0.0727  0.0408  0.0677
 1570SOL    HW2 6279   3.456   3.015   2.031 -0.2110 -1.2643  0.5980
 1570SOL     MW 6280   3.476   2.985   1.951 -0.0876 -0.1419  0.1932
 1571SOL     OW 6281   3.876   5.326   4.066  0.0481  0.1848 -0.3893
 1571SOL    HW1 6282   3.959   5.366   4.092 -0.5749  1.6322 -0.5190
 1571SOL    HW2 6283   3.810   5.390   4.092 -1.0949 -1.2156  0.2967
 1571SOL     MW 6284   3.878   5.339   4.073 -0.1780  0.1908 -0.3181
 1572SOL     OW 6285   1.952   4.594   0.510  0.3158 -0.4691 -0.0793
 1572SOL    HW1 6286   1.865   4.631   0.500 -0.0754 -1.1468  0.7281
 1572SOL    HW2 6287   2.010   4.658   0.468 -0.4374  0.5576  0.3976
 1572SOL     MW 6288   1.949   4.607   0.503  0.1693 -0.4245  0.0851
 1573SOL     OW 6289   1.144   1.649   0.981 -0.0486 -0.2097 -0.1240
 1573SOL    HW1 6290   1.060   1.605   0.970  0.1080 -0.6764  0.5042
 1573SOL    HW2 6291   1.120   1.739   1.005 -0.3644 -0.2139 -0.4082
 1573SOL     MW 6292   1.130   1.655   0.983 -0.0690 -0.2700 -0.0800
 1574SOL     OW 6293   4.717   3.892   5.060 -0.6147 -0.1864 -0.6492
 1574SOL    HW1 6294   4.722   3.834   5.135 -0.8915  1.5715  0.8010
 1574SOL    HW2 6295   4.663   3.845   4.996  0.2847 -2.0512 -0.1057
 1574SOL     MW 6296   4.711   3.879   5.061 -0.5350 -0.2001 -0.3940
 1575SOL     OW 6297   2.819   3.315   4.107 -0.0388  0.5529  0.2802
 1575SOL    HW1 6298   2.780   3.402   4.099  2.0563  1.6011  0.5518
 1575SOL    HW2 6299   2.883   3.325   4.178  1.8722 -0.5320 -1.1972
 1575SOL     MW 6300   2.823   3.328   4.115  0.4740  0.5482  0.1258
 1576SOL     OW 6301   4.763   3.764   5.307 -0.3809 -0.1522 -0.3869
 1576SOL    HW1 6302   4.857   3.768   5.325 -0.0197 -0.2200 -2.1532
 1576SOL    HW2 6303   4.722   3.767   5.394  1.2510 -0.4694  0.4248
 1576SOL     MW 6304   4.769   3.765   5.321 -0.1257 -0.2015 -0.5091
 1577SOL     OW 6305   4.821   4.127   2.609  0.2367 -0.6166  0.4629
 1577SOL    HW1 6306   4.815   4.207   2.557  0.4101 -1.4858 -0.9587
 1577SOL    HW2 6307   4.877   4.069   2.557  1.2104 -1.1942  2.0999
 1577SOL     MW 6308   4.827   4.130   2.595  0.3835 -0.8018  0.4905
 1578SOL     OW 6309   3.895   4.643   1.650  0.5211 -0.2152 -0.3850
 1578SOL    HW1 6310   3.991   4.642   1.650  0.5546 -2.3363  0.1914
 1578SOL    HW2 6311   3.871   4.623   1.741 -0.5324  2.1176 -0.0794
 1578SOL     MW 6312   3.904   4.640   1.662  0.3905 -0.1881 -0.2721
 1579SOL     OW 6313   4.778  -0.013   2.736 -0.2675  0.1485  0.7028
 1579SOL    HW1 6314   4.802   0.059   2.795  0.4706 -1.4187  2.3929
 1579SOL    HW2 6315   4.760   0.030   2.653 -2.1218  2.5772  2.2046
 1579SOL     MW 6316   4.778   0.002   2.733 -0.4104  0.2588  1.1114
 1580SOL     OW 6317   1.347   4.651   3.166  0.2506 -0.3315  0.0629
 1580SOL    HW1 6318   1.354   4.653   3.070 -1.3147  1.3444 -0.0801
 1580SOL    HW2 6319   1.285   4.580   3.183 -1.1304  0.7067 -0.3770
 1580SOL     MW 6320   1.340   4.642   3.156 -0.1265  0.0159 -0.0117
 1581SOL     OW 6321   4.004   3.096   1.886  0.0146 -0.3281  0.4351
 1581SOL    HW1 6322   4.010   3.157   1.959 -0.8030  0.6368 -0.2832
 1581SOL    HW2 6323   3.918   3.112   1.848  1.0408  0.3450 -1.7331
 1581SOL     MW 6324   3.994   3.106   1.891  0.0413 -0.1184  0.0656
 1582SOL     OW 6325   2.758   2.428   1.123 -0.4151 -0.0917 -0.6456
 1582SOL    HW1 6326   2.691   2.362   1.142 -1.3458  0.6069 -1.4052
 1582SOL    HW2 6327   2.750   2.491   1.195 -0.0470 -0.4010 -0.3298
 1582SOL     MW 6328   2.749   2.428   1.135 -0.4871 -0.0419 -0.7024
 1583SOL     OW 6329   0.536   2.521   4.686  0.3160 -0.5243  0.2634
 1583SOL    HW1 6330   0.592   2.467   4.631  0.7086 -0.4220  0.5560
 1583SOL    HW2 6331   0.549   2.610   4.654  1.5298 -0.2906  1.3207
 1583SOL     MW 6332   0.545   2.526   4.675  0.5217 -0.4813  0.4362
 1584SOL     OW 6333   1.353   4.224   4.658  1.0975 -0.2506  0.1191
 1584SOL    HW1 6334   1.432   4.277   4.666  1.7418 -1.2435  0.4715
 1584SOL    HW2 6335   1.383   4.143   4.616  0.2047 -0.4957 -0.0580
 1584SOL     MW 6336   1.367   4.220   4.653  1.0657 -0.4091  0.1415
 1585SOL     OW 6337   0.702   3.631   0.989 -0.3244  0.5674  0.1554
 1585SOL    HW1 6338   0.745   3.576   0.924  0.6134 -0.0449  1.2435
 1585SOL    HW2 6339   0.750   3.715   0.985 -0.4845  0.6410 -0.1750
 1585SOL     MW 6340   0.714   3.635   0.980 -0.2248  0.4984  0.2524
 1586SOL     OW 6341   2.758   0.740   1.221 -0.2748 -0.1557  0.2967
 1586SOL    HW1 6342   2.787   0.676   1.286  0.7891 -0.7039 -0.6749
 1586SOL    HW2 6343   2.838   0.787   1.197 -0.7230  0.3000 -0.3377
 1586SOL     MW 6344   2.772   0.738   1.227 -0.1960 -0.1675  0.0911
 1587SOL     OW 6345   5.436   2.072   3.690  0.2579 -0.4139  0.8840
 1587SOL    HW1 6346   5.494   2.146   3.703  0.5100 -0.6359  1.0413
 1587SOL    HW2 6347   5.485   2.011   3.635 -1.0220  0.7576 -1.7099
 1587SOL     MW 6348   5.450   2.073   3.685  0.1263 -0.2924  0.5721
 1588SOL     OW 6349   2.068   3.754   3.193  0.1327 -1.0480  0.3439
 1588SOL    HW1 6350   2.012   3.831   3.186  1.6699  0.0769 -0.0148
 1588SOL    HW2 6351   2.032   3.705   3.267 -1.9738 -0.9445 -0.5245
 1588SOL     MW 6352   2.056   3.757   3.201  0.0598 -0.8908  0.1868
 1589SOL     OW 6353   2.752   4.771   3.643 -0.5358  0.3095  0.1922
 1589SOL    HW1 6354   2.737   4.765   3.738 -0.1721 -0.8977  0.2011
 1589SOL    HW2 6355   2.846   4.753   3.634 -1.0589 -2.5089 -0.5728
 1589SOL     MW 6356   2.762   4.768   3.654 -0.5562 -0.2058  0.0954
 1590SOL     OW 6357   2.834   4.985   1.598 -0.4411 -0.7578  0.5632
 1590SOL    HW1 6358   2.764   5.050   1.602 -0.6232 -0.7752 -1.3042
 1590SOL    HW2 6359   2.796   4.912   1.549  0.9168 -0.6973 -0.6401
 1590SOL     MW 6360   2.820   4.984   1.592 -0.2906 -0.7523  0.1701
 1591SOL     OW 6361   4.203   3.270   4.305 -0.1934 -0.1830 -0.2071
 1591SOL    HW1 6362   4.263   3.238   4.373  0.7860  1.5412 -0.1863
 1591SOL    HW2 6363   4.126   3.299   4.353  0.3270  0.6452  0.1667
 1591SOL     MW 6364   4.201   3.270   4.320 -0.0014  0.1437 -0.1566
 1592SOL     OW 6365   3.397   4.293   3.603 -0.2919  0.0435 -0.7365
 1592SOL    HW1 6366   3.367   4.370   3.651 -1.0582 -0.7266  0.0770
 1592SOL    HW2 6367   3.445   4.241   3.668  0.2083 -0.1702 -1.2701
 1592SOL     MW 6368   3.399   4.296   3.618 -0.3260 -0.0825 -0.7007
 1593SOL     OW 6369   4.360   1.792   0.119  0.0961  0.0829 -0.2146
 1593SOL    HW1 6370   4.423   1.798   0.046 -1.2122 -1.2651 -1.5331
 1593SOL    HW2 6371   4.334   1.700   0.120 -0.5675  0.2586  1.4408
 1593SOL     MW 6372   4.365   1.781   0.110 -0.1563 -0.0671 -0.1715
 1594SOL     OW 6373   0.951   4.665   0.496 -0.6002  0.6760 -0.0546
 1594SOL    HW1 6374   1.031   4.614   0.495 -0.4653  0.7673  1.8031
 1594SOL    HW2 6375   0.894   4.619   0.557 -0.7539  2.2678  1.0806
 1594SOL     MW 6376   0.954   4.653   0.504 -0.6026  0.8915  0.3285
 1595SOL     OW 6377   2.820   4.212   3.475 -0.2831  0.3414  0.8479
 1595SOL    HW1 6378   2.881   4.155   3.523 -1.9179  1.0663  4.1089
 1595SOL    HW2 6379   2.776   4.155   3.413  0.8646 -1.0671  1.2829
 1595SOL     MW 6380   2.823   4.197   3.473 -0.3455  0.2539  1.3211
 1596SOL     OW 6381   1.532   2.102   4.090  0.0156 -0.1986  0.5444
 1596SOL    HW1 6382   1.584   2.040   4.141 -1.6239 -0.7866  1.5612
 1596SOL    HW2 6383   1.579   2.109   4.007  1.5071 -0.9761  1.2821
 1596SOL     MW 6384   1.545   2.095   4.086 -0.0033 -0.3734  0.7690
 1597SOL     OW 6385   2.372   0.064   1.749  0.1347  0.7813 -0.1376
 1597SOL    HW1 6386   2.357   0.158   1.735 -1.1661  1.1917  3.1370
 1597SOL    HW2 6387   2.290   0.023   1.722  0.3216  0.6916 -0.5784
 1597SOL     MW 6388   2.359   0.071   1.744 -0.0079  0.8223  0.2252
 1598SOL     OW 6389   4.111   5.219   0.059  0.2518 -0.4673  0.2300
 1598SOL    HW1 6390   4.187   5.207   0.003  0.3825  1.2034  0.0104
 1598SOL    HW2 6391   4.095   5.314   0.058 -1.2675 -0.6879  1.0004
 1598SOL     MW 6392   4.119   5.230   0.051  0.0740 -0.2817  0.3005
 1599SOL     OW 6393   5.295   4.017   1.914  0.4079 -0.2860  0.5402
 1599SOL    HW1 6394   5.231   4.086   1.895 -0.0898 -1.1315 -1.0658
 1599SOL    HW2 6395   5.313   4.027   2.008 -2.0218  0.0431  1.0555
 1599SOL     MW 6396   5.289   4.027   1.924  0.0331 -0.3521  0.4005
 1600SOL     OW 6397   1.682   5.272   0.641 -0.3735  0.2963  0.1646
 1600SOL    HW1 6398   1.725   5.335   0.699  0.3547 -0.2102  0.1840
 1600SOL    HW2 6399   1.601   5.249   0.686 -0.3827  0.7949  0.4146
 1600SOL     MW 6400   1.677   5.277   0.654 -0.2815  0.2953  0.1991
 1601SOL     OW 6401   5.351   0.596   4.858 -0.8064  0.1278  0.0074
 1601SOL    HW1 6402   5.278   0.658   4.854 -0.5980  0.4990  1.4359
 1601SOL    HW2 6403   5.423   0.642   4.814 -0.2748  1.5046  2.1769
 1601SOL     MW 6404   5.351   0.610   4.852 -0.7116  0.3515  0.4680
 1602SOL     OW 6405   1.380   3.373   2.027 -0.2089 -0.2235  0.0153
 1602SOL    HW1 6406   1.456   3.418   2.062  0.8766 -1.8172 -0.1639
 1602SOL    HW2 6407   1.407   3.281   2.021 -2.0885 -0.8128 -0.2189
 1602SOL     MW 6408   1.393   3.367   2.031 -0.3106 -0.5030 -0.0376
 1603SOL     OW 6409   0.378   1.298   5.029 -0.5164  0.1196  0.0419
 1603SOL    HW1 6410   0.303   1.356   5.017 -1.5898 -1.0514  0.8877
 1603SOL    HW2 6411   0.341   1.216   5.061  0.9090 -1.1751 -1.4174
 1603SOL     MW 6412   0.364   1.295   5.031 -0.4713 -0.1960 -0.0366
 1604SOL     OW 6413   0.158   0.834   5.356  0.1311 -0.0579  0.1898
 1604SOL    HW1 6414   0.181   0.871   5.271  0.6980  0.1374  0.4285
 1604SOL    HW2 6415   0.242   0.820   5.400 -0.0720 -1.4654  0.1717
 1604SOL     MW 6416   0.172   0.837   5.351  0.1777 -0.2131  0.2181
 1605SOL     OW 6417   2.205   3.025   1.080 -0.1159  0.6853 -0.2792
 1605SOL    HW1 6418   2.230   2.973   1.003  3.3357  1.3455  0.2275
 1605SOL    HW2 6419   2.155   3.098   1.044 -0.0263  0.0810 -1.7063
 1605SOL     MW 6420   2.202   3.028   1.066  0.3374  0.6925 -0.3970
 1606SOL     OW 6421   3.338   1.398   1.165 -0.0840 -0.3878  0.3589
 1606SOL    HW1 6422   3.420   1.446   1.171 -0.6093  0.3748  1.7357
 1606SOL    HW2 6423   3.273   1.456   1.203 -0.9900 -1.6022  0.7359
 1606SOL     MW 6424   3.340   1.411   1.171 -0.2672 -0.4456  0.5834
 1607SOL     OW 6425   3.839   2.810   5.145 -0.1114 -0.2887 -0.7437
 1607SOL    HW1 6426   3.820   2.727   5.188  0.9352  0.0624  0.4677
 1607SOL    HW2 6427   3.915   2.844   5.192  0.3076  0.7188 -2.0935
 1607SOL     MW 6428   3.846   2.804   5.156  0.0762 -0.1148 -0.7614
 1608SOL     OW 6429   4.635   0.623   3.646 -0.0554  0.2328  0.5143
 1608SOL    HW1 6430   4.589   0.653   3.724  0.0098  1.5199  0.0862
 1608SOL    HW2 6431   4.565   0.612   3.581 -0.3604 -2.5692  1.1905
 1608SOL     MW 6432   4.620   0.625   3.647 -0.0861  0.0389  0.5461
 1609SOL     OW 6433   0.929   0.819   1.247 -0.6761 -0.0427  0.3274
 1609SOL    HW1 6434   0.882   0.745   1.285 -1.2391  0.3897  0.4831
 1609SOL    HW2 6435   1.021   0.793   1.252 -0.6594  0.2655  2.5943
 1609SOL     MW 6436   0.935   0.806   1.253 -0.7460  0.0521  0.6375
 1610SOL     OW 6437   1.694   0.706   3.569  0.6269  0.4899  0.0630
 1610SOL    HW1 6438   1.644   0.741   3.643  0.1592  0.6801 -0.3434
 1610SOL    HW2 6439   1.745   0.780   3.537 -0.6314  0.9122 -1.0224
 1610SOL     MW 6440   1.694   0.720   3.575  0.4059  0.5683 -0.1280
 1611SOL     OW 6441   1.014   3.577   3.265  0.8168 -0.1777  0.8545
 1611SOL    HW1 6442   1.026   3.500   3.210 -1.3402 -0.7533  1.1158
 1611SOL    HW2 6443   0.930   3.613   3.239  0.3439  0.3061  2.8456
 1611SOL     MW 6444   1.005   3.572   3.255  0.4802 -0.1895  1.1428
 1612SOL     OW 6445   3.553   1.330   2.701 -0.5179 -0.0839 -0.0377
 1612SOL    HW1 6446   3.490   1.257   2.699  1.0377 -1.4702 -1.3547
 1612SOL    HW2 6447   3.636   1.291   2.673  0.2929  2.3213 -1.2514
 1612SOL     MW 6448   3.555   1.315   2.697 -0.2149  0.0466 -0.3616
 1613SOL     OW 6449   2.941   1.298   4.532  0.0375  0.1839 -0.0241
 1613SOL    HW1 6450   3.018   1.325   4.481 -0.5783  1.7657 -0.1874
 1613SOL    HW2 6451   2.947   1.348   4.613 -1.1038  0.8010 -0.2900
 1613SOL     MW 6452   2.952   1.308   4.536 -0.1874  0.4654 -0.0790
 1614SOL     OW 6453   1.662   1.065   2.511  0.2836 -0.0287  0.4035
 1614SOL    HW1 6454   1.715   1.132   2.553  0.6926 -1.0509  1.5848
 1614SOL    HW2 6455   1.575   1.076   2.549  0.3610 -0.2000  0.6285
 1614SOL     MW 6456   1.658   1.075   2.521  0.3459 -0.1815  0.5835
 1615SOL     OW 6457   1.639   0.468   4.696  0.2696 -0.2471  0.7607
 1615SOL    HW1 6458   1.627   0.415   4.775 -2.8678  2.0455  2.0350
 1615SOL    HW2 6459   1.653   0.557   4.729  0.3425  0.5314 -1.2630
 1615SOL     MW 6460   1.639   0.472   4.711 -0.1227  0.1461  0.6647
 1616SOL     OW 6461   1.689   0.751   5.438 -0.4033 -0.6286  0.0136
 1616SOL    HW1 6462   1.754   0.701   5.487  0.9297  1.0393  0.0453
 1616SOL    HW2 6463   1.614   0.758   5.498  0.7938  0.4846  1.4354
 1616SOL     MW 6464   1.688   0.745   5.452 -0.0794 -0.2726  0.1996
 1617SOL     OW 6465   3.762   5.298   3.216  0.1754  0.3119  0.4528
 1617SOL    HW1 6466   3.793   5.378   3.174 -0.2797 -0.4421 -1.4377
 1617SOL    HW2 6467   3.840   5.243   3.223  0.1806  0.2817  0.1828
 1617SOL     MW 6468   3.776   5.301   3.211  0.1178  0.2115  0.1763
 1618SOL     OW 6469   2.891   1.997   4.833  0.1544 -0.3195  0.0085
 1618SOL    HW1 6470   2.953   2.062   4.799 -0.6005 -0.1368 -1.0526
 1618SOL    HW2 6471   2.880   2.021   4.925  2.5493 -1.0733  0.5538
 1618SOL     MW 6472   2.898   2.009   4.840  0.3643 -0.3926 -0.0575
 1619SOL     OW 6473   1.192   0.691   1.194 -0.1186 -0.2425 -0.0441
 1619SOL    HW1 6474   1.168   0.680   1.102  0.2357  0.8348 -0.2786
 1619SOL    HW2 6475   1.228   0.780   1.199  0.2425 -0.4379  1.0553
 1619SOL     MW 6476   1.193   0.701   1.183 -0.0270 -0.1296  0.0666
 1620SOL     OW 6477   4.867   3.753   4.754 -0.3504 -0.3070 -0.3293
 1620SOL    HW1 6478   4.941   3.771   4.813 -0.6813  0.7820 -0.2220
 1620SOL    HW2 6479   4.883   3.665   4.721  1.0753 -0.0381 -0.4103
 1620SOL     MW 6480   4.879   3.744   4.757 -0.2102 -0.1332 -0.3259
 1621SOL     OW 6481   2.108   4.888   0.879 -0.1729 -0.7289  0.0389
 1621SOL    HW1 6482   2.141   4.831   0.809 -0.3253 -0.3186 -0.3778
 1621SOL    HW2 6483   2.085   4.970   0.834  0.9030  0.0031  0.7533
 1621SOL     MW 6484   2.110   4.891   0.864 -0.0547 -0.5827  0.0770
 1622SOL     OW 6485   0.545   3.321   2.889 -0.7417 -0.1708 -0.6158
 1622SOL    HW1 6486   0.549   3.281   2.802 -2.1971 -0.0718 -0.7429
 1622SOL    HW2 6487   0.551   3.415   2.871  1.9754 -0.1990 -0.3628
 1622SOL     MW 6488   0.547   3.328   2.875 -0.5802 -0.1617 -0.5997
 1623SOL     OW 6489   4.809   4.558   1.734  0.2948  0.0083 -0.5526
 1623SOL    HW1 6490   4.779   4.644   1.766 -0.1916 -0.9413  1.7990
 1623SOL    HW2 6491   4.890   4.576   1.687  0.8559  1.6456  0.9412
 1623SOL     MW 6492   4.815   4.571   1.732  0.3044  0.0963 -0.0604
 1624SOL     OW 6493   3.337   2.485   4.196 -0.1703 -0.0414 -0.3338
 1624SOL    HW1 6494   3.380   2.473   4.111  0.5090 -1.6182  0.2125
 1624SOL    HW2 6495   3.377   2.564   4.232  0.1672  0.1473 -1.0899
 1624SOL     MW 6496   3.347   2.494   4.189 -0.0401 -0.2191 -0.3607
 1625SOL     OW 6497   3.224   2.726   4.507 -0.2564 -0.1144 -0.3053
 1625SOL    HW1 6498   3.201   2.634   4.493 -3.6420  0.7756 -1.6932
 1625SOL    HW2 6499   3.166   2.755   4.578  0.5921  1.0209 -0.0419
 1625SOL     MW 6500   3.213   2.718   4.514 -0.5812  0.1449 -0.4493
 1626SOL     OW 6501   1.765   4.562   1.183 -0.2320 -0.2394  0.5727
 1626SOL    HW1 6502   1.801   4.536   1.268 -0.9877  0.4269  1.1150
 1626SOL    HW2 6503   1.830   4.533   1.119  2.2253  2.4899  1.6174
 1626SOL     MW 6504   1.778   4.555   1.186 -0.0142  0.1953  0.7759
 1627SOL     OW 6505   1.785   2.512   1.146  0.0451 -0.2467  0.0614
 1627SOL    HW1 6506   1.762   2.427   1.108 -1.3201 -0.6369  1.6747
 1627SOL    HW2 6507   1.702   2.559   1.154  0.4812  0.3916  1.1690
 1627SOL     MW 6508   1.772   2.507   1.142 -0.0738 -0.2150  0.4097
 1628SOL     OW 6509   3.462   4.405   4.823  0.1293 -0.0627 -0.0888
 1628SOL    HW1 6510   3.531   4.462   4.858 -0.5211  1.0318 -0.5397
 1628SOL    HW2 6511   3.487   4.317   4.851  0.6309  0.5487  1.4832
 1628SOL     MW 6512   3.474   4.401   4.831  0.1103  0.1557  0.0547
 1629SOL     OW 6513   4.281   3.639   2.795  0.2057 -0.5599  0.3828
 1629SOL    HW1 6514   4.218   3.574   2.763 -0.3909 -0.2765  0.9684
 1629SOL    HW2 6515   4.242   3.673   2.875  0.3540  0.7544 -0.0741
 1629SOL     MW 6516   4.268   3.635   2.801  0.1484 -0.3554  0.3993
 1630SOL     OW 6517   0.987   4.278   3.844 -0.6279 -0.4802 -0.2487
 1630SOL    HW1 6518   1.034   4.320   3.772  0.0013 -0.1403  0.3520
 1630SOL    HW2 6519   0.966   4.349   3.904  1.1774 -1.0715  1.1885
 1630SOL     MW 6520   0.990   4.293   3.843 -0.3163 -0.5124  0.0122
 1631SOL     OW 6521   1.315   5.243   4.128 -0.2384  0.1006 -0.2356
 1631SOL    HW1 6522   1.240   5.193   4.095 -0.1000 -0.5373  0.4024
 1631SOL    HW2 6523   1.281   5.290   4.204  0.3165 -1.2863  0.9268
 1631SOL     MW 6524   1.301   5.242   4.133 -0.1496 -0.1586 -0.0051
 1632SOL     OW 6525   4.911   0.139   1.772  0.3586 -0.4217  0.3306
 1632SOL    HW1 6526   4.986   0.197   1.761 -1.0818  1.3964 -0.4112
 1632SOL    HW2 6527   4.851   0.186   1.830 -1.4004 -0.5349 -1.2659
 1632SOL     MW 6528   4.913   0.152   1.778 -0.0509 -0.2035  0.0313
 1633SOL     OW 6529   1.506   1.439   4.218  0.1779 -1.0763 -0.2939
 1633SOL    HW1 6530   1.445   1.508   4.244  1.3829  0.0319 -0.3092
 1633SOL    HW2 6531   1.498   1.373   4.287  0.1002 -0.2293  0.5244
 1633SOL     MW 6532   1.497   1.439   4.230  0.3222 -0.8260 -0.1911
 1634SOL     OW 6533   5.032   1.652   4.283 -0.0575 -0.2887 -0.3693
 1634SOL    HW1 6534   4.968   1.687   4.221 -0.0190 -1.5158 -1.1527
 1634SOL    HW2 6535   5.080   1.586   4.233  1.4831  0.2365  0.3605
 1634SOL     MW 6536   5.030   1.648   4.269  0.1446 -0.3785 -0.3762
 1635SOL     OW 6537   3.048   4.676   0.504 -0.3888  0.0273 -0.1118
 1635SOL    HW1 6538   3.083   4.700   0.590 -1.9673  0.8417  0.3439
 1635SOL    HW2 6539   3.097   4.731   0.442  2.5710 -2.3313 -0.1234
 1635SOL     MW 6540   3.059   4.686   0.507 -0.2120 -0.1704 -0.0550
 1636SOL     OW 6541   2.049   2.891   0.711 -0.2546  0.3529  0.7887
 1636SOL    HW1 6542   2.028   2.859   0.623  1.2156 -1.4766  1.0327
 1636SOL    HW2 6543   1.994   2.838   0.769 -0.4412  0.8117  1.0343
 1636SOL     MW 6544   2.039   2.880   0.707 -0.0903  0.1774  0.8514
 1637SOL     OW 6545   0.412   3.222   4.128  0.1078 -0.0788 -0.5199
 1637SOL    HW1 6546   0.468   3.300   4.134  1.4234 -0.9885 -0.3996
 1637SOL    HW2 6547   0.438   3.180   4.046  0.1073 -0.8807 -0.1193
 1637SOL     MW 6548   0.423   3.227   4.118  0.2762 -0.2979 -0.4532
 1638SOL     OW 6549   0.558   0.866   5.217  0.1003  0.1276  0.2557
 1638SOL    HW1 6550   0.574   0.952   5.179  1.0209 -0.9867 -2.1473
 1638SOL    HW2 6551   0.484   0.832   5.167 -0.2880 -0.4403  1.2121
 1638SOL     MW 6552   0.551   0.872   5.206  0.1684 -0.0877  0.0706
 1639SOL     OW 6553   2.634   4.805   4.916  0.3172 -0.5201  0.4961
 1639SOL    HW1 6554   2.567   4.737   4.911  1.5924 -1.7991  0.2227
 1639SOL    HW2 6555   2.611   4.867   4.846  0.1935 -1.6773 -0.5136
 1639SOL     MW 6556   2.623   4.804   4.906  0.4646 -0.8320  0.3319
 1640SOL     OW 6557   1.430   4.338   2.505  0.3406  0.3513 -0.3043
 1640SOL    HW1 6558   1.344   4.372   2.528  0.8289  0.0769  2.2232
 1640SOL    HW2 6559   1.415   4.284   2.428 -2.1198 -1.2812  1.1942
 1640SOL     MW 6560   1.417   4.336   2.498  0.0881  0.1072  0.2111
 1641SOL     OW 6561   4.847   3.158   5.003  0.0115 -0.2242  0.0028
 1641SOL    HW1 6562   4.754   3.181   5.011  0.0423  0.0749 -0.4573
 1641SOL    HW2 6563   4.871   3.186   4.915  0.5713 -0.1928  0.1614
 1641SOL     MW 6564   4.838   3.164   4.993  0.0871 -0.1819 -0.0358
 1642SOL     OW 6565   1.936   2.171   3.597  0.4095  0.1325 -0.2948
 1642SOL    HW1 6566   2.028   2.195   3.609  0.2845  0.7237 -0.4790
 1642SOL    HW2 6567   1.894   2.252   3.566 -0.6002  0.4636  1.7902
 1642SOL     MW 6568   1.942   2.185   3.594  0.2642  0.2506 -0.0515
 1643SOL     OW 6569   2.634   4.311   0.593  0.2743  0.4848 -0.1220
 1643SOL    HW1 6570   2.715   4.345   0.631  0.8385  0.1114 -0.9666
 1643SOL    HW2 6571   2.661   4.268   0.512 -0.9004  1.3282 -1.0084
 1643SOL     MW 6572   2.647   4.310   0.588  0.1962  0.5449 -0.3436
 1644SOL     OW 6573   1.704   5.026   4.211  0.0069  0.0181  0.3209
 1644SOL    HW1 6574   1.641   5.078   4.260  0.8362  0.1152  1.3364
 1644SOL    HW2 6575   1.724   4.952   4.269 -0.1350 -0.6962 -0.5278
 1644SOL     MW 6576   1.699   5.023   4.225  0.0949 -0.0609  0.3423
 1645SOL     OW 6577   0.301   3.782   4.706 -0.0558 -0.2433  0.3454
 1645SOL    HW1 6578   0.216   3.807   4.743 -1.0500 -0.3324 -1.7338
 1645SOL    HW2 6579   0.311   3.838   4.629  2.8247  1.2976  1.6759
 1645SOL     MW 6580   0.291   3.793   4.701  0.1857 -0.0575  0.2496
 1646SOL     OW 6581   1.144   2.607   0.721  0.6301  0.3221  0.1227
 1646SOL    HW1 6582   1.152   2.692   0.679  1.2647 -0.2728 -1.0151
 1646SOL    HW2 6583   1.175   2.545   0.655  1.4580 -0.6772  1.3940
 1646SOL     MW 6584   1.149   2.610   0.708  0.8173  0.1180  0.1398
 1647SOL     OW 6585   1.221   2.184   2.605  0.1935 -0.1749 -0.4388
 1647SOL    HW1 6586   1.144   2.240   2.620  0.3139 -0.0584 -0.2455
 1647SOL    HW2 6587   1.245   2.152   2.692  1.5167  1.3170 -0.2014
 1647SOL     MW 6588   1.214   2.187   2.618  0.3783  0.0310 -0.3837
 1648SOL     OW 6589   1.258   0.439   1.845  0.3549 -0.2029  1.1994
 1648SOL    HW1 6590   1.324   0.382   1.884 -0.8694 -1.5722  1.3355
 1648SOL    HW2 6591   1.309   0.505   1.797  1.8280 -1.9474  0.2529
 1648SOL     MW 6592   1.273   0.440   1.844  0.3868 -0.6015  1.0957
 1649SOL     OW 6593   4.596   0.238   3.452  0.6060 -0.0109 -0.1920
 1649SOL    HW1 6594   4.549   0.172   3.503 -0.6781  1.5490  0.7462
 1649SOL    HW2 6595   4.654   0.280   3.515  1.4122 -0.2167 -0.7826
 1649SOL     MW 6596   4.597   0.235   3.466  0.5448  0.1625 -0.1475
 1650SOL     OW 6597   3.759   3.662   0.991  0.5210 -0.2181 -0.0758
 1650SOL    HW1 6598   3.803   3.577   0.996  0.4014 -0.2349  0.7840
 1650SOL    HW2 6599   3.765   3.687   0.899  0.4757 -1.2060 -0.3564
 1650SOL     MW 6600   3.765   3.654   0.980  0.4999 -0.3467 -0.0017
 1651SOL     OW 6601   2.999   4.366   1.629 -0.0876  0.3491 -0.6273
 1651SOL    HW1 6602   3.007   4.374   1.534  0.9941 -1.3054 -0.7315
 1651SOL    HW2 6603   3.063   4.428   1.664 -2.0463  2.6049 -0.8657
 1651SOL     MW 6604   3.008   4.375   1.621 -0.1999  0.4261 -0.6711
 1652SOL     OW 6605   3.129   2.109   4.487 -0.0344  0.1695  0.4908
 1652SOL    HW1 6606   3.122   2.140   4.577  2.6545 -0.9407  1.1829
 1652SOL    HW2 6607   3.142   2.189   4.435 -1.5533  0.8113  1.0346
 1652SOL     MW 6608   3.130   2.124   4.492  0.1154  0.1095  0.6490
 1653SOL     OW 6609   3.718   2.418   5.020  0.0449 -0.4345 -0.1249
 1653SOL    HW1 6610   3.630   2.405   4.983  0.4151  0.7408 -1.5070
 1653SOL    HW2 6611   3.703   2.446   5.110 -0.9259 -2.0539  0.2622
 1653SOL     MW 6612   3.705   2.420   5.027 -0.0320 -0.4913 -0.2523
 1654SOL     OW 6613   1.026   0.831   2.233 -0.9680  0.5443 -0.0230
 1654SOL    HW1 6614   0.999   0.895   2.166 -0.6910  0.1573 -0.5118
 1654SOL    HW2 6615   1.111   0.799   2.203 -1.4588 -0.6338 -0.2090
 1654SOL     MW 6616   1.033   0.835   2.220 -0.9954  0.3439 -0.1094
 1655SOL     OW 6617   4.431   1.605   0.617 -0.9011 -0.1064 -0.1478
 1655SOL    HW1 6618   4.446   1.525   0.666  3.1006 -0.7755 -2.0886
 1655SOL    HW2 6619   4.490   1.669   0.656 -0.8856  0.6224 -1.3091
 1655SOL     MW 6620   4.440   1.603   0.628 -0.3869 -0.0987 -0.5449
 1656SOL     OW 6621   4.690   1.107   0.956  0.3874  0.1609 -0.2105
 1656SOL    HW1 6622   4.707   1.015   0.937 -0.1797  0.1666 -0.7573
 1656SOL    HW2 6623   4.775   1.141   0.986  0.4951 -0.6352  0.4208
 1656SOL     MW 6624   4.703   1.100   0.958  0.3286  0.0597 -0.1997
 1657SOL     OW 6625   1.687   4.410   2.239  0.1879 -0.4010 -0.1550
 1657SOL    HW1 6626   1.768   4.390   2.285  0.5909  0.2274 -0.5851
 1657SOL    HW2 6627   1.678   4.505   2.245 -0.7066 -0.4905  0.1958
 1657SOL     MW 6628   1.696   4.420   2.246  0.1250 -0.3320 -0.1651
 1658SOL     OW 6629   3.228   4.951   4.177  0.1533 -0.3085  0.0713
 1658SOL    HW1 6630   3.316   4.988   4.173 -0.4333  1.1789  0.3565
 1658SOL    HW2 6631   3.193   4.963   4.089  0.1509 -0.6974  0.0172
 1658SOL     MW 6632   3.235   4.957   4.165  0.0779 -0.1679  0.1009
 1659SOL     OW 6633   3.510   5.271   3.043  0.6075 -0.1779 -0.1700
 1659SOL    HW1 6634   3.600   5.271   3.075  0.8796 -1.2413 -0.9156
 1659SOL    HW2 6635   3.459   5.305   3.116  1.7313  1.5050 -0.1111
 1659SOL     MW 6636   3.515   5.276   3.056  0.7862 -0.0986 -0.2579
 1660SOL     OW 6637   0.576   0.746   2.420 -0.5118 -0.3176  0.2900
 1660SOL    HW1 6638   0.664   0.713   2.402 -0.0799 -0.0932  1.8678
 1660SOL    HW2 6639   0.519   0.669   2.408  0.3494 -1.4515  2.8503
 1660SOL     MW 6640   0.580   0.732   2.416 -0.3463 -0.4341  0.8197
 1661SOL     OW 6641   3.167   3.649   5.455 -0.4072  0.3587  0.1181
 1661SOL    HW1 6642   3.183   3.580   5.519  0.7913  1.2927  0.8722
 1661SOL    HW2 6643   3.233   3.634   5.387 -2.1135 -1.0499 -1.3272
 1661SOL     MW 6644   3.177   3.638   5.455 -0.4722  0.2979  0.0296
 1662SOL     OW 6645   2.144   4.552   3.788  0.0574  0.6310 -0.5817
 1662SOL    HW1 6646   2.232   4.587   3.803  1.3218 -2.6025  0.1876
 1662SOL    HW2 6647   2.139   4.538   3.693  1.0636 -0.7245 -0.4565
 1662SOL     MW 6648   2.154   4.555   3.778  0.3481  0.0435 -0.4672
 1663SOL     OW 6649   1.984   3.021   2.466 -0.4077  1.3115  0.0845
 1663SOL    HW1 6650   1.890   3.004   2.461 -0.6377  1.7960  1.9368
 1663SOL    HW2 6651   2.021   2.974   2.391 -1.8561 -0.7754  0.5869
 1663SOL     MW 6652   1.976   3.013   2.456 -0.6226  1.1063  0.3859
 1664SOL     OW 6653   4.331   1.971   4.634  0.1457 -0.0331  0.2547
 1664SOL    HW1 6654   4.265   1.969   4.564  0.0453  0.7604  0.3151
 1664SOL    HW2 6655   4.412   1.996   4.591  0.5911 -1.7413  0.0546
 1664SOL     MW 6656   4.333   1.974   4.620  0.1899 -0.1502  0.2368
 1665SOL     OW 6657   3.569   2.654   2.820  0.2734 -0.3792 -0.1341
 1665SOL    HW1 6658   3.483   2.643   2.861  0.2100 -0.3430 -0.2565
 1665SOL    HW2 6659   3.617   2.711   2.880  0.0013  0.1091 -0.3699
 1665SOL     MW 6660   3.564   2.660   2.833  0.2304 -0.3121 -0.1799
 1666SOL     OW 6661   0.744   4.464   0.120 -0.5463 -0.0061  0.3386
 1666SOL    HW1 6662   0.703   4.450   0.035  0.2999  0.1154 -0.0880
 1666SOL    HW2 6663   0.703   4.397   0.177  0.9380 -2.0178 -0.8431
 1666SOL     MW 6664   0.733   4.453   0.117 -0.2480 -0.2481  0.1327
 1667SOL     OW 6665   5.016   1.146   2.124  0.3920 -0.4277 -0.4878
 1667SOL    HW1 6666   5.106   1.175   2.110  0.1132  0.6261 -0.2126
 1667SOL    HW2 6667   4.968   1.226   2.145 -0.7392 -0.8727 -1.2449
 1667SOL     MW 6668   5.021   1.160   2.125  0.2115 -0.3498 -0.5495
 1668SOL     OW 6669   5.147   1.402   4.903  0.4367 -0.3025 -0.0148
 1668SOL    HW1 6670   5.148   1.342   4.978  1.4366  0.7665  0.8528
 1668SOL    HW2 6671   5.071   1.373   4.851  0.7137 -2.1204  0.5110
 1668SOL     MW 6672   5.137   1.390   4.906  0.6001 -0.3983  0.1635
 1669SOL     OW 6673   0.856   0.057   2.815  0.4495  0.3414 -0.3553
 1669SOL    HW1 6674   0.894   0.041   2.901  0.9536 -0.1542 -0.6694
 1669SOL    HW2 6675   0.873   0.150   2.798  2.1956 -0.0371 -0.8172
 1669SOL     MW 6676   0.863   0.067   2.824  0.7375  0.2295 -0.4546
 1670SOL     OW 6677   3.976   0.736   2.289 -0.5134  0.5594  0.2923
 1670SOL    HW1 6678   3.965   0.642   2.306  0.1720  0.4685  0.2453
 1670SOL    HW2 6679   3.957   0.778   2.373 -0.7921  0.3834  0.3206
 1670SOL     MW 6680   3.972   0.729   2.302 -0.4613  0.5253  0.2899
 1671SOL     OW 6681   0.344   0.152   2.866  0.3515  0.5720 -0.1383
 1671SOL    HW1 6682   0.341   0.209   2.943  1.2449  1.2849 -0.6201
 1671SOL    HW2 6683   0.253   0.147   2.837 -0.0710 -0.0277  1.1721
 1671SOL     MW 6684   0.332   0.159   2.872  0.4118  0.5865 -0.0322
 1672SOL     OW 6685   1.468   3.175   0.906 -0.3877  0.1514 -0.2638
 1672SOL    HW1 6686   1.412   3.231   0.853 -2.7706 -4.2761 -3.0334
 1672SOL    HW2 6687   1.553   3.178   0.862 -0.1866  2.0127  0.1470
 1672SOL     MW 6688   1.472   3.183   0.894 -0.6670 -0.1771 -0.5657
 1673SOL     OW 6689   4.030   3.283   3.087  0.2577  0.0499  0.3667
 1673SOL    HW1 6690   3.995   3.366   3.054  1.1735  0.4103  0.2617
 1673SOL    HW2 6691   4.093   3.309   3.155  1.2279 -0.5044 -0.2998
 1673SOL     MW 6692   4.034   3.297   3.092  0.4992  0.0251  0.2679
 1674SOL     OW 6693   4.794   4.996   0.143  0.1262  0.3055  0.7678
 1674SOL    HW1 6694   4.872   5.033   0.184  2.1664 -2.8995  0.1116
 1674SOL    HW2 6695   4.816   4.991   0.050 -1.1180 -0.0893  0.4790
 1674SOL     MW 6696   4.807   5.000   0.137  0.2281 -0.1553  0.6468
 1675SOL     OW 6697   1.882   0.531   3.618 -0.2372  0.3652 -0.4707
 1675SOL    HW1 6698   1.799   0.573   3.599 -1.4246 -1.5360  0.2423
 1675SOL    HW2 6699   1.905   0.563   3.706 -0.4850  0.4682 -0.4432
 1675SOL     MW 6700   1.875   0.541   3.627 -0.4210  0.1350 -0.3759
 1676SOL     OW 6701   2.423   3.456   0.748 -0.0800  0.0460 -0.8839
 1676SOL    HW1 6702   2.461   3.430   0.664  0.6415  1.4298 -1.0260
 1676SOL    HW2 6703   2.335   3.488   0.726  0.8403  2.4052 -1.5085
 1676SOL     MW 6704   2.417   3.457   0.734  0.1301  0.5252 -0.9821
 1677SOL     OW 6705   0.222   0.067   3.581  0.5110  0.6060  0.3639
 1677SOL    HW1 6706   0.202   0.077   3.488 -2.2188 -1.6780  0.5372
 1677SOL    HW2 6707   0.257  -0.022   3.588  1.9342  1.2263  1.3809
 1677SOL     MW 6708   0.224   0.057   3.570  0.3437  0.3931  0.5163
 1678SOL     OW 6709   4.556   0.282   4.626  0.1433 -0.1936  0.3218
 1678SOL    HW1 6710   4.640   0.326   4.613 -0.3221  0.1103 -2.0499
 1678SOL    HW2 6711   4.528   0.257   4.538 -2.6400  0.4405  0.9302
 1678SOL     MW 6712   4.563   0.284   4.613 -0.2726 -0.0735  0.0961
 1679SOL     OW 6713   4.265   4.535   4.563 -0.1384 -0.2527 -0.1856
 1679SOL    HW1 6714   4.353   4.508   4.535 -0.8640 -1.5990 -1.2977
 1679SOL    HW2 6715   4.267   4.630   4.557  0.8076 -0.3225 -1.6634
 1679SOL     MW 6716   4.277   4.543   4.558 -0.1102 -0.4340 -0.5172
 1680SOL     OW 6717   1.256   2.533   5.225 -0.0339  0.2399 -0.1812
 1680SOL    HW1 6718   1.222   2.569   5.307  1.3496 -0.7927  0.9024
 1680SOL    HW2 6719   1.293   2.448   5.250 -1.2643 -0.9861 -2.2256
 1680SOL     MW 6720   1.256   2.526   5.239 -0.0143 -0.0492 -0.3042
 1681SOL     OW 6721   1.947   0.092   0.503  0.1850 -0.5551 -0.2614
 1681SOL    HW1 6722   1.959   0.115   0.595  1.6786  0.6869 -0.7094
 1681SOL    HW2 6723   1.865   0.135   0.478  1.2139  1.5589 -0.1971
 1681SOL     MW 6724   1.938   0.101   0.511  0.5079 -0.1255 -0.3105
 1682SOL     OW 6725   3.728   4.744   2.031  0.2945  0.6648 -0.1280
 1682SOL    HW1 6726   3.794   4.802   2.070  0.9967 -0.4090  0.3175
 1682SOL    HW2 6727   3.778   4.688   1.971  0.1740 -1.5318  1.7063
 1682SOL     MW 6728   3.743   4.744   2.028  0.3690  0.2461  0.1638
 1683SOL     OW 6729   1.259   0.441   4.071  0.1579 -0.4038  0.3174
 1683SOL    HW1 6730   1.256   0.515   4.010 -1.5490 -0.6334  0.0656
 1683SOL    HW2 6731   1.168   0.432   4.101  0.1743 -2.8351 -0.1920
 1683SOL     MW 6732   1.247   0.449   4.067 -0.0585 -0.7444  0.2199
 1684SOL     OW 6733   0.896   2.929   2.759 -0.0655 -0.0325 -0.0885
 1684SOL    HW1 6734   0.877   2.969   2.844  1.7061  1.4574 -0.3196
 1684SOL    HW2 6735   0.972   2.977   2.727 -0.3209 -0.9593 -2.2618
 1684SOL     MW 6736   0.903   2.940   2.766  0.1286  0.0396 -0.3963
 1685SOL     OW 6737   2.126   1.979   4.001 -0.0377  0.3624 -0.0083
 1685SOL    HW1 6738   2.197   2.041   3.986  0.2711 -0.1554 -0.7926
 1685SOL    HW2 6739   2.159   1.896   3.965 -1.6566  0.5019 -2.0063
 1685SOL     MW 6740   2.139   1.976   3.994 -0.2054  0.3140 -0.3645
 1686SOL     OW 6741   4.495   2.130   0.972 -0.3937 -0.4282 -0.0765
 1686SOL    HW1 6742   4.487   2.057   1.034  0.1733  0.9492  1.6911
 1686SOL    HW2 6743   4.408   2.136   0.931 -1.3916 -0.2188  1.9491
 1686SOL     MW 6744   4.483   2.121   0.974 -0.4488 -0.2251  0.4091
 1687SOL     OW 6745   2.180   1.781   0.455  0.1857 -0.2396  0.0566
 1687SOL    HW1 6746   2.150   1.865   0.489 -1.8617  0.5826 -3.3095
 1687SOL    HW2 6747   2.108   1.720   0.472  0.7510 -0.7987  0.5367
 1687SOL     MW 6748   2.167   1.784   0.461 -0.0041 -0.2060 -0.3128
 1688SOL     OW 6749   0.137   3.981   0.874 -0.2404 -0.6122 -1.0899
 1688SOL    HW1 6750   0.106   3.961   0.785 -0.3605 -1.8511 -0.7955
 1688SOL    HW2 6751   0.114   3.903   0.925 -4.4180  1.7388  1.1789
 1688SOL     MW 6752   0.130   3.968   0.869 -0.7906 -0.4698 -0.7618
 1689SOL     OW 6753   2.010   3.478   1.007 -0.1472  0.3650  0.2606
 1689SOL    HW1 6754   2.034   3.570   0.992 -1.7546  0.7310 -0.3307
 1689SOL    HW2 6755   2.053   3.430   0.937  0.5900  0.6882  0.4845
 1689SOL     MW 6756   2.018   3.484   0.996 -0.2586  0.4532  0.2135
 1690SOL     OW 6757   3.311   0.106   1.067  0.2698  0.6184 -0.6314
 1690SOL    HW1 6758   3.279   0.096   0.978  0.1518 -0.1530 -0.5124
 1690SOL    HW2 6759   3.370   0.032   1.080 -0.2711  0.3048  0.1557
 1690SOL     MW 6760   3.314   0.095   1.058  0.1854  0.4795 -0.5154
 1691SOL     OW 6761   3.327  -0.009   4.206 -0.1252  0.1652  0.2847
 1691SOL    HW1 6762   3.259   0.058   4.207 -0.0669  0.2405 -0.3651
 1691SOL    HW2 6763   3.349  -0.023   4.298 -0.0168  1.1719  0.4222
 1691SOL     MW 6764   3.321  -0.002   4.218 -0.1039  0.3037  0.2191
 1692SOL     OW 6765   1.686   5.016   1.425 -0.5600  0.3194 -0.3472
 1692SOL    HW1 6766   1.605   5.049   1.465  0.0466  2.6937 -0.8975
 1692SOL    HW2 6767   1.730   5.095   1.394  1.7209 -0.9730 -0.5580
 1692SOL     MW 6768   1.681   5.031   1.426 -0.1903  0.4579 -0.4447
 1693SOL     OW 6769   2.963   1.020   3.646  0.4186  0.3973  0.2431
 1693SOL    HW1 6770   3.024   1.046   3.714  1.4201 -0.7624 -0.1644
 1693SOL    HW2 6771   2.876   1.025   3.687  0.5864  3.4209  0.4226
 1693SOL     MW 6772   2.959   1.024   3.660  0.5683  0.6359  0.2139
 1694SOL     OW 6773   3.682   1.864   0.363 -0.3331 -0.3426 -0.1416
 1694SOL    HW1 6774   3.710   1.955   0.347 -0.8476 -0.0915  0.3672
 1694SOL    HW2 6775   3.707   1.818   0.283 -0.2918  0.3000 -0.5126
 1694SOL     MW 6776   3.689   1.870   0.350 -0.3937 -0.2282 -0.1240
 1695SOL     OW 6777   4.529   4.368   2.535  0.1551  0.3538  0.4792
 1695SOL    HW1 6778   4.503   4.428   2.465  0.6060 -0.4810 -0.4152
 1695SOL    HW2 6779   4.540   4.284   2.492 -1.6643 -0.6971  1.9065
 1695SOL     MW 6780   4.527   4.365   2.521 -0.0201  0.1124  0.5474
 1696SOL     OW 6781   1.824   1.859   4.831  0.4916  0.2042 -0.4681
 1696SOL    HW1 6782   1.853   1.943   4.866 -0.7398  0.3477  0.2865
 1696SOL    HW2 6783   1.901   1.823   4.787  0.9913  1.7932 -0.9615
 1696SOL     MW 6784   1.838   1.865   4.830  0.3979  0.4260 -0.4346
 1697SOL     OW 6785   2.565   1.508   1.807 -0.0187 -0.0042  0.7264
 1697SOL    HW1 6786   2.521   1.542   1.886 -0.3140 -0.3465  0.7114
 1697SOL    HW2 6787   2.652   1.483   1.838  0.8513  2.3274  0.4031
 1697SOL     MW 6788   2.570   1.510   1.821  0.0549  0.2505  0.6831
 1698SOL     OW 6789   1.800   3.706   0.902 -0.3205 -0.4070 -0.0517
 1698SOL    HW1 6790   1.803   3.799   0.921  1.0651 -0.2129 -1.0546
 1698SOL    HW2 6791   1.733   3.696   0.835 -0.1565 -0.0576 -0.2677
 1698SOL     MW 6792   1.792   3.716   0.896 -0.1221 -0.3374 -0.2077
 1699SOL     OW 6793   2.001   4.459   0.167  0.3367  0.5678 -0.1604
 1699SOL    HW1 6794   2.007   4.554   0.174 -0.0749  0.8899 -3.1229
 1699SOL    HW2 6795   2.091   4.429   0.170  0.4745  1.0173  0.6781
 1699SOL     MW 6796   2.013   4.467   0.168  0.3016  0.6666 -0.4323
 1700SOL     OW 6797   4.408   5.240   3.918 -0.1533  0.2717 -0.1918
 1700SOL    HW1 6798   4.336   5.255   3.857 -0.2047 -0.7273 -0.3984
 1700SOL    HW2 6799   4.381   5.163   3.968  2.8706 -3.5755 -3.7735
 1700SOL     MW 6800   4.395   5.232   3.917  0.2272 -0.3487 -0.6767
 1701SOL     OW 6801   4.010   4.119   0.743 -0.4746  0.1877 -0.4748
 1701SOL    HW1 6802   3.961   4.052   0.791 -0.4275 -0.6618 -1.5666
 1701SOL    HW2 6803   4.064   4.161   0.810 -2.8932  1.4125  0.8398
 1701SOL     MW 6804   4.011   4.116   0.758 -0.7782  0.2358 -0.4463
 1702SOL     OW 6805   5.298   1.904   1.398 -0.5482 -0.2853 -0.7319
 1702SOL    HW1 6806   5.283   1.859   1.481  0.7751  2.1107  0.9240
 1702SOL    HW2 6807   5.230   1.972   1.396 -0.0953  0.1546 -1.2250
 1702SOL     MW 6808   5.287   1.907   1.409 -0.3208  0.0778 -0.5831
 1703SOL     OW 6809   1.011   0.962   4.418 -0.1205  0.2688 -0.1172
 1703SOL    HW1 6810   1.066   1.033   4.451  0.0131 -0.6604  1.8092
 1703SOL    HW2 6811   1.002   0.980   4.325  0.3717  2.4982  0.1960
 1703SOL     MW 6812   1.017   0.974   4.410 -0.0404  0.4352  0.1695
 1704SOL     OW 6813   3.986   0.613   4.254  0.0502 -0.1540  0.2766
 1704SOL    HW1 6814   3.920   0.682   4.243  1.5428  1.6604  2.0169
 1704SOL    HW2 6815   3.957   0.565   4.332  0.9472  0.9045  1.2889
 1704SOL     MW 6816   3.974   0.616   4.263  0.3561  0.2137  0.6290
 1705SOL     OW 6817   4.939   1.105   3.280 -0.0217 -0.1423  0.4964
 1705SOL    HW1 6818   4.989   1.061   3.349 -0.0716  1.1430  1.3614
 1705SOL    HW2 6819   5.006   1.148   3.227 -0.0611 -0.3055  0.3114
 1705SOL     MW 6820   4.954   1.105   3.282 -0.0331  0.0013  0.5835
 1706SOL     OW 6821   5.274   1.842   5.041  0.2435  0.1732  0.1441
 1706SOL    HW1 6822   5.315   1.825   4.956 -0.2985 -0.0964 -0.0693
 1706SOL    HW2 6823   5.223   1.764   5.059 -2.6065  1.6017 -1.0308
 1706SOL     MW 6824   5.273   1.830   5.033 -0.1907  0.3216 -0.0337
 1707SOL     OW 6825   2.865   3.184   3.283 -0.0501  0.3229  0.0835
 1707SOL    HW1 6826   2.876   3.279   3.287  2.8502  0.2535 -2.0907
 1707SOL    HW2 6827   2.782   3.171   3.237 -0.8770  1.7504  1.1164
 1707SOL     MW 6828   2.856   3.194   3.277  0.2153  0.4968 -0.0626
 1708SOL     OW 6829   1.334   0.417   2.268 -0.0693 -0.5237  0.4844
 1708SOL    HW1 6830   1.287   0.354   2.322  1.3182 -0.4358  1.8269
 1708SOL    HW2 6831   1.265   0.456   2.213 -1.4032 -1.0941  1.6829
 1708SOL     MW 6832   1.319   0.414   2.268 -0.0625 -0.5854  0.8097
 1709SOL     OW 6833   4.807   3.239   4.113 -0.4786  0.0871 -0.6922
 1709SOL    HW1 6834   4.854   3.239   4.030 -1.6251  0.4984 -1.3713
 1709SOL    HW2 6835   4.737   3.303   4.101 -0.3594  0.5306  0.7850
 1709SOL     MW 6836   4.804   3.247   4.100 -0.6101  0.1965 -0.5900
 1710SOL     OW 6837   4.481   1.230   2.301 -0.3442  0.1836  0.5313
 1710SOL    HW1 6838   4.502   1.168   2.371  1.4915 -0.9352 -0.9417
 1710SOL    HW2 6839   4.489   1.316   2.342 -0.1044 -0.4674  1.8956
 1710SOL     MW 6840   4.484   1.233   2.315 -0.0785 -0.0430  0.5174
 1711SOL     OW 6841   1.572   2.725   4.544 -0.4228  0.3495 -0.1536
 1711SOL    HW1 6842   1.587   2.684   4.459 -0.2673  0.7424 -0.3211
 1711SOL    HW2 6843   1.649   2.780   4.557 -1.5867  2.2779 -0.9375
 1711SOL     MW 6844   1.584   2.727   4.535 -0.5518  0.6466 -0.2754
 1712SOL     OW 6845   3.792   3.833   3.001 -0.6410  0.8515 -0.6669
 1712SOL    HW1 6846   3.764   3.918   3.035 -0.9543  0.6176 -0.3347
 1712SOL    HW2 6847   3.824   3.852   2.913 -3.1107  0.9550 -1.6365
 1712SOL     MW 6848   3.792   3.846   2.994 -0.9972  0.8348 -0.7485
 1713SOL     OW 6849   5.491   4.541   4.667 -0.0559 -0.2658 -0.6934
 1713SOL    HW1 6850   5.475   4.454   4.631  1.2808 -0.8451  0.0429
 1713SOL    HW2 6851   5.464   4.535   4.759  2.4683 -0.7320  0.0797
 1713SOL     MW 6852   5.485   4.529   4.674  0.4383 -0.3996 -0.5002
 1714SOL     OW 6853   5.240   3.437   4.794  0.4802  0.1430  0.0842
 1714SOL    HW1 6854   5.254   3.348   4.764  0.3807  0.0618  0.2749
 1714SOL    HW2 6855   5.315   3.486   4.761  0.6722 -0.0674  0.2062
 1714SOL     MW 6856   5.251   3.432   4.786  0.4920  0.1057  0.1243
 1715SOL     OW 6857   0.811   1.332   2.278  0.2557  1.0801  0.5011
 1715SOL    HW1 6858   0.872   1.274   2.234 -1.0537  1.6805 -2.3122
 1715SOL    HW2 6859   0.741   1.274   2.309 -0.4412  0.9381 -1.2196
 1715SOL     MW 6860   0.810   1.317   2.277 -0.0011  1.1388 -0.0793
 1716SOL     OW 6861   0.837   1.601   0.120  0.3906 -0.0045  0.1329
 1716SOL    HW1 6862   0.777   1.645   0.060  0.7498  0.3681  0.0440
 1716SOL    HW2 6863   0.920   1.648   0.111  0.8050 -0.7493 -0.0155
 1716SOL     MW 6864   0.840   1.613   0.111  0.4896 -0.0521  0.1025
 1717SOL     OW 6865   3.279   0.830   2.374 -0.3138  0.1727  0.2982
 1717SOL    HW1 6866   3.203   0.807   2.427 -0.4928 -1.7029 -0.6771
 1717SOL    HW2 6867   3.266   0.782   2.292  1.9038 -0.1596  0.0880
 1717SOL     MW 6868   3.268   0.821   2.370 -0.0528 -0.1099  0.1465
 1718SOL     OW 6869   0.869   0.364   1.318 -0.0421 -0.5898  0.4780
 1718SOL    HW1 6870   0.938   0.380   1.381  0.3351 -2.5418  0.6235
 1718SOL    HW2 6871   0.913   0.323   1.243 -1.0181 -2.0541  0.6528
 1718SOL     MW 6872   0.883   0.361   1.316 -0.1187 -1.0271  0.5190
 1719SOL     OW 6873   0.049   2.450   5.387 -0.4428  0.2337 -0.1855
 1719SOL    HW1 6874   0.087   2.364   5.369 -2.1513 -0.6885  0.3084
 1719SOL    HW2 6875   0.022   2.483   5.302 -0.8784 -0.3021 -0.2651
 1719SOL     MW 6876   0.050   2.443   5.374 -0.7173  0.0471 -0.1325
 1720SOL     OW 6877   2.494   5.444   0.880 -0.0877 -0.0964 -0.0303
 1720SOL    HW1 6878   2.426   5.501   0.844  0.4282  0.3499 -0.3113
 1720SOL    HW2 6879   2.514   5.482   0.966  0.3683  0.2515 -0.2838
 1720SOL     MW 6880   2.488   5.456   0.887  0.0367  0.0052 -0.0987
 1721SOL     OW 6881   4.777   1.355   3.859  0.4107 -0.4271 -0.0241
 1721SOL    HW1 6882   4.683   1.349   3.843  0.1502  3.5478 -0.8670
 1721SOL    HW2 6883   4.790   1.441   3.899  3.6973 -0.9014  0.2389
 1721SOL     MW 6884   4.767   1.365   3.862  0.7981  0.0210 -0.0984
 1722SOL     OW 6885   5.322   4.064   5.250  0.7443 -0.4774  0.2049
 1722SOL    HW1 6886   5.330   3.973   5.222 -1.9840 -0.5389 -0.6735
 1722SOL    HW2 6887   5.370   4.114   5.185 -1.4252 -1.0220 -1.9753
 1722SOL     MW 6888   5.329   4.059   5.238  0.1173 -0.5550 -0.1866
 1723SOL     OW 6889   5.131   3.144   1.162  0.0586 -0.9605  0.1282
 1723SOL    HW1 6890   5.117   3.081   1.233 -0.0648 -1.6760 -0.5323
 1723SOL    HW2 6891   5.083   3.222   1.190 -1.4212 -1.8094  0.0501
 1723SOL     MW 6892   5.123   3.146   1.175 -0.1466 -1.1607  0.0337
 1724SOL     OW 6893   0.584   2.641   2.637  0.3672  0.5053 -0.9045
 1724SOL    HW1 6894   0.671   2.636   2.597  0.5142 -1.5119 -0.4423
 1724SOL    HW2 6895   0.525   2.615   2.567  0.2205  0.8751 -0.9210
 1724SOL     MW 6896   0.588   2.637   2.623  0.3672  0.2945 -0.8474
 1725SOL     OW 6897   4.873   2.199   0.409  0.3234 -0.3014 -0.3355
 1725SOL    HW1 6898   4.877   2.104   0.425  0.3852 -0.3575 -0.6717
 1725SOL    HW2 6899   4.905   2.209   0.319  0.3248  0.0401 -0.2965
 1725SOL     MW 6900   4.877   2.188   0.399  0.3315 -0.2649 -0.3735
 1726SOL     OW 6901   1.097   2.626   3.041  0.1456  1.2253 -0.0364
 1726SOL    HW1 6902   1.129   2.716   3.035 -0.4482  1.4240 -0.2506
 1726SOL    HW2 6903   1.074   2.616   3.133 -2.4536  2.2395 -0.4829
 1726SOL     MW 6904   1.099   2.637   3.052 -0.2632  1.3806 -0.1209
 1727SOL     OW 6905   5.024   4.265   0.272 -0.0361  0.3697  0.1830
 1727SOL    HW1 6906   4.951   4.273   0.210  0.4396  1.0413 -0.3009
 1727SOL    HW2 6907   5.097   4.308   0.229  0.6044 -0.1362  0.7518
 1727SOL     MW 6908   5.024   4.272   0.259  0.1068  0.3909  0.1939
 1728SOL     OW 6909   1.767   1.907   2.940  0.3631  0.4239  0.3214
 1728SOL    HW1 6910   1.788   2.000   2.947  0.0990  0.5527 -0.5704
 1728SOL    HW2 6911   1.705   1.891   3.012 -0.3144  1.1453 -0.0859
 1728SOL     MW 6912   1.762   1.916   2.950  0.2426  0.5327  0.1551
 1729SOL     OW 6913   3.137   0.559   5.114 -0.2980 -0.1491  0.2786
 1729SOL    HW1 6914   3.199   0.486   5.112  1.2411  1.1039  0.1188
 1729SOL    HW2 6915   3.139   0.590   5.204 -0.6805 -0.0805  0.2663
 1729SOL     MW 6916   3.145   0.553   5.125 -0.1499  0.0200  0.2566
 1730SOL     OW 6917   0.145   4.907   1.809 -0.1222 -0.0822  0.3881
 1730SOL    HW1 6918   0.148   4.832   1.749 -0.2867  0.8402 -0.8035
 1730SOL    HW2 6919   0.052   4.921   1.824 -0.0720 -1.2365  2.1100
 1730SOL     MW 6920   0.134   4.899   1.803 -0.1368 -0.1119  0.4560
 1731SOL     OW 6921   0.748   3.193   1.751  0.0442 -0.2236  0.3271
 1731SOL    HW1 6922   0.826   3.216   1.801 -0.3679 -0.9627  1.3341
 1731SOL    HW2 6923   0.682   3.175   1.817 -0.6051 -0.8948 -0.4963
 1731SOL     MW 6924   0.750   3.194   1.766 -0.0916 -0.4041  0.3506
 1732SOL     OW 6925   2.229   4.546   2.743  0.6387 -0.7445 -0.2153
 1732SOL    HW1 6926   2.135   4.547   2.725  0.3914  0.9803  0.9066
 1732SOL    HW2 6927   2.270   4.565   2.659 -0.1621  0.6539 -0.3248
 1732SOL     MW 6928   2.222   4.549   2.730  0.5045 -0.3447 -0.0857
 1733SOL     OW 6929   4.864   0.304   0.005 -0.4506  0.0487 -0.2955
 1733SOL    HW1 6930   4.953   0.284   0.033 -0.5288  0.4507  0.2704
 1733SOL    HW2 6931   4.865   0.397  -0.014  0.0190 -0.4853 -3.3180
 1733SOL     MW 6932   4.875   0.313   0.006 -0.4005  0.0318 -0.6100
 1734SOL     OW 6933   2.168   0.944   4.135 -0.1686  1.1261 -0.1412
 1734SOL    HW1 6934   2.217   0.978   4.210  0.0579  1.2880 -0.3584
 1734SOL    HW2 6935   2.192   0.851   4.130 -0.9056  0.8857  0.5445
 1734SOL     MW 6936   2.177   0.936   4.144 -0.2339  1.1161 -0.0812
 1735SOL     OW 6937   1.730   0.672   1.527 -0.5664  0.2773  0.2920
 1735SOL    HW1 6938   1.649   0.620   1.518 -0.1448 -0.3009 -0.2535
 1735SOL    HW2 6939   1.795   0.624   1.476 -0.2839  1.6216 -0.6624
 1735SOL     MW 6940   1.728   0.659   1.519 -0.4763  0.3753  0.1000
 1736SOL     OW 6941   1.572   3.856   1.810  0.2088 -0.4046 -0.1299
 1736SOL    HW1 6942   1.552   3.887   1.721 -2.4013  0.1402  0.5645
 1736SOL    HW2 6943   1.582   3.761   1.801  0.2596 -0.3201 -1.0451
 1736SOL     MW 6944   1.571   3.848   1.797 -0.1189 -0.3240 -0.1581
 1737SOL     OW 6945   5.224   2.193   0.152  0.1366 -0.1240 -0.2758
 1737SOL    HW1 6946   5.197   2.265   0.209  0.9074  0.1862 -0.3025
 1737SOL    HW2 6947   5.148   2.177   0.096 -1.4982 -1.8369  2.1806
 1737SOL     MW 6948   5.210   2.200   0.152  0.0260 -0.3036  0.0352
 1738SOL     OW 6949   1.886   3.928   3.913  0.5960  0.3658  0.3029
 1738SOL    HW1 6950   1.903   4.003   3.856 -0.8569  0.9496  0.5886
 1738SOL    HW2 6951   1.924   3.952   3.997  1.5392  0.0896 -0.0396
 1738SOL     MW 6952   1.893   3.941   3.917  0.5307  0.4052  0.2957
 1739SOL     OW 6953   4.060   2.640   2.742 -0.3721 -0.2988  0.4596
 1739SOL    HW1 6954   4.134   2.682   2.785  0.6461 -1.9628  0.4417
 1739SOL    HW2 6955   4.069   2.662   2.649 -0.6724  0.5846  0.6375
 1739SOL     MW 6956   4.070   2.648   2.736 -0.2802 -0.3987  0.4801
 1740SOL     OW 6957   4.916   3.768   4.133 -0.5367  0.0529  0.2905
 1740SOL    HW1 6958   4.824   3.764   4.110 -0.4169  0.7569 -0.3300
 1740SOL    HW2 6959   4.918   3.811   4.219 -0.6696  2.1622 -0.6870
 1740SOL     MW 6960   4.905   3.773   4.141 -0.5384  0.4131  0.0859
 1741SOL     OW 6961   1.269   4.898   1.323  0.4364  0.4854 -0.7106
 1741SOL    HW1 6962   1.286   4.805   1.335  0.3696  0.4761 -0.6878
 1741SOL    HW2 6963   1.262   4.933   1.412 -0.6966  0.2988 -0.7076
 1741SOL     MW 6964   1.270   4.890   1.336  0.2828  0.4603 -0.7073
 1742SOL     OW 6965   2.025   4.169   5.317 -0.1680 -0.3707 -0.2466
 1742SOL    HW1 6966   1.947   4.192   5.266  0.4255  0.9572 -0.5877
 1742SOL    HW2 6967   2.006   4.082   5.352 -0.9515 -0.9354 -1.9986
 1742SOL     MW 6968   2.012   4.161   5.315 -0.1923 -0.2730 -0.5145
 1743SOL     OW 6969   1.015   2.434   1.569  0.0504 -0.5711 -0.0052
 1743SOL    HW1 6970   0.994   2.500   1.503  1.1798 -0.3321 -0.1522
 1743SOL    HW2 6971   1.034   2.484   1.648 -2.3549 -0.8971  0.8700
 1743SOL     MW 6972   1.015   2.449   1.571 -0.1129 -0.5822  0.0880
 1744SOL     OW 6973   0.059   4.429   0.283  0.0009  0.1276  0.8870
 1744SOL    HW1 6974   0.058   4.358   0.347 -0.9627 -0.8320 -0.1517
 1744SOL    HW2 6975   0.054   4.385   0.198 -1.6529  1.4520  0.2461
 1744SOL     MW 6976   0.058   4.414   0.280 -0.3342  0.1743  0.6720
 1745SOL     OW 6977   2.979   0.143   2.158  0.0782 -0.2002  0.4273
 1745SOL    HW1 6978   2.886   0.159   2.143  0.1366 -0.2524  0.0045
 1745SOL    HW2 6979   3.004   0.207   2.225 -0.1871  0.0236  0.3130
 1745SOL     MW 6980   2.971   0.153   2.165  0.0517 -0.1782  0.3586
 1746SOL     OW 6981   3.617   4.868   5.327  0.0455  0.2096  0.3569
 1746SOL    HW1 6982   3.669   4.945   5.304  0.1341  0.2671  0.7446
 1746SOL    HW2 6983   3.658   4.834   5.407 -1.3311  1.0545  1.4666
 1746SOL     MW 6984   3.629   4.874   5.335 -0.1194  0.3251  0.5486
 1747SOL     OW 6985   3.229   3.700   0.441  0.1546 -0.1024 -0.0716
 1747SOL    HW1 6986   3.294   3.763   0.471 -1.0292  0.6224  1.0479
 1747SOL    HW2 6987   3.218   3.720   0.348  0.8657  0.3451 -0.0705
 1747SOL     MW 6988   3.236   3.710   0.433  0.0941  0.0477  0.0719
 1748SOL     OW 6989   4.657   3.704   2.040 -0.1861 -0.2371 -0.2131
 1748SOL    HW1 6990   4.751   3.704   2.022 -0.3144  0.4346 -0.9609
 1748SOL    HW2 6991   4.642   3.788   2.084 -0.1491 -1.1555  1.6513
 1748SOL     MW 6992   4.667   3.715   2.043 -0.1978 -0.2687 -0.0702
 1749SOL     OW 6993   1.546   0.652   2.825 -0.2723 -0.0085 -0.4011
 1749SOL    HW1 6994   1.533   0.557   2.816 -0.3384  0.0671 -1.1187
 1749SOL    HW2 6995   1.611   0.660   2.895 -0.5409 -0.5672 -0.0778
 1749SOL     MW 6996   1.553   0.641   2.833 -0.3152 -0.0704 -0.4516
 1750SOL     OW 6997   4.328   2.171   5.412  0.0564 -0.5989 -0.7279
 1750SOL    HW1 6998   4.323   2.075   5.404 -2.9385 -0.6373  0.4109
 1750SOL    HW2 6999   4.282   2.204   5.335 -1.0944 -0.1817  0.1099
 1750SOL     MW 7000   4.322   2.163   5.401 -0.4743 -0.5504 -0.4749
 1751SOL     OW 7001   4.186   4.845   4.856  0.0669  0.0492  0.2339
 1751SOL    HW1 7002   4.097   4.836   4.821 -0.0494 -1.5109  0.8450
 1751SOL    HW2 7003   4.190   4.935   4.888 -1.9966 -0.3998  1.9896
 1751SOL     MW 7004   4.175   4.856   4.855 -0.2122 -0.2080  0.5369
 1752SOL     OW 7005   4.880   4.946   5.357  0.1379 -0.3145 -0.3218
 1752SOL    HW1 7006   4.801   4.998   5.342 -0.3184 -0.5818  1.0564
 1752SOL    HW2 7007   4.950   4.997   5.317 -0.8906 -0.7628 -2.8902
 1752SOL     MW 7008   4.879   4.959   5.350 -0.0522 -0.4061 -0.4741
 1753SOL     OW 7009   0.143   0.975   2.679  0.2325  0.3666  0.1693
 1753SOL    HW1 7010   0.236   0.988   2.657  0.5412 -1.5935  0.0781
 1753SOL    HW2 7011   0.099   0.970   2.594  0.5523 -1.6311  0.0648
 1753SOL     MW 7012   0.150   0.976   2.665  0.3130 -0.1400  0.1442
 1754SOL     OW 7013   2.141   5.211   2.400 -0.4568  0.6515  0.4257
 1754SOL    HW1 7014   2.064   5.188   2.452 -0.5118 -1.5690 -0.5025
 1754SOL    HW2 7015   2.109   5.216   2.310  0.3688  0.1248  0.0838
 1754SOL     MW 7016   2.127   5.208   2.395 -0.3581  0.2998  0.2631
 1755SOL     OW 7017   3.114   4.155   4.979  0.2556 -1.2530 -0.8323
 1755SOL    HW1 7018   3.156   4.103   4.910  0.7557 -0.3006 -1.2609
 1755SOL    HW2 7019   3.061   4.219   4.932  0.0152 -1.0714 -0.3196
 1755SOL     MW 7020   3.113   4.156   4.964  0.2889 -1.1078 -0.8215
 1756SOL     OW 7021   0.938   3.105   4.401 -0.0219  0.6883  0.3318
 1756SOL    HW1 7022   0.972   3.052   4.329  0.7724  0.8271  0.5823
 1756SOL    HW2 7023   0.998   3.086   4.474  0.1254  1.7282  0.4975
 1756SOL     MW 7024   0.950   3.096   4.401  0.0986  0.8392  0.3851
 1757SOL     OW 7025   2.517   4.756   2.000  0.4486 -0.0108 -0.0807
 1757SOL    HW1 7026   2.555   4.715   2.078  1.6545 -1.8138 -1.5399
 1757SOL    HW2 7027   2.434   4.711   1.987  0.4237  0.0293 -0.0640
 1757SOL     MW 7028   2.511   4.745   2.008  0.5998 -0.2364 -0.2653
 1758SOL     OW 7029   4.940   0.046   4.051 -0.1193 -0.5621  0.2280
 1758SOL    HW1 7030   5.010  -0.017   4.032 -0.1243 -0.7332  0.7625
 1758SOL    HW2 7031   4.863  -0.009   4.068 -0.3072 -0.3842 -0.0380
 1758SOL     MW 7032   4.939   0.031   4.051 -0.1440 -0.5612  0.2624
 1759SOL     OW 7033   5.436   2.306   1.695  0.6262 -0.4195  0.5334
 1759SOL    HW1 7034   5.374   2.301   1.768 -2.7937 -1.4212 -2.1581
 1759SOL    HW2 7035   5.521   2.315   1.736 -1.0755 -0.9062  4.6077
 1759SOL     MW 7036   5.439   2.306   1.709 -0.0294 -0.6100  0.7104
 1760SOL     OW 7037   2.441   2.716   3.698 -0.5896 -0.2700 -0.0679
 1760SOL    HW1 7038   2.362   2.754   3.661 -0.0149 -0.2516 -1.3302
 1760SOL    HW2 7039   2.461   2.772   3.774 -0.9355  0.6713 -0.6544
 1760SOL     MW 7040   2.434   2.728   3.703 -0.5603 -0.1471 -0.3045
 1761SOL     OW 7041   3.584   4.560   3.958  0.3590 -0.4994 -0.3435
 1761SOL    HW1 7042   3.601   4.643   4.003 -0.8440 -0.1715 -0.4651
 1761SOL    HW2 7043   3.671   4.528   3.934  0.9380  0.0387  0.9283
 1761SOL     MW 7044   3.597   4.567   3.961  0.2792 -0.3885 -0.1963
 1762SOL     OW 7045   0.619   1.813   3.744 -0.3990 -0.0540  0.2373
 1762SOL    HW1 7046   0.694   1.872   3.753 -1.7027  1.5808  1.0017
 1762SOL    HW2 7047   0.658   1.726   3.730  1.6109  0.7523  0.4675
 1762SOL     MW 7048   0.634   1.809   3.744 -0.3086  0.2585  0.3646
 1763SOL     OW 7049   4.110   1.077   4.386 -0.7632  0.2395  0.3144
 1763SOL    HW1 7050   4.059   1.157   4.397 -0.3128  0.3936  1.3442
 1763SOL    HW2 7051   4.044   1.009   4.369 -1.1413  0.8163 -0.6497
 1763SOL     MW 7052   4.095   1.079   4.385 -0.7540  0.3330  0.3228
 1764SOL     OW 7053   1.662   3.297   2.360  0.2573  0.3190 -0.0817
 1764SOL    HW1 7054   1.649   3.209   2.397  0.3682 -0.8085 -2.4967
 1764SOL    HW2 7055   1.752   3.296   2.329 -0.2316  0.6767 -1.5755
 1764SOL     MW 7056   1.672   3.285   2.361  0.2089  0.2205 -0.5821
 1765SOL     OW 7057   0.497   1.632   0.954  0.0023 -0.2913 -0.6164
 1765SOL    HW1 7058   0.456   1.675   1.029 -1.7672  1.4585 -2.4353
 1765SOL    HW2 7059   0.539   1.703   0.905  1.7588 -1.4903 -0.9251
 1765SOL     MW 7060   0.497   1.647   0.957  0.0007 -0.2208 -0.8888
 1766SOL     OW 7061   3.018   1.653   1.542  0.0101 -0.1279  0.0385
 1766SOL    HW1 7062   3.018   1.735   1.591 -1.1114 -0.6460  0.9393
 1766SOL    HW2 7063   3.110   1.637   1.524  0.4709  0.1509  1.8842
 1766SOL     MW 7064   3.030   1.661   1.546 -0.0745 -0.1585  0.3901
 1767SOL     OW 7065   3.527   3.037   1.369  0.5353 -0.0763  0.9006
 1767SOL    HW1 7066   3.607   3.071   1.407  0.7971  0.8107 -0.3469
 1767SOL    HW2 7067   3.475   3.116   1.349 -1.0005 -0.6496  2.3708
 1767SOL     MW 7068   3.530   3.052   1.371  0.3722 -0.0362  0.9291
 1768SOL     OW 7069   2.312   1.516   3.436 -0.3442  0.0372  1.1431
 1768SOL    HW1 7070   2.255   1.481   3.367  0.0270  0.7314  0.4693
 1768SOL    HW2 7071   2.362   1.441   3.467  1.7234  0.1784 -1.4922
 1768SOL     MW 7072   2.311   1.502   3.431 -0.0320  0.1441  0.7195
 1769SOL     OW 7073   3.721   1.421   3.723  0.2168  0.1496  0.1767
 1769SOL    HW1 7074   3.767   1.371   3.655  0.2507  0.4030  0.0122
 1769SOL    HW2 7075   3.774   1.410   3.801  0.5963  0.4963 -0.0294
 1769SOL     MW 7076   3.733   1.413   3.724  0.2697  0.2264  0.1292
 1770SOL     OW 7077   1.114   1.843   1.607  0.0825 -0.8628 -0.3883
 1770SOL    HW1 7078   1.200   1.821   1.642  0.7175  1.7623 -0.0796
 1770SOL    HW2 7079   1.052   1.806   1.671  1.0692 -0.4614  0.8489
 1770SOL     MW 7080   1.117   1.835   1.620  0.2901 -0.4754 -0.1904
 1771SOL     OW 7081   0.871   2.642   2.465 -0.7377 -0.1563  0.0071
 1771SOL    HW1 7082   0.880   2.571   2.529 -1.6623 -0.2855  0.0109
 1771SOL    HW2 7083   0.941   2.703   2.488 -0.5090 -0.6192  0.5897
 1771SOL     MW 7084   0.881   2.640   2.476 -0.8268 -0.2321  0.0822
 1772SOL     OW 7085   4.945   1.387   4.450  0.2299  0.1177 -0.3033
 1772SOL    HW1 7086   4.850   1.385   4.437  0.2429 -0.8612 -0.3521
 1772SOL    HW2 7087   4.971   1.475   4.425 -0.8092  0.7477  0.7387
 1772SOL     MW 7088   4.936   1.398   4.445  0.0986  0.0730 -0.1762
 1773SOL     OW 7089   3.228   1.992   0.225 -0.5302 -0.5782 -0.1538
 1773SOL    HW1 7090   3.196   2.053   0.158 -1.3218 -1.3009 -0.4485
 1773SOL    HW2 7091   3.167   1.919   0.222 -0.8798 -0.4210  1.7030
 1773SOL     MW 7092   3.216   1.991   0.216 -0.6763 -0.6506  0.0462
 1774SOL     OW 7093   4.994   3.051   5.215  0.5209 -0.0333 -0.2540
 1774SOL    HW1 7094   4.999   2.956   5.222  0.8599 -0.0330 -0.4851
 1774SOL    HW2 7095   4.940   3.067   5.138  0.7535 -0.0386 -0.4180
 1774SOL     MW 7096   4.987   3.041   5.206  0.5941 -0.0339 -0.3046
 1775SOL     OW 7097   5.176   3.219   3.957  0.0120 -0.5701  0.5380
 1775SOL    HW1 7098   5.237   3.206   3.884 -0.1508  0.4605  0.1932
 1775SOL    HW2 7099   5.189   3.143   4.013 -0.4178 -1.7832 -0.9496
 1775SOL     MW 7100   5.186   3.208   3.955 -0.0638 -0.5935  0.3034
 1776SOL     OW 7101   1.406   4.306   0.860 -0.2741 -0.3969 -0.1529
 1776SOL    HW1 7102   1.496   4.335   0.850 -0.8228  1.9922  1.0178
 1776SOL    HW2 7103   1.389   4.315   0.954 -1.3027 -2.2460 -0.1240
 1776SOL     MW 7104   1.415   4.311   0.871 -0.4760 -0.3278  0.0007
 1777SOL     OW 7105   4.304   0.251   0.078 -0.0386 -0.5736 -0.4320
 1777SOL    HW1 7106   4.260   0.302   0.009  0.4837 -1.3450 -1.3709
 1777SOL    HW2 7107   4.258   0.274   0.158 -0.0340  1.1100 -0.8759
 1777SOL     MW 7108   4.293   0.261   0.079  0.0288 -0.4568 -0.6090
 1778SOL     OW 7109   2.815   4.211   2.130 -0.3197  0.0541 -0.0279
 1778SOL    HW1 7110   2.882   4.149   2.102 -0.0029  0.4054 -0.0570
 1778SOL    HW2 7111   2.796   4.263   2.052 -2.8239 -1.9605 -0.9149
 1778SOL     MW 7112   2.821   4.210   2.116 -0.5997 -0.1589 -0.1452
 1779SOL     OW 7113   3.951   0.703   0.331 -0.4171  0.0282  0.4374
 1779SOL    HW1 7114   3.976   0.665   0.415  1.8646 -0.5318 -0.4369
 1779SOL    HW2 7115   4.025   0.758   0.305 -0.7278 -0.3994 -1.5403
 1779SOL     MW 7116   3.963   0.705   0.338 -0.1648 -0.0982  0.0723
 1780SOL     OW 7117   3.207   1.706   4.567 -0.0225 -0.2641  0.0870
 1780SOL    HW1 7118   3.257   1.739   4.492 -1.5737  1.0623 -0.4364
 1780SOL    HW2 7119   3.125   1.755   4.564 -1.0787 -1.8573  1.3042
 1780SOL     MW 7120   3.203   1.717   4.557 -0.3563 -0.2983  0.1758
 1781SOL     OW 7121   4.545   1.825   5.394  0.1387 -0.1281  0.2050
 1781SOL    HW1 7122   4.579   1.915   5.384  0.4230 -0.1093  1.2017
 1781SOL    HW2 7123   4.515   1.801   5.307  0.5646  0.7399 -0.1959
 1781SOL     MW 7124   4.546   1.834   5.382  0.2296 -0.0146  0.2813
 1782SOL     OW 7125   5.404   1.824   4.802  0.3539 -0.1876 -0.8202
 1782SOL    HW1 7126   5.405   1.917   4.783  0.5317 -0.0166 -0.0218
 1782SOL    HW2 7127   5.324   1.791   4.760 -1.5230  0.9382  1.5667
 1782SOL     MW 7128   5.394   1.831   4.795  0.1364 -0.0216 -0.4124
 1783SOL     OW 7129   4.307   1.742   3.682  0.3389 -0.1105 -0.2111
 1783SOL    HW1 7130   4.360   1.671   3.648 -1.9757 -1.6317 -0.9007
 1783SOL    HW2 7131   4.227   1.741   3.628  0.8766  4.2202 -1.5068
 1783SOL     MW 7132   4.303   1.733   3.671  0.1114  0.2492 -0.4653
 1784SOL     OW 7133   3.331   0.433   1.461 -0.5843 -0.0990  0.2896
 1784SOL    HW1 7134   3.372   0.440   1.547 -0.4514 -0.1008  0.2261
 1784SOL    HW2 7135   3.386   0.487   1.404 -1.6920  1.3960  0.5807
 1784SOL     MW 7136   3.343   0.441   1.465 -0.7091  0.0921  0.3187
 1785SOL     OW 7137   2.770   5.454   4.453 -0.1051 -0.0818 -0.3234
 1785SOL    HW1 7138   2.737   5.544   4.459  4.7559  2.0815 -1.2331
 1785SOL    HW2 7139   2.758   5.418   4.541 -3.0860  0.9621 -0.1876
 1785SOL     MW 7140   2.764   5.461   4.465  0.1356  0.3287 -0.4224
 1786SOL     OW 7141   0.392   0.782   2.167 -0.2851  0.0709  0.8017
 1786SOL    HW1 7142   0.435   0.811   2.248 -1.9955  1.1362  1.3769
 1786SOL    HW2 7143   0.462   0.782   2.102  1.0245 -0.3034  2.1504
 1786SOL     MW 7144   0.407   0.786   2.169 -0.3364  0.1594  1.0480
 1787SOL     OW 7145   1.345   2.691   3.848 -0.4506  0.3069  0.1170
 1787SOL    HW1 7146   1.254   2.707   3.873 -0.4984 -0.9306  0.7907
 1787SOL    HW2 7147   1.349   2.711   3.755 -1.7620 -1.0391 -0.2441
 1787SOL     MW 7148   1.334   2.696   3.839 -0.6246 -0.0238  0.1570
 1788SOL     OW 7149   0.272   0.731   4.138 -0.0663 -0.0790  0.2090
 1788SOL    HW1 7150   0.348   0.705   4.190  0.5583 -0.6338 -0.9506
 1788SOL    HW2 7151   0.242   0.812   4.180  0.3832 -0.5216  1.4465
 1788SOL     MW 7152   0.278   0.738   4.150  0.0712 -0.2067  0.2190
 1789SOL     OW 7153   3.405   5.008   5.478  0.1483 -0.5385 -0.4865
 1789SOL    HW1 7154   3.342   5.068   5.438 -0.2510 -1.4067 -1.1923
 1789SOL    HW2 7155   3.480   5.009   5.419  0.6345  0.1564  0.1234
 1789SOL     MW 7156   3.407   5.016   5.465  0.1595 -0.5607 -0.4988
 1790SOL     OW 7157   5.459   1.197   2.742  0.3795  0.1099  0.5754
 1790SOL    HW1 7158   5.385   1.144   2.713  0.2101  1.4948 -1.8975
 1790SOL    HW2 7159   5.534   1.160   2.695  0.8700  0.0013  1.4389
 1790SOL     MW 7160   5.459   1.186   2.732  0.4206  0.2732  0.3694
 1791SOL     OW 7161   0.362   2.338   0.789  0.1866 -0.1619 -1.0724
 1791SOL    HW1 7162   0.324   2.250   0.793  0.6448 -0.3326 -0.3742
 1791SOL    HW2 7163   0.286   2.397   0.795 -0.2233 -0.4958 -2.6249
 1791SOL     MW 7164   0.347   2.335   0.790  0.1928 -0.2265 -1.1818
 1792SOL     OW 7165   2.667   4.911   1.092 -0.0123 -0.4259  0.0585
 1792SOL    HW1 7166   2.704   4.974   1.031  2.4781  0.5888  2.4293
 1792SOL    HW2 7167   2.659   4.830   1.041  4.5083 -0.4211 -1.0780
 1792SOL     MW 7168   2.670   4.908   1.078  0.8852 -0.2954  0.2165
 1793SOL     OW 7169   3.225   4.774   0.294 -0.1378  0.2641  0.0135
 1793SOL    HW1 7170   3.268   4.849   0.335  0.8965 -0.6404  0.6596
 1793SOL    HW2 7171   3.296   4.712   0.277 -1.1933 -1.5706  1.7344
 1793SOL     MW 7172   3.240   4.776   0.297 -0.1405 -0.0866  0.3165
 1794SOL     OW 7173   2.711   2.696   3.971 -0.2104 -0.0793 -0.3802
 1794SOL    HW1 7174   2.708   2.643   4.051  0.3979 -1.9333 -1.5379
 1794SOL    HW2 7175   2.803   2.720   3.962 -0.1714 -0.4097 -0.8641
 1794SOL     MW 7176   2.722   2.693   3.980 -0.1275 -0.3589 -0.5903
 1795SOL     OW 7177   4.184   0.985   3.290 -0.3984 -0.1802  0.3852
 1795SOL    HW1 7178   4.219   0.947   3.210  1.6705  0.0749  1.1141
 1795SOL    HW2 7179   4.102   0.938   3.305 -0.5864 -0.5585 -1.5894
 1795SOL     MW 7180   4.178   0.974   3.282 -0.1576 -0.1960  0.2257
 1796SOL     OW 7181   0.353   4.158   0.328 -0.4856  0.1474 -0.0976
 1796SOL    HW1 7182   0.346   4.209   0.409  0.4719 -0.2613  0.2573
 1796SOL    HW2 7183   0.374   4.223   0.261 -2.2849  0.6367 -0.2357
 1796SOL     MW 7184   0.355   4.173   0.330 -0.5934  0.1577 -0.0699
 1797SOL     OW 7185   3.886   2.574   1.719  0.2216 -0.2035 -0.1683
 1797SOL    HW1 7186   3.906   2.568   1.625  0.3803 -0.6814 -0.1065
 1797SOL    HW2 7187   3.962   2.620   1.756  0.8054 -1.1969 -0.0787
 1797SOL     MW 7188   3.899   2.579   1.712  0.3166 -0.3918 -0.1489
 1798SOL     OW 7189   0.846   0.691   2.688 -0.7905 -0.2784  0.5381
 1798SOL    HW1 7190   0.767   0.640   2.707 -0.6910 -0.6827 -0.1142
 1798SOL    HW2 7191   0.852   0.690   2.593 -0.3197  0.2473  0.5643
 1798SOL     MW 7192   0.836   0.684   2.678 -0.7175 -0.2629  0.4579
 1799SOL     OW 7193   1.633   2.287   1.015 -0.0376 -0.5165 -0.5181
 1799SOL    HW1 7194   1.574   2.312   0.943 -1.4706 -2.0214  0.0689
 1799SOL    HW2 7195   1.585   2.312   1.094  1.0342  0.0778 -0.0446
 1799SOL     MW 7196   1.619   2.294   1.016 -0.0838 -0.6330 -0.3823
 1800SOL     OW 7197   4.812   4.855   0.533 -0.2245 -0.0891  0.2673
 1800SOL    HW1 7198   4.792   4.764   0.554  1.4485 -0.6257 -0.2656
 1800SOL    HW2 7199   4.731   4.890   0.497 -1.5791 -0.6721  2.5676
 1800SOL     MW 7200   4.799   4.847   0.531 -0.1838 -0.2325  0.4935
 1801SOL     OW 7201   4.622   4.157   1.334  0.3280 -0.0422 -0.0925
 1801SOL    HW1 7202   4.666   4.131   1.252  0.2777 -0.6547  0.0697
 1801SOL    HW2 7203   4.692   4.155   1.399  0.2210 -0.2542  0.0161
 1801SOL     MW 7204   4.637   4.154   1.332  0.3079 -0.1477 -0.0578
 1802SOL     OW 7205   4.869   5.337   0.076  0.2771 -0.0890  0.6936
 1802SOL    HW1 7206   4.787   5.337   0.027  0.1578 -1.8728  0.8275
 1802SOL    HW2 7207   4.921   5.406   0.035 -0.8971  0.3916 -0.0514
 1802SOL     MW 7208   4.865   5.345   0.064  0.1115 -0.2558  0.6154
 1803SOL     OW 7209   2.510   1.920   3.921 -0.1823  0.2078 -0.5010
 1803SOL    HW1 7210   2.488   1.936   4.013 -2.1020  0.1667 -0.9106
 1803SOL    HW2 7211   2.468   1.991   3.874 -1.8907 -1.4415 -1.6078
 1803SOL     MW 7212   2.502   1.931   3.927 -0.6467 -0.0086 -0.6951
 1804SOL     OW 7213   0.974   4.176   2.220  0.1288 -0.3790  0.1710
 1804SOL    HW1 7214   0.962   4.206   2.311  0.0447  1.3568 -0.3660
 1804SOL    HW2 7215   1.059   4.213   2.195  0.0799 -0.7201 -0.5144
 1804SOL     MW 7216   0.984   4.185   2.229  0.1118 -0.2004  0.0145
 1805SOL     OW 7217   5.330   4.908   1.662  0.1569 -1.0742  0.6144
 1805SOL    HW1 7218   5.343   4.820   1.626 -2.0164 -2.1761  2.2327
 1805SOL    HW2 7219   5.304   4.961   1.586 -1.5714 -2.6315  0.0184
 1805SOL     MW 7220   5.328   4.903   1.647 -0.3425 -1.4146  0.7453
 1806SOL     OW 7221   4.837   2.267   0.765  0.0399  0.1632 -0.0990
 1806SOL    HW1 7222   4.872   2.295   0.849 -1.5652  0.4396  0.5067
 1806SOL    HW2 7223   4.827   2.172   0.774  0.3270  0.1240 -0.1695
 1806SOL     MW 7224   4.840   2.258   0.777 -0.1288  0.1936 -0.0304
 1807SOL     OW 7225   4.992   2.515   2.455 -0.1797 -0.0684 -0.1242
 1807SOL    HW1 7226   4.978   2.540   2.364 -2.0932  1.6753  0.5744
 1807SOL    HW2 7227   5.078   2.550   2.477 -0.2033  0.5400 -0.9564
 1807SOL     MW 7228   5.001   2.523   2.446 -0.4276  0.2327 -0.1413
 1808SOL     OW 7229   3.055   0.132   1.900 -0.2859  0.0691 -0.1640
 1808SOL    HW1 7230   3.077   0.218   1.863  0.1472  0.1966  0.3759
 1808SOL    HW2 7231   3.060   0.145   1.994 -0.9374 -0.3699 -0.0659
 1808SOL     MW 7232   3.058   0.145   1.907 -0.3139  0.0292 -0.0823
 1809SOL     OW 7233   0.195   3.944   2.857 -0.4381  0.5795  0.1850
 1809SOL    HW1 7234   0.191   3.954   2.762  0.4141  1.2810  0.2042
 1809SOL    HW2 7235   0.269   3.885   2.872 -1.5323 -0.7933  0.3641
 1809SOL     MW 7236   0.204   3.938   2.847 -0.4690  0.4936  0.2104
 1810SOL     OW 7237   5.145   2.190   1.410  0.7759 -0.6778 -0.0153
 1810SOL    HW1 7238   5.123   2.130   1.481  1.2159  0.0343  0.7335
 1810SOL    HW2 7239   5.179   2.268   1.453  0.0331  0.1998 -0.9681
 1810SOL     MW 7240   5.147   2.192   1.424  0.7371 -0.4743 -0.0414
 1811SOL     OW 7241   3.435   4.518   5.396  0.1214 -0.0180 -0.3752
 1811SOL    HW1 7242   3.360   4.474   5.436 -0.1702 -1.6900 -2.5875
 1811SOL    HW2 7243   3.511   4.471   5.430 -0.0141 -0.2122 -0.3396
 1811SOL     MW 7244   3.435   4.506   5.406  0.0667 -0.2569 -0.6538
 1812SOL     OW 7245   0.319   1.770   1.749  0.4729 -0.3016  0.1949
 1812SOL    HW1 7246   0.341   1.708   1.680 -0.3207 -2.0611  1.4742
 1812SOL    HW2 7247   0.402   1.787   1.794  0.2067 -3.4393  2.1849
 1812SOL     MW 7248   0.332   1.765   1.746  0.3372 -0.9285  0.6134
 1813SOL     OW 7249   3.852   0.872   2.087 -0.4210 -0.0128  0.0224
 1813SOL    HW1 7250   3.892   0.959   2.088 -1.5984  0.5464  0.1798
 1813SOL    HW2 7251   3.888   0.828   2.164  0.1233  0.3568 -0.0178
 1813SOL     MW 7252   3.862   0.878   2.097 -0.5020  0.1061  0.0374
 1814SOL     OW 7253   1.755   5.232   3.839 -0.2180  0.6370  0.2095
 1814SOL    HW1 7254   1.815   5.192   3.902 -0.4858 -2.1014 -1.1312
 1814SOL    HW2 7255   1.677   5.176   3.841 -0.2813  0.5191 -2.4135
 1814SOL     MW 7256   1.753   5.220   3.848 -0.2604  0.2713 -0.2979
 1815SOL     OW 7257   2.030   5.094   4.952  0.1542 -0.4610  0.4040
 1815SOL    HW1 7258   2.036   5.008   4.993  1.2205 -0.3892  0.4104
 1815SOL    HW2 7259   2.075   5.153   5.013  0.1668 -0.0416 -0.0061
 1815SOL     MW 7260   2.036   5.091   4.965  0.2923 -0.3981  0.3523
 1816SOL     OW 7261   4.157   2.224   1.941  0.0445 -0.2283  0.3957
 1816SOL    HW1 7262   4.227   2.288   1.931 -0.4975  0.1741 -1.0789
 1816SOL    HW2 7263   4.198   2.149   1.985  1.4592 -0.1098 -0.6854
 1816SOL     MW 7264   4.171   2.222   1.946  0.1562 -0.1616  0.0685
 1817SOL     OW 7265   5.014   2.294   2.007 -0.2086 -0.5762  0.1077
 1817SOL    HW1 7266   5.084   2.341   1.961  0.1560 -0.0711  1.1678
 1817SOL    HW2 7267   4.934   2.340   1.981  0.1485  0.7139  1.1943
 1817SOL     MW 7268   5.013   2.306   1.998 -0.1162 -0.3464  0.3825
 1818SOL     OW 7269   4.232   5.316   0.795 -0.1524 -0.7046  0.7687
 1818SOL    HW1 7270   4.244   5.399   0.748 -0.8809 -0.6533  0.6721
 1818SOL    HW2 7271   4.306   5.313   0.856 -0.3681  0.2279  1.0890
 1818SOL     MW 7272   4.243   5.326   0.796 -0.2732 -0.5787  0.7973
 1819SOL     OW 7273   2.162   1.483   1.211  0.0343  0.4165  0.1359
 1819SOL    HW1 7274   2.227   1.547   1.242 -0.3782  0.7498  0.3114
 1819SOL    HW2 7275   2.092   1.536   1.174  0.0107  0.0415 -0.3514
 1819SOL     MW 7276   2.162   1.498   1.210 -0.0215  0.4112  0.0960
 1820SOL     OW 7277   0.464   0.974   2.482 -0.0001 -0.1962  0.7342
 1820SOL    HW1 7278   0.455   1.007   2.392  3.2232  1.1507  0.7703
 1820SOL    HW2 7279   0.500   0.886   2.471 -0.3765 -0.3550  0.7362
 1820SOL     MW 7280   0.467   0.967   2.469  0.3643 -0.0441  0.7391
 1821SOL     OW 7281   2.236   3.511   2.066 -0.3763 -0.2078  0.2390
 1821SOL    HW1 7282   2.237   3.452   2.141 -0.9975 -1.5786 -0.8071
 1821SOL    HW2 7283   2.147   3.508   2.033  0.3598 -1.2413 -1.7860
 1821SOL     MW 7284   2.225   3.503   2.071 -0.3616 -0.5155 -0.1541
 1822SOL     OW 7285   2.705   0.184   2.767  0.3799 -0.2233  0.1870
 1822SOL    HW1 7286   2.709   0.277   2.745  1.1683 -0.3865 -0.3999
 1822SOL    HW2 7287   2.611   0.166   2.778  0.1468  0.4192 -0.6641
 1822SOL     MW 7288   2.693   0.194   2.766  0.4510 -0.1619  0.0029
 1823SOL     OW 7289   2.212   0.346   3.326  0.3624  0.0190  0.0158
 1823SOL    HW1 7290   2.162   0.265   3.339  0.8635 -0.5311 -1.3163
 1823SOL    HW2 7291   2.301   0.324   3.354  0.3540  0.3236  0.2910
 1823SOL     MW 7292   2.217   0.333   3.331  0.4255 -0.0124 -0.1195
 1824SOL     OW 7293   3.622   1.931   2.966 -0.1866 -0.3485 -0.2991
 1824SOL    HW1 7294   3.585   1.976   3.042  1.6090 -0.6558  0.8095
 1824SOL    HW2 7295   3.550   1.928   2.903 -1.1382  1.7267  0.5850
 1824SOL     MW 7296   3.608   1.936   2.967 -0.0786 -0.1222 -0.0440
 1825SOL     OW 7297   3.087   1.490   5.203 -0.4051  0.1613 -0.3521
 1825SOL    HW1 7298   3.064   1.398   5.191 -0.0744 -0.0254  0.3783
 1825SOL    HW2 7299   3.183   1.489   5.213 -0.5697  0.3650  1.4732
 1825SOL     MW 7300   3.097   1.478   5.203 -0.3838  0.1635 -0.0250
 1826SOL     OW 7301   3.519   4.152   2.276 -0.4995 -0.4187  0.7665
 1826SOL    HW1 7302   3.428   4.171   2.252 -0.1000 -1.2870 -1.6966
 1826SOL    HW2 7303   3.571   4.184   2.203  1.0768 -1.1074  1.5361
 1826SOL     MW 7304   3.514   4.158   2.264 -0.2466 -0.6180  0.5497
 1827SOL     OW 7305   3.518   5.476   1.460  0.5803  0.7574  0.2012
 1827SOL    HW1 7306   3.523   5.385   1.430 -1.1157 -0.0502  2.1555
 1827SOL    HW2 7307   3.458   5.517   1.398  0.7893  0.3629 -0.2740
 1827SOL     MW 7308   3.511   5.469   1.448  0.3900  0.6035  0.3906
 1828SOL     OW 7309   2.182   2.446   1.905 -0.1125  0.0028 -0.5988
 1828SOL    HW1 7310   2.190   2.372   1.845  0.5375 -1.6629  1.4450
 1828SOL    HW2 7311   2.107   2.425   1.960  1.8329 -0.6770  1.9562
 1828SOL     MW 7312   2.173   2.434   1.904  0.2198 -0.2974 -0.0101
 1829SOL     OW 7313   1.446   0.264   1.975  0.2711  0.2678  0.2034
 1829SOL    HW1 7314   1.535   0.294   1.958  0.8006  0.6485  3.2032
 1829SOL    HW2 7315   1.450   0.169   1.962  0.8820  0.3684 -0.4391
 1829SOL     MW 7316   1.458   0.255   1.971  0.4171  0.3294  0.5052
 1830SOL     OW 7317   3.209   1.715   0.982 -0.2156  0.5726 -0.1259
 1830SOL    HW1 7318   3.176   1.669   1.059  1.1773  0.3842  0.3845
 1830SOL    HW2 7319   3.160   1.677   0.909 -1.4271  0.6261  0.6363
 1830SOL     MW 7320   3.198   1.704   0.982 -0.1924  0.5553  0.0370
 1831SOL     OW 7321   3.856   4.920   2.182 -0.2044 -0.1732  0.0586
 1831SOL    HW1 7322   3.845   4.992   2.120  1.6535 -0.4854 -0.7120
 1831SOL    HW2 7323   3.774   4.916   2.230 -1.4525  0.5248 -1.9188
 1831SOL     MW 7324   3.844   4.929   2.180 -0.1264 -0.1238 -0.2932
 1832SOL     OW 7325   1.494   1.060   3.788 -0.8046 -0.1302 -0.1305
 1832SOL    HW1 7326   1.442   1.110   3.726 -0.6108  1.2460  0.7644
 1832SOL    HW2 7327   1.563   1.121   3.816  0.5930 -1.5175 -0.4021
 1832SOL     MW 7328   1.496   1.074   3.784 -0.6009 -0.1316 -0.0507
 1833SOL     OW 7329   0.461   2.244   1.806 -0.4998  0.0548  0.4107
 1833SOL    HW1 7330   0.488   2.168   1.754  2.7605  1.6349 -0.4858
 1833SOL    HW2 7331   0.393   2.286   1.753 -0.1111 -0.5781 -0.6207
 1833SOL     MW 7332   0.456   2.240   1.792 -0.0327  0.1761  0.1639
 1834SOL     OW 7333   4.204   5.130   4.876  0.0628 -0.5324 -0.7112
 1834SOL    HW1 7334   4.238   5.150   4.789  0.8022  0.4634 -0.2111
 1834SOL    HW2 7335   4.109   5.136   4.867  0.1007 -1.1061 -1.5993
 1834SOL     MW 7336   4.196   5.133   4.864  0.1623 -0.4783 -0.7608
 1835SOL     OW 7337   1.581   3.542   4.869 -0.0014 -0.1096 -0.7439
 1835SOL    HW1 7338   1.610   3.506   4.786  1.8491  1.5332 -0.8927
 1835SOL    HW2 7339   1.567   3.466   4.925  1.1515 -1.1674 -1.8229
 1835SOL     MW 7340   1.583   3.528   4.866  0.3831 -0.0347 -0.9011
 1836SOL     OW 7341   1.874   5.294   0.441  0.0516 -0.1566 -0.0987
 1836SOL    HW1 7342   1.821   5.270   0.517  0.6367 -0.3155  0.2624
 1836SOL    HW2 7343   1.917   5.376   0.466  0.7606 -0.5508  0.0062
 1836SOL     MW 7344   1.873   5.302   0.454  0.2172 -0.2274 -0.0390
 1837SOL     OW 7345   0.644   2.903   0.662 -0.3930 -0.0566 -0.6594
 1837SOL    HW1 7346   0.598   2.845   0.601 -0.4591 -0.0711 -0.5955
 1837SOL    HW2 7347   0.584   2.912   0.736  0.4070 -1.4140  0.1881
 1837SOL     MW 7348   0.630   2.897   0.663 -0.2990 -0.2322 -0.5427
 1838SOL     OW 7349   4.238   0.747   5.324 -0.1911 -0.4638  0.1582
 1838SOL    HW1 7350   4.270   0.673   5.375 -0.8580 -1.4463 -0.8053
 1838SOL    HW2 7351   4.146   0.726   5.307 -0.0627 -0.0168 -1.1760
 1838SOL     MW 7352   4.230   0.735   5.329 -0.2600 -0.5323 -0.1360
 1839SOL     OW 7353   2.626   1.136   5.414 -0.2907  0.0197 -0.8269
 1839SOL    HW1 7354   2.547   1.173   5.376 -0.6947  0.6500  0.5611
 1839SOL    HW2 7355   2.597   1.095   5.496  0.5740 -1.1274 -1.0640
 1839SOL     MW 7356   2.612   1.136   5.419 -0.2317 -0.0464 -0.6796
 1840SOL     OW 7357   4.639   2.449   4.644  0.0830  0.7135 -0.8421
 1840SOL    HW1 7358   4.549   2.452   4.613  0.3964  2.2926 -1.7332
 1840SOL    HW2 7359   4.686   2.510   4.587  1.9330 -0.7791 -1.0584
 1840SOL     MW 7360   4.634   2.457   4.633  0.3600  0.7246 -0.9839
 1841SOL     OW 7361   1.500   5.172   1.578  0.0879 -0.1061 -0.2307
 1841SOL    HW1 7362   1.406   5.159   1.564 -0.0982  0.7574  0.1874
 1841SOL    HW2 7363   1.520   5.253   1.530 -0.0396  1.4863  2.2429
 1841SOL     MW 7364   1.491   5.181   1.570  0.0478  0.2083  0.1395
 1842SOL     OW 7365   5.296   3.086   3.744 -0.6006 -0.0559  0.3079
 1842SOL    HW1 7366   5.306   2.990   3.748 -2.0502 -0.2788 -0.6126
 1842SOL    HW2 7367   5.363   3.115   3.683 -0.7627 -0.6091 -0.1410
 1842SOL     MW 7368   5.306   3.077   3.737 -0.8069 -0.1552  0.1326
 1843SOL     OW 7369   2.790   4.408   3.275 -0.2130 -0.4849  0.3570
 1843SOL    HW1 7370   2.734   4.354   3.218  1.5079 -0.1126 -1.8010
 1843SOL    HW2 7371   2.808   4.352   3.351  0.5829 -2.5603 -1.2717
 1843SOL     MW 7372   2.785   4.394   3.278  0.1092 -0.7029 -0.1277
 1844SOL     OW 7373   0.797   3.185   3.537 -0.3765 -0.2885  0.5521
 1844SOL    HW1 7374   0.757   3.098   3.528  1.1135 -0.8528 -1.5490
 1844SOL    HW2 7375   0.841   3.199   3.453 -0.1773  2.3273  1.0076
 1844SOL     MW 7376   0.797   3.176   3.525 -0.1603 -0.0259  0.3415
 1845SOL     OW 7377   5.336   1.972   5.428  0.3300 -0.2879  0.1715
 1845SOL    HW1 7378   5.400   2.038   5.399  0.3670 -0.6962 -0.7026
 1845SOL    HW2 7379   5.251   2.015   5.418  0.3952 -0.1493  0.2131
 1845SOL     MW 7380   5.334   1.986   5.423  0.3431 -0.3224  0.0649
 1846SOL     OW 7381   4.868   2.350   3.395 -0.8508 -0.2734 -0.0272
 1846SOL    HW1 7382   4.819   2.355   3.477 -0.9858 -1.5331 -0.0132
 1846SOL    HW2 7383   4.806   2.377   3.328 -0.1349  2.9490  0.4345
 1846SOL     MW 7384   4.854   2.354   3.397 -0.7764 -0.0221  0.0337
 1847SOL     OW 7385   1.157   0.531   3.272 -0.0480 -0.3062  0.4182
 1847SOL    HW1 7386   1.227   0.583   3.312 -0.6609 -0.5421  1.8597
 1847SOL    HW2 7387   1.077   0.567   3.309 -0.6097 -0.9675 -0.1341
 1847SOL     MW 7388   1.156   0.542   3.282 -0.1983 -0.4210  0.5321
 1848SOL     OW 7389   3.211   2.928   5.271 -0.0943  0.3741  0.2054
 1848SOL    HW1 7390   3.127   2.910   5.313 -0.0941  0.5102  0.2633
 1848SOL    HW2 7391   3.275   2.880   5.324 -0.1766 -0.0244 -0.0487
 1848SOL     MW 7392   3.208   2.920   5.283 -0.1048  0.3405  0.1803
 1849SOL     OW 7393   0.078   2.283   0.422 -0.5374  0.2822  0.4399
 1849SOL    HW1 7394   0.015   2.322   0.361  0.9986  0.5840 -1.0179
 1849SOL    HW2 7395   0.110   2.205   0.376  0.6239  0.4896  0.8693
 1849SOL     MW 7396   0.074   2.278   0.408 -0.1921  0.3474  0.3082
 1850SOL     OW 7397   4.358   5.162   0.585  0.0072  0.1644  0.0192
 1850SOL    HW1 7398   4.303   5.223   0.634 -1.0721 -0.3316 -0.5317
 1850SOL    HW2 7399   4.414   5.218   0.530  0.0352  0.6745  0.5595
 1850SOL     MW 7400   4.358   5.177   0.584 -0.1274  0.1662  0.0179
 1851SOL     OW 7401   2.321   0.491   4.650  0.0541  0.0149  1.0021
 1851SOL    HW1 7402   2.397   0.549   4.646  0.3915 -0.2389  3.0063
 1851SOL    HW2 7403   2.330   0.436   4.572  1.1336  0.9166  0.4527
 1851SOL     MW 7404   2.332   0.491   4.639  0.2355  0.0979  1.1883
 1852SOL     OW 7405   0.441   4.124   3.361 -0.2569 -0.3752  0.8390
 1852SOL    HW1 7406   0.439   4.206   3.312 -1.7528 -0.6483  0.3991
 1852SOL    HW2 7407   0.501   4.069   3.311 -0.4941 -0.0902  0.2234
 1852SOL     MW 7408   0.448   4.128   3.348 -0.4787 -0.3736  0.7039
 1853SOL     OW 7409   3.184   0.281   4.708 -0.2101 -0.3419  0.1157
 1853SOL    HW1 7410   3.165   0.359   4.760 -0.0798 -0.4478  0.3252
 1853SOL    HW2 7411   3.118   0.280   4.639 -0.2897 -0.1168  0.1912
 1853SOL     MW 7412   3.173   0.291   4.706 -0.2036 -0.3267  0.1522
 1854SOL     OW 7413   2.943   2.211   3.624 -0.3186  0.4633  0.1265
 1854SOL    HW1 7414   2.905   2.253   3.546  0.6154  1.4383  0.1706
 1854SOL    HW2 7415   2.885   2.137   3.642 -0.2246 -0.1541 -1.8591
 1854SOL     MW 7416   2.931   2.207   3.616 -0.1870  0.5091 -0.1220
 1855SOL     OW 7417   2.061   2.951   1.877 -0.4105 -0.5955  0.1145
 1855SOL    HW1 7418   2.042   2.960   1.784 -0.6420 -0.8312  0.1382
 1855SOL    HW2 7419   2.078   2.858   1.890 -2.6406 -0.9853  0.7092
 1855SOL     MW 7420   2.061   2.940   1.867 -0.7256 -0.6756  0.1936
 1856SOL     OW 7421   1.976   2.205   2.655 -0.2323 -0.5645 -0.5947
 1856SOL    HW1 7422   1.882   2.191   2.644 -0.2335 -1.2102  0.1490
 1856SOL    HW2 7423   2.007   2.126   2.700  0.0099  1.1946  2.5548
 1856SOL     MW 7424   1.968   2.193   2.659 -0.2014 -0.4219 -0.0963
 1857SOL     OW 7425   4.313   0.167   3.453  0.6550 -0.2013 -0.5543
 1857SOL    HW1 7426   4.325   0.178   3.548  1.7988 -3.0727 -0.2642
 1857SOL    HW2 7427   4.253   0.094   3.445  0.0538  0.4209 -2.0924
 1857SOL     MW 7428   4.307   0.159   3.465  0.7244 -0.4892 -0.7140
 1858SOL     OW 7429   2.888   4.233   5.371 -0.0757  0.5487  0.3379
 1858SOL    HW1 7430   2.868   4.218   5.279  0.7797 -0.0189  0.2283
 1858SOL    HW2 7431   2.805   4.221   5.416 -0.3557  0.0982 -0.2884
 1858SOL     MW 7432   2.875   4.229   5.365 -0.0021  0.4184  0.2437
 1859SOL     OW 7433   2.355   5.288   4.119 -0.5052 -0.4164 -0.5168
 1859SOL    HW1 7434   2.447   5.285   4.147  0.1248 -0.6140 -2.4808
 1859SOL    HW2 7435   2.333   5.381   4.121  0.8532  0.0766 -3.1968
 1859SOL     MW 7436   2.364   5.300   4.123 -0.2507 -0.3786 -1.1113
 1860SOL     OW 7437   0.789   2.406   0.291  0.4997  0.3316  0.3347
 1860SOL    HW1 7438   0.694   2.415   0.280  0.4083  0.8761  1.4528
 1860SOL    HW2 7439   0.813   2.338   0.229 -0.5752  0.4023 -0.1937
 1860SOL     MW 7440   0.780   2.399   0.282  0.3504  0.4103  0.4102
 1861SOL     OW 7441   3.192   2.356   4.413  0.0237  0.8274 -0.9221
 1861SOL    HW1 7442   3.265   2.364   4.475 -0.4667  0.4396 -0.2834
 1861SOL    HW2 7443   3.234   2.355   4.327  0.7677  0.7274 -0.5646
 1861SOL     MW 7444   3.207   2.357   4.410  0.0562  0.7649 -0.7946
 1862SOL     OW 7445   0.855   0.687   2.401 -0.6031 -0.3467  0.1009
 1862SOL    HW1 7446   0.889   0.733   2.325  0.4155  0.0302  0.7617
 1862SOL    HW2 7447   0.871   0.594   2.383  1.8436 -0.1482  0.8300
 1862SOL     MW 7448   0.862   0.681   2.389 -0.1595 -0.2731  0.2788
 1863SOL     OW 7449   1.709   4.693   3.177  0.9114 -0.0261  0.0510
 1863SOL    HW1 7450   1.676   4.783   3.171  1.4237  0.2650  1.3382
 1863SOL    HW2 7451   1.715   4.664   3.086  1.7714  1.6235 -0.4681
 1863SOL     MW 7452   1.706   4.701   3.164  1.0871  0.2223  0.1493
 1864SOL     OW 7453   3.973   3.668   4.807  0.0759 -0.6252 -0.1925
 1864SOL    HW1 7454   4.035   3.652   4.878 -0.2358 -0.6862  0.0699
 1864SOL    HW2 7455   3.893   3.698   4.851  0.0937 -0.0172 -0.5671
 1864SOL     MW 7456   3.970   3.670   4.822  0.0383 -0.5552 -0.2068
 1865SOL     OW 7457   2.492   0.245   3.851  0.0586 -0.0309  0.1831
 1865SOL    HW1 7458   2.532   0.232   3.937  0.9564  0.9680 -0.0699
 1865SOL    HW2 7459   2.566   0.258   3.791 -0.5660 -0.4503 -0.7081
 1865SOL     MW 7460   2.507   0.245   3.854  0.0936  0.0433  0.0366
 1866SOL     OW 7461   3.064   1.651   2.734  0.0234  0.0528 -0.0380
 1866SOL    HW1 7462   3.121   1.667   2.809  0.0121 -0.7485  0.1542
 1866SOL    HW2 7463   3.106   1.698   2.661  2.3423 -2.4747 -0.5002
 1866SOL     MW 7464   3.077   1.659   2.734  0.3188 -0.3733 -0.0726
 1867SOL     OW 7465   5.410   4.453   4.933 -0.0353  0.1032  0.6374
 1867SOL    HW1 7466   5.442   4.520   4.994  0.4887  0.7490 -0.3196
 1867SOL    HW2 7467   5.316   4.472   4.925  0.3090  1.5316 -0.5500
 1867SOL     MW 7468   5.402   4.464   4.940  0.0758  0.3687  0.3629
 1868SOL     OW 7469   5.012   5.040   2.647  0.1912  0.2620  0.1884
 1868SOL    HW1 7470   5.019   5.131   2.678 -1.6811  0.9080 -1.0770
 1868SOL    HW2 7471   5.050   4.988   2.718  0.6613  1.9731  1.2761
 1868SOL     MW 7472   5.018   5.045   2.660  0.0117  0.5638  0.1656
 1869SOL     OW 7473   0.347   3.525   3.598 -0.8652  0.5179 -0.0383
 1869SOL    HW1 7474   0.423   3.486   3.555 -0.4806 -0.6071  1.5361
 1869SOL    HW2 7475   0.289   3.451   3.615 -2.5836  1.4254 -1.6286
 1869SOL     MW 7476   0.350   3.511   3.595 -1.0360  0.4901 -0.0403
 1870SOL     OW 7477   2.147   4.556   4.397  0.0408  0.3579 -0.4933
 1870SOL    HW1 7478   2.167   4.616   4.325  1.7712 -0.2460 -0.5679
 1870SOL    HW2 7479   2.071   4.595   4.440  0.8014  2.3520 -0.8271
 1870SOL     MW 7480   2.140   4.569   4.393  0.3597  0.5359 -0.5456
 1871SOL     OW 7481   3.786   1.738   5.163 -0.3959  0.2731 -0.6570
 1871SOL    HW1 7482   3.784   1.656   5.114 -0.6187 -0.1618  0.0548
 1871SOL    HW2 7483   3.835   1.716   5.243  1.9709  1.5193 -1.6425
 1871SOL     MW 7484   3.792   1.725   5.167 -0.1215  0.3770 -0.6920
 1872SOL     OW 7485   1.751   2.089   2.546  0.4081 -0.1032  0.0181
 1872SOL    HW1 7486   1.695   2.049   2.612  1.8308 -1.1100  0.6663
 1872SOL    HW2 7487   1.800   2.016   2.509  0.4074  0.5836 -1.4304
 1872SOL     MW 7488   1.750   2.075   2.550  0.5902 -0.1442 -0.0844
 1873SOL     OW 7489   2.954   2.873   5.298  0.1215  0.6023  0.7340
 1873SOL    HW1 7490   2.887   2.863   5.230  1.9913  0.0513 -1.1421
 1873SOL    HW2 7491   2.959   2.787   5.340  1.9825 -0.5093 -1.5191
 1873SOL     MW 7492   2.946   2.861   5.295  0.5991  0.3895  0.2054
 1874SOL     OW 7493   4.440   2.391   1.611 -0.4551  0.2595 -0.1464
 1874SOL    HW1 7494   4.494   2.365   1.686 -0.3655  1.0300  0.0613
 1874SOL    HW2 7495   4.402   2.309   1.580  2.2347 -0.6494 -1.4093
 1874SOL     MW 7496   4.442   2.377   1.617 -0.0993  0.2418 -0.2815
 1875SOL     OW 7497   2.292   3.730   1.566  0.1039  0.8681 -0.0010
 1875SOL    HW1 7498   2.303   3.637   1.549  1.7052  1.1742 -0.8595
 1875SOL    HW2 7499   2.370   3.755   1.615 -0.8154  1.5674  1.1719
 1875SOL     MW 7500   2.303   3.721   1.570  0.1912  0.9968  0.0392
 1876SOL     OW 7501   5.012   5.144   2.986  0.0556 -0.1137  0.5075
 1876SOL    HW1 7502   4.995   5.192   2.904 -0.0280 -0.9327  0.0406
 1876SOL    HW2 7503   5.087   5.088   2.966 -1.4995 -2.1978  0.1634
 1876SOL     MW 7504   5.019   5.143   2.973 -0.1542 -0.4854  0.4037
 1877SOL     OW 7505   2.480   0.551   0.901  0.0531 -0.2692  0.3491
 1877SOL    HW1 7506   2.447   0.641   0.907  1.6406  0.5095 -1.6289
 1877SOL    HW2 7507   2.535   0.551   0.824  0.9513 -2.7050  0.9183
 1877SOL     MW 7508   2.483   0.563   0.892  0.3713 -0.4813  0.1688
 1878SOL     OW 7509   2.746   1.863   1.791 -0.0088 -0.2068  0.1378
 1878SOL    HW1 7510   2.786   1.777   1.802 -0.7446 -0.6840 -0.7541
 1878SOL    HW2 7511   2.707   1.882   1.877 -0.4184 -1.0694  0.1508
 1878SOL     MW 7512   2.746   1.855   1.804 -0.1554 -0.3783  0.0253
 1879SOL     OW 7513   4.608   3.890   4.557 -0.0883 -0.3360  0.2682
 1879SOL    HW1 7514   4.638   3.961   4.615  0.9855 -1.8256  1.6240
 1879SOL    HW2 7515   4.520   3.869   4.588  0.6299 -1.3889  1.6623
 1879SOL     MW 7516   4.601   3.897   4.568  0.1411 -0.6615  0.6202
 1880SOL     OW 7517   1.102   5.291   0.712  0.2323  0.1985 -0.5671
 1880SOL    HW1 7518   1.027   5.246   0.674 -1.6598 -0.9277  3.8103
 1880SOL    HW2 7519   1.114   5.369   0.658 -4.1869  0.4842 -1.5307
 1880SOL     MW 7520   1.094   5.295   0.700 -0.5757  0.0909 -0.1301
 1881SOL     OW 7521   5.067   0.793   0.915 -0.0731  0.1673  0.1884
 1881SOL    HW1 7522   4.978   0.826   0.921  0.1269  0.6506  0.5868
 1881SOL    HW2 7523   5.060   0.712   0.864 -0.6761  0.4236 -0.1447
 1881SOL     MW 7524   5.055   0.787   0.909 -0.1247  0.2620  0.1968
 1882SOL     OW 7525   1.894   3.084   2.736 -0.0558  0.4245 -0.2663
 1882SOL    HW1 7526   1.958   3.155   2.731 -0.5332  0.7872 -1.4770
 1882SOL    HW2 7527   1.915   3.027   2.662  0.5674 -0.9552  0.8955
 1882SOL     MW 7528   1.905   3.085   2.726 -0.0371  0.2943 -0.2725
 1883SOL     OW 7529   3.494   5.334   3.903  0.4033  0.1070  0.3667
 1883SOL    HW1 7530   3.506   5.292   3.988  1.1167  0.3912  0.4037
 1883SOL    HW2 7531   3.528   5.270   3.840  0.7251  0.2810  0.3631
 1883SOL     MW 7532   3.500   5.320   3.906  0.5358  0.1656  0.3710
 1884SOL     OW 7533   1.243   1.835   4.130 -0.4801 -0.3271  0.3491
 1884SOL    HW1 7534   1.309   1.786   4.179  0.5978  1.5607  0.9047
 1884SOL    HW2 7535   1.275   1.834   4.039 -0.2308 -0.2984  0.4350
 1884SOL     MW 7536   1.256   1.829   4.124 -0.3102 -0.0818  0.4312
 1885SOL     OW 7537   3.486   2.289   0.327  0.2338  0.5734  0.3271
 1885SOL    HW1 7538   3.463   2.282   0.234  1.3979  1.3713 -0.0361
 1885SOL    HW2 7539   3.513   2.201   0.351 -2.7140 -0.3507  0.6920
 1885SOL     MW 7540   3.486   2.277   0.318  0.0055  0.5572  0.3273
 1886SOL     OW 7541   0.643   2.084   3.249  0.2714  0.2142  0.1765
 1886SOL    HW1 7542   0.726   2.036   3.245  0.7599  1.1184 -1.7843
 1886SOL    HW2 7543   0.577   2.016   3.265  1.0330 -1.0597 -1.7132
 1886SOL     MW 7544   0.645   2.069   3.250  0.4315  0.1669 -0.3164
 1887SOL     OW 7545   2.058   0.542   0.082 -0.1958 -0.3796  0.3474
 1887SOL    HW1 7546   2.048   0.485   0.005 -1.1398 -1.7721  1.4632
 1887SOL    HW2 7547   2.133   0.505   0.129  0.9872  1.0432 -0.3455
 1887SOL     MW 7548   2.067   0.530   0.078 -0.1652 -0.3757  0.4015
 1888SOL     OW 7549   2.058   4.776   1.875 -0.4179  0.9375 -0.0888
 1888SOL    HW1 7550   2.015   4.793   1.791  1.2549  1.1777 -0.9450
 1888SOL    HW2 7551   2.107   4.857   1.893  0.4639  0.3193  0.3309
 1888SOL     MW 7552   2.059   4.789   1.866 -0.0909  0.8891 -0.1447
 1889SOL     OW 7553   5.391   4.598   1.252 -0.1475  0.0718  0.3884
 1889SOL    HW1 7554   5.387   4.688   1.222  1.2992 -0.6021 -2.1538
 1889SOL    HW2 7555   5.315   4.555   1.212 -0.5085  0.0148  1.1163
 1889SOL     MW 7556   5.381   4.604   1.243 -0.0085 -0.0217  0.1562
 1890SOL     OW 7557   0.962   4.473   5.268 -0.3773 -0.3764  0.5693
 1890SOL    HW1 7558   0.933   4.552   5.223 -1.3242 -0.6731  0.6480
 1890SOL    HW2 7559   0.975   4.501   5.359  0.3703 -0.0625  0.3764
 1890SOL     MW 7560   0.960   4.487   5.274 -0.4028 -0.3742  0.5547
 1891SOL     OW 7561   4.567   3.153   4.634 -1.1604 -0.2749  0.0830
 1891SOL    HW1 7562   4.554   3.058   4.631  0.2961 -0.5033  0.0043
 1891SOL    HW2 7563   4.596   3.176   4.546 -0.7217  0.1029  0.3194
 1891SOL     MW 7564   4.569   3.144   4.623 -0.9178 -0.2558  0.1032
 1892SOL     OW 7565   1.304   3.624   1.898  0.4115 -0.0029  0.3399
 1892SOL    HW1 7566   1.253   3.673   1.962 -1.0867 -0.2702 -0.6184
 1892SOL    HW2 7567   1.342   3.551   1.948  0.1520  0.4019  1.1320
 1892SOL     MW 7568   1.303   3.621   1.913  0.1865  0.0147  0.3186
 1893SOL     OW 7569   2.996   4.904   4.680  0.3084 -0.2536 -0.1685
 1893SOL    HW1 7570   3.036   4.965   4.618 -0.9732  0.3685 -0.4049
 1893SOL    HW2 7571   2.950   4.841   4.626  1.1089 -1.0939  0.0990
 1893SOL     MW 7572   2.995   4.904   4.665  0.2468 -0.2815 -0.1645
 1894SOL     OW 7573   5.305   5.407   3.874  0.3147  0.5217  0.4873
 1894SOL    HW1 7574   5.236   5.388   3.938 -0.4298  2.0484  0.1693
 1894SOL    HW2 7575   5.348   5.485   3.908 -0.9165  2.1438 -1.4801
 1894SOL     MW 7576   5.302   5.414   3.887  0.0618  0.9248  0.1948
 1895SOL     OW 7577   3.903   4.760   2.447  0.0225 -0.2570  0.2334
 1895SOL    HW1 7578   3.917   4.757   2.542 -1.8435 -1.8544  0.5303
 1895SOL    HW2 7579   3.836   4.693   2.431 -0.5541  0.7825 -2.0761
 1895SOL     MW 7580   3.896   4.751   2.457 -0.2902 -0.3284 -0.0242
 1896SOL     OW 7581   3.543   1.416   2.961  0.2777  0.2222 -0.5305
 1896SOL    HW1 7582   3.579   1.359   3.030  1.4097  0.5492 -0.8385
 1896SOL    HW2 7583   3.554   1.365   2.880  0.7862  0.6618 -0.7352
 1896SOL     MW 7584   3.549   1.402   2.959  0.4877  0.3203 -0.5961
 1897SOL     OW 7585   2.967   5.458   0.753 -0.3237  0.2808 -0.2255
 1897SOL    HW1 7586   2.937   5.485   0.840  0.5928  2.3933 -0.4827
 1897SOL    HW2 7587   2.906   5.499   0.693 -1.0611 -1.3302 -0.6075
 1897SOL     MW 7588   2.956   5.467   0.757 -0.3007  0.3450 -0.3073
 1898SOL     OW 7589   5.195   1.311   5.173 -0.3721 -0.0494 -0.0748
 1898SOL    HW1 7590   5.133   1.250   5.213 -0.0676 -1.4470 -1.6640
 1898SOL    HW2 7591   5.253   1.336   5.245 -1.9089  0.2306  1.1286
 1898SOL     MW 7592   5.195   1.306   5.188 -0.5298 -0.1924 -0.1242
 1899SOL     OW 7593   2.876   2.124   1.864 -0.0937 -0.4983  0.4497
 1899SOL    HW1 7594   2.804   2.186   1.852 -0.3746 -0.9025  0.0358
 1899SOL    HW2 7595   2.849   2.046   1.816 -0.4511 -1.5195  2.2320
 1899SOL     MW 7596   2.863   2.122   1.857 -0.1754 -0.6808  0.6249
 1900SOL     OW 7597   0.355   3.404   0.833 -0.2148  0.3713  0.1920
 1900SOL    HW1 7598   0.437   3.417   0.786  0.0005  1.2900  0.7970
 1900SOL    HW2 7599   0.305   3.484   0.817 -0.3268  0.5027  1.1302
 1900SOL     MW 7600   0.359   3.415   0.825 -0.2016  0.5057  0.3895
 1901SOL     OW 7601   1.327   1.318   1.616 -0.6083  0.3202 -0.6717
 1901SOL    HW1 7602   1.391   1.358   1.674 -0.9731 -1.2435  0.9026
 1901SOL    HW2 7603   1.370   1.315   1.530  1.3595 -0.4979  0.2805
 1901SOL     MW 7604   1.340   1.322   1.612 -0.4031  0.0153 -0.3483
 1902SOL     OW 7605   2.594   4.508   4.458  0.1212 -0.0352 -0.0472
 1902SOL    HW1 7606   2.663   4.463   4.507  1.8455 -0.3087 -2.5230
 1902SOL    HW2 7607   2.515   4.458   4.477  0.9973 -0.9956  1.2489
 1902SOL     MW 7608   2.593   4.496   4.466  0.4541 -0.1932 -0.1982
 1903SOL     OW 7609   0.727   3.605   4.872 -0.3172 -0.1205  0.0103
 1903SOL    HW1 7610   0.750   3.568   4.957  0.4862  0.5675  0.1042
 1903SOL    HW2 7611   0.639   3.642   4.884  0.3908  1.3169  0.9864
 1903SOL     MW 7612   0.718   3.605   4.884 -0.1237  0.1516  0.1473
 1904SOL     OW 7613   0.233   0.345   0.865  0.3465 -0.4562 -0.0605
 1904SOL    HW1 7614   0.152   0.301   0.892  0.1306 -0.6102 -0.9456
 1904SOL    HW2 7615   0.229   0.431   0.907 -0.4593 -0.3169 -0.4068
 1904SOL     MW 7616   0.222   0.350   0.874  0.2157 -0.4581 -0.2181
 1905SOL     OW 7617   1.439   5.146   3.161  0.4114  0.1094  0.4828
 1905SOL    HW1 7618   1.395   5.202   3.096 -1.5559 -2.0416 -0.1575
 1905SOL    HW2 7619   1.410   5.181   3.245  0.3170  0.8895  0.1377
 1905SOL     MW 7620   1.429   5.158   3.163  0.1474 -0.0661  0.3566
 1906SOL     OW 7621   3.614   0.845   4.614  0.1212 -0.4404  0.5034
 1906SOL    HW1 7622   3.690   0.897   4.588 -0.0773 -0.1592  0.4869
 1906SOL    HW2 7623   3.651   0.763   4.645  0.4535 -0.1830  0.7930
 1906SOL     MW 7624   3.628   0.841   4.615  0.1383 -0.3715  0.5383
 1907SOL     OW 7625   1.203   5.157   3.723 -0.3668  0.0280  0.3203
 1907SOL    HW1 7626   1.222   5.064   3.732  0.4825  0.3690  2.6406
 1907SOL    HW2 7627   1.284   5.201   3.748 -1.6665  1.4102  2.3712
 1907SOL     MW 7628   1.216   5.151   3.727 -0.4245  0.2486  0.8798
 1908SOL     OW 7629   2.673   3.907   2.443 -0.1627  0.1150  0.1184
 1908SOL    HW1 7630   2.733   3.964   2.491 -0.1311  0.6732 -0.5663
 1908SOL    HW2 7631   2.590   3.955   2.442  0.2925  0.9367 -1.8722
 1908SOL     MW 7632   2.670   3.920   2.449 -0.1004  0.2917 -0.2240
 1909SOL     OW 7633   0.357   4.468   3.321  0.3474 -0.3320  0.2659
 1909SOL    HW1 7634   0.289   4.467   3.253  1.2458  0.6822 -0.6751
 1909SOL    HW2 7635   0.413   4.541   3.297  0.3314  0.4489  2.4759
 1909SOL     MW 7636   0.355   4.477   3.309  0.4604 -0.1022  0.4284
 1910SOL     OW 7637   2.194   4.902   2.292  0.0102 -0.2411 -0.1855
 1910SOL    HW1 7638   2.245   4.979   2.266  0.2516 -0.5030 -0.4981
 1910SOL    HW2 7639   2.160   4.924   2.378 -3.4636  1.9745 -1.9149
 1910SOL     MW 7640   2.196   4.915   2.299 -0.4036  0.0090 -0.4469
 1911SOL     OW 7641   2.113   4.934   2.562  0.2772 -0.3169 -0.0388
 1911SOL    HW1 7642   2.051   5.006   2.552  1.3629  0.5426 -0.9123
 1911SOL    HW2 7643   2.192   4.974   2.598  0.5773 -1.2504  0.3785
 1911SOL     MW 7644   2.115   4.948   2.565  0.4546 -0.3264 -0.0972
 1912SOL     OW 7645   1.763   3.360   4.077 -0.4315 -0.2993 -0.0796
 1912SOL    HW1 7646   1.847   3.404   4.087 -0.5587 -0.0954  0.0922
 1912SOL    HW2 7647   1.710   3.391   4.151 -0.7655 -0.1820 -0.3657
 1912SOL     MW 7648   1.767   3.370   4.088 -0.4905 -0.2582 -0.0943
 1913SOL     OW 7649   1.636   4.429   4.289  0.3949  0.3677 -0.3014
 1913SOL    HW1 7650   1.661   4.338   4.272 -0.4024 -0.0582  0.7250
 1913SOL    HW2 7651   1.628   4.468   4.202 -2.2467 -1.3783 -0.9538
 1913SOL     MW 7652   1.638   4.422   4.276 -0.0453  0.0897 -0.2535
 1914SOL     OW 7653   1.423   0.393   3.066  0.4343 -0.0262  0.1251
 1914SOL    HW1 7654   1.334   0.429   3.059  0.4816 -0.0791 -0.8664
 1914SOL    HW2 7655   1.410   0.308   3.107 -0.0735 -0.3671 -0.7097
 1914SOL     MW 7656   1.410   0.387   3.070  0.3754 -0.0766 -0.1087
 1915SOL     OW 7657   0.993   3.893   2.343 -0.2463 -0.5557 -0.0550
 1915SOL    HW1 7658   1.013   3.971   2.291  0.1771 -0.1268  0.7462
 1915SOL    HW2 7659   0.982   3.824   2.278  0.1410 -0.0003 -0.7272
 1915SOL     MW 7660   0.994   3.894   2.328 -0.1425 -0.4297 -0.0385
 1916SOL     OW 7661   0.088   3.335   4.825  1.1403 -0.3382 -0.5215
 1916SOL    HW1 7662   0.170   3.383   4.807  0.6256  0.5011 -0.7043
 1916SOL    HW2 7663   0.050   3.322   4.738  0.2476  0.8101 -0.3279
 1916SOL     MW 7664   0.094   3.340   4.811  0.9601 -0.0838 -0.5201
 1917SOL     OW 7665   2.807   0.819   3.141 -0.1504 -0.1562  0.3676
 1917SOL    HW1 7666   2.821   0.888   3.205 -1.8680  1.5410 -0.9793
 1917SOL    HW2 7667   2.895   0.783   3.125  0.8561  1.9621  0.8411
 1917SOL     MW 7668   2.820   0.823   3.147 -0.2415  0.3322  0.2558
 1918SOL     OW 7669   3.807   0.818   5.050 -0.3346 -0.4541 -0.2259
 1918SOL    HW1 7670   3.715   0.799   5.072 -0.4478  2.3507  2.4751
 1918SOL    HW2 7671   3.854   0.801   5.131  1.0829  0.7392 -0.7666
 1918SOL     MW 7672   3.801   0.813   5.063 -0.1677  0.0577  0.0506
 1919SOL     OW 7673   0.578   1.330   0.203 -0.6955 -0.1384 -0.0278
 1919SOL    HW1 7674   0.662   1.324   0.159  0.0015  0.5426  1.1520
 1919SOL    HW2 7675   0.579   1.259   0.267 -0.1095  1.1242  1.4147
 1919SOL     MW 7676   0.588   1.320   0.206 -0.5313  0.1104  0.3079
 1920SOL     OW 7677   1.332   2.995   4.623  0.1414 -0.0018 -0.4258
 1920SOL    HW1 7678   1.237   3.002   4.633  0.0782 -0.5275 -0.6052
 1920SOL    HW2 7679   1.345   2.982   4.530  0.2903 -1.2267 -0.2508
 1920SOL     MW 7680   1.321   2.994   4.613  0.1524 -0.2259 -0.4264
 1921SOL     OW 7681   2.300   5.234   0.850 -0.0392 -0.8961 -0.5637
 1921SOL    HW1 7682   2.348   5.153   0.832  1.4292  0.1811 -1.7180
 1921SOL    HW2 7683   2.366   5.294   0.883 -1.3118 -0.4525  1.3157
 1921SOL     MW 7684   2.314   5.231   0.852 -0.0141 -0.7015 -0.4709
 1922SOL     OW 7685   0.869   1.901   5.140 -0.3109  0.7382  0.1262
 1922SOL    HW1 7686   0.901   1.978   5.092 -1.2873  0.7823 -0.4721
 1922SOL    HW2 7687   0.899   1.827   5.088  0.9246  0.6703  0.8815
 1922SOL     MW 7688   0.877   1.902   5.127 -0.2777  0.7351  0.1463
 1923SOL     OW 7689   5.299   3.304   4.403 -0.3394 -0.2567 -0.0486
 1923SOL    HW1 7690   5.263   3.338   4.322 -2.4821 -0.5326  0.7231
 1923SOL    HW2 7691   5.370   3.365   4.426 -2.0691  1.9774 -0.2624
 1923SOL     MW 7692   5.303   3.316   4.396 -0.8351 -0.0061  0.0228
 1924SOL     OW 7693   4.814   1.647   5.060  0.6576  0.3312  0.1051
 1924SOL    HW1 7694   4.830   1.556   5.037  1.8065  0.8837 -1.4584
 1924SOL    HW2 7695   4.741   1.673   5.003  0.5739  0.5022  0.2899
 1924SOL     MW 7696   4.806   1.639   5.050  0.7939  0.4238 -0.0714
 1925SOL     OW 7697   4.071   1.711   3.528  0.4868  0.0256  0.1902
 1925SOL    HW1 7698   4.017   1.737   3.603  0.2988  2.3575 -0.6674
 1925SOL    HW2 7699   4.019   1.736   3.452  0.9933 -1.6243 -0.7405
 1925SOL     MW 7700   4.058   1.718   3.528  0.5276  0.1129 -0.0387
 1926SOL     OW 7701   3.765   0.184   1.824  0.5546 -0.1843  0.3015
 1926SOL    HW1 7702   3.724   0.124   1.762 -0.2705 -0.5531  1.1822
 1926SOL    HW2 7703   3.783   0.131   1.902  0.9137  0.4343  0.6523
 1926SOL     MW 7704   3.762   0.170   1.826  0.4949 -0.1524  0.4592
 1927SOL     OW 7705   4.186   0.378   5.326 -0.0443 -0.0843 -0.4290
 1927SOL    HW1 7706   4.238   0.347   5.252  0.5695 -0.3563  0.1032
 1927SOL    HW2 7707   4.245   0.435   5.375 -0.7153  0.7977 -0.6061
 1927SOL     MW 7708   4.200   0.381   5.323 -0.0516 -0.0062 -0.3835
 1928SOL     OW 7709   0.646   4.812   2.144 -0.2066  0.0263  0.3719
 1928SOL    HW1 7710   0.568   4.757   2.132  0.4320 -1.2216  1.6373
 1928SOL    HW2 7711   0.691   4.807   2.060 -0.5615 -0.7800  0.2133
 1928SOL     MW 7712   0.642   4.804   2.132 -0.1703 -0.2367  0.5136
 1929SOL     OW 7713   4.917   1.907   1.922 -0.1098  0.1482 -0.1869
 1929SOL    HW1 7714   4.928   1.819   1.885  0.5110  0.8215 -1.6875
 1929SOL    HW2 7715   5.006   1.941   1.930 -0.2669  0.2495  1.4644
 1929SOL     MW 7716   4.929   1.900   1.918 -0.0504  0.2474 -0.1676
 1930SOL     OW 7717   2.429   2.157   3.765 -0.2173 -0.4185 -0.0930
 1930SOL    HW1 7718   2.453   2.247   3.742  1.3951 -0.7670  0.1212
 1930SOL    HW2 7719   2.426   2.110   3.681  0.2370 -0.4588 -0.0865
 1930SOL     MW 7720   2.431   2.162   3.751  0.0473 -0.4683 -0.0648
 1931SOL     OW 7721   3.928   3.546   3.070 -0.2263 -0.0197 -0.3994
 1931SOL    HW1 7722   3.859   3.612   3.074 -0.5410 -0.3625 -0.1429
 1931SOL    HW2 7723   3.961   3.541   3.160  1.3198  1.3902 -0.8414
 1931SOL     MW 7724   3.924   3.554   3.082 -0.0687  0.1169 -0.4232
 1932SOL     OW 7725   1.089   2.649   5.416  0.1923  0.1350  0.8070
 1932SOL    HW1 7726   1.063   2.622   5.505 -0.1499 -0.7627  0.4527
 1932SOL    HW2 7727   1.100   2.743   5.422  0.3249  0.0711  1.8489
 1932SOL     MW 7728   1.087   2.657   5.428  0.1655  0.0119  0.8950
 1933SOL     OW 7729   0.614   4.823   2.881  0.2348  0.4600  0.1306
 1933SOL    HW1 7730   0.676   4.874   2.933 -0.6087  1.7561 -0.1111
 1933SOL    HW2 7731   0.531   4.870   2.889 -0.2032 -0.0155 -1.3675
 1933SOL     MW 7732   0.611   4.835   2.889  0.0707  0.5651 -0.0921
 1934SOL     OW 7733   1.500   4.909   4.010  0.1944  0.1417  0.2233
 1934SOL    HW1 7734   1.505   4.989   3.958 -2.2414  0.5845  0.5580
 1934SOL    HW2 7735   1.526   4.936   4.099  1.4347  0.0519 -0.0955
 1934SOL     MW 7736   1.504   4.923   4.015  0.0413  0.1869  0.2254
 1935SOL     OW 7737   3.356   3.181   1.795 -0.2151 -0.2953  0.5290
 1935SOL    HW1 7738   3.271   3.168   1.753 -0.2264  0.0102  0.4527
 1935SOL    HW2 7739   3.381   3.094   1.827 -0.0873 -0.5935 -0.3493
 1935SOL     MW 7740   3.349   3.168   1.794 -0.2002 -0.2944  0.4068
 1936SOL     OW 7741   2.533   2.326   4.050  0.1133  0.0016 -0.1489
 1936SOL    HW1 7742   2.527   2.239   4.089  2.8373  0.2904  1.2156
 1936SOL    HW2 7743   2.617   2.325   4.004 -0.0404  1.7237 -0.5297
 1936SOL     MW 7744   2.543   2.315   4.049  0.4424  0.2590 -0.0230
 1937SOL     OW 7745   4.831   1.377   2.181  0.3417  0.2715 -0.6910
 1937SOL    HW1 7746   4.781   1.340   2.107 -0.0454  1.5653 -1.0961
 1937SOL    HW2 7747   4.817   1.314   2.252  1.8702 -1.7572 -2.0732
 1937SOL     MW 7748   4.822   1.364   2.181  0.4878  0.1774 -0.9198
 1938SOL     OW 7749   0.530   0.032   3.729  0.6350  0.1700  0.3292
 1938SOL    HW1 7750   0.493   0.119   3.744  1.3165  0.2658  1.5753
 1938SOL    HW2 7751   0.464  -0.028   3.763  0.3175  0.1989 -0.2164
 1938SOL     MW 7752   0.517   0.036   3.735  0.6816  0.1860  0.4189
 1939SOL     OW 7753   3.991   0.167   0.465  0.4548 -0.1564 -0.4332
 1939SOL    HW1 7754   3.974   0.261   0.470  0.4201 -0.2023  0.3587
 1939SOL    HW2 7755   4.078   0.161   0.425  0.6168  0.2172 -0.1411
 1939SOL     MW 7756   4.000   0.178   0.460  0.4711 -0.1144 -0.2944
 1940SOL     OW 7757   1.869   3.801   1.277  0.3259 -0.1329  0.0502
 1940SOL    HW1 7758   1.962   3.778   1.274  0.1183 -0.9560 -0.2989
 1940SOL    HW2 7759   1.868   3.895   1.292  1.2186 -0.3066  1.4293
 1940SOL     MW 7760   1.881   3.810   1.279  0.4136 -0.2605  0.1821
 1941SOL     OW 7761   1.080   1.615   4.057 -0.0297  0.2529 -0.2235
 1941SOL    HW1 7762   1.123   1.689   4.101 -0.2503 -0.2719  0.9135
 1941SOL    HW2 7763   1.027   1.656   3.989 -1.6138  1.3432  1.5713
 1941SOL     MW 7764   1.079   1.630   4.054 -0.2607  0.3253  0.1518
 1942SOL     OW 7765   3.693   0.024   4.843 -0.5877 -0.8401  0.3365
 1942SOL    HW1 7766   3.763  -0.032   4.876 -1.1303 -2.5652 -1.2762
 1942SOL    HW2 7767   3.738   0.090   4.790 -0.1152 -1.4234  0.0020
 1942SOL     MW 7768   3.708   0.025   4.841 -0.5967 -1.1356  0.0872
 1943SOL     OW 7769   3.766   3.060   5.222 -0.4239 -0.7629 -0.2072
 1943SOL    HW1 7770   3.757   3.061   5.317  0.7468 -0.5907 -0.0905
 1943SOL    HW2 7771   3.782   2.969   5.199 -0.4945 -0.7714 -0.2243
 1943SOL     MW 7772   3.767   3.049   5.231 -0.2830 -0.7419 -0.1944
 1944SOL     OW 7773   4.866   2.688   2.645 -0.0197 -0.3952  0.2508
 1944SOL    HW1 7774   4.933   2.732   2.697 -0.8900  0.5302  0.6381
 1944SOL    HW2 7775   4.914   2.641   2.578  0.9814  0.9662 -0.0261
 1944SOL     MW 7776   4.880   2.687   2.643 -0.0029 -0.1024  0.2649
 1945SOL     OW 7777   2.254   4.295   0.554 -0.1254  0.3368 -0.0651
 1945SOL    HW1 7778   2.165   4.293   0.517 -0.0818 -0.6210 -0.1363
 1945SOL    HW2 7779   2.243   4.263   0.643  0.1754  0.0072 -0.1459
 1945SOL     MW 7780   2.241   4.291   0.561 -0.0813  0.1720 -0.0845
 1946SOL     OW 7781   3.136   3.278   3.936  0.2836  0.1478 -0.0312
 1946SOL    HW1 7782   3.080   3.314   3.867  0.3068 -0.9986 -0.6679
 1946SOL    HW2 7783   3.083   3.210   3.977  1.0682 -0.7249 -0.4258
 1946SOL     MW 7784   3.122   3.274   3.932  0.3870 -0.1107 -0.1632
 1947SOL     OW 7785   0.424   3.672   1.322  0.1272  0.1226  0.1993
 1947SOL    HW1 7786   0.333   3.681   1.351 -0.3522  1.1594 -1.4881
 1947SOL    HW2 7787   0.418   3.629   1.237  1.2206  0.0703  0.1411
 1947SOL     MW 7788   0.411   3.668   1.315  0.2058  0.2486 -0.0242
 1948SOL     OW 7789   2.284   3.320   1.401  0.1635 -0.6937  0.2033
 1948SOL    HW1 7790   2.337   3.385   1.447 -1.2476  0.2704  0.5198
 1948SOL    HW2 7791   2.346   3.251   1.377  2.0884  1.5988 -1.8409
 1948SOL     MW 7792   2.299   3.319   1.404  0.2293 -0.2768 -0.0178
 1949SOL     OW 7793   3.578   4.028   0.819  0.0859 -0.5309 -0.9353
 1949SOL    HW1 7794   3.670   4.001   0.820  0.5094  0.7601  1.4212
 1949SOL    HW2 7795   3.538   3.979   0.891 -0.9427 -0.5935 -1.5330
 1949SOL     MW 7796   3.585   4.018   0.829  0.0085 -0.3736 -0.7102
 1950SOL     OW 7797   1.184   0.730   5.123  0.6185 -0.3648  0.2618
 1950SOL    HW1 7798   1.191   0.634   5.130 -2.4832 -0.5906  2.3455
 1950SOL    HW2 7799   1.101   0.744   5.078 -0.3523  1.2492  2.3985
 1950SOL     MW 7800   1.174   0.719   5.119  0.0972 -0.1871  0.8020
 1951SOL     OW 7801   1.703   4.189   0.963  0.0563  0.2932  0.1144
 1951SOL    HW1 7802   1.616   4.181   1.003  0.5573  0.3660  1.2600
 1951SOL    HW2 7803   1.736   4.273   0.993 -0.2663  1.2298 -1.9780
 1951SOL     MW 7804   1.696   4.199   0.972  0.0791  0.4225 -0.0068
 1952SOL     OW 7805   5.135   4.806   3.833 -0.3260 -0.3124  0.4297
 1952SOL    HW1 7806   5.111   4.899   3.832 -0.1963 -0.2733 -0.7249
 1952SOL    HW2 7807   5.227   4.805   3.805 -0.2588 -0.7739  0.6544
 1952SOL     MW 7808   5.144   4.818   3.830 -0.3008 -0.3665  0.3107
 1953SOL     OW 7809   2.835   1.273   1.623  0.1451 -0.0964  0.2437
 1953SOL    HW1 7810   2.800   1.212   1.558 -0.4768  0.3270  0.1736
 1953SOL    HW2 7811   2.825   1.359   1.583  1.1604  0.0542  0.2733
 1953SOL     MW 7812   2.829   1.276   1.609  0.1954 -0.0229  0.2385
 1954SOL     OW 7813   3.581   2.778   2.595 -0.1640  0.2586  0.5235
 1954SOL    HW1 7814   3.504   2.756   2.542  0.6293 -1.6132  0.1008
 1954SOL    HW2 7815   3.572   2.726   2.674  0.6493  0.0583  0.4917
 1954SOL     MW 7816   3.570   2.769   2.598  0.0417 -0.0066  0.4653
 1955SOL     OW 7817   5.078   0.006   5.424  0.5778  0.5581  0.1557
 1955SOL    HW1 7818   5.071   0.041   5.335  0.2079 -0.8842 -0.4074
 1955SOL    HW2 7819   5.107   0.081   5.476  0.3524  1.5589 -1.0837
 1955SOL     MW 7820   5.081   0.020   5.419  0.5016  0.5016 -0.0751
 1956SOL     OW 7821   1.352   1.072   4.062 -0.2110  0.1077 -0.1916
 1956SOL    HW1 7822   1.426   1.079   4.123  0.7286  1.2825 -1.3967
 1956SOL    HW2 7823   1.389   1.030   3.984 -1.4104 -1.4589  0.0378
 1956SOL     MW 7824   1.366   1.067   4.060 -0.2442  0.0576 -0.3165
 1957SOL     OW 7825   3.908   5.357   1.161 -0.0732 -0.0548 -0.2534
 1957SOL    HW1 7826   3.942   5.353   1.072  0.4226  0.3601 -0.0877
 1957SOL    HW2 7827   3.813   5.352   1.151 -0.0366  0.3661 -0.8278
 1957SOL     MW 7828   3.900   5.356   1.149 -0.0050  0.0522 -0.3057
 1958SOL     OW 7829   3.741   1.831   4.355 -0.0929 -0.0040  0.1009
 1958SOL    HW1 7830   3.790   1.766   4.405 -0.2088 -0.1402  0.0385
 1958SOL    HW2 7831   3.776   1.824   4.266 -2.6159 -2.6407 -0.8655
 1958SOL     MW 7832   3.752   1.822   4.350 -0.4307 -0.3590 -0.0308
 1959SOL     OW 7833   3.591   2.243   2.613 -0.0604  0.4994  0.1027
 1959SOL    HW1 7834   3.616   2.286   2.694 -1.5066  0.5337  0.5613
 1959SOL    HW2 7835   3.570   2.153   2.638  0.9095  0.0928 -0.4965
 1959SOL     MW 7836   3.592   2.237   2.626 -0.1213  0.4518  0.0847
 1960SOL     OW 7837   3.981   1.542   2.807 -0.0674 -0.0237  0.0438
 1960SOL    HW1 7838   4.070   1.514   2.788  0.4920  2.0198 -0.5705
 1960SOL    HW2 7839   3.960   1.500   2.891  1.4428 -0.5946  0.1596
 1960SOL     MW 7840   3.989   1.533   2.816  0.1975  0.1648 -0.0200
 1961SOL     OW 7841   3.851   2.920   2.505  0.0654  0.5388  0.1365
 1961SOL    HW1 7842   3.917   2.890   2.568 -0.1336  1.0752  0.6114
 1961SOL    HW2 7843   3.816   2.840   2.467  0.4571  0.2204  0.4309
 1961SOL     MW 7844   3.855   2.906   2.508  0.0901  0.5667  0.2350
 1962SOL     OW 7845   5.017   0.892   2.746 -0.0323 -0.1294  0.4911
 1962SOL    HW1 7846   5.066   0.882   2.828  1.3934  0.1787 -0.2827
 1962SOL    HW2 7847   4.925   0.890   2.773  0.3942 -0.0434  2.0918
 1962SOL     MW 7848   5.012   0.890   2.760  0.2048 -0.0789  0.5970
 1963SOL     OW 7849   2.549   0.881   1.345 -0.0751 -0.3928  0.3551
 1963SOL    HW1 7850   2.491   0.819   1.390  0.3549 -1.0510  0.0254
 1963SOL    HW2 7851   2.620   0.826   1.312  0.2708  0.2750 -0.0145
 1963SOL     MW 7852   2.550   0.866   1.347  0.0242 -0.3915  0.2655
 1964SOL     OW 7853   3.756   0.714   0.119  0.3809 -0.0125 -0.0251
 1964SOL    HW1 7854   3.824   0.709   0.186  0.2116  2.1750  0.3770
 1964SOL    HW2 7855   3.674   0.697   0.165  0.2858  1.2891  0.3232
 1964SOL     MW 7856   3.754   0.712   0.133  0.3470  0.4341  0.0709
 1965SOL     OW 7857   0.153   1.243   4.016 -0.4469  0.1442  0.4618
 1965SOL    HW1 7858   0.128   1.155   3.987 -1.0773  0.9979 -1.7178
 1965SOL    HW2 7859   0.212   1.227   4.090 -0.3455 -2.1089 -0.0275
 1965SOL     MW 7860   0.157   1.230   4.022 -0.5146 -0.0350  0.1202
 1966SOL     OW 7861   0.719   4.040   1.721 -0.5892  1.0362  0.7084
 1966SOL    HW1 7862   0.758   4.070   1.803  2.0809 -0.7854  0.2479
 1966SOL    HW2 7863   0.673   3.959   1.745 -0.0432  0.6537  0.4912
 1966SOL     MW 7864   0.718   4.033   1.735 -0.1775  0.7540  0.6216
 1967SOL     OW 7865   3.377   1.970   0.486 -0.2031  0.5488  0.5645
 1967SOL    HW1 7866   3.330   1.933   0.561 -2.0267  1.2683 -0.1639
 1967SOL    HW2 7867   3.316   1.962   0.413  1.0795  0.9394 -0.5984
 1967SOL     MW 7868   3.363   1.965   0.486 -0.2723  0.6909  0.3224
 1968SOL     OW 7869   3.421   1.083   2.935  0.4637 -0.1433 -0.0148
 1968SOL    HW1 7870   3.515   1.091   2.953  0.7314 -0.9320 -0.9686
 1968SOL    HW2 7871   3.415   1.018   2.865 -0.8288 -0.3929  0.2908
 1968SOL     MW 7872   3.432   1.076   2.928  0.3326 -0.2762 -0.0978
 1969SOL     OW 7873   2.179   4.223   3.835 -0.2724  0.3943 -0.4531
 1969SOL    HW1 7874   2.107   4.186   3.784  1.2316 -0.1749 -2.2742
 1969SOL    HW2 7875   2.170   4.318   3.822  0.4534  0.2466 -2.4093
 1969SOL     MW 7876   2.168   4.231   3.827  0.0131  0.3025 -0.9366
 1970SOL     OW 7877   5.142   2.481   1.202 -0.3266 -0.1289 -0.0461
 1970SOL    HW1 7878   5.133   2.576   1.207 -0.3794 -0.0798 -0.9196
 1970SOL    HW2 7879   5.237   2.466   1.201 -0.3182 -0.0890  0.1090
 1970SOL     MW 7880   5.153   2.491   1.202 -0.3323 -0.1175 -0.1381
 1971SOL     OW 7881   2.539   3.985   2.729  0.5229  0.6001 -0.0068
 1971SOL    HW1 7882   2.465   3.928   2.708  1.0649  0.1374 -0.6960
 1971SOL    HW2 7883   2.521   4.015   2.818 -0.1569 -0.0426  0.0835
 1971SOL     MW 7884   2.528   3.981   2.738  0.5053  0.4586 -0.0835
 1972SOL     OW 7885   0.324   4.246   0.582 -0.2229  0.0910  0.0362
 1972SOL    HW1 7886   0.235   4.277   0.600 -0.8091 -0.9104 -0.9487
 1972SOL    HW2 7887   0.340   4.179   0.648 -1.2400 -1.5467 -1.3083
 1972SOL     MW 7888   0.315   4.242   0.593 -0.4282 -0.2468 -0.2620
 1973SOL     OW 7889   3.298   1.051   1.410 -0.0938 -0.7033  0.0845
 1973SOL    HW1 7890   3.358   0.983   1.442  0.8269 -0.0841 -0.3017
 1973SOL    HW2 7891   3.332   1.075   1.324 -0.7466 -0.1585 -0.0307
 1973SOL     MW 7892   3.310   1.045   1.403 -0.0595 -0.5543  0.0203
 1974SOL     OW 7893   2.818   3.014   0.850 -0.4767 -0.0244 -0.1669
 1974SOL    HW1 7894   2.838   3.002   0.757 -2.3390 -1.9954 -0.3779
 1974SOL    HW2 7895   2.901   2.995   0.894  0.1122 -0.2943 -1.3506
 1974SOL     MW 7896   2.832   3.010   0.844 -0.6397 -0.3112 -0.3454
 1975SOL     OW 7897   2.022   3.461   4.074  0.4263  0.1428 -0.7244
 1975SOL    HW1 7898   2.059   3.471   4.162 -0.8912 -2.0905  0.1689
 1975SOL    HW2 7899   2.057   3.377   4.043 -0.7402 -0.1007 -1.4507
 1975SOL     MW 7900   2.031   3.451   4.081  0.1083 -0.1743 -0.7030
 1976SOL     OW 7901   4.630   2.577   1.122  0.1350 -0.2256 -0.3554
 1976SOL    HW1 7902   4.701   2.640   1.125  0.3969 -0.5332  0.5187
 1976SOL    HW2 7903   4.673   2.491   1.123 -0.2147 -0.4220 -1.4495
 1976SOL     MW 7904   4.644   2.574   1.123  0.1238 -0.2901 -0.3836
 1977SOL     OW 7905   5.391   1.057   2.037 -0.3879 -0.1347 -0.5549
 1977SOL    HW1 7906   5.318   0.997   2.049 -1.7164  0.9510 -2.7316
 1977SOL    HW2 7907   5.419   1.044   1.946  0.3117  1.4129 -0.5966
 1977SOL     MW 7908   5.386   1.048   2.027 -0.4684  0.2024 -0.8389
 1978SOL     OW 7909   0.760   4.697   0.276 -0.3377 -0.1204 -0.2219
 1978SOL    HW1 7910   0.827   4.674   0.340  0.2679  2.1723  0.0717
 1978SOL    HW2 7911   0.736   4.614   0.234 -0.7418 -1.7037  2.9103
 1978SOL     MW 7912   0.765   4.683   0.278 -0.3119 -0.0296  0.2166
 1979SOL     OW 7913   2.229   3.250   4.371 -0.2727  0.0677  0.5019
 1979SOL    HW1 7914   2.196   3.277   4.456 -1.3375  1.0818 -0.2055
 1979SOL    HW2 7915   2.324   3.265   4.376 -0.2487 -0.3913  1.6669
 1979SOL     MW 7916   2.237   3.256   4.382 -0.4059  0.1388  0.5605
 1980SOL     OW 7917   2.687   3.912   3.526 -0.6589 -0.0302  0.5474
 1980SOL    HW1 7918   2.699   3.931   3.433  0.6000 -0.6017  0.5770
 1980SOL    HW2 7919   2.594   3.889   3.534 -1.1594  1.5732 -0.2746
 1980SOL     MW 7920   2.676   3.911   3.515 -0.5618  0.1019  0.4460
 1981SOL     OW 7921   0.081   3.251   1.824  0.2346 -0.2435  0.1599
 1981SOL    HW1 7922   0.170   3.280   1.846 -0.0817  1.0199 -0.1486
 1981SOL    HW2 7923   0.024   3.309   1.875 -0.4351 -1.6558  1.0953
 1981SOL     MW 7924   0.085   3.262   1.834  0.1084 -0.2625  0.2402
 1982SOL     OW 7925   0.160   0.575   2.435  0.3287 -0.1840  0.2150
 1982SOL    HW1 7926   0.240   0.551   2.387  2.1936  2.3190  1.7948
 1982SOL    HW2 7927   0.179   0.553   2.526 -0.4661  1.1406  0.7288
 1982SOL     MW 7928   0.173   0.569   2.441  0.4657  0.3060  0.4830
 1983SOL     OW 7929   2.309   3.073   1.926  0.2418  0.4656 -0.4985
 1983SOL    HW1 7930   2.309   3.136   1.854 -1.2404  0.0623 -0.8883
 1983SOL    HW2 7931   2.232   3.019   1.910  1.1508 -1.0928  0.1351
 1983SOL     MW 7932   2.299   3.074   1.915  0.1684  0.2145 -0.4673
 1984SOL     OW 7933   3.418   4.034   1.130  0.0353 -0.8787  0.2071
 1984SOL    HW1 7934   3.322   4.045   1.127  0.0570 -0.7856 -0.1912
 1984SOL    HW2 7935   3.452   4.124   1.128  0.1715 -0.9276 -1.4719
 1984SOL     MW 7936   3.410   4.047   1.129  0.0555 -0.8730 -0.0588
 1985SOL     OW 7937   4.608   1.201   2.629 -0.3038 -0.0264 -0.3447
 1985SOL    HW1 7938   4.569   1.271   2.681  1.2637 -0.1589  1.0977
 1985SOL    HW2 7939   4.539   1.134   2.624 -1.2370  0.9097 -0.3206
 1985SOL     MW 7940   4.594   1.201   2.635 -0.2226  0.0765 -0.1570
 1986SOL     OW 7941   0.892   1.342   3.968  0.5029  0.0316 -0.3151
 1986SOL    HW1 7942   0.853   1.257   3.948  0.0098 -0.5219  2.6107
 1986SOL    HW2 7943   0.822   1.392   4.009  1.5618  0.7799  0.6516
 1986SOL     MW 7944   0.878   1.337   3.970  0.5753  0.0565  0.1832
 1987SOL     OW 7945   3.374   2.565   0.172 -0.0077  0.1149 -0.3688
 1987SOL    HW1 7946   3.305   2.503   0.193 -0.7473  1.3853  1.1754
 1987SOL    HW2 7947   3.374   2.627   0.245  3.9514 -0.7885  0.6522
 1987SOL     MW 7948   3.365   2.565   0.184  0.4044  0.1619 -0.0404
 1988SOL     OW 7949   3.150   2.667   5.138 -0.3279  0.0669 -0.2468
 1988SOL    HW1 7950   3.148   2.729   5.211 -1.5987  0.2364 -0.4203
 1988SOL    HW2 7951   3.062   2.631   5.134 -0.1519 -0.2700 -1.4317
 1988SOL     MW 7952   3.139   2.670   5.147 -0.4681  0.0454 -0.4207
 1989SOL     OW 7953   1.255   4.610   4.005 -0.7149  0.0215 -0.1064
 1989SOL    HW1 7954   1.266   4.573   4.093  1.6415  2.6932  0.8526
 1989SOL    HW2 7955   1.181   4.671   4.014  0.4619  1.4234  0.5263
 1989SOL     MW 7956   1.247   4.613   4.018 -0.2626  0.5430  0.0974
 1990SOL     OW 7957   4.009   0.955   0.009 -0.5331 -0.5201 -0.3993
 1990SOL    HW1 7958   3.984   0.871  -0.030 -1.1649  0.0097 -1.1714
 1990SOL    HW2 7959   4.083   0.934   0.066  1.6850 -1.0833 -3.2598
 1990SOL     MW 7960   4.015   0.941   0.011 -0.3300 -0.5244 -0.8643
 1991SOL     OW 7961   3.343   4.693   4.500  0.1639 -0.0492 -0.0027
 1991SOL    HW1 7962   3.274   4.717   4.439  0.7652 -0.2004 -0.7589
 1991SOL    HW2 7963   3.321   4.604   4.527  0.8481 -0.6805 -1.4134
 1991SOL     MW 7964   3.332   4.685   4.496  0.3284 -0.1493 -0.2801
 1992SOL     OW 7965   5.021   2.051   4.413  0.1295  0.2093  0.3123
 1992SOL    HW1 7966   5.062   2.009   4.489 -1.3226  1.2993  1.7622
 1992SOL    HW2 7967   5.023   1.984   4.345  0.1530 -1.3346  1.7717
 1992SOL     MW 7968   5.027   2.037   4.414 -0.0534  0.1512  0.6847
 1993SOL     OW 7969   4.801   0.940   2.465  0.4442  0.3054  0.3720
 1993SOL    HW1 7970   4.712   0.921   2.435 -0.7840  2.4995  2.3111
 1993SOL    HW2 7971   4.857   0.897   2.400 -1.9727  1.2773 -2.6424
 1993SOL     MW 7972   4.797   0.932   2.453 -0.0224  0.7107  0.2343
 1994SOL     OW 7973   0.716   4.502   1.280 -0.1314 -0.0846  0.1043
 1994SOL    HW1 7974   0.807   4.501   1.247 -0.1832  0.0079 -0.0441
 1994SOL    HW2 7975   0.678   4.581   1.242  0.0776  0.5238  1.1383
 1994SOL     MW 7976   0.723   4.512   1.271 -0.1113  0.0051  0.2177
 1995SOL     OW 7977   3.210   3.889   3.691 -0.5915 -0.2461  0.0052
 1995SOL    HW1 7978   3.143   3.830   3.726 -0.5033 -0.3689 -0.0302
 1995SOL    HW2 7979   3.164   3.971   3.675 -1.3160 -1.0168 -2.3066
 1995SOL     MW 7980   3.195   3.892   3.694 -0.6729 -0.3605 -0.2953
 1996SOL     OW 7981   3.383   3.485   5.380  0.7496  0.2724  0.3556
 1996SOL    HW1 7982   3.471   3.453   5.400  0.8119  0.7622  0.8905
 1996SOL    HW2 7983   3.324   3.414   5.407  0.9219  0.3525  0.9484
 1996SOL     MW 7984   3.387   3.472   5.386  0.7796  0.3453  0.4999
 1997SOL     OW 7985   1.382   2.278   5.302  0.5727 -0.0877 -0.0894
 1997SOL    HW1 7986   1.437   2.216   5.256  0.6741  0.2585 -0.4419
 1997SOL    HW2 7987   1.413   2.276   5.393 -0.4052 -1.6439  0.2480
 1997SOL     MW 7988   1.393   2.270   5.308  0.4605 -0.2426 -0.0913
 1998SOL     OW 7989   5.278   2.815   2.664  0.2323 -0.3235  0.1278
 1998SOL    HW1 7990   5.283   2.889   2.602  1.0709 -1.0657 -0.7269
 1998SOL    HW2 7991   5.355   2.762   2.643 -0.7931 -1.8746  0.1641
 1998SOL     MW 7992   5.289   2.818   2.653  0.2084 -0.6171  0.0231
 1999SOL     OW 7993   1.510   5.107   3.813  0.2237 -0.3179 -0.0323
 1999SOL    HW1 7994   1.479   5.197   3.821 -0.1560 -0.3927 -0.6381
 1999SOL    HW2 7995   1.503   5.086   3.720 -1.3312 -1.5343  0.3112
 1999SOL     MW 7996   1.505   5.116   3.802 -0.0240 -0.4832 -0.0659
 2000SOL     OW 7997   0.038   1.063   2.452 -0.0398 -0.3234 -0.3869
 2000SOL    HW1 7998  -0.053   1.057   2.424 -0.5012 -1.9770  1.3026
 2000SOL    HW2 7999   0.083   0.994   2.402  0.5249  1.0652 -1.8843
 2000SOL     MW 8000   0.032   1.053   2.442 -0.0266 -0.3573 -0.3623
 2001SOL     OW 8001   4.604   1.137   4.835  0.0686  0.0880  0.2421
 2001SOL    HW1 8002   4.655   1.133   4.754 -1.1507 -2.4846 -0.5223
 2001SOL    HW2 8003   4.534   1.073   4.822 -0.0338 -0.6238  3.4122
 2001SOL     MW 8004   4.602   1.128   4.823 -0.1006 -0.3324  0.5501
 2002SOL     OW 8005   3.822   0.472   1.272  0.7306 -0.0471  0.1427
 2002SOL    HW1 8006   3.852   0.485   1.362  1.2455  1.3103 -0.1983
 2002SOL    HW2 8007   3.861   0.389   1.246 -1.0820 -1.5330  1.8025
 2002SOL     MW 8008   3.831   0.463   1.280  0.5645 -0.0636  0.3115
 2003SOL     OW 8009   3.716   1.213   0.141  0.0252 -0.7542 -0.2027
 2003SOL    HW1 8010   3.728   1.141   0.204  1.2968 -0.3772  0.0169
 2003SOL    HW2 8011   3.691   1.288   0.195 -0.9018 -0.9187 -0.3885
 2003SOL     MW 8012   3.714   1.213   0.156  0.0693 -0.7270 -0.1984
 2004SOL     OW 8013   0.404   2.963   0.372 -0.1984  0.2974 -0.1529
 2004SOL    HW1 8014   0.448   2.936   0.292 -0.9390  1.5671 -1.0373
 2004SOL    HW2 8015   0.354   2.887   0.400 -0.1812 -0.0562 -1.0839
 2004SOL     MW 8016   0.403   2.950   0.366 -0.2910  0.4146 -0.3853
 2005SOL     OW 8017   1.551   2.629   3.028  0.1528  0.2463  0.0642
 2005SOL    HW1 8018   1.528   2.629   3.121  1.5334  2.1471  0.4706
 2005SOL    HW2 8019   1.473   2.596   2.984 -1.1059  0.7738  1.7903
 2005SOL     MW 8020   1.538   2.625   3.034  0.1684  0.5571  0.3372
 2006SOL     OW 8021   4.251   1.143   3.002  0.6335 -0.0317  0.3390
 2006SOL    HW1 8022   4.240   1.215   2.939  2.1748 -0.7674 -0.8512
 2006SOL    HW2 8023   4.317   1.175   3.064  0.4921  0.0067  0.4682
 2006SOL     MW 8024   4.258   1.156   3.002  0.8127 -0.1210  0.2032
 2007SOL     OW 8025   1.221   3.595   2.350  0.1331  0.2468  0.3322
 2007SOL    HW1 8026   1.240   3.686   2.329  1.2766 -0.2500 -0.9320
 2007SOL    HW2 8027   1.305   3.559   2.379  0.0662 -0.7764 -0.6617
 2007SOL     MW 8028   1.234   3.602   2.351  0.2709  0.0522  0.0431
 2008SOL     OW 8029   1.842   1.388   0.009 -0.0919  0.5356  0.2659
 2008SOL    HW1 8030   1.787   1.364   0.084  0.1048  1.5198  0.7478
 2008SOL    HW2 8031   1.825   1.482  -0.003  0.9304  0.6928 -0.0411
 2008SOL     MW 8032   1.833   1.397   0.017  0.0642  0.6817  0.2883
 2009SOL     OW 8033   3.045   1.798   0.215 -0.2224  0.7371  0.3436
 2009SOL    HW1 8034   3.049   1.726   0.278 -0.0662  1.1776  0.8504
 2009SOL    HW2 8035   3.015   1.758   0.134 -1.5738  0.3650  1.0019
 2009SOL     MW 8036   3.042   1.784   0.213 -0.3754  0.7458  0.4928
 2010SOL     OW 8037   5.432   0.271   4.182 -0.2484  0.5003 -0.5303
 2010SOL    HW1 8038   5.401   0.199   4.238 -1.2626 -1.4545 -3.3619
 2010SOL    HW2 8039   5.527   0.264   4.185 -0.3187 -0.4449 -0.1279
 2010SOL     MW 8040   5.440   0.261   4.190 -0.3872  0.1291 -0.8413
 2011SOL     OW 8041   0.448   4.844   3.462  0.2263  0.4249 -0.3196
 2011SOL    HW1 8042   0.460   4.916   3.523  0.0133 -0.0938  0.3486
 2011SOL    HW2 8043   0.361   4.809   3.483  1.1961 -1.4181  0.8948
 2011SOL     MW 8044   0.438   4.848   3.473  0.3232  0.1226 -0.0786
 2012SOL     OW 8045   4.047   2.797   1.308 -0.6419  0.0388 -0.0099
 2012SOL    HW1 8046   4.034   2.746   1.228  0.3684  0.9950 -0.8305
 2012SOL    HW2 8047   4.142   2.805   1.315 -0.7628  1.5638  0.2241
 2012SOL     MW 8048   4.058   2.792   1.299 -0.5281  0.3564 -0.0850
 2013SOL     OW 8049   3.547   2.470   2.097  0.6892 -0.4621 -0.0319
 2013SOL    HW1 8050   3.546   2.532   2.025  0.5204 -0.6198 -0.1655
 2013SOL    HW2 8051   3.620   2.412   2.077  0.8791 -0.2782  0.1194
 2013SOL     MW 8052   3.556   2.471   2.085  0.6919 -0.4588 -0.0296
 2014SOL     OW 8053   2.389   2.279   2.026 -0.3564  0.6170  0.2285
 2014SOL    HW1 8054   2.333   2.234   2.089 -1.2899  0.2136 -0.8507
 2014SOL    HW2 8055   2.329   2.307   1.956  0.7956  0.1107 -1.0035
 2014SOL     MW 8056   2.374   2.277   2.025 -0.3284  0.5005 -0.0674
 2015SOL     OW 8057   4.478   0.764   2.127 -0.7535 -0.2589  0.0495
 2015SOL    HW1 8058   4.515   0.817   2.057 -0.0854 -0.0551  0.5362
 2015SOL    HW2 8059   4.385   0.758   2.107 -0.7361  0.6035 -0.3255
 2015SOL     MW 8060   4.471   0.770   2.116 -0.6657 -0.1224  0.0638
 2016SOL     OW 8061   5.331   1.376   0.897 -0.3740  0.0697 -0.0898
 2016SOL    HW1 8062   5.415   1.409   0.865 -0.1606  0.3367  0.7273
 2016SOL    HW2 8063   5.352   1.292   0.938 -0.2603  0.7579  1.3296
 2016SOL     MW 8064   5.344   1.369   0.898 -0.3321  0.1920  0.1965
 2017SOL     OW 8065   2.528   4.090   4.774  0.2841 -0.0347  0.4556
 2017SOL    HW1 8066   2.445   4.138   4.769  0.2483  0.2366  2.5048
 2017SOL    HW2 8067   2.539   4.071   4.867  2.1193 -0.8090  0.1350
 2017SOL     MW 8068   2.519   4.094   4.786  0.5144 -0.0991  0.6769
 2018SOL     OW 8069   5.450   4.850   0.411  0.2764  0.0660 -0.1990
 2018SOL    HW1 8070   5.422   4.914   0.478  1.2526  0.2243  0.0683
 2018SOL    HW2 8071   5.419   4.766   0.445 -1.2330  0.3983 -0.6693
 2018SOL     MW 8072   5.442   4.847   0.424  0.2081  0.1288 -0.2250
 2019SOL     OW 8073   3.922   1.374   0.372 -0.2432  0.1762  0.1041
 2019SOL    HW1 8074   4.015   1.355   0.383 -0.3253 -0.0386  0.4427
 2019SOL    HW2 8075   3.893   1.401   0.460 -0.3187  1.0426 -0.1737
 2019SOL     MW 8076   3.930   1.375   0.385 -0.2634  0.2596  0.1119
 2020SOL     OW 8077   1.312   5.095   2.108 -0.1720  0.0523  0.3908
 2020SOL    HW1 8078   1.292   5.127   2.021 -1.2359  1.0142  0.9637
 2020SOL    HW2 8079   1.393   5.141   2.133 -0.1024  0.0975  0.0812
 2020SOL     MW 8080   1.320   5.105   2.100 -0.2993  0.1813  0.4245
 2021SOL     OW 8081   4.388   3.802   4.681  0.5136  0.0542 -0.1801
 2021SOL    HW1 8082   4.364   3.720   4.636 -0.3732  0.1680  0.0649
 2021SOL    HW2 8083   4.453   3.776   4.745  3.6361  0.2129 -3.0002
 2021SOL     MW 8084   4.393   3.788   4.683  0.7998  0.0891 -0.5098
 2022SOL     OW 8085   0.042   3.598   1.596 -0.5439 -0.0221 -0.9220
 2022SOL    HW1 8086   0.041   3.505   1.572  1.9753 -0.2421 -0.4672
 2022SOL    HW2 8087  -0.004   3.601   1.680 -0.6601 -0.8456 -0.9413
 2022SOL     MW 8088   0.036   3.586   1.604 -0.2363 -0.1557 -0.8663
 2023SOL     OW 8089   3.020   0.259   1.476  0.0641 -0.7325 -0.4782
 2023SOL    HW1 8090   2.937   0.213   1.485 -0.1250 -0.7568 -2.0177
 2023SOL    HW2 8091   3.006   0.321   1.404  0.0754  2.3502  1.9730
 2023SOL     MW 8092   3.008   0.261   1.468  0.0413 -0.3410 -0.3615
 2024SOL     OW 8093   0.221   0.608   1.026 -0.1747 -0.2898 -0.5957
 2024SOL    HW1 8094   0.160   0.615   0.953 -1.9905 -2.0204  0.6635
 2024SOL    HW2 8095   0.166   0.613   1.105  1.1544 -2.5277  0.5822
 2024SOL     MW 8096   0.206   0.610   1.027 -0.2370 -0.7978 -0.2837
 2025SOL     OW 8097   3.861   3.978   0.899  0.4695  0.2197 -0.0165
 2025SOL    HW1 8098   3.866   3.887   0.928  2.2125  0.6003  1.0562
 2025SOL    HW2 8099   3.851   4.029   0.980  1.3958  1.0817 -0.4215
 2025SOL     MW 8100   3.860   3.973   0.913  0.8112  0.3788  0.0689
 2026SOL     OW 8101   0.140   4.236   4.834 -0.1070  0.2536  0.6020
 2026SOL    HW1 8102   0.068   4.234   4.772  2.1861  1.0749 -2.3049
 2026SOL    HW2 8103   0.171   4.326   4.832  1.3961 -0.2178  1.2725
 2026SOL     MW 8104   0.135   4.247   4.826  0.3790  0.2984  0.3157
 2027SOL     OW 8105   0.402   2.307   3.461 -0.5248 -0.2312 -0.0581
 2027SOL    HW1 8106   0.415   2.359   3.540  0.4687 -1.3629  0.5403
 2027SOL    HW2 8107   0.465   2.236   3.467  0.1366  0.0735 -2.2512
 2027SOL     MW 8108   0.412   2.304   3.472 -0.3130 -0.3371 -0.2622
 2028SOL     OW 8109   2.813   1.083   0.897 -0.1057  0.1239  0.3554
 2028SOL    HW1 8110   2.864   1.162   0.914  0.8352 -0.5069  0.4957
 2028SOL    HW2 8111   2.844   1.053   0.812 -0.5179 -0.0543  0.2683
 2028SOL     MW 8112   2.823   1.090   0.888 -0.0380  0.0204  0.3622
 2029SOL     OW 8113   2.535   1.486   2.638  0.2321 -0.1405 -0.1974
 2029SOL    HW1 8114   2.611   1.534   2.672  0.3798  0.9560 -1.9273
 2029SOL    HW2 8115   2.540   1.499   2.543 -0.9677 -1.8017 -0.5254
 2029SOL     MW 8116   2.545   1.494   2.630  0.0974 -0.2128 -0.4608
 2030SOL     OW 8117   2.390   1.657   1.307  0.3558  0.6137  0.2422
 2030SOL    HW1 8118   2.451   1.583   1.304 -1.1519 -0.6496 -1.5687
 2030SOL    HW2 8119   2.382   1.678   1.400  1.3298 -1.0717  0.7442
 2030SOL     MW 8120   2.397   1.650   1.319  0.2875  0.2362  0.0746
 2031SOL     OW 8121   2.188   2.633   4.244 -0.1432  0.1894  0.4745
 2031SOL    HW1 8122   2.168   2.549   4.204  2.9308 -1.5841  2.2738
 2031SOL    HW2 8123   2.239   2.680   4.177  1.1001 -0.8940  0.6083
 2031SOL     MW 8124   2.192   2.628   4.230  0.4095 -0.1763  0.7220
 2032SOL     OW 8125   3.959   5.026   1.470  0.3983 -0.2147 -0.4728
 2032SOL    HW1 8126   3.908   4.949   1.495  2.1931 -0.8018  1.7738
 2032SOL    HW2 8127   3.939   5.091   1.538  0.2119  0.6784 -1.3719
 2032SOL     MW 8128   3.950   5.025   1.482  0.6042 -0.1755 -0.3003
 2033SOL     OW 8129   0.495   3.916   3.860 -0.4487  0.5026  0.4899
 2033SOL    HW1 8130   0.484   3.853   3.790  1.0066 -0.4998  1.1186
 2033SOL    HW2 8131   0.519   3.997   3.816 -0.2423  0.0657 -0.2101
 2033SOL     MW 8132   0.497   3.919   3.845 -0.2360  0.3183  0.4808
 2034SOL     OW 8133   4.870   5.442   0.351  0.3458 -0.3194 -0.2479
 2034SOL    HW1 8134   4.814   5.391   0.409  0.9008 -0.6282  0.0199
 2034SOL    HW2 8135   4.868   5.395   0.268  1.9800 -1.5884  0.3924
 2034SOL     MW 8136   4.863   5.430   0.347  0.6260 -0.5214 -0.1317
 2035SOL     OW 8137   1.327   2.287   3.195 -0.3563 -0.0362 -0.4458
 2035SOL    HW1 8138   1.403   2.233   3.212  0.6476  0.6164 -2.5517
 2035SOL    HW2 8139   1.252   2.230   3.215  0.6421 -2.1429 -2.3285
 2035SOL     MW 8140   1.327   2.273   3.200 -0.1000 -0.2223 -0.9564
 2036SOL     OW 8141   5.188   4.332   0.829 -0.4281 -0.0553  0.4310
 2036SOL    HW1 8142   5.266   4.296   0.872 -0.2775  1.0450  1.1298
 2036SOL    HW2 8143   5.220   4.368   0.747 -0.2778  0.0050  0.5159
 2036SOL     MW 8144   5.202   4.332   0.824 -0.3896  0.0932  0.5313
 2037SOL     OW 8145   1.383   1.704   1.925  0.3245  0.1333 -0.3901
 2037SOL    HW1 8146   1.326   1.643   1.971  3.3212 -1.5330  1.4367
 2037SOL    HW2 8147   1.391   1.779   1.984  1.2348 -0.3543  0.1262
 2037SOL     MW 8148   1.377   1.706   1.938  0.8247 -0.1424 -0.0901
 2038SOL     OW 8149   2.269   5.292   3.875 -0.5609  0.5777  0.0100
 2038SOL    HW1 8150   2.278   5.274   3.968 -0.0936 -0.6216 -0.2594
 2038SOL    HW2 8151   2.220   5.218   3.840 -0.9844  1.1506 -0.6605
 2038SOL     MW 8152   2.264   5.280   3.882 -0.5553  0.4975 -0.1103
 2039SOL     OW 8153   2.620   0.256   4.350  0.5365  0.7042 -0.3072
 2039SOL    HW1 8154   2.552   0.321   4.367 -0.2782  0.6137 -2.8278
 2039SOL    HW2 8155   2.702   0.302   4.365 -0.0442  1.4065  0.8437
 2039SOL     MW 8156   2.621   0.270   4.354  0.3579  0.7825 -0.4825
 2040SOL     OW 8157   3.568   3.854   1.515  0.0599  0.8407 -0.7760
 2040SOL    HW1 8158   3.505   3.922   1.490 -1.0742 -0.5433 -1.8554
 2040SOL    HW2 8159   3.623   3.842   1.437 -0.9312 -0.7190 -1.2799
 2040SOL     MW 8160   3.567   3.861   1.502 -0.2122  0.4639 -0.9787
 2041SOL     OW 8161   2.606   0.144   4.634  0.0036  0.4692  0.2114
 2041SOL    HW1 8162   2.532   0.166   4.577 -0.5078 -1.3826  0.0835
 2041SOL    HW2 8163   2.647   0.228   4.654 -1.3966  1.4199 -0.7196
 2041SOL     MW 8164   2.602   0.158   4.629 -0.2411  0.3538  0.0759
 2042SOL     OW 8165   1.248   2.920   0.836 -0.0022  0.6774  0.1594
 2042SOL    HW1 8166   1.246   2.884   0.925  1.1095  2.0847  0.8025
 2042SOL    HW2 8167   1.171   2.977   0.831 -0.3770  0.1651  0.0115
 2042SOL     MW 8168   1.238   2.922   0.847  0.0922  0.7919  0.2228
 2043SOL     OW 8169   5.197   1.173   3.632  0.3163  0.6054  0.0826
 2043SOL    HW1 8170   5.271   1.113   3.631  1.0292  1.4682  0.3596
 2043SOL    HW2 8171   5.225   1.245   3.688 -0.7755  0.8955  0.2833
 2043SOL     MW 8172   5.210   1.174   3.639  0.2678  0.7530  0.1437
 2044SOL     OW 8173   1.619   0.661   1.984  0.2949  0.2299 -0.1403
 2044SOL    HW1 8174   1.562   0.717   2.037 -0.0141  0.2132 -0.4489
 2044SOL    HW2 8175   1.686   0.721   1.949  2.1711 -0.1887  2.4512
 2044SOL     MW 8176   1.620   0.676   1.986  0.4955  0.1742  0.1519
 2045SOL     OW 8177   1.167   3.887   5.257 -0.0902 -0.1060  0.4247
 2045SOL    HW1 8178   1.101   3.903   5.324  1.8918  0.5251  2.3534
 2045SOL    HW2 8179   1.150   3.952   5.189 -0.6087  0.9325  1.5325
 2045SOL     MW 8180   1.157   3.897   5.257  0.0972  0.1077  0.8134
 2046SOL     OW 8181   1.818   5.101   1.902 -0.6654  0.3555  0.4717
 2046SOL    HW1 8182   1.730   5.072   1.881 -0.8477 -0.4728  2.1607
 2046SOL    HW2 8183   1.821   5.099   1.998  1.7230 -1.3336  0.4461
 2046SOL     MW 8184   1.807   5.097   1.912 -0.3830  0.0333  0.6847
 2047SOL     OW 8185   2.599   0.318   0.715  0.0650  0.2670  0.1142
 2047SOL    HW1 8186   2.674   0.286   0.765  0.1139 -0.4565 -0.3979
 2047SOL    HW2 8187   2.586   0.252   0.647  0.0495  1.2576 -0.8733
 2047SOL     MW 8188   2.607   0.305   0.713  0.0693  0.3012 -0.0778
 2048SOL     OW 8189   4.701   1.924   3.333  0.0912  0.1718 -0.5391
 2048SOL    HW1 8190   4.694   1.862   3.405  0.4770 -1.8229 -2.1089
 2048SOL    HW2 8191   4.676   1.872   3.256 -2.8179  2.8414 -1.5816
 2048SOL     MW 8192   4.697   1.909   3.332 -0.2318  0.2582 -0.8735
 2049SOL     OW 8193   2.472   4.963   3.975 -0.2475 -0.0231 -0.2793
 2049SOL    HW1 8194   2.377   4.961   3.966 -0.1880  0.8420 -1.3924
 2049SOL    HW2 8195   2.487   5.018   4.052 -0.6490  0.1804 -0.3416
 2049SOL     MW 8196   2.462   4.970   3.984 -0.2913  0.1137 -0.4298
 2050SOL     OW 8197   2.436   4.034   2.442  0.3443  0.2343 -0.0659
 2050SOL    HW1 8198   2.408   3.962   2.499  0.2727  1.0512  0.9634
 2050SOL    HW2 8199   2.369   4.039   2.374 -0.5277  0.3828  0.7944
 2050SOL     MW 8200   2.424   4.025   2.440  0.2235  0.3579  0.1760
 2051SOL     OW 8201   3.260   4.235   2.188  0.7056 -0.7023  0.0908
 2051SOL    HW1 8202   3.249   4.323   2.225 -2.5741 -0.8159 -0.2744
 2051SOL    HW2 8203   3.195   4.182   2.234  1.3361 -2.5015 -0.9902
 2051SOL     MW 8204   3.250   4.239   2.199  0.3665 -0.9472 -0.0944
 2052SOL     OW 8205   1.003   1.774   1.363  0.0590 -0.4565 -0.0059
 2052SOL    HW1 8206   1.063   1.781   1.437  0.5884 -1.8052 -0.2816
 2052SOL    HW2 8207   1.055   1.801   1.287 -0.8779  2.3220  0.2128
 2052SOL     MW 8208   1.017   1.779   1.363  0.0068 -0.2735 -0.0132
 2053SOL     OW 8209   3.614   4.804   0.394 -0.1234 -0.6101  0.3544
 2053SOL    HW1 8210   3.671   4.848   0.331 -1.3383  1.9137  0.8819
 2053SOL    HW2 8211   3.535   4.858   0.396  0.4990  0.6019  5.2721
 2053SOL     MW 8212   3.611   4.816   0.386 -0.1993 -0.1318  1.0515
 2054SOL     OW 8213   3.184   4.420   0.626  0.2799  0.4723 -0.2042
 2054SOL    HW1 8214   3.175   4.327   0.609  0.8806  0.3631  0.0400
 2054SOL    HW2 8215   3.097   4.448   0.656  0.4366 -0.2891  1.0287
 2054SOL     MW 8216   3.172   4.412   0.628  0.3768  0.3609 -0.0151
 2055SOL     OW 8217   1.730   1.271   1.107 -0.6431 -0.6333 -0.5577
 2055SOL    HW1 8218   1.679   1.191   1.119  0.1513 -1.1768 -0.7539
 2055SOL    HW2 8219   1.776   1.258   1.023  0.5286 -0.5569  0.0517
 2055SOL     MW 8220   1.729   1.259   1.098 -0.3914 -0.6931 -0.5048
 2056SOL     OW 8221   1.516   0.763   3.760 -0.0352 -0.2908 -0.4297
 2056SOL    HW1 8222   1.547   0.747   3.849 -1.3072  0.2367  0.1409
 2056SOL    HW2 8223   1.487   0.855   3.761 -1.7517 -0.7808 -0.8308
 2056SOL     MW 8224   1.516   0.773   3.772 -0.4178 -0.2860 -0.4080
 2057SOL     OW 8225   1.398   2.176   4.893 -0.4663  0.0669  0.1688
 2057SOL    HW1 8226   1.460   2.153   4.962  1.3909 -1.0847 -1.7334
 2057SOL    HW2 8227   1.451   2.224   4.829 -1.8915  0.3214 -0.8683
 2057SOL     MW 8228   1.413   2.179   4.894 -0.4110 -0.0480 -0.2075
 2058SOL     OW 8229   2.377   4.433   2.080  0.7363 -0.7969 -0.3038
 2058SOL    HW1 8230   2.327   4.495   2.134 -0.5731 -1.8978 -0.2031
 2058SOL    HW2 8231   2.422   4.377   2.143  2.8741  0.6986 -0.3806
 2058SOL     MW 8232   2.376   4.434   2.095  0.8423 -0.7464 -0.3007
 2059SOL     OW 8233   0.489   3.759   4.932  0.4740 -0.3213 -0.7297
 2059SOL    HW1 8234   0.443   3.825   4.880  1.7428  1.0994 -0.1582
 2059SOL    HW2 8235   0.530   3.809   5.003  0.0977 -1.9843  0.7295
 2059SOL     MW 8236   0.488   3.774   4.934  0.5883 -0.3523 -0.4697
 2060SOL     OW 8237   2.222   0.447   1.452  0.1005 -0.3241 -0.2862
 2060SOL    HW1 8238   2.246   0.404   1.370 -0.1325  0.7221 -0.9218
 2060SOL    HW2 8239   2.272   0.529   1.452 -0.7475  0.2079  0.0673
 2060SOL     MW 8240   2.231   0.452   1.442 -0.0379 -0.1221 -0.3223
 2061SOL     OW 8241   4.432   2.922   2.851  0.1834  0.3623 -0.0947
 2061SOL    HW1 8242   4.391   2.998   2.809  2.1228  0.8617 -1.1997
 2061SOL    HW2 8243   4.388   2.916   2.937  0.8616  3.5730  0.6068
 2061SOL     MW 8244   4.421   2.931   2.857  0.5185  0.8373 -0.1463
 2062SOL     OW 8245   0.304   4.495   1.837 -0.2878 -0.1070 -0.0706
 2062SOL    HW1 8246   0.280   4.535   1.753  0.4072 -2.0725 -1.2762
 2062SOL    HW2 8247   0.253   4.414   1.840 -0.4081 -0.0021  1.5002
 2062SOL     MW 8248   0.294   4.490   1.826 -0.2142 -0.3451 -0.0238
 2063SOL     OW 8249   5.468   3.467   4.525 -0.1706  0.0910  0.0169
 2063SOL    HW1 8250   5.422   3.532   4.578  0.3664 -0.4260  1.1417
 2063SOL    HW2 8251   5.556   3.502   4.516  0.5320 -1.0928  1.8063
 2063SOL     MW 8252   5.473   3.480   4.531 -0.0119 -0.1267  0.3899
 2064SOL     OW 8253   3.795   3.252   3.459  0.6588 -0.0265  0.4811
 2064SOL    HW1 8254   3.714   3.220   3.498  0.5584 -0.1535  0.1712
 2064SOL    HW2 8255   3.820   3.184   3.397  0.5512  0.4006 -0.0351
 2064SOL     MW 8256   3.788   3.239   3.456  0.6322  0.0119  0.3754
 2065SOL     OW 8257   1.472   2.886   0.710  0.1193  0.3857 -0.0671
 2065SOL    HW1 8258   1.439   2.811   0.661 -0.2928  0.6078 -0.1366
 2065SOL    HW2 8259   1.399   2.913   0.766  0.1471  0.9343 -0.2814
 2065SOL     MW 8260   1.458   2.880   0.711  0.0701  0.4844 -0.1034
 2066SOL     OW 8261   0.747   3.951   5.062 -0.4171  0.1780  0.3693
 2066SOL    HW1 8262   0.756   3.997   4.979  3.4784  0.7521  0.8980
 2066SOL    HW2 8263   0.781   3.864   5.045 -0.8399 -0.1324  1.0688
 2066SOL     MW 8264   0.753   3.946   5.049  0.0275  0.2118  0.5266
 2067SOL     OW 8265   3.036   3.751   2.900 -0.1121  0.1457 -0.9643
 2067SOL    HW1 8266   3.027   3.815   2.971 -0.2939  2.1900 -2.7457
 2067SOL    HW2 8267   3.131   3.736   2.894 -0.1095 -0.2858 -0.1496
 2067SOL     MW 8268   3.047   3.757   2.909 -0.1351  0.3522 -1.0881
 2068SOL     OW 8269   1.051   3.687   1.096 -0.0173 -0.3659 -0.3077
 2068SOL    HW1 8270   1.019   3.688   1.186  0.9515 -0.8452  0.0672
 2068SOL    HW2 8271   1.053   3.779   1.069 -0.6355 -0.2492  0.0395
 2068SOL     MW 8272   1.047   3.699   1.104  0.0275 -0.4123 -0.2153
 2069SOL     OW 8273   0.789   0.340   0.775  0.6800  0.6814 -0.2409
 2069SOL    HW1 8274   0.818   0.330   0.866  2.7712 -0.8641 -0.9836
 2069SOL    HW2 8275   0.815   0.258   0.732 -1.2029  0.9356 -2.0195
 2069SOL     MW 8276   0.796   0.329   0.781  0.7067  0.5161 -0.5636
 2070SOL     OW 8277   4.324   0.181   3.745  0.0696  0.4044  0.5442
 2070SOL    HW1 8278   4.416   0.156   3.752  0.1641  0.2776 -0.8294
 2070SOL    HW2 8279   4.282   0.142   3.822  0.8333 -1.0838  0.2407
 2070SOL     MW 8280   4.330   0.173   3.756  0.1794  0.1977  0.3295
 2071SOL     OW 8281   4.369   3.544   5.270 -0.1351 -0.0704  0.2200
 2071SOL    HW1 8282   4.390   3.634   5.294 -1.6130  0.1033  1.0174
 2071SOL    HW2 8283   4.279   3.532   5.300  0.0403 -1.8255  0.1517
 2071SOL     MW 8284   4.360   3.554   5.277 -0.3018 -0.2729  0.3133
 2072SOL     OW 8285   4.440   4.215   2.894  0.0044  0.1748 -0.5370
 2072SOL    HW1 8286   4.485   4.187   2.973 -1.1635  0.6336  0.3115
 2072SOL    HW2 8287   4.466   4.150   2.828 -0.7032 -1.5026  0.7568
 2072SOL     MW 8288   4.449   4.203   2.895 -0.2357  0.0188 -0.2627
 2073SOL     OW 8289   4.476   0.225   4.313 -0.2050  0.8087  0.7148
 2073SOL    HW1 8290   4.507   0.161   4.249 -0.4921  0.5451  0.8360
 2073SOL    HW2 8291   4.519   0.307   4.288 -1.1468  0.9754 -0.4696
 2073SOL     MW 8292   4.486   0.227   4.302 -0.3623  0.7963  0.5787
 2074SOL     OW 8293   5.278   0.575   4.510 -0.1950 -0.6582  0.4630
 2074SOL    HW1 8294   5.295   0.482   4.527  1.1511 -0.2092  1.7898
 2074SOL    HW2 8295   5.363   0.610   4.484 -0.7625  0.1509 -0.3344
 2074SOL     MW 8296   5.291   0.567   4.509 -0.0953 -0.4972  0.5308
 2075SOL     OW 8297   4.360   2.024   3.660 -0.3354 -0.3737  0.7297
 2075SOL    HW1 8298   4.381   1.933   3.638 -0.2194 -0.1816  0.0094
 2075SOL    HW2 8299   4.278   2.019   3.708 -0.2829 -0.8686  0.7761
 2075SOL     MW 8300   4.353   2.012   3.663 -0.3138 -0.4125  0.6434
 2076SOL     OW 8301   2.232   0.748   4.853  0.5239  0.3730 -0.0588
 2076SOL    HW1 8302   2.186   0.664   4.844 -0.5496  1.0503 -1.1850
 2076SOL    HW2 8303   2.296   0.748   4.781  0.0974  0.7668 -0.4452
 2076SOL     MW 8304   2.234   0.737   4.842  0.3319  0.5101 -0.2524
 2077SOL     OW 8305   3.415   4.175   2.910  0.3904  0.2372 -0.1676
 2077SOL    HW1 8306   3.367   4.121   2.848  1.2990 -0.3882 -0.3444
 2077SOL    HW2 8307   3.370   4.260   2.907 -1.7331 -0.7778  0.9184
 2077SOL     MW 8308   3.403   4.179   2.901  0.2349  0.0272 -0.0512
 2078SOL     OW 8309   2.600   4.246   0.963  0.2857 -0.5245 -0.4934
 2078SOL    HW1 8310   2.581   4.217   1.052 -0.3739 -0.7125 -0.6929
 2078SOL    HW2 8311   2.534   4.312   0.944  1.5308  0.8858 -0.1893
 2078SOL     MW 8312   2.589   4.251   0.972  0.3606 -0.3680 -0.4800
 2079SOL     OW 8313   0.141   2.483   0.845  0.2983 -0.0940  0.1414
 2079SOL    HW1 8314   0.122   2.554   0.906  3.3807  1.0808 -0.1087
 2079SOL    HW2 8315   0.099   2.511   0.763 -1.3185 -0.2474  0.8676
 2079SOL     MW 8316   0.133   2.496   0.842  0.4859  0.0367  0.2023
 2080SOL     OW 8317   2.522   4.884   3.191  0.4071 -0.6403 -0.1581
 2080SOL    HW1 8318   2.587   4.822   3.224  0.5535 -0.3711  0.0641
 2080SOL    HW2 8319   2.494   4.933   3.268  0.3308 -0.3941 -0.3383
 2080SOL     MW 8320   2.527   4.882   3.205  0.4160 -0.5743 -0.1527
 2081SOL     OW 8321   3.879   2.134   5.365 -0.1015 -0.6728 -0.4235
 2081SOL    HW1 8322   3.886   2.070   5.436  0.5228 -0.5025 -0.3267
 2081SOL    HW2 8323   3.864   2.082   5.287 -1.4976 -0.8285 -0.0777
 2081SOL     MW 8324   3.878   2.119   5.364 -0.2003 -0.6709 -0.3669
 2082SOL     OW 8325   5.362   2.360   3.137 -0.1598 -0.0395  0.1621
 2082SOL    HW1 8326   5.297   2.293   3.119 -0.3151  0.0453  0.4009
 2082SOL    HW2 8327   5.342   2.390   3.226 -0.3511  0.6137 -0.0921
 2082SOL     MW 8328   5.351   2.355   3.146 -0.2042  0.0550  0.1602
 2083SOL     OW 8329   2.825   0.051   1.545 -0.4278 -0.1514 -0.0234
 2083SOL    HW1 8330   2.756   0.035   1.610 -0.5110  1.7116  0.4009
 2083SOL    HW2 8331   2.900   0.001   1.578 -1.1798 -1.1897  0.1792
 2083SOL     MW 8332   2.825   0.042   1.558 -0.5347 -0.0458  0.0568
 2084SOL     OW 8333   4.949   3.806   2.680  0.8076  0.6042 -0.2212
 2084SOL    HW1 8334   4.884   3.789   2.749 -0.1570 -0.5748 -1.3789
 2084SOL    HW2 8335   5.026   3.756   2.708  1.6685  2.7784  1.6621
 2084SOL     MW 8336   4.951   3.798   2.693  0.7943  0.7316 -0.1283
 2085SOL     OW 8337   1.796   2.504   0.760  0.3277 -0.1616  0.2841
 2085SOL    HW1 8338   1.849   2.575   0.797 -0.1150  0.1018  0.4239
 2085SOL    HW2 8339   1.845   2.424   0.780  1.0747  0.1393 -0.3114
 2085SOL     MW 8340   1.809   2.502   0.768  0.3666 -0.0893  0.2258
 2086SOL     OW 8341   4.999   0.248   2.663  0.7187  0.0985  0.2326
 2086SOL    HW1 8342   5.069   0.313   2.653  0.3015  0.7196  1.2542
 2086SOL    HW2 8343   5.041   0.164   2.642  1.6628  0.5115  0.4435
 2086SOL     MW 8344   5.014   0.246   2.659  0.7861  0.2309  0.3904
 2087SOL     OW 8345   4.665   3.409   3.719 -0.0146 -0.3422  0.2373
 2087SOL    HW1 8346   4.594   3.421   3.782  0.6333 -0.0570  0.9266
 2087SOL    HW2 8347   4.722   3.485   3.732  0.3927 -0.5409 -0.3422
 2087SOL     MW 8348   4.663   3.420   3.729  0.1205 -0.3312  0.2513
 2088SOL     OW 8349   5.325   5.091   3.165 -0.4896  0.1429  0.6116
 2088SOL    HW1 8350   5.395   5.088   3.099 -1.2949 -1.4472 -0.2446
 2088SOL    HW2 8351   5.319   5.001   3.196 -1.6807  0.4061  1.1862
 2088SOL     MW 8352   5.333   5.079   3.160 -0.7452 -0.0269  0.5755
 2089SOL     OW 8353   1.803   2.020  -0.023 -0.0710 -0.1656  0.1206
 2089SOL    HW1 8354   1.874   2.064   0.023  0.1204 -0.5762  0.2281
 2089SOL    HW2 8355   1.756   1.972   0.045 -1.8711  1.9143  0.4348
 2089SOL     MW 8356   1.806   2.019  -0.009 -0.2770  0.0481  0.1746
 2090SOL     OW 8357   5.102   5.303   4.919 -0.3340 -0.0343  0.0622
 2090SOL    HW1 8358   5.141   5.250   4.850  2.2999 -0.2951  1.6333
 2090SOL    HW2 8359   5.043   5.243   4.965  0.3682 -0.7796  0.0063
 2090SOL     MW 8360   5.099   5.289   4.916  0.0931 -0.1631  0.2562
 2091SOL     OW 8361   3.562   1.288   5.296 -0.2474  0.1586  0.1744
 2091SOL    HW1 8362   3.596   1.361   5.347 -2.2197  0.7663  0.7095
 2091SOL    HW2 8363   3.547   1.218   5.359  1.6392 -0.7756 -0.3379
 2091SOL     MW 8364   3.564   1.288   5.310 -0.2583  0.1168  0.1773
 2092SOL     OW 8365   0.724   1.113   3.600  0.2892  0.1495 -0.5267
 2092SOL    HW1 8366   0.682   1.153   3.525 -0.5764  0.2535 -0.0014
 2092SOL    HW2 8367   0.680   1.029   3.612 -0.0918  0.4483  0.2906
 2092SOL     MW 8368   0.713   1.107   3.592  0.1296  0.2011 -0.3549
 2093SOL     OW 8369   1.186   0.507   3.015  0.1656 -0.0441  0.4229
 2093SOL    HW1 8370   1.235   0.582   2.982 -0.9154  0.4603 -0.1071
 2093SOL    HW2 8371   1.165   0.529   3.105  0.7331 -0.1677  0.5845
 2093SOL     MW 8372   1.189   0.519   3.022  0.0998  0.0046  0.3758
 2094SOL     OW 8373   2.777   2.978   2.543  0.2121  0.1099 -0.0391
 2094SOL    HW1 8374   2.784   2.942   2.455 -0.8296  2.1597 -1.0151
 2094SOL    HW2 8375   2.708   3.043   2.537  0.7765  0.9807  2.0742
 2094SOL     MW 8376   2.769   2.981   2.531  0.1510  0.4838  0.1065
 2095SOL     OW 8377   0.923   1.607   1.719  0.1702 -0.2150 -0.1984
 2095SOL    HW1 8378   0.972   1.526   1.704  1.0650  0.1836  0.4484
 2095SOL    HW2 8379   0.927   1.620   1.814  0.5382  0.8742 -0.3487
 2095SOL     MW 8380   0.930   1.598   1.729  0.3318 -0.0245 -0.1348
 2096SOL     OW 8381   3.590   0.365   2.411  0.0513  1.1050 -0.2394
 2096SOL    HW1 8382   3.527   0.326   2.471  1.1891  0.5195  0.5964
 2096SOL    HW2 8383   3.553   0.348   2.324 -0.8062  0.5467  0.2170
 2096SOL     MW 8384   3.577   0.358   2.407  0.0872  0.9586 -0.0740
 2097SOL     OW 8385   1.860   0.542   3.325 -0.0055  0.6952  0.2746
 2097SOL    HW1 8386   1.881   0.466   3.271  0.3757  0.5008  0.6880
 2097SOL    HW2 8387   1.883   0.515   3.414  0.9233  1.5820  0.3219
 2097SOL     MW 8388   1.866   0.528   3.329  0.1622  0.7838  0.3336
 2098SOL     OW 8389   1.149   4.101   5.066  0.1470 -0.6609 -0.3330
 2098SOL    HW1 8390   1.056   4.110   5.047 -0.4501 -3.2498  0.9023
 2098SOL    HW2 8391   1.169   4.174   5.124 -1.0902 -0.0325 -0.6745
 2098SOL     MW 8392   1.140   4.111   5.071 -0.0878 -0.9118 -0.2186
 2099SOL     OW 8393   0.864   5.302   0.466  0.5533 -0.2767 -0.5199
 2099SOL    HW1 8394   0.877   5.336   0.555  0.9923 -1.3271 -0.1545
 2099SOL    HW2 8395   0.931   5.345   0.414  2.0502 -1.5919  0.2321
 2099SOL     MW 8396   0.874   5.312   0.471  0.8011 -0.5795 -0.3768
 2100SOL     OW 8397   2.031   0.237   4.484  0.1379  0.1913  0.4576
 2100SOL    HW1 8398   1.963   0.198   4.539  0.3357  2.3747  2.4021
 2100SOL    HW2 8399   2.054   0.168   4.422 -1.5687 -1.7047  1.8029
 2100SOL     MW 8400   2.026   0.223   4.483 -0.0552  0.2281  0.8787
 2101SOL     OW 8401   5.171   2.350   4.504  0.1049 -0.1736  0.3322
 2101SOL    HW1 8402   5.177   2.416   4.435 -1.1569  0.0178  0.3859
 2101SOL    HW2 8403   5.252   2.359   4.554  1.4815 -0.9083 -1.6257
 2101SOL     MW 8404   5.183   2.359   4.501  0.1196 -0.2432  0.0885
 2102SOL     OW 8405   4.788   0.735   5.251  0.0758  0.6982 -0.6749
 2102SOL    HW1 8406   4.715   0.710   5.193 -1.1241 -0.6191  1.3025
 2102SOL    HW2 8407   4.801   0.828   5.233 -1.9287  0.9167 -1.2975
 2102SOL     MW 8408   4.780   0.743   5.241 -0.3344  0.5575 -0.5015
 2103SOL     OW 8409   1.813   3.747   3.648 -0.0808  0.2176  0.3469
 2103SOL    HW1 8410   1.747   3.800   3.692  0.1864 -0.1090  1.1486
 2103SOL    HW2 8411   1.867   3.713   3.718  0.1547 -0.5800 -0.2121
 2103SOL     MW 8412   1.811   3.750   3.662 -0.0165  0.0737  0.3780
 2104SOL     OW 8413   4.517   4.159   3.165 -0.4142 -0.0340  0.4530
 2104SOL    HW1 8414   4.455   4.231   3.174  1.1888  1.6672 -1.1129
 2104SOL    HW2 8415   4.589   4.182   3.223  1.1802  0.9595 -1.7693
 2104SOL     MW 8416   4.518   4.171   3.174 -0.0049  0.3109 -0.0320
 2105SOL     OW 8417   3.982   1.124   3.108 -0.0127 -0.1541  0.3074
 2105SOL    HW1 8418   3.979   1.058   3.177  1.3090 -0.8291 -0.2502
 2105SOL    HW2 8419   4.059   1.101   3.056  0.5227  1.8575  0.1134
 2105SOL     MW 8420   3.991   1.113   3.110  0.2251  0.0170  0.2112
 2106SOL     OW 8421   3.106   2.568   3.819 -0.3364 -0.1770  1.0398
 2106SOL    HW1 8422   3.014   2.580   3.796 -0.0882  1.3117  0.7070
 2106SOL    HW2 8423   3.148   2.650   3.793  0.7577 -0.1158  2.8516
 2106SOL     MW 8424   3.100   2.580   3.812 -0.1645  0.0214  1.2291
 2107SOL     OW 8425   0.033   3.492   0.432  0.2768 -0.1315 -0.4905
 2107SOL    HW1 8426  -0.042   3.489   0.373  1.3620 -0.8625 -1.9049
 2107SOL    HW2 8427   0.042   3.403   0.466 -0.3361  0.2793  0.8383
 2107SOL     MW 8428   0.025   3.480   0.429  0.3372 -0.1725 -0.5015
 2108SOL     OW 8429   0.162   1.541   2.785 -0.0215  0.6511 -0.1633
 2108SOL    HW1 8430   0.134   1.510   2.871 -0.1558 -3.0324 -1.3778
 2108SOL    HW2 8431   0.092   1.514   2.725  0.3973  2.4919 -1.5792
 2108SOL     MW 8432   0.150   1.534   2.788  0.0149  0.4152 -0.5000
 2109SOL     OW 8433   0.766   5.483   0.100  0.5052 -0.3016 -0.1538
 2109SOL    HW1 8434   0.694   5.425   0.075 -1.0269  1.9390 -1.2586
 2109SOL    HW2 8435   0.811   5.503   0.018 -0.2039  1.5386 -0.1467
 2109SOL     MW 8436   0.763   5.478   0.086  0.2183  0.2208 -0.2943
 2110SOL     OW 8437   4.344   2.466   0.851 -0.5408 -0.3737 -0.4808
 2110SOL    HW1 8438   4.309   2.384   0.817 -0.8321 -0.1923 -0.6151
 2110SOL    HW2 8439   4.439   2.455   0.845 -0.5664 -0.8669 -0.1065
 2110SOL     MW 8440   4.352   2.454   0.846 -0.5814 -0.4136 -0.4500
 2111SOL     OW 8441   2.307   1.622   2.960 -0.1982 -0.3651 -0.3579
 2111SOL    HW1 8442   2.238   1.687   2.967  0.1202  0.3599 -2.8206
 2111SOL    HW2 8443   2.337   1.629   2.869  0.1731 -3.6317 -0.6085
 2111SOL     MW 8444   2.302   1.631   2.949 -0.1099 -0.6905 -0.7052
 2112SOL     OW 8445   1.060   5.246   3.105 -0.1155  0.0506  0.0119
 2112SOL    HW1 8446   1.017   5.327   3.077  0.7913  0.1556 -1.1257
 2112SOL    HW2 8447   0.987   5.185   3.119 -0.9677  1.4482  2.4753
 2112SOL     MW 8448   1.045   5.249   3.104 -0.1085  0.2430  0.1816
 2113SOL     OW 8449   4.460   3.209   1.768  0.6446  1.2696 -0.2599
 2113SOL    HW1 8450   4.381   3.259   1.787  0.3901  0.6709  0.2970
 2113SOL    HW2 8451   4.499   3.253   1.692 -1.1201  0.5899 -1.6228
 2113SOL     MW 8452   4.455   3.221   1.760  0.3861  1.1059 -0.3631
 2114SOL     OW 8453   0.121   0.735   1.721  0.0553  0.2640 -0.0134
 2114SOL    HW1 8454   0.110   0.777   1.636  1.6359 -0.6557 -0.7061
 2114SOL    HW2 8455   0.119   0.642   1.703 -0.4004  0.0462  1.0835
 2114SOL     MW 8456   0.119   0.729   1.708  0.1993  0.1184  0.0383
 2115SOL     OW 8457   3.014   5.175   0.708 -0.2993  0.5312 -0.2175
 2115SOL    HW1 8458   2.976   5.263   0.717 -0.7687  0.2163  1.2729
 2115SOL    HW2 8459   3.105   5.190   0.682 -0.9657  1.3576 -2.2612
 2115SOL     MW 8460   3.021   5.188   0.706 -0.4447  0.5967 -0.2883
 2116SOL     OW 8461   4.397   1.541   5.232  0.2642 -0.0308 -0.2813
 2116SOL    HW1 8462   4.411   1.514   5.141  2.4609 -1.3461  0.3585
 2116SOL    HW2 8463   4.484   1.563   5.264  0.1793 -3.0153  2.4785
 2116SOL     MW 8464   4.410   1.540   5.224  0.5345 -0.5812  0.1539
 2117SOL     OW 8465   2.158   2.857   5.335 -0.0127 -0.4952 -0.6453
 2117SOL    HW1 8466   2.190   2.861   5.245  0.4800 -2.0228 -0.5653
 2117SOL    HW2 8467   2.079   2.803   5.331 -1.6162  1.6881 -0.5432
 2117SOL     MW 8468   2.152   2.851   5.323 -0.1549 -0.4112 -0.6219
 2118SOL     OW 8469   2.467   4.902   5.097  0.0601  0.6215 -0.2526
 2118SOL    HW1 8470   2.536   4.870   5.039  0.4594  0.9675  0.0251
 2118SOL    HW2 8471   2.472   4.845   5.173  0.1174  0.7153 -0.1854
 2118SOL     MW 8472   2.477   4.891   5.099  0.1186  0.6778 -0.2085
 2119SOL     OW 8473   4.366   2.347   2.229  0.1909  0.5986 -0.3186
 2119SOL    HW1 8474   4.353   2.387   2.314  0.7385 -0.2408  0.1772
 2119SOL    HW2 8475   4.311   2.269   2.231  0.6145  0.2911 -0.5252
 2119SOL     MW 8476   4.357   2.342   2.240  0.3152  0.4518 -0.2816
 2120SOL     OW 8477   2.805   4.093   0.823  0.0945 -0.0994 -0.1300
 2120SOL    HW1 8478   2.745   4.039   0.771 -1.3961 -0.3770  1.7384
 2120SOL    HW2 8479   2.747   4.150   0.873  1.4193 -0.0012  1.3701
 2120SOL     MW 8480   2.790   4.093   0.823  0.0733 -0.1224  0.3012
 2121SOL     OW 8481   5.203   3.806   1.540 -0.0769  0.4186  0.0697
 2121SOL    HW1 8482   5.213   3.800   1.635  0.5372  2.1720  0.1505
 2121SOL    HW2 8483   5.131   3.746   1.519  1.1614 -1.6321  1.3431
 2121SOL     MW 8484   5.195   3.798   1.549  0.1602  0.3805  0.2431
 2122SOL     OW 8485   2.742   1.449   3.190  0.0137 -0.0800  0.1006
 2122SOL    HW1 8486   2.754   1.453   3.095  1.3813  0.8655  0.2737
 2122SOL    HW2 8487   2.740   1.541   3.218 -2.0149 -0.2957  0.8434
 2122SOL     MW 8488   2.744   1.462   3.181 -0.0709  0.0134  0.2179
 2123SOL     OW 8489   3.104   5.425   0.062 -0.4286 -0.2016 -0.5777
 2123SOL    HW1 8490   3.094   5.351   0.121 -1.1897  0.9761  0.8380
 2123SOL    HW2 8491   3.015   5.450   0.038 -0.1425 -1.0989 -2.8929
 2123SOL     MW 8492   3.092   5.419   0.066 -0.4894 -0.1657 -0.6928
 2124SOL     OW 8493   1.781   3.858   2.714  0.2455  0.1434 -0.0655
 2124SOL    HW1 8494   1.751   3.837   2.802 -1.5305  0.8063 -0.4797
 2124SOL    HW2 8495   1.735   3.796   2.657  0.9536  0.0782 -0.5832
 2124SOL     MW 8496   1.772   3.847   2.718  0.1088  0.2199 -0.1848
 2125SOL     OW 8497   2.510   3.913   0.359 -0.3521 -0.2470  0.2978
 2125SOL    HW1 8498   2.430   3.966   0.365  0.3779  0.8250  0.9420
 2125SOL    HW2 8499   2.581   3.977   0.361  0.5635 -1.2498  0.9388
 2125SOL     MW 8500   2.509   3.928   0.360 -0.1414 -0.2381  0.4623
 2126SOL     OW 8501   4.947   1.349   4.722  0.5354  0.2403 -0.2151
 2126SOL    HW1 8502   4.949   1.254   4.708 -3.4616 -0.1709  0.8265
 2126SOL    HW2 8503   4.955   1.386   4.634 -0.3514 -1.2019 -0.9503
 2126SOL     MW 8504   4.949   1.341   4.709 -0.0898  0.0030 -0.1759
 2127SOL     OW 8505   1.374   0.430   0.019 -0.3414 -0.2487 -0.5231
 2127SOL    HW1 8506   1.283   0.449  -0.003 -0.0860  0.1382 -1.2670
 2127SOL    HW2 8507   1.382   0.335   0.007 -0.2012 -0.0445 -2.1424
 2127SOL     MW 8508   1.363   0.420   0.015 -0.2908 -0.1731 -0.8256
 2128SOL     OW 8509   2.316   0.296   5.269 -0.5196 -0.1785 -0.3065
 2128SOL    HW1 8510   2.350   0.275   5.182  0.2450 -0.3098  0.0174
 2128SOL    HW2 8511   2.257   0.224   5.290 -1.3919  0.2929 -1.0736
 2128SOL     MW 8512   2.312   0.284   5.260 -0.5334 -0.1350 -0.3632
 2129SOL     OW 8513   2.844   3.114   5.360  0.1459 -0.2944 -0.4127
 2129SOL    HW1 8514   2.878   3.033   5.323 -0.0421 -0.9785  0.8693
 2129SOL    HW2 8515   2.894   3.183   5.316  0.2929 -1.0835 -1.5275
 2129SOL     MW 8516   2.855   3.113   5.349  0.1407 -0.4830 -0.3913
 2130SOL     OW 8517   3.404   4.060   0.599 -0.1100  0.3605  0.6187
 2130SOL    HW1 8518   3.449   4.058   0.684  0.9661 -2.1863  0.0760
 2130SOL    HW2 8519   3.455   4.121   0.546  0.5110  0.3117  1.1465
 2130SOL     MW 8520   3.416   4.068   0.603  0.1072  0.0282  0.6168
 2131SOL     OW 8521   4.782   2.019   5.120  1.0811  0.1384 -0.3950
 2131SOL    HW1 8522   4.729   1.997   5.197  1.4922  1.7820  0.3944
 2131SOL    HW2 8523   4.871   1.999   5.146  1.6474  3.5362  0.8097
 2131SOL     MW 8524   4.786   2.013   5.133  1.2062  0.7837 -0.1397
 2132SOL     OW 8525   4.332   1.771   1.068  0.5527 -0.2722  0.6064
 2132SOL    HW1 8526   4.401   1.714   1.036  0.9410  0.0293  0.9064
 2132SOL    HW2 8527   4.270   1.712   1.111  0.4629 -0.5785  0.0681
 2132SOL     MW 8528   4.333   1.756   1.069  0.5909 -0.2728  0.5759
 2133SOL     OW 8529   5.108   4.410   3.476  0.4723  0.3124 -0.0648
 2133SOL    HW1 8530   5.062   4.478   3.525 -0.7437 -0.6990  0.2203
 2133SOL    HW2 8531   5.123   4.449   3.390 -0.9853  0.6447 -0.1859
 2133SOL     MW 8532   5.104   4.424   3.471  0.1300  0.2255 -0.0438
 2134SOL     OW 8533   4.214   0.244   1.893 -0.1914 -0.3689 -0.4526
 2134SOL    HW1 8534   4.233   0.204   1.808 -0.3220 -0.1584 -0.5835
 2134SOL    HW2 8535   4.245   0.334   1.884 -0.0203 -0.4029 -0.2066
 2134SOL     MW 8536   4.221   0.250   1.881 -0.1863 -0.3463 -0.4379
 2135SOL     OW 8537   0.251   0.127   2.223  0.1124 -0.0661  0.0596
 2135SOL    HW1 8538   0.327   0.155   2.171  0.0920 -0.9632 -0.4877
 2135SOL    HW2 8539   0.200   0.072   2.163 -0.7597  0.1915  0.5485
 2135SOL     MW 8540   0.254   0.123   2.208 -0.0018 -0.1479  0.0521
 2136SOL     OW 8541   0.654   4.962   2.342  0.9574  0.1530 -0.0151
 2136SOL    HW1 8542   0.599   5.036   2.318 -1.7013 -0.7435  2.7116
 2136SOL    HW2 8543   0.623   4.890   2.287  1.2129  0.2286 -0.2650
 2136SOL     MW 8544   0.643   4.962   2.332  0.6498  0.0479  0.3020
 2137SOL     OW 8545   2.148   1.109   2.718 -0.0254 -0.3051  0.2439
 2137SOL    HW1 8546   2.174   1.167   2.790 -0.3204 -0.5064  0.5141
 2137SOL    HW2 8547   2.208   1.131   2.647 -0.1613  0.3677  0.3270
 2137SOL     MW 8548   2.159   1.119   2.718 -0.0805 -0.2447  0.2891
 2138SOL     OW 8549   3.954   4.774   3.649 -0.4712  0.2440  0.2501
 2138SOL    HW1 8550   4.015   4.715   3.692 -0.9136 -1.0969 -0.8591
 2138SOL    HW2 8551   4.009   4.841   3.609  0.1324  0.0012  0.6668
 2138SOL     MW 8552   3.969   4.775   3.649 -0.4506  0.0413  0.1614
 2139SOL     OW 8553   4.888   2.768   3.457  0.1421 -0.1844  0.0641
 2139SOL    HW1 8554   4.947   2.736   3.389  0.1271  2.0769 -1.1011
 2139SOL    HW2 8555   4.805   2.723   3.440  0.6332 -0.9914 -0.2603
 2139SOL     MW 8556   4.885   2.758   3.447  0.2030  0.0017 -0.1266
 2140SOL     OW 8557   4.661   5.099   5.321 -0.2316  0.5977 -0.2535
 2140SOL    HW1 8558   4.588   5.042   5.345  0.8894 -1.5040 -1.5090
 2140SOL    HW2 8559   4.647   5.117   5.228 -0.0534  1.6283 -0.0907
 2140SOL     MW 8560   4.649   5.094   5.312 -0.0652  0.4606 -0.3934
 2141SOL     OW 8561   3.938   1.409   0.915  0.0121 -0.6410  0.3073
 2141SOL    HW1 8562   3.871   1.477   0.908  0.5191 -0.2002 -0.4955
 2141SOL    HW2 8563   3.891   1.331   0.944 -0.8096 -0.2853 -0.0416
 2141SOL     MW 8564   3.923   1.408   0.918 -0.0282 -0.5391  0.1598
 2142SOL     OW 8565   3.380   2.506   3.681 -0.1447  0.1693  1.4778
 2142SOL    HW1 8566   3.464   2.539   3.649 -0.2545  0.1937  1.2128
 2142SOL    HW2 8567   3.376   2.416   3.649 -0.9013  0.6381  0.1618
 2142SOL     MW 8568   3.390   2.498   3.673 -0.2556  0.2324  1.2754
 2143SOL     OW 8569   0.022   5.505   2.048  0.1606 -0.2251  0.1885
 2143SOL    HW1 8570   0.014   5.457   1.966 -0.6736  1.4503 -0.7763
 2143SOL    HW2 8571   0.004   5.441   2.116 -2.1383 -1.0386 -1.0905
 2143SOL     MW 8572   0.019   5.491   2.046 -0.2405 -0.1148 -0.0987
 2144SOL     OW 8573   3.168   1.315   4.963  0.3487 -0.3058  0.3055
 2144SOL    HW1 8574   3.224   1.283   5.034 -0.2801 -2.1633  0.0393
 2144SOL    HW2 8575   3.230   1.340   4.894  0.9153 -1.0875  0.5019
 2144SOL     MW 8576   3.183   1.314   4.963  0.3408 -0.6436  0.2966
 2145SOL     OW 8577   1.988   1.327   4.495  0.5437  0.5669 -0.0504
 2145SOL    HW1 8578   1.977   1.420   4.515 -0.0099  0.3112  0.9261
 2145SOL    HW2 8579   2.027   1.289   4.574  1.4589  0.0885 -0.7131
 2145SOL     MW 8580   1.991   1.334   4.508  0.5900  0.4729 -0.0102
 2146SOL     OW 8581   2.928   5.377   2.892  0.5612  0.7156 -0.3878
 2146SOL    HW1 8582   3.016   5.361   2.859  0.9901  1.5305  0.3429
 2146SOL    HW2 8583   2.927   5.469   2.917 -0.8631  1.0367 -1.4583
 2146SOL     MW 8584   2.939   5.387   2.891  0.4338  0.8610 -0.4313
 2147SOL     OW 8585   4.761   2.586   0.796 -0.2045 -0.0396 -0.1058
 2147SOL    HW1 8586   4.711   2.544   0.727 -0.5598  0.9683 -0.4862
 2147SOL    HW2 8587   4.704   2.583   0.873 -1.2576  1.8056 -0.7309
 2147SOL     MW 8588   4.748   2.580   0.797 -0.3848  0.3257 -0.2345
 2148SOL     OW 8589   0.006   5.293   4.986 -0.0156 -0.5642 -0.0074
 2148SOL    HW1 8590  -0.059   5.364   4.983 -0.9178 -1.3667  0.1271
 2148SOL    HW2 8591   0.072   5.324   5.048  0.4622  0.8585 -1.1676
 2148SOL     MW 8592   0.006   5.306   4.993 -0.0699 -0.4848 -0.1387
 2149SOL     OW 8593   1.350   1.450   4.505  0.2160 -0.2659  0.5739
 2149SOL    HW1 8594   1.319   1.438   4.595  0.7858 -0.0936  0.7922
 2149SOL    HW2 8595   1.304   1.528   4.474  1.3760  0.7477  1.3313
 2149SOL     MW 8596   1.340   1.458   4.512  0.4375 -0.1141  0.6988
 2150SOL     OW 8597   0.537   3.316   1.185 -0.0511  0.2975  0.1451
 2150SOL    HW1 8598   0.449   3.354   1.184 -1.0789 -1.8831 -1.4286
 2150SOL    HW2 8599   0.539   3.265   1.266  0.2207  1.2490  0.7531
 2150SOL     MW 8600   0.526   3.314   1.195 -0.1479  0.1401  0.0215
 2151SOL     OW 8601   1.117   3.327   0.052 -0.0687 -0.3160 -0.6886
 2151SOL    HW1 8602   1.203   3.317   0.013  0.1937 -0.8807  0.0115
 2151SOL    HW2 8603   1.123   3.280   0.135 -0.7335  0.4886 -0.1661
 2151SOL     MW 8604   1.129   3.320   0.058 -0.1202 -0.2853 -0.5321
 2152SOL     OW 8605   0.580   2.959   4.681  0.1646  0.8189  0.4773
 2152SOL    HW1 8606   0.496   2.958   4.726  1.0645  1.1684  2.3092
 2152SOL    HW2 8607   0.585   2.874   4.636 -1.3675  1.0230 -0.1051
 2152SOL     MW 8608   0.570   2.948   4.681  0.0837  0.8898  0.6373
 2153SOL     OW 8609   4.831   0.902   3.103 -0.4528 -0.1011  0.4857
 2153SOL    HW1 8610   4.849   0.977   3.160  0.4573 -0.5727  0.8393
 2153SOL    HW2 8611   4.753   0.861   3.139 -0.5537  0.2771  0.6996
 2153SOL     MW 8612   4.823   0.907   3.115 -0.3492 -0.1131  0.5583
 2154SOL     OW 8613   1.375   5.043   1.127  0.4435 -0.1950  0.4094
 2154SOL    HW1 8614   1.291   5.081   1.105 -0.0554 -1.0522  0.7542
 2154SOL    HW2 8615   1.357   4.986   1.202  0.7442 -2.5062 -1.1457
 2154SOL     MW 8616   1.362   5.040   1.134  0.4181 -0.6006  0.2544
 2155SOL     OW 8617   3.109   0.811   1.613  0.4064  0.4131 -0.1168
 2155SOL    HW1 8618   3.114   0.727   1.659  0.6127  0.4796 -0.0151
 2155SOL    HW2 8619   3.187   0.859   1.642  0.3364  0.6051 -0.2422
 2155SOL     MW 8620   3.120   0.806   1.623  0.4239  0.4462 -0.1198
 2156SOL     OW 8621   5.052   3.424   4.492  0.0521  0.3268  0.2752
 2156SOL    HW1 8622   5.130   3.397   4.442  0.4540 -1.5850  1.8174
 2156SOL    HW2 8623   4.984   3.363   4.465 -0.0641  0.0678  1.1273
 2156SOL     MW 8624   5.053   3.413   4.482  0.0887  0.0489  0.5817
 2157SOL     OW 8625   1.379   0.528   1.293  0.1235  0.0581  0.6274
 2157SOL    HW1 8626   1.453   0.581   1.263 -0.4685  0.6421  0.1743
 2157SOL    HW2 8627   1.302   0.579   1.268 -0.4216 -0.2845  1.5816
 2157SOL     MW 8628   1.379   0.541   1.286 -0.0221  0.0890  0.6915
 2158SOL     OW 8629   4.722   3.095   2.235  0.1949  0.1259  0.0756
 2158SOL    HW1 8630   4.745   3.186   2.252 -0.8165  1.0127 -2.7821
 2158SOL    HW2 8631   4.670   3.098   2.155 -1.6242 -2.7633  0.9941
 2158SOL     MW 8632   4.718   3.107   2.227 -0.1674 -0.1304 -0.1727
 2159SOL     OW 8633   2.272   0.818   1.669 -0.2291  0.0462 -0.0040
 2159SOL    HW1 8634   2.252   0.763   1.744 -2.8491  0.7059 -0.0901
 2159SOL    HW2 8635   2.304   0.900   1.707 -1.5370  0.3775  0.4624
 2159SOL     MW 8636   2.273   0.822   1.683 -0.7319  0.1730  0.0447
 2160SOL     OW 8637   1.307   3.584   0.029  0.2266 -0.6819 -0.1824
 2160SOL    HW1 8638   1.273   3.578  -0.060 -2.9842 -0.8561  0.9375
 2160SOL    HW2 8639   1.278   3.670   0.060 -0.5606 -1.4472  1.3463
 2160SOL     MW 8640   1.299   3.595   0.022 -0.2852 -0.8022  0.1567
 2161SOL     OW 8641   1.036   0.317   5.154 -0.1037  0.4615 -0.0195
 2161SOL    HW1 8642   0.995   0.402   5.172 -1.9303 -0.8906  2.7864
 2161SOL    HW2 8643   1.019   0.302   5.061 -0.2900  2.8287 -0.4347
 2161SOL     MW 8644   1.029   0.326   5.144 -0.3614  0.5914  0.2865
 2162SOL     OW 8645   3.995   4.364   2.448  0.1042 -0.2272 -0.1345
 2162SOL    HW1 8646   3.929   4.420   2.407 -0.7020  0.3538  1.8172
 2162SOL    HW2 8647   3.950   4.323   2.522  1.7066 -0.4388  0.7838
 2162SOL     MW 8648   3.981   4.366   2.452  0.2061 -0.1799  0.2329
 2163SOL     OW 8649   3.301   2.231   5.141 -0.2304 -0.1866 -0.1133
 2163SOL    HW1 8650   3.383   2.181   5.141  0.1155  0.3649 -0.6379
 2163SOL    HW2 8651   3.328   2.320   5.163 -0.8843 -0.2717  1.1503
 2163SOL     MW 8652   3.315   2.236   5.144 -0.2698 -0.1269 -0.0187
 2164SOL     OW 8653   2.279   0.430   0.195  0.0075 -0.1800  0.4882
 2164SOL    HW1 8654   2.312   0.392   0.277 -1.8853 -2.4725  0.2739
 2164SOL    HW2 8655   2.338   0.396   0.128  0.3006 -0.0031  0.6503
 2164SOL     MW 8656   2.291   0.421   0.197 -0.1973 -0.4508  0.4816
 2165SOL     OW 8657   1.477   2.385   0.825  0.7381  0.0227 -0.2209
 2165SOL    HW1 8658   1.434   2.469   0.841  0.3920 -0.3511  0.9227
 2165SOL    HW2 8659   1.505   2.390   0.734  0.7570  1.3880 -0.1664
 2165SOL     MW 8660   1.475   2.396   0.816  0.6962  0.1496 -0.0676
 2166SOL     OW 8661   1.993   0.685   5.292  0.0519 -0.3798 -0.5191
 2166SOL    HW1 8662   2.050   0.731   5.231 -0.0043 -0.0199 -0.3067
 2166SOL    HW2 8663   2.006   0.731   5.375  0.4617 -1.1382 -0.1530
 2166SOL     MW 8664   2.002   0.697   5.295  0.0972 -0.4308 -0.4451
 2167SOL     OW 8665   4.054   2.027   3.490 -0.1373 -0.0302 -0.2018
 2167SOL    HW1 8666   4.085   1.987   3.409 -1.6112 -0.8171 -0.4167
 2167SOL    HW2 8667   4.021   2.113   3.464 -0.9039 -0.4105 -0.5083
 2167SOL     MW 8668   4.054   2.033   3.477 -0.4241 -0.1796 -0.2685
 2168SOL     OW 8669   5.413   0.099   3.529 -0.4715  0.6475  0.5434
 2168SOL    HW1 8670   5.399   0.193   3.521 -3.7412  0.6084  3.3394
 2168SOL    HW2 8671   5.496   0.091   3.575 -0.8249  2.3114  1.5701
 2168SOL     MW 8672   5.422   0.110   3.534 -0.9353  0.8555  1.0327
 2169SOL     OW 8673   1.634   2.351   0.298  0.0119  0.9989 -0.3842
 2169SOL    HW1 8674   1.707   2.358   0.359 -0.0052  1.1369 -0.3803
 2169SOL    HW2 8675   1.647   2.266   0.255 -0.7266  0.2522  0.7917
 2169SOL     MW 8676   1.645   2.341   0.300 -0.0848  0.9210 -0.2331
 2170SOL     OW 8677   4.976   1.009   1.357 -0.1685  0.5924  0.3989
 2170SOL    HW1 8678   4.894   1.052   1.332  0.6468  2.2440  0.4320
 2170SOL    HW2 8679   5.037   1.032   1.287 -0.0677 -1.8656 -0.4177
 2170SOL     MW 8680   4.973   1.017   1.345 -0.0513  0.4892  0.2986
 2171SOL     OW 8681   5.214   1.836   4.285  0.6829 -0.4671  0.2368
 2171SOL    HW1 8682   5.147   1.771   4.265  1.4041 -1.1844  0.1229
 2171SOL    HW2 8683   5.254   1.856   4.201  0.7512 -0.1873  0.3340
 2171SOL     MW 8684   5.210   1.830   4.272  0.7839 -0.5231  0.2347
 2172SOL     OW 8685   2.421   4.973   1.512 -0.2701 -0.1913 -0.0197
 2172SOL    HW1 8686   2.472   5.026   1.573 -1.0387  0.7736 -0.1971
 2172SOL    HW2 8687   2.335   5.015   1.510 -0.5839 -0.8482 -0.9496
 2172SOL     MW 8688   2.417   4.985   1.520 -0.4086 -0.1519 -0.1614
 2173SOL     OW 8689   5.283   3.056   4.161 -0.1226 -0.1469 -0.0740
 2173SOL    HW1 8690   5.308   3.063   4.253 -0.3735 -1.3303  0.0959
 2173SOL    HW2 8691   5.366   3.058   4.114  0.0685 -0.4574  0.2418
 2173SOL     MW 8692   5.297   3.057   4.167 -0.1303 -0.3381 -0.0118
 2174SOL     OW 8693   4.168   4.085   4.312 -0.1377 -0.1557  0.3279
 2174SOL    HW1 8694   4.093   4.059   4.364 -0.7288 -0.1707 -0.5210
 2174SOL    HW2 8695   4.242   4.080   4.373 -0.7701 -0.4118  1.0919
 2174SOL     MW 8696   4.168   4.081   4.327 -0.2943 -0.1904  0.3170
 2175SOL     OW 8697   1.044   4.815   0.053  0.0065 -0.1540  0.1967
 2175SOL    HW1 8698   1.123   4.852   0.013 -1.3255  1.5985 -0.9484
 2175SOL    HW2 8699   0.973   4.842  -0.005 -1.7665  0.6306  2.5907
 2175SOL     MW 8700   1.045   4.824   0.040 -0.3910  0.1708  0.3566
 2176SOL     OW 8701   1.565   1.470   3.037  0.9555  0.1037 -0.3132
 2176SOL    HW1 8702   1.643   1.506   3.079  1.0150 -0.9219  0.4995
 2176SOL    HW2 8703   1.505   1.451   3.109  0.2389  0.2159 -0.8717
 2176SOL     MW 8704   1.567   1.472   3.052  0.8714 -0.0132 -0.2807
 2177SOL     OW 8705   3.852   2.978   0.812  0.3349  0.5859 -0.1988
 2177SOL    HW1 8706   3.812   2.975   0.899  1.0237 -0.1209  0.1065
 2177SOL    HW2 8707   3.815   2.903   0.766  3.1451 -1.7401  0.9602
 2177SOL     MW 8708   3.842   2.968   0.817  0.7828  0.1976 -0.0113
 2178SOL     OW 8709   3.636   2.253   5.418 -0.3293  0.0685  0.3011
 2178SOL    HW1 8710   3.585   2.194   5.474 -0.2756 -0.1254  0.1480
 2178SOL    HW2 8711   3.726   2.222   5.427 -0.3603 -0.1412 -0.1132
 2178SOL     MW 8712   3.641   2.242   5.426 -0.3264  0.0169  0.2284
 2179SOL     OW 8713   1.303   0.616   3.658 -0.4027  0.6748 -0.2093
 2179SOL    HW1 8714   1.376   0.658   3.704  1.0636 -0.6662 -1.2197
 2179SOL    HW2 8715   1.328   0.617   3.566 -0.5745 -1.7681 -0.3616
 2179SOL     MW 8716   1.316   0.621   3.652 -0.2370  0.1904 -0.3581
 2180SOL     OW 8717   4.842   1.696   0.928  0.1097 -0.0640  0.2054
 2180SOL    HW1 8718   4.864   1.614   0.972  0.4668 -0.7969 -1.2623
 2180SOL    HW2 8719   4.829   1.671   0.836  0.1403  1.5140 -0.2597
 2180SOL     MW 8720   4.843   1.682   0.922  0.1593  0.0442 -0.0420
 2181SOL     OW 8721   4.466   1.299   0.428 -0.0962 -0.1699  0.1015
 2181SOL    HW1 8722   4.445   1.237   0.359  1.9229 -1.4506  0.5520
 2181SOL    HW2 8723   4.543   1.346   0.395 -1.7955  2.4832 -0.4042
 2181SOL     MW 8724   4.474   1.297   0.415 -0.0553  0.0058  0.0944
 2182SOL     OW 8725   2.503   3.406   5.001 -0.8951  0.5647  0.6643
 2182SOL    HW1 8726   2.565   3.472   5.032 -0.2213  0.6887 -0.8484
 2182SOL    HW2 8727   2.520   3.400   4.907 -0.8973 -1.8289  0.7558
 2182SOL     MW 8728   2.513   3.414   4.993 -0.8091  0.2741  0.4824
 2183SOL     OW 8729   0.599   4.538   4.287  0.4544 -0.1399 -0.0699
 2183SOL    HW1 8730   0.518   4.515   4.331  1.5595 -1.8466  1.1988
 2183SOL    HW2 8731   0.580   4.526   4.194 -0.8636 -0.0918  0.1801
 2183SOL     MW 8732   0.586   4.533   4.280  0.4271 -0.3522  0.1245
 2184SOL     OW 8733   4.757   0.908   4.943 -0.4943 -0.7755  0.5681
 2184SOL    HW1 8734   4.721   0.989   4.907  1.5522 -0.2497 -0.4372
 2184SOL    HW2 8735   4.791   0.862   4.867 -0.2843 -1.8889  1.3192
 2184SOL     MW 8736   4.757   0.913   4.929 -0.2055 -0.8507  0.5356
 2185SOL     OW 8737   3.727   2.210   4.322 -0.2339 -0.4205  0.7724
 2185SOL    HW1 8738   3.803   2.162   4.355 -0.5572 -0.2818  1.7666
 2185SOL    HW2 8739   3.732   2.202   4.227 -0.0011 -1.9935  0.8931
 2185SOL     MW 8740   3.737   2.203   4.314 -0.2455 -0.6041  0.9152
 2186SOL     OW 8741   4.565   0.480   4.208  0.1855  0.0463 -0.5226
 2186SOL    HW1 8742   4.610   0.556   4.172 -0.2905 -0.3665 -2.1108
 2186SOL    HW2 8743   4.509   0.450   4.136 -0.6316 -1.0106  0.5125
 2186SOL     MW 8744   4.563   0.486   4.194  0.0200 -0.1418 -0.5934
 2187SOL     OW 8745   3.277   0.322   5.102  0.5136 -0.4788 -0.0870
 2187SOL    HW1 8746   3.300   0.267   5.177  1.3516 -0.7310 -0.5187
 2187SOL    HW2 8747   3.254   0.260   5.033 -1.6564 -0.2384  0.3618
 2187SOL     MW 8748   3.277   0.307   5.103  0.3431 -0.4803 -0.0848
 2188SOL     OW 8749   3.029   3.851   1.674 -0.0925 -0.1160  0.0216
 2188SOL    HW1 8750   3.045   3.937   1.712  0.8329 -0.6881  1.0155
 2188SOL    HW2 8751   2.936   3.836   1.687 -0.4326  1.0580 -0.9095
 2188SOL     MW 8752   3.019   3.860   1.681 -0.0176 -0.0390  0.0296
 2189SOL     OW 8753   2.228   1.170   0.173  0.2668  0.7902 -0.2959
 2189SOL    HW1 8754   2.182   1.105   0.226  2.6484 -1.7859 -1.2082
 2189SOL    HW2 8755   2.218   1.139   0.083  2.6003  0.8381 -0.6317
 2189SOL     MW 8756   2.220   1.158   0.168  0.8704  0.4666 -0.4557
 2190SOL     OW 8757   2.722   3.104   4.510 -0.6364 -0.0229  0.4918
 2190SOL    HW1 8758   2.669   3.090   4.589  0.3816 -0.3132  1.1389
 2190SOL    HW2 8759   2.812   3.088   4.539 -0.2449 -0.0432 -0.7150
 2190SOL     MW 8760   2.726   3.100   4.524 -0.4559 -0.0626  0.4201
 2191SOL     OW 8761   0.853   4.813   3.116  0.2387 -0.7531  0.1582
 2191SOL    HW1 8762   0.888   4.876   3.179 -2.2643  1.0611 -0.1135
 2191SOL    HW2 8763   0.827   4.738   3.169 -0.3670  0.1032  1.1118
 2191SOL     MW 8764   0.854   4.811   3.131 -0.1592 -0.4112  0.2455
 2192SOL     OW 8765   3.429   4.080   4.399 -0.1687 -0.0509  0.3737
 2192SOL    HW1 8766   3.398   4.026   4.326 -0.2334 -0.8096  0.9518
 2192SOL    HW2 8767   3.349   4.116   4.438 -0.2139 -0.5209  0.7282
 2192SOL     MW 8768   3.415   4.078   4.395 -0.1827 -0.2082  0.4931
 2193SOL     OW 8769   2.324   1.023   5.165 -0.1705 -0.3006  0.0922
 2193SOL    HW1 8770   2.282   0.938   5.151 -0.8456 -0.0595  0.6022
 2193SOL    HW2 8771   2.413   1.001   5.192 -0.9050 -0.9290  2.2155
 2193SOL     MW 8772   2.330   1.009   5.166 -0.3510 -0.3502  0.4293
 2194SOL     OW 8773   0.968   5.192   1.201 -0.2304  0.2010  0.1845
 2194SOL    HW1 8774   0.888   5.181   1.150  0.0676  0.0004 -0.2430
 2194SOL    HW2 8775   1.024   5.246   1.145 -0.4573  1.2099  0.9127
 2194SOL     MW 8776   0.965   5.198   1.187 -0.2213  0.3045  0.2230
 2195SOL     OW 8777   3.848   4.388   3.666  0.2056 -0.0301 -0.8508
 2195SOL    HW1 8778   3.799   4.310   3.690 -0.4608  0.5474 -0.3100
 2195SOL    HW2 8779   3.855   4.439   3.747 -1.8101  1.7967 -1.7077
 2195SOL     MW 8780   3.843   4.385   3.679 -0.1377  0.2777 -0.8913
 2196SOL     OW 8781   1.141   3.010   2.675  0.2048 -0.4474  0.3787
 2196SOL    HW1 8782   1.128   3.058   2.594  0.8189 -1.8216 -0.5720
 2196SOL    HW2 8783   1.236   3.005   2.685  0.1402 -0.9512  0.7726
 2196SOL     MW 8784   1.151   3.015   2.666  0.2752 -0.6878  0.3074
 2197SOL     OW 8785   3.135   2.968   0.099  0.3553  0.1726  0.0984
 2197SOL    HW1 8786   3.124   3.058   0.068  1.8553  0.7059  1.0121
 2197SOL    HW2 8787   3.048   2.930   0.091 -0.0257  1.2743 -1.5928
 2197SOL     MW 8788   3.122   2.975   0.094  0.4985  0.3819 -0.0012
 2198SOL     OW 8789   4.748   1.090   1.606  0.6834 -0.0759  0.3737
 2198SOL    HW1 8790   4.775   1.103   1.515 -0.6773  3.6053  0.3456
 2198SOL    HW2 8791   4.818   1.036   1.644  2.1590 -0.2760 -2.3822
 2198SOL     MW 8792   4.760   1.085   1.599  0.6981  0.3697  0.0173
 2199SOL     OW 8793   3.882   2.491   3.073 -0.2473 -0.2726  0.8168
 2199SOL    HW1 8794   3.953   2.434   3.105 -0.6713 -0.6179  1.1498
 2199SOL    HW2 8795   3.819   2.430   3.035  0.1742  0.1164 -0.5586
 2199SOL     MW 8796   3.883   2.476   3.072 -0.2476 -0.2670  0.6834
 2200SOL     OW 8797   2.232   4.834   1.118  0.1122 -0.8325 -0.1651
 2200SOL    HW1 8798   2.176   4.779   1.174 -1.2711 -0.6525 -1.2970
 2200SOL    HW2 8799   2.173   4.864   1.049  1.2292  0.8074 -0.4454
 2200SOL     MW 8800   2.217   4.831   1.117  0.0781 -0.5995 -0.3459
 2201SOL     OW 8801   3.465   2.781   5.008  0.2014  0.3849  0.4536
 2201SOL    HW1 8802   3.380   2.785   4.963  0.0511  0.6155  0.7577
 2201SOL    HW2 8803   3.507   2.865   4.986  1.4803 -0.7516 -1.9024
 2201SOL     MW 8804   3.459   2.792   4.999  0.3459  0.2689  0.1910
 2202SOL     OW 8805   1.233   3.234   3.770  0.0602 -0.3251  0.2214
 2202SOL    HW1 8806   1.252   3.245   3.677 -3.1989 -1.8660 -0.7468
 2202SOL    HW2 8807   1.230   3.324   3.804  0.8210  0.2775 -1.2125
 2202SOL     MW 8808   1.235   3.247   3.763 -0.2596 -0.4453 -0.0861
 2203SOL     OW 8809   1.003   5.252   4.538 -0.8616 -0.5584  0.5430
 2203SOL    HW1 8810   1.079   5.195   4.527  0.3525  0.9683  0.6485
 2203SOL    HW2 8811   0.956   5.246   4.455  0.6104  0.1753 -0.3726
 2203SOL     MW 8812   1.007   5.244   4.526 -0.5177 -0.2691  0.4393
 2204SOL     OW 8813   0.538   2.469   3.000  0.5726  0.1508 -0.5973
 2204SOL    HW1 8814   0.465   2.446   3.058 -0.7597  1.2349 -1.7627
 2204SOL    HW2 8815   0.579   2.544   3.042 -0.8835  1.4436 -1.3751
 2204SOL     MW 8816   0.534   2.475   3.013  0.2157  0.4551 -0.8461
 2205SOL     OW 8817   4.050   4.988   3.490 -0.1089 -0.1123 -0.1137
 2205SOL    HW1 8818   3.960   5.001   3.461 -0.8217 -0.8794  1.6147
 2205SOL    HW2 8819   4.052   5.026   3.578  1.6227  1.0692 -0.6170
 2205SOL     MW 8820   4.039   4.995   3.498  0.0215 -0.0593  0.0431
 2206SOL     OW 8821   1.930   5.084   2.865 -0.0769 -0.1877 -0.4745
 2206SOL    HW1 8822   1.885   5.001   2.854 -0.6094  0.1980 -1.2954
 2206SOL    HW2 8823   1.902   5.115   2.951  1.7186 -1.7775  0.7896
 2206SOL     MW 8824   1.921   5.078   2.875  0.0848 -0.3419 -0.4177
 2207SOL     OW 8825   3.871   0.172   5.359 -0.4581 -0.4428 -0.0668
 2207SOL    HW1 8826   3.853   0.227   5.283 -0.2895 -0.1294  0.1155
 2207SOL    HW2 8827   3.966   0.165   5.362 -0.4525 -0.2434  0.2618
 2207SOL     MW 8828   3.881   0.178   5.350 -0.4358 -0.3772 -0.0014
 2208SOL     OW 8829   4.958   1.252   4.058  0.1101 -0.1630 -0.4487
 2208SOL    HW1 8830   4.888   1.238   3.993 -0.7619 -1.1279  0.6495
 2208SOL    HW2 8831   4.911   1.269   4.139  1.1914  0.9989 -0.0423
 2208SOL     MW 8832   4.943   1.252   4.060  0.1369 -0.1378 -0.2561
 2209SOL     OW 8833   1.442   0.565   0.834  0.3624 -0.7025 -0.2052
 2209SOL    HW1 8834   1.417   0.483   0.790 -0.0428 -0.5224 -0.3151
 2209SOL    HW2 8835   1.488   0.536   0.913 -0.0751 -1.0488 -0.0682
 2209SOL     MW 8836   1.445   0.551   0.839  0.2545 -0.7238 -0.2017
 2210SOL     OW 8837   3.664   1.233   3.125  0.8514 -0.7184  0.2687
 2210SOL    HW1 8838   3.594   1.184   3.170  0.4346  0.6759  1.1748
 2210SOL    HW2 8839   3.715   1.272   3.195 -0.6254  2.6379 -0.3548
 2210SOL     MW 8840   3.661   1.231   3.140  0.6090 -0.1103  0.3048
 2211SOL     OW 8841   0.228   2.259   5.300  0.2113 -0.0658  0.4326
 2211SOL    HW1 8842   0.290   2.331   5.309 -0.3798  0.6924 -1.0963
 2211SOL    HW2 8843   0.208   2.257   5.206 -2.0636 -0.2733  0.8653
 2211SOL     MW 8844   0.234   2.268   5.289 -0.1556  0.0047  0.2923
 2212SOL     OW 8845   2.536   3.185   2.822 -0.4685  0.3150 -0.0493
 2212SOL    HW1 8846   2.530   3.103   2.773 -0.1088 -0.4073  1.0634
 2212SOL    HW2 8847   2.626   3.214   2.809 -0.8613  1.0668 -1.2312
 2212SOL     MW 8848   2.546   3.178   2.814 -0.4727  0.3188 -0.0582
 2213SOL     OW 8849   5.158   4.926   2.904 -0.1511  0.8377 -0.2066
 2213SOL    HW1 8850   5.248   4.934   2.872 -0.0132 -0.5244 -0.2122
 2213SOL    HW2 8851   5.156   4.843   2.952 -0.5714  2.3454  2.6497
 2213SOL     MW 8852   5.169   4.917   2.906 -0.1872  0.8564  0.1583
 2214SOL     OW 8853   2.602   3.748   4.938  0.0996 -0.4221  0.0649
 2214SOL    HW1 8854   2.506   3.744   4.945 -0.0964  1.8783 -0.7864
 2214SOL    HW2 8855   2.621   3.705   4.855 -0.0796 -1.5381  0.5674
 2214SOL     MW 8856   2.592   3.742   4.928  0.0515 -0.2705  0.0203
 2215SOL     OW 8857   1.055   0.919   1.680  0.2371 -0.7410 -0.7244
 2215SOL    HW1 8858   0.984   0.983   1.687 -0.0036 -0.9461 -1.2098
 2215SOL    HW2 8859   1.109   0.952   1.608 -0.0927 -1.2783 -1.2196
 2215SOL     MW 8860   1.053   0.932   1.672  0.1640 -0.8360 -0.8499
 2216SOL     OW 8861   0.543   3.736   4.179 -0.2874 -0.1707 -0.3531
 2216SOL    HW1 8862   0.522   3.674   4.109 -0.4693  1.4026 -1.7669
 2216SOL    HW2 8863   0.596   3.803   4.136 -0.8749  1.1277  0.8772
 2216SOL     MW 8864   0.547   3.737   4.164 -0.3859  0.1969 -0.3766
 2217SOL     OW 8865   3.855   2.444   2.316 -0.1032 -0.1961 -0.1818
 2217SOL    HW1 8866   3.939   2.437   2.361 -0.7753 -0.1242  1.1504
 2217SOL    HW2 8867   3.805   2.507   2.369 -0.5113  0.8460 -1.7401
 2217SOL     MW 8868   3.859   2.451   2.329 -0.2414 -0.0535 -0.2107
 2218SOL     OW 8869   2.889   0.712   1.889 -0.5124  0.2409 -0.0315
 2218SOL    HW1 8870   2.882   0.640   1.951  1.3824  0.1107  0.0802
 2218SOL    HW2 8871   2.866   0.790   1.941 -1.4283 -0.1325  0.1442
 2218SOL     MW 8872   2.885   0.713   1.904 -0.3871  0.1764  0.0053
 2219SOL     OW 8873   0.539   3.183   2.650 -0.2441  0.6726  0.1114
 2219SOL    HW1 8874   0.551   3.103   2.701 -0.6968  0.5867  0.0884
 2219SOL    HW2 8875   0.578   3.164   2.565 -0.7826  0.3009 -0.0559
 2219SOL     MW 8876   0.546   3.170   2.646 -0.3710  0.6141  0.0870
 2220SOL     OW 8877   2.264   1.046   4.367  0.6964  0.2742 -0.2147
 2220SOL    HW1 8878   2.199   1.018   4.432  0.6483  0.5428 -0.1450
 2220SOL    HW2 8879   2.274   1.139   4.383  0.3765  0.4268 -0.8635
 2220SOL     MW 8880   2.257   1.054   4.377  0.6493  0.3281 -0.2889
 2221SOL     OW 8881   4.604   5.462   0.674 -0.0931 -0.2040  0.8475
 2221SOL    HW1 8882   4.640   5.393   0.618 -0.9122  1.1303 -1.4345
 2221SOL    HW2 8883   4.664   5.535   0.664 -1.0220  0.5369  0.5389
 2221SOL     MW 8884   4.616   5.462   0.665 -0.3169  0.0616  0.5159
 2222SOL     OW 8885   2.249   2.099   4.917  0.3235 -0.1150  0.3308
 2222SOL    HW1 8886   2.260   2.068   4.827 -2.7850 -1.5300  0.3246
 2222SOL    HW2 8887   2.243   2.194   4.909 -0.3091 -0.2472 -1.0188
 2222SOL     MW 8888   2.250   2.107   4.905 -0.1554 -0.3131  0.1572
 2223SOL     OW 8889   3.622   4.889   2.345 -0.0924 -0.4515 -0.4013
 2223SOL    HW1 8890   3.557   4.819   2.342  1.2245 -1.7826  0.6995
 2223SOL    HW2 8891   3.643   4.898   2.438 -0.9287  2.1298 -0.3948
 2223SOL     MW 8892   3.616   4.881   2.357 -0.0309 -0.2915 -0.2595
 2224SOL     OW 8893   3.568   5.487   1.768 -0.2999  0.0313  0.0864
 2224SOL    HW1 8894   3.503   5.452   1.707  0.9409 -1.9496 -0.1904
 2224SOL    HW2 8895   3.581   5.416   1.831  1.5656  0.3953  0.1431
 2224SOL     MW 8896   3.561   5.473   1.768  0.0978 -0.1757  0.0582
 2225SOL     OW 8897   4.478   1.825   5.135  0.1344  0.2959 -0.5366
 2225SOL    HW1 8898   4.514   1.769   5.066 -0.8867 -2.0996  0.7446
 2225SOL    HW2 8899   4.384   1.805   5.134 -0.2226  1.8388  0.1558
 2225SOL     MW 8900   4.470   1.815   5.126 -0.0420  0.1868 -0.2840
 2226SOL     OW 8901   4.919   2.179   1.229 -0.1148  0.4086  0.3332
 2226SOL    HW1 8902   4.938   2.227   1.148 -2.1713  1.0647  0.1766
 2226SOL    HW2 8903   5.002   2.176   1.276  1.1710 -0.0889 -1.8399
 2226SOL     MW 8904   4.932   2.184   1.224 -0.2135  0.4289  0.0350
 2227SOL     OW 8905   4.558   0.302   2.370  0.1335  0.0566  0.0169
 2227SOL    HW1 8906   4.570   0.396   2.387 -0.7832  0.1926 -0.0653
 2227SOL    HW2 8907   4.585   0.260   2.452  1.0415  0.3417 -0.1134
 2227SOL     MW 8908   4.563   0.309   2.383  0.1324  0.1105 -0.0103
 2228SOL     OW 8909   0.917   4.150   0.103 -0.2612 -0.1525 -0.2553
 2228SOL    HW1 8910   0.904   4.159   0.198  0.6756  0.8240 -0.1920
 2228SOL    HW2 8911   0.842   4.194   0.065 -0.7478 -0.7253  0.0324
 2228SOL     MW 8912   0.906   4.157   0.111 -0.2035 -0.1008 -0.2104
 2229SOL     OW 8913   3.146   4.782   1.894  0.1530  0.0582  0.0212
 2229SOL    HW1 8914   3.210   4.851   1.910  0.1833  0.2106 -0.6897
 2229SOL    HW2 8915   3.084   4.789   1.967  0.5000  0.4344  0.2848
 2229SOL     MW 8916   3.146   4.792   1.905  0.2013  0.1259 -0.0361
 2230SOL     OW 8917   4.700   2.310   1.101 -0.3744  0.0572  0.2999
 2230SOL    HW1 8918   4.633   2.263   1.052  0.8898 -1.1051 -0.4064
 2230SOL    HW2 8919   4.730   2.247   1.167 -0.6183  0.8863  1.2239
 2230SOL     MW 8920   4.695   2.296   1.104 -0.2438  0.0146  0.3278
 2231SOL     OW 8921   4.116   3.910   0.541 -0.5165 -0.1334 -0.4510
 2231SOL    HW1 8922   4.056   3.971   0.584 -1.2436 -1.3137  0.2642
 2231SOL    HW2 8923   4.189   3.965   0.513 -0.6668  0.9115  1.0674
 2231SOL     MW 8924   4.117   3.925   0.543 -0.6288 -0.1507 -0.1651
 2232SOL     OW 8925   4.391   2.278   2.813 -0.3153  0.1394 -0.0750
 2232SOL    HW1 8926   4.417   2.217   2.745 -0.9481 -0.5634  0.2889
 2232SOL    HW2 8927   4.472   2.301   2.858  0.4054  2.0518 -2.1731
 2232SOL     MW 8928   4.404   2.273   2.810 -0.3040  0.2942 -0.2970
 2233SOL     OW 8929   1.135   1.012   2.916 -0.6484 -0.5323  0.7306
 2233SOL    HW1 8930   1.058   0.976   2.871  0.0360 -1.2935  0.1526
 2233SOL    HW2 8931   1.203   0.946   2.905  0.1459  0.2010  1.1018
 2233SOL     MW 8932   1.134   0.999   2.909 -0.4591 -0.5358  0.7041
 2234SOL     OW 8933   2.522   0.485   3.533 -0.3114 -0.7122  0.0110
 2234SOL    HW1 8934   2.563   0.557   3.485  1.5530 -2.4729 -1.1620
 2234SOL    HW2 8935   2.495   0.423   3.466 -0.1948 -1.9676  1.0849
 2234SOL     MW 8936   2.524   0.487   3.518 -0.0578 -1.0983 -0.0017
 2235SOL     OW 8937   0.559   3.834   3.452  0.3272 -0.1360 -0.1898
 2235SOL    HW1 8938   0.579   3.926   3.472  0.1357  0.0344 -0.7569
 2235SOL    HW2 8939   0.499   3.838   3.377  0.8763 -0.7354 -0.6792
 2235SOL     MW 8940   0.554   3.846   3.445  0.3730 -0.1910 -0.3251
 2236SOL     OW 8941   0.750   1.137   0.988 -0.6931 -0.2906  0.4500
 2236SOL    HW1 8942   0.733   1.118   1.080 -0.2963  1.4445  0.9135
 2236SOL    HW2 8943   0.708   1.222   0.972 -0.7134 -0.5337 -0.9539
 2236SOL     MW 8944   0.743   1.146   0.998 -0.6449 -0.0996  0.3296
 2237SOL     OW 8945   0.612   5.017   5.023 -0.1414 -0.0507 -0.9039
 2237SOL    HW1 8946   0.690   5.064   4.994  0.1450 -1.0428 -1.8052
 2237SOL    HW2 8947   0.646   4.940   5.069 -0.5787  1.5775  2.4030
 2237SOL     MW 8948   0.626   5.013   5.025 -0.1607  0.0307 -0.5960
 2238SOL     OW 8949   3.034   1.905   1.670 -0.0894 -0.2215  0.3605
 2238SOL    HW1 8950   3.093   1.947   1.608  2.5826 -2.9268  0.8704
 2238SOL    HW2 8951   3.082   1.903   1.753 -2.0645 -0.0518  1.6029
 2238SOL     MW 8952   3.047   1.910   1.673 -0.0002 -0.5461  0.5848
 2239SOL     OW 8953   2.135   4.468   0.922 -0.0280  0.4275  0.1143
 2239SOL    HW1 8954   2.198   4.482   0.993 -0.8478  0.2819  0.8923
 2239SOL    HW2 8955   2.148   4.376   0.897  0.3078  0.4965  0.0322
 2239SOL     MW 8956   2.145   4.458   0.928 -0.0900  0.4177  0.2034
 2240SOL     OW 8957   2.078   1.310   1.728 -0.4078  0.1365  0.8430
 2240SOL    HW1 8958   2.000   1.256   1.743 -0.2088 -0.8104 -1.2705
 2240SOL    HW2 8959   2.087   1.314   1.633  1.2402  1.5526  1.0111
 2240SOL     MW 8960   2.069   1.304   1.718 -0.1713  0.1966  0.5940
 2241SOL     OW 8961   0.197   1.994   4.443 -0.6209  0.6387 -0.0061
 2241SOL    HW1 8962   0.217   2.071   4.389 -0.0726 -0.7571 -1.9173
 2241SOL    HW2 8963   0.103   1.979   4.430 -0.4483  0.1847 -0.7623
 2241SOL     MW 8964   0.188   2.002   4.434 -0.5286  0.4019 -0.3476
 2242SOL     OW 8965   2.975   2.615   2.303 -0.0154  0.1592 -0.3527
 2242SOL    HW1 8966   2.980   2.702   2.343  0.2685 -0.6092  1.3969
 2242SOL    HW2 8967   2.999   2.629   2.211 -0.7371  2.0282 -0.3012
 2242SOL     MW 8968   2.979   2.628   2.296 -0.0714  0.3001 -0.1221
 2243SOL     OW 8969   4.123   2.098   2.735  0.8241  0.0752  0.1007
 2243SOL    HW1 8970   4.099   2.011   2.765  1.0027 -0.6163 -1.6747
 2243SOL    HW2 8971   4.060   2.157   2.777 -0.5387 -1.1136 -0.2216
 2243SOL     MW 8972   4.112   2.095   2.744  0.6725 -0.1655 -0.1679
 2244SOL     OW 8973   3.435   2.671   2.275 -0.1490 -0.1801 -0.2982
 2244SOL    HW1 8974   3.482   2.605   2.223  0.1316 -0.8333  0.7575
 2244SOL    HW2 8975   3.428   2.632   2.362  2.2572  2.1819  1.1015
 2244SOL     MW 8976   3.440   2.658   2.279  0.1950  0.0387  0.0161
 2245SOL     OW 8977   1.529   4.392   3.775 -0.1169  0.6940 -0.0926
 2245SOL    HW1 8978   1.495   4.459   3.716 -0.9741 -0.9105 -1.4923
 2245SOL    HW2 8979   1.595   4.438   3.827 -0.8202  2.6673 -0.8320
 2245SOL     MW 8980   1.533   4.407   3.774 -0.3167  0.7412 -0.3665
 2246SOL     OW 8981   2.582   0.803   2.786  0.4847 -0.0663  0.3956
 2246SOL    HW1 8982   2.509   0.780   2.729  0.5258 -0.8310  0.6320
 2246SOL    HW2 8983   2.636   0.862   2.734  0.3433 -0.4846 -0.2360
 2246SOL     MW 8984   2.580   0.807   2.772  0.4719 -0.2178  0.3450
 2247SOL     OW 8985   2.266   0.102   4.102 -0.2046  0.1320 -0.0742
 2247SOL    HW1 8986   2.308   0.187   4.101  0.8464 -0.3698  0.0185
 2247SOL    HW2 8987   2.224   0.095   4.017  1.0903  0.0902 -0.7377
 2247SOL     MW 8988   2.266   0.112   4.091  0.0957  0.0624 -0.1473
 2248SOL     OW 8989   4.242   0.577   3.854 -0.2868  0.6868  0.8585
 2248SOL    HW1 8990   4.272   0.659   3.813 -1.1591  1.2164  1.2625
 2248SOL    HW2 8991   4.169   0.603   3.910 -0.6382 -0.3919  0.9204
 2248SOL     MW 8992   4.237   0.591   3.856 -0.4435  0.6165  0.9181
 2249SOL     OW 8993   5.470   0.232   1.684  0.4347  0.1516  0.7699
 2249SOL    HW1 8994   5.470   0.236   1.780  1.0813 -1.6068  0.8714
 2249SOL    HW2 8995   5.379   0.213   1.661 -0.1850  2.6431  0.8660
 2249SOL     MW 8996   5.458   0.230   1.693  0.4382  0.2455  0.7952
 2250SOL     OW 8997   4.816   3.313   0.891 -0.0233 -0.5016  0.0141
 2250SOL    HW1 8998   4.891   3.314   0.831  0.5670 -2.2446  0.6629
 2250SOL    HW2 8999   4.779   3.401   0.885  1.1403 -0.0801 -1.4936
 2250SOL     MW 9000   4.821   3.324   0.883  0.2012 -0.6708 -0.0959
 2251SOL     OW 9001   1.031   2.998   4.153  0.0435 -0.0349  0.0709
 2251SOL    HW1 9002   1.053   2.909   4.183 -0.8277  0.4382  2.3547
 2251SOL    HW2 9003   1.115   3.044   4.151  0.4988 -0.8752 -1.1130
 2251SOL     MW 9004   1.044   2.992   4.157 -0.0097 -0.0819  0.2117
 2252SOL     OW 9005   2.106   2.320   2.426  0.0734  0.1490  0.1255
 2252SOL    HW1 9006   2.083   2.265   2.501  2.0461 -2.1209 -0.7892
 2252SOL    HW2 9007   2.027   2.324   2.373 -0.2079 -1.6661  0.3621
 2252SOL     MW 9008   2.093   2.313   2.429  0.2899 -0.3739  0.0387
 2253SOL     OW 9009   1.866   0.241   4.690  0.6813 -0.1237  0.0327
 2253SOL    HW1 9010   1.821   0.324   4.669  1.8109  0.0847 -1.7486
 2253SOL    HW2 9011   1.946   0.268   4.735 -0.0698 -0.4052  1.5945
 2253SOL     MW 9012   1.870   0.255   4.693  0.7297 -0.1330  0.0046
 2254SOL     OW 9013   0.835   2.722   5.296  0.0497 -0.0525  0.2549
 2254SOL    HW1 9014   0.919   2.699   5.335  0.4206  0.4022 -0.2502
 2254SOL    HW2 9015   0.847   2.812   5.266 -1.2632  0.7289  1.9349
 2254SOL     MW 9016   0.847   2.731   5.297 -0.0709  0.1057  0.4053
 2255SOL     OW 9017   3.083   5.005   1.400  0.2589 -0.4109 -0.8353
 2255SOL    HW1 9018   3.093   4.919   1.442  0.5702  0.3886  0.7651
 2255SOL    HW2 9019   3.015   4.991   1.334 -0.5087 -1.6029  0.1722
 2255SOL     MW 9020   3.076   4.992   1.397  0.2005 -0.4612 -0.5015
 2256SOL     OW 9021   1.218   3.319   4.378 -0.4109 -0.1349 -0.0593
 2256SOL    HW1 9022   1.254   3.376   4.309  0.8417  0.4663  1.0620
 2256SOL    HW2 9023   1.193   3.239   4.332  1.2682 -0.1181 -1.0974
 2256SOL     MW 9024   1.219   3.316   4.363 -0.0356 -0.0558 -0.0486
 2257SOL     OW 9025   0.826   0.846   3.888 -0.3638 -0.3170 -0.0188
 2257SOL    HW1 9026   0.866   0.805   3.811  0.5040  1.4821 -0.5798
 2257SOL    HW2 9027   0.746   0.795   3.904 -1.7889  0.5372 -3.4766
 2257SOL     MW 9028   0.821   0.834   3.880 -0.4351  0.0227 -0.5332
 2258SOL     OW 9029   3.098   2.518   2.797  0.1954  0.0381  0.5095
 2258SOL    HW1 9030   3.129   2.507   2.707 -0.1411  0.3247  0.3572
 2258SOL    HW2 9031   3.137   2.600   2.827 -1.2617  0.9636 -0.0527
 2258SOL     MW 9032   3.107   2.527   2.790 -0.0342  0.1933  0.4181
 2259SOL     OW 9033   4.792   4.186   2.992  0.0313 -0.6097 -0.1962
 2259SOL    HW1 9034   4.865   4.153   2.939 -0.0339  0.1265 -0.7685
 2259SOL    HW2 9035   4.714   4.158   2.945 -0.0377 -0.6121 -0.0776
 2259SOL     MW 9036   4.792   4.178   2.979  0.0141 -0.5157 -0.2543
 2260SOL     OW 9037   3.293   0.167   1.686  0.1413 -0.1383 -0.6319
 2260SOL    HW1 9038   3.230   0.238   1.694  0.8807  0.3682  1.5447
 2260SOL    HW2 9039   3.372   0.207   1.650  0.5575  0.2158  0.5938
 2260SOL     MW 9040   3.295   0.181   1.683  0.2893 -0.0281 -0.1964
 2261SOL     OW 9041   2.499   2.430   3.760  0.1631 -0.0198 -0.1175
 2261SOL    HW1 9042   2.472   2.521   3.748  1.8629  0.5025 -0.3311
 2261SOL    HW2 9043   2.467   2.407   3.847 -0.0758  0.8709  0.0410
 2261SOL     MW 9044   2.492   2.439   3.770  0.3501  0.1611 -0.1245
 2262SOL     OW 9045   0.541   0.189   3.275  0.1012  0.2571 -0.0754
 2262SOL    HW1 9046   0.557   0.133   3.350 -2.1321 -0.5967 -0.1677
 2262SOL    HW2 9047   0.609   0.257   3.281  1.5895 -1.2366  1.1974
 2262SOL     MW 9048   0.552   0.191   3.285  0.0058 -0.0434  0.0757
 2263SOL     OW 9049   3.095   2.067   1.037  0.0278 -0.0100 -0.1152
 2263SOL    HW1 9050   3.057   2.152   1.059  0.1301  0.2170 -0.8121
 2263SOL    HW2 9051   3.071   2.051   0.946 -3.2594 -2.4953  0.9949
 2263SOL     MW 9052   3.087   2.075   1.028 -0.3799 -0.2991 -0.0623
 2264SOL     OW 9053   1.183   4.410   2.581 -0.1332 -0.0442 -0.7769
 2264SOL    HW1 9054   1.108   4.468   2.565 -1.0034 -0.7474  0.5001
 2264SOL    HW2 9055   1.146   4.322   2.579  0.3466 -0.3432  1.2720
 2264SOL     MW 9056   1.169   4.406   2.579 -0.1832 -0.1725 -0.3511
 2265SOL     OW 9057   4.811   5.413   4.351  0.2608  0.1452 -0.1009
 2265SOL    HW1 9058   4.763   5.386   4.273  1.1321 -1.3037 -0.1627
 2265SOL    HW2 9059   4.829   5.506   4.338  0.2205 -0.0353 -1.5203
 2265SOL     MW 9060   4.807   5.421   4.340  0.3671 -0.0634 -0.2905
 2266SOL     OW 9061   0.113   3.438   2.100 -0.4442 -0.3908  0.2429
 2266SOL    HW1 9062   0.196   3.485   2.090 -0.4777 -0.3032  0.3870
 2266SOL    HW2 9063   0.053   3.501   2.138 -0.3107 -0.7273  1.0381
 2266SOL     MW 9064   0.116   3.452   2.104 -0.4314 -0.4227  0.3631
 2267SOL     OW 9065   3.320   2.676   2.942  0.6776  0.4408  0.5760
 2267SOL    HW1 9066   3.303   2.767   2.916 -1.1891  0.2202  0.8695
 2267SOL    HW2 9067   3.345   2.682   3.034  2.7503  0.8116  0.0397
 2267SOL     MW 9068   3.321   2.689   2.950  0.7040  0.4600  0.5449
 2268SOL     OW 9069   4.580   1.782   4.214  0.3690 -0.1853 -0.0575
 2268SOL    HW1 9070   4.567   1.784   4.308 -1.6291  0.2413 -0.3022
 2268SOL    HW2 9071   4.539   1.863   4.182  3.3775  1.1093 -1.0765
 2268SOL     MW 9072   4.573   1.793   4.222  0.4984  0.0350 -0.2193
 2269SOL     OW 9073   5.233   2.374   2.697  0.4779  0.3990  0.1853
 2269SOL    HW1 9074   5.267   2.297   2.741 -1.2495 -0.7880 -0.4397
 2269SOL    HW2 9075   5.141   2.379   2.724  0.2153  1.4593 -0.8144
 2269SOL     MW 9076   5.226   2.365   2.706  0.2231  0.3827 -0.0227
 2270SOL     OW 9077   3.741   0.171   1.511  0.0887  0.7336 -0.0826
 2270SOL    HW1 9078   3.663   0.118   1.494  0.1327  0.9433 -0.9506
 2270SOL    HW2 9079   3.810   0.107   1.529 -0.5424  0.5519  2.0260
 2270SOL     MW 9080   3.740   0.156   1.511  0.0135  0.7372  0.0762
 2271SOL     OW 9081   2.311   4.203   5.455  0.0781  0.1376 -0.4154
 2271SOL    HW1 9082   2.285   4.230   5.542 -0.9717 -2.6965  0.2791
 2271SOL    HW2 9083   2.234   4.220   5.400 -0.6289 -1.3889  0.0465
 2271SOL     MW 9084   2.298   4.208   5.459 -0.1468 -0.4206 -0.2674
 2272SOL     OW 9085   3.912   2.197   3.106 -0.5630  0.4599  0.1326
 2272SOL    HW1 9086   3.938   2.208   3.198  0.6922 -0.4909 -0.0796
 2272SOL    HW2 9087   3.900   2.102   3.096 -0.5884  0.5472 -0.7057
 2272SOL     MW 9088   3.914   2.186   3.117 -0.4056  0.3493 -0.0019
 2273SOL     OW 9089   4.305   5.406   2.278  0.4690 -0.8374  0.1013
 2273SOL    HW1 9090   4.215   5.413   2.248  0.3707 -1.6588  0.1853
 2273SOL    HW2 9091   4.344   5.492   2.259 -0.8211  0.1877  1.7418
 2273SOL     MW 9092   4.299   5.418   2.272  0.2913 -0.8113  0.3220
 2274SOL     OW 9093   0.219   4.766   3.804  0.5153 -0.0506  0.0151
 2274SOL    HW1 9094   0.307   4.797   3.824  1.3082 -2.0068 -0.2478
 2274SOL    HW2 9095   0.171   4.775   3.886  1.2406  0.1132  0.4291
 2274SOL     MW 9096   0.224   4.771   3.817  0.7096 -0.2801  0.0345
 2275SOL     OW 9097   1.066   2.049   0.316 -0.7617  0.1659 -0.0652
 2275SOL    HW1 9098   1.056   1.964   0.358  0.1971 -0.7433 -1.5710
 2275SOL    HW2 9099   1.003   2.048   0.244  0.5751 -0.1098 -1.2813
 2275SOL     MW 9100   1.057   2.038   0.312 -0.4678  0.0142 -0.4136
 2276SOL     OW 9101   3.452   5.421   3.523 -0.4524  0.1175  0.3992
 2276SOL    HW1 9102   3.486   5.356   3.585  0.3334  0.0058 -0.1285
 2276SOL    HW2 9103   3.376   5.459   3.567 -0.2437 -0.3590  1.1898
 2276SOL     MW 9104   3.447   5.417   3.537 -0.3251  0.0422  0.4329
 2277SOL     OW 9105   2.305   0.795   0.235 -0.1074 -0.1842  0.4179
 2277SOL    HW1 9106   2.270   0.820   0.320  0.4114  1.6196  0.1539
 2277SOL    HW2 9107   2.332   0.704   0.245 -1.7169 -0.5596  1.6105
 2277SOL     MW 9108   2.304   0.787   0.247 -0.2471 -0.0013  0.5368
 2278SOL     OW 9109   3.966   2.383   1.276 -0.1099 -0.3512 -0.9086
 2278SOL    HW1 9110   3.907   2.318   1.315  0.4665  0.8926  2.2985
 2278SOL    HW2 9111   4.052   2.341   1.276  0.0635 -0.0153  0.1327
 2278SOL     MW 9112   3.969   2.369   1.281 -0.0139 -0.1490 -0.3648
 2279SOL     OW 9113   4.822   3.092   1.052 -0.4999  0.5191 -0.1731
 2279SOL    HW1 9114   4.912   3.116   1.073  1.3156 -3.2328 -2.4508
 2279SOL    HW2 9115   4.803   3.140   0.971  2.0010 -2.9542 -3.1248
 2279SOL     MW 9116   4.831   3.101   1.044  0.0526 -0.4058 -0.8426
 2280SOL     OW 9117   3.069   2.506   4.073  0.0085 -0.0561  0.5901
 2280SOL    HW1 9118   3.159   2.520   4.103  0.9115 -2.1948 -0.7978
 2280SOL    HW2 9119   3.075   2.514   3.978 -1.6422  1.3848  0.5823
 2280SOL     MW 9120   3.081   2.509   4.065 -0.0872 -0.1454  0.4114
 2281SOL     OW 9121   4.083   4.310   5.492  0.1170 -0.0600 -0.4028
 2281SOL    HW1 9122   4.022   4.367   5.445 -0.7385 -1.1738 -0.6926
 2281SOL    HW2 9123   4.165   4.359   5.494  0.3984 -0.1830 -3.6818
 2281SOL     MW 9124   4.086   4.324   5.486  0.0435 -0.2184 -0.8596
 2282SOL     OW 9125   0.215   4.715   2.278  0.0897  0.2446  0.4599
 2282SOL    HW1 9126   0.216   4.781   2.347  1.3526  0.6559  0.0706
 2282SOL    HW2 9127   0.231   4.764   2.197 -3.8070  0.1444 -0.5546
 2282SOL     MW 9128   0.217   4.730   2.277 -0.2475  0.2845  0.2802
 2283SOL     OW 9129   4.143   2.074   1.691  0.4777  0.3683  0.0158
 2283SOL    HW1 9130   4.162   2.129   1.767 -0.3747 -0.6462  1.0039
 2283SOL    HW2 9131   4.201   2.107   1.623  0.5829  1.9330  0.8120
 2283SOL     MW 9132   4.153   2.085   1.692  0.3821  0.4388  0.2442
 2284SOL     OW 9133   5.202   2.574   4.775 -0.0480  0.2910  0.1454
 2284SOL    HW1 9134   5.223   2.665   4.755 -2.0878  0.5490 -1.0725
 2284SOL    HW2 9135   5.281   2.526   4.750  0.6224  1.5818 -0.3388
 2284SOL     MW 9136   5.215   2.580   4.769 -0.2233  0.4892 -0.0725
 2285SOL     OW 9137   5.085   1.378   1.618  0.1074  0.7063  0.0847
 2285SOL    HW1 9138   5.029   1.353   1.690 -1.4097  0.0318 -1.2623
 2285SOL    HW2 9139   5.172   1.390   1.657 -0.6525  0.3169  1.9668
 2285SOL     MW 9140   5.089   1.377   1.632 -0.1841  0.5701  0.1532
 2286SOL     OW 9141   4.953   3.506   2.845 -0.2001 -0.4377  0.0057
 2286SOL    HW1 9142   4.889   3.478   2.781 -0.4168  0.4649 -0.1895
 2286SOL    HW2 9143   4.903   3.557   2.909  0.1456 -0.6366  0.4393
 2286SOL     MW 9144   4.939   3.509   2.845 -0.1836 -0.3476  0.0362
 2287SOL     OW 9145   1.329   0.152   4.795  0.2829  0.0294  0.0783
 2287SOL    HW1 9146   1.303   0.142   4.887  1.4139  0.2025  0.4364
 2287SOL    HW2 9147   1.357   0.064   4.769  1.6685  0.3262  0.4701
 2287SOL     MW 9148   1.329   0.139   4.804  0.6050  0.0896  0.1743
 2288SOL     OW 9149   1.007   3.849   3.131  0.5343  0.0902  0.0007
 2288SOL    HW1 9150   1.066   3.774   3.140 -0.9832 -0.9372  3.2437
 2288SOL    HW2 9151   1.044   3.915   3.190 -0.1232  0.4254  0.0459
 2288SOL     MW 9152   1.019   3.848   3.140  0.2559  0.0016  0.4216
 2289SOL     OW 9153   5.000   0.442   4.258  0.1628  0.5053 -0.1013
 2289SOL    HW1 9154   5.052   0.442   4.178  1.0207  1.5651  0.4385
 2289SOL    HW2 9155   4.987   0.534   4.279  1.6989  0.3037  2.0605
 2289SOL     MW 9156   5.005   0.454   4.250  0.4693  0.6151  0.2446
 2290SOL     OW 9157   0.057   0.991   3.957 -0.2498  0.7048 -0.2973
 2290SOL    HW1 9158   0.112   0.964   3.883  0.2912 -1.0752  0.6970
 2290SOL    HW2 9159  -0.032   0.985   3.924 -0.0707 -0.9977 -0.5624
 2290SOL     MW 9160   0.053   0.987   3.943 -0.1576  0.2590 -0.2040
 2291SOL     OW 9161   2.204   1.266   1.059 -0.3669  0.1060 -0.6919
 2291SOL    HW1 9162   2.171   1.344   1.103 -0.8686 -1.0178  1.0328
 2291SOL    HW2 9163   2.149   1.195   1.092  0.4251 -1.0622 -1.7944
 2291SOL     MW 9164   2.193   1.267   1.068 -0.3297 -0.1874 -0.6122
 2292SOL     OW 9165   3.356   3.515   1.192  0.1296  0.4668 -0.4879
 2292SOL    HW1 9166   3.397   3.467   1.120  1.6259 -0.2689  0.7891
 2292SOL    HW2 9167   3.407   3.595   1.199  2.4906 -1.0778  2.0262
 2292SOL     MW 9168   3.368   3.519   1.184  0.6234  0.1749 -0.0026
 2293SOL     OW 9169   3.780   4.405   1.508 -0.8538  0.4166  0.3630
 2293SOL    HW1 9170   3.779   4.427   1.415 -0.1137  0.4242  0.3499
 2293SOL    HW2 9171   3.808   4.485   1.552 -2.1820  0.7138  0.6879
 2293SOL     MW 9172   3.784   4.418   1.502 -0.9291  0.4556  0.4029
 2294SOL     OW 9173   0.314   1.199   0.830 -0.0727 -0.3011 -0.5402
 2294SOL    HW1 9174   0.378   1.180   0.761  1.0461  0.6922  0.1873
 2294SOL    HW2 9175   0.252   1.126   0.825  1.5441 -1.7495 -0.7635
 2294SOL     MW 9176   0.315   1.187   0.821  0.2775 -0.3594 -0.4757
 2295SOL     OW 9177   1.696   1.354   2.261  0.1851  0.2913  0.2190
 2295SOL    HW1 9178   1.669   1.418   2.195  1.3134 -0.1323 -0.6801
 2295SOL    HW2 9179   1.769   1.307   2.221  0.2593 -0.6462  1.3953
 2295SOL     MW 9180   1.702   1.356   2.248  0.3390  0.1171  0.2545
 2296SOL     OW 9181   3.723   2.040   4.794  0.1159 -0.4867 -0.5928
 2296SOL    HW1 9182   3.728   2.072   4.884 -0.6500 -1.1265 -0.3177
 2296SOL    HW2 9183   3.646   1.984   4.792  0.0959 -0.4471 -1.6635
 2296SOL     MW 9184   3.714   2.037   4.806  0.0153 -0.5635 -0.6946
 2297SOL     OW 9185   1.109   4.744   4.318  0.2449 -0.2419  0.5245
 2297SOL    HW1 9186   1.136   4.836   4.317  0.1270 -0.1299 -2.4025
 2297SOL    HW2 9187   1.105   4.721   4.411  2.6908  1.9700  1.2991
 2297SOL     MW 9188   1.112   4.753   4.330  0.5429  0.0556  0.2490
 2298SOL     OW 9189   1.950   5.006   3.441 -0.4873  0.9897  0.3566
 2298SOL    HW1 9190   2.017   5.024   3.375  1.5842  1.4096  2.4701
 2298SOL    HW2 9191   1.945   4.911   3.445 -0.2828  0.9596 -0.0649
 2298SOL     MW 9192   1.958   4.996   3.433 -0.1960  1.0396  0.5732
 2299SOL     OW 9193   4.369   1.451   3.645 -0.6950  0.2884  0.2867
 2299SOL    HW1 9194   4.281   1.430   3.615 -0.0884 -2.5293  0.1639
 2299SOL    HW2 9195   4.419   1.462   3.564 -1.0652  3.0538  0.3313
 2299SOL     MW 9196   4.364   1.450   3.630 -0.6647  0.2817  0.2767
 2300SOL     OW 9197   4.739   3.156   2.782  0.5067  0.0354  0.1568
 2300SOL    HW1 9198   4.738   3.077   2.727 -0.6855 -0.1821  0.4411
 2300SOL    HW2 9199   4.761   3.227   2.722  0.3359 -0.3488 -0.3714
 2300SOL     MW 9200   4.741   3.155   2.768  0.3322 -0.0416  0.1256
 2301SOL     OW 9201   1.437   4.808   4.848  0.4593 -0.1807  0.4386
 2301SOL    HW1 9202   1.434   4.889   4.898  0.4279 -1.2030  2.1618
 2301SOL    HW2 9203   1.432   4.739   4.913 -0.8162 -1.5968 -1.0572
 2301SOL     MW 9204   1.436   4.810   4.862  0.2920 -0.4928  0.4677
 2302SOL     OW 9205   4.928   4.148   4.434  0.1659  0.0697 -0.5600
 2302SOL    HW1 9206   4.983   4.166   4.358  0.3849  1.0471 -0.1833
 2302SOL    HW2 9207   4.891   4.062   4.417  1.8951 -0.6738 -0.7824
 2302SOL     MW 9208   4.930   4.139   4.422  0.4153  0.0997 -0.5402
 2303SOL     OW 9209   0.521   3.243   3.150  0.3828 -0.0650  0.1759
 2303SOL    HW1 9210   0.429   3.251   3.176  0.2308 -1.2965  0.0666
 2303SOL    HW2 9211   0.524   3.278   3.061 -0.0034 -0.1322  0.1352
 2303SOL     MW 9212   0.509   3.249   3.142  0.3139 -0.2313  0.1567
 2304SOL     OW 9213   0.194   2.156   4.110 -0.4237 -0.5725 -0.2498
 2304SOL    HW1 9214   0.159   2.187   4.194 -0.2488  0.1222 -0.4277
 2304SOL    HW2 9215   0.265   2.097   4.134 -0.3884 -0.3912  0.0890
 2304SOL     MW 9216   0.198   2.152   4.124 -0.3968 -0.4603 -0.2292
 2305SOL     OW 9217   1.168   1.669   4.455  0.6720  0.5120 -0.5940
 2305SOL    HW1 9218   1.099   1.603   4.445  0.9930  0.2321 -0.9867
 2305SOL    HW2 9219   1.136   1.726   4.525  0.4984 -0.2017 -0.0801
 2305SOL     MW 9220   1.155   1.668   4.463  0.6909  0.3848 -0.5785
 2306SOL     OW 9221   2.197   0.687   2.966 -0.3082 -0.3125  0.2209
 2306SOL    HW1 9222   2.156   0.717   3.047 -0.9253 -1.3246  0.2972
 2306SOL    HW2 9223   2.153   0.735   2.897  1.8418  2.3893  0.5570
 2306SOL     MW 9224   2.186   0.697   2.967 -0.1120 -0.0962  0.2737
 2307SOL     OW 9225   1.259   1.773   3.444  0.2988  0.2223 -0.5046
 2307SOL    HW1 9226   1.339   1.782   3.496  0.1384 -0.4785 -0.1140
 2307SOL    HW2 9227   1.211   1.702   3.487 -0.4895  0.5669 -0.7908
 2307SOL     MW 9228   1.263   1.765   3.456  0.1773  0.1767 -0.4912
 2308SOL     OW 9229   0.513   0.494   5.314 -0.3273 -0.3774  0.3623
 2308SOL    HW1 9230   0.441   0.481   5.376 -0.6786  0.2028  0.0796
 2308SOL    HW2 9231   0.581   0.433   5.344 -0.3560  0.1247  1.5311
 2308SOL     MW 9232   0.513   0.485   5.326 -0.3760 -0.2389  0.4758
 2309SOL     OW 9233   1.909   2.254   0.803 -0.2446 -0.3498  0.2792
 2309SOL    HW1 9234   2.001   2.270   0.824 -0.1283  1.4261 -1.2378
 2309SOL    HW2 9235   1.882   2.184   0.862  2.5568 -2.1666 -0.4243
 2309SOL     MW 9236   1.918   2.247   0.813  0.1289 -0.3551 -0.0050
 2310SOL     OW 9237   2.164   0.819   1.282 -0.5806  0.5476 -0.4103
 2310SOL    HW1 9238   2.162   0.878   1.358  3.0736 -1.1600  1.2654
 2310SOL    HW2 9239   2.214   0.865   1.216 -0.8126  0.6961 -0.4839
 2310SOL     MW 9240   2.170   0.832   1.284 -0.1425  0.3480 -0.2052
 2311SOL     OW 9241   5.131   3.313   3.304 -0.0946 -0.8747  0.2470
 2311SOL    HW1 9242   5.052   3.263   3.284 -0.7748  0.4934 -0.6178
 2311SOL    HW2 9243   5.151   3.361   3.224  0.0497  0.8565  1.2598
 2311SOL     MW 9244   5.124   3.313   3.291 -0.1632 -0.4779  0.2659
 2312SOL     OW 9245   3.429   2.265   3.556  0.2893  0.1439  0.1408
 2312SOL    HW1 9246   3.473   2.231   3.634 -0.5389  0.4578  0.7613
 2312SOL    HW2 9247   3.345   2.220   3.553 -0.5969  1.6865  0.6751
 2312SOL     MW 9248   3.424   2.255   3.566  0.0699  0.3815  0.2886
 2313SOL     OW 9249   0.289   2.698   0.315  0.9969  0.2075 -0.1969
 2313SOL    HW1 9250   0.374   2.698   0.270 -0.0667 -1.9513 -2.4123
 2313SOL    HW2 9251   0.230   2.656   0.253 -1.1281 -0.7769  2.3651
 2313SOL     MW 9252   0.293   2.693   0.301  0.5887 -0.1948 -0.1525
 2314SOL     OW 9253   5.122   1.984   4.675 -0.0262 -0.4953 -0.1982
 2314SOL    HW1 9254   5.198   2.038   4.697 -0.4411 -0.1438  0.3968
 2314SOL    HW2 9255   5.046   2.041   4.692 -0.4822 -1.3135  0.6264
 2314SOL     MW 9256   5.122   1.998   4.680 -0.1377 -0.5550 -0.0165
 2315SOL     OW 9257   4.507   2.599   4.180 -0.4667 -0.1027  0.7538
 2315SOL    HW1 9258   4.546   2.604   4.093 -1.5337 -0.3402  0.2417
 2315SOL    HW2 9259   4.536   2.514   4.214  0.8709  0.4807  1.0958
 2315SOL     MW 9260   4.516   2.588   4.173 -0.4321 -0.0585  0.7320
 2316SOL     OW 9261   3.007   1.260   2.961 -0.2926 -0.3709 -0.3469
 2316SOL    HW1 9262   2.955   1.339   2.979  0.9951 -0.0061  2.1957
 2316SOL    HW2 9263   3.092   1.293   2.933  0.5905 -0.7476  1.7193
 2316SOL     MW 9264   3.011   1.275   2.960 -0.0147 -0.3724  0.2431
 2317SOL     OW 9265   1.161   2.697   5.010 -0.5069  0.3226 -0.3872
 2317SOL    HW1 9266   1.192   2.632   5.073 -1.1192  0.7940  0.4349
 2317SOL    HW2 9267   1.220   2.772   5.022  0.3049 -0.1223 -1.4533
 2317SOL     MW 9268   1.172   2.698   5.020 -0.4813  0.3260 -0.4185
 2318SOL     OW 9269   5.460   1.802   3.565  0.2060 -0.2803 -0.4863
 2318SOL    HW1 9270   5.421   1.735   3.623  0.4093 -0.8170 -0.9575
 2318SOL    HW2 9271   5.405   1.801   3.487  0.4222 -0.1494 -0.6414
 2318SOL     MW 9272   5.448   1.793   3.563  0.2597 -0.3323 -0.5665
 2319SOL     OW 9273   4.752   1.352   5.109 -0.3463  0.0185  0.6439
 2319SOL    HW1 9274   4.681   1.310   5.060 -0.3969 -0.3782  1.0477
 2319SOL    HW2 9275   4.718   1.362   5.197 -0.7339  1.9196  0.3092
 2319SOL     MW 9276   4.739   1.348   5.114 -0.4024  0.2111  0.6528
 2320SOL     OW 9277   0.478   0.204   5.407  0.1296 -0.4402 -0.0401
 2320SOL    HW1 9278   0.480   0.155   5.490  0.6140  2.3233  1.7181
 2320SOL    HW2 9279   0.420   0.278   5.425  2.5234  1.8686 -1.1380
 2320SOL     MW 9280   0.470   0.207   5.420  0.4980  0.2091  0.0444
 2321SOL     OW 9281   1.812   1.581   3.138 -0.0312 -0.1444 -0.1963
 2321SOL    HW1 9282   1.875   1.511   3.155  0.8589  0.8499  0.7181
 2321SOL    HW2 9283   1.861   1.662   3.154 -1.6417  0.6480  0.9424
 2321SOL     MW 9284   1.826   1.583   3.142 -0.1234  0.0844  0.0665
 2322SOL     OW 9285   2.061   1.369   3.872 -0.0216 -0.3833  0.3506
 2322SOL    HW1 9286   2.023   1.341   3.788  0.3098 -0.0454  0.0879
 2322SOL    HW2 9287   2.008   1.445   3.898  1.2507  0.8952 -0.6483
 2322SOL     MW 9288   2.049   1.375   3.865  0.1837 -0.1764  0.1891
 2323SOL     OW 9289   3.772   2.648   2.459 -0.0411 -0.2559 -0.2198
 2323SOL    HW1 9290   3.847   2.676   2.511 -0.6739  2.5915 -0.6661
 2323SOL    HW2 9291   3.696   2.688   2.502 -0.9823 -0.7377 -1.3568
 2323SOL     MW 9292   3.772   2.656   2.471 -0.2426  0.0469 -0.4225
 2324SOL     OW 9293   0.044   0.307   4.676 -0.1038 -0.2665 -0.8130
 2324SOL    HW1 9294  -0.036   0.311   4.623  0.6326 -0.4581 -1.9665
 2324SOL    HW2 9295   0.110   0.272   4.617  1.2938  1.6078 -0.4500
 2324SOL     MW 9296   0.042   0.303   4.662  0.1694 -0.0511 -0.9142
 2325SOL     OW 9297   4.422   2.646   2.267 -0.3940 -0.2793  0.0596
 2325SOL    HW1 9298   4.452   2.710   2.330 -0.0373  0.1303 -0.5146
 2325SOL    HW2 9299   4.497   2.589   2.252 -0.5642 -0.5480  0.2155
 2325SOL     MW 9300   4.435   2.647   2.273 -0.3701 -0.2613  0.0061
 2326SOL     OW 9301   3.293   3.367   0.425 -0.4764  0.1152  0.0137
 2326SOL    HW1 9302   3.373   3.420   0.430 -0.9324  0.7896  0.4054
 2326SOL    HW2 9303   3.254   3.392   0.341 -0.1832 -0.3626 -0.2703
 2326SOL     MW 9304   3.298   3.377   0.415 -0.4972  0.1403  0.0275
 2327SOL     OW 9305   2.386   4.321   3.195  0.1823 -0.3390 -0.2222
 2327SOL    HW1 9306   2.337   4.247   3.231  2.6814 -1.8858  0.2266
 2327SOL    HW2 9307   2.380   4.389   3.262  1.4354 -1.7467  1.4106
 2327SOL     MW 9308   2.379   4.321   3.208  0.6626 -0.7172  0.0443
 2328SOL     OW 9309   2.889   4.563   3.870  0.3244  0.0591  0.3823
 2328SOL    HW1 9310   2.943   4.499   3.916  0.3607  0.5444  1.0263
 2328SOL    HW2 9311   2.846   4.513   3.801  0.8556 -0.5238  0.4692
 2328SOL     MW 9312   2.890   4.549   3.867  0.3970  0.0466  0.4758
 2329SOL     OW 9313   0.129   4.464   3.151 -0.4489  0.2335 -0.1323
 2329SOL    HW1 9314   0.061   4.446   3.215 -0.8181 -2.8767 -1.2041
 2329SOL    HW2 9315   0.087   4.521   3.086 -1.4856 -0.1840  0.1497
 2329SOL     MW 9316   0.115   4.469   3.151 -0.6289 -0.2181 -0.2334
 2330SOL     OW 9317   3.628   3.223   0.833  0.3299 -0.1553 -0.3491
 2330SOL    HW1 9318   3.712   3.234   0.878 -1.3986 -0.2825  3.2105
 2330SOL    HW2 9319   3.622   3.129   0.815  1.0613 -0.0969 -0.9522
 2330SOL     MW 9320   3.638   3.212   0.836  0.2023 -0.1641  0.0294
 2331SOL     OW 9321   2.228   1.126   3.431 -0.2842 -0.3756  0.2148
 2331SOL    HW1 9322   2.278   1.051   3.400 -1.3078 -2.0864  2.4267
 2331SOL    HW2 9323   2.175   1.152   3.355  0.6647 -1.3749 -0.8263
 2331SOL     MW 9324   2.227   1.120   3.417 -0.2937 -0.7225  0.3646
 2332SOL     OW 9325   1.311   2.730   3.597 -0.0312 -0.0960  0.4444
 2332SOL    HW1 9326   1.242   2.796   3.603 -0.5267 -0.6331  0.7741
 2332SOL    HW2 9327   1.264   2.648   3.579  0.7541  0.1195 -3.5823
 2332SOL     MW 9328   1.296   2.728   3.595  0.0059 -0.1371 -0.0289
 2333SOL     OW 9329   4.872   4.523   0.827 -0.1943 -0.2554  0.2612
 2333SOL    HW1 9330   4.946   4.514   0.767  0.6534 -2.9183  1.5408
 2333SOL    HW2 9331   4.877   4.614   0.857  1.0625  0.3191 -1.5124
 2333SOL     MW 9332   4.882   4.533   0.823  0.0751 -0.5227  0.1979
 2334SOL     OW 9333   4.679   1.671   1.884  0.0500  0.3023 -0.4291
 2334SOL    HW1 9334   4.686   1.628   1.799  0.4792 -1.0552  0.2632
 2334SOL    HW2 9335   4.762   1.650   1.928 -0.0814  1.1611  0.2600
 2334SOL     MW 9336   4.691   1.663   1.879  0.0881  0.2384 -0.2523
 2335SOL     OW 9337   1.007   3.666   1.582 -0.5368 -0.0081 -0.1830
 2335SOL    HW1 9338   1.061   3.595   1.616  0.1399 -0.0219 -1.2419
 2335SOL    HW2 9339   1.020   3.738   1.644  1.0457  0.1274 -0.6383
 2335SOL     MW 9340   1.015   3.666   1.594 -0.2476  0.0075 -0.3769
 2336SOL     OW 9341   1.849   1.093   4.458 -0.2186 -0.2823  0.4630
 2336SOL    HW1 9342   1.889   1.178   4.444 -0.2723 -0.2459  0.5318
 2336SOL    HW2 9343   1.836   1.058   4.370 -2.2328  0.7162  0.3008
 2336SOL     MW 9344   1.852   1.099   4.445 -0.4833 -0.1499  0.4510
 2337SOL     OW 9345   5.275   4.839   3.264  0.1903 -0.0020 -0.0563
 2337SOL    HW1 9346   5.254   4.747   3.248  3.2038 -0.9480  0.7370
 2337SOL    HW2 9347   5.219   4.865   3.337  0.2396 -1.6321  0.5864
 2337SOL     MW 9348   5.265   4.831   3.271  0.5824 -0.3318  0.1275
 2338SOL     OW 9349   1.837   2.792   4.115  0.3563  0.0355 -0.0723
 2338SOL    HW1 9350   1.748   2.796   4.151  0.1744  0.5537 -0.5608
 2338SOL    HW2 9351   1.889   2.749   4.183  0.2388  1.9060  1.2657
 2338SOL     MW 9352   1.832   2.787   4.128  0.3180  0.3413  0.0365
 2339SOL     OW 9353   1.747   5.059   2.199  0.4881 -0.0302  0.2905
 2339SOL    HW1 9354   1.708   4.979   2.233 -0.2915 -0.3238 -1.1980
 2339SOL    HW2 9355   1.674   5.119   2.185  0.7440  0.0232 -0.9586
 2339SOL     MW 9356   1.733   5.057   2.202  0.4210 -0.0610 -0.0600
 2340SOL     OW 9357   2.560   1.370   4.955 -0.0072  0.7420  0.2005
 2340SOL    HW1 9358   2.567   1.462   4.978 -0.4504  0.4746  1.4485
 2340SOL    HW2 9359   2.472   1.345   4.980  0.7297 -0.4958  1.6936
 2340SOL     MW 9360   2.550   1.378   4.961  0.0304  0.5493  0.5514
 2341SOL     OW 9361   2.423   2.559   0.309  0.5052 -0.3298 -0.0776
 2341SOL    HW1 9362   2.506   2.598   0.280 -0.5656  1.1766 -1.2744
 2341SOL    HW2 9363   2.356   2.610   0.264 -1.1232 -0.9039  1.5911
 2341SOL     MW 9364   2.425   2.571   0.299  0.1596 -0.2104 -0.0172
 2342SOL     OW 9365   1.427   1.072   2.631 -0.3226  0.2984  0.3762
 2342SOL    HW1 9366   1.449   1.036   2.717 -1.2290 -1.0664  0.0557
 2342SOL    HW2 9367   1.410   1.165   2.648  2.3777  0.7367  1.1658
 2342SOL     MW 9368   1.428   1.080   2.644 -0.0930  0.1798  0.4363
 2343SOL     OW 9369   2.127   4.080   3.385  0.2244 -0.2119  0.0170
 2343SOL    HW1 9370   2.114   3.998   3.433 -3.8406  0.7640  0.9507
 2343SOL    HW2 9371   2.165   4.140   3.449 -0.6079 -0.2897  0.6057
 2343SOL     MW 9372   2.130   4.077   3.399 -0.4025 -0.0969  0.2119
 2344SOL     OW 9373   0.414   0.372   1.273  0.6470 -0.3231  0.0834
 2344SOL    HW1 9374   0.389   0.284   1.300 -2.6229  0.6996  0.8505
 2344SOL    HW2 9375   0.359   0.391   1.197  1.3734  1.0262 -0.1432
 2344SOL     MW 9376   0.404   0.363   1.267  0.3214 -0.0194  0.1526
 2345SOL     OW 9377   2.529   2.572   0.597 -0.5493 -1.0139  0.3611
 2345SOL    HW1 9378   2.498   2.640   0.657 -2.3462 -3.5200  2.4694
 2345SOL    HW2 9379   2.477   2.584   0.518  0.1344  0.8462  0.1460
 2345SOL     MW 9380   2.518   2.582   0.595 -0.6918 -1.0966  0.6035
 2346SOL     OW 9381   5.497   3.323   1.542 -0.0124 -0.1416  0.4557
 2346SOL    HW1 9382   5.407   3.295   1.525 -0.6984  1.3060  1.4882
 2346SOL    HW2 9383   5.509   3.307   1.636  1.2508 -1.4578  0.0981
 2346SOL     MW 9384   5.487   3.317   1.552  0.0615 -0.1248  0.5421
 2347SOL     OW 9385   5.305   3.351   1.959  0.0858  0.0708  0.4881
 2347SOL    HW1 9386   5.210   3.356   1.952 -0.0209 -1.6578  0.2676
 2347SOL    HW2 9387   5.321   3.311   2.044  0.4528 -2.4704 -0.6841
 2347SOL     MW 9388   5.295   3.347   1.969  0.1191 -0.4758  0.3098
 2348SOL     OW 9389   2.481   2.087   1.509 -0.7037 -0.0732 -0.2952
 2348SOL    HW1 9390   2.419   2.055   1.444 -3.0240  0.9361  1.2949
 2348SOL    HW2 9391   2.523   2.007   1.543 -1.0551 -0.7759 -1.4463
 2348SOL     MW 9392   2.478   2.072   1.505 -1.0457 -0.0339 -0.2390
 2349SOL     OW 9393   1.624   1.583   1.515  0.5795 -0.4698  0.0531
 2349SOL    HW1 9394   1.548   1.577   1.456  0.9264 -0.5354 -0.3971
 2349SOL    HW2 9395   1.683   1.644   1.471  0.0931  0.8652  1.2061
 2349SOL     MW 9396   1.622   1.590   1.502  0.5616 -0.3073  0.1431
 2350SOL     OW 9397   3.962   2.732   2.989 -0.1704 -0.0239 -0.3744
 2350SOL    HW1 9398   3.967   2.715   2.895 -0.8129  0.8637 -0.5769
 2350SOL    HW2 9399   3.937   2.647   3.027 -0.2921 -0.2936 -1.0469
 2350SOL     MW 9400   3.959   2.719   2.982 -0.2682  0.0552 -0.4864
 2351SOL     OW 9401   0.182   2.559   3.276 -0.4014  0.0959  0.1729
 2351SOL    HW1 9402   0.158   2.500   3.348 -1.6488 -0.9964 -1.0793
 2351SOL    HW2 9403   0.244   2.510   3.223  0.3277  0.8071  0.3387
 2351SOL     MW 9404   0.187   2.546   3.278 -0.4678  0.0471  0.0339
 2352SOL     OW 9405   4.652   0.293   2.751  0.2488  0.0665 -0.0345
 2352SOL    HW1 9406   4.570   0.309   2.797 -0.4014  0.0313 -1.1681
 2352SOL    HW2 9407   4.681   0.380   2.722 -0.0361 -0.0569 -0.7081
 2352SOL     MW 9408   4.646   0.306   2.753  0.1291  0.0462 -0.2658
 2353SOL     OW 9409   3.816   5.135   0.030 -0.6347 -0.0593 -0.0181
 2353SOL    HW1 9410   3.911   5.137   0.024 -0.7108  1.1014 -1.5273
 2353SOL    HW2 9411   3.792   5.218   0.072 -0.9824 -0.3980  0.4667
 2353SOL     MW 9412   3.825   5.146   0.035 -0.6890  0.0459 -0.1492
 2354SOL     OW 9413   3.678   0.391   4.551  0.1752 -0.4142  0.2950
 2354SOL    HW1 9414   3.670   0.467   4.609  3.1390 -0.6935  1.2634
 2354SOL    HW2 9415   3.615   0.407   4.481 -2.0849  0.9634  2.4853
 2354SOL     MW 9416   3.669   0.403   4.550  0.2653 -0.2736  0.6994
 2355SOL     OW 9417   3.628   1.410   2.355 -0.5511  0.5119 -0.4848
 2355SOL    HW1 9418   3.629   1.316   2.373 -1.1679  0.8123  1.3967
 2355SOL    HW2 9419   3.652   1.417   2.263 -0.1285 -1.4613 -0.5807
 2355SOL     MW 9420   3.631   1.399   2.346 -0.5760  0.2977 -0.2562
 2356SOL     OW 9421   0.601   0.075   4.575  0.2699 -0.3839 -0.3694
 2356SOL    HW1 9422   0.582  -0.000   4.632 -1.8817 -0.6092 -1.3142
 2356SOL    HW2 9423   0.687   0.105   4.605  0.3698 -2.0659  1.2704
 2356SOL     MW 9424   0.610   0.069   4.586  0.0073 -0.6281 -0.2805
 2357SOL     OW 9425   1.891   3.006   0.143 -0.3474 -0.5084  0.3474
 2357SOL    HW1 9426   1.878   3.017   0.049 -0.1886  0.1470  0.3931
 2357SOL    HW2 9427   1.906   2.913   0.155 -0.5597 -0.6258 -0.2532
 2357SOL     MW 9428   1.891   2.996   0.132 -0.3543 -0.4395  0.2764
 2358SOL     OW 9429   0.118   2.186   4.627 -0.3034  0.3730  0.0134
 2358SOL    HW1 9430   0.199   2.218   4.665  0.1723 -1.4396  0.6527
 2358SOL    HW2 9431   0.143   2.107   4.580 -1.3100  1.1644 -1.9688
 2358SOL     MW 9432   0.132   2.180   4.626 -0.3714  0.2423 -0.1585
 2359SOL     OW 9433   4.764   0.575   2.758  0.0544  0.3854  0.2179
 2359SOL    HW1 9434   4.859   0.581   2.765  0.2380  0.9922 -2.0157
 2359SOL    HW2 9435   4.735   0.554   2.846  2.3294 -0.9112  0.7404
 2359SOL     MW 9436   4.773   0.573   2.770  0.3692  0.2971 -0.0011
 2360SOL     OW 9437   0.997   1.497   3.272 -0.1025 -0.9799  0.6038
 2360SOL    HW1 9438   0.955   1.557   3.333  1.2943  0.4995  0.1809
 2360SOL    HW2 9439   1.059   1.447   3.326  0.0861 -0.7052  0.6409
 2360SOL     MW 9440   1.000   1.498   3.287  0.1005 -0.7554  0.5544
 2361SOL     OW 9441   1.995   1.698   1.161  0.3611  0.2735  0.0343
 2361SOL    HW1 9442   2.056   1.766   1.132  0.7336  0.1295  0.4612
 2361SOL    HW2 9443   1.910   1.728   1.130  0.5611  0.7842 -0.0451
 2361SOL     MW 9444   1.992   1.711   1.153  0.4344  0.3204  0.0788
 2362SOL     OW 9445   1.704   3.711   2.481 -0.1750 -0.0162 -0.1201
 2362SOL    HW1 9446   1.660   3.779   2.430  0.8882  0.7581 -0.0493
 2362SOL    HW2 9447   1.778   3.684   2.426  1.0689  0.9233  1.0015
 2362SOL     MW 9448   1.708   3.716   2.467  0.1203  0.2032  0.0326
 2363SOL     OW 9449   1.582   0.453   3.351  0.1537  0.0887 -0.3559
 2363SOL    HW1 9450   1.667   0.491   3.327  0.3903  0.0296  0.3721
 2363SOL    HW2 9451   1.600   0.404   3.431 -0.9277  1.4865  0.7794
 2363SOL     MW 9452   1.595   0.452   3.358  0.0456  0.2601 -0.1174
 2364SOL     OW 9453   2.576   0.592   1.718 -0.0151 -0.2380 -0.1572
 2364SOL    HW1 9454   2.615   0.674   1.690  0.7478 -0.7054 -0.4872
 2364SOL    HW2 9455   2.587   0.533   1.643 -0.1415 -0.7733  0.2379
 2364SOL     MW 9456   2.582   0.595   1.705  0.0664 -0.3663 -0.1489
 2365SOL     OW 9457   3.012   3.597   2.660  0.0653 -0.4807 -0.0850
 2365SOL    HW1 9458   2.945   3.529   2.660 -0.7100  0.2312 -1.3710
 2365SOL    HW2 9459   2.981   3.663   2.722  0.5655 -1.0361  0.7782
 2365SOL     MW 9460   3.000   3.597   2.668  0.0301 -0.4607 -0.1391
 2366SOL     OW 9461   2.315   3.853   2.615 -0.2269 -0.0629  0.4188
 2366SOL    HW1 9462   2.318   3.757   2.624 -1.1781  0.0106  2.0146
 2366SOL    HW2 9463   2.226   3.871   2.585 -0.9888  0.4250  2.7666
 2366SOL     MW 9464   2.304   3.843   2.613 -0.4462  0.0089  0.9237
 2367SOL     OW 9465   1.907   1.394   5.014 -0.1455 -0.1249 -0.2854
 2367SOL    HW1 9466   1.955   1.454   4.956  1.4335  0.3523  1.4009
 2367SOL    HW2 9467   1.934   1.420   5.102 -0.8619 -2.1362  0.5796
 2367SOL     MW 9468   1.917   1.405   5.018 -0.0350 -0.3213  0.0412
 2368SOL     OW 9469   4.673   1.273   3.405 -0.1554  0.4357  0.6453
 2368SOL    HW1 9470   4.642   1.184   3.390 -1.4755  0.9570  0.1019
 2368SOL    HW2 9471   4.741   1.264   3.472  0.3076 -1.0562  0.0108
 2368SOL     MW 9472   4.677   1.260   3.412 -0.2651  0.3114  0.4945
 2369SOL     OW 9473   1.268   2.091   2.846 -0.1734 -0.1774 -0.1581
 2369SOL    HW1 9474   1.340   2.106   2.908 -1.7892 -0.5992  1.9185
 2369SOL    HW2 9475   1.189   2.094   2.900 -1.7216 -0.0043 -2.3252
 2369SOL     MW 9476   1.267   2.094   2.861 -0.5784 -0.2092 -0.1697
 2370SOL     OW 9477   2.792   0.818   2.139  0.0985  0.1200  0.5722
 2370SOL    HW1 9478   2.788   0.911   2.161  0.9369  0.2006  0.4339
 2370SOL    HW2 9479   2.859   0.783   2.196  0.0551 -0.3215  0.3560
 2370SOL     MW 9480   2.800   0.826   2.149  0.2002  0.0738  0.5268
 2371SOL     OW 9481   3.167   3.963   2.212 -0.2857  0.4856  0.3946
 2371SOL    HW1 9482   3.135   3.873   2.208 -1.0428  0.7791 -2.2006
 2371SOL    HW2 9483   3.258   3.957   2.183 -0.1832  0.5026  0.7099
 2371SOL     MW 9484   3.175   3.951   2.208 -0.3695  0.5254  0.1027
 2372SOL     OW 9485   2.838   3.818   2.734 -0.1429 -0.8194  0.1243
 2372SOL    HW1 9486   2.858   3.895   2.681 -1.1496 -2.0987 -2.2796
 2372SOL    HW2 9487   2.907   3.816   2.800  0.1902  1.8245 -0.0284
 2372SOL     MW 9488   2.849   3.827   2.735 -0.2292 -0.6447 -0.2030
 2373SOL     OW 9489   5.034   1.874   0.919  0.0742  0.3816  0.5930
 2373SOL    HW1 9490   5.102   1.853   0.856 -0.4963 -1.2205  0.4598
 2373SOL    HW2 9491   4.967   1.807   0.905 -1.4951  1.8543  0.7752
 2373SOL     MW 9492   5.034   1.863   0.909 -0.1997  0.3651  0.5993
 2374SOL     OW 9493   1.716   4.878   2.855  0.1060 -0.2585  0.5032
 2374SOL    HW1 9494   1.633   4.902   2.895  0.7424 -0.3170  1.9097
 2374SOL    HW2 9495   1.693   4.852   2.765 -1.1170  1.6001  0.2314
 2374SOL     MW 9496   1.703   4.878   2.848  0.0309 -0.0281  0.6484
 2375SOL     OW 9497   0.880   2.252   0.973 -0.4003 -0.1149 -0.6764
 2375SOL    HW1 9498   0.817   2.221   0.908  1.2649 -1.8270 -1.5673
 2375SOL    HW2 9499   0.916   2.332   0.936 -1.5158  0.5161 -0.4607
 2375SOL     MW 9500   0.877   2.259   0.960 -0.3299 -0.2533 -0.7628
 2376SOL     OW 9501   1.306   3.113   0.419 -0.3937  0.5681 -0.0528
 2376SOL    HW1 9502   1.235   3.088   0.478  0.2740  0.1709  0.6051
 2376SOL    HW2 9503   1.386   3.101   0.471  0.2067  0.2935 -1.0142
 2376SOL     MW 9504   1.307   3.109   0.433 -0.2314  0.4821 -0.0916
 2377SOL     OW 9505   1.384   3.008   3.191 -0.0916 -0.1059  0.4414
 2377SOL    HW1 9506   1.446   3.078   3.211 -0.5783  0.1638  1.0329
 2377SOL    HW2 9507   1.396   2.944   3.262 -1.6130  0.7136  1.5051
 2377SOL     MW 9508   1.393   3.009   3.203 -0.3486  0.0336  0.6533
 2378SOL     OW 9509   3.266   1.673   2.945  0.1732 -0.4916  0.1140
 2378SOL    HW1 9510   3.352   1.672   2.905 -0.2173 -0.8724 -0.7470
 2378SOL    HW2 9511   3.275   1.620   3.024  0.5910 -0.9997 -0.2734
 2378SOL     MW 9512   3.278   1.666   2.950  0.1767 -0.6054 -0.0458
 2379SOL     OW 9513  -0.013   2.899   3.402  0.2698 -0.1122  0.0817
 2379SOL    HW1 9514   0.011   2.822   3.453  0.5453 -1.3212 -1.7773
 2379SOL    HW2 9515   0.070   2.942   3.383  0.3036 -0.3903 -0.4205
 2379SOL     MW 9516   0.000   2.894   3.406  0.3094 -0.3025 -0.2205
 2380SOL     OW 9517   3.084   1.066   2.453  0.2554  0.3818 -0.2119
 2380SOL    HW1 9518   3.160   1.082   2.396  0.4702  0.6628  0.1456
 2380SOL    HW2 9519   3.121   1.024   2.530 -0.0578 -0.1478 -0.3451
 2380SOL     MW 9520   3.099   1.063   2.455  0.2428  0.3500 -0.1832
 2381SOL     OW 9521   2.906   2.712   0.048 -0.0277  0.3273 -0.2669
 2381SOL    HW1 9522   2.898   2.617   0.050  0.3216  0.2749 -0.9804
 2381SOL    HW2 9523   2.836   2.743   0.105  1.6610 -0.4061  2.3516
 2381SOL     MW 9524   2.896   2.704   0.055  0.2332  0.2267 -0.0230
 2382SOL     OW 9525   4.122   3.432   2.685  0.0527  0.3111  0.8956
 2382SOL    HW1 9526   4.038   3.433   2.731 -0.8031  1.1454 -0.5785
 2382SOL    HW2 9527   4.098   3.433   2.592  1.6962  1.2688  0.4434
 2382SOL     MW 9528   4.108   3.432   2.679  0.1535  0.5405  0.6490
 2383SOL     OW 9529   1.376   1.604   1.387 -0.1087  0.3101  0.2724
 2383SOL    HW1 9530   1.386   1.611   1.292 -1.2777  2.8105  0.2539
 2383SOL    HW2 9531   1.295   1.554   1.399  0.6878 -1.0849  0.0156
 2383SOL     MW 9532   1.367   1.598   1.376 -0.1564  0.4516  0.2372
 2384SOL     OW 9533   2.771   5.372   4.031 -1.0130  0.3976 -0.1323
 2384SOL    HW1 9534   2.846   5.364   4.090 -1.2847  2.2849  0.5419
 2384SOL    HW2 9535   2.708   5.309   4.064 -0.0547 -0.6400 -0.2126
 2384SOL     MW 9536   2.773   5.363   4.043 -0.9251  0.5063 -0.0562
 2385SOL     OW 9537   2.556   2.535   0.007  0.0901  0.0392  0.9273
 2385SOL    HW1 9538   2.611   2.457   0.012  1.4122  0.7989 -0.9342
 2385SOL    HW2 9539   2.608   2.603   0.048  0.2190  0.5997 -0.1567
 2385SOL     MW 9540   2.569   2.533   0.013  0.2759  0.2082  0.5503
 2386SOL     OW 9541   0.343   2.995   4.820  0.4065 -0.0624 -0.2766
 2386SOL    HW1 9542   0.308   2.986   4.909  2.3523 -1.1072  0.4459
 2386SOL    HW2 9543   0.266   2.995   4.763 -0.9103  1.0049  1.4037
 2386SOL     MW 9544   0.329   2.994   4.824  0.4870 -0.0595  0.0310
 2387SOL     OW 9545   0.242   1.210   0.244  0.1198  0.6008  0.0819
 2387SOL    HW1 9546   0.311   1.145   0.228  0.1740 -0.0114  2.4976
 2387SOL    HW2 9547   0.165   1.176   0.198  0.6334 -0.2504 -0.1595
 2387SOL     MW 9548   0.241   1.197   0.236  0.1925  0.4135  0.3603
 2388SOL     OW 9549   4.455   4.689   1.475  0.1642 -0.5295 -0.0923
 2388SOL    HW1 9550   4.398   4.726   1.543  1.0953 -0.3903  0.6302
 2388SOL    HW2 9551   4.404   4.618   1.436 -0.5526 -0.3157  0.4392
 2388SOL     MW 9552   4.441   4.685   1.479  0.1916 -0.4843  0.0682
 2389SOL     OW 9553   3.358   0.995   0.904  0.5288 -0.3194  0.0343
 2389SOL    HW1 9554   3.405   0.989   0.987  0.3288  1.3366  0.3043
 2389SOL    HW2 9555   3.423   1.027   0.841  0.6996 -1.6298 -0.5056
 2389SOL     MW 9556   3.372   0.998   0.906  0.5251 -0.2751 -0.0003
 2390SOL     OW 9557   4.585   5.072   4.254 -0.3077  0.7124  0.0292
 2390SOL    HW1 9558   4.491   5.077   4.240 -0.5895  0.0711  1.5479
 2390SOL    HW2 9559   4.596   5.081   4.348  1.3543  3.4995 -0.2900
 2390SOL     MW 9560   4.575   5.074   4.264 -0.1311  0.9871  0.1828
 2391SOL     OW 9561   1.569   2.449   3.760  0.1153 -0.6336 -0.1643
 2391SOL    HW1 9562   1.596   2.514   3.694 -2.3828 -0.0727 -0.7639
 2391SOL    HW2 9563   1.565   2.498   3.842 -0.9682 -0.1855 -0.4632
 2391SOL     MW 9564   1.572   2.464   3.762 -0.3432 -0.5044 -0.2793
 2392SOL     OW 9565   5.027   1.379   1.337  0.2759  0.3900  0.9430
 2392SOL    HW1 9566   5.011   1.327   1.416  0.0292 -0.7540  0.1673
 2392SOL    HW2 9567   4.980   1.461   1.352 -1.8808 -0.7732  0.9633
 2392SOL     MW 9568   5.019   1.383   1.349 -0.0317  0.0947  0.8463
 2393SOL     OW 9569   0.438   0.243   2.044 -0.0740 -0.4865  0.4245
 2393SOL    HW1 9570   0.532   0.255   2.058 -0.3208  1.6497  0.4606
 2393SOL    HW2 9571   0.433   0.181   1.970  1.3456 -0.5501  0.3513
 2393SOL     MW 9572   0.449   0.236   2.036  0.0761 -0.2212  0.4197
 2394SOL     OW 9573   2.442   1.396   1.030 -0.5258 -0.3365 -0.3447
 2394SOL    HW1 9574   2.483   1.395   1.116 -1.0784 -0.6799 -0.0788
 2394SOL    HW2 9575   2.354   1.361   1.045 -1.5896  2.0098 -0.5556
 2394SOL     MW 9576   2.436   1.391   1.043 -0.7327 -0.0801 -0.3377
 2395SOL     OW 9577   0.204   1.693   0.273  0.0045  0.1263  0.3937
 2395SOL    HW1 9578   0.204   1.720   0.365 -0.7801  1.9528 -0.0980
 2395SOL    HW2 9579   0.121   1.724   0.239  0.3942 -0.3034 -1.0139
 2395SOL     MW 9580   0.194   1.700   0.280 -0.0461  0.3051  0.1506
 2396SOL     OW 9581   1.493   4.550   1.031 -0.4038 -0.1725  0.4206
 2396SOL    HW1 9582   1.516   4.598   0.952 -0.4356  0.2118  0.6417
 2396SOL    HW2 9583   1.575   4.542   1.080  0.1274 -2.4590 -0.7145
 2396SOL     MW 9584   1.506   4.555   1.028 -0.3399 -0.4160  0.3036
 2397SOL     OW 9585   4.646   1.440   4.504 -0.6272 -0.1533 -0.1175
 2397SOL    HW1 9586   4.654   1.439   4.599 -0.5676 -2.4239 -0.0921
 2397SOL    HW2 9587   4.552   1.447   4.488 -0.7224 -0.7518  0.1485
 2397SOL     MW 9588   4.635   1.441   4.514 -0.6317 -0.5206 -0.0802
 2398SOL     OW 9589   2.063   0.683   3.970 -0.2454  0.5535  0.1715
 2398SOL    HW1 9590   2.110   0.659   3.890 -0.8777  0.1061 -0.0773
 2398SOL    HW2 9591   2.122   0.659   4.041  0.0732  0.3874 -0.1506
 2398SOL     MW 9592   2.076   0.677   3.969 -0.2856  0.4750  0.0984
 2399SOL     OW 9593   4.563   0.938   0.071  0.2699  0.4901 -0.5671
 2399SOL    HW1 9594   4.633   0.875   0.056 -0.0604 -0.0339  0.0461
 2399SOL    HW2 9595   4.604   1.006   0.124  0.2336  0.0106  0.0869
 2399SOL     MW 9596   4.577   0.939   0.076  0.2230  0.3617 -0.4049
 2400SOL     OW 9597   2.677   1.610   4.286 -0.6370 -0.0143 -0.2675
 2400SOL    HW1 9598   2.626   1.533   4.261  0.6341 -1.8787  2.4807
 2400SOL    HW2 9599   2.745   1.577   4.344 -0.5534  3.2862  1.7831
 2400SOL     MW 9600   2.679   1.596   4.290 -0.4636  0.1695  0.3468
 2401SOL     OW 9601   0.940   3.719   3.533 -0.3373  0.0299  0.6258
 2401SOL    HW1 9602   0.873   3.712   3.465 -0.9392 -0.6585  1.2594
 2401SOL    HW2 9603   1.006   3.654   3.509  1.3399  2.2809 -1.2695
 2401SOL     MW 9604   0.940   3.710   3.521 -0.1996  0.2300  0.4643
 2402SOL     OW 9605   4.759   5.429   2.019 -0.2115 -0.2468  0.1685
 2402SOL    HW1 9606   4.728   5.339   2.030 -0.2288 -0.2123  0.4268
 2402SOL    HW2 9607   4.786   5.435   1.928 -1.7343 -0.0511 -0.3043
 2402SOL     MW 9608   4.758   5.418   2.009 -0.4086 -0.2173  0.1411
 2403SOL     OW 9609   5.001   4.602   5.180  0.1898 -0.4110 -0.2743
 2403SOL    HW1 9610   5.033   4.549   5.107  0.0888 -1.3797  0.3622
 2403SOL    HW2 9611   4.934   4.547   5.222  0.8938 -0.2710  1.0834
 2403SOL     MW 9612   4.997   4.588   5.176  0.2670 -0.5171 -0.0190
 2404SOL     OW 9613   0.602   0.453   5.058 -0.1510  0.4297  0.0044
 2404SOL    HW1 9614   0.561   0.485   5.138 -0.2042  0.0725  0.1229
 2404SOL    HW2 9615   0.589   0.358   5.061  2.4075  0.0392  1.0552
 2404SOL     MW 9616   0.595   0.445   5.068  0.1697  0.3340  0.1540
 2405SOL     OW 9617   1.788   2.391   5.249 -0.1148  0.1271 -0.1632
 2405SOL    HW1 9618   1.710   2.445   5.263 -0.7981 -0.5968 -1.1363
 2405SOL    HW2 9619   1.769   2.339   5.171  1.5942  0.3986 -0.8125
 2405SOL     MW 9620   1.776   2.392   5.241  0.0165  0.0692 -0.3709
 2406SOL     OW 9621   2.730   0.051   2.289 -0.2876  0.5517 -0.6449
 2406SOL    HW1 9622   2.771  -0.000   2.359 -0.6274  3.4408  1.8563
 2406SOL    HW2 9623   2.649   0.004   2.270 -0.5150  0.0133  1.4062
 2406SOL     MW 9624   2.725   0.038   2.296 -0.3602  0.8527 -0.0621
 2407SOL     OW 9625   3.284   0.103   3.094 -0.0129  0.2399 -0.3030
 2407SOL    HW1 9626   3.266   0.021   3.047 -0.6571  0.9522 -1.3259
 2407SOL    HW2 9627   3.243   0.091   3.179 -1.5916  0.1315 -1.0448
 2407SOL     MW 9628   3.277   0.091   3.099 -0.2975  0.3172 -0.5289
 2408SOL     OW 9629   3.151   0.661   3.918 -0.1762  0.1125  0.0161
 2408SOL    HW1 9630   3.153   0.611   3.999  2.3883  1.8196  1.1358
 2408SOL    HW2 9631   3.127   0.750   3.945 -1.1121  0.3144 -1.3883
 2408SOL     MW 9632   3.148   0.666   3.932  0.0323  0.3568 -0.0204
 2409SOL     OW 9633   0.697   2.374   1.898  0.5776 -0.3819  0.2666
 2409SOL    HW1 9634   0.629   2.335   1.843  1.0430  0.7897 -1.2194
 2409SOL    HW2 9635   0.763   2.306   1.907  0.2771 -0.7506 -0.2572
 2409SOL     MW 9636   0.697   2.360   1.892  0.5987 -0.2791  0.0093
 2410SOL     OW 9637   4.537   2.207   2.425 -0.1313  0.3412  0.8509
 2410SOL    HW1 9638   4.499   2.252   2.350 -0.9819  0.4307  1.3305
 2410SOL    HW2 9639   4.462   2.173   2.474  0.4324 -0.1550  1.3918
 2410SOL     MW 9640   4.523   2.208   2.421 -0.1680  0.2891  0.9815
 2411SOL     OW 9641   5.405   3.052   0.212  0.1464 -0.4718  0.6646
 2411SOL    HW1 9642   5.379   3.121   0.152  0.0438 -1.5935 -0.6200
 2411SOL    HW2 9643   5.326   3.031   0.261 -0.1202 -0.4938  0.2240
 2411SOL     MW 9644   5.392   3.058   0.211  0.0991 -0.6182  0.4437
 2412SOL     OW 9645   5.103   3.197   5.501 -0.2963 -0.1437  0.1263
 2412SOL    HW1 9646   5.115   3.103   5.489  2.3762  0.0889  0.4126
 2412SOL    HW2 9647   5.083   3.230   5.414  1.7130 -0.6595 -0.5953
 2412SOL     MW 9648   5.102   3.189   5.489  0.3031 -0.1799  0.0706
 2413SOL     OW 9649   5.370   0.124   1.206  0.3393 -0.0054 -0.6182
 2413SOL    HW1 9650   5.408   0.193   1.261 -3.0061 -0.3785  2.4945
 2413SOL    HW2 9651   5.418   0.045   1.230  0.6759  0.3086 -0.2453
 2413SOL     MW 9652   5.381   0.123   1.216 -0.0459 -0.0130 -0.1720
 2414SOL     OW 9653   2.499   4.957   4.708  0.2674 -0.0650  0.0235
 2414SOL    HW1 9654   2.513   5.012   4.630  1.5113  0.6023  0.6868
 2414SOL    HW2 9655   2.419   4.991   4.747 -0.7217 -0.7959 -1.2500
 2414SOL     MW 9656   2.490   4.968   4.703  0.3000 -0.0732 -0.0546
 2415SOL     OW 9657   2.280   0.344   0.945  0.7958 -0.2863  0.4186
 2415SOL    HW1 9658   2.345   0.414   0.940 -2.0809  3.0491  3.7247
 2415SOL    HW2 9659   2.197   0.386   0.925 -1.1875 -2.5630  2.9560
 2415SOL     MW 9660   2.278   0.358   0.942  0.1737 -0.1508  1.1667
 2416SOL     OW 9661   1.882   4.430   5.386  0.3576 -0.2415 -0.2618
 2416SOL    HW1 9662   1.811   4.493   5.389  0.2582 -0.3587 -0.1755
 2416SOL    HW2 9663   1.922   4.434   5.473  0.3219 -0.3326 -0.2414
 2416SOL     MW 9664   1.878   4.439   5.397  0.3403 -0.2682 -0.2481
 2417SOL     OW 9665   3.185   5.182   3.583 -0.5411  0.4787 -0.4638
 2417SOL    HW1 9666   3.214   5.123   3.513 -1.2325  0.7687 -1.0051
 2417SOL    HW2 9667   3.109   5.138   3.621 -1.1649  1.0779 -0.9803
 2417SOL     MW 9668   3.179   5.169   3.579 -0.7095  0.5926 -0.5992
 2418SOL     OW 9669   2.859   3.976   1.397  0.0335 -0.0465 -0.1890
 2418SOL    HW1 9670   2.939   4.010   1.436  0.2378  0.8647 -1.3639
 2418SOL    HW2 9671   2.816   3.928   1.468  0.2409  1.7994  1.2581
 2418SOL     MW 9672   2.864   3.974   1.411  0.0862  0.3065 -0.1542
 2419SOL     OW 9673   0.923   4.238   1.382 -0.5506  0.3042  0.4208
 2419SOL    HW1 9674   0.923   4.219   1.288 -0.6065  1.1627  0.2403
 2419SOL    HW2 9675   0.896   4.156   1.423  1.5694 -0.7688 -0.1680
 2419SOL     MW 9676   0.920   4.225   1.375 -0.2864  0.2768  0.3223
 2420SOL     OW 9677   2.292   0.323   1.708  0.0140  0.0322  0.2348
 2420SOL    HW1 9678   2.341   0.385   1.762  0.4414  0.0841 -0.2094
 2420SOL    HW2 9679   2.307   0.351   1.618  1.8207 -1.8129 -0.1235
 2420SOL     MW 9680   2.300   0.334   1.704  0.3000 -0.1974  0.1321
 2421SOL     OW 9681   2.434   2.070   3.217 -0.4914 -0.2557 -0.4009
 2421SOL    HW1 9682   2.488   1.992   3.232 -0.1694  0.1091  0.3706
 2421SOL    HW2 9683   2.413   2.066   3.124  1.8030  0.1706 -1.0192
 2421SOL     MW 9684   2.439   2.059   3.207 -0.1565 -0.1544 -0.3813
 2422SOL     OW 9685   3.398   3.911   2.097 -0.6907 -0.3690  0.3816
 2422SOL    HW1 9686   3.410   3.824   2.059  1.8212  0.5907 -1.3215
 2422SOL    HW2 9687   3.475   3.923   2.154 -0.5144  1.0225 -0.0953
 2422SOL     MW 9688   3.410   3.902   2.099 -0.3466 -0.0681  0.1025
 2423SOL     OW 9689   3.033   1.572   3.460 -0.1312  0.7054 -0.1710
 2423SOL    HW1 9690   3.015   1.479   3.446 -0.9244  0.7938  0.2074
 2423SOL    HW2 9691   2.966   1.601   3.523  2.2237  0.7093  2.5637
 2423SOL     MW 9692   3.022   1.564   3.466  0.0687  0.7172  0.2275
 2424SOL     OW 9693   0.987   0.317   3.006 -0.3169 -0.5759 -0.0986
 2424SOL    HW1 9694   1.063   0.375   2.995 -1.2988  1.0546  1.2024
 2424SOL    HW2 9695   0.912   0.375   2.992 -1.3327 -1.8795 -0.1527
 2424SOL     MW 9696   0.987   0.332   3.003 -0.5726 -0.5340  0.0610
 2425SOL     OW 9697   3.615   4.198   1.300  0.4896 -0.0960 -0.1923
 2425SOL    HW1 9698   3.628   4.103   1.310  1.4958  0.2104  2.0341
 2425SOL    HW2 9699   3.688   4.226   1.246  0.0037 -0.6203 -1.1427
 2425SOL     MW 9700   3.626   4.189   1.295  0.5562 -0.1239 -0.0290
 2426SOL     OW 9701   4.047   3.275   1.629 -0.2848 -0.0061  0.1575
 2426SOL    HW1 9702   3.985   3.216   1.672  0.2771 -1.6248 -1.1414
 2426SOL    HW2 9703   4.087   3.222   1.560  0.0215  1.9957 -1.3126
 2426SOL     MW 9704   4.044   3.261   1.626 -0.1737  0.0429 -0.1970
 2427SOL     OW 9705   2.983   3.800   1.212 -0.1574  0.5552  0.2843
 2427SOL    HW1 9706   3.042   3.768   1.280  0.6344  1.5335  0.0758
 2427SOL    HW2 9707   2.919   3.854   1.260  1.0661  2.1698  0.1473
 2427SOL     MW 9708   2.982   3.803   1.227  0.1006  0.8871  0.2401
 2428SOL     OW 9709   4.101   0.626   0.564 -0.0677  0.2995 -0.4746
 2428SOL    HW1 9710   4.047   0.547   0.559 -0.7894  0.7752 -0.3805
 2428SOL    HW2 9711   4.180   0.604   0.515 -0.1747 -0.5449 -0.2895
 2428SOL     MW 9712   4.104   0.613   0.557 -0.1738  0.2523 -0.4388
 2429SOL     OW 9713   0.491   2.508   4.405 -0.0492 -0.3213 -0.2115
 2429SOL    HW1 9714   0.491   2.414   4.425 -2.9078 -0.4725 -0.4757
 2429SOL    HW2 9715   0.513   2.513   4.312 -0.1238 -0.7538 -0.2531
 2429SOL     MW 9716   0.493   2.497   4.395 -0.4247 -0.3960 -0.2507
 2430SOL     OW 9717   4.777   0.964   4.070  0.6545 -0.1022 -0.2642
 2430SOL    HW1 9718   4.830   1.004   4.140  1.2466 -1.1046 -0.1118
 2430SOL    HW2 9719   4.840   0.913   4.020  0.0481 -0.1987 -0.9298
 2430SOL     MW 9720   4.792   0.963   4.073  0.6526 -0.2429 -0.3299
 2431SOL     OW 9721   4.859   2.862   0.472 -0.0310  0.3649  0.0101
 2431SOL    HW1 9722   4.861   2.781   0.420  0.1725  0.2867  0.1358
 2431SOL    HW2 9723   4.886   2.930   0.411 -1.4214  0.5404 -0.4368
 2431SOL     MW 9724   4.863   2.860   0.458 -0.1830  0.3773 -0.0311
 2432SOL     OW 9725   3.950   0.689   1.596 -0.2317  0.0768 -0.4081
 2432SOL    HW1 9726   4.026   0.630   1.598  0.3554  0.7793 -1.2080
 2432SOL    HW2 9727   3.917   0.689   1.686  0.8371 -0.0893 -0.0051
 2432SOL     MW 9728   3.956   0.681   1.608 -0.0198  0.1454 -0.4589
 2433SOL     OW 9729   5.120   5.282   4.033 -0.2466  0.1037 -0.1575
 2433SOL    HW1 9730   5.092   5.251   4.120  0.6253  0.2183  0.1723
 2433SOL    HW2 9731   5.070   5.228   3.972  0.6612 -1.4571  0.4060
 2433SOL     MW 9732   5.110   5.271   4.036 -0.0188 -0.0814 -0.0431
 2434SOL     OW 9733   3.838   2.697   4.547  0.4696 -0.0051  0.3848
 2434SOL    HW1 9734   3.829   2.602   4.535 -0.5959  0.1414 -0.0267
 2434SOL    HW2 9735   3.864   2.707   4.638  0.2311 -0.6770  0.5354
 2434SOL     MW 9736   3.840   2.686   4.557  0.3027 -0.0724  0.3514
 2435SOL     OW 9737   0.431   1.916   3.566  0.1138 -0.0976  0.0625
 2435SOL    HW1 9738   0.497   1.886   3.628 -0.9881 -0.2571  1.2223
 2435SOL    HW2 9739   0.382   1.983   3.614 -1.0120 -0.5033 -0.4759
 2435SOL     MW 9740   0.433   1.921   3.580 -0.1714 -0.1699  0.1421
 2436SOL     OW 9741   1.142   3.455   0.965 -0.1333  0.3318  0.5366
 2436SOL    HW1 9742   1.084   3.395   1.013  0.8003 -0.4212  0.7535
 2436SOL    HW2 9743   1.131   3.539   1.008  0.8351 -0.3698  2.2493
 2436SOL     MW 9744   1.133   3.458   0.976  0.1102  0.1456  0.7836
 2437SOL     OW 9745   0.401   1.599   1.537 -0.3334 -0.4219  0.1082
 2437SOL    HW1 9746   0.424   1.591   1.444 -0.7156 -0.9314  0.0555
 2437SOL    HW2 9747   0.485   1.591   1.583 -0.0181  0.7466 -0.2275
 2437SOL     MW 9748   0.415   1.597   1.531 -0.3420 -0.3375  0.0585
 2438SOL     OW 9749   3.476   1.306   3.500  0.3520 -0.7182 -0.1330
 2438SOL    HW1 9750   3.384   1.284   3.485  0.6572 -1.5485 -0.8953
 2438SOL    HW2 9751   3.496   1.371   3.433  0.0755  0.1670  0.6335
 2438SOL     MW 9752   3.467   1.311   3.490  0.3557 -0.7112 -0.1325
 2439SOL     OW 9753   1.086   1.134   4.963 -0.0284 -0.2319  0.3930
 2439SOL    HW1 9754   0.993   1.139   4.939  0.0286 -2.4817 -0.5687
 2439SOL    HW2 9755   1.086   1.114   5.056 -0.4294  1.2500  0.7432
 2439SOL     MW 9756   1.074   1.132   4.972 -0.0724 -0.3302  0.3148
 2440SOL     OW 9757   0.579   1.122   0.380 -0.5764 -0.3075  0.3540
 2440SOL    HW1 9758   0.588   1.142   0.473 -0.2206 -0.2340  0.3058
 2440SOL    HW2 9759   0.653   1.064   0.361 -1.3038 -1.2761  0.3820
 2440SOL     MW 9760   0.589   1.117   0.390 -0.6239 -0.4221  0.3515
 2441SOL     OW 9761   5.001   4.147   5.347  0.6328  0.0138 -0.4138
 2441SOL    HW1 9762   5.006   4.097   5.266 -0.1318 -1.7016  0.5476
 2441SOL    HW2 9763   4.909   4.138   5.375  1.3856 -1.5805  1.8893
 2441SOL     MW 9764   4.990   4.140   5.341  0.6313 -0.4099  0.0041
 2442SOL     OW 9765   2.868   2.501   0.300 -0.1020  0.0223  0.1515
 2442SOL    HW1 9766   2.914   2.528   0.380 -1.1088  0.2894  0.6644
 2442SOL    HW2 9767   2.855   2.407   0.311  0.6084 -0.1130 -0.1499
 2442SOL     MW 9768   2.872   2.492   0.312 -0.1400  0.0392  0.1786
 2443SOL     OW 9769   1.760   0.387   0.198  0.3067  0.0133 -0.5153
 2443SOL    HW1 9770   1.671   0.388   0.233  0.5321  1.2402  0.0593
 2443SOL    HW2 9771   1.763   0.308   0.143 -0.6310 -0.9181  0.7139
 2443SOL     MW 9772   1.749   0.377   0.195  0.2155  0.0511 -0.2844
 2444SOL     OW 9773   1.117   1.552   5.478 -0.3331 -0.7580  0.4059
 2444SOL    HW1 9774   1.177   1.556   5.403  0.5185  0.0733  1.1177
 2444SOL    HW2 9775   1.068   1.471   5.464  0.6091 -1.2088 -0.4527
 2444SOL     MW 9776   1.118   1.542   5.467 -0.1035 -0.7093  0.3871
 2445SOL     OW 9777   4.333   0.573   0.832  0.1204 -0.0134  0.3094
 2445SOL    HW1 9778   4.282   0.651   0.856  1.5593  1.3530 -0.9011
 2445SOL    HW2 9779   4.302   0.550   0.745 -0.2899 -0.8075  0.6596
 2445SOL     MW 9780   4.322   0.580   0.824  0.2520  0.0599  0.1993
 2446SOL     OW 9781   2.245   2.580   0.992 -0.1948  0.1146  0.0206
 2446SOL    HW1 9782   2.325   2.565   1.043 -0.3936 -1.0391  0.0213
 2446SOL    HW2 9783   2.174   2.572   1.055 -0.4123 -0.8202 -0.3143
 2446SOL     MW 9784   2.246   2.577   1.006 -0.2481 -0.1528 -0.0222
 2447SOL     OW 9785   4.015   2.865   3.696 -0.4711 -0.2263  0.0769
 2447SOL    HW1 9786   3.954   2.932   3.666  0.2663  0.1910 -0.5269
 2447SOL    HW2 9787   4.018   2.801   3.624 -2.6149 -1.9533  1.4063
 2447SOL     MW 9788   4.008   2.865   3.683 -0.6511 -0.3939  0.1697
 2448SOL     OW 9789   4.545   3.072   0.323 -0.5991 -0.6674 -0.2343
 2448SOL    HW1 9790   4.501   3.105   0.244  0.7247  0.9800 -0.3457
 2448SOL    HW2 9791   4.596   3.147   0.355 -0.5861 -1.4855  1.8321
 2448SOL     MW 9792   4.546   3.086   0.317 -0.4280 -0.5612  0.0160
 2449SOL     OW 9793   5.041   2.484   0.057  0.1730  0.3550  0.0431
 2449SOL    HW1 9794   5.116   2.443   0.014 -1.0313 -3.4680  1.2420
 2449SOL    HW2 9795   5.078   2.529   0.133  1.4126 -0.0636 -0.2893
 2449SOL     MW 9796   5.055   2.485   0.061  0.1775 -0.1880  0.1540
 2450SOL     OW 9797   1.944   4.312   3.429  0.8333  0.0167  0.3068
 2450SOL    HW1 9798   2.002   4.240   3.406  2.0869  1.0582  0.0809
 2450SOL    HW2 9799   1.889   4.324   3.352  0.9565 -0.3721  0.1557
 2450SOL     MW 9800   1.945   4.304   3.416  1.0096  0.1003  0.2585
 2451SOL     OW 9801   4.201   5.406   3.500  0.3112 -0.0510  0.6447
 2451SOL    HW1 9802   4.106   5.395   3.498  0.2294  0.6648  0.3796
 2451SOL    HW2 9803   4.235   5.327   3.456 -0.0477 -1.2977  2.4692
 2451SOL     MW 9804   4.193   5.394   3.494  0.2548 -0.1190  0.8443
 2452SOL     OW 9805   2.624   3.985   2.170  0.0315 -0.4496  0.3159
 2452SOL    HW1 9806   2.621   3.956   2.261 -0.0660 -2.6082 -0.3112
 2452SOL    HW2 9807   2.697   4.047   2.167  0.9321 -1.3970  1.5881
 2452SOL     MW 9808   2.633   3.989   2.181  0.1343 -0.8472  0.3985
 2453SOL     OW 9809   0.091   4.529   2.031 -0.6351  0.3856 -0.5017
 2453SOL    HW1 9810   0.128   4.512   2.118 -0.5054  1.0308 -0.4275
 2453SOL    HW2 9811   0.165   4.522   1.971 -0.5422  0.8835 -0.4470
 2453SOL     MW 9812   0.105   4.526   2.035 -0.6066  0.5319 -0.4852
 2454SOL     OW 9813   4.113   2.439   3.484  0.3494 -0.1385 -0.8041
 2454SOL    HW1 9814   4.115   2.430   3.580  0.6372 -0.4332 -0.8381
 2454SOL    HW2 9815   4.201   2.416   3.456  0.7186  1.4272 -1.0221
 2454SOL     MW 9816   4.124   2.435   3.493  0.4335  0.0242 -0.8364
 2455SOL     OW 9817   2.629   1.375   0.835 -0.3967 -0.1999  0.0736
 2455SOL    HW1 9818   2.616   1.286   0.802  0.6816 -0.3870  0.1316
 2455SOL    HW2 9819   2.558   1.388   0.898 -0.5045 -1.0498  0.1342
 2455SOL     MW 9820   2.618   1.365   0.839 -0.2724 -0.3326  0.0888
 2456SOL     OW 9821   4.017   0.305   2.629  0.1534  0.1779  0.0374
 2456SOL    HW1 9822   3.950   0.263   2.575  0.1254  0.1309  0.1071
 2456SOL    HW2 9823   4.007   0.263   2.715  0.3413  0.0968  0.0196
 2456SOL     MW 9824   4.007   0.294   2.633  0.1738  0.1615  0.0440
 2457SOL     OW 9825   0.273   1.087   5.150  0.2321  0.3098 -0.5284
 2457SOL    HW1 9826   0.326   1.081   5.230  1.0362  3.0934 -0.7540
 2457SOL    HW2 9827   0.188   1.121   5.180 -0.1980 -0.6585 -0.6212
 2457SOL     MW 9828   0.269   1.091   5.164  0.2800  0.5422 -0.5692
 2458SOL     OW 9829   1.959   2.996   1.587 -0.6281  0.1594  0.0405
 2458SOL    HW1 9830   1.993   3.048   1.514 -0.3387  0.2067  0.2096
 2458SOL    HW2 9831   1.888   2.944   1.548 -0.2952 -0.0150 -0.3377
 2458SOL     MW 9832   1.954   2.996   1.572 -0.5484  0.1431  0.0137
 2459SOL     OW 9833   1.672   1.150   0.129 -0.0878  0.0870  0.1151
 2459SOL    HW1 9834   1.750   1.097   0.110  0.3602  0.6788  0.2772
 2459SOL    HW2 9835   1.621   1.148   0.048 -0.2738 -0.9204  0.2431
 2459SOL     MW 9836   1.675   1.143   0.116 -0.0543  0.0338  0.1522
 2460SOL     OW 9837   2.323   5.358   5.445 -0.3280 -0.1493 -0.0773
 2460SOL    HW1 9838   2.376   5.428   5.483 -2.2500  2.8048 -2.3716
 2460SOL    HW2 9839   2.237   5.368   5.486 -0.3928 -2.0259  0.3730
 2460SOL     MW 9840   2.319   5.368   5.455 -0.5824 -0.0114 -0.3133
 2461SOL     OW 9841   4.165   4.839   0.868 -0.1302 -0.2084  0.3103
 2461SOL    HW1 9842   4.165   4.805   0.778 -2.5564  2.0149 -0.6403
 2461SOL    HW2 9843   4.232   4.907   0.868 -0.4200  0.0834  0.0294
 2461SOL     MW 9844   4.173   4.843   0.856 -0.4779  0.1136  0.1527
 2462SOL     OW 9845   0.179   2.124   3.442  0.6364 -0.1552 -0.1008
 2462SOL    HW1 9846   0.244   2.189   3.466 -0.3659  0.1759  1.9362
 2462SOL    HW2 9847   0.125   2.166   3.376  0.6476  0.6950  0.4261
 2462SOL     MW 9848   0.181   2.137   3.437  0.5095 -0.0040  0.2274
 2463SOL     OW 9849   3.225   0.084   0.816  0.6119  0.2181  0.2936
 2463SOL    HW1 9850   3.173   0.164   0.816  0.6414  0.2579  1.3954
 2463SOL    HW2 9851   3.164   0.016   0.786  0.6490  0.6681 -0.8483
 2463SOL     MW 9852   3.210   0.085   0.812  0.6205  0.2808  0.2885
 2464SOL     OW 9853   1.303   0.768   2.914  0.4100  0.1066 -0.5994
 2464SOL    HW1 9854   1.248   0.758   2.835  0.6262  0.0336 -0.7399
 2464SOL    HW2 9855   1.391   0.785   2.880  0.6424 -0.6191 -0.3728
 2464SOL     MW 9856   1.307   0.769   2.899  0.4674  0.0044 -0.5884
 2465SOL     OW 9857   1.843   2.413   0.479  0.0473  0.1475  0.2218
 2465SOL    HW1 9858   1.816   2.384   0.567 -0.4371 -0.0337  0.0169
 2465SOL    HW2 9859   1.862   2.506   0.489  0.4232  0.0325  0.6166
 2465SOL     MW 9860   1.842   2.421   0.492  0.0334  0.1096  0.2461
 2466SOL     OW 9861   0.821   4.868   3.641 -0.2432  0.1681 -0.4657
 2466SOL    HW1 9862   0.786   4.813   3.571 -0.9077  0.4206 -0.3397
 2466SOL    HW2 9863   0.890   4.919   3.598 -0.8108  0.4998 -1.0098
 2466SOL     MW 9864   0.825   4.868   3.627 -0.4009  0.2429 -0.5192
 2467SOL     OW 9865   0.155   3.170   0.509 -0.4973 -0.0586  0.4133
 2467SOL    HW1 9866   0.060   3.164   0.516 -0.5538 -0.6445 -0.7367
 2467SOL    HW2 9867   0.171   3.196   0.419  0.4129  1.0663  0.8771
 2467SOL     MW 9868   0.145   3.173   0.499 -0.3881  0.0104  0.3255
 2468SOL     OW 9869   0.377   3.973   2.305 -0.1804  0.5655 -0.8036
 2468SOL    HW1 9870   0.298   3.950   2.256  0.0189  1.1436 -1.4164
 2468SOL    HW2 9871   0.351   4.047   2.360 -0.6368 -0.6177  0.6523
 2468SOL     MW 9872   0.363   3.979   2.306 -0.2133  0.4881 -0.6957
 2469SOL     OW 9873   4.917   4.663   1.197 -0.1083  0.0572  0.2957
 2469SOL    HW1 9874   4.858   4.640   1.269  0.7387  0.9488  1.3226
 2469SOL    HW2 9875   4.985   4.595   1.199  0.7577  0.9096  1.3830
 2469SOL     MW 9876   4.918   4.652   1.207  0.1110  0.2805  0.5664
 2470SOL     OW 9877   2.433   4.917   4.323  0.4652 -0.0248 -0.2876
 2470SOL    HW1 9878   2.360   4.864   4.290 -0.3167  0.6768  0.2614
 2470SOL    HW2 9879   2.481   4.858   4.381 -2.4623  0.7165  3.2319
 2470SOL     MW 9880   2.430   4.903   4.326 -0.0097  0.1599  0.2332
 2471SOL     OW 9881   0.319   4.054   1.178  0.1234  0.0450 -0.3407
 2471SOL    HW1 9882   0.359   4.021   1.259  0.8518 -1.1908 -1.1893
 2471SOL    HW2 9883   0.257   4.120   1.209 -0.5043 -1.2383  1.3360
 2471SOL     MW 9884   0.316   4.058   1.193  0.1363 -0.2775 -0.2347
 2472SOL     OW 9885   0.475   2.120   2.047 -0.1239  0.0182 -0.2520
 2472SOL    HW1 9886   0.546   2.057   2.051 -0.2154 -0.0305  1.1783
 2472SOL    HW2 9887   0.486   2.164   1.962  1.4568 -0.1513 -0.1610
 2472SOL     MW 9888   0.486   2.118   2.036  0.0667 -0.0098 -0.0572
 2473SOL     OW 9889   0.972   0.589   4.528  0.1620 -0.1805 -0.8440
 2473SOL    HW1 9890   1.030   0.629   4.593  0.1073 -0.0390 -0.8833
 2473SOL    HW2 9891   1.018   0.599   4.445 -0.4009  0.9030 -1.0456
 2473SOL     MW 9892   0.985   0.595   4.526  0.0829 -0.0237 -0.8749
 2474SOL     OW 9893   5.151   4.491   4.496  0.3694  0.1987 -0.3472
 2474SOL    HW1 9894   5.198   4.503   4.579  1.9471  0.9325 -1.3072
 2474SOL    HW2 9895   5.128   4.580   4.469 -0.1653 -0.0377 -0.6854
 2474SOL     MW 9896   5.154   4.504   4.503  0.5029  0.2624 -0.5134
 2475SOL     OW 9897   0.309   3.419   2.789 -0.4502  0.2371 -0.2155
 2475SOL    HW1 9898   0.255   3.369   2.728 -0.6525 -0.6992  0.7096
 2475SOL    HW2 9899   0.371   3.355   2.825 -1.5885  0.2940  1.9942
 2475SOL     MW 9900   0.310   3.405   2.786 -0.6218  0.1245  0.1858
 2476SOL     OW 9901   5.112   3.803   1.021  0.5735  0.1034 -0.0852
 2476SOL    HW1 9902   5.026   3.779   0.984  1.1376 -1.7614 -0.2873
 2476SOL    HW2 9903   5.165   3.725   1.009  1.4539  0.1749  2.7260
 2476SOL     MW 9904   5.108   3.790   1.015  0.7584 -0.1262  0.2488
 2477SOL     OW 9905   0.359   2.790   2.700  0.0428 -0.4065 -0.0974
 2477SOL    HW1 9906   0.437   2.735   2.695 -0.1078 -0.6013 -0.2990
 2477SOL    HW2 9907   0.286   2.729   2.707  0.0378 -0.2214  2.4418
 2477SOL     MW 9908   0.360   2.775   2.700  0.0229 -0.4078  0.2018
 2478SOL     OW 9909   4.341   1.363   1.955  0.1684 -0.1979 -0.1188
 2478SOL    HW1 9910   4.390   1.419   2.015  0.7092 -0.1134 -0.6245
 2478SOL    HW2 9911   4.320   1.420   1.881 -1.4066 -0.0160  0.4357
 2478SOL     MW 9912   4.344   1.377   1.953  0.0360 -0.1638 -0.1126
 2479SOL     OW 9913   2.496   2.463   3.098  0.4422  0.0673  0.4808
 2479SOL    HW1 9914   2.578   2.511   3.109  0.3011 -0.0040  2.0161
 2479SOL    HW2 9915   2.522   2.379   3.061  0.6929  1.2504 -2.3111
 2479SOL     MW 9916   2.510   2.459   3.094  0.4563  0.2096  0.3199
 2480SOL     OW 9917   3.437   4.380   5.129  0.1557  0.2188 -0.0581
 2480SOL    HW1 9918   3.345   4.405   5.129 -0.2667 -1.2416  0.3800
 2480SOL    HW2 9919   3.470   4.411   5.214 -0.0487  0.3616 -0.0310
 2480SOL     MW 9920   3.430   4.387   5.140  0.0754  0.0501  0.0015
 2481SOL     OW 9921   2.692   0.279   3.660 -0.5792  0.0921 -0.0660
 2481SOL    HW1 9922   2.684   0.184   3.653  1.3295 -0.1359  0.3914
 2481SOL    HW2 9923   2.652   0.312   3.579 -1.5699 -1.0595 -0.0735
 2481SOL     MW 9924   2.686   0.271   3.649 -0.4617 -0.0845 -0.0084
 2482SOL     OW 9925   1.934   3.098   5.085  0.4605  1.0767  0.1635
 2482SOL    HW1 9926   2.024   3.129   5.076  0.8202  0.5968  1.7291
 2482SOL    HW2 9927   1.880   3.176   5.070  1.1457  1.4379 -0.4517
 2482SOL     MW 9928   1.938   3.112   5.082  0.5942  1.0615  0.2851
 2483SOL     OW 9929   1.537   4.140   5.370 -0.1043  0.0145  0.1847
 2483SOL    HW1 9930   1.619   4.154   5.418 -1.0249 -0.0479  1.8603
 2483SOL    HW2 9931   1.530   4.215   5.311  1.4319 -0.2836 -0.4138
 2483SOL     MW 9932   1.547   4.151   5.368 -0.0255 -0.0317  0.3226
 2484SOL     OW 9933   5.235   3.363   5.057  0.4061  0.1140 -0.0102
 2484SOL    HW1 9934   5.219   3.393   4.967  1.2295 -0.2753 -0.3025
 2484SOL    HW2 9935   5.314   3.410   5.084 -0.3771  0.9665  0.8829
 2484SOL     MW 9936   5.243   3.373   5.049  0.4113  0.1733  0.0667
 2485SOL     OW 9937   3.074   0.379   3.694 -0.2961  0.0054 -0.7757
 2485SOL    HW1 9938   3.026   0.318   3.638  0.7758 -2.2144  0.6162
 2485SOL    HW2 9939   3.045   0.358   3.783  1.0032  0.7222 -0.1617
 2485SOL     MW 9940   3.064   0.369   3.698  0.0074 -0.1870 -0.5189
 2486SOL     OW 9941   2.939   0.149   2.994 -0.0100  0.2384  0.0557
 2486SOL    HW1 9942   2.950   0.188   3.080  0.8261 -0.7510  0.4273
 2486SOL    HW2 9943   2.860   0.189   2.958 -0.0923  1.0147  1.0810
 2486SOL     MW 9944   2.931   0.159   3.000  0.0865  0.2111  0.2345
 2487SOL     OW 9945   1.655   0.320   1.532 -0.3976 -0.2749 -0.3530
 2487SOL    HW1 9946   1.725   0.330   1.596 -0.6274 -0.3542 -0.0820
 2487SOL    HW2 9947   1.683   0.248   1.476 -0.8961 -1.2683  0.6311
 2487SOL     MW 9948   1.667   0.312   1.533 -0.4908 -0.4122 -0.1923
 2488SOL     OW 9949   3.158   2.382   1.354  0.2221  0.4930 -0.0088
 2488SOL    HW1 9950   3.148   2.350   1.264  0.8758  0.9784 -0.2609
 2488SOL    HW2 9951   3.232   2.332   1.388  1.1272  1.5655 -0.3412
 2488SOL     MW 9952   3.167   2.371   1.346  0.4216  0.6925 -0.0836
 2489SOL     OW 9953   4.895   4.835   3.575 -0.3469  0.0723 -0.2720
 2489SOL    HW1 9954   4.921   4.747   3.602  0.1231 -0.4005 -2.1471
 2489SOL    HW2 9955   4.823   4.821   3.514 -1.2922  1.1015  0.5526
 2489SOL     MW 9956   4.889   4.822   3.571 -0.4077  0.1435 -0.4065
 2490SOL     OW 9957   2.319   0.242   0.414  0.0397 -0.6176  0.4150
 2490SOL    HW1 9958   2.267   0.288   0.480  0.5716  0.3626  0.1731
 2490SOL    HW2 9959   2.255   0.192   0.363 -0.7583  0.9464 -0.1935
 2490SOL     MW 9960   2.304   0.241   0.416  0.0057 -0.2919  0.3062
 2491SOL     OW 9961   2.452   1.153   1.240  0.4102 -0.4081 -0.0710
 2491SOL    HW1 9962   2.405   1.146   1.157  2.0138  0.4264 -1.1004
 2491SOL    HW2 9963   2.509   1.076   1.242  0.6729 -0.2110  0.0680
 2491SOL     MW 9964   2.453   1.142   1.230  0.6491 -0.2761 -0.1850
 2492SOL     OW 9965   1.398   0.820   3.167 -0.1754 -0.3271  0.1187
 2492SOL    HW1 9966   1.351   0.816   3.084 -0.5566  0.2947  0.2948
 2492SOL    HW2 9967   1.426   0.911   3.175  0.9523 -0.6591  0.0830
 2492SOL     MW 9968   1.396   0.831   3.158 -0.0798 -0.2900  0.1367
 2493SOL     OW 9969   5.381   3.270   0.549 -0.1607  0.5055 -0.4009
 2493SOL    HW1 9970   5.325   3.214   0.496 -0.6154 -1.2699  1.8343
 2493SOL    HW2 9971   5.323   3.337   0.583 -0.3438  0.3005 -0.3098
 2493SOL     MW 9972   5.367   3.271   0.546 -0.2424  0.2520 -0.1031
 2494SOL     OW 9973   0.176   1.636   1.954  0.2659  0.2491  0.8632
 2494SOL    HW1 9974   0.097   1.666   1.910  0.1236 -1.5627 -0.1976
 2494SOL    HW2 9975   0.248   1.670   1.901  0.1292 -0.3635  0.2753
 2494SOL     MW 9976   0.175   1.644   1.942  0.2302 -0.0613  0.6522
 2495SOL     OW 9977   2.024   0.397   5.335 -0.0154  0.1922 -0.5753
 2495SOL    HW1 9978   2.015   0.483   5.293 -0.1401  0.7236  0.5127
 2495SOL    HW2 9979   2.103   0.359   5.296 -0.3338  0.4935 -1.5620
 2495SOL     MW 9980   2.033   0.403   5.324 -0.0721  0.2988 -0.5623
 2496SOL     OW 9981   0.715  -0.023   4.336 -0.2158  0.2450  0.0694
 2496SOL    HW1 9982   0.781   0.041   4.309 -1.3185  1.4366  0.0527
 2496SOL    HW2 9983   0.675   0.015   4.414  1.2150 -1.9687  1.9988
 2496SOL     MW 9984   0.718  -0.010   4.342 -0.1738  0.1141  0.3142
 2497SOL     OW 9985   3.638   2.353   3.128  0.2190 -0.3723 -0.2787
 2497SOL    HW1 9986   3.714   2.381   3.179  1.4033 -0.4119 -1.9766
 2497SOL    HW2 9987   3.563   2.376   3.184  1.4501 -2.5223  2.5527
 2497SOL     MW 9988   3.638   2.359   3.142  0.5282 -0.6526 -0.1336
 2498SOL     OW 9989   4.377   3.990   3.965  0.5060  0.3541 -0.4639
 2498SOL    HW1 9990   4.288   3.960   3.981  0.3545  1.3338  0.7010
 2498SOL    HW2 9991   4.428   3.909   3.954 -0.3292 -0.2407 -0.0797
 2498SOL     MW 9992   4.372   3.976   3.966  0.3797  0.4034 -0.2656
 2499SOL     OW 9993   1.648   0.626   4.400  0.1412 -0.6050  0.1577
 2499SOL    HW1 9994   1.575   0.597   4.346 -1.2387 -1.4427  2.3378
 2499SOL    HW2 9995   1.721   0.635   4.339 -1.1336 -2.1196 -1.7062
 2499SOL     MW 9996   1.648   0.624   4.385 -0.1986 -0.9061  0.1981
 2500SOL     OW 9997   1.330   1.191   0.300 -0.1367 -0.6110 -0.4433
 2500SOL    HW1 9998   1.336   1.285   0.285  2.1118 -0.7950 -1.0022
 2500SOL    HW2 9999   1.342   1.180   0.394  1.1071 -0.4170 -0.5707
 2500SOL     MW10000   1.332   1.201   0.310  0.3104 -0.6097 -0.5311
 2501SOL     OW10001   4.120   2.694   1.811 -0.5594 -0.6188 -0.2424
 2501SOL    HW110002   4.201   2.693   1.862 -1.2415 -0.0543  0.9063
 2501SOL    HW210003   4.131   2.768   1.751 -0.2881 -0.4364  0.0277
 2501SOL     MW10004   4.132   2.704   1.810 -0.6120 -0.5232 -0.0608
 2502SOL     OW10005   1.210   4.338   5.227  0.2637  0.0813  0.8188
 2502SOL    HW110006   1.210   4.302   5.315  0.2675 -1.8006  0.0855
 2502SOL    HW210007   1.123   4.378   5.219 -0.1056 -0.5829  1.3523
 2502SOL     MW10008   1.199   4.339   5.237  0.2169 -0.2446  0.7932
 2503SOL     OW10009   1.658   1.141   1.499  0.2824 -0.1297  0.5687
 2503SOL    HW110010   1.718   1.069   1.479  0.2798  0.0747 -0.2159
 2503SOL    HW210011   1.596   1.104   1.562  1.0503 -0.4312  1.1669
 2503SOL     MW10012   1.658   1.127   1.505  0.3803 -0.1421  0.5448
 2504SOL     OW10013   4.272   0.411   2.560 -0.4096 -0.4457 -0.4990
 2504SOL    HW110014   4.261   0.432   2.468 -0.0169  2.5170  0.0363
 2504SOL    HW210015   4.186   0.381   2.589 -0.7120 -0.7281 -1.6452
 2504SOL     MW10016   4.260   0.409   2.552 -0.3980 -0.1026 -0.5772
 2505SOL     OW10017   5.268   0.881   2.617 -0.1167  0.1710 -0.0397
 2505SOL    HW110018   5.247   0.836   2.535 -1.8667  1.6204 -0.4467
 2505SOL    HW210019   5.183   0.895   2.659  0.7507 -0.9520  2.3097
 2505SOL     MW10020   5.254   0.877   2.612 -0.2297  0.2128  0.2090
 2506SOL     OW10021   3.710   1.046   3.476  0.0099 -0.1073 -0.1752
 2506SOL    HW110022   3.647   1.048   3.404 -1.5044  0.0746  1.0908
 2506SOL    HW210023   3.655   1.039   3.554  1.5473  0.9317  1.0329
 2506SOL     MW10024   3.695   1.045   3.477  0.0128  0.0490  0.1415
 2507SOL     OW10025   0.975   3.025   0.840 -0.5293  0.1717  0.0562
 2507SOL    HW110026   0.957   2.937   0.873  0.5202 -0.1171 -0.0947
 2507SOL    HW210027   0.891   3.056   0.807 -1.0164 -0.5838  0.5557
 2507SOL     MW10028   0.962   3.018   0.840 -0.4573  0.0380  0.1008
 2508SOL     OW10029   1.942   3.620   0.665  0.0182  0.3592  0.3931
 2508SOL    HW110030   2.035   3.596   0.672 -0.1762 -0.3925  0.4710
 2508SOL    HW210031   1.910   3.619   0.755 -0.2690 -0.2370  0.2887
 2508SOL     MW10032   1.950   3.617   0.677 -0.0435  0.1866  0.3897
 2509SOL     OW10033   3.788   1.854   2.697 -0.4195 -0.0254  0.1069
 2509SOL    HW110034   3.781   1.893   2.610 -1.2355 -0.1918  0.0916
 2509SOL    HW210035   3.716   1.791   2.702  0.1852 -0.7125  0.5533
 2509SOL     MW10036   3.778   1.851   2.687 -0.4466 -0.1346  0.1621
 2510SOL     OW10037   2.835   4.023   4.478 -0.4169 -0.6887 -0.0943
 2510SOL    HW110038   2.810   4.110   4.444  1.1409 -0.0869  0.1996
 2510SOL    HW210039   2.896   4.042   4.549  0.1247 -2.0376 -0.1718
 2510SOL     MW10040   2.840   4.037   4.483 -0.1481 -0.7844 -0.0666
 2511SOL     OW10041   5.394   3.018   1.870 -0.1204  0.5560  0.0689
 2511SOL    HW110042   5.441   3.095   1.838  0.8689 -0.1243 -0.1498
 2511SOL    HW210043   5.339   3.051   1.941 -0.6117  1.6771 -0.7847
 2511SOL     MW10044   5.393   3.032   1.875 -0.0566  0.6124 -0.0684
 2512SOL     OW10045   3.752   5.384   0.219  0.2867  0.4951  0.1462
 2512SOL    HW110046   3.759   5.472   0.256  2.3915  1.8440 -2.9476
 2512SOL    HW210047   3.671   5.385   0.169 -1.4187 -0.5890  2.6851
 2512SOL     MW10048   3.743   5.395   0.217  0.3378  0.5290  0.0752
 2513SOL     OW10049   2.829   1.180   2.725 -0.2668  0.2469 -0.1184
 2513SOL    HW110050   2.866   1.165   2.812 -1.3893 -0.5885  0.2330
 2513SOL    HW210051   2.886   1.246   2.686  0.4483  0.3931  1.1246
 2513SOL     MW10052   2.841   1.186   2.731 -0.3190  0.1587  0.0857
 2514SOL     OW10053   2.462   0.495   2.449  0.1161  0.3489 -0.2319
 2514SOL    HW110054   2.397   0.499   2.519  0.9642  1.6561  0.5054
 2514SOL    HW210055   2.526   0.562   2.471  0.7317  0.3691 -1.9478
 2514SOL     MW10056   2.462   0.504   2.461  0.3035  0.5188 -0.3572
 2515SOL     OW10057   1.091   1.135   1.280 -0.1080 -0.0196  0.0892
 2515SOL    HW110058   1.164   1.194   1.299  0.2421  0.2686 -1.9528
 2515SOL    HW210059   1.134   1.053   1.255 -0.5514 -0.5255  0.9553
 2515SOL     MW10060   1.106   1.132   1.279 -0.1199 -0.0475 -0.0613
 2516SOL     OW10061   2.577   2.847   1.466 -0.3220  0.4213  0.3112
 2516SOL    HW110062   2.557   2.810   1.380 -1.0178  1.0672  0.1758
 2516SOL    HW210063   2.550   2.939   1.459  0.2721  0.6612  0.9991
 2516SOL     MW10064   2.571   2.854   1.454 -0.3350  0.5347  0.3819
 2517SOL     OW10065   1.770   4.597   2.019 -0.0605 -0.5592  0.4097
 2517SOL    HW110066   1.825   4.522   1.996  0.5408  0.6994 -2.8126
 2517SOL    HW210067   1.775   4.654   1.943 -3.0820  1.2820  1.4409
 2517SOL     MW10068   1.778   4.595   2.007 -0.3703 -0.1624  0.1292
 2518SOL     OW10069   1.000   4.899   5.024  0.3520 -0.1266  0.3203
 2518SOL    HW110070   0.953   4.978   4.998 -1.8759 -1.3801  0.1859
 2518SOL    HW210071   1.085   4.929   5.055 -0.4835  2.3110  0.4342
 2518SOL     MW10072   1.005   4.913   5.025 -0.0402  0.0249  0.3177
 2519SOL     OW10073   3.936   5.156   4.812  0.3165 -0.0466 -0.4323
 2519SOL    HW110074   3.893   5.231   4.854  0.4452  0.5348 -1.3061
 2519SOL    HW210075   3.905   5.158   4.722  1.3376 -0.2568 -0.8046
 2519SOL     MW10076   3.927   5.166   4.806  0.4637  0.0009 -0.5918
 2520SOL     OW10077   0.601   3.820   1.813  0.1810  0.3272 -0.5076
 2520SOL    HW110078   0.570   3.745   1.762  1.2173 -0.9590  0.6888
 2520SOL    HW210079   0.550   3.819   1.893  0.4884  0.6545 -0.2988
 2520SOL     MW10080   0.591   3.811   1.816  0.3530  0.2044 -0.3277
 2521SOL     OW10081   1.800   0.230   3.880  0.7217 -0.3849 -0.8015
 2521SOL    HW110082   1.796   0.189   3.966  1.3635  0.3902 -0.3930
 2521SOL    HW210083   1.870   0.184   3.834  1.3910  0.1928 -0.3700
 2521SOL     MW10084   1.808   0.219   3.885  0.8896 -0.2117 -0.6940
 2522SOL     OW10085   5.434   5.308   3.286 -0.8288  0.0754  0.2437
 2522SOL    HW110086   5.429   5.394   3.246  0.6869 -0.4336 -1.1832
 2522SOL    HW210087   5.382   5.252   3.228 -0.8269 -0.1928  0.4979
 2522SOL     MW10088   5.427   5.311   3.273 -0.6345 -0.0241  0.0936
 2523SOL     OW10089   4.253   4.360   0.341  0.3322  0.0180 -0.1627
 2523SOL    HW110090   4.311   4.390   0.270  0.8693 -0.0224  0.2540
 2523SOL    HW210091   4.194   4.434   0.356  2.2715  1.3419  1.5354
 2523SOL     MW10092   4.253   4.374   0.334  0.6492  0.1823  0.1080
 2524SOL     OW10093   3.922   4.185   1.633  0.5199 -0.5037 -0.1121
 2524SOL    HW110094   3.899   4.249   1.565  0.6582 -0.0218  0.2938
 2524SOL    HW210095   4.018   4.187   1.635  0.5035 -0.1278  0.4619
 2524SOL     MW10096   3.931   4.194   1.624  0.5355 -0.3939  0.0133
 2525SOL     OW10097   3.717   1.469   2.112 -0.2214  0.6442  0.4542
 2525SOL    HW110098   3.639   1.517   2.084 -0.4919 -0.1676 -0.1996
 2525SOL    HW210099   3.788   1.532   2.104 -0.1037  0.2643 -2.9185
 2525SOL     MW10100   3.716   1.483   2.108 -0.2410  0.4916 -0.0613
 2526SOL     OW10101   4.864   2.764   1.085 -0.0421  0.7329  0.1846
 2526SOL    HW110102   4.808   2.820   1.139  0.6740  2.0262 -0.3653
 2526SOL    HW210103   4.845   2.791   0.995  0.5280  0.3067 -0.0696
 2526SOL     MW10104   4.855   2.775   1.081  0.1226  0.8439  0.0817
 2527SOL     OW10105   3.482   0.455   0.983 -0.1830  0.6820  0.9927
 2527SOL    HW110106   3.525   0.370   0.979  0.8983  1.2240  0.9076
 2527SOL    HW210107   3.480   0.487   0.893 -0.9429  0.5862  0.9648
 2527SOL     MW10108   3.487   0.449   0.971 -0.1419  0.7391  0.9782
 2528SOL     OW10109   0.899   0.119   5.359  0.3661  0.3261  0.4653
 2528SOL    HW110110   0.981   0.168   5.354  0.3951  0.2541  0.1757
 2528SOL    HW210111   0.831   0.183   5.343  0.4338  0.1835 -0.4409
 2528SOL     MW10112   0.901   0.133   5.356  0.3785  0.2986  0.3122
 2529SOL     OW10113   1.170   5.379   4.337  0.9804 -0.0160 -0.3748
 2529SOL    HW110114   1.181   5.472   4.317  1.3078 -0.2784 -1.4902
 2529SOL    HW210115   1.128   5.377   4.423 -0.3887  1.1865 -0.9842
 2529SOL     MW10116   1.166   5.390   4.346  0.8471  0.1044 -0.5956
 2530SOL     OW10117   3.590   5.248   4.413  0.1551 -0.2276  0.3541
 2530SOL    HW110118   3.675   5.240   4.457  0.7421 -1.5851 -0.9314
 2530SOL    HW210119   3.545   5.166   4.433 -0.6699  0.2758  0.6106
 2530SOL     MW10120   3.595   5.237   4.421  0.1246 -0.3370  0.2224
 2531SOL     OW10121   1.279   3.697   0.831 -0.0580  0.3282  0.2746
 2531SOL    HW110122   1.308   3.658   0.749  0.6619  0.9903  0.2026
 2531SOL    HW210123   1.294   3.630   0.897 -0.3116 -0.0780 -0.0765
 2531SOL     MW10124   1.284   3.684   0.829  0.0017  0.3610  0.2204
 2532SOL     OW10125   1.362   3.299   5.418 -0.5151  0.2372 -0.1528
 2532SOL    HW110126   1.360   3.205   5.403 -3.0632  0.2523 -0.3341
 2532SOL    HW210127   1.367   3.337   5.330  0.8956  0.3221 -0.0662
 2532SOL     MW10128   1.362   3.292   5.405 -0.6607  0.2500 -0.1649
 2533SOL     OW10129   1.878   4.597   4.972 -0.1827 -0.7840 -0.7063
 2533SOL    HW110130   1.930   4.536   5.025 -0.5683 -1.8068 -1.4644
 2533SOL    HW210131   1.919   4.595   4.886  0.5278  0.9801 -0.4624
 2533SOL     MW10132   1.890   4.589   4.968 -0.1411 -0.6891 -0.7721
 2534SOL     OW10133   1.454   5.025   0.878  0.4336  0.7073 -0.2797
 2534SOL    HW110134   1.417   5.089   0.818  1.3829  3.1562  1.6010
 2534SOL    HW210135   1.408   5.040   0.961  1.7382 -0.0189  0.6074
 2534SOL     MW10136   1.443   5.035   0.881  0.7221  0.9278  0.0746
 2535SOL     OW10137   0.570   2.493   2.131  0.1295 -0.1150 -0.3834
 2535SOL    HW110138   0.623   2.481   2.052  0.7464 -1.0370  0.1591
 2535SOL    HW210139   0.544   2.405   2.156  0.5458  0.0995  0.8547
 2535SOL     MW10140   0.574   2.480   2.124  0.2618 -0.2055 -0.1554
 2536SOL     OW10141   3.308   1.105   2.291 -0.0082  0.4441  0.1742
 2536SOL    HW110142   3.266   1.053   2.221  1.0621 -0.9695  0.5373
 2536SOL    HW210143   3.373   1.046   2.329  0.4865  1.7072  1.3723
 2536SOL     MW10144   3.311   1.090   2.287  0.1922  0.4248  0.3741
 2537SOL     OW10145   2.840   3.127   3.665 -0.4157 -0.7418 -0.2676
 2537SOL    HW110146   2.863   3.070   3.592 -1.7310 -2.5170  0.6235
 2537SOL    HW210147   2.746   3.144   3.653 -0.2295  0.5411 -0.0300
 2537SOL     MW10148   2.831   3.122   3.654 -0.5603 -0.8048 -0.1231
 2538SOL     OW10149   0.855   2.346   3.309  0.7643 -0.3728  0.1451
 2538SOL    HW110150   0.800   2.329   3.233  0.1989 -0.5281  0.5782
 2538SOL    HW210151   0.907   2.423   3.285 -0.2551  0.3017  0.0423
 2538SOL     MW10152   0.855   2.353   3.296  0.5614 -0.3063  0.1874
 2539SOL     OW10153   3.834   2.174   0.626 -0.7553 -0.5212 -0.0148
 2539SOL    HW110154   3.825   2.263   0.659 -0.9911 -0.0711 -1.2199
 2539SOL    HW210155   3.928   2.164   0.609 -0.9034  0.0771 -1.3322
 2539SOL     MW10156   3.845   2.184   0.628 -0.8045 -0.3870 -0.3377
 2540SOL     OW10157   5.441   4.316   0.524 -0.4479 -0.1955 -0.2289
 2540SOL    HW110158   5.419   4.223   0.530  0.5284 -0.4057  0.2357
 2540SOL    HW210159   5.496   4.333   0.600 -1.3963  0.9954  0.2261
 2540SOL     MW10160   5.445   4.306   0.534 -0.4443 -0.0699 -0.1112
 2541SOL     OW10161   2.960   4.900   2.961 -0.3971  0.1409  0.2295
 2541SOL    HW110162   2.961   4.812   2.924 -0.9810 -0.2333  1.0758
 2541SOL    HW210163   3.050   4.932   2.950 -0.2069 -0.5229 -0.1625
 2541SOL     MW10164   2.972   4.893   2.955 -0.4475  0.0081  0.2876
 2542SOL     OW10165   3.137   2.183   4.170 -0.3367  0.0325 -0.0705
 2542SOL    HW110166   3.200   2.113   4.154 -1.4164 -0.8166 -0.7317
 2542SOL    HW210167   3.160   2.251   4.106  0.1966 -0.0590  0.0182
 2542SOL     MW10168   3.148   2.183   4.159 -0.4067 -0.0879 -0.1438
 2543SOL     OW10169   4.419   4.114   4.410  0.0185 -0.3319 -0.0932
 2543SOL    HW110170   4.452   4.119   4.499  0.3273  0.7879 -0.2561
 2543SOL    HW210171   4.494   4.084   4.358 -0.0286 -0.5367 -0.0417
 2543SOL     MW10172   4.433   4.111   4.415  0.0520 -0.2148 -0.1074
 2544SOL     OW10173   0.076   4.046   3.081  0.1444  0.8394  0.2925
 2544SOL    HW110174   0.117   4.002   3.156 -0.6123 -2.7881 -1.1704
 2544SOL    HW210175   0.139   4.034   3.010 -0.7241  0.8310 -0.4948
 2544SOL     MW10176   0.089   4.039   3.082 -0.0636  0.3740  0.0045
 2545SOL     OW10177   3.123   3.746   1.443 -0.2979 -0.2464  0.1993
 2545SOL    HW110178   3.085   3.783   1.522 -1.9586 -0.8642 -0.2623
 2545SOL    HW210179   3.166   3.665   1.472 -1.4354 -0.7941  0.3993
 2545SOL     MW10180   3.124   3.740   1.457 -0.6561 -0.3956  0.1658
 2546SOL     OW10181   0.603   5.333   4.750 -0.1986 -0.0052  0.1146
 2546SOL    HW110182   0.671   5.266   4.739 -0.4105 -0.3719  0.9229
 2546SOL    HW210183   0.521   5.284   4.746 -0.3217  0.0029  1.9305
 2546SOL     MW10184   0.601   5.318   4.748 -0.2415 -0.0511  0.4505
 2547SOL     OW10185   3.477   1.631   3.440  0.2636 -0.0281 -0.0308
 2547SOL    HW110186   3.432   1.713   3.460 -2.7616 -1.5105 -0.2698
 2547SOL    HW210187   3.480   1.584   3.524  0.4634 -0.3782 -0.2296
 2547SOL     MW10188   3.472   1.635   3.454 -0.0981 -0.2627 -0.0869
 2548SOL     OW10189   5.083   2.902   4.787  0.1259 -0.4378  0.0456
 2548SOL    HW110190   5.116   2.979   4.835  2.2945 -1.1177 -0.2390
 2548SOL    HW210191   5.043   2.938   4.709  1.7560  0.4252 -0.4474
 2548SOL     MW10192   5.082   2.916   4.783  0.6122 -0.4143 -0.0539
 2549SOL     OW10193   4.575   2.598   3.916 -0.0271 -0.1286 -0.2194
 2549SOL    HW110194   4.667   2.572   3.916  0.0359  0.0869  0.0688
 2549SOL    HW210195   4.559   2.628   3.826  0.0621 -0.5784 -0.3872
 2549SOL     MW10196   4.585   2.599   3.904 -0.0076 -0.1586 -0.2040
 2550SOL     OW10197   4.661   1.453   0.344  0.3066 -1.0149 -0.0420
 2550SOL    HW110198   4.704   1.438   0.428 -1.2316  0.7889  1.1411
 2550SOL    HW210199   4.640   1.546   0.343  0.6957 -0.8689 -2.6792
 2550SOL     MW10200   4.664   1.463   0.354  0.1595 -0.7653 -0.2282
 2551SOL     OW10201   3.430   2.968   4.648  0.2377 -0.6287 -0.4595
 2551SOL    HW110202   3.358   3.032   4.642 -0.7686 -1.7083 -0.2813
 2551SOL    HW210203   3.390   2.885   4.623  1.8283 -1.0169 -1.9480
 2551SOL     MW10204   3.415   2.966   4.644  0.3125 -0.8166 -0.6273
 2552SOL     OW10205   2.638   0.559   4.492 -0.0486 -0.0844 -0.4280
 2552SOL    HW110206   2.673   0.532   4.577 -1.8671 -1.4637 -0.0370
 2552SOL    HW210207   2.705   0.531   4.429  0.7193 -0.2801  0.4480
 2552SOL     MW10208   2.651   0.552   4.495 -0.1831 -0.2860 -0.2658
 2553SOL     OW10209   1.936   1.614   3.447 -0.2658  0.5638 -0.2116
 2553SOL    HW110210   1.855   1.655   3.475 -1.1187 -1.0817 -0.1074
 2553SOL    HW210211   1.994   1.622   3.522 -0.7298  0.7618  0.1288
 2553SOL     MW10212   1.933   1.620   3.460 -0.4344  0.3785 -0.1547
 2554SOL     OW10213   3.320   2.725   3.213  0.2437 -0.3596  0.2507
 2554SOL    HW110214   3.319   2.815   3.182  0.0356 -0.7181 -0.8067
 2554SOL    HW210215   3.262   2.726   3.290 -0.3156  0.2538 -0.1705
 2554SOL     MW10216   3.313   2.737   3.219  0.1455 -0.3270  0.0614
 2555SOL     OW10217   3.312   4.017   2.719  0.3089 -0.1620  0.0162
 2555SOL    HW110218   3.403   3.992   2.699  0.6331  0.2527  0.9257
 2555SOL    HW210219   3.270   4.022   2.634  0.9701 -1.0021 -0.3855
 2555SOL     MW10220   3.319   4.014   2.706  0.4350 -0.2165  0.0812
 2556SOL     OW10221   3.649   0.828   0.758  0.0674  0.3525 -0.2768
 2556SOL    HW110222   3.612   0.913   0.734 -0.0585  0.3799  0.0093
 2556SOL    HW210223   3.628   0.818   0.851  0.8574  0.4077 -0.0903
 2556SOL     MW10224   3.641   0.837   0.767  0.1524  0.3631 -0.2163
 2557SOL     OW10225   1.620   3.426   4.326  0.3383  0.2641  0.1303
 2557SOL    HW110226   1.525   3.422   4.322  0.3554 -0.1431  0.0486
 2557SOL    HW210227   1.640   3.515   4.353 -0.1664 -0.3424  2.8514
 2557SOL     MW10228   1.611   3.437   4.329  0.2759  0.1343  0.4682
 2558SOL     OW10229   4.882   5.352   1.561  0.0377 -0.6016  0.3173
 2558SOL    HW110230   4.934   5.362   1.640  1.3031  0.8398 -0.6379
 2558SOL    HW210231   4.800   5.311   1.591  0.1738  0.5536  2.4706
 2558SOL     MW10232   4.878   5.348   1.575  0.2171 -0.2692  0.4707
 2559SOL     OW10233   2.162   5.092   1.394  0.2617  0.2611 -0.5907
 2559SOL    HW110234   2.081   5.041   1.384 -0.4078  1.2659 -0.4739
 2559SOL    HW210235   2.180   5.126   1.306 -0.7708  1.9451 -0.2057
 2559SOL     MW10236   2.154   5.090   1.382  0.0438  0.6053 -0.5265
 2560SOL     OW10237   1.666   2.788   2.814  0.0622  0.4358 -0.1316
 2560SOL    HW110238   1.661   2.874   2.856 -0.3760  0.4683 -0.2536
 2560SOL    HW210239   1.624   2.729   2.876 -1.4301  0.6299 -0.9142
 2560SOL     MW10240   1.660   2.792   2.827 -0.1849  0.4648 -0.2474
 2561SOL     OW10241   2.600   3.906   4.558 -0.0755  0.7686  0.6577
 2561SOL    HW110242   2.674   3.941   4.509 -1.5314  1.8277 -0.8883
 2561SOL    HW210243   2.604   3.952   4.643  1.0239  0.7867  0.6106
 2561SOL     MW10244   2.610   3.917   4.563 -0.1212  0.9065  0.4538
 2562SOL     OW10245   4.410   3.810   5.365  0.0292 -0.6442 -0.0893
 2562SOL    HW110246   4.468   3.816   5.441 -0.7558 -1.3901  0.5840
 2562SOL    HW210247   4.358   3.890   5.368  1.1546  0.1525 -0.8393
 2562SOL     MW10248   4.411   3.821   5.375  0.0728 -0.6377 -0.0991
 2563SOL     OW10249   4.463   0.139   1.991  0.2123  0.1313 -0.4566
 2563SOL    HW110250   4.384   0.163   1.942  0.2123 -0.5434 -0.7975
 2563SOL    HW210251   4.529   0.203   1.964  0.0447  0.1211 -0.8877
 2563SOL     MW10252   4.461   0.151   1.981  0.1908  0.0436 -0.5554
 2564SOL     OW10253   1.366   2.356   0.077 -0.1827 -0.5205  0.3043
 2564SOL    HW110254   1.450   2.322   0.108  0.5927  0.4087 -0.6972
 2564SOL    HW210255   1.348   2.430   0.135 -0.1308 -0.5091  0.3061
 2564SOL     MW10256   1.375   2.361   0.088 -0.0768 -0.4001  0.1763
 2565SOL     OW10257   2.918   0.233   3.522  0.1552  0.0658  0.2325
 2565SOL    HW110258   2.934   0.139   3.534 -1.1210 -0.1319  0.4877
 2565SOL    HW210259   2.845   0.253   3.581 -0.2646  1.0060 -0.5698
 2565SOL     MW10260   2.911   0.224   3.531 -0.0619  0.1608  0.1624
 2566SOL     OW10261   1.364   2.617   0.160  0.1236 -0.1874  0.0598
 2566SOL    HW110262   1.287   2.651   0.206 -0.4440 -1.4963  0.1244
 2566SOL    HW210263   1.438   2.649   0.212 -0.4256  0.0788  0.7021
 2566SOL     MW10264   1.364   2.625   0.173 -0.0193 -0.3209  0.1503
 2567SOL     OW10265   2.614   3.192   2.515  0.2810  0.3899 -0.1265
 2567SOL    HW110266   2.528   3.173   2.551  0.3163 -0.8555 -0.6382
 2567SOL    HW210267   2.602   3.184   2.420  1.1467 -0.7117 -0.1610
 2567SOL     MW10268   2.602   3.189   2.507  0.3963  0.0895 -0.1964
 2568SOL     OW10269   2.692   2.125   4.633 -0.3688  0.5915 -0.4015
 2568SOL    HW110270   2.730   2.089   4.553 -2.2601 -2.0513 -0.2372
 2568SOL    HW210271   2.754   2.102   4.702 -0.1746  0.1924 -0.7064
 2568SOL     MW10272   2.704   2.118   4.632 -0.5861  0.2021 -0.4195
 2569SOL     OW10273   0.974   2.057   1.298  0.4161 -0.3661 -0.7269
 2569SOL    HW110274   0.979   1.962   1.304 -0.6555 -0.3261  2.3644
 2569SOL    HW210275   0.909   2.073   1.229 -0.2425 -1.8876 -0.4887
 2569SOL     MW10276   0.966   2.047   1.290  0.1946 -0.5558 -0.3007
 2570SOL     OW10277   4.805   1.637   0.647 -0.5497  0.0794 -0.0112
 2570SOL    HW110278   4.792   1.550   0.611 -1.5321  0.0599  0.3727
 2570SOL    HW210279   4.871   1.677   0.590 -0.6861 -0.6204 -0.6692
 2570SOL     MW10280   4.812   1.631   0.635 -0.6929 -0.0127 -0.0463
 2571SOL     OW10281   0.714   0.261   0.120  0.4236  0.1004  0.3657
 2571SOL    HW110282   0.697   0.294   0.031 -2.1540 -0.7225  0.4660
 2571SOL    HW210283   0.723   0.166   0.109 -1.2714 -0.1889  1.0574
 2571SOL     MW10284   0.713   0.253   0.107 -0.1234 -0.0420  0.4671
 2572SOL     OW10285   3.375   4.127   5.114  0.0893 -0.4255  0.0753
 2572SOL    HW110286   3.414   4.213   5.133  0.8254 -0.9556  1.0168
 2572SOL    HW210287   3.286   4.148   5.086  0.0831  0.6240  0.7986
 2572SOL     MW10288   3.369   4.141   5.113  0.1827 -0.3590  0.2884
 2573SOL     OW10289   3.951   0.998   1.270 -0.1791 -0.3287 -0.8172
 2573SOL    HW110290   4.014   0.969   1.336 -1.5639  1.7327  1.5970
 2573SOL    HW210291   3.943   0.924   1.210 -0.5838 -3.4039  2.6702
 2573SOL     MW10292   3.958   0.985   1.271 -0.4082 -0.4585 -0.0618
 2574SOL     OW10293   3.024   1.593   0.515 -0.3303  0.4652  0.2726
 2574SOL    HW110294   3.100   1.550   0.476 -1.3433 -0.0274 -1.2744
 2574SOL    HW210295   3.038   1.587   0.609  0.7837 -1.0095  0.0418
 2574SOL     MW10296   3.035   1.587   0.522 -0.3174  0.2134  0.0450
 2575SOL     OW10297   4.093   4.569   4.795  0.5056 -0.1550 -0.1554
 2575SOL    HW110298   4.186   4.549   4.788  0.1124 -1.7243 -1.2875
 2575SOL    HW210299   4.049   4.485   4.787 -1.0546  0.6317 -0.3340
 2575SOL     MW10300   4.099   4.556   4.793  0.2555 -0.2552 -0.3231
 2576SOL     OW10301   4.124   1.891   0.211 -0.0115 -0.5464 -0.2319
 2576SOL    HW110302   4.211   1.866   0.180 -0.2462 -1.0112 -0.5321
 2576SOL    HW210303   4.082   1.808   0.232 -0.4361 -0.3339 -0.2343
 2576SOL     MW10304   4.130   1.877   0.210 -0.0959 -0.5787 -0.2707
 2577SOL     OW10305   0.090   2.683   1.448 -0.8235  0.2882 -0.1667
 2577SOL    HW110306   0.023   2.632   1.493  0.4818  0.6433  2.3867
 2577SOL    HW210307   0.103   2.760   1.504  1.4287  0.3933 -0.7260
 2577SOL     MW10308   0.083   2.687   1.461 -0.3681  0.3471  0.0886
 2578SOL     OW10309   3.562   3.757   4.396  0.3845 -0.0340 -0.2820
 2578SOL    HW110310   3.597   3.737   4.310 -1.1487  1.6354 -1.3557
 2578SOL    HW210311   3.534   3.672   4.431  1.4295 -0.7827 -1.2313
 2578SOL     MW10312   3.563   3.744   4.390  0.3220  0.0838 -0.5410
 2579SOL     OW10313   0.344   2.281   4.720  0.4356  0.0400 -0.0654
 2579SOL    HW110314   0.363   2.375   4.721  1.4063 -0.1414 -0.4270
 2579SOL    HW210315   0.421   2.240   4.760  0.3195 -0.6478 -0.5228
 2579SOL     MW10316   0.356   2.288   4.725  0.5450 -0.0712 -0.1702
 2580SOL     OW10317   4.671   3.131   3.623  0.1937  0.0298 -0.3384
 2580SOL    HW110318   4.679   3.217   3.664  1.2667 -1.1806  2.2053
 2580SOL    HW210319   4.756   3.115   3.582  0.0872  0.0574 -0.5736
 2580SOL     MW10320   4.683   3.140   3.623  0.3175 -0.1216 -0.0429
 2581SOL     OW10321   1.598   4.557   0.111  0.1315  0.0448  0.4211
 2581SOL    HW110322   1.506   4.549   0.087  0.0220  1.4960  0.2355
 2581SOL    HW210323   1.624   4.469   0.139 -0.9943 -0.6437 -0.5900
 2581SOL     MW10324   1.590   4.545   0.111 -0.0267  0.1424  0.2679
 2582SOL     OW10325   1.647   1.763   4.024  0.1803 -0.4772 -0.4524
 2582SOL    HW110326   1.563   1.737   3.986 -0.2669  2.5798 -1.9040
 2582SOL    HW210327   1.682   1.683   4.062 -1.8431 -2.6208 -2.7038
 2582SOL     MW10328   1.641   1.750   4.024 -0.1359 -0.3602 -0.9265
 2583SOL     OW10329   1.659   4.993   3.264  0.0248  0.9831  0.3327
 2583SOL    HW110330   1.585   5.045   3.233  0.1053 -0.2295 -2.1043
 2583SOL    HW210331   1.723   5.058   3.293 -0.5045  2.1955 -1.1045
 2583SOL     MW10332   1.658   5.008   3.264 -0.0327  0.9831 -0.1633
 2584SOL     OW10333   2.442   0.174   2.794 -0.1305  0.3662  0.0273
 2584SOL    HW110334   2.415   0.177   2.886  0.8208  1.3013  0.3003
 2584SOL    HW210335   2.393   0.101   2.757 -3.3345  2.1480  0.3736
 2584SOL     MW10336   2.433   0.165   2.801 -0.4189  0.7140  0.1066
 2585SOL     OW10337   1.998   2.958   3.697 -0.4629  0.1582  0.3910
 2585SOL    HW110338   2.067   2.916   3.647  0.3479  0.5810  1.1258
 2585SOL    HW210339   2.039   3.037   3.733 -1.3123  0.3956  0.8717
 2585SOL     MW10340   2.012   2.963   3.695 -0.4678  0.2427  0.5466
 2586SOL     OW10341   0.508   4.154   2.698 -0.0204  0.3472 -0.2828
 2586SOL    HW110342   0.443   4.182   2.633  0.5620  1.8093 -0.2596
 2586SOL    HW210343   0.501   4.219   2.768 -0.3164 -0.9456  0.9393
 2586SOL     MW10344   0.499   4.166   2.699  0.0163  0.3688 -0.1234
 2587SOL     OW10345   0.710   2.595   1.716 -0.4307  0.2835  0.7538
 2587SOL    HW110346   0.779   2.661   1.729 -0.5194  0.3629  0.8226
 2587SOL    HW210347   0.737   2.522   1.772  0.6029 -0.4605 -0.6716
 2587SOL     MW10348   0.723   2.594   1.725 -0.3097  0.1984  0.5802
 2588SOL     OW10349   3.683   4.360   2.893  0.1357 -0.1577  0.0618
 2588SOL    HW110350   3.596   4.383   2.927  0.1599 -1.2818  0.9739
 2588SOL    HW210351   3.738   4.435   2.912 -0.0465 -0.4363  1.8717
 2588SOL     MW10352   3.679   4.372   2.900  0.1155 -0.3373  0.4103
 2589SOL     OW10353   5.158   5.384   1.582 -0.2544 -0.1532  0.2317
 2589SOL    HW110354   5.151   5.438   1.503  0.3362 -0.2547  0.1085
 2589SOL    HW210355   5.172   5.446   1.653  2.2531 -0.1980 -0.1313
 2589SOL     MW10356   5.159   5.399   1.581  0.1422 -0.1719  0.1694
 2590SOL     OW10357   5.083   1.997   1.636  0.0729  0.2877 -0.0585
 2590SOL    HW110358   5.092   2.047   1.717  0.7512 -0.0468  0.0801
 2590SOL    HW210359   5.138   1.919   1.650 -0.7841 -0.3870 -0.3503
 2590SOL     MW10360   5.091   1.993   1.648  0.0500  0.1585 -0.0781
 2591SOL     OW10361   3.150   3.404   4.186  0.1921  0.4104  0.8160
 2591SOL    HW110362   3.154   3.389   4.092  0.3425 -0.4887  0.9581
 2591SOL    HW210363   3.216   3.345   4.223  0.0784  0.6944  1.4896
 2591SOL     MW10364   3.159   3.394   4.179  0.1968  0.3316  0.9204
 2592SOL     OW10365   1.982   1.016   5.037  0.1802 -0.5372 -0.6959
 2592SOL    HW110366   1.929   0.950   5.081  0.4379  0.8435  1.8274
 2592SOL    HW210367   1.919   1.066   4.984 -1.0429  0.6820  1.7696
 2592SOL     MW10368   1.967   1.014   5.036  0.0566 -0.2044 -0.0573
 2593SOL     OW10369   0.583   0.885   4.830  0.2512 -0.3157 -0.3590
 2593SOL    HW110370   0.653   0.820   4.832 -0.1117 -0.6923  0.2085
 2593SOL    HW210371   0.515   0.850   4.887  0.2739  0.8093  0.3964
 2593SOL     MW10372   0.583   0.872   4.837  0.2077 -0.2199 -0.1897
 2594SOL     OW10373   5.457   0.739   2.189  0.9270  0.1734 -0.2029
 2594SOL    HW110374   5.464   0.650   2.223 -1.6806 -0.2606 -0.5738
 2594SOL    HW210375   5.485   0.733   2.098  1.8612  0.0135  0.0799
 2594SOL     MW10376   5.461   0.727   2.182  0.7128  0.0974 -0.2142
 2595SOL     OW10377   1.690   4.874   4.469  0.1251 -0.3817  0.4272
 2595SOL    HW110378   1.709   4.845   4.558 -0.1756  0.3980  0.7448
 2595SOL    HW210379   1.705   4.968   4.470 -1.0101 -0.1834 -0.0435
 2595SOL     MW10380   1.694   4.882   4.480 -0.0587 -0.2565  0.4076
 2596SOL     OW10381   1.223   0.919   2.554  0.0584 -0.8795  0.5761
 2596SOL    HW110382   1.279   0.993   2.579 -0.3070 -0.1159 -0.6924
 2596SOL    HW210383   1.278   0.865   2.498 -0.3940 -0.1427 -0.6498
 2596SOL     MW10384   1.237   0.922   2.550 -0.0463 -0.6875  0.2568
 2597SOL     OW10385   1.439   0.142   5.359 -0.2488  0.7824  0.1883
 2597SOL    HW110386   1.427   0.103   5.272 -0.2848  1.5392 -0.1605
 2597SOL    HW210387   1.446   0.068   5.418 -1.1807  0.2537 -0.3356
 2597SOL     MW10388   1.438   0.127   5.355 -0.3727  0.8116  0.0766
 2598SOL     OW10389   4.296   0.273   0.875  0.8754  0.3459 -0.0401
 2598SOL    HW110390   4.278   0.366   0.879  2.0680  0.5647  0.8563
 2598SOL    HW210391   4.366   0.259   0.939 -0.2245 -1.3892  0.8689
 2598SOL     MW10392   4.303   0.283   0.884  0.8872  0.1518  0.1910
 2599SOL     OW10393   5.363   1.546   0.155 -0.2450  0.0520 -0.4739
 2599SOL    HW110394   5.357   1.495   0.075 -0.3037  0.1744 -0.5481
 2599SOL    HW210395   5.306   1.501   0.217  0.7291 -0.7386 -0.1207
 2599SOL     MW10396   5.355   1.534   0.153 -0.1278 -0.0335 -0.4382
 2600SOL     OW10397   1.642   1.157   3.532 -0.5861 -0.0526 -0.7173
 2600SOL    HW110398   1.647   1.199   3.446 -0.5844 -1.3699 -1.3745
 2600SOL    HW210399   1.558   1.112   3.532  0.0606 -1.2862 -0.6103
 2600SOL     MW10400   1.632   1.157   3.521 -0.5031 -0.3791 -0.7878
 2601SOL     OW10401   1.805   0.251   2.328  0.0095 -0.0449 -0.0016
 2601SOL    HW110402   1.874   0.294   2.277 -0.6709  0.2376 -0.7054
 2601SOL    HW210403   1.725   0.298   2.305 -0.3583 -0.0695  1.1539
 2601SOL     MW10404   1.803   0.263   2.318 -0.1246 -0.0119  0.0562
 2602SOL     OW10405   4.212   3.325   1.825 -0.0435  0.1870  0.5167
 2602SOL    HW110406   4.146   3.311   1.757 -1.8530  2.4754  1.6330
 2602SOL    HW210407   4.206   3.246   1.880 -0.9724 -0.2132 -0.1271
 2602SOL     MW10408   4.203   3.313   1.824 -0.3941  0.4287  0.5772
 2603SOL     OW10409   5.141   4.893   5.159  0.4450 -0.2528 -0.7285
 2603SOL    HW110410   5.091   4.823   5.202 -0.8220  1.4922  0.8081
 2603SOL    HW210411   5.185   4.937   5.231  0.0430  1.4215 -1.4660
 2603SOL     MW10412   5.140   4.890   5.174  0.2313  0.1849 -0.6262
 2604SOL     OW10413   4.039   0.571   5.193 -0.1362 -0.2980 -0.6285
 2604SOL    HW110414   4.105   0.512   5.230 -0.0722  0.8652  1.2695
 2604SOL    HW210415   4.083   0.611   5.118  1.5618  0.7786  0.8529
 2604SOL     MW10416   4.053   0.569   5.188  0.0893 -0.0113 -0.1959
 2605SOL     OW10417   2.254   1.377   4.079  0.1270 -0.6589  0.0192
 2605SOL    HW110418   2.182   1.373   4.016 -0.2124  0.6652  0.2899
 2605SOL    HW210419   2.304   1.455   4.054 -0.6947  0.6004  2.0383
 2605SOL     MW10420   2.251   1.387   4.068 -0.0217 -0.3282  0.3123
 2606SOL     OW10421   3.134   3.960   2.504 -0.2536 -0.1426  0.2049
 2606SOL    HW110422   3.176   3.876   2.525 -0.9248 -0.9161 -1.3820
 2606SOL    HW210423   3.152   3.973   2.411  0.9292  2.1593  0.6961
 2606SOL     MW10424   3.141   3.951   2.495 -0.1881  0.0530  0.0647
 2607SOL     OW10425   3.746   3.713   0.734  0.5754  0.6454 -0.5073
 2607SOL    HW110426   3.752   3.774   0.661  0.4989 -0.5006 -1.5084
 2607SOL    HW210427   3.818   3.652   0.719 -0.8519 -1.0041 -0.9821
 2607SOL     MW10428   3.756   3.713   0.723  0.3829  0.2875 -0.6962
 2608SOL     OW10429   4.957   5.111   5.057  0.3296 -0.4521  0.3856
 2608SOL    HW110430   5.021   5.044   5.080  0.6054 -0.0426  0.8440
 2608SOL    HW210431   4.923   5.084   4.972  1.6555 -0.2691 -0.2239
 2608SOL     MW10432   4.961   5.099   5.049  0.5347 -0.3762  0.3662
 2609SOL     OW10433   4.117   2.945   0.457 -0.2187 -0.4388  0.2025
 2609SOL    HW110434   4.201   2.902   0.470 -0.0191  0.0530  0.5536
 2609SOL    HW210435   4.053   2.885   0.495  0.0562 -0.4324  0.6799
 2609SOL     MW10436   4.119   2.932   0.463 -0.1580 -0.3750  0.3085
 2610SOL     OW10437   4.774   0.497   0.634  0.2493 -0.1191 -0.3609
 2610SOL    HW110438   4.802   0.461   0.718  0.4245  1.1712  0.1650
 2610SOL    HW210439   4.837   0.463   0.571  1.0102  0.0615  0.2796
 2610SOL     MW10440   4.786   0.488   0.637  0.3691  0.0692 -0.2116
 2611SOL     OW10441   4.193   4.372   4.171 -0.1820  0.0050  0.1506
 2611SOL    HW110442   4.159   4.293   4.212 -0.3777 -0.3169 -0.6052
 2611SOL    HW210443   4.134   4.441   4.199 -1.9050 -0.6414 -1.6281
 2611SOL     MW10444   4.181   4.371   4.180 -0.4276 -0.1190 -0.1739
 2612SOL     OW10445   0.363   3.072   1.004 -0.4017  0.2136  0.4860
 2612SOL    HW110446   0.315   3.053   1.085 -1.0489 -0.7443 -0.1046
 2612SOL    HW210447   0.320   3.149   0.968 -0.5768  0.2154  0.6966
 2612SOL     MW10448   0.352   3.079   1.010 -0.5070  0.0912  0.4374
 2613SOL     OW10449   2.854   3.803   0.003 -0.6233  0.2235 -0.0679
 2613SOL    HW110450   2.925   3.867  -0.003  2.6049 -2.8628  1.2971
 2613SOL    HW210451   2.823   3.810   0.094  0.8675 -1.0601  0.5972
 2613SOL     MW10452   2.859   3.812   0.014 -0.0192 -0.3359  0.1920
 2614SOL     OW10453   2.472   3.499   1.811 -0.1212 -0.2829  0.0948
 2614SOL    HW110454   2.443   3.409   1.791  0.4688 -0.6638  0.9226
 2614SOL    HW210455   2.496   3.497   1.903  0.3643  0.6072 -0.0006
 2614SOL     MW10456   2.471   3.487   1.820  0.0165 -0.2177  0.1886
 2615SOL     OW10457   1.115   4.046   3.280  0.3151 -0.0914  0.7562
 2615SOL    HW110458   1.124   3.999   3.363  1.5824 -1.0314  0.1164
 2615SOL    HW210459   1.049   4.113   3.298  1.0083  0.1404  2.7043
 2615SOL     MW10460   1.108   4.049   3.293  0.5660 -0.1821  0.9237
 2616SOL     OW10461   4.813   2.620   3.044 -0.1019 -0.3659 -0.3867
 2616SOL    HW110462   4.867   2.575   2.978 -0.4989 -0.2788 -0.7782
 2616SOL    HW210463   4.762   2.683   2.993 -2.7231 -2.3900 -0.4632
 2616SOL     MW10464   4.814   2.622   3.029 -0.4883 -0.6139 -0.4466
 2617SOL     OW10465   0.761   4.596   3.229  0.5581 -0.4468 -0.3188
 2617SOL    HW110466   0.814   4.529   3.273  0.4115  1.0657  2.3631
 2617SOL    HW210467   0.711   4.637   3.300  1.1230  2.9279 -1.6996
 2617SOL     MW10468   0.762   4.592   3.244  0.6116  0.1789 -0.1522
 2618SOL     OW10469   1.522   2.616   3.294  0.3529 -0.2699 -0.2792
 2618SOL    HW110470   1.448   2.557   3.304  0.4956 -0.5011 -0.5948
 2618SOL    HW210471   1.498   2.693   3.346  0.5224 -0.9219  0.8177
 2618SOL     MW10472   1.509   2.619   3.302  0.3928 -0.3829 -0.1792
 2619SOL     OW10473   4.248   2.338   4.151 -0.1352 -0.0494 -0.2090
 2619SOL    HW110474   4.274   2.265   4.207  0.7547  1.0282  0.8368
 2619SOL    HW210475   4.269   2.416   4.202  2.6069  1.0823 -2.7383
 2619SOL     MW10476   4.254   2.338   4.165  0.3298  0.2334 -0.3989
 2620SOL     OW10477   4.182   1.765   2.582  0.6668 -0.3190 -0.8373
 2620SOL    HW110478   4.260   1.760   2.527  1.7527 -0.6641  0.6711
 2620SOL    HW210479   4.214   1.795   2.667 -0.5766 -1.9335  0.2778
 2620SOL     MW10480   4.196   1.768   2.586  0.6466 -0.5699 -0.5014
 2621SOL     OW10481   2.662   1.418   3.714 -0.0954 -0.1744 -0.7650
 2621SOL    HW110482   2.578   1.460   3.731  0.5883  1.1428 -0.4710
 2621SOL    HW210483   2.657   1.389   3.623 -1.3729 -1.3737 -0.3350
 2621SOL     MW10484   2.651   1.420   3.704 -0.1714 -0.1593 -0.6723
 2622SOL     OW10485   4.021   0.382   1.720  0.4594 -0.3242  0.0113
 2622SOL    HW110486   4.074   0.338   1.787  0.4007 -0.9062 -0.3157
 2622SOL    HW210487   3.938   0.333   1.719  1.2574 -1.7558 -2.0141
 2622SOL     MW10488   4.017   0.370   1.729  0.5540 -0.5819 -0.2898
 2623SOL     OW10489   0.377   4.137   0.912 -0.1516  0.0974 -0.2805
 2623SOL    HW110490   0.310   4.097   0.857 -0.0217  0.5699 -0.7917
 2623SOL    HW210491   0.362   4.100   0.999 -0.6266 -0.3358 -0.5427
 2623SOL     MW10492   0.366   4.128   0.916 -0.1958  0.1024 -0.3795
 2624SOL     OW10493   5.389   1.105   1.002  0.3992  0.8941 -0.2131
 2624SOL    HW110494   5.441   1.104   1.083 -0.6202 -0.1127  0.4780
 2624SOL    HW210495   5.387   1.013   0.975  0.2538  1.1479 -1.0716
 2624SOL     MW10496   5.395   1.093   1.009  0.2501  0.7977 -0.2345
 2625SOL     OW10497   0.297   1.984   0.477 -0.5090  0.0729  0.4719
 2625SOL    HW110498   0.225   1.999   0.416  0.1476  0.6034 -0.1893
 2625SOL    HW210499   0.263   2.011   0.563 -1.4653 -0.7603  0.3651
 2625SOL     MW10500   0.284   1.989   0.480 -0.5474  0.0341  0.3736
 2626SOL     OW10501   5.157   4.331   2.640 -0.3847  0.0145  0.0831
 2626SOL    HW110502   5.188   4.421   2.628 -2.0043  1.0065  2.5453
 2626SOL    HW210503   5.095   4.336   2.712 -0.2469 -3.1798  0.5894
 2626SOL     MW10504   5.153   4.343   2.648 -0.5744 -0.2675  0.4631
 2627SOL     OW10505   5.214   2.297   0.767 -0.2984  0.1883 -0.3082
 2627SOL    HW110506   5.180   2.244   0.839  1.9056  0.5903  1.1001
 2627SOL    HW210507   5.195   2.245   0.688 -0.6594 -1.3874  0.7769
 2627SOL     MW10508   5.207   2.283   0.766 -0.0625  0.0380  0.0110
 2628SOL     OW10509   1.258   4.027   2.471 -0.7056  0.3380 -0.9388
 2628SOL    HW110510   1.167   4.000   2.460 -1.0722  0.9351  0.3402
 2628SOL    HW210511   1.282   3.993   2.557  0.6984 -0.8618 -1.7652
 2628SOL     MW10512   1.249   4.019   2.481 -0.5728  0.2609 -0.8809
 2629SOL     OW10513   3.845   1.525   1.312  0.3850  0.5620  0.3669
 2629SOL    HW110514   3.770   1.505   1.369  1.2218 -1.3910  0.8633
 2629SOL    HW210515   3.853   1.449   1.255  1.8174  0.8600  0.1326
 2629SOL     MW10516   3.836   1.513   1.312  0.6755  0.3501  0.4005
 2630SOL     OW10517   1.489   1.574   0.725  0.0702  0.0600 -0.0658
 2630SOL    HW110518   1.583   1.588   0.738  0.2580  1.4678 -2.3308
 2630SOL    HW210519   1.454   1.564   0.813  2.5199 -2.1532  0.8079
 2630SOL     MW10520   1.496   1.574   0.738  0.4078 -0.0431 -0.2439
 2631SOL     OW10521   3.362   2.936   2.856  0.2469 -0.2637 -0.3278
 2631SOL    HW110522   3.449   2.962   2.825  1.0328  0.3166  2.1600
 2631SOL    HW210523   3.302   2.992   2.806  1.2948 -0.3531 -1.7545
 2631SOL     MW10524   3.365   2.947   2.845  0.4816 -0.2009 -0.1920
 2632SOL     OW10525   1.281   2.786   2.246 -0.3508 -0.1687 -0.3669
 2632SOL    HW110526   1.225   2.716   2.281  0.2585  0.2305  1.5184
 2632SOL    HW210527   1.303   2.757   2.157 -2.2569 -1.0751 -0.6000
 2632SOL     MW10528   1.276   2.773   2.239 -0.5168 -0.2336 -0.1554
 2633SOL     OW10529   2.839   0.662   0.710 -0.6284 -0.0537 -0.1006
 2633SOL    HW110530   2.873   0.744   0.676  0.5049 -0.6000 -0.3320
 2633SOL    HW210531   2.862   0.662   0.802  1.0775 -0.9238 -0.4904
 2633SOL     MW10532   2.846   0.672   0.717 -0.2649 -0.2350 -0.1801
 2634SOL     OW10533   4.740   0.024   1.397  0.0957 -0.6511  0.4119
 2634SOL    HW110534   4.790   0.102   1.373 -1.5857 -0.3909 -2.7782
 2634SOL    HW210535   4.793  -0.019   1.464  1.7971  2.4167  1.2276
 2634SOL     MW10536   4.753   0.028   1.403  0.0983 -0.2251  0.1079
 2635SOL     OW10537   0.414   1.148   2.724  0.2337 -0.6067  0.3484
 2635SOL    HW110538   0.438   1.111   2.808 -2.2325 -0.1587  1.3576
 2635SOL    HW210539   0.457   1.093   2.659  2.8288 -0.5071  1.8454
 2635SOL     MW10540   0.422   1.137   2.726  0.2502 -0.5366  0.6693
 2636SOL     OW10541   3.911   3.316   2.485 -0.3234  0.0129  0.5871
 2636SOL    HW110542   3.838   3.279   2.434  0.5949 -0.2107 -0.6032
 2636SOL    HW210543   3.906   3.410   2.469  1.7240 -0.2488 -2.4911
 2636SOL     MW10544   3.901   3.323   2.476  0.0563 -0.0492  0.0407
 2637SOL     OW10545   1.321   3.981   1.873 -0.4504 -0.5175 -0.2201
 2637SOL    HW110546   1.322   4.043   1.800  0.5170 -0.3422 -0.0743
 2637SOL    HW210547   1.405   3.935   1.866  0.6642  0.9973  2.0291
 2637SOL     MW10548   1.332   3.983   1.863 -0.1839 -0.3012  0.0865
 2638SOL     OW10549   0.122   3.411   2.993  0.0618 -0.4526 -0.1638
 2638SOL    HW110550   0.181   3.417   2.918  1.4989  1.1807  1.0000
 2638SOL    HW210551   0.174   3.370   3.061  0.4298  2.1953  1.2978
 2638SOL     MW10552   0.136   3.407   2.992  0.2929  0.0954  0.1723
 2639SOL     OW10553   2.639   0.198   3.192 -0.1298 -0.3207 -0.6509
 2639SOL    HW110554   2.661   0.109   3.164  0.0723 -0.7979  0.8850
 2639SOL    HW210555   2.715   0.226   3.243 -1.1475 -0.2352  0.9017
 2639SOL     MW10556   2.652   0.190   3.195 -0.2342 -0.3709 -0.2555
 2640SOL     OW10557   0.285   0.418   0.625  0.4736 -0.1144 -0.0180
 2640SOL    HW110558   0.379   0.432   0.611  0.5109  1.4417  1.4616
 2640SOL    HW210559   0.276   0.404   0.719 -0.7192 -0.9138 -0.2236
 2640SOL     MW10560   0.296   0.418   0.635  0.3257 -0.0176  0.1451
 2641SOL     OW10561   0.903   3.898   1.318 -0.4736  0.3953 -0.0115
 2641SOL    HW110562   0.853   3.824   1.354 -0.4668  0.8967  1.0766
 2641SOL    HW210563   0.941   3.940   1.395  0.0230  1.1778 -0.6739
 2641SOL     MW10564   0.902   3.894   1.332 -0.4092  0.5597  0.0430
 2642SOL     OW10565   4.935   1.200   1.071 -0.1290  0.0487 -0.2127
 2642SOL    HW110566   5.027   1.175   1.080  0.4004  0.0609 -4.1057
 2642SOL    HW210567   4.936   1.295   1.082  0.7522  0.3270 -2.2673
 2642SOL     MW10568   4.947   1.209   1.074  0.0516  0.0859 -0.9741
 2643SOL     OW10569   2.539   3.688   3.015  0.1180 -0.1529 -0.3976
 2643SOL    HW110570   2.466   3.748   3.001 -0.1303 -0.4867 -0.5412
 2643SOL    HW210571   2.576   3.674   2.927  0.6343  0.3678 -0.2650
 2643SOL     MW10572   2.534   3.694   3.002  0.1523 -0.1290 -0.3990
 2644SOL     OW10573   0.870   2.940   2.483  1.0270  0.2688  0.0773
 2644SOL    HW110574   0.863   2.846   2.462 -1.2518  0.2050  0.8180
 2644SOL    HW210575   0.867   2.943   2.578  1.2889  1.0927  0.0604
 2644SOL     MW10576   0.868   2.928   2.492  0.7688  0.3661  0.1700
 2645SOL     OW10577   4.177   1.160   2.430 -0.4587 -0.1290  0.3594
 2645SOL    HW110578   4.145   1.241   2.471 -2.1159 -0.7068  0.2980
 2645SOL    HW210579   4.180   1.181   2.337 -1.0878 -0.1905  0.3208
 2645SOL     MW10580   4.173   1.173   2.423 -0.7514 -0.2108  0.3466
 2646SOL     OW10581   3.573   1.648   2.816  0.2381  0.2156  0.0624
 2646SOL    HW110582   3.590   1.602   2.733 -0.5417  0.3538 -0.1762
 2646SOL    HW210583   3.592   1.582   2.883  1.1867  0.1953 -0.1985
 2646SOL     MW10584   3.578   1.633   2.814  0.2597  0.2307 -0.0016
 2647SOL     OW10585   3.807   1.215   2.626 -0.3002 -0.3427 -0.2391
 2647SOL    HW110586   3.868   1.153   2.665 -0.9193 -1.6225 -1.2291
 2647SOL    HW210587   3.743   1.160   2.580 -1.2528  1.0110 -0.5849
 2647SOL     MW10588   3.807   1.200   2.625 -0.5014 -0.3333 -0.4101
 2648SOL     OW10589   0.667   0.304   3.926 -0.2998 -0.5580 -0.4498
 2648SOL    HW110590   0.712   0.357   3.859 -0.6704  0.1524 -0.1500
 2648SOL    HW210591   0.699   0.215   3.911  1.6245 -0.0190  0.0644
 2648SOL     MW10592   0.677   0.300   3.915 -0.1009 -0.3981 -0.3456
 2649SOL     OW10593   2.409   4.769   0.789 -0.3432  0.7607  0.1437
 2649SOL    HW110594   2.388   4.742   0.878  0.0043 -1.7238 -0.4532
 2649SOL    HW210595   2.358   4.710   0.733  0.6322  1.2235 -1.2879
 2649SOL     MW10596   2.400   4.758   0.793 -0.1738  0.5019 -0.1160
 2650SOL     OW10597   5.420   4.939   2.794  0.2738  0.1397  0.0326
 2650SOL    HW110598   5.448   4.965   2.881  0.2391  0.1444  0.0424
 2650SOL    HW210599   5.448   5.011   2.737 -3.4079  2.2702  0.5825
 2650SOL     MW10600   5.427   4.951   2.798 -0.2019  0.4131  0.1043
 2651SOL     OW10601   4.257   3.038   3.659  0.0896 -0.2084  0.4635
 2651SOL    HW110602   4.314   3.021   3.734  0.1210  1.4633  0.8483
 2651SOL    HW210603   4.173   3.002   3.685 -0.0124  0.7288  1.5033
 2651SOL     MW10604   4.254   3.031   3.672  0.0806  0.1256  0.6458
 2652SOL     OW10605   3.407   3.295   3.918 -0.0631 -0.5202 -0.2040
 2652SOL    HW110606   3.431   3.330   4.004 -0.6739  0.0885 -0.2795
 2652SOL    HW210607   3.312   3.292   3.919 -0.1649  1.0925 -1.4701
 2652SOL     MW10608   3.398   3.299   3.929 -0.1543 -0.2358 -0.3757
 2653SOL     OW10609   4.909   2.191   4.864  0.0673 -0.1713 -0.5619
 2653SOL    HW110610   4.840   2.124   4.867 -0.2954  0.1611 -1.2864
 2653SOL    HW210611   4.913   2.217   4.772  0.5867  0.4157 -0.3783
 2653SOL     MW10612   4.901   2.186   4.852  0.0874 -0.0536 -0.6311
 2654SOL     OW10613   5.011   3.033   4.563 -0.3346 -0.3315 -0.5079
 2654SOL    HW110614   4.959   3.090   4.619 -1.5158 -1.0450 -0.8405
 2654SOL    HW210615   5.026   3.085   4.484 -1.6632 -0.5497 -0.9327
 2654SOL     MW10616   5.006   3.047   4.560 -0.6559 -0.4508 -0.6048
 2655SOL     OW10617   3.974   1.649   0.285 -0.1516  0.1601  0.7105
 2655SOL    HW110618   3.978   1.676   0.377  0.8727 -0.7770  0.9657
 2655SOL    HW210619   3.985   1.554   0.288  2.4976  0.3429 -0.5141
 2655SOL     MW10620   3.976   1.640   0.297  0.3187  0.0636  0.5864
 2656SOL     OW10621   3.355   3.276   3.546 -0.4196  0.7214 -0.1321
 2656SOL    HW110622   3.297   3.227   3.604 -0.7689 -0.8578 -1.7207
 2656SOL    HW210623   3.330   3.249   3.458  1.9260  0.9054 -0.9375
 2656SOL     MW10624   3.345   3.267   3.542 -0.1640  0.5428 -0.4386
 2657SOL     OW10625   3.146   0.800   0.932 -0.0577 -0.3115  0.3864
 2657SOL    HW110626   3.175   0.742   1.002  0.2079  0.8402  1.2488
 2657SOL    HW210627   3.221   0.856   0.914 -1.1263  1.5462  1.4452
 2657SOL     MW10628   3.159   0.799   0.939 -0.1605  0.0737  0.6324
 2658SOL     OW10629   3.640   4.803   1.064 -0.5888  0.2625 -0.5134
 2658SOL    HW110630   3.611   4.735   1.124 -1.2543  1.6719  0.8353
 2658SOL    HW210631   3.575   4.803   0.993 -0.6851 -0.3744 -0.4251
 2658SOL     MW10632   3.628   4.794   1.063 -0.6864  0.3614 -0.3295
 2659SOL     OW10633   5.084   0.318   3.596  0.3288  0.1364 -0.1279
 2659SOL    HW110634   5.107   0.387   3.533  2.0452 -0.4135 -0.1475
 2659SOL    HW210635   5.075   0.239   3.542 -2.7763  0.4653 -0.2803
 2659SOL     MW10636   5.086   0.317   3.581  0.1510  0.1081 -0.1499
 2660SOL     OW10637   1.803   1.751   3.801  0.3403 -0.9591 -0.1816
 2660SOL    HW110638   1.779   1.664   3.767 -1.1911 -0.4407 -0.5359
 2660SOL    HW210639   1.743   1.765   3.875  0.3315 -0.0770 -0.3446
 2660SOL     MW10640   1.792   1.742   3.806  0.1432 -0.7798 -0.2478
 2661SOL     OW10641   0.480   1.316   3.732 -0.5813 -0.5189  0.6932
 2661SOL    HW110642   0.467   1.225   3.761  0.2916 -0.6361  0.7451
 2661SOL    HW210643   0.396   1.359   3.749 -0.8050 -1.1609  1.2568
 2661SOL     MW10644   0.467   1.310   3.737 -0.4982 -0.6161  0.7720
 2662SOL     OW10645   3.108   2.191   0.071 -0.6133 -0.1204 -0.6808
 2662SOL    HW110646   3.078   2.229  -0.011 -1.0620  1.6430  0.2519
 2662SOL    HW210647   3.123   2.266   0.129  0.9838 -1.2201  0.4438
 2662SOL     MW10648   3.106   2.206   0.068 -0.4663 -0.0354 -0.4175
 2663SOL     OW10649   0.612   4.222   1.544 -0.4911 -0.2579 -0.5481
 2663SOL    HW110650   0.617   4.189   1.455 -2.1574 -2.7661  0.1912
 2663SOL    HW210651   0.629   4.146   1.600  0.9378  1.3120  1.3479
 2663SOL     MW10652   0.615   4.208   1.540 -0.5215 -0.3780 -0.2108
 2664SOL     OW10653   0.542   4.599   3.045 -0.0574  0.8798 -0.2966
 2664SOL    HW110654   0.611   4.624   3.106 -1.5778  2.7794  0.7524
 2664SOL    HW210655   0.548   4.663   2.974 -1.4630  1.8571  0.4168
 2664SOL     MW10656   0.551   4.610   3.044 -0.4319  1.2481 -0.0710
 2665SOL     OW10657   3.185   5.241   4.085 -0.0010 -0.5171 -0.6067
 2665SOL    HW110658   3.207   5.274   3.998 -0.8217  1.1210 -0.2282
 2665SOL    HW210659   3.221   5.306   4.146  0.0298 -1.3187  0.2515
 2665SOL     MW10660   3.192   5.254   4.082 -0.1021 -0.4100 -0.4484
 2666SOL     OW10661   1.759   3.727   1.503  0.0928 -0.1189  0.2420
 2666SOL    HW110662   1.744   3.633   1.488 -1.3727 -0.0235  0.9556
 2666SOL    HW210663   1.820   3.752   1.433 -1.0754 -1.1755 -1.2445
 2666SOL     MW10664   1.765   3.718   1.492 -0.2444 -0.2419  0.1431
 2667SOL     OW10665   3.518   1.698   5.198 -0.2362  0.1909 -0.5684
 2667SOL    HW110666   3.605   1.737   5.196  0.4585 -1.2848 -0.3884
 2667SOL    HW210667   3.471   1.748   5.265  1.0784 -0.1802  0.6775
 2667SOL     MW10668   3.523   1.709   5.206  0.0210 -0.0456 -0.3858
 2668SOL     OW10669   2.003   5.021   4.515  0.2035  0.2766 -0.3150
 2668SOL    HW110670   2.061   5.009   4.590  0.3979 -0.3116 -0.5558
 2668SOL    HW210671   1.995   4.934   4.476  1.0886  0.7717 -1.6907
 2668SOL     MW10672   2.009   5.009   4.519  0.3417  0.2647 -0.5220
 2669SOL     OW10673   0.440   0.301   2.532 -0.7964 -0.3680 -0.0641
 2669SOL    HW110674   0.525   0.272   2.497 -0.8539 -0.9309  0.2499
 2669SOL    HW210675   0.380   0.232   2.505 -1.1024 -0.1097 -0.0379
 2669SOL     MW10676   0.444   0.288   2.524 -0.8430 -0.4070 -0.0206
 2670SOL     OW10677   2.695   5.423   0.150  0.4474  1.1157 -0.0566
 2670SOL    HW110678   2.608   5.457   0.169  0.2706  0.7142 -0.1213
 2670SOL    HW210679   2.726   5.386   0.233 -0.4393 -0.8877 -0.5427
 2670SOL     MW10680   2.688   5.422   0.163  0.3112  0.8078 -0.1271
 2671SOL     OW10681   2.591   5.391   1.653 -0.2825  0.2808 -0.4903
 2671SOL    HW110682   2.570   5.417   1.563 -0.2295 -1.3451 -0.9993
 2671SOL    HW210683   2.519   5.429   1.705 -1.5326 -0.5789 -1.5120
 2671SOL     MW10684   2.579   5.399   1.648 -0.4357 -0.0374 -0.6862
 2672SOL     OW10685   4.571   3.836   1.311  0.0505  0.0097 -0.3054
 2672SOL    HW110686   4.568   3.743   1.333  0.3474 -0.1339 -0.8488
 2672SOL    HW210687   4.591   3.837   1.217 -0.6000  0.6119 -0.4409
 2672SOL     MW10688   4.573   3.824   1.302  0.0053  0.0684 -0.3923
 2673SOL     OW10689   4.783   5.433   3.082  0.1581 -0.1665  1.0053
 2673SOL    HW110690   4.704   5.391   3.048 -0.0337 -1.5541  2.9708
 2673SOL    HW210691   4.773   5.525   3.060 -1.6229 -0.4540  0.4746
 2673SOL     MW10692   4.771   5.439   3.075 -0.0944 -0.3809  1.1890
 2674SOL     OW10693   2.466   2.052   3.505 -0.0913 -0.0710  0.4534
 2674SOL    HW110694   2.554   2.015   3.500  0.2609  0.6988  0.7095
 2674SOL    HW210695   2.448   2.084   3.416  1.1108  2.4274  1.0330
 2674SOL     MW10696   2.475   2.051   3.493  0.1077  0.3474  0.5603
 2675SOL     OW10697   3.290   3.070   0.810  0.3489 -0.3798  0.2245
 2675SOL    HW110698   3.205   3.050   0.849  0.1965 -1.7231 -0.7195
 2675SOL    HW210699   3.278   3.156   0.770 -0.0947  0.1137  1.3796
 2675SOL     MW10700   3.277   3.078   0.809  0.2726 -0.4886  0.2515
 2676SOL     OW10701   1.258   3.917   0.692  0.3827 -0.3560 -0.0536
 2676SOL    HW110702   1.350   3.936   0.677  0.5440 -1.8435 -1.1643
 2676SOL    HW210703   1.257   3.851   0.761  0.1932 -0.7520 -0.4273
 2676SOL     MW10704   1.269   3.911   0.699  0.3791 -0.5971 -0.2437
 2677SOL     OW10705   1.825   0.512   3.977  0.0433  0.2301  0.4226
 2677SOL    HW110706   1.911   0.551   3.992 -0.3887  0.5983  2.1552
 2677SOL    HW210707   1.842   0.439   3.917  1.5092  0.4847  0.4931
 2677SOL     MW10708   1.838   0.508   3.971  0.1757  0.3099  0.6534
 2678SOL     OW10709   1.493   1.429   5.216  0.4915 -0.3854  0.3121
 2678SOL    HW110710   1.524   1.339   5.224  2.9566  0.4484  0.8145
 2678SOL    HW210711   1.570   1.480   5.192 -0.8843  1.5958 -0.2403
 2678SOL     MW10712   1.507   1.424   5.214  0.6310 -0.0251  0.3057
 2679SOL     OW10713   3.467   2.464   3.942  0.5319  0.0345 -0.3675
 2679SOL    HW110714   3.562   2.472   3.946  0.6816 -1.1548 -1.0825
 2679SOL    HW210715   3.445   2.482   3.850 -0.0302  1.0930 -0.0439
 2679SOL     MW10716   3.476   2.467   3.931  0.4791  0.0178 -0.4176
 2680SOL     OW10717   4.312   0.989   5.408 -0.2634 -0.2601 -0.6676
 2680SOL    HW110718   4.264   0.909   5.389 -0.9855 -0.5971  2.1201
 2680SOL    HW210719   4.394   0.959   5.446 -0.6341  0.2758  0.6089
 2680SOL     MW10720   4.316   0.975   5.410 -0.4033 -0.2347 -0.1473
 2681SOL     OW10721   4.878   2.247   5.277  0.6885 -0.1236  0.1900
 2681SOL    HW110722   4.946   2.199   5.323  0.8809 -0.6103 -0.5794
 2681SOL    HW210723   4.853   2.190   5.204  1.2379  1.1154 -1.0094
 2681SOL     MW10724   4.883   2.233   5.273  0.7834 -0.0273 -0.0621
 2682SOL     OW10725   2.870   4.819   2.078  0.2044 -0.2083 -0.4863
 2682SOL    HW110726   2.793   4.781   2.122  0.2695 -0.1062 -0.2843
 2682SOL    HW210727   2.854   4.803   1.985  0.2484 -0.7642 -0.4024
 2682SOL     MW10728   2.858   4.812   2.072  0.2184 -0.2664 -0.4497
 2683SOL     OW10729   2.793   2.956   0.369  0.4512  0.0119 -0.2447
 2683SOL    HW110730   2.708   2.958   0.413  1.7091  1.8914  2.3982
 2683SOL    HW210731   2.785   3.023   0.300 -0.6152 -0.8742 -1.0260
 2683SOL     MW10732   2.781   2.965   0.365  0.4757  0.1391 -0.0064
 2684SOL     OW10733   4.081   4.146   2.759 -0.6185 -0.0888  0.4416
 2684SOL    HW110734   4.134   4.082   2.712  0.0827  1.1417 -0.4882
 2684SOL    HW210735   4.079   4.113   2.849 -0.1952 -1.3540  0.0221
 2684SOL     MW10736   4.087   4.133   2.764 -0.4746 -0.0933  0.2689
 2685SOL     OW10737   3.703   1.936   3.708  0.4290  0.3914  0.0946
 2685SOL    HW110738   3.732   1.852   3.743  0.9028  0.6560  0.3406
 2685SOL    HW210739   3.633   1.963   3.768 -0.6875 -0.4644 -0.7646
 2685SOL     MW10740   3.697   1.929   3.720  0.3467  0.3157  0.0161
 2686SOL     OW10741   3.726   2.426   0.301 -0.3174  0.0756 -0.1101
 2686SOL    HW110742   3.631   2.419   0.316  0.1103 -0.4712  3.1304
 2686SOL    HW210743   3.741   2.518   0.282 -1.3453  0.5063  1.0405
 2686SOL     MW10744   3.716   2.437   0.301 -0.3942  0.0607  0.4520
 2687SOL     OW10745   2.526   0.550   2.886  0.5330  0.2441  0.1536
 2687SOL    HW110746   2.573   0.626   2.850  0.2475 -0.3187 -1.5165
 2687SOL    HW210747   2.471   0.520   2.814 -0.9704 -0.2688  1.4660
 2687SOL     MW10748   2.525   0.556   2.872  0.3040  0.1064  0.1078
 2688SOL     OW10749   1.127   4.067   0.471  0.2510 -0.0655 -0.0821
 2688SOL    HW110750   1.215   4.084   0.438  0.0265  1.0390 -0.1541
 2688SOL    HW210751   1.141   4.022   0.555  0.8666 -0.3784 -0.3434
 2688SOL     MW10752   1.140   4.063   0.478  0.3011  0.0359 -0.1248
 2689SOL     OW10753   3.944   1.622   2.542  0.7176 -0.0630  0.1817
 2689SOL    HW110754   4.026   1.670   2.528  1.9684 -1.9571  0.5292
 2689SOL    HW210755   3.936   1.614   2.637 -0.9343  1.7366  0.2495
 2689SOL     MW10756   3.954   1.627   2.553  0.6662 -0.0751  0.2349
 2690SOL     OW10757   4.602   5.022   0.321  0.5508 -0.2700  0.3552
 2690SOL    HW110758   4.559   5.099   0.284 -0.0481  0.7272  2.8540
 2690SOL    HW210759   4.683   5.012   0.270 -0.7264  0.2064 -1.8877
 2690SOL     MW10760   4.607   5.031   0.310  0.3106 -0.0814  0.3880
 2691SOL     OW10761   2.632   2.781   3.231 -0.0301  0.3720  0.5454
 2691SOL    HW110762   2.692   2.717   3.193 -1.9041 -0.7952 -0.5737
 2691SOL    HW210763   2.662   2.865   3.195  0.0900 -0.3487 -1.1417
 2691SOL     MW10764   2.644   2.784   3.222 -0.2546  0.1303  0.1862
 2692SOL     OW10765   1.658   3.412   2.601  0.6478 -0.1215  0.2610
 2692SOL    HW110766   1.607   3.347   2.649  0.7210 -0.1290  0.3285
 2692SOL    HW210767   1.698   3.363   2.529 -2.2706  0.4892 -1.9764
 2692SOL     MW10768   1.657   3.397   2.598  0.2836 -0.0443 -0.0168
 2693SOL     OW10769   1.424   1.500   3.481  0.0051 -0.1386 -0.1746
 2693SOL    HW110770   1.333   1.471   3.484  0.1570 -0.6202 -0.1034
 2693SOL    HW210771   1.463   1.467   3.562 -0.1620  1.4632  0.5860
 2693SOL     MW10772   1.418   1.492   3.492  0.0032  0.0048 -0.0681
 2694SOL     OW10773   0.691   3.903   5.402 -0.3497 -0.0577 -0.0542
 2694SOL    HW110774   0.716   3.812   5.417  1.3215  0.5454  1.2504
 2694SOL    HW210775   0.654   3.904   5.314  1.3319 -1.7074 -0.8628
 2694SOL     MW10776   0.690   3.892   5.392  0.0795 -0.1917  0.0093
 2695SOL     OW10777   0.432   0.868   0.744  0.5293  0.2909 -0.2887
 2695SOL    HW110778   0.471   0.797   0.693  0.3333  0.1802 -0.2853
 2695SOL    HW210779   0.504   0.930   0.758  0.5081  0.4817 -0.9755
 2695SOL     MW10780   0.446   0.867   0.739  0.5015  0.3012 -0.3762
 2696SOL     OW10781   1.541   4.078   3.901  0.1935  0.4345 -0.5743
 2696SOL    HW110782   1.565   4.014   3.968  1.2394  0.6274 -0.7470
 2696SOL    HW210783   1.606   4.148   3.909  0.6182  0.2565 -2.0490
 2696SOL     MW10784   1.552   4.078   3.910  0.3817  0.4364 -0.7852
 2697SOL     OW10785   2.815   0.764   1.637 -0.5437  0.7862  0.2551
 2697SOL    HW110786   2.891   0.816   1.614  0.1287 -0.5190 -0.6480
 2697SOL    HW210787   2.828   0.740   1.728 -0.1252  0.9713  0.2437
 2697SOL     MW10788   2.826   0.767   1.646 -0.4040  0.6428  0.1381
 2698SOL     OW10789   0.216   0.650   0.448  0.0130 -0.4057 -0.3663
 2698SOL    HW110790   0.126   0.633   0.475  0.0988 -2.4779 -1.2196
 2698SOL    HW210791   0.269   0.594   0.505  0.9204  1.6758  0.9588
 2698SOL     MW10792   0.212   0.640   0.459  0.1401 -0.4045 -0.3059
 2699SOL     OW10793   1.983   3.294   2.313  0.7093 -0.0390  0.1738
 2699SOL    HW110794   1.968   3.265   2.223  1.3111  2.2095 -0.7243
 2699SOL    HW210795   2.068   3.257   2.337  0.1928 -1.2986  0.1503
 2699SOL     MW10796   1.992   3.286   2.305  0.7202  0.0876  0.0558
 2700SOL     OW10797   3.410   2.760   0.375  0.0040  0.8546 -0.5725
 2700SOL    HW110798   3.346   2.831   0.372 -0.8509  0.1335 -0.0767
 2700SOL    HW210799   3.409   2.731   0.467  0.1571  0.0554 -0.8145
 2700SOL     MW10800   3.402   2.765   0.387 -0.0859  0.6600 -0.5400
 2701SOL     OW10801   4.967   1.020   4.260  0.5793  0.1380 -0.0682
 2701SOL    HW110802   5.057   1.026   4.227  0.2532 -0.5026 -1.1296
 2701SOL    HW210803   4.954   0.926   4.277 -0.3019  0.0441 -1.1658
 2701SOL     MW10804   4.977   1.008   4.258  0.4248  0.0440 -0.3446
 2702SOL     OW10805   4.141   3.296   4.855 -0.4523  0.4618  0.1405
 2702SOL    HW110806   4.200   3.309   4.929  1.6227 -1.8939 -0.9606
 2702SOL    HW210807   4.066   3.353   4.874  1.3919  2.3448  2.4336
 2702SOL     MW10808   4.139   3.305   4.867  0.0494  0.4013  0.2931
 2703SOL     OW10809   2.714   0.341   2.331 -0.4167 -0.5263  0.4754
 2703SOL    HW110810   2.638   0.381   2.375 -1.3927 -0.9966 -0.7195
 2703SOL    HW210811   2.696   0.247   2.333  1.0350 -0.8203  1.7515
 2703SOL     MW10812   2.702   0.334   2.337 -0.3558 -0.6241  0.4858
 2704SOL     OW10813   1.649   3.529   0.512 -0.2054 -0.5949 -0.5764
 2704SOL    HW110814   1.605   3.492   0.436 -0.1386  0.2309 -1.0350
 2704SOL    HW210815   1.725   3.575   0.476  0.6016 -1.3431  0.1305
 2704SOL     MW10816   1.653   3.530   0.498 -0.0935 -0.5850 -0.5446
 2705SOL     OW10817   3.334   4.414   2.857  0.2463 -0.2951  0.1401
 2705SOL    HW110818   3.370   4.461   2.931  1.4321 -1.4310  0.3293
 2705SOL    HW210819   3.240   4.432   2.860  0.7540  3.1321 -0.6418
 2705SOL     MW10820   3.326   4.422   2.866  0.4631 -0.0018  0.0643
 2706SOL     OW10821   0.260   3.854   3.999  0.0871  0.1956 -0.3373
 2706SOL    HW110822   0.331   3.873   3.938  1.1782 -0.6862  0.5992
 2706SOL    HW210823   0.228   3.768   3.973  0.1053  0.1108 -0.0864
 2706SOL     MW10824   0.265   3.845   3.988  0.2291  0.0719 -0.1853
 2707SOL     OW10825   2.845   2.527   2.889 -0.2104 -0.7588  0.1910
 2707SOL    HW110826   2.940   2.515   2.878  0.1620  0.4699  1.6815
 2707SOL    HW210827   2.822   2.594   2.826  0.0242 -0.6570  0.2130
 2707SOL     MW10828   2.854   2.534   2.880 -0.1327 -0.5885  0.3846
 2708SOL     OW10829   5.370   0.766   3.217  0.5545 -0.4280 -0.0795
 2708SOL    HW110830   5.450   0.791   3.264 -0.4125 -0.5915  1.7247
 2708SOL    HW210831   5.338   0.847   3.178  1.2042 -0.2299 -0.2141
 2708SOL     MW10832   5.376   0.779   3.218  0.5139 -0.4236  0.1342
 2709SOL     OW10833   1.607   1.028   4.566  0.0880 -0.4378 -0.6922
 2709SOL    HW110834   1.616   1.005   4.658 -1.2100 -3.6678 -1.2276
 2709SOL    HW210835   1.694   1.058   4.540  0.5135  0.3762  1.5127
 2709SOL     MW10836   1.619   1.029   4.574 -0.0237 -0.7471 -0.4785
 2710SOL     OW10837   1.442   3.220   2.625 -0.0593 -0.2932  0.2214
 2710SOL    HW110838   1.376   3.211   2.694  0.5243  2.1778  1.1950
 2710SOL    HW210839   1.393   3.207   2.544 -1.1364 -1.3562  0.9933
 2710SOL     MW10840   1.427   3.217   2.623 -0.1225 -0.1130  0.4449
 2711SOL     OW10841   2.468   0.858   4.387 -0.0575  0.1406 -0.4832
 2711SOL    HW110842   2.547   0.884   4.434 -1.5096  0.8257  1.7907
 2711SOL    HW210843   2.403   0.923   4.413 -2.1285 -2.0159  0.1567
 2711SOL     MW10844   2.470   0.870   4.397 -0.5085 -0.0477 -0.1102
 2712SOL     OW10845   0.979   1.117   0.828  0.2859  0.2660 -0.0887
 2712SOL    HW110846   0.921   1.121   0.904  0.5435  1.1934  0.0620
 2712SOL    HW210847   1.029   1.036   0.841  0.4069  0.4698  0.7867
 2712SOL     MW10848   0.978   1.107   0.839  0.3344  0.4108  0.0426
 2713SOL     OW10849   4.150   4.515   1.957  0.1417 -0.3222 -0.0782
 2713SOL    HW110850   4.195   4.448   2.008  0.9076 -1.3653 -1.9839
 2713SOL    HW210851   4.211   4.535   1.886 -0.8200  1.1141 -0.5392
 2713SOL     MW10852   4.163   4.509   1.954  0.1166 -0.2719 -0.3811
 2714SOL     OW10853   3.823   2.569   2.067  0.2685 -0.8349  0.0743
 2714SOL    HW110854   3.808   2.534   2.154 -3.3028 -1.0619 -0.4938
 2714SOL    HW210855   3.855   2.495   2.016 -0.6419 -1.5163  0.4755
 2714SOL     MW10856   3.825   2.555   2.072 -0.3052 -0.9512  0.0529
 2715SOL     OW10857   3.051   4.139   2.994 -0.5622 -0.2670 -0.0995
 2715SOL    HW110858   3.071   4.188   3.074 -2.3711 -0.3776  0.4680
 2715SOL    HW210859   3.053   4.205   2.925  0.0467  0.0214  0.1849
 2715SOL     MW10860   3.053   4.154   2.996 -0.7158 -0.2442  0.0095
 2716SOL     OW10861   5.042   0.224   0.977 -0.1845 -0.7911  0.5129
 2716SOL    HW110862   5.118   0.201   0.923 -1.5224 -0.7703 -1.4858
 2716SOL    HW210863   5.074   0.296   1.032  1.2893 -0.8913 -0.1447
 2716SOL     MW10864   5.056   0.230   0.977 -0.1671 -0.8013  0.1729
 2717SOL     OW10865   0.896   1.511   3.768  0.0786 -0.4727 -0.6306
 2717SOL    HW110866   0.895   1.459   3.848  0.5337 -0.1321 -0.3964
 2717SOL    HW210867   0.803   1.528   3.749 -0.0667 -1.2557 -0.6447
 2717SOL     MW10868   0.884   1.507   3.776  0.1182 -0.5293 -0.6024
 2718SOL     OW10869   0.539   0.878   3.692  0.2061 -0.1882 -0.1541
 2718SOL    HW110870   0.574   0.790   3.678  1.7352  0.5862 -1.4465
 2718SOL    HW210871   0.491   0.898   3.612  0.8025  0.5574 -0.3376
 2718SOL     MW10872   0.537   0.869   3.680  0.4782  0.0064 -0.3431
 2719SOL     OW10873   3.021   4.581   4.731 -0.7529  0.2005 -0.4860
 2719SOL    HW110874   3.000   4.587   4.825 -1.0710 -0.4471 -0.5062
 2719SOL    HW210875   3.087   4.649   4.717 -0.8906  0.4810  0.1529
 2719SOL     MW10876   3.027   4.590   4.741 -0.8113  0.1535 -0.4068
 2720SOL     OW10877   1.048   2.563   1.815 -0.4337  0.6283  0.3310
 2720SOL    HW110878   1.119   2.577   1.878 -0.2211  2.6723 -0.2994
 2720SOL    HW210879   1.019   2.651   1.791 -0.7703 -0.0735 -2.1191
 2720SOL     MW10880   1.054   2.576   1.820 -0.4496  0.8002 -0.0634
 2721SOL     OW10881   3.700   0.111   3.924 -0.6443  0.3993 -0.5493
 2721SOL    HW110882   3.729   0.112   3.832  0.5512  1.2756 -0.1853
 2721SOL    HW210883   3.636   0.040   3.928  0.7029 -0.9386 -1.6363
 2721SOL     MW10884   3.695   0.102   3.912 -0.3188  0.3402 -0.6418
 2722SOL     OW10885   3.399   5.212   5.021  0.6337 -0.4209 -0.3939
 2722SOL    HW110886   3.489   5.193   4.994  0.2447 -0.5457 -1.6749
 2722SOL    HW210887   3.358   5.126   5.031  1.1313 -0.4495  2.0638
 2722SOL     MW10888   3.405   5.199   5.019  0.6476 -0.4406 -0.2433
 2723SOL     OW10889   5.393   3.004   1.387  0.5891 -0.2947  0.2374
 2723SOL    HW110890   5.435   2.940   1.330  2.2490 -0.3234  1.4320
 2723SOL    HW210891   5.405   3.088   1.342 -0.2030 -0.5852 -0.5597
 2723SOL     MW10892   5.400   3.007   1.374  0.7002 -0.3356  0.2883
 2724SOL     OW10893   5.429   3.164   3.517 -0.0908 -0.2959  0.0125
 2724SOL    HW110894   5.439   3.237   3.457  1.8445  0.4373  1.1510
 2724SOL    HW210895   5.410   3.089   3.460  0.3634  0.6074 -1.3833
 2724SOL     MW10896   5.428   3.163   3.502  0.2151 -0.0864 -0.0204
 2725SOL     OW10897   3.159   1.977   3.260 -0.1796  0.1414  0.2558
 2725SOL    HW110898   3.212   1.899   3.276  0.3987 -0.2758 -3.0018
 2725SOL    HW210899   3.220   2.039   3.219 -1.3701  1.1273 -0.0723
 2725SOL     MW10900   3.174   1.975   3.257 -0.2579  0.2142 -0.2032
 2726SOL     OW10901   0.070   4.592   5.113 -0.1338 -0.2751 -0.1648
 2726SOL    HW110902   0.163   4.587   5.090  0.4577  1.0410  1.6777
 2726SOL    HW210903   0.066   4.561   5.203 -1.3253  0.5859  0.0985
 2726SOL     MW10904   0.082   4.587   5.121 -0.2106  0.0036  0.1048
 2727SOL     OW10905   0.666   3.024   5.297  0.2966  0.4613  0.0909
 2727SOL    HW110906   0.617   2.941   5.289 -0.9794  1.3881 -3.7509
 2727SOL    HW210907   0.733   3.019   5.228  1.1406  2.0602  0.7525
 2727SOL     MW10908   0.668   3.013   5.287  0.2413  0.7846 -0.3162
 2728SOL     OW10909   2.604   0.887   0.911 -0.1337 -0.6570  0.0516
 2728SOL    HW110910   2.677   0.846   0.957  1.0274 -0.9302 -1.9231
 2728SOL    HW210911   2.642   0.963   0.868 -0.9758 -0.8525 -1.0897
 2728SOL     MW10912   2.618   0.891   0.911 -0.0929 -0.7170 -0.3473
 2729SOL     OW10913   4.042   5.367   2.192 -0.5354 -0.4389 -0.2405
 2729SOL    HW110914   4.059   5.273   2.195  0.9246 -0.2086 -0.3492
 2729SOL    HW210915   3.995   5.386   2.273  1.6706 -0.8320  1.2289
 2729SOL     MW10916   4.038   5.357   2.202 -0.0661 -0.4598 -0.0663
 2730SOL     OW10917   3.492   4.176   3.861 -0.0370 -0.1723  0.4155
 2730SOL    HW110918   3.440   4.096   3.857  0.8044 -0.7290  0.3760
 2730SOL    HW210919   3.574   4.150   3.903  0.2047  0.6905  0.5014
 2730SOL     MW10920   3.496   4.162   3.866  0.1016 -0.1331  0.4215
 2731SOL     OW10921   1.530   0.960   2.834 -0.2581 -0.5509  0.1265
 2731SOL    HW110922   1.498   1.037   2.881  2.2856 -0.0653  1.2555
 2731SOL    HW210923   1.625   0.962   2.849  0.1520 -2.5928 -1.8227
 2731SOL     MW10924   1.538   0.970   2.842  0.1200 -0.7501  0.0215
 2732SOL     OW10925   1.050   0.185   1.621 -0.1246 -1.0815  0.0704
 2732SOL    HW110926   0.983   0.180   1.689 -0.4504 -0.2845 -0.1872
 2732SOL    HW210927   1.057   0.278   1.600  0.1265 -1.2900 -0.8355
 2732SOL     MW10928   1.043   0.196   1.627 -0.1342 -1.0062 -0.0785
 2733SOL     OW10929   1.182   1.102   1.865 -0.9809 -0.3188  0.8251
 2733SOL    HW110930   1.214   1.015   1.889 -0.4760 -0.5831 -0.6749
 2733SOL    HW210931   1.130   1.088   1.786  0.3122  0.8783 -0.3170
 2733SOL     MW10932   1.180   1.089   1.858 -0.7507 -0.1994  0.4869
 2734SOL     OW10933   4.308   3.304   5.069 -0.0854 -0.3187  0.0822
 2734SOL    HW110934   4.296   3.211   5.086 -0.3693 -0.4134 -0.5959
 2734SOL    HW210935   4.280   3.347   5.150 -0.1455 -0.8102  0.3271
 2734SOL     MW10936   4.303   3.298   5.081 -0.1295 -0.3938  0.0268
 2735SOL     OW10937   4.871   3.450  -0.004  0.2294  0.3431  0.3555
 2735SOL    HW110938   4.952   3.432  -0.052 -0.4050 -0.1675 -0.5651
 2735SOL    HW210939   4.883   3.407   0.081  0.6675 -0.2955 -0.0194
 2735SOL     MW10940   4.883   3.442   0.001  0.2043  0.1960  0.1896
 2736SOL     OW10941   0.876   4.121   0.740 -0.2661  0.2636 -0.1350
 2736SOL    HW110942   0.884   4.027   0.758 -0.5524  0.3498  0.4744
 2736SOL    HW210943   0.961   4.157   0.764  0.0946  0.0584 -1.0723
 2736SOL     MW10944   0.888   4.113   0.745 -0.2566  0.2483 -0.1769
 2737SOL     OW10945   4.464   3.648   1.679 -0.4869  0.6133 -0.1465
 2737SOL    HW110946   4.525   3.650   1.753 -0.6552  2.3095  0.0098
 2737SOL    HW210947   4.378   3.638   1.720 -0.4932  0.5504 -0.1765
 2737SOL     MW10948   4.460   3.647   1.694 -0.5092  0.8223 -0.1303
 2738SOL     OW10949   3.220   3.771   4.494 -0.4010 -0.3420 -0.1366
 2738SOL    HW110950   3.153   3.788   4.427 -0.2254  2.4295  0.2440
 2738SOL    HW210951   3.262   3.856   4.506  1.6824 -1.4991  1.2739
 2738SOL     MW10952   3.217   3.784   4.487 -0.1118 -0.1353  0.0927
 2739SOL     OW10953   0.226   5.083   1.021  0.4754 -0.1264  0.0678
 2739SOL    HW110954   0.294   5.149   1.006 -0.5560  0.8591 -0.3677
 2739SOL    HW210955   0.187   5.107   1.105  0.7782 -0.8101  0.4145
 2739SOL     MW10956   0.230   5.095   1.030  0.3822 -0.0878  0.0565
 2740SOL     OW10957   4.089   2.818   5.256 -0.5564  0.0327  0.7375
 2740SOL    HW110958   4.092   2.906   5.294 -0.0841  0.1322  0.4655
 2740SOL    HW210959   4.165   2.773   5.292 -2.4577 -1.3481  3.4697
 2740SOL     MW10960   4.099   2.823   5.265 -0.7394 -0.1313  1.0524
 2741SOL     OW10961   1.104   4.315   1.777  0.0544  0.3094 -0.1258
 2741SOL    HW110962   1.032   4.261   1.810  1.5423 -0.5034  2.0192
 2741SOL    HW210963   1.149   4.345   1.856  2.2859  0.4874 -1.3882
 2741SOL     MW10964   1.100   4.312   1.791  0.5305  0.2281 -0.0128
 2742SOL     OW10965   4.988   0.565   1.698  0.3243 -0.2308  0.4231
 2742SOL    HW110966   4.940   0.497   1.651  0.1258  0.0050  0.2833
 2742SOL    HW210967   4.919   0.618   1.739  0.4194  0.6699 -0.5434
 2742SOL     MW10968   4.973   0.563   1.697  0.3111 -0.0853  0.2815
 2743SOL     OW10969   3.017   0.293   4.499 -0.1507 -0.1345  0.3001
 2743SOL    HW110970   3.053   0.362   4.443 -0.3772 -0.1558  0.1274
 2743SOL    HW210971   3.013   0.216   4.442 -1.4129  0.1228  0.0193
 2743SOL     MW10972   3.021   0.292   4.484 -0.3413 -0.1043  0.2421
 2744SOL     OW10973   0.767   3.791   4.443 -0.2106  0.4345 -0.3778
 2744SOL    HW110974   0.770   3.721   4.377  1.3493 -1.2872  1.3802
 2744SOL    HW210975   0.745   3.746   4.524 -0.6615  2.2737  0.5715
 2744SOL     MW10976   0.764   3.776   4.445 -0.0686  0.4495 -0.0313
 2745SOL     OW10977   3.211   4.485   2.267  0.1084 -0.0325 -0.2255
 2745SOL    HW110978   3.157   4.557   2.234 -1.0444 -0.9429 -0.3572
 2745SOL    HW210979   3.295   4.527   2.287 -0.8728  1.5736  0.7682
 2745SOL     MW10980   3.215   4.500   2.265 -0.1648  0.0566 -0.1151
 2746SOL     OW10981   0.155   2.809   3.757  0.0933  0.0509 -0.3321
 2746SOL    HW110982   0.144   2.896   3.797  0.5440  0.1783 -0.4824
 2746SOL    HW210983   0.246   2.786   3.774 -0.4126 -1.0556  1.0128
 2746SOL     MW10984   0.165   2.817   3.764  0.0863 -0.0745 -0.1792
 2747SOL     OW10985   0.905   0.391   1.012  0.5452 -0.1908 -0.2503
 2747SOL    HW110986   0.937   0.479   1.034 -0.5571 -0.0534  0.9034
 2747SOL    HW210987   0.813   0.393   1.036  0.6398 -1.8558  0.3143
 2747SOL     MW10988   0.898   0.403   1.018  0.4162 -0.3863 -0.0303
 2748SOL     OW10989   1.559   4.496   3.328  0.1279 -0.4498  0.3926
 2748SOL    HW110990   1.636   4.544   3.296  0.1459  0.1306  1.2845
 2748SOL    HW210991   1.486   4.533   3.278  0.2293  0.0595  0.6154
 2748SOL     MW10992   1.560   4.507   3.317  0.1432 -0.3103  0.5353
 2749SOL     OW10993   4.169   2.636   0.684 -0.2066 -0.4246 -0.5031
 2749SOL    HW110994   4.130   2.678   0.760 -0.1603  0.7765 -1.1085
 2749SOL    HW210995   4.257   2.611   0.712  1.1478  3.1775 -1.1007
 2749SOL     MW10996   4.175   2.638   0.697 -0.0273  0.1903 -0.6571
 2750SOL     OW10997   4.615   5.257   3.490  0.1943  0.2929  0.0346
 2750SOL    HW110998   4.588   5.231   3.578  0.2290  2.1301  0.6288
 2750SOL    HW210999   4.709   5.241   3.487  0.0776 -0.4161  0.0803
 2750SOL     MW11000   4.624   5.252   3.501  0.1838  0.4374  0.1165
 2751SOL     OW11001   0.298   1.581   5.334 -0.4412  0.1809 -0.3938
 2751SOL    HW111002   0.343   1.508   5.377  1.3805  1.4437 -0.0267
 2751SOL    HW211003   0.265   1.544   5.252  1.2942 -0.8467 -0.6747
 2751SOL     MW11004   0.300   1.567   5.329  0.0141  0.2110 -0.3827
 2752SOL     OW11005   3.346   2.794   0.036 -0.5042  0.2200  0.1549
 2752SOL    HW111006   3.361   2.708   0.075 -0.0949  0.7023  1.1024
 2752SOL    HW211007   3.271   2.829   0.085 -0.5592  0.4727 -0.1096
 2752SOL     MW11008   3.338   2.787   0.048 -0.4589  0.3141  0.2423
 2753SOL     OW11009   0.326   4.688   1.036  0.0297  0.6185  0.7078
 2753SOL    HW111010   0.362   4.602   1.015  0.5996  0.4467  2.2750
 2753SOL    HW211011   0.257   4.702   0.971  0.6053 -0.5692 -0.1927
 2753SOL     MW11012   0.322   4.679   1.025  0.1763  0.4445  0.7931
 2754SOL     OW11013   1.196   3.362   2.237 -0.0732 -0.1883  0.4426
 2754SOL    HW111014   1.194   3.448   2.278  1.8181 -0.4791  1.2373
 2754SOL    HW211015   1.238   3.376   2.152 -0.9942 -0.1218 -0.0101
 2754SOL     MW11016   1.201   3.375   2.232  0.0510 -0.2170  0.4864
 2755SOL     OW11017   3.171   1.856   5.365 -0.7735  0.2920  0.1037
 2755SOL    HW111018   3.087   1.820   5.393 -0.3885 -1.1831 -0.5432
 2755SOL    HW211019   3.153   1.897   5.280 -0.7719 -0.4208 -0.2516
 2755SOL     MW11020   3.158   1.857   5.358 -0.7240  0.0119 -0.0246
 2756SOL     OW11021   0.992   5.320   3.911  0.1196 -0.0179  0.2364
 2756SOL    HW111022   0.986   5.263   3.834 -0.9231  2.2207 -1.4688
 2756SOL    HW211023   1.062   5.381   3.889  0.8867 -0.3102  1.8025
 2756SOL     MW11024   1.000   5.320   3.898  0.0843  0.2312  0.2186
 2757SOL     OW11025   4.415   4.970   0.825 -0.0143 -0.0979  0.5534
 2757SOL    HW111026   4.440   5.045   0.771 -0.9024  0.4438  0.8824
 2757SOL    HW211027   4.476   4.973   0.899 -2.4571  2.7044  2.6724
 2757SOL     MW11028   4.426   4.980   0.828 -0.4407  0.3302  0.8668
 2758SOL     OW11029   2.441   5.431   0.420 -0.0121 -0.1754 -0.4511
 2758SOL    HW111030   2.384   5.470   0.487 -0.9170  1.8385 -2.2634
 2758SOL    HW211031   2.395   5.352   0.392  0.3814 -1.0418  1.2561
 2758SOL     MW11032   2.428   5.426   0.425 -0.0776 -0.0285 -0.4646
 2759SOL     OW11033   0.678   4.700   3.473 -0.0598  0.3110 -0.4385
 2759SOL    HW111034   0.685   4.616   3.518  0.8472  0.4066 -0.3772
 2759SOL    HW211035   0.584   4.719   3.472 -0.3505 -1.0088 -1.0262
 2759SOL     MW11036   0.667   4.692   3.479  0.0191  0.1543 -0.5059
 2760SOL     OW11037   4.796   1.775  -0.019 -0.5097 -0.5090  0.2371
 2760SOL    HW111038   4.702   1.791  -0.024 -0.3624  0.6856  0.8337
 2760SOL    HW211039   4.819   1.796   0.072  0.3815 -0.4438  0.0093
 2760SOL     MW11040   4.787   1.780  -0.008 -0.3767 -0.3478  0.2843
 2761SOL     OW11041   1.244   0.003   1.724  0.2033  0.5675  0.7316
 2761SOL    HW111042   1.165   0.047   1.755  0.5917  0.6479  1.6709
 2761SOL    HW211043   1.274   0.056   1.650 -1.6001 -0.5000 -0.8496
 2761SOL     MW11044   1.238   0.016   1.719  0.0222  0.4411  0.6494
 2762SOL     OW11045   3.647   3.998   3.175 -0.2182 -0.0708 -0.2387
 2762SOL    HW111046   3.693   4.077   3.147 -1.0342  0.3703 -0.3616
 2762SOL    HW211047   3.554   4.019   3.165 -0.4809 -0.6335  0.8357
 2762SOL     MW11048   3.641   4.011   3.170 -0.3563 -0.0864 -0.1169
 2763SOL     OW11049   4.968   4.577   3.649 -0.3044 -0.0446  0.0262
 2763SOL    HW111050   4.896   4.523   3.682 -0.4452 -0.2433 -0.5769
 2763SOL    HW211051   5.028   4.587   3.723 -0.9872  0.1812  0.5531
 2763SOL     MW11052   4.966   4.571   3.663 -0.4098 -0.0411  0.0164
 2764SOL     OW11053   1.502   0.374   2.797 -0.4958 -0.1676  0.1223
 2764SOL    HW111054   1.504   0.381   2.893  1.2511 -0.9796  0.1888
 2764SOL    HW211055   1.470   0.285   2.781  0.6840 -0.5960  0.0269
 2764SOL     MW11056   1.498   0.363   2.807 -0.1211 -0.3264  0.1186
 2765SOL     OW11057   3.927   0.854   3.279 -0.2311 -0.0031  0.0240
 2765SOL    HW111058   3.947   0.775   3.228  0.0639 -0.9268  1.4996
 2765SOL    HW211059   3.838   0.877   3.254  0.6959  1.0644 -2.7332
 2765SOL     MW11060   3.918   0.846   3.269 -0.0747  0.0153 -0.1401
 2766SOL     OW11061   1.462   3.094   4.191  0.1202 -0.7070 -0.2909
 2766SOL    HW111062   1.411   3.173   4.170 -0.6306 -1.3205 -0.8002
 2766SOL    HW211063   1.459   3.041   4.112 -0.8827 -2.0563  0.5964
 2766SOL     MW11064   1.455   3.098   4.179 -0.1043 -0.9583 -0.2425
 2767SOL     OW11065   0.431   0.001   3.114  0.6713 -0.2474 -0.2840
 2767SOL    HW111066   0.500   0.058   3.147  0.9234 -0.4314 -0.4893
 2767SOL    HW211067   0.410   0.035   3.028 -0.4424  0.6297  0.3077
 2767SOL     MW11068   0.437   0.012   3.108  0.5610 -0.1587 -0.2345
 2768SOL     OW11069   4.873   3.392   0.485 -0.0487 -0.0737 -0.9234
 2768SOL    HW111070   4.925   3.345   0.550 -2.1939 -3.1822 -1.2281
 2768SOL    HW211071   4.927   3.392   0.406  0.7478 -0.3642 -0.3885
 2768SOL     MW11072   4.886   3.386   0.483 -0.2213 -0.5088 -0.8939
 2769SOL     OW11073   0.022   0.553   5.378 -0.1944  0.5165 -0.5130
 2769SOL    HW111074   0.083   0.626   5.389 -1.4666  1.3440  1.7936
 2769SOL    HW211075   0.018   0.538   5.284  1.7567  1.9582 -0.8780
 2769SOL     MW11076   0.029   0.560   5.368 -0.1075  0.8070 -0.2645
 2770SOL     OW11077   3.763   0.463   2.720  0.1458  0.4587  0.4036
 2770SOL    HW111078   3.826   0.459   2.793 -0.8798 -2.5389  1.2828
 2770SOL    HW211079   3.801   0.406   2.653 -0.8463 -0.1118  0.3097
 2770SOL     MW11080   3.776   0.455   2.721 -0.1125  0.0020  0.5041
 2771SOL     OW11081   2.556   1.851   3.234  0.9253  0.2834  0.4895
 2771SOL    HW111082   2.638   1.833   3.188  0.2866  1.0567 -1.0362
 2771SOL    HW211083   2.567   1.810   3.319  1.5298 -2.6756 -0.9036
 2771SOL     MW11084   2.568   1.844   3.239  0.9209  0.0036  0.1158
 2772SOL     OW11085   1.643   2.418   2.652  0.2230  1.0683 -0.2773
 2772SOL    HW111086   1.640   2.509   2.621 -0.1478  1.4235  0.7515
 2772SOL    HW211087   1.718   2.416   2.712 -0.1466  0.8609  0.1864
 2772SOL     MW11088   1.653   2.429   2.656  0.1282  1.0872 -0.0863
 2773SOL     OW11089   1.606   0.330   4.461 -0.1685  0.0719 -0.1741
 2773SOL    HW111090   1.641   0.388   4.529 -0.0127 -1.0944  0.7540
 2773SOL    HW211091   1.665   0.343   4.387 -0.8030  1.9644 -0.4270
 2773SOL     MW11092   1.618   0.339   4.460 -0.2298  0.1649 -0.0877
 2774SOL     OW11093   0.418   1.397   0.567 -0.0615 -0.1754  0.1256
 2774SOL    HW111094   0.447   1.445   0.489 -0.8700  1.4379  0.7891
 2774SOL    HW211095   0.341   1.348   0.538  0.4700 -0.7102 -0.4259
 2774SOL     MW11096   0.412   1.397   0.553 -0.0970 -0.0373  0.1399
 2775SOL     OW11097   0.843   4.915   5.409 -0.0023 -0.9950  0.2173
 2775SOL    HW111098   0.853   5.001   5.370 -1.0581 -0.5006  0.9933
 2775SOL    HW211099   0.757   4.917   5.452 -0.9782 -3.1066 -1.4212
 2775SOL     MW11100   0.833   4.926   5.410 -0.2624 -1.2020  0.1069
 2776SOL     OW11101   4.086   3.833   0.092 -0.2268  0.6554 -0.1425
 2776SOL    HW111102   4.066   3.743   0.066 -1.6225  1.3429 -1.5828
 2776SOL    HW211103   4.111   3.826   0.184  0.2984 -1.2710 -0.3780
 2776SOL     MW11104   4.087   3.821   0.100 -0.3382  0.4968 -0.3570
 2777SOL     OW11105   4.525   4.602   3.678 -0.3173  0.2326 -0.3234
 2777SOL    HW111106   4.491   4.578   3.764 -1.3764 -0.2444 -0.8587
 2777SOL    HW211107   4.605   4.551   3.668 -0.9106 -0.7446 -0.1658
 2777SOL     MW11108   4.531   4.593   3.687 -0.5288  0.0464 -0.3718
 2778SOL     OW11109   1.156   1.871   1.162 -0.2452 -0.2070  0.1850
 2778SOL    HW111110   1.235   1.850   1.112 -0.9512 -1.4742 -0.4433
 2778SOL    HW211111   1.120   1.948   1.117  0.6143  0.3722  0.4712
 2778SOL     MW11112   1.161   1.878   1.150 -0.2255 -0.2951  0.1412
 2779SOL     OW11113   3.297   2.601   1.308 -0.1415 -0.1683 -0.2052
 2779SOL    HW111114   3.318   2.593   1.215  0.0780  0.1260 -0.1833
 2779SOL    HW211115   3.225   2.540   1.322  0.0965 -0.5145 -0.4810
 2779SOL     MW11116   3.291   2.592   1.298 -0.0829 -0.1749 -0.2377
 2780SOL     OW11117   0.266   2.711   4.517  0.0147  0.0570 -0.4534
 2780SOL    HW111118   0.272   2.783   4.453 -1.2818  2.1521  1.6090
 2780SOL    HW211119   0.357   2.687   4.534  0.4483  0.5822 -1.8553
 2780SOL     MW11120   0.279   2.717   4.511 -0.0958  0.3924 -0.3689
 2781SOL     OW11121   1.407   1.589   0.978 -0.0047  0.1250  0.0845
 2781SOL    HW111122   1.429   1.677   1.008 -0.9396 -0.1391  1.6685
 2781SOL    HW211123   1.311   1.588   0.974 -0.2224 -1.6184  2.9711
 2781SOL     MW11124   1.397   1.600   0.982 -0.1523 -0.1320  0.6568
 2782SOL     OW11125   5.199   1.167   0.158 -0.0354 -0.1306 -0.3203
 2782SOL    HW111126   5.211   1.194   0.067 -0.0184 -0.4771 -0.4213
 2782SOL    HW211127   5.272   1.109   0.176 -2.6607 -4.3454 -1.7220
 2782SOL     MW11128   5.210   1.163   0.149 -0.3693 -0.7145 -0.5127
 2783SOL     OW11129   4.015   5.024   2.524 -0.1117 -0.3152 -0.3638
 2783SOL    HW111130   4.001   4.932   2.499  1.8645 -0.7502  0.0039
 2783SOL    HW211131   4.036   5.068   2.442  2.1853 -0.8948 -0.1476
 2783SOL     MW11132   4.016   5.018   2.511  0.4353 -0.4451 -0.2890
 2784SOL     OW11133   1.810   5.325   1.580 -0.0331 -0.1914  0.1606
 2784SOL    HW111134   1.763   5.358   1.657 -1.8751 -1.7069 -0.2418
 2784SOL    HW211135   1.903   5.340   1.601 -0.4699 -0.3910  2.6052
 2784SOL     MW11136   1.816   5.331   1.593 -0.3248 -0.4109  0.4220
 2785SOL     OW11137   0.277   2.294   2.064 -0.6697 -0.1899  0.3954
 2785SOL    HW111138   0.353   2.236   2.073 -0.7007 -0.0255  2.1024
 2785SOL    HW211139   0.222   2.273   2.139 -2.4849 -0.4869 -0.9421
 2785SOL     MW11140   0.280   2.284   2.075 -0.9061 -0.2069  0.4427
 2786SOL     OW11141   1.259   4.914   5.136 -0.2045 -0.2213  0.6369
 2786SOL    HW111142   1.337   4.959   5.104  1.4771 -2.5758  1.1187
 2786SOL    HW211143   1.232   4.964   5.213  0.2370  1.1622 -0.0726
 2786SOL     MW11144   1.265   4.926   5.142  0.0673 -0.3456  0.6077
 2787SOL     OW11145   1.738   1.255   2.952 -0.5927  0.4248 -0.0131
 2787SOL    HW111146   1.682   1.330   2.967 -1.3393  0.1927 -1.5327
 2787SOL    HW211147   1.827   1.289   2.961 -0.9271  1.4184 -0.3765
 2787SOL     MW11148   1.742   1.269   2.955 -0.7310  0.5223 -0.2541
 2788SOL     OW11149   0.280   3.934   1.581  0.2051  0.0362 -0.2025
 2788SOL    HW111150   0.334   3.931   1.502  0.7382 -0.0677  0.1649
 2788SOL    HW211151   0.200   3.980   1.554  0.9162  1.1297 -0.4798
 2788SOL     MW11152   0.276   3.939   1.567  0.3643  0.1629 -0.1910
 2789SOL     OW11153   0.935   4.235   1.116  0.5617  0.3806 -0.1937
 2789SOL    HW111154   1.010   4.289   1.090  1.0255 -0.7995 -1.4373
 2789SOL    HW211155   0.869   4.252   1.049 -0.5994  1.9213  1.2552
 2789SOL     MW11156   0.936   4.244   1.104  0.4724  0.4267 -0.1674
 2790SOL     OW11157   2.060   0.570   1.153 -0.2666  0.0310 -0.0440
 2790SOL    HW111158   2.099   0.653   1.180 -0.1882  0.0431 -0.1888
 2790SOL    HW211159   2.013   0.591   1.072  0.3133 -0.1962 -0.4575
 2790SOL     MW11160   2.059   0.583   1.146 -0.1823  0.0035 -0.1155
 2791SOL     OW11161   0.865   0.706   1.698  0.2043  0.0602  0.5617
 2791SOL    HW111162   0.942   0.754   1.668  0.6740 -1.1270 -0.2224
 2791SOL    HW211163   0.869   0.711   1.794  2.5062 -1.7894  0.6518
 2791SOL     MW11164   0.875   0.713   1.707  0.5591 -0.3285  0.4729
 2792SOL     OW11165   3.746   2.154   0.335  0.0810 -0.1659 -0.3430
 2792SOL    HW111166   3.737   2.248   0.323 -1.8504 -0.2801 -0.1939
 2792SOL    HW211167   3.763   2.143   0.429 -1.3767 -0.0130 -0.0393
 2792SOL     MW11168   3.747   2.165   0.346 -0.3529 -0.1610 -0.2850
 2793SOL     OW11169   5.059   1.993   5.053  0.3167  0.0220  0.5913
 2793SOL    HW111170   5.028   2.020   4.966  0.4031  1.3239  0.9479
 2793SOL    HW211171   5.143   1.949   5.036  0.3641  0.3233  0.0205
 2793SOL     MW11172   5.066   1.990   5.040  0.3339  0.2272  0.5639
 2794SOL     OW11173   2.794   5.077   4.773 -0.2471 -0.0871  0.5458
 2794SOL    HW111174   2.719   5.038   4.728 -0.8000  1.3821  0.1048
 2794SOL    HW211175   2.865   5.015   4.761 -0.4326  0.1230 -2.2160
 2794SOL     MW11176   2.793   5.064   4.766 -0.3416  0.1279  0.1358
 2795SOL     OW11177   0.554   1.828   1.294 -0.1756 -0.4691 -0.6348
 2795SOL    HW111178   0.533   1.860   1.381  0.1769 -1.2141 -0.2682
 2795SOL    HW211179   0.538   1.903   1.236  0.2575  0.2434  0.1500
 2795SOL     MW11180   0.550   1.842   1.298 -0.0750 -0.4733 -0.4874
 2796SOL     OW11181   0.671   2.612   0.040  0.5250 -0.3105  0.1179
 2796SOL    HW111182   0.715   2.530   0.063 -0.1027 -1.0349 -1.1341
 2796SOL    HW211183   0.719   2.643  -0.037 -0.7783 -0.8385 -0.9409
 2796SOL     MW11184   0.683   2.605   0.033  0.2778 -0.4708 -0.1779
 2797SOL     OW11185   4.019   1.361   2.540  0.2017  0.1567  0.4947
 2797SOL    HW111186   4.008   1.456   2.534 -1.3131 -0.0678 -1.0392
 2797SOL    HW211187   3.933   1.328   2.562  0.6758 -0.8852  0.8460
 2797SOL     MW11188   4.007   1.369   2.542  0.0685 -0.0054  0.3433
 2798SOL     OW11189   2.090   3.037   4.692 -0.5540  0.5973  0.3343
 2798SOL    HW111190   2.092   3.117   4.640 -2.7212 -0.1573 -1.0472
 2798SOL    HW211191   2.091   2.966   4.627  3.5870 -0.7146  1.5151
 2798SOL     MW11192   2.091   3.038   4.677 -0.3013  0.3328  0.3086
 2799SOL     OW11193   0.904   1.428   2.672 -0.4825 -0.5272 -0.3485
 2799SOL    HW111194   0.938   1.429   2.583 -1.0647  0.8797 -0.5894
 2799SOL    HW211195   0.813   1.456   2.663 -1.9610 -4.5116  0.2290
 2799SOL     MW11196   0.897   1.432   2.660 -0.7463 -0.8572 -0.3054
 2800SOL     OW11197   3.801   1.760   1.831 -0.6195  0.1469 -0.9550
 2800SOL    HW111198   3.804   1.771   1.736  0.2867  0.1382 -0.9306
 2800SOL    HW211199   3.824   1.846   1.866 -0.6366  0.0647 -0.7391
 2800SOL     MW11200   3.804   1.773   1.823 -0.5057  0.1352 -0.9242
 2801SOL     OW11201   0.825   4.997   3.319  0.1113  0.2830 -0.0737
 2801SOL    HW111202   0.748   4.946   3.345 -0.2596  1.2483  0.7947
 2801SOL    HW211203   0.882   4.994   3.396 -0.3494  1.9623  0.3679
 2801SOL     MW11204   0.822   4.990   3.332  0.0048  0.6216  0.0940
 2802SOL     OW11205   3.079   1.318   2.235 -0.2372 -0.3013 -0.0823
 2802SOL    HW111206   3.114   1.243   2.283 -1.3288  0.0455  1.3105
 2802SOL    HW211207   3.037   1.372   2.301  1.0333  1.8925 -0.9320
 2802SOL     MW11208   3.078   1.315   2.249 -0.2143  0.0240 -0.0128
 2803SOL     OW11209   1.550   4.527   2.857 -0.1196 -0.2313 -0.0440
 2803SOL    HW111210   1.549   4.517   2.761 -0.5937 -1.5197  0.0819
 2803SOL    HW211211   1.463   4.559   2.879 -0.2079 -0.5104  0.0126
 2803SOL     MW11212   1.539   4.530   2.847 -0.1916 -0.4320 -0.0206
 2804SOL     OW11213   1.089   1.421   1.623  0.1787  0.1373 -0.1614
 2804SOL    HW111214   1.171   1.371   1.625 -0.2928 -0.6404  0.0520
 2804SOL    HW211215   1.096   1.474   1.544  0.4423 -0.6980 -0.7130
 2804SOL     MW11216   1.100   1.422   1.613  0.1521 -0.0692 -0.2047
 2805SOL     OW11217   4.546   2.878   2.369  0.4799  0.0344  0.1980
 2805SOL    HW111218   4.455   2.906   2.376  0.5628  0.1280  1.0242
 2805SOL    HW211219   4.591   2.953   2.329  0.2495  0.0983  0.0596
 2805SOL     MW11220   4.540   2.892   2.365  0.4610  0.0546  0.2861
 2806SOL     OW11221   1.444   4.618   2.033 -0.0585  0.0111  0.6572
 2806SOL    HW111222   1.537   4.596   2.025 -0.0288  0.3267  0.0470
 2806SOL    HW211223   1.438   4.707   1.998 -0.5330  0.1220  1.0192
 2806SOL     MW11224   1.455   4.627   2.027 -0.1155  0.0657  0.6254
 2807SOL     OW11225   1.036   5.018   3.498  0.4293 -0.0689 -0.1234
 2807SOL    HW111226   1.075   5.102   3.472  0.9014  0.4169  1.9531
 2807SOL    HW211227   1.095   4.984   3.564 -1.2506 -0.6329  1.1602
 2807SOL     MW11228   1.048   5.025   3.503  0.2747 -0.0789  0.3068
 2808SOL     OW11229   5.230   1.019   4.235 -1.0905 -0.4540  0.1669
 2808SOL    HW111230   5.269   1.044   4.151  0.4196  1.6564  1.4042
 2808SOL    HW211231   5.251   0.926   4.244  0.0602 -0.3523 -1.0998
 2808SOL     MW11232   5.238   1.010   4.225 -0.7499 -0.1708  0.1631
 2809SOL     OW11233   2.946   3.116   4.922 -0.2695 -0.7109  0.2680
 2809SOL    HW111234   2.886   3.190   4.927 -0.0795 -0.5317 -0.0893
 2809SOL    HW211235   3.013   3.134   4.988  0.1329 -0.2411 -0.2614
 2809SOL     MW11236   2.947   3.128   4.931 -0.1936 -0.6279  0.1545
 2810SOL     OW11237   4.783   2.616   0.033  0.3005 -0.1111 -0.3174
 2810SOL    HW111238   4.870   2.576   0.025  0.4572  0.1904 -0.1885
 2810SOL    HW211239   4.722   2.551  -0.001  0.5654 -0.3888 -0.2612
 2810SOL     MW11240   4.787   2.603   0.028  0.3545 -0.1081 -0.2937
 2811SOL     OW11241   3.721   3.127   4.131 -0.6059 -0.1856  0.1106
 2811SOL    HW111242   3.674   3.139   4.213  1.0369 -0.2260  1.0954
 2811SOL    HW211243   3.750   3.214   4.106  2.0368 -0.5688  1.5577
 2811SOL     MW11244   3.719   3.139   4.138 -0.0573 -0.2398  0.4219
 2812SOL     OW11245   2.146   4.763   4.844  0.3226 -0.3231 -0.6690
 2812SOL    HW111246   2.185   4.806   4.767  0.0847 -0.1419 -0.6906
 2812SOL    HW211247   2.076   4.708   4.808 -1.0603  1.2117 -0.4354
 2812SOL     MW11248   2.142   4.762   4.829  0.1151 -0.1035 -0.6418
 2813SOL     OW11249   5.448   3.951   0.362  0.2869 -0.5207  0.1299
 2813SOL    HW111250   5.485   4.012   0.298  1.6021 -0.2089  1.1381
 2813SOL    HW211251   5.488   3.867   0.341  0.7803 -0.4020  0.5692
 2813SOL     MW11252   5.458   3.948   0.351  0.5184 -0.4656  0.3152
 2814SOL     OW11253   3.835   3.112   3.751  0.3319 -0.1961  0.9230
 2814SOL    HW111254   3.758   3.076   3.795 -0.8869  0.0325 -0.9374
 2814SOL    HW211255   3.907   3.095   3.812 -1.0925 -0.8266  2.5111
 2814SOL     MW11256   3.834   3.105   3.765 -0.0065 -0.2476  0.8881
 2815SOL     OW11257   4.440   4.244   0.650  0.0183  0.1196  0.7961
 2815SOL    HW111258   4.458   4.215   0.739  0.3114  0.2187  0.7720
 2815SOL    HW211259   4.399   4.330   0.661 -0.0526  0.0796  0.8404
 2815SOL     MW11260   4.437   4.252   0.663  0.0467  0.1271  0.7987
 2816SOL     OW11261   0.574   2.005   0.432  0.0531 -0.2031  0.2132
 2816SOL    HW111262   0.481   1.981   0.443 -0.0837 -1.1322 -2.1621
 2816SOL    HW211263   0.589   2.075   0.495 -2.8694  1.4380 -0.7193
 2816SOL     MW11264   0.564   2.011   0.441 -0.3385 -0.1120 -0.2102
 2817SOL     OW11265   0.414   3.900   2.056 -0.1821 -0.4269  0.5386
 2817SOL    HW111266   0.431   3.948   2.137 -3.4630  0.4574  0.8740
 2817SOL    HW211267   0.408   3.968   1.989  2.4166 -1.1457 -0.5410
 2817SOL     MW11268   0.415   3.915   2.058 -0.2695 -0.4057  0.4433
 2818SOL     OW11269   3.483   1.890   4.754 -0.4885  0.2764  0.0534
 2818SOL    HW111270   3.470   1.921   4.665 -1.2978 -0.0634  0.0452
 2818SOL    HW211271   3.396   1.891   4.794 -0.0019  1.3174  1.1467
 2818SOL     MW11272   3.471   1.894   4.748 -0.5298  0.3662  0.1923
 2819SOL     OW11273   0.950   4.712   4.848 -0.6288  0.6837  0.1262
 2819SOL    HW111274   0.891   4.656   4.898 -0.7860  1.5665  0.9663
 2819SOL    HW211275   0.983   4.775   4.913  0.3645  0.8949 -0.5675
 2819SOL     MW11276   0.947   4.713   4.863 -0.5218  0.8237  0.1449
 2820SOL     OW11277   1.174   0.248   5.379  0.3462  0.1223 -0.6180
 2820SOL    HW111278   1.152   0.288   5.295  0.6719 -0.8663 -1.1875
 2820SOL    HW211279   1.260   0.210   5.366  0.2521 -0.3435  0.0663
 2820SOL     MW11280   1.182   0.249   5.367  0.3759 -0.0639 -0.6033
 2821SOL     OW11281   1.958   0.521   1.479 -0.1348 -0.7625  0.0539
 2821SOL    HW111282   1.941   0.497   1.570  0.4438  0.0799  0.3952
 2821SOL    HW211283   2.049   0.494   1.464  0.7475  1.6322  0.6320
 2821SOL     MW11284   1.967   0.514   1.489  0.0522 -0.3481  0.1716
 2822SOL     OW11285   5.176   0.244   1.682  0.2875  0.1104 -0.4314
 2822SOL    HW111286   5.161   0.262   1.590 -1.1284  0.3633 -0.1698
 2822SOL    HW211287   5.224   0.320   1.715  0.8743 -0.0222 -0.9592
 2822SOL     MW11288   5.180   0.256   1.675  0.1814  0.1258 -0.4655
 2823SOL     OW11289   1.635   0.905   4.806 -0.3326  0.4893  0.9662
 2823SOL    HW111290   1.687   0.832   4.772  0.3999  1.2361  0.4482
 2823SOL    HW211291   1.560   0.863   4.849  0.3794 -0.5812  1.1922
 2823SOL     MW11292   1.632   0.890   4.807 -0.1477  0.4479  0.9288
 2824SOL     OW11293   5.057   2.650   3.297 -0.6623  0.1743 -0.6514
 2824SOL    HW111294   5.055   2.579   3.233 -0.7765 -0.3071 -0.1273
 2824SOL    HW211295   5.134   2.701   3.274 -0.3238 -0.3812 -0.7745
 2824SOL     MW11296   5.067   2.647   3.286 -0.6336  0.0416 -0.6000
 2825SOL     OW11297   1.121   0.820   4.659  0.2576 -0.2656  0.2243
 2825SOL    HW111298   1.204   0.776   4.645 -0.2501 -1.1962  0.0678
 2825SOL    HW211299   1.099   0.859   4.575  1.1601  1.1243  0.5976
 2825SOL     MW11300   1.128   0.820   4.647  0.3082 -0.2068  0.2520
 2826SOL     OW11301   5.380   5.437   0.568 -0.4972 -0.3769  0.3689
 2826SOL    HW111302   5.289   5.409   0.577 -0.7973  0.4410 -0.0813
 2826SOL    HW211303   5.408   5.454   0.658 -0.0626 -2.7659  0.7681
 2826SOL     MW11304   5.372   5.435   0.581 -0.4800 -0.5780  0.3623
 2827SOL     OW11305   1.469   3.546   2.434 -0.0662  0.7392 -0.7848
 2827SOL    HW111306   1.528   3.487   2.481 -0.6019  0.6163 -0.2548
 2827SOL    HW211307   1.506   3.633   2.449 -0.5036  0.7571  0.3029
 2827SOL     MW11308   1.481   3.549   2.442 -0.1908  0.7258 -0.5777
 2828SOL     OW11309   3.663   3.702   0.329 -0.0933 -0.3466 -0.0691
 2828SOL    HW111310   3.578   3.729   0.365  0.6698  1.9038  0.2167
 2828SOL    HW211311   3.671   3.752   0.247  0.5284 -1.3096 -0.6088
 2828SOL     MW11312   3.653   3.712   0.323  0.0839 -0.1818 -0.1016
 2829SOL     OW11313   3.916  -0.006   0.663  0.1487  0.5066 -0.5826
 2829SOL    HW111314   3.957   0.058   0.604 -0.2839  0.5656 -0.8226
 2829SOL    HW211315   3.825  -0.012   0.632 -1.0809  2.9965  2.0125
 2829SOL     MW11316   3.909   0.002   0.651 -0.0641  0.8328 -0.2811
 2830SOL     OW11317   2.687   4.886   0.411  0.1237  0.1155 -0.8217
 2830SOL    HW111318   2.757   4.839   0.364 -1.2524 -1.2212 -1.6475
 2830SOL    HW211319   2.628   4.916   0.341 -1.0425 -0.3634 -0.0724
 2830SOL     MW11320   2.689   4.884   0.396 -0.2018 -0.1169 -0.8315
 2831SOL     OW11321   0.368   4.399   0.174  0.3291 -0.2044 -0.3313
 2831SOL    HW111322   0.401   4.489   0.170  1.3564 -0.6061 -1.4309
 2831SOL    HW211323   0.336   4.381   0.085 -1.5608 -0.3468  0.3187
 2831SOL     MW11324   0.368   4.408   0.162  0.2187 -0.2740 -0.3888
 2832SOL     OW11325   4.936   2.951   2.309 -0.1279  0.1803  0.1913
 2832SOL    HW111326   4.850   2.992   2.308  0.4335  1.4058 -1.9854
 2832SOL    HW211327   4.992   3.009   2.259  1.6482 -1.3216  0.3125
 2832SOL     MW11328   4.932   2.964   2.303  0.1713  0.1449 -0.0718
 2833SOL     OW11329   5.277   5.479   5.164 -0.6264 -0.2617  0.2432
 2833SOL    HW111330   5.187   5.498   5.138 -0.1010  2.3910  0.0604
 2833SOL    HW211331   5.279   5.385   5.178 -4.2434 -0.0941  3.3603
 2833SOL     MW11332   5.266   5.470   5.162 -1.0221  0.0994  0.6188
 2834SOL     OW11333   0.728   2.931   4.896 -0.7620 -0.0195 -0.3681
 2834SOL    HW111334   0.703   3.009   4.947  1.8383  1.6402 -1.3977
 2834SOL    HW211335   0.685   2.943   4.812  1.1926  1.4891 -1.2424
 2834SOL     MW11336   0.719   2.943   4.892 -0.1790  0.3861 -0.6119
 2835SOL     OW11337   1.415   3.863   2.944  0.2787 -0.3280  0.0711
 2835SOL    HW111338   1.510   3.861   2.935  0.4786  2.6420  0.3609
 2835SOL    HW211339   1.383   3.871   2.855  0.4300  0.1165  0.0501
 2835SOL     MW11340   1.423   3.864   2.932  0.3236  0.1091  0.1055
 2836SOL     OW11341   3.044   3.059   3.141  0.3790 -0.2586 -0.3382
 2836SOL    HW111342   3.069   3.115   3.067  0.0772 -1.4659 -1.3849
 2836SOL    HW211343   2.980   3.111   3.190  2.3951  1.5773  0.5546
 2836SOL     MW11344   3.039   3.073   3.138  0.5984 -0.1781 -0.3579
 2837SOL     OW11345   0.588   4.722   0.932  0.3106 -0.1218  0.3476
 2837SOL    HW111346   0.497   4.746   0.918  0.3634  1.0158  1.8113
 2837SOL    HW211347   0.604   4.736   1.025  0.8991 -4.1190  1.0137
 2837SOL     MW11348   0.579   4.727   0.942  0.3927 -0.4878  0.6203
 2838SOL     OW11349   5.389   2.969   5.275 -0.0927  0.6681  0.4595
 2838SOL    HW111350   5.373   2.928   5.191  0.0130  0.2438  0.6418
 2838SOL    HW211351   5.413   3.059   5.254  2.3027 -0.0210 -0.1574
 2838SOL     MW11352   5.390   2.975   5.262  0.2275  0.5256  0.4039
 2839SOL     OW11353   3.557   1.488   0.015 -0.0007  0.0286  0.1981
 2839SOL    HW111354   3.635   1.529   0.052 -1.7084  1.2392  2.7645
 2839SOL    HW211355   3.517   1.557  -0.039 -0.3375  0.1071  0.5450
 2839SOL     MW11356   3.561   1.502   0.013 -0.2624  0.1936  0.5710
 2840SOL     OW11357   5.304   0.486   4.248  0.9784  0.2408  0.0795
 2840SOL    HW111358   5.260   0.491   4.333  1.2911  1.6731  0.1802
 2840SOL    HW211359   5.332   0.395   4.241 -1.6183 -0.6698  0.1778
 2840SOL     MW11360   5.302   0.475   4.258  0.6860  0.3076  0.1050
 2841SOL     OW11361   3.631   5.214   3.631  0.6701 -0.0797  0.2890
 2841SOL    HW111362   3.694   5.242   3.697  0.0773  1.1094  0.3661
 2841SOL    HW211363   3.681   5.156   3.574  1.2725 -0.8540  1.5692
 2841SOL     MW11364   3.645   5.210   3.632  0.6713 -0.0266  0.4627
 2842SOL     OW11365   2.392   2.889   2.674 -0.1567 -0.4457 -0.1900
 2842SOL    HW111366   2.367   2.823   2.609  1.3019 -1.9341  0.6590
 2842SOL    HW211367   2.327   2.880   2.744 -0.3234 -0.5471 -0.3577
 2842SOL     MW11368   2.381   2.879   2.675  0.0087 -0.6492 -0.1028
 2843SOL     OW11369   5.125   1.205   3.128  0.2816  0.5300  0.1876
 2843SOL    HW111370   5.161   1.291   3.105  0.0130  0.2714 -1.3210
 2843SOL    HW211371   5.096   1.168   3.044  0.3857 -1.0373  0.8050
 2843SOL     MW11372   5.126   1.211   3.114  0.2605  0.2963  0.0736
 2844SOL     OW11373   4.834   2.441   1.839  0.1568  0.2411  0.2082
 2844SOL    HW111374   4.741   2.455   1.857  0.3203  1.5345  0.1709
 2844SOL    HW211375   4.847   2.477   1.751  1.1332  2.2980  1.1261
 2844SOL     MW11376   4.824   2.448   1.830  0.3027  0.6700  0.3209
 2845SOL     OW11377   2.965   1.303   3.423  0.3950 -0.5526 -0.0123
 2845SOL    HW111378   2.985   1.259   3.340 -0.3885 -0.4039 -0.2920
 2845SOL    HW211379   2.870   1.312   3.422  0.6071  2.9488 -0.9287
 2845SOL     MW11380   2.956   1.298   3.412  0.3218 -0.0853 -0.1654
 2846SOL     OW11381   4.435   2.773   1.176  0.1976 -0.1559 -0.6347
 2846SOL    HW111382   4.496   2.700   1.171 -0.1102 -0.3713 -1.5104
 2846SOL    HW211383   4.382   2.756   1.253  2.0020  0.6568  0.8780
 2846SOL     MW11384   4.436   2.762   1.185  0.3892 -0.0795 -0.5532
 2847SOL     OW11385   4.571   4.329   5.387  0.9016  0.0961 -0.2259
 2847SOL    HW111386   4.612   4.248   5.419 -1.2325 -0.7298  0.6374
 2847SOL    HW211387   4.573   4.320   5.291  0.7780 -0.9425 -0.1480
 2847SOL     MW11388   4.577   4.317   5.379  0.6126 -0.1426 -0.1054
 2848SOL     OW11389   0.309   1.523   4.247 -0.1821 -0.5856  0.0694
 2848SOL    HW111390   0.386   1.551   4.296 -0.8507 -1.5518  1.7448
 2848SOL    HW211391   0.277   1.603   4.205  1.0577  0.0505  0.2865
 2848SOL     MW11392   0.315   1.537   4.248 -0.1089 -0.6279  0.3116
 2849SOL     OW11393   3.672   2.792   2.145  0.1817  0.2437  0.4128
 2849SOL    HW111394   3.595   2.775   2.201  2.0515  1.1533  3.5398
 2849SOL    HW211395   3.713   2.706   2.136  0.6749  0.2865  1.8749
 2849SOL     MW11396   3.667   2.779   2.151  0.4842  0.3656  1.0003
 2850SOL     OW11397   2.441   5.037   0.715 -0.0852  0.4777 -0.0507
 2850SOL    HW111398   2.535   5.053   0.721 -0.0816  0.3834  0.1205
 2850SOL    HW211399   2.433   4.943   0.704 -0.1790  0.4472  0.2879
 2850SOL     MW11400   2.452   5.027   0.714 -0.0967  0.4617  0.0146
 2851SOL     OW11401   0.291   5.038   4.383 -0.5313  0.1255  0.2974
 2851SOL    HW111402   0.336   5.049   4.299  0.0169 -0.0193  0.5625
 2851SOL    HW211403   0.295   5.124   4.424  1.2016 -0.3168  1.1329
 2851SOL     MW11404   0.297   5.050   4.378 -0.2393  0.0504  0.4383
 2852SOL     OW11405   2.560   2.062   1.058 -0.2023  0.1161  0.4085
 2852SOL    HW111406   2.466   2.072   1.042  0.1870  2.6795 -0.7560
 2852SOL    HW211407   2.596   2.035   0.974  0.4024  2.0180  0.0067
 2852SOL     MW11408   2.552   2.060   1.045 -0.0751  0.6877  0.2080
 2853SOL     OW11409   2.130   1.914   0.115  0.3767 -0.2147 -0.2265
 2853SOL    HW111410   2.092   2.002   0.124 -1.0296 -0.7650 -0.5490
 2853SOL    HW211411   2.224   1.928   0.128 -0.0650  0.9327  2.5133
 2853SOL     MW11412   2.137   1.927   0.118  0.1401 -0.1383  0.0829
 2854SOL     OW11413   0.126   2.274   3.712 -0.2133 -0.0761 -0.0321
 2854SOL    HW111414   0.086   2.333   3.776 -0.8958  0.0598 -0.5780
 2854SOL    HW211415   0.108   2.314   3.627  0.0332 -0.6478 -0.3605
 2854SOL     MW11416   0.119   2.286   3.710 -0.2691 -0.1319 -0.1440
 2855SOL     OW11417   5.335   3.960   1.369  0.4962 -0.0384  0.0739
 2855SOL    HW111418   5.282   3.905   1.427 -2.0114  2.6306  0.5825
 2855SOL    HW211419   5.276   4.032   1.345  2.6918  0.9906 -2.7331
 2855SOL     MW11420   5.320   3.962   1.373  0.4563  0.4350 -0.2203
 2856SOL     OW11421   4.312   1.082   1.672 -0.4974  0.3910  0.1948
 2856SOL    HW111422   4.240   1.111   1.727 -1.4335 -0.5931 -0.4698
 2856SOL    HW211423   4.380   1.148   1.685 -1.0282  0.6695  1.7980
 2856SOL     MW11424   4.312   1.094   1.680 -0.6852  0.3007  0.3150
 2857SOL     OW11425   5.412   2.917   4.404 -0.5346 -0.1447 -0.4753
 2857SOL    HW111426   5.361   2.904   4.484 -0.3144 -0.1993 -0.3439
 2857SOL    HW211427   5.409   2.833   4.359  0.0491 -0.3646 -0.1131
 2857SOL     MW11428   5.405   2.905   4.409 -0.4317 -0.1798 -0.4121
 2858SOL     OW11429   1.121   3.143   0.607 -0.7222  0.3251 -0.5648
 2858SOL    HW111430   1.060   3.213   0.588 -2.4768 -1.1878 -0.7468
 2858SOL    HW211431   1.066   3.068   0.631  1.1026 -0.5996  1.0718
 2858SOL     MW11432   1.106   3.142   0.608 -0.7132  0.0131 -0.3786
 2859SOL     OW11433   4.520   3.285   2.888  0.7617 -0.5269  0.1334
 2859SOL    HW111434   4.597   3.234   2.861  0.2058 -1.2468 -0.1169
 2859SOL    HW211435   4.527   3.291   2.983 -0.6954 -3.6717  0.5707
 2859SOL     MW11436   4.531   3.280   2.896  0.5040 -1.0216  0.1573
 2860SOL     OW11437   4.793   4.878   4.625 -0.6349 -0.5398 -0.7705
 2860SOL    HW111438   4.801   4.818   4.551 -1.2138  0.3337 -1.5634
 2860SOL    HW211439   4.715   4.931   4.606  0.4561  1.1977 -0.6613
 2860SOL     MW11440   4.784   4.877   4.613 -0.5693 -0.2056 -0.8580
 2861SOL     OW11441   0.391   5.476   0.107 -0.7206 -0.3581 -0.1486
 2861SOL    HW111442   0.406   5.498   0.199 -2.3103 -1.6871  0.4673
 2861SOL    HW211443   0.461   5.414   0.086 -0.1681  0.1792  0.0541
 2861SOL     MW11444   0.402   5.471   0.116 -0.8533 -0.4595 -0.0438
 2862SOL     OW11445   2.190   2.278   3.622  0.5659  0.2345  0.4001
 2862SOL    HW111446   2.168   2.368   3.646  0.5868  0.3384  0.0360
 2862SOL    HW211447   2.271   2.259   3.671  1.8222  1.1850 -1.2049
 2862SOL     MW11448   2.198   2.287   3.632  0.7294  0.3695  0.1480
 2863SOL     OW11449   0.722   0.943   0.822 -0.1182  0.0159  0.2066
 2863SOL    HW111450   0.767   0.875   0.872  0.0247  0.5124  0.7624
 2863SOL    HW211451   0.724   1.020   0.879  0.2856  0.6729 -0.6727
 2863SOL     MW11452   0.728   0.944   0.836 -0.0482  0.1636  0.1652
 2864SOL     OW11453   3.290   5.251   0.655 -0.0758 -0.4713 -0.5835
 2864SOL    HW111454   3.334   5.324   0.610  0.6289 -0.1994  0.5097
 2864SOL    HW211455   3.347   5.176   0.639 -0.0018 -0.4486 -0.4250
 2864SOL     MW11456   3.303   5.251   0.647  0.0239 -0.4336 -0.4232
 2865SOL     OW11457   3.389   4.325   3.342 -0.2687  0.7535  0.0846
 2865SOL    HW111458   3.391   4.305   3.435  0.3960  0.9244  0.1111
 2865SOL    HW211459   3.384   4.240   3.298  2.5986  0.4347  0.1880
 2865SOL     MW11460   3.388   4.312   3.348  0.1834  0.7346  0.1012
 2866SOL     OW11461   0.897   4.716   2.649  0.1373  0.1907  0.3796
 2866SOL    HW111462   0.883   4.657   2.724 -2.0886 -0.7132 -0.6484
 2866SOL    HW211463   0.839   4.790   2.666  0.9702  0.8671  0.3738
 2866SOL     MW11464   0.888   4.718   2.661 -0.0410  0.1615  0.2473
 2867SOL     OW11465   0.193   3.632   4.489  0.1607 -0.9750  0.1064
 2867SOL    HW111466   0.239   3.684   4.554 -0.5577 -0.0708 -0.0946
 2867SOL    HW211467   0.133   3.693   4.447 -0.9130 -2.0247  0.0666
 2867SOL     MW11468   0.191   3.646   4.492 -0.0687 -0.9936  0.0756
 2868SOL     OW11469   3.012   3.899   3.116 -0.0444 -0.5918  0.6486
 2868SOL    HW111470   3.034   3.981   3.071 -0.6834 -1.8155 -2.1491
 2868SOL    HW211471   3.095   3.868   3.152  0.4326  0.7065  0.7064
 2868SOL     MW11472   3.026   3.906   3.115 -0.0652 -0.5822  0.2979
 2869SOL     OW11473   4.675   3.540   0.876  0.2222 -0.0655  0.0341
 2869SOL    HW111474   4.581   3.522   0.869  0.2579 -0.1218 -0.3601
 2869SOL    HW211475   4.702   3.559   0.786  0.0985  2.4172  0.4616
 2869SOL     MW11476   4.666   3.540   0.863  0.2109  0.2451  0.0384
 2870SOL     OW11477   2.666   4.169   0.367  0.0358 -0.4260 -0.0323
 2870SOL    HW111478   2.664   4.249   0.315  1.0543  0.5282  1.2984
 2870SOL    HW211479   2.750   4.128   0.344  1.3190  0.8713  1.9618
 2870SOL     MW11480   2.677   4.174   0.358  0.3305 -0.1378  0.3933
 2871SOL     OW11481   1.633   0.524   5.059  0.4690  0.0260  0.7697
 2871SOL    HW111482   1.612   0.475   5.138  0.5565  0.0031  0.7792
 2871SOL    HW211483   1.727   0.508   5.045  0.1606 -1.0984 -0.1256
 2871SOL     MW11484   1.643   0.516   5.067  0.4407 -0.1209  0.6563
 2872SOL     OW11485   0.883   1.849   4.031  0.1734 -1.1397 -0.1595
 2872SOL    HW111486   0.839   1.787   3.972 -0.4482 -0.7179 -0.1556
 2872SOL    HW211487   0.954   1.886   3.979 -1.2444  0.2959 -1.1686
 2872SOL     MW11488   0.886   1.846   4.017 -0.0877 -0.9020 -0.2882
 2873SOL     OW11489   1.851   0.425   1.727  0.2581 -0.1251 -0.4834
 2873SOL    HW111490   1.915   0.355   1.743  1.1732  1.0353  1.3510
 2873SOL    HW211491   1.786   0.414   1.796  1.2035  1.6313  0.7849
 2873SOL     MW11492   1.851   0.415   1.738  0.4963  0.2483 -0.0862
 2874SOL     OW11493   4.957   4.710   5.469 -0.6874  0.0519  0.0991
 2874SOL    HW111494   4.941   4.794   5.424  1.3064  1.9948  2.6929
 2874SOL    HW211495   5.047   4.688   5.448 -0.2884  0.0807  1.6451
 2874SOL     MW11496   4.966   4.718   5.461 -0.3811  0.3043  0.6291
 2875SOL     OW11497   4.136   4.309   4.604 -0.4770  0.6539 -0.3137
 2875SOL    HW111498   4.176   4.396   4.601 -1.2611  0.9846 -1.5105
 2875SOL    HW211499   4.137   4.287   4.698  2.2470  0.7272 -0.2329
 2875SOL     MW11500   4.141   4.318   4.616 -0.2287  0.7056 -0.4566
 2876SOL     OW11501   3.056   2.605   2.031  0.2856  0.1430 -0.6199
 2876SOL    HW111502   3.130   2.662   2.008  0.1367 -0.1090 -1.8193
 2876SOL    HW211503   3.045   2.549   1.954 -2.5658  1.6338 -1.4638
 2876SOL     MW11504   3.064   2.605   2.018 -0.0984  0.3016 -0.8815
 2877SOL     OW11505   4.224   3.492   3.665 -0.1632  0.3537  0.1420
 2877SOL    HW111506   4.165   3.431   3.621  0.9519 -0.2098 -0.6103
 2877SOL    HW211507   4.237   3.563   3.603 -1.4597  1.4106  1.0168
 2877SOL     MW11508   4.218   3.493   3.652 -0.1864  0.4168  0.1577
 2878SOL     OW11509   1.695   1.632   4.959 -0.5627 -0.4105 -0.6868
 2878SOL    HW111510   1.698   1.642   5.054 -0.8347 -3.9367 -0.1585
 2878SOL    HW211511   1.770   1.682   4.927 -0.6941  1.1822  1.3101
 2878SOL     MW11512   1.705   1.640   4.967 -0.6143 -0.6580 -0.3635
 2879SOL     OW11513   2.783   1.910   3.116 -0.0117  0.5301  0.3034
 2879SOL    HW111514   2.788   2.005   3.126  0.3386  0.3634  1.8710
 2879SOL    HW211515   2.843   1.876   3.181  0.7346 -0.7617 -1.0025
 2879SOL     MW11516   2.791   1.918   3.125  0.1287  0.3434  0.3369
 2880SOL     OW11517   1.057   2.193   4.604 -0.3951 -0.4106  0.4546
 2880SOL    HW111518   1.080   2.280   4.636 -0.7559 -0.3215  0.4722
 2880SOL    HW211519   1.135   2.164   4.557 -0.2231 -0.1343  0.5656
 2880SOL     MW11520   1.070   2.200   4.602 -0.4192 -0.3638  0.4710
 2881SOL     OW11521   0.879   0.167   3.653  0.4138  0.0122  0.4114
 2881SOL    HW111522   0.816   0.137   3.587  1.0869  0.1074 -0.2979
 2881SOL    HW211523   0.849   0.128   3.735 -0.5305  0.0105  0.0814
 2881SOL     MW11524   0.867   0.158   3.655  0.3791  0.0242  0.2784
 2882SOL     OW11525   2.325   1.853   2.012  0.1808 -0.2460 -0.2443
 2882SOL    HW111526   2.338   1.758   2.004  0.2092 -0.3343  0.7299
 2882SOL    HW211527   2.366   1.876   2.095 -1.5396  0.2925  0.5036
 2882SOL     MW11528   2.332   1.844   2.022 -0.0358 -0.1884 -0.0238
 2883SOL     OW11529   5.274   4.305   3.683 -0.4978  0.2431 -0.2320
 2883SOL    HW111530   5.227   4.343   3.609  2.0936  1.3478 -1.4353
 2883SOL    HW211531   5.313   4.379   3.728  0.8415 -0.6320  0.1354
 2883SOL     MW11532   5.273   4.319   3.679  0.0054  0.2725 -0.3390
 2884SOL     OW11533   3.313   2.152   3.125  0.9410 -0.0761  0.1879
 2884SOL    HW111534   3.397   2.127   3.164  0.7679  0.6794  1.0821
 2884SOL    HW211535   3.311   2.107   3.041  1.3067 -1.8035  1.0643
 2884SOL     MW11536   3.324   2.143   3.119  0.9656 -0.2005  0.4146
 2885SOL     OW11537   0.900   3.249   0.985 -0.1585 -0.8893 -0.5354
 2885SOL    HW111538   0.908   3.239   1.080 -0.2000 -0.9250 -0.5353
 2885SOL    HW211539   0.941   3.170   0.949 -1.4917 -1.6334 -0.5037
 2885SOL     MW11540   0.906   3.238   0.992 -0.3345 -0.9891 -0.5313
 2886SOL     OW11541   1.457   5.390   1.905 -0.6634 -0.0822 -0.2755
 2886SOL    HW111542   1.540   5.355   1.873 -0.7473 -0.5216 -0.0207
 2886SOL    HW211543   1.414   5.425   1.827 -0.4127 -0.2099 -0.4727
 2886SOL     MW11544   1.462   5.390   1.891 -0.6420 -0.1548 -0.2681
 2887SOL     OW11545   0.121   0.738   3.353 -0.6423  0.5359  0.3567
 2887SOL    HW111546   0.188   0.680   3.318  0.2792  0.6462  1.8190
 2887SOL    HW211547   0.113   0.712   3.445 -2.0058  1.0909  0.4196
 2887SOL     MW11548   0.129   0.727   3.361 -0.6989  0.6211  0.5519
 2888SOL     OW11549   4.348   2.122   4.313 -0.0423  0.7212 -0.3542
 2888SOL    HW111550   4.424   2.128   4.370 -0.1436  0.4978 -0.1940
 2888SOL    HW211551   4.273   2.128   4.372 -0.1481  0.0469 -0.4090
 2888SOL     MW11552   4.348   2.123   4.328 -0.0688  0.6063 -0.3407
 2889SOL     OW11553   2.438   2.972   0.232  0.0022  0.3207  0.2381
 2889SOL    HW111554   2.456   3.063   0.211 -2.9208  0.9176 -0.1958
 2889SOL    HW211555   2.352   2.955   0.192 -0.7200 -1.8251  2.4332
 2889SOL     MW11556   2.429   2.981   0.225 -0.4644  0.1224  0.4635
 2890SOL     OW11557   3.776   2.861   1.280 -0.2702  0.0792 -0.1961
 2890SOL    HW111558   3.755   2.952   1.300 -0.2197 -0.3399  2.0145
 2890SOL    HW211559   3.868   2.851   1.305  0.0170 -0.3543 -1.3632
 2890SOL     MW11560   3.785   2.871   1.285 -0.2269 -0.0299 -0.0625
 2891SOL     OW11561   3.547   1.952   3.932  0.5623  0.6517 -0.4445
 2891SOL    HW111562   3.502   1.967   4.015 -0.4776  1.7866 -1.1722
 2891SOL    HW211563   3.486   1.898   3.882  0.7317  0.8138 -0.8291
 2891SOL     MW11564   3.534   1.947   3.936  0.4509  0.8177 -0.5869
 2892SOL     OW11565   3.719   0.983   2.912  0.1597  0.2345 -0.0886
 2892SOL    HW111566   3.776   0.913   2.882 -0.1931 -0.5464  1.0194
 2892SOL    HW211567   3.779   1.048   2.949  0.3336 -0.8225  1.5659
 2892SOL     MW11568   3.734   0.983   2.913  0.1368 -0.0008  0.2651
 2893SOL     OW11569   0.361   4.370   1.476 -0.1639 -0.5509 -0.2059
 2893SOL    HW111570   0.437   4.331   1.520 -0.0175 -1.6682 -1.4010
 2893SOL    HW211571   0.396   4.445   1.429  0.1969 -1.0459 -0.7306
 2893SOL     MW11572   0.375   4.374   1.476 -0.0989 -0.7573 -0.4260
 2894SOL     OW11573   5.310   4.393   1.680 -0.0071  0.1394 -0.3788
 2894SOL    HW111574   5.257   4.450   1.736  1.2188  0.6816  0.2833
 2894SOL    HW211575   5.367   4.453   1.632 -0.0573 -0.4192 -1.1453
 2894SOL     MW11576   5.310   4.408   1.681  0.1434  0.1373 -0.3922
 2895SOL     OW11577   3.400   3.930   3.867  0.0795 -0.2061  0.0078
 2895SOL    HW111578   3.320   3.933   3.814 -1.8688 -1.0614  2.6601
 2895SOL    HW211579   3.465   3.888   3.811 -1.4919 -0.0454 -2.0458
 2895SOL     MW11580   3.398   3.925   3.853 -0.3710 -0.2950  0.0844
 2896SOL     OW11581   3.748   3.691   4.948  0.2000  0.2003 -0.5511
 2896SOL    HW111582   3.767   3.711   5.040 -0.7385  1.5253 -0.6205
 2896SOL    HW211583   3.653   3.701   4.941  0.4648  2.1354 -2.1049
 2896SOL     MW11584   3.739   3.695   4.959  0.1138  0.6176 -0.7589
 2897SOL     OW11585   4.729   4.581   0.600  0.2699 -0.3303  0.5225
 2897SOL    HW111586   4.676   4.506   0.573  1.6052 -0.5914 -1.6016
 2897SOL    HW211587   4.778   4.550   0.676 -0.7592 -0.8829  0.9796
 2897SOL     MW11588   4.729   4.568   0.606  0.3091 -0.4345  0.3091
 2898SOL     OW11589   5.063   3.846   2.935 -0.3657 -0.1369  0.2317
 2898SOL    HW111590   4.981   3.831   2.982 -0.1764  0.1993  0.6772
 2898SOL    HW211591   5.123   3.882   3.001  0.9998 -2.8303  0.6082
 2898SOL     MW11592   5.060   3.849   2.949 -0.1667 -0.4387  0.3369
 2899SOL     OW11593   1.822   3.600   4.424  0.8126 -0.0752 -0.2320
 2899SOL    HW111594   1.879   3.557   4.487  0.3068  0.8143  0.8499
 2899SOL    HW211595   1.866   3.682   4.403  0.1994  0.3605  0.1811
 2899SOL     MW11596   1.835   3.605   4.429  0.6694  0.0944 -0.0406
 2900SOL     OW11597   4.509   4.403   4.458  0.0900 -0.3583 -0.2885
 2900SOL    HW111598   4.452   4.328   4.440  0.3372 -0.6067 -0.0617
 2900SOL    HW211599   4.536   4.434   4.372  0.3675 -0.8316 -0.3747
 2900SOL     MW11600   4.505   4.397   4.445  0.1572 -0.4507 -0.2705
 2901SOL     OW11601   3.798   3.419   0.192 -0.2357  0.0518  0.9594
 2901SOL    HW111602   3.833   3.334   0.218  1.1580  0.5903  0.9327
 2901SOL    HW211603   3.709   3.420   0.227  0.2807 -0.7622  2.3887
 2901SOL     MW11604   3.791   3.408   0.200  0.0088  0.0166  1.1390
 2902SOL     OW11605   0.405   0.381   4.621  0.0559  0.0584 -0.1781
 2902SOL    HW111606   0.383   0.305   4.674 -1.4658  0.1373 -0.6413
 2902SOL    HW211607   0.337   0.444   4.640  0.9772  1.1059 -0.2451
 2902SOL     MW11608   0.394   0.379   4.630 -0.0210  0.2026 -0.2459
 2903SOL     OW11609   1.571   4.704   1.336 -0.8448 -0.5382  0.1126
 2903SOL    HW111610   1.570   4.800   1.329 -1.9464 -0.6439 -2.3061
 2903SOL    HW211611   1.622   4.675   1.260 -0.2570 -1.8773  0.9903
 2903SOL     MW11612   1.578   4.713   1.325 -0.9105 -0.7232 -0.0846
 2904SOL     OW11613   5.086   1.459   0.822 -0.0190  0.1202 -0.0361
 2904SOL    HW111614   5.180   1.453   0.842  0.2672  2.0581 -0.5795
 2904SOL    HW211615   5.066   1.379   0.774  1.2017 -0.6098  0.6144
 2904SOL     MW11616   5.095   1.448   0.819  0.1739  0.2748 -0.0223
 2905SOL     OW11617   3.313   3.529   2.140  0.1279 -0.2550 -0.3086
 2905SOL    HW111618   3.357   3.570   2.066  1.4624 -1.0025  0.0364
 2905SOL    HW211619   3.284   3.444   2.106  0.7111 -0.5838  0.0023
 2905SOL     MW11620   3.315   3.524   2.126  0.3734 -0.3928 -0.2247
 2906SOL     OW11621   3.493   2.751   3.934  0.2241  0.3387  0.1153
 2906SOL    HW111622   3.474   2.676   3.991  0.4569  0.2879  0.1287
 2906SOL    HW211623   3.530   2.712   3.855  2.6993  0.5367  1.0718
 2906SOL     MW11624   3.495   2.736   3.932  0.5708  0.3575  0.2394
 2907SOL     OW11625   1.183   2.083   4.204  0.0326 -0.3385 -0.5411
 2907SOL    HW111626   1.208   1.997   4.168  3.2083  0.3614 -0.3269
 2907SOL    HW211627   1.182   2.141   4.128 -0.0533 -0.1723 -0.4126
 2907SOL     MW11628   1.186   2.079   4.190  0.4281 -0.2276 -0.4972
 2908SOL     OW11629   4.176   2.236   5.174  0.3423  0.1563  0.1596
 2908SOL    HW111630   4.111   2.166   5.171 -0.1354  0.6335 -1.1802
 2908SOL    HW211631   4.258   2.193   5.149  0.2624 -0.1383  0.3915
 2908SOL     MW11632   4.178   2.221   5.171  0.2710  0.1797  0.0178
 2909SOL     OW11633   3.524   3.679   2.835  0.3290 -0.9853 -0.9796
 2909SOL    HW111634   3.558   3.591   2.822 -0.8376 -1.2431 -2.5998
 2909SOL    HW211635   3.563   3.731   2.765 -1.3938 -0.9727 -2.0020
 2909SOL     MW11636   3.533   3.675   2.824 -0.0409 -1.0167 -1.3179
 2910SOL     OW11637   4.982   2.663   3.695 -0.2950  0.0571  0.0869
 2910SOL    HW111638   4.937   2.698   3.619 -1.5456  0.9053  1.1763
 2910SOL    HW211639   4.958   2.721   3.767  3.8939  1.6389  0.5047
 2910SOL     MW11640   4.974   2.675   3.694  0.0811  0.3682  0.2799
 2911SOL     OW11641   0.441   5.228   5.055 -0.5317 -0.1131 -0.1894
 2911SOL    HW111642   0.498   5.157   5.086 -0.9355 -0.9146 -1.1899
 2911SOL    HW211643   0.408   5.196   4.971 -1.4147  0.9033 -0.2482
 2911SOL     MW11644   0.444   5.215   5.048 -0.6964 -0.0856 -0.3250
 2912SOL     OW11645   5.159   3.299   3.569 -0.0796  0.7911  0.5761
 2912SOL    HW111646   5.137   3.313   3.477  0.7104  2.1839  0.5797
 2912SOL    HW211647   5.230   3.235   3.568 -0.7718  0.0033  0.3014
 2912SOL     MW11648   5.165   3.292   3.557 -0.0671  0.8685  0.5414
 2913SOL     OW11649   4.319   3.194   1.024  0.3588 -0.0012  0.0931
 2913SOL    HW111650   4.274   3.274   0.997 -0.7618 -0.7564 -0.3722
 2913SOL    HW211651   4.285   3.127   0.965  0.8705 -0.9295  0.8249
 2913SOL     MW11652   4.309   3.195   1.013  0.2808 -0.2167  0.1272
 2914SOL     OW11653   2.224   1.893   3.482 -0.1718  0.2245  0.4871
 2914SOL    HW111654   2.251   1.826   3.419  0.5925  0.7356  0.2478
 2914SOL    HW211655   2.300   1.951   3.489 -0.4968  0.5580  1.3725
 2914SOL     MW11656   2.237   1.892   3.475 -0.1156  0.3327  0.5698
 2915SOL     OW11657   2.333   3.056   4.832 -0.0910  0.0885  0.5472
 2915SOL    HW111658   2.314   3.130   4.890 -0.9598  1.5369 -1.4991
 2915SOL    HW211659   2.247   3.028   4.800  0.2334 -1.7569  1.1638
 2915SOL     MW11660   2.320   3.062   4.836 -0.1607  0.0377  0.3642
 2916SOL     OW11661   5.006   4.441   2.866 -0.0669  0.3541  0.0758
 2916SOL    HW111662   4.965   4.477   2.788  0.3282 -0.4673 -0.5228
 2916SOL    HW211663   4.934   4.428   2.928 -0.9105 -2.0386 -1.3130
 2916SOL     MW11664   4.992   4.444   2.864 -0.1243 -0.0574 -0.1786
 2917SOL     OW11665   0.884   2.438   3.858  0.3245 -0.0225  0.0955
 2917SOL    HW111666   0.794   2.464   3.873  0.2821 -0.2988  0.3372
 2917SOL    HW211667   0.891   2.428   3.763  0.0099 -0.3173  0.1002
 2917SOL     MW11668   0.874   2.440   3.848  0.2788 -0.0956  0.1270
 2918SOL     OW11669   2.856   2.358   5.057  0.1217  0.0569 -0.0340
 2918SOL    HW111670   2.861   2.414   5.134  2.1489 -1.6818  1.2144
 2918SOL    HW211671   2.929   2.386   5.002 -1.0694  1.0150 -1.1897
 2918SOL     MW11672   2.866   2.369   5.060  0.2287 -0.0431 -0.0221
 2919SOL     OW11673   3.852   3.714   3.767 -0.0657 -0.0578 -0.1262
 2919SOL    HW111674   3.782   3.657   3.736 -1.1403  0.5705  1.0671
 2919SOL    HW211675   3.918   3.653   3.802  0.1106 -0.6601 -1.4476
 2919SOL     MW11676   3.851   3.699   3.767 -0.1807 -0.0545 -0.1426
 2920SOL     OW11677   4.712   5.271   4.790  0.5859  0.0193 -0.2297
 2920SOL    HW111678   4.698   5.176   4.800  0.4733  0.0328 -0.2520
 2920SOL    HW211679   4.777   5.292   4.857  0.2487  0.0095  0.1026
 2920SOL     MW11680   4.718   5.261   4.800  0.5283  0.0198 -0.1900
 2921SOL     OW11681   4.083   2.372   3.755 -0.4284  0.1526 -0.2232
 2921SOL    HW111682   3.993   2.339   3.757 -0.2260 -0.3871  1.0673
 2921SOL    HW211683   4.082   2.448   3.814 -0.1599  0.4948 -0.6519
 2921SOL     MW11684   4.071   2.378   3.763 -0.3681  0.1273 -0.1129
 2922SOL     OW11685   3.406   0.299   2.611 -0.3376  0.0494 -1.1323
 2922SOL    HW111686   3.442   0.287   2.699  3.3505 -0.6647 -2.5619
 2922SOL    HW211687   3.368   0.214   2.589  0.0499 -0.2349 -0.7278
 2922SOL     MW11688   3.406   0.287   2.619  0.1842 -0.0784 -1.2636
 2923SOL     OW11689   0.486   1.083   3.850 -0.3675  0.3956 -0.6800
 2923SOL    HW111690   0.581   1.086   3.853 -0.2607  1.7975 -2.9910
 2923SOL    HW211691   0.466   1.002   3.803 -0.3074  0.3259 -0.5864
 2923SOL     MW11692   0.495   1.073   3.845 -0.3462  0.5662 -0.9639
 2924SOL     OW11693   1.898   3.948   3.091 -0.1713 -0.4994  0.3406
 2924SOL    HW111694   1.829   3.931   3.026  0.1470  0.6762 -0.3433
 2924SOL    HW211695   1.852   3.981   3.168 -0.4390 -0.3721  0.1281
 2924SOL     MW11696   1.883   3.950   3.092 -0.1648 -0.3326  0.2259
 2925SOL     OW11697   5.291   5.154   3.481  0.9905 -0.0167  0.4430
 2925SOL    HW111698   5.337   5.188   3.403 -0.5918  1.6317  0.1433
 2925SOL    HW211699   5.252   5.232   3.520  0.4634 -1.0448  2.0297
 2925SOL     MW11700   5.292   5.169   3.476  0.7204  0.0627  0.6077
 2926SOL     OW11701   2.218   2.241   1.715 -0.1217 -0.0913 -0.5616
 2926SOL    HW111702   2.239   2.279   1.630 -0.3142 -1.1821 -1.1155
 2926SOL    HW211703   2.123   2.247   1.722 -0.0551  0.6090 -0.1091
 2926SOL     MW11704   2.209   2.246   1.705 -0.1378 -0.1413 -0.5746
 2927SOL     OW11705   4.990   0.891   2.282 -0.5580  0.0437  0.2696
 2927SOL    HW111706   5.071   0.866   2.326  1.7734 -0.5510 -3.8069
 2927SOL    HW211707   5.000   0.984   2.262 -1.3025  0.1871  0.5540
 2927SOL     MW11708   5.002   0.899   2.285 -0.3548 -0.0141 -0.2158
 2928SOL     OW11709   3.482   1.630   0.284 -0.0765  0.2700 -0.6808
 2928SOL    HW111710   3.541   1.624   0.209  1.1574 -0.0178  0.2878
 2928SOL    HW211711   3.525   1.690   0.344 -1.9248  1.9670 -0.9326
 2928SOL     MW11712   3.495   1.637   0.282 -0.1551  0.4504 -0.5891
 2929SOL     OW11713   1.622   0.672   3.124  0.8251  0.4902 -0.0588
 2929SOL    HW111714   1.623   0.585   3.163  0.7388 -0.5627 -2.2336
 2929SOL    HW211715   1.543   0.713   3.157  0.2283 -0.7272  0.0802
 2929SOL     MW11716   1.612   0.666   3.133  0.7376  0.1995 -0.3194
 2930SOL     OW11717   1.288   0.730   2.167  0.1671 -0.0986 -0.4730
 2930SOL    HW111718   1.241   0.652   2.139  1.4627 -0.4156 -1.9342
 2930SOL    HW211719   1.295   0.721   2.262  2.0889 -2.9041 -0.7472
 2930SOL     MW11720   1.283   0.719   2.176  0.5790 -0.4983 -0.6952
 2931SOL     OW11721   3.776  -0.006   4.436 -0.3907 -0.0400  0.0696
 2931SOL    HW111722   3.839  -0.000   4.364 -0.9397  0.6782 -0.3659
 2931SOL    HW211723   3.817   0.041   4.508 -0.6749  0.9265 -0.3954
 2931SOL     MW11724   3.789   0.000   4.436 -0.4974  0.1756 -0.0457
 2932SOL     OW11725   0.082   3.154   5.017  0.3704  0.2707 -0.4286
 2932SOL    HW111726   0.078   3.220   4.948 -0.1747 -0.2726 -0.9292
 2932SOL    HW211727   0.018   3.088   4.991 -0.4898  0.4772  1.0613
 2932SOL     MW11728   0.073   3.154   5.005  0.1905  0.2276 -0.3020
 2933SOL     OW11729   3.250   5.053   1.616 -0.1392 -0.0475 -0.1921
 2933SOL    HW111730   3.258   5.148   1.626 -1.5581  0.1499 -0.6043
 2933SOL    HW211731   3.181   5.042   1.550  0.5370 -1.3621 -0.7201
 2933SOL     MW11732   3.242   5.064   1.608 -0.2343 -0.1905 -0.3125
 2934SOL     OW11733   0.570   0.424   4.400 -0.4806  0.0876 -0.6213
 2934SOL    HW111734   0.552   0.518   4.393  0.6643  0.3457 -0.3326
 2934SOL    HW211735   0.508   0.393   4.466 -1.1944  0.5368 -1.0575
 2934SOL     MW11736   0.559   0.432   4.407 -0.4254  0.1782 -0.6402
 2935SOL     OW11737   0.069   2.029   2.460 -0.6877 -0.0239  0.6853
 2935SOL    HW111738   0.157   2.005   2.430 -0.7110 -0.9170  1.3197
 2935SOL    HW211739   0.019   1.948   2.454 -1.9346  0.8104 -1.2201
 2935SOL     MW11740   0.074   2.016   2.455 -0.8503 -0.0314  0.5226
 2936SOL     OW11741   3.866   2.782   4.820 -0.1914  0.3653  0.1264
 2936SOL    HW111742   3.880   2.857   4.877  0.7915  2.5178 -2.7124
 2936SOL    HW211743   3.771   2.765   4.825 -0.2606  1.0723  1.6196
 2936SOL     MW11744   3.855   2.789   4.828 -0.0744  0.7314 -0.0459
 2937SOL     OW11745   0.252   3.085   3.887 -0.1391 -0.3530  0.4379
 2937SOL    HW111746   0.262   3.019   3.956 -0.6367 -1.9148 -0.9315
 2937SOL    HW211747   0.310   3.055   3.817 -0.8962  0.2887 -0.4850
 2937SOL     MW11748   0.261   3.072   3.887 -0.2997 -0.4708  0.1444
 2938SOL     OW11749   1.488   3.925   0.988 -0.1778 -0.1414  0.1731
 2938SOL    HW111750   1.555   3.861   1.013 -0.4865 -1.2797 -1.6877
 2938SOL    HW211751   1.415   3.907   1.046  0.1463 -0.7399  0.4099
 2938SOL     MW11752   1.487   3.914   0.998 -0.1758 -0.3637 -0.0348
 2939SOL     OW11753   5.204   4.458   0.194 -0.3594 -0.2878  0.3118
 2939SOL    HW111754   5.167   4.543   0.220 -0.8929 -0.8123  1.3227
 2939SOL    HW211755   5.270   4.439   0.260 -0.1652 -0.6071  0.0277
 2939SOL     MW11756   5.208   4.466   0.205 -0.4028 -0.3958  0.4048
 2940SOL     OW11757   3.093   0.145   4.935 -0.1035  0.2794  0.3605
 2940SOL    HW111758   3.070   0.173   4.847 -0.3498 -1.9147 -0.3414
 2940SOL    HW211759   3.166   0.084   4.922  0.3424  0.4750  1.7641
 2940SOL     MW11760   3.100   0.141   4.922 -0.0779  0.0236  0.4503
 2941SOL     OW11761   3.342   2.049   1.707  0.5088  0.1288  0.1846
 2941SOL    HW111762   3.354   2.144   1.708  0.1487  0.1714  0.2770
 2941SOL    HW211763   3.375   2.019   1.792  0.7111  0.1574  0.1181
 2941SOL     MW11764   3.348   2.057   1.718  0.4886  0.1379  0.1879
 2942SOL     OW11765   5.306   5.215   5.240 -0.5993  0.3999 -0.0265
 2942SOL    HW111766   5.354   5.172   5.169  1.3094  0.4510  1.1670
 2942SOL    HW211767   5.374   5.242   5.302 -2.1410  1.0607  1.4533
 2942SOL     MW11768   5.321   5.213   5.239 -0.5523  0.4910  0.3157
 2943SOL     OW11769   5.190   4.545   5.398  0.0664  0.4878  0.5414
 2943SOL    HW111770   5.127   4.530   5.327  0.7230  0.3127 -0.0175
 2943SOL    HW211771   5.169   4.480   5.464  1.3207 -1.3773 -0.7802
 2943SOL     MW11772   5.179   4.535   5.397  0.3110  0.2266  0.3007
 2944SOL     OW11773   2.774   3.125   0.166  0.2708 -0.0591  0.0498
 2944SOL    HW111774   2.692   3.174   0.161  0.8545  0.9432  0.1096
 2944SOL    HW211775   2.829   3.164   0.098  1.9307  1.6355  2.2512
 2944SOL     MW11776   2.770   3.136   0.156  0.5580  0.2862  0.3392
 2945SOL     OW11777   2.366   2.793   3.357  0.0870 -0.0871  0.0194
 2945SOL    HW111778   2.445   2.787   3.303  0.1379  0.1929  0.0625
 2945SOL    HW211779   2.294   2.774   3.296  0.2063 -0.6117  0.0393
 2945SOL     MW11780   2.367   2.790   3.342  0.1088 -0.1184  0.0275
 2946SOL     OW11781   0.955   0.564   0.694  0.2023  0.4548 -0.1180
 2946SOL    HW111782   0.909   0.611   0.625  0.7957  0.7547 -0.3142
 2946SOL    HW211783   0.890   0.503   0.729 -0.6836  1.6685  0.3930
 2946SOL     MW11784   0.941   0.562   0.689  0.1648  0.6485 -0.0777
 2947SOL     OW11785   4.928   2.621   4.413  0.6962  0.2122  0.4048
 2947SOL    HW111786   4.907   2.697   4.358  0.6640  1.7254  2.4174
 2947SOL    HW211787   4.932   2.655   4.502 -1.4353 -2.5430  1.7102
 2947SOL     MW11788   4.926   2.635   4.417  0.4192  0.0532  0.8295
 2948SOL     OW11789   5.484   2.043   0.949 -0.3044 -0.5169 -0.0902
 2948SOL    HW111790   5.461   2.019   0.859 -0.8228  0.0768 -0.1169
 2948SOL    HW211791   5.403   2.032   0.999 -0.1281 -0.4234  0.2211
 2948SOL     MW11792   5.471   2.038   0.944 -0.3482 -0.4289 -0.0538
 2949SOL     OW11793   1.009   1.480   4.299 -0.1507  0.1567  0.5263
 2949SOL    HW111794   1.017   1.531   4.218 -1.3837 -0.0016  0.2751
 2949SOL    HW211795   0.927   1.510   4.338  0.4146  0.1999  1.7141
 2949SOL     MW11796   0.999   1.490   4.293 -0.2362  0.1419  0.6462
 2950SOL     OW11797   0.914   3.788   0.528  0.6339  0.0458 -0.2663
 2950SOL    HW111798   0.833   3.737   0.531 -0.0198  0.9823 -1.1202
 2950SOL    HW211799   0.960   3.766   0.609 -0.3525 -0.6984  0.1103
 2950SOL     MW11800   0.910   3.779   0.538  0.4240  0.0704 -0.3274
 2951SOL     OW11801   4.615   5.190   2.040 -0.1219  0.0732  0.8011
 2951SOL    HW111802   4.578   5.194   2.128 -0.5426  1.7949  0.5869
 2951SOL    HW211803   4.551   5.234   1.984  0.5393 -0.2153 -0.2231
 2951SOL     MW11804   4.602   5.196   2.044 -0.0911  0.2567  0.6426
 2952SOL     OW11805   4.586   2.382   2.982 -0.0018  0.4541  0.2800
 2952SOL    HW111806   4.650   2.419   2.921 -0.3050  0.1729 -0.2192
 2952SOL    HW211807   4.617   2.409   3.069 -0.6277  2.5437 -0.0833
 2952SOL     MW11808   4.599   2.390   2.985 -0.1208  0.6856  0.1696
 2953SOL     OW11809   2.408   2.735   2.971  0.2365  0.5975  0.0115
 2953SOL    HW111810   2.390   2.671   3.040 -0.2028  0.6373 -0.0636
 2953SOL    HW211811   2.437   2.682   2.896  1.5816  0.6135  0.4934
 2953SOL     MW11812   2.410   2.720   2.970  0.3524  0.6046  0.0636
 2954SOL     OW11813   3.744   4.774   4.035  0.2310  0.2287 -0.3820
 2954SOL    HW111814   3.716   4.865   4.035 -0.4149  0.0392  0.4011
 2954SOL    HW211815   3.815   4.770   4.099  1.7303  0.5771 -1.9104
 2954SOL     MW11816   3.750   4.785   4.043  0.3402  0.2491 -0.4774
 2955SOL     OW11817   4.958   2.733   1.915 -0.1834  0.0277 -0.0902
 2955SOL    HW111818   4.931   2.816   1.876  0.5810  0.6665  0.7111
 2955SOL    HW211819   4.889   2.671   1.889 -0.4620  0.7673 -1.1820
 2955SOL     MW11820   4.946   2.735   1.907 -0.1212  0.2041 -0.1274
 2956SOL     OW11821   0.906   2.024   0.661 -0.3723 -0.0599  0.5348
 2956SOL    HW111822   0.982   1.968   0.676 -1.4943 -1.6386  0.6600
 2956SOL    HW211823   0.942   2.106   0.627  1.3712 -0.7197  0.7063
 2956SOL     MW11824   0.920   2.027   0.658 -0.2927 -0.3464  0.5728
 2957SOL     OW11825   1.598   2.172   3.527 -0.0019 -0.0642  0.0714
 2957SOL    HW111826   1.534   2.186   3.597 -0.6555  0.6677 -0.6490
 2957SOL    HW211827   1.622   2.079   3.534  1.0428  0.3072  2.1554
 2957SOL     MW11828   1.593   2.162   3.536  0.0482  0.0771  0.2460
 2958SOL     OW11829   5.052   0.748   3.141 -0.2634  0.4369 -0.5827
 2958SOL    HW111830   4.970   0.795   3.125 -0.2939  0.1003 -1.4685
 2958SOL    HW211831   5.030   0.656   3.128  0.3391  0.3732 -1.2516
 2958SOL     MW11832   5.039   0.742   3.137 -0.1902  0.3856 -0.7817
 2959SOL     OW11833   3.794   3.214   4.569  0.0113  0.5294 -0.5472
 2959SOL    HW111834   3.819   3.122   4.558  1.5670  0.6930  1.0579
 2959SOL    HW211835   3.735   3.232   4.496 -1.4639 -2.1217 -0.1588
 2959SOL     MW11836   3.790   3.204   4.558  0.0216  0.2110 -0.2920
 2960SOL     OW11837   1.076   5.426   2.262 -0.1519  0.5647 -1.3221
 2960SOL    HW111838   1.148   5.421   2.326 -1.5902 -1.3608  0.2955
 2960SOL    HW211839   1.081   5.343   2.214 -3.0531 -1.2035  1.0395
 2960SOL     MW11840   1.086   5.415   2.264 -0.7074  0.0919 -0.8127
 2961SOL     OW11841   0.191   1.155   4.803  0.2438  0.0994  0.4230
 2961SOL    HW111842   0.155   1.157   4.714 -0.0962 -1.9289  0.4836
 2961SOL    HW211843   0.134   1.214   4.853 -1.5256 -1.1299 -0.0412
 2961SOL     MW11844   0.179   1.163   4.798 -0.0262 -0.3176  0.3713
 2962SOL     OW11845   2.712   5.015   0.658 -0.0061  0.1344  0.4801
 2962SOL    HW111846   2.705   4.964   0.577 -1.0815  0.5347  0.3095
 2962SOL    HW211847   2.748   4.953   0.722 -1.8403 -1.0592  0.4369
 2962SOL     MW11848   2.716   5.001   0.656 -0.3786  0.0328  0.4527
 2963SOL     OW11849   1.656   3.802   3.239 -0.0403 -0.4071 -0.0670
 2963SOL    HW111850   1.655   3.751   3.320  1.1448 -1.5558 -0.7408
 2963SOL    HW211851   1.690   3.888   3.266 -1.1759 -0.2311  0.9131
 2963SOL     MW11852   1.660   3.806   3.253 -0.0339 -0.5317 -0.0278
 2964SOL     OW11853   2.707   2.192   3.188 -0.0359 -0.5559 -0.1530
 2964SOL    HW111854   2.738   2.236   3.267  1.0150 -0.8971 -0.3474
 2964SOL    HW211855   2.621   2.158   3.211  0.2641 -0.6791  0.8634
 2964SOL     MW11856   2.700   2.193   3.201  0.1370 -0.6154 -0.0478
 2965SOL     OW11857   4.587   3.757   4.854 -0.4624  0.1952 -0.7644
 2965SOL    HW111858   4.565   3.683   4.910 -0.3061  0.9821  0.3823
 2965SOL    HW211859   4.673   3.736   4.818 -0.2961 -0.0536 -0.2292
 2965SOL     MW11860   4.595   3.745   4.857 -0.4211  0.2640 -0.5491
 2966SOL     OW11861   1.446   4.518   4.435  0.3019 -0.2203  0.1013
 2966SOL    HW111862   1.451   4.608   4.468  0.4833  0.3862 -1.4764
 2966SOL    HW211863   1.531   4.503   4.394 -0.1858 -0.6249 -0.7931
 2966SOL     MW11864   1.458   4.528   4.434  0.2627 -0.1945 -0.2152
 2967SOL     OW11865   0.336   0.504   4.950  0.4202  0.8008 -0.4680
 2967SOL    HW111866   0.302   0.424   4.990  0.8074  0.4435 -0.8270
 2967SOL    HW211867   0.430   0.486   4.939  0.5275  1.3476 -0.4544
 2967SOL     MW11868   0.344   0.491   4.954  0.4835  0.8251 -0.5122
 2968SOL     OW11869   4.816   2.000   0.774 -0.1548 -0.2332 -0.4942
 2968SOL    HW111870   4.890   1.978   0.831  0.7103  0.4171 -1.3331
 2968SOL    HW211871   4.850   1.988   0.686 -0.3454  2.1524 -0.9523
 2968SOL     MW11872   4.830   1.996   0.770 -0.0685  0.1554 -0.6602
 2969SOL     OW11873   1.515   1.835   4.858 -0.2580  0.6709 -0.1701
 2969SOL    HW111874   1.476   1.765   4.806 -1.7891  0.9426  0.5217
 2969SOL    HW211875   1.604   1.805   4.877 -0.1994 -0.1289 -1.5952
 2969SOL     MW11876   1.521   1.822   4.854 -0.4465  0.6033 -0.2640
 2970SOL     OW11877   1.933   1.226   3.667 -0.2753  0.3604  0.6665
 2970SOL    HW111878   1.917   1.235   3.573 -0.4618  1.9543  0.8194
 2970SOL    HW211879   1.984   1.146   3.676 -1.8896 -0.8641 -0.5943
 2970SOL     MW11880   1.937   1.217   3.657 -0.5058  0.4077  0.5247
 2971SOL     OW11881   1.164   1.393   3.450  0.4400 -0.1963  0.3423
 2971SOL    HW111882   1.084   1.387   3.502  0.2369 -0.6956 -0.0189
 2971SOL    HW211883   1.198   1.303   3.449 -0.3079 -0.4976 -1.5591
 2971SOL     MW11884   1.158   1.381   3.456  0.3183 -0.2988  0.0527
 2972SOL     OW11885   4.826   3.042   0.210 -0.1240 -0.5434 -0.3540
 2972SOL    HW111886   4.842   3.006   0.123 -2.5768  0.2252 -1.2162
 2972SOL    HW211887   4.740   3.010   0.234 -0.3546  0.8851  0.9003
 2972SOL     MW11888   4.817   3.034   0.202 -0.4675 -0.2622 -0.3038
 2973SOL     OW11889   0.823   2.309   4.952 -0.2089  0.1878  0.6615
 2973SOL    HW111890   0.871   2.338   4.875  2.9521 -0.8492  2.0939
 2973SOL    HW211891   0.825   2.384   5.011  0.5315 -0.1633  1.0920
 2973SOL     MW11892   0.829   2.323   4.949  0.2905  0.0101  0.9000
 2974SOL     OW11893   4.417   3.850   3.606  0.3424 -0.6831  0.3220
 2974SOL    HW111894   4.345   3.794   3.579 -1.1829  0.7044  1.3404
 2974SOL    HW211895   4.485   3.834   3.540 -1.8240 -0.1397 -2.2342
 2974SOL     MW11896   4.417   3.841   3.594 -0.1302 -0.4359  0.1252
 2975SOL     OW11897   1.090   1.245   4.397 -0.1808  0.4182  0.1563
 2975SOL    HW111898   1.185   1.252   4.382 -0.1372  0.1133  0.2907
 2975SOL    HW211899   1.056   1.331   4.372  0.1101  0.4750 -0.0554
 2975SOL     MW11900   1.098   1.257   4.392 -0.1380  0.3864  0.1464
 2976SOL     OW11901   3.966   3.684   2.046 -0.0656  0.6923  0.0605
 2976SOL    HW111902   3.960   3.601   2.095  0.2954  1.1898  0.9676
 2976SOL    HW211903   3.893   3.736   2.079 -0.8685  0.4106 -1.1853
 2976SOL     MW11904   3.956   3.680   2.057 -0.1221  0.7199  0.0172
 2977SOL     OW11905   2.454   2.056   1.839 -0.0177  0.0973 -0.1667
 2977SOL    HW111906   2.394   2.003   1.892 -1.7431  1.9470 -0.1880
 2977SOL    HW211907   2.410   2.066   1.755  0.1690  1.7034 -0.0984
 2977SOL     MW11908   2.441   2.050   1.835 -0.2147  0.5396 -0.1607
 2978SOL     OW11909   1.302   1.509   0.335 -0.0130 -0.3131  0.1721
 2978SOL    HW111910   1.334   1.564   0.407  2.0681 -0.6715 -0.3960
 2978SOL    HW211911   1.243   1.566   0.286 -1.0179  0.1192  1.8053
 2978SOL     MW11912   1.299   1.523   0.338  0.1248 -0.3037  0.3084
 2979SOL     OW11913   0.614   2.247   5.296 -0.1994  0.5225 -0.5587
 2979SOL    HW111914   0.702   2.213   5.313  0.2136  1.5918 -0.4641
 2979SOL    HW211915   0.572   2.180   5.242  0.6766 -0.0083 -0.5925
 2979SOL     MW11916   0.620   2.234   5.291 -0.0344  0.5915 -0.5509
 2980SOL     OW11917   5.117   4.656   0.600  0.5451  0.0065  0.3707
 2980SOL    HW111918   5.080   4.599   0.533  1.8917 -0.3064 -0.1376
 2980SOL    HW211919   5.095   4.745   0.572  1.9504 -0.0645 -1.0386
 2980SOL     MW11920   5.109   4.660   0.588  0.8974 -0.0427  0.1252
 2981SOL     OW11921   4.851   3.995   2.279 -0.4414  0.2107 -0.9621
 2981SOL    HW111922   4.757   3.980   2.286 -0.7199  0.6709 -2.9670
 2981SOL    HW211923   4.859   4.075   2.227  1.0675  0.5995 -0.2001
 2981SOL     MW11924   4.840   4.004   2.273 -0.2839  0.3194 -1.1212
 2982SOL     OW11925   3.163   2.020   2.133 -0.4377 -0.1685 -0.1548
 2982SOL    HW111926   3.252   2.053   2.145  0.5059 -2.2327 -1.0636
 2982SOL    HW211927   3.149   1.960   2.206 -1.8125  1.4544  0.9980
 2982SOL     MW11928   3.173   2.016   2.144 -0.4929 -0.2250 -0.1236
 2983SOL     OW11929   4.933   1.952   3.962 -0.5985 -0.2432 -0.0776
 2983SOL    HW111930   4.870   1.943   3.890  0.0727 -0.3559 -0.6595
 2983SOL    HW211931   5.009   1.902   3.933  0.9895  2.3764 -0.7670
 2983SOL     MW11932   4.934   1.944   3.949 -0.3093  0.0777 -0.2403
 2984SOL     OW11933   2.607   2.315   1.647 -0.5092  0.1399 -0.5780
 2984SOL    HW111934   2.549   2.251   1.607 -1.8989  1.3098 -0.4805
 2984SOL    HW211935   2.595   2.304   1.741 -0.6551  0.4456 -0.5581
 2984SOL     MW11936   2.598   2.306   1.654 -0.7058  0.3288 -0.5630
 2985SOL     OW11937   3.970   0.062   2.877  0.0556 -0.1008  0.2558
 2985SOL    HW111938   4.002   0.018   2.798  2.2296  1.8598 -0.0633
 2985SOL    HW211939   4.049   0.082   2.926 -0.8842  2.4830  0.8578
 2985SOL     MW11940   3.984   0.059   2.873  0.2136  0.4810  0.2920
 2986SOL     OW11941   4.020   1.670   4.982  0.0401  0.3771  0.2438
 2986SOL    HW111942   3.928   1.658   4.960  0.4171 -0.9977 -0.6759
 2986SOL    HW211943   4.060   1.706   4.903  0.5912 -0.5906  0.0610
 2986SOL     MW11944   4.013   1.673   4.969  0.1589  0.0772  0.1027
 2987SOL     OW11945   4.068   2.015   2.493  0.0769  0.7605 -0.7643
 2987SOL    HW111946   4.079   2.055   2.579 -2.1878 -0.1194  0.0140
 2987SOL    HW211947   4.103   1.926   2.503 -1.2881  0.2373 -0.3145
 2987SOL     MW11948   4.074   2.008   2.505 -0.3877  0.5809 -0.6071
 2988SOL     OW11949   3.146   4.447   1.395  0.4962  0.2823  0.2265
 2988SOL    HW111950   3.133   4.360   1.359  1.1091  0.5404 -0.6597
 2988SOL    HW211951   3.238   4.449   1.421  0.7865  1.0178 -0.7974
 2988SOL     MW11952   3.156   4.436   1.394  0.6118  0.4095 -0.0180
 2989SOL     OW11953   3.351   5.316   1.680  0.1871 -0.1237 -0.4898
 2989SOL    HW111954   3.333   5.321   1.774 -0.3458 -1.7550 -0.4727
 2989SOL    HW211955   3.291   5.380   1.641  1.4127  1.6310  0.3458
 2989SOL     MW11956   3.341   5.325   1.687  0.2758 -0.1079 -0.3806
 2990SOL     OW11957   2.959   2.663   0.527  0.0529  0.3479 -0.0149
 2990SOL    HW111958   2.927   2.752   0.510 -2.2951 -0.4510 -0.1781
 2990SOL    HW211959   2.899   2.629   0.594  0.3697 -1.3833 -0.5717
 2990SOL     MW11960   2.947   2.670   0.534 -0.2071  0.0240 -0.1071
 2991SOL     OW11961   3.879   1.999   3.889 -0.1770 -0.6971  0.1881
 2991SOL    HW111962   3.962   2.024   3.849  0.0369 -0.9828  0.4554
 2991SOL    HW211963   3.825   1.968   3.816 -0.5753  0.8382 -0.2238
 2991SOL     MW11964   3.882   1.998   3.875 -0.2006 -0.5371  0.1696
 2992SOL     OW11965   2.184   1.390   0.780 -0.1249  0.0573 -0.6673
 2992SOL    HW111966   2.228   1.309   0.804  1.6342  0.7651 -1.3101
 2992SOL    HW211967   2.212   1.453   0.846 -2.3884 -0.0749  0.4929
 2992SOL     MW11968   2.194   1.388   0.791 -0.1894  0.1310 -0.6010
 2993SOL     OW11969   3.152   1.868   3.979 -0.1669 -0.6037 -0.0334
 2993SOL    HW111970   3.168   1.941   3.919  0.7500 -0.3519  0.4864
 2993SOL    HW211971   3.094   1.809   3.931 -1.4511  0.7622 -0.2246
 2993SOL     MW11972   3.147   1.870   3.965 -0.2139 -0.3966  0.0086
 2994SOL     OW11973   4.564   1.831   2.755 -0.1542  0.2004 -0.5996
 2994SOL    HW111974   4.627   1.764   2.783  1.0380  1.1479 -0.9323
 2994SOL    HW211975   4.483   1.808   2.801  1.1567  0.5006  2.0753
 2994SOL     MW11976   4.562   1.820   2.765  0.1662  0.3601 -0.2998
 2995SOL     OW11977   1.029   1.808   0.456 -0.7879  0.3121 -0.7064
 2995SOL    HW111978   0.947   1.773   0.490 -0.1342  0.8121  1.5310
 2995SOL    HW211979   1.052   1.749   0.385 -2.1805 -0.8820 -0.2287
 2995SOL     MW11980   1.021   1.796   0.451 -0.8825  0.2232 -0.3588
 2996SOL     OW11981   0.709   4.155   4.876  0.0711 -0.3169 -0.0013
 2996SOL    HW111982   0.785   4.180   4.822  0.9620 -0.0540  1.3248
 2996SOL    HW211983   0.635   4.161   4.816  0.8278  1.3736 -0.8434
 2996SOL     MW11984   0.710   4.159   4.861  0.2820 -0.0669  0.0607
 2997SOL     OW11985   1.320   4.676   2.906 -0.4529  0.2717 -0.1804
 2997SOL    HW111986   1.248   4.675   2.842  0.5465  2.3194 -1.4341
 2997SOL    HW211987   1.344   4.768   2.914  1.3710 -0.2580  0.9910
 2997SOL     MW11988   1.314   4.688   2.899 -0.0915  0.4660 -0.1909
 2998SOL     OW11989   0.838   1.603   0.400  0.1273  0.0329 -0.4536
 2998SOL    HW111990   0.753   1.645   0.414 -0.3464 -0.2106 -2.3776
 2998SOL    HW211991   0.850   1.604   0.305  2.0455 -0.4197 -0.2547
 2998SOL     MW11992   0.829   1.609   0.390  0.3122 -0.0562 -0.6744
 2999SOL     OW11993   3.609   1.143   1.403  0.1722  0.3190 -0.0974
 2999SOL    HW111994   3.660   1.074   1.445  0.9952  0.5222 -0.7416
 2999SOL    HW211995   3.665   1.176   1.332 -1.1523  0.0079 -1.3498
 2999SOL     MW11996   3.623   1.139   1.399  0.1080  0.3052 -0.3402
 3000SOL     OW11997   4.495   4.972   2.453 -0.3769  0.9839 -0.3641
 3000SOL    HW111998   4.472   5.042   2.515 -1.7296  0.9409 -0.7714
 3000SOL    HW211999   4.444   4.993   2.374  2.6700  2.0783 -2.2014
 3000SOL     MW12000   4.486   4.984   2.451 -0.1600  1.1185 -0.6514
 3001SOL     OW12001   2.033   5.435   1.675 -0.5038  0.0489 -0.1027
 3001SOL    HW112002   2.098   5.391   1.620 -0.1958 -0.8901  0.9546
 3001SOL    HW212003   2.052   5.403   1.763 -0.4571  2.1297  0.6780
 3001SOL     MW12004   2.044   5.425   1.679 -0.4584  0.1951  0.1326
 3002SOL     OW12005   0.724   0.754   4.550  0.2108 -0.2208  0.2179
 3002SOL    HW112006   0.672   0.692   4.601  2.0715 -1.3658  0.8438
 3002SOL    HW212007   0.806   0.706   4.531  1.3938  1.7679  0.0513
 3002SOL     MW12008   0.728   0.740   4.554  0.6004 -0.1128  0.2767
 3003SOL     OW12009   1.859   3.965   0.914  0.2939  0.1028 -0.3502
 3003SOL    HW112010   1.784   4.024   0.906  1.2128  1.3940  0.1739
 3003SOL    HW212011   1.907   3.976   0.832  1.3494  1.4069  0.3916
 3003SOL     MW12012   1.855   3.974   0.903  0.5466  0.4350 -0.1881
 3004SOL     OW12013   1.639   4.510   4.889 -0.1012 -0.2615 -0.7160
 3004SOL    HW112014   1.568   4.561   4.928  0.3831  1.9732 -2.5320
 3004SOL    HW212015   1.718   4.558   4.913  0.6592 -1.6622 -0.2982
 3004SOL     MW12016   1.640   4.523   4.897  0.0582 -0.1548 -0.8950
 3005SOL     OW12017   3.232   1.876   0.711  0.4443  0.3075  0.3095
 3005SOL    HW112018   3.142   1.861   0.680  0.6808 -2.8273  0.7732
 3005SOL    HW212019   3.224   1.878   0.806  1.0497 -2.7807  0.5327
 3005SOL     MW12020   3.219   1.874   0.719  0.5520 -0.4891  0.3974
 3006SOL     OW12021   1.891   4.383   1.030  0.2007  0.8601  0.3268
 3006SOL    HW112022   1.904   4.305   1.085  1.3257 -0.0149 -1.1239
 3006SOL    HW212023   1.979   4.408   1.002 -0.2379  2.0774 -0.0353
 3006SOL     MW12024   1.904   4.376   1.034  0.2885  0.9039  0.0947
 3007SOL     OW12025   2.109   3.289   4.607 -0.2969  0.7476  0.6099
 3007SOL    HW112026   2.022   3.298   4.570 -0.2236  0.7875  0.4468
 3007SOL    HW212027   2.133   3.377   4.635 -0.3666  0.7115  0.7892
 3007SOL     MW12028   2.101   3.301   4.606 -0.2964  0.7481  0.6120
 3008SOL     OW12029   4.800   0.051   3.414  0.0774 -0.1180  0.3007
 3008SOL    HW112030   4.777  -0.010   3.344  0.3129 -1.3873  1.2820
 3008SOL    HW212031   4.729   0.115   3.415 -0.0647 -0.2406 -0.9031
 3008SOL     MW12032   4.788   0.051   3.405  0.0893 -0.2962  0.2722
 3009SOL     OW12033   1.213   4.889   3.950  0.4175  0.1620  0.1658
 3009SOL    HW112034   1.301   4.887   3.988  1.2570  2.2979 -1.4709
 3009SOL    HW212035   1.176   4.973   3.979 -1.1275 -0.6841  0.8030
 3009SOL     MW12036   1.219   4.899   3.959  0.3272  0.3271  0.0379
 3010SOL     OW12037   5.498   1.240   2.999 -0.3056 -0.1539  0.0628
 3010SOL    HW112038   5.452   1.164   3.035  0.0505  0.1668  1.2068
 3010SOL    HW212039   5.463   1.248   2.910 -2.8706  0.3796  1.0239
 3010SOL     MW12040   5.488   1.231   2.992 -0.5884 -0.0446  0.3323
 3011SOL     OW12041   2.052   3.795   0.246 -0.1691 -0.7136 -0.5295
 3011SOL    HW112042   2.144   3.772   0.237  0.7433  1.9697  1.0956
 3011SOL    HW212043   2.015   3.724   0.299  1.1072 -1.4603 -0.5969
 3011SOL     MW12044   2.059   3.783   0.252  0.1111 -0.4657 -0.3301
 3012SOL     OW12045   3.684   1.641   2.490  0.0387 -0.2295 -0.2443
 3012SOL    HW112046   3.654   1.554   2.464 -0.6369  0.0211 -0.3434
 3012SOL    HW212047   3.777   1.632   2.505 -0.0188 -0.9551 -0.3255
 3012SOL     MW12048   3.692   1.629   2.488 -0.0551 -0.2903 -0.2673
 3013SOL     OW12049   3.957   4.061   3.547  0.1413 -0.2947  0.7189
 3013SOL    HW112050   3.868   4.091   3.566 -0.0177 -0.8129  0.8109
 3013SOL    HW212051   3.957   4.045   3.452  0.4252  0.6255  0.5520
 3013SOL     MW12052   3.945   4.062   3.537  0.1573 -0.2433  0.7093
 3014SOL     OW12053   1.152   4.598   0.287  0.2858  0.4125  0.1877
 3014SOL    HW112054   1.156   4.690   0.262 -0.9103  0.6583  0.8309
 3014SOL    HW212055   1.095   4.558   0.221  2.2477 -0.3000 -1.1982
 3014SOL     MW12056   1.145   4.605   0.275  0.3838  0.3528  0.0926
 3015SOL     OW12057   3.725   2.607   3.476 -0.2120  0.4569 -0.4123
 3015SOL    HW112058   3.699   2.515   3.486 -1.7294  0.7434 -1.3054
 3015SOL    HW212059   3.674   2.638   3.401  0.2326  2.0492 -0.0933
 3015SOL     MW12060   3.715   2.599   3.467 -0.3494  0.6974 -0.4858
 3016SOL     OW12061   4.126   0.962   1.496  0.4299 -0.1169  0.0354
 3016SOL    HW112062   4.091   0.920   1.575  0.8855 -0.5823  0.0024
 3016SOL    HW212063   4.191   1.024   1.529  0.7642 -0.4531  0.0302
 3016SOL     MW12064   4.130   0.964   1.510  0.5310 -0.2195  0.0305
 3017SOL     OW12065   4.871   1.782   4.656  0.1441  0.0147  0.2073
 3017SOL    HW112066   4.801   1.763   4.719 -0.5704  0.0362 -0.5586
 3017SOL    HW212067   4.943   1.726   4.683 -0.5963 -0.9288  0.2856
 3017SOL     MW12068   4.871   1.773   4.667 -0.0421 -0.1033  0.1193
 3018SOL     OW12069   5.448   2.712   4.013  0.5846  0.3202  0.1050
 3018SOL    HW112070   5.462   2.629   3.967  0.4400  0.4060 -0.0919
 3018SOL    HW212071   5.515   2.771   3.977  3.4574 -0.7959  3.0427
 3018SOL     MW12072   5.459   2.709   4.003  0.9339  0.1883  0.4558
 3019SOL     OW12073   3.844   4.538   0.771  0.2485 -0.1136  0.6276
 3019SOL    HW112074   3.875   4.469   0.712 -0.7688 -0.1217  0.0853
 3019SOL    HW212075   3.756   4.558   0.740  1.0913  2.6208 -0.3189
 3019SOL     MW12076   3.837   4.531   0.759  0.2262  0.2354  0.4370
 3020SOL     OW12077   3.212   4.757   4.732 -0.2424  0.4223 -0.1345
 3020SOL    HW112078   3.251   4.761   4.645 -0.4631  1.2274 -0.2018
 3020SOL    HW212079   3.146   4.827   4.733  0.6429  1.2773  1.1069
 3020SOL     MW12080   3.208   4.767   4.721 -0.1573  0.6348  0.0158
 3021SOL     OW12081   2.062   4.704   1.279  0.2913  0.6653  0.0396
 3021SOL    HW112082   2.003   4.631   1.298  0.9120 -0.4040 -1.8588
 3021SOL    HW212083   2.021   4.780   1.321 -0.7681 -0.6165  1.4180
 3021SOL     MW12084   2.049   4.705   1.287  0.2352  0.3643 -0.0270
 3022SOL     OW12085   3.202   3.658   1.770  0.3196  0.3769 -0.0105
 3022SOL    HW112086   3.141   3.724   1.737  0.8292  1.7907  1.7041
 3022SOL    HW212087   3.150   3.578   1.776 -0.7100  0.9620 -0.7968
 3022SOL     MW12088   3.187   3.656   1.766  0.2530  0.6328  0.1084
 3023SOL     OW12089   3.675   5.350   0.497  0.1119  0.4355 -0.0056
 3023SOL    HW112090   3.672   5.257   0.519 -0.7823  0.5811  0.5582
 3023SOL    HW212091   3.718   5.353   0.412 -1.7719 -0.7076 -1.0930
 3023SOL     MW12092   3.680   5.338   0.489 -0.2437  0.3078 -0.0727
 3024SOL     OW12093   2.190   3.309   1.111  0.7824  0.5552  0.3620
 3024SOL    HW112094   2.240   3.325   1.192  0.2235  1.0489  0.6145
 3024SOL    HW212095   2.102   3.341   1.131  0.8289  1.4013 -0.6997
 3024SOL     MW12096   2.185   3.315   1.124  0.7168  0.7267  0.2584
 3025SOL     OW12097   3.481   3.667   4.923  0.1926 -0.1098 -0.0082
 3025SOL    HW112098   3.443   3.601   4.865 -2.3762  0.9666  0.3346
 3025SOL    HW212099   3.442   3.649   5.009  1.5703  0.2204  0.7204
 3025SOL     MW12100   3.472   3.656   4.927  0.0402  0.0703  0.1290
 3026SOL     OW12101   1.135   4.149   0.819 -0.4298 -0.0727 -0.0089
 3026SOL    HW112102   1.172   4.222   0.868 -0.9310 -0.9259  1.7221
 3026SOL    HW212103   1.210   4.111   0.773 -0.2474  1.8056 -1.3871
 3026SOL     MW12104   1.150   4.154   0.820 -0.4706  0.0585  0.0363
 3027SOL     OW12105   5.075   2.251   1.014 -0.1836  0.6677  0.0226
 3027SOL    HW112106   5.136   2.178   1.033 -2.5127 -1.1163  1.1465
 3027SOL    HW212107   5.125   2.329   1.037  1.0738 -0.7947  2.8978
 3027SOL     MW12108   5.089   2.251   1.020 -0.3208  0.2521  0.5345
 3028SOL     OW12109   1.702   0.206   1.076 -0.7821  0.4698 -0.7531
 3028SOL    HW112110   1.701   0.278   1.013 -1.6859 -0.1404 -1.4767
 3028SOL    HW212111   1.723   0.129   1.023 -0.6498  0.0846 -0.1472
 3028SOL     MW12112   1.704   0.205   1.061 -0.8808  0.3424 -0.7682
 3029SOL     OW12113   0.015   4.532   3.614 -0.4049  0.4018 -0.0139
 3029SOL    HW112114  -0.018   4.605   3.667 -0.5966 -0.8724  1.7164
 3029SOL    HW212115   0.108   4.549   3.604 -0.3349  0.5859  0.9005
 3029SOL     MW12116   0.022   4.543   3.619 -0.4205  0.2623  0.3247
 3030SOL     OW12117   3.716   4.141   5.190  0.6518  0.1634 -0.5130
 3030SOL    HW112118   3.767   4.195   5.129  0.2633  0.7148 -0.3456
 3030SOL    HW212119   3.777   4.122   5.261  0.0507  2.5509  0.7217
 3030SOL     MW12120   3.731   4.145   5.191  0.5251  0.5396 -0.3335
 3031SOL     OW12121   0.859   5.264   2.433 -0.3835  0.2097 -0.4173
 3031SOL    HW112122   0.937   5.286   2.382 -0.4497 -0.0379 -0.6259
 3031SOL    HW212123   0.793   5.327   2.404 -1.0148 -1.1276 -2.0824
 3031SOL     MW12124   0.860   5.275   2.423 -0.4728  0.0068 -0.6571
 3032SOL     OW12125   1.495   5.430   0.072  0.2268 -0.2839 -0.1010
 3032SOL    HW112126   1.432   5.364   0.101 -1.2948  0.8780 -0.6007
 3032SOL    HW212127   1.573   5.413   0.124 -1.0963 -0.6537  1.8940
 3032SOL     MW12128   1.497   5.420   0.082 -0.1374 -0.1825  0.0904
 3033SOL     OW12129   3.209   2.753   4.905 -0.9049 -0.0827  0.1319
 3033SOL    HW112130   3.148   2.822   4.876 -2.4834 -1.2360  0.5774
 3033SOL    HW212131   3.182   2.733   4.994  2.3518  1.7086  1.7093
 3033SOL     MW12132   3.197   2.759   4.913 -0.6900 -0.0010  0.3909
 3034SOL     OW12133   3.120   3.162   1.375  0.4516  0.3444 -0.0392
 3034SOL    HW112134   3.183   3.119   1.317 -0.5253 -0.9693 -0.1455
 3034SOL    HW212135   3.041   3.172   1.322 -0.5513 -1.1176  1.1005
 3034SOL     MW12136   3.118   3.158   1.361  0.1982 -0.0109  0.0931
 3035SOL     OW12137   0.818   5.384   0.753 -0.3792  0.4414 -0.4827
 3035SOL    HW112138   0.723   5.386   0.769 -0.3833  0.8555 -0.5451
 3035SOL    HW212139   0.842   5.293   0.763 -0.0894  0.8026  3.4991
 3035SOL     MW12140   0.809   5.373   0.756 -0.3426  0.5406  0.0190
 3036SOL     OW12141   3.164   2.044   1.415 -0.1667 -0.0233 -0.7517
 3036SOL    HW112142   3.129   1.965   1.373 -0.0667 -0.3363 -0.2629
 3036SOL    HW212143   3.087   2.089   1.449 -0.2791  0.4255 -1.5966
 3036SOL     MW12144   3.150   2.039   1.414 -0.1683 -0.0059 -0.7973
 3037SOL     OW12145   2.126   4.652   0.735  0.7015 -0.3332  0.3803
 3037SOL    HW112146   2.064   4.626   0.667  0.9887  0.6652 -0.2746
 3037SOL    HW212147   2.106   4.594   0.809 -0.3416 -0.6896 -0.1653
 3037SOL     MW12148   2.116   4.641   0.736  0.6047 -0.2510  0.2266
 3038SOL     OW12149   4.134   3.424   1.241  0.3347  0.8148  0.1833
 3038SOL    HW112150   4.170   3.506   1.273  1.1137  0.0762  1.2602
 3038SOL    HW212151   4.205   3.360   1.251  0.0636  0.1927 -1.5157
 3038SOL     MW12152   4.147   3.426   1.246  0.3997  0.6406  0.1037
 3039SOL     OW12153   3.829   4.342   5.049  0.4497  0.0478  0.8991
 3039SOL    HW112154   3.768   4.412   5.025  1.4365  0.5105 -0.3843
 3039SOL    HW212155   3.855   4.303   4.965  0.9735 -0.9516  1.5019
 3039SOL     MW12156   3.825   4.346   5.035  0.6431 -0.0209  0.8120
 3040SOL     OW12157   2.830   3.586   3.065  0.3475 -0.4843  0.5827
 3040SOL    HW112158   2.738   3.597   3.042  0.4651 -0.6176  0.0347
 3040SOL    HW212159   2.877   3.647   3.008  0.5085  0.4774  1.7094
 3040SOL     MW12160   2.824   3.595   3.055  0.3832 -0.3782  0.6568
 3041SOL     OW12161   2.185   5.048   0.529 -0.2784 -0.1276  0.8810
 3041SOL    HW112162   2.122   5.058   0.600 -1.2054 -1.4611  0.2920
 3041SOL    HW212163   2.271   5.058   0.571 -0.8445  2.4129  1.5886
 3041SOL     MW12164   2.188   5.051   0.543 -0.4695  0.0269  0.8962
 3042SOL     OW12165   1.384   1.672   4.294 -0.4928 -0.0404 -0.1871
 3042SOL    HW112166   1.452   1.703   4.354  0.8647 -2.6200 -0.2647
 3042SOL    HW212167   1.303   1.678   4.344  0.1963  0.5013  0.8951
 3042SOL     MW12168   1.382   1.677   4.308 -0.2308 -0.3013 -0.0585
 3043SOL     OW12169   1.295   5.242   0.158  0.4572  0.2035 -0.1971
 3043SOL    HW112170   1.302   5.258   0.252  1.6545  0.9161 -0.3855
 3043SOL    HW212171   1.201   5.232   0.142  0.3762 -3.5206  1.6136
 3043SOL     MW12172   1.284   5.243   0.168  0.6001 -0.1820  0.0106
 3044SOL     OW12173   3.593   0.029   2.185  0.6777  0.0220  0.5236
 3044SOL    HW112174   3.570  -0.020   2.106  0.6257 -1.5247  1.4668
 3044SOL    HW212175   3.545   0.111   2.177 -1.4908 -1.2224  0.2199
 3044SOL     MW12176   3.584   0.033   2.174  0.3934 -0.3353  0.6055
 3045SOL     OW12177   5.114   3.652   2.121  0.7184  0.1530 -0.4942
 3045SOL    HW112178   5.112   3.572   2.173  2.1574 -0.3555 -1.1676
 3045SOL    HW212179   5.155   3.716   2.177  0.7635  0.0596 -0.4198
 3045SOL     MW12180   5.119   3.650   2.135  0.9084  0.0759 -0.5709
 3046SOL     OW12181   3.090   4.400   2.490 -0.4748 -0.1319 -0.2272
 3046SOL    HW112182   3.018   4.450   2.451 -2.1985 -2.2839  0.0141
 3046SOL    HW212183   3.165   4.417   2.433 -0.9690  2.5703 -0.2035
 3046SOL     MW12184   3.090   4.408   2.478 -0.7587 -0.0615 -0.1933
 3047SOL     OW12185   0.140   1.089   4.495 -0.8373  0.3674 -0.3862
 3047SOL    HW112186   0.181   1.176   4.495 -0.1553  0.1924  3.1175
 3047SOL    HW212187   0.212   1.029   4.517 -1.8976 -0.7001  0.2237
 3047SOL     MW12188   0.155   1.092   4.498 -0.8857  0.2083  0.1404
 3048SOL     OW12189   3.077   5.279   4.705  0.2552 -0.7161  0.4454
 3048SOL    HW112190   3.109   5.340   4.772  0.0609 -0.0384 -0.0639
 3048SOL    HW212191   2.983   5.274   4.722 -0.3757  1.8642 -1.5930
 3048SOL     MW12192   3.069   5.286   4.716  0.1496 -0.2991  0.1192
 3049SOL     OW12193   2.222   5.287   0.364 -0.5674 -0.1456 -0.3001
 3049SOL    HW112194   2.219   5.224   0.292 -1.7718  0.9906 -1.2977
 3049SOL    HW212195   2.177   5.242   0.436  0.2075 -1.1044 -0.3901
 3049SOL     MW12196   2.216   5.273   0.364 -0.6224 -0.1229 -0.4393
 3050SOL     OW12197   5.457   4.510   5.350  0.2513  0.3712  0.2676
 3050SOL    HW112198   5.480   4.434   5.403  1.4263 -0.3838 -1.2429
 3050SOL    HW212199   5.362   4.518   5.359  0.1620 -1.0239  0.7955
 3050SOL     MW12200   5.448   4.501   5.358  0.3903  0.0960  0.1418
 3051SOL     OW12201   2.771   1.398   0.515  0.4523  0.0270  0.0680
 3051SOL    HW112202   2.757   1.456   0.590 -1.8365  0.8421 -0.9030
 3051SOL    HW212203   2.783   1.457   0.441  0.8139 -0.7698 -0.5275
 3051SOL     MW12204   2.771   1.413   0.515  0.2056  0.0294 -0.1325
 3052SOL     OW12205   1.668   4.228   4.916  0.5664  0.3499 -0.0525
 3052SOL    HW112206   1.639   4.318   4.904 -0.1455  0.3238  1.2814
 3052SOL    HW212207   1.589   4.175   4.907  0.7125 -0.0004  0.6359
 3052SOL     MW12208   1.654   4.233   4.914  0.4940  0.3017  0.2064
 3053SOL     OW12209   1.588   1.914   3.138 -0.1208 -0.0270 -0.0157
 3053SOL    HW112210   1.504   1.871   3.122 -0.3224  0.7074 -1.0194
 3053SOL    HW212211   1.568   1.986   3.197 -0.4087  0.8217 -1.1212
 3053SOL     MW12212   1.575   1.918   3.143 -0.1834  0.1757 -0.2857
 3054SOL     OW12213   0.402   2.729   3.817  0.1483  0.7411  0.2474
 3054SOL    HW112214   0.428   2.817   3.843 -0.4789  0.4767  1.8512
 3054SOL    HW212215   0.450   2.713   3.735  1.3229  2.0369  0.6513
 3054SOL     MW12216   0.412   2.738   3.810  0.2183  0.8731  0.5044
 3055SOL     OW12217   4.530   3.596   2.850 -0.1102 -0.3078  0.1944
 3055SOL    HW112218   4.561   3.507   2.832 -1.2407 -0.6624 -0.0764
 3055SOL    HW212219   4.445   3.600   2.808 -0.7290  0.4177  1.4742
 3055SOL     MW12220   4.523   3.585   2.842 -0.3341 -0.2604  0.3235
 3056SOL     OW12221   4.946   3.519   5.037 -0.4271  0.0215  0.5622
 3056SOL    HW112222   4.856   3.490   5.056 -0.1203 -2.0930 -0.9210
 3056SOL    HW212223   5.001   3.464   5.093  0.0682 -0.8872 -0.7821
 3056SOL     MW12224   4.941   3.509   5.047 -0.3244 -0.3655  0.2003
 3057SOL     OW12225   1.274   3.994   1.184 -0.7866  0.0727  0.5797
 3057SOL    HW112226   1.276   4.003   1.279  0.4331  0.5907  0.5213
 3057SOL    HW212227   1.181   3.995   1.162 -1.0683  0.4742  1.7209
 3057SOL     MW12228   1.262   3.995   1.193 -0.6665  0.1904  0.7183
 3058SOL     OW12229   5.157   1.628   5.412 -0.0842  0.0544 -0.3119
 3058SOL    HW112230   5.120   1.675   5.337 -0.1611 -0.3150 -0.5120
 3058SOL    HW212231   5.163   1.693   5.481  2.6550  1.1772 -1.4566
 3058SOL     MW12232   5.153   1.642   5.411  0.2566  0.1508 -0.4841
 3059SOL     OW12233   1.937   4.147   3.755 -0.2923 -0.5883 -0.2639
 3059SOL    HW112234   1.909   4.184   3.671  1.1138 -0.3519 -0.6668
 3059SOL    HW212235   1.876   4.183   3.819 -1.3813 -0.7564 -1.1764
 3059SOL     MW12236   1.926   4.157   3.752 -0.2517 -0.5796 -0.4323
 3060SOL     OW12237   4.807   4.769   2.195  0.2877  0.1347 -0.4281
 3060SOL    HW112238   4.883   4.828   2.185 -1.0183  1.9317 -0.3066
 3060SOL    HW212239   4.770   4.793   2.280  0.6414 -2.0863  0.4154
 3060SOL     MW12240   4.812   4.780   2.204  0.1658  0.0804 -0.3045
 3061SOL     OW12241   1.357   3.497   4.238  0.0876  0.6728 -0.5029
 3061SOL    HW112242   1.327   3.573   4.288 -0.1848  0.9324 -1.0500
 3061SOL    HW212243   1.405   3.535   4.164  2.6429  0.2806  0.8424
 3061SOL     MW12244   1.360   3.512   4.235  0.3799  0.6558 -0.4007
 3062SOL     OW12245   2.014   2.831   0.450 -0.0095 -0.3355  0.5609
 3062SOL    HW112246   2.001   2.786   0.367  0.0981 -1.6793  1.2461
 3062SOL    HW212247   1.998   2.923   0.431 -2.2109 -0.8730 -0.4516
 3062SOL     MW12248   2.011   2.837   0.437 -0.2775 -0.5763  0.5190
 3063SOL     OW12249   4.601   0.118   2.548  0.1207  0.4361 -0.0090
 3063SOL    HW112250   4.613   0.174   2.625 -0.8764  1.8697 -0.8432
 3063SOL    HW212251   4.507   0.100   2.547  0.3161 -0.6071 -0.2142
 3063SOL     MW12252   4.590   0.123   2.558  0.0180  0.4861 -0.1421
 3064SOL     OW12253   0.651   5.352   1.160 -0.5679 -0.1660  0.5388
 3064SOL    HW112254   0.605   5.329   1.241  1.0769 -1.0411  1.2632
 3064SOL    HW212255   0.619   5.290   1.095 -1.5193  0.2179  0.6139
 3064SOL     MW12256   0.641   5.341   1.162 -0.4791 -0.2288  0.6412
 3065SOL     OW12257   4.620   4.404   1.206 -0.0786  0.5867  0.0313
 3065SOL    HW112258   4.636   4.317   1.243 -0.9275  0.0263 -0.8661
 3065SOL    HW212259   4.664   4.402   1.121  0.5982  1.3398  0.3506
 3065SOL     MW12260   4.627   4.392   1.200 -0.1006  0.6114 -0.0427
 3066SOL     OW12261   1.091   2.735   4.223 -0.3620 -0.2021 -0.5702
 3066SOL    HW112262   1.035   2.705   4.295 -1.2575  0.9029 -0.7645
 3066SOL    HW212263   1.084   2.666   4.157 -0.9528 -0.4094 -0.3007
 3066SOL     MW12264   1.083   2.722   4.223 -0.5522 -0.0872 -0.5606
 3067SOL     OW12265   2.129   2.521   0.524  0.5002 -0.8149 -0.5812
 3067SOL    HW112266   2.067   2.594   0.520  1.2725 -0.1796 -2.7830
 3067SOL    HW212267   2.129   2.494   0.615 -0.2756  1.5411  0.1866
 3067SOL     MW12268   2.121   2.527   0.535  0.4997 -0.4320 -0.7648
 3068SOL     OW12269   3.567   2.072   3.187  0.1492 -0.2273  0.4675
 3068SOL    HW112270   3.593   2.157   3.152 -0.2779 -0.3191 -0.0955
 3068SOL    HW212271   3.621   2.060   3.265  1.5644 -0.2606 -0.4626
 3068SOL     MW12272   3.578   2.081   3.192  0.2757 -0.2433  0.2764
 3069SOL     OW12273   2.256   2.846   5.060 -0.2199  0.3231 -0.7561
 3069SOL    HW112274   2.237   2.929   5.017 -0.8485  0.3004 -0.5231
 3069SOL    HW212275   2.352   2.843   5.064 -0.1917  1.0047 -0.8274
 3069SOL     MW12276   2.266   2.856   5.055 -0.2967  0.4075 -0.7354
 3070SOL     OW12277   1.785   2.682   0.505 -0.2008 -0.6861  0.4989
 3070SOL    HW112278   1.779   2.661   0.598  0.2799  0.1105  0.7148
 3070SOL    HW212279   1.858   2.744   0.499  0.0340 -1.0372 -0.4591
 3070SOL     MW12280   1.794   2.687   0.516 -0.1092 -0.6291  0.4039
 3071SOL     OW12281   3.238   3.310   0.682  0.1237 -0.0510 -0.0047
 3071SOL    HW112282   3.191   3.380   0.728  1.7750  1.3277 -0.3043
 3071SOL    HW212283   3.274   3.352   0.604  1.8948 -1.0021  0.2515
 3071SOL     MW12284   3.237   3.324   0.678  0.5618  0.0037 -0.0103
 3072SOL     OW12285   3.769   3.125   1.700  0.5408  0.1981  0.5579
 3072SOL    HW112286   3.717   3.049   1.725  0.8336 -0.6984 -1.3761
 3072SOL    HW212287   3.704   3.196   1.693 -0.4609 -0.8345 -1.5408
 3072SOL     MW12288   3.754   3.125   1.702  0.4501 -0.0488  0.0417
 3073SOL     OW12289   4.656   4.202   3.710  0.4158  0.6250  0.8078
 3073SOL    HW112290   4.618   4.228   3.794  0.0121 -0.0979  0.8541
 3073SOL    HW212291   4.599   4.241   3.644  0.9931  1.5760  0.8599
 3073SOL     MW12292   4.644   4.210   3.712  0.4380  0.6542  0.8204
 3074SOL     OW12293   4.323   1.034   0.649  0.7306 -0.0680  0.3329
 3074SOL    HW112294   4.308   1.123   0.618  0.4919  0.1783  1.1267
 3074SOL    HW212295   4.342   1.044   0.742 -2.5835 -1.0911  1.2541
 3074SOL     MW12296   4.323   1.047   0.657  0.2758 -0.1674  0.5524
 3075SOL     OW12297   2.350   4.422   4.551 -0.1795  0.2932 -0.3117
 3075SOL    HW112298   2.287   4.456   4.487  0.4488  0.7210 -0.7175
 3075SOL    HW212299   2.345   4.327   4.542  0.6247  0.3645 -1.7282
 3075SOL     MW12300   2.342   4.414   4.542  0.0039  0.3571 -0.5450
 3076SOL     OW12301   2.494   1.929   4.592  0.1377  0.7504 -0.0456
 3076SOL    HW112302   2.529   1.915   4.504 -0.3020  1.1923 -0.2899
 3076SOL    HW212303   2.558   1.987   4.634 -0.6488  2.1892 -0.7470
 3076SOL     MW12304   2.507   1.935   4.586 -0.0193  0.9912 -0.1667
 3077SOL     OW12305   5.486   2.217   0.701 -0.6807 -0.5804 -0.0579
 3077SOL    HW112306   5.509   2.241   0.611 -0.2265  0.4692  0.3241
 3077SOL    HW212307   5.392   2.231   0.706 -0.5465  0.4108 -0.0722
 3077SOL     MW12308   5.477   2.222   0.690 -0.6054 -0.3192 -0.0109
 3078SOL     OW12309   0.273   1.170   1.599 -0.2478  0.3585  0.1116
 3078SOL    HW112310   0.251   1.210   1.515 -2.3484  1.7429  1.2490
 3078SOL    HW212311   0.368   1.158   1.595 -0.2039  0.9772 -2.1723
 3078SOL     MW12312   0.283   1.173   1.588 -0.5111  0.6149 -0.0352
 3079SOL     OW12313   0.778   3.832   3.759  0.5026 -0.2447  0.3964
 3079SOL    HW112314   0.825   3.808   3.678  0.2685 -1.2421  0.5485
 3079SOL    HW212315   0.700   3.777   3.759  0.2934  0.0429  1.1043
 3079SOL     MW12316   0.774   3.822   3.748  0.4458 -0.3356  0.5065
 3080SOL     OW12317   1.119   2.862   1.397  0.2023  0.1691 -0.2894
 3080SOL    HW112318   1.064   2.936   1.423  0.1325  1.5558 -3.7584
 3080SOL    HW212319   1.200   2.874   1.447  0.2179  2.7017 -0.7856
 3080SOL     MW12320   1.123   2.873   1.407  0.1954  0.6708 -0.7970
 3081SOL     OW12321   1.166   5.187   5.183 -0.3295  0.2213 -0.2422
 3081SOL    HW112322   1.216   5.189   5.101  0.2466  0.4969  0.1042
 3081SOL    HW212323   1.233   5.187   5.252 -0.6833 -2.6580  0.2589
 3081SOL     MW12324   1.181   5.187   5.181 -0.3010 -0.1120 -0.1337
 3082SOL     OW12325   5.418   2.484   2.879  0.3034  0.0572 -0.0654
 3082SOL    HW112326   5.428   2.414   2.944  1.3635 -1.3307 -1.6371
 3082SOL    HW212327   5.367   2.444   2.808 -1.1996  1.6661  0.0474
 3082SOL     MW12328   5.412   2.470   2.878  0.2467  0.0855 -0.2521
 3083SOL     OW12329  -0.003   5.165   0.874  0.0567 -0.0535 -0.5505
 3083SOL    HW112330  -0.050   5.208   0.945  0.0217  2.3597 -1.9404
 3083SOL    HW212331   0.082   5.142   0.912 -0.3631  0.1867  0.5704
 3083SOL     MW12332   0.002   5.168   0.888 -0.0015  0.2862 -0.5849
 3084SOL     OW12333   1.437   4.754   4.553 -0.1239 -0.3952  0.4474
 3084SOL    HW112334   1.517   4.804   4.536 -0.4830  0.2686  0.6954
 3084SOL    HW212335   1.422   4.763   4.647 -1.3246  0.7530  0.1675
 3084SOL     MW12336   1.445   4.761   4.563 -0.3236 -0.1632  0.4433
 3085SOL     OW12337   5.395   2.437   1.458  0.5895  0.3934  0.3600
 3085SOL    HW112338   5.308   2.476   1.456  0.8812  1.0480  0.3177
 3085SOL    HW212339   5.401   2.397   1.545  0.6634  1.3279  0.7989
 3085SOL     MW12340   5.385   2.437   1.469  0.6363  0.5969  0.4108
 3086SOL     OW12341   1.248   0.436   4.768 -0.8399 -0.3288 -1.0412
 3086SOL    HW112342   1.247   0.356   4.717  2.1727  0.7557 -3.1382
 3086SOL    HW212343   1.274   0.504   4.706  2.5794  1.2081  1.6887
 3086SOL     MW12344   1.251   0.435   4.754 -0.0165  0.0068 -0.9602
 3087SOL     OW12345   3.292   5.049   3.375  0.2875  0.1549  0.5692
 3087SOL    HW112346   3.328   4.962   3.357 -0.5991 -0.5481  2.0832
 3087SOL    HW212347   3.361   5.109   3.345  0.5829 -1.0103 -1.2590
 3087SOL     MW12348   3.306   5.045   3.369  0.2119 -0.0843  0.5290
 3088SOL     OW12349   5.124   0.783   4.551  0.1018  0.4323  0.0381
 3088SOL    HW112350   5.172   0.699   4.547 -1.8393 -0.7836  0.9983
 3088SOL    HW212351   5.179   0.839   4.606  1.5623 -0.0969 -0.8250
 3088SOL     MW12352   5.138   0.779   4.558  0.0403  0.2089  0.0505
 3089SOL     OW12353   1.357   4.865   1.889  1.2123 -0.4044 -0.1362
 3089SOL    HW112354   1.433   4.918   1.868  1.3542 -0.3824  0.4031
 3089SOL    HW212355   1.342   4.811   1.811  1.4689 -0.0466 -0.4345
 3089SOL     MW12356   1.365   4.865   1.876  1.2633 -0.3558 -0.1054
 3090SOL     OW12357   0.281   1.963   2.165 -0.2881 -0.3747  0.3422
 3090SOL    HW112358   0.328   1.918   2.236  0.0651 -1.1558 -0.3816
 3090SOL    HW212359   0.345   2.026   2.131  0.6537 -2.1474 -1.3312
 3090SOL     MW12360   0.295   1.966   2.170 -0.1223 -0.7016  0.0354
 3091SOL     OW12361   2.481   3.711   3.619 -0.2165  0.2203 -0.1133
 3091SOL    HW112362   2.525   3.671   3.694  1.5468  2.4121  0.1223
 3091SOL    HW212363   2.541   3.697   3.546 -0.1445  1.3612 -0.2817
 3091SOL     MW12364   2.494   3.704   3.619  0.0184  0.6469 -0.1047
 3092SOL     OW12365   5.064   5.427   1.873  0.1939 -0.3021 -0.0226
 3092SOL    HW112366   5.009   5.493   1.831  1.7190 -0.1903 -1.9714
 3092SOL    HW212367   5.118   5.477   1.935 -1.1824 -0.3003  1.2560
 3092SOL     MW12368   5.064   5.442   1.876  0.2129 -0.2876 -0.1084
 3093SOL     OW12369   1.883   1.849   0.260 -0.4018 -0.2516 -0.0082
 3093SOL    HW112370   1.871   1.766   0.215 -1.3558 -0.6468  0.9138
 3093SOL    HW212371   1.974   1.874   0.243  0.4734 -2.3919  1.1304
 3093SOL     MW12372   1.893   1.842   0.252 -0.4119 -0.5762  0.2556
 3094SOL     OW12373   2.335   1.456   5.485  0.2292  0.2457  0.3858
 3094SOL    HW112374   2.351   1.518   5.414  1.0473  2.3493  2.2832
 3094SOL    HW212375   2.243   1.432   5.476 -0.0145  1.4661 -0.6349
 3094SOL     MW12376   2.326   1.461   5.475  0.3027  0.6712  0.4980
 3095SOL     OW12377   5.071   4.085   1.625 -0.0511  0.0437 -0.2611
 3095SOL    HW112378   5.036   4.133   1.700 -0.0368  0.4544 -0.5175
 3095SOL    HW212379   5.062   3.993   1.650 -3.4838 -0.0079 -1.2175
 3095SOL     MW12380   5.065   4.079   1.638 -0.4887  0.0897 -0.4164
 3096SOL     OW12381   4.125   4.299   4.878  0.1311  0.0379  0.2826
 3096SOL    HW112382   4.074   4.219   4.894 -0.8327  0.5548 -0.0897
 3096SOL    HW212383   4.210   4.282   4.919  1.1260 -2.4271 -2.4237
 3096SOL     MW12384   4.129   4.286   4.886  0.1351 -0.2115 -0.1115
 3097SOL     OW12385   2.045   1.963   2.747  0.0379 -0.8035  0.2678
 3097SOL    HW112386   1.981   1.892   2.740 -0.0173 -0.8699  1.2656
 3097SOL    HW212387   2.125   1.928   2.707 -0.7551 -0.4335 -1.7240
 3097SOL     MW12388   2.047   1.949   2.741 -0.0707 -0.7647  0.1405
 3098SOL     OW12389   1.024   2.337   2.758  0.1117  0.2968 -0.2142
 3098SOL    HW112390   1.029   2.310   2.850  0.2544  1.2196  0.0556
 3098SOL    HW212391   1.028   2.432   2.761 -0.9136  0.3809 -1.1187
 3098SOL     MW12392   1.025   2.345   2.771 -0.0013  0.4257 -0.2954
 3099SOL     OW12393   2.066   0.021   4.323  0.6310 -0.6308 -0.7811
 3099SOL    HW112394   2.111   0.042   4.241  0.8806 -2.0470 -1.0405
 3099SOL    HW212395   2.073  -0.074   4.330  1.5049 -0.4538  1.4203
 3099SOL     MW12396   2.073   0.012   4.313  0.7749 -0.7894 -0.5325
 3100SOL     OW12397   3.445   4.818   3.336  0.4294 -0.2679 -0.7228
 3100SOL    HW112398   3.464   4.760   3.410  3.2807  0.0714 -1.0755
 3100SOL    HW212399   3.387   4.765   3.280 -0.9627 -0.9034  1.1729
 3100SOL     MW12400   3.440   4.804   3.338  0.6162 -0.3058 -0.5253
 3101SOL     OW12401   5.492   4.653   2.996  0.7040  0.5542  0.3892
 3101SOL    HW112402   5.424   4.590   2.974  0.4541  1.3524 -1.3339
 3101SOL    HW212403   5.444   4.734   3.016  1.0845  0.7025  0.7145
 3101SOL     MW12404   5.477   4.656   2.996  0.7207  0.6754  0.2102
 3102SOL     OW12405   3.158   5.186   2.893  0.0359  0.3624  0.1296
 3102SOL    HW112406   3.232   5.126   2.898  1.1528  1.7309  0.3255
 3102SOL    HW212407   3.094   5.140   2.838  1.1452 -0.6902 -0.3241
 3102SOL     MW12408   3.159   5.172   2.887  0.3209  0.4028  0.0966
 3103SOL     OW12409   2.517   1.860   5.060  0.2827 -0.3265  0.3591
 3103SOL    HW112410   2.549   1.944   5.028 -0.0015  0.0971  1.1776
 3103SOL    HW212411   2.434   1.880   5.104  0.2595 -1.0159  0.6483
 3103SOL     MW12412   2.510   1.873   5.062  0.2433 -0.3605  0.5009
 3104SOL     OW12413   1.095   2.759   2.544 -0.4788  0.1257  0.4209
 3104SOL    HW112414   1.106   2.847   2.579 -0.3503  0.1883  0.2275
 3104SOL    HW212415   1.101   2.702   2.620 -1.0351  0.3164  0.6073
 3104SOL     MW12416   1.097   2.763   2.558 -0.5335  0.1581  0.4200
 3105SOL     OW12417   5.347   4.829   5.446 -0.0436  0.1272 -0.2367
 3105SOL    HW112418   5.390   4.833   5.361 -2.1820  0.5788 -1.3767
 3105SOL    HW212419   5.304   4.744   5.448  1.5239 -0.6972  1.2584
 3105SOL     MW12420   5.347   4.819   5.435 -0.1167  0.0795 -0.1913
 3106SOL     OW12421   4.919   4.794   1.528  0.0658 -0.2370 -0.1137
 3106SOL    HW112422   4.954   4.721   1.476  0.4336 -0.2693  0.1729
 3106SOL    HW212423   4.982   4.804   1.600 -0.8100 -0.6539  0.7311
 3106SOL     MW12424   4.932   4.786   1.531  0.0008 -0.2945  0.0312
 3107SOL     OW12425   4.445   1.887   2.511  0.1626 -0.0026 -0.3142
 3107SOL    HW112426   4.508   1.867   2.580 -0.7420 -2.1075 -0.0102
 3107SOL    HW212427   4.407   1.971   2.536  1.0521  0.0755  0.8380
 3107SOL     MW12428   4.448   1.895   2.523  0.1607 -0.2620 -0.1278
 3108SOL     OW12429   1.223   4.073   1.451  0.3487 -0.0700 -0.6999
 3108SOL    HW112430   1.222   4.162   1.416  0.3096  0.3086  0.2519
 3108SOL    HW212431   1.134   4.058   1.482 -0.3365 -1.3381 -3.0037
 3108SOL     MW12432   1.212   4.083   1.450  0.2560 -0.1839 -0.8730
 3109SOL     OW12433   3.474   3.644   0.731 -0.5264 -0.2114  0.4200
 3109SOL    HW112434   3.440   3.711   0.791  0.9480  0.2927  0.7367
 3109SOL    HW212435   3.567   3.663   0.725 -0.4518 -0.9555 -1.1719
 3109SOL     MW12436   3.481   3.655   0.738 -0.3281 -0.2421  0.2567
 3110SOL     OW12437   3.783   5.082   4.186  0.1686  0.3712 -0.1097
 3110SOL    HW112438   3.773   5.171   4.154  0.2702  0.5485  0.3466
 3110SOL    HW212439   3.877   5.064   4.182 -0.0549 -0.6470 -2.6583
 3110SOL     MW12440   3.794   5.091   4.182  0.1530  0.2635 -0.3775
 3111SOL     OW12441   3.506   5.338   5.299 -0.3284 -0.4704  0.4758
 3111SOL    HW112442   3.579   5.392   5.269 -0.0209 -0.4311  1.2456
 3111SOL    HW212443   3.430   5.371   5.253  0.2658 -1.0673 -0.9981
 3111SOL     MW12444   3.506   5.349   5.290 -0.2129 -0.5418  0.3856
 3112SOL     OW12445   4.964   1.268   1.833 -0.1415  0.6111  0.4963
 3112SOL    HW112446   4.883   1.308   1.865  0.9810  1.6264  2.2613
 3112SOL    HW212447   4.935   1.198   1.775 -2.2741  1.0113  0.9933
 3112SOL     MW12448   4.950   1.264   1.830 -0.2708  0.7923  0.7859
 3113SOL     OW12449   4.287   4.688   5.085 -0.2298 -0.7509  0.0272
 3113SOL    HW112450   4.270   4.692   5.179  2.7359  1.5915  0.5900
 3113SOL    HW212451   4.231   4.757   5.048  0.0875 -0.3200  0.3492
 3113SOL     MW12452   4.277   4.697   5.092  0.1904 -0.3959  0.1405
 3114SOL     OW12453   4.810   2.846   0.843 -0.0541  0.2447  0.0207
 3114SOL    HW112454   4.786   2.755   0.824 -0.5470 -0.1842  2.4314
 3114SOL    HW212455   4.727   2.894   0.841  0.0006  0.3506  0.2567
 3114SOL     MW12456   4.796   2.840   0.840 -0.1102  0.2033  0.3595
 3115SOL     OW12457   2.598   3.977   0.649 -0.1110 -0.4390  0.3823
 3115SOL    HW112458   2.607   3.929   0.567  3.1199 -1.4065  1.1498
 3115SOL    HW212459   2.570   4.065   0.623 -0.0324 -0.9762 -1.6500
 3115SOL     MW12460   2.595   3.982   0.635  0.3126 -0.6316  0.2204
 3116SOL     OW12461   5.284   3.490   1.254 -0.9268 -0.3816 -0.4568
 3116SOL    HW112462   5.354   3.543   1.293 -0.3631 -1.6173  0.2517
 3116SOL    HW212463   5.314   3.400   1.262 -2.1789 -0.8760 -1.0154
 3116SOL     MW12464   5.297   3.486   1.260 -1.0149 -0.6030 -0.4376
 3117SOL     OW12465   5.206   3.473   3.765  0.2431 -0.0951 -0.2228
 3117SOL    HW112466   5.179   3.426   3.843 -1.3490  0.7045 -0.2625
 3117SOL    HW212467   5.170   3.422   3.692  0.7959 -0.2520 -0.3901
 3117SOL     MW12468   5.198   3.461   3.765  0.1100 -0.0128 -0.2493
 3118SOL     OW12469   5.112   0.172   2.280 -0.0510 -0.0609  0.4680
 3118SOL    HW112470   5.041   0.111   2.260  0.7263 -0.2776 -1.9071
 3118SOL    HW212471   5.070   0.257   2.286 -0.6452 -0.3312  0.2346
 3118SOL     MW12472   5.097   0.175   2.278 -0.0276 -0.1232  0.1341
 3119SOL     OW12473   5.414   2.419   4.636  0.0614 -0.2373 -0.5852
 3119SOL    HW112474   5.479   2.363   4.678  1.0884  0.8227 -0.7089
 3119SOL    HW212475   5.449   2.508   4.646 -0.7270  0.2328 -1.8039
 3119SOL     MW12476   5.427   2.424   4.643  0.0919 -0.0414 -0.7570
 3120SOL     OW12477   3.185   1.139   5.369  0.1659  0.2584  0.6295
 3120SOL    HW112478   3.105   1.119   5.416 -0.3554 -1.2610 -0.8064
 3120SOL    HW212479   3.239   1.060   5.377  0.3389  0.2138 -0.6979
 3120SOL     MW12480   3.182   1.127   5.376  0.1213  0.0582  0.2758
 3121SOL     OW12481   3.435   4.920   4.752 -0.4356 -0.4260  0.1314
 3121SOL    HW112482   3.377   4.845   4.761  0.8441 -1.4212  0.2625
 3121SOL    HW212483   3.473   4.933   4.839 -0.0737 -0.0992 -0.0710
 3121SOL     MW12484   3.433   4.912   4.764 -0.2255 -0.5116  0.1223
 3122SOL     OW12485   4.819   0.412   4.610 -0.0691  0.7892  0.2457
 3122SOL    HW112486   4.831   0.448   4.698  1.2056  0.4886  0.2181
 3122SOL    HW212487   4.892   0.351   4.600  0.1143  1.2227 -1.2253
 3122SOL     MW12488   4.830   0.409   4.620  0.1175  0.8062  0.0539
 3123SOL     OW12489   4.426   3.828   0.848  0.3756  0.6602  0.2757
 3123SOL    HW112490   4.506   3.819   0.900  0.8529  1.5545 -0.2778
 3123SOL    HW212491   4.356   3.802   0.907  1.1520 -1.4412  0.3793
 3123SOL     MW12492   4.427   3.823   0.862  0.5361  0.5057  0.2181
 3124SOL     OW12493   2.121   5.268   1.957  0.3778  0.0446  0.3437
 3124SOL    HW112494   2.052   5.236   2.014 -0.4953  0.4342 -0.4704
 3124SOL    HW212495   2.187   5.304   2.016 -1.9840  3.5916  1.1568
 3124SOL     MW12496   2.121   5.268   1.972 -0.0363  0.5486  0.3435
 3125SOL     OW12497   2.776   5.327   3.439 -0.2479  0.0015 -0.1031
 3125SOL    HW112498   2.778   5.233   3.455  0.4536  0.0915  0.3848
 3125SOL    HW212499   2.829   5.339   3.360 -1.4080 -0.1400 -0.9306
 3125SOL     MW12500   2.783   5.317   3.431 -0.3066 -0.0051 -0.1466
 3126SOL     OW12501   2.478   0.433   1.899  0.2877  0.4736  0.2719
 3126SOL    HW112502   2.502   0.492   1.827 -2.6449  2.1624  0.5094
 3126SOL    HW212503   2.519   0.471   1.976 -0.7231  1.7166  0.2466
 3126SOL     MW12504   2.486   0.446   1.899 -0.2171  0.8489  0.2991
 3127SOL     OW12505   1.035   3.875   0.294  0.3253  0.0202 -0.2348
 3127SOL    HW112506   1.051   3.944   0.358 -0.0831  0.3563 -0.4899
 3127SOL    HW212507   0.971   3.818   0.335 -0.5729  0.6950 -0.6601
 3127SOL     MW12508   1.029   3.877   0.307  0.1580  0.1496 -0.3219
 3128SOL     OW12509   0.508   2.896   1.379 -0.1144 -0.3756 -0.4409
 3128SOL    HW112510   0.537   2.987   1.380 -1.1041  0.0216  2.3587
 3128SOL    HW212511   0.587   2.845   1.362  0.9122  0.9220  0.2822
 3128SOL     MW12512   0.522   2.901   1.377 -0.1097 -0.1587  0.0101
 3129SOL     OW12513   4.109   3.647   5.031 -0.2629 -0.1296 -0.3527
 3129SOL    HW112514   4.061   3.726   5.054 -0.8110 -0.4298 -0.4458
 3129SOL    HW212515   4.064   3.577   5.078 -0.4008 -0.5245 -1.0574
 3129SOL     MW12516   4.097   3.648   5.040 -0.3507 -0.2186 -0.4549
 3130SOL     OW12517   2.309   3.116   2.941  0.3619 -0.6510 -0.1257
 3130SOL    HW112518   2.340   3.118   3.032 -1.8017  0.0444  0.6782
 3130SOL    HW212519   2.384   3.145   2.889  0.9827  1.2485  1.6878
 3130SOL     MW12520   2.322   3.120   2.946  0.1644 -0.3188  0.2094
 3131SOL     OW12521   0.776   2.420   2.659 -0.3173  0.3853 -0.2045
 3131SOL    HW112522   0.859   2.380   2.685 -0.3796  0.9888  0.9764
 3131SOL    HW212523   0.751   2.475   2.733 -1.9561 -0.0460 -0.3750
 3131SOL     MW12524   0.783   2.422   2.672 -0.5351  0.4074 -0.0752
 3132SOL     OW12525   0.231   4.646   0.224  0.1957  0.6597  0.5858
 3132SOL    HW112526   0.159   4.702   0.195 -0.1776  1.0940  2.2240
 3132SOL    HW212527   0.189   4.562   0.243  0.2864  0.6201  0.6088
 3132SOL     MW12528   0.216   4.643   0.223  0.1595  0.7102  0.7985
 3133SOL     OW12529   4.027   0.156   0.933 -1.0360 -0.4660 -0.4773
 3133SOL    HW112530   4.114   0.196   0.927 -1.5690  1.0238  1.0786
 3133SOL    HW212531   4.044   0.062   0.929  0.6954 -0.2118  0.0994
 3133SOL     MW12532   4.041   0.149   0.932 -0.8826 -0.2428 -0.2043
 3134SOL     OW12533   1.155   0.594   5.414  0.2799  0.2002 -0.2035
 3134SOL    HW112534   1.120   0.645   5.487 -0.4516 -0.8326  0.1840
 3134SOL    HW212535   1.205   0.658   5.362 -0.0953  1.1700  0.5974
 3134SOL     MW12536   1.157   0.609   5.417  0.1383  0.1921 -0.0514
 3135SOL     OW12537   0.632   4.402   5.360 -0.0170 -0.2964 -0.0752
 3135SOL    HW112538   0.581   4.327   5.392 -0.5476 -0.5019 -1.3174
 3135SOL    HW212539   0.566   4.464   5.330  0.4134  0.8887  1.3525
 3135SOL     MW12540   0.617   4.400   5.360 -0.0299 -0.1710 -0.0515
 3136SOL     OW12541   3.407   4.568   0.262 -0.0368  0.1210 -0.2932
 3136SOL    HW112542   3.445   4.560   0.350 -0.6405 -0.3955 -0.0773
 3136SOL    HW212543   3.352   4.490   0.252 -1.6947  1.2630 -0.2933
 3136SOL     MW12544   3.405   4.557   0.272 -0.3263  0.2011 -0.2656
 3137SOL     OW12545   1.821   0.993   4.216 -0.2414 -0.1439 -0.4193
 3137SOL    HW112546   1.874   1.018   4.140 -0.0564  2.6587  0.4990
 3137SOL    HW212547   1.848   0.904   4.235  1.8710  0.0873 -1.8946
 3137SOL     MW12548   1.831   0.985   4.208  0.0527  0.2445 -0.4906
 3138SOL     OW12549   4.784   1.790   1.507  0.4962  0.5658 -0.0538
 3138SOL    HW112550   4.839   1.866   1.527  0.0432  0.8373  0.1878
 3138SOL    HW212551   4.699   1.828   1.483  0.2427  0.1308  0.1445
 3138SOL     MW12552   4.780   1.805   1.506  0.4058  0.5449  0.0025
 3139SOL     OW12553   3.734   3.335   0.518 -0.2456  0.2327  0.2495
 3139SOL    HW112554   3.674   3.318   0.590  0.6985 -0.6404  0.8412
 3139SOL    HW212555   3.814   3.288   0.540  0.7621  1.5576 -0.4148
 3139SOL     MW12556   3.737   3.327   0.530  0.0043  0.2906  0.2402
 3140SOL     OW12557   4.356   4.993   3.548  0.4781  0.6903  0.3292
 3140SOL    HW112558   4.295   5.031   3.612 -0.6945  0.9023 -0.8665
 3140SOL    HW212559   4.332   5.035   3.465  2.6546  1.2196 -0.1013
 3140SOL     MW12560   4.345   5.003   3.545  0.6066  0.7852  0.1210
 3141SOL     OW12561   5.160   0.060   2.524  0.4083  0.4065 -0.3408
 3141SOL    HW112562   5.183  -0.025   2.486  0.0876  0.1542  0.0274
 3141SOL    HW212563   5.137   0.114   2.448  1.1780  0.3478 -0.6273
 3141SOL     MW12564   5.160   0.056   2.509  0.4658  0.3667 -0.3303
 3142SOL     OW12565   4.340   4.146   5.016 -0.3292  0.0115 -0.1055
 3142SOL    HW112566   4.339   4.054   4.990  0.0714 -0.6132  1.8572
 3142SOL    HW212567   4.417   4.154   5.073 -1.4277  1.0513  1.3121
 3142SOL     MW12568   4.350   4.135   5.020 -0.4185  0.0646  0.3272
 3143SOL     OW12569   2.812   1.407   1.873 -0.0200 -0.0457 -0.5444
 3143SOL    HW112570   2.863   1.487   1.861 -3.1750  2.2503  0.1912
 3143SOL    HW212571   2.842   1.349   1.803  3.2728  1.2039 -0.3448
 3143SOL     MW12572   2.823   1.410   1.862 -0.0024  0.4082 -0.4247
 3144SOL     OW12573   1.955   1.914   1.786 -0.6343 -0.2526 -0.4667
 3144SOL    HW112574   1.898   1.957   1.723 -1.2943 -0.8965 -0.3281
 3144SOL    HW212575   1.965   1.977   1.857 -0.4684  0.2001 -0.8925
 3144SOL     MW12576   1.949   1.927   1.787 -0.6975 -0.2771 -0.5034
 3145SOL     OW12577   1.864   1.217   2.649  0.3030 -0.3205  0.3583
 3145SOL    HW112578   1.798   1.216   2.718  0.6363  3.6195  1.0080
 3145SOL    HW212579   1.935   1.161   2.682 -1.8694 -3.2707  0.3906
 3145SOL     MW12580   1.865   1.210   2.662  0.0676 -0.1938  0.4456
 3146SOL     OW12581   2.545   2.655   2.124  0.1662 -0.0845 -0.4614
 3146SOL    HW112582   2.504   2.591   2.183  0.1236  0.7075  0.3845
 3146SOL    HW212583   2.472   2.698   2.080  0.1468  0.3176 -0.0335
 3146SOL     MW12584   2.530   2.652   2.126  0.1583  0.0683 -0.2983
 3147SOL     OW12585   2.188   4.977   3.933 -0.2672  0.5370  0.1210
 3147SOL    HW112586   2.178   4.947   3.842 -0.2343 -1.2559  0.6584
 3147SOL    HW212587   2.121   4.930   3.982 -0.7092  1.9677  0.9580
 3147SOL     MW12588   2.178   4.967   3.928 -0.3196  0.4906  0.2970
 3148SOL     OW12589   1.844   2.385   2.346 -0.0920 -0.1421 -0.2936
 3148SOL    HW112590   1.780   2.340   2.400  0.7284 -2.4077 -1.0930
 3148SOL    HW212591   1.851   2.473   2.384 -2.3400 -0.4123  0.8603
 3148SOL     MW12592   1.837   2.391   2.357 -0.2748 -0.4667 -0.2483
 3149SOL     OW12593   2.261   2.395   4.904 -0.3781 -0.6307 -0.1289
 3149SOL    HW112594   2.276   2.459   4.974  0.1090 -0.4347 -0.4050
 3149SOL    HW212595   2.175   2.417   4.869  0.0379  0.2841 -0.6292
 3149SOL     MW12596   2.252   2.406   4.908 -0.2625 -0.4885 -0.2283
 3150SOL     OW12597   1.924   2.691   4.637  0.4186  0.1579  0.5581
 3150SOL    HW112598   1.846   2.653   4.677  0.9015 -0.5329  0.8508
 3150SOL    HW212599   1.905   2.785   4.631 -0.0832  0.1136  1.4290
 3150SOL     MW12600   1.912   2.698   4.641  0.4162  0.0638  0.7071
 3151SOL     OW12601   0.740   2.726   1.350  0.6643 -0.2767 -0.4253
 3151SOL    HW112602   0.686   2.667   1.298 -0.4008  1.1243 -0.9833
 3151SOL    HW212603   0.827   2.686   1.351  0.5776 -0.6516 -2.8209
 3151SOL     MW12604   0.744   2.714   1.344  0.5168 -0.1453 -0.8034
 3152SOL     OW12605   1.043   2.061   3.013  0.1125 -0.4879  0.4069
 3152SOL    HW112606   0.960   2.071   2.966  1.0227  0.7158 -1.0356
 3152SOL    HW212607   1.044   1.970   3.041 -1.3938 -0.6950 -0.1114
 3152SOL     MW12608   1.033   2.051   3.011  0.0362 -0.3603  0.1559
 3153SOL     OW12609   2.537   4.035   1.545 -0.1120  0.4113 -0.0244
 3153SOL    HW112610   2.535   3.968   1.477  0.2360  0.3212  0.0556
 3153SOL    HW212611   2.453   4.025   1.590  1.1726 -2.1234  2.0720
 3153SOL     MW12612   2.526   4.025   1.542  0.0970  0.0753  0.2542
 3154SOL     OW12613   2.679   5.172   0.020  0.2458 -0.3307  0.4972
 3154SOL    HW112614   2.664   5.114   0.094 -1.1320 -0.5984  0.0292
 3154SOL    HW212615   2.664   5.260   0.054 -3.0464 -0.5790 -0.0075
 3154SOL     MW12616   2.675   5.176   0.034 -0.3520 -0.3968  0.3727
 3155SOL     OW12617   0.858   3.498   5.095 -0.2030 -0.5718 -0.0389
 3155SOL    HW112618   0.885   3.585   5.126 -1.6171 -0.2954  0.5029
 3155SOL    HW212619   0.834   3.451   5.174 -1.0054 -0.8925 -0.4622
 3155SOL     MW12620   0.858   3.503   5.109 -0.4868 -0.5774 -0.0238
 3156SOL     OW12621   2.178   3.841   3.510 -0.4548 -0.5969  0.3353
 3156SOL    HW112622   2.259   3.845   3.459 -2.1148 -0.0528 -2.4837
 3156SOL    HW212623   2.130   3.767   3.472 -2.7469  1.2355 -0.5863
 3156SOL     MW12624   2.182   3.832   3.498 -0.9607 -0.2927 -0.1436
 3157SOL     OW12625   4.096   5.348   0.474 -0.3811  0.0404 -0.0014
 3157SOL    HW112626   4.029   5.383   0.532 -0.9419 -2.4269  0.9487
 3157SOL    HW212627   4.074   5.255   0.464  2.1332 -0.5660 -0.7503
 3157SOL     MW12628   4.085   5.340   0.480 -0.1311 -0.3531  0.0244
 3158SOL     OW12629   4.807   0.398   3.277  0.3826  0.2742  0.3447
 3158SOL    HW112630   4.830   0.316   3.321  0.7785 -0.0722 -0.4908
 3158SOL    HW212631   4.749   0.443   3.339 -0.2880 -0.8793  0.5933
 3158SOL     MW12632   4.802   0.393   3.291  0.3474  0.0822  0.2696
 3159SOL     OW12633   4.633   0.473   1.886 -0.0303 -0.9012  0.6816
 3159SOL    HW112634   4.600   0.425   1.810  2.3419 -1.1901 -0.2681
 3159SOL    HW212635   4.668   0.554   1.850  1.5987 -1.2663  1.3437
 3159SOL     MW12636   4.633   0.477   1.871  0.4819 -0.9849  0.6448
 3160SOL     OW12637   3.563   3.503   1.515 -0.3261 -0.3281 -0.2263
 3160SOL    HW112638   3.476   3.536   1.492 -0.4987 -0.4703  0.2132
 3160SOL    HW212639   3.604   3.483   1.431 -0.1319  1.2093 -0.5369
 3160SOL     MW12640   3.557   3.505   1.501 -0.3233 -0.1495 -0.2098
 3161SOL     OW12641   0.136   3.213   2.674  0.3907 -0.2849 -0.2002
 3161SOL    HW112642   0.191   3.170   2.609  0.5332  0.3775 -0.5195
 3161SOL    HW212643   0.073   3.264   2.623  1.7928  1.9116  0.1301
 3161SOL     MW12644   0.135   3.214   2.659  0.5885  0.0811 -0.1988
 3162SOL     OW12645   5.117   4.885   4.883  0.1719  0.3774 -0.0857
 3162SOL    HW112646   5.108   4.793   4.859 -1.7129  0.3644  0.4718
 3162SOL    HW212647   5.154   4.883   4.972  0.1488  0.1571 -0.0804
 3162SOL     MW12648   5.121   4.873   4.891 -0.0724  0.3475 -0.0137
 3163SOL     OW12649   1.904   3.024   3.181  0.1182  0.3429  0.1532
 3163SOL    HW112650   1.910   2.929   3.188  0.4000  0.1974 -1.6694
 3163SOL    HW212651   1.953   3.046   3.102  2.1333  2.2675  1.7810
 3163SOL     MW12652   1.911   3.015   3.172  0.4122  0.5707  0.1282
 3164SOL     OW12653   1.734   4.726   0.459 -0.4605 -0.1393 -0.1218
 3164SOL    HW112654   1.707   4.791   0.524  0.6613 -0.4543  0.6785
 3164SOL    HW212655   1.749   4.777   0.380 -2.4889  0.1688 -0.3738
 3164SOL     MW12656   1.732   4.741   0.457 -0.5765 -0.1402 -0.0516
 3165SOL     OW12657   2.898   2.967   3.437 -0.3090  0.3852  0.0720
 3165SOL    HW112658   2.819   2.913   3.440 -0.6305  0.9002  1.1518
 3165SOL    HW212659   2.876   3.040   3.380 -0.5434  0.4372  0.2322
 3165SOL     MW12660   2.885   2.969   3.430 -0.3802  0.4578  0.2307
 3166SOL     OW12661   1.313   5.159   4.594  0.1008  0.4300 -0.1139
 3166SOL    HW112662   1.392   5.207   4.618  1.0115 -1.0048 -0.0855
 3166SOL    HW212663   1.333   5.122   4.507  0.0888 -1.1649  0.5155
 3166SOL     MW12664   1.326   5.160   4.586  0.2159  0.0421 -0.0297
 3167SOL     OW12665   1.050   3.682   2.608 -0.2355 -0.0547  0.5313
 3167SOL    HW112666   1.069   3.774   2.627 -1.6376  0.2035  0.8234
 3167SOL    HW212667   1.107   3.660   2.535  0.2272  1.0022  0.5530
 3167SOL     MW12668   1.060   3.691   2.601 -0.3558  0.1137  0.5714
 3168SOL     OW12669   0.661   3.864   2.351 -0.0481  0.0124 -0.0849
 3168SOL    HW112670   0.682   3.838   2.441 -0.7033  0.3899  0.1873
 3168SOL    HW212671   0.632   3.955   2.359  2.1006  0.8390 -1.0067
 3168SOL     MW12672   0.660   3.872   2.364  0.1431  0.1665 -0.1681
 3169SOL     OW12673   4.287   0.518   1.907 -0.2616  0.2238  0.5532
 3169SOL    HW112674   4.353   0.556   1.849  0.4428 -1.5972  0.0876
 3169SOL    HW212675   4.331   0.511   1.992 -0.1043 -0.3279  0.4255
 3169SOL     MW12676   4.301   0.522   1.911 -0.1513 -0.0799  0.4773
 3170SOL     OW12677   1.018   0.201   4.918  0.5113 -0.2522 -0.1332
 3170SOL    HW112678   1.039   0.108   4.912  0.7022 -0.1398 -1.3727
 3170SOL    HW212679   0.969   0.220   4.838  1.7469  1.0281 -0.6203
 3170SOL     MW12680   1.014   0.192   4.907  0.6939 -0.0739 -0.3542
 3171SOL     OW12681   0.640   4.381   5.039  0.5067 -0.1554  0.2715
 3171SOL    HW112682   0.654   4.355   5.130 -2.3638  0.4765  0.9924
 3171SOL    HW212683   0.659   4.301   4.989  0.8911 -0.8938  1.5399
 3171SOL     MW12684   0.644   4.367   5.044  0.1884 -0.1690  0.5262
 3172SOL     OW12685   3.278   5.426   1.924 -0.0643 -0.1156  0.3231
 3172SOL    HW112686   3.243   5.502   1.878  0.7616  1.1811  1.7416
 3172SOL    HW212687   3.201   5.388   1.968 -0.6256 -0.6249 -1.0358
 3172SOL     MW12688   3.263   5.431   1.924 -0.0304 -0.0148  0.3307
 3173SOL     OW12689   0.453   5.229   3.242  0.5874 -0.2824 -0.0684
 3173SOL    HW112690   0.436   5.322   3.230 -1.3754 -0.6194 -0.3226
 3173SOL    HW212691   0.370   5.193   3.272  1.4058 -1.8997  0.3910
 3173SOL     MW12692   0.440   5.236   3.244  0.4409 -0.5325 -0.0421
 3174SOL     OW12693   5.418   2.661   4.285 -0.4647 -0.0791  0.0028
 3174SOL    HW112694   5.326   2.652   4.310 -1.0687  1.4648 -1.4843
 3174SOL    HW212695   5.416   2.694   4.195  1.5497  0.1830 -0.0031
 3174SOL     MW12696   5.406   2.664   4.276 -0.2842  0.1521 -0.1883
 3175SOL     OW12697   2.424   4.462   0.685  0.1761  0.0591 -0.1038
 3175SOL    HW112698   2.489   4.394   0.668  0.5590  0.9587 -2.8562
 3175SOL    HW212699   2.346   4.432   0.639 -0.2930  0.5439  0.3657
 3175SOL     MW12700   2.422   4.450   0.677  0.1651  0.2363 -0.3961
 3176SOL     OW12701   2.955   5.119   1.793  0.3532  0.0469  0.0938
 3176SOL    HW112702   2.914   5.074   1.720 -0.0125  1.6943 -0.7835
 3176SOL    HW212703   2.896   5.107   1.867  0.3674 -1.0327 -0.0652
 3176SOL     MW12704   2.942   5.112   1.793  0.3082  0.1196 -0.0388
 3177SOL     OW12705   4.671   5.259   3.843  0.0716 -0.1401  0.4138
 3177SOL    HW112706   4.699   5.168   3.856  0.3903  0.0441  1.0438
 3177SOL    HW212707   4.578   5.258   3.863 -0.0581 -0.4519 -0.1919
 3177SOL     MW12708   4.663   5.247   3.847  0.0958 -0.1564  0.4169
 3178SOL     OW12709   5.162   3.416   2.986  0.8281  0.0625 -0.5261
 3178SOL    HW112710   5.088   3.442   2.930 -2.0282 -1.8951  2.0567
 3178SOL    HW212711   5.195   3.335   2.947  0.4687  0.0014 -0.7018
 3178SOL     MW12712   5.157   3.409   2.974  0.4165 -0.1959 -0.2180
 3179SOL     OW12713   2.701   4.564   1.154  0.2997  0.0985 -0.1963
 3179SOL    HW112714   2.757   4.489   1.174  2.1853  1.2877 -0.7190
 3179SOL    HW212715   2.756   4.640   1.174 -1.5839  1.3651  0.4327
 3179SOL     MW12716   2.716   4.564   1.159  0.2999  0.4129 -0.1827
 3180SOL     OW12717   0.036   1.914   5.140 -0.2777 -0.5760  0.3321
 3180SOL    HW112718   0.083   1.918   5.057  2.0818 -0.0631  1.6185
 3180SOL    HW212719  -0.053   1.886   5.116  0.3143 -0.3929 -2.3323
 3180SOL     MW12720   0.031   1.911   5.126  0.1002 -0.4869  0.1557
 3181SOL     OW12721   3.645   1.131   1.842 -0.0084  0.5618  0.1581
 3181SOL    HW112722   3.583   1.139   1.915 -1.3564 -1.0177 -0.7388
 3181SOL    HW212723   3.597   1.167   1.767  0.0361 -0.9075 -0.5991
 3181SOL     MW12724   3.631   1.137   1.842 -0.1753  0.1715 -0.0537
 3182SOL     OW12725   1.029   3.748   5.064  0.1686 -0.8458 -0.0737
 3182SOL    HW112726   1.115   3.716   5.039  0.9462  1.1883 -0.1570
 3182SOL    HW212727   1.046   3.812   5.133 -1.3466 -0.9810  0.4711
 3182SOL     MW12728   1.042   3.752   5.070  0.0742 -0.6027 -0.0147
 3183SOL     OW12729   4.076   4.565   4.316  0.0792 -0.2618 -0.2408
 3183SOL    HW112730   4.012   4.525   4.375 -0.2908 -0.6775 -0.9148
 3183SOL    HW212731   4.148   4.591   4.374 -1.0383  0.9833  0.6558
 3183SOL     MW12732   4.077   4.564   4.331 -0.1112 -0.1557 -0.2123
 3184SOL     OW12733   0.132   0.955   2.980  0.5631  0.2958  0.1804
 3184SOL    HW112734   0.128   0.995   2.893  0.1679 -1.2338 -0.5471
 3184SOL    HW212735   0.225   0.938   2.995  0.6588  0.8258  0.1775
 3184SOL     MW12736   0.144   0.958   2.971  0.5248  0.1679  0.0869
 3185SOL     OW12737   2.023   4.051   0.417 -0.5873  0.0830 -0.5489
 3185SOL    HW112738   1.945   3.996   0.401 -0.3849 -0.6664  0.8815
 3185SOL    HW212739   1.988   4.139   0.427 -1.1170 -0.0541 -1.1033
 3185SOL     MW12740   2.008   4.055   0.416 -0.6292 -0.0305 -0.4368
 3186SOL     OW12741   2.814   4.527   0.604 -0.0078  0.0405  0.3533
 3186SOL    HW112742   2.857   4.576   0.674 -0.3334  1.0385 -0.1235
 3186SOL    HW212743   2.870   4.540   0.527  0.4174 -1.1531  0.4316
 3186SOL     MW12744   2.827   4.535   0.603  0.0050  0.0155  0.3023
 3187SOL     OW12745   3.462   0.462   1.694 -0.8551 -0.2593  0.0436
 3187SOL    HW112746   3.457   0.550   1.730  0.3255 -0.4348  0.6869
 3187SOL    HW212747   3.487   0.407   1.768  1.2762 -0.6757 -0.8947
 3187SOL     MW12748   3.465   0.466   1.708 -0.4311 -0.3351  0.0058
 3188SOL     OW12749   0.039   3.353   3.351  0.0022 -0.8615  0.5484
 3188SOL    HW112750   0.028   3.418   3.420  0.1461 -0.8918  0.6008
 3188SOL    HW212751  -0.015   3.384   3.279 -0.0108 -0.7387  0.6118
 3188SOL     MW12752   0.031   3.365   3.350  0.0190 -0.8497  0.5632
 3189SOL     OW12753   2.535   2.935   0.480  0.3028  0.2583  0.4140
 3189SOL    HW112754   2.483   2.999   0.529 -0.5953  0.3316 -0.6004
 3189SOL    HW212755   2.499   2.938   0.391  3.9095  2.4272 -1.1746
 3189SOL     MW12756   2.524   2.944   0.475  0.6495  0.5453  0.0808
 3190SOL     OW12757   1.564   3.140   0.622  0.0093 -0.0667 -0.0935
 3190SOL    HW112758   1.540   3.049   0.639 -2.4013  0.3256 -0.9728
 3190SOL    HW212759   1.639   3.134   0.562 -0.5879 -1.4869 -0.7405
 3190SOL     MW12760   1.571   3.128   0.616 -0.3758 -0.1983 -0.2889
 3191SOL     OW12761   1.285   3.500   1.406  0.2520 -0.3039 -0.5504
 3191SOL    HW112762   1.268   3.585   1.366  0.5227  0.1926  0.3669
 3191SOL    HW212763   1.345   3.519   1.478 -0.4999 -1.1357  0.3124
 3191SOL     MW12764   1.291   3.514   1.410  0.1904 -0.3468 -0.3226
 3192SOL     OW12765   4.237   2.292   1.276  0.2336 -0.4499  0.0164
 3192SOL    HW112766   4.262   2.379   1.244 -2.8241  0.7767  0.5503
 3192SOL    HW212767   4.200   2.249   1.199  2.0434 -1.4779 -0.3239
 3192SOL     MW12768   4.235   2.298   1.262  0.0739 -0.4244  0.0412
 3193SOL     OW12769   2.163   2.297   1.019  0.2867  0.0020  0.6099
 3193SOL    HW112770   2.189   2.362   0.953 -1.2905 -0.2257 -0.2712
 3193SOL    HW212771   2.148   2.349   1.098 -0.7009  0.7226 -0.0189
 3193SOL     MW12772   2.164   2.312   1.021 -0.0417  0.0651  0.4166
 3194SOL     OW12773   2.683   1.361   3.445  0.0399  0.2240 -0.0512
 3194SOL    HW112774   2.605   1.305   3.446  1.1636 -1.5554 -2.2591
 3194SOL    HW212775   2.714   1.359   3.355  2.7858  0.6532  0.7602
 3194SOL     MW12776   2.677   1.354   3.434  0.5352  0.0512 -0.2300
 3195SOL     OW12777   2.626   2.262   1.903  0.0960 -0.4706  0.1366
 3195SOL    HW112778   2.537   2.245   1.934 -0.1338  0.7186  0.1403
 3195SOL    HW212779   2.651   2.344   1.946  0.3870  0.3477 -1.5348
 3195SOL     MW12780   2.618   2.270   1.912  0.1038 -0.2136 -0.0769
 3196SOL     OW12781   3.129   1.607   4.927  0.0804 -0.0034  0.0173
 3196SOL    HW112782   3.140   1.536   4.991  1.7131  0.5902  0.4472
 3196SOL    HW212783   3.182   1.579   4.852 -1.1951 -0.3282 -0.7950
 3196SOL     MW12784   3.138   1.594   4.925  0.1261  0.0310 -0.0316
 3197SOL     OW12785   3.177   5.319   4.451 -0.3123  0.1304  0.0863
 3197SOL    HW112786   3.262   5.362   4.458 -0.8155  1.1048  0.4534
 3197SOL    HW212787   3.144   5.317   4.541 -0.8714  0.1906 -0.1131
 3197SOL     MW12788   3.183   5.324   4.464 -0.4483  0.2628  0.1078
 3198SOL     OW12789   4.345   2.269   0.433  0.0574  0.4817  0.8675
 3198SOL    HW112790   4.325   2.281   0.340 -0.2217 -1.5711  0.5980
 3198SOL    HW212791   4.438   2.247   0.435  0.3287  1.6128  1.2102
 3198SOL     MW12792   4.355   2.267   0.422  0.0564  0.3637  0.8769
 3199SOL     OW12793   0.529   3.107   1.881  0.4538  0.3410  0.0184
 3199SOL    HW112794   0.510   3.054   1.803  3.0371 -0.3650 -0.2533
 3199SOL    HW212795   0.549   3.042   1.949 -2.6910  0.9136  1.6513
 3199SOL     MW12796   0.529   3.092   1.880  0.3819  0.3240  0.1926
 3200SOL     OW12797   0.973   1.139   2.717 -0.4295 -0.3892 -0.0479
 3200SOL    HW112798   0.963   1.138   2.622  1.1794  2.3076 -0.3408
 3200SOL    HW212799   0.957   1.231   2.742  1.1260 -0.6036  2.0151
 3200SOL     MW12800   0.969   1.151   2.708 -0.0244 -0.0715  0.1787
 3201SOL     OW12801   0.651   1.900   2.077  0.3855  0.7515 -0.3106
 3201SOL    HW112802   0.646   1.867   2.167 -0.4729 -0.3142 -0.7305
 3201SOL    HW212803   0.744   1.918   2.063  0.5655  0.6434  0.6853
 3201SOL     MW12804   0.662   1.898   2.087  0.2986  0.6012 -0.2369
 3202SOL     OW12805   5.194   0.075   3.198  0.2840  0.6249  0.1602
 3202SOL    HW112806   5.177   0.088   3.291 -1.7509  1.1514 -0.2309
 3202SOL    HW212807   5.141  -0.002   3.175  3.0654 -1.3825 -0.0077
 3202SOL     MW12808   5.185   0.067   3.207  0.3796  0.4353  0.0886
 3203SOL     OW12809   3.503   1.188   2.095 -0.3270  0.0672  0.1124
 3203SOL    HW112810   3.409   1.203   2.105 -0.6489 -1.3798 -0.4495
 3203SOL    HW212811   3.519   1.108   2.145 -0.0819 -1.6691 -2.5707
 3203SOL     MW12812   3.493   1.180   2.103 -0.3369 -0.3403 -0.3030
 3204SOL     OW12813   1.462   0.277   0.808 -0.4368 -0.0454 -0.3383
 3204SOL    HW112814   1.392   0.286   0.744 -0.2645  0.4448 -0.4557
 3204SOL    HW212815   1.416   0.263   0.891 -0.6655 -1.8200 -0.7033
 3204SOL     MW12816   1.447   0.276   0.810 -0.4440 -0.2098 -0.4000
 3205SOL     OW12817   2.203   0.693   0.507  0.1526  0.5976  0.1749
 3205SOL    HW112818   2.261   0.750   0.556 -0.1977 -0.5726  2.0446
 3205SOL    HW212819   2.122   0.692   0.558  0.3783 -2.0815  0.6179
 3205SOL     MW12820   2.200   0.700   0.520  0.1366  0.1049  0.4709
 3206SOL     OW12821   0.891   0.077   2.113 -0.2745 -0.1804 -0.0192
 3206SOL    HW112822   0.927   0.059   2.026 -1.4084  1.3882 -0.8673
 3206SOL    HW212823   0.958   0.047   2.174  1.7223  1.0915 -1.4793
 3206SOL     MW12824   0.904   0.071   2.110 -0.1641  0.1832 -0.3147
 3207SOL     OW12825   5.105   1.696   0.222 -0.1752 -0.1477  0.1113
 3207SOL    HW112826   5.176   1.654   0.271 -0.3997  0.1888  0.7378
 3207SOL    HW212827   5.038   1.629   0.217 -0.0636 -0.2577  0.0734
 3207SOL     MW12828   5.106   1.682   0.228 -0.1896 -0.1187  0.1867
 3208SOL     OW12829   3.761   1.612   0.882 -0.1307  0.1032 -0.2289
 3208SOL    HW112830   3.767   1.680   0.815  0.9936  0.6953  0.4426
 3208SOL    HW212831   3.677   1.629   0.925 -0.4109  0.3104 -0.8371
 3208SOL     MW12832   3.751   1.623   0.879 -0.0226  0.2055 -0.2208
 3209SOL     OW12833   3.683   0.851   1.807 -0.4873 -0.5897 -0.1849
 3209SOL    HW112834   3.756   0.839   1.868 -0.3357  1.3625  0.0836
 3209SOL    HW212835   3.659   0.943   1.816 -0.7089 -0.3062 -2.8019
 3209SOL     MW12836   3.690   0.862   1.816 -0.4963 -0.3035 -0.4855
 3210SOL     OW12837   0.788   4.901   4.722  0.2597  0.8503 -0.1547
 3210SOL    HW112838   0.793   4.863   4.634 -1.0542  0.3967 -0.0516
 3210SOL    HW212839   0.854   4.853   4.772  0.0243  0.1050 -0.5442
 3210SOL     MW12840   0.797   4.890   4.717  0.0614  0.6968 -0.1913
 3211SOL     OW12841   3.650   5.359   2.396 -0.0352  0.1017  0.6293
 3211SOL    HW112842   3.742   5.372   2.416 -0.6542  2.5779  2.2847
 3211SOL    HW212843   3.632   5.420   2.324 -0.0581 -1.7054 -1.0093
 3211SOL     MW12844   3.660   5.368   2.389 -0.1174  0.1874  0.6314
 3212SOL     OW12845   4.288   2.197   4.800 -0.0145  0.4478  0.2448
 3212SOL    HW112846   4.243   2.153   4.872  0.2356  0.7303  0.5736
 3212SOL    HW212847   4.288   2.132   4.729 -0.9350  0.4395  0.2343
 3212SOL     MW12848   4.282   2.183   4.800 -0.1003  0.4829  0.2856
 3213SOL     OW12849   4.829   1.768   3.537  0.0343 -0.6829  0.0339
 3213SOL    HW112850   4.792   1.787   3.623 -2.4418  0.0354 -1.0957
 3213SOL    HW212851   4.894   1.700   3.553 -1.0464 -1.2591  2.3414
 3213SOL     MW12852   4.833   1.762   3.550 -0.4210 -0.6647  0.1847
 3214SOL     OW12853   2.248   0.240   4.842 -0.3732 -0.2371  0.5400
 3214SOL    HW112854   2.252   0.151   4.808 -1.5963 -0.3261  0.5628
 3214SOL    HW212855   2.156   0.251   4.869 -0.4093  1.2332 -0.0774
 3214SOL     MW12856   2.237   0.230   4.841 -0.5344 -0.0603  0.4639
 3215SOL     OW12857   5.147   1.951   0.458 -0.0985  0.3676 -0.2397
 3215SOL    HW112858   5.195   1.909   0.530 -1.3384  0.6546  0.7917
 3215SOL    HW212859   5.214   1.971   0.393  1.2344  0.9287  1.2323
 3215SOL     MW12860   5.162   1.948   0.459 -0.0866  0.4762  0.0808
 3216SOL     OW12861   5.071   0.085   3.441 -0.1969 -0.2066 -0.1784
 3216SOL    HW112862   4.977   0.071   3.436 -0.0965 -1.1402  0.3065
 3216SOL    HW212863   5.103   0.016   3.500  0.7314  0.3567 -0.0006
 3216SOL     MW12864   5.063   0.074   3.448 -0.0652 -0.2540 -0.0936
 3217SOL     OW12865   3.593   4.957   5.002 -0.6161 -0.0339 -0.2465
 3217SOL    HW112866   3.668   4.987   5.053  0.4495  0.8481 -2.2518
 3217SOL    HW212867   3.573   4.870   5.039  1.1665 -0.1504  0.5496
 3217SOL     MW12868   3.600   4.949   5.013 -0.2515  0.0641 -0.4013
 3218SOL     OW12869   5.425   4.146   0.978  0.1417 -0.8317  0.2091
 3218SOL    HW112870   5.382   4.118   1.058  2.1269  0.5585  1.8896
 3218SOL    HW212871   5.487   4.076   0.958 -0.9281 -1.5705 -0.6584
 3218SOL     MW12872   5.428   4.134   0.985  0.2589 -0.7483  0.3132
 3219SOL     OW12873   4.707   2.014   1.782  0.6454 -0.2411 -0.4627
 3219SOL    HW112874   4.785   1.970   1.816 -0.2701 -2.2269 -0.7651
 3219SOL    HW212875   4.634   1.956   1.807 -0.8857  2.0299  0.6604
 3219SOL     MW12876   4.708   2.001   1.789  0.3322 -0.2046 -0.3576
 3220SOL     OW12877   3.404   2.199   0.079  0.0484  0.5791  0.1546
 3220SOL    HW112878   3.394   2.108   0.108  1.2128  0.3539 -0.1027
 3220SOL    HW212879   3.348   2.206   0.002 -1.0485  0.4509  0.9184
 3220SOL     MW12880   3.396   2.188   0.073  0.0570  0.5338  0.2195
 3221SOL     OW12881   4.901   1.929   2.190  0.0477 -0.3093  0.0518
 3221SOL    HW112882   4.926   1.852   2.241 -0.1234 -0.4785 -0.1183
 3221SOL    HW212883   4.900   1.898   2.099  0.1238 -0.0697 -0.0314
 3221SOL     MW12884   4.904   1.915   2.185  0.0356 -0.3003  0.0193
 3222SOL     OW12885   1.546   5.313   0.866 -0.4308 -0.4008  0.4592
 3222SOL    HW112886   1.480   5.378   0.891 -0.1341 -0.2055  0.7444
 3222SOL    HW212887   1.515   5.231   0.905 -0.5328 -0.3212  0.5449
 3222SOL     MW12888   1.534   5.310   0.874 -0.4059 -0.3656  0.5067
 3223SOL     OW12889   0.501   4.119   4.697 -0.0755 -0.0982 -0.1904
 3223SOL    HW112890   0.477   4.199   4.650  1.3999  1.2468  1.2678
 3223SOL    HW212891   0.550   4.068   4.633  1.1772  1.3266 -0.4138
 3223SOL     MW12892   0.504   4.123   4.682  0.2738  0.2564 -0.0323
 3224SOL     OW12893   2.820   0.607   2.908 -0.1423  0.4375 -0.0843
 3224SOL    HW112894   2.778   0.574   2.988  0.2269 -0.7770 -0.3707
 3224SOL    HW212895   2.789   0.548   2.839  0.7615  0.5184 -0.5640
 3224SOL     MW12896   2.810   0.595   2.910  0.0207  0.2924 -0.1824
 3225SOL     OW12897   1.380   3.938   3.511 -0.2932 -0.4199  0.6817
 3225SOL    HW112898   1.285   3.929   3.517 -0.1293 -3.5540  0.5067
 3225SOL    HW212899   1.401   3.907   3.423  0.7811  2.8695 -0.3702
 3225SOL     MW12900   1.371   3.933   3.501 -0.1347 -0.4000  0.5246
 3226SOL     OW12901   1.514   4.379   5.232 -0.0999 -0.1958 -0.5488
 3226SOL    HW112902   1.431   4.405   5.195 -0.3332  2.0655  1.3267
 3226SOL    HW212903   1.559   4.461   5.253  1.1946 -1.2965  1.4273
 3226SOL     MW12904   1.509   4.393   5.230  0.0360 -0.0473 -0.0557
 3227SOL     OW12905   3.729   2.252   2.062 -0.0530  0.0307 -0.7740
 3227SOL    HW112906   3.794   2.283   2.000  0.7049  0.9703  0.4512
 3227SOL    HW212907   3.768   2.267   2.148 -1.4548 -0.3728 -0.0307
 3227SOL     MW12908   3.742   2.258   2.065 -0.1355  0.0993 -0.5220
 3228SOL     OW12909   2.777   5.088   2.002  0.5753 -0.6807 -0.5120
 3228SOL    HW112910   2.685   5.071   1.983  0.3610  0.0841 -0.2196
 3228SOL    HW212911   2.806   5.012   2.052  0.1056 -0.9374 -0.6300
 3228SOL     MW12912   2.769   5.076   2.006  0.4878 -0.6156 -0.4897
 3229SOL     OW12913   1.444   1.065   1.640 -0.1186 -0.0043 -0.0370
 3229SOL    HW112914   1.399   1.150   1.634 -2.8740 -1.3067  0.6458
 3229SOL    HW212915   1.470   1.058   1.732 -3.3266 -1.3683  0.9208
 3229SOL     MW12916   1.441   1.075   1.651 -0.8820 -0.3456  0.1731
 3230SOL     OW12917   2.218   3.587   3.780 -0.1282  0.8503  0.3632
 3230SOL    HW112918   2.276   3.607   3.706  0.1777 -1.5388 -0.1206
 3230SOL    HW212919   2.265   3.521   3.830 -0.6386  1.9376  2.3597
 3230SOL     MW12920   2.231   3.581   3.777 -0.1544  0.6836  0.5569
 3231SOL     OW12921   5.172   3.158   0.430 -0.1159 -0.1946 -0.3016
 3231SOL    HW112922   5.111   3.191   0.495  3.9024  1.1893  3.1954
 3231SOL    HW212923   5.175   3.063   0.445  0.3559  0.0425  1.2124
 3231SOL     MW12924   5.164   3.150   0.440  0.4589  0.0129  0.3398
 3232SOL     OW12925   4.650   0.483   2.998  0.1788  0.0239 -0.2300
 3232SOL    HW112926   4.664   0.437   3.081 -0.7735  1.8451  1.0157
 3232SOL    HW212927   4.578   0.436   2.956 -0.5766  0.1773  0.8621
 3232SOL     MW12928   4.642   0.471   3.003 -0.0398  0.2767  0.0693
 3233SOL     OW12929   4.738   4.836   1.727  0.2281  0.5080  0.0819
 3233SOL    HW112930   4.786   4.828   1.645 -0.8775  0.7330 -0.6057
 3233SOL    HW212931   4.755   4.925   1.757  0.7153  0.3916  0.1641
 3233SOL     MW12932   4.746   4.846   1.721  0.1490  0.5219  0.0044
 3234SOL     OW12933   1.804   1.396   1.518 -0.1412 -0.6928 -0.2352
 3234SOL    HW112934   1.759   1.312   1.524  1.8136 -1.8314 -0.3688
 3234SOL    HW212935   1.734   1.461   1.511 -1.7285 -2.2496  0.3740
 3234SOL     MW12936   1.790   1.394   1.518 -0.0942 -1.0379 -0.1743
 3235SOL     OW12937   4.304   1.653   2.262  0.1370 -0.1649 -0.1823
 3235SOL    HW112938   4.224   1.671   2.212  0.5693 -0.3457 -0.9454
 3235SOL    HW212939   4.368   1.716   2.230  0.2896  0.0238  0.4770
 3235SOL     MW12940   4.302   1.664   2.251  0.2119 -0.1639 -0.1956
 3236SOL     OW12941   0.349   0.287   3.107  0.6572  0.0647  0.2543
 3236SOL    HW112942   0.313   0.371   3.138 -3.0950 -0.9283 -0.8578
 3236SOL    HW212943   0.422   0.269   3.166  1.2724  3.7864  0.8884
 3236SOL     MW12944   0.354   0.296   3.119  0.2556  0.4140  0.1931
 3237SOL     OW12945   2.632   5.400   3.136 -0.0995 -0.4574 -0.2863
 3237SOL    HW112946   2.574   5.363   3.203 -0.6821  0.9571  0.0288
 3237SOL    HW212947   2.708   5.342   3.135 -0.7217 -1.3180  0.5770
 3237SOL     MW12948   2.634   5.388   3.144 -0.2537 -0.3865 -0.1354
 3238SOL     OW12949   0.090   2.675   1.813 -0.0361  0.1812 -0.1741
 3238SOL    HW112950   0.122   2.750   1.763  1.1454 -1.1031 -1.4409
 3238SOL    HW212951   0.163   2.651   1.870 -0.5354  0.2170  0.4829
 3238SOL     MW12952   0.104   2.682   1.814  0.0513  0.0214 -0.2522
 3239SOL     OW12953   1.013   4.743   4.056  0.0645  0.2283 -0.2601
 3239SOL    HW112954   1.079   4.809   4.036 -0.7212  0.7934 -1.1108
 3239SOL    HW212955   1.024   4.726   4.150  2.5898 -1.0529 -0.7116
 3239SOL     MW12956   1.022   4.750   4.066  0.2872  0.1366 -0.4268
 3240SOL     OW12957   4.686   4.746   2.629  0.4728 -0.1722 -0.1553
 3240SOL    HW112958   4.593   4.729   2.616  0.0164  1.4770  0.6476
 3240SOL    HW212959   4.711   4.804   2.557  0.5300  0.4466  0.3468
 3240SOL     MW12960   4.678   4.751   2.618  0.4217  0.1182  0.0117
 3241SOL     OW12961   2.886   3.489   4.656 -0.3749 -0.4057  0.0360
 3241SOL    HW112962   2.877   3.424   4.725 -0.7432 -1.1643 -0.7042
 3241SOL    HW212963   2.978   3.516   4.661 -0.0031 -1.5710 -0.1458
 3241SOL     MW12964   2.897   3.484   4.665 -0.3745 -0.6520 -0.0821
 3242SOL     OW12965   5.345   4.248   2.991 -0.1783 -0.1882 -0.2810
 3242SOL    HW112966   5.317   4.187   2.922 -0.8889 -0.7647  0.4984
 3242SOL    HW212967   5.390   4.193   3.055 -0.5517  0.1425  0.2762
 3242SOL     MW12968   5.347   4.233   2.990 -0.3171 -0.2197 -0.1099
 3243SOL     OW12969   1.956   4.553   4.714  0.0094 -0.2479  0.2783
 3243SOL    HW112970   1.903   4.488   4.668 -2.1294  0.6812  1.3119
 3243SOL    HW212971   2.044   4.515   4.716 -0.1689 -1.1349 -2.9115
 3243SOL     MW12972   1.960   4.540   4.708 -0.2872 -0.2425  0.0023
 3244SOL     OW12973   0.372   4.508   2.388  0.2644 -0.0177 -0.0638
 3244SOL    HW112974   0.329   4.581   2.343  0.8955 -0.3475 -1.2274
 3244SOL    HW212975   0.321   4.497   2.469  0.5865  2.1693  0.4959
 3244SOL     MW12976   0.360   4.516   2.393  0.3864  0.2201 -0.1411
 3245SOL     OW12977   5.127   5.033   2.395 -0.1970  0.6810  0.7679
 3245SOL    HW112978   5.075   5.034   2.475 -0.6889  0.6075  0.4534
 3245SOL    HW212979   5.072   5.075   2.330 -0.5413 -0.8333  0.0284
 3245SOL     MW12980   5.113   5.038   2.397 -0.3040  0.4778  0.6330
 3246SOL     OW12981   3.672   0.365   4.124 -0.1332 -0.0933 -0.1992
 3246SOL    HW112982   3.630   0.335   4.043  1.4785  0.8189 -1.4301
 3246SOL    HW212983   3.747   0.307   4.135  0.5948  0.8304 -0.2681
 3246SOL     MW12984   3.676   0.353   4.115  0.1663  0.1417 -0.3656
 3247SOL     OW12985   2.530   1.396   4.198  0.0052 -0.5719 -0.3259
 3247SOL    HW112986   2.443   1.364   4.172 -1.2899  1.2080  1.4901
 3247SOL    HW212987   2.572   1.321   4.239 -0.8197 -1.3610 -0.8885
 3247SOL     MW12988   2.524   1.382   4.200 -0.2662 -0.4451 -0.1655
 3248SOL     OW12989   3.766   4.198   0.595 -0.4409 -0.1562  0.2820
 3248SOL    HW112990   3.746   4.107   0.574 -0.5808 -0.1903  0.5525
 3248SOL    HW212991   3.861   4.201   0.601 -0.4342 -0.2784  0.2441
 3248SOL     MW12992   3.776   4.187   0.593 -0.4579 -0.1762  0.3118
 3249SOL     OW12993   2.509   5.008   1.859 -0.5610  0.2937  0.2426
 3249SOL    HW112994   2.524   4.925   1.904 -1.1879 -0.1867 -0.4098
 3249SOL    HW212995   2.414   5.013   1.848 -0.4246  0.3195 -1.1326
 3249SOL     MW12996   2.499   4.998   1.864 -0.6238  0.2355 -0.0170
 3250SOL     OW12997   2.182   3.353   0.268  0.3263  0.2129  0.0943
 3250SOL    HW112998   2.088   3.349   0.284  0.4667 -1.2368  0.7770
 3250SOL    HW212999   2.193   3.316   0.180  0.3447 -0.7604  0.4951
 3250SOL     MW13000   2.171   3.347   0.259  0.3466 -0.0972  0.2330
 3251SOL     OW13001   3.976   0.848   2.534 -0.4234 -0.4220  0.3518
 3251SOL    HW113002   4.039   0.783   2.566 -0.0890 -0.0774  0.3883
 3251SOL    HW213003   3.992   0.926   2.587  0.9603  0.5760 -1.4342
 3251SOL     MW13004   3.986   0.849   2.545 -0.2035 -0.2502  0.1279
 3252SOL     OW13005   4.690   3.616   0.613  0.3203 -0.7781  0.3364
 3252SOL    HW113006   4.717   3.673   0.540 -0.7160 -0.6212  0.0621
 3252SOL    HW213007   4.694   3.528   0.577 -3.9883 -0.5500 -1.3198
 3252SOL     MW13008   4.694   3.612   0.599 -0.3639 -0.7288  0.0893
 3253SOL     OW13009   4.295   1.504   2.871  0.6174 -0.4678 -0.3353
 3253SOL    HW113010   4.375   1.498   2.819  0.1924  1.5711 -1.3142
 3253SOL    HW213011   4.326   1.523   2.960  1.2472  0.7094 -0.7830
 3253SOL     MW13012   4.309   1.506   2.876  0.6436 -0.0561 -0.5179
 3254SOL     OW13013   0.507   1.782   4.006 -0.2204  0.6105 -0.2207
 3254SOL    HW113014   0.534   1.823   3.923 -0.2088  0.1818 -0.4308
 3254SOL    HW213015   0.587   1.741   4.039 -0.7675 -1.5276 -1.3418
 3254SOL     MW13016   0.521   1.782   3.999 -0.2890  0.2819 -0.3911
 3255SOL     OW13017   2.922   1.648   1.840 -0.0633  0.0481  0.1592
 3255SOL    HW113018   2.979   1.637   1.764 -0.7734 -0.3447 -0.3338
 3255SOL    HW213019   2.981   1.663   1.913  0.6596 -0.2390 -0.3580
 3255SOL     MW13020   2.937   1.648   1.840 -0.0617 -0.0389  0.0299
 3256SOL     OW13021   0.163   4.922   2.478 -0.5257  0.4129  0.0152
 3256SOL    HW113022   0.241   4.962   2.515  0.5332  0.5144 -2.1780
 3256SOL    HW213023   0.130   4.866   2.548  1.4663  0.4280  1.0462
 3256SOL     MW13024   0.169   4.920   2.492 -0.1352  0.4278 -0.1336
 3257SOL     OW13025   2.956   1.194   0.558 -0.2525 -0.6638  0.1111
 3257SOL    HW113026   2.890   1.257   0.529 -0.3843 -0.5455  0.6593
 3257SOL    HW213027   2.990   1.231   0.640  1.0414 -0.3318 -0.5537
 3257SOL     MW13028   2.952   1.207   0.565 -0.1038 -0.6061  0.0961
 3258SOL     OW13029   0.701   2.975   0.250 -0.4968 -0.0257 -0.4247
 3258SOL    HW113030   0.644   2.901   0.227  0.1532 -0.0343 -2.1927
 3258SOL    HW213031   0.683   3.040   0.183 -0.1763  0.9423  0.4138
 3258SOL     MW13032   0.692   2.974   0.238 -0.3725  0.0971 -0.5437
 3259SOL     OW13033   3.800   0.205   2.533  0.5385 -0.2918  0.4443
 3259SOL    HW113034   3.766   0.274   2.477  1.1104  0.3069  0.8132
 3259SOL    HW213035   3.725   0.178   2.586  0.2919 -0.0065  0.2428
 3259SOL     MW13036   3.786   0.210   2.533  0.5802 -0.1786  0.4657
 3260SOL     OW13037   0.259   5.162   1.844  0.0774 -0.2032  0.4744
 3260SOL    HW113038   0.245   5.167   1.938 -2.0724  0.2264  0.1901
 3260SOL    HW213039   0.227   5.076   1.818 -2.0059  0.6847 -0.1699
 3260SOL     MW13040   0.253   5.152   1.853 -0.4645 -0.0345  0.3555
 3261SOL     OW13041   0.815   0.194   1.759 -0.4299  0.6193 -0.0459
 3261SOL    HW113042   0.773   0.220   1.677 -1.1601  0.0136  0.1236
 3261SOL    HW213043   0.790   0.103   1.771  0.7070  0.3294  0.2200
 3261SOL     MW13044   0.806   0.186   1.750 -0.3779  0.5047  0.0098
 3262SOL     OW13045   4.150   4.909   2.838  0.3250 -0.7925 -0.0389
 3262SOL    HW113046   4.115   4.945   2.919 -0.1202  0.7193 -0.8660
 3262SOL    HW213047   4.225   4.856   2.866  0.6394  0.2989  1.2994
 3262SOL     MW13048   4.155   4.907   2.852  0.3082 -0.4592  0.0265
 3263SOL     OW13049   4.538   1.695   0.387  0.1522 -0.4495  0.1690
 3263SOL    HW113050   4.511   1.666   0.474 -0.6314  0.9118  0.4045
 3263SOL    HW213051   4.520   1.789   0.386  0.9598 -0.2817 -1.1698
 3263SOL     MW13052   4.532   1.703   0.398  0.1552 -0.2538  0.0278
 3264SOL     OW13053   0.797   4.276   1.926 -0.4119  0.3367 -0.2865
 3264SOL    HW113054   0.702   4.272   1.942 -0.1096  0.3139  1.7297
 3264SOL    HW213055   0.832   4.326   1.999  1.0152  1.6241 -1.7598
 3264SOL     MW13056   0.789   4.282   1.937 -0.1905  0.4986 -0.2170
 3265SOL     OW13057   4.525   0.372   0.564 -0.2458 -0.1380  0.3846
 3265SOL    HW113058   4.520   0.329   0.479  0.9008 -0.1441  0.3110
 3265SOL    HW213059   4.613   0.410   0.567 -0.9884  1.6561  0.7141
 3265SOL     MW13060   4.536   0.371   0.554 -0.1941  0.0909  0.4174
 3266SOL     OW13061   2.781   2.823   1.815 -0.1557 -0.0676 -0.5232
 3266SOL    HW113062   2.866   2.834   1.772  0.3557  0.9980  0.6901
 3266SOL    HW213063   2.803   2.798   1.905 -1.1022  0.4500 -0.1313
 3266SOL     MW13064   2.795   2.822   1.821 -0.2114  0.1351 -0.3177
 3267SOL     OW13065   3.028   2.498   3.282 -0.3652  0.1682  0.2751
 3267SOL    HW113066   3.089   2.463   3.217 -1.1759  0.8673 -0.8934
 3267SOL    HW213067   3.083   2.547   3.343  0.4801 -1.0129  0.5030
 3267SOL     MW13068   3.043   2.500   3.282 -0.3608  0.1065  0.1547
 3268SOL     OW13069   2.966   3.285   0.306  0.4823 -0.3943  0.2998
 3268SOL    HW113070   2.895   3.228   0.274  0.9390 -0.0821 -1.3605
 3268SOL    HW213071   3.003   3.237   0.380 -1.6421 -0.4177  1.4472
 3268SOL     MW13072   2.961   3.271   0.311  0.2688 -0.3574  0.2341
 3269SOL     OW13073   0.701   0.865   3.337 -0.3593 -0.0222  0.4688
 3269SOL    HW113074   0.764   0.933   3.312 -2.0982  1.5755  0.2555
 3269SOL    HW213075   0.698   0.869   3.433 -2.5138  2.3019  0.4280
 3269SOL     MW13076   0.709   0.874   3.346 -0.8577  0.4798  0.4363
 3270SOL     OW13077   2.426   3.493   1.541  0.0070  0.0903 -0.3450
 3270SOL    HW113078   2.462   3.489   1.630  0.3045 -2.5750 -0.4841
 3270SOL    HW213079   2.503   3.498   1.484 -0.1556  1.0137 -0.4980
 3270SOL     MW13080   2.441   3.493   1.545  0.0243 -0.1327 -0.3824
 3271SOL     OW13081   4.854   2.452   3.801 -0.3816  0.4976  0.1204
 3271SOL    HW113082   4.816   2.397   3.733  1.6882 -0.5665 -0.2524
 3271SOL    HW213083   4.888   2.528   3.755  0.9473 -0.1849 -0.0899
 3271SOL     MW13084   4.853   2.454   3.787  0.0534  0.2740  0.0457
 3272SOL     OW13085   4.234   4.176   1.655 -0.6325  0.0437 -0.0373
 3272SOL    HW113086   4.307   4.237   1.661 -0.7328  0.4115 -1.9262
 3272SOL    HW213087   4.266   4.105   1.600 -2.0469  0.8452 -2.0108
 3272SOL     MW13088   4.248   4.174   1.649 -0.8264  0.1934 -0.5318
 3273SOL     OW13089   4.546   0.140  -0.006  0.2333 -0.2088  0.8021
 3273SOL    HW113090   4.608   0.135   0.067 -0.3826 -0.1977  1.3401
 3273SOL    HW213091   4.480   0.203   0.023 -2.0526 -2.8734  1.8485
 3273SOL     MW13092   4.546   0.148   0.007 -0.1382 -0.5485  1.0049
 3274SOL     OW13093   3.837   1.723   3.750  0.0725  0.1756  0.3451
 3274SOL    HW113094   3.892   1.686   3.819  2.6328 -0.3912 -1.8465
 3274SOL    HW213095   3.816   1.649   3.693  1.1632  1.1856 -1.4541
 3274SOL     MW13096   3.842   1.709   3.752  0.5399  0.2323 -0.1658
 3275SOL     OW13097   1.138   2.546   2.328 -0.4489 -0.0585  0.2740
 3275SOL    HW113098   1.198   2.474   2.310  0.1785  0.9060 -1.9178
 3275SOL    HW213099   1.069   2.508   2.381 -0.6572 -2.5371 -1.6149
 3275SOL     MW13100   1.137   2.532   2.333 -0.3953 -0.2523 -0.2484
 3276SOL     OW13101   1.139   2.589   2.745 -0.5361  1.0073  0.1206
 3276SOL    HW113102   1.137   2.593   2.841 -0.4816  0.7398  0.1338
 3276SOL    HW213103   1.225   2.553   2.724 -1.6116 -1.7610  0.0918
 3276SOL     MW13104   1.149   2.585   2.754 -0.6668  0.6187  0.1186
 3277SOL     OW13105   3.845   3.936   2.732 -0.2638 -0.2818  0.1272
 3277SOL    HW113106   3.892   3.894   2.660  2.3988 -0.0421  1.5936
 3277SOL    HW213107   3.888   4.021   2.743  0.5819 -0.9815  3.0183
 3277SOL     MW13108   3.856   3.941   2.724  0.1853 -0.3407  0.6850
 3278SOL     OW13109   2.222   0.976   3.865  0.0475  0.1693 -0.4935
 3278SOL    HW113110   2.179   0.929   3.793 -1.2407 -0.6906  0.7923
 3278SOL    HW213111   2.186   0.937   3.944  2.1282  0.4549  0.6532
 3278SOL     MW13112   2.212   0.965   3.866  0.1489  0.0958 -0.1821
 3279SOL     OW13113   0.822   5.114   1.963  0.1444  0.7644 -0.0687
 3279SOL    HW113114   0.853   5.047   1.903 -2.1202  0.0412 -0.5427
 3279SOL    HW213115   0.859   5.089   2.048  2.1784  0.9666 -0.8506
 3279SOL     MW13116   0.831   5.102   1.967  0.1149  0.6977 -0.2295
 3280SOL     OW13117   2.966   4.126   0.342  0.1507 -0.4794  0.0427
 3280SOL    HW113118   2.989   4.204   0.393 -0.1066 -0.2375 -0.2038
 3280SOL    HW213119   3.048   4.078   0.334  0.6409  0.4896 -1.0072
 3280SOL     MW13120   2.980   4.130   0.347  0.1805 -0.3244 -0.1232
 3281SOL     OW13121   5.331   0.881   3.483  0.3805 -0.0487 -0.5067
 3281SOL    HW113122   5.239   0.905   3.471 -0.5134 -2.3903  0.8930
 3281SOL    HW213123   5.346   0.811   3.420  0.4835 -1.2290  0.7836
 3281SOL     MW13124   5.321   0.875   3.474  0.2792 -0.4996 -0.1623
 3282SOL     OW13125   4.218   3.788   1.017  0.2920 -0.0474 -0.0307
 3282SOL    HW113126   4.170   3.835   1.085  0.2390  1.1019 -0.8416
 3282SOL    HW213127   4.193   3.696   1.030  0.2045  0.1570  1.4201
 3282SOL     MW13128   4.209   3.782   1.027  0.2740  0.1259  0.0512
 3283SOL     OW13129   1.342   4.507   0.082  0.0432 -0.5114  0.0485
 3283SOL    HW113130   1.331   4.522   0.176  0.7120  0.6065 -0.0224
 3283SOL    HW213131   1.315   4.417   0.068  0.6038 -0.9191  1.4396
 3283SOL     MW13132   1.337   4.498   0.092  0.2006 -0.4205  0.2175
 3284SOL     OW13133   0.075   1.122   0.024 -0.3964 -0.3554 -0.6853
 3284SOL    HW113134   0.021   1.047   0.049 -0.6069 -0.0750 -0.3040
 3284SOL    HW213135   0.156   1.083  -0.009 -0.3623 -0.7433 -0.1539
 3284SOL     MW13136   0.079   1.107   0.023 -0.4190 -0.3691 -0.5684
 3285SOL     OW13137   2.477   4.298   3.979  0.1387  0.0927  0.4351
 3285SOL    HW113138   2.470   4.265   3.889  1.7496 -0.0948  0.3534
 3285SOL    HW213139   2.461   4.222   4.034  0.2452 -0.0267  0.3013
 3285SOL     MW13140   2.474   4.284   3.974  0.3585  0.0534  0.4075
 3286SOL     OW13141   2.002   1.534   2.706  0.2163  0.5880 -0.1968
 3286SOL    HW113142   1.963   1.466   2.652 -0.0394  1.8527 -1.6734
 3286SOL    HW213143   2.095   1.510   2.712 -0.1624 -0.7096  0.6328
 3286SOL     MW13144   2.009   1.523   2.700  0.1351  0.5837 -0.2796
 3287SOL     OW13145   4.005   0.252   2.064 -0.3130 -0.0839  0.4448
 3287SOL    HW113146   3.950   0.180   2.035 -0.6242  0.7725 -1.2013
 3287SOL    HW213147   4.088   0.241   2.017 -0.0776  0.1818  0.7860
 3287SOL     MW13148   4.008   0.242   2.054 -0.3227  0.0597  0.2778
 3288SOL     OW13149   4.011   5.118   1.205  0.3560 -0.3740 -0.1291
 3288SOL    HW113150   3.965   5.200   1.191  0.7320 -0.1964 -0.3308
 3288SOL    HW213151   3.984   5.090   1.293  2.2037  1.2643  1.0397
 3288SOL     MW13152   4.001   5.125   1.215  0.6407 -0.1415 -0.0053
 3289SOL     OW13153   2.038   1.507   4.814 -0.5831  0.1688  0.2655
 3289SOL    HW113154   1.985   1.563   4.757 -0.7704  0.0248  0.2971
 3289SOL    HW213155   2.041   1.423   4.769 -0.9159 -0.0109  0.5719
 3289SOL     MW13156   2.032   1.504   4.801 -0.6496  0.1273  0.3087
 3290SOL     OW13157   1.927   2.666   5.347  0.4441  0.3008 -0.9376
 3290SOL    HW113158   1.959   2.591   5.296 -1.3266 -1.1297 -0.0850
 3290SOL    HW213159   1.851   2.697   5.298 -0.7824 -0.5741  0.3270
 3290SOL     MW13160   1.921   2.660   5.334  0.0604  0.0057 -0.6666
 3291SOL     OW13161   0.371   1.855   0.110  0.2190  0.5489 -0.1605
 3291SOL    HW113162   0.308   1.823   0.175  0.2969 -1.4859 -1.0163
 3291SOL    HW213163   0.317   1.887   0.038  0.1070 -0.8522 -0.7358
 3291SOL     MW13164   0.356   1.855   0.109  0.2146  0.1090 -0.3437
 3292SOL     OW13165   3.580   0.824   5.404 -0.1000 -0.1513 -0.2208
 3292SOL    HW113166   3.516   0.754   5.412  1.0989 -1.1992  0.5809
 3292SOL    HW213167   3.653   0.796   5.459  0.8127  1.2772 -0.6503
 3292SOL     MW13168   3.581   0.812   5.412  0.1703 -0.1026 -0.1731
 3293SOL     OW13169   0.998   2.589   3.296 -0.0141  0.0338  0.0068
 3293SOL    HW113170   1.051   2.572   3.375 -1.6559 -0.2846  1.0818
 3293SOL    HW213171   0.940   2.660   3.322  0.8679  1.4286 -1.6537
 3293SOL     MW13172   0.998   2.596   3.310 -0.1114  0.1716 -0.0682
 3294SOL     OW13173   4.208   4.577   2.955  0.8784  0.7197 -0.0222
 3294SOL    HW113174   4.227   4.497   2.906 -0.4312  0.1510  0.3687
 3294SOL    HW213175   4.262   4.644   2.913  0.5474  0.0378 -1.5892
 3294SOL     MW13176   4.218   4.575   2.943  0.6684  0.5596 -0.1727
 3295SOL     OW13177   5.026   0.070   5.152 -0.2097 -0.2534  0.9050
 3295SOL    HW113178   4.953   0.010   5.137 -0.3417  0.2618 -0.7746
 3295SOL    HW213179   4.992   0.155   5.127  0.5739  0.2123  1.3998
 3295SOL     MW13180   5.013   0.073   5.147 -0.1263 -0.1278  0.7533
 3296SOL     OW13181   3.367   3.664   1.538 -0.0609  0.0469  0.3321
 3296SOL    HW113182   3.445   3.720   1.535  0.1910 -0.2713  0.7342
 3296SOL    HW213183   3.355   3.645   1.631  1.2344 -2.4189  0.0878
 3296SOL     MW13184   3.376   3.669   1.549  0.1372 -0.3095  0.3523
 3297SOL     OW13185   0.937   4.009   1.568 -0.4467 -0.5669  0.1888
 3297SOL    HW113186   0.989   3.959   1.631 -0.4254  0.5347  1.0749
 3297SOL    HW213187   0.854   4.026   1.612  0.1468  1.5947  0.6375
 3297SOL     MW13188   0.933   4.005   1.581 -0.3680 -0.1491  0.3597
 3298SOL     OW13189   0.624   2.883   3.997 -0.3266  0.2313  0.2622
 3298SOL    HW113190   0.719   2.876   3.988 -0.3707 -0.0947  0.0534
 3298SOL    HW213191   0.609   2.974   4.020 -0.0045  0.4099 -0.2294
 3298SOL     MW13192   0.634   2.894   3.999 -0.2910  0.2124  0.1725
 3299SOL     OW13193  -0.007   2.171   5.022 -0.0093  0.4182  0.1401
 3299SOL    HW113194   0.085   2.188   5.004  0.0970  0.6665  0.8657
 3299SOL    HW213195  -0.006   2.093   5.078 -0.3782 -0.9000 -1.6227
 3299SOL     MW13196   0.005   2.163   5.027 -0.0429  0.2813  0.0073
 3300SOL     OW13197   5.153   2.934   0.026  0.1121 -0.6624 -0.5740
 3300SOL    HW113198   5.099   2.873  -0.023 -1.2356 -0.2511  0.3435
 3300SOL    HW213199   5.242   2.900   0.018 -0.0594 -0.6613 -3.1948
 3300SOL     MW13200   5.158   2.922   0.019 -0.0824 -0.6096 -0.7921
 3301SOL     OW13201   0.646   0.357   1.105  0.1718 -0.9576  0.7557
 3301SOL    HW113202   0.599   0.370   1.187 -2.5287  0.1771 -0.8370
 3301SOL    HW213203   0.647   0.262   1.093 -3.2129 -1.0590  0.2091
 3301SOL     MW13204   0.640   0.346   1.114 -0.6072 -0.8253  0.4818
 3302SOL     OW13205   0.224   4.772   4.480 -0.5475 -0.0006  0.9408
 3302SOL    HW113206   0.268   4.853   4.452  0.0186 -0.2398  1.1149
 3302SOL    HW213207   0.170   4.799   4.554 -1.5289  0.5039  0.0667
 3302SOL     MW13208   0.223   4.786   4.486 -0.6007  0.0334  0.8512
 3303SOL     OW13209   3.216   0.568   3.446 -0.1175 -0.5997  0.4728
 3303SOL    HW113210   3.157   0.581   3.520  1.1223 -0.7540  1.5373
 3303SOL    HW213211   3.159   0.560   3.370 -1.3432  2.6473  0.9157
 3303SOL     MW13212   3.201   0.568   3.446 -0.1157 -0.2038  0.6658
 3304SOL     OW13213   2.211   2.127   4.286  0.1125  0.2289 -0.3998
 3304SOL    HW113214   2.203   2.212   4.242 -0.2760  0.9290  0.9743
 3304SOL    HW213215   2.129   2.082   4.264 -0.2541  0.7300 -0.0980
 3304SOL     MW13216   2.199   2.132   4.277  0.0158  0.3826 -0.1853
 3305SOL     OW13217   1.401   5.292   3.459 -0.6931  0.1327 -0.5210
 3305SOL    HW113218   1.311   5.323   3.451 -1.1866 -1.1996 -0.3494
 3305SOL    HW213219   1.393   5.198   3.477  0.7135  0.1089  0.1551
 3305SOL     MW13220   1.389   5.284   3.460 -0.5762 -0.0409 -0.4125
 3306SOL     OW13221   0.753   3.496   1.220  0.5966  0.0685 -0.3210
 3306SOL    HW113222   0.686   3.427   1.214  0.1591  0.4912 -0.4030
 3306SOL    HW213223   0.743   3.547   1.139  0.2451  0.8172  0.1767
 3306SOL     MW13224   0.743   3.494   1.209  0.4956  0.2185 -0.2678
 3307SOL     OW13225   3.418   0.193   4.621  0.3458  0.2967 -0.7628
 3307SOL    HW113226   3.343   0.223   4.673 -0.1347  0.9782 -1.8202
 3307SOL    HW213227   3.453   0.272   4.580  0.6298 -0.2328 -1.5744
 3307SOL     MW13228   3.413   0.207   4.622  0.3206  0.3161 -1.0021
 3308SOL     OW13229   1.936   3.624   2.377 -0.5590  0.0415  0.0172
 3308SOL    HW113230   1.918   3.530   2.369 -4.5996  0.5599  0.6338
 3308SOL    HW213231   1.959   3.636   2.469  2.6972 -0.5594 -0.6153
 3308SOL     MW13232   1.936   3.613   2.388 -0.6594  0.0309  0.0152
 3309SOL     OW13233   3.042   4.440   0.343 -0.2118 -0.7165  1.0486
 3309SOL    HW113234   2.986   4.477   0.274  0.9301 -0.6326  0.1435
 3309SOL    HW213235   3.068   4.517   0.395 -0.3509 -0.6694  1.0524
 3309SOL     MW13236   3.038   4.455   0.341 -0.0835 -0.6997  0.9332
 3310SOL     OW13237   3.955   2.399   5.351 -0.0295  0.4027  0.0903
 3310SOL    HW113238   4.018   2.428   5.286 -0.8892  1.6324 -0.2253
 3310SOL    HW213239   3.963   2.303   5.352  0.4122  0.4064 -1.3880
 3310SOL     MW13240   3.964   2.390   5.343 -0.0830  0.5606 -0.1393
 3311SOL     OW13241   2.153   2.870   2.242  0.1028  0.1640  0.0646
 3311SOL    HW113242   2.223   2.841   2.301  0.7889  0.2427 -0.7007
 3311SOL    HW213243   2.136   2.795   2.186  1.9037  1.1582 -1.9389
 3311SOL     MW13244   2.160   2.857   2.243  0.4212  0.3014 -0.2899
 3312SOL     OW13245   2.013   3.582   2.947  0.1056  0.1554  0.2265
 3312SOL    HW113246   2.055   3.652   2.998  1.5913 -0.5063 -0.0388
 3312SOL    HW213247   1.919   3.599   2.956  0.4025  1.4854  1.1424
 3312SOL     MW13248   2.007   3.593   2.954  0.3338  0.2410  0.3098
 3313SOL     OW13249   4.279   2.534   1.104  0.7051  0.5415 -0.0755
 3313SOL    HW113250   4.318   2.621   1.099  0.7786  0.5225  0.1576
 3313SOL    HW213251   4.292   2.497   1.017  0.2952  0.9227 -0.3034
 3313SOL     MW13252   4.285   2.540   1.092  0.6621  0.5878 -0.0748
 3314SOL     OW13253   1.072   2.914   5.396 -0.1233 -0.0273  0.2455
 3314SOL    HW113254   1.021   2.925   5.476 -1.1165 -0.8249 -0.2579
 3314SOL    HW213255   1.023   2.962   5.329 -0.3750 -1.0111 -0.2957
 3314SOL     MW13256   1.059   2.921   5.398 -0.2827 -0.2553  0.1118
 3315SOL     OW13257   1.699   2.746   5.117  0.2677 -0.4863  0.4398
 3315SOL    HW113258   1.644   2.759   5.040  1.1558 -1.3880 -0.3833
 3315SOL    HW213259   1.646   2.777   5.191 -1.1606 -0.9314 -0.3715
 3315SOL     MW13260   1.685   2.751   5.117  0.1986 -0.6587  0.2306
 3316SOL     OW13261   3.502   1.177   3.899 -0.4685  0.1357  0.2010
 3316SOL    HW113262   3.455   1.101   3.935 -0.0673 -0.4209 -0.4190
 3316SOL    HW213263   3.515   1.155   3.806 -0.1853  0.8862  0.0561
 3316SOL     MW13264   3.497   1.164   3.891 -0.3809  0.1605  0.1031
 3317SOL     OW13265   0.708   3.741   2.671 -0.5176 -0.1467  0.2622
 3317SOL    HW113266   0.756   3.821   2.689 -0.8508  0.2438 -0.5578
 3317SOL    HW213267   0.618   3.769   2.658 -0.6827 -0.6836  0.2232
 3317SOL     MW13268   0.703   3.755   2.671 -0.5814 -0.1655  0.1522
 3318SOL     OW13269   0.201   0.662   1.980 -0.4988  0.0493 -0.1484
 3318SOL    HW113270   0.172   0.735   1.924 -1.1935  0.4116  0.6587
 3318SOL    HW213271   0.276   0.697   2.028  0.0082 -0.2149 -0.7419
 3318SOL     MW13272   0.207   0.676   1.979 -0.5228  0.0619 -0.1210
 3319SOL     OW13273   0.975   0.779   4.972  1.0005 -0.2347  0.5008
 3319SOL    HW113274   0.905   0.728   5.012  0.8202 -0.5160 -0.1753
 3319SOL    HW213275   0.937   0.816   4.893  1.3131  0.4516  0.6596
 3319SOL     MW13276   0.961   0.777   4.967  1.0174 -0.1828  0.4346
 3320SOL     OW13277   2.922   3.659   0.269 -0.0234  0.0497 -0.4444
 3320SOL    HW113278   2.952   3.606   0.343 -0.0552  0.5864 -0.0392
 3320SOL    HW213279   3.002   3.697   0.232 -0.1472  1.1218  0.3587
 3320SOL     MW13280   2.936   3.657   0.274 -0.0433  0.2556 -0.2897
 3321SOL     OW13281   4.706   4.006   0.461  0.9130  0.4558 -0.1129
 3321SOL    HW113282   4.750   3.936   0.415  3.2391  1.3726  0.5886
 3321SOL    HW213283   4.661   3.962   0.534  0.0371 -0.5737 -1.2306
 3321SOL     MW13284   4.706   3.992   0.465  1.0986  0.4414 -0.1662
 3322SOL     OW13285   1.991   0.227   4.978 -0.3057 -0.0380 -0.2686
 3322SOL    HW113286   1.938   0.304   4.998 -0.8453 -0.0414 -1.5447
 3322SOL    HW213287   1.981   0.170   5.054  0.1699  1.1724  0.7236
 3322SOL     MW13288   1.983   0.229   4.990 -0.3139  0.1165 -0.3049
 3323SOL     OW13289   0.861   5.433   5.116  0.4561 -0.5466 -0.1796
 3323SOL    HW113290   0.865   5.494   5.189  2.6119  1.4338 -1.7913
 3323SOL    HW213291   0.796   5.472   5.056 -1.1552 -2.0516  0.4825
 3323SOL     MW13292   0.853   5.445   5.117  0.5258 -0.4858 -0.3012
 3324SOL     OW13293   1.101   1.583   5.029  0.5807 -0.2385  0.1648
 3324SOL    HW113294   1.165   1.583   5.099  0.1094  1.3796  0.6407
 3324SOL    HW213295   1.047   1.506   5.045  1.0440 -0.3886  1.0388
 3324SOL     MW13296   1.102   1.573   5.040  0.5797 -0.0506  0.3376
 3325SOL     OW13297   2.502   4.841   3.658  0.6291 -0.1689 -0.0059
 3325SOL    HW113298   2.510   4.936   3.668 -0.9114  0.2757 -2.4749
 3325SOL    HW213299   2.593   4.810   3.653  1.1490  1.1132  0.9305
 3325SOL     MW13300   2.515   4.849   3.659  0.4985  0.0522 -0.2021
 3326SOL     OW13301   4.439   5.399   4.210  0.6045 -0.0500  0.2686
 3326SOL    HW113302   4.350   5.434   4.215  0.6359 -0.0018  0.4803
 3326SOL    HW213303   4.457   5.394   4.116  0.2129 -0.4737  0.2095
 3326SOL     MW13304   4.430   5.403   4.198  0.5584 -0.0981  0.2881
 3327SOL     OW13305   3.045   4.699   2.697 -0.6046 -0.4028  0.2579
 3327SOL    HW113306   2.988   4.704   2.620 -1.6639  1.0934  1.0895
 3327SOL    HW213307   2.995   4.648   2.761 -0.5597  0.0317  0.6376
 3327SOL     MW13308   3.031   4.693   2.695 -0.7344 -0.1556  0.4130
 3328SOL     OW13309   4.150   0.375   3.694  0.0442 -0.0840 -0.0469
 3328SOL    HW113310   4.170   0.450   3.750  1.2873 -0.7881  0.4753
 3328SOL    HW213311   4.227   0.319   3.699 -0.0773 -0.5039 -1.9375
 3328SOL     MW13312   4.162   0.377   3.702  0.1878 -0.2279 -0.2220
 3329SOL     OW13313   4.687   5.394   2.388  0.0043 -0.2689  0.1521
 3329SOL    HW113314   4.648   5.479   2.409 -3.0284 -1.5256  0.0810
 3329SOL    HW213315   4.673   5.341   2.467 -0.1021 -1.3098 -0.5418
 3329SOL     MW13316   4.680   5.398   2.401 -0.3975 -0.5630  0.0542
 3330SOL     OW13317   0.674   0.856   0.158 -0.1282  0.1296 -0.5117
 3330SOL    HW113318   0.732   0.861   0.235  1.0874  0.5626 -1.4159
 3330SOL    HW213319   0.658   0.948   0.135  0.6806  0.0301 -1.5838
 3330SOL     MW13320   0.680   0.869   0.165  0.1310  0.1723 -0.7647
 3331SOL     OW13321   1.383   0.637   3.394  0.6937 -0.0336  0.0959
 3331SOL    HW113322   1.408   0.716   3.345  0.3931  0.3562  0.5600
 3331SOL    HW213323   1.463   0.584   3.395  0.3466 -0.6935 -1.9848
 3331SOL     MW13324   1.397   0.640   3.388  0.6108 -0.0681 -0.1110
 3332SOL     OW13325   4.634   5.055   3.298  0.1497  0.1139  0.4851
 3332SOL    HW113326   4.730   5.058   3.293  0.2672 -2.4825 -0.7598
 3332SOL    HW213327   4.610   5.127   3.356  2.8808  0.5901  1.1483
 3332SOL     MW13328   4.643   5.065   3.305  0.5144 -0.1575  0.4106
 3333SOL     OW13329   5.022   4.118   0.881  0.3222 -0.5605  0.5202
 3333SOL    HW113330   5.083   4.045   0.867  1.1278  0.1627  0.1492
 3333SOL    HW213331   5.070   4.195   0.851 -0.2876  0.2120  1.4662
 3333SOL     MW13332   5.036   4.118   0.875  0.3473 -0.3691  0.5938
 3334SOL     OW13333   1.309   2.149   2.268 -0.3917 -0.0456  0.0619
 3334SOL    HW113334   1.217   2.170   2.287 -0.5568 -0.9663  0.3291
 3334SOL    HW213335   1.358   2.224   2.300 -1.1181  0.8833 -0.9288
 3334SOL     MW13336   1.303   2.161   2.275 -0.5058 -0.0446 -0.0307
 3335SOL     OW13337   5.479   0.183   0.951 -0.3338  0.0383 -0.1206
 3335SOL    HW113338   5.479   0.098   0.907 -0.7162 -0.2059  0.3383
 3335SOL    HW213339   5.459   0.163   1.042 -0.9518  0.6699 -0.1067
 3335SOL     MW13340   5.477   0.170   0.957 -0.4618  0.0879 -0.0601
 3336SOL     OW13341   2.239   4.042   3.135 -0.2950 -0.6490 -0.2661
 3336SOL    HW113342   2.185   4.080   3.205  0.5506  1.8941 -0.8781
 3336SOL    HW213343   2.214   4.091   3.056  1.8297 -0.3879 -0.8518
 3336SOL     MW13344   2.229   4.053   3.134  0.0852 -0.2900 -0.4194
 3337SOL     OW13345   4.471   4.622   0.413  0.3184 -0.2237 -0.0791
 3337SOL    HW113346   4.550   4.643   0.363  0.1452  0.8584  0.0985
 3337SOL    HW213347   4.424   4.704   0.420 -0.7047 -0.8079  0.0541
 3337SOL     MW13348   4.475   4.635   0.407  0.1652 -0.1600 -0.0394
 3338SOL     OW13349   2.400   4.140   4.492  0.4385  0.2889  0.1373
 3338SOL    HW113350   2.443   4.055   4.503  1.8382  1.0216  0.5541
 3338SOL    HW213351   2.443   4.179   4.417 -0.8202  0.2919 -0.6094
 3338SOL     MW13352   2.411   4.134   4.484  0.4566  0.3831  0.0951
 3339SOL     OW13353   2.399   4.361   1.336  0.0644  0.5348 -0.0297
 3339SOL    HW113354   2.422   4.282   1.286  0.7396  1.4190 -1.1899
 3339SOL    HW213355   2.435   4.345   1.423  0.3113 -0.3885 -0.2826
 3339SOL     MW13356   2.407   4.349   1.341  0.1825  0.5298 -0.2106
 3340SOL     OW13357   2.002   2.038   1.165  0.1611  0.5154  0.1433
 3340SOL    HW113358   2.083   1.996   1.135  1.2951 -0.0387  3.4632
 3340SOL    HW213359   2.019   2.131   1.156  1.5807  0.4345  1.5286
 3340SOL     MW13360   2.015   2.044   1.160  0.4880  0.4341  0.7456
 3341SOL     OW13361   2.815   5.131   5.044 -0.2437 -0.3810  0.4691
 3341SOL    HW113362   2.798   5.104   4.954  0.1369  1.7680 -0.3236
 3341SOL    HW213363   2.746   5.194   5.064 -0.2394 -0.7185  1.6421
 3341SOL     MW13364   2.804   5.136   5.035 -0.1944 -0.1491  0.5178
 3342SOL     OW13365   4.563   1.612   3.864 -0.5075 -0.3948 -0.2786
 3342SOL    HW113366   4.482   1.656   3.888 -0.6333 -0.6996 -0.1358
 3342SOL    HW213367   4.534   1.532   3.819 -0.2816 -0.0014 -1.1398
 3342SOL     MW13368   4.549   1.607   3.861 -0.4947 -0.3834 -0.3706
 3343SOL     OW13369   1.325   0.490   2.646  0.3316  0.6217  0.3482
 3343SOL    HW113370   1.395   0.458   2.702 -0.6786  0.1043  1.3561
 3343SOL    HW213371   1.297   0.572   2.687 -1.3011 -0.4149  1.4197
 3343SOL     MW13372   1.330   0.497   2.658 -0.0068  0.4227  0.6144
 3344SOL     OW13373   2.308   1.167   2.493 -0.2916  0.4770  0.3504
 3344SOL    HW113374   2.398   1.135   2.497 -0.2295  0.6792  0.6129
 3344SOL    HW213375   2.268   1.118   2.422  0.0710  0.4997  0.1287
 3344SOL     MW13376   2.314   1.157   2.484 -0.2372  0.5058  0.3556
 3345SOL     OW13377   5.046   4.468   4.153  0.5001  0.1837  0.2128
 3345SOL    HW113378   5.124   4.501   4.197  0.5825 -0.2785  0.4115
 3345SOL    HW213379   5.079   4.422   4.076  0.2967  2.2075 -1.1652
 3345SOL     MW13380   5.060   4.466   4.148  0.4846  0.3836  0.0618
 3346SOL     OW13381   4.403   1.274   5.319 -0.4795 -0.2012 -0.6190
 3346SOL    HW113382   4.344   1.273   5.394 -0.0041 -0.0078 -0.2371
 3346SOL    HW213383   4.408   1.366   5.294  0.1714 -0.1237 -0.2345
 3346SOL     MW13384   4.396   1.286   5.325 -0.3353 -0.1665 -0.5209
 3347SOL     OW13385   4.062   2.626   3.860 -0.0837 -0.2651  0.0638
 3347SOL    HW113386   4.043   2.704   3.807  0.4848  0.1562  0.4724
 3347SOL    HW213387   4.006   2.635   3.937 -1.1981 -1.0722 -0.6216
 3347SOL     MW13388   4.052   2.637   3.863 -0.1536 -0.3145  0.0283
 3348SOL     OW13389   2.068   4.757   3.411  0.5608  0.3409 -0.1726
 3348SOL    HW113390   2.091   4.818   3.481  0.0527  0.4569 -0.0965
 3348SOL    HW213391   2.011   4.693   3.454 -0.2628  0.7660 -0.6015
 3348SOL     MW13392   2.063   4.757   3.426  0.3903  0.4102 -0.2178
 3349SOL     OW13393   3.619   0.929   4.119 -0.1250 -0.3422  0.1291
 3349SOL    HW113394   3.663   0.850   4.152 -0.4408 -0.1364  1.0789
 3349SOL    HW213395   3.651   0.999   4.176 -0.3964  0.1003 -0.2569
 3349SOL     MW13396   3.629   0.928   4.131 -0.2001 -0.2592  0.2013
 3350SOL     OW13397   2.104   1.217   3.193 -0.6706 -0.0860 -0.3051
 3350SOL    HW113398   2.196   1.220   3.166 -0.5823 -0.2970 -0.0307
 3350SOL    HW213399   2.071   1.134   3.159 -0.5886 -0.3017  0.1273
 3350SOL     MW13400   2.111   1.207   3.185 -0.6488 -0.1407 -0.2146
 3351SOL     OW13401   4.839   1.800   4.161 -0.3730  0.2361 -0.1444
 3351SOL    HW113402   4.747   1.814   4.181  0.0304  0.9721  1.3486
 3351SOL    HW213403   4.850   1.836   4.073 -1.4257  0.4870 -0.1845
 3351SOL     MW13404   4.829   1.807   4.152 -0.4561  0.3624  0.0416
 3352SOL     OW13405   5.410   5.188   4.134 -0.2438  0.4163  0.2911
 3352SOL    HW113406   5.467   5.169   4.060 -0.3599 -0.7668  0.4833
 3352SOL    HW213407   5.326   5.212   4.094 -0.2481 -0.0192  0.0294
 3352SOL     MW13408   5.406   5.189   4.120 -0.2592  0.2091  0.2822
 3353SOL     OW13409   3.893   0.492   4.865  0.0841 -0.1863 -0.0500
 3353SOL    HW113410   3.889   0.567   4.924 -0.5745 -0.3968  0.1919
 3353SOL    HW213411   3.879   0.416   4.922  0.7270 -0.4923 -0.2913
 3353SOL     MW13412   3.890   0.492   4.880  0.0821 -0.2524 -0.0499
 3354SOL     OW13413   3.143   0.309   2.975 -0.0486 -0.4443 -0.3916
 3354SOL    HW113414   3.069   0.249   2.981  0.2485 -0.6769  2.2548
 3354SOL    HW213415   3.215   0.263   3.018  1.4791  0.0702 -2.2711
 3354SOL     MW13416   3.143   0.296   2.981  0.1850 -0.4082 -0.2935
 3355SOL     OW13417   3.886   0.338   0.097 -0.1814 -0.2272 -0.0747
 3355SOL    HW113418   3.840   0.291   0.166 -1.6833 -0.3626 -1.1312
 3355SOL    HW213419   3.883   0.280   0.021  0.7142  0.2604 -0.5058
 3355SOL     MW13420   3.880   0.325   0.096 -0.2590 -0.1821 -0.2652
 3356SOL     OW13421   4.298   2.811   3.929 -0.5856  0.3692 -0.6202
 3356SOL    HW113422   4.308   2.782   3.839  0.4654  1.5524 -0.9033
 3356SOL    HW213423   4.252   2.738   3.973 -1.4747 -0.0479 -2.1764
 3356SOL     MW13424   4.293   2.798   3.923 -0.5649  0.4673 -0.8557
 3357SOL     OW13425   1.976   2.162   0.113  0.2374 -0.6260 -0.4702
 3357SOL    HW113426   1.935   2.239   0.073 -3.1817 -2.1986 -0.3537
 3357SOL    HW213427   1.972   2.179   0.207 -0.0894 -0.7365 -0.4631
 3357SOL     MW13428   1.970   2.174   0.120 -0.2421 -0.8414 -0.4544
 3358SOL     OW13429   3.187   2.896   3.535 -0.7302  0.6414 -0.4119
 3358SOL    HW113430   3.178   2.802   3.518  1.4672  0.9156 -4.4277
 3358SOL    HW213431   3.102   2.933   3.510 -1.6032 -0.2012  1.1739
 3358SOL     MW13432   3.175   2.889   3.530 -0.5606  0.5686 -0.7229
 3359SOL     OW13433   4.910   0.323   2.407  0.1365  0.2119 -0.2767
 3359SOL    HW113434   4.918   0.308   2.501  1.2046  0.5617 -0.2968
 3359SOL    HW213435   4.836   0.269   2.380 -1.5211  1.6651  1.1068
 3359SOL     MW13436   4.902   0.314   2.416  0.0610  0.4427 -0.1022
 3360SOL     OW13437   1.146   3.326   2.588  0.9310 -0.2356 -0.4532
 3360SOL    HW113438   1.184   3.294   2.506  1.6836  2.9687 -1.5033
 3360SOL    HW213439   1.052   3.332   2.570  1.2001  1.4151 -1.5442
 3360SOL     MW13440   1.139   3.322   2.575  1.0618  0.3859 -0.7273
 3361SOL     OW13441   2.522   0.807   5.356  0.2357 -0.2618  0.1739
 3361SOL    HW113442   2.565   0.854   5.285 -0.8002  1.6194  0.7063
 3361SOL    HW213443   2.589   0.748   5.390  0.9764 -0.6516 -1.8310
 3361SOL     MW13444   2.536   0.806   5.352  0.1979 -0.0709 -0.0146
 3362SOL     OW13445   2.967   5.066   3.697 -0.1114  0.5440 -0.2921
 3362SOL    HW113446   2.926   5.114   3.768 -0.7307 -1.4033  0.7491
 3362SOL    HW213447   2.897   5.051   3.634 -0.5043 -0.8110  0.4187
 3362SOL     MW13448   2.953   5.070   3.698 -0.2410  0.1213 -0.0679
 3363SOL     OW13449   4.269   0.444   2.284 -0.5763 -0.4507 -0.5670
 3363SOL    HW113450   4.270   0.350   2.265  1.4373 -0.3194 -1.3265
 3363SOL    HW213451   4.335   0.482   2.225  1.7595  0.8212  2.5830
 3363SOL     MW13452   4.278   0.437   2.274 -0.0195 -0.2711 -0.2610
 3364SOL     OW13453   0.021   0.162   4.939 -0.5378 -0.4194  0.0559
 3364SOL    HW113454  -0.041   0.221   4.982 -0.9859 -0.3520 -0.6735
 3364SOL    HW213455   0.059   0.213   4.868  0.6189 -0.3529  0.7061
 3364SOL     MW13456   0.018   0.176   4.936 -0.4471 -0.4023  0.0457
 3365SOL     OW13457   2.252   0.281   3.738 -0.2960  0.1634 -0.1797
 3365SOL    HW113458   2.222   0.369   3.761  1.5767  1.2009 -1.3648
 3365SOL    HW213459   2.342   0.278   3.769 -0.9426 -2.1690  1.7115
 3365SOL     MW13460   2.260   0.292   3.745 -0.1390 -0.0024 -0.0893
 3366SOL     OW13461   4.904   3.474   4.719  0.2725  0.0830  0.3117
 3366SOL    HW113462   4.955   3.479   4.638 -0.8120  0.2893 -0.3837
 3366SOL    HW213463   4.969   3.455   4.787  1.0105 -1.7186 -0.8170
 3366SOL     MW13464   4.919   3.472   4.717  0.2281 -0.1212  0.0782
 3367SOL     OW13465   0.694  -0.018   2.341  0.0814  0.3494 -0.1405
 3367SOL    HW113466   0.723   0.021   2.258 -1.0317 -0.6613 -1.0371
 3367SOL    HW213467   0.674   0.057   2.397  0.8638  1.0474 -0.7649
 3367SOL     MW13468   0.695  -0.003   2.337  0.0390  0.3094 -0.3352
 3368SOL     OW13469   5.320   4.082   2.181 -0.3569 -0.2866 -0.0635
 3368SOL    HW113470   5.403   4.125   2.202 -0.8086  0.4482  0.2448
 3368SOL    HW213471   5.253   4.138   2.219 -1.1078  0.0999 -1.8307
 3368SOL     MW13472   5.322   4.094   2.188 -0.5108 -0.1431 -0.2503
 3369SOL     OW13473   5.277   1.699   3.403  0.0321  0.0733 -0.0064
 3369SOL    HW113474   5.312   1.625   3.354  0.8777  0.3303  0.1793
 3369SOL    HW213475   5.199   1.665   3.447 -0.9262 -0.0777 -1.7580
 3369SOL     MW13476   5.272   1.685   3.402  0.0176  0.0868 -0.2068
 3370SOL     OW13477   1.720   2.620   0.148  0.1555  0.2251  0.1922
 3370SOL    HW113478   1.666   2.646   0.074 -0.9076 -2.4824 -0.0904
 3370SOL    HW213479   1.660   2.576   0.208  0.9570  2.4478  2.8277
 3370SOL     MW13480   1.706   2.618   0.146  0.1220  0.1630  0.4934
 3371SOL     OW13481   2.142   1.665   3.615 -0.0157  0.0439  0.4075
 3371SOL    HW113482   2.160   1.756   3.594  0.9916 -0.0940  0.6116
 3371SOL    HW213483   2.186   1.615   3.547  1.5800 -0.3402  1.6742
 3371SOL     MW13484   2.150   1.670   3.604  0.3175 -0.0229  0.5958
 3372SOL     OW13485   4.498   4.495   3.936 -0.1292  0.3555  0.0477
 3372SOL    HW113486   4.512   4.400   3.934 -0.2789  0.3297  0.1967
 3372SOL    HW213487   4.498   4.517   4.029 -1.1587  0.3402  0.0690
 3372SOL     MW13488   4.500   4.486   3.948 -0.2802  0.3502  0.0695
 3373SOL     OW13489   3.901   2.661   4.095  0.0160 -0.1452  0.2053
 3373SOL    HW113490   3.932   2.623   4.177  0.7883 -1.0677 -0.5015
 3373SOL    HW213491   3.883   2.753   4.117 -1.5346 -0.7717  1.8420
 3373SOL     MW13492   3.902   2.668   4.108 -0.0836 -0.3435  0.3243
 3374SOL     OW13493   1.584   3.631   5.439  0.0325 -0.1271  0.1488
 3374SOL    HW113494   1.503   3.590   5.470  0.0848 -0.7015 -0.4519
 3374SOL    HW213495   1.557   3.717   5.407 -0.6475 -0.9801 -1.6659
 3374SOL     MW13496   1.570   3.637   5.439 -0.0479 -0.3098 -0.1604
 3375SOL     OW13497   0.800   1.612   1.046  0.5940 -0.2330  0.1473
 3375SOL    HW113498   0.798   1.601   1.141  0.6986 -2.8593 -0.0826
 3375SOL    HW213499   0.726   1.670   1.027 -1.2924 -2.0173  1.6314
 3375SOL     MW13500   0.790   1.618   1.055  0.3659 -0.7976  0.3079
 3376SOL     OW13501   2.646   3.294   5.306  0.1867  0.2587 -0.5532
 3376SOL    HW113502   2.667   3.309   5.214  0.5668  1.9453 -0.2313
 3376SOL    HW213503   2.697   3.217   5.331 -0.5607 -0.7393 -1.9387
 3376SOL     MW13504   2.655   3.286   5.298  0.1397  0.3468 -0.6893
 3377SOL     OW13505   5.101   4.456   4.946 -0.2270 -0.3903 -0.0524
 3377SOL    HW113506   5.145   4.376   4.918  0.0152 -0.6733  1.0861
 3377SOL    HW213507   5.082   4.503   4.865  0.9989 -0.8796 -0.6441
 3377SOL     MW13508   5.104   4.452   4.932 -0.0391 -0.4892  0.0176
 3378SOL     OW13509   5.407   4.471   2.761  0.3196 -0.9825  0.4797
 3378SOL    HW113510   5.445   4.386   2.787 -1.0430 -1.6401  0.4230
 3378SOL    HW213511   5.341   4.488   2.828 -1.4226 -1.4054 -1.0494
 3378SOL     MW13512   5.404   4.462   2.773 -0.0779 -1.1208  0.2767
 3379SOL     OW13513   5.027   0.592   2.837 -0.1345  0.2661 -0.4039
 3379SOL    HW113514   5.117   0.624   2.842 -0.3957  1.0994 -0.9772
 3379SOL    HW213515   5.011   0.554   2.923  0.7476  0.1501 -0.2785
 3379SOL     MW13516   5.037   0.591   2.849 -0.0550  0.3579 -0.4612
 3380SOL     OW13517   2.409   2.047   2.936 -0.7615  0.1390 -0.0898
 3380SOL    HW113518   2.420   2.080   2.846  0.9773 -0.1951 -0.0393
 3380SOL    HW213519   2.334   1.988   2.931 -1.9012  1.5793 -0.8844
 3380SOL     MW13520   2.401   2.044   2.924 -0.6848  0.2806 -0.1851
 3381SOL     OW13521   2.055   1.006   2.007  0.0597  0.8931  0.2150
 3381SOL    HW113522   2.064   0.912   2.022 -0.0690  0.9600  0.7459
 3381SOL    HW213523   2.144   1.040   2.014  0.3566  0.6036 -1.6057
 3381SOL     MW13524   2.067   0.998   2.010  0.0812  0.8646  0.0499
 3382SOL     OW13525   2.859   3.332   4.425 -0.1436 -0.0903 -0.5498
 3382SOL    HW113526   2.884   3.367   4.510  0.5423 -3.7307  0.9428
 3382SOL    HW213527   2.781   3.280   4.443  0.4575 -1.5548 -1.9558
 3382SOL     MW13528   2.852   3.330   4.438  0.0212 -0.7437 -0.5387
 3383SOL     OW13529   0.250   3.595   3.844  0.2204  0.3402 -0.0368
 3383SOL    HW113530   0.288   3.589   3.757 -0.3678  0.1171 -0.2798
 3383SOL    HW213531   0.164   3.553   3.836  0.0242  0.6176  0.5659
 3383SOL     MW13532   0.244   3.589   3.832  0.1200  0.3471  0.0092
 3384SOL     OW13533   1.925   3.351   3.463 -0.2941  0.3639 -0.0003
 3384SOL    HW113534   1.836   3.317   3.453  0.0619 -0.3956 -0.7501
 3384SOL    HW213535   1.945   3.338   3.555 -0.9847  0.6186  0.1964
 3384SOL     MW13536   1.916   3.345   3.473 -0.3369  0.2993 -0.0711
 3385SOL     OW13537   0.248   1.277   1.328  0.0107  0.3104  0.0418
 3385SOL    HW113538   0.290   1.362   1.346  0.2214 -0.1064  1.6423
 3385SOL    HW213539   0.283   1.252   1.242 -0.1187  1.8689 -0.5102
 3385SOL     MW13540   0.258   1.285   1.319  0.0211  0.4565  0.1760
 3386SOL     OW13541   3.803   1.950   2.455  0.6296  0.0025  0.5169
 3386SOL    HW113542   3.895   1.972   2.472  0.7942 -0.2106 -0.0700
 3386SOL    HW213543   3.766   2.031   2.418  0.6153  0.0427  0.6178
 3386SOL     MW13544   3.810   1.963   2.452  0.6488 -0.0197  0.4547
 3387SOL     OW13545   4.602   0.676   0.924  0.6657  0.1918 -0.0419
 3387SOL    HW113546   4.523   0.647   0.879  1.0347  2.0844 -2.0668
 3387SOL    HW213547   4.618   0.608   0.990 -1.6416 -1.1257 -0.7271
 3387SOL     MW13548   4.594   0.663   0.927  0.4175  0.2654 -0.3888
 3388SOL     OW13549   0.324   1.580   0.741 -0.2753 -0.5303 -0.2232
 3388SOL    HW113550   0.376   1.600   0.819 -0.8957 -0.3512  0.1500
 3388SOL    HW213551   0.373   1.512   0.696 -0.5759 -1.6013  1.0097
 3388SOL     MW13552   0.337   1.574   0.745 -0.3932 -0.6445 -0.0176
 3389SOL     OW13553   0.016   3.530   0.086  0.1566 -0.4305 -0.0538
 3389SOL    HW113554   0.042   3.616   0.119  3.1136 -1.0995 -0.4265
 3389SOL    HW213555  -0.044   3.550   0.013  0.2002  1.2660  0.3284
 3389SOL     MW13556   0.011   3.544   0.081  0.5407 -0.2990 -0.0525
 3390SOL     OW13557   4.775   4.470   5.260  0.4754 -0.0418  0.5164
 3390SOL    HW113558   4.787   4.418   5.180 -0.6580 -1.1719  1.0521
 3390SOL    HW213559   4.710   4.422   5.311 -0.2493  1.6464  1.2718
 3390SOL     MW13560   4.768   4.457   5.256  0.2375  0.0297  0.6817
 3391SOL     OW13561   4.935   4.317   4.778  0.5559 -0.3262 -0.0152
 3391SOL    HW113562   4.941   4.385   4.710  2.0005  0.3969  0.7694
 3391SOL    HW213563   4.942   4.366   4.861  1.1012 -1.3844  0.5854
 3391SOL     MW13564   4.937   4.332   4.780  0.8106 -0.3691  0.1621
 3392SOL     OW13565   5.275   2.436   3.390  0.4016 -0.0723  0.2502
 3392SOL    HW113566   5.186   2.471   3.395 -0.5004 -1.5560 -2.6905
 3392SOL    HW213567   5.268   2.348   3.426 -0.1063 -1.2403 -2.4544
 3392SOL     MW13568   5.263   2.429   3.395  0.2211 -0.4117 -0.4725
 3393SOL     OW13569   1.996   0.203   0.749 -0.6144 -0.1003  0.3629
 3393SOL    HW113570   1.990   0.155   0.832  1.7188 -0.5182  0.3540
 3393SOL    HW213571   2.009   0.294   0.775  4.5898 -0.6967  0.7593
 3393SOL     MW13572   1.997   0.208   0.763  0.3505 -0.2302  0.4125
 3394SOL     OW13573   0.503   4.897   4.743  0.3062 -0.2416  0.1073
 3394SOL    HW113574   0.585   4.931   4.779 -0.1060  2.2003 -1.1185
 3394SOL    HW213575   0.522   4.879   4.651  0.0077 -1.6965  0.3089
 3394SOL     MW13576   0.516   4.899   4.736  0.2152 -0.1153 -0.0238
 3395SOL     OW13577   1.366   3.024   2.840  0.5768  0.0489 -0.9613
 3395SOL    HW113578   1.447   2.996   2.883  0.0104  0.2310  0.2713
 3395SOL    HW213579   1.330   3.092   2.898 -0.7309 -0.4146 -1.1976
 3395SOL     MW13580   1.372   3.029   2.853  0.3369  0.0129 -0.8338
 3396SOL     OW13581   5.296   0.643   2.743  0.4774 -0.2254  0.3167
 3396SOL    HW113582   5.352   0.663   2.818  2.2267 -1.4627 -0.5623
 3396SOL    HW213583   5.298   0.722   2.689 -1.1235  0.8209  1.7023
 3396SOL     MW13584   5.303   0.656   2.746  0.4964 -0.2498  0.3815
 3397SOL     OW13585   2.905   4.502   5.409 -0.3376 -0.5977  0.2688
 3397SOL    HW113586   2.876   4.415   5.380 -0.4954 -0.4494 -0.0209
 3397SOL    HW213587   2.872   4.562   5.342 -0.3645 -0.2933  0.5534
 3397SOL     MW13588   2.897   4.498   5.397 -0.3612 -0.5397  0.2682
 3398SOL     OW13589   2.112   4.348   1.279  0.6084  0.3445  0.0710
 3398SOL    HW113590   2.071   4.291   1.344  0.1898 -0.0794 -0.5502
 3398SOL    HW213591   2.195   4.374   1.319  1.0189 -1.0737  0.1948
 3398SOL     MW13592   2.117   4.344   1.293  0.6074  0.1087  0.0073
 3399SOL     OW13593   4.365   1.351   4.206  0.0959 -0.2846  0.2698
 3399SOL    HW113594   4.347   1.299   4.128  1.1537 -1.1923  0.6136
 3399SOL    HW213595   4.430   1.416   4.178 -3.4662  3.1368 -1.0280
 3399SOL     MW13596   4.371   1.353   4.193 -0.2247  0.0372  0.1477
 3400SOL     OW13597   3.848   1.105   5.037 -0.0992  0.1443  0.3112
 3400SOL    HW113598   3.921   1.114   5.098  0.2961  0.5209 -0.2007
 3400SOL    HW213599   3.838   1.010   5.025 -0.8355  0.0245  1.7093
 3400SOL     MW13600   3.856   1.094   5.043 -0.1429  0.1772  0.4247
 3401SOL     OW13601   2.039   2.242   0.387  0.5681 -0.3797 -0.0117
 3401SOL    HW113602   1.987   2.315   0.419 -0.0484 -0.1870 -1.3558
 3401SOL    HW213603   2.127   2.278   0.373  0.7279 -0.3641  1.0055
 3401SOL     MW13604   2.044   2.256   0.389  0.5096 -0.3530 -0.0536
 3402SOL     OW13605   1.396   2.336   4.491  0.2185  0.3166  0.1247
 3402SOL    HW113606   1.449   2.329   4.412  0.0770 -0.4638  0.0942
 3402SOL    HW213607   1.344   2.256   4.493 -1.1074  1.1484  0.0511
 3402SOL     MW13608   1.396   2.325   4.481  0.0306  0.3232  0.1114
 3403SOL     OW13609   1.281   4.946   0.239 -0.0886 -0.0616  0.0572
 3403SOL    HW113610   1.339   5.022   0.246  0.1048  0.0059 -1.7770
 3403SOL    HW213611   1.247   4.934   0.327  1.4723  0.8869  0.8389
 3403SOL     MW13612   1.284   4.954   0.251  0.1359  0.0685 -0.0775
 3404SOL     OW13613   3.074   5.428   2.326 -0.0650 -0.0895 -0.4973
 3404SOL    HW113614   3.125   5.477   2.391  0.2618 -0.6858 -0.2934
 3404SOL    HW213615   3.038   5.495   2.268 -2.4233  0.7361  1.7128
 3404SOL     MW13616   3.076   5.443   2.327 -0.3251 -0.0601 -0.1883
 3405SOL     OW13617   3.634   4.609   4.485 -0.1643  0.2823  0.1394
 3405SOL    HW113618   3.644   4.522   4.446  0.6734 -0.1077  1.1698
 3405SOL    HW213619   3.544   4.635   4.464 -0.3783 -0.7662 -0.3059
 3405SOL     MW13620   3.624   4.602   4.478 -0.0845  0.0982  0.2143
 3406SOL     OW13621   3.441   5.061   2.869 -0.4277  0.2198  0.1074
 3406SOL    HW113622   3.463   5.143   2.913 -0.2699  0.2018  0.0613
 3406SOL    HW213623   3.489   5.064   2.787  1.5180 -0.9852  1.1216
 3406SOL     MW13624   3.450   5.072   2.864 -0.1584  0.0632  0.2313
 3407SOL     OW13625   2.857   0.784   4.939  0.1634  0.1407 -0.3244
 3407SOL    HW113626   2.785   0.847   4.938 -0.1220 -0.1637  0.4349
 3407SOL    HW213627   2.910   0.811   5.015 -0.9558 -1.6233  1.1511
 3407SOL     MW13628   2.855   0.796   4.949 -0.0164 -0.1241 -0.0383
 3408SOL     OW13629   0.413   4.903   0.736 -0.5077 -0.0666  0.7697
 3408SOL    HW113630   0.356   4.966   0.692  0.1990  1.2958  1.7233
 3408SOL    HW213631   0.501   4.939   0.727  0.0312 -1.3489  0.6501
 3408SOL     MW13632   0.417   4.915   0.729 -0.3482 -0.0563  0.8764
 3409SOL     OW13633   5.204   1.267   4.369  0.5833  0.3402 -0.2426
 3409SOL    HW113634   5.196   1.188   4.316  1.4337 -0.1444  0.3329
 3409SOL    HW213635   5.119   1.310   4.360 -0.1288 -0.9582 -0.0611
 3409SOL     MW13636   5.192   1.262   4.361  0.6010  0.1119 -0.1457
 3410SOL     OW13637   1.277   4.019   3.837 -0.1738  0.5803  0.1540
 3410SOL    HW113638   1.306   4.038   3.927  0.4413  0.9226 -0.1085
 3410SOL    HW213639   1.182   4.016   3.843 -0.1770  1.3144  0.6907
 3410SOL     MW13640   1.269   4.021   3.849 -0.0955  0.7181  0.1891
 3411SOL     OW13641   3.612   1.378   0.349 -0.4797  0.2401 -0.1648
 3411SOL    HW113642   3.693   1.398   0.397 -1.4694 -0.7636  2.0513
 3411SOL    HW213643   3.584   1.462   0.314  0.2370  1.0473  1.1312
 3411SOL     MW13644   3.619   1.391   0.350 -0.5146  0.2150  0.2848
 3412SOL     OW13645   2.036   2.581   1.173 -0.0036 -0.3912  0.5858
 3412SOL    HW113646   1.946   2.550   1.161  0.9783 -3.5329  0.4333
 3412SOL    HW213647   2.057   2.561   1.264  1.0411 -1.3368  0.1707
 3412SOL     MW13648   2.027   2.574   1.183  0.2559 -0.9144  0.5132
 3413SOL     OW13649   5.190   1.876   2.536  0.4362  0.1687  0.0667
 3413SOL    HW113650   5.208   1.944   2.472  1.0053 -1.2433 -1.3536
 3413SOL    HW213651   5.263   1.815   2.527 -1.2390 -1.9033 -0.5366
 3413SOL     MW13652   5.202   1.877   2.526  0.2946 -0.2773 -0.1923
 3414SOL     OW13653   4.217   1.379   0.092  0.0335 -0.0574  0.5017
 3414SOL    HW113654   4.233   1.427   0.173 -0.6600  0.0154  0.6040
 3414SOL    HW213655   4.139   1.328   0.110 -0.5667  0.5266 -0.3580
 3414SOL     MW13656   4.209   1.379   0.105 -0.1321  0.0267  0.4048
 3415SOL     OW13657   3.818   1.226   1.248 -0.0100  0.1115 -0.3429
 3415SOL    HW113658   3.822   1.201   1.156  2.5217 -0.4575 -0.1415
 3415SOL    HW213659   3.869   1.160   1.294 -1.3124  0.3207  1.5184
 3415SOL     MW13660   3.825   1.215   1.242  0.1473  0.0654 -0.0789
 3416SOL     OW13661   1.580   1.974   2.746 -0.1255  0.4193 -0.4532
 3416SOL    HW113662   1.518   1.909   2.713  0.3343 -0.2626 -0.0019
 3416SOL    HW213663   1.647   1.922   2.792  0.9010  1.1188 -1.1243
 3416SOL     MW13664   1.581   1.959   2.748  0.0647  0.4216 -0.4813
 3417SOL     OW13665   0.579   0.409   0.596  0.3584  0.0709  0.0203
 3417SOL    HW113666   0.661   0.411   0.647  0.9046  2.1591 -0.8259
 3417SOL    HW213667   0.601   0.360   0.517  1.5926  2.5952 -1.3192
 3417SOL     MW13668   0.592   0.403   0.593  0.5863  0.6614 -0.2595
 3418SOL     OW13669   0.024   2.853   0.358  0.3390  0.0767 -0.2033
 3418SOL    HW113670   0.003   2.940   0.324 -1.3937  0.5108  1.6904
 3418SOL    HW213671   0.105   2.865   0.407  0.1259  0.6655  0.0203
 3418SOL     MW13672   0.031   2.866   0.360  0.0899  0.2076  0.0678
 3419SOL     OW13673   0.642   1.103   5.469 -0.7309  0.7662 -0.8799
 3419SOL    HW113674   0.690   1.186   5.475  1.6563 -0.5543 -0.4661
 3419SOL    HW213675   0.684   1.057   5.397 -0.3277 -1.0856  0.4754
 3419SOL     MW13676   0.654   1.108   5.460 -0.3737  0.3601 -0.6535
 3420SOL     OW13677   2.292   2.510   5.395  0.2121  0.0621 -0.1421
 3420SOL    HW113678   2.384   2.523   5.417  0.1879  0.4109 -0.2449
 3420SOL    HW213679   2.283   2.546   5.306 -0.7677  3.1974  1.1108
 3420SOL     MW13680   2.302   2.516   5.386  0.0836  0.5081  0.0051
 3421SOL     OW13681   4.876   0.608   3.878  0.3979 -0.4047 -0.7892
 3421SOL    HW113682   4.913   0.533   3.923  0.4425 -0.3462 -0.7282
 3421SOL    HW213683   4.911   0.604   3.789 -0.1352 -0.8413 -0.9849
 3421SOL     MW13684   4.885   0.598   3.873  0.3354 -0.4531 -0.8064
 3422SOL     OW13685   4.773   0.378   3.632  0.2361  0.3146  0.2963
 3422SOL    HW113686   4.743   0.468   3.642  0.7450  0.5373 -0.0943
 3422SOL    HW213687   4.869   0.384   3.636  0.2539 -0.2894  0.8865
 3422SOL     MW13688   4.781   0.390   3.634  0.3036  0.2658  0.3218
 3423SOL     OW13689   4.763   0.777   0.595 -0.3335 -0.2443  0.1028
 3423SOL    HW113690   4.816   0.777   0.515  0.3283 -0.3309  0.5289
 3423SOL    HW213691   4.747   0.685   0.613  0.9318 -0.3291  0.9613
 3423SOL     MW13692   4.768   0.766   0.587 -0.0868 -0.2663  0.2672
 3424SOL     OW13693   2.267   4.477   1.565  0.3870  0.5010 -0.2552
 3424SOL    HW113694   2.342   4.426   1.534  0.0203 -0.0536 -0.2426
 3424SOL    HW213695   2.303   4.563   1.585  1.2740 -0.1290  0.9924
 3424SOL     MW13696   2.281   4.481   1.563  0.4536  0.3493 -0.0939
 3425SOL     OW13697   1.366   5.197   5.354 -0.2928 -0.3287  0.0968
 3425SOL    HW113698   1.435   5.240   5.303 -0.8718  0.7837  0.2249
 3425SOL    HW213699   1.392   5.209   5.445 -0.9721  0.6809  0.1728
 3425SOL     MW13700   1.378   5.204   5.359 -0.4539 -0.0571  0.1229
 3426SOL     OW13701   4.462   5.498   2.962  0.1636 -0.5426 -0.0329
 3426SOL    HW113702   4.489   5.440   2.891 -0.4647 -1.2008  0.2519
 3426SOL    HW213703   4.428   5.439   3.030 -1.7397  0.2094 -0.2667
 3426SOL     MW13704   4.461   5.483   2.962 -0.1605 -0.5306 -0.0264
 3427SOL     OW13705   4.047   4.372   3.144 -0.2806  0.2584 -0.0879
 3427SOL    HW113706   4.118   4.311   3.123  0.0997  0.0533  1.5814
 3427SOL    HW213707   4.046   4.375   3.240 -2.5342  0.2621 -0.0499
 3427SOL     MW13708   4.056   4.364   3.154 -0.5204  0.2326  0.1307
 3428SOL     OW13709   0.162   4.009   5.417  0.1243 -0.6752  0.3872
 3428SOL    HW113710   0.158   4.007   5.321  0.9818 -1.2221  0.3569
 3428SOL    HW213711   0.255   4.017   5.438 -0.0682 -0.3449  1.1811
 3428SOL     MW13712   0.173   4.010   5.407  0.2094 -0.7029  0.4850
 3429SOL     OW13713   0.642   1.596   1.685 -0.4534 -0.1546 -0.8639
 3429SOL    HW113714   0.737   1.606   1.677 -0.5662  0.7407 -1.3037
 3429SOL    HW213715   0.613   1.680   1.721 -0.8657 -1.1928  1.3443
 3429SOL     MW13716   0.650   1.608   1.688 -0.5206 -0.1729 -0.6375
 3430SOL     OW13717   4.190   1.615   5.429 -0.3908 -0.1414 -0.0006
 3430SOL    HW113718   4.175   1.532   5.474 -1.2633 -0.6452 -1.1894
 3430SOL    HW213719   4.246   1.593   5.354  0.5465  0.5914  0.4570
 3430SOL     MW13720   4.195   1.602   5.425 -0.3825 -0.1121 -0.0942
 3431SOL     OW13721   4.857   0.445   0.878 -0.2670  0.2375 -0.4577
 3431SOL    HW113722   4.806   0.484   0.949  1.3443 -0.6748  1.2818
 3431SOL    HW213723   4.879   0.357   0.909  0.8784 -0.0204 -1.8831
 3431SOL     MW13724   4.853   0.439   0.891  0.0859  0.0877 -0.4175
 3432SOL     OW13725   1.732   4.334   0.248  0.6217  0.3956 -0.0766
 3432SOL    HW113726   1.729   4.320   0.342 -2.0899  0.0478 -0.1330
 3432SOL    HW213727   1.820   4.369   0.231  1.5825 -0.6028  2.3823
 3432SOL     MW13728   1.743   4.337   0.258  0.3976  0.2233  0.2310
 3433SOL     OW13729   3.279   4.866   2.222 -0.2457  0.5414 -0.4593
 3433SOL    HW113730   3.276   4.901   2.133 -2.0663  0.8825 -0.3076
 3433SOL    HW213731   3.199   4.814   2.230  0.3516 -0.2387  0.6809
 3433SOL     MW13732   3.268   4.864   2.212 -0.4023  0.4852 -0.2939
 3434SOL     OW13733   3.933   4.475   5.315 -0.1992 -0.2333  0.1974
 3434SOL    HW113734   3.838   4.471   5.315 -0.3866  2.4478  0.2643
 3434SOL    HW213735   3.957   4.497   5.225  0.1123  1.5827  0.6668
 3434SOL     MW13736   3.924   4.478   5.303 -0.1833  0.3424  0.2661
 3435SOL     OW13737   3.324   4.492   0.933  0.1969 -0.3342 -0.1539
 3435SOL    HW113738   3.232   4.487   0.905  0.0480  2.0222 -0.2762
 3435SOL    HW213739   3.350   4.582   0.915  1.9611 -0.3886  1.7008
 3435SOL     MW13740   3.315   4.503   0.927  0.4036 -0.0396  0.0678
 3436SOL     OW13741   4.459   4.914   5.369  0.2089 -0.6308  0.2127
 3436SOL    HW113742   4.365   4.895   5.368  0.7121 -3.6502 -0.1858
 3436SOL    HW213743   4.487   4.889   5.457  0.3718  2.4460  1.1535
 3436SOL     MW13744   4.450   4.908   5.380  0.2942 -0.6234  0.2821
 3437SOL     OW13745   0.550   2.727   3.593  0.8445 -0.4300  0.3775
 3437SOL    HW113746   0.492   2.726   3.517  1.6318 -0.2792 -0.2375
 3437SOL    HW213747   0.579   2.636   3.602 -1.2227 -0.9910  2.0726
 3437SOL     MW13748   0.546   2.715   3.584  0.6806 -0.4825  0.5158
 3438SOL     OW13749   3.434   0.593   5.422  0.6707  0.2209 -0.1353
 3438SOL    HW113750   3.372   0.599   5.349  0.1056  0.1981  0.3361
 3438SOL    HW213751   3.402   0.520   5.475  0.4489  0.9358  0.7197
 3438SOL     MW13752   3.422   0.584   5.419  0.5700  0.3095  0.0345
 3439SOL     OW13753   1.676   4.123   3.582 -0.4168 -1.0234  0.8084
 3439SOL    HW113754   1.684   4.038   3.626  0.6892 -1.1420  0.3997
 3439SOL    HW213755   1.582   4.132   3.565 -0.8771 -1.0452  3.0194
 3439SOL     MW13756   1.665   4.113   3.586 -0.3341 -1.0414  1.0391
 3440SOL     OW13757   0.808   1.142   4.893 -0.3422  0.1600 -0.0979
 3440SOL    HW113758   0.768   1.186   4.818  1.9782  0.4820 -1.2498
 3440SOL    HW213759   0.812   1.050   4.866 -0.4560  0.1025  0.0830
 3440SOL     MW13760   0.803   1.136   4.880 -0.0598  0.1938 -0.2222
 3441SOL     OW13761   3.346   0.295   3.678 -0.0020 -0.2178 -0.5102
 3441SOL    HW113762   3.263   0.342   3.690  0.6073  0.9616 -0.8074
 3441SOL    HW213763   3.363   0.300   3.584  0.4159 -0.4518 -0.4480
 3441SOL     MW13764   3.337   0.302   3.667  0.1295 -0.0967 -0.5403
 3442SOL     OW13765   0.347   3.572   2.065 -0.0572  0.0724  0.7333
 3442SOL    HW113766   0.410   3.526   2.009 -1.4122 -0.3910 -0.4828
 3442SOL    HW213767   0.295   3.624   2.004 -1.8313 -0.7293  1.4989
 3442SOL     MW13768   0.348   3.573   2.050 -0.4577 -0.0895  0.6756
 3443SOL     OW13769   0.598   3.983   1.001 -0.1755 -0.2974 -0.3867
 3443SOL    HW113770   0.544   4.052   0.962 -0.9349 -0.8436 -0.3213
 3443SOL    HW213771   0.560   3.968   1.087 -1.0430 -1.9018 -1.0047
 3443SOL     MW13772   0.586   3.990   1.007 -0.3838 -0.5727 -0.4575
 3444SOL     OW13773   2.860   3.528   1.956  0.0581 -0.0777  0.6057
 3444SOL    HW113774   2.883   3.508   2.046  1.9242  1.8462  0.6507
 3444SOL    HW213775   2.935   3.496   1.905 -0.5191 -0.2629 -0.1439
 3444SOL     MW13776   2.873   3.522   1.961  0.2231  0.1448  0.5155
 3445SOL     OW13777   2.025   4.487   5.170 -0.2830 -0.3403 -0.3583
 3445SOL    HW113778   1.985   4.463   5.254 -2.1636 -0.2514 -1.1731
 3445SOL    HW213779   2.088   4.417   5.152  2.0093  0.8522  2.2250
 3445SOL     MW13780   2.028   4.475   5.178 -0.2303 -0.1762 -0.1319
 3446SOL     OW13781   4.276   1.824   4.403  0.0378 -0.4476  0.1080
 3446SOL    HW113782   4.250   1.828   4.311  0.5015  0.7187  0.0060
 3446SOL    HW213783   4.369   1.801   4.401 -0.1534 -1.2774  0.3332
 3446SOL     MW13784   4.285   1.822   4.391  0.0727 -0.4045  0.1238
 3447SOL     OW13785   4.032   1.613   3.956  0.4229 -0.4829  0.2671
 3447SOL    HW113786   4.048   1.599   4.049  1.6310 -0.5709  0.0621
 3447SOL    HW213787   4.054   1.530   3.915  3.4764  0.5894 -0.4844
 3447SOL     MW13788   4.037   1.601   3.962  0.9685 -0.3569  0.1447
 3448SOL     OW13789   1.757   5.483   0.899 -0.3399 -0.2881 -0.0012
 3448SOL    HW113790   1.832   5.425   0.913  0.0188  0.5841  1.9101
 3448SOL    HW213791   1.684   5.423   0.883  0.3631 -1.2098  0.1245
 3448SOL     MW13792   1.757   5.468   0.899 -0.2040 -0.2945  0.2596
 3449SOL     OW13793   1.406   1.313   3.992  0.3447 -0.4622  0.6081
 3449SOL    HW113794   1.441   1.343   4.076  1.4748 -1.0228  0.3620
 3449SOL    HW213795   1.370   1.226   4.011 -2.3763  0.7047  1.1904
 3449SOL     MW13796   1.406   1.306   4.005  0.1410 -0.3846  0.6511
 3450SOL     OW13797   1.182   2.509   4.565  1.2320  0.0701 -0.1452
 3450SOL    HW113798   1.184   2.491   4.659  0.1349 -0.0909 -0.1418
 3450SOL    HW213799   1.247   2.448   4.529  1.7636  0.2301  0.5165
 3450SOL     MW13800   1.191   2.499   4.573  1.1596  0.0699 -0.0601
 3451SOL     OW13801   0.764   4.475   2.180 -0.7878 -0.0788 -0.4337
 3451SOL    HW113802   0.773   4.527   2.260 -1.0247  2.2826 -1.8411
 3451SOL    HW213803   0.681   4.504   2.141  0.0341 -0.0248 -2.2737
 3451SOL     MW13804   0.755   4.485   2.185 -0.7129  0.2304 -0.8494
 3452SOL     OW13805   4.993   4.518   1.473  0.3594 -0.6733 -0.1796
 3452SOL    HW113806   4.898   4.517   1.463  0.3727 -0.1295 -0.3854
 3452SOL    HW213807   5.015   4.428   1.497 -0.6146 -0.0567  3.7510
 3452SOL     MW13808   4.984   4.507   1.475  0.2364 -0.5247  0.2972
 3453SOL     OW13809   0.708   2.151   0.800 -0.0565 -0.4286  0.5167
 3453SOL    HW113810   0.780   2.104   0.757 -0.1353  0.3548 -0.5164
 3453SOL    HW213811   0.673   2.209   0.732 -1.0419 -0.0916  1.2812
 3453SOL     MW13812   0.713   2.152   0.786 -0.1928 -0.2852  0.4823
 3454SOL     OW13813   0.600   5.211   0.500  0.0852  0.6442 -0.1030
 3454SOL    HW113814   0.687   5.236   0.468 -0.5473 -0.0627 -2.6391
 3454SOL    HW213815   0.610   5.119   0.527 -0.0032  0.3554 -1.0261
 3454SOL     MW13816   0.613   5.202   0.499 -0.0071  0.5168 -0.5458
 3455SOL     OW13817   5.443   5.332   1.851  0.0913  0.7804 -1.1178
 3455SOL    HW113818   5.352   5.319   1.823  0.7013 -1.5567 -2.2665
 3455SOL    HW213819   5.495   5.308   1.774  1.7406 -0.9443  0.4300
 3455SOL     MW13820   5.438   5.328   1.837  0.3805  0.2604 -1.0667
 3456SOL     OW13821   1.549   4.390   4.677  0.0295 -0.3028 -0.2868
 3456SOL    HW113822   1.505   4.461   4.630 -0.1230 -0.3790 -0.2598
 3456SOL    HW213823   1.579   4.430   4.758  0.1631 -0.2078 -0.3810
 3456SOL     MW13824   1.547   4.405   4.681  0.0271 -0.3004 -0.2954
 3457SOL     OW13825   1.061   3.353   3.123  0.4612  0.0315 -0.5561
 3457SOL    HW113826   1.018   3.296   3.187  1.1681 -1.6679 -1.5317
 3457SOL    HW213827   0.993   3.374   3.059  0.4989 -0.8335 -0.8987
 3457SOL     MW13828   1.047   3.348   3.123  0.5565 -0.2968 -0.7248
 3458SOL     OW13829   4.337   3.298   1.352  0.0770  0.5118 -0.1075
 3458SOL    HW113830   4.385   3.375   1.383  0.7713  0.9019 -2.0131
 3458SOL    HW213831   4.393   3.260   1.284  0.1013 -2.1560  1.2559
 3458SOL     MW13832   4.350   3.303   1.347  0.1690  0.2202 -0.1769
 3459SOL     OW13833   1.547   3.990   4.284  0.1747  0.7636 -0.0569
 3459SOL    HW113834   1.586   3.953   4.204 -0.6381  0.7397 -0.4605
 3459SOL    HW213835   1.465   3.941   4.295  1.0594 -0.4257  1.7624
 3459SOL     MW13836   1.541   3.979   4.275  0.1839  0.6083  0.1243
 3460SOL     OW13837   4.264   2.024   3.019 -0.2452  0.1146  0.0892
 3460SOL    HW113838   4.231   2.114   3.020 -0.8597 -0.0597 -1.2343
 3460SOL    HW213839   4.358   2.032   3.034  0.0544  1.1919 -1.9963
 3460SOL     MW13840   4.271   2.037   3.021 -0.2855  0.2302 -0.3472
 3461SOL     OW13841   4.483   0.025   1.287 -0.0211  0.0063  0.1804
 3461SOL    HW113842   4.434   0.088   1.339 -0.3370 -1.7661  2.1292
 3461SOL    HW213843   4.575   0.045   1.306 -0.0187  1.2394 -0.9496
 3461SOL     MW13844   4.489   0.036   1.296 -0.0613 -0.0627  0.2853
 3462SOL     OW13845   0.042   0.422   2.797  0.0066  0.2109 -0.0625
 3462SOL    HW113846   0.008   0.408   2.885 -0.9892  1.2579 -0.2563
 3462SOL    HW213847  -0.015   0.489   2.760  0.9453  0.4083 -1.2012
 3462SOL     MW13848   0.031   0.429   2.804 -0.0007  0.3702 -0.2331
 3463SOL     OW13849   3.026   2.431   4.838 -0.2587  0.1782 -0.2092
 3463SOL    HW113850   3.109   2.472   4.814 -0.0096 -0.5476 -0.6304
 3463SOL    HW213851   2.966   2.455   4.768 -0.2066  0.1103 -0.2772
 3463SOL     MW13852   3.029   2.439   4.826 -0.2202  0.0766 -0.2719
 3464SOL     OW13853   3.403   1.519   5.016 -0.1736  0.7118  0.4141
 3464SOL    HW113854   3.379   1.453   5.081  0.2486  0.7258  0.5878
 3464SOL    HW213855   3.444   1.589   5.067  0.9647  0.3329  0.0427
 3464SOL     MW13856   3.405   1.520   5.031  0.0262  0.6651  0.3888
 3465SOL     OW13857   3.456   0.245   1.887 -0.0693  0.3444 -0.1478
 3465SOL    HW113858   3.528   0.184   1.870  1.4082  2.3109 -1.2726
 3465SOL    HW213859   3.381   0.206   1.842  0.7785 -0.7337 -0.6744
 3465SOL     MW13860   3.455   0.232   1.879  0.2283  0.4581 -0.3592
 3466SOL     OW13861   2.994   1.851   4.553  0.2598 -0.4505  0.4299
 3466SOL    HW113862   3.024   1.932   4.511  0.8834 -1.1089 -0.4346
 3466SOL    HW213863   2.989   1.873   4.646  1.7635  0.1909  0.3888
 3466SOL     MW13864   2.997   1.864   4.559  0.5321 -0.4527  0.3140
 3467SOL     OW13865   2.169   0.442   0.549 -0.0156 -0.1415 -0.0498
 3467SOL    HW113866   2.091   0.435   0.494 -0.3790  0.0397  0.4291
 3467SOL    HW213867   2.198   0.533   0.538  0.3277 -0.2990 -0.4840
 3467SOL     MW13868   2.163   0.453   0.541 -0.0182 -0.1385 -0.0440
 3468SOL     OW13869   2.220   4.270   0.210  0.2971 -0.1203  0.7045
 3468SOL    HW113870   2.263   4.354   0.226 -0.2725  0.2332  0.4380
 3468SOL    HW213871   2.265   4.208   0.267  0.6033  0.4059  1.0421
 3468SOL     MW13872   2.231   4.273   0.219  0.2634 -0.0077  0.7136
 3469SOL     OW13873   1.450   2.833   3.407 -0.0394 -0.5203 -0.4374
 3469SOL    HW113874   1.409   2.791   3.483 -0.0405  1.4456  0.7445
 3469SOL    HW213875   1.524   2.882   3.445  0.8701 -0.6941 -1.9364
 3469SOL     MW13876   1.454   2.834   3.422  0.0769 -0.2909 -0.4780
 3470SOL     OW13877   1.712   3.199   3.350 -0.4819 -0.9062  0.6671
 3470SOL    HW113878   1.759   3.126   3.312 -3.0807 -2.2927 -0.0940
 3470SOL    HW213879   1.653   3.230   3.281  0.5820  2.0393  0.9120
 3470SOL     MW13880   1.710   3.194   3.336 -0.6784 -0.7066  0.6010
 3471SOL     OW13881   0.619   1.634   5.227 -0.1056 -0.2488  0.5782
 3471SOL    HW113882   0.562   1.676   5.163 -0.0035 -0.4332  0.3644
 3471SOL    HW213883   0.575   1.553   5.249 -0.1537 -0.1716  0.7608
 3471SOL     MW13884   0.606   1.629   5.221 -0.0987 -0.2625  0.5742
 3472SOL     OW13885   0.202   3.987   3.599 -0.2981  0.5272 -0.5959
 3472SOL    HW113886   0.146   4.065   3.595  0.5936  1.1779 -0.9757
 3472SOL    HW213887   0.290   4.023   3.611  0.0351 -0.4696  0.0082
 3472SOL     MW13888   0.206   4.002   3.600 -0.1413  0.4829 -0.5672
 3473SOL     OW13889   3.425   4.743   5.071  0.6159 -0.4056  0.5839
 3473SOL    HW113890   3.397   4.757   5.162  0.1533  1.5652  0.1717
 3473SOL    HW213891   3.363   4.679   5.037 -1.1175  1.0663  0.8239
 3473SOL     MW13892   3.413   4.736   5.078  0.3348  0.0351  0.5618
 3474SOL     OW13893   4.134   2.162   0.560  0.3928 -0.2029 -0.1748
 3474SOL    HW113894   4.196   2.205   0.500 -1.2460  2.7805  0.0948
 3474SOL    HW213895   4.173   2.175   0.647  0.6149 -0.6083 -0.2111
 3474SOL     MW13896   4.147   2.169   0.563  0.2114  0.1272 -0.1449
 3475SOL     OW13897   5.162   3.353   0.851  0.7224  0.1292 -0.7302
 3475SOL    HW113898   5.181   3.260   0.863  0.4754  0.0868 -0.6623
 3475SOL    HW213899   5.209   3.377   0.770 -0.0389 -0.2991 -1.3124
 3475SOL     MW13900   5.171   3.345   0.842  0.5933  0.0690 -0.7960
 3476SOL     OW13901   4.108   4.785   1.980  0.2560 -0.2401  0.5405
 3476SOL    HW113902   4.164   4.804   2.056  0.7812 -0.4748  0.2137
 3476SOL    HW213903   4.104   4.689   1.977 -0.7429 -0.2286  0.9786
 3476SOL     MW13904   4.115   4.775   1.990  0.1954 -0.2687  0.5548
 3477SOL     OW13905   2.930   4.346   4.870  0.2279  0.3957 -0.0148
 3477SOL    HW113906   2.857   4.370   4.926  1.4900  1.3757  1.2908
 3477SOL    HW213907   2.924   4.407   4.796 -0.7899 -0.1488 -0.3949
 3477SOL     MW13908   2.920   4.357   4.868  0.2591  0.4514  0.1037
 3478SOL     OW13909   3.043   3.526   0.491 -0.2823  0.7056  1.0166
 3478SOL    HW113910   3.108   3.596   0.493  0.7073 -0.1517  0.4390
 3478SOL    HW213911   3.095   3.446   0.484 -1.4140  0.0334 -0.2101
 3478SOL     MW13912   3.058   3.524   0.490 -0.3005  0.5098  0.7856
 3479SOL     OW13913   2.340   3.925   0.733  0.0066  0.6960  0.3418
 3479SOL    HW113914   2.335   3.970   0.818  1.8307  0.6661  0.4909
 3479SOL    HW213915   2.430   3.937   0.705 -0.4163  0.1781 -1.3292
 3479SOL     MW13916   2.351   3.933   0.740  0.1860  0.6259  0.1470
 3480SOL     OW13917   0.458   3.585   1.072  0.3294 -0.3286  0.1776
 3480SOL    HW113918   0.427   3.514   1.016 -0.4369  1.5513 -1.9366
 3480SOL    HW213919   0.549   3.597   1.048  0.0572  0.3399 -0.5683
 3480SOL     MW13920   0.465   3.577   1.061  0.1964 -0.0024 -0.1885
 3481SOL     OW13921   4.020   4.752   4.110  0.2185  0.0458  0.3131
 3481SOL    HW113922   4.039   4.697   4.186  0.4400 -0.6675 -0.2454
 3481SOL    HW213923   4.094   4.737   4.051  0.2701  0.9334  0.1414
 3481SOL     MW13924   4.032   4.743   4.112  0.2535  0.0681  0.2197
 3482SOL     OW13925   0.151   0.860   0.229  0.4012 -0.4009 -0.0618
 3482SOL    HW113926   0.235   0.906   0.233  0.1941  0.0025 -0.2918
 3482SOL    HW213927   0.172   0.769   0.252  0.7218 -0.0781  0.9762
 3482SOL     MW13928   0.165   0.854   0.232  0.4157 -0.3079  0.0417
 3483SOL     OW13929   5.277   1.239   1.408  0.2320 -0.2259  0.0518
 3483SOL    HW113930   5.277   1.161   1.463  1.7485  0.8047  1.6156
 3483SOL    HW213931   5.194   1.282   1.428  0.0434 -0.6954  0.2873
 3483SOL     MW13932   5.266   1.235   1.417  0.4020 -0.1541  0.2821
 3484SOL     OW13933   4.094   1.083   5.235 -0.2869  0.2794  0.6904
 3484SOL    HW113934   4.046   1.009   5.270 -0.6046 -0.7793 -1.7440
 3484SOL    HW213935   4.178   1.082   5.282 -0.1678 -1.8318  0.5451
 3484SOL     MW13936   4.099   1.073   5.245 -0.3123 -0.1264  0.3602
 3485SOL     OW13937   4.733   2.819   4.626  0.5806 -0.1770  0.5480
 3485SOL    HW113938   4.754   2.785   4.713 -1.5804 -2.0529  0.4197
 3485SOL    HW213939   4.642   2.848   4.633  1.5274  3.4599 -0.0684
 3485SOL     MW13940   4.724   2.819   4.638  0.4252  0.0484  0.4527
 3486SOL     OW13941   1.416   1.834   3.661  0.4883 -0.0763 -0.4441
 3486SOL    HW113942   1.509   1.851   3.647  0.0971  0.1638 -3.3605
 3486SOL    HW213943   1.379   1.920   3.678  0.4944  0.2084 -1.7295
 3486SOL     MW13944   1.423   1.847   3.661  0.4390 -0.0091 -0.9820
 3487SOL     OW13945   3.780   1.468   0.582 -0.7329  0.0116 -0.0229
 3487SOL    HW113946   3.763   1.560   0.604 -0.5490 -0.0286  0.2867
 3487SOL    HW213947   3.783   1.423   0.666  0.1528 -0.1096 -0.1111
 3487SOL     MW13948   3.778   1.474   0.595 -0.5959 -0.0091  0.0054
 3488SOL     OW13949   5.223   5.250   2.523 -0.1905  0.0772 -0.0177
 3488SOL    HW113950   5.147   5.284   2.569 -0.4606  1.5947 -1.4692
 3488SOL    HW213951   5.190   5.176   2.473 -0.3232 -0.3228  0.6506
 3488SOL     MW13952   5.209   5.245   2.522 -0.2421  0.2203 -0.1179
 3489SOL     OW13953   2.691   2.780   0.911 -0.4210 -0.3765 -0.5545
 3489SOL    HW113954   2.618   2.787   0.849  0.8437  0.0788 -2.0541
 3489SOL    HW213955   2.758   2.839   0.875  0.2299  0.1834  1.4623
 3489SOL     MW13956   2.690   2.789   0.898 -0.1758 -0.2465 -0.4883
 3490SOL     OW13957   4.364   4.424   3.209  0.0452 -0.0660 -0.4584
 3490SOL    HW113958   4.297   4.462   3.153 -0.9405 -1.9831 -0.6577
 3490SOL    HW213959   4.331   4.438   3.298  1.0944  2.0216 -0.3345
 3490SOL     MW13960   4.351   4.431   3.213  0.0533 -0.0442 -0.4680
 3491SOL     OW13961   3.797   4.628   2.877 -0.5330  0.8623  0.6672
 3491SOL    HW113962   3.853   4.637   2.954  2.0293 -0.4195 -0.9253
 3491SOL    HW213963   3.854   4.648   2.803 -2.5831  0.8234 -1.0207
 3491SOL     MW13964   3.811   4.632   2.877 -0.4674  0.6933  0.2473
 3492SOL     OW13965   4.344   0.215   1.424  0.5006 -0.1173  0.4558
 3492SOL    HW113966   4.260   0.177   1.398  0.3886 -0.0218  0.6802
 3492SOL    HW213967   4.350   0.200   1.518  0.7089 -0.0693  0.4514
 3492SOL     MW13968   4.334   0.208   1.432  0.5129 -0.0989  0.4840
 3493SOL     OW13969   4.358   0.115   2.622 -0.3798  0.1298  0.1673
 3493SOL    HW113970   4.313   0.199   2.611  0.1045  0.2753 -0.7770
 3493SOL    HW213971   4.291   0.049   2.602 -1.1234  0.2070  2.1074
 3493SOL     MW13972   4.344   0.117   2.618 -0.4130  0.1583  0.2947
 3494SOL     OW13973   3.620   2.713   3.689  0.0562 -0.4649  0.5590
 3494SOL    HW113974   3.680   2.664   3.633  1.8764 -1.0034  2.8169
 3494SOL    HW213975   3.574   2.772   3.629  1.5237 -1.3294 -1.5412
 3494SOL     MW13976   3.622   2.715   3.674  0.4771 -0.6445  0.5792
 3495SOL     OW13977   5.327   0.296   5.071  0.1679 -0.2164 -0.6043
 3495SOL    HW113978   5.307   0.209   5.107  1.7598 -0.6159 -0.5820
 3495SOL    HW213979   5.256   0.352   5.102 -0.3290 -1.2852  0.2708
 3495SOL     MW13980   5.315   0.292   5.080  0.3081 -0.4043 -0.4894
 3496SOL     OW13981   5.479   4.839   5.215  0.0343 -0.3306 -0.3246
 3496SOL    HW113982   5.456   4.906   5.150  3.9572  0.5995 -1.0230
 3496SOL    HW213983   5.504   4.763   5.162 -0.3194 -0.8955  0.3036
 3496SOL     MW13984   5.479   4.838   5.200  0.4912 -0.2839 -0.3336
 3497SOL     OW13985   1.982   5.052   1.681  0.5530  0.5309  0.1205
 3497SOL    HW113986   1.930   5.071   1.759  0.6001  0.2863  0.2138
 3497SOL    HW213987   1.954   5.116   1.617  1.2064  1.3583  0.6457
 3497SOL     MW13988   1.972   5.062   1.683  0.6427  0.6055  0.1997
 3498SOL     OW13989   2.169   0.313   1.213  0.0752 -0.2022 -0.2796
 3498SOL    HW113990   2.136   0.402   1.200  0.9117  0.4109  1.5025
 3498SOL    HW213991   2.238   0.304   1.148  1.1161  1.0966  0.5850
 3498SOL     MW13992   2.174   0.324   1.203  0.3155  0.0425  0.0592
 3499SOL     OW13993   2.847   0.825   0.160  0.1559 -0.1820 -1.0270
 3499SOL    HW113994   2.773   0.836   0.100  0.0989 -0.1098 -0.9435
 3499SOL    HW213995   2.812   0.850   0.246  0.6571  1.2423 -1.2026
 3499SOL     MW13996   2.833   0.830   0.163  0.2128  0.0095 -1.0388
 3500SOL     OW13997   2.426   1.291   5.311  0.3884 -0.3439  0.2725
 3500SOL    HW113998   2.394   1.337   5.389 -1.2775 -0.4632 -0.2855
 3500SOL    HW213999   2.346   1.269   5.263  1.2229 -2.5050 -0.2341
 3500SOL     MW14000   2.411   1.294   5.315  0.2820 -0.6358  0.1362
 3501SOL     OW14001   1.689   0.300   3.535 -0.5243  0.5174  0.4603
 3501SOL    HW114002   1.653   0.228   3.586 -0.6740  0.6701  0.5727
 3501SOL    HW214003   1.758   0.338   3.590 -0.5447  0.5521  0.4621
 3501SOL     MW14004   1.693   0.296   3.549 -0.5461  0.5414  0.4749
 3502SOL     OW14005   3.377   3.476   4.775 -0.3336  0.0525  0.1403
 3502SOL    HW114006   3.415   3.461   4.689 -0.8254 -2.3065  0.2622
 3502SOL    HW214007   3.284   3.495   4.759 -1.3188 -3.9404  0.1637
 3502SOL     MW14008   3.370   3.477   4.762 -0.5227 -0.7606  0.1589
 3503SOL     OW14009   3.032   3.340   3.698 -0.6804  0.0982  0.0998
 3503SOL    HW114010   3.085   3.343   3.618  0.0429  1.3070  0.6030
 3503SOL    HW214011   2.983   3.258   3.691  2.6848 -2.1327  0.5177
 3503SOL     MW14012   3.032   3.330   3.687 -0.1570 -0.0326  0.2177
 3504SOL     OW14013   0.122   3.050   4.697  0.5568  0.2216 -0.1566
 3504SOL    HW114014   0.115   3.048   4.601  0.6206  1.3939 -0.1901
 3504SOL    HW214015   0.145   3.140   4.718 -4.4956  1.5249  1.2509
 3504SOL     MW14016   0.124   3.061   4.687 -0.0818  0.5385  0.0193
 3505SOL     OW14017   2.216   4.111   4.121 -0.4532 -0.3469  0.0423
 3505SOL    HW114018   2.180   4.186   4.168 -0.3238 -1.1303  1.4383
 3505SOL    HW214019   2.225   4.142   4.031  0.0585  1.4693  0.6696
 3505SOL     MW14020   2.212   4.125   4.115 -0.3712 -0.2147  0.3013
 3506SOL     OW14021   3.911   0.933   3.637  0.2321  0.0626  0.1879
 3506SOL    HW114022   3.843   0.951   3.572 -0.7101  1.2627  1.4294
 3506SOL    HW214023   3.882   0.981   3.715  0.7669 -2.1688  1.8391
 3506SOL     MW14024   3.898   0.942   3.638  0.1800 -0.0694  0.5582
 3507SOL     OW14025   2.388   1.827   0.269  0.0704  0.4194 -0.3932
 3507SOL    HW114026   2.414   1.740   0.238  0.8346  0.6631 -0.4703
 3507SOL    HW214027   2.306   1.813   0.316  0.9306 -0.6060  0.8887
 3507SOL     MW14028   2.381   1.814   0.271  0.2784  0.3193 -0.2389
 3508SOL     OW14029   2.027   4.310   1.537 -0.0211  0.0280 -0.2704
 3508SOL    HW114030   2.105   4.365   1.543  0.1376 -0.2450  0.2275
 3508SOL    HW214031   2.049   4.231   1.587 -0.7685  0.1325  0.2396
 3508SOL     MW14032   2.040   4.307   1.544 -0.0965  0.0064 -0.1414
 3509SOL     OW14033   3.249   0.726   4.295  0.0090  0.1840 -0.5870
 3509SOL    HW114034   3.155   0.728   4.281  0.0400  0.5659 -0.7736
 3509SOL    HW214035   3.284   0.788   4.231  0.2316  1.4459  0.7046
 3509SOL     MW14036   3.242   0.734   4.285  0.0415  0.3944 -0.4456
 3510SOL     OW14037   3.629   2.030   1.728  0.6113 -0.0097  0.1343
 3510SOL    HW114038   3.542   2.063   1.703  0.0624  0.3578  2.3019
 3510SOL    HW214039   3.686   2.106   1.720  0.6326 -0.1151 -0.7851
 3510SOL     MW14040   3.625   2.044   1.724  0.5437  0.0238  0.2941
 3511SOL     OW14041   5.401   0.617   5.126  0.0762 -0.2861 -0.2548
 3511SOL    HW114042   5.398   0.591   5.034  3.2755  0.4404 -0.6922
 3511SOL    HW214043   5.408   0.713   5.124  0.0185 -0.2445  0.7480
 3511SOL     MW14044   5.402   0.626   5.114  0.4784 -0.1877 -0.1824
 3512SOL     OW14045   0.268   4.490   4.824  0.5533  0.7099  0.6510
 3512SOL    HW114046   0.206   4.554   4.789 -0.4386 -0.3058  0.4787
 3512SOL    HW214047   0.350   4.538   4.831  0.0152  1.8066 -0.1325
 3512SOL     MW14048   0.270   4.504   4.820  0.3574  0.7203  0.5287
 3513SOL     OW14049   0.320   2.570   1.922  0.9578 -0.0654  0.1400
 3513SOL    HW114050   0.405   2.614   1.912  0.5542  1.3826  2.3848
 3513SOL    HW214051   0.333   2.510   1.996 -0.0428  0.3887  0.6976
 3513SOL     MW14052   0.333   2.568   1.931  0.7780  0.1781  0.4988
 3514SOL     OW14053   2.840   0.580   1.421 -0.0870 -0.7020  0.0586
 3514SOL    HW114054   2.933   0.576   1.399 -0.0865  0.6819 -0.3167
 3514SOL    HW214055   2.836   0.636   1.499 -0.5742 -1.0823  0.3112
 3514SOL     MW14056   2.851   0.587   1.428 -0.1493 -0.5736  0.0429
 3515SOL     OW14057   0.500   3.925   5.189  0.4771  0.5040 -0.1875
 3515SOL    HW114058   0.561   3.967   5.129  1.0226 -0.1263 -0.0899
 3515SOL    HW214059   0.415   3.961   5.166  0.5336 -0.3764 -1.9577
 3515SOL     MW14060   0.497   3.935   5.178  0.5542  0.3106 -0.4016
 3516SOL     OW14061   2.884   2.388   4.411  0.0551  0.1397  0.1349
 3516SOL    HW114062   2.885   2.328   4.337 -1.6077 -1.0379  0.9992
 3516SOL    HW214063   2.976   2.407   4.428  0.5151 -0.4770 -1.4801
 3516SOL     MW14064   2.896   2.383   4.404 -0.0988 -0.0900  0.0388
 3517SOL     OW14065   0.747   0.610   1.299  0.3071  0.1423  0.9939
 3517SOL    HW114066   0.773   0.520   1.278 -0.7821 -0.5338  2.3378
 3517SOL    HW214067   0.662   0.601   1.342 -2.2479  2.2300 -3.0591
 3517SOL     MW14068   0.740   0.597   1.302 -0.1594  0.3230  0.6471
 3518SOL     OW14069   0.814   2.974   2.145 -0.0123 -0.4052  0.0434
 3518SOL    HW114070   0.859   3.042   2.195  1.5641 -0.7208 -0.8869
 3518SOL    HW214071   0.874   2.900   2.146 -1.1716 -1.3762  0.0015
 3518SOL     MW14072   0.827   2.973   2.152  0.0411 -0.5699 -0.0811
 3519SOL     OW14073   3.785   0.186   0.295 -0.0319 -0.1116  0.9298
 3519SOL    HW114074   3.870   0.173   0.339 -0.5077 -1.0249  1.6171
 3519SOL    HW214075   3.725   0.207   0.366 -0.8545 -1.7869  0.7730
 3519SOL     MW14076   3.788   0.187   0.310 -0.1981 -0.4430  0.9977
 3520SOL     OW14077   4.237   0.693   4.373  1.1222 -0.1894  0.4105
 3520SOL    HW114078   4.197   0.738   4.447  1.4768 -1.1341  1.1884
 3520SOL    HW214079   4.166   0.687   4.308  0.9337  1.0225  0.4787
 3520SOL     MW14080   4.223   0.698   4.374  1.1435 -0.1552  0.5188
 3521SOL     OW14081   3.056   1.345   0.776  0.0771 -0.3735 -0.0654
 3521SOL    HW114082   3.145   1.330   0.808  0.5359  0.8474 -0.7007
 3521SOL    HW214083   3.004   1.362   0.854  0.4442 -0.8747  0.2915
 3521SOL     MW14084   3.061   1.345   0.790  0.1828 -0.2814 -0.1010
 3522SOL     OW14085   4.015   2.385   4.573 -0.1833  0.1852  0.2748
 3522SOL    HW114086   3.939   2.381   4.630 -0.6023 -0.5383 -0.3303
 3522SOL    HW214087   4.089   2.399   4.633 -0.6680 -0.1028  0.9454
 3522SOL     MW14088   4.015   2.386   4.588 -0.2990  0.0557  0.2832
 3523SOL     OW14089   4.483   1.439   2.690  0.2660  0.2148  0.3061
 3523SOL    HW114090   4.470   1.466   2.599 -0.9817  0.3447  0.5045
 3523SOL    HW214091   4.561   1.487   2.718  1.8512 -1.2945 -1.2456
 3523SOL     MW14092   4.492   1.448   2.682  0.3092  0.0382  0.1329
 3524SOL     OW14093   4.370   4.144   1.208  0.8962 -0.6567  1.1459
 3524SOL    HW114094   4.459   4.121   1.236  2.1043  1.2247 -0.8955
 3524SOL    HW214095   4.373   4.143   1.113 -0.7483  1.2798  0.9969
 3524SOL     MW14096   4.382   4.141   1.199  0.8404 -0.1680  0.8655
 3525SOL     OW14097   4.278   1.191   3.452  0.5621 -0.5098  0.2813
 3525SOL    HW114098   4.247   1.134   3.382 -1.2292  1.9040 -1.0540
 3525SOL    HW214099   4.353   1.237   3.414  0.4240 -0.1744  0.4051
 3525SOL     MW14100   4.283   1.190   3.438  0.3151 -0.1579  0.1262
 3526SOL     OW14101   3.714   0.132   1.194  0.3621  0.5248  0.2732
 3526SOL    HW114102   3.745   0.162   1.280 -0.7729 -0.2696  0.9966
 3526SOL    HW214103   3.720   0.037   1.199  0.1287  0.4705 -0.4709
 3526SOL     MW14104   3.719   0.124   1.206  0.1869  0.4162  0.2706
 3527SOL     OW14105   1.761   2.401   4.362  0.4355 -0.1646 -0.0401
 3527SOL    HW114106   1.806   2.484   4.378  1.7011 -0.9127  0.3957
 3527SOL    HW214107   1.809   2.337   4.414 -1.7006 -0.8675  1.1506
 3527SOL     MW14108   1.773   2.404   4.370  0.3241 -0.3504  0.1681
 3528SOL     OW14109   2.366   3.786   3.264  0.4444  0.1267  0.2184
 3528SOL    HW114110   2.449   3.801   3.220 -0.0577  1.6308 -0.2681
 3528SOL    HW214111   2.299   3.818   3.203 -0.5814 -1.8589  0.2149
 3528SOL     MW14112   2.368   3.792   3.251  0.2488  0.0651  0.1557
 3529SOL     OW14113   5.451   3.543   3.547 -0.0915 -0.4466 -0.2371
 3529SOL    HW114114   5.507   3.612   3.512  1.3658 -1.1804  0.5736
 3529SOL    HW214115   5.490   3.520   3.632 -0.5705 -2.2114 -0.4509
 3529SOL     MW14116   5.463   3.549   3.554  0.0337 -0.7664 -0.1607
 3530SOL     OW14117   3.027   0.518   3.266  0.3532 -0.0682 -0.0011
 3530SOL    HW114118   2.965   0.552   3.330 -0.7674 -0.7494 -0.7062
 3530SOL    HW214119   3.033   0.586   3.199 -0.9633 -0.7046 -0.7968
 3530SOL     MW14120   3.020   0.531   3.266  0.0412 -0.2368 -0.1932
 3531SOL     OW14121   4.988   3.260   1.357 -0.0721 -0.5190  0.0715
 3531SOL    HW114122   5.046   3.234   1.428 -0.8929 -0.9528  0.5899
 3531SOL    HW214123   5.017   3.349   1.334  0.7453 -0.7002  0.3580
 3531SOL     MW14124   4.999   3.268   1.363 -0.0726 -0.5977  0.1746
 3532SOL     OW14125   3.148   2.291   0.646  0.5777  0.6307  0.0150
 3532SOL    HW114126   3.117   2.219   0.591 -2.8436  1.0537  1.1587
 3532SOL    HW214127   3.235   2.263   0.675  0.2144 -2.0700 -1.2050
 3532SOL     MW14128   3.155   2.278   0.642  0.0932  0.3391  0.0052
 3533SOL     OW14129   2.246   0.631   1.880  0.3551  0.5993  0.1394
 3533SOL    HW114130   2.284   0.546   1.902 -0.3939 -0.2744 -1.7032
 3533SOL    HW214131   2.243   0.679   1.963  0.3473 -1.3459  1.3077
 3533SOL     MW14132   2.251   0.627   1.893  0.2582  0.2384  0.0531
 3534SOL     OW14133   5.192   3.418   2.655  0.0403 -0.8331 -0.0064
 3534SOL    HW114134   5.204   3.367   2.735  1.5279  0.1653  0.4461
 3534SOL    HW214135   5.169   3.506   2.686 -1.7785 -1.0004 -0.7530
 3534SOL     MW14136   5.191   3.423   2.669 -0.0021 -0.7267 -0.0440
 3535SOL     OW14137   2.869   4.739   2.466 -0.0410  0.5560 -0.4477
 3535SOL    HW114138   2.810   4.675   2.424 -0.6258 -0.1347  1.3201
 3535SOL    HW214139   2.819   4.820   2.467 -1.2050 -0.1106  1.3575
 3535SOL     MW14140   2.855   4.741   2.461 -0.2649  0.3823  0.0097
 3536SOL     OW14141   2.915   4.565   2.895 -0.2977 -0.3705  0.0167
 3536SOL    HW114142   2.824   4.539   2.881 -0.1860 -0.4140 -0.6363
 3536SOL    HW214143   2.930   4.549   2.989 -1.4456  1.1847  0.5020
 3536SOL     MW14144   2.905   4.559   2.905 -0.4303 -0.1770 -0.0047
 3537SOL     OW14145   1.163   0.710   3.985  0.5336 -0.1911  0.2779
 3537SOL    HW114146   1.150   0.791   3.935  0.1477 -0.0794  0.5536
 3537SOL    HW214147   1.155   0.736   4.076 -1.6440 -0.8645  0.3358
 3537SOL     MW14148   1.160   0.724   3.990  0.2054 -0.2630  0.3206
 3538SOL     OW14149   3.525   4.095   0.055  0.0052  0.1533  0.3838
 3538SOL    HW114150   3.505   4.073   0.146 -3.8517  1.3732 -0.0199
 3538SOL    HW214151   3.538   4.190   0.056  1.6853 -0.0306 -0.1649
 3538SOL     MW14152   3.524   4.104   0.067 -0.2735  0.2859  0.2619
 3539SOL     OW14153   2.300   5.430   2.753 -0.2761 -0.1795  0.1444
 3539SOL    HW114154   2.365   5.386   2.809 -0.9923  0.0254  1.1598
 3539SOL    HW214155   2.216   5.402   2.788 -0.7652 -0.5312 -1.2333
 3539SOL     MW14156   2.298   5.421   2.765 -0.4304 -0.1983  0.0980
 3540SOL     OW14157   2.541   1.092   2.102 -0.0544 -0.1444 -0.1316
 3540SOL    HW114158   2.533   0.997   2.101 -1.1845 -0.0789  0.5387
 3540SOL    HW214159   2.635   1.108   2.113  0.1844 -1.1716 -0.5690
 3540SOL     MW14160   2.552   1.082   2.103 -0.1685 -0.2675 -0.1018
 3541SOL     OW14161   3.013   0.626   4.455  0.5393 -0.1039  0.3571
 3541SOL    HW114162   3.000   0.708   4.407  1.6987  0.4427  0.9538
 3541SOL    HW214163   3.010   0.651   4.547  2.4424 -0.4667  0.5424
 3541SOL     MW14164   3.011   0.639   4.460  0.9313 -0.0804  0.4572
 3542SOL     OW14165   0.977   2.421   4.406 -0.0243  0.2100 -0.1232
 3542SOL    HW114166   0.940   2.508   4.389 -0.3108  0.0254 -0.4339
 3542SOL    HW214167   1.048   2.438   4.468  0.2711  0.7357 -0.5913
 3542SOL     MW14168   0.982   2.434   4.412 -0.0232  0.2537 -0.2229
 3543SOL     OW14169   0.124   0.264   1.325 -0.4111  0.8034  0.2641
 3543SOL    HW114170   0.061   0.330   1.297 -0.6747 -0.3072 -1.9067
 3543SOL    HW214171   0.083   0.222   1.401 -0.9028  2.0823  0.7363
 3543SOL     MW14172   0.111   0.267   1.331 -0.5078  0.8250  0.0467
 3544SOL     OW14173   3.176   2.019   3.766 -0.2140  0.6122  0.6415
 3544SOL    HW114174   3.178   2.110   3.795 -1.0253  0.7665  0.2301
 3544SOL    HW214175   3.199   2.024   3.673 -0.6252  0.4340  0.5307
 3544SOL     MW14176   3.179   2.032   3.758 -0.3705  0.6091  0.5747
 3545SOL     OW14177   0.592   4.905   0.450 -0.0247 -0.2231  0.4291
 3545SOL    HW114178   0.638   4.833   0.408  0.6343  0.0302  0.7024
 3545SOL    HW214179   0.615   4.898   0.543  0.7475  0.8271  0.3423
 3545SOL     MW14180   0.601   4.895   0.457  0.1585 -0.0563  0.4530
 3546SOL     OW14181   4.952   3.549   3.145  0.5535  0.2468  0.2129
 3546SOL    HW114182   4.863   3.513   3.137  1.3432 -1.5572 -1.2763
 3546SOL    HW214183   4.987   3.510   3.225 -0.6651  2.7270  2.0964
 3546SOL     MW14184   4.945   3.539   3.154  0.4986  0.3333  0.2634
 3547SOL     OW14185   0.552   3.089   4.327 -0.3501 -0.0192  0.1493
 3547SOL    HW114186   0.569   3.144   4.403  1.2045  0.3302 -0.4180
 3547SOL    HW214187   0.489   3.138   4.275 -1.3349 -0.2057  1.1125
 3547SOL     MW14188   0.546   3.102   4.330 -0.2771  0.0017  0.2000
 3548SOL     OW14189   4.643   2.440   1.455  0.2828  0.3128 -0.7681
 3548SOL    HW114190   4.569   2.434   1.515  2.1402 -1.9463  1.4928
 3548SOL    HW214191   4.677   2.351   1.449  3.9707  1.5110 -0.1140
 3548SOL     MW14192   4.638   2.428   1.462  0.9926  0.1770 -0.3950
 3549SOL     OW14193   4.317   0.083   0.671 -0.4767 -0.6685 -0.7197
 3549SOL    HW114194   4.407   0.054   0.662 -0.2174 -0.0535 -0.1957
 3549SOL    HW214195   4.320   0.150   0.740 -1.2600 -0.3329 -1.0003
 3549SOL     MW14196   4.329   0.088   0.679 -0.5438 -0.5468 -0.6886
 3550SOL     OW14197   0.399   3.329   4.823 -0.2696  0.1115 -0.1489
 3550SOL    HW114198   0.401   3.254   4.882  2.3728  0.5987  0.5223
 3550SOL    HW214199   0.361   3.400   4.876 -1.3606 -0.3641 -0.2860
 3550SOL     MW14200   0.395   3.329   4.837 -0.0710  0.1130 -0.0805
 3551SOL     OW14201   3.922   1.750   3.310  0.2494  0.2440  0.0300
 3551SOL    HW114202   3.993   1.701   3.269 -1.3947 -1.4472 -0.9030
 3551SOL    HW214203   3.882   1.799   3.239 -0.2045  0.3244  0.3356
 3551SOL     MW14204   3.926   1.750   3.296 -0.0192  0.0378 -0.0503
 3552SOL     OW14205   2.277   5.453   4.764 -0.4950  0.0881 -0.4535
 3552SOL    HW114206   2.349   5.403   4.802 -0.8224 -0.1055 -0.0861
 3552SOL    HW214207   2.199   5.399   4.778 -1.1700  1.5032  1.6450
 3552SOL     MW14208   2.276   5.440   4.770 -0.6233  0.2445 -0.1378
 3553SOL     OW14209   1.128   4.495   4.929 -0.1430 -0.0942  0.1224
 3553SOL    HW114210   1.100   4.585   4.913 -0.1976 -0.4061 -1.6483
 3553SOL    HW214211   1.053   4.454   4.973 -0.3699  0.5267  0.3292
 3553SOL     MW14212   1.115   4.501   4.933 -0.1790 -0.0546 -0.0778
 3554SOL     OW14213   2.497   2.268   2.496 -0.0742 -0.2109  0.3590
 3554SOL    HW114214   2.460   2.181   2.515  0.6758 -0.3713  1.1054
 3554SOL    HW214215   2.553   2.253   2.419 -0.5972 -0.2096 -0.0302
 3554SOL     MW14216   2.499   2.255   2.488 -0.0451 -0.2313  0.4047
 3555SOL     OW14217   4.933   0.190   4.313 -0.3364  0.1178 -0.5615
 3555SOL    HW114218   4.949   0.147   4.229  0.2560  0.0069 -0.3957
 3555SOL    HW214219   4.943   0.283   4.295 -0.1754  0.0920 -0.6090
 3555SOL     MW14220   4.936   0.196   4.300 -0.2400  0.1003 -0.5463
 3556SOL     OW14221   0.467   5.106   3.575  0.7286  0.4019 -0.1181
 3556SOL    HW114222   0.541   5.141   3.525  0.6913  0.0191 -0.4450
 3556SOL    HW214223   0.507   5.074   3.656  1.0085 -0.3038 -0.5253
 3556SOL     MW14224   0.482   5.107   3.579  0.7596  0.2626 -0.2121
 3557SOL     OW14225   0.655   1.307   1.714  0.0709 -0.5830 -0.0668
 3557SOL    HW114226   0.748   1.293   1.703  0.0870 -0.5331  0.0023
 3557SOL    HW214227   0.641   1.398   1.686  0.3956  0.1237  1.9084
 3557SOL     MW14228   0.665   1.317   1.709  0.1145 -0.4862  0.1949
 3558SOL     OW14229   4.493   1.084   5.142  0.1632  0.0598  0.3271
 3558SOL    HW114230   4.441   1.125   5.211 -2.8624  0.4040 -1.9551
 3558SOL    HW214231   4.497   1.150   5.072 -1.4946 -1.9568 -1.8669
 3558SOL     MW14232   4.487   1.097   5.142 -0.4363 -0.1543 -0.2459
 3559SOL     OW14233   2.331   5.122   2.174  0.1872 -0.0995  0.2012
 3559SOL    HW114234   2.409   5.128   2.119 -1.2189  1.6845 -1.8198
 3559SOL    HW214235   2.300   5.212   2.181 -0.9628 -0.5835  2.1141
 3559SOL     MW14236   2.337   5.135   2.168 -0.1400  0.0669  0.1874
 3560SOL     OW14237   3.178   0.602   1.819  0.3695  0.2236 -0.2143
 3560SOL    HW114238   3.259   0.652   1.816 -0.0761  0.9109 -0.9768
 3560SOL    HW214239   3.136   0.630   1.900  0.6129  0.3015 -0.1128
 3560SOL     MW14240   3.183   0.612   1.829  0.3436  0.3215 -0.2989
 3561SOL     OW14241   2.150   1.558   2.390 -0.5556 -0.1947  0.0177
 3561SOL    HW114242   2.081   1.502   2.426  1.1482 -2.0677  0.5423
 3561SOL    HW214243   2.115   1.588   2.306 -2.0451 -0.9863  0.3137
 3561SOL     MW14244   2.137   1.555   2.384 -0.5282 -0.5358  0.1228
 3562SOL     OW14245   0.076   4.378   1.003 -0.4680 -0.1421  0.1035
 3562SOL    HW114246   0.049   4.289   1.027  0.7764 -0.7542 -0.6452
 3562SOL    HW214247   0.156   4.392   1.053  0.1703 -0.0507 -0.9056
 3562SOL     MW14248   0.083   4.368   1.013 -0.2270 -0.2088 -0.1215
 3563SOL     OW14249   0.295   5.087   0.169  0.4185 -0.2685  0.5522
 3563SOL    HW114250   0.253   5.005   0.143  0.0451 -0.2909  1.1894
 3563SOL    HW214251   0.222   5.149   0.178  0.5382 -0.2469  1.4599
 3563SOL     MW14252   0.280   5.085   0.167  0.3861 -0.2686  0.7499
 3564SOL     OW14253   2.562   2.023   0.175  0.1676  0.0168 -0.4274
 3564SOL    HW114254   2.641   1.987   0.134 -1.0016 -0.8751 -2.0009
 3564SOL    HW214255   2.518   1.947   0.213  0.2329  0.5643  0.7728
 3564SOL     MW14256   2.567   2.009   0.175  0.0263 -0.0273 -0.4752
 3565SOL     OW14257   3.853   5.167   1.723  0.6497  0.9549 -0.1441
 3565SOL    HW114258   3.873   5.257   1.747  0.5886  0.8065  0.4653
 3565SOL    HW214259   3.769   5.172   1.677  0.8191  1.2497 -0.4236
 3565SOL     MW14260   3.845   5.179   1.720  0.6636  0.9737 -0.1018
 3566SOL     OW14261   3.276   0.048   2.520 -0.5669 -0.0859  0.0822
 3566SOL    HW114262   3.326  -0.033   2.516  0.9499  0.8020 -0.0485
 3566SOL    HW214263   3.242   0.052   2.609  0.5939 -0.1851  0.5452
 3566SOL     MW14264   3.278   0.038   2.531 -0.2241  0.0151  0.1248
 3567SOL     OW14265   2.986   4.952   5.144 -0.4097 -0.4558  0.4997
 3567SOL    HW114266   3.075   4.968   5.113 -0.8870 -0.6856 -1.0588
 3567SOL    HW214267   2.936   5.028   5.113 -1.2840 -1.5946 -0.9426
 3567SOL     MW14268   2.991   4.964   5.136 -0.5827 -0.6310  0.1156
 3568SOL     OW14269   4.600   3.274   5.069 -0.6055 -0.2451  0.1157
 3568SOL    HW114270   4.635   3.267   5.158  0.3606 -0.3691 -0.2639
 3568SOL    HW214271   4.521   3.220   5.071  0.4956 -1.9074  0.3696
 3568SOL     MW14272   4.595   3.266   5.081 -0.3409 -0.4738  0.0996
 3569SOL     OW14273   3.329   3.894   4.209  0.0946  0.2144  0.0954
 3569SOL    HW114274   3.330   3.813   4.262 -1.8816  0.3867  0.4871
 3569SOL    HW214275   3.260   3.879   4.144 -0.7776  1.8101  0.5925
 3569SOL     MW14276   3.320   3.881   4.208 -0.2700  0.4408  0.2092
 3570SOL     OW14277   1.370   0.148   1.531 -0.1326 -0.4368  0.4249
 3570SOL    HW114278   1.419   0.070   1.504  0.5243  0.4201 -1.0076
 3570SOL    HW214279   1.424   0.188   1.599  0.5307 -0.2060 -0.2210
 3570SOL     MW14280   1.383   0.144   1.536  0.0364 -0.2975  0.1589
 3571SOL     OW14281   5.202   2.627   1.913  0.2480  0.1943 -0.7297
 3571SOL    HW114282   5.131   2.691   1.920  0.6820  0.7712 -1.4577
 3571SOL    HW214283   5.273   2.663   1.965  0.3190  0.0522 -0.7288
 3571SOL     MW14284   5.202   2.640   1.920  0.3126  0.2499 -0.8227
 3572SOL     OW14285   4.699   3.431   2.187 -0.1855  0.2800  0.1967
 3572SOL    HW114286   4.744   3.490   2.248  1.0584 -1.1028  0.6893
 3572SOL    HW214287   4.632   3.486   2.146  2.3633  2.6813 -1.1098
 3572SOL     MW14288   4.696   3.446   2.190  0.3000  0.4104  0.0925
 3573SOL     OW14289   1.651   1.645   5.224  0.4488 -0.1385  0.0514
 3573SOL    HW114290   1.743   1.634   5.249  0.5895  1.4036  0.2661
 3573SOL    HW214291   1.634   1.738   5.235 -1.4709 -0.5632  1.0926
 3573SOL     MW14292   1.661   1.655   5.229  0.2211  0.0045  0.2122
 3574SOL     OW14293   3.603   3.299   1.859  0.1585  0.1958  0.5927
 3574SOL    HW114294   3.532   3.253   1.814 -0.6224  0.5619  1.4118
 3574SOL    HW214295   3.588   3.392   1.839 -0.2125  0.3684  1.5692
 3574SOL     MW14296   3.592   3.305   1.851  0.0111  0.2648  0.8225
 3575SOL     OW14297   4.335   3.415   4.736 -0.1386  0.2757  0.4279
 3575SOL    HW114298   4.413   3.366   4.762 -0.0330 -1.7874 -3.1583
 3575SOL    HW214299   4.263   3.371   4.781  0.1605 -2.2673 -1.3624
 3575SOL     MW14300   4.336   3.403   4.745 -0.0868 -0.3140 -0.2604
 3576SOL     OW14301   0.206   3.117   1.502  0.7055  0.1969  0.4137
 3576SOL    HW114302   0.208   3.081   1.414  2.8402 -0.5205  0.6881
 3576SOL    HW214303   0.160   3.200   1.493  1.6039  0.5376 -1.5567
 3576SOL     MW14304   0.200   3.123   1.490  1.0938  0.1487  0.1966
 3577SOL     OW14305   4.876   3.877   3.447 -0.2936  0.1014  0.2564
 3577SOL    HW114306   4.860   3.905   3.537  0.1978  1.4206 -0.0286
 3577SOL    HW214307   4.850   3.953   3.394  3.0715  0.9408 -0.4381
 3577SOL     MW14308   4.871   3.890   3.452  0.2000  0.3778  0.1310
 3578SOL     OW14309   1.511   4.777   0.822 -0.1650  0.5578  0.7225
 3578SOL    HW114310   1.479   4.864   0.849  0.1564  1.1691 -0.7507
 3578SOL    HW214311   1.594   4.795   0.777 -0.0953 -0.5122  0.3960
 3578SOL     MW14312   1.517   4.791   0.819 -0.1149  0.4990  0.4921
 3579SOL     OW14313   2.302   3.679   4.948 -0.4653  0.2683 -0.0363
 3579SOL    HW114314   2.287   3.603   5.004  1.5564 -2.1697 -2.4903
 3579SOL    HW214315   2.216   3.702   4.914 -1.2153 -0.4416  1.3086
 3579SOL     MW14316   2.289   3.672   4.951 -0.3025 -0.1347 -0.1783
 3580SOL     OW14317   4.843   4.094   3.243 -0.2441  0.4467 -0.0894
 3580SOL    HW114318   4.823   4.124   3.154 -0.1685 -1.0767 -0.6547
 3580SOL    HW214319   4.808   4.162   3.300 -0.0713  1.5772 -1.2940
 3580SOL     MW14320   4.836   4.106   3.238 -0.2123  0.3964 -0.3160
 3581SOL     OW14321   2.680   3.643   4.663 -0.4820 -0.1438 -0.3329
 3581SOL    HW114322   2.770   3.613   4.657 -0.8600 -1.3896  0.0548
 3581SOL    HW214323   2.679   3.726   4.614  1.0154  0.2532  0.2683
 3581SOL     MW14324   2.691   3.650   4.656 -0.3387 -0.2525 -0.2063
 3582SOL     OW14325   2.419   5.248   2.450 -0.0896 -0.8404 -0.0684
 3582SOL    HW114326   2.447   5.217   2.537 -1.1167 -0.6025  0.3665
 3582SOL    HW214327   2.333   5.207   2.437 -0.1690 -0.4641 -0.7473
 3582SOL     MW14328   2.411   5.239   2.460 -0.2313 -0.7618 -0.0996
 3583SOL     OW14329   2.465   1.563   2.052 -0.3986 -0.0852 -0.0563
 3583SOL    HW114330   2.531   1.576   2.120 -0.9965  1.0171  0.3476
 3583SOL    HW214331   2.411   1.490   2.083  1.3961 -1.9180 -1.0369
 3583SOL     MW14332   2.466   1.556   2.065 -0.2454 -0.1787 -0.1301
 3584SOL     OW14333   5.438   0.078   3.154 -0.0466  0.1715  0.2693
 3584SOL    HW114334   5.447   0.024   3.076 -0.6132 -1.9323  1.5947
 3584SOL    HW214335   5.345   0.078   3.173 -0.0979  1.8797  0.1717
 3584SOL     MW14336   5.427   0.071   3.146 -0.1257  0.1209  0.4264
 3585SOL     OW14337   0.191   4.226   1.904 -0.2316 -0.8876  0.0178
 3585SOL    HW114338   0.109   4.213   1.856 -0.0978 -1.2290 -0.1159
 3585SOL    HW214339   0.253   4.166   1.864  0.2785 -0.1399 -0.3398
 3585SOL     MW14340   0.188   4.217   1.893 -0.1492 -0.8356 -0.0451
 3586SOL     OW14341   1.049   0.475   2.722  0.6532 -0.1746 -0.2371
 3586SOL    HW114342   1.119   0.463   2.659  0.7495 -0.1420 -0.1371
 3586SOL    HW214343   0.996   0.547   2.687 -0.7273 -1.7506 -1.5635
 3586SOL     MW14344   1.051   0.483   2.710  0.4888 -0.3722 -0.3941
 3587SOL     OW14345   2.588   3.383   4.713  0.3429 -0.1701 -0.3380
 3587SOL    HW114346   2.501   3.391   4.673 -0.7099  0.0565  1.8132
 3587SOL    HW214347   2.638   3.456   4.678 -0.4180 -0.1200 -1.3768
 3587SOL     MW14348   2.583   3.393   4.703  0.1107 -0.1347 -0.1956
 3588SOL     OW14349   4.287   0.913   2.766 -0.1487  0.0663  0.1008
 3588SOL    HW114350   4.274   0.824   2.799  2.2851 -1.6088 -2.8693
 3588SOL    HW214351   4.368   0.942   2.808 -0.1074  0.2388 -0.0949
 3588SOL     MW14352   4.296   0.905   2.776  0.1681 -0.1260 -0.3045
 3589SOL     OW14353   4.599   2.356   4.276  0.3534  0.0246 -0.2629
 3589SOL    HW114354   4.564   2.368   4.364  0.8161  0.5222 -0.1399
 3589SOL    HW214355   4.693   2.369   4.285  0.4520 -0.2661 -0.7727
 3589SOL     MW14356   4.606   2.359   4.288  0.4253  0.0511 -0.3124
 3590SOL     OW14357   1.613   1.502   2.049 -0.0817 -0.2421 -0.0347
 3590SOL    HW114358   1.582   1.585   2.085  0.1965 -0.2494  0.2231
 3590SOL    HW214359   1.688   1.525   1.996  0.0703 -0.3441  0.1359
 3590SOL     MW14360   1.618   1.515   2.047 -0.0266 -0.2561  0.0201
 3591SOL     OW14361   5.012   4.743   3.040 -0.0804  0.2231  0.0203
 3591SOL    HW114362   4.976   4.824   3.077 -0.0852  0.3509 -0.2630
 3591SOL    HW214363   4.969   4.673   3.089 -0.2329  0.3885  0.1229
 3591SOL     MW14364   5.002   4.744   3.051 -0.1005  0.2606 -0.0028
 3592SOL     OW14365   0.030   2.695   3.071 -0.2534 -0.1182 -0.7802
 3592SOL    HW114366   0.058   2.630   3.136  1.5813  0.2758 -1.1289
 3592SOL    HW214367   0.004   2.642   2.995  0.9788 -0.4803 -0.9713
 3592SOL     MW14368   0.030   2.680   3.070  0.1392 -0.1141 -0.8493
 3593SOL     OW14369   0.424   0.255   3.630 -0.4720  0.3000  0.2499
 3593SOL    HW114370   0.372   0.179   3.601 -1.1239  1.4246 -1.7756
 3593SOL    HW214371   0.360   0.327   3.632  0.7691  1.5248 -1.4039
 3593SOL     MW14372   0.409   0.254   3.627 -0.3966  0.6007 -0.2211
 3594SOL     OW14373   3.704   4.842   3.286  0.0786  0.0029  0.1797
 3594SOL    HW114374   3.724   4.828   3.193  1.7226 -2.3443  0.7962
 3594SOL    HW214375   3.610   4.828   3.293  0.0148 -0.2992 -1.0335
 3594SOL     MW14376   3.695   4.839   3.275  0.2809 -0.3363  0.1033
 3595SOL     OW14377   3.776   1.549   4.953  0.1717 -0.0096  0.0858
 3595SOL    HW114378   3.745   1.469   4.996 -2.8101  0.7039 -0.5141
 3595SOL    HW214379   3.705   1.573   4.892  0.6358  3.4197  0.6945
 3595SOL     MW14380   3.763   1.542   4.950 -0.1506  0.5207  0.0869
 3596SOL     OW14381   3.493   4.109   4.865  0.3340  0.4029 -0.5266
 3596SOL    HW114382   3.473   4.085   4.956 -1.0279  1.8210 -0.4074
 3596SOL    HW214383   3.486   4.027   4.817  1.1334 -0.3862  0.6422
 3596SOL     MW14384   3.489   4.096   4.871  0.2620  0.4834 -0.3617
 3597SOL     OW14385   2.614   2.124   0.445 -0.3804 -0.0772  0.1473
 3597SOL    HW114386   2.664   2.052   0.483  2.2195  0.3813 -2.0415
 3597SOL    HW214387   2.588   2.093   0.359  1.5054  1.7056 -1.1938
 3597SOL     MW14388   2.617   2.111   0.439  0.1938  0.2097 -0.3046
 3598SOL     OW14389   2.900   2.368   1.648  0.3281 -0.2582  0.0246
 3598SOL    HW114390   2.940   2.407   1.726 -0.5131  1.8514 -0.5411
 3598SOL    HW214391   2.815   2.336   1.677  0.9670 -1.6439  0.4598
 3598SOL     MW14392   2.894   2.369   1.661  0.3022 -0.1655  0.0079
 3599SOL     OW14393   3.038   0.644   3.679 -0.1205  0.0102 -0.4494
 3599SOL    HW114394   3.036   0.549   3.684  1.5450 -0.0063  0.7301
 3599SOL    HW214395   3.081   0.672   3.759 -1.3894  1.8394 -0.3331
 3599SOL     MW14396   3.043   0.636   3.690 -0.0697  0.2423 -0.2836
 3600SOL     OW14397   5.143   2.635   0.610  0.5872 -0.2226  0.1749
 3600SOL    HW114398   5.094   2.573   0.557  1.7395 -2.1177  1.2343
 3600SOL    HW214399   5.110   2.623   0.699 -1.0291  2.6121  0.0670
 3600SOL     MW14400   5.133   2.626   0.615  0.5278 -0.1023  0.2967
 3601SOL     OW14401   3.162   3.264   2.980 -0.0944 -0.4297  0.5940
 3601SOL    HW114402   3.257   3.257   2.970  0.0136  0.9930  0.5251
 3601SOL    HW214403   3.149   3.345   3.029 -1.3181 -0.0538 -0.3188
 3601SOL     MW14404   3.173   3.273   2.985 -0.2372 -0.1995  0.4683
 3602SOL     OW14405   3.182   5.035   4.506 -0.1770  0.4106 -0.2818
 3602SOL    HW114406   3.276   5.036   4.488 -0.5777  0.0013 -2.7821
 3602SOL    HW214407   3.153   5.124   4.487 -0.2556  0.6855  1.0105
 3602SOL     MW14408   3.191   5.046   4.501 -0.2384  0.3934 -0.4364
 3603SOL     OW14409   3.166   4.545   1.768  0.7586 -0.0331 -0.2060
 3603SOL    HW114410   3.260   4.552   1.785  0.6780 -0.0690  0.2592
 3603SOL    HW214411   3.128   4.623   1.809  0.2946 -1.2564  1.8030
 3603SOL     MW14412   3.173   4.556   1.775  0.6889 -0.1943  0.1107
 3604SOL     OW14413   3.368   2.963   4.164  0.5592 -0.0591  0.9126
 3604SOL    HW114414   3.403   2.886   4.208  1.5347 -0.3592 -0.3315
 3604SOL    HW214415   3.392   2.952   4.072 -0.5496  1.0276  0.4485
 3604SOL     MW14416   3.375   2.952   4.158  0.5421  0.0416  0.6939
 3605SOL     OW14417   0.840   2.187   2.158  0.3562  0.1046  0.0356
 3605SOL    HW114418   0.890   2.236   2.092  0.7849 -0.8299 -0.3586
 3605SOL    HW214419   0.854   2.095   2.135 -1.1125 -0.2037  0.2444
 3605SOL     MW14420   0.848   2.181   2.146  0.2231 -0.0545  0.0118
 3606SOL     OW14421   3.051   1.049   4.957  0.2086 -0.0631 -0.5190
 3606SOL    HW114422   3.090   1.134   4.977  2.8816 -1.6238  1.7090
 3606SOL    HW214423   3.111   1.010   4.893  0.0842 -0.9808 -0.0897
 3606SOL     MW14424   3.064   1.055   4.952  0.5349 -0.3803 -0.1788
 3607SOL     OW14425   4.524   1.522   2.063  0.0827  0.2417 -0.0912
 3607SOL    HW114426   4.593   1.456   2.074 -1.1222 -1.0984 -0.3435
 3607SOL    HW214427   4.561   1.585   2.000  0.9223 -0.6768 -0.5445
 3607SOL     MW14428   4.538   1.522   2.056  0.0359 -0.0474 -0.1816
 3608SOL     OW14429   4.320   1.107   4.526 -0.5565  0.7547 -0.3380
 3608SOL    HW114430   4.358   1.033   4.479  0.9460  1.9385 -1.0835
 3608SOL    HW214431   4.237   1.123   4.481 -0.4275  0.1538 -0.8132
 3608SOL     MW14432   4.314   1.100   4.514 -0.3477  0.8293 -0.4943
 3609SOL     OW14433   2.997   0.462   1.985  0.5337  0.0399  0.6798
 3609SOL    HW114434   3.035   0.468   1.898 -1.2958  1.3210 -0.0873
 3609SOL    HW214435   2.934   0.390   1.980  0.8957 -0.3259  1.1672
 3609SOL     MW14436   2.994   0.454   1.974  0.3458  0.1571  0.6440
 3610SOL     OW14437   2.611   4.424   2.434  0.9636  0.1484 -0.5923
 3610SOL    HW114438   2.640   4.368   2.506  1.2017  0.0219 -0.7858
 3610SOL    HW214439   2.566   4.364   2.374  2.0716 -0.0336 -1.2849
 3610SOL     MW14440   2.609   4.409   2.436  1.1359  0.1089 -0.7057
 3611SOL     OW14441   2.927   1.445   4.764 -0.0663 -0.4195 -0.3696
 3611SOL    HW114442   2.872   1.514   4.725  0.6696 -0.3809 -1.3751
 3611SOL    HW214443   2.998   1.493   4.806 -0.4399 -0.5032  0.3861
 3611SOL     MW14444   2.929   1.460   4.765 -0.0199 -0.4253 -0.4016
 3612SOL     OW14445   1.034   2.649   3.895  0.5503 -0.4650  0.1548
 3612SOL    HW114446   0.978   2.726   3.901  0.1765 -0.5744 -1.3576
 3612SOL    HW214447   0.977   2.575   3.919  0.2948 -0.4754 -0.4561
 3612SOL     MW14448   1.020   2.649   3.899  0.4698 -0.4803 -0.1170
 3613SOL     OW14449   5.228   1.054   0.671  0.0208  0.1221  0.7630
 3613SOL    HW114450   5.321   1.056   0.645  0.4773 -0.4813  2.2145
 3613SOL    HW214451   5.192   0.979   0.624  0.4756 -0.1230  0.7968
 3613SOL     MW14452   5.236   1.045   0.662  0.1375  0.0135  0.9532
 3614SOL     OW14453   4.111   2.080   3.754 -0.3305  0.1704 -0.8053
 3614SOL    HW114454   4.103   2.173   3.772 -0.0801  0.3175 -1.4540
 3614SOL    HW214455   4.099   2.072   3.660 -0.2884 -0.4480 -0.7636
 3614SOL     MW14456   4.108   2.091   3.744 -0.2930  0.1101 -0.8830
 3615SOL     OW14457   4.749   4.021   0.184 -0.2596  0.3395 -0.2371
 3615SOL    HW114458   4.656   4.038   0.195 -0.1519 -0.2094  1.8646
 3615SOL    HW214459   4.786   4.028   0.272  1.3289 -1.4825 -0.6738
 3615SOL     MW14460   4.742   4.024   0.196 -0.0425  0.0360 -0.0239
 3616SOL     OW14461   1.651   1.049   0.395  0.8383 -0.0917  0.5709
 3616SOL    HW114462   1.665   1.089   0.309  1.4034  0.5220  0.9345
 3616SOL    HW214463   1.556   1.045   0.404  0.7481  1.4439  0.6297
 3616SOL     MW14464   1.641   1.053   0.385  0.8991  0.1834  0.6249
 3617SOL     OW14465   0.686   1.612   3.010 -0.3759 -0.3505  0.0854
 3617SOL    HW114466   0.752   1.655   2.955 -0.0347 -0.9924 -0.0152
 3617SOL    HW214467   0.635   1.558   2.950 -0.4170 -0.5531  0.2990
 3617SOL     MW14468   0.688   1.610   2.995 -0.3375 -0.4586  0.0999
 3618SOL     OW14469   4.145   4.589   3.721  0.2182 -0.0197  0.3771
 3618SOL    HW114470   4.124   4.504   3.760 -0.8228 -0.7218 -1.6009
 3618SOL    HW214471   4.203   4.569   3.647  2.4269  1.3110  1.6111
 3618SOL     MW14472   4.150   4.576   3.717  0.3677  0.0607  0.2819
 3619SOL     OW14473   5.022   0.748   1.410  0.2209 -0.1392 -0.2618
 3619SOL    HW114474   4.986   0.833   1.384 -3.3000 -0.7119  2.0896
 3619SOL    HW214475   5.091   0.770   1.473 -0.9642  1.0359  0.6853
 3619SOL     MW14476   5.027   0.762   1.415 -0.3816 -0.0621  0.1605
 3620SOL     OW14477   4.002   1.825   2.840 -0.3324  0.3235  0.2731
 3620SOL    HW114478   3.926   1.859   2.793 -0.9725  0.4142  1.3493
 3620SOL    HW214479   3.992   1.730   2.837 -0.6275  0.3431  0.6388
 3620SOL     MW14480   3.991   1.817   2.833 -0.4521  0.3376  0.4577
 3621SOL     OW14481   4.628   3.263   3.193 -0.3023  0.1179 -0.5738
 3621SOL    HW114482   4.544   3.235   3.230  0.2505 -0.6976  0.1202
 3621SOL    HW214483   4.652   3.340   3.244  0.0880 -0.5497  0.2845
 3621SOL     MW14484   4.620   3.269   3.204 -0.1816 -0.0719 -0.3751
 3622SOL     OW14485   0.543   3.623   1.572 -0.0643  0.3953 -0.0074
 3622SOL    HW114486   0.620   3.669   1.538 -0.3097  1.6773  1.0920
 3622SOL    HW214487   0.482   3.622   1.498  0.2561  1.1495 -0.2936
 3622SOL     MW14488   0.545   3.629   1.558 -0.0547  0.6560  0.0967
 3623SOL     OW14489   1.102   4.904   0.811  0.3057 -0.0190  0.3481
 3623SOL    HW114490   1.191   4.920   0.843  0.3987 -0.4967  0.3256
 3623SOL    HW214491   1.100   4.811   0.790 -0.1347  0.0356  0.1395
 3623SOL     MW14492   1.114   4.894   0.812  0.2612 -0.0732  0.3185
 3624SOL     OW14493   4.737   5.073   1.185 -0.5037 -0.1046 -0.2570
 3624SOL    HW114494   4.788   5.119   1.118  0.0676 -0.9801 -0.4339
 3624SOL    HW214495   4.678   5.140   1.221 -0.8174  0.3782 -1.6252
 3624SOL     MW14496   4.736   5.088   1.181 -0.4707 -0.1548 -0.4548
 3625SOL     OW14497   1.671   4.348   0.533  0.1164  0.5505  0.0198
 3625SOL    HW114498   1.614   4.412   0.491 -0.5262  0.2633  0.4485
 3625SOL    HW214499   1.629   4.263   0.516  0.0622  0.3955  0.8928
 3625SOL     MW14500   1.659   4.345   0.525  0.0272  0.4939  0.1865
 3626SOL     OW14501   2.014   4.048   0.113  0.1100 -0.6016 -0.1178
 3626SOL    HW114502   2.075   4.114   0.144 -0.1720 -0.0820 -0.6520
 3626SOL    HW214503   2.010   3.983   0.183  1.6758 -0.9242 -0.3020
 3626SOL     MW14504   2.021   4.048   0.126  0.2744 -0.5764 -0.2098
 3627SOL     OW14505   3.397   4.421   4.526 -0.4674  0.2496 -0.2557
 3627SOL    HW114506   3.419   4.404   4.618  1.8519  2.4858 -0.3048
 3627SOL    HW214507   3.473   4.390   4.477 -2.5448 -2.9912 -1.7866
 3627SOL     MW14508   3.410   4.415   4.531 -0.4364  0.1210 -0.4579
 3628SOL     OW14509   0.719   0.698   5.050 -0.0174  0.1073 -0.4088
 3628SOL    HW114510   0.652   0.741   5.103 -0.9780 -0.2521 -1.3003
 3628SOL    HW214511   0.686   0.609   5.038  0.0941  0.2395 -1.7642
 3628SOL     MW14512   0.707   0.692   5.056 -0.1261  0.0783 -0.6964
 3629SOL     OW14513   4.084   0.321   4.141  0.7843  0.0285  0.4760
 3629SOL    HW114514   4.097   0.249   4.203  0.3188  1.0239  1.7967
 3629SOL    HW214515   4.026   0.382   4.188  0.4434  0.8388 -0.9480
 3629SOL     MW14516   4.078   0.320   4.155  0.6811  0.2597  0.4628
 3630SOL     OW14517   0.104   2.885   1.630 -0.5331 -0.2677  0.1973
 3630SOL    HW114518   0.030   2.936   1.663 -0.5158  0.3827 -0.7327
 3630SOL    HW214519   0.159   2.948   1.583  1.0903 -0.5562  1.5935
 3630SOL     MW14520   0.102   2.899   1.628 -0.3231 -0.2213  0.2570
 3631SOL     OW14521   2.037   2.255   3.109 -0.1513  0.4348 -0.0293
 3631SOL    HW114522   2.031   2.209   3.193  0.1772 -1.4215 -0.9498
 3631SOL    HW214523   1.955   2.235   3.064 -0.7016  2.1372  0.1557
 3631SOL     MW14524   2.026   2.246   3.114 -0.1797  0.4151 -0.1235
 3632SOL     OW14525   2.662   2.292   0.060 -0.0293  0.1615 -0.2274
 3632SOL    HW114526   2.694   2.223   0.118  2.0325 -0.3489 -1.8473
 3632SOL    HW214527   2.587   2.254   0.016 -0.3995 -0.1441  0.6353
 3632SOL     MW14528   2.656   2.278   0.062  0.1872  0.0571 -0.3243
 3633SOL     OW14529   1.901   1.144   5.318 -0.0171 -0.0143 -0.2124
 3633SOL    HW114530   1.906   1.165   5.224 -0.5929  1.9797  0.1473
 3633SOL    HW214531   1.832   1.202   5.351  1.1974  0.3902  1.7197
 3633SOL     MW14532   1.893   1.154   5.310  0.0647  0.2928  0.0810
 3634SOL     OW14533   3.959   2.593   1.456 -0.2049  0.2547  0.0498
 3634SOL    HW114534   4.014   2.663   1.419  2.7254 -1.1734  1.3505
 3634SOL    HW214535   3.969   2.520   1.394 -0.6148 -0.0459  0.3325
 3634SOL     MW14536   3.968   2.593   1.443  0.1177  0.0334  0.2525
 3635SOL     OW14537   1.466   2.783   1.925 -0.0823  0.6867 -0.2982
 3635SOL    HW114538   1.484   2.870   1.960  1.0608 -0.1275  1.2494
 3635SOL    HW214539   1.532   2.770   1.857  0.3245  0.6738  0.1004
 3635SOL     MW14540   1.477   2.792   1.920  0.1161  0.5808 -0.0491
 3636SOL     OW14541   4.146   2.947   1.695  0.2578  0.0753  0.1901
 3636SOL    HW114542   4.145   2.989   1.609 -0.5150  0.2758  0.2950
 3636SOL    HW214543   4.103   3.009   1.753  0.2249 -0.3241  0.5972
 3636SOL     MW14544   4.141   2.960   1.691  0.1547  0.0498  0.2557
 3637SOL     OW14545   3.461   1.911   1.920 -0.1126  0.4288  0.2236
 3637SOL    HW114546   3.529   1.952   1.867  0.3350 -1.3283 -0.6495
 3637SOL    HW214547   3.461   1.960   2.002  1.4482  1.1531 -0.1737
 3637SOL     MW14548   3.469   1.922   1.924  0.1445  0.2966  0.0609
 3638SOL     OW14549   0.451   0.438   1.828 -0.3981 -0.4294 -0.3656
 3638SOL    HW114550   0.376   0.464   1.775 -2.3911 -1.0325  1.9721
 3638SOL    HW214551   0.414   0.379   1.894  2.0241 -0.1618  1.3546
 3638SOL     MW14552   0.437   0.434   1.830 -0.3432 -0.4723  0.1539
 3639SOL     OW14553   2.334   5.049   2.675 -0.2474  0.1546 -0.4124
 3639SOL    HW114554   2.369   4.986   2.738 -2.1633 -0.3795  0.1714
 3639SOL    HW214555   2.361   5.134   2.710  1.2416 -0.2324 -0.5152
 3639SOL     MW14556   2.342   5.052   2.688 -0.3020  0.0367 -0.3508
 3640SOL     OW14557   0.913   4.140   4.172 -0.2461 -0.0185  0.3855
 3640SOL    HW114558   0.954   4.225   4.156 -0.6100  0.2154  0.6827
 3640SOL    HW214559   0.940   4.116   4.260  0.8270 -0.7732 -0.1352
 3640SOL     MW14560   0.921   4.148   4.181 -0.1553 -0.0852  0.3569
 3641SOL     OW14561   2.411   0.517   5.380 -0.5105  0.1767 -0.4937
 3641SOL    HW114562   2.408   0.603   5.337 -0.3793  0.0743 -0.7113
 3641SOL    HW214563   2.363   0.459   5.321  1.0469 -0.3209 -1.3350
 3641SOL     MW14564   2.405   0.520   5.367 -0.2943  0.0999 -0.6293
 3642SOL     OW14565   4.335   1.744   3.950 -0.4622  0.0927  0.2775
 3642SOL    HW114566   4.341   1.833   3.985 -0.7810 -0.0652  0.7311
 3642SOL    HW214567   4.301   1.756   3.861  0.1131  0.4714  0.0980
 3642SOL     MW14568   4.332   1.757   3.943 -0.4294  0.1209  0.3126
 3643SOL     OW14569   1.708   3.529   2.862 -0.0627  0.1751  0.3658
 3643SOL    HW114570   1.707   3.447   2.912 -1.2252 -0.1135 -0.1003
 3643SOL    HW214571   1.728   3.502   2.773  0.8299  0.5575  0.4407
 3643SOL     MW14572   1.711   3.515   2.857 -0.0972  0.1871  0.3157
 3644SOL     OW14573   2.943   2.042   0.789 -0.0433 -0.4572  0.0461
 3644SOL    HW114574   2.865   2.015   0.837 -0.4514 -0.5574 -0.6648
 3644SOL    HW214575   2.937   1.995   0.706 -1.6000  2.9074 -1.9350
 3644SOL     MW14576   2.932   2.033   0.785 -0.2948 -0.0393 -0.2985
 3645SOL     OW14577   4.381   1.374   4.463 -0.2712  0.0655 -0.0011
 3645SOL    HW114578   4.375   1.284   4.493 -2.1667  0.0400 -0.3388
 3645SOL    HW214579   4.384   1.367   4.368  0.9677  0.3221  0.0089
 3645SOL     MW14580   4.381   1.362   4.455 -0.3552  0.0951 -0.0430
 3646SOL     OW14581   0.027   4.820   4.649  0.8833 -0.4893 -0.1200
 3646SOL    HW114582   0.012   4.726   4.661 -0.1112 -0.1026  2.3412
 3646SOL    HW214583  -0.052   4.851   4.605 -0.1528 -0.4162  1.6795
 3646SOL     MW14584   0.015   4.812   4.645  0.6234 -0.4304  0.4255
 3647SOL     OW14585   2.444   1.644   4.624 -0.1723 -0.5783  0.3529
 3647SOL    HW114586   2.449   1.740   4.621 -0.3004 -0.5568  0.7372
 3647SOL    HW214587   2.433   1.617   4.533 -0.6749 -0.1950  0.2961
 3647SOL     MW14588   2.444   1.653   4.612 -0.2531 -0.5265  0.3948
 3648SOL     OW14589   2.472   2.527   4.807  0.3968  0.0242 -0.1368
 3648SOL    HW114590   2.395   2.473   4.827  1.2114 -0.9105  0.5771
 3648SOL    HW214591   2.545   2.479   4.844  1.3623  0.8226 -0.9503
 3648SOL     MW14592   2.471   2.514   4.814  0.6247  0.0068 -0.1495
 3649SOL     OW14593   3.699   1.463   4.405  0.0276  0.1508 -0.1609
 3649SOL    HW114594   3.757   1.529   4.445  0.3902 -0.5683  0.5287
 3649SOL    HW214595   3.744   1.380   4.419 -0.5785 -0.2821 -0.7359
 3649SOL     MW14596   3.712   1.461   4.412 -0.0036  0.0034 -0.1462
 3650SOL     OW14597   2.603   0.570   0.604  0.4708 -0.8007  0.2879
 3650SOL    HW114598   2.669   0.620   0.651 -0.0932 -0.5401  0.8084
 3650SOL    HW214599   2.620   0.479   0.628  1.4727 -0.8859 -0.6307
 3650SOL     MW14600   2.614   0.565   0.613  0.5269 -0.7782  0.2370
 3651SOL     OW14601   1.408   1.395   0.050 -0.1267 -0.3429 -0.0277
 3651SOL    HW114602   1.319   1.364   0.035 -0.1088 -0.2369 -0.3563
 3651SOL    HW214603   1.447   1.399  -0.037  0.6262 -1.6601  0.2265
 3651SOL     MW14604   1.401   1.392   0.037 -0.0280 -0.4979 -0.0372
 3652SOL     OW14605   2.043   2.411   4.704 -0.2859 -0.8512 -0.2951
 3652SOL    HW114606   2.103   2.363   4.647  0.7300  1.1518 -1.0165
 3652SOL    HW214607   2.041   2.500   4.667 -0.9777  0.0544  1.7634
 3652SOL     MW14608   2.051   2.417   4.692 -0.2444 -0.4789 -0.1239
 3653SOL     OW14609   2.395   1.934   2.283  0.1210 -0.5804 -0.4164
 3653SOL    HW114610   2.347   1.895   2.357 -2.5684 -0.0052 -1.7322
 3653SOL    HW214611   2.386   2.028   2.295  0.4927 -0.4678 -0.9694
 3653SOL     MW14612   2.388   1.941   2.294 -0.1757 -0.4923 -0.6556
 3654SOL     OW14613   1.397   1.987   5.375 -0.7738 -0.1864  0.0896
 3654SOL    HW114614   1.375   2.050   5.445 -0.6375 -0.1272  0.0798
 3654SOL    HW214615   1.343   2.014   5.301  2.1944  2.5467 -1.3343
 3654SOL     MW14616   1.387   1.999   5.375 -0.3764  0.1710 -0.0939
 3655SOL     OW14617   2.878   3.543   3.748  0.1928  0.2381 -0.2632
 3655SOL    HW114618   2.933   3.620   3.762  0.7836 -0.2996  0.4072
 3655SOL    HW214619   2.940   3.472   3.732 -0.3563 -0.0005 -1.4737
 3655SOL     MW14620   2.893   3.544   3.748  0.1982  0.1387 -0.3323
 3656SOL     OW14621   1.765   0.443   1.293 -0.4226 -0.3333 -0.9088
 3656SOL    HW114622   1.721   0.401   1.367 -0.3517  1.0557 -0.0247
 3656SOL    HW214623   1.852   0.465   1.326 -1.1576  2.3958 -0.5542
 3656SOL     MW14624   1.770   0.441   1.307 -0.5076  0.1939 -0.7502
 3657SOL     OW14625   4.798   4.782   5.052 -0.4336 -0.2321 -0.1247
 3657SOL    HW114626   4.724   4.795   5.112 -0.0097 -1.9064  0.8372
 3657SOL    HW214627   4.853   4.718   5.096 -0.2421 -1.7684 -2.4188
 3657SOL     MW14628   4.795   4.775   5.065 -0.3548 -0.6431 -0.2953
 3658SOL     OW14629   1.240   4.932   0.506  0.2872 -0.3826  0.5282
 3658SOL    HW114630   1.146   4.923   0.523 -0.1163  1.6763 -0.3178
 3658SOL    HW214631   1.280   4.857   0.550 -1.7920 -1.6023  0.4612
 3658SOL     MW14632   1.233   4.921   0.513 -0.0306 -0.2752  0.4113
 3659SOL     OW14633   1.832   5.360   3.589  0.0174 -0.1164 -0.1395
 3659SOL    HW114634   1.789   5.340   3.672 -0.2868 -0.7341 -0.4413
 3659SOL    HW214635   1.865   5.449   3.601 -1.1642  0.3005  0.1861
 3659SOL     MW14636   1.830   5.369   3.601 -0.1728 -0.1421 -0.1365
 3660SOL     OW14637   5.244   2.060   2.342 -0.5100 -0.1039  0.0162
 3660SOL    HW114638   5.281   2.138   2.384 -0.7457  1.6260 -2.7759
 3660SOL    HW214639   5.159   2.088   2.310 -0.3960 -1.3467 -1.5089
 3660SOL     MW14640   5.238   2.073   2.344 -0.5256 -0.0415 -0.5365
 3661SOL     OW14641   5.039   5.139   1.041  0.6511 -0.6454 -0.8053
 3661SOL    HW114642   5.050   5.044   1.037 -0.1689 -0.8543  0.9093
 3661SOL    HW214643   5.128   5.173   1.055  0.9891 -1.1166 -1.7270
 3661SOL     MW14644   5.052   5.131   1.043  0.5894 -0.7324 -0.7038
 3662SOL     OW14645   4.736   2.940   2.631  0.1000 -0.3367 -0.2241
 3662SOL    HW114646   4.661   2.906   2.583 -1.5532  0.1320  1.9169
 3662SOL    HW214647   4.801   2.870   2.626 -0.6562 -0.9796 -1.6500
 3662SOL     MW14648   4.735   2.927   2.624 -0.2084 -0.3590 -0.1326
 3663SOL     OW14649   1.080   0.987   5.219 -0.8705  0.1370 -0.3145
 3663SOL    HW114650   1.087   0.915   5.156  0.9130 -1.3422  1.4416
 3663SOL    HW214651   0.987   1.010   5.219 -1.4543 -1.9828 -1.1787
 3663SOL     MW14652   1.069   0.980   5.211 -0.7169 -0.3237 -0.2003
 3664SOL     OW14653   2.044   3.662   1.653  0.3463 -0.1425 -0.4309
 3664SOL    HW114654   1.999   3.744   1.674  0.3469  0.0789 -1.2361
 3664SOL    HW214655   2.115   3.689   1.594  0.5083 -0.6878 -0.4864
 3664SOL     MW14656   2.047   3.676   1.648  0.3671 -0.1840 -0.5411
 3665SOL     OW14657   2.629   0.507   2.142  0.3160  0.2356 -0.3366
 3665SOL    HW114658   2.643   0.434   2.202 -2.0030 -0.8036 -0.9431
 3665SOL    HW214659   2.610   0.582   2.199 -0.4233 -0.3910  0.2632
 3665SOL     MW14660   2.629   0.507   2.157 -0.0755  0.0223 -0.3375
 3666SOL     OW14661   1.873   4.459   1.739  0.1367  0.5677  0.5112
 3666SOL    HW114662   1.941   4.478   1.804 -0.1368  0.1589  0.9169
 3666SOL    HW214663   1.906   4.382   1.692  0.2174  0.7120  0.3303
 3666SOL     MW14664   1.886   4.452   1.741  0.1120  0.5338  0.5400
 3667SOL     OW14665   2.879   5.241   3.127  0.4324  0.1873 -0.2971
 3667SOL    HW114666   2.832   5.162   3.102 -1.5213  0.2609  2.6133
 3667SOL    HW214667   2.904   5.282   3.045  0.9574 -3.0725 -1.9190
 3667SOL     MW14668   2.876   5.236   3.114  0.2495 -0.2206 -0.1321
 3668SOL     OW14669   3.648   5.322   1.196 -0.2066 -0.0413  0.4839
 3668SOL    HW114670   3.647   5.240   1.246  0.8123 -2.3157 -2.9111
 3668SOL    HW214671   3.561   5.327   1.156 -0.4472  0.8835  1.0851
 3668SOL     MW14672   3.637   5.313   1.197 -0.1069 -0.2140  0.1262
 3669SOL     OW14673   2.800   0.313   0.899  0.3100  0.5206 -0.2557
 3669SOL    HW114674   2.850   0.260   0.961  0.3971 -1.0019 -1.5627
 3669SOL    HW214675   2.767   0.386   0.951  0.2358 -0.7742  1.6178
 3669SOL     MW14676   2.802   0.315   0.913  0.3116  0.1600 -0.1832
 3670SOL     OW14677   2.649   1.020   3.461  0.1169  0.3513 -0.3279
 3670SOL    HW114678   2.631   0.929   3.437 -1.3450  0.4805  0.2038
 3670SOL    HW214679   2.620   1.070   3.385 -0.8907  0.5003  0.1532
 3670SOL     MW14680   2.643   1.014   3.448 -0.1992  0.3869 -0.1983
 3671SOL     OW14681   2.365   2.780   1.968  0.0836  0.1022 -0.2249
 3671SOL    HW114682   2.374   2.875   1.979  1.8418 -0.2078  1.4736
 3671SOL    HW214683   2.417   2.760   1.890 -2.6455  0.8094 -2.3894
 3671SOL     MW14684   2.373   2.790   1.959 -0.0406  0.1530 -0.2846
 3672SOL     OW14685   4.246   2.455   4.716  0.1651  0.3894 -0.1137
 3672SOL    HW114686   4.283   2.370   4.740  1.3855  0.8900 -0.1533
 3672SOL    HW214687   4.218   2.493   4.799 -1.2163 -0.4085 -0.1903
 3672SOL     MW14688   4.247   2.449   4.730  0.1445  0.3513 -0.1286
 3673SOL     OW14689   3.895   3.516   4.250  0.2199  0.3522 -0.6698
 3673SOL    HW114690   3.850   3.591   4.289 -0.1229  0.8503 -1.9679
 3673SOL    HW214691   3.944   3.476   4.323  1.4286  2.5567 -0.2046
 3673SOL     MW14692   3.895   3.520   4.265  0.3308  0.6982 -0.7764
 3674SOL     OW14693   0.359   0.042   4.458 -0.3058  0.5332  0.8980
 3674SOL    HW114694   0.419   0.075   4.392 -0.2106 -0.7323  0.3305
 3674SOL    HW214695   0.396   0.072   4.541  0.8021  0.2441  0.5220
 3674SOL     MW14696   0.371   0.050   4.460 -0.1518  0.3342  0.7772
 3675SOL     OW14697   0.760   0.832   2.978  0.0992 -0.8379 -0.1163
 3675SOL    HW114698   0.749   0.801   2.888 -0.2818  0.1445 -0.4268
 3675SOL    HW214699   0.738   0.926   2.974  1.0297 -0.5616  0.8098
 3675SOL     MW14700   0.755   0.840   2.966  0.1695 -0.6768 -0.0375
 3676SOL     OW14701   1.844   0.843   0.414  0.2110  0.1133 -0.0758
 3676SOL    HW114702   1.842   0.759   0.368  0.4542  0.4293 -0.6747
 3676SOL    HW214703   1.756   0.879   0.404 -0.0219 -0.2567  0.5527
 3676SOL     MW14704   1.833   0.837   0.407  0.2123  0.1064 -0.0720
 3677SOL     OW14705   5.356   4.530   3.920  0.5420  1.0384 -0.1799
 3677SOL    HW114706   5.323   4.573   3.999  0.4238  1.2680 -0.3532
 3677SOL    HW214707   5.411   4.458   3.953 -0.1808  0.6115  0.1072
 3677SOL     MW14708   5.359   4.527   3.934  0.4343  1.0132 -0.1654
 3678SOL     OW14709   2.736   5.026   3.049 -0.2313 -0.0908 -0.1923
 3678SOL    HW114710   2.793   4.953   3.025  0.2407  0.2785 -0.2104
 3678SOL    HW214711   2.660   4.984   3.089  0.5798 -0.5479  0.9381
 3678SOL     MW14712   2.734   5.011   3.051 -0.0671 -0.1020 -0.0499
 3679SOL     OW14713   5.050   3.985   1.266  0.2043  0.0989  0.4269
 3679SOL    HW114714   5.105   3.919   1.224 -0.3875 -0.1926  0.0970
 3679SOL    HW214715   4.982   3.935   1.310 -1.7435  0.5001 -1.8847
 3679SOL     MW14716   5.048   3.970   1.266 -0.1208  0.1129  0.0888
 3680SOL     OW14717   2.518   5.331   4.324  0.0003 -0.0241 -0.1410
 3680SOL    HW114718   2.464   5.382   4.385  0.2038 -2.0711  1.8822
 3680SOL    HW214719   2.608   5.345   4.354 -0.0538 -3.2879  2.0798
 3680SOL     MW14720   2.523   5.340   4.336  0.0194 -0.7039  0.4023
 3681SOL     OW14721   2.658   3.874   5.310  0.1740 -0.5679 -0.3769
 3681SOL    HW114722   2.736   3.855   5.361 -0.2352  0.7021  0.8043
 3681SOL    HW214723   2.691   3.909   5.227  0.8447 -1.2211 -0.3950
 3681SOL     MW14724   2.672   3.876   5.306  0.2075 -0.4889 -0.2280
 3682SOL     OW14725   3.453   0.366   3.132 -0.2531  0.0644 -0.2785
 3682SOL    HW114726   3.501   0.443   3.103  0.8145 -1.1298 -1.8571
 3682SOL    HW214727   3.520   0.302   3.154 -1.1052 -0.9662 -0.5693
 3682SOL     MW14728   3.467   0.368   3.131 -0.2255 -0.2204 -0.5178
 3683SOL     OW14729   0.334   1.057   1.849 -0.4408 -0.2893  0.1943
 3683SOL    HW114730   0.267   1.068   1.781 -0.5028  0.7768  0.4115
 3683SOL    HW214731   0.287   1.067   1.931  0.0978  1.2930  0.3401
 3683SOL     MW14732   0.320   1.060   1.851 -0.3798  0.0497  0.2408
 3684SOL     OW14733   1.268   2.463   4.039  0.2342 -0.2465  0.4144
 3684SOL    HW114734   1.363   2.451   4.049  0.3037  1.0351  1.5374
 3684SOL    HW214735   1.260   2.543   3.987 -0.2279  0.1384  1.0697
 3684SOL     MW14736   1.279   2.471   4.034  0.1840 -0.0332  0.6420
 3685SOL     OW14737   5.192   4.700   0.855  0.3849 -0.2748 -0.2317
 3685SOL    HW114738   5.155   4.675   0.770  1.9687 -2.5907 -0.3267
 3685SOL    HW214739   5.287   4.693   0.843  0.6374 -1.5993  1.9380
 3685SOL     MW14740   5.199   4.696   0.843  0.6199 -0.7408  0.0339
 3686SOL     OW14741   2.142   2.209   1.449  0.0560  0.0119 -0.0929
 3686SOL    HW114742   2.153   2.115   1.435  0.6370 -0.2679  1.9762
 3686SOL    HW214743   2.194   2.250   1.379  0.0829 -1.2067 -0.7971
 3686SOL     MW14744   2.150   2.203   1.438  0.1338 -0.1799  0.0818
 3687SOL     OW14745   0.810   0.418   3.727 -0.1498  0.2644  0.1138
 3687SOL    HW114746   0.888   0.465   3.756  0.7508 -0.7244 -0.6138
 3687SOL    HW214747   0.844   0.336   3.691 -1.4977  0.0127 -0.6360
 3687SOL     MW14748   0.824   0.413   3.726 -0.2071  0.1056 -0.0753
 3688SOL     OW14749   5.237   3.787   1.802 -0.2937  0.0652  0.0431
 3688SOL    HW114750   5.254   3.867   1.852 -0.2913 -0.5153  1.0095
 3688SOL    HW214751   5.169   3.742   1.852  1.9926 -2.1172  1.4016
 3688SOL     MW14752   5.230   3.791   1.815 -0.0007 -0.2885  0.3407
 3689SOL     OW14753   1.778   4.943   0.850  0.5705 -0.4783 -0.0122
 3689SOL    HW114754   1.811   4.866   0.897 -2.0543 -1.2896  0.6830
 3689SOL    HW214755   1.705   4.973   0.903  0.9220  1.9505 -0.8037
 3689SOL     MW14756   1.773   4.937   0.863  0.2795 -0.2712 -0.0245
 3690SOL     OW14757   4.585   3.556   0.240 -0.0455  0.0595 -0.4822
 3690SOL    HW114758   4.515   3.605   0.283 -0.2732 -1.9560  1.6615
 3690SOL    HW214759   4.545   3.522   0.160 -0.7345  0.9698 -0.5400
 3690SOL     MW14760   4.571   3.558   0.236 -0.1628 -0.0819 -0.2152
 3691SOL     OW14761   3.652   2.845   0.261  0.0055  0.5996 -0.8807
 3691SOL    HW114762   3.581   2.814   0.317  2.1983 -0.5978  1.4570
 3691SOL    HW214763   3.628   2.817   0.173 -2.5914  0.6656 -0.2614
 3691SOL     MW14764   3.640   2.838   0.257 -0.0462  0.4547 -0.5022
 3692SOL     OW14765   4.900   4.982   3.167 -0.0846 -1.1276 -1.0517
 3692SOL    HW114766   4.956   4.988   3.245 -0.3665 -0.2999 -0.9017
 3692SOL    HW214767   4.935   5.048   3.108 -0.4342 -1.1361 -1.2687
 3692SOL     MW14768   4.912   4.991   3.169 -0.1654 -1.0227 -1.0603
 3693SOL     OW14769   2.457   4.604   4.893  0.3360 -0.4627 -0.2071
 3693SOL    HW114770   2.361   4.602   4.883  0.1967 -0.8434  1.0868
 3693SOL    HW214771   2.488   4.533   4.836 -0.0209  0.5609 -1.7305
 3693SOL     MW14772   2.448   4.594   4.884  0.2725 -0.3804 -0.2365
 3694SOL     OW14773   5.257   1.282   2.127  0.2830  0.4625 -0.1657
 3694SOL    HW114774   5.305   1.319   2.201  0.6615  1.1040 -0.7146
 3694SOL    HW214775   5.317   1.219   2.089  1.0939  1.8961 -1.3842
 3694SOL     MW14776   5.271   1.279   2.132  0.4353  0.7281 -0.3919
 3695SOL     OW14777   2.377   5.418   5.160 -0.7650  0.7165 -0.8902
 3695SOL    HW114778   2.464   5.378   5.165 -0.2652  1.7375 -1.1452
 3695SOL    HW214779   2.335   5.393   5.243 -0.4622 -0.2756 -1.0193
 3695SOL     MW14780   2.382   5.409   5.171 -0.6622  0.7202 -0.9393
 3696SOL     OW14781   2.407   1.301   3.536  0.1459 -0.4939 -0.1443
 3696SOL    HW114782   2.415   1.281   3.630  1.2016  1.0681  0.1303
 3696SOL    HW214783   2.335   1.245   3.506 -0.5329 -0.6854  1.6969
 3696SOL     MW14784   2.399   1.291   3.544  0.1941 -0.3184  0.1266
 3697SOL     OW14785   4.663   4.275   1.649 -0.2346 -0.9762 -0.0956
 3697SOL    HW114786   4.720   4.254   1.574 -2.7024 -0.1881 -2.3473
 3697SOL    HW214787   4.700   4.354   1.686  2.5342 -2.7486  1.2853
 3697SOL     MW14788   4.675   4.282   1.644 -0.1961 -1.1022 -0.2070
 3698SOL     OW14789   2.403   1.847   0.649  0.1734 -0.0748  0.1294
 3698SOL    HW114790   2.398   1.770   0.707  0.3561 -0.7790 -0.7730
 3698SOL    HW214791   2.342   1.827   0.578  1.7650 -0.3496 -1.2113
 3698SOL     MW14792   2.395   1.834   0.648  0.4005 -0.2001 -0.1577
 3699SOL     OW14793   4.594   2.976   5.199  0.8117  0.0343  0.2003
 3699SOL    HW114794   4.652   3.052   5.207 -1.1043  1.5326  0.5271
 3699SOL    HW214795   4.585   2.943   5.289 -0.9516  1.5185  0.6330
 3699SOL     MW14796   4.600   2.982   5.212  0.3407  0.4161  0.2975
 3700SOL     OW14797   3.629   3.872   3.735  0.0926  0.0466 -0.9175
 3700SOL    HW114798   3.714   3.830   3.737 -0.0140 -0.2498  2.1951
 3700SOL    HW214799   3.607   3.877   3.642  3.3669 -0.0305 -1.8162
 3700SOL     MW14800   3.637   3.867   3.724  0.4981 -0.0012 -0.6341
 3701SOL     OW14801   5.441   3.522   5.151 -0.5080 -0.2417  0.4399
 3701SOL    HW114802   5.515   3.487   5.201 -0.7070 -1.5365 -0.1339
 3701SOL    HW214803   5.404   3.589   5.208  1.1829  0.5504  0.6721
 3701SOL     MW14804   5.446   3.526   5.165 -0.3170 -0.3060  0.3962
 3702SOL     OW14805   0.983   4.395   4.157 -0.0077  0.3451 -0.1775
 3702SOL    HW114806   0.937   4.419   4.238  0.8631 -1.4539  0.9063
 3702SOL    HW214807   1.075   4.410   4.177  0.4335 -2.2385  0.0109
 3702SOL     MW14808   0.989   4.400   4.170  0.1603 -0.2159 -0.0147
 3703SOL     OW14809   2.151   1.505   3.141 -0.7110  0.0448  0.1024
 3703SOL    HW114810   2.157   1.593   3.178  0.2169 -0.5573  1.4396
 3703SOL    HW214811   2.227   1.498   3.083  1.0136 -0.8935  2.3451
 3703SOL     MW14812   2.161   1.515   3.138 -0.3715 -0.1524  0.5607
 3704SOL     OW14813   3.079   0.349   1.735 -0.3616 -0.0321  0.2592
 3704SOL    HW114814   3.041   0.328   1.649  0.9766  0.7135 -0.5306
 3704SOL    HW214815   3.116   0.436   1.725  0.6964 -0.3400  1.2977
 3704SOL     MW14816   3.079   0.357   1.723 -0.0548  0.0239  0.2910
 3705SOL     OW14817   0.150   3.929   2.150  0.4304  0.6134  0.0942
 3705SOL    HW114818   0.097   3.854   2.178 -1.0889  1.0124 -1.4696
 3705SOL    HW214819   0.219   3.890   2.096  0.4644  0.2276  0.4127
 3705SOL     MW14820   0.152   3.914   2.146  0.2403  0.6151 -0.0652
 3706SOL     OW14821   0.459   1.544   0.351 -0.0752  0.3655 -0.3328
 3706SOL    HW114822   0.391   1.581   0.295  1.7480  1.8718 -1.6722
 3706SOL    HW214823   0.509   1.487   0.293  0.3114 -0.0820  0.4265
 3706SOL     MW14824   0.456   1.542   0.336  0.2077  0.5011 -0.4070
 3707SOL     OW14825   4.492   4.815   0.150 -0.4743 -0.0784  0.1014
 3707SOL    HW114826   4.539   4.877   0.206 -2.4704  0.1905  1.5966
 3707SOL    HW214827   4.560   4.768   0.104  1.2111  0.9810  1.3938
 3707SOL     MW14828   4.506   4.817   0.151 -0.5141  0.0917  0.4582
 3708SOL     OW14829   4.518   3.525   5.002 -0.0155 -0.6321 -0.2300
 3708SOL    HW114830   4.424   3.536   5.016  0.0762 -1.0231  0.7666
 3708SOL    HW214831   4.529   3.430   4.994  0.1486 -0.5205 -1.5304
 3708SOL     MW14832   4.507   3.514   5.003  0.0172 -0.6679 -0.2689
 3709SOL     OW14833   1.039   4.668   3.385  0.4466 -0.1361 -0.2023
 3709SOL    HW114834   1.104   4.598   3.385  0.6797  0.0724  0.2586
 3709SOL    HW214835   1.064   4.724   3.312  0.5798 -0.2432 -0.2395
 3709SOL     MW14836   1.051   4.666   3.376  0.4935 -0.1231 -0.1481
 3710SOL     OW14837   4.063   2.954   2.741 -0.0112 -0.1756 -0.2769
 3710SOL    HW114838   4.103   2.972   2.826  0.2233 -0.7983 -0.2514
 3710SOL    HW214839   4.078   3.034   2.690  0.4292 -0.0501  0.0461
 3710SOL     MW14840   4.070   2.967   2.745  0.0752 -0.2393 -0.2323
 3711SOL     OW14841   0.034   4.491   1.485  0.6539  0.2356 -0.1219
 3711SOL    HW114842   0.105   4.432   1.461  2.3228  2.7415 -1.9880
 3711SOL    HW214843   0.002   4.524   1.401 -2.9426 -0.8980  0.6513
 3711SOL     MW14844   0.039   4.488   1.471  0.4072  0.4112 -0.2619
 3712SOL     OW14845   1.923   3.434   1.588 -0.2340 -0.5258  0.1460
 3712SOL    HW114846   1.989   3.369   1.567 -0.7715 -0.6709 -1.2023
 3712SOL    HW214847   1.969   3.518   1.587 -0.2778 -0.4770 -2.1088
 3712SOL     MW14848   1.937   3.437   1.585 -0.3084 -0.5381 -0.3152
 3713SOL     OW14849   4.677   0.532   1.137  0.3736  0.1062  0.0360
 3713SOL    HW114850   4.607   0.490   1.187 -1.4937  2.5447 -0.3319
 3713SOL    HW214851   4.757   0.506   1.182 -0.8581 -1.6643  1.3510
 3713SOL     MW14852   4.678   0.523   1.149 -0.0231  0.1917  0.1572
 3714SOL     OW14853   5.130   2.467   3.047  0.4225  0.1546 -0.3760
 3714SOL    HW114854   5.216   2.426   3.059 -0.1233 -0.9901 -0.2133
 3714SOL    HW214855   5.149   2.548   2.999  1.4873 -0.6232 -1.3398
 3714SOL     MW14856   5.143   2.472   3.042  0.4890 -0.0915 -0.4785
 3715SOL     OW14857   4.452   0.041   4.735 -0.7990  0.7783 -0.1796
 3715SOL    HW114858   4.500   0.026   4.816 -1.7625 -0.1348  0.2359
 3715SOL    HW214859   4.503   0.108   4.689 -0.1307  1.1548  1.0774
 3715SOL     MW14860   4.464   0.048   4.739 -0.8368  0.7096  0.0345
 3716SOL     OW14861   1.006   1.037   0.243 -0.6737 -0.4551 -0.2009
 3716SOL    HW114862   1.017   1.131   0.256  0.5136 -0.7071  0.8149
 3716SOL    HW214863   1.036   1.022   0.153 -1.2227  0.1739 -0.4991
 3716SOL     MW14864   1.012   1.047   0.233 -0.5920 -0.4069 -0.1090
 3717SOL     OW14865   2.562   3.204   4.230 -0.3881  0.0639 -0.2638
 3717SOL    HW114866   2.651   3.220   4.200 -0.4730  2.8041  0.6714
 3717SOL    HW214867   2.567   3.121   4.278  1.8524  0.5663  0.4848
 3717SOL     MW14868   2.574   3.195   4.232 -0.1122  0.4790 -0.0482
 3718SOL     OW14869   2.543   3.880   1.293 -0.0217 -0.4653  0.3697
 3718SOL    HW114870   2.624   3.830   1.293 -0.4514 -1.1826 -0.2755
 3718SOL    HW214871   2.480   3.824   1.248 -0.4720  0.7157 -0.5326
 3718SOL     MW14872   2.545   3.867   1.287 -0.1344 -0.4059  0.1716
 3719SOL     OW14873   4.695   4.915   3.919  0.4351 -0.3990 -0.4418
 3719SOL    HW114874   4.664   4.904   3.829 -2.2341 -0.6331  0.4281
 3719SOL    HW214875   4.618   4.896   3.973  1.2924  2.0692  1.8241
 3719SOL     MW14876   4.681   4.911   3.914  0.2032 -0.1130 -0.0403
 3720SOL     OW14877   1.975   4.418   2.354 -0.1799  0.3602  0.2387
 3720SOL    HW114878   1.981   4.513   2.342  1.2470  0.3861  0.9036
 3720SOL    HW214879   1.939   4.406   2.441  2.3431  0.3754  1.3633
 3720SOL     MW14880   1.971   4.428   2.363  0.3257  0.3655  0.4678
 3721SOL     OW14881   3.850   2.157   1.604 -0.0094 -0.0718 -0.2908
 3721SOL    HW114882   3.935   2.123   1.632 -0.0114  0.5013  0.4197
 3721SOL    HW214883   3.849   2.142   1.510  0.5683 -0.7675 -0.1985
 3721SOL     MW14884   3.861   2.150   1.596  0.0643 -0.0874 -0.1880
 3722SOL     OW14885   4.707   1.818   3.053 -0.0300  0.0528  0.3315
 3722SOL    HW114886   4.782   1.822   2.993  1.7402  1.0572  2.4738
 3722SOL    HW214887   4.645   1.881   3.018 -0.5506 -1.7266 -2.2180
 3722SOL     MW14888   4.708   1.826   3.041  0.1300 -0.0464  0.2794
 3723SOL     OW14889   5.178   0.163   0.366  1.0501  0.2978 -0.4507
 3723SOL    HW114890   5.271   0.145   0.354  0.6456 -1.7040 -1.0559
 3723SOL    HW214891   5.139   0.077   0.381 -0.7796  1.0193 -0.7992
 3723SOL     MW14892   5.185   0.149   0.366  0.7641  0.1339 -0.5728
 3724SOL     OW14893   3.169   4.429   5.168  0.7474  0.1164 -0.3071
 3724SOL    HW114894   3.131   4.349   5.132 -1.4433  0.6575  0.6364
 3724SOL    HW214895   3.166   4.492   5.096  0.8200 -0.1397 -0.5346
 3724SOL     MW14896   3.164   4.427   5.154  0.4763  0.1529 -0.2154
 3725SOL     OW14897   4.738   0.250   3.880 -0.1191 -0.6302 -0.2421
 3725SOL    HW114898   4.780   0.286   3.802 -0.2376 -0.4767 -0.2348
 3725SOL    HW214899   4.811   0.229   3.939 -0.1164  1.6793  0.6737
 3725SOL     MW14900   4.753   0.252   3.878 -0.1339 -0.3149 -0.1239
 3726SOL     OW14901   4.916   4.746   3.975  0.1325 -0.3823  0.1995
 3726SOL    HW114902   4.997   4.759   3.926  0.3792 -0.7991  0.4894
 3726SOL    HW214903   4.854   4.807   3.935 -0.1459 -1.7902 -1.7146
 3726SOL     MW14904   4.919   4.755   3.963  0.1284 -0.6159 -0.0084
 3727SOL     OW14905   4.866   1.549   4.037 -0.0135 -0.4104 -0.1465
 3727SOL    HW114906   4.800   1.496   4.081 -0.9236  0.5837 -0.2592
 3727SOL    HW214907   4.846   1.639   4.064  0.5437  0.0268 -1.1293
 3727SOL     MW14908   4.855   1.554   4.046 -0.0587 -0.2272 -0.2867
 3728SOL     OW14909   1.932   3.149   2.062 -0.4144  0.3851 -0.0695
 3728SOL    HW114910   1.989   3.096   2.007  0.8214  0.0459  1.4589
 3728SOL    HW214911   1.865   3.088   2.094 -0.8216  0.4656 -0.7546
 3728SOL     MW14912   1.931   3.134   2.059 -0.3083  0.3520  0.0385
 3729SOL     OW14913   3.334   0.689   3.149  0.6233 -0.5750 -0.6568
 3729SOL    HW114914   3.353   0.731   3.233 -0.5469  0.2121 -0.7650
 3729SOL    HW214915   3.379   0.605   3.155  1.7257  0.0331  0.1903
 3729SOL     MW14916   3.342   0.684   3.161  0.6146 -0.3964 -0.5622
 3730SOL     OW14917   0.314   0.759   2.728 -0.2023 -0.7685 -0.3223
 3730SOL    HW114918   0.321   0.664   2.723 -1.2563 -0.8510 -0.4451
 3730SOL    HW214919   0.225   0.779   2.698  0.2893  0.3258 -1.1136
 3730SOL     MW14920   0.303   0.750   2.724 -0.2743 -0.6390 -0.4393
 3731SOL     OW14921   0.692   3.929   0.496 -0.2574  0.2435  0.2188
 3731SOL    HW114922   0.634   3.856   0.519 -1.5164  1.4151  0.9283
 3731SOL    HW214923   0.780   3.896   0.514 -0.3500 -2.4851 -3.2470
 3731SOL     MW14924   0.696   3.915   0.501 -0.4304  0.0442 -0.1341
 3732SOL     OW14925   4.429   3.006   4.045 -0.1046  0.2292 -0.8217
 3732SOL    HW114926   4.384   2.933   4.002 -1.1204  1.6194 -2.2645
 3732SOL    HW214927   4.520   2.997   4.020 -0.1765 -0.6848 -0.7734
 3732SOL     MW14928   4.435   2.996   4.037 -0.2438  0.2902 -1.0002
 3733SOL     OW14929   4.793   2.778   5.154 -0.5320 -0.5349  0.0747
 3733SOL    HW114930   4.755   2.696   5.183 -1.1891 -0.3670 -0.3052
 3733SOL    HW214931   4.722   2.842   5.161 -0.4014 -0.2716 -0.8852
 3733SOL     MW14932   4.779   2.776   5.158 -0.5994 -0.4797 -0.0968
 3734SOL     OW14933   5.291   3.513   0.618  0.1044  0.5234 -0.1332
 3734SOL    HW114934   5.367   3.558   0.580  1.0923  0.8058  2.0212
 3734SOL    HW214935   5.224   3.582   0.625  0.2898  0.7285 -0.3482
 3734SOL     MW14936   5.292   3.528   0.614  0.2546  0.5858  0.1151
 3735SOL     OW14937   1.379   3.951   4.612 -0.5010  0.1885  0.3272
 3735SOL    HW114938   1.467   3.926   4.640 -0.6129  0.1817  0.6761
 3735SOL    HW214939   1.371   3.916   4.524 -1.8508 -3.9493  1.8755
 3735SOL     MW14940   1.389   3.943   4.604 -0.6881 -0.3420  0.5700
 3736SOL     OW14941   1.155   5.232   3.352  0.1246 -0.8171  0.3011
 3736SOL    HW114942   1.105   5.299   3.400 -0.8423 -2.4598  1.7102
 3736SOL    HW214943   1.129   5.244   3.261 -1.7176 -0.6298  0.8008
 3736SOL     MW14944   1.145   5.242   3.347 -0.2350 -1.0034  0.5455
 3737SOL     OW14945   3.030   4.509   0.919 -0.0007  0.5023  0.2675
 3737SOL    HW114946   3.036   4.544   1.008 -0.7866  2.3561 -0.3743
 3737SOL    HW214947   2.937   4.488   0.908  0.0501  0.5324 -0.2238
 3737SOL     MW14948   3.019   4.511   0.929 -0.0948  0.7434  0.1225
 3738SOL     OW14949   2.212   3.165   5.099 -0.2331  0.0655 -0.4267
 3738SOL    HW114950   2.197   3.258   5.084  0.2551  0.3326  0.6712
 3738SOL    HW214951   2.276   3.162   5.169 -0.0399 -1.1047 -0.6326
 3738SOL     MW14952   2.218   3.176   5.106 -0.1459 -0.0501 -0.3125
 3739SOL     OW14953   2.041   5.129   0.176 -0.2337  0.5763 -0.0991
 3739SOL    HW114954   2.009   5.089   0.096 -1.2756  3.8530 -1.4603
 3739SOL    HW214955   1.969   5.122   0.238 -0.9384  1.5167 -0.7901
 3739SOL     MW14956   2.028   5.123   0.174 -0.4573  1.1161 -0.3618
 3740SOL     OW14957   0.972   0.877   4.119 -0.5257  0.2556 -0.5763
 3740SOL    HW114958   1.001   0.967   4.102 -1.9617  0.6566 -1.0478
 3740SOL    HW214959   0.925   0.852   4.039 -0.9967 -0.5469 -0.0523
 3740SOL     MW14960   0.970   0.885   4.106 -0.7698  0.2042 -0.5696
 3741SOL     OW14961   4.708   3.028   4.405 -0.7079  0.2570 -0.8929
 3741SOL    HW114962   4.729   2.968   4.476  0.2802  0.2266 -1.1921
 3741SOL    HW214963   4.691   2.972   4.329 -4.0526  0.1461 -0.2190
 3741SOL     MW14964   4.708   3.013   4.404 -1.0096  0.2389 -0.8449
 3742SOL     OW14965   2.280   0.780   2.111 -0.4025  0.2974 -0.7021
 3742SOL    HW114966   2.362   0.786   2.063  0.7347  0.3547  1.1656
 3742SOL    HW214967   2.266   0.868   2.146 -0.4711 -0.0782  0.2267
 3742SOL     MW14968   2.289   0.792   2.109 -0.2657  0.2567 -0.3441
 3743SOL     OW14969   2.587   3.128   3.548  0.3211 -0.1200  0.4837
 3743SOL    HW114970   2.539   3.211   3.546  0.9407  0.2386 -0.0616
 3743SOL    HW214971   2.560   3.083   3.469 -0.0000 -0.4324  0.7711
 3743SOL     MW14972   2.577   3.133   3.538  0.3593 -0.1141  0.4507
 3744SOL     OW14973   5.364   0.502   3.258  0.1396  0.2331 -0.2885
 3744SOL    HW114974   5.370   0.597   3.252 -0.5687  0.4921  2.0929
 3744SOL    HW214975   5.289   0.486   3.316  0.1189 -1.7860 -0.7895
 3744SOL     MW14976   5.355   0.512   3.265  0.0463  0.0078 -0.0478
 3745SOL     OW14977   3.920   0.918   4.245  0.3894 -0.5913  0.6514
 3745SOL    HW114978   3.986   0.909   4.176  0.4910  1.4678  0.4324
 3745SOL    HW214979   3.877   1.001   4.226 -0.2417 -0.4467  2.5424
 3745SOL     MW14980   3.923   0.927   4.233  0.3216 -0.3092  0.8654
 3746SOL     OW14981   3.005   0.730   4.694 -0.4298  0.5608 -0.6229
 3746SOL    HW114982   3.098   0.745   4.712 -0.7087  0.0636  1.6133
 3746SOL    HW214983   2.962   0.811   4.721 -0.6394  0.9347 -2.0151
 3746SOL     MW14984   3.012   0.742   4.700 -0.4923  0.5450 -0.5148
 3747SOL     OW14985   1.856   4.086   1.372 -0.0317  0.1587 -0.2917
 3747SOL    HW114986   1.893   4.127   1.294 -1.0582  1.0287 -0.3411
 3747SOL    HW214987   1.884   4.142   1.445 -1.0818  0.7397 -0.3137
 3747SOL     MW14988   1.864   4.098   1.371 -0.2975  0.3445 -0.3008
 3748SOL     OW14989   1.737   0.121   1.352  0.2715 -0.5716  0.1395
 3748SOL    HW114990   1.833   0.115   1.358  0.5154 -0.9561 -2.7149
 3748SOL    HW214991   1.720   0.143   1.261 -2.3537  1.3179  0.9527
 3748SOL     MW14992   1.747   0.123   1.341 -0.0334 -0.3790 -0.1218
 3749SOL     OW14993   2.851   1.077   4.244 -0.7264  0.0448 -0.3365
 3749SOL    HW114994   2.793   1.148   4.271  0.0468  1.1062 -1.3506
 3749SOL    HW214995   2.936   1.100   4.280  0.0726  0.9159 -2.5842
 3749SOL     MW14996   2.855   1.089   4.252 -0.5251  0.2922 -0.7541
 3750SOL     OW14997   3.862   1.421   3.076 -0.0866  0.4966 -0.0342
 3750SOL    HW114998   3.878   1.327   3.067  0.2679  0.7193 -2.3187
 3750SOL    HW214999   3.768   1.428   3.095 -0.7755 -0.2650 -2.7768
 3750SOL     MW15000   3.852   1.410   3.078 -0.1294  0.4277 -0.6777
 3751SOL     OW15001   3.006   1.838   4.211  0.3351  0.0075 -0.6773
 3751SOL    HW115002   3.059   1.902   4.162 -0.2210  3.2171  2.4714
 3751SOL    HW215003   2.926   1.830   4.160  1.9639 -1.5126 -3.2299
 3751SOL     MW15004   3.003   1.845   4.198  0.4724  0.2238 -0.6010
 3752SOL     OW15005   0.848   3.461   0.809 -0.0036 -0.3977 -0.3881
 3752SOL    HW115006   0.932   3.507   0.817  0.1922 -0.3440 -2.3356
 3752SOL    HW215007   0.856   3.387   0.869  1.0678  0.1230  0.1498
 3752SOL     MW15008   0.860   3.458   0.818  0.1586 -0.3241 -0.5685
 3753SOL     OW15009   0.044   2.836   1.223 -0.2727 -0.1521 -0.1286
 3753SOL    HW115010   0.058   2.772   1.293  3.1241 -0.2834 -0.7540
 3753SOL    HW215011   0.050   2.784   1.142  0.9987  0.6686 -0.6009
 3753SOL     MW15012   0.047   2.821   1.221  0.3249 -0.0639 -0.2691
 3754SOL     OW15013   4.667   0.157   5.202 -0.4489  0.0223  1.0197
 3754SOL    HW115014   4.648   0.163   5.296  1.9720 -1.8952  1.7516
 3754SOL    HW215015   4.756   0.189   5.194  0.5858 -2.8324 -0.0075
 3754SOL     MW15016   4.676   0.162   5.213 -0.0065 -0.5886  0.9819
 3755SOL     OW15017   5.149   2.746   1.152  0.0288  0.3389  0.4761
 3755SOL    HW115018   5.058   2.727   1.127  0.4762 -0.5211 -0.5521
 3755SOL    HW215019   5.188   2.784   1.074  0.8156 -0.2046  0.5916
 3755SOL     MW15020   5.142   2.748   1.139  0.1868  0.1593  0.3592
 3756SOL     OW15021   1.940   1.602   4.546  0.1944  0.4857  0.3379
 3756SOL    HW115022   1.845   1.604   4.538  0.1909  2.5354  0.4455
 3756SOL    HW215023   1.971   1.659   4.476  1.5960 -2.6790 -1.9018
 3756SOL     MW15024   1.932   1.609   4.536  0.3734  0.3430  0.0649
 3757SOL     OW15025   4.050   3.381   3.497  0.3509  0.1248  0.1386
 3757SOL    HW115026   3.961   3.348   3.487 -0.5998  2.8075 -1.4043
 3757SOL    HW215027   4.106   3.310   3.465 -1.4636 -0.4581 -2.0052
 3757SOL     MW15028   4.046   3.368   3.491 -0.0031  0.3936 -0.3334
 3758SOL     OW15029   5.175   4.179   4.928  0.0433 -0.1314 -0.0677
 3758SOL    HW115030   5.235   4.142   4.992 -0.4089  0.8592  0.9605
 3758SOL    HW215031   5.088   4.150   4.956 -0.0587 -0.7287 -0.9645
 3758SOL     MW15032   5.171   4.171   4.940 -0.0277 -0.0810 -0.0509
 3759SOL     OW15033   5.020   4.098   4.185 -0.1784 -0.1677 -0.1702
 3759SOL    HW115034   5.055   4.156   4.118 -0.0012 -0.3131 -0.2049
 3759SOL    HW215035   5.054   4.012   4.162  1.2182  0.0400  1.0248
 3759SOL     MW15036   5.029   4.094   4.173  0.0231 -0.1597 -0.0217
 3760SOL     OW15037   0.087   2.945   2.783 -0.1300 -0.2337  0.1494
 3760SOL    HW115038   0.126   3.019   2.737 -2.1447 -0.1848 -1.6115
 3760SOL    HW215039   0.109   2.869   2.730  1.4872 -0.8783  1.6741
 3760SOL     MW15040   0.095   2.945   2.771 -0.1809 -0.3100  0.1191
 3761SOL     OW15041   1.425   5.019   3.552 -0.2362 -0.2245 -0.1311
 3761SOL    HW115042   1.495   4.959   3.525  0.6117  0.6305  0.1251
 3761SOL    HW215043   1.352   4.961   3.574  0.4950 -1.1543 -0.0710
 3761SOL     MW15044   1.424   5.004   3.551 -0.0341 -0.2340 -0.0906
 3762SOL     OW15045   3.293   0.867   5.252  0.0710  0.1168 -0.3418
 3762SOL    HW115046   3.201   0.875   5.224 -0.1508  1.5521  0.6781
 3762SOL    HW215047   3.336   0.821   5.180 -1.0596  1.1235 -1.7247
 3762SOL     MW15048   3.287   0.862   5.239 -0.1022  0.4294 -0.3883
 3763SOL     OW15049   0.041   0.287   0.589 -0.0775  0.5901 -0.6026
 3763SOL    HW115050   0.115   0.347   0.595 -1.0994  1.7842  0.9096
 3763SOL    HW215051   0.068   0.221   0.525  3.5625 -0.8064  2.0214
 3763SOL     MW15052   0.054   0.286   0.582  0.2576  0.5642 -0.0731
 3764SOL     OW15053   1.733   2.069   0.259 -0.0738 -0.1512  0.1928
 3764SOL    HW115054   1.642   2.042   0.260 -0.1044 -0.0454  1.1811
 3764SOL    HW215055   1.783   1.988   0.265 -0.0951 -0.2014 -0.2460
 3764SOL     MW15056   1.728   2.055   0.260 -0.0805 -0.1441  0.2632
 3765SOL     OW15057   0.483   3.846   2.567  0.5025 -0.3341 -0.0760
 3765SOL    HW115058   0.473   3.889   2.482 -0.7160  1.1561  0.7895
 3765SOL    HW215059   0.402   3.796   2.578  0.7146 -0.6266  0.1692
 3765SOL     MW15060   0.472   3.845   2.557  0.3737 -0.1808  0.0662
 3766SOL     OW15061   1.650   1.910   3.587 -0.7491 -0.4864  0.2307
 3766SOL    HW115062   1.650   1.851   3.512  4.2162  2.5672 -2.7166
 3766SOL    HW215063   1.715   1.873   3.647  1.2446  0.9487 -0.9214
 3766SOL     MW15064   1.658   1.898   3.585  0.1417  0.0882 -0.2941
 3767SOL     OW15065   0.530   4.959   3.223 -0.0291  0.2314 -0.6447
 3767SOL    HW115066   0.513   5.053   3.230  0.7995  0.3731 -0.3848
 3767SOL    HW215067   0.489   4.921   3.300 -0.6856  0.3239 -0.9376
 3767SOL     MW15068   0.523   4.966   3.234 -0.0071  0.2614 -0.6490
 3768SOL     OW15069   4.756   4.459   3.748  0.8688 -0.0883 -0.0308
 3768SOL    HW115070   4.745   4.365   3.733  0.2085 -0.1901  1.0480
 3768SOL    HW215071   4.720   4.475   3.835  0.1061  1.3311 -0.5707
 3768SOL     MW15072   4.750   4.449   3.757  0.6866  0.0804  0.0382
 3769SOL     OW15073   5.008   0.675   2.549 -0.4847  0.0367  0.1941
 3769SOL    HW115074   5.024   0.741   2.617  2.8888  0.2652 -0.6142
 3769SOL    HW215075   5.014   0.592   2.595  0.0112  0.2306  0.4976
 3769SOL     MW15076   5.011   0.673   2.564  0.0106  0.0908  0.1295
 3770SOL     OW15077   3.101   3.862   0.729 -0.0414  0.2755 -0.2282
 3770SOL    HW115078   3.093   3.931   0.794 -0.1308 -0.9938  1.1618
 3770SOL    HW215079   3.113   3.908   0.646 -0.6159  1.9453  0.5792
 3770SOL     MW15080   3.102   3.877   0.727 -0.1264  0.3267  0.0531
 3771SOL     OW15081   3.534   1.255   1.622  0.3818 -0.2671 -0.0058
 3771SOL    HW115082   3.440   1.277   1.629  0.7087  1.7430 -1.0882
 3771SOL    HW215083   3.541   1.205   1.541  0.5153  1.8815 -1.4253
 3771SOL     MW15084   3.523   1.252   1.613  0.4408  0.2653 -0.3261
 3772SOL     OW15085   5.252   5.255   1.137 -0.1366  0.0252 -0.4627
 3772SOL    HW115086   5.180   5.267   1.199 -0.7892  0.2110 -1.2402
 3772SOL    HW215087   5.329   5.242   1.193 -0.8702 -0.8706  0.3881
 3772SOL     MW15088   5.253   5.255   1.152 -0.3141 -0.0657 -0.4533
 3773SOL     OW15089   0.973   3.263   1.906 -0.4787  0.2057  0.1089
 3773SOL    HW115090   0.964   3.302   1.993  0.2331  3.3439 -1.1127
 3773SOL    HW215091   1.041   3.315   1.863  0.5069 -2.4025 -1.7810
 3773SOL     MW15092   0.981   3.274   1.912 -0.2614  0.2735 -0.2894
 3774SOL     OW15093   2.271   4.008   2.206 -0.3274  0.0214 -0.0021
 3774SOL    HW115094   2.280   3.912   2.203 -0.0890  0.0518 -2.4339
 3774SOL    HW215095   2.298   4.037   2.119 -1.2069  2.2479  0.4043
 3774SOL     MW15096   2.276   3.999   2.194 -0.4094  0.3103 -0.2614
 3775SOL     OW15097   3.090   2.317   1.882  0.0310 -0.0685  0.1207
 3775SOL    HW115098   3.036   2.244   1.851  0.3827 -0.1632 -0.2822
 3775SOL    HW215099   3.171   2.276   1.910 -0.1623  0.0565  0.8686
 3775SOL     MW15100   3.094   2.302   1.881  0.0513 -0.0646  0.1649
 3776SOL     OW15101   2.659   0.883   0.362  0.0995 -0.5061  0.0907
 3776SOL    HW115102   2.642   0.788   0.366 -0.3993 -0.3902  1.0461
 3776SOL    HW215103   2.614   0.911   0.282  0.0041 -1.0320 -0.0500
 3776SOL     MW15104   2.651   0.874   0.352  0.0234 -0.5586  0.1950
 3777SOL     OW15105   4.074   1.325   0.691 -0.3032 -0.4296  0.6294
 3777SOL    HW115106   4.137   1.381   0.645 -0.3772 -0.3392  0.6368
 3777SOL    HW215107   4.065   1.365   0.777 -1.8025  0.6861  0.0059
 3777SOL     MW15108   4.081   1.337   0.696 -0.5046 -0.2752  0.5505
 3778SOL     OW15109   2.720   5.295   1.185 -0.1941  0.2272  0.5164
 3778SOL    HW115110   2.716   5.214   1.235  0.1448  0.7505  1.4094
 3778SOL    HW215111   2.672   5.276   1.104  0.1534 -0.9556  0.5720
 3778SOL     MW15112   2.713   5.282   1.181 -0.1063  0.1428  0.6378
 3779SOL     OW15113   2.890   1.066   4.663 -0.2335  0.4044 -0.3302
 3779SOL    HW115114   2.891   1.153   4.623 -2.3426  0.1647 -1.0058
 3779SOL    HW215115   2.919   1.082   4.753  1.8132  1.3877 -1.0942
 3779SOL     MW15116   2.894   1.079   4.670 -0.2415  0.4996 -0.5145
 3780SOL     OW15117   5.153   2.699   3.977 -0.1521  0.3168  0.2567
 3780SOL    HW115118   5.164   2.613   4.016  0.2394  0.1068 -0.2998
 3780SOL    HW215119   5.242   2.733   3.969 -0.3608  1.1701  1.3340
 3780SOL     MW15120   5.166   2.692   3.981 -0.1287  0.3992  0.3234
 3781SOL     OW15121   5.241   1.013   3.947 -0.1477  0.4489  0.0604
 3781SOL    HW115122   5.170   0.954   3.920  0.7327  0.2619 -2.0405
 3781SOL    HW215123   5.219   1.096   3.906  1.6818 -0.0691 -2.1800
 3781SOL     MW15124   5.229   1.016   3.938  0.1992  0.3586 -0.4953
 3782SOL     OW15125   0.755   1.792   2.355 -0.1151 -0.2568  0.0839
 3782SOL    HW115126   0.688   1.724   2.366  0.0018 -0.6305 -1.3120
 3782SOL    HW215127   0.719   1.869   2.398 -0.4322 -1.0785  1.3450
 3782SOL     MW15128   0.742   1.793   2.362 -0.1407 -0.4098  0.0667
 3783SOL     OW15129   4.169   0.407   2.996 -0.0529 -0.4077  0.0014
 3783SOL    HW115130   4.165   0.411   3.091  1.6536 -2.3705  0.2170
 3783SOL    HW215131   4.182   0.498   2.969 -0.6129  0.1854  1.5999
 3783SOL     MW15132   4.170   0.420   3.005  0.0939 -0.5831  0.2336
 3784SOL     OW15133   1.088   2.534   3.645 -0.2263  0.2857  0.4257
 3784SOL    HW115134   1.054   2.580   3.722 -2.1577 -0.0799 -0.1600
 3784SOL    HW215135   1.076   2.441   3.666 -0.3971  0.1727 -0.1544
 3784SOL     MW15136   1.082   2.528   3.658 -0.4954  0.2244  0.2765
 3785SOL     OW15137   5.485   1.059   1.779  0.3226  0.5722 -0.3949
 3785SOL    HW115138   5.519   1.148   1.781 -0.4775  0.9008 -0.8074
 3785SOL    HW215139   5.402   1.066   1.732 -0.6097 -0.0935  1.0626
 3785SOL     MW15140   5.479   1.071   1.773  0.1008  0.5290 -0.2611
 3786SOL     OW15141   4.939   2.255   0.166  0.4503  0.0277  0.6141
 3786SOL    HW115142   4.845   2.258   0.147  0.3364  1.0745  1.2342
 3786SOL    HW215143   4.976   2.326   0.114  1.2433 -1.6741 -1.2382
 3786SOL     MW15144   4.931   2.264   0.157  0.5373 -0.0561  0.4564
 3787SOL     OW15145   0.198   0.477   3.765  0.2497  0.3760 -0.5779
 3787SOL    HW115146   0.242   0.548   3.811 -0.3248  0.4373 -0.1158
 3787SOL    HW215147   0.199   0.404   3.827  1.5595 -0.2961 -1.3403
 3787SOL     MW15148   0.204   0.476   3.779  0.3439  0.2978 -0.6163
 3788SOL     OW15149   5.303   0.404   0.477  0.2315  0.2815  0.5889
 3788SOL    HW115150   5.346   0.453   0.406  1.0014  0.1651  0.9673
 3788SOL    HW215151   5.362   0.330   0.494  0.3465  0.6209  1.7295
 3788SOL     MW15152   5.316   0.401   0.470  0.3448  0.3100  0.7833
 3789SOL     OW15153   2.345   2.495   2.523  0.0240 -0.0629 -0.0736
 3789SOL    HW115154   2.395   2.413   2.520  1.4227  0.7445  0.0032
 3789SOL    HW215155   2.260   2.473   2.485 -0.3844 -2.0302  1.8089
 3789SOL     MW15156   2.341   2.481   2.518  0.1507 -0.2114  0.1772
 3790SOL     OW15157   3.442   2.080   2.129 -0.8978  0.6652 -0.2929
 3790SOL    HW115158   3.495   2.092   2.208  0.9260 -0.9348 -1.1855
 3790SOL    HW215159   3.435   2.168   2.091 -0.0532  1.1295  0.5908
 3790SOL     MW15160   3.448   2.092   2.134 -0.5562  0.5198 -0.2941
 3791SOL     OW15161   3.144   1.056   0.408 -0.5793 -0.9359 -0.1137
 3791SOL    HW115162   3.154   1.099   0.323 -0.6872 -1.1244 -0.2208
 3791SOL    HW215163   3.089   1.116   0.459 -0.5019 -0.8157 -0.1713
 3791SOL     MW15164   3.138   1.069   0.404 -0.5832 -0.9447 -0.1348
 3792SOL     OW15165   5.334   0.430   0.827  0.0346  0.4759 -0.1877
 3792SOL    HW115166   5.382   0.347   0.826  0.3566  0.6503  0.3422
 3792SOL    HW215167   5.401   0.497   0.838 -0.1899  0.8416 -1.0006
 3792SOL     MW15168   5.348   0.428   0.828  0.0471  0.5450 -0.2239
 3793SOL     OW15169   3.731   1.664   0.142 -0.1818  0.3489  0.7630
 3793SOL    HW115170   3.767   1.714   0.069 -0.8673 -0.4148 -0.1176
 3793SOL    HW215171   3.807   1.632   0.190  0.2706  1.4825  0.8278
 3793SOL     MW15172   3.745   1.667   0.139 -0.2116  0.3962  0.6586
 3794SOL     OW15173   0.915   2.910   3.918  0.4804 -0.4414  0.2996
 3794SOL    HW115174   0.977   2.946   3.981 -1.2288 -0.5996  2.1908
 3794SOL    HW215175   0.904   2.979   3.853 -0.5932  1.3955  2.3051
 3794SOL     MW15176   0.922   2.923   3.918  0.1242 -0.2265  0.7984
 3795SOL     OW15177   4.338   2.708   3.686 -0.0107 -0.0415  0.5934
 3795SOL    HW115178   4.409   2.771   3.701  1.7070 -1.8390  0.5028
 3795SOL    HW215179   4.292   2.741   3.610  0.4332  1.4300  0.9245
 3795SOL     MW15180   4.342   2.721   3.678  0.2660 -0.0832  0.6242
 3796SOL     OW15181   3.845   4.510   1.891 -0.0438 -0.1726  0.2827
 3796SOL    HW115182   3.928   4.470   1.917 -0.1422 -0.4520  0.1632
 3796SOL    HW215183   3.790   4.437   1.864 -0.3767 -0.0006  0.4879
 3796SOL     MW15184   3.849   4.496   1.891 -0.0990 -0.1863  0.2937
 3797SOL     OW15185   0.995   1.415   4.812 -0.3301  0.0468  0.0227
 3797SOL    HW115186   0.924   1.431   4.749 -0.6526 -0.9285  0.1246
 3797SOL    HW215187   0.952   1.373   4.886  0.3096 -0.2868  0.2115
 3797SOL     MW15188   0.980   1.412   4.813 -0.2895 -0.1207  0.0599
 3798SOL     OW15189   1.527   2.011   1.648 -0.6570  0.2336 -0.5375
 3798SOL    HW115190   1.488   1.930   1.616 -1.3874  1.3272 -2.5230
 3798SOL    HW215191   1.454   2.062   1.682 -0.2456  0.2459  0.3741
 3798SOL     MW15192   1.513   2.007   1.649 -0.6978  0.3751 -0.6749
 3799SOL     OW15193   4.386   2.724   0.129 -0.4895  0.0225 -0.2845
 3799SOL    HW115194   4.374   2.770   0.212 -0.6138  0.2495 -0.4284
 3799SOL    HW215195   4.326   2.649   0.135 -0.0441 -0.3056  0.0845
 3799SOL     MW15196   4.377   2.720   0.140 -0.4484  0.0096 -0.2557
 3800SOL     OW15197   1.974   1.631   1.624  0.8535  0.1121  0.3192
 3800SOL    HW115198   2.059   1.615   1.664  1.2012 -3.7287 -1.5409
 3800SOL    HW215199   1.943   1.545   1.598 -2.2264  1.6966 -1.8502
 3800SOL     MW15200   1.981   1.618   1.626  0.5037 -0.1767 -0.1966
 3801SOL     OW15201   2.622   0.744   3.409 -0.3742  0.1041 -0.1132
 3801SOL    HW115202   2.605   0.718   3.318  0.9426 -2.1058  0.2180
 3801SOL    HW215203   2.716   0.759   3.413 -0.2029 -1.1367  1.1685
 3801SOL     MW15204   2.632   0.742   3.398 -0.1837 -0.3376  0.0933
 3802SOL     OW15205   5.434   1.781   2.402  0.1671 -0.1294 -0.0193
 3802SOL    HW115206   5.496   1.726   2.355 -0.4472 -0.8158 -0.0472
 3802SOL    HW215207   5.385   1.827   2.334  0.3866  0.1212 -0.0075
 3802SOL     MW15208   5.436   1.780   2.387  0.1166 -0.1852 -0.0213
 3803SOL     OW15209   4.950   5.063   4.781 -0.6157  0.0979  0.1437
 3803SOL    HW115210   5.000   4.989   4.816 -0.8608 -0.2628 -0.2645
 3803SOL    HW215211   4.926   5.036   4.693  0.1738  1.0754 -0.4017
 3803SOL     MW15212   4.954   5.050   4.775 -0.5460  0.1769  0.0217
 3804SOL     OW15213   0.508   4.822   4.463  0.5130 -0.1908  0.3115
 3804SOL    HW115214   0.547   4.739   4.433  0.2632  0.0975 -0.8870
 3804SOL    HW215215   0.550   4.888   4.408 -1.6882  0.1206 -1.0798
 3804SOL     MW15216   0.519   4.820   4.452  0.1993 -0.1140 -0.0200
 3805SOL     OW15217   4.022   0.530   2.075 -0.6126 -0.0939 -0.3159
 3805SOL    HW115218   4.014   0.435   2.063  0.4482  0.0150 -2.2726
 3805SOL    HW215219   4.092   0.541   2.139 -1.6181 -0.6153  0.9217
 3805SOL     MW15220   4.030   0.519   2.082 -0.6056 -0.1467 -0.4079
 3806SOL     OW15221   2.469   4.298   4.276 -0.2097 -0.0831 -0.0201
 3806SOL    HW115222   2.419   4.378   4.295  0.7989  0.3544  0.9592
 3806SOL    HW215223   2.556   4.330   4.254 -0.1871 -0.8608 -1.1023
 3806SOL     MW15224   2.473   4.312   4.276 -0.0777 -0.1266 -0.0333
 3807SOL     OW15225   0.905   4.026   4.436 -0.0198 -0.2637  0.8200
 3807SOL    HW115226   0.987   4.018   4.485  1.5546 -1.1454 -1.7508
 3807SOL    HW215227   0.867   3.938   4.439  0.8260 -0.7040 -0.6781
 3807SOL     MW15228   0.911   4.014   4.443  0.2900 -0.4329  0.2991
 3808SOL     OW15229   5.385   4.830   1.103  0.3104 -0.4145 -0.4374
 3808SOL    HW115230   5.291   4.830   1.123  0.7677  0.3204  2.0314
 3808SOL    HW215231   5.392   4.779   1.022 -2.2130 -0.3998 -0.7432
 3808SOL     MW15232   5.374   4.823   1.095  0.0459 -0.3185 -0.1605
 3809SOL     OW15233   2.901   4.837   1.803 -0.4080  0.0380  0.2432
 3809SOL    HW115234   2.991   4.868   1.792 -0.2329 -1.1276 -2.0953
 3809SOL    HW215235   2.851   4.886   1.738 -1.7238  1.3674  2.1344
 3809SOL     MW15236   2.906   4.847   1.793 -0.5540  0.0590  0.1859
 3810SOL     OW15237   3.216   0.071   5.331 -0.6177 -0.0853 -0.2583
 3810SOL    HW115238   3.192   0.158   5.360  0.7037  0.2174 -0.0067
 3810SOL    HW215239   3.202   0.015   5.407  0.0431  0.1924  0.0715
 3810SOL     MW15240   3.211   0.075   5.344 -0.3639 -0.0110 -0.1838
 3811SOL     OW15241   1.182   4.477   3.753  0.9270  0.1437 -0.1647
 3811SOL    HW115242   1.247   4.480   3.683  0.4271 -0.5579 -0.6689
 3811SOL    HW215243   1.224   4.520   3.827  1.5598  0.6511 -0.8163
 3811SOL     MW15244   1.196   4.483   3.754  0.9440  0.1189 -0.3127
 3812SOL     OW15245   4.717   4.454   2.987  0.0915  0.1988  0.3377
 3812SOL    HW115246   4.667   4.476   2.909 -0.6505  0.6916  0.9321
 3812SOL    HW215247   4.717   4.358   2.989  2.4045  0.0800 -1.6759
 3812SOL     MW15248   4.710   4.444   2.977  0.2926  0.2467  0.1560
 3813SOL     OW15249   0.999   3.259   5.254 -0.6668 -0.2758 -0.0566
 3813SOL    HW115250   1.053   3.245   5.176 -1.8196  0.7063 -1.0703
 3813SOL    HW215251   1.052   3.314   5.311 -0.4654  0.3995 -0.8898
 3813SOL     MW15252   1.013   3.264   5.251 -0.7886 -0.0636 -0.2930
 3814SOL     OW15253   1.780   4.137   2.712 -0.3213  0.0962  0.1322
 3814SOL    HW115254   1.824   4.143   2.796 -0.2855 -1.2920  0.2282
 3814SOL    HW215255   1.777   4.043   2.692  0.5655  0.4433 -1.8742
 3814SOL     MW15256   1.785   4.126   2.720 -0.2032 -0.0371 -0.1124
 3815SOL     OW15257   4.422   1.717   4.699 -0.3145 -0.0715  0.0040
 3815SOL    HW115258   4.374   1.799   4.686  0.6378  0.2410 -1.8241
 3815SOL    HW215259   4.361   1.649   4.672 -0.8966  0.0673  0.9431
 3815SOL     MW15260   4.408   1.719   4.694 -0.2671 -0.0137 -0.1098
 3816SOL     OW15261   0.071   4.744   2.659  0.1093 -0.2225 -0.3267
 3816SOL    HW115262   0.034   4.798   2.728  0.7315 -0.3770  0.1322
 3816SOL    HW215263   0.037   4.656   2.676  2.1264 -0.7673  1.2167
 3816SOL     MW15264   0.062   4.739   2.670  0.4472 -0.3120 -0.0704
 3817SOL     OW15265   5.019   4.084   2.807 -0.1515  0.7915 -0.2202
 3817SOL    HW115266   5.017   3.990   2.825 -2.5158  1.1109  1.7491
 3817SOL    HW215267   4.964   4.095   2.730 -0.6815  0.6585  0.1378
 3817SOL     MW15268   5.012   4.073   2.800 -0.5220  0.8153  0.0777
 3818SOL     OW15269   0.583   5.213   1.963 -0.3971 -0.6003  0.3236
 3818SOL    HW115270   0.563   5.206   1.870 -0.0569 -2.7269  0.3780
 3818SOL    HW215271   0.672   5.180   1.971  0.0880  0.8359  1.2476
 3818SOL     MW15272   0.592   5.208   1.952 -0.2914 -0.6887  0.4489
 3819SOL     OW15273   3.581   4.289   2.528 -0.3481  0.2642 -0.0059
 3819SOL    HW115274   3.579   4.215   2.468 -1.1389 -0.5830  1.0211
 3819SOL    HW215275   3.662   4.276   2.578 -0.1809  0.4233 -0.2385
 3819SOL     MW15276   3.591   4.277   2.527 -0.4279  0.1761  0.0958
 3820SOL     OW15277   4.020   2.646   1.084  0.4564  0.3246  0.0857
 3820SOL    HW115278   4.044   2.696   1.007  1.3346 -1.5639 -0.9451
 3820SOL    HW215279   4.099   2.595   1.105 -0.3621 -0.5913  1.0860
 3820SOL     MW15280   4.034   2.646   1.077  0.4640 -0.0344  0.0818
 3821SOL     OW15281   0.903   0.658   3.357  0.2883  0.0839 -0.2530
 3821SOL    HW115282   0.882   0.700   3.441  0.3992 -2.2949  1.0609
 3821SOL    HW215283   0.877   0.722   3.291 -0.3496  1.8216  1.5715
 3821SOL     MW15284   0.897   0.671   3.359  0.2208  0.0018  0.1488
 3822SOL     OW15285   1.024   1.378   1.149  0.3084  0.2860 -0.1148
 3822SOL    HW115286   0.944   1.419   1.182  0.0293 -0.6324  0.3781
 3822SOL    HW215287   1.020   1.288   1.180  1.0854 -0.0312 -0.8791
 3822SOL     MW15288   1.013   1.371   1.157  0.3721  0.1279 -0.1495
 3823SOL     OW15289   5.150   4.607   2.562 -0.3356  0.1890 -0.3977
 3823SOL    HW115290   5.055   4.602   2.570 -0.2339 -0.7181  0.3606
 3823SOL    HW215291   5.175   4.688   2.607 -0.5565 -0.6669  1.3121
 3823SOL     MW15292   5.141   4.617   2.569 -0.3509 -0.0367 -0.0817
 3824SOL     OW15293   4.703   3.827   2.861  0.4485  0.6403 -0.1334
 3824SOL    HW115294   4.740   3.827   2.950  1.5407  0.4166 -0.5638
 3824SOL    HW215295   4.647   3.750   2.859  1.1156  0.1330  0.1032
 3824SOL     MW15296   4.701   3.817   2.872  0.6737  0.5467 -0.1582
 3825SOL     OW15297   4.369   1.764   1.547  0.3466  0.1602 -0.3384
 3825SOL    HW115298   4.429   1.835   1.568 -0.1138  1.0336 -1.8459
 3825SOL    HW215299   4.301   1.771   1.615 -0.7691  2.5045 -1.5523
 3825SOL     MW15300   4.368   1.774   1.559  0.1448  0.5721 -0.6868
 3826SOL     OW15301   4.042   3.030   4.836 -0.0121 -0.7078  0.3917
 3826SOL    HW115302   4.092   3.110   4.819 -0.7708 -0.5161 -1.1527
 3826SOL    HW215303   3.952   3.061   4.850  0.0018 -1.1646  1.5915
 3826SOL     MW15304   4.037   3.045   4.835 -0.1075 -0.7417  0.3476
 3827SOL     OW15305   1.085   3.312   4.951 -0.2155 -0.0376 -0.3171
 3827SOL    HW115306   1.136   3.385   4.916  1.8406  0.7311  3.6427
 3827SOL    HW215307   1.001   3.351   4.975 -0.0175  0.4433 -0.3877
 3827SOL     MW15308   1.081   3.326   4.949  0.0731  0.1224  0.1807
 3828SOL     OW15309   0.591   5.165   5.292  0.2522 -0.0754 -0.4124
 3828SOL    HW115310   0.686   5.164   5.305  0.3359  0.4384 -0.9888
 3828SOL    HW215311   0.562   5.079   5.324  0.8610 -0.0981  0.1015
 3828SOL     MW15312   0.600   5.153   5.298  0.3409 -0.0125 -0.4204
 3829SOL     OW15313   1.567   2.405   1.759  0.4525  0.2349 -0.3998
 3829SOL    HW115314   1.591   2.497   1.775  0.9177 -0.0241  0.4675
 3829SOL    HW215315   1.590   2.391   1.667  1.6133  0.6293 -0.1900
 3829SOL     MW15316   1.573   2.415   1.749  0.6606  0.2522 -0.2619
 3830SOL     OW15317   2.868   4.049   2.581 -0.1615  0.3359 -0.2909
 3830SOL    HW115318   2.865   4.098   2.663 -0.9094  0.3570 -0.3254
 3830SOL    HW215319   2.958   4.061   2.549 -0.2063  1.3134 -0.0757
 3830SOL     MW15320   2.879   4.056   2.587 -0.2630  0.4637 -0.2678
 3831SOL     OW15321   1.523   3.197   3.570 -0.1956 -0.0857 -0.5140
 3831SOL    HW115322   1.561   3.248   3.642 -0.9107  0.6578 -0.6442
 3831SOL    HW215323   1.584   3.208   3.497  0.1325 -0.1904 -0.2564
 3831SOL     MW15324   1.535   3.205   3.570 -0.2451 -0.0039 -0.4977
 3832SOL     OW15325   5.097   4.107   2.486 -0.6259 -0.8860 -0.0332
 3832SOL    HW115326   5.175   4.057   2.511  0.4568  0.1952 -1.0901
 3832SOL    HW215327   5.109   4.192   2.530 -0.3180 -0.1193 -1.5023
 3832SOL     MW15328   5.109   4.112   2.495 -0.4478 -0.6494 -0.3565
 3833SOL     OW15329   3.367   3.098   2.202 -0.6850  0.6193  0.1754
 3833SOL    HW115330   3.363   3.111   2.297 -1.7941  0.1334  0.2099
 3833SOL    HW215331   3.310   3.024   2.185 -1.3943  1.3884 -0.9982
 3833SOL     MW15332   3.359   3.090   2.212 -0.9178  0.6555  0.0296
 3834SOL     OW15333   0.992   3.480   4.404 -0.3653 -0.2682 -0.1636
 3834SOL    HW115334   1.048   3.404   4.389  0.5567  0.1561  0.9798
 3834SOL    HW215335   0.964   3.471   4.495  0.8847  1.4696  0.4331
 3834SOL     MW15336   0.995   3.469   4.414 -0.0873  0.0086  0.0592
 3835SOL     OW15337   2.561   1.245   1.670 -0.4900  0.3377  0.4083
 3835SOL    HW115338   2.513   1.316   1.713 -0.2541 -1.0986  3.2839
 3835SOL    HW215339   2.653   1.267   1.684 -0.4063 -1.1229  2.5653
 3835SOL     MW15340   2.566   1.257   1.678 -0.4491 -0.0331  1.0525
 3836SOL     OW15341   1.493   2.270   2.003  0.6619 -0.2625 -0.3558
 3836SOL    HW115342   1.495   2.305   1.914  0.1416 -0.0622 -0.2929
 3836SOL    HW215343   1.464   2.179   1.992  0.0758 -0.0797 -0.3470
 3836SOL     MW15344   1.489   2.263   1.990  0.5202 -0.2135 -0.3466
 3837SOL     OW15345   5.155   0.790   1.671 -0.6395  0.2250  0.2506
 3837SOL    HW115346   5.218   0.786   1.743 -0.1815 -0.4437 -0.1751
 3837SOL    HW215347   5.119   0.701   1.665 -2.2369  0.7794  1.0085
 3837SOL     MW15348   5.158   0.778   1.680 -0.7854  0.2104  0.2932
 3838SOL     OW15349   3.719   0.675   3.839  0.0141 -0.3542 -0.0267
 3838SOL    HW115350   3.725   0.604   3.775 -1.2471  0.1373 -0.7246
 3838SOL    HW215351   3.655   0.645   3.903  0.1501 -0.2213  0.1727
 3838SOL     MW15352   3.712   0.662   3.839 -0.1299 -0.2743 -0.0905
 3839SOL     OW15353   4.166   5.009   4.439 -0.4443  0.0938  0.2966
 3839SOL    HW115354   4.232   4.942   4.455 -0.6646 -0.0495  0.6229
 3839SOL    HW215355   4.083   4.962   4.447 -0.6947  0.8232  2.7186
 3839SOL     MW15356   4.164   4.994   4.442 -0.5046  0.1688  0.6484
 3840SOL     OW15357   0.552   2.548   1.260  0.0370  0.2732 -0.5961
 3840SOL    HW115358   0.577   2.508   1.343  0.0641 -0.9652 -1.1713
 3840SOL    HW215359   0.463   2.581   1.275  1.2103  3.1362  0.9252
 3840SOL     MW15360   0.543   2.547   1.272  0.1907  0.4811 -0.4750
 3841SOL     OW15361   4.512   1.934   1.227  0.1938 -0.0123 -0.2693
 3841SOL    HW115362   4.450   1.869   1.193 -0.1095  0.3350 -0.3782
 3841SOL    HW215363   4.589   1.927   1.171 -0.7162  1.3368 -1.7535
 3841SOL     MW15364   4.514   1.925   1.216  0.0385  0.2049 -0.4733
 3842SOL     OW15365   5.493   3.758   1.016 -0.2279 -0.1414  0.1060
 3842SOL    HW115366   5.400   3.734   1.016 -0.3890  0.4625  0.2596
 3842SOL    HW215367   5.517   3.758   1.109  0.0637 -0.8181  0.0298
 3842SOL     MW15368   5.484   3.755   1.028 -0.2112 -0.1507  0.1159
 3843SOL     OW15369   4.603   2.193   0.389 -0.2368  0.3302  0.4665
 3843SOL    HW115370   4.694   2.206   0.414  0.7103 -0.1214 -2.3755
 3843SOL    HW215371   4.591   2.098   0.390 -0.1354  0.2904 -0.7363
 3843SOL     MW15372   4.613   2.183   0.392 -0.1026  0.2673 -0.0512
 3844SOL     OW15373   5.235   4.664   1.508  0.2144 -0.0024  0.1606
 3844SOL    HW115374   5.302   4.635   1.445 -0.7765 -0.7329 -0.6074
 3844SOL    HW215375   5.162   4.604   1.493  0.4858 -1.1851  3.0966
 3844SOL     MW15376   5.234   4.653   1.498  0.1223 -0.2473  0.4381
 3845SOL     OW15377   3.392   4.191   1.748 -0.1933  0.3289  0.4323
 3845SOL    HW115378   3.454   4.231   1.688  0.6036  0.4298  1.2922
 3845SOL    HW215379   3.444   4.127   1.798  0.1706  2.8404  3.6096
 3845SOL     MW15380   3.407   4.188   1.747 -0.0447  0.6633  0.9491
 3846SOL     OW15381   3.389   1.104   2.625 -0.3149  0.0500  0.1939
 3846SOL    HW115382   3.329   1.169   2.588 -0.1303  0.2998  0.3337
 3846SOL    HW215383   3.332   1.036   2.660 -0.4999 -0.0456 -0.2894
 3846SOL     MW15384   3.374   1.104   2.625 -0.3150  0.0698  0.1499
 3847SOL     OW15385   0.016   4.596   4.365 -0.1059 -0.3304 -0.3635
 3847SOL    HW115386   0.093   4.649   4.383 -0.4181 -0.1319  0.4559
 3847SOL    HW215387  -0.023   4.581   4.451 -0.3458 -1.4025 -0.6439
 3847SOL     MW15388   0.021   4.601   4.378 -0.1766 -0.4422 -0.2945
 3848SOL     OW15389   2.945   5.161   1.105 -0.3739  0.0855 -0.1609
 3848SOL    HW115390   3.012   5.230   1.104 -0.3724  0.1407 -2.6550
 3848SOL    HW215391   2.864   5.207   1.129 -0.4212  1.0653 -2.0296
 3848SOL     MW15392   2.943   5.176   1.108 -0.3797  0.2180 -0.7194
 3849SOL     OW15393   3.469   4.616   1.651 -0.5624  0.1310 -0.9797
 3849SOL    HW115394   3.485   4.585   1.562  0.4496  1.7268 -1.4030
 3849SOL    HW215395   3.473   4.711   1.645 -0.0610  0.2825  0.8300
 3849SOL     MW15396   3.472   4.624   1.639 -0.3687  0.3546 -0.8022
 3850SOL     OW15397   3.840   2.309   3.756  0.1230 -0.2443  0.0989
 3850SOL    HW115398   3.804   2.377   3.813  0.1608 -1.9412  2.2942
 3850SOL    HW215399   3.817   2.227   3.800  0.6202 -1.6555 -2.1194
 3850SOL     MW15400   3.832   2.307   3.769  0.1914 -0.6422  0.0960
 3851SOL     OW15401   4.898   4.545   2.629 -0.2060  0.6363  0.1906
 3851SOL    HW115402   4.821   4.600   2.641  0.3476  1.1994  1.3167
 3851SOL    HW215403   4.872   4.481   2.562 -1.9623  0.2261  1.2021
 3851SOL     MW15404   4.885   4.544   2.622 -0.3599  0.6559  0.4643
 3852SOL     OW15405   0.843   2.822   1.826 -0.2724 -0.2993  0.0399
 3852SOL    HW115406   0.912   2.860   1.879  1.3759 -1.5525 -1.0719
 3852SOL    HW215407   0.834   2.882   1.752 -0.1245 -0.2908  0.0273
 3852SOL     MW15408   0.851   2.834   1.823 -0.0425 -0.4586 -0.1040
 3853SOL     OW15409   3.506   0.975   4.906 -0.4834 -0.3641 -0.1379
 3853SOL    HW115410   3.521   0.908   4.838 -1.1317 -0.2449 -0.4118
 3853SOL    HW215411   3.544   1.055   4.869  1.2482 -0.7789  0.6364
 3853SOL     MW15412   3.513   0.977   4.892 -0.3447 -0.4019 -0.0739
 3854SOL     OW15413   5.009   2.235   2.530 -0.1654  0.5033  0.5327
 3854SOL    HW115414   4.918   2.228   2.560 -0.4635 -0.2277 -0.4491
 3854SOL    HW215415   5.016   2.323   2.494 -0.6969  0.3493  0.0247
 3854SOL     MW15416   4.998   2.245   2.529 -0.2716  0.3900  0.3420
 3855SOL     OW15417   1.376   4.144   4.921 -0.4093  0.2999  0.2915
 3855SOL    HW115418   1.295   4.135   4.972 -1.5611  0.8625 -1.3338
 3855SOL    HW215419   1.346   4.171   4.834  1.6231  1.9959  0.0414
 3855SOL     MW15420   1.361   4.146   4.916 -0.2966  0.5891  0.0514
 3856SOL     OW15421   2.643   1.362   1.226 -0.0862  0.2561  0.1423
 3856SOL    HW115422   2.607   1.275   1.213  0.9895 -0.3207  0.8159
 3856SOL    HW215423   2.626   1.382   1.318 -0.0202  0.5971  0.0818
 3856SOL     MW15424   2.636   1.354   1.236  0.0600  0.2259  0.2208
 3857SOL     OW15425   0.333   5.041   2.670 -0.3563  0.2039 -0.2482
 3857SOL    HW115426   0.353   4.981   2.742 -0.7560 -1.8472 -1.7724
 3857SOL    HW215427   0.405   5.105   2.671  2.0606 -2.3481 -0.7043
 3857SOL     MW15428   0.344   5.042   2.680 -0.0981 -0.3854 -0.5017
 3858SOL     OW15429   4.301   5.425   0.276  0.3013 -0.4204  0.1699
 3858SOL    HW115430   4.262   5.437   0.189 -0.4143 -0.3644  0.4920
 3858SOL    HW215431   4.231   5.386   0.328  0.6296 -0.1804  0.7961
 3858SOL     MW15432   4.287   5.422   0.271  0.2517 -0.3825  0.2913
 3859SOL     OW15433   0.774   3.690   1.432  0.6635 -0.3314 -0.2889
 3859SOL    HW115434   0.754   3.618   1.371 -0.4466 -0.2677 -0.0214
 3859SOL    HW215435   0.861   3.669   1.466 -0.0631 -2.1393  0.5817
 3859SOL     MW15436   0.782   3.678   1.429  0.4284 -0.5547 -0.1432
 3860SOL     OW15437   2.290   3.374   2.800  0.7577 -0.1847 -0.5928
 3860SOL    HW115438   2.347   3.299   2.783  0.6418 -0.5210  0.4466
 3860SOL    HW215439   2.215   3.360   2.742  1.3076 -0.2102 -1.3149
 3860SOL     MW15440   2.288   3.362   2.791  0.8133 -0.2310 -0.5522
 3861SOL     OW15441   4.235   2.531   0.381 -0.2523  0.1025 -0.4334
 3861SOL    HW115442   4.155   2.488   0.350 -0.6028 -0.6211  1.3499
 3861SOL    HW215443   4.280   2.463   0.432  0.0316  1.3499  1.0415
 3861SOL     MW15444   4.231   2.517   0.383 -0.2608  0.1696 -0.0163
 3862SOL     OW15445   5.386   4.016   2.509  0.0640  0.2965 -0.6782
 3862SOL    HW115446   5.433   4.095   2.483  2.5690 -0.0088  2.3567
 3862SOL    HW215447   5.365   4.030   2.601 -1.6935 -1.6124 -0.7030
 3862SOL     MW15448   5.389   4.028   2.517  0.1597  0.0130 -0.2929
 3863SOL     OW15449   2.869   5.213   5.296 -0.0227 -0.1157 -0.5703
 3863SOL    HW115450   2.874   5.187   5.204  0.0883 -0.5226 -0.4484
 3863SOL    HW215451   2.809   5.151   5.336 -1.4194  1.0700 -0.7147
 3863SOL     MW15452   2.862   5.202   5.289 -0.1873 -0.0160 -0.5732
 3864SOL     OW15453   0.269   5.276   3.582 -0.3044 -0.0225  0.2221
 3864SOL    HW115454   0.336   5.209   3.573 -1.4905 -1.3947  1.0583
 3864SOL    HW215455   0.238   5.266   3.673 -1.8577  0.3115 -0.2349
 3864SOL     MW15456   0.273   5.266   3.593 -0.6551 -0.1554  0.2707
 3865SOL     OW15457   3.402   2.307   1.730  0.3274 -0.0639  0.8376
 3865SOL    HW115458   3.434   2.395   1.750  0.0172  0.0545  0.8285
 3865SOL    HW215459   3.401   2.303   1.635 -0.7581  0.3436  0.8186
 3865SOL     MW15460   3.406   2.318   1.721  0.1488  0.0034  0.8340
 3866SOL     OW15461   4.875   1.220   3.657 -0.1007  0.5702  0.0695
 3866SOL    HW115462   4.970   1.210   3.659 -0.2240 -0.7985 -0.0594
 3866SOL    HW215463   4.855   1.275   3.733  0.7499  0.4584  0.3841
 3866SOL     MW15464   4.885   1.226   3.667 -0.0076  0.3807  0.0933
 3867SOL     OW15465   1.526   3.950   0.712  0.6764  0.0415 -0.1367
 3867SOL    HW115466   1.530   3.855   0.728 -1.2371 -0.0771 -0.0828
 3867SOL    HW215467   1.504   3.987   0.798 -1.5886  0.1915 -0.7081
 3867SOL     MW15468   1.524   3.942   0.725  0.1415  0.0455 -0.2030
 3868SOL     OW15469   1.753   0.715   4.671 -0.1169 -0.6702  0.2456
 3868SOL    HW115470   1.707   0.698   4.589 -1.4480 -1.5162  1.1272
 3868SOL    HW215471   1.843   0.731   4.645 -1.0608  2.2741 -1.6767
 3868SOL     MW15472   1.759   0.715   4.657 -0.4081 -0.4016  0.1124
 3869SOL     OW15473   1.615   4.822   3.485 -0.1524  0.1153  0.0614
 3869SOL    HW115474   1.632   4.866   3.402 -2.0680  0.7239 -0.0612
 3869SOL    HW215475   1.659   4.737   3.476 -1.1347 -0.2435 -2.0056
 3869SOL     MW15476   1.623   4.816   3.473 -0.5234  0.1473 -0.2189
 3870SOL     OW15477   1.079   4.026   4.637  0.2479 -0.1120  0.5479
 3870SOL    HW115478   1.167   4.064   4.634 -0.0476  0.5692  0.2292
 3870SOL    HW215479   1.090   3.945   4.687  1.1315 -0.2444  0.1655
 3870SOL     MW15480   1.092   4.021   4.643  0.3232 -0.0417  0.4582
 3871SOL     OW15481   0.586   0.020   2.713 -0.4229 -0.6646  0.2211
 3871SOL    HW115482   0.512   0.079   2.724 -0.2267 -0.3564 -0.0866
 3871SOL    HW215483   0.646   0.044   2.783 -0.3440 -0.4901  0.0976
 3871SOL     MW15484   0.584   0.031   2.723 -0.3877 -0.6028  0.1659
 3872SOL     OW15485   1.098   0.915   5.479 -0.0203 -0.4739 -0.0791
 3872SOL    HW115486   1.086   0.949   5.390  1.8426  0.5683  0.0173
 3872SOL    HW215487   1.192   0.897   5.485 -0.2999 -1.5775  1.3273
 3872SOL     MW15488   1.109   0.917   5.468  0.1824 -0.4818  0.1133
 3873SOL     OW15489   3.107   4.729   0.063 -0.4216 -0.1349  0.4796
 3873SOL    HW115490   3.137   4.759   0.149  1.7034  0.7690 -0.4987
 3873SOL    HW215491   3.184   4.736   0.007 -1.1876 -2.6409 -1.0611
 3873SOL     MW15492   3.121   4.733   0.067 -0.2476 -0.3400  0.1571
 3874SOL     OW15493   1.929   1.170   2.195 -0.5284  0.0805 -0.1950
 3874SOL    HW115494   1.984   1.117   2.137  2.5118  1.1700  1.4689
 3874SOL    HW215495   1.913   1.114   2.271  0.9268  0.7461  0.6444
 3874SOL     MW15496   1.934   1.156   2.197  0.0471  0.3052  0.1255
 3875SOL     OW15497   5.247   1.976   1.076 -0.9166  1.0578 -0.4141
 3875SOL    HW115498   5.164   1.964   1.030 -0.6410  1.3485 -0.9909
 3875SOL    HW215499   5.275   1.888   1.099 -0.7416  0.8510 -1.3746
 3875SOL     MW15500   5.240   1.964   1.073 -0.8589  1.0685 -0.6109
 3876SOL     OW15501   2.239   3.440   5.070  0.1355  0.4525 -0.1023
 3876SOL    HW115502   2.270   3.456   5.159  0.1597  1.3995 -0.2609
 3876SOL    HW215503   2.318   3.416   5.021 -0.0558 -1.2421  0.3613
 3876SOL     MW15504   2.253   3.439   5.075  0.1141  0.3568 -0.0633
 3877SOL     OW15505   3.164   1.638   4.258  0.3424 -0.0363 -0.0862
 3877SOL    HW115506   3.158   1.567   4.194  0.1111 -0.5435  0.4835
 3877SOL    HW215507   3.093   1.697   4.234  0.6439  0.0940 -0.6720
 3877SOL     MW15508   3.154   1.636   4.247  0.3514 -0.0846 -0.0882
 3878SOL     OW15509   3.570   2.997   4.890 -0.1090 -0.0199  0.5130
 3878SOL    HW115510   3.656   3.038   4.887  0.2636 -0.8313 -0.8300
 3878SOL    HW215511   3.544   2.988   4.798 -0.9333 -1.1866  0.8315
 3878SOL     MW15512   3.578   3.001   4.878 -0.1669 -0.2731  0.3819
 3879SOL     OW15513   4.186   3.775   3.529 -0.1714  0.4608  0.2542
 3879SOL    HW115514   4.106   3.826   3.546 -0.1119  0.5087  0.3906
 3879SOL    HW215515   4.168   3.729   3.447  0.5453  2.2713 -0.9759
 3879SOL     MW15516   4.173   3.776   3.521 -0.0721  0.6987  0.1142
 3880SOL     OW15517   0.709   2.271   3.082  0.2984  0.2159  0.0695
 3880SOL    HW115518   0.627   2.304   3.044  0.0108  0.0634  0.5534
 3880SOL    HW215519   0.681   2.204   3.144  0.5486  2.2059  2.4952
 3880SOL     MW15520   0.695   2.267   3.085  0.2936  0.4511  0.4419
 3881SOL     OW15521   3.513   2.191   3.799  0.9645 -0.2264  0.5044
 3881SOL    HW115522   3.511   2.264   3.861 -0.0831 -0.1233  0.3598
 3881SOL    HW215523   3.514   2.113   3.854 -1.5677 -0.1850  0.7071
 3881SOL     MW15524   3.513   2.191   3.814  0.5063 -0.2079  0.5118
 3882SOL     OW15525   5.220   2.888   0.442  0.0409 -0.0336 -0.1653
 3882SOL    HW115526   5.183   2.837   0.514 -0.6789 -0.4632 -0.8230
 3882SOL    HW215527   5.314   2.870   0.446  0.1789  0.9177  1.4094
 3882SOL     MW15528   5.227   2.879   0.452 -0.0336  0.0332 -0.0479
 3883SOL     OW15529   0.317   4.654   0.506  0.3164 -0.1704  0.5451
 3883SOL    HW115530   0.252   4.630   0.440  1.5603 -0.8140 -0.4844
 3883SOL    HW215531   0.323   4.750   0.500 -1.2892  0.0176  1.4166
 3883SOL     MW15532   0.309   4.663   0.496  0.2701 -0.2287  0.5249
 3884SOL     OW15533   4.279   4.021   5.463 -0.3570  0.0982 -0.1220
 3884SOL    HW115534   4.237   4.060   5.386  1.2622 -1.4697 -1.9059
 3884SOL    HW215535   4.206   3.984   5.513 -1.3439 -0.5887 -1.9543
 3884SOL     MW15536   4.264   4.021   5.459 -0.2761 -0.1904 -0.5849
 3885SOL     OW15537   0.168   1.661   4.814 -0.2556  0.4954 -0.3053
 3885SOL    HW115538   0.207   1.748   4.825  1.7323  0.0046 -2.5746
 3885SOL    HW215539   0.074   1.677   4.814  0.0282  2.4874  0.3612
 3885SOL     MW15540   0.161   1.674   4.816  0.0352  0.6876 -0.5105
 3886SOL     OW15541   2.780   0.613   4.087  0.1678 -0.0206 -0.6086
 3886SOL    HW115542   2.813   0.644   4.003  0.1889 -1.7547 -1.2729
 3886SOL    HW215543   2.735   0.689   4.124  0.7887  0.9897 -1.8348
 3886SOL     MW15544   2.778   0.627   4.081  0.2500 -0.1133 -0.8506
 3887SOL     OW15545   3.161   2.638   3.468  0.3256  0.9441 -0.2153
 3887SOL    HW115546   3.209   2.562   3.502 -0.7683  0.7744  1.0342
 3887SOL    HW215547   3.077   2.635   3.512 -1.0181  1.0324 -2.6112
 3887SOL     MW15548   3.157   2.628   3.478  0.0136  0.9337 -0.3620
 3888SOL     OW15549   0.031   5.426   0.801  0.2115 -0.0120  0.0619
 3888SOL    HW115550   0.025   5.330   0.803 -2.3115  0.0990  0.2609
 3888SOL    HW215551   0.122   5.443   0.776  0.6040 -2.4548 -0.4533
 3888SOL     MW15552   0.042   5.416   0.798 -0.0612 -0.3105  0.0214
 3889SOL     OW15553   0.245   3.216   3.197  0.1884  0.5202 -0.4253
 3889SOL    HW115554   0.184   3.145   3.176  0.2253  0.6178 -0.8615
 3889SOL    HW215555   0.195   3.275   3.254  0.7362 -0.8114  1.5322
 3889SOL     MW15556   0.231   3.215   3.202  0.2632  0.3622 -0.2306
 3890SOL     OW15557   0.367   3.402   0.396 -0.0206  0.8093  0.7476
 3890SOL    HW115558   0.327   3.463   0.458  0.8647  0.9993  1.1539
 3890SOL    HW215559   0.296   3.379   0.336 -0.1745  2.9989 -0.0310
 3890SOL     MW15560   0.353   3.407   0.396  0.0730  1.1139  0.6999
 3891SOL     OW15561   0.891   2.802   0.985  0.0414 -0.2765 -0.4474
 3891SOL    HW115562   0.815   2.752   0.956 -1.3366  1.8338 -0.6726
 3891SOL    HW215563   0.854   2.871   1.040  2.0045 -0.3313  1.0588
 3891SOL     MW15564   0.877   2.804   0.988  0.1163 -0.0133 -0.2834
 3892SOL     OW15565   0.688   0.451   3.251  0.3377  0.5318 -0.5808
 3892SOL    HW115566   0.648   0.488   3.173  1.1421  3.6137  0.3140
 3892SOL    HW215567   0.766   0.505   3.266  0.4574 -0.2281  2.0784
 3892SOL     MW15568   0.693   0.463   3.243  0.4560  0.8290 -0.1259
 3893SOL     OW15569   1.711   5.304   3.361 -0.3928 -0.0174 -0.2255
 3893SOL    HW115570   1.748   5.286   3.448  0.8850 -0.9104 -0.9154
 3893SOL    HW215571   1.618   5.321   3.377 -0.0269  0.5910  1.3962
 3893SOL     MW15572   1.704   5.304   3.374 -0.1824 -0.0538 -0.1063
 3894SOL     OW15573   2.568   4.772   4.512  0.4353 -0.5506 -0.0596
 3894SOL    HW115574   2.525   4.779   4.597  0.7264  0.3515  0.0249
 3894SOL    HW215575   2.574   4.678   4.496 -0.0277 -0.7202  0.7078
 3894SOL     MW15576   2.564   4.761   4.521  0.4133 -0.4568  0.0494
 3895SOL     OW15577   5.235   2.531   5.222 -0.0507 -0.0560  0.0287
 3895SOL    HW115578   5.206   2.464   5.160  0.3038  0.5869 -0.8615
 3895SOL    HW215579   5.235   2.487   5.307 -0.0030 -1.1294 -0.5075
 3895SOL     MW15580   5.231   2.517   5.225  0.0008 -0.1111 -0.1539
 3896SOL     OW15581   1.998   3.521   4.675  0.2921  0.3956 -0.0938
 3896SOL    HW115582   1.929   3.564   4.727 -0.1470  1.5491 -1.5715
 3896SOL    HW215583   2.080   3.554   4.713 -0.0199  1.2064 -0.1111
 3896SOL     MW15584   2.000   3.531   4.687  0.1959  0.6471 -0.2852
 3897SOL     OW15585   0.919   0.425   2.329 -0.0550  0.0390 -0.7933
 3897SOL    HW115586   0.983   0.360   2.357 -2.1569 -1.1961  1.5476
 3897SOL    HW215587   0.946   0.449   2.240  1.6828 -2.8878 -1.1776
 3897SOL     MW15588   0.930   0.420   2.321 -0.1016 -0.4938 -0.5429
 3898SOL     OW15589   4.433   0.293   2.918  0.0352  0.1765  0.4282
 3898SOL    HW115590   4.352   0.330   2.953  1.1971  0.1739  3.3369
 3898SOL    HW215591   4.419   0.198   2.919  0.4591  0.1173  2.0322
 3898SOL     MW15592   4.421   0.285   2.922  0.2382  0.1686  1.0059
 3899SOL     OW15593   1.870   2.154   3.881 -0.7527 -0.2625 -0.6247
 3899SOL    HW115594   1.923   2.077   3.903 -0.1659 -0.1218 -1.4996
 3899SOL    HW215595   1.889   2.171   3.789 -1.6458  0.3388 -0.7129
 3899SOL     MW15596   1.879   2.147   3.872 -0.7919 -0.1675 -0.7480
 3900SOL     OW15597   4.976   3.318   2.492 -0.3867  0.7536 -0.6252
 3900SOL    HW115598   4.961   3.224   2.493 -0.1187  0.7004 -1.1674
 3900SOL    HW215599   5.043   3.332   2.559 -3.2389  1.0991  2.4156
 3900SOL     MW15600   4.983   3.308   2.500 -0.7175  0.7910 -0.3054
 3901SOL     OW15601   3.948   2.259   3.375  0.4587  0.3658  0.7325
 3901SOL    HW115602   4.009   2.324   3.409  1.7491 -1.6745  2.5975
 3901SOL    HW215603   3.871   2.267   3.431  0.7411  0.1262  1.1646
 3901SOL     MW15604   3.946   2.268   3.387  0.6600  0.0739  1.0265
 3902SOL     OW15605   4.248   0.811   1.292 -0.0260  0.0817 -0.0710
 3902SOL    HW115606   4.342   0.803   1.303 -0.1113  0.2466  0.8449
 3902SOL    HW215607   4.216   0.845   1.376 -1.2146 -2.4418  0.5991
 3902SOL     MW15608   4.256   0.814   1.304 -0.1891 -0.2202  0.1320
 3903SOL     OW15609   3.679   3.551   3.625 -0.1300  0.2004  0.0403
 3903SOL    HW115610   3.728   3.479   3.666 -1.4709 -2.7000 -3.0020
 3903SOL    HW215611   3.601   3.561   3.681  1.0586  0.8258  1.6600
 3903SOL     MW15612   3.675   3.543   3.638 -0.1495 -0.0908 -0.1418
 3904SOL     OW15613   2.044   0.978   0.255  0.3333  0.3730 -0.4337
 3904SOL    HW115614   2.007   0.961   0.169 -0.3757  1.6244 -0.4014
 3904SOL    HW215615   1.982   0.937   0.316 -0.5111  1.6087 -0.4269
 3904SOL     MW15616   2.032   0.970   0.252  0.1344  0.6913 -0.4287
 3905SOL     OW15617   1.786   3.938   0.344  0.0716 -0.0883  0.7022
 3905SOL    HW115618   1.711   3.990   0.371  0.2211  0.4367  0.1282
 3905SOL    HW215619   1.774   3.925   0.250  1.2808  0.9842  0.3695
 3905SOL     MW15620   1.775   3.943   0.335  0.2455  0.1162  0.5862
 3906SOL     OW15621   0.630   0.101   1.005  0.0924 -0.1688  0.5644
 3906SOL    HW115622   0.537   0.124   1.013  0.0177  0.5340 -1.6684
 3906SOL    HW215623   0.634   0.009   1.033 -1.5040 -0.5578 -0.3552
 3906SOL     MW15624   0.619   0.092   1.010 -0.1215 -0.1286  0.1608
 3907SOL     OW15625   2.118   1.860   2.997  0.2579  0.3796 -0.2229
 3907SOL    HW115626   2.090   1.936   2.946  1.0739  1.5524  1.0029
 3907SOL    HW215627   2.039   1.830   3.041 -1.0179 -2.0951 -3.8002
 3907SOL     MW15628   2.105   1.866   2.996  0.1991  0.2129 -0.5239
 3908SOL     OW15629   4.581   0.839   1.579 -0.2718  0.0539  0.2523
 3908SOL    HW115630   4.656   0.789   1.546 -0.9944 -1.2056  0.4479
 3908SOL    HW215631   4.616   0.926   1.599  0.6246  0.2528 -1.9235
 3908SOL     MW15632   4.595   0.844   1.577 -0.2496 -0.0819 -0.0012
 3909SOL     OW15633   5.176   1.083   1.180  0.2960 -0.3939 -0.1481
 3909SOL    HW115634   5.208   1.152   1.239  2.6879 -1.9758  0.5491
 3909SOL    HW215635   5.231   1.091   1.102 -1.3926  0.2691 -1.3561
 3909SOL     MW15636   5.187   1.093   1.178  0.3861 -0.5115 -0.2135
 3910SOL     OW15637   1.862   2.567   3.888 -0.0121  0.2642  0.4237
 3910SOL    HW115638   1.877   2.501   3.956 -0.4917  0.0836  0.3603
 3910SOL    HW215639   1.874   2.650   3.934  0.4874  0.1378  0.5297
 3910SOL     MW15640   1.865   2.569   3.903 -0.0096  0.2249  0.4292
 3911SOL     OW15641   0.129   2.272   1.030 -0.6098  0.0473  0.1078
 3911SOL    HW115642   0.083   2.201   0.984  1.3470 -0.6883 -0.8097
 3911SOL    HW215643   0.135   2.341   0.965 -1.0754  0.4428  0.4788
 3911SOL     MW15644   0.124   2.271   1.016 -0.4189  0.0038  0.0379
 3912SOL     OW15645   3.253   0.047   3.690  0.3201 -0.0709 -0.1228
 3912SOL    HW115646   3.267   0.139   3.669  1.5118 -0.5313 -1.5650
 3912SOL    HW215647   3.158   0.037   3.694 -0.0417  0.5665 -3.5347
 3912SOL     MW15648   3.243   0.057   3.688  0.4263 -0.0482 -0.7442
 3913SOL     OW15649   4.776   4.164   2.070 -0.1246  0.1247  0.2513
 3913SOL    HW115650   4.683   4.142   2.073 -0.2110 -0.6105 -3.5956
 3913SOL    HW215651   4.779   4.250   2.028  0.9226  1.4794  2.8523
 3913SOL     MW15652   4.764   4.172   2.065 -0.0016  0.2040  0.0918
 3914SOL     OW15653   2.580   3.471   2.485 -0.1333  0.3880  0.3363
 3914SOL    HW115654   2.612   3.515   2.565  0.2146 -0.8079  0.8784
 3914SOL    HW215655   2.559   3.382   2.514  0.0683 -0.0835 -0.9266
 3914SOL     MW15656   2.582   3.466   2.499 -0.0630  0.1746  0.2440
 3915SOL     OW15657   3.746   2.607   5.287  0.1403  0.0442  0.0920
 3915SOL    HW115658   3.666   2.569   5.323  0.1157 -1.1567 -1.1263
 3915SOL    HW215659   3.813   2.540   5.303  0.9324  1.0513  1.1356
 3915SOL     MW15660   3.745   2.594   5.293  0.2385  0.0194  0.0697
 3916SOL     OW15661   3.299   3.563   3.556  0.0096  0.1343 -0.5832
 3916SOL    HW115662   3.325   3.475   3.528  1.0750  0.4694 -0.6736
 3916SOL    HW215663   3.320   3.565   3.650  0.2738  0.4002 -0.6493
 3916SOL     MW15664   3.305   3.552   3.565  0.1798  0.2112 -0.6032
 3917SOL     OW15665   3.767   0.224   2.963  0.2610  0.2467  0.5435
 3917SOL    HW115666   3.688   0.223   2.909 -0.5108 -0.0783  1.6265
 3917SOL    HW215667   3.833   0.178   2.912 -0.6932 -0.8200  0.2294
 3917SOL     MW15668   3.765   0.218   2.950  0.0400  0.0685  0.6420
 3918SOL     OW15669   3.041   3.117   4.442 -0.1299  0.7451 -0.1576
 3918SOL    HW115670   2.966   3.177   4.438  0.0150  0.8886 -0.8215
 3918SOL    HW215671   3.037   3.069   4.359 -0.5319 -0.5262  0.5726
 3918SOL     MW15672   3.031   3.118   4.431 -0.1628  0.6007 -0.1491
 3919SOL     OW15673   1.177   0.015   3.819 -0.1586 -0.2771  0.3061
 3919SOL    HW115674   1.261   0.007   3.775  0.3284 -0.8427  1.3148
 3919SOL    HW215675   1.149   0.105   3.801 -0.5564 -0.8301 -2.1350
 3919SOL     MW15676   1.184   0.026   3.811 -0.1472 -0.4203  0.1227
 3920SOL     OW15677   0.180   0.161   3.329 -0.2366  0.2395  0.0869
 3920SOL    HW115678   0.211   0.184   3.241 -1.0447  2.2001  0.2760
 3920SOL    HW215679   0.087   0.141   3.317 -0.0537 -0.8432  0.3140
 3920SOL     MW15680   0.172   0.161   3.316 -0.3166  0.3519  0.1402
 3921SOL     OW15681   1.836   0.716   4.194  0.0178  0.6465  0.1705
 3921SOL    HW115682   1.901   0.713   4.124  0.5580 -0.6034  0.6897
 3921SOL    HW215683   1.753   0.736   4.149  0.2390 -0.7486 -0.9168
 3921SOL     MW15684   1.833   0.718   4.179  0.1153  0.3079  0.0977
 3922SOL     OW15685   5.392   3.585   2.922 -0.1890  0.1650  0.8017
 3922SOL    HW115686   5.474   3.538   2.934 -0.6222 -1.1913 -1.0359
 3922SOL    HW215687   5.328   3.533   2.971 -0.5356 -0.8247 -0.6332
 3922SOL     MW15688   5.394   3.572   2.930 -0.2888 -0.1353  0.3828
 3923SOL     OW15689   5.062   3.690   3.722  0.8552  0.4349 -0.2543
 3923SOL    HW115690   5.096   3.704   3.634 -0.2185  1.1203 -0.5811
 3923SOL    HW215691   5.115   3.619   3.757  1.2869  0.1354 -1.4612
 3923SOL     MW15692   5.073   3.683   3.715  0.7730  0.4843 -0.4506
 3924SOL     OW15693   4.697   2.477   5.180 -0.0993 -0.0038  0.1645
 3924SOL    HW115694   4.757   2.424   5.233 -0.3372  0.0905  0.5345
 3924SOL    HW215695   4.721   2.458   5.090  0.6674  0.2421  0.3100
 3924SOL     MW15696   4.708   2.468   5.176 -0.0316  0.0398  0.2305
 3925SOL     OW15697   4.692   1.329   3.111  0.1466  0.0000 -0.1297
 3925SOL    HW115698   4.702   1.269   3.037  0.6865 -0.0672 -0.0103
 3925SOL    HW215699   4.711   1.275   3.188 -1.5208 -0.2108  0.1540
 3925SOL     MW15700   4.696   1.314   3.112  0.0023 -0.0356 -0.0781
 3926SOL     OW15701   2.596   3.023   4.742  0.1034  0.3194 -0.3181
 3926SOL    HW115702   2.554   2.940   4.719  0.7221 -0.6988  2.0024
 3926SOL    HW215703   2.523   3.080   4.767 -0.3564  0.6582 -2.2759
 3926SOL     MW15704   2.581   3.020   4.742  0.1237  0.2324 -0.2717
 3927SOL     OW15705   0.055   4.230   3.578 -0.2420  0.4175 -0.0110
 3927SOL    HW115706  -0.013   4.280   3.623 -0.0209 -0.3705  1.2450
 3927SOL    HW215707   0.121   4.296   3.556 -1.6352  1.3084 -1.8265
 3927SOL     MW15708   0.055   4.245   3.581 -0.3921  0.4307 -0.0826
 3928SOL     OW15709   0.522   4.797   1.620 -0.1839 -0.1153 -0.0288
 3928SOL    HW115710   0.584   4.859   1.657 -0.4734  0.7237 -0.9109
 3928SOL    HW215711   0.525   4.721   1.679 -0.3394  0.9986  1.4805
 3928SOL     MW15712   0.530   4.795   1.633 -0.2409  0.1347  0.0515
 3929SOL     OW15713   4.538   0.198   1.102 -0.0979 -0.0603  0.0731
 3929SOL    HW115714   4.522   0.127   1.164  1.3176  1.2509  2.0640
 3929SOL    HW215715   4.620   0.174   1.058 -0.0130 -0.0063  0.2032
 3929SOL     MW15716   4.547   0.186   1.104  0.0942  0.1144  0.3446
 3930SOL     OW15717   2.071   1.714   2.184  0.2368  0.1946  0.1664
 3930SOL    HW115718   2.092   1.701   2.091  0.8552 -0.7249  0.4193
 3930SOL    HW215719   2.121   1.791   2.210 -0.4120  0.8223 -0.4054
 3930SOL     MW15720   2.080   1.722   2.175  0.2329  0.1573  0.1256
 3931SOL     OW15721   0.527   5.343   0.743  0.2527 -0.2596 -0.5028
 3931SOL    HW115722   0.552   5.300   0.662 -1.3938 -0.2155 -1.0584
 3931SOL    HW215723   0.487   5.426   0.716  1.7065  0.8397  0.4752
 3931SOL     MW15724   0.525   5.348   0.729  0.2280 -0.1132 -0.4487
 3932SOL     OW15725   0.941   4.288   0.439 -0.1632  0.7463 -0.1988
 3932SOL    HW115726   1.002   4.216   0.455  0.9972  2.0891  1.9714
 3932SOL    HW215727   0.994   4.367   0.447 -1.8034  1.9105 -0.3139
 3932SOL     MW15728   0.955   4.289   0.442 -0.2246  1.0673  0.0643
 3933SOL     OW15729   3.454   1.467   4.002 -0.0624  0.1488 -0.2231
 3933SOL    HW115730   3.496   1.383   3.987  0.5361  0.4825 -0.4504
 3933SOL    HW215731   3.522   1.521   4.041 -0.0558  0.9421 -1.3145
 3933SOL     MW15732   3.468   1.463   4.005  0.0151  0.2931 -0.3919
 3934SOL     OW15733   3.126   4.102   1.760 -0.0413 -0.3434  0.2970
 3934SOL    HW115734   3.216   4.128   1.738 -0.1641  0.3000  0.5251
 3934SOL    HW215735   3.106   4.151   1.840 -0.5164 -0.6594  0.3759
 3934SOL     MW15736   3.135   4.112   1.767 -0.1178 -0.3015  0.3363
 3935SOL     OW15737   0.806   3.315   2.933 -0.4222 -0.3876 -0.1826
 3935SOL    HW115738   0.839   3.370   2.862  0.2929 -1.1636 -0.4603
 3935SOL    HW215739   0.716   3.294   2.907  0.0899 -1.3371 -1.2909
 3935SOL     MW15740   0.799   3.319   2.920 -0.2651 -0.6085 -0.3600
 3936SOL     OW15741   1.213   5.198   0.962  0.5920 -0.3776 -0.3314
 3936SOL    HW115742   1.260   5.279   0.984 -0.6729  0.4588 -0.5800
 3936SOL    HW215743   1.170   5.217   0.879 -0.6546 -0.8814  0.1601
 3936SOL     MW15744   1.213   5.211   0.955  0.2705 -0.3350 -0.3003
 3937SOL     OW15745   0.722   3.851   0.225 -0.4328 -0.1797  0.0093
 3937SOL    HW115746   0.745   3.901   0.303  0.8288 -0.7626  0.0378
 3937SOL    HW215747   0.751   3.905   0.152  0.0254 -0.4191  0.0098
 3937SOL     MW15748   0.729   3.864   0.226 -0.2127 -0.2849  0.0130
 3938SOL     OW15749   4.621   3.321   0.365 -0.3789  0.4359 -0.7439
 3938SOL    HW115750   4.590   3.388   0.305 -0.0229 -0.9068 -2.4858
 3938SOL    HW215751   4.709   3.351   0.390 -0.7666  1.3070 -0.3693
 3938SOL     MW15752   4.628   3.333   0.361 -0.3829  0.3755 -0.9189
 3939SOL     OW15753   4.681   3.521   3.471 -0.5867 -0.0375 -0.3479
 3939SOL    HW115754   4.775   3.527   3.453 -0.9685  0.1257 -2.4910
 3939SOL    HW215755   4.676   3.486   3.560  1.5182 -2.9308 -1.2186
 3939SOL     MW15756   4.692   3.517   3.480 -0.3661 -0.3869 -0.7337
 3940SOL     OW15757   1.241   3.101   1.684  0.3514 -0.3182  0.0861
 3940SOL    HW115758   1.194   3.150   1.616  0.8957  1.7381  1.1032
 3940SOL    HW215759   1.275   3.024   1.639  0.6252  0.9160 -1.9496
 3940SOL     MW15760   1.239   3.097   1.670  0.4562  0.1030 -0.0443
 3941SOL     OW15761   3.145   2.658   0.906  0.6909  0.5040 -0.5338
 3941SOL    HW115762   3.084   2.584   0.902 -1.8099  2.3973  0.3555
 3941SOL    HW215763   3.171   2.673   0.815  0.1771 -0.5765 -0.8788
 3941SOL     MW15764   3.141   2.650   0.894  0.3050  0.6080 -0.4641
 3942SOL     OW15765   4.925   3.820   2.027  0.2771  0.1760 -0.4490
 3942SOL    HW115766   4.913   3.873   2.106  2.0159  0.5937 -0.4176
 3942SOL    HW215767   5.001   3.764   2.048  1.7491  1.3557 -2.3230
 3942SOL     MW15768   4.933   3.819   2.040  0.6881  0.3805 -0.6849
 3943SOL     OW15769   5.457   4.205   5.050  0.1702 -0.0471  0.2823
 3943SOL    HW115770   5.426   4.295   5.039 -1.0846 -0.5479 -0.4152
 3943SOL    HW215771   5.495   4.181   4.965 -1.3386 -0.8477 -0.1915
 3943SOL     MW15772   5.458   4.214   5.038 -0.1836 -0.2137  0.1323
 3944SOL     OW15773   2.233   4.348   2.362 -0.1986 -0.4727  0.0699
 3944SOL    HW115774   2.257   4.425   2.413  0.7406 -1.3352  0.9705
 3944SOL    HW215775   2.142   4.364   2.335 -1.0694 -0.4028  2.8011
 3944SOL     MW15776   2.224   4.360   2.365 -0.1899 -0.5742  0.5348
 3945SOL     OW15777   2.640   3.616   2.767  0.1449  0.1635 -0.1576
 3945SOL    HW115778   2.684   3.531   2.767  0.0446 -0.1445  4.2468
 3945SOL    HW215779   2.706   3.678   2.737  0.6326 -1.2106 -2.1552
 3945SOL     MW15780   2.654   3.613   2.763  0.1945 -0.0518  0.1505
 3946SOL     OW15781   3.571   0.898   2.100 -0.1560 -0.0597 -0.2842
 3946SOL    HW115782   3.664   0.876   2.111  0.0129  0.5745 -0.4453
 3946SOL    HW215783   3.531   0.875   2.184  0.1713 -0.2014 -0.1651
 3946SOL     MW15784   3.578   0.892   2.112 -0.0925  0.0034 -0.2896
 3947SOL     OW15785   0.898   5.477   1.143  0.0435  0.0318 -0.7424
 3947SOL    HW115786   0.807   5.449   1.139 -0.6476  2.0422 -0.3026
 3947SOL    HW215787   0.912   5.502   1.234  0.5060  1.2873 -1.1329
 3947SOL     MW15788   0.888   5.476   1.154  0.0143  0.4499 -0.7361
 3948SOL     OW15789   2.496   2.331   4.599  0.5083 -0.1615  0.0245
 3948SOL    HW115790   2.581   2.289   4.607 -0.0393 -1.2487  0.3399
 3948SOL    HW215791   2.497   2.400   4.666  2.1256  1.6638 -1.7405
 3948SOL     MW15792   2.507   2.335   4.609  0.6452 -0.0670 -0.1611
 3949SOL     OW15793   4.752   2.782   2.097  0.0709 -0.3761  0.1341
 3949SOL    HW115794   4.797   2.757   2.178 -1.4703  1.7657  1.7554
 3949SOL    HW215795   4.822   2.795   2.034  1.6963  1.5108  2.1735
 3949SOL     MW15796   4.766   2.780   2.099  0.0817  0.1397  0.6027
 3950SOL     OW15797   0.973   2.759   2.073  0.6273  0.2853  0.2598
 3950SOL    HW115798   1.055   2.719   2.046  0.2217 -0.3539 -0.0325
 3950SOL    HW215799   0.915   2.686   2.092 -0.1028  0.7249 -0.2185
 3950SOL     MW15800   0.976   2.745   2.072  0.4819  0.2597  0.1612
 3951SOL     OW15801   5.480   2.471   3.902  0.1729 -0.1859 -0.0926
 3951SOL    HW115802   5.440   2.427   3.978  0.7780 -0.3122  0.1550
 3951SOL    HW215803   5.406   2.493   3.846 -0.4407  1.0356  1.1213
 3951SOL     MW15804   5.465   2.468   3.905  0.1718 -0.0457  0.0945
 3952SOL     OW15805   2.706   4.769   0.826  0.0336  0.7946  0.2392
 3952SOL    HW115806   2.726   4.681   0.858  2.7221  0.5626 -1.7710
 3952SOL    HW215807   2.613   4.765   0.804  0.0141 -1.4702  0.4426
 3952SOL     MW15808   2.697   4.757   0.828  0.3753  0.4750  0.0079
 3953SOL     OW15809   3.120   4.372   3.977  0.1084 -0.0665 -0.7866
 3953SOL    HW115810   3.054   4.316   3.934 -0.4761 -0.9684  1.1751
 3953SOL    HW215811   3.175   4.311   4.025  1.6290  0.8034 -1.3729
 3953SOL     MW15812   3.118   4.357   3.978  0.2283 -0.0706 -0.6106
 3954SOL     OW15813   1.647   1.661   0.355 -0.3499  0.6145  0.1493
 3954SOL    HW115814   1.742   1.666   0.368 -0.3775  0.3801  0.4491
 3954SOL    HW215815   1.630   1.568   0.339 -0.5625  0.6142  0.3682
 3954SOL     MW15816   1.657   1.650   0.354 -0.3806  0.5844  0.2157
 3955SOL     OW15817   4.946   1.653   1.862  0.4819 -0.1224  0.3644
 3955SOL    HW115818   5.003   1.609   1.924  0.7904  1.1678  1.0328
 3955SOL    HW215819   4.971   1.617   1.777  3.6301  1.6680  0.3880
 3955SOL     MW15820   4.957   1.643   1.859  0.9244  0.2720  0.4530
 3956SOL     OW15821   0.071   5.384   4.269  0.0289  0.4994 -0.0348
 3956SOL    HW115822   0.110   5.361   4.354 -0.2195  1.8909  0.4818
 3956SOL    HW215823   0.027   5.304   4.241 -0.4923  0.2190  1.5045
 3956SOL     MW15824   0.070   5.371   4.276 -0.0696  0.6417  0.2284
 3957SOL     OW15825   4.487   0.590   3.430  0.4886  0.3719 -0.4624
 3957SOL    HW115826   4.393   0.603   3.440  0.2116  0.2339 -2.3921
 3957SOL    HW215827   4.495   0.510   3.378  1.5715  1.2613 -1.7632
 3957SOL     MW15828   4.476   0.581   3.424  0.5918  0.4681 -0.8760
 3958SOL     OW15829   1.620   0.684   3.999  0.4046  0.1509 -0.1043
 3958SOL    HW115830   1.681   0.610   3.995  0.2913  0.0053  0.7479
 3958SOL    HW215831   1.554   0.657   4.063  0.8326  1.3368  0.8679
 3958SOL     MW15832   1.620   0.671   4.007  0.4449  0.2841  0.1292
 3959SOL     OW15833   0.353   2.111   3.719  0.2411  0.3103  0.3940
 3959SOL    HW115834   0.341   2.032   3.771  2.1144  0.7112  1.5403
 3959SOL    HW215835   0.270   2.157   3.725 -0.3560 -0.8070  1.0076
 3959SOL     MW15836   0.341   2.107   3.726  0.4044  0.2186  0.6193
 3960SOL     OW15837   5.440   3.967   0.644 -0.3989  0.3670 -0.8072
 3960SOL    HW115838   5.413   3.959   0.553 -1.5526 -1.6873 -0.3606
 3960SOL    HW215839   5.358   3.968   0.693  0.1707 -1.8797  0.3578
 3960SOL     MW15840   5.426   3.966   0.639 -0.4737 -0.1836 -0.6009
 3961SOL     OW15841   2.424   4.768   2.361 -0.6717 -0.2029  0.0381
 3961SOL    HW115842   2.496   4.825   2.388 -1.0726  0.1045  0.4743
 3961SOL    HW215843   2.360   4.827   2.321  0.3362 -0.7562 -2.6060
 3961SOL     MW15844   2.425   4.783   2.359 -0.5940 -0.2344 -0.2446
 3962SOL     OW15845   3.366   0.237   0.629  0.2460 -0.2317  0.5509
 3962SOL    HW115846   3.299   0.187   0.674 -1.0887  0.5155 -0.5429
 3962SOL    HW215847   3.327   0.260   0.545  2.3069 -0.7612 -0.6195
 3962SOL     MW15848   3.353   0.234   0.624  0.3390 -0.2039  0.2610
 3963SOL     OW15849   3.635   1.483   1.501 -0.1680 -0.0909 -0.4625
 3963SOL    HW115850   3.642   1.544   1.574  0.8491 -0.3316 -0.3452
 3963SOL    HW215851   3.583   1.411   1.534 -0.9782  0.4911 -0.4531
 3963SOL     MW15852   3.630   1.482   1.514 -0.1415 -0.0472 -0.4463
 3964SOL     OW15853   4.468   4.086   0.204 -0.3062  0.1559 -0.6595
 3964SOL    HW115854   4.388   4.093   0.153 -0.3088  0.8681 -0.5656
 3964SOL    HW215855   4.441   4.103   0.294  0.0356  1.0275 -0.7041
 3964SOL     MW15856   4.454   4.089   0.209 -0.2628  0.3587 -0.6532
 3965SOL     OW15857   1.952   4.934   1.367 -0.0914  0.2135 -0.2353
 3965SOL    HW115858   1.953   4.889   1.452  1.2371 -1.0419 -0.8705
 3965SOL    HW215859   1.859   4.947   1.348 -0.4822 -1.0797  0.6150
 3965SOL     MW15860   1.940   4.930   1.375  0.0286 -0.1127 -0.2078
 3966SOL     OW15861   4.553   3.572   4.276 -0.6740  0.3583 -0.3981
 3966SOL    HW115862   4.589   3.514   4.342  0.6921  0.3315 -1.1407
 3966SOL    HW215863   4.458   3.566   4.287 -0.5533 -1.7304 -0.2325
 3966SOL     MW15864   4.545   3.564   4.286 -0.4836  0.0875 -0.4719
 3967SOL     OW15865   3.028   4.083   4.640 -0.1352 -0.5286 -0.0316
 3967SOL    HW115866   3.075   4.007   4.673  0.3770  0.5312  1.8054
 3967SOL    HW215867   3.093   4.131   4.589 -0.6143 -1.5645 -1.6957
 3967SOL     MW15868   3.042   4.079   4.638 -0.1310 -0.5255 -0.0094
 3968SOL     OW15869   4.378   1.531   3.112 -0.2329  0.3199 -0.0857
 3968SOL    HW115870   4.457   1.555   3.160 -0.0316  0.6637 -0.5785
 3968SOL    HW215871   4.307   1.547   3.174  0.1967 -2.1982  1.2027
 3968SOL     MW15872   4.379   1.536   3.126 -0.1521  0.0415  0.0162
 3969SOL     OW15873   2.394   3.728   0.210  0.2680  0.2047  0.3513
 3969SOL    HW115874   2.445   3.785   0.267  0.2976 -0.4582  1.0054
 3969SOL    HW215875   2.407   3.764   0.122 -0.5785  1.8331  0.8501
 3969SOL     MW15876   2.402   3.740   0.206  0.1634  0.3283  0.4989
 3970SOL     OW15877   4.028   4.618   0.337  0.1168  0.2671 -0.0188
 3970SOL    HW115878   4.109   4.665   0.318  0.6906 -0.5248  0.3889
 3970SOL    HW215879   3.975   4.629   0.258  1.7584 -1.4924 -1.4953
 3970SOL     MW15880   4.031   4.625   0.324  0.4004 -0.0595 -0.1556
 3971SOL     OW15881   3.195   5.003   3.878 -0.3647 -0.4576  0.0162
 3971SOL    HW115882   3.134   5.019   3.806  0.3072 -1.4820 -0.8118
 3971SOL    HW215883   3.254   5.078   3.877 -2.0808  1.0067  1.3973
 3971SOL     MW15884   3.195   5.015   3.869 -0.4984 -0.4013  0.0870
 3972SOL     OW15885   1.348   3.013   5.409  0.1479 -0.4650  0.3276
 3972SOL    HW115886   1.260   2.986   5.382  0.9854 -3.3722  0.1868
 3972SOL    HW215887   1.348   3.002   5.504 -0.1475  1.3940  0.5906
 3972SOL     MW15888   1.337   3.008   5.417  0.2173 -0.5992  0.3432
 3973SOL     OW15889   5.254   1.774   3.987  0.1504  0.4585 -0.4604
 3973SOL    HW115890   5.208   1.724   3.920  2.0202 -0.5863 -1.0263
 3973SOL    HW215891   5.284   1.853   3.941  1.8020 -0.4568 -1.0317
 3973SOL     MW15892   5.252   1.778   3.972  0.6012  0.2076 -0.6059
 3974SOL     OW15893   2.885   5.235   2.401 -0.3056  0.2482 -0.0046
 3974SOL    HW115894   2.932   5.202   2.477 -0.2524 -0.4750 -0.3400
 3974SOL    HW215895   2.937   5.310   2.372  0.8761 -0.7437 -0.5825
 3974SOL     MW15896   2.898   5.240   2.407 -0.1475  0.0286 -0.1215
 3975SOL     OW15897   4.672   2.952   3.307 -0.5292 -0.8178 -0.3922
 3975SOL    HW115898   4.621   3.029   3.332  0.1723 -0.2288 -0.7107
 3975SOL    HW215899   4.720   2.980   3.229  1.1897 -0.9251  0.5783
 3975SOL     MW15900   4.672   2.966   3.300 -0.2193 -0.7561 -0.3087
 3976SOL     OW15901   4.333   2.425   2.565 -0.0341  0.2169  0.0487
 3976SOL    HW115902   4.344   2.392   2.654 -0.7991 -0.4071 -0.0832
 3976SOL    HW215903   4.367   2.515   2.569 -1.3495  0.6965  1.3224
 3976SOL     MW15904   4.339   2.432   2.577 -0.3004  0.1984  0.1948
 3977SOL     OW15905   3.428   2.211   0.651 -0.0589 -0.4479  0.0949
 3977SOL    HW115906   3.430   2.172   0.739  0.0241 -1.4221 -0.3244
 3977SOL    HW215907   3.412   2.137   0.593 -0.4923  0.2448 -0.6866
 3977SOL     MW15908   3.426   2.196   0.655 -0.1037 -0.4839 -0.0588
 3978SOL     OW15909   2.371   4.652   2.954 -0.4043  0.2781 -0.2697
 3978SOL    HW115910   2.318   4.654   3.034 -2.1759  1.7429 -1.3784
 3978SOL    HW215911   2.310   4.622   2.886  1.3935 -2.1505 -0.9121
 3978SOL     MW15912   2.356   4.649   2.955 -0.4010  0.1547 -0.4938
 3979SOL     OW15913   2.567   1.759   0.981 -0.4988 -0.4357 -0.1391
 3979SOL    HW115914   2.644   1.755   0.925  0.5170 -2.0841  1.2799
 3979SOL    HW215915   2.596   1.805   1.060 -0.9155 -1.2141  0.4793
 3979SOL     MW15916   2.580   1.765   0.984 -0.4221 -0.7463  0.1217
 3980SOL     OW15917   2.806   3.761   2.251  0.1108 -0.2292  0.0830
 3980SOL    HW115918   2.760   3.824   2.306 -0.7853  0.3947 -1.3268
 3980SOL    HW215919   2.817   3.806   2.167  2.8602 -0.5398  0.1923
 3980SOL     MW15920   2.802   3.775   2.247  0.3480 -0.1891 -0.0835
 3981SOL     OW15921   2.231   1.809   5.040  0.0625  0.4787 -0.1733
 3981SOL    HW115922   2.185   1.876   5.090 -0.4256  2.1008 -2.6072
 3981SOL    HW215923   2.193   1.815   4.952  3.0479  0.0834 -1.6196
 3981SOL     MW15924   2.220   1.819   5.035  0.3822  0.6357 -0.6700
 3982SOL     OW15925   0.749   0.533   0.182  0.3510  0.2193 -0.1744
 3982SOL    HW115926   0.795   0.457   0.217 -0.9205 -1.1146 -1.2873
 3982SOL    HW215927   0.718   0.505   0.096 -2.7929  0.8957  0.6154
 3982SOL     MW15928   0.751   0.520   0.175 -0.2142  0.1351 -0.2158
 3983SOL     OW15929   2.071   0.017   2.544  0.4051 -0.5975  0.5371
 3983SOL    HW115930   2.019   0.004   2.623  1.9360  1.2721  1.9312
 3983SOL    HW215931   2.162   0.010   2.574  1.0216  0.4830 -0.9689
 3983SOL     MW15932   2.076   0.014   2.558  0.6800 -0.2199  0.5228
 3984SOL     OW15933   4.751   4.123   4.128 -0.1114 -0.0691  0.3658
 3984SOL    HW115934   4.846   4.113   4.142  0.1434 -0.4465 -1.4102
 3984SOL    HW215935   4.712   4.055   4.183  0.6186  0.1624  1.2127
 3984SOL     MW15936   4.758   4.113   4.137  0.0147 -0.0878  0.2469
 3985SOL     OW15937   1.166   3.508   5.246 -0.0646  0.4045  0.5563
 3985SOL    HW115938   1.195   3.533   5.158  0.1580  1.2436  0.8605
 3985SOL    HW215939   1.077   3.544   5.252 -0.5838 -0.7839  0.2065
 3985SOL     MW15940   1.158   3.516   5.235 -0.1026  0.3598  0.5505
 3986SOL     OW15941   4.203   1.825   5.127 -0.1299 -0.1476  0.4384
 3986SOL    HW115942   4.137   1.763   5.096  0.9282 -1.3840  0.5914
 3986SOL    HW215943   4.182   1.836   5.220 -0.2481 -0.3832  0.4417
 3986SOL     MW15944   4.192   1.818   5.135 -0.0096 -0.3360  0.4584
 3987SOL     OW15945   4.634   3.791   0.088 -0.2882 -0.0023  0.4203
 3987SOL    HW115946   4.621   3.711   0.139 -0.9867  0.5381  1.1216
 3987SOL    HW215947   4.679   3.850   0.147 -0.4768  0.3904  0.1757
 3987SOL     MW15948   4.638   3.788   0.102 -0.4017  0.1172  0.4788
 3988SOL     OW15949   1.332   2.605   0.913  0.3658 -0.3822 -0.7523
 3988SOL    HW115950   1.274   2.567   0.979 -1.7973 -0.7384 -2.7349
 3988SOL    HW215951   1.278   2.612   0.834  1.9741  2.7068 -1.7449
 3988SOL     MW15952   1.317   2.601   0.911  0.2948 -0.0324 -1.1332
 3989SOL     OW15953   0.373   4.043   1.810 -0.4008 -0.1476 -0.1465
 3989SOL    HW115954   0.465   4.063   1.791 -0.1454  0.8499  1.9298
 3989SOL    HW215955   0.346   3.985   1.738  2.0618 -1.0892 -0.4031
 3989SOL     MW15956   0.381   4.038   1.798 -0.0529 -0.1404  0.0864
 3990SOL     OW15957   0.617   1.097   5.089  0.6570 -1.0415 -0.6249
 3990SOL    HW115958   0.569   1.175   5.058  1.2509 -0.9176 -1.2645
 3990SOL    HW215959   0.708   1.115   5.066  0.6144 -2.6373 -2.3344
 3990SOL     MW15960   0.622   1.110   5.082  0.7276 -1.2299 -0.9256
 3991SOL     OW15961   2.880   2.084   5.087 -0.1752  0.1009  0.5024
 3991SOL    HW115962   2.826   2.046   5.156 -1.9428 -0.2940 -1.0220
 3991SOL    HW215963   2.837   2.167   5.066 -0.1599 -0.1772 -0.6904
 3991SOL     MW15964   2.868   2.090   5.093 -0.3995  0.0147  0.1546
 3992SOL     OW15965   2.144   2.036   0.533 -0.9046 -0.5267 -0.1781
 3992SOL    HW115966   2.196   2.096   0.585 -0.6953 -0.7470 -0.1349
 3992SOL    HW215967   2.087   2.093   0.481 -0.9499 -0.3019  0.1168
 3992SOL     MW15968   2.143   2.051   0.533 -0.8836 -0.5262 -0.1348
 3993SOL     OW15969   1.260   5.150   1.843  0.4490  0.1258 -0.0425
 3993SOL    HW115970   1.277   5.056   1.844  0.5431  0.1435  0.0292
 3993SOL    HW215971   1.345   5.189   1.822  1.2102  0.3783  3.0486
 3993SOL     MW15972   1.273   5.143   1.840  0.5585  0.1604  0.3624
 3994SOL     OW15973   3.343   3.971   1.425  0.5230 -0.2322 -0.2951
 3994SOL    HW115974   3.299   3.886   1.432 -1.2380  0.4912 -1.5586
 3994SOL    HW215975   3.361   3.981   1.331  1.5121  0.4095 -0.0514
 3994SOL     MW15976   3.340   3.962   1.414  0.4242 -0.0575 -0.4256
 3995SOL     OW15977   1.846   1.654   0.058  0.3121 -0.2752  0.0719
 3995SOL    HW115978   1.897   1.716   0.006 -0.8310 -1.1270 -2.2207
 3995SOL    HW215979   1.761   1.698   0.070  0.7678  0.1914  1.8978
 3995SOL     MW15980   1.841   1.668   0.053  0.2241 -0.3245  0.0121
 3996SOL     OW15981   4.128   0.646   2.618 -0.0383  0.2458  0.1933
 3996SOL    HW115982   4.214   0.608   2.597  0.7945  0.5102  2.8264
 3996SOL    HW215983   4.068   0.602   2.557  1.7977 -0.6173 -1.1159
 3996SOL     MW15984   4.131   0.635   2.607  0.3033  0.1692  0.3628
 3997SOL     OW15985   5.325   1.378   5.411 -0.0918  0.3211  0.1774
 3997SOL    HW115986   5.243   1.425   5.421 -0.0583  0.0298  2.2445
 3997SOL    HW215987   5.380   1.436   5.359 -1.0007  1.2967  0.2758
 3997SOL     MW15988   5.322   1.391   5.406 -0.2039  0.4087  0.4546
 3998SOL     OW15989   5.065   0.960   3.471  0.3728  0.5470 -0.2706
 3998SOL    HW115990   4.983   0.911   3.474  0.5355  0.2515 -0.6321
 3998SOL    HW215991   5.054   1.030   3.536 -0.1155  0.4349 -0.2341
 3998SOL     MW15992   5.053   0.963   3.480  0.3311  0.4948 -0.3122
 3999SOL     OW15993   3.521   1.014   3.292  0.7261 -0.2087 -0.0832
 3999SOL    HW115994   3.454   1.070   3.253  0.4813 -0.2218  0.3127
 3999SOL    HW215995   3.472   0.948   3.340  0.9830 -1.3376 -1.2992
 3999SOL     MW15996   3.506   1.013   3.293  0.7277 -0.3549 -0.1882
 4000SOL     OW15997   3.755   2.391   4.696  0.0093  0.4781 -0.3331
 4000SOL    HW115998   3.769   2.356   4.784  1.3801  1.0784 -0.2930
 4000SOL    HW215999   3.687   2.335   4.659 -0.8279  0.4014  1.2072
 4000SOL     MW16000   3.748   2.380   4.703  0.0776  0.5451 -0.1308
 4001SOL     OW16001   0.833   3.987   2.559  0.3992  0.1799  0.0154
 4001SOL    HW116002   0.847   3.938   2.478 -0.2445 -0.5981  0.3719
 4001SOL    HW216003   0.768   4.053   2.536  1.9676  1.5484 -0.7222
 4001SOL     MW16004   0.827   3.989   2.546  0.5176  0.2555 -0.0334
 4002SOL     OW16005   0.269   1.363   1.965 -0.2959  0.0384  0.0230
 4002SOL    HW116006   0.223   1.331   1.888 -1.7009  1.2753  0.2941
 4002SOL    HW216007   0.228   1.448   1.984  1.5524  0.8173  0.7969
 4002SOL     MW16008   0.258   1.370   1.958 -0.2391  0.2965  0.1567
 4003SOL     OW16009   3.222   2.665   0.649 -0.4733 -0.2092  0.0225
 4003SOL    HW116010   3.152   2.688   0.588 -0.0097  0.9655 -0.1084
 4003SOL    HW216011   3.261   2.586   0.613 -0.7297  0.0181 -0.7741
 4003SOL     MW16012   3.218   2.658   0.637 -0.4468 -0.0298 -0.0962
 4004SOL     OW16013   0.923   0.798   1.945  0.1921 -0.6076 -0.3086
 4004SOL    HW116014   0.897   0.890   1.948  0.8760 -0.4460  1.4315
 4004SOL    HW216015   1.018   0.800   1.934  0.3413 -1.0690  0.7643
 4004SOL     MW16016   0.932   0.810   1.944  0.2987 -0.6460  0.0515
 4005SOL     OW16017   0.594   0.479   2.172 -0.0686 -0.5988 -0.2131
 4005SOL    HW116018   0.636   0.421   2.108  2.4010  1.5551 -0.7411
 4005SOL    HW216019   0.570   0.557   2.121 -0.1312  0.2550  1.0705
 4005SOL     MW16020   0.596   0.482   2.157  0.2396 -0.2138 -0.1164
 4006SOL     OW16021   2.676   0.477   1.075  0.1564 -0.4716  0.5792
 4006SOL    HW116022   2.595   0.501   1.030 -0.3942  0.2992  1.9240
 4006SOL    HW216023   2.721   0.561   1.089  0.4156 -0.7201  1.2706
 4006SOL     MW16024   2.672   0.491   1.071  0.1191 -0.4047  0.8398
 4007SOL     OW16025   4.081   4.370   3.880 -0.0194  0.0133  0.3242
 4007SOL    HW116026   4.091   4.285   3.837  0.6109  1.2166 -2.0803
 4007SOL    HW216027   4.116   4.356   3.969 -0.8323 -2.4367  0.3458
 4007SOL     MW16028   4.087   4.357   3.886 -0.0428 -0.1463  0.0192
 4008SOL     OW16029   3.521   4.866   2.606 -0.3032 -0.3550 -0.4758
 4008SOL    HW116030   3.436   4.869   2.562 -1.4260  1.2285  1.6362
 4008SOL    HW216031   3.540   4.772   2.615 -2.0662 -0.7627 -0.5618
 4008SOL     MW16032   3.512   4.854   2.601 -0.6726 -0.2045 -0.2165
 4009SOL     OW16033   1.607   1.817   0.084 -0.3394  0.0557  0.0403
 4009SOL    HW116034   1.579   1.777   0.167 -0.4523  0.1538  0.0495
 4009SOL    HW216035   1.526   1.849   0.044 -0.0828  1.7726  0.8040
 4009SOL     MW16036   1.593   1.816   0.089 -0.3210  0.2880  0.1392
 4010SOL     OW16037   0.131   2.073   5.497  0.0466  0.1166  0.2311
 4010SOL    HW116038   0.186   2.123   5.437 -0.1360 -0.1842 -0.2033
 4010SOL    HW216039   0.139   1.983   5.466  0.1313 -0.0799  0.8117
 4010SOL     MW16040   0.139   2.068   5.485  0.0341  0.0529  0.2498
 4011SOL     OW16041   4.703   2.461   3.219  0.4420  0.3007  0.1260
 4011SOL    HW116042   4.664   2.519   3.285  0.1935  1.8087 -1.2661
 4011SOL    HW216043   4.758   2.519   3.166  0.7654 -0.8960 -0.8926
 4011SOL     MW16044   4.705   2.476   3.221  0.4516  0.3405 -0.1826
 4012SOL     OW16045   4.193   3.084   2.959  0.6842  0.0724 -0.0137
 4012SOL    HW116046   4.244   3.132   2.893  0.8891 -1.7557 -1.2566
 4012SOL    HW216047   4.141   3.151   3.003  0.7642  1.4023 -1.8496
 4012SOL     MW16048   4.193   3.099   2.956  0.7207  0.0086 -0.4078
 4013SOL     OW16049   5.175   1.502   3.749  0.9728  0.1833  0.0751
 4013SOL    HW116050   5.160   1.427   3.806 -0.3831 -0.5466 -1.1688
 4013SOL    HW216051   5.270   1.506   3.738  1.0121 -2.5909 -1.3752
 4013SOL     MW16052   5.185   1.493   3.755  0.8043 -0.2653 -0.2698
 4014SOL     OW16053   2.519   2.841   5.186  0.8256  0.6377 -0.0160
 4014SOL    HW116054   2.557   2.753   5.179  0.9320  0.6408  0.4858
 4014SOL    HW216055   2.527   2.863   5.278 -1.4130  0.1938  0.3230
 4014SOL     MW16056   2.525   2.833   5.197  0.5527  0.5813  0.0916
 4015SOL     OW16057   4.093   5.004   1.810 -0.2988 -0.1761  0.1098
 4015SOL    HW116058   4.016   5.016   1.754 -0.8328 -1.6326  0.4731
 4015SOL    HW216059   4.064   4.940   1.876  1.0533 -0.3045  0.5998
 4015SOL     MW16060   4.079   4.997   1.811 -0.1941 -0.3790  0.2191
 4016SOL     OW16061   4.974   3.784   2.416 -0.2666 -0.3971 -0.1347
 4016SOL    HW116062   4.984   3.795   2.510 -0.6512 -0.5969 -0.0675
 4016SOL    HW216063   4.921   3.858   2.388 -0.7176 -0.7012 -0.0864
 4016SOL     MW16064   4.969   3.795   2.424 -0.3735 -0.4616 -0.1199
 4017SOL     OW16065   3.099   4.121   1.451  0.1300 -1.1964 -0.2847
 4017SOL    HW116066   3.092   4.165   1.535 -1.4235 -0.2956 -0.8487
 4017SOL    HW216067   3.168   4.056   1.464 -0.0318 -1.0430  1.6561
 4017SOL     MW16068   3.107   4.118   1.463 -0.0896 -1.0615 -0.1084
 4018SOL     OW16069   4.370   4.350   0.080  0.1629 -0.0528 -0.5434
 4018SOL    HW116070   4.359   4.258   0.103 -2.3713 -0.3073 -2.2836
 4018SOL    HW216071   4.433   4.350   0.008  0.7187 -0.3221 -0.0647
 4018SOL     MW16072   4.376   4.338   0.073 -0.0904 -0.1199 -0.7049
 4019SOL     OW16073   0.776   1.640   1.317  0.6785 -0.4876 -0.0766
 4019SOL    HW116074   0.696   1.692   1.320 -0.1645 -1.7817  2.4321
 4019SOL    HW216075   0.842   1.697   1.356  0.4772 -0.2283 -0.1083
 4019SOL     MW16076   0.774   1.654   1.322  0.5448 -0.6200  0.2405
 4020SOL     OW16077   3.438   3.197   5.238 -0.3686  0.1059  0.2167
 4020SOL    HW116078   3.411   3.234   5.154 -0.6309  1.0833  0.7150
 4020SOL    HW216079   3.464   3.107   5.218  1.5568  0.9198 -1.2763
 4020SOL     MW16080   3.438   3.190   5.225 -0.1557  0.3352  0.0894
 4021SOL     OW16081   0.369   3.525   4.317 -0.4476 -0.6478 -0.0223
 4021SOL    HW116082   0.414   3.599   4.277 -0.2794 -0.3547  0.7002
 4021SOL    HW216083   0.302   3.564   4.373 -1.5987 -1.0744 -1.0440
 4021SOL     MW16084   0.366   3.539   4.319 -0.5734 -0.6649 -0.0606
 4022SOL     OW16085   1.818   4.634   3.470  0.4032  0.0422  0.6888
 4022SOL    HW116086   1.786   4.552   3.507 -0.4767  0.7037  1.4534
 4022SOL    HW216087   1.810   4.622   3.375 -0.9289 -0.3050  0.8202
 4022SOL     MW16088   1.813   4.622   3.462  0.1200  0.0824  0.8035
 4023SOL     OW16089   4.678   1.564   5.311  0.6901 -0.7683  0.0740
 4023SOL    HW116090   4.733   1.618   5.367  1.8995 -2.7349  0.9070
 4023SOL    HW216091   4.721   1.567   5.225  0.2132  0.3149 -0.1347
 4023SOL     MW16092   4.690   1.571   5.307  0.7839 -0.8813  0.1539
 4024SOL     OW16093   2.308   3.594   2.641 -0.2784 -0.2740  0.5733
 4024SOL    HW116094   2.310   3.571   2.548 -0.2428  0.4775  0.3808
 4024SOL    HW216095   2.345   3.518   2.685 -0.3933 -0.6805 -0.0203
 4024SOL     MW16096   2.313   3.582   2.635 -0.2885 -0.2298  0.4727
 4025SOL     OW16097   0.473   1.110   4.747 -0.2673 -0.0715 -0.9409
 4025SOL    HW116098   0.505   1.041   4.806 -0.5412  0.8530  0.3208
 4025SOL    HW216099   0.391   1.138   4.786 -0.8118  0.0842 -2.1713
 4025SOL     MW16100   0.467   1.105   4.760 -0.3721  0.0668 -0.9369
 4026SOL     OW16101   2.078   1.371   0.271 -0.4123  0.0202  0.4599
 4026SOL    HW116102   2.123   1.299   0.226 -0.8686 -0.0735  0.1551
 4026SOL    HW216103   2.069   1.439   0.205  0.7481  0.6984  0.9562
 4026SOL     MW16104   2.083   1.371   0.257 -0.3221  0.0950  0.4844
 4027SOL     OW16105   3.238   2.290   2.845  0.1740  0.2648 -0.3804
 4027SOL    HW116106   3.176   2.362   2.852 -1.6516 -1.3210  0.7158
 4027SOL    HW216107   3.188   2.218   2.806  1.3773 -0.9839  0.2828
 4027SOL     MW16108   3.224   2.290   2.841  0.0943 -0.0980 -0.1551
 4028SOL     OW16109   3.685   2.613   1.427  0.2197  0.3104 -0.1030
 4028SOL    HW116110   3.772   2.654   1.429  0.3314  0.1597 -1.2089
 4028SOL    HW216111   3.624   2.686   1.416  0.1737  0.4362  0.8775
 4028SOL     MW16112   3.688   2.627   1.426  0.2281  0.3072 -0.1190
 4029SOL     OW16113   0.774   3.659   3.049 -0.5077  0.1224  0.1683
 4029SOL    HW116114   0.816   3.734   3.008  1.4332 -0.2850  1.2915
 4029SOL    HW216115   0.711   3.628   2.983 -0.2860  1.8051 -0.8953
 4029SOL     MW16116   0.771   3.664   3.035 -0.2308  0.2856  0.1759
 4030SOL     OW16117   4.645   1.100   2.088 -0.1427  0.3387 -0.3283
 4030SOL    HW116118   4.576   1.067   2.031  0.4789 -2.3397  0.3400
 4030SOL    HW216119   4.600   1.154   2.153 -0.9617  2.7181 -2.6646
 4030SOL     MW16120   4.630   1.103   2.089 -0.1680  0.3005 -0.5419
 4031SOL     OW16121   2.518   2.307   2.794 -0.5387 -0.4858 -0.3036
 4031SOL    HW116122   2.532   2.288   2.702 -0.2317 -0.3259 -0.2908
 4031SOL    HW216123   2.604   2.297   2.835 -0.4010  0.7165 -0.2666
 4031SOL     MW16124   2.531   2.303   2.787 -0.4818 -0.3114 -0.2973
 4032SOL     OW16125   2.766   1.514   1.497  0.3150  0.4336  0.4987
 4032SOL    HW116126   2.850   1.560   1.501  0.9273 -0.6159  0.1741
 4032SOL    HW216127   2.701   1.583   1.491  1.2287  1.2501 -0.4006
 4032SOL     MW16128   2.769   1.529   1.497  0.5104  0.4038  0.3421
 4033SOL     OW16129   2.490   2.785   4.660 -0.0937  0.1171 -0.2313
 4033SOL    HW116130   2.504   2.749   4.572  1.5238  2.2462 -0.9445
 4033SOL    HW216131   2.511   2.714   4.719 -0.2548 -1.0705 -1.5494
 4033SOL     MW16132   2.494   2.772   4.656  0.0927  0.2376 -0.4914
 4034SOL     OW16133   0.262   3.716   2.618  0.2899  0.5990 -0.2690
 4034SOL    HW116134   0.226   3.679   2.698 -0.8816  1.0813 -0.5563
 4034SOL    HW216135   0.262   3.643   2.556 -0.8516  0.7517 -0.4647
 4034SOL     MW16136   0.257   3.702   2.620 -0.0062  0.6803 -0.3308
 4035SOL     OW16137   1.906   3.385   5.133  0.2543 -0.6780 -0.3131
 4035SOL    HW116138   1.822   3.430   5.144  0.4349 -0.7997  2.0173
 4035SOL    HW216139   1.957   3.410   5.210  1.5463 -2.2988 -0.5896
 4035SOL     MW16140   1.902   3.394   5.144  0.4428 -0.9010 -0.0502
 4036SOL     OW16141   2.134   3.313   0.717 -0.2074 -0.0530  0.2703
 4036SOL    HW116142   2.052   3.329   0.670 -0.2573 -0.8357  0.0649
 4036SOL    HW216143   2.192   3.276   0.650  0.1454  0.0271  0.5311
 4036SOL     MW16144   2.131   3.310   0.702 -0.1686 -0.1429  0.2774
 4037SOL     OW16145   5.381   1.471   1.340  0.3675 -0.0780  0.2276
 4037SOL    HW116146   5.434   1.522   1.401  0.7564  0.3545 -0.4477
 4037SOL    HW216147   5.344   1.400   1.392  1.1804 -0.0734  0.8249
 4037SOL     MW16148   5.383   1.469   1.354  0.5214 -0.0221  0.2176
 4038SOL     OW16149   0.273   2.550   1.257 -0.2848  0.7615  0.1878
 4038SOL    HW116150   0.224   2.598   1.323 -2.2230 -1.4071  0.4684
 4038SOL    HW216151   0.242   2.460   1.265  1.4595 -0.1127 -1.8403
 4038SOL     MW16152   0.263   2.544   1.266 -0.3097  0.3719 -0.0359
 4039SOL     OW16153   2.559   4.157   1.223  0.2785 -0.0439 -0.0193
 4039SOL    HW116154   2.626   4.204   1.273 -0.2440  0.0766  0.5754
 4039SOL    HW216155   2.562   4.067   1.255 -1.7500  0.5507  2.0802
 4039SOL     MW16156   2.568   4.152   1.233 -0.0481  0.0477  0.3256
 4040SOL     OW16157   3.741   4.668   5.148 -0.4084 -0.0761 -0.0026
 4040SOL    HW116158   3.680   4.707   5.210  0.5156 -0.5894  1.2872
 4040SOL    HW216159   3.818   4.725   5.150  0.0758 -0.7177  0.2068
 4040SOL     MW16160   3.743   4.680   5.156 -0.2281 -0.2239  0.1893
 4041SOL     OW16161   2.491   3.603   0.982 -0.2014 -0.1480  0.3599
 4041SOL    HW116162   2.553   3.661   0.935 -0.3514  0.5805  1.0385
 4041SOL    HW216163   2.462   3.541   0.915  0.0697  0.4781 -0.3663
 4041SOL     MW16164   2.495   3.603   0.967 -0.1859  0.0254  0.3538
 4042SOL     OW16165   1.313   0.813   5.350 -0.1011 -0.1606 -0.0150
 4042SOL    HW116166   1.393   0.863   5.336 -0.9994  1.9978  1.9339
 4042SOL    HW216167   1.265   0.821   5.267  0.0309  1.8213  0.0544
 4042SOL     MW16168   1.317   0.821   5.337 -0.1992  0.3694  0.2434
 4043SOL     OW16169   0.841   2.309   4.197 -0.3426 -0.3910  0.2405
 4043SOL    HW116170   0.837   2.214   4.210 -2.2838 -0.3737  0.0098
 4043SOL    HW216171   0.896   2.340   4.269  1.5434 -1.7956 -0.4992
 4043SOL     MW16172   0.847   2.301   4.208 -0.3496 -0.5686  0.1163
 4044SOL     OW16173   5.038   0.422   3.983 -0.3541 -0.0249  0.4916
 4044SOL    HW116174   5.034   0.327   3.996 -2.0906 -0.0924 -0.3916
 4044SOL    HW216175   5.111   0.434   3.922 -1.4763 -1.0259 -1.1295
 4044SOL     MW16176   5.047   0.411   3.977 -0.7201 -0.1617  0.1710
 4045SOL     OW16177   4.424   2.836   4.263  0.0235  0.1600 -0.1463
 4045SOL    HW116178   4.482   2.773   4.220  2.4383  1.2443  1.2714
 4045SOL    HW216179   4.429   2.914   4.209 -1.1598 -0.1036 -0.6722
 4045SOL     MW16180   4.432   2.838   4.251  0.1811  0.2651 -0.0321
 4046SOL     OW16181   0.037   1.661   1.009  0.1190 -0.7362  0.0092
 4046SOL    HW116182   0.044   1.568   1.032 -0.1262 -0.5834  0.7472
 4046SOL    HW216183  -0.039   1.691   1.058  0.2833 -0.1083 -0.1191
 4046SOL     MW16184   0.028   1.653   1.018  0.1087 -0.6362  0.0873
 4047SOL     OW16185   1.064   4.604   4.612  0.5934 -0.4111  0.8163
 4047SOL    HW116186   1.084   4.516   4.580  1.2599 -0.5436  1.5674
 4047SOL    HW216187   1.059   4.595   4.707 -0.9923  0.0464  0.8070
 4047SOL     MW16188   1.066   4.592   4.620  0.4758 -0.3695  0.9113
 4048SOL     OW16189   2.752   2.517   1.983  0.1665 -0.1096  0.2107
 4048SOL    HW116190   2.822   2.476   2.034  0.5956  0.8662  0.4290
 4048SOL    HW216191   2.710   2.577   2.045  1.3361  1.8411 -0.8082
 4048SOL     MW16192   2.756   2.519   1.998  0.3712  0.2650  0.1082
 4049SOL     OW16193   3.459   4.563   3.033  0.1129  0.2033  0.4257
 4049SOL    HW116194   3.378   4.600   3.069 -0.5705 -0.6468 -0.2157
 4049SOL    HW216195   3.511   4.540   3.111 -1.7848 -2.5897  1.0237
 4049SOL     MW16196   3.455   4.565   3.048 -0.2175 -0.2631  0.4202
 4050SOL     OW16197   0.663   2.521   4.189 -0.0483 -0.1619  0.7789
 4050SOL    HW116198   0.672   2.556   4.101 -1.2301 -1.1800  0.2139
 4050SOL    HW216199   0.697   2.431   4.182 -2.3150 -1.0808  0.7149
 4050SOL     MW16200   0.669   2.514   4.177 -0.4897 -0.4099  0.6984
 4051SOL     OW16201   3.672   1.608   4.148 -0.2610 -0.1830 -0.3636
 4051SOL    HW116202   3.671   1.578   4.239  0.8996  0.4944 -0.1130
 4051SOL    HW216203   3.704   1.698   4.152 -1.8992  0.4946 -1.2852
 4051SOL     MW16204   3.676   1.616   4.160 -0.3222 -0.0095 -0.4495
 4052SOL     OW16205   3.550   3.222   2.591 -0.1437  0.1290  0.1686
 4052SOL    HW116206   3.604   3.202   2.514  0.7324  0.7867  0.6090
 4052SOL    HW216207   3.579   3.160   2.658  1.2459  1.5443  0.9289
 4052SOL     MW16208   3.561   3.211   2.589  0.1463  0.3944  0.3223
 4053SOL     OW16209   1.701   1.926   4.225  0.3077 -0.3436  0.6368
 4053SOL    HW116210   1.675   1.874   4.148 -0.8026  2.0652 -0.7140
 4053SOL    HW216211   1.680   1.869   4.299 -0.7430 -1.8863 -0.7516
 4053SOL     MW16212   1.695   1.912   4.224  0.0310 -0.2327  0.2862
 4054SOL     OW16213   0.826   0.356   4.500 -0.4067  0.7419  0.2174
 4054SOL    HW116214   0.750   0.406   4.471 -0.4086  2.5507  2.8964
 4054SOL    HW216215   0.895   0.422   4.512  0.8933 -0.5192 -0.0113
 4054SOL     MW16216   0.825   0.371   4.498 -0.2405  0.8120  0.5311
 4055SOL     OW16217   0.799   2.003   3.792  0.0042  0.2308 -0.2579
 4055SOL    HW116218   0.868   1.999   3.726  1.0028 -2.0118  0.8008
 4055SOL    HW216219   0.839   2.048   3.866 -0.2074  0.3584 -0.2196
 4055SOL     MW16220   0.813   2.008   3.793  0.1050 -0.0400 -0.1175
 4056SOL     OW16221   2.281   1.119   2.051  0.8747 -0.3178 -0.1353
 4056SOL    HW116222   2.265   1.214   2.059  0.3349 -0.4166  0.0123
 4056SOL    HW216223   2.376   1.111   2.047  0.9082  0.2983 -0.9470
 4056SOL     MW16224   2.291   1.130   2.051  0.8099 -0.2516 -0.2203
 4057SOL     OW16225   4.686   2.900   1.230 -0.3920 -0.7623  0.4969
 4057SOL    HW116226   4.697   2.988   1.192  0.3231 -0.9799  0.1861
 4057SOL    HW216227   4.592   2.885   1.227 -0.2882 -1.5955 -3.1634
 4057SOL     MW16228   4.675   2.909   1.224 -0.2872 -0.8968 -0.0114
 4058SOL     OW16229   4.371   0.176   2.223  0.6294 -0.1371 -0.1225
 4058SOL    HW116230   4.444   0.212   2.274  1.4243 -2.6590  0.7015
 4058SOL    HW216231   4.409   0.158   2.137  0.7843 -0.7561  0.0716
 4058SOL     MW16232   4.385   0.178   2.219  0.7510 -0.5391  0.0078
 4059SOL     OW16233   3.289   4.733   2.575  0.2659 -0.3570 -0.0056
 4059SOL    HW116234   3.313   4.649   2.534 -0.0320  0.1951 -1.3931
 4059SOL    HW216235   3.209   4.714   2.624 -0.3933 -0.6785 -1.1666
 4059SOL     MW16236   3.282   4.720   2.576  0.1434 -0.3275 -0.3318
 4060SOL     OW16237   3.931   0.452   4.454 -0.0347 -0.2700 -0.4910
 4060SOL    HW116238   3.856   0.408   4.494 -0.1011 -0.3397 -0.6902
 4060SOL    HW216239   4.006   0.426   4.507 -0.3760  1.1983  0.8068
 4060SOL     MW16240   3.931   0.443   4.466 -0.0869 -0.0910 -0.3504
 4061SOL     OW16241   0.521   2.793   0.188 -0.4584 -0.2118  0.3554
 4061SOL    HW116242   0.452   2.770   0.126  0.3223  1.3284 -1.1412
 4061SOL    HW216243   0.594   2.736   0.166  0.1208  0.9284 -0.7589
 4061SOL     MW16244   0.521   2.783   0.177 -0.2843  0.1314  0.0211
 4062SOL     OW16245   3.743   5.060   3.464  0.3460 -0.1541 -0.1519
 4062SOL    HW116246   3.700   4.976   3.447  1.0200 -0.8525  1.3876
 4062SOL    HW216247   3.717   5.115   3.391 -1.7601 -1.0716 -0.1661
 4062SOL     MW16248   3.734   5.056   3.452  0.1627 -0.3609  0.0434
 4063SOL     OW16249   0.120   1.661   3.189 -0.8476  0.4353 -0.5325
 4063SOL    HW116250   0.187   1.621   3.244 -2.9980  0.4382  2.3130
 4063SOL    HW216251   0.128   1.755   3.205 -1.8028  0.4023  0.2223
 4063SOL     MW16252   0.130   1.668   3.198 -1.2451  0.4314 -0.0716
 4064SOL     OW16253   3.981   1.093   2.069  0.2114  0.2559  0.4177
 4064SOL    HW116254   3.921   1.166   2.081  0.5482  0.5078  0.5771
 4064SOL    HW216255   4.059   1.117   2.119  0.5682  0.0773 -0.0489
 4064SOL     MW16256   3.983   1.106   2.077  0.3002  0.2653  0.3784
 4065SOL     OW16257   3.467   1.814   4.322  0.0370 -0.1708  0.4076
 4065SOL    HW116258   3.561   1.800   4.311 -0.1086  0.4494 -2.1724
 4065SOL    HW216259   3.460   1.875   4.395  1.5768 -0.8348  1.1525
 4065SOL     MW16260   3.478   1.820   4.330  0.2155 -0.1764  0.1727
 4066SOL     OW16261   1.965   2.740   0.183  0.2840 -0.1741  0.6258
 4066SOL    HW116262   1.885   2.693   0.158 -0.0856 -0.3706  2.0496
 4066SOL    HW216263   2.036   2.683   0.155 -0.1498 -1.3343  1.7970
 4066SOL     MW16264   1.964   2.727   0.176  0.1812 -0.3478  0.9580
 4067SOL     OW16265   2.564   4.060   4.098 -0.6553  0.4273  0.0353
 4067SOL    HW116266   2.496   4.004   4.136  0.4306  0.3299  1.9197
 4067SOL    HW216267   2.603   4.005   4.030 -2.0074  0.2630 -0.6635
 4067SOL     MW16268   2.560   4.045   4.094 -0.6894  0.3938  0.1871
 4068SOL     OW16269   4.610   2.070   5.343  0.0249  0.1690 -0.1539
 4068SOL    HW116270   4.532   2.119   5.315  0.0423  0.5024  0.3640
 4068SOL    HW216271   4.650   2.126   5.409  0.7254  0.0118 -0.4376
 4068SOL     MW16272   4.605   2.084   5.348  0.1168  0.1916 -0.1239
 4069SOL     OW16273   3.626   4.654   0.667  0.2500  0.6588 -0.5153
 4069SOL    HW116274   3.585   4.569   0.687  0.5400  0.2494 -1.5858
 4069SOL    HW216275   3.584   4.682   0.586 -1.0960  2.4006  0.7161
 4069SOL     MW16276   3.615   4.646   0.659  0.1148  0.8294 -0.4947
 4070SOL     OW16277   2.845   0.235   5.128 -0.1318 -0.5412  0.1420
 4070SOL    HW116278   2.904   0.220   5.054 -2.1284 -1.1830 -1.4073
 4070SOL    HW216279   2.851   0.154   5.179  1.7526  0.1591  1.1094
 4070SOL     MW16280   2.854   0.223   5.125 -0.1462 -0.5337  0.0675
 4071SOL     OW16281   1.618   5.002   0.056 -0.5310  0.1540 -0.2732
 4071SOL    HW116282   1.685   5.058   0.017  0.1505 -1.2493 -1.1715
 4071SOL    HW216283   1.666   4.933   0.100 -1.3258  0.9316  1.9819
 4071SOL     MW16284   1.632   5.000   0.057 -0.5455  0.0739 -0.0995
 4072SOL     OW16285   3.973   2.328   4.906  0.2197 -0.2508  0.4280
 4072SOL    HW116286   4.035   2.306   4.976  0.7070 -1.5592 -0.3862
 4072SOL    HW216287   3.894   2.357   4.953  0.9994  0.2353  1.4930
 4072SOL     MW16288   3.971   2.329   4.921  0.3819 -0.3561  0.4601
 4073SOL     OW16289   3.606   4.939   1.854  0.3668  0.0115  0.2347
 4073SOL    HW116290   3.668   5.012   1.853  0.5732 -0.1682 -0.6396
 4073SOL    HW216291   3.635   4.885   1.927 -0.5537  1.4371  1.7180
 4073SOL     MW16292   3.618   4.941   1.863  0.2754  0.1710  0.3126
 4074SOL     OW16293   1.162   2.925   3.654 -0.0535  0.3534 -0.2607
 4074SOL    HW116294   1.093   2.961   3.710  0.0936  0.2336 -0.0005
 4074SOL    HW216295   1.180   2.994   3.591 -1.4441 -0.1470 -1.2604
 4074SOL     MW16296   1.155   2.938   3.653 -0.2127  0.2740 -0.3554
 4075SOL     OW16297   0.549   4.605   1.824 -0.1082 -0.4732 -0.0610
 4075SOL    HW116298   0.617   4.543   1.795 -0.8004 -1.1751 -0.2181
 4075SOL    HW216299   0.469   4.553   1.828 -1.0284  0.7242 -1.6435
 4075SOL     MW16300   0.548   4.590   1.820 -0.3146 -0.4098 -0.2837
 4076SOL     OW16301   1.773   2.439   4.783  0.0193 -0.0979  0.3094
 4076SOL    HW116302   1.857   2.412   4.745 -0.0822  2.0033 -1.6083
 4076SOL    HW216303   1.797   2.505   4.848  0.0627 -2.5544  3.0043
 4076SOL     MW16304   1.787   2.444   4.786  0.0118 -0.1434  0.4089
 4077SOL     OW16305   1.310   2.942   5.083  0.1620 -0.5292  0.0728
 4077SOL    HW116306   1.361   2.966   5.006 -0.0679 -1.2180 -0.2998
 4077SOL    HW216307   1.371   2.953   5.156  0.8410 -1.2857 -0.3606
 4077SOL     MW16308   1.324   2.946   5.083  0.2195 -0.7142 -0.0304
 4078SOL     OW16309   4.214   5.407   1.155 -0.0722  0.3946  0.6770
 4078SOL    HW116310   4.284   5.399   1.090 -0.4339 -0.0762  0.3330
 4078SOL    HW216311   4.148   5.344   1.126 -1.0046  1.4129  0.5208
 4078SOL     MW16312   4.215   5.398   1.143 -0.2378  0.4647  0.6130
 4079SOL     OW16313   3.922   0.477   2.366  0.0146 -0.3135 -0.3245
 4079SOL    HW116314   3.836   0.512   2.344  0.3300  1.7680  1.4046
 4079SOL    HW216315   3.941   0.414   2.296 -2.0868  0.5454 -1.7665
 4079SOL     MW16316   3.914   0.473   2.354 -0.2140  0.0629 -0.2877
 4080SOL     OW16317   5.034   2.998   3.739  0.0834 -0.2493  0.1175
 4080SOL    HW116318   4.995   3.017   3.654 -0.4013 -0.4023  0.3062
 4080SOL    HW216319   5.125   3.028   3.730  0.1206 -0.5293 -0.5509
 4080SOL     MW16320   5.041   3.004   3.727  0.0261 -0.3047  0.0561
 4081SOL     OW16321   3.023   4.964   0.902  0.2584 -0.9566 -0.3713
 4081SOL    HW116322   3.024   4.998   0.991 -0.4534 -0.8545 -0.3887
 4081SOL    HW216323   3.026   5.042   0.846 -0.3696 -0.9537 -0.4182
 4081SOL     MW16324   3.023   4.979   0.906  0.0869 -0.9432 -0.3795
 4082SOL     OW16325   3.273   4.985   5.053 -0.8972 -0.3228  0.2445
 4082SOL    HW116326   3.282   4.993   5.148  0.2523 -0.1492  0.1358
 4082SOL    HW216327   3.313   4.900   5.033 -0.9206 -0.2489 -0.1070
 4082SOL     MW16328   3.279   4.975   5.063 -0.7531 -0.2911  0.1856
 4083SOL     OW16329   3.172   3.465   3.156  0.1875  0.4271  0.2628
 4083SOL    HW116330   3.261   3.488   3.127  0.6146  0.9045  1.8814
 4083SOL    HW216331   3.149   3.531   3.221 -2.0517  1.2976 -1.2981
 4083SOL     MW16332   3.181   3.476   3.160 -0.0445  0.5997  0.2702
 4084SOL     OW16333   3.434   4.982   1.317  0.6893  0.0581 -0.1553
 4084SOL    HW116334   3.381   4.931   1.256  1.2963 -0.1457 -0.5235
 4084SOL    HW216335   3.394   5.069   1.317 -1.0399 -0.6814  1.3310
 4084SOL     MW16336   3.422   4.987   1.309  0.5457 -0.0627 -0.0122
 4085SOL     OW16337   1.560   1.491   4.790  0.5363 -0.1510  0.0682
 4085SOL    HW116338   1.610   1.540   4.856  1.0124  1.2809 -1.3080
 4085SOL    HW216339   1.485   1.546   4.771  0.7321 -0.2375 -1.0332
 4085SOL     MW16340   1.557   1.504   4.796  0.6223  0.0212 -0.2490
 4086SOL     OW16341   5.085   3.770   5.033 -0.3113  0.2735 -0.0412
 4086SOL    HW116342   5.110   3.764   4.941 -1.0599  0.7613 -0.2892
 4086SOL    HW216343   5.031   3.693   5.048 -0.4137  0.3340 -0.0924
 4086SOL     MW16344   5.081   3.760   5.023 -0.4202  0.3437 -0.0795
 4087SOL     OW16345   2.916   3.476   2.218 -0.3014 -0.2259  0.0748
 4087SOL    HW116346   2.850   3.519   2.272 -0.7344  0.1561 -0.7376
 4087SOL    HW216347   2.915   3.385   2.246 -1.9374 -0.4497 -0.6362
 4087SOL     MW16348   2.908   3.470   2.228 -0.5663 -0.2057 -0.1202
 4088SOL     OW16349   4.235   5.366   2.530 -0.4107  0.2369  0.1113
 4088SOL    HW116350   4.263   5.374   2.438 -0.5553 -1.4693 -0.1209
 4088SOL    HW216351   4.293   5.299   2.566 -1.9825 -0.9393  0.5426
 4088SOL     MW16352   4.246   5.359   2.523 -0.6304 -0.1321  0.1368
 4089SOL     OW16353   3.516   2.925   5.258  0.0732  0.3283  0.7589
 4089SOL    HW116354   3.514   2.856   5.191  0.2242 -0.4552  1.5390
 4089SOL    HW216355   3.597   2.973   5.241  0.3904 -0.2153  0.7114
 4089SOL     MW16356   3.526   2.922   5.247  0.1331  0.1584  0.8526
 4090SOL     OW16357   5.005   3.166   2.153  0.0959 -0.2642 -0.0265
 4090SOL    HW116358   5.018   3.260   2.165 -1.5493 -0.2697  2.4255
 4090SOL    HW216359   4.920   3.159   2.110  0.5155 -0.6434 -0.8229
 4090SOL     MW16360   4.996   3.177   2.149 -0.0610 -0.3135  0.1854
 4091SOL     OW16361   5.036   3.326   5.263 -0.1583 -0.1006 -0.2100
 4091SOL    HW116362   5.118   3.341   5.217  0.4721  0.1307  0.9535
 4091SOL    HW216363   5.016   3.234   5.246  0.9158 -0.4563  0.3620
 4091SOL     MW16364   5.044   3.316   5.255  0.0599 -0.1165  0.0122
 4092SOL     OW16365   3.530   1.087   5.464  0.2321  0.5074  0.1511
 4092SOL    HW116366   3.554   0.996   5.444 -1.2125 -0.0962  1.0232
 4092SOL    HW216367   3.600   1.118   5.522  1.0106  0.1462 -0.5618
 4092SOL     MW16368   3.542   1.079   5.469  0.1469  0.3839  0.1715
 4093SOL     OW16369   2.233   3.688   0.685  0.1076 -0.6011 -0.7217
 4093SOL    HW116370   2.278   3.772   0.676  2.8444 -1.8111  0.5645
 4093SOL    HW216371   2.262   3.637   0.610 -0.7133 -0.7534 -0.9380
 4093SOL     MW16372   2.242   3.692   0.674  0.3528 -0.7755 -0.5847
 4094SOL     OW16373   5.303   0.296   4.504  0.1902  0.5767 -0.4403
 4094SOL    HW116374   5.216   0.286   4.541  0.6180 -0.4274  0.3249
 4094SOL    HW216375   5.319   0.214   4.457  1.0443  0.3931  0.1400
 4094SOL     MW16376   5.294   0.284   4.502  0.3543  0.4247 -0.2680
 4095SOL     OW16377   3.108   1.915   5.086 -0.6440  0.6012 -0.3207
 4095SOL    HW116378   3.062   1.832   5.100 -0.8424  0.7540 -0.0695
 4095SOL    HW216379   3.038   1.980   5.080 -0.4573  0.8554  0.2202
 4095SOL     MW16380   3.093   1.912   5.087 -0.6455  0.6533 -0.2193
 4096SOL     OW16381   3.135   5.204   1.984  0.0637  0.1942  0.7481
 4096SOL    HW116382   3.078   5.162   1.919  0.8414 -0.9456  0.7670
 4096SOL    HW216383   3.085   5.202   2.065 -0.1957 -0.0697  0.5838
 4096SOL     MW16384   3.122   5.198   1.986  0.1300  0.0145  0.7295
 4097SOL     OW16385   1.248   4.322   1.324  0.4610 -0.0461  0.0207
 4097SOL    HW116386   1.191   4.396   1.347  0.4056 -0.0628 -0.0624
 4097SOL    HW216387   1.337   4.355   1.340  0.7087  1.2857 -3.3904
 4097SOL     MW16388   1.252   4.336   1.329  0.4856  0.1222 -0.4266
 4098SOL     OW16389   1.070   4.915   2.933  0.0228  0.2911  0.4528
 4098SOL    HW116390   1.137   4.901   3.000  0.0738 -1.4611  0.0951
 4098SOL    HW216391   0.990   4.882   2.972 -0.1095  0.0210 -0.0375
 4098SOL     MW16392   1.069   4.909   2.946  0.0124  0.0322  0.3442
 4099SOL     OW16393   4.832   0.312   1.982 -0.3930  0.1131 -0.0957
 4099SOL    HW116394   4.802   0.279   2.066  2.4964  1.4935  1.6413
 4099SOL    HW216395   4.769   0.379   1.958 -1.0875 -0.0648  1.1412
 4099SOL     MW16396   4.820   0.316   1.989 -0.1120  0.2670  0.2850
 4100SOL     OW16397   1.958   0.131   3.671 -0.0023  0.0388 -0.6144
 4100SOL    HW116398   1.996   0.174   3.594 -0.6262  2.3539  0.2946
 4100SOL    HW216399   2.033   0.107   3.725  0.3914 -0.7901 -1.5030
 4100SOL     MW16400   1.972   0.133   3.668 -0.0318  0.2291 -0.6118
 4101SOL     OW16401   3.678   2.393   2.843 -0.2871  0.2250  0.0439
 4101SOL    HW116402   3.650   2.353   2.926 -0.9238 -2.0821 -1.1868
 4101SOL    HW216403   3.662   2.487   2.855  0.2160  0.0463  2.7141
 4101SOL     MW16404   3.672   2.400   2.855 -0.3042 -0.0932  0.2282
 4102SOL     OW16405   4.015   2.696   3.489 -0.1549  0.7290  0.4405
 4102SOL    HW116406   4.052   2.608   3.491  0.1822  0.8241 -0.6040
 4102SOL    HW216407   3.921   2.682   3.477  0.0971  0.4949 -1.5853
 4102SOL     MW16408   4.008   2.683   3.488 -0.0795  0.7112  0.0475
 4103SOL     OW16409   4.363   3.775   5.078  0.3037 -0.4988  0.0500
 4103SOL    HW116410   4.374   3.829   5.156 -2.4535  4.0039 -2.2488
 4103SOL    HW216411   4.282   3.727   5.093  0.4410 -0.6082  0.4382
 4103SOL     MW16412   4.354   3.776   5.090 -0.0317  0.0636 -0.1946
 4104SOL     OW16413   2.066   4.557   3.014 -0.0831  0.5870  1.1416
 4104SOL    HW116414   1.973   4.554   3.039  0.0806 -1.3774  1.6921
 4104SOL    HW216415   2.066   4.545   2.920 -0.3330 -2.6948  1.4565
 4104SOL     MW16416   2.054   4.555   3.005 -0.0941 -0.0846  1.2524
 4105SOL     OW16417   4.815   4.636   4.466  0.4062  0.0119  0.0353
 4105SOL    HW116418   4.847   4.647   4.376 -0.1978 -1.7984 -0.4431
 4105SOL    HW216419   4.791   4.544   4.472 -2.9881  0.8091  0.9154
 4105SOL     MW16420   4.816   4.626   4.455 -0.1057 -0.1178  0.0867
 4106SOL     OW16421   3.850   3.857   4.028  0.2137 -0.3688  0.8868
 4106SOL    HW116422   3.858   3.808   3.946 -0.7661 -0.9969  1.1508
 4106SOL    HW216423   3.934   3.901   4.038  0.4289 -0.4662 -0.3410
 4106SOL     MW16424   3.861   3.856   4.018  0.1158 -0.4617  0.7634
 4107SOL     OW16425   3.201   4.212   4.453 -0.0225  0.2311 -0.0465
 4107SOL    HW116426   3.266   4.280   4.438 -0.4116  0.8342  0.8964
 4107SOL    HW216427   3.121   4.246   4.412  0.0475 -0.1581 -0.5219
 4107SOL     MW16428   3.199   4.225   4.446 -0.0634  0.2585  0.0134
 4108SOL     OW16429   5.287   2.495   2.459 -0.0204 -0.0321 -0.1915
 4108SOL    HW116430   5.345   2.561   2.499 -0.6864  0.3893  0.0946
 4108SOL    HW216431   5.269   2.433   2.529 -0.9350  0.5364  0.1010
 4108SOL     MW16432   5.292   2.496   2.473 -0.2227  0.0946 -0.1174
 4109SOL     OW16433   1.528   5.208   2.731  0.4097  0.2876 -0.1571
 4109SOL    HW116434   1.451   5.264   2.729  1.4364  1.7258 -0.7803
 4109SOL    HW216435   1.566   5.222   2.817 -1.2353 -2.2245  1.1037
 4109SOL     MW16436   1.523   5.217   2.742  0.3306  0.1501 -0.0754
 4110SOL     OW16437   3.272   2.940   1.266 -0.4110 -0.1084  0.3625
 4110SOL    HW116438   3.320   2.895   1.335  0.4838  0.8461  0.3833
 4110SOL    HW216439   3.209   2.875   1.234  0.1910 -1.0461  1.0390
 4110SOL     MW16440   3.270   2.926   1.271 -0.2194 -0.1063  0.4518
 4111SOL     OW16441   0.992   5.319   1.758 -0.2821  0.3237  0.5542
 4111SOL    HW116442   1.038   5.281   1.683  0.9039 -1.4939  2.0902
 4111SOL    HW216443   1.059   5.326   1.826 -1.9457 -1.3509  2.5248
 4111SOL     MW16444   1.007   5.315   1.757 -0.3432 -0.1234  1.0031
 4112SOL     OW16445   0.901   4.987   2.178 -0.7024 -0.5858 -0.4412
 4112SOL    HW116446   0.926   4.909   2.128 -2.5182 -1.4505 -0.0969
 4112SOL    HW216447   0.826   4.958   2.230 -1.4372  1.4100 -0.3273
 4112SOL     MW16448   0.894   4.973   2.178 -1.0289 -0.4410 -0.3826
 4113SOL     OW16449   4.772   1.171   1.329 -0.5485 -0.1261 -0.4817
 4113SOL    HW116450   4.684   1.153   1.296 -0.1763 -1.3139 -0.8802
 4113SOL    HW216451   4.794   1.257   1.293 -1.7307  0.4276  0.0476
 4113SOL     MW16452   4.763   1.180   1.320 -0.6522 -0.2073 -0.4650
 4114SOL     OW16453   4.587   5.169   5.063 -0.2811  0.1628 -0.1799
 4114SOL    HW116454   4.576   5.237   4.997 -0.7968  0.7867  0.5302
 4114SOL    HW216455   4.606   5.090   5.013  1.2126  0.9857 -0.9860
 4114SOL     MW16456   4.588   5.167   5.049 -0.1559  0.3480 -0.1922
 4115SOL     OW16457   1.675   0.406   1.929 -0.4504  0.2932 -0.1183
 4115SOL    HW116458   1.646   0.498   1.936  1.8709  1.0726  0.1608
 4115SOL    HW216459   1.761   0.406   1.971  0.1284 -1.7821 -1.2306
 4115SOL     MW16460   1.682   0.418   1.936 -0.0792  0.1273 -0.2250
 4116SOL     OW16461   0.692   5.171   3.906  1.0812 -0.4753  0.5636
 4116SOL    HW116462   0.709   5.205   3.994  1.2856  2.5266 -0.5216
 4116SOL    HW216463   0.777   5.172   3.862  0.5704  0.6845 -0.4609
 4116SOL     MW16464   0.705   5.176   3.912  1.0420  0.0575  0.2936
 4117SOL     OW16465   0.647   0.033   3.470 -0.7010 -0.4085  0.4270
 4117SOL    HW116466   0.657  -0.061   3.455 -1.4851 -0.5294  0.6314
 4117SOL    HW216467   0.607   0.040   3.557  2.0524  0.2252  1.7436
 4117SOL     MW16468   0.643   0.022   3.479 -0.4489 -0.3428  0.6217
 4118SOL     OW16469   1.982   4.770   1.584 -1.4941  1.0205  0.1830
 4118SOL    HW116470   2.075   4.773   1.561 -1.3570  1.3330  0.7533
 4118SOL    HW216471   1.947   4.696   1.534 -0.6896  0.1596  0.8492
 4118SOL     MW16472   1.990   4.761   1.575 -1.3735  0.9503  0.3413
 4119SOL     OW16473   2.748   2.694   2.450 -0.0234 -0.2545  0.2885
 4119SOL    HW116474   2.764   2.607   2.414 -3.3630 -1.0593  0.4952
 4119SOL    HW216475   2.784   2.690   2.538 -1.5120 -2.0197  0.8717
 4119SOL     MW16476   2.755   2.683   2.456 -0.6415 -0.5835  0.3896
 4120SOL     OW16477   3.237   4.650   3.122  0.1371  0.2030 -0.8703
 4120SOL    HW116478   3.150   4.612   3.133  0.3263  0.1164  0.4808
 4120SOL    HW216479   3.222   4.730   3.072 -0.9293  0.9596  0.6025
 4120SOL     MW16480   3.224   4.655   3.117  0.0248  0.2888 -0.5088
 4121SOL     OW16481   2.967   4.010   2.008  0.1746  0.1349  0.4950
 4121SOL    HW116482   3.053   3.980   2.037  1.1992  2.0948 -0.3226
 4121SOL    HW216483   2.934   3.939   1.952  2.2097  0.1982 -0.8880
 4121SOL     MW16484   2.974   3.997   2.004  0.5662  0.3939  0.2133
 4122SOL     OW16485   1.320   2.430   2.104  0.3634  0.4720  0.0771
 4122SOL    HW116486   1.375   2.460   2.176  2.0628 -0.7425 -0.6713
 4122SOL    HW216487   1.371   2.363   2.060 -0.2442  1.7524 -2.7906
 4122SOL     MW16488   1.333   2.426   2.108  0.5032  0.4804 -0.3858
 4123SOL     OW16489   0.137   2.246   3.193 -0.5790  0.0122 -0.0637
 4123SOL    HW116490   0.161   2.208   3.108 -1.9844 -1.5629  0.2021
 4123SOL    HW216491   0.052   2.287   3.178 -1.0201 -0.6170  0.6674
 4123SOL     MW16492   0.129   2.246   3.180 -0.8153 -0.2700  0.0639
 4124SOL     OW16493   0.837   1.314   0.034  0.4991 -0.3656  0.0365
 4124SOL    HW116494   0.835   1.410   0.035 -1.4925 -0.3502  1.3487
 4124SOL    HW216495   0.903   1.291   0.100  0.4720  0.1072  0.2363
 4124SOL     MW16496   0.845   1.323   0.043  0.2407 -0.3031  0.2301
 4125SOL     OW16497   3.508   4.156   0.355 -0.4230 -0.1863 -0.1963
 4125SOL    HW116498   3.454   4.234   0.338 -1.5433 -0.8073  0.3734
 4125SOL    HW216499   3.598   4.186   0.346 -0.8562  0.7337 -1.9109
 4125SOL     MW16500   3.512   4.170   0.351 -0.6218 -0.1480 -0.3428
 4126SOL     OW16501   2.797   0.008   2.562 -0.8053  0.3907  0.0212
 4126SOL    HW116502   2.754   0.081   2.606  1.4255  0.8358  1.6006
 4126SOL    HW216503   2.771  -0.069   2.612 -0.3118  0.5740  0.5680
 4126SOL     MW16504   2.788   0.008   2.574 -0.4566  0.4712  0.2933
 4127SOL     OW16505   3.622   3.475   3.353  0.2328  0.4464 -0.2074
 4127SOL    HW116506   3.698   3.418   3.360  0.6001  0.9559  0.0349
 4127SOL    HW216507   3.617   3.519   3.438 -0.0394  0.7695 -0.3866
 4127SOL     MW16508   3.631   3.473   3.365  0.2450  0.5530 -0.1993
 4128SOL     OW16509   3.047   4.709   2.234 -0.4753 -0.1884 -0.4955
 4128SOL    HW116510   2.999   4.688   2.314  1.5415  0.3895  0.9556
 4128SOL    HW216511   2.992   4.772   2.188 -1.5103 -0.2525  0.6122
 4128SOL     MW16512   3.034   4.714   2.238 -0.3496 -0.1226 -0.1680
 4129SOL     OW16513   2.116   2.135   2.008  0.1510  0.3855 -0.0128
 4129SOL    HW116514   2.165   2.181   1.941  1.4204  0.8595  1.1938
 4129SOL    HW216515   2.067   2.204   2.054  0.8285  0.3490  0.7911
 4129SOL     MW16516   2.116   2.150   2.006  0.4002  0.4415  0.2446
 4130SOL     OW16517   3.188   3.800   1.021 -0.3114  0.2457 -0.1859
 4130SOL    HW116518   3.135   3.816   0.944  0.0578  1.1868 -0.2665
 4130SOL    HW216519   3.127   3.804   1.094 -0.3011  1.9655 -0.2187
 4130SOL     MW16520   3.174   3.803   1.021 -0.2628  0.5864 -0.2004
 4131SOL     OW16521   0.354   0.088   1.032  0.2556 -0.1781  0.2103
 4131SOL    HW116522   0.323   0.108   0.943 -1.4018 -1.6430  0.4178
 4131SOL    HW216523   0.294   0.136   1.089 -0.7506 -1.8401  0.5905
 4131SOL     MW16524   0.342   0.097   1.028 -0.0854 -0.5784  0.2855
 4132SOL     OW16525   1.998   5.383   0.805 -0.2275  0.1561  0.1636
 4132SOL    HW116526   2.073   5.412   0.753 -0.2888 -0.5183 -0.3085
 4132SOL    HW216527   2.034   5.371   0.893  0.2150 -0.1119 -0.0471
 4132SOL     MW16528   2.013   5.385   0.809 -0.1787  0.0355  0.0762
 4133SOL     OW16529   5.343   1.517   4.457 -0.3328  0.3171  0.0534
 4133SOL    HW116530   5.325   1.443   4.398  2.1102 -0.4303  0.1454
 4133SOL    HW216531   5.355   1.592   4.398  1.5650 -0.3167 -0.4240
 4133SOL     MW16532   5.342   1.517   4.442  0.2229  0.1403  0.0041
 4134SOL     OW16533   0.113   2.037   2.757 -0.2370 -0.3836 -0.0686
 4134SOL    HW116534   0.107   1.947   2.790  3.0851 -1.5919 -2.2335
 4134SOL    HW216535   0.125   2.027   2.663 -1.6148  2.5083 -0.6427
 4134SOL     MW16536   0.114   2.024   2.749  0.0119 -0.1681 -0.4192
 4135SOL     OW16537   4.537   5.299   0.251  0.0700  0.4203 -0.1090
 4135SOL    HW116538   4.458   5.352   0.262  0.6690  1.2762  0.2626
 4135SOL    HW216539   4.562   5.311   0.160  1.1308  2.1869  0.3627
 4135SOL     MW16540   4.530   5.307   0.241  0.2825  0.7560 -0.0010
 4136SOL     OW16541   3.978   4.291   2.111  0.2115  0.2107  0.2120
 4136SOL    HW116542   4.035   4.265   2.183 -1.5849  0.2004  1.6820
 4136SOL    HW216543   3.975   4.387   2.116 -0.5775  0.1665  0.6957
 4136SOL     MW16544   3.985   4.300   2.121 -0.1194  0.2037  0.4621
 4137SOL     OW16545   3.822   3.881   2.169  0.1141  0.1244  0.5316
 4137SOL    HW116546   3.740   3.873   2.218 -0.4317  0.9920 -0.2144
 4137SOL    HW216547   3.797   3.927   2.088  1.3487  0.4732  0.3370
 4137SOL     MW16548   3.808   3.886   2.165  0.2023  0.2801  0.4112
 4138SOL     OW16549   2.353   0.412   2.705 -0.2625 -0.3788 -0.1646
 4138SOL    HW116550   2.374   0.319   2.715  0.2869 -0.2287  0.1090
 4138SOL    HW216551   2.259   0.417   2.720 -0.4147 -0.9843 -0.8559
 4138SOL     MW16552   2.344   0.401   2.708 -0.2117 -0.4371 -0.2181
 4139SOL     OW16553   5.061   5.246   1.340 -0.5792  0.3169  0.0100
 4139SOL    HW116554   5.035   5.277   1.427  0.8736 -2.7955  1.7494
 4139SOL    HW216555   5.029   5.156   1.337  0.6077 -0.0948 -2.1319
 4139SOL     MW16556   5.053   5.238   1.351 -0.2413 -0.1342 -0.0415
 4140SOL     OW16557   0.980   2.909   3.192  0.1238  0.2560  0.4549
 4140SOL    HW116558   1.051   2.870   3.142 -1.3254 -1.3486 -0.4680
 4140SOL    HW216559   0.925   2.952   3.126 -0.4158  0.4106  0.9989
 4140SOL     MW16560   0.982   2.909   3.177 -0.1308  0.0703  0.4064
 4141SOL     OW16561   4.102   3.867   1.245 -0.4206 -0.0467 -0.1418
 4141SOL    HW116562   4.104   3.961   1.260  0.5359  0.2768 -2.0259
 4141SOL    HW216563   4.010   3.842   1.257 -0.5747  0.9783  1.0158
 4141SOL     MW16564   4.090   3.876   1.249 -0.3179  0.1259 -0.2348
 4142SOL     OW16565   4.842   5.103   3.661  0.0678  0.4425 -0.5128
 4142SOL    HW116566   4.838   5.009   3.647 -0.2751  0.7189 -2.5024
 4142SOL    HW216567   4.888   5.138   3.584 -0.0768  1.9356  0.0328
 4142SOL     MW16568   4.848   5.096   3.650  0.0054  0.6690 -0.6976
 4143SOL     OW16569   3.095   4.625   1.158 -0.4195  0.6097 -0.4185
 4143SOL    HW116570   3.031   4.684   1.197  1.6175  3.0976 -0.6264
 4143SOL    HW216571   3.138   4.583   1.233 -1.4889 -0.2190 -0.2545
 4143SOL     MW16572   3.093   4.627   1.173 -0.2956  0.8221 -0.4241
 4144SOL     OW16573   3.268   4.550   4.935 -0.1735  0.4479 -0.4317
 4144SOL    HW116574   3.327   4.492   4.886 -1.1835 -2.1292  1.2110
 4144SOL    HW216575   3.226   4.603   4.868  1.0645 -0.4576 -2.0111
 4144SOL     MW16576   3.270   4.549   4.920 -0.1443  0.0021 -0.4236
 4145SOL     OW16577   4.402   1.047   2.540  0.3366  0.2379  0.0490
 4145SOL    HW116578   4.363   1.002   2.615 -0.5669  0.5274 -0.2300
 4145SOL    HW216579   4.328   1.093   2.500  0.3082 -1.7179 -2.3502
 4145SOL     MW16580   4.387   1.047   2.545  0.2173  0.0246 -0.2938
 4146SOL     OW16581   4.527   2.943   0.013  0.1597 -0.0973 -0.4017
 4146SOL    HW116582   4.483   2.877   0.065  2.2385 -1.0301  0.3004
 4146SOL    HW216583   4.482   3.025   0.035 -1.0677 -0.9440  0.3791
 4146SOL     MW16584   4.516   2.945   0.023  0.2687 -0.3251 -0.2119
 4147SOL     OW16585   4.776   1.383   0.572  0.5546 -0.0591  0.1678
 4147SOL    HW116586   4.850   1.351   0.623  1.1531  0.6703 -0.2220
 4147SOL    HW216587   4.704   1.324   0.594  1.8840 -2.4222 -1.4095
 4147SOL     MW16588   4.776   1.371   0.581  0.8014 -0.2683 -0.0840
 4148SOL     OW16589   1.569   2.257   2.354  0.0030 -0.2666 -0.0337
 4148SOL    HW116590   1.590   2.227   2.442 -0.4099 -0.4591 -0.0023
 4148SOL    HW216591   1.552   2.351   2.364 -2.0885 -0.6645  0.4487
 4148SOL     MW16592   1.570   2.265   2.366 -0.3176 -0.3422  0.0321
 4149SOL     OW16593   5.282   4.117   2.759 -0.2280  0.2923 -0.2028
 4149SOL    HW116594   5.195   4.086   2.782 -0.2375  1.2741  1.2118
 4149SOL    HW216595   5.268   4.208   2.731  0.1676  0.0007 -1.4140
 4149SOL     MW16596   5.269   4.125   2.758 -0.1786  0.3807 -0.1767
 4150SOL     OW16597   5.116   4.261   1.960 -0.3960 -0.1761 -0.6594
 4150SOL    HW116598   5.099   4.257   2.055 -0.3808 -0.8200 -0.6785
 4150SOL    HW216599   5.182   4.329   1.951 -0.2653 -0.2319 -0.1819
 4150SOL     MW16600   5.123   4.269   1.971 -0.3773 -0.2657 -0.6007
 4151SOL     OW16601   1.136   0.901   3.712  0.6949  0.4873  0.3137
 4151SOL    HW116602   1.136   0.995   3.730  1.3136  0.4160  0.7287
 4151SOL    HW216603   1.174   0.893   3.625 -1.1111  0.7447 -0.5408
 4151SOL     MW16604   1.140   0.912   3.703  0.5429  0.5111  0.2574
 4152SOL     OW16605   5.243   3.815   4.301 -0.3106 -0.0154  0.0767
 4152SOL    HW116606   5.235   3.856   4.215 -0.6495 -0.4388 -0.0979
 4152SOL    HW216607   5.233   3.887   4.363 -0.3888  0.2449 -0.2364
 4152SOL     MW16608   5.240   3.829   4.298 -0.3640 -0.0363  0.0142
 4153SOL     OW16609   4.828   4.910   2.461 -0.0255 -0.0875  1.0120
 4153SOL    HW116610   4.798   4.987   2.412 -3.2685 -0.4880  2.0724
 4153SOL    HW216611   4.871   4.947   2.538 -2.4364  0.8398  2.0355
 4153SOL     MW16612   4.829   4.925   2.464 -0.7493 -0.0201  1.2788
 4154SOL     OW16613   4.152   5.346   4.169  0.5062  0.6407  0.2901
 4154SOL    HW116614   4.106   5.318   4.248  0.1676 -0.4570 -0.2741
 4154SOL    HW216615   4.234   5.296   4.170  0.5777  0.7520  0.0485
 4154SOL     MW16616   4.156   5.336   4.179  0.4720  0.5144  0.1870
 4155SOL     OW16617   0.760   3.585   4.263 -0.1484 -0.3519 -0.1593
 4155SOL    HW116618   0.699   3.523   4.302  0.6203 -1.0817 -0.0835
 4155SOL    HW216619   0.844   3.539   4.263  0.9203  1.4265  1.8171
 4155SOL     MW16620   0.763   3.571   4.268  0.0868 -0.2177  0.1034
 4156SOL     OW16621   3.160   4.752   1.528 -0.7100 -0.5187 -0.1535
 4156SOL    HW116622   3.241   4.702   1.514 -0.4636 -0.1454 -0.0880
 4156SOL    HW216623   3.125   4.717   1.610  0.5669  0.8258  1.0401
 4156SOL     MW16624   3.166   4.741   1.537 -0.5150 -0.2988  0.0077
 4157SOL     OW16625   1.810   0.846   3.223 -0.0323 -0.4242 -0.3109
 4157SOL    HW116626   1.745   0.787   3.185  0.1090 -0.1601 -0.9913
 4157SOL    HW216627   1.878   0.788   3.257 -0.6023 -0.6978  0.3683
 4157SOL     MW16628   1.810   0.831   3.222 -0.0872 -0.4254 -0.3111
 4158SOL     OW16629   0.401   1.960   1.522 -0.2255  0.1104 -0.2743
 4158SOL    HW116630   0.380   2.054   1.515 -1.9243 -0.1214  0.9664
 4158SOL    HW216631   0.366   1.935   1.607  3.4147 -0.9024  1.1152
 4158SOL     MW16632   0.394   1.969   1.532  0.0230 -0.0490  0.0624
 4159SOL     OW16633   4.191   4.141   3.026 -0.0448  0.0913 -0.3402
 4159SOL    HW116634   4.271   4.146   2.973  0.2536  0.3299  0.1186
 4159SOL    HW216635   4.212   4.077   3.094  0.3265  1.2676  0.6953
 4159SOL     MW16636   4.204   4.133   3.028  0.0409  0.2724 -0.1489
 4160SOL     OW16637   3.749   2.196   4.033  0.0107  0.5214 -0.6766
 4160SOL    HW116638   3.821   2.248   4.068  0.4684 -1.0502  0.8787
 4160SOL    HW216639   3.791   2.117   3.997 -0.8101  0.2586 -1.0867
 4160SOL     MW16640   3.764   2.192   4.033 -0.0358  0.2866 -0.5300
 4161SOL     OW16641   3.608   4.616   2.614  0.3351  0.1051  0.2638
 4161SOL    HW116642   3.637   4.626   2.705  0.0328 -1.4329  0.5439
 4161SOL    HW216643   3.531   4.560   2.619 -2.1682  3.1639 -0.5897
 4161SOL     MW16644   3.602   4.610   2.627 -0.0240  0.2998  0.1904
 4162SOL     OW16645   1.479   3.171   1.786  0.5160 -0.0547  0.2405
 4162SOL    HW116646   1.388   3.170   1.756  0.5224 -1.9861  0.1904
 4162SOL    HW216647   1.517   3.249   1.745 -0.6189 -0.2486 -1.2518
 4162SOL     MW16648   1.472   3.181   1.777  0.3715 -0.3268  0.0431
 4163SOL     OW16649   4.178   0.622   4.965  0.1440  0.5226  0.1087
 4163SOL    HW116650   4.230   0.569   4.904 -0.7286 -1.1942  0.8049
 4163SOL    HW216651   4.243   0.671   5.016  1.0689 -1.0834  0.5212
 4163SOL     MW16652   4.193   0.622   4.964  0.1507  0.0973  0.2506
 4164SOL     OW16653   5.347   0.856   0.850  0.3256  0.1645 -0.6263
 4164SOL    HW116654   5.300   0.921   0.797 -0.2009 -0.1432 -0.5365
 4164SOL    HW216655   5.279   0.815   0.904  1.0111  1.3558  1.2489
 4164SOL     MW16656   5.332   0.859   0.850  0.3459  0.2776 -0.3747
 4165SOL     OW16657   4.489   2.960   1.490 -0.1987 -0.3437  0.3821
 4165SOL    HW116658   4.485   2.952   1.585  0.1853 -0.7149  0.3707
 4165SOL    HW216659   4.583   2.961   1.471 -0.2652  0.4075  0.0623
 4165SOL     MW16660   4.501   2.959   1.500 -0.1580 -0.2950  0.3397
 4166SOL     OW16661   1.803   2.088   1.352  0.1672  0.0085  0.2504
 4166SOL    HW116662   1.812   2.181   1.372  1.4158  0.2633 -1.2829
 4166SOL    HW216663   1.872   2.070   1.288 -0.7644 -1.7050 -0.3610
 4166SOL     MW16664   1.813   2.098   1.346  0.2078 -0.1782 -0.0241
 4167SOL     OW16665   5.254   1.105   2.432 -0.9401  0.2779  0.2228
 4167SOL    HW116666   5.250   1.039   2.500  0.1073  0.8703  0.8746
 4167SOL    HW216667   5.175   1.157   2.444 -0.0107  1.3427  2.0042
 4167SOL     MW16668   5.243   1.103   2.442 -0.6871  0.4900  0.5343
 4168SOL     OW16669   3.890   4.055   5.398 -0.5200 -0.0622 -0.4855
 4168SOL    HW116670   3.938   4.138   5.393 -0.5754 -0.0500 -0.8335
 4168SOL    HW216671   3.947   3.997   5.448 -1.3268  0.7729  1.5080
 4168SOL     MW16672   3.904   4.058   5.404 -0.6303  0.0463 -0.2749
 4169SOL     OW16673   0.557   2.057   0.143 -0.3473 -0.4072 -0.2368
 4169SOL    HW116674   0.483   1.999   0.123 -0.0291 -1.3209  1.1294
 4169SOL    HW216675   0.556   2.066   0.238 -0.1925  1.6174 -0.3800
 4169SOL     MW16676   0.548   2.051   0.152 -0.2867 -0.2650 -0.0802
 4170SOL     OW16677   0.193   4.839   3.142 -0.0134 -0.1154 -0.2503
 4170SOL    HW116678   0.222   4.747   3.139 -1.2372 -0.4896 -2.6181
 4170SOL    HW216679   0.156   4.849   3.230  1.8996 -1.2695  0.7673
 4170SOL     MW16680   0.192   4.828   3.153  0.0748 -0.3111 -0.4231
 4171SOL     OW16681   4.698   1.985   4.852 -0.2652 -0.3768 -0.1109
 4171SOL    HW116682   4.735   1.984   4.940  0.5354 -0.7835 -0.4361
 4171SOL    HW216683   4.621   2.042   4.858 -0.1200 -0.2671  0.8044
 4171SOL     MW16684   4.693   1.992   4.864 -0.1441 -0.4148 -0.0354
 4172SOL     OW16685   1.145   5.393   1.997  0.1134 -0.3931 -0.3847
 4172SOL    HW116686   1.172   5.480   2.026 -0.2677 -0.7790  1.1851
 4172SOL    HW216687   1.224   5.353   1.962  0.2364  0.6661 -1.3681
 4172SOL     MW16688   1.158   5.399   1.996  0.0804 -0.3069 -0.3096
 4173SOL     OW16689   2.804   2.900   4.846 -0.8201  0.0815  0.0963
 4173SOL    HW116690   2.724   2.942   4.814  0.3847  0.7320 -2.3261
 4173SOL    HW216691   2.855   2.972   4.883 -1.2295 -0.2899  1.4078
 4173SOL     MW16692   2.800   2.915   4.846 -0.7183  0.1172 -0.0459
 4174SOL     OW16693   4.731   4.608   1.420 -0.3014 -0.0710 -0.1878
 4174SOL    HW116694   4.665   4.613   1.489  1.8471 -2.7570  2.3508
 4174SOL    HW216695   4.712   4.526   1.374  0.9923 -0.7300  0.3942
 4174SOL     MW16696   4.720   4.598   1.423  0.1393 -0.4992  0.2117
 4175SOL     OW16697   5.434   0.760   2.939 -0.0996 -0.0502  0.1601
 4175SOL    HW116698   5.501   0.826   2.925 -0.5936  0.1210 -1.6807
 4175SOL    HW216699   5.417   0.762   3.034  0.1953  2.1563  0.2179
 4175SOL     MW16700   5.440   0.769   2.950 -0.1251  0.2542 -0.0681
 4176SOL     OW16701   5.261   5.100   4.762 -0.3502 -0.0838 -0.5598
 4176SOL    HW116702   5.313   5.132   4.836  0.3681  0.3452 -1.2249
 4176SOL    HW216703   5.209   5.029   4.798 -0.3339  0.4015  0.4533
 4176SOL     MW16704   5.261   5.095   4.776 -0.2562  0.0332 -0.5153
 4177SOL     OW16705   1.372   0.439   5.011 -0.1429 -0.4949 -0.1984
 4177SOL    HW116706   1.335   0.469   4.928 -2.7466  1.8926  1.6381
 4177SOL    HW216707   1.431   0.509   5.037  2.7807 -2.4406 -1.1438
 4177SOL     MW16708   1.375   0.452   5.004 -0.1020 -0.4384 -0.0843
 4178SOL     OW16709   2.787   1.879   2.276  0.2491 -0.3179  0.0491
 4178SOL    HW116710   2.881   1.869   2.260 -0.0839 -0.5997 -2.0134
 4178SOL    HW216711   2.750   1.899   2.191 -1.3344  1.9290  1.1640
 4178SOL     MW16712   2.795   1.880   2.263  0.0038 -0.0663 -0.0722
 4179SOL     OW16713   0.792   1.076   2.925  0.0810 -0.1960 -0.4949
 4179SOL    HW116714   0.846   1.097   2.849 -1.9960  0.8251 -1.7569
 4179SOL    HW216715   0.780   1.160   2.970  0.7592 -0.6810  0.6410
 4179SOL     MW16716   0.797   1.089   2.921 -0.0981 -0.1274 -0.5111
 4180SOL     OW16717   2.678   2.801   3.509  0.3666  0.3275 -0.4204
 4180SOL    HW116718   2.612   2.842   3.565  0.8021  1.2311 -0.5570
 4180SOL    HW216719   2.628   2.768   3.434 -0.0686  0.0498 -0.0174
 4180SOL     MW16720   2.663   2.802   3.507  0.3666  0.4076 -0.3863
 4181SOL     OW16721   0.949   0.572   5.266 -0.3424  0.3058 -0.4537
 4181SOL    HW116722   1.026   0.596   5.317 -0.4103  0.9081 -0.6306
 4181SOL    HW216723   0.890   0.647   5.274 -0.8472 -0.0830 -0.4529
 4181SOL     MW16724   0.951   0.585   5.273 -0.4157  0.3331 -0.4762
 4182SOL     OW16725   0.106   0.926   4.252 -0.3338  0.2324 -0.5537
 4182SOL    HW116726   0.111   1.001   4.310  2.1410  1.2229 -1.8986
 4182SOL    HW216727   0.086   0.963   4.166 -1.5771 -0.9525 -0.8109
 4182SOL     MW16728   0.104   0.940   4.249 -0.1762  0.2075 -0.7588
 4183SOL     OW16729   2.174   3.334   3.292 -0.4169  0.5353  0.2107
 4183SOL    HW116730   2.089   3.320   3.334  0.3015 -0.6152  1.3614
 4183SOL    HW216731   2.153   3.357   3.202 -1.9288 -2.9612 -0.4632
 4183SOL     MW16732   2.161   3.335   3.286 -0.5185 -0.0596  0.2717
 4184SOL     OW16733   1.859   3.316   4.858  0.1830 -0.3409 -0.2936
 4184SOL    HW116734   1.889   3.340   4.946  1.3122 -0.7469 -0.5496
 4184SOL    HW216735   1.934   3.332   4.802 -0.4460 -0.3475 -1.1491
 4184SOL     MW16736   1.872   3.321   4.862  0.2471 -0.3937 -0.4359
 4185SOL     OW16737   0.841   2.043   5.389  0.2000  0.5429 -0.2145
 4185SOL    HW116738   0.774   1.985   5.424  2.6357 -1.3889  1.6329
 4185SOL    HW216739   0.857   2.010   5.300  0.5148 -0.7452  0.2945
 4185SOL     MW16740   0.834   2.031   5.382  0.5521  0.1307  0.0871
 4186SOL     OW16741   4.657   3.745   4.080 -0.6654  0.3929  0.3314
 4186SOL    HW116742   4.621   3.682   4.143  0.1402 -0.5573 -0.1224
 4186SOL    HW216743   4.606   3.731   4.000 -0.7092  0.5481  0.3326
 4186SOL     MW16744   4.646   3.735   4.077 -0.5678  0.2911  0.2735
 4187SOL     OW16745   3.905  -0.022   2.407 -0.0069 -0.2209 -0.1335
 4187SOL    HW116746   3.967  -0.027   2.479 -0.2442 -0.7640  0.0342
 4187SOL    HW216747   3.860   0.062   2.421  1.0129  0.4205 -0.5375
 4187SOL     MW16748   3.907  -0.012   2.418  0.0933 -0.2083 -0.1638
 4188SOL     OW16749   3.598   5.129   2.183 -0.0595 -0.2522  0.3257
 4188SOL    HW116750   3.635   5.203   2.232 -0.8485  0.4236 -0.0757
 4188SOL    HW216751   3.584   5.062   2.249 -0.6556  0.4783  0.9726
 4188SOL     MW16752   3.601   5.130   2.198 -0.2368 -0.0722  0.3571
 4189SOL     OW16753   1.931   2.307   1.739  0.4344 -0.3257 -0.7797
 4189SOL    HW116754   1.894   2.243   1.799  3.5412 -1.3608  0.2120
 4189SOL    HW216755   1.907   2.392   1.777  0.0515 -0.9379  0.4024
 4189SOL     MW16756   1.923   2.310   1.752  0.7831 -0.5366 -0.5014
 4190SOL     OW16757   2.775   3.289   2.876  0.2343 -0.1617 -0.2038
 4190SOL    HW116758   2.787   3.332   2.961  1.6086  1.4979 -1.1662
 4190SOL    HW216759   2.817   3.204   2.887 -0.3703 -0.3271  1.0212
 4190SOL     MW16760   2.782   3.284   2.888  0.3328  0.0296 -0.1702
 4191SOL     OW16761   2.419   4.446   0.953  0.6504  0.6484 -0.2188
 4191SOL    HW116762   2.404   4.464   0.860 -0.6789  1.5810  0.1519
 4191SOL    HW216763   2.450   4.528   0.989  1.5443  0.1824  0.1109
 4191SOL     MW16764   2.421   4.459   0.945  0.5947  0.7082 -0.1291
 4192SOL     OW16765   0.457   3.099   3.467  0.7774 -0.1905 -0.0440
 4192SOL    HW116766   0.392   3.041   3.428  0.0427  0.2927  0.4639
 4192SOL    HW216767   0.441   3.184   3.426  2.7987 -0.6000 -1.9106
 4192SOL     MW16768   0.447   3.103   3.457  0.9421 -0.1810 -0.2180
 4193SOL     OW16769   4.783   2.884   5.465  0.2481 -0.2558  0.3044
 4193SOL    HW116770   4.690   2.904   5.477  0.0109 -1.0123 -0.2079
 4193SOL    HW216771   4.789   2.789   5.476  0.8402 -0.3071 -0.3893
 4193SOL     MW16772   4.772   2.874   5.468  0.2935 -0.3592  0.1500
 4194SOL     OW16773   1.801   0.931   1.454 -0.2219  0.1833 -0.6121
 4194SOL    HW116774   1.755   0.855   1.487  0.4381  0.0796  0.0901
 4194SOL    HW216775   1.887   0.929   1.497 -0.6313  2.0112  0.4303
 4194SOL     MW16776   1.806   0.921   1.464 -0.1898  0.4040 -0.3888
 4195SOL     OW16777   1.295   3.492   4.734  1.1553  0.3262 -0.2764
 4195SOL    HW116778   1.234   3.534   4.673  1.1487  0.2613 -0.3145
 4195SOL    HW216779   1.327   3.416   4.686  1.8537  0.7830 -0.5582
 4195SOL     MW16780   1.291   3.488   4.720  1.2439  0.3764 -0.3174
 4196SOL     OW16781   1.097   5.110   4.053 -0.1476 -0.2324 -0.0402
 4196SOL    HW116782   1.043   5.104   4.132 -0.9163  1.0818 -0.4354
 4196SOL    HW216783   1.064   5.187   4.006  0.8858 -0.4503 -1.2036
 4196SOL     MW16784   1.086   5.119   4.057 -0.1137 -0.0920 -0.2397
 4197SOL     OW16785   4.697   4.331   0.229  0.0706 -0.1651 -0.4560
 4197SOL    HW116786   4.673   4.293   0.314 -1.1641 -0.6437 -0.9930
 4197SOL    HW216787   4.616   4.331   0.179  1.1091 -1.5289 -2.2664
 4197SOL     MW16788   4.684   4.326   0.234  0.0455 -0.4010 -0.7565
 4198SOL     OW16789   1.479   4.180   1.108 -0.0351  0.1500 -0.0764
 4198SOL    HW116790   1.461   4.089   1.084  1.0787  0.0254 -0.4979
 4198SOL    HW216791   1.514   4.175   1.196  0.5651  0.1096 -0.3151
 4198SOL     MW16792   1.481   4.168   1.116  0.1843  0.1289 -0.1609
 4199SOL     OW16793   1.648   1.314   4.963 -0.2472 -0.2244 -0.1802
 4199SOL    HW116794   1.733   1.356   4.977 -0.5325  0.6480 -0.9258
 4199SOL    HW216795   1.613   1.357   4.885 -0.8749 -1.3806 -0.5553
 4199SOL     MW16796   1.655   1.325   4.955 -0.3641 -0.2607 -0.3236
 4200SOL     OW16797   5.496   1.316   4.970 -0.0248  0.3981  0.3609
 4200SOL    HW116798   5.454   1.344   4.890  0.2196  1.0697  0.4643
 4200SOL    HW216799   5.429   1.265   5.016 -0.2753  0.3062 -0.1042
 4200SOL     MW16800   5.482   1.313   4.966 -0.0256  0.4723  0.3146
 4201SOL     OW16801   5.096   3.515   1.865  0.0336  0.4830  0.5505
 4201SOL    HW116802   5.016   3.464   1.879 -1.2193  1.9885 -0.6699
 4201SOL    HW216803   5.114   3.556   1.950  0.0291 -0.5633  1.0661
 4201SOL     MW16804   5.088   3.514   1.878 -0.1273  0.5418  0.4603
 4202SOL     OW16805   1.182   0.899   3.395  0.1369 -0.4694  0.4466
 4202SOL    HW116806   1.187   0.994   3.382  0.0066 -0.1619  2.3597
 4202SOL    HW216807   1.162   0.864   3.309  0.7416  1.1969 -0.4087
 4202SOL     MW16808   1.180   0.907   3.383  0.1976 -0.2167  0.5820
 4203SOL     OW16809   4.781   4.681   4.818  0.2378 -0.3718 -0.4035
 4203SOL    HW116810   4.768   4.720   4.904  0.9370  1.1351 -0.9442
 4203SOL    HW216811   4.764   4.752   4.756 -3.1067 -2.0832 -1.7227
 4203SOL     MW16812   4.777   4.695   4.821 -0.1008 -0.3980 -0.6416
 4204SOL     OW16813   4.933   0.678   2.046  0.1003 -0.2333  0.3336
 4204SOL    HW116814   4.907   0.654   2.135  0.0595  2.4611  1.1321
 4204SOL    HW216815   4.912   0.771   2.039 -0.3581 -0.4458 -2.6972
 4204SOL     MW16816   4.927   0.687   2.056  0.0364  0.0844  0.0478
 4205SOL     OW16817   4.377   4.412   1.381  0.2132  0.5119 -0.2373
 4205SOL    HW116818   4.450   4.438   1.324 -0.9094  0.7023 -1.6570
 4205SOL    HW216819   4.345   4.331   1.342  0.3199 -0.1427  1.0040
 4205SOL     MW16820   4.382   4.405   1.368  0.0832  0.4525 -0.2602
 4206SOL     OW16821   2.476   4.678   1.063  0.0125  0.2832 -0.2677
 4206SOL    HW116822   2.545   4.639   1.115 -0.6398 -0.7503 -0.1415
 4206SOL    HW216823   2.423   4.728   1.126 -0.8975 -1.1344  0.1474
 4206SOL     MW16824   2.478   4.680   1.078 -0.1875 -0.0306 -0.1984
 4207SOL     OW16825   2.757   4.593   5.185 -0.5034  0.1533 -0.7166
 4207SOL    HW116826   2.681   4.646   5.208  0.1929  1.1785 -0.6602
 4207SOL    HW216827   2.785   4.629   5.101  2.5998  3.0489  1.2609
 4207SOL     MW16828   2.751   4.605   5.177 -0.0170  0.6552 -0.4563
 4208SOL     OW16829   3.261   3.267   2.035 -0.5953 -0.4428 -0.2381
 4208SOL    HW116830   3.310   3.220   2.102  0.5829  2.5239  1.1863
 4208SOL    HW216831   3.301   3.240   1.953  0.0191 -1.8573  0.4927
 4208SOL     MW16832   3.272   3.258   2.033 -0.3658 -0.2441  0.0378
 4209SOL     OW16833   4.744   1.889   1.088  0.3748  0.0197  0.4970
 4209SOL    HW116834   4.782   1.830   1.022  0.2695  1.5258 -0.9871
 4209SOL    HW216835   4.816   1.946   1.113  0.3741 -0.4561  1.6206
 4209SOL     MW16836   4.758   1.889   1.083  0.3612  0.1516  0.4508
 4210SOL     OW16837   2.400   4.618   3.795  0.1477 -0.2779 -0.3717
 4210SOL    HW116838   2.425   4.704   3.761 -0.1411 -0.2186 -0.4390
 4210SOL    HW216839   2.457   4.605   3.871  1.0142 -0.5499 -1.0580
 4210SOL     MW16840   2.410   4.627   3.800  0.2217 -0.3052 -0.4681
 4211SOL     OW16841   1.503   3.292   3.159  0.2955  0.1580  0.7595
 4211SOL    HW116842   1.481   3.384   3.172  1.3403  0.5036  0.2398
 4211SOL    HW216843   1.461   3.269   3.076  0.0456  0.1668  0.8825
 4211SOL     MW16844   1.495   3.301   3.150  0.3972  0.2034  0.7087
 4212SOL     OW16845   1.782   4.364   4.507  0.7349  0.3295  0.6414
 4212SOL    HW116846   1.733   4.396   4.431  0.2785  0.8103  1.1358
 4212SOL    HW216847   1.715   4.334   4.568  1.1301 -2.0879  0.0167
 4212SOL     MW16848   1.767   4.364   4.505  0.7270  0.0816  0.6247
 4213SOL     OW16849   3.871   1.976   0.145 -0.6264  1.1080  0.0741
 4213SOL    HW116850   3.955   1.935   0.166 -1.3494 -0.1271  0.6256
 4213SOL    HW216851   3.859   2.043   0.212 -0.7347  0.3308  0.8425
 4213SOL     MW16852   3.880   1.979   0.156 -0.7328  0.8504  0.2431
 4214SOL     OW16853   4.657   1.327   5.435 -0.0496  0.1857  0.1701
 4214SOL    HW116854   4.694   1.414   5.420 -0.2610  0.7417  2.4610
 4214SOL    HW216855   4.562   1.341   5.430 -0.1007  0.2311  1.0685
 4214SOL     MW16856   4.649   1.340   5.432 -0.0832  0.2627  0.5784
 4215SOL     OW16857   5.246   3.819   2.289  0.4951  0.5514 -0.1033
 4215SOL    HW116858   5.280   3.903   2.259 -0.5807  0.3930 -1.9903
 4215SOL    HW216859   5.164   3.841   2.334  0.8631  0.6081  0.5386
 4215SOL     MW16860   5.240   3.833   2.291  0.4045  0.5384 -0.2627
 4216SOL     OW16861   0.827   2.138   0.172  0.2975 -0.5975 -0.2890
 4216SOL    HW116862   0.753   2.081   0.189  1.3234 -2.3678 -1.3990
 4216SOL    HW216863   0.848   2.123   0.080  0.9441  1.2071 -0.4758
 4216SOL     MW16864   0.820   2.129   0.163  0.5116 -0.5931 -0.4550
 4217SOL     OW16865   2.930   2.976   0.600 -0.1871  0.4075 -0.8151
 4217SOL    HW116866   2.895   2.969   0.511 -0.1103 -0.6997 -0.7751
 4217SOL    HW216867   3.002   3.038   0.593 -0.5416  0.7626 -1.4068
 4217SOL     MW16868   2.934   2.983   0.588 -0.2226  0.3113 -0.8858
 4218SOL     OW16869   3.217   2.411   3.125  0.0508 -0.3383 -0.3289
 4218SOL    HW116870   3.224   2.456   3.040  0.6854  0.5122  0.1528
 4218SOL    HW216871   3.245   2.321   3.107 -0.4448 -0.3414 -1.1467
 4218SOL     MW16872   3.222   2.405   3.112  0.0686 -0.2298 -0.3719
 4219SOL     OW16873   1.514   0.383   0.268 -0.6439  0.2992  0.2272
 4219SOL    HW116874   1.444   0.387   0.202  0.9613 -2.5670 -1.8806
 4219SOL    HW216875   1.505   0.297   0.307  0.5741  0.6321  1.3033
 4219SOL     MW16876   1.504   0.373   0.264 -0.2825 -0.0251  0.0951
 4220SOL     OW16877   1.871   4.371   2.586 -0.1230  0.1169 -0.0089
 4220SOL    HW116878   1.850   4.294   2.639  1.0426 -0.1710  0.0552
 4220SOL    HW216879   1.786   4.408   2.563 -0.8277 -2.2843 -1.6914
 4220SOL     MW16880   1.857   4.366   2.590 -0.0640 -0.2273 -0.2161
 4221SOL     OW16881   1.597   0.458   2.325 -0.0432  0.3139 -0.4136
 4221SOL    HW116882   1.647   0.512   2.263  1.4327  2.1754  2.2082
 4221SOL    HW216883   1.509   0.455   2.288  0.7137  1.5277 -2.4803
 4221SOL     MW16884   1.592   0.465   2.312  0.2426  0.7076 -0.3425
 4222SOL     OW16885   2.805   1.241   4.910  0.6265  0.5722  0.5406
 4222SOL    HW116886   2.729   1.298   4.924  1.1192  1.2961  0.2938
 4222SOL    HW216887   2.868   1.295   4.863  0.0234 -1.0221 -2.3060
 4222SOL     MW16888   2.803   1.255   4.906  0.6123  0.4608  0.1446
 4223SOL     OW16889   5.430   1.985   4.388  0.7271 -0.1655  0.1002
 4223SOL    HW116890   5.373   2.055   4.358  2.8016  0.7750 -1.8819
 4223SOL    HW216891   5.376   1.906   4.382 -1.1161  0.9799  0.7574
 4223SOL     MW16892   5.416   1.984   4.384  0.7567  0.1015 -0.0694
 4224SOL     OW16893   4.602   2.686   3.409 -0.7432 -0.2189  0.4188
 4224SOL    HW116894   4.617   2.768   3.362 -2.3097  1.2391  2.3281
 4224SOL    HW216895   4.507   2.672   3.402 -0.3896 -2.5259 -0.8192
 4224SOL     MW16896   4.592   2.694   3.402 -0.8985 -0.3276  0.5048
 4225SOL     OW16897   2.255   0.558   3.498  0.6315 -0.2390  0.3482
 4225SOL    HW116898   2.347   0.545   3.521  0.2053  0.1420  2.4505
 4225SOL    HW216899   2.232   0.479   3.449  1.7663 -0.9037  0.8355
 4225SOL     MW16900   2.264   0.546   3.495  0.7222 -0.2754  0.6797
 4226SOL     OW16901   0.183   2.560   2.726  0.2665  0.5181 -0.1136
 4226SOL    HW116902   0.254   2.497   2.730  0.2530  0.4071 -1.4115
 4226SOL    HW216903   0.122   2.531   2.794  0.3546 -0.7580 -0.5474
 4226SOL     MW16904   0.184   2.548   2.735  0.2761  0.3405 -0.3353
 4227SOL     OW16905   1.970   3.663   3.430 -0.4244 -0.4479 -0.2552
 4227SOL    HW116906   1.954   3.569   3.437 -3.9849 -0.0495 -1.1300
 4227SOL    HW216907   1.906   3.703   3.488  2.3861  1.5428  1.7994
 4227SOL     MW16908   1.960   3.656   3.439 -0.5204 -0.1420 -0.1042
 4228SOL     OW16909   1.808   0.543   2.522  0.1895  0.1359  0.8360
 4228SOL    HW116910   1.749   0.499   2.461  1.1138  1.1986 -0.8775
 4228SOL    HW216911   1.764   0.626   2.542  0.0934 -0.0213  1.2885
 4228SOL     MW16912   1.795   0.548   2.517  0.2955  0.2518  0.6746
 4229SOL     OW16913   1.982   3.528   1.891 -0.1115 -0.0855 -0.0185
 4229SOL    HW116914   1.986   3.596   1.958 -3.3654  0.7570 -0.5198
 4229SOL    HW216915   2.038   3.562   1.820  0.8662  0.4811  0.9904
 4229SOL     MW16916   1.990   3.541   1.890 -0.4029  0.0948  0.0464
 4230SOL     OW16917   0.952   2.507   0.895 -0.4279 -0.3792 -0.4638
 4230SOL    HW116918   1.014   2.535   0.827  1.1811 -0.8833  0.7203
 4230SOL    HW216919   0.875   2.562   0.882 -0.3261 -0.7055 -2.9091
 4230SOL     MW16920   0.950   2.518   0.885 -0.2089 -0.4855 -0.6253
 4231SOL     OW16921   3.291   1.981   2.927 -0.2606 -0.0132  0.0368
 4231SOL    HW116922   3.317   1.977   2.835  0.4767  0.3006  0.2292
 4231SOL    HW216923   3.285   1.889   2.954  0.7186 -0.0994 -0.0000
 4231SOL     MW16924   3.293   1.969   2.919 -0.0408  0.0159  0.0567
 4232SOL     OW16925   4.999   5.310   2.772  0.7884 -0.0590  0.2820
 4232SOL    HW116926   4.914   5.345   2.744  0.5517 -0.3759  0.5888
 4232SOL    HW216927   5.044   5.385   2.811  0.7956  0.1957 -0.2029
 4232SOL     MW16928   4.994   5.324   2.774  0.7590 -0.0669  0.2592
 4233SOL     OW16929   5.132   3.960   3.206 -0.0596  0.1606  0.2582
 4233SOL    HW116930   5.214   3.921   3.237  0.3343  1.0949  0.4269
 4233SOL    HW216931   5.064   3.900   3.236  0.3717  0.6019  2.2685
 4233SOL     MW16932   5.134   3.947   3.214  0.0460  0.3367  0.5371
 4234SOL     OW16933   3.848   5.176   2.677  0.7603  0.2787 -0.0016
 4234SOL    HW116934   3.755   5.155   2.666  0.6033  0.1677  1.3793
 4234SOL    HW216935   3.894   5.112   2.623  0.1189 -1.2458  1.1909
 4234SOL     MW16936   3.842   5.165   2.669  0.6581  0.0694  0.3279
 4235SOL     OW16937   3.972   0.285   1.175  0.0998 -0.0195  0.9400
 4235SOL    HW116938   4.023   0.358   1.142  0.2982  0.6721  2.6883
 4235SOL    HW216939   3.960   0.228   1.099  0.9540  1.2318 -0.1749
 4235SOL     MW16940   3.977   0.287   1.161  0.2345  0.2292  1.0211
 4236SOL     OW16941   1.247   2.378   4.823  0.2332 -0.5177  0.3965
 4236SOL    HW116942   1.299   2.308   4.861  1.1374  1.6394  3.5893
 4236SOL    HW216943   1.175   2.392   4.885 -0.4135  0.7989 -0.5736
 4236SOL     MW16944   1.245   2.371   4.836  0.2662 -0.0730  0.6810
 4237SOL     OW16945   3.423   0.169   0.158 -0.0579  0.1866 -0.7368
 4237SOL    HW116946   3.332   0.152   0.181  0.2606 -2.0308 -0.8373
 4237SOL    HW216947   3.458   0.083   0.133  2.5707  0.5526  1.1742
 4237SOL     MW16948   3.416   0.156   0.158  0.3193 -0.0504 -0.5051
 4238SOL     OW16949   1.464   3.034   2.036 -0.3050 -0.8755  0.3005
 4238SOL    HW116950   1.370   3.036   2.053 -0.3567  0.4536 -0.0699
 4238SOL    HW216951   1.474   3.076   1.951  0.6236 -0.9987  0.3394
 4238SOL     MW16952   1.453   3.040   2.028 -0.1927 -0.7211  0.2581
 4239SOL     OW16953   4.525   4.784   2.053 -0.6065  0.4451 -0.4757
 4239SOL    HW116954   4.611   4.823   2.071 -1.1566  1.3149  0.3287
 4239SOL    HW216955   4.537   4.691   2.074 -0.8309  1.1400  3.4074
 4239SOL     MW16956   4.538   4.777   2.058 -0.7057  0.6454  0.1244
 4240SOL     OW16957   4.888   0.283   5.072 -0.3020  0.2013 -0.1977
 4240SOL    HW116958   4.912   0.373   5.094 -1.4267  0.4254  0.1999
 4240SOL    HW216959   4.859   0.287   4.980  0.1143  0.1431 -0.3338
 4240SOL     MW16960   4.887   0.295   5.063 -0.3927  0.2226 -0.1642
 4241SOL     OW16961   1.490   5.160   4.327  0.2965 -0.1030  0.4657
 4241SOL    HW116962   1.498   5.244   4.374  1.4779 -0.0986  0.2910
 4241SOL    HW216963   1.434   5.180   4.253  0.2357  0.4421  0.6484
 4241SOL     MW16964   1.484   5.174   4.324  0.4400 -0.0326  0.4667
 4242SOL     OW16965   0.696   4.397   3.534 -0.0034 -0.2252 -0.3804
 4242SOL    HW116966   0.790   4.413   3.533 -0.1586  0.8338 -2.7573
 4242SOL    HW216967   0.687   4.307   3.502  0.1473  0.3355 -2.0858
 4242SOL     MW16968   0.707   4.388   3.530 -0.0040 -0.0179 -0.9030
 4243SOL     OW16969   1.629   5.118   2.488  0.2139 -0.1945 -1.1097
 4243SOL    HW116970   1.574   5.120   2.567  0.5425  1.5848 -0.8644
 4243SOL    HW216971   1.615   5.032   2.451 -1.9092 -0.1880 -0.4592
 4243SOL     MW16972   1.620   5.107   2.494 -0.0158  0.0341 -0.9951
 4244SOL     OW16973   2.793   3.424   2.646  0.8458 -0.4358 -0.2372
 4244SOL    HW116974   2.792   3.367   2.723 -0.4302  1.5703  1.3608
 4244SOL    HW216975   2.754   3.372   2.576 -1.7655 -1.0548  1.5598
 4244SOL     MW16976   2.788   3.410   2.647  0.3481 -0.2582  0.1974
 4245SOL     OW16977   5.413   4.444   3.359  0.3587 -0.5091 -0.0169
 4245SOL    HW116978   5.368   4.361   3.376 -0.4687  0.0880  0.7897
 4245SOL    HW216979   5.435   4.479   3.445  0.0100  0.4750 -0.3082
 4245SOL     MW16980   5.410   4.438   3.372  0.2081 -0.3067  0.0491
 4246SOL     OW16981   0.088   2.045   1.988 -0.1322  0.0299 -0.1948
 4246SOL    HW116982   0.068   2.133   2.020  0.2567  0.3154 -0.7213
 4246SOL    HW216983   0.149   2.010   2.052 -0.3164  0.1290  0.0375
 4246SOL     MW16984   0.093   2.052   2.000 -0.1060  0.0792 -0.2324
 4247SOL     OW16985   1.818   4.893   3.696  0.2909  0.0254 -0.2209
 4247SOL    HW116986   1.753   4.860   3.633  0.6122 -1.0669  0.0046
 4247SOL    HW216987   1.838   4.982   3.665 -1.2890  0.3841 -0.3125
 4247SOL     MW16988   1.812   4.900   3.684  0.1298 -0.0685 -0.2037
 4248SOL     OW16989   3.293   5.418   4.815  0.0750  0.6348 -0.0244
 4248SOL    HW116990   3.334   5.335   4.838  1.1635  1.1740  0.0211
 4248SOL    HW216991   3.361   5.467   4.768 -1.1984  0.6788 -1.9339
 4248SOL     MW16992   3.307   5.414   4.812  0.0514  0.7094 -0.2630
 4249SOL     OW16993   0.130   1.823   4.122 -0.8475  0.0790  0.2800
 4249SOL    HW116994   0.133   1.887   4.051 -1.3718  0.1150  0.2884
 4249SOL    HW216995   0.122   1.875   4.202 -1.1165  0.0078  0.2998
 4249SOL     MW16996   0.129   1.837   4.123 -0.9490  0.0745  0.2836
 4250SOL     OW16997   1.403   3.537   3.202  0.0911 -0.2862  0.9280
 4250SOL    HW116998   1.351   3.588   3.139  0.6786 -1.2637 -0.4006
 4250SOL    HW216999   1.339   3.504   3.265 -0.6930 -0.1855  0.2080
 4250SOL     MW17000   1.388   3.539   3.202  0.0659 -0.3984  0.6658
 4251SOL     OW17001   0.498   0.138   4.235 -0.3040 -0.5862 -0.2301
 4251SOL    HW117002   0.593   0.123   4.242 -0.3669 -0.2489  1.8625
 4251SOL    HW217003   0.490   0.233   4.224 -0.3902 -0.6684 -0.8981
 4251SOL     MW17004   0.509   0.148   4.234 -0.3231 -0.5535 -0.0477
 4252SOL     OW17005   5.384   1.467   2.322  0.1709 -0.5555 -0.6174
 4252SOL    HW117006   5.403   1.545   2.268  0.4213  1.2237  1.8619
 4252SOL    HW217007   5.469   1.445   2.361 -0.3929 -0.3967  0.7484
 4252SOL     MW17008   5.398   1.474   2.320  0.1308 -0.3074 -0.1252
 4253SOL     OW17009   4.900   2.204   1.702 -0.2466  0.0676  0.0610
 4253SOL    HW117010   4.839   2.146   1.749 -0.8478  0.4860 -0.1889
 4253SOL    HW217011   4.887   2.290   1.742 -2.1857  0.8767 -2.0751
 4253SOL     MW17012   4.890   2.207   1.713 -0.5718  0.2248 -0.2444
 4254SOL     OW17013   4.172   1.274   2.776  0.2765  0.6853  0.0686
 4254SOL    HW117014   4.116   1.310   2.707  1.0454 -0.2929 -1.1167
 4254SOL    HW217015   4.241   1.340   2.789  0.2194  0.8007 -0.2232
 4254SOL     MW17016   4.174   1.287   2.769  0.3676  0.5749 -0.1205
 4255SOL     OW17017   0.683   4.139   3.872  0.2878 -0.2470 -0.2290
 4255SOL    HW117018   0.633   4.201   3.819  0.0340  0.6656  1.0289
 4255SOL    HW217019   0.766   4.183   3.889 -0.0500 -0.0507  1.0222
 4255SOL     MW17020   0.687   4.152   3.868  0.2121 -0.1051  0.0922
 4256SOL     OW17021   0.922   4.891   1.240  0.0697  0.2010 -0.2422
 4256SOL    HW117022   0.930   4.800   1.211  0.9166  0.7750 -1.9235
 4256SOL    HW217023   1.011   4.926   1.235  0.2501  0.4454  2.9275
 4256SOL     MW17024   0.934   4.884   1.235  0.2012  0.3057 -0.0517
 4257SOL     OW17025   1.232   1.493   3.877 -0.3868 -0.1192 -0.5647
 4257SOL    HW117026   1.278   1.423   3.924  0.9938  0.6659 -0.7057
 4257SOL    HW217027   1.170   1.528   3.941 -0.2452 -0.6655 -0.1192
 4257SOL     MW17028   1.230   1.488   3.891 -0.1920 -0.0886 -0.5257
 4258SOL     OW17029   0.614   0.540   4.729 -0.2825 -0.4524  0.1251
 4258SOL    HW117030   0.537   0.497   4.691  0.0834 -0.1530 -0.9694
 4258SOL    HW217031   0.686   0.480   4.712 -0.2346 -0.6875  1.0695
 4258SOL     MW17032   0.613   0.527   4.722 -0.2295 -0.4441  0.1059
 4259SOL     OW17033   3.109   1.088   1.885 -0.1708  0.2813  0.2026
 4259SOL    HW117034   3.160   1.163   1.915  2.1207 -0.9938 -0.2435
 4259SOL    HW217035   3.090   1.106   1.793 -0.1805  0.5903  0.2655
 4259SOL     MW17036   3.113   1.100   1.877  0.1213  0.1576  0.1536
 4260SOL     OW17037   3.803   3.137   4.922  0.0729  0.3610  0.3408
 4260SOL    HW117038   3.832   3.214   4.874 -1.7696  0.0897 -1.3485
 4260SOL    HW217039   3.793   3.167   5.012  2.2266  1.2731  0.3277
 4260SOL     MW17040   3.805   3.151   4.927  0.1127  0.4430  0.1228
 4261SOL     OW17041   3.178   2.131   3.512  0.3782  0.3509  0.2417
 4261SOL    HW117042   3.100   2.148   3.566 -0.3724  0.6389 -0.8894
 4261SOL    HW217043   3.145   2.080   3.438  1.2031  0.7301 -0.4057
 4261SOL     MW17044   3.164   2.127   3.509  0.3877  0.4363  0.0140
 4262SOL     OW17045   3.576   1.344   0.851 -0.0382 -0.1716  0.3428
 4262SOL    HW117046   3.566   1.419   0.793 -1.5004  0.8683  1.8408
 4262SOL    HW217047   3.494   1.340   0.900  0.8431 -1.4318  1.8290
 4262SOL     MW17048   3.565   1.353   0.850 -0.1125 -0.1998  0.7248
 4263SOL     OW17049   0.489   4.624   5.276  0.1141  0.1987 -0.0655
 4263SOL    HW117050   0.407   4.626   5.227 -0.0139  1.1724  0.1723
 4263SOL    HW217051   0.465   4.646   5.365  0.6261  0.3837  0.0315
 4263SOL     MW17052   0.476   4.627   5.281  0.1633  0.3470 -0.0227
 4264SOL     OW17053   0.604   4.288   1.146 -0.2556 -0.3000 -0.1255
 4264SOL    HW117054   0.646   4.349   1.207 -1.2413  1.4277 -1.0990
 4264SOL    HW217055   0.656   4.294   1.066 -0.6961 -0.2954 -0.4143
 4264SOL     MW17056   0.616   4.297   1.144 -0.4382 -0.0783 -0.2871
 4265SOL     OW17057   0.896   0.189   4.303  0.4266 -0.4972  0.1807
 4265SOL    HW117058   0.991   0.205   4.300  0.2789  0.3785 -0.3706
 4265SOL    HW217059   0.863   0.256   4.363  0.0086  0.1040 -0.6877
 4265SOL     MW17060   0.904   0.200   4.310  0.3542 -0.3081 -0.0011
 4266SOL     OW17061   4.199   3.657   2.322 -0.4910  0.1329 -0.2329
 4266SOL    HW117062   4.291   3.640   2.300  0.4706  0.1414  3.1745
 4266SOL    HW217063   4.193   3.752   2.326 -0.3430  0.1164  0.5276
 4266SOL     MW17064   4.210   3.667   2.320 -0.3489  0.1319  0.3007
 4267SOL     OW17065   4.699   3.991   1.690  0.2907 -0.6319 -0.1872
 4267SOL    HW117066   4.764   3.988   1.761  0.2390 -0.9806 -0.1554
 4267SOL    HW217067   4.682   4.085   1.678  3.0115 -0.2746 -2.2073
 4267SOL     MW17068   4.705   4.003   1.698  0.6324 -0.6308 -0.4417
 4268SOL     OW17069   0.073   0.129   2.791  0.4961 -0.3032  0.2272
 4268SOL    HW117070   0.050   0.218   2.818  2.7758  0.6694 -0.7805
 4268SOL    HW217071   0.085   0.135   2.696  0.3295 -1.7914  0.0851
 4268SOL     MW17072   0.071   0.141   2.783  0.7666 -0.3692  0.0800
 4269SOL     OW17073   0.214   1.830   1.348  0.0281  0.1436  0.2867
 4269SOL    HW117074   0.184   1.913   1.311 -2.9723 -0.0402  1.9515
 4269SOL    HW217075   0.283   1.854   1.410  0.8316  1.0782 -0.9329
 4269SOL     MW17076   0.219   1.844   1.351 -0.2532  0.2397  0.3437
 4270SOL     OW17077   3.567   5.353   4.177 -0.7117  0.1234  0.2144
 4270SOL    HW117078   3.489   5.409   4.175  0.5062  1.9197  0.1910
 4270SOL    HW217079   3.585   5.340   4.270 -0.3930  0.6901  0.2368
 4270SOL     MW17080   3.560   5.358   4.188 -0.5150  0.4259  0.2142
 4271SOL     OW17081   4.959   4.205   1.128 -0.9306 -0.2248  0.4361
 4271SOL    HW117082   5.000   4.152   1.196  0.0725  0.2902  0.2560
 4271SOL    HW217083   4.994   4.170   1.046 -0.3137  0.6470  0.3132
 4271SOL     MW17084   4.969   4.194   1.126 -0.7232 -0.0473  0.3973
 4272SOL     OW17085   3.115   3.690   2.284  0.9499  0.3533 -0.0835
 4272SOL    HW117086   3.162   3.620   2.239 -0.6082 -1.1444  0.4989
 4272SOL    HW217087   3.023   3.666   2.277  0.3699  2.2012  0.4337
 4272SOL     MW17088   3.109   3.678   2.277  0.6762  0.3981  0.0573
 4273SOL     OW17089   3.148   0.298   5.419  0.1626  0.3936 -0.1251
 4273SOL    HW117090   3.226   0.334   5.377 -0.5818  1.1709 -0.8992
 4273SOL    HW217091   3.075   0.339   5.373 -0.7083 -0.1535  0.7179
 4273SOL     MW17092   3.149   0.308   5.408 -0.0441  0.4231 -0.1163
 4274SOL     OW17093   1.860   3.866   1.750 -0.3210  0.1756 -1.0091
 4274SOL    HW117094   1.827   3.855   1.839  0.2764  0.3943 -0.7478
 4274SOL    HW217095   1.794   3.826   1.693  1.2803 -4.0705 -0.2445
 4274SOL     MW17096   1.848   3.860   1.754 -0.0395 -0.3400 -0.8777
 4275SOL     OW17097   2.814   5.021   3.457  0.1757  0.0130 -0.2396
 4275SOL    HW117098   2.882   5.022   3.389  0.0715  1.1144 -0.3400
 4275SOL    HW217099   2.802   4.928   3.477  1.6122 -0.2079 -0.3181
 4275SOL     MW17100   2.821   5.009   3.451  0.3462  0.1258 -0.2625
 4276SOL     OW17101   4.539   0.027   5.003  0.1916 -0.0118  0.1007
 4276SOL    HW117102   4.504   0.111   4.973 -0.1071  0.0128  0.5056
 4276SOL    HW217103   4.606   0.051   5.068  1.5328 -0.0339 -1.2322
 4276SOL     MW17104   4.543   0.041   5.008  0.3251 -0.0115 -0.0181
 4277SOL     OW17105   2.196   2.249   4.542  0.0699  0.4282  0.3761
 4277SOL    HW117106   2.283   2.288   4.549  0.7922 -0.9939 -0.1733
 4277SOL    HW217107   2.174   2.257   4.449  0.2716 -0.4957  0.2346
 4277SOL     MW17108   2.205   2.255   4.531  0.1882  0.1279  0.2876
 4278SOL     OW17109   2.099   2.600   2.217 -1.0793  0.1912  0.3139
 4278SOL    HW117110   2.193   2.586   2.231 -0.4588  3.6922  0.6572
 4278SOL    HW217111   2.061   2.595   2.305 -1.0939 -0.5571  0.2651
 4278SOL     MW17112   2.106   2.598   2.230 -1.0018  0.5436  0.3516
 4279SOL     OW17113   1.776   2.244   5.012 -0.3341  0.9314 -0.0879
 4279SOL    HW117114   1.777   2.311   4.944 -0.2597  2.7530  1.6110
 4279SOL    HW217115   1.868   2.220   5.024 -0.2366  1.4074  0.1194
 4279SOL     MW17116   1.788   2.249   5.005 -0.3121  1.2255  0.1561
 4280SOL     OW17117   4.022   3.237   2.113 -0.3316  0.3306  0.2183
 4280SOL    HW117118   4.118   3.236   2.109 -0.3705 -0.9824 -1.2186
 4280SOL    HW217119   3.999   3.148   2.140 -1.1627  0.3079 -0.5402
 4280SOL     MW17120   4.032   3.225   2.116 -0.4430  0.1596 -0.0627
 4281SOL     OW17121   2.187   0.975   0.865 -0.0081 -0.5184  0.1174
 4281SOL    HW117122   2.184   1.012   0.777 -0.3939  2.8909  1.4049
 4281SOL    HW217123   2.101   0.934   0.877 -0.9915  1.3069 -0.2752
 4281SOL     MW17124   2.175   0.974   0.855 -0.1834  0.1517  0.2320
 4282SOL     OW17125   0.534   0.881   4.380  0.3683  0.0522  0.0426
 4282SOL    HW117126   0.581   0.839   4.452  0.7103  0.9953  0.3824
 4282SOL    HW217127   0.473   0.941   4.422 -1.4995 -1.4527 -0.3780
 4282SOL     MW17128   0.532   0.883   4.395  0.1730 -0.0197  0.0322
 4283SOL     OW17129   3.455   4.679   2.284 -0.3914 -0.4427 -0.3479
 4283SOL    HW117130   3.387   4.736   2.248 -1.8771 -2.5517 -1.0896
 4283SOL    HW217131   3.501   4.643   2.208  0.1378 -0.6814  0.0695
 4283SOL     MW17132   3.452   4.681   2.270 -0.5138 -0.7432 -0.3894
 4284SOL     OW17133   3.243   1.498   0.342  0.0044  0.5469 -0.0501
 4284SOL    HW117134   3.327   1.539   0.319  0.9507 -0.6420  1.0903
 4284SOL    HW217135   3.211   1.461   0.260  0.3984  1.3532 -0.5791
 4284SOL     MW17136   3.250   1.499   0.329  0.1760  0.4980  0.0281
 4285SOL     OW17137   2.478   4.894   2.891 -0.9157  0.6668 -0.2734
 4285SOL    HW117138   2.506   4.923   2.978 -0.0737 -1.0667  0.0721
 4285SOL    HW217139   2.452   4.803   2.903 -2.1680  0.8235 -1.5741
 4285SOL     MW17140   2.478   4.886   2.903 -0.9682  0.4649 -0.3957
 4286SOL     OW17141   5.159   2.057   1.906 -0.0998  0.0338 -0.1711
 4286SOL    HW117142   5.136   2.145   1.937 -2.4226 -1.2883  2.2811
 4286SOL    HW217143   5.211   2.020   1.977 -2.8691 -2.0082  0.9333
 4286SOL     MW17144   5.163   2.064   1.919 -0.7517 -0.3968  0.2842
 4287SOL     OW17145   3.921   1.653   2.070  0.1074  0.2833  0.1777
 4287SOL    HW117146   4.009   1.640   2.035  0.7870  2.6944  0.8048
 4287SOL    HW217147   3.871   1.686   1.995  0.3213  0.9627  0.3284
 4287SOL     MW17148   3.926   1.656   2.056  0.2218  0.6789  0.2773
 4288SOL     OW17149   5.183   1.274   3.907 -0.3743 -0.2310  0.3555
 4288SOL    HW117150   5.250   1.307   3.967 -0.7642  0.7051  0.2994
 4288SOL    HW217151   5.116   1.236   3.964  1.2018 -3.2419  0.3459
 4288SOL     MW17152   5.183   1.274   3.922 -0.2224 -0.4966  0.3471
 4289SOL     OW17153   1.371   4.708   0.616  0.1264 -0.2281 -0.2802
 4289SOL    HW117154   1.430   4.739   0.684  0.0498 -1.2820  0.3010
 4289SOL    HW217155   1.298   4.668   0.664 -1.9774  2.5436 -0.9314
 4289SOL     MW17156   1.369   4.707   0.631 -0.1527 -0.0082 -0.2892
 4290SOL     OW17157   4.517   1.317   3.806 -0.2525  0.3544 -0.0453
 4290SOL    HW117158   4.460   1.356   3.740 -1.9383 -2.0813 -0.1585
 4290SOL    HW217159   4.458   1.273   3.867  1.4161 -1.5575  0.3286
 4290SOL     MW17160   4.502   1.316   3.805 -0.2547 -0.2021 -0.0119
 4291SOL     OW17161   4.054   2.416   2.514 -0.5778 -0.7258  0.2975
 4291SOL    HW117162   4.149   2.423   2.529 -0.4332 -1.2266 -0.3232
 4291SOL    HW217163   4.020   2.381   2.597 -0.4010  0.6287  0.9610
 4291SOL     MW17164   4.062   2.412   2.527 -0.5367 -0.6165  0.3029
 4292SOL     OW17165   4.236   4.721   0.222  0.5625 -1.0430  0.2214
 4292SOL    HW117166   4.327   4.740   0.198  0.7410  2.6716  2.9664
 4292SOL    HW217167   4.187   4.799   0.194 -1.9152 -2.9457 -1.1753
 4292SOL     MW17168   4.241   4.734   0.215  0.2681 -0.8110  0.3940
 4293SOL     OW17169   5.403   0.421   1.285 -0.3167  0.0212 -0.5287
 4293SOL    HW117170   5.441   0.506   1.309  0.9344 -0.2198 -1.5255
 4293SOL    HW217171   5.335   0.441   1.222 -0.6199  0.3425 -0.1005
 4293SOL     MW17172   5.399   0.434   1.280 -0.1954  0.0315 -0.6015
 4294SOL     OW17173   4.700   4.601   0.249  0.0167 -0.0431  0.3943
 4294SOL    HW117174   4.697   4.509   0.223  1.8597 -0.4381  1.4421
 4294SOL    HW217175   4.733   4.647   0.172 -0.0719 -0.3838  0.1510
 4294SOL     MW17176   4.704   4.595   0.236  0.2413 -0.1373  0.4973
 4295SOL     OW17177   3.384   5.449   0.509  0.1143 -0.6809 -0.5528
 4295SOL    HW117178   3.382   5.511   0.582  1.5305  0.4986 -1.4710
 4295SOL    HW217179   3.473   5.415   0.509 -0.5187 -2.4716 -0.3271
 4295SOL     MW17180   3.395   5.452   0.518  0.2146 -0.7591 -0.6414
 4296SOL     OW17181   1.509   3.537   0.934 -0.2878  0.1783  0.2480
 4296SOL    HW117182   1.597   3.504   0.949 -0.2985 -0.7287 -1.4534
 4296SOL    HW217183   1.463   3.523   1.017  1.2582  1.0986  1.3133
 4296SOL     MW17184   1.514   3.531   0.946 -0.0913  0.1800  0.1666
 4297SOL     OW17185   0.734   2.959   1.612 -0.4587  0.5945 -0.2600
 4297SOL    HW117186   0.740   3.037   1.667 -1.1466  0.7676 -0.4151
 4297SOL    HW217187   0.795   2.975   1.540 -0.2097  0.7534 -0.0158
 4297SOL     MW17188   0.743   2.971   1.610 -0.5149  0.6370 -0.2486
 4298SOL     OW17189   5.016   4.678   0.251  0.5481 -0.2309  0.3126
 4298SOL    HW117190   4.941   4.656   0.306  0.6534  0.7403  0.8543
 4298SOL    HW217191   4.981   4.676   0.162 -0.1338  0.2813  0.5647
 4298SOL     MW17192   5.002   4.675   0.247  0.4743 -0.0410  0.4142
 4299SOL     OW17193   4.475   2.884   4.546  0.8692  0.5218  0.7437
 4299SOL    HW117194   4.482   2.851   4.457  0.9354  1.0647  0.5439
 4299SOL    HW217195   4.393   2.934   4.547  1.0060  0.7450  0.9080
 4299SOL     MW17196   4.466   2.887   4.535  0.8952  0.6199  0.7391
 4300SOL     OW17197   5.184   1.525   2.502  0.0536 -0.0447 -0.1181
 4300SOL    HW117198   5.249   1.530   2.432 -0.9911  0.6590 -1.0628
 4300SOL    HW217199   5.139   1.442   2.487 -0.3179  0.2098 -0.4175
 4300SOL     MW17200   5.187   1.515   2.491 -0.1277  0.0779 -0.2774
 4301SOL     OW17201   3.405   3.928   4.645 -0.5415  0.1541 -0.1821
 4301SOL    HW117202   3.430   3.857   4.586  2.6436  0.7670  0.2558
 4301SOL    HW217203   3.433   4.007   4.600 -0.4838  0.8286  1.0038
 4301SOL     MW17204   3.412   3.929   4.632 -0.1264  0.3189  0.0258
 4302SOL     OW17205   3.194   4.391   5.455  0.2466  0.0638 -0.4441
 4302SOL    HW117206   3.113   4.441   5.465  0.5659  0.3588  0.9733
 4302SOL    HW217207   3.202   4.376   5.361 -1.6183 -0.2663 -0.5898
 4302SOL     MW17208   3.185   4.395   5.445  0.0488  0.0593 -0.2813
 4303SOL     OW17209   2.789   0.426   2.713  0.2395  0.4592  0.0983
 4303SOL    HW117210   2.868   0.404   2.665 -0.5327 -0.7412 -0.6482
 4303SOL    HW217211   2.739   0.482   2.654  0.0789  0.3978  0.1738
 4303SOL     MW17212   2.792   0.431   2.700  0.1201  0.2976  0.0124
 4304SOL     OW17213   4.087   0.589   1.315 -0.2923 -0.3510 -0.1701
 4304SOL    HW117214   4.120   0.679   1.309 -3.5658  0.9624 -0.2837
 4304SOL    HW217215   4.001   0.592   1.273 -0.3036 -3.7094 -0.6639
 4304SOL     MW17216   4.080   0.601   1.309 -0.7128 -0.6128 -0.2478
 4305SOL     OW17217   3.900   3.008   2.174  0.7453 -0.0701 -0.4147
 4305SOL    HW117218   3.808   3.017   2.150  0.6488 -0.4874 -0.2054
 4305SOL    HW217219   3.929   2.928   2.129  0.9456 -0.0595 -0.3050
 4305SOL     MW17220   3.892   2.999   2.165  0.7586 -0.1222 -0.3739
 4306SOL     OW17221   1.358   1.838   2.708  0.3981 -0.3730 -0.3166
 4306SOL    HW117222   1.317   1.904   2.764  0.9696  0.0132 -0.3409
 4306SOL    HW217223   1.342   1.870   2.619  2.1042  0.6346 -0.2965
 4306SOL     MW17224   1.351   1.851   2.704  0.6897 -0.1946 -0.3171
 4307SOL     OW17225   4.515   3.584   1.426  0.1288  0.0245  0.1945
 4307SOL    HW117226   4.423   3.602   1.410  0.4276  1.7920  0.2013
 4307SOL    HW217227   4.530   3.616   1.515  0.4610 -1.5075  0.7163
 4307SOL     MW17228   4.505   3.590   1.436  0.2096  0.0546  0.2622
 4308SOL     OW17229   2.585   1.669   3.883 -0.2873  0.1832  0.5144
 4308SOL    HW117230   2.662   1.669   3.940  1.9700  0.8705 -2.2837
 4308SOL    HW217231   2.556   1.760   3.881 -0.1908  0.2118  0.3774
 4308SOL     MW17232   2.591   1.681   3.890  0.0140  0.2748  0.1386
 4309SOL     OW17233   5.156   1.590   5.090  0.4893 -0.1760 -0.5520
 4309SOL    HW117234   5.162   1.558   5.000  2.5918 -1.0173 -0.1700
 4309SOL    HW217235   5.168   1.512   5.144  1.2282  0.5966  0.4442
 4309SOL     MW17236   5.158   1.576   5.085  0.8531 -0.1848 -0.3755
 4310SOL     OW17237   1.177   0.243   0.185  0.5712  0.3267 -0.0319
 4310SOL    HW117238   1.168   0.275   0.095 -0.7965 -1.0158 -0.4104
 4310SOL    HW217239   1.115   0.294   0.236 -0.1622 -0.3067 -0.2646
 4310SOL     MW17240   1.168   0.253   0.180  0.3022  0.0737 -0.1101
 4311SOL     OW17241   0.457   4.815   3.961 -0.4286  0.4884  0.4182
 4311SOL    HW117242   0.498   4.856   3.885 -1.6579  1.4816  0.2417
 4311SOL    HW217243   0.440   4.888   4.021 -2.2142  0.2151  0.3120
 4311SOL     MW17244   0.460   4.830   3.959 -0.8146  0.5805  0.3820
 4312SOL     OW17245   1.745   3.213   3.822  0.1607  0.5835  0.1598
 4312SOL    HW117246   1.717   3.130   3.860  1.4682 -0.2764 -0.6836
 4312SOL    HW217247   1.772   3.266   3.897  1.1398 -0.4838  0.5866
 4312SOL     MW17248   1.745   3.209   3.836  0.4534  0.3368  0.1065
 4313SOL     OW17249   0.408   3.820   0.907  0.0834 -0.0730  0.0388
 4313SOL    HW117250   0.393   3.746   0.966 -0.1049 -0.0483  0.0208
 4313SOL    HW217251   0.474   3.873   0.952  0.8059 -0.6601 -0.3070
 4313SOL     MW17252   0.415   3.817   0.920  0.1518 -0.1450 -0.0078
 4314SOL     OW17253   1.776   4.233   5.170  0.1228  0.4720 -0.0853
 4314SOL    HW117254   1.727   4.247   5.089  0.1697  0.5866 -0.0945
 4314SOL    HW217255   1.789   4.321   5.205  0.3202  0.4421 -0.0833
 4314SOL     MW17256   1.772   4.246   5.164  0.1541  0.4829 -0.0862
 4315SOL     OW17257   0.906   3.208   3.272 -0.0494 -0.6923 -0.1703
 4315SOL    HW117258   0.909   3.137   3.208  1.8952  0.4098 -1.3875
 4315SOL    HW217259   0.839   3.268   3.237  0.7982 -0.2359 -1.0709
 4315SOL     MW17260   0.898   3.207   3.259  0.3081 -0.4928 -0.4414
 4316SOL     OW17261   2.901   4.833   0.269 -0.6201 -0.4763  0.0754
 4316SOL    HW117262   2.943   4.875   0.194 -0.8145 -1.1159 -0.4006
 4316SOL    HW217263   2.907   4.739   0.250  0.0251 -0.6936  1.2267
 4316SOL     MW17264   2.907   4.826   0.257 -0.5624 -0.5860  0.1618
 4317SOL     OW17265   4.119   4.896   3.180  0.2393  0.0400 -0.6096
 4317SOL    HW117266   4.167   4.843   3.244 -0.8362 -0.8269 -0.4921
 4317SOL    HW217267   4.059   4.835   3.139  0.8880  0.5858 -2.4741
 4317SOL     MW17268   4.118   4.882   3.183  0.1847 -0.0011 -0.8332
 4318SOL     OW17269   1.862   2.735   3.208 -0.2942 -0.0738  0.4830
 4318SOL    HW117270   1.779   2.741   3.162  1.0329 -0.3343 -2.1068
 4318SOL    HW217271   1.889   2.643   3.197 -0.9802 -0.8042  3.8645
 4318SOL     MW17272   1.855   2.724   3.201 -0.2122 -0.2006  0.5844
 4319SOL     OW17273   5.344   3.318   2.227 -0.2116  0.3216  0.3628
 4319SOL    HW117274   5.435   3.348   2.227 -0.4479  1.0790 -0.7344
 4319SOL    HW217275   5.351   3.222   2.227  0.5472  0.2940  2.9274
 4319SOL     MW17276   5.357   3.309   2.227 -0.1447  0.4150  0.5506
 4320SOL     OW17277   5.434   1.479   3.262  0.2274  0.5602 -0.2062
 4320SOL    HW117278   5.370   1.480   3.190  2.7044  1.5694 -2.5876
 4320SOL    HW217279   5.494   1.550   3.241  2.3075 -0.5035  1.7390
 4320SOL     MW17280   5.433   1.488   3.250  0.8107  0.5532 -0.2620
 4321SOL     OW17281   2.362   0.704   1.433  0.3372 -0.0131 -0.0337
 4321SOL    HW117282   2.332   0.749   1.513  0.9913 -0.1966  0.3246
 4321SOL    HW217283   2.306   0.739   1.364 -0.7398 -0.3904  0.6178
 4321SOL     MW17284   2.351   0.715   1.435  0.2831 -0.0849  0.0956
 4322SOL     OW17285   2.002   2.063   4.970 -0.0884  0.4612 -0.0004
 4322SOL    HW117286   2.004   2.037   5.062  0.5859  0.3443 -0.0475
 4322SOL    HW217287   2.090   2.097   4.952 -0.3368  0.8675 -0.4944
 4322SOL     MW17288   2.014   2.064   4.979 -0.0338  0.4983 -0.0697
 4323SOL     OW17289   3.837   1.315   1.938  0.4384  0.3517  0.1031
 4323SOL    HW117290   3.790   1.241   1.900  0.0681  0.8335 -0.3886
 4323SOL    HW217291   3.774   1.357   1.996  0.7270  0.1419  0.5765
 4323SOL     MW17292   3.823   1.311   1.940  0.4279  0.3865  0.1008
 4324SOL     OW17293   5.281   2.189   3.455  0.0471  0.0371 -0.0409
 4324SOL    HW117294   5.205   2.131   3.452  0.2005 -0.1578 -0.1855
 4324SOL    HW217295   5.321   2.171   3.540  1.1143 -1.3832 -0.8048
 4324SOL     MW17296   5.276   2.179   3.465  0.2034 -0.1697 -0.1572
 4325SOL     OW17297   2.533   4.974   0.209  0.3085  0.2132  0.1472
 4325SOL    HW117298   2.552   4.922   0.131  1.0642 -0.7283  0.9238
 4325SOL    HW217299   2.456   5.026   0.186  0.1961 -0.4498 -1.0331
 4325SOL     MW17300   2.525   4.974   0.196  0.3909  0.0078  0.0955
 4326SOL     OW17301   4.607   4.915   1.027 -0.0619  0.0633 -0.2982
 4326SOL    HW117302   4.671   4.876   0.967  0.7113  0.1768  0.4284
 4326SOL    HW217303   4.657   4.979   1.077 -1.0090  0.9974 -0.5052
 4326SOL     MW17304   4.622   4.918   1.026 -0.0842  0.1974 -0.2317
 4327SOL     OW17305   0.661   0.509   2.763 -0.1866 -0.3180  0.3171
 4327SOL    HW117306   0.599   0.553   2.704 -1.0887 -2.4992 -0.4717
 4327SOL    HW217307   0.637   0.539   2.850 -0.5032  1.0139 -0.2046
 4327SOL     MW17308   0.650   0.519   2.767 -0.3426 -0.4267  0.1494
 4328SOL     OW17309   1.719   3.454   1.437  0.2084  0.7015  0.0513
 4328SOL    HW117310   1.797   3.453   1.493  0.5994  1.3878 -0.4606
 4328SOL    HW217311   1.754   3.462   1.348 -0.2932 -2.2602 -0.5077
 4328SOL     MW17312   1.734   3.455   1.432  0.1942  0.4103 -0.0858
 4329SOL     OW17313   0.402   3.819   2.950  0.2094 -0.6205  0.5226
 4329SOL    HW117314   0.471   3.880   2.926  0.5752 -1.3834 -0.4460
 4329SOL    HW217315   0.413   3.805   3.044 -1.0148  2.1670  1.1882
 4329SOL     MW17316   0.412   3.825   2.959  0.0995 -0.3614  0.4838
 4330SOL     OW17317   4.485   2.826   2.075 -0.4532 -0.8951  0.0140
 4330SOL    HW117318   4.449   2.783   2.152 -1.2144 -0.2504  0.0288
 4330SOL    HW217319   4.579   2.810   2.080 -0.4606 -0.6505  1.2201
 4330SOL     MW17320   4.493   2.819   2.086 -0.5516 -0.7812  0.1703
 4331SOL     OW17321   5.349   1.119   4.570 -0.1822  0.5790 -0.1436
 4331SOL    HW117322   5.296   1.162   4.503  0.1665 -0.7644 -1.3396
 4331SOL    HW217323   5.437   1.118   4.534  0.2778  0.9674  0.9237
 4331SOL     MW17324   5.353   1.124   4.557 -0.0787  0.4567 -0.1601
 4332SOL     OW17325   2.295   3.520   4.696  0.0736  0.3486 -0.8848
 4332SOL    HW117326   2.322   3.567   4.617  2.4287 -1.4229 -1.2773
 4332SOL    HW217327   2.316   3.579   4.768  1.4593  0.5839 -1.4420
 4332SOL     MW17328   2.301   3.534   4.695  0.5525  0.1519 -1.0064
 4333SOL     OW17329   4.592   1.734   4.914  0.1628  0.4529  0.3239
 4333SOL    HW117330   4.545   1.708   4.835  1.7768  0.0715 -0.5567
 4333SOL    HW217331   4.618   1.824   4.899  0.6196  0.3282  0.3353
 4333SOL     MW17332   4.590   1.742   4.902  0.4279  0.3881  0.2127
 4334SOL     OW17333   1.377   4.711   1.670 -0.2569 -0.1931 -0.2890
 4334SOL    HW117334   1.451   4.651   1.677 -0.5751 -0.4421  1.7823
 4334SOL    HW217335   1.300   4.654   1.676 -0.5652  0.3474  1.7715
 4334SOL     MW17336   1.376   4.696   1.672 -0.3371 -0.1558  0.2399
 4335SOL     OW17337   5.148   3.019   1.728 -0.1766 -0.1794  0.3994
 4335SOL    HW117338   5.162   2.931   1.694  0.7932 -0.1330  0.6636
 4335SOL    HW217339   5.212   3.029   1.799 -2.2879 -0.3716  2.4807
 4335SOL     MW17340   5.158   3.009   1.733 -0.3227 -0.1981  0.6996
 4336SOL     OW17341   2.111   5.301   4.595 -0.0725 -0.3718  0.0637
 4336SOL    HW117342   2.186   5.347   4.559 -0.6676  0.8534  0.3353
 4336SOL    HW217343   2.035   5.349   4.561 -0.7519 -1.6670 -0.3257
 4336SOL     MW17344   2.111   5.313   4.586 -0.2357 -0.3807  0.0486
 4337SOL     OW17345   2.240   2.425   0.756 -0.7751 -0.0005 -0.3785
 4337SOL    HW117346   2.283   2.483   0.820  0.0456 -0.1958 -0.7406
 4337SOL    HW217347   2.297   2.429   0.679 -0.9035 -1.0103 -0.5313
 4337SOL     MW17348   2.253   2.433   0.754 -0.6865 -0.1548 -0.4444
 4338SOL     OW17349   1.730   5.239   5.039 -0.0478  0.3283  0.3091
 4338SOL    HW117350   1.738   5.207   5.129  0.6964  1.2425  0.5918
 4338SOL    HW217351   1.764   5.168   4.985 -0.6207 -0.2841  0.7238
 4338SOL     MW17352   1.735   5.226   5.044 -0.0259  0.3669  0.3984
 4339SOL     OW17353   1.040   1.314   0.225  0.2816  0.2383 -0.3517
 4339SOL    HW117354   1.116   1.296   0.170  1.8590  0.1762  1.7545
 4339SOL    HW217355   1.076   1.347   0.307 -1.9294 -0.5378  1.0270
 4339SOL     MW17356   1.054   1.316   0.228  0.2005  0.1310  0.0944
 4340SOL     OW17357   1.550   0.956   5.190  0.0904  0.1118  0.0834
 4340SOL    HW117358   1.629   0.904   5.183  0.3453  0.6482 -1.2150
 4340SOL    HW217359   1.512   0.955   5.102 -0.8551  0.6147  0.4710
 4340SOL     MW17360   1.555   0.949   5.178  0.0020  0.2448 -0.0332
 4341SOL     OW17361   2.737   1.246   2.297 -0.7827 -0.1727 -0.3318
 4341SOL    HW117362   2.678   1.252   2.372 -1.7021 -1.4139 -0.9293
 4341SOL    HW217363   2.825   1.260   2.334 -1.1338 -1.5267  1.1085
 4341SOL     MW17364   2.741   1.249   2.312 -0.9453 -0.5049 -0.2239
 4342SOL     OW17365   0.911   4.278   2.494 -0.4237 -0.4955 -0.4909
 4342SOL    HW117366   0.820   4.256   2.510 -0.7329  1.0852  0.1958
 4342SOL    HW217367   0.909   4.370   2.466  0.8920 -0.6259 -1.1030
 4342SOL     MW17368   0.899   4.287   2.493 -0.2948 -0.3099 -0.4813
 4343SOL     OW17369   2.716   4.364   5.048 -0.2341  0.2615 -0.4036
 4343SOL    HW117370   2.656   4.371   4.973  0.1520 -0.3735 -0.7781
 4343SOL    HW217371   2.717   4.451   5.086 -1.5883  0.2331 -0.2497
 4343SOL     MW17372   2.708   4.376   5.044 -0.3580  0.1766 -0.4318
 4344SOL     OW17373   3.984   3.368   4.460  0.1392 -0.3845  0.3972
 4344SOL    HW117374   3.947   3.310   4.527  0.3613 -0.2846  0.6094
 4344SOL    HW217375   3.986   3.454   4.502 -1.0741 -0.0236 -0.2371
 4344SOL     MW17376   3.979   3.372   4.474  0.0123 -0.3255  0.3432
 4345SOL     OW17377   2.814   2.047   4.398 -0.0501  0.0095  0.5181
 4345SOL    HW117378   2.816   2.110   4.327 -0.2336 -0.6096 -0.0466
 4345SOL    HW217379   2.888   1.988   4.381  1.2909  1.1382  2.0673
 4345SOL     MW17380   2.824   2.047   4.387  0.0981  0.0747  0.6441
 4346SOL     OW17381   2.048   0.218   1.736 -0.2275 -0.5802 -0.4652
 4346SOL    HW117382   2.034   0.130   1.699  0.7211  0.1257 -2.6968
 4346SOL    HW217383   2.134   0.243   1.704 -0.6127  1.3045 -0.1262
 4346SOL     MW17384   2.057   0.210   1.727 -0.1554 -0.2486 -0.7075
 4347SOL     OW17385   2.885   3.037   2.918  0.0439  0.1623  0.5140
 4347SOL    HW117386   2.803   2.987   2.925 -0.2604  0.7809  1.5946
 4347SOL    HW217387   2.931   3.020   3.000 -0.6582  2.6432  1.5080
 4347SOL     MW17388   2.880   3.028   2.929 -0.0849  0.5591  0.7796
 4348SOL     OW17389   3.822   3.391   3.798  0.5616  0.1414  0.4963
 4348SOL    HW117390   3.832   3.305   3.759  0.2270 -0.0876  0.9024
 4348SOL    HW217391   3.911   3.424   3.808  0.6328  0.6092 -1.3014
 4348SOL     MW17392   3.835   3.384   3.795  0.5279  0.1720  0.3182
 4349SOL     OW17393   1.044   2.239   2.326  0.0691  0.4195 -0.0683
 4349SOL    HW117394   0.965   2.231   2.272  0.7296 -0.6101 -0.9232
 4349SOL    HW217395   1.029   2.179   2.399  0.3204 -0.2546 -0.5661
 4349SOL     MW17396   1.032   2.230   2.328  0.1858  0.2014 -0.2415
 4350SOL     OW17397   2.412   0.140   1.109  0.0497 -0.1090  0.0656
 4350SOL    HW117398   2.471   0.205   1.146  0.6510  0.0837 -1.1897
 4350SOL    HW217399   2.368   0.186   1.037 -0.4420 -0.7306 -0.0408
 4350SOL     MW17400   2.414   0.155   1.105  0.0637 -0.1639 -0.1087
 4351SOL     OW17401   0.511   3.719   3.690 -0.4571  0.1285  0.0846
 4351SOL    HW117402   0.447   3.648   3.680 -0.7934  0.5388 -0.7166
 4351SOL    HW217403   0.545   3.734   3.601  0.2439  0.3925  0.3861
 4351SOL     MW17404   0.507   3.712   3.677 -0.4104  0.2148  0.0206
 4352SOL     OW17405   0.078   5.188   2.707  0.3418 -0.0452 -0.5353
 4352SOL    HW117406   0.147   5.132   2.672  0.0481  0.2340 -1.5880
 4352SOL    HW217407   0.065   5.256   2.641 -0.4734  0.2994 -0.0456
 4352SOL     MW17408   0.085   5.190   2.694  0.1999  0.0347 -0.6073
 4353SOL     OW17409   2.670   2.344   4.842  0.1873  0.1035  0.0935
 4353SOL    HW117410   2.707   2.357   4.929  0.5597  1.8046 -0.2707
 4353SOL    HW217411   2.738   2.376   4.782 -0.7033  0.5314 -0.7284
 4353SOL     MW17412   2.683   2.350   4.845  0.1210  0.3760 -0.0583
 4354SOL     OW17413   0.320   0.779   1.359 -0.0741  0.0972 -0.9631
 4354SOL    HW117414   0.379   0.729   1.416 -0.9934  0.8809  0.7195
 4354SOL    HW217415   0.379   0.833   1.306  0.7815  2.1333  1.8414
 4354SOL     MW17416   0.335   0.779   1.360 -0.0822  0.4582 -0.3887
 4355SOL     OW17417   0.428   1.106   2.226 -0.1694  0.0859 -0.1749
 4355SOL    HW117418   0.450   1.060   2.145 -0.1311 -0.7480  0.3002
 4355SOL    HW217419   0.336   1.129   2.217  0.6157  3.0257 -1.9062
 4355SOL     MW17420   0.419   1.103   2.215 -0.0640  0.3555 -0.3357
 4356SOL     OW17421   5.291   3.984   4.503  0.4134 -0.2751 -0.0750
 4356SOL    HW117422   5.251   4.064   4.535 -0.3206 -0.5467 -0.2982
 4356SOL    HW217423   5.377   3.981   4.545 -0.0431 -0.0047  0.8851
 4356SOL     MW17424   5.297   3.994   4.512  0.2610 -0.2753  0.0193
 4357SOL     OW17425   0.726   5.038   1.105  0.2429  0.3123 -0.0186
 4357SOL    HW117426   0.803   4.982   1.092 -0.8001 -1.0745 -0.4310
 4357SOL    HW217427   0.708   5.033   1.199 -0.5665 -1.0811 -0.2205
 4357SOL     MW17428   0.734   5.030   1.116  0.0058 -0.0436 -0.0972
 4358SOL     OW17429   0.142   4.357   4.278 -0.1359 -0.4829 -0.1044
 4358SOL    HW117430   0.088   4.420   4.327  0.1962 -0.7403  0.6107
 4358SOL    HW217431   0.101   4.272   4.295  0.5896 -0.7102  0.6220
 4358SOL     MW17432   0.130   4.354   4.287 -0.0005 -0.5449  0.0801
 4359SOL     OW17433   5.394   2.410   1.165 -0.1191  0.4460 -0.2537
 4359SOL    HW117434   5.466   2.369   1.116 -0.3171 -0.6819  0.3507
 4359SOL    HW217435   5.404   2.377   1.254 -2.8331 -1.8956 -0.6537
 4359SOL     MW17436   5.405   2.400   1.170 -0.4919  0.0018 -0.2275
 4360SOL     OW17437   3.218   3.412   2.522 -0.7269  0.1211  0.0746
 4360SOL    HW117438   3.253   3.501   2.517 -1.2425  0.4193  1.3946
 4360SOL    HW217439   3.131   3.423   2.559 -0.9025 -0.9154 -0.0171
 4360SOL     MW17440   3.211   3.425   2.526 -0.8154  0.0266  0.2318
 4361SOL     OW17441   1.067   1.806   4.676  0.3127  0.4890  0.2710
 4361SOL    HW117442   1.017   1.764   4.746  1.8814 -4.2201 -1.0469
 4361SOL    HW217443   1.130   1.862   4.721 -0.1466 -0.6742  2.4892
 4361SOL     MW17444   1.069   1.808   4.691  0.4548 -0.2627  0.3862
 4362SOL     OW17445   4.913   1.500   0.229 -0.2915 -0.0453  0.0691
 4362SOL    HW117446   4.818   1.496   0.236 -0.4680  0.5430 -1.5453
 4362SOL    HW217447   4.945   1.447   0.303 -1.8565 -0.3873  0.5384
 4362SOL     MW17448   4.905   1.492   0.239 -0.5144 -0.0138 -0.0775
 4363SOL     OW17449   3.988   5.350   0.895  0.2188 -0.5212 -0.2257
 4363SOL    HW117450   4.075   5.332   0.859  0.4062 -0.2405  0.0837
 4363SOL    HW217451   3.950   5.416   0.836  0.6912  0.2554  0.3127
 4363SOL     MW17452   3.994   5.356   0.883  0.3033 -0.3859 -0.1172
 4364SOL     OW17453   5.360   2.323   4.126  0.0853 -0.1305 -0.0029
 4364SOL    HW117454   5.412   2.306   4.205 -1.7861 -1.2463  1.0537
 4364SOL    HW217455   5.369   2.242   4.074  0.9906  0.4505 -0.8018
 4364SOL     MW17456   5.368   2.310   4.129 -0.0384 -0.1990  0.0301
 4365SOL     OW17457   4.492   1.484   1.519 -0.0439 -0.0405  0.6099
 4365SOL    HW117458   4.490   1.459   1.427  1.4449  0.5695  0.3876
 4365SOL    HW217459   4.449   1.569   1.522 -0.8126 -0.4206  0.6185
 4365SOL     MW17460   4.486   1.491   1.508  0.0483 -0.0111  0.5826
 4366SOL     OW17461   1.078   5.421   4.941 -0.6047  0.3372 -0.2243
 4366SOL    HW117462   1.000   5.408   4.995 -0.2307 -0.0136  0.2370
 4366SOL    HW217463   1.139   5.353   4.969  0.0386  0.8739 -0.2771
 4366SOL     MW17464   1.076   5.411   4.951 -0.4745  0.3610 -0.1720
 4367SOL     OW17465   5.363   2.174   2.807  0.1826  0.2109 -0.1830
 4367SOL    HW117466   5.293   2.121   2.769 -0.5837 -0.0375  1.4778
 4367SOL    HW217467   5.444   2.128   2.786 -0.1183  0.4399 -2.0376
 4367SOL     MW17468   5.364   2.162   2.799  0.0460  0.2084 -0.2078
 4368SOL     OW17469   2.552   2.556   4.244  0.0616 -0.0585  0.4500
 4368SOL    HW117470   2.644   2.548   4.217 -0.3072 -0.1788 -0.8261
 4368SOL    HW217471   2.506   2.493   4.188 -0.7081 -0.5595  1.6092
 4368SOL     MW17472   2.558   2.547   4.234 -0.0842 -0.1380  0.4351
 4369SOL     OW17473   1.640   3.375   4.641 -0.4939 -0.0459 -0.0162
 4369SOL    HW117474   1.715   3.335   4.598 -0.7802 -0.2325 -0.3443
 4369SOL    HW217475   1.564   3.328   4.606 -0.7872  0.3669  0.0626
 4369SOL     MW17476   1.640   3.364   4.631 -0.5681 -0.0169 -0.0481
 4370SOL     OW17477   2.333   2.607   4.487  0.0077 -0.2430 -0.2463
 4370SOL    HW117478   2.289   2.601   4.403 -0.8474 -0.5983  0.2138
 4370SOL    HW217479   2.421   2.574   4.470  0.2007  0.7452 -1.2406
 4370SOL     MW17480   2.339   2.602   4.474 -0.0770 -0.1620 -0.3147
 4371SOL     OW17481   3.071   5.331   3.386 -0.2068 -0.5311  0.6549
 4371SOL    HW117482   3.109   5.418   3.372  1.2670 -1.4229 -1.4091
 4371SOL    HW217483   3.127   5.292   3.454  0.7585 -0.7743 -0.2632
 4371SOL     MW17484   3.083   5.337   3.393  0.1054 -0.6764  0.2732
 4372SOL     OW17485   4.431   4.551   1.878  0.2962 -0.3075  0.0535
 4372SOL    HW117486   4.418   4.475   1.822 -2.0833  0.4320 -0.4939
 4372SOL    HW217487   4.430   4.626   1.818  0.9808  0.2866  0.7558
 4372SOL     MW17488   4.429   4.551   1.863  0.0792 -0.1368  0.0733
 4373SOL     OW17489   2.606   0.140   4.080 -0.4708 -0.3230 -0.2413
 4373SOL    HW117490   2.657   0.060   4.088  1.3233  0.8630  0.7034
 4373SOL    HW217491   2.612   0.182   4.166 -0.0445  1.5758 -1.1431
 4373SOL     MW17492   2.613   0.135   4.092 -0.1865  0.0719 -0.2358
 4374SOL     OW17493   1.167   2.009   4.852 -0.0141 -0.5809  0.3980
 4374SOL    HW117494   1.241   2.067   4.868  0.3346 -0.9449  0.1450
 4374SOL    HW217495   1.093   2.052   4.894 -0.3558  1.4027 -2.0010
 4374SOL     MW17496   1.167   2.022   4.859 -0.0132 -0.3736  0.0585
 4375SOL     OW17497   3.951   2.047   4.660  0.1990  0.8058 -0.0089
 4375SOL    HW117498   3.859   2.065   4.680 -0.9020  1.5002 -4.4320
 4375SOL    HW217499   3.994   2.132   4.669 -0.6289  1.4869 -1.9429
 4375SOL     MW17500   3.945   2.060   4.663 -0.0479  0.9818 -0.8227
 4376SOL     OW17501   2.403   0.804   2.567  0.2912  0.1280 -0.3758
 4376SOL    HW117502   2.315   0.833   2.593  0.0323 -1.1365  0.2603
 4376SOL    HW217503   2.390   0.763   2.482  0.2144 -0.2486 -0.1863
 4376SOL     MW17504   2.390   0.803   2.560  0.2482 -0.0821 -0.2701
 4377SOL     OW17505   1.863   2.813   1.389  0.3308  0.3792  0.8624
 4377SOL    HW117506   1.908   2.846   1.311 -1.1870  0.7965  0.1326
 4377SOL    HW217507   1.807   2.743   1.356 -2.2327  2.1991  1.0893
 4377SOL     MW17508   1.862   2.808   1.375 -0.1916  0.6656  0.7980
 4378SOL     OW17509   4.757   5.493   4.618  0.8655 -0.2817  0.1497
 4378SOL    HW117510   4.756   5.473   4.524 -2.7056  0.0893 -0.0433
 4378SOL    HW217511   4.717   5.416   4.659 -0.6923  0.8534  0.9008
 4378SOL     MW17512   4.751   5.480   4.611  0.2089 -0.0889  0.2212
 4379SOL     OW17513   3.651   3.056   0.434  1.1578 -0.0633  0.2191
 4379SOL    HW117514   3.657   3.017   0.521 -1.3419 -0.3936  0.3348
 4379SOL    HW217515   3.667   2.984   0.374 -2.4931 -1.2597  0.4412
 4379SOL     MW17516   3.654   3.042   0.438  0.3704 -0.2587  0.2623
 4380SOL     OW17517   0.366   3.161   0.109  0.1769 -0.7065 -0.3368
 4380SOL    HW117518   0.299   3.202   0.162 -0.0044 -1.0250 -0.3174
 4380SOL    HW217519   0.341   3.069   0.105  1.0139 -0.9810  0.2988
 4380SOL     MW17520   0.354   3.155   0.115  0.2608 -0.7824 -0.2529
 4381SOL     OW17521   2.565   3.398   3.190 -0.3612  0.4260  0.8034
 4381SOL    HW117522   2.518   3.431   3.113 -0.4753 -0.3758  0.5139
 4381SOL    HW217523   2.523   3.441   3.264 -0.4271  1.0073  0.4359
 4381SOL     MW17524   2.553   3.408   3.189 -0.3842  0.3978  0.7193
 4382SOL     OW17525   5.358   1.911   2.146 -0.1092  0.3590  0.6847
 4382SOL    HW117526   5.428   1.957   2.100  0.8917 -1.3582  0.3987
 4382SOL    HW217527   5.323   1.975   2.207 -0.3966  2.2408 -1.3068
 4382SOL     MW17528   5.362   1.925   2.148 -0.0179  0.3801  0.3932
 4383SOL     OW17529   5.176   4.847   1.310 -0.2922 -0.5148 -0.0836
 4383SOL    HW117530   5.090   4.886   1.321 -0.7097 -1.6504  0.8948
 4383SOL    HW217531   5.185   4.786   1.383  1.6910  0.1639  0.3275
 4383SOL     MW17532   5.166   4.844   1.320 -0.0917 -0.5733  0.0943
 4384SOL     OW17533   0.365   1.973   3.010  0.7291  0.2194 -0.3878
 4384SOL    HW117534   0.308   2.025   2.953  2.8668  0.5361 -2.3927
 4384SOL    HW217535   0.311   1.955   3.087 -1.2278  2.5537 -1.0655
 4384SOL     MW17536   0.351   1.978   3.012  0.7523  0.5587 -0.7312
 4385SOL     OW17537   3.014   3.876   4.327  0.2358  0.2024 -0.2945
 4385SOL    HW117538   2.976   3.789   4.313  0.0635 -0.1410  1.8640
 4385SOL    HW217539   2.946   3.924   4.375  0.5717  1.3310 -0.9218
 4385SOL     MW17540   3.001   3.871   4.332  0.2568  0.3029 -0.0985
 4386SOL     OW17541   0.033   3.953   4.646  0.1225  0.0525 -0.7691
 4386SOL    HW117542   0.105   3.969   4.584 -0.9326  1.2578 -1.7530
 4386SOL    HW217543   0.015   3.859   4.637  0.9253 -0.0686 -1.2499
 4386SOL     MW17544   0.040   3.943   4.637  0.0902  0.1913 -0.9566
 4387SOL     OW17545   4.869   1.909   0.494 -0.1882  0.3656  0.3210
 4387SOL    HW117546   4.819   1.902   0.413  0.9770  0.1645 -0.3982
 4387SOL    HW217547   4.960   1.900   0.467  0.1374 -2.3923  1.9405
 4387SOL     MW17548   4.874   1.907   0.480  0.0026 -0.0132  0.4363
 4388SOL     OW17549   3.453   5.015   0.680  0.4103  0.0270  0.0827
 4388SOL    HW117550   3.478   5.024   0.772  2.0084 -1.5156 -0.1362
 4388SOL    HW217551   3.535   5.030   0.632 -0.4613  1.0953 -1.1298
 4388SOL     MW17552   3.467   5.018   0.685  0.5033 -0.0337 -0.1005
 4389SOL     OW17553   2.491   1.380   1.443  0.4824 -0.2117  0.1215
 4389SOL    HW117554   2.457   1.303   1.395 -0.2745  0.4021 -0.3549
 4389SOL    HW217555   2.519   1.345   1.527  0.5693 -1.0913 -0.2571
 4389SOL     MW17556   2.490   1.365   1.447  0.3966 -0.2457  0.0120
 4390SOL     OW17557   3.337   1.971   4.160  0.5105 -0.4227 -0.1222
 4390SOL    HW117558   3.389   1.914   4.217 -0.1115 -0.5186  0.3526
 4390SOL    HW217559   3.307   1.913   4.090  1.6793 -0.2039 -0.8494
 4390SOL     MW17560   3.340   1.956   4.158  0.5805 -0.4070 -0.1545
 4391SOL     OW17561   0.886   3.979   2.922  0.0825  0.1325 -0.2062
 4391SOL    HW117562   0.933   4.007   2.843  0.2333 -1.1247 -0.5813
 4391SOL    HW217563   0.955   3.950   2.982 -0.1690 -1.2023 -0.5481
 4391SOL     MW17564   0.901   3.979   2.920  0.0696 -0.1993 -0.2980
 4392SOL     OW17565   3.530   5.215   3.323  0.5643  0.1177  0.2882
 4392SOL    HW117566   3.624   5.230   3.314  0.4220  1.0533  0.2536
 4392SOL    HW217567   3.498   5.290   3.373  0.0189 -0.8137  1.3821
 4392SOL     MW17568   3.538   5.226   3.328  0.4763  0.1182  0.4238
 4393SOL     OW17569   3.820   5.304   3.782  0.3915  0.6377  0.6186
 4393SOL    HW117570   3.861   5.334   3.863  0.5029 -0.7940  1.1138
 4393SOL    HW217571   3.884   5.324   3.714  2.6111 -2.6446  1.5064
 4393SOL     MW17572   3.833   5.311   3.784  0.6899  0.0343  0.7957
 4394SOL     OW17573   4.140   1.051   4.860 -0.2451  0.1690 -0.4686
 4394SOL    HW117574   4.232   1.045   4.836  0.4551 -0.3547  2.1050
 4394SOL    HW217575   4.106   0.962   4.847 -0.0452  0.0540 -0.2176
 4394SOL     MW17576   4.147   1.039   4.855 -0.1299  0.0873 -0.1070
 4395SOL     OW17577   5.184   2.236   3.858 -0.2213 -0.1805  0.1229
 4395SOL    HW117578   5.146   2.166   3.805 -1.3475  1.0560 -0.7950
 4395SOL    HW217579   5.119   2.252   3.927 -0.5166  0.6770 -0.3350
 4395SOL     MW17580   5.171   2.229   3.860 -0.4033  0.0876 -0.0532
 4396SOL     OW17581   5.469   4.310   4.571  0.1185  0.2904  0.1443
 4396SOL    HW117582   5.392   4.252   4.565 -0.8935  1.7249 -1.5940
 4396SOL    HW217583   5.530   4.274   4.506 -0.3505  0.9181 -0.6564
 4396SOL     MW17584   5.467   4.298   4.562 -0.0711  0.5544 -0.1807
 4397SOL     OW17585   4.724   3.188   1.358  0.6324 -0.0495 -0.0221
 4397SOL    HW117586   4.691   3.209   1.271  0.9352  1.0013  0.0980
 4397SOL    HW217587   4.817   3.212   1.355  0.3988  1.1150  0.9119
 4397SOL     MW17588   4.731   3.194   1.347  0.6413  0.2341  0.1128
 4398SOL     OW17589   2.077   5.226   3.626  0.2187 -0.6441 -0.4548
 4398SOL    HW117590   2.003   5.285   3.616 -0.2502 -0.5948  2.5855
 4398SOL    HW217591   2.045   5.141   3.594  0.3237  0.2143 -3.1193
 4398SOL     MW17592   2.064   5.222   3.620  0.1721 -0.5279 -0.4067
 4399SOL     OW17593   2.578   4.594   0.427  0.5696  0.0488  0.0892
 4399SOL    HW117594   2.530   4.544   0.493 -0.5498  1.2590  0.2095
 4399SOL    HW217595   2.651   4.634   0.475 -0.5203  1.3267  0.7162
 4399SOL     MW17596   2.581   4.592   0.441  0.2868  0.3673  0.1848
 4400SOL     OW17597   5.391   1.353   4.084  0.3108 -0.1128 -0.0267
 4400SOL    HW117598   5.467   1.304   4.053 -0.7935 -1.4887 -0.6546
 4400SOL    HW217599   5.411   1.444   4.062  2.3735 -0.2074  1.0989
 4400SOL     MW17600   5.403   1.358   4.078  0.4335 -0.3010  0.0370
 4401SOL     OW17601   4.899   3.201   3.200 -0.1851 -0.2341 -0.1803
 4401SOL    HW117602   4.805   3.216   3.199 -0.4013 -0.9021  2.8093
 4401SOL    HW217603   4.914   3.145   3.123 -1.9843  0.8167 -1.3818
 4401SOL     MW17604   4.889   3.196   3.190 -0.4431 -0.1851  0.0486
 4402SOL     OW17605   5.193   0.895   2.945 -0.5011  0.1586 -0.1061
 4402SOL    HW117606   5.274   0.848   2.926 -0.3186  0.7287 -0.7756
 4402SOL    HW217607   5.154   0.847   3.018  0.5890  0.0499  0.4317
 4402SOL     MW17608   5.198   0.883   2.952 -0.3382  0.2177 -0.1229
 4403SOL     OW17609   4.191   5.147   2.726  0.1342 -0.8444  0.3845
 4403SOL    HW117610   4.176   5.069   2.780  1.3387 -0.9970  0.5277
 4403SOL    HW217611   4.166   5.120   2.638  1.2514 -1.6508  0.2958
 4403SOL     MW17612   4.186   5.133   2.722  0.4314 -0.9671  0.3915
 4404SOL     OW17613   2.844   4.205   1.844  0.2476  0.8881 -0.1654
 4404SOL    HW117614   2.903   4.155   1.901 -0.8912 -0.7619 -0.3770
 4404SOL    HW217615   2.896   4.226   1.767  0.5321 -0.7041 -0.4285
 4404SOL     MW17616   2.858   4.201   1.842  0.1382  0.4730 -0.2261
 4405SOL     OW17617   0.047   4.121   1.459 -0.1610 -0.4437 -0.0977
 4405SOL    HW117618  -0.015   4.056   1.425  0.1666 -1.5762  1.3825
 4405SOL    HW217619   0.007   4.151   1.540 -1.8021  3.4966 -2.0858
 4405SOL     MW17620   0.034   4.116   1.465 -0.3292 -0.0843 -0.1627
 4406SOL     OW17621   3.084   1.804   2.273 -0.0048  0.4217  0.3803
 4406SOL    HW117622   3.102   1.735   2.209 -0.2949  0.0513  0.7007
 4406SOL    HW217623   3.117   1.770   2.356 -1.6905 -0.0560  0.8776
 4406SOL     MW17624   3.091   1.791   2.275 -0.2577  0.3131  0.4850
 4407SOL     OW17625   0.270   0.251   5.078  0.2521  0.4303 -0.5096
 4407SOL    HW117626   0.276   0.220   5.168 -1.6237  1.8154  0.1525
 4407SOL    HW217627   0.192   0.208   5.042  0.3702  0.7073 -1.1237
 4407SOL     MW17628   0.261   0.242   5.085  0.0271  0.6431 -0.5035
 4408SOL     OW17629   3.325   3.875   5.221 -0.0774  0.2575  0.0141
 4408SOL    HW117630   3.303   3.901   5.310 -1.7031 -0.1963 -0.2179
 4408SOL    HW217631   3.341   3.957   5.175  0.0678  0.5321  0.5455
 4408SOL     MW17632   3.324   3.889   5.226 -0.2669  0.2346  0.0524
 4409SOL     OW17633   4.201   3.477   0.984 -0.1091  0.1617 -0.0489
 4409SOL    HW117634   4.163   3.443   1.065 -0.8994  0.0906 -0.4431
 4409SOL    HW217635   4.126   3.510   0.935  0.0176 -2.0115 -1.8489
 4409SOL     MW17636   4.187   3.477   0.988 -0.1941 -0.1256 -0.3298
 4410SOL     OW17637   1.162   0.517   2.074  0.2917  0.6318  0.0340
 4410SOL    HW117638   1.194   0.508   1.984  1.9116  2.4984  0.3577
 4410SOL    HW217639   1.068   0.530   2.064  0.1709 -0.8238 -1.2479
 4410SOL     MW17640   1.154   0.518   2.061  0.4836  0.6845 -0.0886
 4411SOL     OW17641   4.197   1.619   0.732  0.7381  0.1688  0.3241
 4411SOL    HW117642   4.201   1.704   0.774  0.3101  0.6544 -0.5898
 4411SOL    HW217643   4.286   1.603   0.701  0.2610  1.6208 -2.0199
 4411SOL     MW17644   4.209   1.628   0.733  0.6223  0.4168 -0.0929
 4412SOL     OW17645   4.533   0.989   3.124  0.7367  0.1827 -0.4011
 4412SOL    HW117646   4.587   0.968   3.200  0.6276  3.1104  0.6323
 4412SOL    HW217647   4.464   0.923   3.125  1.7197 -0.8865  0.9962
 4412SOL     MW17648   4.531   0.978   3.134  0.8486  0.4206 -0.0899
 4413SOL     OW17649   1.855   1.755   2.705 -0.1477 -0.1452  0.4888
 4413SOL    HW117650   1.820   1.777   2.791  0.7706  1.0706  0.5770
 4413SOL    HW217651   1.913   1.681   2.721 -0.2961 -0.1883  0.8364
 4413SOL     MW17652   1.858   1.748   2.718 -0.0491  0.0049  0.5446
 4414SOL     OW17653   5.211   1.855   0.724 -0.1236  0.3493  0.4130
 4414SOL    HW117654   5.305   1.845   0.736  0.5283  0.9218 -2.9840
 4414SOL    HW217655   5.184   1.775   0.678 -1.0966  0.6100  0.5011
 4414SOL     MW17656   5.220   1.844   0.719 -0.1647  0.4560 -0.0106
 4415SOL     OW17657   1.242   1.320   4.736  0.3511 -0.1077  0.3807
 4415SOL    HW117658   1.160   1.349   4.776  0.1475  0.0106 -0.1051
 4415SOL    HW217659   1.236   1.224   4.734 -0.3841 -0.0608 -0.8643
 4415SOL     MW17660   1.231   1.311   4.741  0.2309 -0.0866  0.1592
 4416SOL     OW17661   0.900   0.550   2.061 -0.6427 -0.5526  1.0697
 4416SOL    HW117662   0.835   0.497   2.015  0.7692 -0.6796 -0.8827
 4416SOL    HW217663   0.875   0.641   2.043 -0.5188 -0.5974  0.6656
 4416SOL     MW17664   0.889   0.555   2.053 -0.4461 -0.5746  0.7681
 4417SOL     OW17665   0.888   3.269   4.111 -0.3794 -0.1895 -0.0721
 4417SOL    HW117666   0.898   3.311   4.197  0.5381  1.5865 -1.0003
 4417SOL    HW217667   0.919   3.179   4.125 -0.2903  0.0402  1.4438
 4417SOL     MW17668   0.893   3.263   4.124 -0.2505  0.0673  0.0031
 4418SOL     OW17669   0.556   5.450   4.992  0.2777  0.2621  0.0676
 4418SOL    HW117670   0.576   5.427   4.902  1.4805 -2.2798  0.8971
 4418SOL    HW217671   0.510   5.374   5.027 -0.3301  1.2641  1.5795
 4418SOL     MW17672   0.553   5.437   4.985  0.3539  0.0650  0.3673
 4419SOL     OW17673   2.750   4.332   3.991 -0.2613 -0.2726  0.5458
 4419SOL    HW117674   2.658   4.306   4.000 -0.6870  0.9177 -0.1791
 4419SOL    HW217675   2.747   4.413   3.940  1.3195 -1.1495 -1.0474
 4419SOL     MW17676   2.738   4.339   3.986 -0.1135 -0.2325  0.2491
 4420SOL     OW17677   3.642   3.265   2.118  0.3667 -0.1415  0.0452
 4420SOL    HW117678   3.607   3.281   2.030  1.1138  0.9432 -0.0801
 4420SOL    HW217679   3.577   3.302   2.177  1.7664  3.0612 -0.2203
 4420SOL     MW17680   3.629   3.272   2.114  0.6415  0.4073 -0.0049
 4421SOL     OW17681   0.572   1.598   3.322  0.1977 -0.4257 -0.1109
 4421SOL    HW117682   0.484   1.579   3.356  0.4889 -0.5370  0.5969
 4421SOL    HW217683   0.569   1.568   3.231 -1.0193  1.1169 -0.6298
 4421SOL     MW17684   0.560   1.592   3.315  0.0792 -0.2425 -0.0867
 4422SOL     OW17685   3.950   5.118   3.235  0.9265  0.1844 -0.3003
 4422SOL    HW117686   3.971   5.025   3.246  0.1327  0.2532  2.6299
 4422SOL    HW217687   3.922   5.125   3.143  2.4063 -2.1306 -1.0303
 4422SOL     MW17688   3.949   5.107   3.224  1.0143 -0.1032 -0.0187
 4423SOL     OW17689   4.973   3.509   4.048 -0.1651  0.1537 -0.5224
 4423SOL    HW117690   4.947   3.587   4.097 -0.1909 -0.5035  0.5270
 4423SOL    HW217691   4.891   3.477   4.010 -0.2905  0.1632 -0.2620
 4423SOL     MW17692   4.959   3.515   4.049 -0.1844  0.0708 -0.3547
 4424SOL     OW17693   0.303   3.218   5.333 -0.5182  0.1958 -0.4706
 4424SOL    HW117694   0.317   3.193   5.424 -1.3467 -0.9727 -0.6370
 4424SOL    HW217695   0.291   3.313   5.336 -3.1757 -0.0671  1.0561
 4424SOL     MW17696   0.303   3.227   5.345 -0.9645  0.0126 -0.2964
 4425SOL     OW17697   1.224   4.594   1.117  0.3745 -0.5164  0.1831
 4425SOL    HW117698   1.237   4.611   1.210  0.2923  0.6794 -0.0076
 4425SOL    HW217699   1.312   4.599   1.079  0.0858  2.8278 -0.3604
 4425SOL     MW17700   1.237   4.597   1.124  0.3270  0.0648  0.0891
 4426SOL     OW17701   2.331   4.266   2.653  0.8121 -0.1401  0.1994
 4426SOL    HW117702   2.351   4.175   2.632 -2.0939 -0.5206 -1.4969
 4426SOL    HW217703   2.314   4.308   2.568  1.6287  1.8907  0.9704
 4426SOL     MW17704   2.331   4.260   2.640  0.5446  0.0712  0.0810
 4427SOL     OW17705   0.911   1.088   1.489  0.3697 -0.0614 -0.0022
 4427SOL    HW117706   0.839   1.062   1.431  0.1518 -1.3985  0.8208
 4427SOL    HW217707   0.981   1.116   1.430  0.3216 -1.8122 -0.9508
 4427SOL     MW17708   0.911   1.089   1.474  0.3357 -0.4567 -0.0183
 4428SOL     OW17709   0.708   1.552   4.043  0.2285  0.0890  0.0651
 4428SOL    HW117710   0.625   1.503   4.044  0.5300 -0.4294  1.9080
 4428SOL    HW217711   0.716   1.588   4.131  1.7791  0.4684 -0.2116
 4428SOL     MW17712   0.698   1.550   4.054  0.4656  0.0712  0.2656
 4429SOL     OW17713   0.579   2.268   0.599  0.1568  0.1400 -0.3383
 4429SOL    HW117714   0.582   2.334   0.530  2.2426  0.8011  0.2865
 4429SOL    HW217715   0.499   2.286   0.647  0.1744  1.5864 -0.8041
 4429SOL     MW17716   0.569   2.278   0.596  0.4261  0.4097 -0.3179
 4430SOL     OW17717   3.426   0.297   5.413 -0.0297 -0.0206  0.1086
 4430SOL    HW117718   3.521   0.307   5.413 -0.0375  0.4853 -1.8869
 4430SOL    HW217719   3.408   0.237   5.485  1.8314 -0.4357  0.2749
 4430SOL     MW17720   3.436   0.290   5.422  0.2076 -0.0090 -0.1255
 4431SOL     OW17721   4.162   1.647   3.239  0.0200 -0.1067  0.2928
 4431SOL    HW117722   4.200   1.731   3.262  0.2672 -0.3610  0.8165
 4431SOL    HW217723   4.161   1.597   3.320 -1.0436 -0.2592  0.2107
 4431SOL     MW17724   4.167   1.651   3.252 -0.0845 -0.1588  0.3493
 4432SOL     OW17725   1.723   5.344   1.848 -0.2509 -0.2524 -0.2444
 4432SOL    HW117726   1.771   5.261   1.859 -1.1170 -0.8189 -0.6321
 4432SOL    HW217727   1.762   5.403   1.912 -0.1418 -1.2084  0.5888
 4432SOL     MW17728   1.734   5.341   1.858 -0.3478 -0.4473 -0.1874
 4433SOL     OW17729   4.195   0.872   0.219 -0.1256 -0.3546  0.6920
 4433SOL    HW117730   4.287   0.853   0.234  0.7684  1.8891 -1.3222
 4433SOL    HW217731   4.171   0.932   0.290  0.3933  0.2008  0.4005
 4433SOL     MW17732   4.204   0.877   0.230  0.0553  0.0037  0.3968
 4434SOL     OW17733   0.592   2.738   2.294 -0.1781 -0.5645  0.0883
 4434SOL    HW117734   0.591   2.811   2.233 -0.4660  0.4805  1.3006
 4434SOL    HW217735   0.581   2.660   2.239 -1.9221  0.4306 -1.0647
 4434SOL     MW17736   0.590   2.737   2.279 -0.4382 -0.3033  0.0959
 4435SOL     OW17737   0.873   4.375   4.408 -0.3065 -0.5589  0.0163
 4435SOL    HW117738   0.964   4.363   4.434  0.4688  3.1119 -0.4719
 4435SOL    HW217739   0.824   4.317   4.466  2.3004 -3.0782 -0.0947
 4435SOL     MW17740   0.878   4.366   4.419  0.1265 -0.4115 -0.0604
 4436SOL     OW17741   1.225   4.495   4.241  0.3249 -0.4292 -0.0643
 4436SOL    HW117742   1.199   4.580   4.277  0.5050 -1.1387  1.8506
 4436SOL    HW217743   1.308   4.475   4.285  0.3694 -1.5262 -0.6189
 4436SOL     MW17744   1.233   4.503   4.252  0.3536 -0.6604  0.1098
 4437SOL     OW17745   3.283   5.289   2.246 -0.3499 -0.2720  0.1184
 4437SOL    HW117746   3.211   5.336   2.288 -1.6820 -1.4144 -0.7952
 4437SOL    HW217747   3.265   5.297   2.152  1.6609  0.8305 -0.2315
 4437SOL     MW17748   3.271   5.296   2.239 -0.2630 -0.2771 -0.0433
 4438SOL     OW17749   4.556   2.122   4.508  0.1357  0.3696  0.3743
 4438SOL    HW117750   4.611   2.187   4.553  0.6506  1.8065 -2.1665
 4438SOL    HW217751   4.617   2.052   4.483  0.3513  0.7996 -0.3162
 4438SOL     MW17752   4.571   2.121   4.511  0.2292  0.6086 -0.0393
 4439SOL     OW17753   3.104   1.091   4.305 -0.7412  0.1441  0.0918
 4439SOL    HW117754   3.160   1.043   4.366 -0.1559 -0.3491 -0.8016
 4439SOL    HW217755   3.078   1.170   4.352 -1.2768 -0.7848  1.4000
 4439SOL     MW17756   3.108   1.095   4.318 -0.7348 -0.0379  0.1449
 4440SOL     OW17757   1.749   2.075   2.209 -0.5231 -0.5484  0.6003
 4440SOL    HW117758   1.802   2.139   2.161  0.3282  0.3553  2.6358
 4440SOL    HW217759   1.679   2.127   2.249 -0.1677 -0.9634  1.7974
 4440SOL     MW17760   1.747   2.090   2.208 -0.3686 -0.4859  1.0141
 4441SOL     OW17761   0.732   1.986   4.836  0.0946  0.8139 -0.0927
 4441SOL    HW117762   0.760   2.036   4.759 -0.2764  1.3783  0.1290
 4441SOL    HW217763   0.803   1.924   4.852  0.0996  0.5650 -0.9950
 4441SOL     MW17764   0.745   1.985   4.828  0.0478  0.8543 -0.1798
 4442SOL     OW17765   5.075   4.850   1.736  0.2716 -0.5952  0.1492
 4442SOL    HW117766   5.088   4.866   1.829 -0.2801  1.2310 -0.0336
 4442SOL    HW217767   5.150   4.892   1.694  0.8586 -1.9704 -0.2150
 4442SOL     MW17768   5.086   4.857   1.742  0.2761 -0.5375  0.0792
 4443SOL     OW17769   1.903   0.514   5.002  0.2874 -0.0875  0.2610
 4443SOL    HW117770   1.908   0.609   4.993  1.0838 -0.2443 -1.3385
 4443SOL    HW217771   1.958   0.481   4.931 -0.1441 -1.7447  0.6688
 4443SOL     MW17772   1.911   0.522   4.992  0.3341 -0.3197  0.1085
 4444SOL     OW17773   4.463   4.794   1.793  0.0277 -1.0201 -0.5038
 4444SOL    HW117774   4.547   4.802   1.748  0.0351 -0.8928 -0.4680
 4444SOL    HW217775   4.485   4.788   1.886 -0.0810  0.9202 -0.3209
 4444SOL     MW17776   4.476   4.794   1.799  0.0147 -0.7554 -0.4758
 4445SOL     OW17777   2.622   2.600   5.222  0.3007  0.1659  0.2885
 4445SOL    HW117778   2.591   2.523   5.175  1.4337  0.3484 -0.8182
 4445SOL    HW217779   2.594   2.586   5.312  0.8632 -1.7483  0.2123
 4445SOL     MW17780   2.614   2.588   5.227  0.5178 -0.0558  0.1371
 4446SOL     OW17781   3.518   1.417   4.634  0.2135  0.6041  0.0003
 4446SOL    HW117782   3.534   1.505   4.669  0.5589  0.7243 -0.4510
 4446SOL    HW217783   3.551   1.420   4.545 -1.9547  0.7400 -0.8627
 4446SOL     MW17784   3.524   1.429   4.627 -0.0199  0.6369 -0.1679
 4447SOL     OW17785   4.064   3.073   2.460  0.3570 -0.2853  0.4265
 4447SOL    HW117786   3.983   3.022   2.457  0.3040 -0.1777 -0.1802
 4447SOL    HW217787   4.036   3.163   2.450  0.4196 -0.0906  1.8681
 4447SOL     MW17788   4.050   3.078   2.458  0.3582 -0.2466  0.5334
 4448SOL     OW17789   1.522   5.270   1.223  0.5739  0.2475 -0.1918
 4448SOL    HW117790   1.489   5.184   1.197  0.8323 -0.0952  0.6190
 4448SOL    HW217791   1.615   5.256   1.241  0.5328  0.6165  0.3108
 4448SOL     MW17792   1.529   5.257   1.222  0.6017  0.2508 -0.0237
 4449SOL     OW17793   5.274   3.447   0.312  0.3728  0.3427 -0.0822
 4449SOL    HW117794   5.295   3.445   0.219  2.0660  2.1798  0.2122
 4449SOL    HW217795   5.252   3.356   0.333 -0.8316  0.0375 -2.4109
 4449SOL     MW17796   5.274   3.435   0.303  0.4354  0.5388 -0.3426
 4450SOL     OW17797   3.993   1.044   2.720  0.5418  0.1005 -0.0903
 4450SOL    HW117798   4.070   1.099   2.703  0.7612 -0.3741 -0.6721
 4450SOL    HW217799   4.015   0.997   2.800  0.9312 -0.1599 -0.3487
 4450SOL     MW17800   4.006   1.045   2.728  0.6197  0.0064 -0.1978
 4451SOL     OW17801   0.091   5.176   5.379 -0.1402  0.7371  0.1372
 4451SOL    HW117802   0.109   5.242   5.445  0.5766 -0.4957  1.2267
 4451SOL    HW217803   0.137   5.098   5.410 -1.0148 -0.2967 -1.0632
 4451SOL     MW17804   0.099   5.174   5.391 -0.1604  0.4469  0.1230
 4452SOL     OW17805   0.386   1.493   1.244 -0.0178  0.0732  0.2440
 4452SOL    HW117806   0.350   1.569   1.198 -1.5315 -1.4756 -1.2692
 4452SOL    HW217807   0.453   1.460   1.185  0.1984 -0.1369  0.6079
 4452SOL     MW17808   0.390   1.499   1.231 -0.1839 -0.1519  0.0968
 4453SOL     OW17809   4.307   2.926   0.938  0.2094  0.4622  0.0471
 4453SOL    HW117810   4.392   2.920   0.894 -0.8254 -3.9721 -1.8599
 4453SOL    HW217811   4.320   2.886   1.023 -0.1769 -1.5528 -0.7990
 4453SOL     MW17812   4.319   2.920   0.943  0.0275 -0.3634 -0.3054
 4454SOL     OW17813   1.479   0.285   4.098  0.2799 -0.5014  0.4759
 4454SOL    HW117814   1.404   0.332   4.062  1.0641  1.0808  0.7952
 4454SOL    HW217815   1.471   0.196   4.064 -0.8534  0.0613 -0.8081
 4454SOL     MW17816   1.469   0.279   4.089  0.2352 -0.2268  0.3524
 4455SOL     OW17817   4.005   2.831   3.266 -0.2609  0.6482 -0.1962
 4455SOL    HW117818   4.004   2.776   3.188 -2.0374  0.3124  0.0214
 4455SOL    HW217819   4.029   2.772   3.337  0.7310  0.8183 -0.3744
 4455SOL     MW17820   4.008   2.817   3.265 -0.3614  0.6270 -0.1911
 4456SOL     OW17821   5.275   1.420   3.066 -0.3882 -0.4233 -0.1103
 4456SOL    HW117822   5.349   1.368   3.037  1.2947  0.7911  1.7628
 4456SOL    HW217823   5.281   1.502   3.017 -0.2620 -0.1696  0.3263
 4456SOL     MW17824   5.285   1.424   3.056 -0.1567 -0.2354  0.1854
 4457SOL     OW17825   1.706   0.188   0.436 -0.5167 -0.6265  0.3609
 4457SOL    HW117826   1.683   0.156   0.523  0.9550 -0.2427  0.9208
 4457SOL    HW217827   1.691   0.283   0.440 -1.6821 -0.7790 -0.2250
 4457SOL     MW17828   1.701   0.196   0.447 -0.4775 -0.5969  0.3576
 4458SOL     OW17829   0.924   4.249   3.016 -0.3537  0.0145 -0.0381
 4458SOL    HW117830   0.995   4.281   2.960 -0.5405 -0.8569 -0.7872
 4458SOL    HW217831   0.919   4.155   2.997 -1.5385  0.0212  0.2050
 4458SOL     MW17832   0.933   4.241   3.007 -0.5292 -0.0962 -0.1029
 4459SOL     OW17833   4.237   1.156   1.173  0.3292 -0.4375 -0.3752
 4459SOL    HW117834   4.209   1.244   1.197  0.5652 -0.3931 -0.2613
 4459SOL    HW217835   4.174   1.098   1.216 -0.8273 -0.2875 -1.7766
 4459SOL     MW17836   4.225   1.160   1.182  0.2114 -0.4126 -0.5400
 4460SOL     OW17837   3.162   3.160   5.123  0.1326  0.5368  0.3161
 4460SOL    HW117838   3.160   3.079   5.174 -2.3330 -0.3511 -1.0336
 4460SOL    HW217839   3.244   3.155   5.074  1.3717  0.2579  2.2746
 4460SOL     MW17840   3.172   3.149   5.123 -0.0244  0.3874  0.3941
 4461SOL     OW17841   3.856   4.153   1.116  0.1778  0.0844  0.7444
 4461SOL    HW117842   3.940   4.157   1.163 -0.3884 -1.0926  1.9275
 4461SOL    HW217843   3.827   4.244   1.113  1.1598  0.4197  0.9555
 4461SOL     MW17844   3.863   4.165   1.122  0.2310 -0.0234  0.9229
 4462SOL     OW17845   4.559   3.259   1.131 -0.1919  0.2590 -0.1369
 4462SOL    HW117846   4.483   3.210   1.101 -0.3200  0.0546  0.5065
 4462SOL    HW217847   4.609   3.277   1.052 -0.5315 -0.2530 -0.4713
 4462SOL     MW17848   4.556   3.255   1.117 -0.2517  0.1673 -0.0973
 4463SOL     OW17849   4.267   3.945   3.213 -0.2146 -0.5552 -0.1354
 4463SOL    HW117850   4.264   3.946   3.309  2.0063 -0.4742 -0.0066
 4463SOL    HW217851   4.351   3.905   3.193  0.3796  1.4428 -2.0134
 4463SOL     MW17852   4.277   3.940   3.223  0.1457 -0.2891 -0.3593
 4464SOL     OW17853   3.245   1.146   4.093 -0.1209 -0.0075 -0.5585
 4464SOL    HW117854   3.195   1.122   4.171  0.8298  1.6113  0.6104
 4464SOL    HW217855   3.223   1.238   4.077  2.2333  0.7283 -0.0909
 4464SOL     MW17856   3.236   1.155   4.101  0.3022  0.2939 -0.3490
 4465SOL     OW17857   3.804   3.126   1.424  0.2335  0.1865  0.3071
 4465SOL    HW117858   3.789   3.121   1.518  1.5623 -1.1853  0.4980
 4465SOL    HW217859   3.899   3.130   1.415  0.1002  1.7076 -0.9610
 4465SOL     MW17860   3.814   3.126   1.435  0.3866  0.2056  0.1692
 4466SOL     OW17861   0.361   2.362   3.211  0.5473  0.4237  0.4688
 4466SOL    HW117862   0.389   2.362   3.303  0.5966  0.7953  0.4578
 4466SOL    HW217863   0.292   2.297   3.207  1.5896 -0.7144  0.4447
 4466SOL     MW17864   0.356   2.354   3.223  0.6870  0.3256  0.4643
 4467SOL     OW17865   3.740   3.762   0.041  0.5055 -0.0031  0.2576
 4467SOL    HW117866   3.739   3.847  -0.004 -0.9587 -0.2078 -0.1428
 4467SOL    HW217867   3.649   3.735   0.043  0.9772 -1.6995  0.1656
 4467SOL     MW17868   3.728   3.769   0.035  0.3784 -0.2464  0.1945
 4468SOL     OW17869   5.469   4.158   1.751  0.5850  0.1062  0.4960
 4468SOL    HW117870   5.400   4.113   1.801  0.0794  0.3117 -0.0130
 4468SOL    HW217871   5.428   4.240   1.723  1.1913  0.4423  0.5891
 4468SOL     MW17872   5.455   4.163   1.754  0.5979  0.1756  0.4428
 4469SOL     OW17873   2.493   0.553   3.246  0.0361  0.1101  0.2503
 4469SOL    HW117874   2.444   0.620   3.199 -0.0096 -0.2795 -0.2610
 4469SOL    HW217875   2.549   0.512   3.180  0.5856  0.1124  0.6955
 4469SOL     MW17876   2.494   0.556   3.232  0.1006  0.0605  0.2419
 4470SOL     OW17877   4.612   5.245   1.341  0.3765  0.3574  0.0433
 4470SOL    HW117878   4.517   5.249   1.355  0.5691  0.7023  1.3781
 4470SOL    HW217879   4.645   5.328   1.374  1.1298  0.3384 -0.6265
 4470SOL     MW17880   4.604   5.256   1.347  0.4976  0.3991  0.1284
 4471SOL     OW17881   0.573   2.899   2.067 -0.2098  0.3501  0.0487
 4471SOL    HW117882   0.552   2.831   2.003 -1.1519 -0.0952  0.8095
 4471SOL    HW217883   0.669   2.904   2.067 -0.0207 -2.0948  1.0909
 4471SOL     MW17884   0.583   2.891   2.059 -0.3062 -0.0199  0.2795
 4472SOL     OW17885   1.780   0.783   5.111  0.4430  0.0912 -0.1804
 4472SOL    HW117886   1.819   0.747   5.191  0.6209  0.3721 -0.1401
 4472SOL    HW217887   1.710   0.722   5.089 -0.1208  0.4275  0.6326
 4472SOL     MW17888   1.776   0.771   5.119  0.3936  0.1702 -0.0711
 4473SOL     OW17889   0.581   3.276   2.186 -0.3436  0.3857  0.9991
 4473SOL    HW117890   0.620   3.362   2.170  0.7843 -0.2255  0.3220
 4473SOL    HW217891   0.578   3.235   2.100 -2.1168  0.2238  1.0928
 4473SOL     MW17892   0.585   3.282   2.173 -0.4262  0.2867  0.9244
 4474SOL     OW17893   5.390   4.736   3.747 -0.8393 -0.7164  0.0249
 4474SOL    HW117894   5.470   4.787   3.764 -1.7655  1.1205 -0.9077
 4474SOL    HW217895   5.391   4.668   3.815  0.3742  0.6345  1.4538
 4474SOL     MW17896   5.401   4.734   3.758 -0.8025 -0.3084  0.0884
 4475SOL     OW17897   4.837   5.347   5.114 -0.0812  0.3797 -0.5864
 4475SOL    HW117898   4.873   5.260   5.127  0.3879  0.5349 -0.8388
 4475SOL    HW217899   4.749   5.342   5.153  0.3273  0.1096  0.3202
 4475SOL     MW17900   4.830   5.335   5.120  0.0311  0.3650 -0.5026
 4476SOL     OW17901   4.903   5.268   3.444 -0.1401 -0.0535  0.3710
 4476SOL    HW117902   4.957   5.259   3.365  0.5733  0.4834  0.7847
 4476SOL    HW217903   4.922   5.356   3.476  1.0038 -0.8903  2.1614
 4476SOL     MW17904   4.912   5.278   3.438  0.0977 -0.0919  0.6532
 4477SOL     OW17905   4.381   4.841   4.474  0.7346 -0.3097 -0.3074
 4477SOL    HW117906   4.404   4.836   4.567  1.9213 -1.2944 -0.6233
 4477SOL    HW217907   4.463   4.822   4.428  1.1587  3.8433 -1.6760
 4477SOL     MW17908   4.395   4.838   4.480  0.9408  0.0959 -0.5230
 4478SOL     OW17909   0.361   1.208   1.080  0.2405  0.0954  0.2953
 4478SOL    HW117910   0.443   1.256   1.087  0.4705 -0.2915  0.2843
 4478SOL    HW217911   0.337   1.216   0.987  0.8643 -0.7570  0.0500
 4478SOL     MW17912   0.368   1.215   1.069  0.3498 -0.0633  0.2625
 4479SOL     OW17913   3.620   2.640   4.824  0.4779 -0.0199  0.1096
 4479SOL    HW117914   3.673   2.560   4.833  1.2864  0.4757 -0.0904
 4479SOL    HW217915   3.578   2.650   4.909 -0.0908 -0.9669 -0.0427
 4479SOL     MW17916   3.622   2.631   4.836  0.5086 -0.0777  0.0645
 4480SOL     OW17917   1.500   2.328   0.545 -0.4419 -0.0929 -0.1729
 4480SOL    HW117918   1.538   2.359   0.463  1.8536  0.7377  1.1104
 4480SOL    HW217919   1.527   2.237   0.551  2.3591  0.6908  1.1138
 4480SOL     MW17920   1.509   2.321   0.535  0.2105  0.1137  0.1561
 4481SOL     OW17921   3.023   0.872   5.171  0.4128 -0.0268 -0.2961
 4481SOL    HW117922   3.037   0.939   5.104  0.8023  0.5099  0.3044
 4481SOL    HW217923   2.950   0.905   5.224  0.6388 -0.0399  0.0333
 4481SOL     MW17924   3.016   0.885   5.170  0.4916  0.0402 -0.1771
 4482SOL     OW17925   4.568   4.798   4.290  0.3285 -0.1493 -0.7087
 4482SOL    HW117926   4.648   4.748   4.273 -0.6133 -1.0223 -2.9869
 4482SOL    HW217927   4.596   4.889   4.292  1.5847 -0.5346  0.0909
 4482SOL     MW17928   4.581   4.803   4.288  0.3688 -0.3104 -0.8980
 4483SOL     OW17929   2.217   3.952   4.533  0.2065 -0.2056  0.4442
 4483SOL    HW117930   2.263   4.030   4.504 -0.1455 -0.0731  0.2319
 4483SOL    HW217931   2.175   3.977   4.615  0.6034 -0.3615  0.6979
 4483SOL     MW17932   2.217   3.965   4.540  0.2122 -0.2086  0.4495
 4484SOL     OW17933   0.468   1.763   4.415 -0.3377  0.7161 -0.5125
 4484SOL    HW117934   0.476   1.715   4.498 -0.7046 -1.1407 -1.4966
 4484SOL    HW217935   0.387   1.813   4.425  0.5915  2.0079  0.9431
 4484SOL     MW17936   0.458   1.763   4.427 -0.2657  0.6438 -0.4521
 4485SOL     OW17937   4.919   3.245   3.856  0.5896  0.0366  0.3347
 4485SOL    HW117938   4.940   3.202   3.773  0.3898  0.9811 -0.2281
 4485SOL    HW217939   5.003   3.255   3.901  0.5644 -1.5134  0.7902
 4485SOL     MW17940   4.932   3.241   3.851  0.5608 -0.0409  0.3210
 4486SOL     OW17941   4.021   3.602   4.553 -0.1158 -0.6484  0.5689
 4486SOL    HW117942   3.947   3.647   4.511 -1.4185 -3.0453  0.1063
 4486SOL    HW217943   4.015   3.626   4.645  1.0336  2.3826 -0.0223
 4486SOL     MW17944   4.011   3.611   4.559 -0.1355 -0.5672  0.4340
 4487SOL     OW17945   0.027   4.277   0.031  0.6723 -0.5614  0.1384
 4487SOL    HW117946  -0.038   4.209   0.049  0.4287 -0.3828 -0.0504
 4487SOL    HW217947   0.100   4.231  -0.009  0.9017 -0.8500  0.8734
 4487SOL     MW17948   0.028   4.263   0.028  0.6705 -0.5755  0.2083
 4488SOL     OW17949   1.597   2.183   3.835 -0.1810 -0.0247  0.0763
 4488SOL    HW117950   1.689   2.160   3.849  0.1556  1.0930 -0.1556
 4488SOL    HW217951   1.601   2.271   3.798 -1.2166 -1.0110 -2.6014
 4488SOL     MW17952   1.610   2.191   3.832 -0.2705 -0.0079 -0.2961
 4489SOL     OW17953   0.155   4.681   1.629 -0.0044  0.6013  0.4544
 4489SOL    HW117954   0.109   4.623   1.568  0.2402  1.8913 -1.0213
 4489SOL    HW217955   0.211   4.735   1.573  1.0641  1.1019  1.9376
 4489SOL     MW17956   0.157   4.681   1.614  0.1637  0.8305  0.4554
 4490SOL     OW17957   2.840   1.089   2.063 -0.0449 -0.2633 -0.2440
 4490SOL    HW117958   2.925   1.055   2.036 -0.2565 -0.3542 -0.8058
 4490SOL    HW217959   2.812   1.145   1.990  0.5670  1.6334  0.8904
 4490SOL     MW17960   2.847   1.092   2.050  0.0063 -0.0322 -0.1707
 4491SOL     OW17961   2.049   0.143   3.412  0.3506 -0.1818  0.2764
 4491SOL    HW117962   1.975   0.130   3.354 -0.9530 -0.5378  1.9526
 4491SOL    HW217963   2.097   0.060   3.410  0.2501 -0.2283 -0.1841
 4491SOL     MW17964   2.046   0.131   3.404  0.1708 -0.2333  0.4320
 4492SOL     OW17965   1.233   0.213   2.767 -0.4318 -0.1298  0.8591
 4492SOL    HW117966   1.193   0.297   2.744  1.8832  1.4223  2.1010
 4492SOL    HW217967   1.189   0.149   2.711 -2.7666  1.7787  0.3564
 4492SOL     MW17968   1.222   0.216   2.757 -0.4343  0.3132  0.9538
 4493SOL     OW17969   1.858   2.628   4.952 -0.8387 -0.2955  0.4636
 4493SOL    HW117970   1.791   2.654   5.015 -1.3131 -0.4870  0.0425
 4493SOL    HW217971   1.892   2.711   4.917 -0.9331 -0.2027  0.5922
 4493SOL     MW17972   1.854   2.642   4.956 -0.9115 -0.3081  0.4262
 4494SOL     OW17973   4.646   4.996   4.877  0.0570 -0.2050  0.1860
 4494SOL    HW117974   4.705   4.947   4.820 -0.8801 -0.8078 -0.3011
 4494SOL    HW217975   4.559   4.962   4.857 -0.5149  0.9325  0.5964
 4494SOL     MW17976   4.642   4.986   4.867 -0.1362 -0.1365  0.1762
 4495SOL     OW17977   0.185   0.283   4.075 -0.0462 -0.0207  0.4252
 4495SOL    HW117978   0.208   0.245   3.990  0.8652  0.4295  0.4649
 4495SOL    HW217979   0.264   0.329   4.104 -0.0813 -0.7953  1.8716
 4495SOL     MW17980   0.198   0.284   4.068  0.0660 -0.0622  0.6154
 4496SOL     OW17981   0.764   1.136   3.860 -0.2475 -0.4385 -0.6008
 4496SOL    HW117982   0.738   1.127   3.769  0.6283 -1.0057 -0.8060
 4496SOL    HW217983   0.794   1.049   3.885  1.9190  0.2761 -0.5384
 4496SOL     MW17984   0.765   1.124   3.852  0.1419 -0.4196 -0.6191
 4497SOL     OW17985   0.509   2.443   0.405  0.3719  0.2582 -0.0267
 4497SOL    HW117986   0.423   2.466   0.440  0.2276  0.1963 -0.3377
 4497SOL    HW217987   0.493   2.421   0.313  0.6549 -0.1482  0.0181
 4497SOL     MW17988   0.496   2.443   0.398  0.3896  0.1982 -0.0608
 4498SOL     OW17989   3.247   0.921   3.564  0.1928  0.3642 -0.3111
 4498SOL    HW117990   3.302   0.849   3.532 -2.9268 -1.1366 -3.0001
 4498SOL    HW217991   3.174   0.877   3.608  0.8917  2.2555  3.0729
 4498SOL     MW17992   3.245   0.906   3.565 -0.1171  0.4142 -0.2221
 4499SOL     OW17993   0.020   2.586   5.158  0.3150  0.1729  0.0395
 4499SOL    HW117994   0.054   2.663   5.204  0.9055  0.3108 -0.6075
 4499SOL    HW217995  -0.075   2.600   5.155  0.4515  1.1035 -0.4494
 4499SOL     MW17996   0.012   2.598   5.163  0.4081  0.3097 -0.1059
 4500SOL     OW17997   0.109   3.101   4.430 -0.5706 -0.0949  0.0602
 4500SOL    HW117998   0.090   3.180   4.379  0.6123  0.6092  0.6598
 4500SOL    HW217999   0.043   3.038   4.402  1.0138 -0.3368 -3.6051
 4500SOL     MW18000   0.098   3.103   4.420 -0.2163 -0.0358 -0.3322
 4501SOL     OW18001   5.317   3.639   5.374 -0.4618 -0.3004  0.5218
 4501SOL    HW118002   5.295   3.707   5.438  1.5742  1.7826 -0.8488
 4501SOL    HW218003   5.319   3.685   5.290  0.2844 -2.2274 -0.5782
 4501SOL     MW18004   5.314   3.653   5.371 -0.1056 -0.2804  0.2055
 4502SOL     OW18005   4.305   5.168   5.354  0.6679 -0.7502 -0.2765
 4502SOL    HW118006   4.354   5.097   5.313  2.1767  0.5065 -0.7622
 4502SOL    HW218007   4.350   5.248   5.327 -0.7655  0.3950  0.5152
 4502SOL     MW18008   4.317   5.170   5.346  0.6776 -0.4427 -0.2373
 4503SOL     OW18009   4.180   4.832   5.340  0.1242 -0.4843 -0.2268
 4503SOL    HW118010   4.096   4.864   5.373  1.5142  1.0460  2.0803
 4503SOL    HW218011   4.199   4.755   5.394  1.5685  0.9853  1.5120
 4503SOL     MW18012   4.172   4.826   5.351  0.4870 -0.1003  0.2911
 4504SOL     OW18013   0.369   1.107   5.410 -0.3075  0.4629  0.2800
 4504SOL    HW118014   0.448   1.084   5.457 -0.0596 -1.4311 -0.9358
 4504SOL    HW218015   0.357   1.201   5.427  1.7150  0.6220  1.1389
 4504SOL     MW18016   0.377   1.116   5.418 -0.0169  0.2408  0.2343
 4505SOL     OW18017   1.542   2.340   4.237  0.1928 -0.2736  0.4728
 4505SOL    HW118018   1.634   2.349   4.263  0.0271 -1.8399  1.7657
 4505SOL    HW218019   1.540   2.261   4.182 -0.4821 -0.7667  1.1700
 4505SOL     MW18020   1.553   2.331   4.234  0.0852 -0.5372  0.7276
 4506SOL     OW18021   3.326   1.371   2.530  0.1595  0.2680  0.1532
 4506SOL    HW118022   3.329   1.412   2.443 -0.5013 -0.7202 -0.3485
 4506SOL    HW218023   3.414   1.383   2.565  0.4229  0.7209 -0.6301
 4506SOL     MW18024   3.338   1.378   2.523  0.1086  0.1995 -0.0113
 4507SOL     OW18025   1.419   1.332   2.692  0.2324  0.2136  0.0708
 4507SOL    HW118026   1.414   1.414   2.742  1.9022 -0.3775  1.3351
 4507SOL    HW218027   1.414   1.359   2.601 -0.7546  1.5666  0.4952
 4507SOL     MW18028   1.418   1.346   2.687  0.3198  0.3111  0.2870
 4508SOL     OW18029   1.020  -0.017   3.467 -0.5935  0.9041 -0.0879
 4508SOL    HW118030   1.087   0.013   3.406 -0.3004 -0.2277 -0.3490
 4508SOL    HW218031   1.015   0.051   3.534  1.4854  0.5857  0.4493
 4508SOL     MW18032   1.028  -0.005   3.468 -0.2899  0.7185 -0.0525
 4509SOL     OW18033   3.821   0.914   3.908 -0.2841 -0.6533  0.1439
 4509SOL    HW118034   3.776   0.925   3.992 -0.2206  0.2477  0.0712
 4509SOL    HW218035   3.779   0.838   3.868 -0.9420 -0.5377  0.5908
 4509SOL     MW18036   3.810   0.906   3.914 -0.3602 -0.5232  0.1918
 4510SOL     OW18037   0.433   3.997   0.002  0.1425 -0.2020 -0.6629
 4510SOL    HW118038   0.509   3.955  -0.039 -0.0147 -0.3438 -0.8133
 4510SOL    HW218039   0.404   3.935   0.069  1.6120  0.8904  1.0777
 4510SOL     MW18040   0.439   3.984   0.005  0.3105 -0.0803 -0.4593
 4511SOL     OW18041   2.984   3.150   2.550  0.6281  0.3116  0.0610
 4511SOL    HW118042   2.921   3.078   2.558 -0.1131  0.7628 -1.4505
 4511SOL    HW218043   3.057   3.124   2.606 -0.6027 -0.5324  1.3432
 4511SOL     MW18044   2.985   3.137   2.558  0.3757  0.2613  0.0317
 4512SOL     OW18045   5.051   4.229   2.228 -0.4413 -0.1029  1.6261
 4512SOL    HW118046   5.068   4.320   2.255  1.2318 -0.0399  0.4533
 4512SOL    HW218047   5.047   4.180   2.310 -1.4209  1.0024  2.2814
 4512SOL     MW18048   5.052   4.235   2.242 -0.3525  0.0466  1.5598
 4513SOL     OW18049   1.472   3.263   3.930 -0.1477  0.4202 -0.4283
 4513SOL    HW118050   1.562   3.260   3.896  0.7590 -0.3439  1.8373
 4513SOL    HW218051   1.417   3.250   3.853  1.6681  0.7619 -1.8670
 4513SOL     MW18052   1.477   3.261   3.916  0.2008  0.3661 -0.3225
 4514SOL     OW18053   0.884   3.070   1.408 -0.8269 -0.4373  0.5205
 4514SOL    HW118054   0.855   3.037   1.323  1.2328 -0.4514 -0.2090
 4514SOL    HW218055   0.923   3.155   1.390  0.1562 -0.6930  1.3599
 4514SOL     MW18056   0.885   3.077   1.395 -0.4374 -0.4718  0.5346
 4515SOL     OW18057   4.267   2.951   2.311 -0.2586  0.0889 -0.2498
 4515SOL    HW118058   4.227   2.866   2.290 -1.4442  0.4558  0.4066
 4515SOL    HW218059   4.194   3.004   2.342  0.4303  1.4378 -0.8658
 4515SOL     MW18060   4.252   2.947   2.312 -0.3222  0.3085 -0.2446
 4516SOL     OW18061   4.433   2.953   1.760 -0.1001 -0.0620  0.4039
 4516SOL    HW118062   4.425   3.048   1.766 -0.2742 -0.1524  1.9635
 4516SOL    HW218063   4.343   2.921   1.765 -0.0380 -0.3214 -0.0487
 4516SOL     MW18064   4.421   2.961   1.761 -0.1145 -0.1068  0.5456
 4517SOL     OW18065   0.304   4.051   4.882  0.1793 -0.0740  0.3395
 4517SOL    HW118066   0.240   4.109   4.840 -0.3571 -0.9031 -0.0181
 4517SOL    HW218067   0.389   4.079   4.847  0.0433  1.1091  0.8949
 4517SOL     MW18068   0.307   4.062   4.872  0.0932 -0.0287  0.3648
 4518SOL     OW18069   3.487   5.370   0.083 -0.1640 -0.1779 -0.4678
 4518SOL    HW118070   3.459   5.289   0.125  0.8432 -0.7948 -0.9445
 4518SOL    HW218071   3.491   5.349  -0.010  0.8591  0.1842 -0.5185
 4518SOL     MW18072   3.484   5.357   0.076  0.0959 -0.2105 -0.5353
 4519SOL     OW18073   0.948   0.705   0.138 -0.2914  0.0463  0.5945
 4519SOL    HW118074   0.940   0.773   0.071  0.0246  0.5395  1.0439
 4519SOL    HW218075   0.858   0.674   0.151 -0.2576 -0.6176 -0.6074
 4519SOL     MW18076   0.936   0.710   0.131 -0.2466  0.0244  0.4982
 4520SOL     OW18077   3.838   4.005   1.931  0.0197  0.5001 -0.0997
 4520SOL    HW118078   3.927   4.029   1.905 -1.0506  2.4830 -2.2043
 4520SOL    HW218079   3.804   3.955   1.858 -1.2982  1.6125 -0.2730
 4520SOL     MW18080   3.845   4.002   1.919 -0.2860  0.8963 -0.3913
 4521SOL     OW18081   4.561   5.332   2.773  0.2066 -0.0528 -0.5039
 4521SOL    HW118082   4.586   5.264   2.835 -0.8734 -1.1672 -1.2437
 4521SOL    HW218083   4.634   5.393   2.774  2.0874 -2.1531 -1.1661
 4521SOL     MW18084   4.573   5.331   2.781  0.3091 -0.4643 -0.6834
 4522SOL     OW18085   0.773   0.039   3.881 -0.1459 -0.5160  0.2169
 4522SOL    HW118086   0.699   0.010   3.828 -0.4428  1.1274 -0.3351
 4522SOL    HW218087   0.836  -0.033   3.876 -0.6070 -0.8515 -1.5097
 4522SOL     MW18088   0.772   0.026   3.873 -0.2429 -0.3486 -0.0748
 4523SOL     OW18089   4.937   0.724   4.749 -0.0458  0.0650  0.3360
 4523SOL    HW118090   4.988   0.738   4.829 -0.3143  0.8316  0.3783
 4523SOL    HW218091   5.003   0.719   4.679  0.1690 -0.3241  0.5576
 4523SOL     MW18092   4.952   0.725   4.750 -0.0527  0.1133  0.3698
 4524SOL     OW18093   1.126   1.169   3.794  0.8367  0.3910 -0.6737
 4524SOL    HW118094   1.060   1.229   3.758  1.5300  0.9072 -1.1117
 4524SOL    HW218095   1.099   1.156   3.884 -1.1325 -1.1929 -1.4161
 4524SOL     MW18096   1.114   1.175   3.801  0.6734  0.2544 -0.8248
 4525SOL     OW18097   0.695   0.742   1.028 -0.2912  0.2711 -0.3887
 4525SOL    HW118098   0.723   0.741   1.119  2.2042  0.9367 -1.0562
 4525SOL    HW218099   0.600   0.729   1.031 -0.5935  2.2170  2.4034
 4525SOL     MW18100   0.687   0.740   1.040 -0.0105  0.6054 -0.1168
 4526SOL     OW18101   0.530   2.695   0.492  0.2540 -0.2241  0.0110
 4526SOL    HW118102   0.573   2.612   0.474  0.5053 -0.1826  0.4138
 4526SOL    HW218103   0.438   2.672   0.509  0.5364 -0.5510  1.2123
 4526SOL     MW18104   0.523   2.682   0.492  0.3223 -0.2606  0.2163
 4527SOL     OW18105   1.204   2.233   3.931  0.1106 -0.1117  0.4639
 4527SOL    HW118106   1.113   2.213   3.954  0.1041 -0.7082 -0.0476
 4527SOL    HW218107   1.220   2.319   3.969 -2.0050  1.9953 -2.8848
 4527SOL     MW18108   1.195   2.241   3.939 -0.1610  0.0817 -0.0303
 4528SOL     OW18109   3.315   1.304   5.170  0.5702  0.2913 -0.0621
 4528SOL    HW118110   3.404   1.308   5.203  1.2290 -0.5188 -1.6647
 4528SOL    HW218111   3.269   1.247   5.231  1.7323 -1.1128 -0.4561
 4528SOL     MW18112   3.320   1.297   5.182  0.8033  0.0079 -0.3177
 4529SOL     OW18113   0.598   2.326   1.120  0.1167  0.2844 -0.2092
 4529SOL    HW118114   0.592   2.405   1.174 -1.1466 -1.0069  1.6679
 4529SOL    HW218115   0.692   2.306   1.119  0.3781  1.4256 -0.1458
 4529SOL     MW18116   0.610   2.334   1.127 -0.0115  0.2652  0.0392
 4530SOL     OW18117   1.751   1.511   4.146 -0.0132 -0.2315  0.4588
 4530SOL    HW118118   1.808   1.440   4.175 -0.0706 -1.0358 -1.2790
 4530SOL    HW218119   1.662   1.477   4.154 -0.0580 -0.2503 -0.0439
 4530SOL     MW18120   1.747   1.498   4.151 -0.0263 -0.3368  0.1720
 4531SOL     OW18121   2.537   3.508   0.292  0.1904  0.3014 -0.2178
 4531SOL    HW118122   2.612   3.505   0.233  0.5718  1.5183  0.1510
 4531SOL    HW218123   2.481   3.577   0.256 -0.6575 -0.4557 -0.3724
 4531SOL     MW18124   2.539   3.517   0.280  0.1307  0.3603 -0.1904
 4532SOL     OW18125   2.805   2.249   3.933  0.3363  0.7314 -0.0804
 4532SOL    HW118126   2.823   2.176   3.874  0.9245  0.9028 -0.1232
 4532SOL    HW218127   2.813   2.327   3.878 -0.8974  0.8062 -0.1762
 4532SOL     MW18128   2.808   2.250   3.918  0.2537  0.7629 -0.0982
 4533SOL     OW18129   5.086   4.892   1.004  0.2858 -0.3310  0.1092
 4533SOL    HW118130   5.124   4.829   0.943  2.1653  0.5808  0.2850
 4533SOL    HW218131   5.084   4.847   1.088 -2.2711 -1.5782 -0.5161
 4533SOL     MW18132   5.090   4.878   1.007  0.1991 -0.3739  0.0516
 4534SOL     OW18133   2.778   4.162   2.810  0.2387  0.3311  0.2215
 4534SOL    HW118134   2.723   4.084   2.815  0.5129  0.1256  0.0610
 4534SOL    HW218135   2.849   4.144   2.871 -0.7255  1.2894  1.6780
 4534SOL     MW18136   2.780   4.149   2.818  0.1504  0.4274  0.3874
 4535SOL     OW18137   4.604   3.813   3.414 -0.0808 -0.0623 -0.1106
 4535SOL    HW118138   4.613   3.719   3.425 -1.3664  0.0006  2.1254
 4535SOL    HW218139   4.682   3.850   3.456  1.0317 -0.0838 -2.0164
 4535SOL     MW18140   4.615   3.806   3.421 -0.1029 -0.0570 -0.0683
 4536SOL     OW18141   1.310   4.177   1.688 -0.2307  0.1819  0.5765
 4536SOL    HW118142   1.232   4.232   1.691  0.0627  0.6700 -0.4019
 4536SOL    HW218143   1.292   4.114   1.619  0.4453  0.6315 -0.0244
 4536SOL     MW18144   1.298   4.176   1.680 -0.1066  0.3019  0.3743
 4537SOL     OW18145   1.300   2.983   4.361 -0.1824  0.7476 -0.2939
 4537SOL    HW118146   1.345   3.015   4.283  0.0418  0.8268 -0.1351
 4537SOL    HW218147   1.304   2.887   4.353  1.3232  0.7115  0.4279
 4537SOL     MW18148   1.307   2.975   4.350  0.0391  0.7531 -0.1812
 4538SOL     OW18149   4.073   1.461   3.608  0.7754  0.4046  0.0969
 4538SOL    HW118150   4.070   1.548   3.569  2.4233 -0.4889 -2.2137
 4538SOL    HW218151   4.043   1.402   3.539  0.6609 -0.9937  1.2756
 4538SOL     MW18152   4.069   1.464   3.594  0.9717  0.1112 -0.0480
 4539SOL     OW18153   3.593   3.878   2.646  0.1554 -0.7678 -0.5608
 4539SOL    HW118154   3.627   3.835   2.568  2.7009 -0.5712  0.3371
 4539SOL    HW218155   3.671   3.902   2.696 -1.3390  0.3940  1.3685
 4539SOL     MW18156   3.607   3.876   2.643  0.2899 -0.5939 -0.1989
 4540SOL     OW18157   5.143   0.067   1.350 -0.0590  0.2051 -0.4308
 4540SOL    HW118158   5.210   0.095   1.288 -1.2188  1.1661 -1.2939
 4540SOL    HW218159   5.078   0.021   1.296 -0.0591 -0.8107  0.4037
 4540SOL     MW18160   5.143   0.064   1.335 -0.2075  0.1981 -0.4345
 4541SOL     OW18161   3.412   1.692   2.468 -0.4897 -0.0737 -0.3821
 4541SOL    HW118162   3.403   1.648   2.383  0.5628  1.8749 -1.5850
 4541SOL    HW218163   3.506   1.700   2.480 -0.6301 -0.4292  1.0670
 4541SOL     MW18164   3.423   1.687   2.459 -0.3729  0.1303 -0.3506
 4542SOL     OW18165   5.157   3.705   0.369 -0.0595  0.0746 -0.8158
 4542SOL    HW118166   5.091   3.693   0.301 -1.2211  0.6592  0.1664
 4542SOL    HW218167   5.200   3.620   0.376 -1.3591 -0.6146 -0.8341
 4542SOL     MW18168   5.154   3.693   0.361 -0.3745  0.0612 -0.6924
 4543SOL     OW18169   1.509   5.363   4.691 -0.1720  0.2820  0.1718
 4543SOL    HW118170   1.527   5.404   4.606  1.7895  2.5480  1.5611
 4543SOL    HW218171   1.594   5.358   4.734 -1.0329 -1.3832  1.8089
 4543SOL     MW18172   1.522   5.368   4.685 -0.0311  0.3589  0.5592
 4544SOL     OW18173   3.666   0.601   4.723  0.5600  0.6209 -0.0160
 4544SOL    HW118174   3.593   0.572   4.778  0.9968 -1.1975 -0.3275
 4544SOL    HW218175   3.744   0.570   4.769  0.9910  0.1372 -1.0414
 4544SOL     MW18176   3.667   0.593   4.736  0.6711  0.3262 -0.1871
 4545SOL     OW18177   2.887   2.097   1.466  0.0006 -0.5844  0.0287
 4545SOL    HW118178   2.865   2.157   1.395 -0.2447 -0.6355  0.0570
 4545SOL    HW218179   2.869   2.146   1.546 -1.5574 -1.1417  0.0615
 4545SOL     MW18180   2.882   2.111   1.467 -0.2303 -0.6623  0.0365
 4546SOL     OW18181   1.769   5.164   4.568  0.6358  0.4025 -0.1792
 4546SOL    HW118182   1.802   5.252   4.550 -0.9958  0.8463 -1.2372
 4546SOL    HW218183   1.846   5.108   4.558  1.8690  1.7531  1.2306
 4546SOL     MW18184   1.783   5.168   4.564  0.5848  0.6322 -0.1342
 4547SOL     OW18185   0.400   4.429   0.994  0.2779  0.5202  0.3575
 4547SOL    HW118186   0.473   4.414   1.053  0.4136 -0.4137 -0.0233
 4547SOL    HW218187   0.380   4.342   0.959  0.2098  1.0503 -0.9693
 4547SOL     MW18188   0.407   4.416   0.997  0.2866  0.4685  0.1389
 4548SOL     OW18189   1.339   2.070   3.781  0.0047  0.3797 -0.5385
 4548SOL    HW118190   1.287   2.115   3.847 -0.4032 -2.7124  1.4654
 4548SOL    HW218191   1.430   2.084   3.809 -0.0644  0.8126 -0.5333
 4548SOL     MW18192   1.344   2.078   3.793 -0.0563  0.0393 -0.2813
 4549SOL     OW18193   5.395   0.744   3.895  0.3471  0.0399 -0.3770
 4549SOL    HW118194   5.404   0.835   3.921  1.6162 -0.1169 -0.1876
 4549SOL    HW218195   5.463   0.698   3.944  0.5973 -0.7878 -1.4472
 4549SOL     MW18196   5.405   0.749   3.905  0.5416 -0.0862 -0.4898
 4550SOL     OW18197   3.255   0.654   4.885 -0.4493 -0.3335 -0.3337
 4550SOL    HW118198   3.334   0.601   4.892 -0.9627 -0.9430  1.3427
 4550SOL    HW218199   3.201   0.628   4.960 -0.6462  2.6953  0.7493
 4550SOL     MW18200   3.258   0.644   4.896 -0.5402 -0.0238  0.0196
 4551SOL     OW18201   1.514   4.547   0.451 -0.3257  0.1296 -0.0131
 4551SOL    HW118202   1.570   4.620   0.423 -2.6618  1.3638 -1.8177
 4551SOL    HW218203   1.464   4.581   0.524 -0.3641 -0.1967  0.1149
 4551SOL     MW18204   1.515   4.560   0.456 -0.6297  0.2458 -0.2278
 4552SOL     OW18205   0.509   1.328   2.380 -0.4137 -0.1078 -0.2942
 4552SOL    HW118206   0.505   1.257   2.315  0.6466 -1.9995  1.5600
 4552SOL    HW218207   0.487   1.286   2.463 -1.4031  2.1511  0.6709
 4552SOL     MW18208   0.506   1.313   2.382 -0.4046 -0.0608  0.0667
 4553SOL     OW18209   2.273   4.049   0.381  0.2440  0.2423  0.0920
 4553SOL    HW118210   2.293   4.094   0.463  2.1802 -1.9157  0.9228
 4553SOL    HW218211   2.180   4.026   0.389  0.5767 -0.6454  2.1070
 4553SOL     MW18212   2.264   4.052   0.393  0.5344 -0.1475  0.4563
 4554SOL     OW18213   1.945   4.564   2.734  0.2151  0.2842  0.6521
 4554SOL    HW118214   1.880   4.570   2.804 -1.6461 -0.6690 -0.9185
 4554SOL    HW218215   1.929   4.479   2.693 -1.4904  2.3565 -3.4468
 4554SOL     MW18216   1.935   4.554   2.738 -0.2415  0.4274 -0.0736
 4555SOL     OW18217   4.997   0.927   5.095  0.1472 -0.3433  0.6584
 4555SOL    HW118218   4.906   0.936   5.064  0.6078  2.1489 -0.1979
 4555SOL    HW218219   4.992   0.951   5.188 -0.0279  0.0929  0.5393
 4555SOL     MW18220   4.984   0.931   5.103  0.1837  0.0315  0.5335
 4556SOL     OW18221   4.927   1.874   2.871  0.2502 -0.1277 -0.2769
 4556SOL    HW118222   4.975   1.861   2.953 -0.5774  0.4556  0.3133
 4556SOL    HW218223   4.956   1.960   2.841 -0.3768  0.2029  0.0541
 4556SOL     MW18224   4.937   1.883   2.878  0.0640 -0.0107 -0.1590
 4557SOL     OW18225   1.038   3.004   1.895 -0.3760  0.7589  0.1254
 4557SOL    HW118226   1.090   3.020   1.816 -2.3387 -0.3689 -1.4922
 4557SOL    HW218227   0.988   3.085   1.907 -0.2214  0.8576  0.1111
 4557SOL     MW18228   1.038   3.017   1.887 -0.6075  0.6271 -0.0835
 4558SOL     OW18229   3.469   0.751   2.630 -0.2997 -0.4396 -0.5200
 4558SOL    HW118230   3.558   0.781   2.608 -0.4240  0.3742  0.0262
 4558SOL    HW218231   3.461   0.769   2.724 -1.1464 -0.2242 -0.6258
 4558SOL     MW18232   3.480   0.757   2.639 -0.4240 -0.3078 -0.4636
 4559SOL     OW18233   3.085   3.908   4.072 -0.5490 -0.0192 -0.0003
 4559SOL    HW118234   3.123   3.993   4.049 -1.3164 -0.1305 -1.9285
 4559SOL    HW218235   3.051   3.919   4.160  0.1040  1.4215  0.0911
 4559SOL     MW18236   3.086   3.920   4.080 -0.5636  0.1510 -0.2354
 4560SOL     OW18237   0.408   0.113   1.357  0.6948 -0.1848  0.4933
 4560SOL    HW118238   0.493   0.138   1.392  0.4210  2.1710 -0.3521
 4560SOL    HW218239   0.349   0.114   1.432  1.1822 -0.7554  0.8896
 4560SOL     MW18240   0.411   0.116   1.371  0.7222  0.0437  0.4358
 4561SOL     OW18241   5.034   0.850   3.969  0.0098  0.2026 -0.3223
 4561SOL    HW118242   5.109   0.841   4.028 -0.5712  0.8943  0.5582
 4561SOL    HW218243   5.008   0.760   3.950  0.0215 -0.0510  0.7573
 4561SOL     MW18244   5.040   0.837   3.974 -0.0631  0.2586 -0.0714
 4562SOL     OW18245   0.624   2.061   4.371  0.0876 -0.2713  0.7008
 4562SOL    HW118246   0.579   1.999   4.428 -0.1040 -1.2898 -0.5439
 4562SOL    HW218247   0.699   2.013   4.337  0.2602  0.3624  0.1614
 4562SOL     MW18248   0.628   2.047   4.374  0.0852 -0.3206  0.4724
 4563SOL     OW18249   3.546   1.102   0.698 -0.1226 -0.3158 -0.1119
 4563SOL    HW118250   3.542   1.188   0.739  1.2451  0.1305 -0.8539
 4563SOL    HW218251   3.515   1.117   0.608  2.0733 -0.1209 -0.8900
 4563SOL     MW18252   3.541   1.115   0.692  0.3336 -0.2337 -0.3065
 4564SOL     OW18253   4.521   1.143   1.175  0.2994 -0.0502 -0.9350
 4564SOL    HW118254   4.558   1.120   1.090 -0.3871 -2.8610 -0.6032
 4564SOL    HW218255   4.428   1.122   1.167 -0.0405  0.9757  0.0997
 4564SOL     MW18256   4.514   1.137   1.163  0.1680 -0.2787 -0.7601
 4565SOL     OW18257   4.456   2.072   3.362 -0.1855 -0.1453  0.8855
 4565SOL    HW118258   4.529   2.014   3.342 -1.4758 -1.9644  1.2256
 4565SOL    HW218259   4.456   2.081   3.457  0.4759  1.0815  0.7839
 4565SOL     MW18260   4.465   2.066   3.371 -0.2660 -0.2212  0.9160
 4566SOL     OW18261   3.980   4.704   2.704  0.0630  0.2813 -0.5053
 4566SOL    HW118262   4.035   4.776   2.735  0.4628  0.9373 -2.5803
 4566SOL    HW218263   4.041   4.645   2.660 -0.6965  0.2777 -1.5681
 4566SOL     MW18264   3.995   4.706   2.703  0.0170  0.3648 -0.9069
 4567SOL     OW18265   0.705   5.255   4.154 -0.3566  0.3273 -0.2511
 4567SOL    HW118266   0.614   5.233   4.176 -0.5292  1.8135  0.6202
 4567SOL    HW218267   0.729   5.323   4.216  1.6337 -0.5719  0.0303
 4567SOL     MW18268   0.696   5.261   4.165 -0.1239  0.4025 -0.1036
 4568SOL     OW18269   4.432   0.642   1.709 -0.0788 -0.4217  0.5144
 4568SOL    HW118270   4.348   0.640   1.663  0.5852  2.3264 -1.0655
 4568SOL    HW218271   4.483   0.710   1.663  2.7128 -1.4014  1.9145
 4568SOL     MW18272   4.428   0.651   1.697  0.3636 -0.1953  0.4914
 4569SOL     OW18273   0.435   0.112   1.809  0.0358 -0.2849  0.2199
 4569SOL    HW118274   0.367   0.100   1.743 -0.0490 -2.3878  0.6276
 4569SOL    HW218275   0.515   0.078   1.769  1.2009  3.1224 -0.6534
 4569SOL     MW18276   0.436   0.106   1.796  0.1741 -0.1179  0.1603
 4570SOL     OW18277   1.320   4.380   1.949  0.2636  0.7042  0.1668
 4570SOL    HW118278   1.391   4.316   1.951  0.3416  0.7187 -1.1359
 4570SOL    HW218279   1.360   4.461   1.983  0.7014  0.5623 -0.0066
 4570SOL     MW18280   1.335   4.382   1.954  0.3296  0.6879 -0.0222
 4571SOL     OW18281   2.518   3.354   0.499  0.4317  0.6236  0.1482
 4571SOL    HW118282   2.510   3.403   0.417  2.4243  0.4922 -0.1832
 4571SOL    HW218283   2.612   3.355   0.518 -0.0064  0.8958  2.6004
 4571SOL     MW18284   2.529   3.360   0.491  0.6307  0.6416  0.4197
 4572SOL     OW18285   0.755   3.695   3.308 -0.2773  0.3049  0.4942
 4572SOL    HW118286   0.678   3.747   3.331 -1.3376 -1.5626  1.4194
 4572SOL    HW218287   0.771   3.715   3.216 -1.8941  0.7321  0.2712
 4572SOL     MW18288   0.747   3.704   3.299 -0.6200  0.1205  0.5841
 4573SOL     OW18289   2.840   2.856   2.076 -0.3148  0.0148 -0.3901
 4573SOL    HW118290   2.913   2.915   2.095 -0.0625  0.1246 -1.6099
 4573SOL    HW218291   2.772   2.882   2.138 -0.5260  2.1780 -1.4231
 4573SOL     MW18292   2.841   2.867   2.086 -0.3095  0.3058 -0.6785
 4574SOL     OW18293   4.527   4.839   5.125 -0.2620 -0.4313 -0.2286
 4574SOL    HW118294   4.508   4.851   5.218 -1.4585  1.0361 -0.6242
 4574SOL    HW218295   4.441   4.826   5.085  0.3630 -3.0767 -0.9226
 4574SOL     MW18296   4.514   4.839   5.132 -0.3351 -0.5821 -0.3681
 4575SOL     OW18297   4.069   3.895   4.667 -0.1649  0.5006 -0.4445
 4575SOL    HW118298   4.027   3.823   4.714 -0.9711  2.0013  1.2226
 4575SOL    HW218299   4.162   3.887   4.691 -0.2181 -0.0444 -0.3891
 4575SOL     MW18300   4.076   3.885   4.676 -0.2749  0.6229 -0.2240
 4576SOL     OW18301   3.017   0.741   2.767  0.2165  0.6541 -0.4505
 4576SOL    HW118302   2.937   0.703   2.803  0.4149 -0.1612 -0.8464
 4576SOL    HW218303   3.085   0.678   2.788  0.8922  1.6577  0.4639
 4576SOL     MW18304   3.015   0.728   2.774  0.3284  0.6782 -0.3841
 4577SOL     OW18305   1.800   0.283   5.418 -0.0582  0.0241 -0.3652
 4577SOL    HW118306   1.734   0.340   5.378  0.9970  0.5389 -1.4468
 4577SOL    HW218307   1.882   0.312   5.380  0.8139 -0.5941  0.9651
 4577SOL     MW18308   1.802   0.294   5.408  0.1885  0.0109 -0.3333
 4578SOL     OW18309   2.107   1.790   4.771  0.0927  1.0561 -0.2168
 4578SOL    HW118310   2.143   1.706   4.744  1.2504  1.8410 -1.2337
 4578SOL    HW218311   2.169   1.855   4.738 -0.5481  2.3051  0.8947
 4578SOL     MW18312   2.119   1.787   4.764  0.1589  1.3164 -0.2047
 4579SOL     OW18313   4.982   5.139   0.250  0.0940 -0.2139  0.3186
 4579SOL    HW118314   4.969   5.207   0.184 -2.0779 -0.6941  0.1784
 4579SOL    HW218315   5.059   5.090   0.219 -0.2402  0.2223 -1.3058
 4579SOL     MW18316   4.990   5.141   0.237 -0.2268 -0.2195  0.0927
 4580SOL     OW18317   0.371   2.682   5.478  0.1045 -0.0952 -0.3243
 4580SOL    HW118318   0.414   2.604   5.444  0.4841 -0.4400  0.9177
 4580SOL    HW218319   0.281   2.654   5.496  0.5782 -0.6366  1.3544
 4580SOL     MW18320   0.365   2.669   5.476  0.2137 -0.2087  0.0496
 4581SOL     OW18321   4.960   1.040   0.091  0.1532 -0.3116 -0.1073
 4581SOL    HW118322   5.045   1.080   0.106  0.3456 -0.8371  0.2074
 4581SOL    HW218323   4.954   1.031  -0.004  0.7908 -1.0120 -0.0888
 4581SOL     MW18324   4.970   1.044   0.081  0.2595 -0.4685 -0.0646
 4582SOL     OW18325   2.448   0.765   4.663 -0.3065  0.3280 -0.2074
 4582SOL    HW118326   2.471   0.786   4.572  1.2091  0.7517  0.2614
 4582SOL    HW218327   2.522   0.715   4.696 -1.2735 -0.6772  0.5264
 4582SOL     MW18328   2.460   0.761   4.655 -0.2363  0.2536 -0.0534
 4583SOL     OW18329   2.365   3.528   5.288  0.1899  0.3306 -0.8109
 4583SOL    HW118330   2.344   3.474   5.364 -0.2502 -0.5045 -1.5088
 4583SOL    HW218331   2.458   3.510   5.270  0.0580 -0.1582 -1.0080
 4583SOL     MW18332   2.375   3.519   5.295  0.1167  0.1611 -0.9255
 4584SOL     OW18333   3.435   3.709   4.010 -0.4196 -0.1823  0.7799
 4584SOL    HW118334   3.391   3.730   4.092 -0.9880 -1.6226  0.8772
 4584SOL    HW218335   3.418   3.784   3.953 -1.0713  0.2776  1.5732
 4584SOL     MW18336   3.427   3.721   4.013 -0.5758 -0.3078  0.8939
 4585SOL     OW18337   2.458   1.549   0.282  0.4399 -0.5388 -0.4966
 4585SOL    HW118338   2.380   1.509   0.243  0.4346 -1.7894  0.7152
 4585SOL    HW218339   2.429   1.579   0.368  1.5074 -1.9841  0.4162
 4585SOL     MW18340   2.444   1.548   0.288  0.5759 -0.8839 -0.2246
 4586SOL     OW18341   1.983   1.835   5.359  0.5136 -0.4150 -0.5156
 4586SOL    HW118342   1.925   1.901   5.396 -0.0545 -0.9647 -0.4167
 4586SOL    HW218343   2.055   1.828   5.423  1.3859  1.1971 -1.2674
 4586SOL     MW18344   1.985   1.842   5.372  0.5525 -0.2790 -0.5992
 4587SOL     OW18345   2.567   4.160   3.680 -0.2467 -0.2188  0.0250
 4587SOL    HW118346   2.506   4.087   3.675 -2.1941  1.4070 -2.0247
 4587SOL    HW218347   2.644   4.130   3.633 -0.0018 -1.7579  1.3155
 4587SOL     MW18348   2.569   4.147   3.673 -0.4646 -0.2077 -0.0722
 4588SOL     OW18349   2.304   0.915   3.230 -0.6480  0.1257  0.1253
 4588SOL    HW118350   2.391   0.894   3.196  0.3605  2.6655  0.8690
 4588SOL    HW218351   2.304   0.879   3.319 -0.5669 -0.3560 -0.0686
 4588SOL     MW18352   2.315   0.908   3.237 -0.5085  0.3892  0.1957
 4589SOL     OW18353   4.115   3.321   0.072 -0.0184 -0.0699 -0.1986
 4589SOL    HW118354   4.141   3.349   0.160  3.6550  1.4136 -1.5441
 4589SOL    HW218355   4.128   3.399   0.018 -2.0734 -0.9600 -2.1544
 4589SOL     MW18356   4.120   3.335   0.077  0.1888  0.0061 -0.6212
 4590SOL     OW18357   2.665   5.276   0.610 -0.2495  0.6740  0.0209
 4590SOL    HW118358   2.679   5.181   0.607 -0.6302  0.5599  1.2423
 4590SOL    HW218359   2.571   5.287   0.604 -0.1591  1.0447 -0.9747
 4590SOL     MW18360   2.655   5.265   0.609 -0.2867  0.7068  0.0498
 4591SOL     OW18361   4.932   5.435   2.224  0.1782 -0.3494  0.2496
 4591SOL    HW118362   4.882   5.432   2.306  1.2290 -0.1582  0.9334
 4591SOL    HW218363   4.867   5.434   2.155 -0.8453  1.3540  1.1115
 4591SOL     MW18364   4.917   5.435   2.226  0.1817 -0.1069  0.4474
 4592SOL     OW18365   3.029   5.412   1.690 -0.0697  0.0979 -0.0459
 4592SOL    HW118366   3.053   5.461   1.769 -0.8530  0.8091 -0.2306
 4592SOL    HW218367   3.022   5.321   1.719  2.7824 -0.1909  0.0083
 4592SOL     MW18368   3.031   5.407   1.704  0.1951  0.1519 -0.0626
 4593SOL     OW18369   1.139   2.555   1.105 -0.0683  0.4369 -0.4954
 4593SOL    HW118370   1.161   2.464   1.128 -0.5514  0.4932  0.2407
 4593SOL    HW218371   1.081   2.547   1.029  0.5081  0.1710 -0.9128
 4593SOL     MW18372   1.134   2.542   1.098 -0.0564  0.4101 -0.4546
 4594SOL     OW18373   2.147   4.218   0.797  0.0147  0.6230  0.4327
 4594SOL    HW118374   2.203   4.181   0.865 -1.1313  1.9965  2.2298
 4594SOL    HW218375   2.094   4.145   0.767  0.6238 -0.0428  0.9514
 4594SOL     MW18376   2.147   4.204   0.802 -0.0540  0.7136  0.7292
 4595SOL     OW18377   2.491   1.825   5.373  0.0152 -0.6646  0.1999
 4595SOL    HW118378   2.464   1.917   5.366 -0.1803 -0.7302  0.1065
 4595SOL    HW218379   2.420   1.776   5.332  0.5547 -0.7967 -0.6024
 4595SOL     MW18380   2.479   1.831   5.367  0.0592 -0.6899  0.0852
 4596SOL     OW18381   0.032   0.592   4.052  0.1326  0.1200 -0.6008
 4596SOL    HW118382   0.104   0.627   4.105 -0.9125  1.1697  0.1882
 4596SOL    HW218383   0.037   0.497   4.066  1.5082  0.1442 -0.7752
 4596SOL     MW18384   0.042   0.584   4.061  0.1749  0.2575 -0.5221
 4597SOL     OW18385   0.196   5.343   5.182 -0.2267 -0.0323  0.3218
 4597SOL    HW118386   0.282   5.316   5.151 -0.9585 -0.9322 -1.0313
 4597SOL    HW218387   0.169   5.274   5.243 -0.5637 -0.4730 -0.3211
 4597SOL     MW18388   0.203   5.331   5.186 -0.3635 -0.2039  0.0663
 4598SOL     OW18389   5.221   4.866   4.105 -0.2930 -0.2809 -0.1601
 4598SOL    HW118390   5.228   4.854   4.010  0.9237 -2.4460  0.1458
 4598SOL    HW218391   5.127   4.865   4.122 -0.5784  1.0927 -1.3951
 4598SOL     MW18392   5.210   4.865   4.095 -0.1738 -0.3822 -0.2790
 4599SOL     OW18393   1.425   0.662   1.761 -0.5147  0.1485  0.0866
 4599SOL    HW118394   1.515   0.681   1.789 -0.4806  1.1045 -0.6386
 4599SOL    HW218395   1.436   0.608   1.682 -0.5420  1.4244 -0.8129
 4599SOL     MW18396   1.438   0.657   1.755 -0.5139  0.4342 -0.1214
 4600SOL     OW18397   4.365   2.716   3.325 -0.3830  0.8051  0.0228
 4600SOL    HW118398   4.322   2.800   3.310 -1.8424 -0.1779 -1.6673
 4600SOL    HW218399   4.415   2.701   3.245 -0.4803 -0.1195  0.1292
 4600SOL     MW18400   4.366   2.725   3.313 -0.5823  0.5609 -0.1799
 4601SOL     OW18401   0.391   2.590   2.406 -0.3364  0.6011 -0.3789
 4601SOL    HW118402   0.471   2.624   2.365  0.2449 -0.2609 -0.0003
 4601SOL    HW218403   0.330   2.663   2.404  1.0575  1.8718  0.9623
 4601SOL     MW18404   0.394   2.603   2.401 -0.0835  0.6535 -0.1588
 4602SOL     OW18405   3.571   2.168   5.151 -0.4013 -0.0840  0.4248
 4602SOL    HW118406   3.605   2.205   5.232  1.9290  0.1272 -0.5630
 4602SOL    HW218407   3.632   2.096   5.130  0.7094  1.5056 -2.4250
 4602SOL     MW18408   3.583   2.164   5.158  0.0392  0.1465 -0.0665
 4603SOL     OW18409   4.771   2.211   1.459  0.0086 -0.2949  0.4528
 4603SOL    HW118410   4.824   2.214   1.539  0.6520  0.9429  0.0124
 4603SOL    HW218411   4.833   2.184   1.391 -0.3627 -0.6030  0.2334
 4603SOL     MW18412   4.786   2.208   1.460  0.0434 -0.1759  0.3683
 4604SOL     OW18413   5.363   3.802   5.155  0.4040 -0.0272  0.6224
 4604SOL    HW118414   5.451   3.804   5.118 -0.4509  0.3103 -1.5602
 4604SOL    HW218415   5.309   3.761   5.087 -1.2105  0.1521  1.7277
 4604SOL     MW18416   5.367   3.797   5.141  0.0879  0.0389  0.4845
 4605SOL     OW18417   3.141   4.128   0.619 -0.4840  0.2077 -0.4604
 4605SOL    HW118418   3.234   4.104   0.623 -0.1794  1.2766 -0.7726
 4605SOL    HW218419   3.114   4.131   0.711 -0.6252 -1.6016 -0.4212
 4605SOL     MW18420   3.150   4.126   0.631 -0.4631  0.1129 -0.4953
 4606SOL     OW18421   4.017   4.488   0.969 -0.1737  0.4192 -0.0947
 4606SOL    HW118422   3.955   4.518   0.902 -0.5568  0.9660  0.4949
 4606SOL    HW218423   4.063   4.568   0.996  1.7065 -0.1555 -1.4237
 4606SOL     MW18424   4.015   4.502   0.964  0.0180  0.4156 -0.1893
 4607SOL     OW18425   3.184   5.441   1.420  0.0052  0.3320 -0.3908
 4607SOL    HW118426   3.225   5.528   1.420 -0.1117  0.4205  1.6083
 4607SOL    HW218427   3.118   5.445   1.489  0.6580 -1.6583  0.4187
 4607SOL     MW18428   3.180   5.453   1.429  0.0738  0.0886 -0.0312
 4608SOL     OW18429   0.077   2.421   3.507 -0.2483 -0.1460 -0.7624
 4608SOL    HW118430  -0.007   2.419   3.460  0.0965  0.7820 -1.4455
 4608SOL    HW218431   0.082   2.509   3.544  0.7403  0.0604 -1.3509
 4608SOL     MW18432   0.067   2.432   3.505 -0.0776 -0.0008 -0.9252
 4609SOL     OW18433   4.542   1.779   4.472 -0.2018  0.5171 -0.2843
 4609SOL    HW118434   4.512   1.760   4.561 -2.8697  1.3200 -0.9374
 4609SOL    HW218435   4.622   1.829   4.484  0.8612 -1.4641  1.5865
 4609SOL     MW18436   4.548   1.783   4.485 -0.4073  0.3663 -0.1284
 4610SOL     OW18437   2.961   3.598   4.232  0.1963 -0.1687  0.0215
 4610SOL    HW118438   2.879   3.579   4.187 -0.3005 -2.7092  1.7948
 4610SOL    HW218439   3.010   3.516   4.231  0.4769 -0.1833  3.3231
 4610SOL     MW18440   2.957   3.585   4.226  0.1686 -0.4958  0.6711
 4611SOL     OW18441   2.415   3.056   0.682 -0.1454  0.3844 -0.0918
 4611SOL    HW118442   2.367   3.100   0.612 -1.2933  1.8489  1.5222
 4611SOL    HW218443   2.415   3.119   0.755  2.5959 -0.3170  0.6561
 4611SOL     MW18444   2.409   3.070   0.683  0.0586  0.4821  0.2106
 4612SOL     OW18445   2.038   0.978   3.088  0.0216 -0.0593  0.2102
 4612SOL    HW118446   1.974   0.962   3.157  0.9218 -2.1825  0.6356
 4612SOL    HW218447   2.119   0.938   3.120  0.7051 -0.3233 -1.6885
 4612SOL     MW18448   2.040   0.971   3.101  0.2243 -0.3649  0.0216
 4613SOL     OW18449   4.860   3.836   3.092  0.0987  0.3335 -0.4199
 4613SOL    HW118450   4.831   3.904   3.152 -0.0592 -0.0262 -0.0844
 4613SOL    HW218451   4.845   3.754   3.139 -0.2241  0.0352 -1.0312
 4613SOL     MW18452   4.854   3.834   3.106  0.0372  0.2492 -0.4552
 4614SOL     OW18453   1.929   5.322   5.367  0.0648 -0.2433  0.4721
 4614SOL    HW118454   1.975   5.367   5.437 -0.4683  0.6208  0.2734
 4614SOL    HW218455   1.896   5.392   5.310  0.5328 -0.9151 -0.6806
 4614SOL     MW18456   1.931   5.336   5.368  0.0565 -0.2187  0.2991
 4615SOL     OW18457   5.126   2.999   2.990 -0.2094  0.5156 -0.4749
 4615SOL    HW118458   5.192   2.987   3.058  0.3274 -0.1029 -1.1000
 4615SOL    HW218459   5.047   2.958   3.025  0.6365 -1.7613 -1.0973
 4615SOL     MW18460   5.124   2.992   3.003 -0.0324  0.1449 -0.6346
 4616SOL     OW18461   1.671   4.583   5.319  0.1852 -0.8098 -0.4897
 4616SOL    HW118462   1.652   4.584   5.413  0.8188 -2.7379 -0.2942
 4616SOL    HW218463   1.624   4.659   5.284  1.1947  0.8836  1.5914
 4616SOL     MW18464   1.663   4.593   5.327  0.3956 -0.8399 -0.1982
 4617SOL     OW18465   1.333   2.172   0.869 -0.3042  0.2051  0.4659
 4617SOL    HW118466   1.379   2.253   0.849  0.2711 -0.5684 -1.6508
 4617SOL    HW218467   1.387   2.103   0.831 -2.8352 -0.8106 -1.6637
 4617SOL     MW18468   1.345   2.174   0.861 -0.5546 -0.0239 -0.0777
 4618SOL     OW18469   1.240   0.955   1.132 -0.4894  0.0631  0.1097
 4618SOL    HW118470   1.173   0.936   1.067 -0.7913  0.1696  0.3839
 4618SOL    HW218471   1.303   1.012   1.087  0.6214 -1.8025 -0.8419
 4618SOL     MW18472   1.240   0.960   1.118 -0.3858 -0.1621  0.0230
 4619SOL     OW18473   0.344   0.127   4.782  0.3965 -0.3734  0.2642
 4619SOL    HW118474   0.272   0.065   4.770 -0.1166 -0.1930  2.0708
 4619SOL    HW218475   0.375   0.111   4.871  1.9491  0.2496 -0.1245
 4619SOL     MW18476   0.339   0.117   4.792  0.5296 -0.2706  0.4457
 4620SOL     OW18477   3.242   1.901   4.846 -0.3208 -0.4097 -0.3500
 4620SOL    HW118478   3.209   1.818   4.809 -0.2188 -0.7880  0.3911
 4620SOL    HW218479   3.197   1.909   4.930 -1.0342  0.7667 -0.8257
 4620SOL     MW18480   3.232   1.891   4.852 -0.3990 -0.3076 -0.3160
 4621SOL     OW18481   3.705   4.083   4.000 -0.0576  0.1596 -0.5958
 4621SOL    HW118482   3.743   3.996   4.008  0.6252  0.4379 -0.7059
 4621SOL    HW218483   3.704   4.118   4.089 -1.0209 -0.2402 -0.4461
 4621SOL     MW18484   3.710   4.077   4.012 -0.0935  0.1441 -0.5907
 4622SOL     OW18485   5.185   0.425   2.625 -0.1598  0.1732 -0.4311
 4622SOL    HW118486   5.222   0.431   2.537 -0.5724  0.1583 -0.6083
 4622SOL    HW218487   5.217   0.504   2.669 -0.6007  0.5883 -0.8438
 4622SOL     MW18488   5.194   0.436   2.619 -0.2691  0.2245 -0.5066
 4623SOL     OW18489   4.420   5.362   1.616 -0.1951  0.6738  0.2911
 4623SOL    HW118490   4.370   5.336   1.693  0.0086 -0.1102  0.1592
 4623SOL    HW218491   4.366   5.335   1.542  0.3573 -0.0591  0.1480
 4623SOL     MW18492   4.407   5.355   1.616 -0.0983  0.4796  0.2559
 4624SOL     OW18493   3.101   3.506   1.114  0.4240 -0.1862 -0.1945
 4624SOL    HW118494   3.186   3.539   1.143 -0.4982  1.6197  0.6291
 4624SOL    HW218495   3.098   3.527   1.020  1.8179 -2.4844 -0.8341
 4624SOL     MW18496   3.111   3.513   1.105  0.4844 -0.2492 -0.1709
 4625SOL     OW18497   5.037   0.457   0.468 -0.1846  0.2966  0.5739
 4625SOL    HW118498   5.125   0.421   0.460 -0.6933 -1.1466  1.0665
 4625SOL    HW218499   5.013   0.482   0.379  0.6746  0.6425  0.4242
 4625SOL     MW18500   5.045   0.456   0.456 -0.1397  0.1561  0.6178
 4626SOL     OW18501   5.282   2.450   3.719  0.0355  0.0001 -0.3725
 4626SOL    HW118502   5.200   2.498   3.725 -0.2143 -0.3744 -0.7473
 4626SOL    HW218503   5.264   2.367   3.764 -0.6345 -1.2003 -2.7202
 4626SOL     MW18504   5.269   2.445   3.726 -0.0822 -0.2015 -0.7210
 4627SOL     OW18505   0.272   5.334   1.229 -0.1657  0.2643 -0.0495
 4627SOL    HW118506   0.306   5.416   1.193  1.5555 -0.3015  0.1717
 4627SOL    HW218507   0.350   5.279   1.242 -0.8967 -0.3378  2.5065
 4627SOL     MW18508   0.287   5.337   1.226 -0.0390  0.1148  0.3060
 4628SOL     OW18509   4.574   4.505   2.088  0.3902  0.0140 -0.1356
 4628SOL    HW118510   4.516   4.512   2.012  0.8570 -1.6687 -0.7173
 4628SOL    HW218511   4.661   4.494   2.049  0.8987  1.0054  0.6941
 4628SOL     MW18512   4.578   4.504   2.073  0.5151 -0.0745 -0.1039
 4629SOL     OW18513   2.927   0.431   5.349  0.0655  0.3780 -0.4638
 4629SOL    HW118514   2.878   0.406   5.270 -0.2809  1.7871 -0.7199
 4629SOL    HW218515   2.865   0.419   5.421  0.0750  0.0101 -0.5153
 4629SOL     MW18516   2.913   0.426   5.348  0.0224  0.5113 -0.5032
 4630SOL     OW18517   5.444   1.464   0.578 -0.1007 -0.0065  0.1730
 4630SOL    HW118518   5.483   1.547   0.551  0.3816  0.0846  1.0782
 4630SOL    HW218519   5.488   1.444   0.662  0.1142 -1.3881 -0.2440
 4630SOL     MW18520   5.455   1.472   0.586 -0.0114 -0.1717  0.2355
 4631SOL     OW18521   3.148   0.180   0.192 -0.0911 -0.1085 -0.2416
 4631SOL    HW118522   3.133   0.240   0.119 -2.5398 -0.8774 -0.4829
 4631SOL    HW218523   3.126   0.094   0.156  0.0512 -0.6877  1.0252
 4631SOL     MW18524   3.143   0.177   0.178 -0.3864 -0.2811 -0.1103
 4632SOL     OW18525   3.348   1.954   1.117  0.2574 -0.3934  0.0869
 4632SOL    HW118526   3.309   1.875   1.079  0.4360  0.2524 -1.5237
 4632SOL    HW218527   3.275   2.016   1.123  0.7935  0.6403 -2.4471
 4632SOL     MW18528   3.333   1.952   1.113  0.3489 -0.1784 -0.4437
 4633SOL     OW18529   0.913   4.375   3.266  0.0094 -0.0996  0.0014
 4633SOL    HW118530   0.902   4.337   3.178  2.4175 -0.1844 -0.3182
 4633SOL    HW218531   0.883   4.306   3.325  1.0936 -1.2130 -0.6887
 4633SOL     MW18532   0.907   4.361   3.262  0.4565 -0.2530 -0.1279
 4634SOL     OW18533   2.941   5.248   4.219 -0.1751  0.0850  0.6641
 4634SOL    HW118534   3.016   5.235   4.162  0.3410  0.0789  1.3305
 4634SOL    HW218535   2.979   5.278   4.302 -0.8328 -0.7405  1.2826
 4634SOL     MW18536   2.955   5.250   4.222 -0.1932 -0.0215  0.8286
 4635SOL     OW18537   4.513   3.839   0.590  0.0299  0.2948  0.2101
 4635SOL    HW118538   4.484   3.853   0.681  1.6985  1.9230  0.5628
 4635SOL    HW218539   4.547   3.750   0.589  0.3126  0.3725  1.2892
 4635SOL     MW18540   4.514   3.830   0.602  0.2797  0.5132  0.3934
 4636SOL     OW18541   1.585   2.723   2.166 -0.4747  0.2341  0.5110
 4636SOL    HW118542   1.547   2.734   2.079 -0.0473 -1.7347  0.0125
 4636SOL    HW218543   1.678   2.705   2.150 -0.6795 -1.6925  1.2310
 4636SOL     MW18544   1.592   2.722   2.153 -0.4462 -0.2645  0.5394
 4637SOL     OW18545   2.234   2.860   4.529  0.4219  0.4755  0.2107
 4637SOL    HW118546   2.286   2.867   4.608 -0.5614 -1.1228  1.0565
 4637SOL    HW218547   2.248   2.770   4.499 -0.3878  0.6013 -0.5973
 4637SOL     MW18548   2.242   2.849   4.535  0.1924  0.2870  0.2156
 4638SOL     OW18549   2.178   2.374   4.145  0.1619 -0.3105  0.1446
 4638SOL    HW118550   2.083   2.365   4.139 -0.0432  0.8466  1.3421
 4638SOL    HW218551   2.210   2.340   4.062 -1.3997  0.8560 -0.9992
 4638SOL     MW18552   2.170   2.368   4.134 -0.0643 -0.0131  0.1515
 4639SOL     OW18553   4.211   3.606   1.760 -0.2774 -0.1179  0.8506
 4639SOL    HW118554   4.119   3.603   1.731  0.0565 -2.1731 -0.2057
 4639SOL    HW218555   4.233   3.514   1.776  2.7511 -0.2399 -2.7837
 4639SOL     MW18556   4.202   3.594   1.758  0.1530 -0.3966  0.2501
 4640SOL     OW18557   4.017   3.846   2.501  0.2839  0.2936 -0.8967
 4640SOL    HW118558   3.971   3.769   2.468 -0.9677  0.8332 -0.4856
 4640SOL    HW218559   4.047   3.891   2.422  1.7864 -1.0258 -1.1234
 4640SOL     MW18560   4.015   3.842   2.487  0.3161  0.1938 -0.8731
 4641SOL     OW18561   4.558   2.901   0.769  0.2404 -0.4632 -0.0183
 4641SOL    HW118562   4.578   2.865   0.683  1.3940  0.4636 -0.1716
 4641SOL    HW218563   4.583   2.993   0.763  2.6056 -0.8779  2.0041
 4641SOL     MW18564   4.563   2.908   0.757  0.6909 -0.3976  0.2210
 4642SOL     OW18565   0.796   2.945   1.189  0.7744  0.3994 -0.3138
 4642SOL    HW118566   0.712   2.963   1.148  0.6933  0.5251 -0.0907
 4642SOL    HW218567   0.790   2.854   1.218  0.4136  0.6620  0.4383
 4642SOL     MW18568   0.785   2.935   1.187  0.7178  0.4491 -0.1889
 4643SOL     OW18569   4.125   1.011   0.425  0.0371  0.2115 -0.0461
 4643SOL    HW118570   4.143   0.967   0.508 -1.8321  0.3205  0.4717
 4643SOL    HW218571   4.052   1.069   0.444  1.3299  2.3033 -1.1376
 4643SOL     MW18572   4.118   1.013   0.438 -0.0367  0.4932 -0.1195
 4644SOL     OW18573   5.037   1.174   2.874 -0.3648  0.0553 -0.4535
 4644SOL    HW118574   4.942   1.173   2.881 -0.3907  0.6162 -0.6204
 4644SOL    HW218575   5.058   1.108   2.809 -0.6603  0.0954 -0.5908
 4644SOL     MW18576   5.027   1.166   2.867 -0.4060  0.1323 -0.4924
 4645SOL     OW18577   4.439   1.255   3.196 -0.0346  0.4622 -0.0124
 4645SOL    HW118578   4.482   1.170   3.183 -2.7821 -1.1082  0.4169
 4645SOL    HW218579   4.495   1.317   3.149  1.0615 -1.8869 -2.0548
 4645SOL     MW18580   4.452   1.252   3.188 -0.2460 -0.0396 -0.2189
 4646SOL     OW18581   2.798   3.330   4.858  0.1166 -0.1219  0.5323
 4646SOL    HW118582   2.809   3.398   4.924  0.0490  1.5397 -1.0784
 4646SOL    HW218583   2.715   3.351   4.815  0.0453 -1.2805  0.0599
 4646SOL     MW18584   2.789   3.341   4.861  0.0988 -0.0575  0.2656
 4647SOL     OW18585   4.164   5.082   3.742  0.1203  0.2305 -0.3010
 4647SOL    HW118586   4.157   5.176   3.729 -1.2518 -0.0696 -2.0661
 4647SOL    HW218587   4.084   5.057   3.787  0.1339 -0.2022 -0.5122
 4647SOL     MW18588   4.153   5.091   3.746 -0.0536  0.1367 -0.5540
 4648SOL     OW18589   0.643   4.214   4.303 -0.3113  0.0056  0.1288
 4648SOL    HW118590   0.732   4.227   4.270 -0.7205  2.4420 -0.2085
 4648SOL    HW218591   0.589   4.209   4.224 -0.7930  1.5380  0.3390
 4648SOL     MW18592   0.648   4.215   4.288 -0.4253  0.5136  0.1126
 4649SOL     OW18593   4.999   2.690   2.223 -0.1701 -0.1608 -0.4774
 4649SOL    HW118594   4.986   2.782   2.247  0.5681  0.0897 -1.0108
 4649SOL    HW218595   4.991   2.689   2.128  1.4165 -0.3587 -0.6344
 4649SOL     MW18596   4.996   2.702   2.214  0.1275 -0.1540 -0.5658
 4650SOL     OW18597   5.265   2.829   3.217 -0.1089  0.8002 -0.9166
 4650SOL    HW118598   5.327   2.846   3.288  0.5276 -0.6403 -1.0939
 4650SOL    HW218599   5.316   2.781   3.152 -1.2271  0.2547 -1.4167
 4650SOL     MW18600   5.279   2.825   3.217 -0.1705  0.5460 -1.0033
 4651SOL     OW18601   1.595   4.858   2.337 -0.3895 -0.3796  0.8457
 4651SOL    HW118602   1.504   4.842   2.311 -0.4352 -0.6636  1.1831
 4651SOL    HW218603   1.645   4.787   2.296 -0.1799  0.3123 -0.1398
 4651SOL     MW18604   1.590   4.847   2.328 -0.3685 -0.3274  0.7627
 4652SOL     OW18605   0.637   3.098   0.982 -0.1484 -0.7677  0.5171
 4652SOL    HW118606   0.544   3.113   0.965 -0.0980  0.1560  0.9982
 4652SOL    HW218607   0.665   3.173   1.034  1.3645  0.1008 -1.3920
 4652SOL     MW18608   0.629   3.109   0.987  0.0517 -0.5383  0.3343
 4653SOL     OW18609   3.663   0.222   0.551  0.3089 -0.5193  0.4774
 4653SOL    HW118610   3.704   0.239   0.635 -1.2438 -0.7630  1.3132
 4653SOL    HW218611   3.572   0.250   0.562  0.0281 -0.7324 -1.0588
 4653SOL     MW18612   3.657   0.228   0.563  0.0742 -0.5778  0.3878
 4654SOL     OW18613   0.320   5.229   2.946 -0.0292  0.0006  0.1848
 4654SOL    HW118614   0.388   5.217   2.879 -0.9541 -1.9250 -0.4968
 4654SOL    HW218615   0.358   5.291   3.008  1.5135  0.5853 -1.2567
 4654SOL     MW18616   0.334   5.235   2.945  0.0499 -0.1710 -0.0870
 4655SOL     OW18617   4.146   4.205   0.953  0.0023 -0.5350 -0.1990
 4655SOL    HW118618   4.191   4.289   0.948 -0.8674  0.0113  0.6250
 4655SOL    HW218619   4.122   4.196   1.045 -0.3235 -1.4703 -0.3584
 4655SOL     MW18620   4.149   4.214   0.964 -0.1508 -0.5848 -0.1140
 4656SOL     OW18621   1.373   0.693   2.432 -0.2968 -0.0892  0.3396
 4656SOL    HW118622   1.458   0.729   2.459 -0.0939  0.8108 -1.3595
 4656SOL    HW218623   1.374   0.603   2.464  1.0458  0.0860  0.8613
 4656SOL     MW18624   1.384   0.686   2.440 -0.0990  0.0485  0.1888
 4657SOL     OW18625   2.088   2.489   3.750 -0.3181  0.2545 -0.3854
 4657SOL    HW118626   2.096   2.559   3.685  1.2237  0.6328  0.1519
 4657SOL    HW218627   2.001   2.503   3.789 -1.3333 -0.0664 -2.3978
 4657SOL     MW18628   2.078   2.500   3.747 -0.2507  0.2618 -0.5742
 4658SOL     OW18629   3.421   4.761   0.865 -0.2715 -0.0493 -0.4338
 4658SOL    HW118630   3.498   4.756   0.808 -0.3124  2.6152 -0.8286
 4658SOL    HW218631   3.349   4.779   0.806 -1.0620 -1.3723  0.0748
 4658SOL     MW18632   3.422   4.762   0.850 -0.3779  0.1224 -0.4192
 4659SOL     OW18633   2.959   0.360   0.656 -0.3746 -0.2471  0.2149
 4659SOL    HW118634   2.941   0.269   0.634 -3.7041  0.3483 -0.0078
 4659SOL    HW218635   2.902   0.379   0.730 -0.4412  1.9126 -0.3150
 4659SOL     MW18636   2.950   0.351   0.662 -0.8094  0.1056  0.1185
 4660SOL     OW18637   1.550   2.149   5.134  0.3690 -0.2297 -0.0749
 4660SOL    HW118638   1.634   2.173   5.094  1.6438 -1.0088  1.9516
 4660SOL    HW218639   1.557   2.055   5.149 -0.9448 -0.3298  0.0103
 4660SOL     MW18640   1.562   2.140   5.130  0.3640 -0.3422  0.1955
 4661SOL     OW18641   4.002   4.809   5.076  0.5007 -0.0247 -0.2472
 4661SOL    HW118642   3.953   4.838   4.999 -0.1178  0.5497  0.3483
 4661SOL    HW218643   4.013   4.715   5.063  0.4970  0.0788 -1.0822
 4661SOL     MW18644   3.997   4.801   5.064  0.4211  0.0621 -0.2779
 4662SOL     OW18645   4.440   4.853   4.052 -0.4568 -0.5769  0.1005
 4662SOL    HW118646   4.492   4.804   4.116  2.1020 -3.1567 -3.5213
 4662SOL    HW218647   4.369   4.794   4.029 -1.0021  0.0733  0.0817
 4662SOL     MW18648   4.438   4.839   4.057 -0.1990 -0.8239 -0.3655
 4663SOL     OW18649   0.515   0.675   4.224  0.7494  0.4738  0.1860
 4663SOL    HW118650   0.521   0.763   4.261 -1.7584  1.4303 -1.4068
 4663SOL    HW218651   0.571   0.678   4.146  1.3331  0.3784  0.5993
 4663SOL     MW18652   0.522   0.687   4.219  0.5031  0.5841  0.0350
 4664SOL     OW18653   4.231   1.599   4.179  0.7108  0.4906  0.2007
 4664SOL    HW118654   4.254   1.508   4.163  0.6157  0.5511 -0.3160
 4664SOL    HW218655   4.280   1.648   4.112 -0.6104  0.6530 -0.7015
 4664SOL     MW18656   4.240   1.594   4.168  0.5295  0.5192  0.0190
 4665SOL     OW18657   4.790   0.143   1.004 -0.5318  0.1634 -0.0387
 4665SOL    HW118658   4.765   0.153   0.912 -1.1456 -0.9046 -0.0127
 4665SOL    HW218659   4.884   0.156   1.006 -0.4805 -0.0496 -0.8698
 4665SOL     MW18660   4.799   0.146   0.993 -0.6038 -0.0006 -0.1418
 4666SOL     OW18661   2.470   2.169   5.374  0.0372  0.2670  0.0943
 4666SOL    HW118662   2.384   2.179   5.413 -0.6304  0.2619 -1.3001
 4666SOL    HW218663   2.471   2.233   5.302  1.2326  0.3359  0.1525
 4666SOL     MW18664   2.459   2.179   5.370  0.1048  0.2751 -0.0767
 4667SOL     OW18665   3.913   2.029   4.393  0.7645  0.4011 -0.1964
 4667SOL    HW118666   3.919   2.018   4.488 -0.0833 -0.2049 -0.2015
 4667SOL    HW218667   3.845   1.967   4.366  0.8891  0.6775 -1.1822
 4667SOL     MW18668   3.905   2.020   4.402  0.6719  0.3589 -0.3233
 4668SOL     OW18669   0.259   2.445   0.519 -0.2332  0.2813  0.5512
 4668SOL    HW118670   0.205   2.402   0.452  0.7163 -0.3337  0.1483
 4668SOL    HW218671   0.273   2.377   0.585 -1.8149  1.1129  1.8055
 4668SOL     MW18672   0.254   2.430   0.519 -0.3141  0.3090  0.6602
 4669SOL     OW18673   1.155   4.566   1.619 -0.2119  0.0420 -0.1581
 4669SOL    HW118674   1.163   4.486   1.672  0.4397  0.7625  0.8673
 4669SOL    HW218675   1.065   4.596   1.635  0.6556  1.5595  2.5509
 4669SOL     MW18676   1.144   4.559   1.628 -0.0174  0.3285  0.3200
 4670SOL     OW18677   0.253   2.210   2.910  0.3056  0.3654 -0.3848
 4670SOL    HW118678   0.179   2.185   2.854  0.7405  0.1862 -0.8831
 4670SOL    HW218679   0.299   2.278   2.862  0.8923 -0.0451 -0.4206
 4670SOL     MW18680   0.249   2.215   2.897  0.4364  0.2899 -0.4532
 4671SOL     OW18681   2.260   3.530   2.374  0.2580 -0.2093 -0.1599
 4671SOL    HW118682   2.279   3.601   2.312 -0.2855 -0.2821 -0.4190
 4671SOL    HW218683   2.165   3.534   2.386  0.2513 -0.7598 -0.0138
 4671SOL     MW18684   2.250   3.539   2.368  0.1876 -0.2891 -0.1743
 4672SOL     OW18685   2.682   0.855   4.186 -0.0129  0.2221  0.1564
 4672SOL    HW118686   2.712   0.935   4.228 -2.8146  0.8598  1.1966
 4672SOL    HW218687   2.600   0.833   4.231 -0.0257 -2.5102 -0.9701
 4672SOL     MW18688   2.675   0.862   4.197 -0.3732 -0.0460  0.1453
 4673SOL     OW18689   2.934   1.467   2.418  0.3196  0.0018 -0.0016
 4673SOL    HW118690   2.964   1.437   2.504  0.8740 -1.4854 -0.6925
 4673SOL    HW218691   2.883   1.546   2.438 -1.3597 -1.4411  1.9201
 4673SOL     MW18692   2.932   1.473   2.432  0.1756 -0.3733  0.1560
 4674SOL     OW18693   2.323   5.074   0.071  0.1537  0.2966 -0.0193
 4674SOL    HW118694   2.232   5.088   0.096 -0.0631 -1.5052  0.3515
 4674SOL    HW218695   2.346   5.151   0.020 -2.0018  0.1956 -1.2914
 4674SOL     MW18696   2.314   5.086   0.068 -0.1500  0.0530 -0.1347
 4675SOL     OW18697   4.565   4.493   2.774 -0.0162 -0.3912  0.3460
 4675SOL    HW118698   4.473   4.517   2.782  0.4406  1.6077  0.0816
 4675SOL    HW218699   4.570   4.445   2.691 -0.3392  2.4882 -1.5035
 4675SOL     MW18700   4.554   4.490   2.764  0.0009  0.2333  0.0754
 4676SOL     OW18701   5.008   3.037   2.550  0.0406 -0.3925  0.2498
 4676SOL    HW118702   4.977   2.982   2.622  0.6975 -1.7802 -0.5080
 4676SOL    HW218703   4.977   2.993   2.471  1.1712 -0.0584 -0.3988
 4676SOL     MW18704   5.000   3.024   2.549  0.2694 -0.5273  0.0698
 4677SOL     OW18705   0.057   3.544   0.839  0.3752  0.2790 -0.0670
 4677SOL    HW118706  -0.015   3.480   0.842 -0.1218  0.7946 -0.6801
 4677SOL    HW218707   0.028   3.615   0.895  0.4309  0.4629 -0.2707
 4677SOL     MW18708   0.044   3.545   0.847  0.3187  0.3686 -0.1716
 4678SOL     OW18709   4.791   0.819   1.192  0.1778 -0.0660 -0.0774
 4678SOL    HW118710   4.697   0.832   1.190  0.0159 -1.0216  0.5918
 4678SOL    HW218711   4.828   0.902   1.162 -0.8113  1.1213  1.8125
 4678SOL     MW18712   4.784   0.831   1.188  0.0305 -0.0363  0.2502
 4679SOL     OW18713   0.481   0.802   3.151 -0.0237 -0.4513  0.0254
 4679SOL    HW118714   0.571   0.805   3.181  0.0872 -0.6724 -0.2792
 4679SOL    HW218715   0.474   0.874   3.089 -1.0426  1.9082  2.6742
 4679SOL     MW18716   0.491   0.812   3.147 -0.1399 -0.1776  0.3255
 4680SOL     OW18717   5.299   0.825   1.250 -0.1231 -0.0155 -0.1954
 4680SOL    HW118718   5.221   0.771   1.243 -1.0358  1.1963  0.2698
 4680SOL    HW218719   5.268   0.914   1.233  1.0614  0.5447  0.4570
 4680SOL     MW18720   5.285   0.829   1.247 -0.0883  0.2113 -0.0523
 4681SOL     OW18721   2.212   4.718   3.200  0.4443 -0.4318 -0.5403
 4681SOL    HW118722   2.175   4.732   3.287  1.7926 -0.3092  0.0225
 4681SOL    HW218723   2.142   4.671   3.152 -1.1009  1.2615 -0.0576
 4681SOL     MW18724   2.198   4.714   3.205  0.4191 -0.1993 -0.4065
 4682SOL     OW18725   0.310   1.233   4.255 -0.0971 -0.2891  0.1602
 4682SOL    HW118726   0.405   1.222   4.256 -0.0253  0.3164  1.4036
 4682SOL    HW218727   0.296   1.328   4.257 -0.7522 -0.2960 -1.6260
 4682SOL     MW18728   0.320   1.244   4.255 -0.1717 -0.2125  0.0907
 4683SOL     OW18729   1.491   2.505   2.328  0.1878 -0.2210 -0.0831
 4683SOL    HW118730   1.535   2.581   2.289  0.2230 -1.4188 -2.5346
 4683SOL    HW218731   1.433   2.543   2.395  0.2676  1.9760 -1.1723
 4683SOL     MW18732   1.489   2.520   2.332  0.2026 -0.0931 -0.5364
 4684SOL     OW18733   2.393   3.804   5.409 -0.0343 -0.5471 -0.2893
 4684SOL    HW118734   2.363   3.721   5.372  2.1292 -1.8119  0.6275
 4684SOL    HW218735   2.480   3.816   5.372  0.6568  0.0546  1.4418
 4684SOL     MW18736   2.400   3.795   5.400  0.3312 -0.6320  0.0497
 4685SOL     OW18737   1.407   3.780   0.482 -0.0626  0.2469  0.6531
 4685SOL    HW118738   1.326   3.819   0.517  0.0411  0.8656  0.2150
 4685SOL    HW218739   1.391   3.686   0.485 -1.0755  0.3806 -0.0743
 4685SOL     MW18740   1.394   3.773   0.487 -0.1790  0.3432  0.5039
 4686SOL     OW18741   4.240   1.903   3.304 -0.0952 -0.4464 -0.2638
 4686SOL    HW118742   4.307   1.951   3.353 -0.4509  0.7776 -0.9602
 4686SOL    HW218743   4.225   1.955   3.226 -1.2201 -1.1834 -0.5561
 4686SOL     MW18744   4.247   1.916   3.300 -0.2847 -0.3841 -0.3903
 4687SOL     OW18745   3.292   3.819   2.920 -0.9371 -0.2818  0.0629
 4687SOL    HW118746   3.358   3.763   2.879 -0.9615 -0.1124 -0.2116
 4687SOL    HW218747   3.285   3.895   2.862 -0.2690  0.4295  0.8944
 4687SOL     MW18748   3.299   3.821   2.907 -0.8547 -0.1691  0.1342
 4688SOL     OW18749   4.745   0.844   2.728  0.2099  0.2544 -0.1018
 4688SOL    HW118750   4.735   0.749   2.737 -0.6903  0.2874 -0.6213
 4688SOL    HW218751   4.771   0.858   2.637 -1.0721  0.5799 -0.4417
 4688SOL     MW18752   4.747   0.834   2.718 -0.0695  0.3003 -0.2118
 4689SOL     OW18753   2.902   4.847   5.409  0.7526 -0.5342  0.2524
 4689SOL    HW118754   2.929   4.882   5.324  1.2325 -1.8454 -0.1645
 4689SOL    HW218755   2.974   4.789   5.435  0.6160 -0.1615  1.5748
 4689SOL     MW18756   2.915   4.844   5.402  0.7965 -0.6544  0.3683
 4690SOL     OW18757   2.636   4.742   3.911  0.3607  0.2102 -0.1387
 4690SOL    HW118758   2.708   4.716   3.968 -1.4943 -0.9167  1.8221
 4690SOL    HW218759   2.618   4.833   3.935  0.1072 -0.0069  0.4883
 4690SOL     MW18760   2.643   4.751   3.921  0.0908  0.0382  0.1926
 4691SOL     OW18761   0.261   1.555   2.365  0.4407  0.2284  0.5664
 4691SOL    HW118762   0.218   1.471   2.352 -1.1273  1.1184 -0.3458
 4691SOL    HW218763   0.349   1.543   2.330  0.2475 -1.0383  0.4849
 4691SOL     MW18764   0.267   1.543   2.359  0.2152  0.1802  0.4392
 4692SOL     OW18765   3.561   2.232   4.566  0.6353  0.2389 -0.0886
 4692SOL    HW118766   3.620   2.217   4.492  0.2783  0.6229 -0.4572
 4692SOL    HW218767   3.508   2.306   4.539 -1.3310 -1.2744 -0.5735
 4692SOL     MW18768   3.562   2.240   4.553  0.3379  0.0944 -0.1978
 4693SOL     OW18769   1.575   1.396   0.308  0.2667  0.0130  0.3186
 4693SOL    HW118770   1.521   1.442   0.244 -0.1285  0.9574  1.2960
 4693SOL    HW218771   1.573   1.304   0.280 -0.4604  0.3047 -0.6202
 4693SOL     MW18772   1.568   1.390   0.296  0.1230  0.1712  0.3236
 4694SOL     OW18773   3.538   0.549   2.902  0.0765  0.3308  0.0134
 4694SOL    HW118774   3.597   0.486   2.860  0.5609  0.0880  1.0339
 4694SOL    HW218775   3.460   0.550   2.845  1.3883  1.3417 -1.8690
 4694SOL     MW18776   3.535   0.541   2.889  0.3064  0.4291 -0.0969
 4695SOL     OW18777   2.484   1.219   4.533  0.4369  0.2490  0.6068
 4695SOL    HW118778   2.524   1.291   4.583  1.1290  0.0653  0.3312
 4695SOL    HW218779   2.404   1.257   4.497  1.3796  1.2629 -0.5288
 4695SOL     MW18780   2.479   1.233   4.535  0.6462  0.3553  0.4262
 4696SOL     OW18781   1.910   4.774   1.014  0.1187  0.5827 -0.0151
 4696SOL    HW118782   1.918   4.771   1.109 -0.4157  1.5525  0.0684
 4696SOL    HW218783   1.996   4.802   0.984  0.8479 -1.4286  0.0435
 4696SOL     MW18784   1.922   4.777   1.022  0.1436  0.4494  0.0031
 4697SOL     OW18785   3.436   0.691   3.908  0.4665  0.2803 -0.1674
 4697SOL    HW118786   3.350   0.724   3.934  0.3717 -0.1360  0.0402
 4697SOL    HW218787   3.456   0.739   3.827  0.2679  0.7487  0.0537
 4697SOL     MW18788   3.428   0.702   3.901  0.4290  0.2870 -0.1125
 4698SOL     OW18789   4.198   4.431   5.210 -0.1240  0.1575 -0.0004
 4698SOL    HW118790   4.250   4.504   5.245  2.4043 -1.0933 -0.9532
 4698SOL    HW218791   4.143   4.471   5.143  0.3028  1.3674  0.3445
 4698SOL     MW18792   4.197   4.446   5.206  0.2543  0.1523 -0.0782
 4699SOL     OW18793   4.565   0.084   3.692 -0.4885 -0.6981  0.4245
 4699SOL    HW118794   4.607   0.000   3.712  0.6512 -1.1516 -3.0324
 4699SOL    HW218795   4.625   0.150   3.727 -0.1835 -1.3330  1.1159
 4699SOL     MW18796   4.578   0.082   3.699 -0.3036 -0.8374  0.0705
 4700SOL     OW18797   5.451   1.522   5.223 -0.4216 -0.2255 -0.3996
 4700SOL    HW118798   5.528   1.579   5.213 -0.5821 -0.1013 -1.0319
 4700SOL    HW218799   5.392   1.550   5.153 -0.9203 -0.5180 -0.1033
 4700SOL     MW18800   5.454   1.533   5.212 -0.5060 -0.2470 -0.4426
 4701SOL     OW18801   4.745   0.183   2.221 -0.3242 -0.2767 -0.1297
 4701SOL    HW118802   4.673   0.227   2.266  0.5467  0.9694  0.1097
 4701SOL    HW218803   4.709   0.099   2.194 -1.4603 -0.2390  1.1628
 4701SOL     MW18804   4.731   0.178   2.223 -0.3581 -0.1123  0.0664
 4702SOL     OW18805   0.637   4.504   2.755  0.4663  0.3514  0.2704
 4702SOL    HW118806   0.567   4.508   2.821 -0.5779 -1.2177 -0.6762
 4702SOL    HW218807   0.717   4.518   2.805 -0.4323  1.1595  1.5558
 4702SOL     MW18808   0.638   4.506   2.770  0.2176  0.2540  0.3138
 4703SOL     OW18809   4.671   3.545   3.178 -0.3272 -0.4735 -0.3462
 4703SOL    HW118810   4.687   3.551   3.272  1.4599 -0.0406 -0.6368
 4703SOL    HW218811   4.582   3.578   3.167 -0.9768 -1.5239  1.2920
 4703SOL     MW18812   4.662   3.550   3.189 -0.1816 -0.5525 -0.1737
 4704SOL     OW18813   3.117   4.137   3.622  0.0803  0.6939 -0.1067
 4704SOL    HW118814   3.094   4.184   3.702  1.2562  0.7043  0.2379
 4704SOL    HW218815   3.200   4.177   3.594  0.0480  0.2009 -0.9326
 4704SOL     MW18816   3.125   4.148   3.628  0.2267  0.6321 -0.1684
 4705SOL     OW18817   4.035   2.671   2.497 -0.1013  0.3460  0.1305
 4705SOL    HW118818   4.084   2.675   2.414  0.9377  0.2299  0.7270
 4705SOL    HW218819   4.015   2.578   2.508  0.3609  0.2719  0.3516
 4705SOL     MW18820   4.039   2.660   2.488  0.0909  0.3217  0.2351
 4706SOL     OW18821   5.374   0.335   5.488  0.4597  0.3242  0.7079
 4706SOL    HW118822   5.377   0.242   5.469  0.0534  0.6078 -0.8730
 4706SOL    HW218823   5.438   0.374   5.428 -0.1582  1.1648  0.5789
 4706SOL     MW18824   5.382   0.328   5.478  0.3286  0.4681  0.4890
 4707SOL     OW18825   1.637   2.702   1.707  0.1757  0.2968  0.0195
 4707SOL    HW118826   1.642   2.790   1.671 -1.2840 -0.2052 -1.5168
 4707SOL    HW218827   1.727   2.681   1.731  1.0712  1.0736 -2.4117
 4707SOL     MW18828   1.649   2.710   1.706  0.1035  0.3320 -0.4884
 4708SOL     OW18829   0.888   1.073   3.282 -0.2228 -0.2946  0.1027
 4708SOL    HW118830   0.919   1.011   3.216 -0.7816 -0.8564  0.3653
 4708SOL    HW218831   0.967   1.098   3.330  0.0288 -0.6637 -0.1180
 4708SOL     MW18832   0.902   1.068   3.279 -0.2621 -0.4138  0.1080
 4709SOL     OW18833   3.698   4.262   2.070  0.1280  0.3444  0.0686
 4709SOL    HW118834   3.792   4.246   2.079  0.2547  0.9238 -0.1818
 4709SOL    HW218835   3.688   4.356   2.085 -0.4139  0.2850  0.1005
 4709SOL     MW18836   3.709   4.272   2.073  0.0749  0.4110  0.0407
 4710SOL     OW18837   3.801   0.321   5.094 -0.3095 -0.2285 -0.0562
 4710SOL    HW118838   3.714   0.310   5.057 -0.1811  0.2973 -0.5343
 4710SOL    HW218839   3.795   0.403   5.145  0.1004  0.2171 -0.7055
 4710SOL     MW18840   3.789   0.330   5.096 -0.2406 -0.1042 -0.2005
 4711SOL     OW18841   3.843   2.971   4.445  0.2261  0.0165  0.0264
 4711SOL    HW118842   3.868   2.947   4.356 -1.8153 -0.5507 -0.4532
 4711SOL    HW218843   3.824   2.888   4.488 -0.0188  0.3603  0.5972
 4711SOL     MW18844   3.844   2.957   4.439 -0.0666 -0.0121  0.0381
 4712SOL     OW18845   2.816   0.736   3.835 -0.6751  0.3495 -0.2305
 4712SOL    HW118846   2.883   0.709   3.771 -0.2617  0.1491  0.2817
 4712SOL    HW218847   2.741   0.763   3.781  0.1222  1.4309 -0.8484
 4712SOL     MW18848   2.815   0.736   3.820 -0.5201  0.4623 -0.2441
 4713SOL     OW18849   3.981   0.592   3.980 -0.5517 -0.9434 -0.6091
 4713SOL    HW118850   3.919   0.650   3.936  1.4706 -0.0152 -2.3858
 4713SOL    HW218851   3.970   0.612   4.073 -1.5570  0.5686 -1.0114
 4713SOL     MW18852   3.971   0.602   3.986 -0.4215 -0.6310 -0.8881
 4714SOL     OW18853   2.371   4.564   2.518 -0.6165 -0.2926  1.0973
 4714SOL    HW118854   2.458   4.525   2.519 -0.9850 -1.1431  0.6058
 4714SOL    HW218855   2.385   4.655   2.489  0.3374  0.2032  2.9783
 4714SOL     MW18856   2.384   4.571   2.515 -0.5416 -0.3380  1.2752
 4715SOL     OW18857   2.475   2.793   0.737  0.2678 -0.0070 -0.0352
 4715SOL    HW118858   2.463   2.858   0.667  2.2062  1.0475  0.5509
 4715SOL    HW218859   2.398   2.805   0.793  1.2377  2.8739  0.8469
 4715SOL     MW18860   2.463   2.803   0.735  0.6401  0.4968  0.1528
 4716SOL     OW18861   2.917   3.834   5.041  0.4634 -0.3263 -0.2075
 4716SOL    HW118862   2.905   3.870   4.953  2.1702 -3.2236 -1.7888
 4716SOL    HW218863   2.933   3.910   5.096 -2.1089  1.7535 -2.0340
 4716SOL     MW18864   2.917   3.848   5.037  0.3526 -0.4309 -0.6437
 4717SOL     OW18865   5.354   0.007   4.799  0.0039  0.4561 -0.5536
 4717SOL    HW118866   5.282  -0.036   4.845 -0.3666  2.1737  0.5739
 4717SOL    HW218867   5.375   0.083   4.854  0.7938  1.5566 -2.2876
 4717SOL     MW18868   5.347   0.012   4.812  0.0576  0.8169 -0.6313
 4718SOL     OW18869   2.078   0.836   2.751  0.1669  0.0177  0.5572
 4718SOL    HW118870   2.075   0.793   2.666  1.4485 -0.1471  0.5770
 4718SOL    HW218871   2.092   0.929   2.730 -0.5492  0.1406  0.5766
 4718SOL     MW18872   2.079   0.843   2.737  0.2393  0.0123  0.5622
 4719SOL     OW18873   1.397   5.373   0.414  0.6671  0.0648 -0.0755
 4719SOL    HW118874   1.396   5.322   0.495 -0.4934  0.7752  0.3931
 4719SOL    HW218875   1.490   5.389   0.396  0.9686 -0.7532  0.6922
 4719SOL     MW18876   1.409   5.369   0.422  0.5571  0.0511  0.0828
 4720SOL     OW18877   2.039   1.209   4.729  0.1739 -0.2819  0.0870
 4720SOL    HW118878   2.100   1.219   4.801 -0.6260  2.8800  0.4782
 4720SOL    HW218879   1.954   1.194   4.771 -0.0696  0.1585 -0.2363
 4720SOL     MW18880   2.036   1.208   4.743  0.0403  0.1792  0.0957
 4721SOL     OW18881   3.445   0.848   1.508 -0.1568  0.5490 -0.5564
 4721SOL    HW118882   3.441   0.764   1.463  0.8541  0.5265 -0.6208
 4721SOL    HW218883   3.538   0.861   1.526 -0.2747  1.7602 -0.7501
 4721SOL     MW18884   3.456   0.839   1.505 -0.0425  0.7012 -0.5894
 4722SOL     OW18885   5.031   2.757   5.280 -0.0179 -0.6282 -0.0415
 4722SOL    HW118886   4.941   2.748   5.249  0.8189  0.5383 -3.1011
 4722SOL    HW218887   5.070   2.671   5.265 -0.3158 -0.8146  0.2385
 4722SOL     MW18888   5.024   2.745   5.274  0.0511 -0.5027 -0.3973
 4723SOL     OW18889   0.582   3.980   4.465 -0.0676  0.1903  0.4878
 4723SOL    HW118890   0.604   4.058   4.415  1.5859  1.3793  2.8655
 4723SOL    HW218891   0.651   3.917   4.443  0.9136  0.8674  1.5042
 4723SOL     MW18892   0.594   3.982   4.456  0.2697  0.4292  0.9223
 4724SOL     OW18893   0.990   4.555   0.058 -0.4872  0.4801  0.4689
 4724SOL    HW118894   1.008   4.649   0.056 -0.5947  0.5150  0.9923
 4724SOL    HW218895   0.896   4.549   0.077 -0.5045  0.2666  0.3215
 4724SOL     MW18896   0.980   4.566   0.060 -0.5031  0.4572  0.5171
 4725SOL     OW18897   1.298   2.471   3.424 -0.2692 -0.5202 -0.2823
 4725SOL    HW118898   1.297   2.420   3.343  0.2281  0.1180 -0.7028
 4725SOL    HW218899   1.321   2.407   3.491  0.4274 -0.8530 -0.8125
 4725SOL     MW18900   1.301   2.456   3.422 -0.1164 -0.4811 -0.4040
 4726SOL     OW18901   3.921   5.436   1.495  0.4630 -0.1888 -0.7108
 4726SOL    HW118902   3.871   5.372   1.445 -1.9240  1.3798 -0.5386
 4726SOL    HW218903   4.000   5.453   1.444  0.5932 -2.3780 -1.2947
 4726SOL     MW18904   3.925   5.430   1.482  0.1741 -0.2682 -0.7635
 4727SOL     OW18905   0.528   4.322   4.532  0.4698 -0.3672 -0.0440
 4727SOL    HW118906   0.568   4.297   4.448  0.9132 -1.4200  0.4680
 4727SOL    HW218907   0.453   4.376   4.507  1.1261  0.1027 -1.0859
 4727SOL     MW18908   0.524   4.326   4.518  0.6106 -0.4418 -0.1118
 4728SOL     OW18909   4.026   3.936   5.147 -0.2520 -0.8713  0.1602
 4728SOL    HW118910   4.044   4.010   5.205  0.5003 -2.5432  2.1634
 4728SOL    HW218911   3.932   3.922   5.155 -0.8407  1.1149 -1.9323
 4728SOL     MW18912   4.016   3.944   5.155 -0.2311 -0.8311  0.1488
 4729SOL     OW18913   3.790   5.121   0.942  0.3656 -0.2551  0.2576
 4729SOL    HW118914   3.852   5.186   0.910  0.3536 -0.8152 -0.9413
 4729SOL    HW218915   3.843   5.043   0.959  0.0186 -0.7176 -0.7164
 4729SOL     MW18916   3.805   5.119   0.940  0.3197 -0.3860 -0.0205
 4730SOL     OW18917   4.737   5.298   4.116  0.5646  0.0415  0.0005
 4730SOL    HW118918   4.695   5.312   4.031  0.3454  0.4036  0.1659
 4730SOL    HW218919   4.683   5.233   4.160 -0.2186  0.9869  0.4773
 4730SOL     MW18920   4.725   5.292   4.111  0.4363  0.2089  0.0827
 4731SOL     OW18921   1.285   1.813   5.037 -0.3602  0.1547  0.5101
 4731SOL    HW118922   1.373   1.824   5.002 -0.2390 -1.0198  0.4034
 4731SOL    HW218923   1.231   1.877   4.989  0.0729 -0.4225 -0.7943
 4731SOL     MW18924   1.289   1.823   5.026 -0.2893 -0.0695  0.3295
 4732SOL     OW18925   3.250   4.859   2.939 -0.1321 -0.6250  0.0934
 4732SOL    HW118926   3.245   4.810   2.857  0.4026  0.2816 -0.4885
 4732SOL    HW218927   3.326   4.917   2.929 -1.6913  1.5272  0.0973
 4732SOL     MW18928   3.259   4.860   2.928 -0.2632 -0.2334  0.0194
 4733SOL     OW18929   4.718   3.526   5.187 -0.5756 -0.4944  0.8729
 4733SOL    HW118930   4.727   3.619   5.209  0.5059 -0.4408  0.2344
 4733SOL    HW218931   4.641   3.523   5.130 -0.6914 -0.0097  0.9976
 4733SOL     MW18932   4.709   3.538   5.183 -0.4520 -0.4255  0.8071
 4734SOL     OW18933   0.985   0.099   0.749 -0.4425  0.1702  0.0480
 4734SOL    HW118934   0.934   0.020   0.765  1.4139 -1.1476 -0.2001
 4734SOL    HW218935   1.024   0.119   0.834  0.0706  0.0726 -0.1586
 4734SOL     MW18936   0.984   0.091   0.762 -0.1392 -0.0110 -0.0102
 4735SOL     OW18937   2.713   1.501   0.238 -0.0253  0.2516 -0.0965
 4735SOL    HW118938   2.724   1.525   0.146  3.0780  2.2587  0.6631
 4735SOL    HW218939   2.622   1.525   0.258 -0.2609  1.3660 -2.2109
 4735SOL     MW18940   2.703   1.507   0.229  0.3418  0.6512 -0.2699
 4736SOL     OW18941   3.543   2.981   0.712 -0.2644 -0.6346  0.1417
 4736SOL    HW118942   3.454   3.016   0.720  0.1795  0.8319 -0.8784
 4736SOL    HW218943   3.538   2.893   0.751 -1.7166  0.0985  1.7367
 4736SOL     MW18944   3.531   2.974   0.718 -0.3935 -0.3530  0.2153
 4737SOL     OW18945   4.236   1.517   4.656  0.3678  0.0906  0.2578
 4737SOL    HW118946   4.187   1.467   4.720 -2.7003  0.5249 -1.5229
 4737SOL    HW218947   4.293   1.453   4.614  0.0373 -0.8748  1.2305
 4737SOL     MW18948   4.237   1.503   4.658 -0.0672  0.0227  0.1543
 4738SOL     OW18949   2.761   3.993   3.275  0.0795  0.2615 -0.4150
 4738SOL    HW118950   2.842   3.949   3.249  0.4508  0.2206  0.7538
 4738SOL    HW218951   2.727   4.031   3.194 -0.9548 -3.2259 -1.7710
 4738SOL     MW18952   2.767   3.992   3.261 -0.0053 -0.1902 -0.4389
 4739SOL     OW18953   1.196   3.244   1.429  0.3626 -0.0159 -0.1621
 4739SOL    HW118954   1.279   3.211   1.394 -0.0746  1.0687 -2.3729
 4739SOL    HW218955   1.203   3.339   1.423 -0.2987  0.1744  1.5224
 4739SOL     MW18956   1.207   3.252   1.424  0.2220  0.1473 -0.2295
 4740SOL     OW18957   2.116   2.693   1.916  0.4345 -0.6089  0.0702
 4740SOL    HW118958   2.142   2.604   1.890 -0.7022 -1.0310  0.3069
 4740SOL    HW218959   2.199   2.738   1.934  1.0700 -1.3522 -0.8954
 4740SOL     MW18960   2.130   2.687   1.915  0.3703 -0.7581 -0.0231
 4741SOL     OW18961   0.835   4.642   4.470 -0.5588  0.0494  0.1427
 4741SOL    HW118962   0.835   4.557   4.426 -1.3030 -0.7307  1.5605
 4741SOL    HW218963   0.901   4.634   4.539 -2.6860 -0.5495  2.2620
 4741SOL     MW18964   0.843   4.630   4.473 -0.9264 -0.1271  0.5955
 4742SOL     OW18965   0.203   0.877   3.722 -0.1498  0.0731  0.2290
 4742SOL    HW118966   0.170   0.953   3.674 -1.6543 -0.9026 -0.3469
 4742SOL    HW218967   0.159   0.802   3.683  0.8990 -1.0719  1.1340
 4742SOL     MW18968   0.193   0.877   3.711 -0.2082 -0.1984  0.2711
 4743SOL     OW18969   0.222   0.908   0.564 -0.4646 -0.3320 -0.6146
 4743SOL    HW118970   0.308   0.907   0.606 -0.4777  1.5366 -0.4501
 4743SOL    HW218971   0.222   0.830   0.508  0.7679 -1.1491  0.4467
 4743SOL     MW18972   0.233   0.898   0.563 -0.3085 -0.1974 -0.4577
 4744SOL     OW18973   2.042   3.111   0.870  0.3589  0.4489  0.1968
 4744SOL    HW118974   2.071   3.192   0.828 -2.7801  0.7747 -1.6163
 4744SOL    HW218975   2.045   3.046   0.801 -1.6887  0.1964  0.2827
 4744SOL     MW18976   2.046   3.113   0.856 -0.3050  0.4583 -0.0243
 4745SOL     OW18977   1.736   3.853   0.097  0.3232 -0.1342  0.3051
 4745SOL    HW118978   1.642   3.844   0.112  0.4771 -0.1394  1.4021
 4745SOL    HW218979   1.750   3.947   0.087 -0.0445 -0.2724 -1.8349
 4745SOL     MW18980   1.726   3.864   0.098  0.2959 -0.1525  0.1715
 4746SOL     OW18981   1.679   4.491   0.789 -0.0236 -0.0667 -0.5978
 4746SOL    HW118982   1.698   4.465   0.699  0.6942  0.5124 -0.6263
 4746SOL    HW218983   1.758   4.538   0.818 -1.0463  1.6231 -0.3842
 4746SOL     MW18984   1.691   4.494   0.781 -0.0626  0.2237 -0.5741
 4747SOL     OW18985   1.877   2.726   3.478 -0.0089  0.2972 -0.1284
 4747SOL    HW118986   1.858   2.755   3.389 -2.0775 -0.7413 -0.0816
 4747SOL    HW218987   1.883   2.807   3.529  0.6194  0.8690 -1.0804
 4747SOL     MW18988   1.875   2.740   3.473 -0.1933  0.2375 -0.2443
 4748SOL     OW18989   2.028   0.745   2.504 -0.1804 -0.6434  0.0789
 4748SOL    HW118990   1.983   0.663   2.525 -0.0103 -0.9200 -0.6134
 4748SOL    HW218991   2.102   0.719   2.450 -0.3829  0.0124 -0.5288
 4748SOL     MW18992   2.032   0.731   2.500 -0.1845 -0.5948 -0.0875
 4749SOL     OW18993   3.375   0.353   3.413  0.0751  0.3400  0.1650
 4749SOL    HW118994   3.419   0.357   3.328 -2.3546  0.0787 -1.1948
 4749SOL    HW218995   3.302   0.415   3.405 -0.3790  0.0804  1.9506
 4749SOL     MW18996   3.371   0.362   3.401 -0.2941  0.2733  0.2195
 4750SOL     OW18997   1.617   3.467   5.222 -0.4989  0.1424 -0.0211
 4750SOL    HW118998   1.579   3.537   5.169  1.3759  0.5145 -0.9568
 4750SOL    HW218999   1.632   3.507   5.307 -0.6581  0.4832 -0.1500
 4750SOL     MW19000   1.614   3.481   5.226 -0.2793  0.2337 -0.1574
 4751SOL     OW19001   3.469   3.723   0.052  0.1589 -0.0246  0.6143
 4751SOL    HW119002   3.419   3.644   0.069 -0.5969 -0.0243 -1.3361
 4751SOL    HW219003   3.404   3.793   0.046  0.2389 -0.0640 -2.1922
 4751SOL     MW19004   3.454   3.722   0.053  0.0724 -0.0296  0.0053
 4752SOL     OW19005   3.268   1.496   4.718  0.2465 -0.3131  1.2491
 4752SOL    HW119006   3.351   1.470   4.678 -1.1965 -1.3701 -1.2803
 4752SOL    HW219007   3.248   1.580   4.677 -0.0034 -0.0972  1.8006
 4752SOL     MW19008   3.276   1.504   4.708  0.0298 -0.4208  0.9959
 4753SOL     OW19009   4.078   5.269   4.426 -0.3782  0.8025  0.1408
 4753SOL    HW119010   4.114   5.181   4.435 -0.3694  0.7199 -0.6351
 4753SOL    HW219011   4.100   5.313   4.508  0.4266  0.3768  0.1593
 4753SOL     MW19012   4.085   5.263   4.438 -0.2741  0.7374  0.0439
 4754SOL     OW19013   0.051   0.666   4.364 -0.9427  0.3323  0.3330
 4754SOL    HW119014   0.043   0.751   4.320  0.3448 -0.2419 -1.1293
 4754SOL    HW219015   0.027   0.603   4.296  1.3114 -0.6018  0.2922
 4754SOL     MW19016   0.047   0.669   4.350 -0.4893  0.1392  0.1406
 4755SOL     OW19017   1.964   4.361   1.996  0.4285  0.1519 -0.0278
 4755SOL    HW119018   2.035   4.357   2.060 -0.3761  1.4604  0.9909
 4755SOL    HW219019   1.996   4.311   1.921  1.8766 -0.4009  0.9267
 4755SOL     MW19020   1.977   4.354   1.995  0.5109  0.2486  0.2248
 4756SOL     OW19021   5.443   3.390   2.520  0.0869 -0.0722 -0.8699
 4756SOL    HW119022   5.397   3.337   2.455  0.4236  0.3171 -1.4367
 4756SOL    HW219023   5.373   3.432   2.571 -0.1771 -0.7048 -0.7115
 4756SOL     MW19024   5.428   3.389   2.518  0.0962 -0.1033 -0.9222
 4757SOL     OW19025   0.029   3.719   2.261  0.9274  0.2976 -0.0880
 4757SOL    HW119026   0.074   3.684   2.338 -0.2902  0.3192  0.6646
 4757SOL    HW219027  -0.059   3.741   2.293  1.0845  2.3972 -0.9387
 4757SOL     MW19028   0.023   3.718   2.275  0.7916  0.5691 -0.1006
 4758SOL     OW19029   1.634   4.768   2.615  0.0648 -0.6996 -0.0117
 4758SOL    HW119030   1.653   4.816   2.534 -0.1701  2.7609  1.7962
 4758SOL    HW219031   1.541   4.783   2.629  0.2883 -0.4845  1.3188
 4758SOL     MW19032   1.624   4.776   2.606  0.0633 -0.2291  0.3900
 4759SOL     OW19033   4.038   4.381   3.424  0.3885 -0.2283 -0.2257
 4759SOL    HW119034   3.979   4.455   3.418 -0.0953 -0.6999 -1.7823
 4759SOL    HW219035   3.992   4.317   3.478  0.0528 -0.0550 -0.3048
 4759SOL     MW19036   4.025   4.382   3.430  0.2836 -0.2665 -0.4351
 4760SOL     OW19037   3.594   2.729   3.272 -0.2790  0.2981  0.2604
 4760SOL    HW119038   3.576   2.812   3.316 -0.8429 -0.1526  0.9124
 4760SOL    HW219039   3.508   2.694   3.249  0.0118  0.7396 -1.6869
 4760SOL     MW19040   3.581   2.735   3.275 -0.3139  0.2969  0.0946
 4761SOL     OW19041   2.390   3.154   5.284 -0.1228  0.3616  0.1818
 4761SOL    HW119042   2.469   3.188   5.242  1.7074 -1.3461  2.0381
 4761SOL    HW219043   2.406   3.061   5.295 -2.4594 -0.0638  0.5569
 4761SOL     MW19044   2.402   3.147   5.280 -0.1876  0.0885  0.4674
 4762SOL     OW19045   0.702   0.737   5.393  0.0457 -0.1293  0.0852
 4762SOL    HW119046   0.648   0.790   5.335  2.1439 -0.0912 -1.9765
 4762SOL    HW219047   0.707   0.787   5.474  2.6847  3.4686 -2.0330
 4762SOL     MW19048   0.696   0.750   5.396  0.6521  0.3361 -0.4499
 4763SOL     OW19049   5.018   5.345   3.173  0.2996 -0.2671 -0.5814
 4763SOL    HW119050   5.030   5.276   3.108 -1.5239 -0.6675 -0.5656
 4763SOL    HW219051   4.945   5.397   3.139  1.4200  1.4884 -0.4289
 4763SOL     MW19052   5.010   5.343   3.161  0.2096 -0.0937 -0.5598
 4764SOL     OW19053   1.126   4.461   0.530  0.2132 -0.1387  0.2940
 4764SOL    HW119054   1.197   4.399   0.549  1.2600  0.6943 -0.7509
 4764SOL    HW219055   1.149   4.498   0.445 -1.0386  0.7778  0.3338
 4764SOL     MW19056   1.138   4.458   0.522  0.1870  0.0852  0.1653
 4765SOL     OW19057   3.095   2.955   4.232  0.0347 -0.5193  0.3154
 4765SOL    HW119058   3.182   2.943   4.194  0.2010 -3.3302  1.3206
 4765SOL    HW219059   3.035   2.913   4.169 -0.0600 -2.2612  1.5088
 4765SOL     MW19060   3.098   2.948   4.219  0.0438 -1.1021  0.5968
 4766SOL     OW19061   0.227   1.833   5.364  0.0711  0.7093 -0.2325
 4766SOL    HW119062   0.165   1.829   5.291 -1.3930  0.5952  0.9769
 4766SOL    HW219063   0.264   1.745   5.369 -1.5498  0.0349  0.5739
 4766SOL     MW19064   0.224   1.821   5.355 -0.3238  0.6084  0.0255
 4767SOL     OW19065   1.582   1.044   1.190 -0.2359  0.4167  0.6287
 4767SOL    HW119066   1.498   1.083   1.215 -0.0039  0.4635  1.3391
 4767SOL    HW219067   1.584   0.959   1.235 -0.1597  0.1470  0.1335
 4767SOL     MW19068   1.572   1.038   1.199 -0.1964  0.3882  0.6562
 4768SOL     OW19069   4.794   4.374   2.449 -0.1585  0.9875 -0.1126
 4768SOL    HW119070   4.829   4.422   2.373  1.5927  1.7375  1.0944
 4768SOL    HW219071   4.702   4.398   2.453 -0.4859  0.3481 -2.4077
 4768SOL     MW19072   4.787   4.383   2.440  0.0238  1.0017 -0.2519
 4769SOL     OW19073   0.513   1.356   4.005  0.1714  0.4141  0.2306
 4769SOL    HW119074   0.519   1.317   3.918  1.2566  0.4656  0.2713
 4769SOL    HW219075   0.419   1.357   4.024 -0.1164  0.6843 -1.0648
 4769SOL     MW19076   0.502   1.351   3.996  0.2735  0.4553  0.0700
 4770SOL     OW19077   3.681   3.441   4.726 -0.4642 -0.2725  0.5008
 4770SOL    HW119078   3.736   3.366   4.704 -1.5037 -0.9873  0.2377
 4770SOL    HW219079   3.695   3.455   4.820  0.8370  0.1457  0.2672
 4770SOL     MW19080   3.690   3.433   4.735 -0.4307 -0.3105  0.4372
 4771SOL     OW19081   2.225   1.872   1.609  0.0032  0.5880  0.4757
 4771SOL    HW119082   2.258   1.795   1.657  0.8424  0.2967 -0.5161
 4771SOL    HW219083   2.145   1.897   1.655  0.5110  0.0244  1.7126
 4771SOL     MW19084   2.219   1.865   1.621  0.1756  0.4786  0.5071
 4772SOL     OW19085   0.795   0.942   0.406  0.0996  0.0857 -0.2355
 4772SOL    HW119086   0.867   0.945   0.344  0.6227  1.2531  0.4074
 4772SOL    HW219087   0.812   1.013   0.467 -1.3202  0.0595  0.2393
 4772SOL     MW19088   0.806   0.951   0.406 -0.0152  0.2318 -0.0925
 4773SOL     OW19089   0.756   1.439   0.852 -0.2157  0.2187 -0.1289
 4773SOL    HW119090   0.805   1.496   0.911 -0.0603  1.1312 -1.1058
 4773SOL    HW219091   0.726   1.497   0.782 -1.0217 -0.6963 -0.5655
 4773SOL     MW19092   0.759   1.454   0.851 -0.2990  0.2184 -0.3099
 4774SOL     OW19093   0.291   0.501   2.694  0.0245 -0.3542 -0.1313
 4774SOL    HW119094   0.227   0.446   2.739  1.0880 -1.1819  0.4246
 4774SOL    HW219095   0.363   0.441   2.673  0.3319  0.4053 -1.3496
 4774SOL     MW19096   0.292   0.486   2.697  0.2000 -0.3629 -0.2161
 4775SOL     OW19097   1.615   2.998   0.176  0.2154 -0.4077 -0.1929
 4775SOL    HW119098   1.705   3.006   0.146  0.7426  0.3516  1.4634
 4775SOL    HW219099   1.584   3.088   0.185 -0.8023 -0.6610 -0.9569
 4775SOL     MW19100   1.623   3.010   0.174  0.1526 -0.3429 -0.0787
 4776SOL     OW19101   1.922   3.041   4.361 -0.2278 -0.5276 -0.4712
 4776SOL    HW119102   1.872   3.069   4.284  0.3235  1.3051 -0.2212
 4776SOL    HW219103   2.003   3.006   4.325 -0.0041  0.2554 -0.7399
 4776SOL     MW19104   1.926   3.040   4.346 -0.1286 -0.1927 -0.4736
 4777SOL     OW19105   1.979   1.153   4.051 -0.4993  0.1407  0.1098
 4777SOL    HW119106   2.059   1.109   4.080 -0.5034  0.1923  0.1995
 4777SOL    HW219107   2.010   1.228   4.002 -0.4925  0.1268  0.0927
 4777SOL     MW19108   1.993   1.157   4.049 -0.4989  0.1455  0.1191
 4778SOL     OW19109   1.758   0.718   1.085 -0.0898  0.3415  0.0148
 4778SOL    HW119110   1.818   0.762   1.145  1.5776  0.0820 -1.3990
 4778SOL    HW219111   1.731   0.787   1.023 -1.3619  0.4797  0.6914
 4778SOL     MW19112   1.762   0.732   1.084 -0.0392  0.3260 -0.0796
 4779SOL     OW19113   2.438   0.558   3.832  0.4454  0.4038  0.1626
 4779SOL    HW119114   2.477   0.513   3.757 -1.4886 -0.3504 -0.4246
 4779SOL    HW219115   2.490   0.528   3.907  0.7448 -0.9007 -0.5410
 4779SOL     MW19116   2.450   0.548   3.832  0.2361  0.1402 -0.0027
 4780SOL     OW19117   1.044   1.854   2.314 -0.3638  0.5413  0.1370
 4780SOL    HW119118   1.057   1.919   2.245 -1.3009  1.0899  0.4665
 4780SOL    HW219119   0.953   1.825   2.303  0.7736 -2.9483 -1.9172
 4780SOL     MW19120   1.034   1.858   2.303 -0.3382  0.1648 -0.0838
 4781SOL     OW19121   2.829   2.516   3.770  0.1177 -0.0394 -0.6970
 4781SOL    HW119122   2.769   2.576   3.816  0.2861 -0.2652 -0.1719
 4781SOL    HW219123   2.771   2.459   3.718 -0.0464  0.5291 -1.1451
 4781SOL     MW19124   2.814   2.516   3.769  0.1183  0.0045 -0.6872
 4782SOL     OW19125   1.765   4.402   3.592 -0.0492 -0.0179 -0.1571
 4782SOL    HW119126   1.715   4.322   3.610  1.9018 -0.7415  2.8886
 4782SOL    HW219127   1.840   4.372   3.539 -0.3949  0.2227 -0.7981
 4782SOL     MW19128   1.768   4.388   3.587  0.1563 -0.0797  0.1507
 4783SOL     OW19129   2.836   1.005   2.370  0.3760  0.1931  0.3167
 4783SOL    HW119130   2.795   1.074   2.318  1.2321  0.1884 -0.3760
 4783SOL    HW219131   2.923   1.038   2.391 -0.1212  0.4047  2.1885
 4783SOL     MW19132   2.842   1.018   2.366  0.4220  0.2196  0.4677
 4784SOL     OW19133   3.126   1.642   2.058  0.6465  0.1077 -0.0803
 4784SOL    HW119134   3.155   1.711   2.000 -0.1079  1.1098  0.6934
 4784SOL    HW219135   3.180   1.567   2.036  1.8560  1.1007 -0.5792
 4784SOL     MW19136   3.136   1.641   2.048  0.7048  0.3631 -0.0451
 4785SOL     OW19137   0.218   4.053   5.146  0.5572  0.0731  0.2962
 4785SOL    HW119138   0.163   4.130   5.162  1.9204  1.0215  0.6086
 4785SOL    HW219139   0.240   4.058   5.053  0.1489 -0.2787  0.1813
 4785SOL     MW19140   0.214   4.064   5.136  0.6794  0.1494  0.3215
 4786SOL     OW19141   0.441   3.762   0.152 -0.9081 -0.0005  0.3960
 4786SOL    HW119142   0.535   3.767   0.167 -0.5742  1.3868 -1.7798
 4786SOL    HW219143   0.403   3.765   0.240  1.0224  0.7731  1.2658
 4786SOL     MW19144   0.448   3.763   0.165 -0.6183  0.2761  0.2288
 4787SOL     OW19145   4.129   4.793   0.622  0.3226 -0.2996  0.5387
 4787SOL    HW119146   4.139   4.716   0.565  0.8942 -0.4159  0.7905
 4787SOL    HW219147   4.037   4.792   0.647  0.2068 -0.6102  0.1286
 4787SOL     MW19148   4.118   4.783   0.618  0.3810 -0.3542  0.5184
 4788SOL     OW19149   5.233   0.467   2.329 -0.9337  0.1329  0.0557
 4788SOL    HW119150   5.312   0.414   2.318 -0.5401 -0.0896  2.9481
 4788SOL    HW219151   5.186   0.458   2.247  1.1396 -1.2951 -1.0679
 4788SOL     MW19152   5.237   0.459   2.317 -0.6179 -0.0784  0.2821
 4789SOL     OW19153   4.300   4.509   0.594  0.2732 -0.1494 -0.2765
 4789SOL    HW119154   4.358   4.537   0.523 -1.2879  0.6862 -1.2680
 4789SOL    HW219155   4.330   4.559   0.670 -0.1934  1.5904 -1.1835
 4789SOL     MW19156   4.311   4.519   0.595  0.0137  0.1803 -0.5195
 4790SOL     OW19157   1.211   5.231   2.718  0.1304 -0.3153 -0.0021
 4790SOL    HW119158   1.223   5.169   2.646  0.0550  0.5046 -0.7517
 4790SOL    HW219159   1.116   5.239   2.726  0.1404 -0.0981 -0.0927
 4790SOL     MW19160   1.201   5.224   2.709  0.1220 -0.1826 -0.1097
 4791SOL     OW19161   2.672   0.413   4.980  0.6782 -0.0238  0.1157
 4791SOL    HW119162   2.592   0.374   5.015 -0.2242  1.1769 -0.5196
 4791SOL    HW219163   2.736   0.342   4.980 -0.6017 -1.2026 -0.0707
 4791SOL     MW19164   2.670   0.399   4.985  0.3988 -0.0210  0.0105
 4792SOL     OW19165   0.945   1.393   5.120 -0.0010  0.3161 -0.2231
 4792SOL    HW119166   1.033   1.367   5.146 -0.4775 -1.8006 -0.5872
 4792SOL    HW219167   0.925   1.468   5.175  1.6475  0.2231  0.5557
 4792SOL     MW19168   0.954   1.399   5.130  0.1490  0.0333 -0.1700
 4793SOL     OW19169   2.443   0.267   3.387  0.1564 -0.4946 -0.1833
 4793SOL    HW119170   2.485   0.247   3.304 -1.9909 -1.0610 -1.1912
 4793SOL    HW219171   2.428   0.182   3.427  0.0939 -0.2894  0.2367
 4793SOL     MW19172   2.447   0.254   3.382 -0.1265 -0.5409 -0.2586
 4794SOL     OW19173   1.369   4.088   0.309  0.2164  0.0426 -0.4609
 4794SOL    HW119174   1.391   3.996   0.293  0.7733  0.1584 -0.3846
 4794SOL    HW219175   1.383   4.132   0.225  1.4177  0.3269 -0.1245
 4794SOL     MW19176   1.373   4.082   0.296  0.4415  0.0939 -0.4081
 4795SOL     OW19177   1.918   5.135   2.576  0.1081  0.2461 -0.0647
 4795SOL    HW119178   1.833   5.122   2.535  0.5948 -1.2378 -0.6676
 4795SOL    HW219179   1.900   5.129   2.670 -0.1145 -3.1463 -0.1731
 4795SOL     MW19180   1.905   5.132   2.583  0.1419 -0.3781 -0.1558
 4796SOL     OW19181   2.864   1.343   0.978 -0.2597 -0.4285 -0.4195
 4796SOL    HW119182   2.868   1.365   1.071 -0.6780 -3.4302  0.4164
 4796SOL    HW219183   2.773   1.361   0.953  0.1158  1.4083 -0.5963
 4796SOL     MW19184   2.853   1.348   0.986 -0.2651 -0.5776 -0.3351
 4797SOL     OW19185   1.328   1.145   0.956 -0.4628  0.1996 -0.0911
 4797SOL    HW119186   1.378   1.225   0.971 -0.6088  0.3134 -0.1949
 4797SOL    HW219187   1.252   1.174   0.905 -0.5153 -0.0061 -0.1322
 4797SOL     MW19188   1.324   1.159   0.952 -0.4882  0.1879 -0.1096
 4798SOL     OW19189   3.299   3.205   4.335 -0.0350  0.2143 -0.4808
 4798SOL    HW119190   3.322   3.151   4.259 -0.1484  0.0462 -0.3978
 4798SOL    HW219191   3.218   3.165   4.368  0.0352  0.2649 -0.2496
 4798SOL     MW19192   3.291   3.193   4.329 -0.0406  0.1993 -0.4406
 4799SOL     OW19193   2.109   5.222   4.260 -0.5461 -0.1191 -0.2574
 4799SOL    HW119194   2.198   5.191   4.245 -0.0203  1.9861 -1.9974
 4799SOL    HW219195   2.092   5.203   4.353  2.4292  1.0514  0.6438
 4799SOL     MW19196   2.118   5.215   4.270 -0.0980  0.3002 -0.3648
 4800SOL     OW19197   1.919   1.585   5.226  0.8405 -0.4594 -0.1502
 4800SOL    HW119198   1.945   1.671   5.258 -0.7681 -0.9081  2.6354
 4800SOL    HW219199   1.973   1.524   5.275 -0.8119 -1.1226  0.9497
 4800SOL     MW19200   1.929   1.588   5.236  0.4230 -0.6018  0.3472
 4801SOL     OW19201   4.362   2.403   3.911  0.3536 -0.6877  0.4755
 4801SOL    HW119202   4.311   2.386   3.991  0.0307  0.1497  0.4650
 4801SOL    HW219203   4.401   2.489   3.926  0.7017 -0.7498 -0.0623
 4801SOL     MW19204   4.360   2.412   3.923  0.3568 -0.5884  0.4053
 4802SOL     OW19205   2.768   5.471   5.273  0.3660  0.6605 -0.1010
 4802SOL    HW119206   2.817   5.388   5.269 -1.7853 -0.9425  2.9412
 4802SOL    HW219207   2.794   5.510   5.356  0.3477  2.4483 -0.8978
 4802SOL     MW19208   2.778   5.465   5.283  0.0883  0.6842  0.1864
 4803SOL     OW19209   4.000   3.212   5.208 -0.0497 -0.0046 -0.9787
 4803SOL    HW119210   4.043   3.157   5.274 -0.9916  0.8691  0.4174
 4803SOL    HW219211   3.907   3.187   5.212 -0.1997  0.4096 -1.6315
 4803SOL     MW19212   3.993   3.202   5.217 -0.1895  0.1603 -0.8836
 4804SOL     OW19213   4.576   2.795   0.514  0.1615  0.2757 -0.1620
 4804SOL    HW119214   4.638   2.864   0.492  0.8666 -0.3666 -0.2277
 4804SOL    HW219215   4.629   2.716   0.522 -0.6834 -0.3428 -0.4765
 4804SOL     MW19216   4.591   2.794   0.512  0.1436  0.1143 -0.2107
 4805SOL     OW19217   0.551   0.253   0.364  0.0261  0.3510  0.0823
 4805SOL    HW119218   0.618   0.277   0.299  0.9860  0.4475  1.0841
 4805SOL    HW219219   0.557   0.157   0.369  1.2357  0.4663  1.3356
 4805SOL     MW19220   0.560   0.244   0.356  0.3038  0.3781  0.3710
 4806SOL     OW19221   1.660   3.881   4.046 -0.2995 -0.2921 -0.0405
 4806SOL    HW119222   1.631   3.795   4.020  0.2389 -0.4700 -0.0756
 4806SOL    HW219223   1.741   3.896   3.996 -0.8878  0.6260 -0.7469
 4806SOL     MW19224   1.667   3.872   4.037 -0.3059 -0.1973 -0.1354
 4807SOL     OW19225   5.203   2.249   5.150 -0.6014  0.2580 -0.5441
 4807SOL    HW119226   5.295   2.246   5.123 -0.4102 -0.4956  0.1383
 4807SOL    HW219227   5.154   2.219   5.074 -0.3108  0.9057 -0.9966
 4807SOL     MW19228   5.209   2.245   5.137 -0.5397  0.2444 -0.5146
 4808SOL     OW19229   3.630   1.900   1.275  0.2886 -0.0315 -0.2790
 4808SOL    HW119230   3.561   1.902   1.208  0.6505  0.1677 -0.6496
 4808SOL    HW219231   3.707   1.868   1.229 -0.1550 -2.7568  0.7190
 4808SOL     MW19232   3.631   1.896   1.260  0.2782 -0.3549 -0.1987
 4809SOL     OW19233   3.540   1.621   4.785  0.2205 -0.0171 -0.1526
 4809SOL    HW119234   3.474   1.597   4.850 -0.5117  0.6307 -0.6442
 4809SOL    HW219235   3.536   1.717   4.782  0.1404 -0.0483 -1.2504
 4809SOL     MW19236   3.531   1.631   4.793  0.1165  0.0618 -0.3561
 4810SOL     OW19237   1.372   1.907   2.401 -0.3967 -0.1331 -0.4264
 4810SOL    HW119238   1.331   1.832   2.357 -1.1822  0.6482 -1.0511
 4810SOL    HW219239   1.345   1.983   2.349 -1.2605  0.8150  1.3305
 4810SOL     MW19240   1.363   1.907   2.388 -0.6078  0.0883 -0.2814
 4811SOL     OW19241   3.726   2.035   3.424 -0.1248 -0.5410 -0.1062
 4811SOL    HW119242   3.817   2.063   3.415 -0.2407 -0.2545 -0.4091
 4811SOL    HW219243   3.728   1.967   3.491  0.5617 -1.7354 -1.2916
 4811SOL     MW19244   3.738   2.030   3.432 -0.0517 -0.6572 -0.2967
 4812SOL     OW19245   5.413   2.781   1.997  0.8415  0.1216 -0.3108
 4812SOL    HW119246   5.460   2.725   1.936  1.7127  0.2502  0.2181
 4812SOL    HW219247   5.409   2.866   1.953  0.8341  0.0304 -0.4887
 4812SOL     MW19248   5.419   2.785   1.984  0.9521  0.1264 -0.2658
 4813SOL     OW19249   4.282   4.462   2.216  0.3525 -0.1545 -0.1594
 4813SOL    HW119250   4.267   4.384   2.269  0.3851  0.1825  0.3478
 4813SOL    HW219251   4.197   4.506   2.213  0.0281 -0.8313 -1.4620
 4813SOL     MW19252   4.269   4.458   2.222  0.3151 -0.1980 -0.2612
 4814SOL     OW19253   5.097   3.417   2.271 -0.2347  0.1461 -0.1007
 4814SOL    HW119254   5.061   3.410   2.359 -0.1237  0.2945 -0.0429
 4814SOL    HW219255   5.190   3.395   2.281 -0.4550 -0.9831 -0.3711
 4814SOL     MW19256   5.104   3.413   2.283 -0.2487  0.0205 -0.1279
 4815SOL     OW19257   3.159   2.897   2.117  0.0932  1.1311 -0.1765
 4815SOL    HW119258   3.176   2.856   2.032  0.3095  0.3695  0.2274
 4815SOL    HW219259   3.104   2.972   2.096  2.2859  2.5434 -1.3040
 4815SOL     MW19260   3.154   2.901   2.103  0.4016  1.2144 -0.2691
 4816SOL     OW19261   4.000   3.606   3.330 -0.2917 -0.2499 -0.0353
 4816SOL    HW119262   4.034   3.545   3.396 -1.0716 -1.7143 -0.9326
 4816SOL    HW219263   3.955   3.673   3.381 -0.6605 -1.2121  0.9473
 4816SOL     MW19264   3.999   3.607   3.345 -0.4388 -0.5605 -0.0244
 4817SOL     OW19265   1.180   3.482   3.867  0.2464 -0.2905  0.3046
 4817SOL    HW119266   1.090   3.472   3.899  0.2438  1.3604  0.9080
 4817SOL    HW219267   1.200   3.574   3.880  1.4103 -0.2304 -1.5069
 4817SOL     MW19268   1.171   3.492   3.873  0.3951 -0.0714  0.1500
 4818SOL     OW19269   4.393   2.601   3.043  0.3318  0.4287  0.1944
 4818SOL    HW119270   4.341   2.544   3.101 -0.7511 -0.1565 -1.2680
 4818SOL    HW219271   4.453   2.541   2.999 -0.6476  0.4028 -1.1787
 4818SOL     MW19272   4.394   2.586   3.045  0.0678  0.3504 -0.1686
 4819SOL     OW19273   2.195   2.843   2.838  0.6361  0.3071 -0.2093
 4819SOL    HW119274   2.259   2.811   2.902 -0.1048 -0.8790 -0.0435
 4819SOL    HW219275   2.156   2.920   2.880 -0.2644 -0.8030  1.0524
 4819SOL     MW19276   2.199   2.849   2.852  0.4260  0.0132 -0.0266
 4820SOL     OW19277   1.842   1.690   2.329  0.3703  0.8513 -0.2545
 4820SOL    HW119278   1.844   1.600   2.364 -1.2530  1.0531  0.4547
 4820SOL    HW219279   1.922   1.697   2.277  0.6422 -0.9371 -0.1557
 4820SOL     MW19280   1.853   1.679   2.327  0.1973  0.6482 -0.1510
 4821SOL     OW19281   3.703   2.192   2.365  0.0210 -0.5547  0.2457
 4821SOL    HW119282   3.659   2.201   2.449  0.7933 -1.8670  0.8304
 4821SOL    HW219283   3.758   2.269   2.357 -1.0289  0.2183  0.3263
 4821SOL     MW19284   3.704   2.203   2.374 -0.0145 -0.6237  0.3308
 4822SOL     OW19285   4.680   4.722   5.438 -0.1084  0.0431 -0.1807
 4822SOL    HW119286   4.679   4.659   5.365 -0.3732 -0.0701 -0.0842
 4822SOL    HW219287   4.772   4.739   5.454 -0.0534  1.3948 -1.6742
 4822SOL     MW19288   4.692   4.716   5.430 -0.1352  0.2017 -0.3596
 4823SOL     OW19289   1.431   2.944   2.406 -0.3117  0.6783  0.2418
 4823SOL    HW119290   1.470   2.876   2.461  1.3420  0.8341 -0.6699
 4823SOL    HW219291   1.374   2.896   2.346 -1.6169  0.4444  1.6016
 4823SOL     MW19292   1.429   2.929   2.406 -0.2671  0.6683  0.2992
 4824SOL     OW19293   4.709   1.596   2.729  0.2537  0.1780  0.4858
 4824SOL    HW119294   4.709   1.598   2.633  2.0268  4.3716  0.3517
 4824SOL    HW219295   4.782   1.539   2.752 -0.1717 -0.8508 -0.6060
 4824SOL     MW19296   4.718   1.589   2.719  0.4262  0.5831  0.3289
 4825SOL     OW19297   4.746   1.022   5.247  0.1903  0.2105 -0.4097
 4825SOL    HW119298   4.743   1.078   5.325 -1.3015 -0.0779 -0.2178
 4825SOL    HW219299   4.660   1.035   5.205 -0.7524 -2.8130  0.3208
 4825SOL     MW19300   4.734   1.031   5.252 -0.1213 -0.2135 -0.2916
 4826SOL     OW19301   4.308   4.941   1.643  0.5405  0.2951 -0.7105
 4826SOL    HW119302   4.367   4.904   1.708  0.5106  1.4691  0.0009
 4826SOL    HW219303   4.240   4.985   1.694  0.7427  1.5880 -1.5111
 4826SOL     MW19304   4.306   4.942   1.658  0.5626  0.6109 -0.7219
 4827SOL     OW19305   1.333   0.332   3.360  0.0289  0.4369  0.5172
 4827SOL    HW119306   1.412   0.367   3.320 -1.1081 -0.9391 -3.3388
 4827SOL    HW219307   1.263   0.391   3.331 -0.6826  0.4513  2.1454
 4827SOL     MW19308   1.334   0.344   3.351 -0.2077  0.2626  0.2321
 4828SOL     OW19309   0.606   0.198   5.157  0.4520  0.5087  0.1297
 4828SOL    HW119310   0.546   0.203   5.231 -0.6177  0.4568 -0.7204
 4828SOL    HW219311   0.575   0.125   5.105  0.7373  1.0141 -0.7711
 4828SOL     MW19312   0.594   0.190   5.160  0.3516  0.5667 -0.0944
 4829SOL     OW19313   2.398   3.929   3.713  0.1801 -0.0150  0.1606
 4829SOL    HW119314   2.409   3.852   3.656 -1.4853  1.8089 -2.8959
 4829SOL    HW219315   2.305   3.929   3.735  0.1837  1.0711  0.2066
 4829SOL     MW19316   2.388   3.919   3.709 -0.0326  0.3575 -0.2248
 4830SOL     OW19317   1.892   2.470   3.251 -0.5758  0.2504 -0.1864
 4830SOL    HW119318   1.860   2.434   3.334  1.0547 -0.7362  0.0524
 4830SOL    HW219319   1.963   2.412   3.225 -0.2899  1.2199 -1.6930
 4830SOL     MW19320   1.897   2.458   3.258 -0.3305  0.2482 -0.3487
 4831SOL     OW19321   5.045   1.581   3.521  0.1151  0.0962  0.5865
 4831SOL    HW119322   4.966   1.527   3.517 -0.1505  0.4866  0.5397
 4831SOL    HW219323   5.072   1.576   3.613  0.0898 -0.1145  0.5833
 4831SOL     MW19324   5.038   1.573   3.533  0.0778  0.1192  0.5801
 4832SOL     OW19325   5.368   0.973   0.292 -0.5124  0.1050  0.3593
 4832SOL    HW119326   5.331   0.962   0.380  0.5024  1.7717  1.0215
 4832SOL    HW219327   5.459   0.943   0.300  0.1798  2.0767  0.4247
 4832SOL     MW19328   5.375   0.967   0.304 -0.2939  0.5708  0.4525
 4833SOL     OW19329   5.260   4.503   2.323  0.3024 -0.4211  0.4911
 4833SOL    HW119330   5.250   4.593   2.292  0.3846 -0.6477 -0.2034
 4833SOL    HW219331   5.215   4.502   2.408 -2.7488 -0.5624 -0.9936
 4833SOL     MW19332   5.253   4.514   2.330 -0.0776 -0.4682  0.2121
 4834SOL     OW19333   2.338   3.691   4.497 -0.1859 -0.4113 -0.2416
 4834SOL    HW119334   2.425   3.703   4.533 -1.1090  0.8339  1.7300
 4834SOL    HW219335   2.293   3.774   4.513 -1.7965 -1.0854 -1.0169
 4834SOL     MW19336   2.343   3.703   4.503 -0.5103 -0.3382 -0.0885
 4835SOL     OW19337   2.441   5.371   1.378 -0.5352  0.5362  0.1223
 4835SOL    HW119338   2.452   5.437   1.309 -1.1541 -0.0894 -0.5810
 4835SOL    HW219339   2.493   5.296   1.348 -1.4000 -0.0098 -0.0260
 4835SOL     MW19340   2.449   5.370   1.365 -0.7251  0.3862  0.0133
 4836SOL     OW19341   2.744   0.652   2.542  0.2498 -0.0976 -0.0155
 4836SOL    HW119342   2.834   0.650   2.510 -0.5648 -0.2479 -2.5086
 4836SOL    HW219343   2.731   0.743   2.571  0.5707  0.5312 -1.7337
 4836SOL     MW19344   2.753   0.663   2.542  0.1866 -0.0364 -0.5546
 4837SOL     OW19345   1.454   3.859   0.226  0.6834  0.6026 -0.4702
 4837SOL    HW119346   1.373   3.852   0.177 -0.7487  2.2848  1.4483
 4837SOL    HW219347   1.441   3.803   0.303  1.0713  1.3038  0.1319
 4837SOL     MW19348   1.442   3.851   0.230  0.5497  0.9077 -0.1475
 4838SOL     OW19349   4.337   2.796   0.389 -0.3688  0.4005 -0.2479
 4838SOL    HW119350   4.422   2.811   0.430 -1.0955  1.5576  0.9106
 4838SOL    HW219351   4.314   2.706   0.412  1.6684 -0.9178 -2.7916
 4838SOL     MW19352   4.345   2.787   0.397 -0.2010  0.3798 -0.4252
 4839SOL     OW19353   1.791   1.990   1.600 -0.0015 -0.7703  0.4497
 4839SOL    HW119354   1.794   2.003   1.505 -1.1595 -0.6606  0.4108
 4839SOL    HW219355   1.698   2.001   1.622  0.4363  0.5346  1.7882
 4839SOL     MW19356   1.779   1.993   1.590 -0.0937 -0.5892  0.6161
 4840SOL     OW19357   4.407   0.483   4.782  0.0747  0.0704 -0.3222
 4840SOL    HW119358   4.381   0.557   4.727 -0.8593 -1.3795 -1.9386
 4840SOL    HW219359   4.464   0.430   4.726  1.6560  0.0960  1.1836
 4840SOL     MW19360   4.411   0.486   4.768  0.1576 -0.1119 -0.3364
 4841SOL     OW19361   5.216   0.420   1.096 -0.0553 -0.2733  0.0249
 4841SOL    HW119362   5.182   0.508   1.082 -0.6168 -0.5211 -0.2224
 4841SOL    HW219363   5.282   0.409   1.027 -0.2602 -0.1832 -0.1899
 4841SOL     MW19364   5.220   0.430   1.085 -0.1534 -0.2935 -0.0342
 4842SOL     OW19365   2.688   1.400   5.264  0.4697 -0.3043  0.1500
 4842SOL    HW119366   2.613   1.407   5.205  0.8879 -1.5838 -0.5727
 4842SOL    HW219367   2.673   1.319   5.311  1.2129 -0.3721  0.2720
 4842SOL     MW19368   2.676   1.391   5.262  0.6184 -0.4768  0.0731
 4843SOL     OW19369   3.104   2.473   2.512 -0.6383  0.0640 -0.6092
 4843SOL    HW119370   3.079   2.519   2.432 -0.4738 -0.8090 -1.1743
 4843SOL    HW219371   3.142   2.391   2.482  1.7327  0.7518  0.2458
 4843SOL     MW19372   3.105   2.469   2.498 -0.3138  0.0403 -0.5721
 4844SOL     OW19373   3.461   4.667   3.578 -0.3215 -0.6110  0.2154
 4844SOL    HW119374   3.552   4.641   3.572 -0.6924 -1.5590 -2.7068
 4844SOL    HW219375   3.460   4.738   3.643  2.7728  0.6089 -0.9168
 4844SOL     MW19376   3.472   4.673   3.586  0.0271 -0.5762 -0.3036
 4845SOL     OW19377   1.626   3.568   3.380 -0.4843  0.5772 -0.1746
 4845SOL    HW119378   1.606   3.565   3.473  1.3809 -1.8160  0.2495
 4845SOL    HW219379   1.542   3.551   3.337 -0.7974 -2.2154  1.2759
 4845SOL     MW19380   1.613   3.565   3.386 -0.2856 -0.0866  0.0654
 4846SOL     OW19381   3.475   3.407   4.172 -0.3300  0.2170 -0.6349
 4846SOL    HW119382   3.432   3.481   4.215  1.4537 -0.5844  2.9172
 4846SOL    HW219383   3.558   3.443   4.140 -0.8772  0.4061 -1.9013
 4846SOL     MW19384   3.480   3.421   4.174 -0.1717  0.1386 -0.3423
 4847SOL     OW19385   0.395   2.727   3.352  0.0642  0.0715  0.1192
 4847SOL    HW119386   0.455   2.714   3.278  0.6920 -1.3010  0.8328
 4847SOL    HW219387   0.320   2.672   3.333  0.2897 -0.3957  0.5560
 4847SOL     MW19388   0.393   2.718   3.340  0.1734 -0.1640  0.2665
 4848SOL     OW19389   1.652   2.674   2.558 -0.1056  0.0712 -0.2846
 4848SOL    HW119390   1.661   2.726   2.639  0.0365 -1.1280  0.4940
 4848SOL    HW219391   1.562   2.690   2.530 -0.5980 -0.5554  0.8752
 4848SOL     MW19392   1.642   2.683   2.565 -0.1504 -0.1625 -0.0364
 4849SOL     OW19393   2.621   1.578   0.663  0.4590 -0.0257  0.1002
 4849SOL    HW119394   2.538   1.586   0.616  0.5387  0.7484  0.0808
 4849SOL    HW219395   2.609   1.503   0.722  0.0729 -0.4906 -0.5545
 4849SOL     MW19396   2.609   1.569   0.664  0.4198  0.0139  0.0139
 4850SOL     OW19397   2.563   3.618   2.239  0.2761  0.1577 -0.4135
 4850SOL    HW119398   2.548   3.562   2.316 -1.6344 -0.2477 -1.0215
 4850SOL    HW219399   2.645   3.664   2.259  0.4102 -0.7310  1.3702
 4850SOL     MW19400   2.572   3.616   2.252  0.0487 -0.0080 -0.2630
 4851SOL     OW19401   2.489   4.269   2.253 -0.1641 -0.5147 -0.0847
 4851SOL    HW119402   2.402   4.259   2.293 -0.4696  1.7293 -0.0531
 4851SOL    HW219403   2.522   4.180   2.245 -2.3648 -1.4232  0.1352
 4851SOL     MW19404   2.482   4.257   2.257 -0.4849 -0.3438 -0.0525
 4852SOL     OW19405   5.308   1.464   1.756 -0.2742  0.5360  0.0101
 4852SOL    HW119406   5.252   1.467   1.834 -0.7115  1.3119 -0.3197
 4852SOL    HW219407   5.369   1.392   1.774 -1.0911 -0.0546  0.5692
 4852SOL     MW19408   5.308   1.455   1.769 -0.4347  0.5597  0.0395
 4853SOL     OW19409   4.219   0.571   3.378  0.3072  0.2194  0.4968
 4853SOL    HW119410   4.155   0.608   3.439 -0.5846  1.1005 -0.9306
 4853SOL    HW219411   4.205   0.477   3.384  0.1888  0.2826  1.5771
 4853SOL     MW19412   4.209   0.564   3.387  0.1779  0.3403  0.4523
 4854SOL     OW19413   0.919   2.443   4.748 -0.5630 -0.0134  0.2934
 4854SOL    HW119414   0.868   2.430   4.669  0.5751 -0.9741 -0.3151
 4854SOL    HW219415   0.899   2.533   4.775 -1.6126  0.0359 -0.5988
 4854SOL     MW19416   0.910   2.453   4.742 -0.5517 -0.1301  0.1013
 4855SOL     OW19417   3.709   5.020   0.551 -0.6756 -0.3367 -0.0614
 4855SOL    HW119418   3.775   4.995   0.616 -0.5185  0.6855  0.1794
 4855SOL    HW219419   3.684   4.937   0.509 -1.2595 -1.1253  1.7416
 4855SOL     MW19420   3.714   5.006   0.554 -0.7302 -0.3068  0.2002
 4856SOL     OW19421   2.626   5.337   5.085 -0.3205 -0.5599  0.1188
 4856SOL    HW119422   2.631   5.380   4.999 -0.8665 -1.4834 -0.3826
 4856SOL    HW219423   2.682   5.391   5.141 -0.0766  0.1467 -0.7721
 4856SOL     MW19424   2.634   5.350   5.081 -0.3592 -0.5876 -0.0595
 4857SOL     OW19425   4.380   4.764   2.828  0.0962 -0.5422  0.0415
 4857SOL    HW119426   4.469   4.792   2.847 -0.3680  1.8700 -0.9627
 4857SOL    HW219427   4.376   4.760   2.732 -0.9803 -0.1573  0.0554
 4857SOL     MW19428   4.391   4.767   2.818 -0.1010 -0.1842 -0.0853
 4858SOL     OW19429   2.786   2.259   0.641  0.6699 -0.5815  0.4912
 4858SOL    HW119430   2.815   2.216   0.561  1.7937 -0.0039  0.5649
 4858SOL    HW219431   2.866   2.269   0.693  0.1560  0.1145  1.1694
 4858SOL     MW19432   2.800   2.255   0.637  0.7480 -0.4184  0.5875
 4859SOL     OW19433   2.029   4.730   0.161 -0.0605 -0.2015  0.2063
 4859SOL    HW119434   2.083   4.772   0.228  0.7872  0.0949 -0.6444
 4859SOL    HW219435   2.043   4.783   0.083 -0.1886 -1.1726 -0.4852
 4859SOL     MW19436   2.038   4.742   0.160  0.0316 -0.2878  0.0088
 4860SOL     OW19437   0.542   2.171   4.917  0.5381  0.3549  0.3388
 4860SOL    HW119438   0.589   2.088   4.916  0.6162  0.3994 -0.7025
 4860SOL    HW219439   0.610   2.238   4.915  0.4681  0.4558  0.9493
 4860SOL     MW19440   0.556   2.169   4.917  0.5391  0.3735  0.2836
 4861SOL     OW19441   4.277   4.504   3.482  0.3504 -0.2610 -0.2216
 4861SOL    HW119442   4.188   4.472   3.463 -0.2913  0.1248  1.9241
 4861SOL    HW219443   4.269   4.599   3.477  0.5160 -0.2101  0.5133
 4861SOL     MW19444   4.264   4.512   3.479  0.2894 -0.2051  0.1471
 4862SOL     OW19445   2.325   0.834   3.498 -0.4181 -0.5817 -0.6834
 4862SOL    HW119446   2.358   0.746   3.517  0.1430 -0.0176  1.2341
 4862SOL    HW219447   2.236   0.834   3.532 -0.1992 -0.2287 -0.1017
 4862SOL     MW19448   2.318   0.823   3.505 -0.3183 -0.4643 -0.3635
 4863SOL     OW19449   1.662   2.351   3.106  0.3328 -0.3322  0.3716
 4863SOL    HW119450   1.609   2.419   3.065  0.2701 -1.1338 -0.9600
 4863SOL    HW219451   1.737   2.397   3.143  0.5966  0.3960 -1.0235
 4863SOL     MW19452   1.665   2.365   3.106  0.3586 -0.3416  0.0225
 4864SOL     OW19453   0.231   2.371   1.748 -0.3379  0.0004  0.1059
 4864SOL    HW119454   0.208   2.419   1.669  0.0108  0.4245  0.2549
 4864SOL    HW219455   0.242   2.439   1.815  1.8752 -0.1027 -0.0804
 4864SOL     MW19456   0.229   2.386   1.747 -0.0100  0.0415  0.1011
 4865SOL     OW19457   2.291   2.309   0.322 -0.4559 -0.3165 -0.1713
 4865SOL    HW119458   2.286   2.404   0.315  2.2119 -0.2476 -4.0866
 4865SOL    HW219459   2.346   2.293   0.398 -0.3013  1.2939  0.0803
 4865SOL     MW19460   2.297   2.319   0.331 -0.0946 -0.1015 -0.6403
 4866SOL     OW19461   4.792   0.391   1.542 -0.1878  0.0138  0.1972
 4866SOL    HW119462   4.798   0.327   1.471 -1.3414 -0.3333  0.3915
 4866SOL    HW219463   4.814   0.474   1.501  1.7089 -0.5224  0.0185
 4866SOL     MW19464   4.796   0.393   1.528 -0.0927 -0.0993  0.1992
 4867SOL     OW19465   3.386   1.785   1.586 -0.6860 -0.3100 -0.1173
 4867SOL    HW119466   3.362   1.874   1.612 -0.4306  0.1488 -1.3614
 4867SOL    HW219467   3.477   1.793   1.555 -0.2162 -1.2690  0.9496
 4867SOL     MW19468   3.395   1.798   1.585 -0.5932 -0.3740 -0.1400
 4868SOL     OW19469   5.124   1.637   0.593 -0.3951 -0.4640 -0.2442
 4868SOL    HW119470   5.083   1.580   0.658  2.3341  0.4475  2.5786
 4868SOL    HW219471   5.181   1.580   0.542 -0.7266 -0.8588 -0.1722
 4868SOL     MW19472   5.126   1.623   0.595 -0.0881 -0.3979  0.1264
 4869SOL     OW19473   1.914   1.105   0.876  0.2789 -0.2986  0.3332
 4869SOL    HW119474   1.958   1.114   0.961  0.7791  0.5695 -0.0026
 4869SOL    HW219475   1.863   1.025   0.884 -0.6990  0.4195  1.9244
 4869SOL     MW19476   1.913   1.096   0.888  0.2177 -0.0955  0.4939
 4870SOL     OW19477   0.218   5.147   2.130 -0.1710 -0.2255  1.0416
 4870SOL    HW119478   0.308   5.167   2.159  1.3225 -0.9108 -2.5748
 4870SOL    HW219479   0.172   5.231   2.137  1.1424  0.4926  1.6246
 4870SOL     MW19480   0.224   5.160   2.135  0.1883 -0.2213  0.6533
 4871SOL     OW19481   0.166   5.324   0.093  0.4530  0.1261  0.0879
 4871SOL    HW119482   0.242   5.379   0.108 -0.5170  1.3972  0.5669
 4871SOL    HW219483   0.091   5.379   0.117 -0.7167 -0.5471 -1.7625
 4871SOL     MW19484   0.166   5.338   0.098  0.1791  0.2026 -0.0876
 4872SOL     OW19485   4.236   4.994   1.395  0.4228  0.3780  0.5047
 4872SOL    HW119486   4.146   5.015   1.420  0.6445  0.0146  1.6342
 4872SOL    HW219487   4.280   4.974   1.477  1.3875 -0.0527 -0.1030
 4872SOL     MW19488   4.230   4.994   1.409  0.5747  0.2763  0.5715
 4873SOL     OW19489   1.470   1.073   3.189 -0.7881  0.4408  0.4546
 4873SOL    HW119490   1.478   1.124   3.108 -1.5589 -0.5754 -0.2856
 4873SOL    HW219491   1.551   1.091   3.236  0.5646 -0.4355 -1.4204
 4873SOL     MW19492   1.482   1.082   3.184 -0.7136  0.1986  0.1198
 4874SOL     OW19493   1.546   0.271   4.890 -0.0343  0.1001 -0.5433
 4874SOL    HW119494   1.491   0.220   4.831 -0.1724 -0.8793  0.3822
 4874SOL    HW219495   1.484   0.323   4.941  0.1843  2.7574 -2.7600
 4874SOL     MW19496   1.531   0.271   4.889 -0.0240  0.3149 -0.7086
 4875SOL     OW19497   4.421   3.647   3.110 -0.1374  0.2230  0.2983
 4875SOL    HW119498   4.480   3.722   3.102  1.7874 -1.2490 -0.0976
 4875SOL    HW219499   4.428   3.602   3.026 -1.5895 -0.2130  0.3796
 4875SOL     MW19500   4.430   3.651   3.098 -0.0769 -0.0213  0.2581
 4876SOL     OW19501   2.880   4.721   4.976 -0.9038  0.4558 -0.5679
 4876SOL    HW119502   2.795   4.742   4.938 -1.2253  0.0590 -0.0903
 4876SOL    HW219503   2.909   4.802   5.018 -2.0780  0.0566  1.1695
 4876SOL     MW19504   2.873   4.734   4.977 -1.0953  0.3539 -0.2844
 4877SOL     OW19505   2.120   4.306   4.286  0.2106  0.1331 -0.1881
 4877SOL    HW119506   2.121   4.392   4.327 -2.0315 -0.1040  0.4779
 4877SOL    HW219507   2.038   4.266   4.315  1.4521 -2.4858  0.0213
 4877SOL     MW19508   2.109   4.312   4.295  0.0825 -0.2325 -0.0761
 4878SOL     OW19509   0.634   4.507   4.690 -0.1545 -0.3477  0.6241
 4878SOL    HW119510   0.604   4.431   4.640 -0.9662 -1.8708  3.2885
 4878SOL    HW219511   0.711   4.538   4.642 -1.1541 -1.3555 -1.8216
 4878SOL     MW19512   0.640   4.501   4.677 -0.3864 -0.6717  0.6521
 4879SOL     OW19513   0.846   2.668   4.341 -0.1225  0.1949 -0.0083
 4879SOL    HW119514   0.792   2.747   4.349 -1.4103 -0.7790  2.0250
 4879SOL    HW219515   0.784   2.600   4.315  0.6927 -0.4194 -0.3672
 4879SOL     MW19516   0.831   2.670   4.339 -0.1830 -0.0084  0.2060
 4880SOL     OW19517   3.988   5.406   2.646  0.1337 -0.6331 -0.4062
 4880SOL    HW119518   3.957   5.317   2.662 -0.5746 -0.3692 -0.2915
 4880SOL    HW219519   4.078   5.395   2.616  0.5564 -1.3022  1.0574
 4880SOL     MW19520   3.995   5.393   2.644  0.0971 -0.6850 -0.2041
 4881SOL     OW19521   1.287   1.609   5.248  0.3983 -0.4461  0.2680
 4881SOL    HW119522   1.304   1.688   5.196 -0.4907 -1.1061 -1.0885
 4881SOL    HW219523   1.361   1.551   5.227  1.5345  0.3111  1.9580
 4881SOL     MW19524   1.299   1.611   5.238  0.4300 -0.4337  0.3107
 4882SOL     OW19525   5.409   2.843   0.051  0.1896 -0.2316 -0.7680
 4882SOL    HW119526   5.416   2.906   0.122 -0.8901 -0.5656 -0.3468
 4882SOL    HW219527   5.423   2.895  -0.029  1.3028  0.1600 -0.3305
 4882SOL     MW19528   5.412   2.858   0.050  0.1938 -0.2242 -0.6581
 4883SOL     OW19529   4.078   3.968   2.247  0.1341 -0.0377 -0.5299
 4883SOL    HW119530   4.104   3.943   2.158  1.2887  1.1736 -0.5622
 4883SOL    HW219531   3.983   3.962   2.248  0.1007  0.1706 -1.9134
 4883SOL     MW19532   4.069   3.964   2.236  0.2776  0.1440 -0.7111
 4884SOL     OW19533   2.831   2.336   3.401  0.4545 -0.3951  0.0153
 4884SOL    HW119534   2.755   2.383   3.437  1.0115 -1.2897  2.6046
 4884SOL    HW219535   2.897   2.404   3.390  0.0336  0.0194 -0.0134
 4884SOL     MW19536   2.830   2.351   3.404  0.4719 -0.4566  0.3431
 4885SOL     OW19537   1.823   2.152   1.922 -0.2526  0.0518  0.6413
 4885SOL    HW119538   1.756   2.219   1.938 -0.2499 -0.3398  2.6031
 4885SOL    HW219539   1.774   2.069   1.922 -0.2123 -0.0122 -1.4492
 4885SOL     MW19540   1.808   2.150   1.924 -0.2471 -0.0065  0.6248
 4886SOL     OW19541   1.574   1.914   1.238 -0.1684  0.0237 -0.5624
 4886SOL    HW119542   1.634   1.963   1.294  0.4259  0.9894 -1.9937
 4886SOL    HW219543   1.631   1.860   1.184 -0.7647 -1.3557  0.1228
 4886SOL     MW19544   1.589   1.913   1.238 -0.1687 -0.0293 -0.6579
 4887SOL     OW19545   1.101   0.064   2.582  0.1922 -0.5131  0.0749
 4887SOL    HW119546   1.144  -0.020   2.565 -0.1036 -0.6092 -0.2264
 4887SOL    HW219547   1.015   0.040   2.618 -0.1613 -0.3655 -0.6444
 4887SOL     MW19548   1.095   0.050   2.584  0.1091 -0.5065 -0.0557
 4888SOL     OW19549   3.705   4.864   3.003 -0.2691  0.0569  0.0730
 4888SOL    HW119550   3.627   4.916   2.983 -0.8206 -1.0041 -0.6443
 4888SOL    HW219551   3.701   4.791   2.942  1.1764 -0.1434  0.1887
 4888SOL     MW19552   3.695   4.862   2.993 -0.1547 -0.1046 -0.0040
 4889SOL     OW19553   2.693   0.863   4.514 -0.0612 -0.0754  0.2317
 4889SOL    HW119554   2.738   0.779   4.503  0.3193  0.2162 -0.4921
 4889SOL    HW219555   2.764   0.926   4.524 -0.3363  0.2467  0.1484
 4889SOL     MW19556   2.708   0.860   4.514 -0.0477  0.0032  0.1284
 4890SOL     OW19557   3.399   5.330   1.112  0.0724 -0.2931 -0.1720
 4890SOL    HW119558   3.436   5.274   1.044 -0.4715  0.2022 -0.8862
 4890SOL    HW219559   3.332   5.275   1.154  0.0156 -0.4144 -0.4179
 4890SOL     MW19560   3.395   5.316   1.109 -0.0045 -0.2452 -0.2949
 4891SOL     OW19561   1.672   2.935   3.548 -0.3534  0.0920 -0.0154
 4891SOL    HW119562   1.630   3.003   3.602  0.8719  1.5832 -0.8591
 4891SOL    HW219563   1.731   2.890   3.608 -1.1684 -0.2494  0.5557
 4891SOL     MW19564   1.674   2.938   3.563 -0.3009  0.2392 -0.0503
 4892SOL     OW19565   0.305   3.089   2.518 -0.0799 -0.1945 -0.4312
 4892SOL    HW119566   0.366   3.142   2.569  1.7334 -1.7921 -0.8085
 4892SOL    HW219567   0.293   3.137   2.436  0.8744  0.0305 -0.4456
 4892SOL     MW19568   0.311   3.102   2.514  0.2744 -0.3702 -0.4814
 4893SOL     OW19569   5.471   1.813   0.147  0.1782  0.5926  0.1423
 4893SOL    HW119570   5.422   1.732   0.137  0.4328  0.4328  0.1774
 4893SOL    HW219571   5.475   1.850   0.058  0.7902  0.1364 -0.0297
 4893SOL     MW19572   5.465   1.807   0.134  0.2892  0.5137  0.1248
 4894SOL     OW19573   4.672   5.095   0.683 -0.1291 -0.3023 -0.4234
 4894SOL    HW119574   4.717   5.017   0.651 -0.1679 -1.1401  1.4612
 4894SOL    HW219575   4.739   5.143   0.733 -0.7008 -0.3533  0.4145
 4894SOL     MW19576   4.687   5.091   0.685 -0.2072 -0.4161 -0.0749
 4895SOL     OW19577   2.411   0.549   4.358  0.2002 -0.2786  0.2125
 4895SOL    HW119578   2.378   0.639   4.361  1.1119  0.0442  1.0521
 4895SOL    HW219579   2.487   0.549   4.417 -0.1352 -1.7462  0.6817
 4895SOL     MW19580   2.417   0.561   4.366  0.2740 -0.4251  0.3800
 4896SOL     OW19581   0.049   2.256   4.336 -0.0305 -0.1917 -0.1982
 4896SOL    HW119582   0.041   2.209   4.419  0.2608 -2.0332 -1.1762
 4896SOL    HW219583   0.098   2.336   4.359  1.1981 -1.2815  1.1930
 4896SOL     MW19584   0.054   2.260   4.350  0.1641 -0.5669 -0.1453
 4897SOL     OW19585   5.338   3.867   3.443  0.0715  0.2469 -0.2699
 4897SOL    HW119586   5.271   3.799   3.449 -0.2789  0.5179 -1.0475
 4897SOL    HW219587   5.320   3.924   3.518 -0.8623  0.5692 -0.7207
 4897SOL     MW19588   5.327   3.866   3.454 -0.0929  0.3228 -0.4272
 4898SOL     OW19589   2.368   4.527   5.385 -0.1389  0.0201 -0.2708
 4898SOL    HW119590   2.359   4.435   5.360 -2.6013  0.0635  0.2783
 4898SOL    HW219591   2.296   4.571   5.341 -0.9969  1.1014  2.1041
 4898SOL     MW19592   2.358   4.521   5.376 -0.5639  0.1641  0.1035
 4899SOL     OW19593   3.929   1.188   4.778  0.2175 -0.3603  0.2525
 4899SOL    HW119594   4.014   1.158   4.809  0.1853 -0.3686  0.3334
 4899SOL    HW219595   3.866   1.157   4.844  0.3512  1.1865  1.1630
 4899SOL     MW19596   3.931   1.180   4.790  0.2305 -0.1633  0.3794
 4900SOL     OW19597   4.154   3.064   5.424  0.0449  0.2665  0.2681
 4900SOL    HW119598   4.126   3.138   5.477 -1.4703 -0.6374  0.7829
 4900SOL    HW219599   4.236   3.035   5.465 -1.2439 -0.6097  2.3895
 4900SOL     MW19600   4.161   3.070   5.436 -0.3141  0.0387  0.6056
 4901SOL     OW19601   2.669   1.608   5.450  0.6247  0.2653  0.0261
 4901SOL    HW119602   2.667   1.544   5.378 -0.2749 -0.4267  0.6524
 4901SOL    HW219603   2.630   1.687   5.412 -0.2788 -0.2372 -0.1289
 4901SOL     MW19604   2.664   1.610   5.436  0.3938  0.1124  0.0864
 4902SOL     OW19605   4.143   2.492   5.165  0.1104 -0.3104  0.3255
 4902SOL    HW119606   4.198   2.416   5.147  1.9293  1.0556 -0.1768
 4902SOL    HW219607   4.141   2.541   5.083 -0.7910  0.3416  0.7134
 4902SOL     MW19608   4.149   2.489   5.152  0.2278 -0.0520  0.3108
 4903SOL     OW19609   3.908   4.869   4.829 -0.1390 -0.2309 -0.0585
 4903SOL    HW119610   3.889   4.963   4.833 -1.7613 -0.5155 -0.6299
 4903SOL    HW219611   3.828   4.829   4.795 -0.2488 -2.0646  2.0972
 4903SOL     MW19612   3.896   4.876   4.825 -0.3607 -0.5021  0.1443
 4904SOL     OW19613   1.946   0.703   0.654 -0.1198 -0.4109  0.1076
 4904SOL    HW119614   1.914   0.767   0.591  2.1467 -0.8101 -1.5803
 4904SOL    HW219615   1.888   0.628   0.643 -1.1397  0.3393  0.1693
 4904SOL     MW19616   1.935   0.702   0.645  0.0398 -0.3660 -0.1006
 4905SOL     OW19617   0.396   3.474   3.294 -0.4515 -0.5930 -1.3640
 4905SOL    HW119618   0.341   3.474   3.372  0.6890 -0.8991 -0.5414
 4905SOL    HW219619   0.485   3.461   3.327  0.1824  0.3300 -2.6222
 4905SOL     MW19620   0.401   3.472   3.308 -0.2244 -0.5140 -1.4198
 4906SOL     OW19621   0.328   3.874   0.379  0.1235 -0.4134 -0.6698
 4906SOL    HW119622   0.346   3.870   0.473 -0.6906  1.5013 -0.3968
 4906SOL    HW219623   0.338   3.966   0.356 -0.1469 -0.7760 -2.3773
 4906SOL     MW19624   0.332   3.885   0.388 -0.0153 -0.2147 -0.8534
 4907SOL     OW19625   5.198   3.635   3.463 -0.0134  0.0422  0.5170
 4907SOL    HW119626   5.249   3.635   3.382 -1.2031  0.1304 -0.2592
 4907SOL    HW219627   5.256   3.596   3.528  0.9656 -0.0307 -0.3720
 4907SOL     MW19628   5.212   3.630   3.461 -0.0404  0.0441  0.3038
 4908SOL     OW19629   5.292   1.711   1.187  0.2169 -0.1753 -0.2727
 4908SOL    HW119630   5.288   1.739   1.279  1.3975  0.2998 -0.3565
 4908SOL    HW219631   5.283   1.616   1.191  0.5563 -0.1890  0.3646
 4908SOL     MW19632   5.290   1.703   1.199  0.4114 -0.1163 -0.2019
 4909SOL     OW19633   5.231   4.055   3.605  0.5527  0.8042 -0.5664
 4909SOL    HW119634   5.265   4.131   3.653  0.4467 -0.1683  1.1576
 4909SOL    HW219635   5.160   4.090   3.552  0.3699  1.9005  0.3444
 4909SOL     MW19636   5.226   4.069   3.605  0.5157  0.8201 -0.2291
 4910SOL     OW19637   2.983   0.776   4.227 -0.4755  0.1504 -0.4254
 4910SOL    HW119638   2.945   0.701   4.180 -0.7896  0.2949 -0.4041
 4910SOL    HW219639   2.949   0.853   4.182 -0.7080  0.2908 -0.0227
 4910SOL     MW19640   2.973   0.776   4.215 -0.5455  0.1869 -0.3711
 4911SOL     OW19641   2.853   4.334   1.169 -0.5632 -0.3733 -0.1762
 4911SOL    HW119642   2.848   4.320   1.263  0.3213 -0.3334 -0.1188
 4911SOL    HW219643   2.937   4.296   1.143 -0.8799 -0.5534 -0.9773
 4911SOL     MW19644   2.863   4.327   1.177 -0.4905 -0.3913 -0.2714
 4912SOL     OW19645   5.234   0.744   2.380 -0.0938  0.3316 -0.3825
 4912SOL    HW119646   5.303   0.743   2.314  3.0777 -0.8874  2.6100
 4912SOL    HW219647   5.217   0.652   2.399 -1.4917  0.6387 -0.0133
 4912SOL     MW19648   5.240   0.732   2.374  0.1332  0.2149  0.0478
 4913SOL     OW19649   3.061   3.011   0.955  0.3312 -0.4709 -0.6387
 4913SOL    HW119650   3.063   2.941   1.020 -1.4777 -0.1740 -0.2093
 4913SOL    HW219651   3.075   3.091   1.006 -0.8983 -0.2534 -0.6163
 4913SOL     MW19652   3.063   3.012   0.970 -0.0578 -0.4050 -0.5809
 4914SOL     OW19653   4.437   5.164   2.229 -0.0415  0.4336 -0.2654
 4914SOL    HW119654   4.404   5.252   2.243 -0.6875  0.1742 -0.1232
 4914SOL    HW219655   4.363   5.116   2.191  0.4925  0.1197 -0.9493
 4914SOL     MW19656   4.423   5.169   2.226 -0.0558  0.3602 -0.3347
 4915SOL     OW19657   2.882   4.105   5.121 -0.4398 -0.0374 -0.4413
 4915SOL    HW119658   2.823   4.087   5.048 -0.5488 -1.1528 -0.0967
 4915SOL    HW219659   2.969   4.109   5.082 -0.3964 -1.4772 -0.5367
 4915SOL     MW19660   2.886   4.103   5.107 -0.4482 -0.3645 -0.4094
 4916SOL     OW19661   0.918   1.210   1.718 -0.3851 -0.5826  0.0698
 4916SOL    HW119662   0.906   1.181   1.628  0.1792 -0.3482 -0.0873
 4916SOL    HW219663   0.970   1.290   1.710  0.2889 -0.9506  0.6394
 4916SOL     MW19664   0.923   1.216   1.705 -0.2266 -0.5997  0.1226
 4917SOL     OW19665   4.305   2.709   2.831 -0.1157 -0.0963  0.7378
 4917SOL    HW119666   4.344   2.675   2.912  0.4496 -1.2919 -0.0074
 4917SOL    HW219667   4.341   2.797   2.823 -0.7904  0.3342  2.1870
 4917SOL     MW19668   4.315   2.716   2.840 -0.1297 -0.1943  0.8279
 4918SOL     OW19669   3.769   4.193   4.789 -0.1195  0.2174  0.3879
 4918SOL    HW119670   3.837   4.127   4.800  0.2398  0.8221  2.2684
 4918SOL    HW219671   3.701   4.167   4.851 -1.7092 -0.4264 -1.5166
 4918SOL     MW19672   3.769   4.181   4.799 -0.2770  0.2124  0.3848
 4919SOL     OW19673   1.278   3.502   2.795 -0.4855  0.1175  0.6321
 4919SOL    HW119674   1.218   3.436   2.760 -1.6071  1.3655  0.0958
 4919SOL    HW219675   1.330   3.530   2.720  0.6619 -0.7933  1.0486
 4919SOL     MW19676   1.277   3.497   2.781 -0.4822  0.1607  0.6168
 4920SOL     OW19677   5.038   1.303   2.521  0.3500 -0.3055 -0.1705
 4920SOL    HW119678   5.009   1.344   2.603 -0.7961 -1.2341 -0.0850
 4920SOL    HW219679   4.958   1.288   2.472  0.7938 -1.7948 -0.4901
 4920SOL     MW19680   5.024   1.306   2.525  0.2601 -0.6150 -0.2005
 4921SOL     OW19681   5.478   5.345   2.488 -0.3139  0.6209  0.0924
 4921SOL    HW119682   5.471   5.440   2.477  0.1231  0.8050  1.2577
 4921SOL    HW219683   5.392   5.318   2.520 -0.6365  0.5224 -0.8360
 4921SOL     MW19684   5.466   5.353   2.491 -0.2992  0.6318  0.1228
 4922SOL     OW19685   2.903   1.617   4.463 -0.2562 -0.0734  0.7328
 4922SOL    HW119686   2.930   1.708   4.476  0.1395  0.0383 -0.7093
 4922SOL    HW219687   2.983   1.572   4.437 -0.5194 -0.7603  1.1087
 4922SOL     MW19688   2.917   1.623   4.461 -0.2392 -0.1471  0.5963
 4923SOL     OW19689   3.613   3.434   2.782 -0.1270 -0.6213 -0.1565
 4923SOL    HW119690   3.548   3.400   2.843  0.1237  0.9764  1.0935
 4923SOL    HW219691   3.607   3.378   2.705 -0.8492 -2.3654  1.1222
 4923SOL     MW19692   3.604   3.423   2.780 -0.1873 -0.6401  0.1672
 4924SOL     OW19693   0.053   0.673   1.280  0.3177 -0.3473 -0.0115
 4924SOL    HW119694  -0.023   0.727   1.255 -1.2463 -2.7210 -0.6553
 4924SOL    HW219695   0.122   0.737   1.299 -1.5161  1.8828 -0.3974
 4924SOL     MW19696   0.052   0.688   1.280 -0.1173 -0.3657 -0.1433
 4925SOL     OW19697   5.383   4.036   0.086  0.1947  0.3513 -0.2887
 4925SOL    HW119698   5.293   4.021   0.059  0.0040  0.5648  0.2091
 4925SOL    HW219699   5.434   4.033   0.005 -0.6286  3.2289 -1.0290
 4925SOL     MW19700   5.378   4.034   0.072  0.0649  0.7470 -0.3197
 4926SOL     OW19701   0.689   1.731   4.251  0.1384 -0.5232  0.1660
 4926SOL    HW119702   0.742   1.740   4.331  2.0251 -2.3939 -0.7957
 4926SOL    HW219703   0.598   1.728   4.283  0.7056  0.6175  2.0581
 4926SOL     MW19704   0.684   1.732   4.266  0.4525 -0.6167  0.2851
 4927SOL     OW19705   3.487   1.543   3.734 -0.4786 -0.4691  0.3292
 4927SOL    HW119706   3.447   1.523   3.818  0.3415 -1.4842  0.4898
 4927SOL    HW219707   3.548   1.471   3.718 -1.2814 -0.7866 -1.5652
 4927SOL     MW19708   3.490   1.532   3.742 -0.4763 -0.6397  0.1072
 4928SOL     OW19709   0.406   2.241   1.470  0.2949 -0.2359  0.6210
 4928SOL    HW119710   0.471   2.311   1.461 -0.0766 -0.0390 -0.8614
 4928SOL    HW219711   0.338   2.264   1.406 -0.7900 -0.9227  1.4895
 4928SOL     MW19712   0.406   2.253   1.460  0.1085 -0.2986  0.5424
 4929SOL     OW19713   1.911   0.405   2.090  0.1760 -0.2347 -0.5177
 4929SOL    HW119714   1.964   0.479   2.060 -0.4875  1.0077  1.1868
 4929SOL    HW219715   1.967   0.328   2.078  1.6411  0.7962 -0.5165
 4929SOL     MW19716   1.925   0.404   2.084  0.2786  0.0563 -0.2994
 4930SOL     OW19717   2.305   4.229   1.934  0.7139  0.6075  0.4759
 4930SOL    HW119718   2.317   4.314   1.976  1.7290  1.1782 -0.8972
 4930SOL    HW219719   2.376   4.224   1.870  0.1607 -0.9111 -0.0514
 4930SOL     MW19720   2.316   4.239   1.932  0.7731  0.4862  0.2327
 4931SOL     OW19721   4.290   3.323   4.023  0.0573  0.0616  0.0891
 4931SOL    HW119722   4.262   3.278   4.103 -0.1607  0.1720  0.0744
 4931SOL    HW219723   4.247   3.274   3.953  0.6393 -0.3381  0.0061
 4931SOL     MW19724   4.281   3.311   4.025  0.1039  0.0246  0.0766
 4932SOL     OW19725   1.904   4.869   5.203 -0.1101 -0.1127 -0.5307
 4932SOL    HW119726   1.993   4.886   5.170  0.5261 -1.8039  0.1928
 4932SOL    HW219727   1.883   4.782   5.170 -1.9230  0.6394 -1.4721
 4932SOL     MW19728   1.913   4.860   5.195 -0.2607 -0.2329 -0.5586
 4933SOL     OW19729   3.272   0.933   4.495  0.2843 -0.0603 -0.2615
 4933SOL    HW119730   3.268   0.843   4.464  0.6970 -0.1351 -0.1040
 4933SOL    HW219731   3.246   0.928   4.587 -1.0513  0.1767 -0.5923
 4933SOL     MW19732   3.268   0.921   4.503  0.1661 -0.0395 -0.2837
 4934SOL     OW19733   1.317   1.644   4.777 -0.5110 -0.5482  0.2456
 4934SOL    HW119734   1.247   1.617   4.838  0.4032 -1.5854  0.8783
 4934SOL    HW219735   1.270   1.667   4.696 -1.6053 -1.0847  0.6958
 4934SOL     MW19736   1.302   1.643   4.774 -0.5341 -0.7497  0.3842
 4935SOL     OW19737   3.488   0.235   2.873  0.9287 -0.0206 -0.2623
 4935SOL    HW119738   3.466   0.142   2.866 -4.5390  0.9746 -0.2916
 4935SOL    HW219739   3.476   0.256   2.965  2.4953  0.6704 -0.1879
 4935SOL     MW19740   3.484   0.226   2.884  0.4293  0.1953 -0.2565
 4936SOL     OW19741   0.193   4.197   2.160  0.3024 -0.0647  0.5742
 4936SOL    HW119742   0.200   4.232   2.071  0.7782  1.0390  1.0185
 4936SOL    HW219743   0.185   4.102   2.149  2.9481 -0.2374 -0.5893
 4936SOL     MW19744   0.193   4.189   2.147  0.7020  0.0545  0.4822
 4937SOL     OW19745   3.367   0.911   4.120 -0.3912  0.4344  0.6854
 4937SOL    HW119746   3.461   0.927   4.115 -0.4020  0.1412 -1.9554
 4937SOL    HW219747   3.328   0.999   4.124 -0.0231  0.5555  1.8433
 4937SOL     MW19748   3.374   0.925   4.120 -0.3455  0.4124  0.4955
 4938SOL     OW19749   3.664   0.618   1.106 -0.2420 -0.4093 -0.0694
 4938SOL    HW119750   3.719   0.559   1.158 -1.1651 -0.4115  0.9420
 4938SOL    HW219751   3.602   0.560   1.062  0.9896 -0.4769 -1.8013
 4938SOL     MW19752   3.663   0.603   1.107 -0.2025 -0.4182 -0.1616
 4939SOL     OW19753   5.202   1.025   4.963 -0.2382  0.2362 -0.2779
 4939SOL    HW119754   5.128   0.987   5.011  1.4202 -1.9159  0.7709
 4939SOL    HW219755   5.219   0.962   4.892  1.6383 -0.2829  0.5694
 4939SOL     MW19756   5.194   1.012   4.960  0.2143 -0.1057 -0.0352
 4940SOL     OW19757   2.633   3.726   0.556  0.7430  0.4328 -0.5806
 4940SOL    HW119758   2.652   3.638   0.523 -2.9854 -0.1241 -1.6941
 4940SOL    HW219759   2.576   3.765   0.490 -1.0232  2.1323  1.7605
 4940SOL     MW19760   2.629   3.720   0.544  0.0396  0.5791 -0.4234
 4941SOL     OW19761   2.161   4.957   3.069  0.0805 -0.0934  0.1911
 4941SOL    HW119762   2.181   4.869   3.099 -1.6328 -0.5708  0.0314
 4941SOL    HW219763   2.167   4.952   2.973 -0.9124 -0.2868  0.1319
 4941SOL     MW19764   2.165   4.945   3.060 -0.2659 -0.1793  0.1630
 4942SOL     OW19765   0.733   1.072   1.247 -0.3232 -0.4263  0.3852
 4942SOL    HW119766   0.770   0.984   1.242  1.7208  0.3896 -0.0311
 4942SOL    HW219767   0.640   1.059   1.263  0.2173 -2.6349  2.1364
 4942SOL     MW19768   0.726   1.059   1.248  0.0077 -0.6046  0.5561
 4943SOL     OW19769   1.028   0.084   1.383  0.4881 -0.2286 -0.3991
 4943SOL    HW119770   1.029   0.113   1.474  1.2529 -0.0969 -0.4472
 4943SOL    HW219771   1.107   0.122   1.344 -0.7447  1.2336 -1.6091
 4943SOL     MW19772   1.038   0.093   1.390  0.4282 -0.0246 -0.5602
 4944SOL     OW19773   2.302   5.190   3.002 -0.0854 -0.2205 -0.3019
 4944SOL    HW119774   2.280   5.109   3.047 -0.3124  0.4649  0.8590
 4944SOL    HW219775   2.222   5.212   2.953 -0.2862 -0.3033 -0.0135
 4944SOL     MW19776   2.289   5.183   3.001 -0.1402 -0.1434 -0.1163
 4945SOL     OW19777   0.141   5.423   4.743 -0.6128  0.1409 -0.0942
 4945SOL    HW119778   0.128   5.368   4.820 -1.8030  0.8977  0.2732
 4945SOL    HW219779   0.060   5.475   4.736 -0.5537  0.0650 -1.8726
 4945SOL     MW19780   0.129   5.423   4.752 -0.7576  0.2281 -0.2749
 4946SOL     OW19781   4.047   1.019   0.699  0.0428  0.4217  0.7804
 4946SOL    HW119782   4.139   1.001   0.719 -0.2037 -0.3282  1.3020
 4946SOL    HW219783   4.038   1.114   0.711  1.4885  1.1191 -2.4691
 4946SOL     MW19784   4.057   1.029   0.703  0.1963  0.4150  0.4312
 4947SOL     OW19785   1.320   4.619   5.279 -0.3988  0.5569  0.1179
 4947SOL    HW119786   1.284   4.704   5.304 -0.2671  0.2230  1.4760
 4947SOL    HW219787   1.322   4.568   5.360  2.9747  0.5037  0.1463
 4947SOL     MW19788   1.316   4.623   5.292  0.0499  0.5074  0.2954
 4948SOL     OW19789   3.141   0.218   4.140  0.1249 -0.1699  0.2186
 4948SOL    HW119790   3.054   0.206   4.179  0.9573 -0.7285  2.0175
 4948SOL    HW219791   3.155   0.313   4.140 -0.9983  0.0385 -1.3744
 4948SOL     MW19792   3.132   0.229   4.145  0.0877 -0.2147  0.2449
 4949SOL     OW19793   1.144   0.954   0.464  0.2048  0.1018 -0.9142
 4949SOL    HW119794   1.103   0.969   0.378 -0.2101 -1.0246 -0.9273
 4949SOL    HW219795   1.149   1.041   0.503 -1.4245  0.3893 -1.2654
 4949SOL     MW19796   1.139   0.967   0.458 -0.0569 -0.0056 -0.9608
 4950SOL     OW19797   1.950   2.593   2.475  0.2424  0.1503  0.2097
 4950SOL    HW119798   1.881   2.659   2.481  0.8384  0.7938  0.2321
 4950SOL    HW219799   1.991   2.593   2.561 -0.1316 -0.6935  0.3977
 4950SOL     MW19800   1.947   2.602   2.487  0.2708  0.1247  0.2366
 4951SOL     OW19801   3.714   0.910   1.528  0.4910  0.7117  0.0361
 4951SOL    HW119802   3.774   0.841   1.499  1.6566  1.6268  0.1665
 4951SOL    HW219803   3.728   0.916   1.622 -0.3374  0.4572  0.1786
 4951SOL     MW19804   3.724   0.902   1.536  0.5342  0.7962  0.0711
 4952SOL     OW19805   4.751   1.170   2.880  0.2707 -0.0026 -0.3897
 4952SOL    HW119806   4.713   1.175   2.793 -0.6469  0.1520  0.0080
 4952SOL    HW219807   4.703   1.099   2.923 -1.5502  1.9813  1.0491
 4952SOL     MW19808   4.740   1.161   2.875 -0.0799  0.2711 -0.1546
 4953SOL     OW19809   0.491   5.319   2.474  0.1528 -0.5952 -0.0588
 4953SOL    HW119810   0.511   5.283   2.561  0.6468 -0.5110 -0.1362
 4953SOL    HW219811   0.561   5.381   2.457 -1.9057  2.2700  1.0942
 4953SOL     MW19812   0.502   5.322   2.483 -0.0475 -0.2177  0.0789
 4954SOL     OW19813   0.625   1.323   4.248  0.1001  0.0294 -1.1989
 4954SOL    HW119814   0.611   1.313   4.154  2.0188 -1.0408 -1.4163
 4954SOL    HW219815   0.677   1.247   4.273 -0.0362  0.5026  0.6688
 4954SOL     MW19816   0.630   1.312   4.239  0.3283 -0.0471 -0.9877
 4955SOL     OW19817   0.967   4.472   3.585  0.4813 -0.4174  0.1393
 4955SOL    HW119818   0.977   4.522   3.504 -1.1174 -0.4172 -0.1095
 4955SOL    HW219819   1.053   4.474   3.626  1.4820 -0.8947 -1.8265
 4955SOL     MW19820   0.979   4.479   3.580  0.4047 -0.4785 -0.1442
 4956SOL     OW19821   0.850   4.205   4.645  0.2944 -0.4053 -0.2291
 4956SOL    HW119822   0.945   4.218   4.643  0.2466 -0.1681 -2.2391
 4956SOL    HW219823   0.834   4.131   4.586 -0.7090 -1.0335  0.7883
 4956SOL     MW19824   0.860   4.197   4.637  0.1598 -0.4553 -0.3562
 4957SOL     OW19825   0.746   4.278   0.921 -0.2341 -0.2998  0.7823
 4957SOL    HW119826   0.770   4.369   0.904 -1.8903  0.1930  0.8311
 4957SOL    HW219827   0.778   4.230   0.844  1.3730  0.1561  1.1293
 4957SOL     MW19828   0.753   4.283   0.909 -0.2404 -0.1784  0.8329
 4958SOL     OW19829   4.925   0.738   3.386  0.6560  0.1330  0.3997
 4958SOL    HW119830   4.974   0.768   3.309 -0.4841  0.0552 -0.3882
 4958SOL    HW219831   4.838   0.717   3.351  0.8469 -2.3236  1.2256
 4958SOL     MW19832   4.920   0.739   3.371  0.5345 -0.1915  0.4045
 4959SOL     OW19833   5.359   2.917   5.005  0.1306 -0.3624  0.0762
 4959SOL    HW119834   5.352   2.889   4.914  0.4699 -0.2028 -0.0021
 4959SOL    HW219835   5.297   2.990   5.012  2.4576  1.8564 -0.9401
 4959SOL     MW19836   5.350   2.923   4.994  0.4719 -0.0579 -0.0639
 4960SOL     OW19837   5.001   1.808   5.270 -0.6167  0.3160  0.1197
 4960SOL    HW119838   4.951   1.789   5.191  0.1204 -0.3325 -0.2034
 4960SOL    HW219839   4.938   1.796   5.341 -0.6420 -1.7559 -0.1937
 4960SOL     MW19840   4.987   1.804   5.269 -0.5256 -0.0323  0.0382
 4961SOL     OW19841   0.978   2.115   5.005  0.1161  0.0854 -0.4252
 4961SOL    HW119842   0.935   2.192   4.969  1.9541  0.5894 -1.6603
 4961SOL    HW219843   1.052   2.149   5.055 -0.1414 -0.8151  0.6232
 4961SOL     MW19844   0.982   2.129   5.007  0.3184  0.0346 -0.4491
 4962SOL     OW19845   0.826   3.044   3.005 -0.2832  0.4394  0.3560
 4962SOL    HW119846   0.740   3.010   3.030 -0.2182 -1.1736 -1.4147
 4962SOL    HW219847   0.808   3.130   2.967 -1.2893 -0.3133 -0.9543
 4962SOL     MW19848   0.813   3.051   3.004 -0.4037  0.1365 -0.0384
 4963SOL     OW19849   3.442   3.552   3.790  0.0138  0.2493 -0.5564
 4963SOL    HW119850   3.439   3.609   3.866 -0.4274 -1.0269  0.4323
 4963SOL    HW219851   3.455   3.464   3.826  0.7076 -0.2864 -2.0161
 4963SOL     MW19852   3.443   3.548   3.804  0.0461  0.0173 -0.6167
 4964SOL     OW19853   5.017   3.961   3.805  0.2145  0.1193  0.2885
 4964SOL    HW119854   5.032   3.872   3.776  0.5992 -0.0475  0.9561
 4964SOL    HW219855   5.065   4.016   3.742  2.4365 -0.3235  1.4744
 4964SOL     MW19856   5.025   3.957   3.793  0.5482  0.0412  0.5257
 4965SOL     OW19857   0.580   3.418   3.491 -0.0189  0.0520  0.1408
 4965SOL    HW119858   0.592   3.370   3.573 -2.8927 -3.1333 -1.0515
 4965SOL    HW219859   0.648   3.383   3.432  0.6378  0.7045  0.5000
 4965SOL     MW19860   0.590   3.407   3.494 -0.3027 -0.2722  0.0342
 4966SOL     OW19861   5.156   0.810   0.542 -0.1453 -0.2022 -0.0940
 4966SOL    HW119862   5.088   0.814   0.474  1.0910 -0.8501 -1.4163
 4966SOL    HW219863   5.119   0.753   0.610 -2.1375  1.8746  0.7013
 4966SOL     MW19864   5.142   0.803   0.542 -0.2421 -0.0193 -0.1615
 4967SOL     OW19865   3.815   4.262   2.659 -0.5277 -0.2839 -0.4046
 4967SOL    HW119866   3.879   4.208   2.705 -2.4801 -1.1980  1.4555
 4967SOL    HW219867   3.752   4.287   2.727 -1.9226  0.9109 -2.0485
 4967SOL     MW19868   3.815   4.258   2.674 -0.9562 -0.2480 -0.3769
 4968SOL     OW19869   1.165   1.260   3.050  0.3697  0.0838 -0.1068
 4968SOL    HW119870   1.114   1.334   3.014 -0.2423 -0.4103 -0.2763
 4968SOL    HW219871   1.139   1.185   2.996  1.0205 -0.2492  0.0383
 4968SOL     MW19872   1.155   1.260   3.038  0.3747 -0.0221 -0.1099
 4969SOL     OW19873   1.188   2.835   0.579 -0.0671  0.1687 -0.0509
 4969SOL    HW119874   1.271   2.802   0.545 -0.8074 -0.2860 -1.4774
 4969SOL    HW219875   1.212   2.879   0.661  1.9120  2.0172 -1.5145
 4969SOL     MW19876   1.202   2.837   0.585  0.0915  0.3472 -0.4209
 4970SOL     OW19877   5.368   1.226   3.384 -0.4997 -0.0744 -0.6418
 4970SOL    HW119878   5.286   1.223   3.433  0.6740 -0.7163  1.3776
 4970SOL    HW219879   5.386   1.319   3.373 -2.1175  0.1022 -2.2941
 4970SOL     MW19880   5.360   1.237   3.389 -0.5566 -0.1340 -0.5948
 4971SOL     OW19881   1.850   2.659   2.123  0.2190  0.5799  0.6451
 4971SOL    HW119882   1.945   2.671   2.121  0.1014  1.6774  0.8930
 4971SOL    HW219883   1.833   2.588   2.061  1.0858  1.1656 -0.2920
 4971SOL     MW19884   1.860   2.651   2.115  0.3149  0.7954  0.5568
 4972SOL     OW19885   2.759   2.246   2.922  0.4604 -0.6109  0.2284
 4972SOL    HW119886   2.776   2.338   2.900 -0.9484 -0.7109 -1.5053
 4972SOL    HW219887   2.719   2.250   3.009 -1.4552  0.6761 -0.6413
 4972SOL     MW19888   2.756   2.258   2.930  0.0348 -0.4589 -0.1049
 4973SOL     OW19889   5.272   2.388   5.452 -0.5037 -0.2144  0.0544
 4973SOL    HW119890   5.271   2.321   5.520  0.6518  0.4149  0.7302
 4973SOL    HW219891   5.365   2.408   5.439 -0.7917  0.8039 -0.5816
 4973SOL     MW19892   5.284   2.382   5.459 -0.3926 -0.0035  0.0595
 4974SOL     OW19893   3.772   4.402   1.088 -0.1942 -0.1829 -0.1991
 4974SOL    HW119894   3.715   4.391   1.012 -0.0379 -2.3223 -0.0632
 4974SOL    HW219895   3.855   4.433   1.051 -0.5089  0.0126 -0.7505
 4974SOL     MW19896   3.775   4.405   1.074 -0.2145 -0.4317 -0.2523
 4975SOL     OW19897   3.096   3.140   1.653 -0.2080  0.2585 -0.1240
 4975SOL    HW119898   3.044   3.061   1.663  1.0577 -1.0747 -2.9153
 4975SOL    HW219899   3.110   3.148   1.558  2.6564  1.8386  0.2946
 4975SOL     MW19900   3.091   3.131   1.642  0.3207  0.2901 -0.4278
 4976SOL     OW19901   5.354   0.053   4.331  0.1463 -0.2886  0.6846
 4976SOL    HW119902   5.433   0.004   4.308 -0.3703 -0.4400 -0.9245
 4976SOL    HW219903   5.282  -0.006   4.308 -0.5144  1.4171 -2.0417
 4976SOL     MW19904   5.355   0.039   4.325 -0.0044 -0.0897  0.1296
 4977SOL     OW19905   1.880   1.138   1.840 -0.0365 -0.3394  0.4181
 4977SOL    HW119906   1.797   1.101   1.870  0.0475  0.5210  1.8344
 4977SOL    HW219907   1.947   1.091   1.890  0.1042  1.1962  1.7654
 4977SOL     MW19908   1.878   1.127   1.851 -0.0077 -0.0327  0.7718
 4978SOL     OW19909   2.188   5.051   4.727 -0.4902 -0.1139 -0.1131
 4978SOL    HW119910   2.125   5.054   4.799  1.9832  0.3924  2.1955
 4978SOL    HW219911   2.192   5.141   4.695 -1.1596 -0.2222 -0.5276
 4978SOL     MW19912   2.180   5.063   4.732 -0.2593 -0.0630  0.1294
 4979SOL     OW19913   1.138   1.611   3.639  0.5954  0.1303  0.1941
 4979SOL    HW119914   1.052   1.618   3.680  0.6166  1.1109  0.0995
 4979SOL    HW219915   1.193   1.566   3.704  0.4387  1.0073  0.9496
 4979SOL     MW19916   1.134   1.606   3.653  0.5780  0.3681  0.2787
 4980SOL     OW19917   0.969   3.932   5.433 -0.0009  0.6337  0.8817
 4980SOL    HW119918   0.879   3.911   5.406  0.6666  0.1644 -1.1436
 4980SOL    HW219919   0.958   3.993   5.507 -1.9929  1.7739 -0.2540
 4980SOL     MW19920   0.956   3.937   5.439 -0.1705  0.7196  0.4771
 4981SOL     OW19921   0.562   4.161   2.010 -0.1460  0.1520 -0.7462
 4981SOL    HW119922   0.588   4.088   2.066  1.1641  0.6394 -0.6829
 4981SOL    HW219923   0.510   4.217   2.068 -0.4297 -0.2977 -0.5567
 4981SOL     MW19924   0.559   4.159   2.025 -0.0146  0.1568 -0.7138
 4982SOL     OW19925   4.821   3.471   1.927  0.4269  0.1006  0.4654
 4982SOL    HW119926   4.824   3.375   1.920  0.4091  0.1648 -0.5332
 4982SOL    HW219927   4.779   3.487   2.012 -2.7987 -0.7888 -0.8274
 4982SOL     MW19928   4.816   3.461   1.937  0.0117 -0.0050  0.1720
 4983SOL     OW19929   1.407   2.715   0.506  0.0667 -0.6557  0.7516
 4983SOL    HW119930   1.453   2.743   0.427  0.7721 -0.1374  1.3295
 4983SOL    HW219931   1.394   2.621   0.494 -0.1775 -0.5169 -0.1468
 4983SOL     MW19932   1.411   2.707   0.495  0.1257 -0.5716  0.7106
 4984SOL     OW19933   4.446   2.467   3.666  0.2204  0.0085 -0.2770
 4984SOL    HW119934   4.394   2.442   3.743  0.1787 -0.0200 -0.3138
 4984SOL    HW219935   4.419   2.557   3.648 -0.8354 -0.4588 -1.1158
 4984SOL     MW19936   4.436   2.475   3.674  0.0799 -0.0550 -0.3891
 4985SOL     OW19937   2.471   4.668   1.396 -0.4266  0.1480  0.4493
 4985SOL    HW119938   2.449   4.576   1.383 -1.0567  0.2918  0.4788
 4985SOL    HW219939   2.388   4.711   1.413 -0.1521  0.7484  0.3226
 4985SOL     MW19940   2.458   4.662   1.397 -0.4721  0.2433  0.4369
 4986SOL     OW19941   5.295   4.816   2.282 -0.1444  0.3769 -0.0921
 4986SOL    HW119942   5.237   4.880   2.323  1.3002 -0.0826  2.9627
 4986SOL    HW219943   5.376   4.864   2.264 -0.0204  0.0589 -0.4041
 4986SOL     MW19944   5.298   4.830   2.285  0.0564  0.2774  0.2590
 4987SOL     OW19945   4.963   3.666   0.158  0.1027  0.0431 -0.0214
 4987SOL    HW119946   4.901   3.599   0.129  0.9201 -0.8042  0.1440
 4987SOL    HW219947   5.002   3.700   0.077  1.1887 -1.1625 -0.0369
 4987SOL     MW19948   4.960   3.662   0.144  0.3464 -0.2197 -0.0022
 4988SOL     OW19949   1.452   4.158   2.032 -0.2607  0.2040 -0.2951
 4988SOL    HW119950   1.409   4.101   1.968  1.8620 -0.0402 -1.6117
 4988SOL    HW219951   1.526   4.195   1.984  0.4771  1.3017  1.5881
 4988SOL     MW19952   1.456   4.156   2.017  0.1055  0.3133 -0.2226
 4989SOL     OW19953   4.207   2.863   4.975  0.3915  0.6718  0.1002
 4989SOL    HW119954   4.156   2.835   5.051 -0.5774 -0.2466 -0.8545
 4989SOL    HW219955   4.148   2.921   4.926  1.2490  1.8174  0.3826
 4989SOL     MW19956   4.193   2.867   4.978  0.3772  0.7009  0.0141
 4990SOL     OW19957   0.134   0.894   1.500 -0.4346  0.2067 -0.4326
 4990SOL    HW119958   0.144   0.983   1.533 -1.8374  1.7000 -3.6249
 4990SOL    HW219959   0.214   0.878   1.450 -0.5277 -0.0099 -0.5145
 4990SOL     MW19960   0.145   0.903   1.498 -0.6261  0.3701 -0.8517
 4991SOL     OW19961   3.191   3.944   4.801  0.0543 -0.0251 -0.0523
 4991SOL    HW119962   3.279   3.957   4.767  0.1135  2.0418  0.7286
 4991SOL    HW219963   3.198   3.870   4.861  1.7914  1.4314  1.6573
 4991SOL     MW19964   3.203   3.936   4.804  0.2842  0.4259  0.2665
 4992SOL     OW19965   0.288   5.387   3.851 -0.4022 -0.5671 -0.3498
 4992SOL    HW119966   0.335   5.396   3.934  0.7297  0.6120 -1.0739
 4992SOL    HW219967   0.238   5.468   3.843 -0.2475 -0.5250 -0.9571
 4992SOL     MW19968   0.287   5.398   3.861 -0.2375 -0.4108 -0.5202
 4993SOL     OW19969   3.720   2.917   1.904  0.0642  0.7339 -0.0788
 4993SOL    HW119970   3.716   2.838   1.850 -0.6621  0.4255  0.3960
 4993SOL    HW219971   3.736   2.884   1.993  0.8488  1.2023 -0.0434
 4993SOL     MW19972   3.721   2.902   1.909  0.0717  0.7544 -0.0135
 4994SOL     OW19973   4.978   1.196   5.316  0.0974 -0.4045  0.2531
 4994SOL    HW119974   4.924   1.202   5.237  0.7950  0.7879 -0.1470
 4994SOL    HW219975   4.985   1.286   5.348  0.3680 -0.7880  1.3057
 4994SOL     MW19976   4.972   1.208   5.310  0.2213 -0.3009  0.3366
 4995SOL     OW19977   4.857   3.256   4.384 -0.4635  0.0489 -0.0913
 4995SOL    HW119978   4.814   3.175   4.411  1.2834 -0.7653  0.3552
 4995SOL    HW219979   4.856   3.252   4.288  0.9081 -1.2605 -0.0898
 4995SOL     MW19980   4.851   3.245   4.375 -0.0643 -0.2230 -0.0339
 4996SOL     OW19981   5.361   3.242   0.036  0.1705  0.2607  0.1586
 4996SOL    HW119982   5.269   3.233   0.011 -0.0004 -1.1921  1.1995
 4996SOL    HW219983   5.409   3.236  -0.047 -0.4924 -2.4667 -0.1104
 4996SOL     MW19984   5.355   3.240   0.022  0.0638 -0.2744  0.2574
 4997SOL     OW19985   3.699   4.545   4.913  0.0183 -0.5660  0.2423
 4997SOL    HW119986   3.702   4.586   5.000 -1.2452 -1.0142  0.5233
 4997SOL    HW219987   3.701   4.618   4.852 -2.0051 -0.0273  0.7284
 4997SOL     MW19988   3.700   4.560   4.916 -0.4024 -0.5544  0.3405
 4998SOL     OW19989   2.796   5.284   3.787  0.7165  0.0395  0.1502
 4998SOL    HW119990   2.718   5.229   3.781  1.0810 -0.7985  2.1917
 4998SOL    HW219991   2.784   5.335   3.868  1.6160  0.9771 -0.2758
 4998SOL     MW19992   2.785   5.283   3.797  0.8783  0.0522  0.3570
 4999SOL     OW19993   3.465   3.058   1.093  0.2076  1.0224 -0.3949
 4999SOL    HW119994   3.426   3.023   1.174 -0.3948 -2.0513 -1.8639
 4999SOL    HW219995   3.394   3.057   1.030  1.4607  0.0069 -1.8533
 4999SOL     MW19996   3.451   3.053   1.095  0.2909  0.4989 -0.7696
 5000SOL     OW19997   4.796   4.519   3.240 -0.3963 -0.3421 -0.7021
 5000SOL    HW119998   4.765   4.484   3.157 -2.5692 -0.1923 -0.0249
 5000SOL    HW219999   4.748   4.601   3.251 -0.3303 -0.4651  0.7807
 5000SOL     MW20000   4.786   4.525   3.231 -0.6660 -0.3386 -0.4256
 5001SOL     OW20001   2.284   1.332   5.077  0.2456 -0.1809  0.0691
 5001SOL    HW120002   2.229   1.392   5.027 -0.0334 -1.5586 -1.3740
 5001SOL    HW220003   2.275   1.248   5.032  0.6187 -1.3334  1.9943
 5001SOL     MW20004   2.275   1.329   5.065  0.2576 -0.5048  0.1308
 5002SOL     OW20005   3.136   0.351   0.857 -0.0686  0.0991 -0.1291
 5002SOL    HW120006   3.216   0.394   0.826  0.3150 -1.0789 -0.8250
 5002SOL    HW220007   3.072   0.370   0.789 -0.2166  0.5364  0.1318
 5002SOL     MW20008   3.138   0.359   0.844 -0.0384  0.0043 -0.1848
 5003SOL     OW20009   0.169   3.458   5.340 -0.2631  0.0897 -0.4011
 5003SOL    HW120010   0.141   3.454   5.431  1.0418 -1.1883 -0.0176
 5003SOL    HW220011   0.235   3.527   5.338 -0.8411  0.6507 -0.5622
 5003SOL     MW20012   0.174   3.466   5.351 -0.1700 -0.0021 -0.3726
 5004SOL     OW20013   0.272   0.098   2.496 -0.0551 -0.3510  0.2290
 5004SOL    HW120014   0.294   0.005   2.509 -0.2181 -0.4572 -0.2510
 5004SOL    HW220015   0.251   0.105   2.403  1.8435  0.5580 -0.1733
 5004SOL     MW20016   0.272   0.087   2.486  0.1671 -0.2482  0.1161
 5005SOL     OW20017   3.001   2.875   2.364 -0.1754  0.1944  0.8954
 5005SOL    HW120018   3.062   2.898   2.434  0.7084 -0.9617  0.5342
 5005SOL    HW220019   3.056   2.867   2.286 -1.1875  1.7591 -0.0226
 5005SOL     MW20020   3.016   2.877   2.363 -0.1918  0.2467  0.7316
 5006SOL     OW20021   2.319   1.920   1.356  0.6210 -0.0911 -0.2889
 5006SOL    HW120022   2.276   1.911   1.441  1.4953  0.6661  0.2490
 5006SOL    HW220023   2.313   1.833   1.317  0.1874 -0.4453  0.5384
 5006SOL     MW20024   2.313   1.907   1.362  0.6774 -0.0395 -0.1141
 5007SOL     OW20025   1.759   1.794   1.024 -0.0569 -0.4751 -0.3046
 5007SOL    HW120026   1.762   1.751   0.939 -0.6080  2.1906 -1.7723
 5007SOL    HW220027   1.772   1.887   1.005 -2.2075  0.4964  2.2585
 5007SOL     MW20028   1.761   1.800   1.011 -0.4028 -0.0095 -0.1644
 5008SOL     OW20029   2.033   0.138   1.044  0.7828  0.0498 -0.0779
 5008SOL    HW120030   2.079   0.188   1.111  1.5934 -0.8722  0.0782
 5008SOL    HW220031   1.941   0.162   1.055  0.8324 -0.4708  1.7030
 5008SOL     MW20032   2.027   0.148   1.054  0.8930 -0.1349  0.1700
 5009SOL     OW20033   4.972   3.635   1.476  0.8237 -0.1078  0.1176
 5009SOL    HW120034   4.926   3.709   1.437  3.3649  1.1007 -0.8144
 5009SOL    HW220035   4.919   3.611   1.551 -0.3305  2.4249  0.2172
 5009SOL     MW20036   4.960   3.641   1.481  1.0012  0.3711  0.0111
 5010SOL     OW20037   3.228   5.198   1.265 -0.4233  0.0533  0.2197
 5010SOL    HW120038   3.170   5.126   1.291 -1.3998 -0.1252 -2.1355
 5010SOL    HW220039   3.212   5.266   1.330 -0.7272 -1.2370  1.5557
 5010SOL     MW20040   3.218   5.197   1.276 -0.5872 -0.1347  0.0892
 5011SOL     OW20041   5.219   2.755   1.650  0.0146  0.2916 -0.5203
 5011SOL    HW120042   5.198   2.701   1.574  0.6810 -1.4383  0.4740
 5011SOL    HW220043   5.212   2.696   1.725 -2.9883  2.4667  1.1229
 5011SOL     MW20044   5.216   2.741   1.650 -0.2845  0.3486 -0.1827
 5012SOL     OW20045   0.699   4.058   3.580 -0.0823 -0.0981  0.4003
 5012SOL    HW120046   0.642   4.114   3.633  0.6873  0.5902  0.5205
 5012SOL    HW220047   0.729   3.991   3.641 -1.7784 -1.2445  0.0201
 5012SOL     MW20048   0.695   4.057   3.595 -0.2009 -0.1567  0.3670
 5013SOL     OW20049   3.176   1.376   3.775 -0.0596 -0.1613  0.1037
 5013SOL    HW120050   3.083   1.353   3.785 -0.1408 -0.7731 -1.6441
 5013SOL    HW220051   3.195   1.356   3.683  2.0929 -1.0339  0.6956
 5013SOL     MW20052   3.166   1.370   3.764  0.2055 -0.3513 -0.0443
 5014SOL     OW20053   3.974   4.681   3.069  0.9834 -0.3671 -0.5523
 5014SOL    HW120054   4.047   4.632   3.031 -0.5127 -1.7242 -1.8128
 5014SOL    HW220055   3.955   4.638   3.152  1.7803  0.1908 -0.0637
 5014SOL     MW20056   3.981   4.669   3.074  0.8939 -0.4694 -0.6511
 5015SOL     OW20057   3.894   3.424   1.086  0.0910  0.2090  0.2971
 5015SOL    HW120058   3.810   3.406   1.128 -0.0498  2.1785  0.9548
 5015SOL    HW220059   3.959   3.407   1.154  0.6301 -4.2252 -1.0138
 5015SOL     MW20060   3.891   3.420   1.100  0.1420 -0.1065  0.2135
 5016SOL     OW20061   2.511   0.885   3.846 -0.3597 -0.5372  0.3803
 5016SOL    HW120062   2.484   0.796   3.820 -0.8268 -0.4868  0.6720
 5016SOL    HW220063   2.434   0.921   3.890  0.1447 -0.3359  1.1242
 5016SOL     MW20064   2.497   0.878   3.848 -0.3549 -0.5050  0.5129
 5017SOL     OW20065   4.220   0.468   1.112 -0.5065 -0.0807  0.3484
 5017SOL    HW120066   4.171   0.528   1.167 -0.1508 -0.0625  0.6477
 5017SOL    HW220067   4.311   0.498   1.119 -0.5628  0.4388 -0.9051
 5017SOL     MW20068   4.226   0.480   1.120 -0.4681 -0.0119  0.2262
 5018SOL     OW20069   3.546   4.291   1.543  0.3113  0.4622  0.4106
 5018SOL    HW120070   3.633   4.317   1.573  1.0502  0.0060 -1.2225
 5018SOL    HW220071   3.561   4.254   1.456 -1.4204 -0.3493  0.4194
 5018SOL     MW20072   3.559   4.290   1.536  0.1842  0.2999  0.2027
 5019SOL     OW20073   1.958   3.872   4.435  0.1109 -0.5892 -0.2210
 5019SOL    HW120074   2.042   3.881   4.480  0.3108 -0.2207 -0.6530
 5019SOL    HW220075   1.981   3.858   4.343 -0.2814 -1.7236 -0.1672
 5019SOL     MW20076   1.972   3.871   4.429  0.0863 -0.6872 -0.2694
 5020SOL     OW20077   1.236   2.305   1.167 -0.1134  0.0510 -0.2384
 5020SOL    HW120078   1.316   2.347   1.200 -1.0703  0.8389  1.2056
 5020SOL    HW220079   1.255   2.211   1.170  1.2690  0.2613 -1.3599
 5020SOL     MW20080   1.248   2.298   1.172 -0.0589  0.1788 -0.1971
 5021SOL     OW20081   2.038   4.123   2.292 -0.4087 -0.6136  0.0856
 5021SOL    HW120082   2.113   4.085   2.247  0.8490  1.7748 -0.0261
 5021SOL    HW220083   2.077   4.182   2.357 -2.1589  0.7078  0.0004
 5021SOL     MW20084   2.053   4.126   2.295 -0.4718 -0.1387  0.0604
 5022SOL     OW20085   3.813   3.725   5.218 -0.6400 -0.6485  0.7390
 5022SOL    HW120086   3.725   3.760   5.230 -0.6979 -0.4440 -0.1995
 5022SOL    HW220087   3.806   3.632   5.240 -1.4140 -0.9387 -0.6398
 5022SOL     MW20088   3.801   3.718   5.223 -0.7465 -0.6594  0.4424
 5023SOL     OW20089   1.245   4.061   2.209  0.2132 -0.0496 -0.1328
 5023SOL    HW120090   1.282   4.055   2.297 -0.9856  1.0279  0.4685
 5023SOL    HW220091   1.302   4.123   2.163  0.8220 -0.5904 -0.1304
 5023SOL     MW20092   1.257   4.068   2.214  0.1377  0.0191 -0.0555
 5024SOL     OW20093   3.583   2.700   4.489 -0.0912 -0.0926  0.0267
 5024SOL    HW120094   3.586   2.671   4.580  0.5847 -0.6707 -0.1702
 5024SOL    HW220095   3.671   2.734   4.472 -0.2896  0.2412 -0.3389
 5024SOL     MW20096   3.595   2.700   4.498 -0.0300 -0.1239 -0.0453
 5025SOL     OW20097   0.847   2.551   2.207 -0.3545  0.2664 -0.2919
 5025SOL    HW120098   0.754   2.536   2.196 -0.3230 -0.5269  0.4312
 5025SOL    HW220099   0.854   2.593   2.293  0.0851 -1.3420  0.4985
 5025SOL     MW20100   0.836   2.554   2.217 -0.2942 -0.0410 -0.0981
 5026SOL     OW20101   3.374   5.254   2.510 -0.3826  0.0954  0.0851
 5026SOL    HW120102   3.364   5.242   2.415 -2.0467  0.8957  0.1206
 5026SOL    HW220103   3.310   5.194   2.548  0.6586 -0.6119  0.7296
 5026SOL     MW20104   3.364   5.245   2.502 -0.4624  0.1073  0.1722
 5027SOL     OW20105   2.589   0.741   2.314  0.0950  0.5992 -0.2120
 5027SOL    HW120106   2.632   0.720   2.397 -1.4747 -3.0986 -0.1321
 5027SOL    HW220107   2.661   0.768   2.256  1.6845  0.0891  1.4113
 5027SOL     MW20108   2.604   0.742   2.317  0.0975  0.0606  0.0061
 5028SOL     OW20109   3.755   0.731   2.626  0.2011  0.0220  0.2717
 5028SOL    HW120110   3.775   0.637   2.623  0.7674  0.0511  1.9284
 5028SOL    HW220111   3.830   0.773   2.586 -0.3555 -0.2356 -1.1013
 5028SOL     MW20112   3.767   0.724   2.621  0.2024 -0.0073  0.3080
 5029SOL     OW20113   1.878   1.529   1.907 -0.0292  0.3044  0.5967
 5029SOL    HW120114   1.835   1.591   1.848  0.7986  0.1275 -0.1989
 5029SOL    HW220115   1.917   1.463   1.850  1.3969  0.5105  1.2910
 5029SOL     MW20116   1.877   1.529   1.892  0.2593  0.3081  0.5837
 5030SOL     OW20117   0.250   1.923   4.860  0.2734 -0.1473 -0.6129
 5030SOL    HW120118   0.340   1.904   4.832  0.9840 -1.9554  2.4647
 5030SOL    HW220119   0.251   2.017   4.881  1.7829 -0.3478  0.3443
 5030SOL     MW20120   0.262   1.933   4.859  0.5576 -0.4044 -0.0964
 5031SOL     OW20121   5.305   3.770   0.127  0.1626 -0.0301  0.0754
 5031SOL    HW120122   5.341   3.856   0.149 -1.0570  0.3156  0.8329
 5031SOL    HW220123   5.285   3.730   0.212 -0.0223 -0.7389 -0.2891
 5031SOL     MW20124   5.307   3.776   0.141 -0.0172 -0.0766  0.1257
 5032SOL     OW20125   0.225   2.072   1.729 -0.2746  0.1991  0.0312
 5032SOL    HW120126   0.194   2.045   1.815  0.1345  0.7497  0.3595
 5032SOL    HW220127   0.239   2.166   1.737 -1.3161  0.4545 -0.9804
 5032SOL     MW20128   0.223   2.080   1.741 -0.3555  0.3023 -0.0563
 5033SOL     OW20129   1.830   0.639   0.203  0.2237 -0.1749  0.0157
 5033SOL    HW120130   1.794   0.550   0.204 -2.1576  0.7166  1.1447
 5033SOL    HW220131   1.912   0.631   0.153 -0.5970 -2.7030 -1.1056
 5033SOL     MW20132   1.836   0.626   0.197 -0.1862 -0.3844  0.0167
 5034SOL     OW20133   4.782   2.639   0.314 -0.0233  0.5239 -0.0506
 5034SOL    HW120134   4.863   2.591   0.330  1.0604  1.9579 -0.9192
 5034SOL    HW220135   4.769   2.632   0.219  0.2030  1.9484 -0.2121
 5034SOL     MW20136   4.790   2.632   0.304  0.1444  0.8898 -0.1825
 5035SOL     OW20137   0.935   5.281   2.701 -0.0451  0.5639 -0.6783
 5035SOL    HW120138   0.895   5.359   2.739 -0.8028  0.6725 -1.6613
 5035SOL    HW220139   0.897   5.275   2.613  0.5646 -0.4934 -0.8847
 5035SOL     MW20140   0.925   5.291   2.694 -0.0640  0.4424 -0.8305
 5036SOL     OW20141   5.397   5.068   0.587 -0.1048  0.3548 -0.0203
 5036SOL    HW120142   5.383   5.071   0.681 -0.2940  0.0079 -0.0360
 5036SOL    HW220143   5.489   5.095   0.576  0.2757 -0.7160  0.3636
 5036SOL     MW20144   5.407   5.072   0.598 -0.0803  0.1733  0.0268
 5037SOL     OW20145   4.825   0.211   4.839  0.1310 -0.1163 -0.2200
 5037SOL    HW120146   4.746   0.244   4.797 -0.2603 -0.5514  0.1621
 5037SOL    HW220147   4.810   0.117   4.848  1.6294 -0.6044 -2.1970
 5037SOL     MW20148   4.813   0.203   4.835  0.2728 -0.2344 -0.4242
 5038SOL     OW20149   1.526   0.144   3.699 -0.5185  0.2936  0.4145
 5038SOL    HW120150   1.571   0.159   3.783 -0.7847  0.5769  0.5089
 5038SOL    HW220151   1.502   0.232   3.669  0.1280  0.2506 -0.2714
 5038SOL     MW20152   1.529   0.157   3.706 -0.4698  0.3244  0.3388
 5039SOL     OW20153   2.502   0.287   0.058 -0.2831  0.0890 -0.1534
 5039SOL    HW120154   2.474   0.318  -0.028 -0.8023 -1.6264 -0.6353
 5039SOL    HW220155   2.592   0.318   0.067 -0.1742  0.1614 -1.3827
 5039SOL     MW20156   2.510   0.295   0.048 -0.3356 -0.1213 -0.3724
 5040SOL     OW20157   1.640   4.554   1.660  0.1911  0.7921 -0.4667
 5040SOL    HW120158   1.702   4.501   1.709  0.8212  0.5930 -1.4535
 5040SOL    HW220159   1.577   4.491   1.625  1.5530  0.4823 -2.5557
 5040SOL     MW20160   1.640   4.539   1.661  0.4461  0.7270 -0.8604
 5041SOL     OW20161   2.608   0.621   0.068 -0.6704 -0.1541 -0.3225
 5041SOL    HW120162   2.577   0.621   0.159 -1.4197 -1.1917 -0.5646
 5041SOL    HW220163   2.541   0.574   0.020 -0.0806  0.0416 -1.3569
 5041SOL     MW20164   2.595   0.615   0.074 -0.6908 -0.2619 -0.4859
 5042SOL     OW20165   2.837   1.046   5.274 -0.0166  0.1032  0.4100
 5042SOL    HW120166   2.875   1.118   5.225  0.5167 -0.5695 -0.1900
 5042SOL    HW220167   2.780   1.088   5.338  1.4655  1.1267  1.1041
 5042SOL     MW20168   2.834   1.060   5.276  0.2414  0.1481  0.4221
 5043SOL     OW20169   1.846   0.002   2.052 -0.3837  0.0951  0.2612
 5043SOL    HW120170   1.795   0.037   2.125 -1.5019 -0.6643 -0.1305
 5043SOL    HW220171   1.914   0.067   2.036 -1.5496  1.3918  0.4576
 5043SOL     MW20172   1.848   0.014   2.059 -0.6761  0.1638  0.2362
 5044SOL     OW20173   0.714   3.932   4.081  0.5512 -1.1076 -0.1000
 5044SOL    HW120174   0.695   3.957   3.990  0.2263 -0.7824  0.0545
 5044SOL    HW220175   0.772   4.001   4.113  0.5874 -1.1701 -0.0320
 5044SOL     MW20176   0.719   3.944   4.073  0.5143 -1.0739 -0.0715
 5045SOL     OW20177   5.125   0.230   0.104  0.0478  0.2906 -0.1868
 5045SOL    HW120178   5.209   0.267   0.077 -0.5673  1.9977  0.1043
 5045SOL    HW220179   5.140   0.198   0.193  0.5893 -0.1832 -0.4399
 5045SOL     MW20180   5.138   0.231   0.112  0.0383  0.4484 -0.1820
 5046SOL     OW20181   0.976   0.043   3.052  0.0561 -0.9728 -0.0724
 5046SOL    HW120182   0.975   0.139   3.058 -0.0254 -0.8726 -1.3421
 5046SOL    HW220183   0.903   0.015   3.107  0.0465 -0.3069  0.2754
 5046SOL     MW20184   0.967   0.052   3.060  0.0444 -0.8747 -0.1904
 5047SOL     OW20185   1.535   1.170   5.361 -0.1367 -0.0645 -0.2413
 5047SOL    HW120186   1.472   1.134   5.423  0.2301 -0.2938 -0.0012
 5047SOL    HW220187   1.556   1.098   5.302  0.3384 -0.1578  0.0330
 5047SOL     MW20188   1.530   1.156   5.361 -0.0290 -0.1058 -0.1754
 5048SOL     OW20189   3.188   1.380   4.424 -0.5472 -0.0498 -0.1189
 5048SOL    HW120190   3.210   1.455   4.369 -1.9100 -0.2098 -0.9291
 5048SOL    HW220191   3.231   1.398   4.508  1.9754 -0.0058 -1.3039
 5048SOL     MW20192   3.197   1.392   4.427 -0.3987 -0.0646 -0.3743
 5049SOL     OW20193   0.805   5.173   4.706  0.0934  0.3217  0.4013
 5049SOL    HW120194   0.800   5.078   4.716 -1.0591  0.4186  0.8787
 5049SOL    HW220195   0.881   5.187   4.649 -0.5750 -0.9583 -0.8544
 5049SOL     MW20196   0.814   5.163   4.700 -0.1397  0.1702  0.3017
 5050SOL     OW20197   0.247   1.902   3.881  0.2385 -0.2695 -0.3142
 5050SOL    HW120198   0.288   1.822   3.912  0.8347  0.2297  0.2237
 5050SOL    HW220199   0.163   1.874   3.844  0.0511 -1.0221  0.6610
 5050SOL     MW20200   0.241   1.888   3.880  0.2908 -0.3020 -0.1205
 5051SOL     OW20201   3.308   3.220   3.284  0.0428  0.2358 -0.5112
 5051SOL    HW120202   3.238   3.261   3.233  0.1587  1.4303  0.2436
 5051SOL    HW220203   3.329   3.140   3.236 -1.3490  0.2120 -1.1373
 5051SOL     MW20204   3.302   3.215   3.271 -0.1206  0.3857 -0.4947
 5052SOL     OW20205   0.282   1.704   1.121 -0.1496  0.0944  0.7124
 5052SOL    HW120206   0.203   1.683   1.072 -0.9640  0.9355  1.6350
 5052SOL    HW220207   0.251   1.738   1.204  1.1224  2.0732  0.4528
 5052SOL     MW20208   0.268   1.706   1.125 -0.0910  0.4554  0.7973
 5053SOL     OW20209   2.841   4.461   2.304  0.0052  0.3286  0.3545
 5053SOL    HW120210   2.766   4.440   2.360 -1.9622  1.4995 -1.6882
 5053SOL    HW220211   2.863   4.379   2.260  1.5367 -0.5935  2.6522
 5053SOL     MW20212   2.834   4.448   2.306 -0.0506  0.3605  0.3871
 5054SOL     OW20213   0.882   1.816   4.453 -0.1737 -0.4506  0.6466
 5054SOL    HW120214   0.883   1.898   4.403  0.7018 -0.1730  1.1075
 5054SOL    HW220215   0.929   1.836   4.533  0.0087 -1.3980  0.7853
 5054SOL     MW20216   0.888   1.829   4.457 -0.0382 -0.5363  0.7233
 5055SOL     OW20217   5.046   2.541   0.926  0.0965 -0.2187  0.3405
 5055SOL    HW120218   5.025   2.516   1.016  1.2947  1.0484  0.9865
 5055SOL    HW220219   4.962   2.568   0.889 -0.0075  1.9131  1.9577
 5055SOL     MW20220   5.032   2.541   0.933  0.2366  0.2164  0.6303
 5056SOL     OW20221   4.833   5.060   4.118 -0.0336  0.8790 -0.1337
 5056SOL    HW120222   4.836   5.154   4.103  0.7370  0.6266 -1.8295
 5056SOL    HW220223   4.741   5.036   4.110  0.1014  0.9531 -4.0350
 5056SOL     MW20224   4.822   5.069   4.115  0.0823  0.8562 -0.8502
 5057SOL     OW20225   3.248   2.064   2.522  0.0673 -0.0687  0.3173
 5057SOL    HW120226   3.188   2.071   2.597 -0.2220 -0.6916  0.1516
 5057SOL    HW220227   3.202   2.110   2.451 -0.8917 -1.7491 -0.2053
 5057SOL     MW20228   3.234   2.071   2.522 -0.0925 -0.3635  0.2292
 5058SOL     OW20229   1.497   3.349   0.366 -0.2984 -0.4228  0.3575
 5058SOL    HW120230   1.436   3.423   0.357  0.5203  0.2697  0.3543
 5058SOL    HW220231   1.486   3.320   0.456 -1.1108 -0.7399  0.1646
 5058SOL     MW20232   1.488   3.355   0.376 -0.2976 -0.3747  0.3324
 5059SOL     OW20233   4.236   1.871   0.820  0.5497  0.2385  0.1961
 5059SOL    HW120234   4.145   1.887   0.842  0.5467  2.3823 -1.1178
 5059SOL    HW220235   4.274   1.832   0.899 -1.8531 -2.4052  0.1873
 5059SOL     MW20236   4.230   1.868   0.833  0.2417  0.1745  0.0268
 5060SOL     OW20237   0.991   3.990   3.849  0.2928  0.4689 -0.6077
 5060SOL    HW120238   0.912   3.937   3.853  0.4330  0.2243 -0.9969
 5060SOL    HW220239   0.961   4.080   3.867 -0.2785  0.5729 -1.9768
 5060SOL     MW20240   0.977   3.995   3.852  0.2376  0.4509 -0.8328
 5061SOL     OW20241   3.471   2.859   3.520 -0.2165  0.4609 -0.6197
 5061SOL    HW120242   3.502   2.948   3.537  0.2411  0.2166 -0.1680
 5061SOL    HW220243   3.376   2.867   3.519 -0.1986  0.8211  0.1491
 5061SOL     MW20244   3.463   2.872   3.522 -0.1557  0.4757 -0.4635
 5062SOL     OW20245   4.438   1.889   2.178  0.2145  0.1758 -0.4276
 5062SOL    HW120246   4.421   1.909   2.270  0.5975 -0.1005 -0.2946
 5062SOL    HW220247   4.502   1.954   2.150 -1.7835  1.8899 -1.2251
 5062SOL     MW20248   4.444   1.900   2.187  0.0078  0.3598 -0.5127
 5063SOL     OW20249   3.620   1.060   2.478 -0.1817 -0.1829  0.1233
 5063SOL    HW120250   3.538   1.085   2.519  0.1317  0.9989  0.0988
 5063SOL    HW220251   3.606   0.972   2.445 -1.3007 -0.1420  0.4662
 5063SOL     MW20252   3.608   1.052   2.479 -0.2848 -0.0263  0.1640
 5064SOL     OW20253   2.712   0.610   5.198  0.0102 -0.0106  1.0526
 5064SOL    HW120254   2.731   0.641   5.109  2.2826 -0.4219  1.3256
 5064SOL    HW220255   2.671   0.524   5.185 -0.9024  0.4968  0.4134
 5064SOL     MW20256   2.709   0.603   5.185  0.1842  0.0017  1.0058
 5065SOL     OW20257   4.158   3.043   4.151 -0.5183  0.4118  0.0921
 5065SOL    HW120258   4.156   3.108   4.221 -1.8055 -0.5933  1.0239
 5065SOL    HW220259   4.252   3.025   4.138 -0.2616  0.1358  2.0231
 5065SOL     MW20260   4.170   3.049   4.158 -0.6502  0.2478  0.4586
 5066SOL     OW20261   4.292   1.245   3.951  0.5234 -0.0815  0.3813
 5066SOL    HW120262   4.221   1.284   3.901  0.7008  0.3484  0.4574
 5066SOL    HW220263   4.274   1.151   3.950 -0.3509  0.0741  0.8842
 5066SOL     MW20264   4.281   1.238   3.944  0.4342 -0.0065  0.4554
 5067SOL     OW20265   1.320   1.501   3.206  0.1129  0.0154  0.0258
 5067SOL    HW120266   1.243   1.483   3.152 -0.9812  0.9744  1.1906
 5067SOL    HW220267   1.306   1.449   3.285  0.1274  0.9760  0.6798
 5067SOL     MW20268   1.308   1.492   3.209 -0.0253  0.2611  0.2586
 5068SOL     OW20269   4.305   1.817   2.832  0.3395 -0.3306  0.0713
 5068SOL    HW120270   4.279   1.733   2.869 -2.6386  0.2893 -0.4054
 5068SOL    HW220271   4.262   1.882   2.887 -0.1062  0.7627 -1.4915
 5068SOL     MW20272   4.296   1.815   2.844 -0.0988 -0.1113 -0.1898
 5069SOL     OW20273   1.522   3.238   0.132  0.2213 -0.1828  0.3102
 5069SOL    HW120274   1.513   3.303   0.202  0.2819  1.1543 -0.8855
 5069SOL    HW220275   1.466   3.271   0.062  0.6771 -1.1452 -0.5230
 5069SOL     MW20276   1.514   3.251   0.132  0.2874 -0.1349  0.0505
 5070SOL     OW20277   4.429   4.982   3.159  0.3803  0.4421 -0.5695
 5070SOL    HW120278   4.449   4.889   3.159 -1.9060 -0.1717  1.9378
 5070SOL    HW220279   4.507   5.024   3.196  1.3423 -0.4457 -1.5359
 5070SOL     MW20280   4.442   4.976   3.163  0.2108  0.2499 -0.3723
 5071SOL     OW20281   3.262   4.324   0.248  0.0192 -0.1594  0.2774
 5071SOL    HW120282   3.188   4.367   0.291 -0.7710 -1.9277  0.7687
 5071SOL    HW220283   3.238   4.324   0.155  0.1499  0.6504  0.2347
 5071SOL     MW20284   3.250   4.329   0.242 -0.0652 -0.2821  0.3349
 5072SOL     OW20285   1.977   1.788   3.207  0.3280  0.8121  0.1422
 5072SOL    HW120286   1.963   1.875   3.244  1.1138  0.9537  0.1235
 5072SOL    HW220287   1.989   1.731   3.283 -2.1231  0.3276  0.2486
 5072SOL     MW20288   1.977   1.791   3.222  0.1148  0.7682  0.1534
 5073SOL     OW20289   5.240   1.453   0.399 -0.2169 -0.5641 -0.0154
 5073SOL    HW120290   5.315   1.431   0.454 -0.1349  1.7368  0.9060
 5073SOL    HW220291   5.180   1.380   0.409  0.8046 -1.2633  1.2934
 5073SOL     MW20292   5.242   1.441   0.407 -0.0756 -0.3591  0.2701
 5074SOL     OW20293   4.119   2.148   1.080 -0.3991  0.1392  0.1493
 5074SOL    HW120294   4.038   2.176   1.037 -0.3362  1.6258  0.9433
 5074SOL    HW220295   4.091   2.078   1.140 -0.9608  0.1131 -0.1303
 5074SOL     MW20296   4.105   2.143   1.082 -0.4630  0.3262  0.2152
 5075SOL     OW20297   5.252   3.060   2.099 -0.6899  0.4792  0.1585
 5075SOL    HW120298   5.159   3.082   2.099 -0.6791  0.6439  1.6045
 5075SOL    HW220299   5.260   2.991   2.165  0.4890  1.9309  1.6400
 5075SOL     MW20300   5.241   3.054   2.108 -0.5376  0.6861  0.5332
 5076SOL     OW20301   0.894   4.667   1.671  0.3951  0.3050  0.4044
 5076SOL    HW120302   0.845   4.725   1.612 -0.8288  1.3354  2.3235
 5076SOL    HW220303   0.842   4.587   1.673  1.9386 -0.8546 -2.0313
 5076SOL     MW20304   0.881   4.664   1.664  0.4360  0.2884  0.3383
 5077SOL     OW20305   1.293   4.959   4.347 -0.3304 -0.1478  0.4815
 5077SOL    HW120306   1.349   4.888   4.379 -0.9112 -1.1150 -0.5786
 5077SOL    HW220307   1.352   5.014   4.295 -0.1314 -0.5742  0.2450
 5077SOL     MW20308   1.308   4.957   4.344 -0.3793 -0.3262  0.3155
 5078SOL     OW20309   2.984   0.316   2.369 -0.6341 -0.1309 -0.1729
 5078SOL    HW120310   2.889   0.329   2.371 -0.4712  1.1362  0.2683
 5078SOL    HW220311   3.006   0.289   2.458 -0.6417 -1.0032 -0.4272
 5078SOL     MW20312   2.974   0.314   2.380 -0.6142 -0.0804 -0.1489
 5079SOL     OW20313   1.836   0.944   3.470  0.4154  0.1525  0.0663
 5079SOL    HW120314   1.781   1.015   3.503 -0.8285 -1.1626  0.9853
 5079SOL    HW220315   1.799   0.922   3.385 -0.0767 -0.2686  0.3796
 5079SOL     MW20316   1.825   0.950   3.463  0.1932 -0.0697  0.2240
 5080SOL     OW20317   0.661   0.461   1.610  0.2973  0.5914 -0.1183
 5080SOL    HW120318   0.646   0.418   1.694  2.6125 -2.3580 -1.0229
 5080SOL    HW220319   0.732   0.523   1.626  0.4494  0.3353  0.2104
 5080SOL     MW20320   0.668   0.463   1.623  0.6132  0.1810 -0.1920
 5081SOL     OW20321   0.324   3.529   4.980 -0.0838 -0.4753  0.1770
 5081SOL    HW120322   0.374   3.603   4.947 -0.4538  0.1376  0.9540
 5081SOL    HW220323   0.386   3.479   5.033  0.4789 -1.3939 -1.2856
 5081SOL     MW20324   0.338   3.532   4.983 -0.0592 -0.5144  0.0893
 5082SOL     OW20325   3.430   2.567   1.812 -0.4483 -0.7326  0.2103
 5082SOL    HW120326   3.347   2.611   1.831 -1.0658 -1.9256  0.3726
 5082SOL    HW220327   3.485   2.635   1.772 -1.5841  0.0067 -0.1270
 5082SOL     MW20328   3.427   2.581   1.809 -0.6727 -0.7907  0.1879
 5083SOL     OW20329   0.541   2.340   0.124  0.4249 -0.1633  0.0759
 5083SOL    HW120330   0.537   2.245   0.128 -1.4627 -0.1369 -0.2506
 5083SOL    HW220331   0.511   2.363   0.036  0.3842  0.7563  0.3113
 5083SOL     MW20332   0.537   2.331   0.113  0.1781 -0.0422  0.0643
 5084SOL     OW20333   3.092   4.298   1.961  0.3398 -0.1149 -0.4324
 5084SOL    HW120334   3.132   4.380   1.934  1.4490 -0.7556 -0.7992
 5084SOL    HW220335   3.140   4.272   2.039 -0.3136 -0.1904 -0.0460
 5084SOL     MW20336   3.103   4.305   1.967  0.3982 -0.2066 -0.4299
 5085SOL     OW20337   2.418   1.656   1.589 -0.2579  0.0798 -0.1976
 5085SOL    HW120338   2.456   1.581   1.635 -2.4257 -0.0330  1.5743
 5085SOL    HW220339   2.478   1.729   1.608  2.3713 -1.2161 -2.6663
 5085SOL     MW20340   2.431   1.656   1.597 -0.1988 -0.1005 -0.2868
 5086SOL     OW20341   0.129   2.533   2.177  0.5413 -0.1582 -0.6302
 5086SOL    HW120342   0.175   2.585   2.111  1.1430  0.9232  0.5819
 5086SOL    HW220343   0.200   2.490   2.226  0.2024  0.1562  0.1625
 5086SOL     MW20344   0.144   2.534   2.175  0.5750  0.0204 -0.3735
 5087SOL     OW20345   1.707   3.152   0.399 -0.0829 -0.2636  0.1952
 5087SOL    HW120346   1.677   3.231   0.353  0.7234  0.4330  0.8295
 5087SOL    HW220347   1.693   3.081   0.336  2.2651  0.8238 -1.7326
 5087SOL     MW20348   1.702   3.153   0.385  0.3209 -0.0352  0.0296
 5088SOL     OW20349   0.580   3.613   2.878 -0.1973 -0.1643  0.0061
 5088SOL    HW120350   0.628   3.655   2.806 -1.5018 -1.1697 -1.5053
 5088SOL    HW220351   0.516   3.679   2.904 -1.3614 -0.6479 -1.4704
 5088SOL     MW20352   0.578   3.627   2.872 -0.5133 -0.3549 -0.3764
 5089SOL     OW20353   4.543   4.711   0.797 -0.4582 -0.5388 -0.1146
 5089SOL    HW120354   4.601   4.687   0.725 -0.4609 -1.4369  0.1759
 5089SOL    HW220355   4.509   4.797   0.772  0.9347 -0.0218 -0.3221
 5089SOL     MW20356   4.546   4.719   0.785 -0.2803 -0.5876 -0.1040
 5090SOL     OW20357   4.894   4.014   1.869 -0.2471  0.1965  0.1543
 5090SOL    HW120358   4.856   4.071   1.937 -0.7286  0.0191  0.0342
 5090SOL    HW220359   4.926   3.938   1.918 -1.3857 -0.3398  0.0919
 5090SOL     MW20360   4.893   4.012   1.884 -0.4545  0.1052  0.1309
 5091SOL     OW20361   0.211   0.536   4.726 -0.1075  0.1112 -0.0254
 5091SOL    HW120362   0.146   0.466   4.721  1.9814 -1.8725 -1.7736
 5091SOL    HW220363   0.248   0.529   4.813 -1.0394  0.1813  0.3948
 5091SOL     MW20364   0.207   0.526   4.736  0.0406 -0.1337 -0.1954
 5092SOL     OW20365   0.049   2.052   1.386  0.5275  0.0462 -0.0744
 5092SOL    HW120366  -0.040   2.018   1.385  1.1545 -1.8629 -2.3063
 5092SOL    HW220367   0.088   2.013   1.464  0.0321 -1.1320 -0.3808
 5092SOL     MW20368   0.043   2.042   1.396  0.5444 -0.3490 -0.3993
 5093SOL     OW20369   2.426   1.718   2.729 -0.2303 -0.2343  0.5351
 5093SOL    HW120370   2.498   1.778   2.750 -1.2131  0.3606  2.3791
 5093SOL    HW220371   2.469   1.645   2.684  1.0485  1.7236 -1.7146
 5093SOL     MW20372   2.441   1.716   2.726 -0.1924  0.0925  0.4831
 5094SOL     OW20373   0.126   1.340   1.750 -0.1663 -0.3877  0.7735
 5094SOL    HW120374   0.171   1.272   1.700  0.0721  0.0117  0.4440
 5094SOL    HW220375   0.134   1.419   1.697 -2.9245 -0.6923 -0.2491
 5094SOL     MW20376   0.133   1.341   1.737 -0.4889 -0.3755  0.6004
 5095SOL     OW20377   1.775   4.624   2.932 -0.2647  0.0496 -0.0720
 5095SOL    HW120378   1.780   4.716   2.905 -0.5772  0.3827  0.9629
 5095SOL    HW220379   1.693   4.592   2.894 -0.8791  0.6117  0.7436
 5095SOL     MW20380   1.765   4.632   2.923 -0.3833  0.1642  0.1649
 5096SOL     OW20381   4.153   2.156   2.257 -0.0562  0.1451  0.0090
 5096SOL    HW120382   4.090   2.121   2.320  0.7702 -2.9262 -0.7138
 5096SOL    HW220383   4.151   2.094   2.184  3.9072 -0.2707  0.0417
 5096SOL     MW20384   4.145   2.144   2.256  0.5570 -0.3013 -0.0794
 5097SOL     OW20385   1.273   0.129   5.080  0.1223  0.1051 -0.3535
 5097SOL    HW120386   1.188   0.089   5.100  0.4127 -0.3269  0.0470
 5097SOL    HW220387   1.254   0.222   5.069 -0.4653 -0.0425 -0.6669
 5097SOL     MW20388   1.259   0.136   5.081  0.0843  0.0309 -0.3423
 5098SOL     OW20389   4.735   0.156   0.196  0.4717 -0.0507 -0.5840
 5098SOL    HW120390   4.798   0.198   0.137  1.9189 -1.1198  0.1128
 5098SOL    HW220391   4.787   0.091   0.243 -1.5531 -2.3962 -1.3523
 5098SOL     MW20392   4.750   0.153   0.194  0.3977 -0.4878 -0.5931
 5099SOL     OW20393   3.906   4.634   0.086  0.5865 -0.4815 -0.5702
 5099SOL    HW120394   3.848   4.710   0.099  0.4685 -0.6585 -0.0420
 5099SOL    HW220395   3.897   4.613  -0.007 -0.4245 -0.6915 -0.4314
 5099SOL     MW20396   3.898   4.641   0.076  0.4420 -0.5310 -0.4848
 5100SOL     OW20397   4.392   0.414   4.008 -0.1132  0.1139  0.3305
 5100SOL    HW120398   4.348   0.479   3.954  0.5002  0.7574  0.5833
 5100SOL    HW220399   4.327   0.388   4.073  0.2499  2.0276  1.5357
 5100SOL     MW20400   4.378   0.419   4.009  0.0118  0.4412  0.5172
 5101SOL     OW20401   3.972   2.525   4.339 -0.2628  0.2503 -0.2099
 5101SOL    HW120402   3.965   2.455   4.404 -0.6063  1.4029  1.0271
 5101SOL    HW220403   4.066   2.543   4.334 -0.2835  0.5212  0.3624
 5101SOL     MW20404   3.983   2.518   4.347 -0.3094  0.4325  0.0217
 5102SOL     OW20405   4.664   2.498   2.708  0.0168 -0.3070  0.0711
 5102SOL    HW120406   4.731   2.563   2.685  0.3400 -0.8609 -0.5869
 5102SOL    HW220407   4.581   2.539   2.683 -0.1694  1.3314  2.9495
 5102SOL     MW20408   4.662   2.512   2.702  0.0343 -0.1682  0.3553
 5103SOL     OW20409   0.564   2.011   2.706  0.0927  0.1314  0.5281
 5103SOL    HW120410   0.494   1.993   2.770 -0.0282  0.6258  0.5358
 5103SOL    HW220411   0.642   2.026   2.760 -0.2702  1.7876  0.6368
 5103SOL     MW20412   0.565   2.011   2.721  0.0307  0.4067  0.5430
 5104SOL     OW20413   0.582   5.306   0.041  0.9083  0.5240  0.0164
 5104SOL    HW120414   0.584   5.235   0.105 -0.5768  1.0882  0.7441
 5104SOL    HW220415   0.570   5.262  -0.043  1.8760 -0.1765  0.2316
 5104SOL     MW20416   0.581   5.292   0.039  0.8421  0.5066  0.1371
 5105SOL     OW20417   1.089   0.689   0.393  0.5268 -0.4405  0.2180
 5105SOL    HW120418   1.041   0.702   0.311 -0.5769 -2.4572  0.4938
 5105SOL    HW220419   1.104   0.778   0.425 -1.4777  0.3274 -0.7689
 5105SOL     MW20420   1.085   0.702   0.386  0.1289 -0.6004  0.1270
 5106SOL     OW20421   2.598   0.976   5.147  0.5424  0.5832  0.3050
 5106SOL    HW120422   2.613   0.999   5.055 -1.0613  2.1007  0.3850
 5106SOL    HW220423   2.680   0.999   5.191  0.7800  1.2792 -0.4935
 5106SOL     MW20424   2.611   0.982   5.141  0.3675  0.8665  0.2130
 5107SOL     OW20425   3.692   4.761   4.722 -0.2014  0.0063  0.3697
 5107SOL    HW120426   3.607   4.806   4.729 -0.3132 -0.4308  2.4848
 5107SOL    HW220427   3.679   4.696   4.653 -1.1844  0.7666 -0.1904
 5107SOL     MW20428   3.679   4.759   4.714 -0.3415  0.0477  0.5687
 5108SOL     OW20429   0.491   3.508   4.013 -0.0986 -0.1885 -0.0963
 5108SOL    HW120430   0.550   3.538   3.944  0.1685  0.1482  0.2735
 5108SOL    HW220431   0.403   3.528   3.981 -0.0020 -0.5274 -0.5720
 5108SOL     MW20432   0.488   3.515   4.000 -0.0520 -0.1888 -0.1099
 5109SOL     OW20433   2.531   3.746   1.738 -0.2014  0.0567 -0.1550
 5109SOL    HW120434   2.480   3.779   1.812 -0.9267 -0.2988 -0.4803
 5109SOL    HW220435   2.533   3.651   1.751 -0.0482  0.0239 -0.4111
 5109SOL     MW20436   2.525   3.738   1.749 -0.2746  0.0070 -0.2294
 5110SOL     OW20437   1.102   1.466   2.884  0.3873 -0.1090  0.1686
 5110SOL    HW120438   1.191   1.474   2.852  0.3419 -2.1125 -0.5942
 5110SOL    HW220439   1.049   1.448   2.806 -0.2420 -1.6677  0.9156
 5110SOL     MW20440   1.106   1.465   2.870  0.3009 -0.5650  0.1666
 5111SOL     OW20441   2.828   3.349   0.863  0.0809 -0.0904  0.0744
 5111SOL    HW120442   2.749   3.353   0.917 -0.1314  1.3367 -0.2864
 5111SOL    HW220443   2.844   3.256   0.850 -0.5196 -0.4344  1.6223
 5111SOL     MW20444   2.820   3.338   0.868 -0.0232  0.0483  0.2263
 5112SOL     OW20445   2.203   5.327   1.489 -0.0344  0.2174 -0.0532
 5112SOL    HW120446   2.291   5.340   1.453  0.4404  0.9810  1.3077
 5112SOL    HW220447   2.181   5.237   1.467  0.6157  0.3660 -1.3985
 5112SOL     MW20448   2.212   5.317   1.482  0.1096  0.3342 -0.0512
 5113SOL     OW20449   5.099   1.659   2.752  0.1564 -0.1868 -0.7964
 5113SOL    HW120450   5.144   1.649   2.668 -1.3446 -2.2981 -1.4685
 5113SOL    HW220451   5.043   1.735   2.740  1.4647  0.7744 -0.9413
 5113SOL     MW20452   5.097   1.667   2.739  0.1318 -0.3340 -0.9010
 5114SOL     OW20453   3.895   3.538   1.515 -0.1948 -0.5444  0.4413
 5114SOL    HW120454   3.953   3.464   1.527  0.8746  0.4152  1.3937
 5114SOL    HW220455   3.903   3.589   1.595 -2.0717 -0.1719  0.4498
 5114SOL     MW20456   3.903   3.535   1.527 -0.2982 -0.3739  0.5643
 5115SOL     OW20457   2.554   4.186   1.782  0.1711 -0.2626  0.0254
 5115SOL    HW120458   2.639   4.213   1.818  0.6229 -0.3960 -0.9176
 5115SOL    HW220459   2.575   4.119   1.717 -0.4006  1.4289 -2.0270
 5115SOL     MW20460   2.567   4.181   1.778  0.1558 -0.0632 -0.3581
 5116SOL     OW20461   3.878   1.269   3.542  0.2258  0.7588  0.0741
 5116SOL    HW120462   3.809   1.217   3.501  1.0002  1.4120 -2.2298
 5116SOL    HW220463   3.907   1.329   3.473  4.0987 -0.4469  0.3998
 5116SOL     MW20464   3.873   1.270   3.528  0.8207  0.6881 -0.1792
 5117SOL     OW20465   1.423   1.195   2.941  0.3796  0.0446 -0.0160
 5117SOL    HW120466   1.422   1.263   2.875  0.2805  0.8104  0.7600
 5117SOL    HW220467   1.353   1.218   3.002  1.2714  0.0638  1.0513
 5117SOL     MW20468   1.414   1.206   2.940  0.4811  0.1451  0.2200
 5118SOL     OW20469   0.216   1.713   3.633  0.2088 -0.3469  0.2114
 5118SOL    HW120470   0.138   1.750   3.592  0.3363 -1.9185 -1.5692
 5118SOL    HW220471   0.289   1.757   3.592  0.3479 -2.1538 -1.6512
 5118SOL     MW20472   0.215   1.723   3.623  0.2430 -0.7794 -0.2550
 5119SOL     OW20473   0.436   2.589   0.969  0.4941 -0.0000  0.4471
 5119SOL    HW120474   0.366   2.582   1.034  0.5488 -0.2511  0.4767
 5119SOL    HW220475   0.456   2.499   0.945  0.6442  0.0824  0.2624
 5119SOL     MW20476   0.429   2.577   0.974  0.5203 -0.0216  0.4273
 5120SOL     OW20477   0.394   3.514   0.059 -0.5439  0.3359 -0.5315
 5120SOL    HW120478   0.448   3.464   0.120 -1.0361 -0.6396 -0.8810
 5120SOL    HW220479   0.407   3.605   0.085  1.0046  0.1105 -0.3839
 5120SOL     MW20480   0.403   3.519   0.070 -0.4087  0.1822 -0.5574
 5121SOL     OW20481   1.313   3.522   0.291  0.3263  0.3215 -0.3818
 5121SOL    HW120482   1.235   3.544   0.342  1.0088  1.5966  0.1555
 5121SOL    HW220483   1.290   3.541   0.200 -0.4216 -0.6098 -0.4054
 5121SOL     MW20484   1.300   3.527   0.286  0.3179  0.3655 -0.3160
 5122SOL     OW20485   0.906   2.009   4.251 -0.3122 -0.4578 -0.7065
 5122SOL    HW120486   0.889   1.948   4.179 -0.1571 -1.0784 -0.2313
 5122SOL    HW220487   0.991   2.048   4.230 -0.5848 -0.1242 -1.2030
 5122SOL     MW20488   0.915   2.006   4.239 -0.3272 -0.4945 -0.7092
 5123SOL     OW20489   2.104   4.834   3.695 -0.1393  0.0162 -0.1459
 5123SOL    HW120490   2.126   4.745   3.723 -0.4520  0.6089  2.2078
 5123SOL    HW220491   2.009   4.836   3.694 -0.1426  0.0645 -1.2347
 5123SOL     MW20492   2.095   4.823   3.698 -0.1798  0.0982  0.0160
 5124SOL     OW20493   0.187   0.486   1.645 -0.5755 -0.3696  0.2974
 5124SOL    HW120494   0.232   0.501   1.562 -2.1785  0.3238 -0.5033
 5124SOL    HW220495   0.115   0.427   1.622 -1.5573  0.5162  0.9822
 5124SOL     MW20496   0.184   0.481   1.631 -0.9064 -0.1675  0.2825
 5125SOL     OW20497   0.702   5.359   1.482  0.5773  0.1397 -0.1080
 5125SOL    HW120498   0.693   5.333   1.574 -0.0310 -0.6200 -0.3652
 5125SOL    HW220499   0.793   5.341   1.461  0.5611 -0.2864  0.1758
 5125SOL     MW20500   0.712   5.353   1.491  0.4973 -0.0121 -0.1046
 5126SOL     OW20501   4.479   4.585   2.353  0.0140 -0.0308  0.3520
 5126SOL    HW120502   4.395   4.558   2.317  0.2909 -1.2518  0.5760
 5126SOL    HW220503   4.542   4.566   2.283  0.2131  0.1347  0.4838
 5126SOL     MW20504   4.476   4.579   2.340  0.0750 -0.1659  0.3975
 5127SOL     OW20505   3.663   3.132   2.997 -0.3310  0.0667  0.3995
 5127SOL    HW120506   3.644   3.039   2.981 -2.9011  0.2744  1.7739
 5127SOL    HW220507   3.711   3.160   2.919  2.8818 -2.9503  0.9997
 5127SOL     MW20508   3.667   3.124   2.985 -0.2488 -0.2930  0.6523
 5128SOL     OW20509   3.009   3.770   3.833 -0.2490  0.0903  0.4787
 5128SOL    HW120510   3.015   3.773   3.929 -1.4334 -0.2647  0.5809
 5128SOL    HW220511   2.952   3.844   3.810  1.3329  1.1770 -0.1067
 5128SOL     MW20512   3.003   3.780   3.842 -0.1981  0.1840  0.4169
 5129SOL     OW20513   2.254   3.349   5.449 -0.1677 -0.1490 -0.0325
 5129SOL    HW120514   2.280   3.272   5.399  0.2864  1.1013 -1.8022
 5129SOL    HW220515   2.165   3.369   5.420  0.7129  1.6057 -1.7646
 5129SOL     MW20516   2.246   3.342   5.439  0.0031  0.2357 -0.4807
 5130SOL     OW20517   0.779   4.874   4.132  0.0625 -0.2107  0.4125
 5130SOL    HW120518   0.862   4.855   4.089  0.2627  2.2621 -0.4368
 5130SOL    HW220519   0.714   4.824   4.082  0.6254  0.5823 -1.1802
 5130SOL     MW20520   0.781   4.865   4.120  0.1602  0.2074  0.0999
 5131SOL     OW20521   1.180   3.622   3.618 -0.4239 -0.4169 -0.0788
 5131SOL    HW120522   1.122   3.553   3.650 -0.2185 -0.6529 -0.2121
 5131SOL    HW220523   1.246   3.576   3.566  0.8960 -0.3795  1.4660
 5131SOL     MW20524   1.181   3.607   3.616 -0.2287 -0.4423  0.1019
 5132SOL     OW20525   1.764   5.447   4.810 -0.2995  0.5911  0.2322
 5132SOL    HW120526   1.785   5.535   4.842  4.1766 -0.4999  0.9439
 5132SOL    HW220527   1.785   5.389   4.882 -0.5190 -1.2483 -1.1118
 5132SOL     MW20528   1.770   5.451   4.823  0.2454  0.2159  0.1512
 5133SOL     OW20529   5.177   2.586   4.352  0.0044 -0.1246 -0.0014
 5133SOL    HW120530   5.167   2.547   4.265  1.3684  0.4901 -0.4616
 5133SOL    HW220531   5.088   2.605   4.380 -0.6573 -2.5415 -0.2152
 5133SOL     MW20532   5.165   2.583   4.344  0.0943 -0.3553 -0.0877
 5134SOL     OW20533   3.216   4.049   0.321  0.2444 -0.4333  0.0393
 5134SOL    HW120534   3.252   4.025   0.406 -1.0741  0.0350  0.7563
 5134SOL    HW220535   3.240   4.141   0.310 -0.5047 -0.1869  0.4118
 5134SOL     MW20536   3.224   4.057   0.330 -0.0203 -0.3418  0.1787
 5135SOL     OW20537   1.285   5.391   2.441 -0.1842 -0.2815  0.4582
 5135SOL    HW120538   1.377   5.418   2.443 -0.3123  0.1480  0.4350
 5135SOL    HW220539   1.289   5.295   2.432  0.2690 -0.3788  1.5933
 5135SOL     MW20540   1.297   5.382   2.440 -0.1426 -0.2390  0.6005
 5136SOL     OW20541   0.541   3.541   1.868  0.1135  0.1788  0.0161
 5136SOL    HW120542   0.562   3.548   1.775 -2.9092  0.6083 -0.7430
 5136SOL    HW220543   0.614   3.584   1.912  1.4590  0.2811 -2.1496
 5136SOL     MW20544   0.553   3.547   1.862 -0.1012  0.2469 -0.3583
 5137SOL     OW20545   3.792   0.246   0.788 -0.6934 -0.0119  0.2082
 5137SOL    HW120546   3.855   0.197   0.840 -1.6443 -0.7747  0.6714
 5137SOL    HW220547   3.712   0.245   0.840 -1.0955  0.9599 -0.3553
 5137SOL     MW20548   3.790   0.240   0.801 -0.8666  0.0148  0.1954
 5138SOL     OW20549   1.735   4.067   3.297  0.6598  0.3624  0.6175
 5138SOL    HW120550   1.684   4.112   3.229  1.9128 -0.7319 -1.1292
 5138SOL    HW220551   1.747   4.133   3.365  1.0256  2.1684 -1.0997
 5138SOL     MW20552   1.730   4.081   3.297  0.8670  0.4535  0.1741
 5139SOL     OW20553   1.275   4.971   1.594  0.1605 -0.1937 -1.1372
 5139SOL    HW120554   1.300   4.883   1.623  1.8780  1.1230  1.7997
 5139SOL    HW220555   1.182   4.978   1.616  0.5890 -0.4805  0.9082
 5139SOL     MW20556   1.266   4.961   1.600  0.4352 -0.0619 -0.4994
 5140SOL     OW20557   2.166   3.529   4.315 -0.7676 -0.2789  0.3531
 5140SOL    HW120558   2.160   3.437   4.341 -1.0646  0.0886  1.6668
 5140SOL    HW220559   2.224   3.568   4.379  0.3953  0.2174 -0.9570
 5140SOL     MW20560   2.172   3.522   4.327 -0.6567 -0.1683  0.3535
 5141SOL     OW20561   2.972   5.061   2.642  0.2191  0.4394  0.3634
 5141SOL    HW120562   3.037   5.022   2.583 -0.0394 -0.2153  0.5046
 5141SOL    HW220563   2.916   4.988   2.667 -0.3906  0.9472  0.4861
 5141SOL     MW20564   2.973   5.047   2.638  0.1080  0.4206  0.3972
 5142SOL     OW20565   5.116   5.369   0.374  0.5438  0.4274  0.7860
 5142SOL    HW120566   5.023   5.387   0.363  0.7606  0.4134 -1.6861
 5142SOL    HW220567   5.125   5.277   0.351  1.2909  0.6832  0.0246
 5142SOL     MW20568   5.105   5.360   0.370  0.6672  0.4584  0.3721
 5143SOL     OW20569   1.746   1.702   1.757 -0.5742  0.0266  0.0846
 5143SOL    HW120570   1.820   1.754   1.727 -1.3336  1.1418  0.0934
 5143SOL    HW220571   1.715   1.656   1.679 -0.4287  0.2536 -0.1071
 5143SOL     MW20572   1.752   1.703   1.743 -0.6528  0.1984  0.0612
 5144SOL     OW20573   2.627   4.249   0.005  0.2420  0.2733 -0.2481
 5144SOL    HW120574   2.635   4.297   0.087  3.0180 -0.9160  0.2885
 5144SOL    HW220575   2.564   4.180   0.024  0.9434 -0.0621  0.9612
 5144SOL     MW20576   2.620   4.246   0.018  0.6872  0.0781 -0.0246
 5145SOL     OW20577   1.746   3.942   5.058 -0.2659  0.0895  0.1816
 5145SOL    HW120578   1.747   4.038   5.066 -1.1562  0.2949 -1.5959
 5145SOL    HW220579   1.838   3.917   5.062  0.0776  1.1590 -0.4252
 5145SOL     MW20580   1.758   3.951   5.059 -0.3359  0.2527 -0.1236
 5146SOL     OW20581   0.251   3.539   2.417  0.7045  0.2720 -0.4482
 5146SOL    HW120582   0.336   3.552   2.376  1.8505 -2.0953  1.0327
 5146SOL    HW220583   0.232   3.446   2.406 -2.3105  0.9004 -1.7647
 5146SOL     MW20584   0.259   3.529   2.410  0.4653  0.0494 -0.4271
 5147SOL     OW20585   4.195   2.978   4.575 -0.1214  0.6743  0.1153
 5147SOL    HW120586   4.170   2.967   4.667 -1.4746 -0.1224 -0.3095
 5147SOL    HW220587   4.208   3.072   4.564 -4.5038  1.4976  0.1165
 5147SOL     MW20588   4.193   2.989   4.585 -0.8556  0.6777  0.0611
 5148SOL     OW20589   1.741   4.829   4.732  0.2312  0.1271  0.0147
 5148SOL    HW120590   1.757   4.921   4.752 -1.6061  0.9210 -1.8420
 5148SOL    HW220591   1.669   4.804   4.790  1.6734 -0.6640  1.5831
 5148SOL     MW20592   1.734   4.837   4.742  0.1806  0.1274 -0.0222
 5149SOL     OW20593   1.882   3.379   0.263  0.7088  0.7768 -0.3366
 5149SOL    HW120594   1.843   3.453   0.311 -3.8193 -2.1326  1.1507
 5149SOL    HW220595   1.828   3.371   0.184 -0.0525 -1.8430  0.3767
 5149SOL     MW20596   1.870   3.388   0.259  0.0317  0.0690 -0.0549
 5150SOL     OW20597   0.782   5.421   3.186 -0.5266 -0.4238  0.3879
 5150SOL    HW120598   0.762   5.333   3.151  0.7002 -0.3233 -0.6399
 5150SOL    HW220599   0.817   5.404   3.273 -1.4759 -0.8571  0.7000
 5150SOL     MW20600   0.784   5.407   3.193 -0.4911 -0.4664  0.2963
 5151SOL     OW20601   1.040   3.990   1.046  0.7657  0.5778 -0.0275
 5151SOL    HW120602   1.089   4.012   0.967  0.0714  0.2473 -0.5619
 5151SOL    HW220603   0.997   4.072   1.071  0.8229  0.6341 -0.1151
 5151SOL     MW20604   1.041   4.003   1.039  0.6842  0.5427 -0.1072
 5152SOL     OW20605   0.163   0.862   2.312  0.1660  0.4527  1.1238
 5152SOL    HW120606   0.181   0.786   2.368  1.4319  0.7594  1.1554
 5152SOL    HW220607   0.095   0.831   2.252  0.0007 -0.4093  1.7245
 5152SOL     MW20608   0.156   0.848   2.312  0.3069  0.3816  1.2047
 5153SOL     OW20609   0.907   3.470   2.737 -0.2920  0.2245 -0.6587
 5153SOL    HW120610   0.893   3.432   2.651  0.8486  0.9279 -1.1855
 5153SOL    HW220611   0.959   3.549   2.720  0.1020  0.2813  0.6814
 5153SOL     MW20612   0.912   3.475   2.724 -0.0956  0.3218 -0.5545
 5154SOL     OW20613   3.944   3.674   1.747  0.4890  0.4675  0.9652
 5154SOL    HW120614   3.918   3.764   1.727  0.5837  0.5289  1.1250
 5154SOL    HW220615   3.965   3.675   1.840 -0.7367 -0.0076  1.2683
 5154SOL     MW20616   3.943   3.686   1.756  0.3442  0.4145  1.0245
 5155SOL     OW20617   4.718   1.864   3.790 -0.1148 -0.0261 -0.1863
 5155SOL    HW120618   4.649   1.930   3.780  1.1541  1.0470 -2.6365
 5155SOL    HW220619   4.670   1.782   3.806 -1.8019  1.1394  1.0248
 5155SOL     MW20620   4.703   1.862   3.791 -0.1683  0.2604 -0.3449
 5156SOL     OW20621   3.700   1.006   0.309 -0.2127 -0.1170 -0.2663
 5156SOL    HW120622   3.760   0.974   0.376 -0.0374  0.9626  0.1115
 5156SOL    HW220623   3.625   1.040   0.358 -0.2392  0.3576 -0.6287
 5156SOL     MW20624   3.698   1.007   0.324 -0.1936  0.0820 -0.2643
 5157SOL     OW20625   0.769   3.477   2.156  0.1997 -0.3953 -0.9742
 5157SOL    HW120626   0.763   3.536   2.231  0.6741  0.7025 -1.7733
 5157SOL    HW220627   0.816   3.400   2.190  1.5504  0.6148 -0.4428
 5157SOL     MW20628   0.774   3.474   2.170  0.4333 -0.1254 -1.0085
 5158SOL     OW20629   4.223   5.364   3.754 -0.2523 -0.2261  0.1436
 5158SOL    HW120630   4.230   5.404   3.668  2.4469  0.0196  0.4035
 5158SOL    HW220631   4.189   5.433   3.810 -1.3702 -0.1816 -0.5667
 5158SOL     MW20632   4.220   5.378   3.750 -0.0499 -0.1890  0.0859
 5159SOL     OW20633   4.754   3.003   1.560  0.8893  0.7343  0.1287
 5159SOL    HW120634   4.766   3.048   1.476  0.6758  1.6890  0.5993
 5159SOL    HW220635   4.786   2.915   1.544  0.2094  0.6898 -1.1634
 5159SOL     MW20636   4.760   2.998   1.547  0.7749  0.8508  0.0236
 5160SOL     OW20637   3.867   1.908   3.084  0.1187 -0.6330 -0.2311
 5160SOL    HW120638   3.922   1.886   3.008 -0.7046 -0.0382 -1.0165
 5160SOL    HW220639   3.779   1.921   3.047 -0.3533 -0.6130  0.8677
 5160SOL     MW20640   3.863   1.907   3.069 -0.0471 -0.5543 -0.1910
 5161SOL     OW20641   1.477   3.583   4.016  0.2261 -0.0997 -0.1844
 5161SOL    HW120642   1.426   3.650   3.969  1.8244  1.9738  0.8920
 5161SOL    HW220643   1.474   3.506   3.958 -1.9230  0.7617 -1.3414
 5161SOL     MW20644   1.470   3.582   4.002  0.1556  0.2760 -0.1947
 5162SOL     OW20645   2.513   3.247   0.125  0.2077 -0.6910 -0.3328
 5162SOL    HW120646   2.515   3.273   0.033  1.8962 -2.2366 -0.7943
 5162SOL    HW220647   2.501   3.329   0.173 -1.9119  0.0182 -1.9350
 5162SOL     MW20648   2.512   3.261   0.119  0.1525 -0.7981 -0.5970
 5163SOL     OW20649   2.665   0.994   4.880  0.6509  0.2605  0.2122
 5163SOL    HW120650   2.613   0.972   4.802  1.3865 -0.4322 -0.0988
 5163SOL    HW220651   2.719   1.068   4.852  0.7554  0.1541  0.1316
 5163SOL     MW20652   2.665   1.001   4.866  0.7584  0.1582  0.1621
 5164SOL     OW20653   0.351   4.509   4.434 -0.1408 -0.3633  0.3536
 5164SOL    HW120654   0.310   4.594   4.452 -0.4135 -0.3482 -0.2903
 5164SOL    HW220655   0.290   4.466   4.375  1.1453 -0.0080 -1.3156
 5164SOL     MW20656   0.338   4.515   4.429 -0.0110 -0.3159  0.0575
 5165SOL     OW20657   2.185   2.963   4.292  0.1231 -0.4875  0.2893
 5165SOL    HW120658   2.220   2.914   4.366 -0.2748 -0.8756  0.2204
 5165SOL    HW220659   2.218   3.052   4.305  2.4743 -1.1544 -0.6085
 5165SOL     MW20660   2.194   2.968   4.303  0.3732 -0.6226  0.1655
 5166SOL     OW20661   0.407   5.066   1.265  0.3506  0.3113 -0.2467
 5166SOL    HW120662   0.400   5.018   1.182  0.7784  0.0759 -0.1528
 5166SOL    HW220663   0.501   5.062   1.286  0.0631 -0.8485  0.9575
 5166SOL     MW20664   0.418   5.059   1.257  0.3686  0.1327 -0.0805
 5167SOL     OW20665   4.975   5.432   1.153 -0.1282  0.7818  0.0095
 5167SOL    HW120666   4.997   5.344   1.185  1.6606  0.8251 -0.9699
 5167SOL    HW220667   5.022   5.439   1.069  0.2920  2.9045  0.3825
 5167SOL     MW20668   4.984   5.422   1.146  0.1546  1.0591 -0.0681
 5168SOL     OW20669   1.651   5.422   0.338 -0.4767  0.0804  0.0598
 5168SOL    HW120670   1.729   5.368   0.349 -0.7113  0.0053  1.5282
 5168SOL    HW220671   1.680   5.511   0.358 -0.7199  0.0840  0.3942
 5168SOL     MW20672   1.665   5.427   0.342 -0.5379  0.0712  0.2906
 5169SOL     OW20673   3.420   4.446   0.504  0.3002 -0.4469 -0.0893
 5169SOL    HW120674   3.338   4.443   0.552 -0.3095  1.1693 -0.9329
 5169SOL    HW220675   3.488   4.429   0.569 -0.4615  2.0265  1.4973
 5169SOL     MW20676   3.418   4.444   0.518  0.1247  0.0766  0.0058
 5170SOL     OW20677   4.896   1.882   0.201 -0.0704 -0.3305 -0.7745
 5170SOL    HW120678   4.919   1.970   0.170  1.2834 -1.0057 -1.7608
 5170SOL    HW220679   4.980   1.843   0.227 -0.4011 -1.9534 -2.0067
 5170SOL     MW20680   4.910   1.888   0.201  0.0606 -0.6247 -1.0585
 5171SOL     OW20681   0.700   4.875   0.723  0.0854 -0.5313 -0.0065
 5171SOL    HW120682   0.753   4.948   0.755  0.7675 -1.1678  0.3491
 5171SOL    HW220683   0.676   4.827   0.802 -1.7509  0.2134 -0.0777
 5171SOL     MW20684   0.704   4.878   0.737 -0.0624 -0.5175  0.0299
 5172SOL     OW20685   4.148   0.084   3.107 -0.5346 -0.1376  0.4412
 5172SOL    HW120686   4.181   0.173   3.118  3.8285 -1.5738  0.8624
 5172SOL    HW220687   4.220   0.027   3.137 -2.1759 -3.8543 -1.8603
 5172SOL     MW20688   4.162   0.088   3.112 -0.1861 -0.7972  0.2005
 5173SOL     OW20689   0.611   3.456   4.450 -0.5914 -0.0654  0.6254
 5173SOL    HW120690   0.621   3.367   4.483 -0.4472 -1.7385 -3.3269
 5173SOL    HW220691   0.524   3.457   4.409 -0.0743  1.1421 -0.5183
 5173SOL     MW20692   0.601   3.445   4.449 -0.5067 -0.1250 -0.0269
 5174SOL     OW20693   3.924   1.417   5.365  0.0648 -0.2000  0.3373
 5174SOL    HW120694   3.976   1.389   5.289  0.0198 -1.3620  0.7135
 5174SOL    HW220695   3.915   1.338   5.418 -0.4452  0.4505  1.2441
 5174SOL     MW20696   3.930   1.404   5.362 -0.0063 -0.2655  0.5015
 5175SOL     OW20697   1.067   1.131   2.410  0.1356 -0.5726 -0.0791
 5175SOL    HW120698   1.031   1.116   2.323 -2.0759 -0.5556  0.7598
 5175SOL    HW220699   1.104   1.046   2.436 -0.1163 -0.8551 -0.6403
 5175SOL     MW20700   1.067   1.118   2.402 -0.1798 -0.6066 -0.0435
 5176SOL     OW20701   1.731   1.688   0.759 -0.4304 -0.0928  0.2829
 5176SOL    HW120702   1.736   1.762   0.698 -0.0834 -0.8092 -0.5929
 5176SOL    HW220703   1.811   1.639   0.742  0.0547  0.1087  1.9013
 5176SOL     MW20704   1.742   1.691   0.749 -0.3239 -0.1587  0.3780
 5177SOL     OW20705   4.904   3.045   3.484  0.4533 -0.4768  0.1715
 5177SOL    HW120706   4.901   3.083   3.396 -0.4054  1.4499  0.9689
 5177SOL    HW220707   4.874   2.955   3.472 -1.7291  0.3297 -1.2637
 5177SOL     MW20708   4.899   3.038   3.471  0.0640 -0.1269  0.0898
 5178SOL     OW20709   5.124   2.928   1.394 -0.2942  0.1859  0.5114
 5178SOL    HW120710   5.142   2.855   1.334 -0.6266  0.0859  0.5309
 5178SOL    HW220711   5.210   2.968   1.409 -0.0740 -0.3279  0.6615
 5178SOL     MW20712   5.138   2.924   1.388 -0.3085  0.1073  0.5331
 5179SOL     OW20713   1.864   4.508   3.829 -0.4368 -0.2370  0.6127
 5179SOL    HW120714   1.956   4.533   3.838 -0.4886 -0.3429  1.5582
 5179SOL    HW220715   1.856   4.477   3.739  0.8625 -1.8971  1.0197
 5179SOL     MW20716   1.875   4.507   3.819 -0.2771 -0.4631  0.7858
 5180SOL     OW20717   3.261   0.793   0.448 -0.4255  0.0049 -0.4837
 5180SOL    HW120718   3.218   0.874   0.424  0.6397  0.7240 -0.0476
 5180SOL    HW220719   3.205   0.755   0.516 -0.9280  0.3673 -0.6925
 5180SOL     MW20720   3.249   0.798   0.454 -0.3535  0.1434 -0.4546
 5181SOL     OW20721   0.865   5.173   4.982  0.4768 -0.1287  0.0458
 5181SOL    HW120722   0.861   5.191   4.888 -1.0765 -1.9171 -0.2838
 5181SOL    HW220723   0.831   5.252   5.024 -0.7271 -0.0610 -1.0168
 5181SOL     MW20724   0.860   5.186   4.976  0.1238 -0.3489 -0.1324
 5182SOL     OW20725   0.850   4.563   3.923  0.1605  0.0076 -0.5403
 5182SOL    HW120726   0.872   4.556   3.830  0.6185  1.5240 -0.5778
 5182SOL    HW220727   0.928   4.600   3.963  0.4343 -1.7677  0.7012
 5182SOL     MW20728   0.863   4.567   3.916  0.2541 -0.0255 -0.3862
 5183SOL     OW20729   3.687   4.137   3.592  0.0593  0.0529 -0.0716
 5183SOL    HW120730   3.646   4.111   3.674 -1.1877 -0.3509 -0.7916
 5183SOL    HW220731   3.649   4.078   3.527 -0.6748  1.7760 -1.2884
 5183SOL     MW20732   3.677   4.126   3.594 -0.1943  0.2218 -0.3195
 5184SOL     OW20733   2.810   2.808   4.296  0.4113  0.6093  0.6292
 5184SOL    HW120734   2.903   2.814   4.320  0.5416 -0.8418  0.5660
 5184SOL    HW220735   2.782   2.724   4.331 -1.0825  1.3265  1.2525
 5184SOL     MW20736   2.819   2.798   4.304  0.2368  0.5153  0.7009
 5185SOL     OW20737   4.555   3.891   3.141  1.0034  0.1129  0.4181
 5185SOL    HW120738   4.542   3.986   3.146 -0.1972 -0.0325  0.4279
 5185SOL    HW220739   4.559   3.863   3.233  0.1026  0.0157  0.4390
 5185SOL     MW20740   4.553   3.900   3.154  0.7344  0.0819  0.4220
 5186SOL     OW20741   2.762   3.489   0.114  0.1017  0.2881  0.2463
 5186SOL    HW120742   2.781   3.580   0.092 -1.4978  0.3290 -1.1894
 5186SOL    HW220743   2.838   3.460   0.165  0.5853  2.4369  0.8520
 5186SOL     MW20744   2.774   3.497   0.118 -0.0412  0.5684  0.1401
 5187SOL     OW20745   3.035   4.052   0.025  0.3350  0.3264 -0.4994
 5187SOL    HW120746   2.987   4.111  -0.033 -0.4422  0.1982 -0.0094
 5187SOL    HW220747   3.023   4.089   0.112  0.4708 -0.1418 -0.2773
 5187SOL     MW20748   3.027   4.064   0.029  0.2529  0.2501 -0.4082
 5188SOL     OW20749   0.791   2.134   4.609 -0.2546  0.1258 -1.1327
 5188SOL    HW120750   0.770   2.106   4.520 -1.5195  1.2037 -1.2164
 5188SOL    HW220751   0.882   2.162   4.605 -0.1201 -0.4054 -1.9387
 5188SOL     MW20752   0.800   2.134   4.597 -0.3993  0.1958 -1.2466
 5189SOL     OW20753   3.269   0.670   0.217  0.4440 -0.1676  0.5211
 5189SOL    HW120754   3.252   0.700   0.306 -0.2076  2.0527 -0.3062
 5189SOL    HW220755   3.307   0.745   0.172 -0.0132 -0.9640 -1.3228
 5189SOL     MW20756   3.272   0.683   0.222  0.3020  0.0147  0.1792
 5190SOL     OW20757   0.011   5.425   1.393 -0.4762 -0.2038 -0.6698
 5190SOL    HW120758   0.059   5.356   1.348 -0.1602  0.4252 -1.3295
 5190SOL    HW220759   0.079   5.475   1.439 -0.7641 -0.6610  0.2782
 5190SOL     MW20760   0.026   5.423   1.393 -0.4726 -0.1818 -0.6329
 5191SOL     OW20761   3.278   2.991   0.357 -0.3675 -0.1704  0.0659
 5191SOL    HW120762   3.223   2.962   0.285  0.4513 -1.4833 -0.0569
 5191SOL    HW220763   3.344   3.048   0.317  1.1816 -2.3121 -0.5576
 5191SOL     MW20764   3.280   2.995   0.343 -0.0644 -0.6126 -0.0296
 5192SOL     OW20765   3.693   2.931   1.020 -0.3209  0.4492  0.3191
 5192SOL    HW120766   3.610   2.978   1.031 -0.9413 -0.8872  1.5631
 5192SOL    HW220767   3.738   2.943   1.103  0.9479  1.4790 -0.4745
 5192SOL     MW20768   3.688   2.939   1.032 -0.2379  0.4099  0.3767
 5193SOL     OW20769   2.111   3.715   0.946  0.0271  0.3607  0.2275
 5193SOL    HW120770   2.166   3.719   0.868  1.1672  2.0468  1.0703
 5193SOL    HW220771   2.027   3.753   0.918 -0.1676 -0.6303 -0.6003
 5193SOL     MW20772   2.107   3.720   0.933  0.1482  0.4497  0.2294
 5194SOL     OW20773   4.930   0.223   0.562  0.4860  0.2279  0.0379
 5194SOL    HW120774   4.988   0.287   0.520  0.4639  1.1570  1.3343
 5194SOL    HW220775   4.984   0.145   0.572  0.5525  0.0464 -1.4786
 5194SOL     MW20776   4.945   0.222   0.558  0.4917  0.3236  0.0097
 5195SOL     OW20777   2.903   0.699   3.450 -0.2803 -0.0891 -0.0224
 5195SOL    HW120778   2.934   0.693   3.540  0.5545 -1.5943 -0.3659
 5195SOL    HW220779   2.931   0.785   3.420  0.1984  0.0860  0.8888
 5195SOL     MW20780   2.910   0.709   3.458 -0.1122 -0.2594  0.0503
 5196SOL     OW20781   5.043   4.065   4.723  0.5002  0.3964 -0.5895
 5196SOL    HW120782   4.961   4.115   4.724 -0.0685 -0.3675 -2.8853
 5196SOL    HW220783   5.105   4.120   4.769 -0.7615  2.0147 -0.7294
 5196SOL     MW20784   5.040   4.078   4.729  0.2659  0.5058 -0.9013
 5197SOL     OW20785   1.454   1.410   2.438  0.3865 -0.0651  0.4851
 5197SOL    HW120786   1.438   1.504   2.425  0.5077 -0.1360 -0.2137
 5197SOL    HW220787   1.547   1.398   2.415  0.5349 -0.2513  1.1694
 5197SOL     MW20788   1.464   1.421   2.433  0.4210 -0.0980  0.4832
 5198SOL     OW20789   0.346   1.368   0.060 -0.1366  0.3527 -0.0293
 5198SOL    HW120790   0.293   1.324   0.126  0.0305 -0.1896 -0.2502
 5198SOL    HW220791   0.435   1.367   0.096 -0.1495  0.6100  0.0133
 5198SOL     MW20792   0.351   1.362   0.073 -0.1168  0.3162 -0.0521
 5199SOL     OW20793   2.454   4.560   4.074 -0.6214 -0.3507 -0.1976
 5199SOL    HW120794   2.462   4.465   4.069 -1.0518 -0.3933 -0.1410
 5199SOL    HW220795   2.543   4.591   4.092 -0.5853 -0.7833  0.3858
 5199SOL     MW20796   2.467   4.552   4.075 -0.6719 -0.4115 -0.1156
 5200SOL     OW20797   1.050   3.557   0.462  0.0521 -0.2844 -0.1110
 5200SOL    HW120798   1.011   3.641   0.488 -1.1692 -1.3674  1.7632
 5200SOL    HW220799   0.975   3.497   0.457  1.1294 -1.7297  0.5616
 5200SOL     MW20800   1.035   3.560   0.464  0.0336 -0.6081  0.2150
 5201SOL     OW20801   0.494   2.804   5.280  0.0120 -0.6488 -0.6533
 5201SOL    HW120802   0.442   2.764   5.350  1.6542 -3.7139 -1.0050
 5201SOL    HW220803   0.436   2.806   5.204 -1.6283  2.2486  0.5278
 5201SOL     MW20804   0.480   2.799   5.280  0.0122 -0.6703 -0.5471
 5202SOL     OW20805   0.123   2.054   0.294  0.0434 -0.1921  0.3093
 5202SOL    HW120806   0.149   2.081   0.206 -0.9877  1.4507  0.4643
 5202SOL    HW220807   0.030   2.033   0.285  0.5235 -2.6441  0.4771
 5202SOL     MW20808   0.114   2.055   0.281 -0.0272 -0.2957  0.3506
 5203SOL     OW20809   1.492   2.100   2.973 -0.1578  0.3793 -0.2791
 5203SOL    HW120810   1.518   2.059   2.890 -0.6528 -1.3705  0.3773
 5203SOL    HW220811   1.518   2.036   3.040 -0.7893  1.2461  0.8222
 5203SOL     MW20812   1.499   2.086   2.971 -0.3020  0.2663 -0.0541
 5204SOL     OW20813   1.784   3.855   2.022  0.2584 -0.2277 -0.2604
 5204SOL    HW120814   1.707   3.800   2.039  0.4586 -1.1465 -2.1035
 5204SOL    HW220815   1.761   3.940   2.061 -2.0566 -0.2069 -1.4693
 5204SOL     MW20816   1.771   3.859   2.029 -0.0123 -0.3426 -0.6511
 5205SOL     OW20817   4.189   5.113   3.037  0.1417  0.5512 -0.0492
 5205SOL    HW120818   4.094   5.123   3.040  0.0440  0.1287 -1.2331
 5205SOL    HW220819   4.205   5.028   3.077  0.0231  0.6037  0.1137
 5205SOL     MW20820   4.179   5.104   3.043  0.1140  0.5038 -0.1799
 5206SOL     OW20821   3.255   3.065   3.739 -0.1948  0.1373  0.0591
 5206SOL    HW120822   3.350   3.053   3.746 -0.0047  1.2846 -0.3400
 5206SOL    HW220823   3.228   3.004   3.670 -0.3897 -3.0507  2.7401
 5206SOL     MW20824   3.264   3.056   3.731 -0.1954 -0.1240  0.3512
 5207SOL     OW20825   4.325   5.076   4.177  0.0600  0.1501  0.8930
 5207SOL    HW120826   4.232   5.067   4.199 -0.3403 -0.3654 -0.8433
 5207SOL    HW220827   4.346   4.996   4.128  1.0523  0.8829  0.0806
 5207SOL     MW20828   4.316   5.065   4.173  0.1358  0.1779  0.5667
 5208SOL     OW20829   0.972   1.139   2.145 -0.5407  0.3059  0.0762
 5208SOL    HW120830   0.897   1.127   2.086 -0.5142  0.8436 -0.0755
 5208SOL    HW220831   1.041   1.174   2.089 -0.0262 -0.6042  0.1275
 5208SOL     MW20832   0.971   1.142   2.130 -0.4714  0.2582  0.0634
 5209SOL     OW20833   4.423   5.348   1.904  0.4429  0.4236  0.1227
 5209SOL    HW120834   4.328   5.336   1.913  0.2079  0.2996 -1.9787
 5209SOL    HW220835   4.436   5.443   1.913  0.0685  0.4754  0.1358
 5209SOL     MW20836   4.412   5.359   1.906  0.3649  0.4143 -0.1446
 5210SOL     OW20837   0.531   4.560   4.004 -0.1823  0.0641 -0.3912
 5210SOL    HW120838   0.499   4.649   4.016  1.6307  0.6616  0.3395
 5210SOL    HW220839   0.626   4.569   3.993  0.1058 -1.8064  0.1246
 5210SOL     MW20840   0.539   4.572   4.004  0.0867 -0.0988 -0.2316
 5211SOL     OW20841   3.834   3.168   2.751 -0.1838 -0.5145 -0.3886
 5211SOL    HW120842   3.848   3.179   2.657 -3.0698  0.1604 -0.8535
 5211SOL    HW220843   3.870   3.248   2.790  1.5160 -1.0422 -0.8241
 5211SOL     MW20844   3.840   3.180   2.744 -0.3357 -0.4956 -0.5038
 5212SOL     OW20845   2.748   0.388   0.073  0.3416 -0.2544 -0.1124
 5212SOL    HW120846   2.784   0.367   0.158 -1.3103 -1.7468  0.2628
 5212SOL    HW220847   2.740   0.484   0.073 -0.9778 -0.3104  2.0080
 5212SOL     MW20848   2.751   0.398   0.084 -0.0387 -0.4526  0.2070
 5213SOL     OW20849   2.826   2.474   4.671 -0.0199 -0.1518 -0.3573
 5213SOL    HW120850   2.841   2.420   4.593 -0.2301 -0.6147 -0.0831
 5213SOL    HW220851   2.826   2.564   4.638 -0.8658 -0.3798 -1.0183
 5213SOL     MW20852   2.828   2.478   4.657 -0.1551 -0.2402 -0.4068
 5214SOL     OW20853   1.681   0.472   1.026  0.6212  0.0800 -0.5796
 5214SOL    HW120854   1.707   0.450   1.115 -0.0449  1.1546 -0.0924
 5214SOL    HW220855   1.706   0.564   1.016 -2.2757  1.0160 -0.2776
 5214SOL     MW20856   1.687   0.481   1.036  0.1651  0.3374 -0.4785
 5215SOL     OW20857   5.016   3.218   0.648  0.0102 -0.6191 -0.1056
 5215SOL    HW120858   5.008   3.124   0.663 -0.7072 -0.4020  1.0054
 5215SOL    HW220859   5.078   3.248   0.714 -0.2008 -0.2369 -0.0727
 5215SOL     MW20860   5.023   3.210   0.659 -0.1086 -0.5424  0.0408
 5216SOL     OW20861   3.445   0.283   2.169 -0.0789  0.2910 -0.1223
 5216SOL    HW120862   3.366   0.334   2.187 -0.4889 -0.2197 -0.4006
 5216SOL    HW220863   3.462   0.299   2.076 -1.0157 -1.1138 -0.5778
 5216SOL     MW20864   3.437   0.291   2.159 -0.2513  0.0458 -0.2162
 5217SOL     OW20865   3.118   4.317   3.204  0.1081  0.1817  0.0365
 5217SOL    HW120866   3.068   4.396   3.181 -1.1909  0.2702  2.7203
 5217SOL    HW220867   3.197   4.351   3.247 -1.0388  0.1555  2.3460
 5217SOL     MW20868   3.122   4.332   3.207 -0.2050  0.1897  0.6757
 5218SOL     OW20869   4.457   0.429   1.243  0.2981 -0.6726 -0.0153
 5218SOL    HW120870   4.448   0.346   1.197 -0.8030 -0.5026 -0.1199
 5218SOL    HW220871   4.416   0.414   1.328  1.2551 -0.6214  0.4667
 5218SOL     MW20872   4.451   0.416   1.248  0.2796 -0.6443  0.0330
 5219SOL     OW20873   1.902   0.884   1.223  0.1246  0.4548 -0.3767
 5219SOL    HW120874   1.982   0.842   1.254 -1.2525 -2.4093 -0.4062
 5219SOL    HW220875   1.860   0.917   1.302  1.0593  1.5923 -0.3193
 5219SOL     MW20876   1.907   0.883   1.237  0.0680  0.2338 -0.3731
 5220SOL     OW20877   3.739   4.611   3.542  0.2650 -0.0802  0.0809
 5220SOL    HW120878   3.751   4.518   3.561 -0.4594  0.0223  1.1176
 5220SOL    HW220879   3.803   4.656   3.597  1.1387  0.0212 -0.9734
 5220SOL     MW20880   3.749   4.605   3.551  0.2841 -0.0541  0.0786
 5221SOL     OW20881   3.180   0.437   2.195 -0.5750  0.2544 -0.3867
 5221SOL    HW120882   3.104   0.462   2.143 -1.3006  1.6752  1.2412
 5221SOL    HW220883   3.144   0.417   2.281  0.6883 -1.0623 -0.1408
 5221SOL     MW20884   3.166   0.438   2.199 -0.5061  0.2677 -0.1469
 5222SOL     OW20885   3.269   0.329   0.406  0.0617 -0.0623 -0.9333
 5222SOL    HW120886   3.229   0.409   0.372  1.8582  1.1945 -0.2271
 5222SOL    HW220887   3.247   0.262   0.341 -2.2832  0.7491 -1.0545
 5222SOL     MW20888   3.261   0.331   0.393 -0.0085  0.2025 -0.8584
 5223SOL     OW20889   4.450   4.718   3.242  0.1050  0.0740  0.1255
 5223SOL    HW120890   4.440   4.623   3.228  0.0064  0.2209 -0.8513
 5223SOL    HW220891   4.516   4.724   3.311  1.0206 -0.6993 -0.6323
 5223SOL     MW20892   4.458   4.706   3.249  0.2096 -0.0062 -0.0966
 5224SOL     OW20893   5.389   4.186   4.042  0.1626 -0.9888  0.0238
 5224SOL    HW120894   5.444   4.114   4.071  2.3939 -1.4200 -4.4137
 5224SOL    HW220895   5.445   4.263   4.046 -0.3500 -0.5829 -0.4125
 5224SOL     MW20896   5.403   4.186   4.046  0.3826 -0.9921 -0.6001
 5225SOL     OW20897   4.692   5.277   0.492 -0.1876 -0.0875 -0.2127
 5225SOL    HW120898   4.690   5.199   0.548 -1.9995 -1.5007 -2.1036
 5225SOL    HW220899   4.656   5.248   0.409  0.1822  2.5228 -1.3781
 5225SOL     MW20900   4.687   5.264   0.489 -0.3722  0.0657 -0.6040
 5226SOL     OW20901   3.162   3.408   0.171 -0.3669 -0.6961  0.9696
 5226SOL    HW120902   3.078   3.373   0.202 -1.3127  0.8549  0.2854
 5226SOL    HW220903   3.185   3.350   0.098 -1.6972 -0.2040  0.1105
 5226SOL     MW20904   3.154   3.396   0.166 -0.6583 -0.4346  0.7721
 5227SOL     OW20905   0.232   0.998   3.333  0.0491 -0.3334 -0.3964
 5227SOL    HW120906   0.233   0.902   3.327 -1.4457 -0.3595 -0.8875
 5227SOL    HW220907   0.142   1.021   3.310 -0.2924  1.0496  2.0304
 5227SOL     MW20908   0.220   0.989   3.329 -0.1860 -0.1597 -0.1486
 5228SOL     OW20909   2.285   3.187   0.490 -0.1831 -0.1290 -0.3220
 5228SOL    HW120910   2.336   3.263   0.461  0.9520 -1.2187 -1.3355
 5228SOL    HW220911   2.222   3.172   0.420 -0.7828  0.1967  0.1394
 5228SOL     MW20912   2.284   3.195   0.477 -0.1146 -0.2268 -0.3926
 5229SOL     OW20913   2.480   4.996   3.438  0.3027  0.2133 -0.1060
 5229SOL    HW120914   2.568   5.018   3.407  0.8096 -1.8572 -0.2475
 5229SOL    HW220915   2.492   4.917   3.490 -1.7443 -1.5522 -2.0811
 5229SOL     MW20916   2.493   4.989   3.441  0.1056 -0.2778 -0.3770
 5230SOL     OW20917   1.659   4.321   1.933 -0.8054 -0.4506  0.2368
 5230SOL    HW120918   1.674   4.350   2.023 -2.4238  0.4831  0.2461
 5230SOL    HW220919   1.737   4.349   1.886 -0.9376  1.1889  0.9006
 5230SOL     MW20920   1.671   4.328   1.938 -1.0295 -0.1212  0.3230
 5231SOL     OW20921   1.854   0.947   0.031  0.2028 -0.2805 -0.1535
 5231SOL    HW120922   1.866   1.010  -0.041 -1.1936  0.4612  0.2277
 5231SOL    HW220923   1.799   0.879  -0.006  0.1773 -0.3271 -0.0299
 5231SOL     MW20924   1.848   0.947   0.017  0.0208 -0.1915 -0.0889
 5232SOL     OW20925   1.355   2.585   1.708  0.0318 -0.3758 -0.1394
 5232SOL    HW120926   1.274   2.553   1.747  1.2860 -1.6495  1.6103
 5232SOL    HW220927   1.420   2.517   1.728  1.9443  1.4322  0.1722
 5232SOL     MW20928   1.353   2.572   1.715  0.4372 -0.3074  0.1245
 5233SOL     OW20929   2.924   1.386   1.231 -0.0468  0.2487  0.5974
 5233SOL    HW120930   2.829   1.396   1.239 -1.1008 -1.1739 -5.3869
 5233SOL    HW220931   2.942   1.299   1.265 -2.0147 -1.6119 -2.6571
 5233SOL     MW20932   2.914   1.376   1.236 -0.4336 -0.1716 -0.5853
 5234SOL     OW20933   0.816   1.621   3.424 -0.1345 -0.0607  0.3198
 5234SOL    HW120934   0.835   1.708   3.460 -1.0156  0.5290 -0.5775
 5234SOL    HW220935   0.736   1.634   3.372  1.7334 -0.5119 -2.9812
 5234SOL     MW20936   0.808   1.634   3.422 -0.0082 -0.0430 -0.2177
 5235SOL     OW20937   5.142   4.245   3.983 -0.2242 -0.0701 -0.0693
 5235SOL    HW120938   5.151   4.259   3.889  2.2622  0.6607  0.2177
 5235SOL    HW220939   5.230   4.223   4.013 -0.8373  0.3046  2.1779
 5235SOL     MW20940   5.154   4.244   3.975  0.0156  0.0714  0.2551
 5236SOL     OW20941   0.287   1.340   3.017  0.1041  0.1047  0.0991
 5236SOL    HW120942   0.323   1.318   3.103  1.2410  0.6427 -0.2267
 5236SOL    HW220943   0.200   1.299   3.016 -0.1317  0.5164  1.6920
 5236SOL     MW20944   0.280   1.332   3.028  0.2195  0.2262  0.2613
 5237SOL     OW20945   5.432   1.549   3.762 -0.0237  0.2388  0.2682
 5237SOL    HW120946   5.490   1.476   3.740 -0.9627 -0.5428  0.2879
 5237SOL    HW220947   5.440   1.559   3.857 -0.0172  0.0424  0.2894
 5237SOL     MW20948   5.440   1.541   3.771 -0.1430  0.1136  0.2734
 5238SOL     OW20949   3.132   2.275   3.814 -0.4861  0.7224 -0.2393
 5238SOL    HW120950   3.047   2.256   3.776 -0.8355  0.5064  0.6436
 5238SOL    HW220951   3.143   2.370   3.803 -1.1730  0.8672  0.3402
 5238SOL     MW20952   3.123   2.285   3.808 -0.6187  0.7133 -0.0521
 5239SOL     OW20953   2.183   1.295   2.900  0.1613  0.2009 -0.5331
 5239SOL    HW120954   2.210   1.351   2.827 -0.3313 -0.1881 -1.0177
 5239SOL    HW220955   2.109   1.341   2.940 -1.7901 -1.1754 -2.3659
 5239SOL     MW20956   2.177   1.308   2.896 -0.1516 -0.0251 -0.8297
 5240SOL     OW20957   1.389   2.305   3.621  0.6202 -0.6448  0.5486
 5240SOL    HW120958   1.323   2.270   3.681  1.2796 -0.7606  1.2201
 5240SOL    HW220959   1.424   2.381   3.666 -1.4396  1.5479 -1.2739
 5240SOL     MW20960   1.385   2.310   3.634  0.4410 -0.3789  0.4013
 5241SOL     OW20961   1.859   4.528   1.442 -0.5353 -0.0424  0.1372
 5241SOL    HW120962   1.774   4.508   1.481 -0.9163 -0.3583 -0.8032
 5241SOL    HW220963   1.915   4.454   1.465 -0.5658  0.0822  0.6113
 5241SOL     MW20964   1.855   4.516   1.450 -0.5880 -0.0669  0.0775
 5242SOL     OW20965   2.209   4.476   4.768  0.4445  0.1534  0.3785
 5242SOL    HW120966   2.218   4.385   4.796  1.6739  0.2330  0.2772
 5242SOL    HW220967   2.259   4.481   4.686  1.5232  1.2264  1.0772
 5242SOL     MW20968   2.217   4.465   4.761  0.7400  0.3009  0.4549
 5243SOL     OW20969   2.368   4.494   0.166  0.6961 -0.3817  0.7745
 5243SOL    HW120970   2.360   4.508   0.072 -4.1778 -1.0009  0.7926
 5243SOL    HW220971   2.391   4.580   0.201  1.3314  0.1652 -0.8840
 5243SOL     MW20972   2.370   4.507   0.159  0.1535 -0.3909  0.5645
 5244SOL     OW20973   4.721   5.117   2.339 -0.5558  0.3954  0.1892
 5244SOL    HW120974   4.730   5.212   2.344 -0.3742  0.3124  2.2348
 5244SOL    HW220975   4.629   5.100   2.356 -0.6255  0.2034 -0.3565
 5244SOL     MW20976   4.710   5.127   2.342 -0.5415  0.3602  0.3812
 5245SOL     OW20977   1.429   1.888   0.739  0.2292  0.6257 -0.0339
 5245SOL    HW120978   1.340   1.871   0.709  0.6951  1.1233 -1.7630
 5245SOL    HW220979   1.473   1.803   0.732 -0.2555  0.2138  1.4870
 5245SOL     MW20980   1.423   1.875   0.734  0.2268  0.6367 -0.0606
 5246SOL     OW20981   4.776   3.437   2.658  0.1907  0.1168  0.5200
 5246SOL    HW120982   4.846   3.409   2.599  0.6911  0.9992  0.6897
 5246SOL    HW220983   4.703   3.458   2.600 -0.3151 -1.7780  0.3913
 5246SOL     MW20984   4.776   3.436   2.643  0.1900 -0.0128  0.5252
 5247SOL     OW20985   0.036   0.628   0.829 -0.2497 -0.2320  0.3427
 5247SOL    HW120986   0.027   0.622   0.733  0.5994 -2.6997  0.3642
 5247SOL    HW220987  -0.009   0.710   0.851 -0.0923  0.6437 -2.1984
 5247SOL     MW20988   0.029   0.638   0.819 -0.1208 -0.4358  0.0202
 5248SOL     OW20989   3.487   0.404   4.313 -0.3352 -0.3789 -0.4403
 5248SOL    HW120990   3.475   0.499   4.314  0.8838 -0.2086  1.0875
 5248SOL    HW220991   3.545   0.389   4.238 -0.0699  0.1588 -0.3529
 5248SOL     MW20992   3.493   0.415   4.303 -0.1452 -0.2882 -0.2335
 5249SOL     OW20993   3.873   0.453   3.250 -0.1769  0.0173  0.3433
 5249SOL    HW120994   3.790   0.501   3.245  0.6223  1.3608 -0.4635
 5249SOL    HW220995   3.881   0.428   3.342 -1.0914  0.5373  0.5770
 5249SOL     MW20996   3.863   0.456   3.261 -0.1917  0.2559  0.2699
 5250SOL     OW20997   4.436   4.734   1.188 -0.6116 -0.1482 -0.1780
 5250SOL    HW120998   4.448   4.748   1.282  0.9394 -1.7843 -0.0654
 5250SOL    HW220999   4.515   4.770   1.148 -0.3793 -1.1141 -0.6332
 5250SOL     MW21000   4.447   4.740   1.195 -0.3833 -0.4813 -0.2219
 5251SOL     OW21001   3.364   4.100   3.179 -0.8797 -0.0913 -0.3823
 5251SOL    HW121002   3.360   4.104   3.083  0.7280 -0.7587 -0.5043
 5251SOL    HW221003   3.304   4.029   3.203 -0.4640 -0.6505 -0.9809
 5251SOL     MW21004   3.356   4.091   3.170 -0.6207 -0.2484 -0.4746
 5252SOL     OW21005   4.397   3.178   0.110  0.1869 -0.1073  0.1077
 5252SOL    HW121006   4.419   3.260   0.066 -0.6422  0.0326 -0.0635
 5252SOL    HW221007   4.324   3.201   0.168 -0.1172 -0.7428 -0.0144
 5252SOL     MW21008   4.391   3.192   0.112  0.0418 -0.1708  0.0701
 5253SOL     OW21009   4.683   4.152   1.049 -0.3490 -0.1642  0.1754
 5253SOL    HW121010   4.778   4.161   1.058 -0.2087 -1.4661  0.1026
 5253SOL    HW221011   4.656   4.234   1.008  0.7850  0.1057 -0.0779
 5253SOL     MW21012   4.692   4.164   1.045 -0.1859 -0.2963  0.1337
 5254SOL     OW21013   3.162   0.990   2.726 -0.0592  0.2232  0.1550
 5254SOL    HW121014   3.110   1.041   2.789  0.9310 -0.3178  1.4439
 5254SOL    HW221015   3.116   0.907   2.718  0.1532  0.0584  0.6475
 5254SOL     MW21016   3.149   0.986   2.733  0.0947  0.1328  0.3831
 5255SOL     OW21017   3.687   2.799   3.003  0.0291  0.0396 -0.1189
 5255SOL    HW121018   3.780   2.783   2.991 -0.0635 -0.0935 -0.6967
 5255SOL    HW221019   3.666   2.757   3.087  0.2858 -0.8088 -0.4696
 5255SOL     MW21020   3.696   2.792   3.012  0.0501 -0.0860 -0.2378
 5256SOL     OW21021   4.160   4.985   0.416 -0.7428  0.4034  0.8325
 5256SOL    HW121022   4.125   4.918   0.475 -2.3140  1.6748  1.4140
 5256SOL    HW221023   4.250   4.999   0.447 -0.9005 -0.3361  1.6813
 5256SOL     MW21024   4.167   4.978   0.428 -0.9641  0.4715  1.0156
 5257SOL     OW21025   2.152   4.615   2.126  0.1451 -0.5084  0.1722
 5257SOL    HW121026   2.158   4.696   2.177  2.0591 -0.0756 -0.6419
 5257SOL    HW221027   2.109   4.641   2.045  1.0912 -0.1807 -0.2452
 5257SOL     MW21028   2.147   4.629   2.122  0.5113 -0.4110  0.0145
 5258SOL     OW21029   3.851   3.160   0.246  0.8125 -0.8425 -0.4710
 5258SOL    HW121030   3.828   3.135   0.335  1.0819  2.8795  0.7944
 5258SOL    HW221031   3.942   3.130   0.235  1.3308  0.0613  1.1335
 5258SOL     MW21032   3.860   3.153   0.256  0.9133 -0.2503 -0.1037
 5259SOL     OW21033   2.860   3.287   1.183  0.0210  0.0640  0.4501
 5259SOL    HW121034   2.927   3.349   1.156 -0.2908 -0.0834 -0.7134
 5259SOL    HW221035   2.783   3.309   1.130  0.4627 -2.4473 -1.4575
 5259SOL     MW21036   2.859   3.297   1.173  0.0377 -0.2763  0.0570
 5260SOL     OW21037   1.318   3.960   2.715 -0.1700 -0.1140  0.0226
 5260SOL    HW121038   1.387   4.021   2.690 -1.2616  0.8741 -0.7555
 5260SOL    HW221039   1.245   4.016   2.742 -2.0247 -0.8740 -2.8414
 5260SOL     MW21040   1.317   3.975   2.715 -0.5471 -0.0848 -0.4436
 5261SOL     OW21041   3.712  -0.004   5.201 -0.1864  0.6187  0.4730
 5261SOL    HW121042   3.692   0.069   5.142 -2.1673  1.5240  2.1399
 5261SOL    HW221043   3.747   0.038   5.280 -1.8815 -0.0986  1.6691
 5261SOL     MW21044   3.714   0.011   5.204 -0.6570  0.6428  0.8395
 5262SOL     OW21045   2.180   4.801   0.371  0.4034 -0.0068 -0.2391
 5262SOL    HW121046   2.265   4.777   0.335  0.1917  1.1125 -1.5498
 5262SOL    HW221047   2.196   4.882   0.419 -0.0545  0.6454 -1.1592
 5262SOL     MW21048   2.193   4.808   0.373  0.3177  0.2199 -0.5246
 5263SOL     OW21049   4.296   4.072   3.546  0.2914  0.4872 -0.2233
 5263SOL    HW121050   4.337   4.001   3.595  0.2286  0.8294  0.3288
 5263SOL    HW221051   4.226   4.104   3.602  0.0849  0.7460 -0.6227
 5263SOL     MW21052   4.293   4.067   3.559  0.2569  0.5642 -0.2038
 5264SOL     OW21053   3.833   0.188   4.672  0.2720 -0.2238  0.1513
 5264SOL    HW121054   3.912   0.242   4.673  0.1439 -0.0441  0.7576
 5264SOL    HW221055   3.763   0.247   4.645  0.5085 -0.6345 -1.4932
 5264SOL     MW21056   3.834   0.202   4.668  0.2859 -0.2534  0.0184
 5265SOL     OW21057   4.250   2.589   4.289  0.0574 -0.2927  0.2762
 5265SOL    HW121058   4.322   2.621   4.234  1.1291  2.1982  2.8871
 5265SOL    HW221059   4.222   2.665   4.339 -3.8452 -1.4149  0.1000
 5265SOL     MW21060   4.256   2.603   4.288 -0.3050 -0.1175  0.5879
 5266SOL     OW21061   1.741   3.415   1.028 -0.2253 -0.3834 -0.1925
 5266SOL    HW121062   1.832   3.446   1.020 -0.9526  1.9712 -0.0892
 5266SOL    HW221063   1.749   3.323   1.054  2.1291  0.0674  0.9389
 5266SOL     MW21064   1.754   3.407   1.030 -0.0170 -0.0243 -0.0344
 5267SOL     OW21065   2.489   3.395   3.559  0.3732 -0.1789 -0.3324
 5267SOL    HW121066   2.420   3.443   3.513  0.9802  0.3587 -0.6968
 5267SOL    HW221067   2.570   3.427   3.520  0.8073 -1.1678 -0.2479
 5267SOL     MW21068   2.490   3.406   3.548  0.5064 -0.2367 -0.3682
 5268SOL     OW21069   1.342   5.175   0.608  1.0114 -0.4042  0.4092
 5268SOL    HW121070   1.313   5.100   0.557  2.2976 -0.6632  0.0503
 5268SOL    HW221071   1.262   5.205   0.653  0.1785 -1.0563 -0.5976
 5268SOL     MW21072   1.328   5.169   0.607  1.0694 -0.5209  0.2343
 5269SOL     OW21073   0.207   0.090   5.316 -0.1879 -0.0541 -0.2298
 5269SOL    HW121074   0.286   0.066   5.365  0.2867 -0.4977 -1.1669
 5269SOL    HW221075   0.193   0.016   5.256 -1.7387 -0.3026  0.4060
 5269SOL     MW21076   0.216   0.078   5.315 -0.3257 -0.1427 -0.2684
 5270SOL     OW21077   2.921   0.256   3.257  0.5262  0.1379  0.0021
 5270SOL    HW121078   2.909   0.249   3.352  0.4703  0.8300  0.0472
 5270SOL    HW221079   2.950   0.346   3.243  2.5628 -0.5541 -0.4372
 5270SOL     MW21080   2.923   0.266   3.267  0.7797  0.1379 -0.0483
 5271SOL     OW21081   0.418   2.145   1.027  0.1922  0.1578 -0.1516
 5271SOL    HW121082   0.496   2.198   1.044 -0.9849  2.0538 -0.2505
 5271SOL    HW221083   0.346   2.208   1.030 -1.1750 -1.2321 -1.6715
 5271SOL     MW21084   0.419   2.160   1.030 -0.1335  0.2226 -0.3588
 5272SOL     OW21085   0.578   5.110   0.220  0.1746  0.2453 -0.0153
 5272SOL    HW121086   0.598   5.111   0.314 -0.4687 -1.1356  0.1679
 5272SOL    HW221087   0.484   5.095   0.215  0.4239 -1.3288 -0.8481
 5272SOL     MW21088   0.569   5.108   0.231  0.1242 -0.1330 -0.0985
 5273SOL     OW21089   1.481   5.321   5.112 -0.3479 -0.3930 -0.6582
 5273SOL    HW121090   1.565   5.300   5.071 -1.1498 -0.4159 -2.3791
 5273SOL    HW221091   1.417   5.313   5.041 -1.9477 -1.2425  0.7991
 5273SOL     MW21092   1.483   5.317   5.098 -0.6553 -0.5047 -0.6920
 5274SOL     OW21093   3.066   2.173   4.750 -0.0052  0.7554  0.1022
 5274SOL    HW121094   3.158   2.165   4.775  0.0347  1.1171  0.0725
 5274SOL    HW221095   3.040   2.260   4.780 -0.6318  0.2566  1.0488
 5274SOL     MW21096   3.074   2.183   4.757 -0.0803  0.7378  0.2196
 5275SOL     OW21097   5.280   0.457   1.855 -0.2875 -0.6668 -0.6450
 5275SOL    HW121098   5.334   0.414   1.921  0.5315  0.4426 -0.5728
 5275SOL    HW221099   5.196   0.471   1.898 -0.7820 -2.6978 -0.8613
 5275SOL     MW21100   5.276   0.453   1.869 -0.2459 -0.7848 -0.6634
 5276SOL     OW21101   0.578   1.235   3.067  0.5037 -0.1818 -0.2229
 5276SOL    HW121102   0.545   1.285   2.992  1.7631 -0.6440 -1.1225
 5276SOL    HW221103   0.651   1.287   3.100 -0.6031  0.4912  1.3219
 5276SOL     MW21104   0.583   1.248   3.061  0.5232 -0.1548 -0.1403
 5277SOL     OW21105   2.953   0.938   1.093  0.0278 -0.2554 -0.5846
 5277SOL    HW121106   3.026   0.893   1.050  0.9584  0.6051  0.0577
 5277SOL    HW221107   2.923   1.002   1.028  0.3321 -0.1034 -0.5747
 5277SOL     MW21108   2.958   0.941   1.079  0.1859 -0.1258 -0.5011
 5278SOL     OW21109   3.703   5.143   5.247 -0.3101  0.0206  0.0280
 5278SOL    HW121110   3.749   5.158   5.330 -2.4028 -2.3824  1.7785
 5278SOL    HW221111   3.639   5.213   5.243 -0.7486 -0.3006  0.9322
 5278SOL     MW21112   3.701   5.154   5.257 -0.6341 -0.3281  0.3678
 5279SOL     OW21113   4.971   4.464   0.464 -0.3188  0.1055 -0.0988
 5279SOL    HW121114   4.876   4.475   0.472 -0.4822 -1.3689  0.3589
 5279SOL    HW221115   4.982   4.389   0.405  0.4821 -0.9023  1.2558
 5279SOL     MW21116   4.960   4.456   0.458 -0.2372 -0.2122  0.1332
 5280SOL     OW21117   2.219   3.989   1.404 -0.3229  0.2319 -0.2306
 5280SOL    HW121118   2.205   3.899   1.375  0.9245  0.2849 -1.0938
 5280SOL    HW221119   2.266   3.981   1.487  1.1888  0.0602 -1.0713
 5280SOL     MW21120   2.223   3.977   1.411  0.0303  0.2167 -0.4487
 5281SOL     OW21121   4.074   4.957   0.137 -0.4486 -0.2209  0.4172
 5281SOL    HW121122   4.098   5.045   0.108  0.3725 -0.5879 -0.0714
 5281SOL    HW221123   4.111   4.949   0.225 -0.5133 -0.0763  0.4568
 5281SOL     MW21124   4.082   4.967   0.144 -0.3518 -0.2493  0.3597
 5282SOL     OW21125   0.583   2.982   3.085  0.0367  0.5430  0.0358
 5282SOL    HW121126   0.542   2.985   2.998 -1.9177  2.7523  0.9415
 5282SOL    HW221127   0.554   3.062   3.128  2.8094  0.6333  1.9617
 5282SOL     MW21128   0.574   2.992   3.079  0.1415  0.8374  0.3983
 5283SOL     OW21129   0.818   3.361   1.496  0.5221 -0.4616 -0.1545
 5283SOL    HW121130   0.831   3.311   1.577  0.0578  0.2645  0.3758
 5283SOL    HW221131   0.750   3.425   1.518  0.1645 -0.4610 -1.2132
 5283SOL     MW21132   0.811   3.363   1.509  0.4169 -0.3686 -0.2221
 5284SOL     OW21133   0.806   5.143   3.092  0.2945  0.0487  0.8166
 5284SOL    HW121134   0.795   5.112   3.002 -1.1360 -0.1063  1.0280
 5284SOL    HW221135   0.759   5.079   3.145 -0.5670  1.2085  1.4924
 5284SOL     MW21136   0.799   5.131   3.087  0.0011  0.1773  0.9302
 5285SOL     OW21137   4.202   1.820   1.758 -0.0390 -0.0560 -0.3616
 5285SOL    HW121138   4.176   1.910   1.743 -0.3162 -0.2186 -0.8507
 5285SOL    HW221139   4.289   1.826   1.797 -0.6333  0.4740  0.9372
 5285SOL     MW21140   4.210   1.832   1.761 -0.1506 -0.0089 -0.2580
 5286SOL     OW21141   2.207   4.752   4.212 -0.4536  0.4305  0.0846
 5286SOL    HW121142   2.123   4.788   4.185  0.1623  1.4383 -0.5440
 5286SOL    HW221143   2.245   4.717   4.132  0.3672  1.3327  0.0634
 5286SOL     MW21144   2.201   4.752   4.199 -0.2697  0.6750  0.0014
 5287SOL     OW21145   5.377   1.444   4.733  0.0907 -0.0571  0.0082
 5287SOL    HW121146   5.297   1.420   4.779 -0.8496  3.2763  0.3744
 5287SOL    HW221147   5.349   1.462   4.643  0.8246 -0.8164 -0.3836
 5287SOL     MW21148   5.363   1.444   4.727  0.0643  0.2724  0.0049
 5288SOL     OW21149   2.646   4.923   2.430 -0.1086 -0.7353  0.5535
 5288SOL    HW121150   2.663   4.964   2.515  2.3722 -1.3614  0.4171
 5288SOL    HW221151   2.647   4.996   2.368  0.8281 -0.5874  0.7349
 5288SOL     MW21152   2.648   4.938   2.433  0.3289 -0.7965  0.5592
 5289SOL     OW21153   0.638   2.680   3.141 -0.6083 -0.6566  0.0094
 5289SOL    HW121154   0.701   2.701   3.210 -0.9759 -0.3531  0.2519
 5289SOL    HW221155   0.609   2.765   3.108 -0.9050 -0.7945 -0.0907
 5289SOL     MW21156   0.643   2.694   3.146 -0.6933 -0.6354  0.0276
 5290SOL     OW21157   0.705   3.126   2.423 -0.1131 -0.5347  0.0897
 5290SOL    HW121158   0.769   3.055   2.430 -0.6991 -1.1078 -0.2587
 5290SOL    HW221159   0.678   3.125   2.331  0.2445  0.4741 -0.0337
 5290SOL     MW21160   0.710   3.117   2.412 -0.1423 -0.4789  0.0293
 5291SOL     OW21161   2.972   2.299   2.141  0.0541  0.2700 -0.0436
 5291SOL    HW121162   3.013   2.313   2.056 -1.4223  1.3291 -0.6293
 5291SOL    HW221163   2.958   2.204   2.146  0.8858  0.1140 -0.6177
 5291SOL     MW21164   2.975   2.289   2.131 -0.0285  0.3856 -0.1920
 5292SOL     OW21165   4.279   0.190   0.407 -0.2792  0.3605 -0.1227
 5292SOL    HW121166   4.281   0.101   0.370 -0.7565  0.6739 -0.9157
 5292SOL    HW221167   4.272   0.176   0.502  0.0408 -0.4523 -0.2113
 5292SOL     MW21168   4.278   0.177   0.415 -0.2993  0.2965 -0.2356
 5293SOL     OW21169   2.013   5.104   0.741  1.0320 -0.0589 -0.3393
 5293SOL    HW121170   2.012   5.200   0.744  0.4204 -0.0262  3.4125
 5293SOL    HW221171   1.921   5.080   0.754  0.9569 -1.2383 -2.6788
 5293SOL     MW21172   2.001   5.113   0.743  0.9441 -0.2057 -0.1585
 5294SOL     OW21173   4.028   0.705   4.585  0.0443 -0.8368  0.1872
 5294SOL    HW121174   3.953   0.648   4.572 -0.3856 -0.2896  0.2408
 5294SOL    HW221175   4.010   0.749   4.669 -0.2928  0.3894 -0.5118
 5294SOL     MW21176   4.016   0.703   4.594 -0.0539 -0.6098  0.1045
 5295SOL     OW21177   4.795   1.114   0.408 -0.0515 -0.3402 -0.0499
 5295SOL    HW121178   4.732   1.139   0.475 -0.1888  1.3851 -0.7834
 5295SOL    HW221179   4.747   1.120   0.325  0.8364  0.2596 -0.5466
 5295SOL     MW21180   4.781   1.118   0.406  0.0446 -0.0426 -0.2074
 5296SOL     OW21181   3.712   3.946   1.266  0.1263 -0.4350 -0.0721
 5296SOL    HW121182   3.775   3.874   1.269 -0.0562 -0.6007 -0.2665
 5296SOL    HW221183   3.743   4.002   1.195  0.8073  0.1766  0.6800
 5296SOL     MW21184   3.724   3.944   1.258  0.1901 -0.3780 -0.0007
 5297SOL     OW21185   0.063   1.796   2.852 -0.1384 -0.0921  0.2559
 5297SOL    HW121186  -0.015   1.781   2.904  0.3816  0.6410  1.2940
 5297SOL    HW221187   0.091   1.709   2.825  0.0916 -0.6101  2.0128
 5297SOL     MW21188   0.057   1.783   2.855 -0.0424 -0.0646  0.6137
 5298SOL     OW21189   0.778   2.006   1.087  0.3292  0.0373 -0.0034
 5298SOL    HW121190   0.759   1.933   1.028  0.5486 -0.4141  0.4701
 5298SOL    HW221191   0.821   2.071   1.031  0.0053 -0.1354 -0.4613
 5298SOL     MW21192   0.781   2.005   1.072  0.3158 -0.0426 -0.0014
 5299SOL     OW21193   5.196   3.701   2.729 -0.1758 -0.5503 -0.1997
 5299SOL    HW121194   5.172   3.728   2.818 -1.1682  0.0696 -0.6386
 5299SOL    HW221195   5.286   3.672   2.737 -0.2570 -0.5401  1.0232
 5299SOL     MW21196   5.204   3.701   2.742 -0.3132 -0.4697 -0.0993
 5300SOL     OW21197   1.885   0.392   3.103 -0.1931  0.2135  0.3080
 5300SOL    HW121198   1.841   0.433   3.028  1.0547  0.8433 -0.1078
 5300SOL    HW221199   1.975   0.378   3.073  0.0549 -0.5119  1.3358
 5300SOL     MW21200   1.891   0.395   3.089 -0.0016  0.2013  0.3864
 5301SOL     OW21201   3.919   0.408   0.594 -0.1412 -0.4775 -0.1482
 5301SOL    HW121202   3.849   0.472   0.581  1.0497  0.8124 -0.4294
 5301SOL    HW221203   3.894   0.360   0.673 -1.3617 -0.0789 -0.2841
 5301SOL     MW21204   3.907   0.410   0.603 -0.1450 -0.2613 -0.2016
 5302SOL     OW21205   1.089   0.418   1.479  0.6455 -0.3650  0.1186
 5302SOL    HW121206   1.109   0.511   1.489  1.3334 -0.5294  0.3482
 5302SOL    HW221207   1.148   0.387   1.411  0.1992 -0.5694 -0.1802
 5302SOL     MW21208   1.099   0.426   1.472  0.6764 -0.4122  0.1097
 5303SOL     OW21209   4.554   1.976   1.514 -0.1827  0.2341 -0.0470
 5303SOL    HW121210   4.522   1.956   1.427  0.0916 -2.8606  0.4695
 5303SOL    HW221211   4.619   2.046   1.500 -2.4747  2.1898 -1.8132
 5303SOL     MW21212   4.558   1.983   1.501 -0.4410  0.0883 -0.2069
 5304SOL     OW21213   4.882   5.245   0.816  0.4593 -0.1694  0.1146
 5304SOL    HW121214   4.934   5.208   0.887 -0.8668 -0.9937  0.6984
 5304SOL    HW221215   4.813   5.295   0.860  0.5245  0.5914 -0.6269
 5304SOL     MW21216   4.880   5.246   0.831  0.2979 -0.1775  0.0944
 5305SOL     OW21217   5.158   4.486   1.191 -0.0150  0.1389 -0.2598
 5305SOL    HW121218   5.149   4.519   1.101  1.0187 -0.8215 -0.7371
 5305SOL    HW221219   5.147   4.391   1.184  0.9899 -0.0570  0.4661
 5305SOL     MW21220   5.156   4.478   1.178  0.2459 -0.0091 -0.2280
 5306SOL     OW21221   1.799   1.128   4.863  0.1284 -0.0282  0.0490
 5306SOL    HW121222   1.746   1.049   4.851 -1.3673  1.1335 -1.5653
 5306SOL    HW221223   1.737   1.194   4.891  1.2016  0.8130  0.5132
 5306SOL     MW21224   1.784   1.126   4.865  0.0743  0.2282 -0.0982
 5307SOL     OW21225   3.238   2.836   3.876 -0.3231 -0.2344  0.2426
 5307SOL    HW121226   3.254   2.917   3.828  0.0892 -0.7937 -0.5816
 5307SOL    HW221227   3.322   2.789   3.873 -0.3982 -0.4529  1.1865
 5307SOL     MW21228   3.251   2.840   3.870 -0.2799 -0.3340  0.2579
 5308SOL     OW21229   1.843   5.279   3.115 -0.0247  0.0690  0.2372
 5308SOL    HW121230   1.775   5.300   3.052 -1.9891 -1.3946  1.7238
 5308SOL    HW221231   1.799   5.286   3.200  1.7034 -0.8825  1.2603
 5308SOL     MW21232   1.828   5.283   3.118 -0.0549 -0.2401  0.5585
 5309SOL     OW21233   3.837   1.828   4.093  0.1607 -0.6343  0.2637
 5309SOL    HW121234   3.854   1.909   4.045 -2.2778 -0.2094  0.0005
 5309SOL    HW221235   3.893   1.763   4.050 -0.3254  0.1958 -1.7864
 5309SOL     MW21236   3.846   1.830   4.081 -0.2137 -0.4736 -0.0325
 5310SOL     OW21237   1.795   3.101   1.010 -0.5984 -0.1459  0.3353
 5310SOL    HW121238   1.861   3.129   0.946 -1.2522  1.6886  0.4077
 5310SOL    HW221239   1.760   3.020   0.973 -0.1448  0.2534 -1.0529
 5310SOL     MW21240   1.799   3.094   0.997 -0.6240  0.1400  0.1669
 5311SOL     OW21241   3.841   3.746   4.442  0.1722 -0.0682 -0.0144
 5311SOL    HW121242   3.889   3.827   4.422 -0.2792  0.1760 -0.1060
 5311SOL    HW221243   3.749   3.770   4.434  0.0432 -0.9553 -1.4522
 5311SOL     MW21244   3.836   3.760   4.438  0.0979 -0.1505 -0.2102
 5312SOL     OW21245   4.173   2.716   2.268  0.0822  0.8351  0.1570
 5312SOL    HW121246   4.141   2.720   2.178  2.1558  2.7116 -0.5868
 5312SOL    HW221247   4.258   2.672   2.262  0.6029  1.6749  1.0564
 5312SOL     MW21248   4.180   2.711   2.256  0.4143  1.1828  0.1769
 5313SOL     OW21249   1.981   1.137   1.152 -0.2558 -0.0233  0.2758
 5313SOL    HW121250   1.902   1.191   1.158 -0.8275 -0.6131 -1.2534
 5313SOL    HW221251   1.949   1.048   1.166  0.3440 -0.1489  0.8364
 5313SOL     MW21252   1.967   1.133   1.155 -0.2522 -0.1149  0.1518
 5314SOL     OW21253   2.409   1.218   3.790  0.3957  0.4813 -0.4624
 5314SOL    HW121254   2.484   1.162   3.773  0.9992  0.8428  0.8461
 5314SOL    HW221255   2.338   1.157   3.810  0.9004  0.1526  0.3982
 5314SOL     MW21256   2.409   1.203   3.791  0.5375  0.4855 -0.1847
 5315SOL     OW21257   1.154   4.750   2.689  0.0157  0.1946 -0.3298
 5315SOL    HW121258   1.067   4.720   2.664 -0.4045 -0.1733  1.4365
 5315SOL    HW221259   1.138   4.824   2.748  0.9675  1.4772 -1.6055
 5315SOL     MW21260   1.141   4.756   2.694  0.0838  0.3117 -0.2670
 5316SOL     OW21261   3.524   0.789   3.655 -0.2342  0.5471 -0.5922
 5316SOL    HW121262   3.607   0.765   3.696 -1.3442 -0.2494  1.2794
 5316SOL    HW221263   3.524   0.885   3.655  0.4246  0.5504 -0.0634
 5316SOL     MW21264   3.535   0.798   3.660 -0.2919  0.4456 -0.2849
 5317SOL     OW21265   1.483   0.751   0.144 -0.5840 -0.2800  0.3489
 5317SOL    HW121266   1.452   0.660   0.141 -0.8222 -0.1722 -0.9516
 5317SOL    HW221267   1.480   0.773   0.237 -0.2458 -1.6918  0.7306
 5317SOL     MW21268   1.479   0.742   0.156 -0.5712 -0.4469  0.2313
 5318SOL     OW21269   3.265   1.281   0.926  0.2126  0.2252  0.2414
 5318SOL    HW121270   3.271   1.187   0.944 -0.3322  0.4788  1.9433
 5318SOL    HW221271   3.294   1.322   1.008 -0.6606  1.5197 -0.0728
 5318SOL     MW21272   3.270   1.274   0.939  0.0311  0.4234  0.4191
 5319SOL     OW21273   3.865   0.069   3.167  0.1823  0.7357  0.2198
 5319SOL    HW121274   3.815   0.112   3.097 -0.6139 -0.2580  0.1369
 5319SOL    HW221275   3.956   0.086   3.146  0.0238 -0.4034 -1.6998
 5319SOL     MW21276   3.870   0.077   3.155  0.0601  0.4627 -0.0365
 5320SOL     OW21277   2.170   0.811   5.092 -0.1912  0.4565  0.3974
 5320SOL    HW121278   2.193   0.785   5.002  2.2973  0.4664  0.9373
 5320SOL    HW221279   2.085   0.854   5.084 -0.5251 -0.4522 -1.7840
 5320SOL     MW21280   2.162   0.813   5.080  0.0846  0.3414  0.1873
 5321SOL     OW21281   0.985   2.551   0.159  0.0227 -0.0407  0.1079
 5321SOL    HW121282   0.921   2.504   0.211 -0.2166  0.1214 -0.0407
 5321SOL    HW221283   1.027   2.611   0.220  0.4809 -0.5961  0.3495
 5321SOL     MW21284   0.982   2.553   0.173  0.0508 -0.0910  0.1198
 5322SOL     OW21285   3.437   0.643   1.281  0.6817  0.0192 -0.0089
 5322SOL    HW121286   3.363   0.690   1.241  1.4707  0.5826 -0.8633
 5322SOL    HW221287   3.509   0.655   1.219  1.0665 -1.9048 -0.0135
 5322SOL     MW21288   3.436   0.650   1.268  0.8320 -0.1550 -0.1189
 5323SOL     OW21289   2.164   0.386   3.042  0.2507 -0.2811  0.0871
 5323SOL    HW121290   2.166   0.478   3.016  0.1406 -0.5739 -1.0206
 5323SOL    HW221291   2.183   0.387   3.136  0.4020  0.8551  0.0589
 5323SOL     MW21292   2.167   0.398   3.051  0.2560 -0.1731 -0.0583
 5324SOL     OW21293   2.583   2.940   4.329  0.3739 -0.0785  0.2687
 5324SOL    HW121294   2.651   2.886   4.288  0.1570 -2.7439  3.0388
 5324SOL    HW221295   2.629   2.990   4.396 -0.0882 -0.4023  0.8398
 5324SOL     MW21296   2.597   2.939   4.333  0.2870 -0.4611  0.6964
 5325SOL     OW21297   4.854   0.600   2.321 -0.0407  0.1393  0.7653
 5325SOL    HW121298   4.886   0.522   2.367 -0.5402 -0.5112  0.0370
 5325SOL    HW221299   4.893   0.673   2.368 -0.4647 -0.5033  2.1703
 5325SOL     MW21300   4.863   0.599   2.333 -0.1589 -0.0262  0.8519
 5326SOL     OW21301   5.221   5.405   3.580 -0.3022  0.1083 -0.0210
 5326SOL    HW121302   5.291   5.466   3.556 -1.0007  1.2212  0.6685
 5326SOL    HW221303   5.203   5.425   3.672 -1.6391 -0.0533 -0.2395
 5326SOL     MW21304   5.228   5.415   3.589 -0.5627  0.2300  0.0393
 5327SOL     OW21305   0.398   0.721   5.462  0.1005  0.1524  0.4135
 5327SOL    HW121306   0.404   0.700   5.556  1.2503 -3.0923 -0.2294
 5327SOL    HW221307   0.483   0.694   5.427 -1.0875 -0.8885 -1.8651
 5327SOL     MW21308   0.410   0.715   5.470  0.0956 -0.3962  0.0395
 5328SOL     OW21309   2.823   3.951   3.749 -0.7932  0.1562 -0.0273
 5328SOL    HW121310   2.786   3.911   3.671  1.1190 -3.4551  0.6768
 5328SOL    HW221311   2.759   3.934   3.818 -0.8660  0.0844 -0.1132
 5328SOL     MW21312   2.810   3.944   3.748 -0.5577 -0.3153  0.0518
 5329SOL     OW21313   3.887   2.666   0.244  0.0138  0.7996  0.0470
 5329SOL    HW121314   3.826   2.740   0.238  0.7592  1.4686  0.5279
 5329SOL    HW221315   3.942   2.687   0.320 -0.5561 -0.8579  0.9504
 5329SOL     MW21316   3.886   2.678   0.253  0.0363  0.6731  0.2242
 5330SOL     OW21317   0.132   2.501   4.927  0.1191  0.0348 -0.0412
 5330SOL    HW121318   0.084   2.519   5.008  0.0398 -0.1786 -0.0391
 5330SOL    HW221319   0.104   2.570   4.867  0.3616  0.3344  0.1879
 5330SOL     MW21320   0.122   2.512   4.930  0.1400  0.0458 -0.0116
 5331SOL     OW21321   1.686   3.154   1.391 -0.2115 -0.6252  0.4373
 5331SOL    HW121322   1.666   3.246   1.407 -0.4721 -0.5818 -0.1518
 5331SOL    HW221323   1.775   3.154   1.355 -0.6117 -0.5134 -0.5753
 5331SOL     MW21324   1.695   3.166   1.389 -0.2961 -0.6053  0.2323
 5332SOL     OW21325   1.813   4.228   3.958  0.1735 -0.4160  0.1927
 5332SOL    HW121326   1.811   4.204   4.050 -1.3378  0.9144  0.5645
 5332SOL    HW221327   1.837   4.321   3.958  1.4143 -0.7126 -0.8567
 5332SOL     MW21328   1.816   4.237   3.970  0.1389 -0.2836  0.1060
 5333SOL     OW21329   3.955   5.418   1.768 -0.3331  0.1724 -0.4841
 5333SOL    HW121330   3.957   5.413   1.673 -0.3737  0.5603 -0.5092
 5333SOL    HW221331   3.910   5.501   1.787 -1.6240 -0.5859 -0.1176
 5333SOL     MW21332   3.950   5.428   1.758 -0.5036  0.1250 -0.4404
 5334SOL     OW21333   0.656   3.182   3.981  0.2820  0.0401 -0.2640
 5334SOL    HW121334   0.733   3.185   4.037 -0.1379  0.7329  0.2914
 5334SOL    HW221335   0.678   3.237   3.906  0.6800 -0.5400 -0.5843
 5334SOL     MW21336   0.669   3.189   3.979  0.2792  0.0545 -0.2339
 5335SOL     OW21337   4.188   0.123   3.972 -0.3398  0.0391  0.0273
 5335SOL    HW121338   4.141   0.206   3.983  1.8455  1.1749  1.7023
 5335SOL    HW221339   4.172   0.076   4.054  0.9363  0.2140  0.3958
 5335SOL     MW21340   4.180   0.128   3.984  0.1033  0.2069  0.2889
 5336SOL     OW21341   3.390   1.785   3.734  0.2310  0.0702 -0.4268
 5336SOL    HW121342   3.307   1.743   3.756  1.6141 -1.1551  3.2597
 5336SOL    HW221343   3.449   1.712   3.714  0.8940  0.8061 -1.2257
 5336SOL     MW21344   3.387   1.770   3.734  0.4929  0.0076 -0.0571
 5337SOL     OW21345   3.681   0.602   2.309  0.1317  0.4085  0.0922
 5337SOL    HW121346   3.657   0.605   2.216 -2.2838  1.2606  0.6752
 5337SOL    HW221347   3.623   0.535   2.346  4.0750 -3.3474  0.3326
 5337SOL     MW21348   3.670   0.594   2.302  0.3273  0.0368  0.1976
 5338SOL     OW21349   1.605   3.466   2.141  0.2501  0.4063  0.1403
 5338SOL    HW121350   1.605   3.401   2.211  0.4112  0.1070 -0.1344
 5338SOL    HW221351   1.673   3.437   2.081  1.5780  1.7967  0.8885
 5338SOL     MW21352   1.614   3.454   2.142  0.4407  0.5460  0.2009
 5339SOL     OW21353   4.871   2.751   4.873 -0.5558  0.6552  0.0186
 5339SOL    HW121354   4.862   2.763   4.968 -0.4674 -0.6666  0.2042
 5339SOL    HW221355   4.953   2.796   4.851 -1.5226  2.6411  0.2188
 5339SOL     MW21356   4.880   2.758   4.882 -0.6683  0.7402  0.0680
 5340SOL     OW21357   0.712   3.407   3.240  0.4359 -0.4202 -0.2962
 5340SOL    HW121358   0.697   3.497   3.212 -0.1255 -0.8061 -1.3222
 5340SOL    HW221359   0.632   3.361   3.214 -1.0914 -0.4867  3.7379
 5340SOL     MW21360   0.699   3.412   3.233  0.1685 -0.4781  0.0888
 5341SOL     OW21361   1.812   2.174   2.953  0.1221 -0.0282  0.2057
 5341SOL    HW121362   1.744   2.224   2.997  0.6890 -0.8128  2.0786
 5341SOL    HW221363   1.870   2.240   2.914  0.1650  0.7536  1.5359
 5341SOL     MW21364   1.811   2.189   2.953  0.2002 -0.0285  0.6157
 5342SOL     OW21365   2.364   2.032   2.609 -0.1091  0.5226 -0.1279
 5342SOL    HW121366   2.447   1.987   2.594 -0.8982 -0.6232 -1.2957
 5342SOL    HW221367   2.300   1.981   2.559 -1.6038  1.0782  1.1490
 5342SOL     MW21368   2.366   2.020   2.601 -0.4014  0.4471 -0.1139
 5343SOL     OW21369   1.315   0.907   1.496  0.1487 -0.1965 -0.0893
 5343SOL    HW121370   1.372   0.967   1.545 -0.6157 -0.3572  1.0221
 5343SOL    HW221371   1.374   0.862   1.435  1.0154  0.4602  0.2567
 5343SOL     MW21372   1.330   0.909   1.495  0.1618 -0.1330  0.0973
 5344SOL     OW21373   3.237   3.696   2.523 -0.1037  0.6383 -0.0342
 5344SOL    HW121374   3.168   3.655   2.576 -0.2688 -1.3420 -1.6531
 5344SOL    HW221375   3.196   3.711   2.438  0.7081  1.9551 -0.2224
 5344SOL     MW21376   3.223   3.693   2.519 -0.0209  0.5534 -0.2656
 5345SOL     OW21377   1.901   1.406   2.430 -0.0235  0.2011  0.1871
 5345SOL    HW121378   1.909   1.336   2.495 -0.6381  2.1633  2.5539
 5345SOL    HW221379   1.831   1.377   2.372  1.5466 -2.2885 -0.5855
 5345SOL     MW21380   1.893   1.393   2.431  0.0988  0.1336  0.3912
 5346SOL     OW21381   3.025   3.118   2.065  0.1613 -0.3506 -0.5474
 5346SOL    HW121382   2.976   3.161   2.135 -0.4376 -0.9144 -0.6014
 5346SOL    HW221383   3.098   3.176   2.046 -0.1494  0.2123 -0.0319
 5346SOL     MW21384   3.028   3.131   2.071  0.0448 -0.3507 -0.4883
 5347SOL     OW21385   0.857   4.136   3.357 -0.4463  0.6133 -0.2609
 5347SOL    HW121386   0.800   4.127   3.280 -1.8219 -0.3363  0.8038
 5347SOL    HW221387   0.808   4.093   3.428  0.1944  2.5381  1.4515
 5347SOL     MW21388   0.843   4.129   3.356 -0.5404  0.7381  0.0946
 5348SOL     OW21389   1.234   3.424   3.388  0.6522  0.5481  0.1649
 5348SOL    HW121390   1.230   3.330   3.402 -0.0324  0.3866 -0.9926
 5348SOL    HW221391   1.169   3.442   3.320  2.1644  1.5481 -1.1023
 5348SOL     MW21392   1.226   3.415   3.381  0.7582  0.6554 -0.1455
 5349SOL     OW21393   1.970   4.734   4.539 -0.5979  0.7607  0.0805
 5349SOL    HW121394   1.974   4.668   4.608 -0.2735  0.5499 -0.1426
 5349SOL    HW221395   1.884   4.775   4.551 -0.4720  0.8517  0.7285
 5349SOL     MW21396   1.960   4.731   4.550 -0.5403  0.7453  0.1349
 5350SOL     OW21397   0.188   5.133   0.594  0.5002 -0.1078  0.0874
 5350SOL    HW121398   0.206   5.226   0.577 -1.5692  0.1742 -0.8187
 5350SOL    HW221399   0.230   5.087   0.522 -1.5222  0.4610 -1.5241
 5350SOL     MW21400   0.196   5.139   0.583 -0.0236  0.0011 -0.2349
 5351SOL     OW21401   1.023   2.266   0.471  0.7856  0.6650 -0.1041
 5351SOL    HW121402   1.045   2.179   0.438 -2.4061 -1.0027  1.6610
 5351SOL    HW221403   0.969   2.305   0.403  1.8806  1.1534 -0.7193
 5351SOL     MW21404   1.019   2.260   0.458  0.5172  0.5140  0.0431
 5352SOL     OW21405   2.766   2.442   2.316  0.4203  0.2011 -0.1487
 5352SOL    HW121406   2.848   2.490   2.317  1.1745 -1.0500  0.7795
 5352SOL    HW221407   2.778   2.374   2.250  0.5592 -0.6621  0.7426
 5352SOL     MW21408   2.778   2.439   2.308  0.5347 -0.0695  0.0842
 5353SOL     OW21409   4.718   1.589   2.371 -0.3593  0.0149  0.7416
 5353SOL    HW121410   4.746   1.518   2.314 -1.2008 -0.6211  1.0982
 5353SOL    HW221411   4.773   1.663   2.345  0.4764 -0.7296  0.3095
 5353SOL     MW21412   4.729   1.590   2.360 -0.3600 -0.1618  0.7319
 5354SOL     OW21413   2.768   3.485   0.548 -0.4169  0.3115 -0.2350
 5354SOL    HW121414   2.791   3.466   0.638 -0.7204 -0.4978 -0.3235
 5354SOL    HW221415   2.850   3.511   0.507  0.0209 -0.8045 -0.0973
 5354SOL     MW21416   2.781   3.486   0.554 -0.3997  0.0650 -0.2287
 5355SOL     OW21417   0.340   4.964   0.440 -0.2679  0.3950  0.0261
 5355SOL    HW121418   0.435   4.949   0.446  0.0299  2.4096  1.1103
 5355SOL    HW221419   0.324   4.984   0.348  0.4307  0.5261 -0.0684
 5355SOL     MW21420   0.350   4.964   0.429 -0.1404  0.6697  0.1528
 5356SOL     OW21421   1.265   2.436   0.520  0.3504  0.3433 -0.6370
 5356SOL    HW121422   1.193   2.376   0.503 -0.9505  1.5202  0.3903
 5356SOL    HW221423   1.341   2.380   0.531 -0.3187 -0.9305 -2.0525
 5356SOL     MW21424   1.265   2.421   0.519  0.0982  0.3309 -0.6867
 5357SOL     OW21425   1.592   1.084   1.870 -0.0055 -0.0182  0.1738
 5357SOL    HW121426   1.569   1.176   1.880  2.9365  0.7572  0.6991
 5357SOL    HW221427   1.549   1.040   1.943 -0.5498  1.1213  0.5659
 5357SOL     MW21428   1.584   1.090   1.880  0.3014  0.2269  0.2912
 5358SOL     OW21429   1.725   1.224   3.866 -0.1747 -0.5622  0.3823
 5358SOL    HW121430   1.786   1.235   3.793 -0.3701 -3.3530 -0.3024
 5358SOL    HW221431   1.773   1.174   3.931 -1.7763 -3.2887 -0.3962
 5358SOL     MW21432   1.739   1.219   3.865 -0.4047 -1.2685  0.1950
 5359SOL     OW21433   4.931   3.284   0.226  0.2848 -0.6524  0.3605
 5359SOL    HW121434   5.003   3.255   0.170 -2.7286 -1.2976 -3.6762
 5359SOL    HW221435   4.880   3.205   0.242  1.6923 -0.8591  5.7423
 5359SOL     MW21436   4.933   3.270   0.221  0.0792 -0.7615  0.5327
 5360SOL     OW21437   4.396   2.490   4.475  0.2434  0.3102  0.1775
 5360SOL    HW121438   4.335   2.497   4.549  1.9193  2.9706  1.4334
 5360SOL    HW221439   4.355   2.543   4.406 -1.3637 -2.2428 -0.9794
 5360SOL     MW21440   4.383   2.498   4.476  0.2522  0.3239  0.1901
 5361SOL     OW21441   4.203   1.987   2.054 -0.4308  0.0302 -0.0383
 5361SOL    HW121442   4.126   1.934   2.032 -1.2124 -0.2240  2.9635
 5361SOL    HW221443   4.262   1.926   2.097  0.9122  0.5548 -1.0556
 5361SOL     MW21444   4.201   1.972   2.056 -0.3589  0.0648  0.2158
 5362SOL     OW21445   1.493   0.524   1.538  0.3178  0.2819  0.4912
 5362SOL    HW121446   1.547   0.446   1.524 -1.4754 -0.9583  0.1731
 5362SOL    HW221447   1.447   0.536   1.455 -0.1362  1.1424  0.8517
 5362SOL     MW21448   1.494   0.516   1.525  0.0302  0.2333  0.4967
 5363SOL     OW21449   1.286   5.219   4.940 -0.5361 -0.0211 -0.2270
 5363SOL    HW121450   1.227   5.159   4.895 -1.0358  0.4569 -0.2266
 5363SOL    HW221451   1.373   5.179   4.932 -1.1824 -2.2329  2.2568
 5363SOL     MW21452   1.290   5.206   4.933 -0.6828 -0.2430  0.0910
 5364SOL     OW21453   5.075   3.418   1.615 -0.0169 -0.0866 -0.4845
 5364SOL    HW121454   5.074   3.466   1.698 -2.5660 -0.2597 -0.3358
 5364SOL    HW221455   5.057   3.485   1.549  0.5372 -0.1915 -0.7471
 5364SOL     MW21456   5.073   3.433   1.617 -0.2723 -0.1222 -0.4991
 5365SOL     OW21457   1.829   4.359   3.185  0.0981  0.1026 -0.6090
 5365SOL    HW121458   1.743   4.323   3.162 -0.4056  1.6672 -1.3314
 5365SOL    HW221459   1.881   4.351   3.105 -0.2665  1.5956 -1.0352
 5365SOL     MW21460   1.825   4.354   3.172 -0.0131  0.4940 -0.7561
 5366SOL     OW21461   2.723   5.308   2.730 -0.4434  0.3774 -0.0122
 5366SOL    HW121462   2.641   5.317   2.779  0.1695  1.3641  0.8978
 5366SOL    HW221463   2.791   5.333   2.793  0.7069 -1.7947 -0.2888
 5366SOL     MW21464   2.721   5.312   2.744 -0.2177  0.2256  0.0689
 5367SOL     OW21465   4.192   3.695   0.686  0.0753 -0.0331  0.3295
 5367SOL    HW121466   4.271   3.719   0.734 -0.6330  0.9604  1.0258
 5367SOL    HW221467   4.169   3.773   0.636 -0.0769 -0.5486 -0.4262
 5367SOL     MW21468   4.199   3.708   0.686 -0.0349  0.0281  0.3219
 5368SOL     OW21469   3.150   4.765   0.756 -0.6868 -0.5885  0.4434
 5368SOL    HW121470   3.106   4.829   0.811 -0.7103  0.3438 -0.6043
 5368SOL    HW221471   3.152   4.685   0.807 -2.1990 -0.2205  1.1166
 5368SOL     MW21472   3.145   4.763   0.769 -0.8834 -0.4221  0.3954
 5369SOL     OW21473   3.550   0.587   2.031 -0.0270  0.2404 -0.0582
 5369SOL    HW121474   3.555   0.679   2.005  0.1558  0.5225  0.9486
 5369SOL    HW221475   3.616   0.543   1.977  0.0377  0.7383 -0.3852
 5369SOL     MW21476   3.560   0.593   2.021  0.0047  0.3403  0.0288
 5370SOL     OW21477   2.380   1.242   3.092 -0.1338  0.5793  0.0699
 5370SOL    HW121478   2.314   1.246   3.022 -0.5330  1.4473  0.4684
 5370SOL    HW221479   2.432   1.322   3.080  1.5485 -0.6003 -0.8752
 5370SOL     MW21480   2.378   1.253   3.082  0.0305  0.5394 -0.0001
 5371SOL     OW21481   4.540   0.851   2.389 -0.2428  0.1371  0.0705
 5371SOL    HW121482   4.477   0.891   2.449  0.4338  1.3847 -0.0202
 5371SOL    HW221483   4.494   0.846   2.305 -0.1058  1.3918 -0.0906
 5371SOL     MW21484   4.526   0.855   2.386 -0.1387  0.4574  0.0383
 5372SOL     OW21485   2.773   2.835   5.096 -0.1891 -0.4751 -0.0527
 5372SOL    HW121486   2.678   2.840   5.112 -0.4530  0.0917 -1.6855
 5372SOL    HW221487   2.782   2.841   5.001  1.7041  3.6101  0.1891
 5372SOL     MW21488   2.762   2.836   5.086  0.0195  0.1204 -0.2308
 5373SOL     OW21489   0.501   3.649   2.280  0.2072  0.7357  0.5150
 5373SOL    HW121490   0.526   3.741   2.269 -0.1448  0.8468  0.6188
 5373SOL    HW221491   0.458   3.626   2.198 -0.4061  0.8986  0.7871
 5373SOL     MW21492   0.499   3.658   2.268  0.0836  0.7708  0.5631
 5374SOL     OW21493   5.010   2.215   4.073  0.4343  0.1800 -0.4452
 5374SOL    HW121494   5.052   2.205   4.159 -0.0349  1.5636 -0.0226
 5374SOL    HW221495   4.988   2.126   4.046 -1.8092 -0.1763  2.1162
 5374SOL     MW21496   5.013   2.203   4.081  0.0871  0.3115 -0.0632
 5375SOL     OW21497   1.828   0.894   2.893  0.9321 -0.2403 -0.6564
 5375SOL    HW121498   1.895   0.846   2.845 -0.2758 -1.5649 -1.0643
 5375SOL    HW221499   1.877   0.952   2.951  2.4272 -1.3647 -0.7511
 5375SOL     MW21500   1.843   0.896   2.894  0.9689 -0.5538 -0.7207
 5376SOL     OW21501   5.024   3.509   1.244  0.1865 -0.6281 -0.1857
 5376SOL    HW121502   4.991   3.552   1.322 -0.3968 -1.0189 -0.2112
 5376SOL    HW221503   5.119   3.515   1.252  0.1237  0.6568 -0.1997
 5376SOL     MW21504   5.032   3.515   1.255  0.1038 -0.5136 -0.1908
 5377SOL     OW21505   0.122   4.393   3.995 -0.1439 -0.3191  0.2788
 5377SOL    HW121506   0.139   4.393   4.089 -0.6081 -1.6681  0.3792
 5377SOL    HW221507   0.185   4.330   3.959  1.1128  1.3228 -0.5581
 5377SOL     MW21508   0.133   4.385   4.002 -0.0425 -0.2816  0.1845
 5378SOL     OW21509   0.115   3.772   3.454  0.2943 -0.0730  0.0056
 5378SOL    HW121510   0.029   3.806   3.429  0.6142  0.9205  0.1864
 5378SOL    HW221511   0.135   3.817   3.536  0.3588 -1.4053  0.7468
 5378SOL     MW21512   0.106   3.782   3.461  0.3435 -0.1164  0.1236
 5379SOL     OW21513   4.536   4.594   4.701 -0.0048  0.3294 -0.0950
 5379SOL    HW121514   4.551   4.545   4.621 -1.4335  2.0712 -1.5065
 5379SOL    HW221515   4.624   4.605   4.739  0.8956  0.5952 -2.1163
 5379SOL     MW21516   4.549   4.589   4.696 -0.0724  0.5864 -0.5344
 5380SOL     OW21517   4.406   5.434   5.304  0.4133 -0.1377  0.0491
 5380SOL    HW121518   4.448   5.512   5.338  0.8282 -0.8443  1.1930
 5380SOL    HW221519   4.421   5.438   5.209  1.4098  0.5799  0.2282
 5380SOL     MW21520   4.413   5.445   5.296  0.5940 -0.1363  0.2185
 5381SOL     OW21521   2.879   0.968   0.655  0.3312  0.2699  0.1656
 5381SOL    HW121522   2.789   0.978   0.623  0.5173  1.8917  0.0633
 5381SOL    HW221523   2.928   1.034   0.606  2.1736 -2.4129 -1.8603
 5381SOL     MW21524   2.873   0.978   0.644  0.5909  0.1341 -0.1068
 5382SOL     OW21525   2.592   1.017   0.578 -0.3354 -0.1980 -0.1603
 5382SOL    HW121526   2.604   0.962   0.501 -1.0262  0.2270 -0.5851
 5382SOL    HW221527   2.572   1.104   0.542  0.6538  0.3209  0.4949
 5382SOL     MW21528   2.591   1.021   0.563 -0.2972 -0.0772 -0.1308
 5383SOL     OW21529   0.089   1.324   3.665  0.0581 -0.8159 -0.2309
 5383SOL    HW121530   0.146   1.300   3.591  0.6127 -0.5753  0.1098
 5383SOL    HW221531   0.150   1.336   3.738 -0.4395 -0.5505  0.1411
 5383SOL     MW21532   0.104   1.322   3.665  0.0654 -0.7511 -0.1397
 5384SOL     OW21533   0.029   0.341   2.338  0.3558  0.0030  0.2638
 5384SOL    HW121534   0.071   0.422   2.369  1.0961 -0.5390  0.6965
 5384SOL    HW221535   0.086   0.310   2.268 -0.4172  0.3260 -0.5342
 5384SOL     MW21536   0.042   0.348   2.333  0.3516 -0.0250  0.2170
 5385SOL     OW21537   3.032   2.061   0.447  0.3676  0.0368  0.3951
 5385SOL    HW121538   2.984   1.979   0.458 -0.2798  0.3863  0.2418
 5385SOL    HW221539   3.096   2.042   0.378  0.5180 -0.4634  0.6659
 5385SOL     MW21540   3.034   2.048   0.440  0.3040  0.0175  0.4101
 5386SOL     OW21541   0.964   5.268   1.450 -0.1807  0.1044  0.1559
 5386SOL    HW121542   0.950   5.239   1.360  0.3434 -0.4392  0.2403
 5386SOL    HW221543   1.060   5.270   1.460 -0.2054 -1.5096  1.1992
 5386SOL     MW21544   0.975   5.264   1.440 -0.1168 -0.1718  0.3002
 5387SOL     OW21545   2.675   3.088   1.787  0.0770 -0.2068 -0.1085
 5387SOL    HW121546   2.700   2.998   1.809  1.4864 -0.1870 -1.4505
 5387SOL    HW221547   2.740   3.143   1.832  0.3481  0.0409 -0.7943
 5387SOL     MW21548   2.686   3.084   1.796  0.2921 -0.1725 -0.3681
 5388SOL     OW21549   3.599   0.123   3.232 -0.3729  0.1675 -0.0256
 5388SOL    HW121550   3.690   0.095   3.223 -1.1041 -1.9631 -1.7012
 5388SOL    HW221551   3.576   0.104   3.323  0.5757 -0.0780  0.1739
 5388SOL     MW21552   3.608   0.117   3.242 -0.3451 -0.1367 -0.2146
 5389SOL     OW21553   4.282   2.617   1.574  0.4664  0.3497  0.2015
 5389SOL    HW121554   4.228   2.607   1.653 -0.7023 -0.8485 -0.6917
 5389SOL    HW221555   4.338   2.539   1.573 -0.0662 -0.0366 -0.5275
 5389SOL     MW21556   4.282   2.606   1.584  0.2486  0.1468 -0.0062
 5390SOL     OW21557   3.725   4.939   4.396 -0.1707  0.4697  0.0192
 5390SOL    HW121558   3.748   4.847   4.383  1.0943  0.7565  0.1187
 5390SOL    HW221559   3.723   4.976   4.307  0.4884  0.6045  0.0561
 5390SOL     MW21560   3.728   4.932   4.383  0.0756  0.5237  0.0367
 5391SOL     OW21561   0.896   3.281   0.486  0.0233 -0.1144  0.0023
 5391SOL    HW121562   0.806   3.295   0.515  0.0230 -1.1450  0.5654
 5391SOL    HW221563   0.906   3.185   0.485  0.9264 -0.0254 -0.6304
 5391SOL     MW21564   0.886   3.270   0.489  0.1388 -0.2349 -0.0066
 5392SOL     OW21565   0.574   0.938   1.898  0.6132  0.1151 -0.1101
 5392SOL    HW121566   0.484   0.970   1.891  1.0993  1.7687  0.5206
 5392SOL    HW221567   0.601   0.921   1.808  0.1476  1.0954 -0.4561
 5392SOL     MW21568   0.566   0.940   1.886  0.6158  0.4523 -0.0736
 5393SOL     OW21569   3.959   2.335   4.126  0.2580 -0.1882  0.7694
 5393SOL    HW121570   4.050   2.341   4.096  0.8740 -2.1401  2.1074
 5393SOL    HW221571   3.950   2.406   4.190  0.6401  0.3713  0.2204
 5393SOL     MW21572   3.969   2.345   4.130  0.3858 -0.3664  0.8704
 5394SOL     OW21573   4.154   1.783   1.386 -0.1521  0.0337 -0.0092
 5394SOL    HW121574   4.234   1.792   1.437 -0.4697  2.3559  0.1874
 5394SOL    HW221575   4.103   1.717   1.433  1.5594 -1.4658 -0.1250
 5394SOL     MW21576   4.157   1.776   1.398  0.0264  0.1390  0.0011
 5395SOL     OW21577   4.458   4.194   4.702  0.7532  0.1581  0.6250
 5395SOL    HW121578   4.376   4.241   4.721  0.1362 -0.2659 -0.8848
 5395SOL    HW221579   4.504   4.193   4.786 -0.0303  1.8558  1.1314
 5395SOL     MW21580   4.453   4.200   4.715  0.5739  0.3212  0.4966
 5396SOL     OW21581   4.036   2.451   0.145  0.0001 -0.1537  0.0611
 5396SOL    HW121582   3.974   2.520   0.167 -1.8036 -1.5520 -0.3754
 5396SOL    HW221583   4.026   2.438   0.051  0.2319 -1.0707  0.1481
 5396SOL     MW21584   4.027   2.458   0.136 -0.2011 -0.4501  0.0164
 5397SOL     OW21585   1.604   1.792   4.439  0.1118  0.4481 -1.1919
 5397SOL    HW121586   1.629   1.710   4.482  0.6670 -0.1664 -2.6266
 5397SOL    HW221587   1.653   1.860   4.486 -1.2942  0.1442  0.8137
 5397SOL     MW21588   1.614   1.790   4.451  0.0029  0.3306 -1.1188
 5398SOL     OW21589   4.186   4.218   2.311  0.2369 -0.4828 -0.2326
 5398SOL    HW121590   4.135   4.246   2.388 -0.3634  1.6673 -1.3477
 5398SOL    HW221591   4.158   4.127   2.297 -2.5485  0.2642 -0.1373
 5398SOL     MW21592   4.176   4.210   2.319 -0.1965 -0.1119 -0.3632
 5399SOL     OW21593   4.443   4.848   4.748 -0.0999  0.0028 -0.0234
 5399SOL    HW121594   4.353   4.843   4.781 -0.5913 -0.4080 -1.3658
 5399SOL    HW221595   4.468   4.757   4.733  0.4702  0.1283  0.1192
 5399SOL     MW21596   4.435   4.836   4.751 -0.0898 -0.0337 -0.1770
 5400SOL     OW21597   1.583   4.568   4.003 -0.0346 -0.4464  0.2699
 5400SOL    HW121598   1.491   4.594   3.995  0.0606 -0.0294  0.5635
 5400SOL    HW221599   1.632   4.643   3.971  0.1867 -0.9855 -0.6931
 5400SOL     MW21600   1.577   4.581   3.998  0.0060 -0.4620  0.1842
 5401SOL     OW21601   4.050   0.635   3.168  0.4191 -0.0636 -0.7379
 5401SOL    HW121602   4.110   0.595   3.231  1.9884 -0.7172 -2.5433
 5401SOL    HW221603   3.969   0.584   3.176  0.4994  0.0123  0.8513
 5401SOL     MW21604   4.047   0.623   3.177  0.6302 -0.1375 -0.7656
 5402SOL     OW21605   2.867   0.088   0.013 -0.1452  0.5229  0.2543
 5402SOL    HW121606   2.865   0.182   0.030 -1.0424  0.6816 -0.6399
 5402SOL    HW221607   2.796   0.053   0.068 -1.0692  0.6450 -0.8101
 5402SOL     MW21608   2.857   0.095   0.022 -0.3784  0.5588  0.0035
 5403SOL     OW21609   2.782   0.348   4.708  0.0896  0.3170  0.1416
 5403SOL    HW121610   2.844   0.326   4.639  1.2497  0.1153  1.2039
 5403SOL    HW221611   2.823   0.422   4.754 -1.3582  1.4125 -0.2631
 5403SOL     MW21612   2.795   0.355   4.705  0.0528  0.4314  0.2257
 5404SOL     OW21613   1.099   1.524   1.371 -0.2480  0.1029 -0.8609
 5404SOL    HW121614   1.050   1.604   1.353  0.5440  1.0512  0.9259
 5404SOL    HW221615   1.077   1.465   1.299 -3.6514  0.6177 -0.3879
 5404SOL     MW21616   1.090   1.527   1.359 -0.5823  0.2902 -0.5716
 5405SOL     OW21617   1.209   2.838   1.127  0.2752 -0.3168  0.1306
 5405SOL    HW121618   1.157   2.843   1.207  0.5246 -0.7233  0.3215
 5405SOL    HW221619   1.188   2.751   1.091 -0.3533  0.1254 -0.5983
 5405SOL     MW21620   1.199   2.827   1.132  0.2266 -0.3122  0.0617
 5406SOL     OW21621   3.069   4.104   0.878  0.1558 -0.0114  0.2197
 5406SOL    HW121622   3.085   4.144   0.963  0.7068 -2.2559  1.2370
 5406SOL    HW221623   2.977   4.122   0.859  0.3721  1.6745  0.5917
 5406SOL     MW21624   3.059   4.111   0.886  0.2540 -0.0829  0.3975
 5407SOL     OW21625   0.374   3.312   1.847  0.1094  0.7283 -0.6669
 5407SOL    HW121626   0.425   3.236   1.876 -1.0915  0.2802  0.3801
 5407SOL    HW221627   0.435   3.386   1.855 -0.1346  0.7217  3.4561
 5407SOL     MW21628   0.389   3.312   1.852 -0.0756  0.6701 -0.0051
 5408SOL     OW21629   4.901   2.376   2.927 -0.0259 -0.0647  0.3440
 5408SOL    HW121630   4.987   2.399   2.962  0.2791 -1.4623  0.5880
 5408SOL    HW221631   4.885   2.287   2.960 -1.1441 -0.1836 -0.4643
 5408SOL     MW21632   4.910   2.367   2.935 -0.1300 -0.2588  0.2717
 5409SOL     OW21633   2.210   4.218   4.850  0.1900  0.2517  0.3816
 5409SOL    HW121634   2.205   4.222   4.945 -1.2981 -0.3801  0.3604
 5409SOL    HW221635   2.151   4.147   4.826  1.6064 -0.5399 -0.9491
 5409SOL     MW21636   2.202   4.209   4.859  0.1808  0.0695  0.2085
 5410SOL     OW21637   2.981   0.498   4.857 -0.2883 -0.2792 -0.1392
 5410SOL    HW121638   3.012   0.579   4.817  0.1903 -0.3729  0.0366
 5410SOL    HW221639   2.978   0.516   4.951 -0.7173 -0.2880 -0.1512
 5410SOL     MW21640   2.985   0.510   4.864 -0.2820 -0.2923 -0.1182
 5411SOL     OW21641   3.688   1.149   4.279 -0.1366  0.2184 -0.0316
 5411SOL    HW121642   3.598   1.162   4.309 -0.9919 -0.7156 -1.9675
 5411SOL    HW221643   3.735   1.119   4.356 -1.0830  2.1948  1.4062
 5411SOL     MW21644   3.682   1.147   4.293 -0.3673  0.3518 -0.0953
 5412SOL     OW21645   1.170   1.576   2.052  0.4796  0.0566 -0.0144
 5412SOL    HW121646   1.195   1.585   2.144 -1.1130 -0.4291  0.5069
 5412SOL    HW221647   1.170   1.481   2.037 -3.5347 -0.2527  0.8562
 5412SOL     MW21648   1.173   1.565   2.062 -0.2381 -0.0452  0.1637
 5413SOL     OW21649   1.332   3.737   1.288 -0.2560 -0.5450  0.5841
 5413SOL    HW121650   1.292   3.802   1.231 -0.7615 -0.6086  0.8579
 5413SOL    HW221651   1.387   3.684   1.231  0.3316  0.2600  0.3943
 5413SOL     MW21652   1.334   3.738   1.274 -0.2455 -0.4501  0.5948
 5414SOL     OW21653   4.535   2.195   4.897  0.2013  0.1242 -0.2022
 5414SOL    HW121654   4.451   2.205   4.853  0.3049 -1.0246 -0.6994
 5414SOL    HW221655   4.565   2.285   4.911 -1.6592  0.6007  1.1036
 5414SOL     MW21656   4.528   2.208   4.893 -0.0236  0.0382 -0.0987
 5415SOL     OW21657   2.561   0.178   0.487  0.4039  0.1436 -0.2742
 5415SOL    HW121658   2.479   0.215   0.455  1.3593  0.2596 -2.8256
 5415SOL    HW221659   2.555   0.084   0.467  1.0830  0.2455 -1.0401
 5415SOL     MW21660   2.550   0.170   0.480  0.6132  0.1715 -0.6989
 5416SOL     OW21661   2.521   0.780   3.064 -0.0957  0.2742  0.3389
 5416SOL    HW121662   2.616   0.772   3.064  0.3422  3.5342 -1.3203
 5416SOL    HW221663   2.492   0.730   2.988  0.2995 -0.5331  0.7150
 5416SOL     MW21664   2.529   0.773   3.054  0.0110  0.5881  0.1746
 5417SOL     OW21665   4.767   0.749   0.055 -0.4118  0.0376  0.2422
 5417SOL    HW121666   4.700   0.681   0.058 -0.4978  0.1395  0.6942
 5417SOL    HW221667   4.780   0.766  -0.038 -2.9291  1.8915  0.1086
 5417SOL     MW21668   4.760   0.743   0.044 -0.7451  0.2880  0.2830
 5418SOL     OW21669   4.299   2.796   1.394  0.3730 -0.1739  0.2214
 5418SOL    HW121670   4.367   2.854   1.429  0.0555  0.0527  0.4618
 5418SOL    HW221671   4.293   2.724   1.457  0.2915 -0.1228  0.2719
 5418SOL     MW21672   4.307   2.794   1.406  0.3219 -0.1383  0.2586
 5419SOL     OW21673   3.950   0.704   1.909  0.0619 -0.4783  0.8495
 5419SOL    HW121674   3.927   0.774   1.970  2.7391  0.6886  0.6208
 5419SOL    HW221675   3.971   0.629   1.965 -0.5898 -0.4126  1.1891
 5419SOL     MW21676   3.950   0.703   1.924  0.3212 -0.3205  0.8637
 5420SOL     OW21677   2.416   5.245   3.314 -0.0241  0.2805  0.6938
 5420SOL    HW121678   2.424   5.178   3.382  0.4825 -2.5770 -1.9107
 5420SOL    HW221679   2.322   5.250   3.296 -0.0953  0.5129  1.1302
 5420SOL     MW21680   2.405   5.237   3.320  0.0317 -0.0555  0.4162
 5421SOL     OW21681   2.264   1.304   4.403  0.4488 -0.1797 -0.1594
 5421SOL    HW121682   2.171   1.323   4.417  0.5588  0.5279 -0.3493
 5421SOL    HW221683   2.279   1.328   4.311  1.5026  2.6131  0.6644
 5421SOL     MW21684   2.254   1.309   4.393  0.5978  0.2684 -0.0783
 5422SOL     OW21685   5.197   0.053   0.822  0.0399  0.7872  0.2246
 5422SOL    HW121686   5.172  -0.013   0.758  0.8545  1.2703 -0.6266
 5422SOL    HW221687   5.273   0.015   0.866  0.0280  0.8272  0.2794
 5422SOL     MW21688   5.204   0.040   0.819  0.1427  0.8542  0.1226
 5423SOL     OW21689   5.050   0.251   4.592  0.2028  0.2929 -0.1472
 5423SOL    HW121690   5.010   0.227   4.508 -2.2417  1.1237  0.6964
 5423SOL    HW221691   5.040   0.173   4.647 -1.5711  0.9247  0.4800
 5423SOL     MW21692   5.044   0.238   4.588 -0.3372  0.4801  0.0411
 5424SOL     OW21693   0.383   1.563   2.619  0.2423  0.0242 -0.1336
 5424SOL    HW121694   0.305   1.587   2.671  1.0845  0.8209  0.7949
 5424SOL    HW221695   0.348   1.545   2.532 -0.7710  2.2280 -0.2479
 5424SOL     MW21696   0.368   1.563   2.615  0.2204  0.4083 -0.0294
 5425SOL     OW21697   2.903   1.678   5.120 -0.1542 -0.1488  0.2158
 5425SOL    HW121698   2.828   1.650   5.067  0.4292 -1.3759  0.0138
 5425SOL    HW221699   2.961   1.602   5.122  1.4399  1.0085 -0.2352
 5425SOL     MW21700   2.901   1.665   5.113  0.1245 -0.1577  0.1322
 5426SOL     OW21701   1.206   3.044   2.132 -0.1640 -0.4888 -0.1679
 5426SOL    HW121702   1.164   3.028   2.047  1.0394 -1.1920 -0.6601
 5426SOL    HW221703   1.200   2.959   2.177  1.6079 -0.9279 -0.6735
 5426SOL     MW21704   1.200   3.031   2.127  0.2169 -0.6351 -0.2956
 5427SOL     OW21705   4.610   2.080   2.085  0.3773 -0.0542  0.7237
 5427SOL    HW121706   4.636   2.130   2.162 -0.0273  0.1277  0.7436
 5427SOL    HW221707   4.693   2.058   2.042  0.5413  1.9877 -0.1404
 5427SOL     MW21708   4.624   2.083   2.089  0.3465  0.2305  0.6156
 5428SOL     OW21709   2.131   0.073   0.325 -0.7165 -0.1418  0.1871
 5428SOL    HW121710   2.164  -0.016   0.337 -1.9244 -0.7159 -0.4710
 5428SOL    HW221711   2.062   0.082   0.390 -0.6559  0.2764  0.1923
 5428SOL     MW21712   2.126   0.062   0.335 -0.8634 -0.1617  0.1035
 5429SOL     OW21713   2.231   1.438   1.938 -0.4199  0.1225  0.5154
 5429SOL    HW121714   2.216   1.532   1.928 -0.7829 -0.0127 -0.2558
 5429SOL    HW221715   2.167   1.397   1.880  0.5021 -0.5762 -0.0380
 5429SOL     MW21716   2.221   1.445   1.930 -0.3483  0.0158  0.3458
 5430SOL     OW21717   3.406   5.440   4.461 -0.1188 -0.3380 -0.3823
 5430SOL    HW121718   3.487   5.393   4.442  0.5709  1.8607 -3.6905
 5430SOL    HW221719   3.432   5.508   4.524  0.5847  0.0983 -1.1146
 5430SOL     MW21720   3.420   5.443   4.467  0.0595 -0.0007 -0.8996
 5431SOL     OW21721   5.114   3.993   0.056 -0.2207 -0.1600 -0.4721
 5431SOL    HW121722   5.047   4.012   0.122 -0.7541 -0.9545 -0.7702
 5431SOL    HW221723   5.095   4.053  -0.016  0.7847  1.1964  0.3510
 5431SOL     MW21724   5.103   4.003   0.055 -0.1602 -0.0881 -0.4049
 5432SOL     OW21725   1.098   2.753   0.294  0.2653  0.2619 -0.0634
 5432SOL    HW121726   1.078   2.768   0.387  1.2958  0.5286  0.1250
 5432SOL    HW221727   1.040   2.812   0.247 -0.1810  0.2105  0.4144
 5432SOL     MW21728   1.088   2.762   0.300  0.3401  0.2895  0.0219
 5433SOL     OW21729   2.599   1.420   4.670  0.3151  0.2513 -0.1483
 5433SOL    HW121730   2.579   1.403   4.763  0.5277  2.2934  0.3285
 5433SOL    HW221731   2.544   1.496   4.648  0.6516  0.1099 -1.5515
 5433SOL     MW21732   2.589   1.428   4.679  0.3854  0.4946 -0.2669
 5434SOL     OW21733   1.285   3.171   2.413 -0.2662 -0.7453 -0.1170
 5434SOL    HW121734   1.275   3.202   2.323  3.2264  0.4521 -0.2596
 5434SOL    HW221735   1.341   3.093   2.406  0.8375 -0.0935  1.0294
 5434SOL     MW21736   1.291   3.165   2.401  0.3222 -0.5086  0.0115
 5435SOL     OW21737   3.545   0.831   2.376  0.4783 -0.0097 -0.0223
 5435SOL    HW121738   3.593   0.748   2.384  0.7274  0.1769  0.4629
 5435SOL    HW221739   3.457   0.811   2.406  0.8841  0.2078  1.3682
 5435SOL     MW21740   3.540   0.818   2.381  0.5621  0.0421  0.2178
 5436SOL     OW21741   1.803   4.734   3.947 -0.1868 -0.4364 -0.1400
 5436SOL    HW121742   1.826   4.652   3.903 -1.1583 -1.0722  0.5075
 5436SOL    HW221743   1.784   4.795   3.875 -1.8110 -1.4679 -0.6362
 5436SOL     MW21744   1.804   4.732   3.932 -0.5191 -0.6498 -0.1207
 5437SOL     OW21745   2.709   3.568   4.095  0.3573 -0.4222  0.0732
 5437SOL    HW121746   2.679   3.569   4.005 -2.4266 -2.6118  0.8507
 5437SOL    HW221747   2.630   3.579   4.148  2.0454  2.3250  2.3400
 5437SOL     MW21748   2.695   3.570   4.090  0.2170 -0.3508  0.4629
 5438SOL     OW21749   2.971   0.244   3.912 -0.0169 -0.3105 -0.0652
 5438SOL    HW121750   2.906   0.194   3.963 -1.4124  3.0465  1.7726
 5438SOL    HW221751   3.054   0.227   3.957 -0.3640 -1.3235  0.2262
 5438SOL     MW21752   2.973   0.235   3.925 -0.2400 -0.0104  0.2073
 5439SOL     OW21753   1.216   1.160   3.314 -0.1013  0.2138 -0.3288
 5439SOL    HW121754   1.309   1.143   3.300 -0.3152 -1.1080 -0.2518
 5439SOL    HW221755   1.189   1.210   3.237  0.2868 -0.9484 -1.2557
 5439SOL     MW21756   1.225   1.164   3.302 -0.0790 -0.1042 -0.4376
 5440SOL     OW21757   2.302   2.143   0.112 -0.5771 -0.2952 -0.3776
 5440SOL    HW121758   2.384   2.096   0.124 -0.4657 -0.3832 -1.3956
 5440SOL    HW221759   2.295   2.199   0.189  0.2009 -0.6293 -0.0519
 5440SOL     MW21760   2.312   2.144   0.124 -0.4632 -0.3492 -0.4663
 5441SOL     OW21761   3.586   3.876   5.279  0.2349  0.1575  0.3778
 5441SOL    HW121762   3.602   3.964   5.244  0.6929 -0.6616 -1.6638
 5441SOL    HW221763   3.493   3.860   5.261  0.5651 -0.4238 -0.9966
 5441SOL     MW21764   3.576   3.885   5.272  0.3358 -0.0217 -0.0595
 5442SOL     OW21765   3.207   1.207   3.524 -0.0837 -0.1071 -0.2144
 5442SOL    HW121766   3.211   1.111   3.525  0.5961 -0.0900 -0.7064
 5442SOL    HW221767   3.114   1.227   3.536 -0.2679 -0.8319 -0.3773
 5442SOL     MW21768   3.195   1.197   3.526 -0.0202 -0.1977 -0.2982
 5443SOL     OW21769   3.471   0.383   3.945  0.0924  0.1348  0.0126
 5443SOL    HW121770   3.418   0.417   3.873 -2.0871  0.1622  1.5338
 5443SOL    HW221771   3.430   0.299   3.967  1.1257 -0.1839  0.8000
 5443SOL     MW21772   3.459   0.376   3.939 -0.0543  0.0975  0.3081
 5444SOL     OW21773   4.055   1.797   4.705 -0.2353 -0.1856  0.2789
 5444SOL    HW121774   4.025   1.883   4.676  1.5450  0.5268  0.4512
 5444SOL    HW221775   4.121   1.771   4.640 -0.4635 -1.2677  0.4473
 5444SOL     MW21776   4.059   1.804   4.693 -0.0366 -0.2329  0.3225
 5445SOL     OW21777   2.756   4.622   4.178 -0.1765  0.3477  0.0346
 5445SOL    HW121778   2.841   4.582   4.197 -1.4921 -2.4251  0.6539
 5445SOL    HW221779   2.703   4.604   4.255 -1.4167  1.8315 -0.4287
 5445SOL     MW21780   2.760   4.615   4.190 -0.5037  0.1827  0.0546
 5446SOL     OW21781   0.806   1.075   1.963 -0.5171 -0.1799 -0.0645
 5446SOL    HW121782   0.807   1.135   1.889 -1.1432 -0.4203 -0.2694
 5446SOL    HW221783   0.715   1.048   1.972  0.0846 -3.1338 -1.6454
 5446SOL     MW21784   0.795   1.079   1.955 -0.5202 -0.5888 -0.2931
 5447SOL     OW21785   4.654   1.148   0.622 -0.2155 -0.6978 -0.3811
 5447SOL    HW121786   4.606   1.069   0.597  0.0278 -0.8359 -0.4194
 5447SOL    HW221787   4.686   1.129   0.710  2.3772 -1.8712 -1.4635
 5447SOL     MW21788   4.652   1.135   0.630  0.1476 -0.8657 -0.5246
 5448SOL     OW21789   0.547   4.341   3.177 -0.4154  0.4261 -0.1220
 5448SOL    HW121790   0.509   4.392   3.106 -0.5224 -0.9872 -1.1082
 5448SOL    HW221791   0.552   4.403   3.250 -0.1403  1.9635 -1.3826
 5448SOL     MW21792   0.543   4.355   3.178 -0.3939  0.4420 -0.4096
 5449SOL     OW21793   1.750   4.115   0.093 -0.2787 -0.0635 -0.0814
 5449SOL    HW121794   1.845   4.119   0.082 -0.3150 -1.4015 -1.2008
 5449SOL    HW221795   1.729   4.187   0.152  1.4932 -0.0982  0.6323
 5449SOL     MW21796   1.759   4.125   0.099 -0.0566 -0.2392 -0.1333
 5450SOL     OW21797   3.335   0.188   1.341 -0.6584 -0.2365  0.1752
 5450SOL    HW121798   3.306   0.212   1.253  1.2046  0.1266 -0.3677
 5450SOL    HW221799   3.318   0.266   1.394  0.5979  0.4744 -0.4461
 5450SOL     MW21800   3.329   0.201   1.337 -0.2591 -0.0990  0.0261
 5451SOL     OW21801   0.882   0.895   4.742  0.8716 -0.2878 -0.3710
 5451SOL    HW121802   0.832   0.843   4.679  0.8681 -0.4922 -0.1987
 5451SOL    HW221803   0.973   0.885   4.714  1.0394 -1.6115  0.5334
 5451SOL     MW21804   0.887   0.887   4.730  0.8926 -0.4834 -0.2332
 5452SOL     OW21805   4.597   5.124   2.963  0.3693 -0.0571  0.4820
 5452SOL    HW121806   4.633   5.036   2.967  0.6129  0.0096 -0.1551
 5452SOL    HW221807   4.507   5.115   2.993 -0.0056 -0.7455 -0.8332
 5452SOL     MW21808   4.590   5.112   2.968  0.3525 -0.1367  0.2321
 5453SOL     OW21809   1.311   0.120   3.022 -0.6434 -0.6689  0.0479
 5453SOL    HW121810   1.304   0.028   2.995 -2.2128 -0.7983  0.8003
 5453SOL    HW221811   1.262   0.168   2.955 -1.2067 -0.5702  0.5239
 5453SOL     MW21812   1.304   0.114   3.010 -0.9164 -0.6728  0.2052
 5454SOL     OW21813   0.026   4.984   2.231 -0.2295 -0.4004 -0.2353
 5454SOL    HW121814   0.088   5.046   2.195 -0.9571 -1.1987 -3.0800
 5454SOL    HW221815   0.053   4.974   2.323  1.3124  2.2706 -0.2883
 5454SOL     MW21816   0.037   4.991   2.238 -0.1252 -0.1607 -0.6063
 5455SOL     OW21817   2.516   2.125   4.988 -0.4053 -0.4516  0.0401
 5455SOL    HW121818   2.553   2.169   4.912 -0.4235  0.0862  0.3410
 5455SOL    HW221819   2.428   2.099   4.960 -0.1134 -0.9898 -0.3926
 5455SOL     MW21820   2.509   2.127   4.975 -0.3703 -0.4517  0.0232
 5456SOL     OW21821   2.616   1.896   2.869  0.4947  0.3018 -0.6307
 5456SOL    HW121822   2.553   1.965   2.889  0.0497 -0.5969  1.2663
 5456SOL    HW221823   2.674   1.894   2.945  1.2262 -0.6238 -1.1968
 5456SOL     MW21824   2.615   1.905   2.881  0.5314  0.0682 -0.4604
 5457SOL     OW21825   2.130   0.231   2.381  0.2680 -0.9394  0.1729
 5457SOL    HW121826   2.072   0.293   2.426 -0.2602 -1.4136  0.1548
 5457SOL    HW221827   2.114   0.147   2.425  4.4230 -0.3138  3.5673
 5457SOL     MW21828   2.121   0.228   2.393  0.7323 -0.9200  0.6051
 5458SOL     OW21829   2.201   1.092   1.369  0.2224  0.0442  0.1789
 5458SOL    HW121830   2.160   1.177   1.351 -0.7589 -0.6426 -0.9290
 5458SOL    HW221831   2.290   1.101   1.333 -0.2356  0.2455 -0.9536
 5458SOL     MW21832   2.207   1.104   1.362  0.0382 -0.0180 -0.1079
 5459SOL     OW21833   0.976   4.941   0.491  0.2576  0.2325  0.0079
 5459SOL    HW121834   0.935   4.975   0.412  2.5747 -1.1716 -1.9262
 5459SOL    HW221835   0.965   4.847   0.486  1.5795  0.0221  0.6872
 5459SOL     MW21836   0.969   4.934   0.480  0.7234  0.0258 -0.1528
 5460SOL     OW21837   1.397   3.273   4.566 -0.0465  0.3896  0.3191
 5460SOL    HW121838   1.391   3.183   4.597  0.4972  0.6153  1.1310
 5460SOL    HW221839   1.325   3.282   4.503 -0.2037 -0.5569  0.3528
 5460SOL     MW21840   1.387   3.263   4.562  0.0029  0.2973  0.4274
 5461SOL     OW21841   4.545   2.430   5.488 -0.2823  0.1252  0.0060
 5461SOL    HW121842   4.467   2.431   5.544 -1.7535  1.6831 -1.9255
 5461SOL    HW221843   4.512   2.411   5.400  1.4866  0.8501 -0.8703
 5461SOL     MW21844   4.531   2.428   5.484 -0.2442  0.4175 -0.3534
 5462SOL     OW21845   4.534   4.229   3.963  0.5201 -0.2415 -0.6403
 5462SOL    HW121846   4.604   4.199   4.020 -0.6414  0.3945  1.1998
 5462SOL    HW221847   4.467   4.161   3.969 -0.0946  0.3747 -0.2813
 5462SOL     MW21848   4.534   4.216   3.971  0.2927 -0.0812 -0.3588
 5463SOL     OW21849   0.104   1.425   0.806  0.4974 -0.7937 -0.3338
 5463SOL    HW121850   0.183   1.478   0.816  0.8511 -0.8925 -2.2123
 5463SOL    HW221851   0.136   1.335   0.801  0.1821 -0.9146 -0.1932
 5463SOL     MW21852   0.118   1.420   0.806  0.5023 -0.8218 -0.5563
 5464SOL     OW21853   2.410   0.832   0.624 -0.2394 -0.6462 -0.1410
 5464SOL    HW121854   2.479   0.778   0.663 -0.6495 -2.2752 -1.5376
 5464SOL    HW221855   2.439   0.922   0.639  2.4342 -1.2619 -1.0746
 5464SOL     MW21856   2.423   0.836   0.631  0.0503 -0.9336 -0.4393
 5465SOL     OW21857   4.211   3.607   0.430  0.0479  0.3608  0.3955
 5465SOL    HW121858   4.118   3.605   0.406  0.1602  0.3327 -0.0489
 5465SOL    HW221859   4.212   3.643   0.519 -0.2382  2.4569 -0.3943
 5465SOL     MW21860   4.199   3.611   0.439  0.0257  0.6256  0.2375
 5466SOL     OW21861   5.176   0.015   2.834 -0.3406 -0.1692  0.4964
 5466SOL    HW121862   5.210   0.053   2.753  0.7308  2.4221  2.0372
 5466SOL    HW221863   5.252  -0.024   2.877 -0.3887  0.6549  1.3623
 5466SOL     MW21864   5.190   0.015   2.829 -0.2096  0.2680  0.8045
 5467SOL     OW21865   2.606   1.174   2.540  0.7146  0.0750  0.1115
 5467SOL    HW121866   2.675   1.128   2.587 -0.3502 -1.6869  0.0509
 5467SOL    HW221867   2.569   1.234   2.605  2.5948  1.4441 -0.0123
 5467SOL     MW21868   2.610   1.176   2.555  0.8190  0.0247  0.0879
 5468SOL     OW21869   4.155   1.060   3.683  0.3320 -0.4693 -0.6290
 5468SOL    HW121870   4.080   1.020   3.640 -0.3769  0.3181 -0.1507
 5468SOL    HW221871   4.197   1.112   3.614  0.1664 -0.5488 -0.7909
 5468SOL     MW21872   4.151   1.062   3.668  0.2201 -0.3787 -0.5885
 5469SOL     OW21873   0.239   4.891   5.310 -0.1340 -0.0638 -0.3385
 5469SOL    HW121874   0.274   4.874   5.222 -1.4646 -0.6403 -0.7824
 5469SOL    HW221875   0.146   4.874   5.302 -0.6757  2.0914  0.6250
 5469SOL     MW21876   0.232   4.887   5.297 -0.3736  0.1383 -0.2720
 5470SOL     OW21877   2.080   1.404   5.407  0.3308  0.2289  0.8326
 5470SOL    HW121878   2.115   1.317   5.390 -0.1389  0.3810 -1.0539
 5470SOL    HW221879   2.000   1.388   5.457  0.4307 -0.3975  0.8007
 5470SOL     MW21880   2.074   1.391   5.411  0.2835  0.1682  0.5870
 5471SOL     OW21881   5.121   4.760   4.492  0.2232 -0.6119 -0.1930
 5471SOL    HW121882   5.080   4.800   4.416 -0.0276  0.2606  0.3809
 5471SOL    HW221883   5.200   4.812   4.506 -0.8592  0.6985  1.4527
 5471SOL     MW21884   5.126   4.772   4.484  0.0526 -0.3325  0.0911
 5472SOL     OW21885   2.008   0.080   1.363  0.2279 -0.4180  0.8294
 5472SOL    HW121886   2.061   0.007   1.395  0.5569 -0.2463  0.6792
 5472SOL    HW221887   2.070   0.152   1.355 -0.0285 -0.2204  0.6366
 5472SOL     MW21888   2.023   0.080   1.366  0.2372 -0.3707  0.7855
 5473SOL     OW21889   3.240   3.816   3.251 -0.2056  0.5979 -0.7098
 5473SOL    HW121890   3.325   3.800   3.211 -0.0667  0.0455 -0.2067
 5473SOL    HW221891   3.259   3.823   3.345 -0.3824  2.8356 -0.7963
 5473SOL     MW21892   3.253   3.815   3.258 -0.2104  0.8136 -0.6564
 5474SOL     OW21893   1.198   1.237   0.571  0.4466 -0.1819  0.0194
 5474SOL    HW121894   1.282   1.283   0.571 -0.6292  2.1094  3.0513
 5474SOL    HW221895   1.136   1.299   0.609 -2.3660 -2.2748 -0.8001
 5474SOL     MW21896   1.201   1.251   0.576 -0.0512 -0.1565  0.3026
 5475SOL     OW21897   3.740   2.528   3.894 -0.4639 -0.3921 -0.2307
 5475SOL    HW121898   3.707   2.599   3.840  0.2919 -0.2983 -0.5787
 5475SOL    HW221899   3.798   2.571   3.957 -2.7940 -0.2126  1.9916
 5475SOL     MW21900   3.743   2.542   3.895 -0.6654 -0.3571  0.0092
 5476SOL     OW21901   1.187   2.896   3.020  0.1740  0.1088 -0.7728
 5476SOL    HW121902   1.216   2.914   2.931  1.8772  0.9567 -0.0865
 5476SOL    HW221903   1.258   2.928   3.075 -1.3734  0.7233  0.9531
 5476SOL     MW21904   1.200   2.902   3.016  0.1940  0.2960 -0.4640
 5477SOL     OW21905   1.234   2.649   1.982 -0.3733 -0.5194  1.2510
 5477SOL    HW121906   1.312   2.676   1.933 -2.4677  1.5975 -1.1756
 5477SOL    HW221907   1.261   2.568   2.026  2.7710 -0.6306 -0.5553
 5477SOL     MW21908   1.248   2.642   1.981 -0.2389 -0.2626  0.7091
 5478SOL     OW21909   4.352   1.526   0.295 -0.0495 -0.0041  0.0060
 5478SOL    HW121910   4.420   1.460   0.304  1.5502  1.5909  0.0571
 5478SOL    HW221911   4.389   1.605   0.335 -2.4915  0.5591  1.3680
 5478SOL     MW21912   4.365   1.528   0.302 -0.1573  0.2722  0.1869
 5479SOL     OW21913   4.561   1.533   4.127 -0.0049 -0.3461  0.3939
 5479SOL    HW121914   4.565   1.554   4.034  0.5231  0.0211  0.4950
 5479SOL    HW221915   4.564   1.618   4.171  0.0405 -0.5321  0.7544
 5479SOL     MW21916   4.562   1.546   4.121  0.0685 -0.3229  0.4530
 5480SOL     OW21917   3.448   5.452   2.848 -0.0294  0.1724 -0.2647
 5480SOL    HW121918   3.519   5.426   2.790 -0.5280  1.2421 -1.3863
 5480SOL    HW221919   3.448   5.385   2.916  1.2466 -0.5304 -0.9139
 5480SOL     MW21920   3.457   5.440   2.849  0.0701  0.2193 -0.4914
 5481SOL     OW21921   2.492   2.872   3.910  0.0019  0.1110 -0.1920
 5481SOL    HW121922   2.579   2.832   3.909 -0.9762 -2.1997 -1.7730
 5481SOL    HW221923   2.460   2.858   3.999  1.0781  0.7063  0.3135
 5481SOL     MW21924   2.499   2.865   3.922  0.0144 -0.1086 -0.3297
 5482SOL     OW21925   1.529   5.422   1.449 -0.1780  0.0410 -0.6784
 5482SOL    HW121926   1.502   5.380   1.367  0.7266 -1.4343 -0.2533
 5482SOL    HW221927   1.606   5.474   1.424 -0.3153  0.1489 -0.8850
 5482SOL     MW21928   1.536   5.423   1.435 -0.0798 -0.1341 -0.6504
 5483SOL     OW21929   1.860   3.664   0.410 -0.0259 -0.4003 -0.5908
 5483SOL    HW121930   1.904   3.654   0.494 -1.4164  0.5792  0.2933
 5483SOL    HW221931   1.823   3.752   0.412  0.4635 -0.1168 -2.5169
 5483SOL     MW21932   1.861   3.674   0.421 -0.1413 -0.2386 -0.7242
 5484SOL     OW21933   2.708   1.983   2.019 -0.1028  0.0395  0.0159
 5484SOL    HW121934   2.623   2.021   1.996  0.3874  1.4153  0.3704
 5484SOL    HW221935   2.772   2.036   1.972  0.6503  0.1892  1.1569
 5484SOL     MW21936   2.705   1.995   2.010  0.0564  0.2348  0.2073
 5485SOL     OW21937   3.703   1.318   5.077 -0.0140 -0.7400 -0.3332
 5485SOL    HW121938   3.657   1.316   5.161  2.1489  0.4055  0.9677
 5485SOL    HW221939   3.750   1.234   5.073  1.2851 -0.0863  0.4998
 5485SOL     MW21940   3.703   1.307   5.087  0.4292 -0.5097 -0.0600
 5486SOL     OW21941   3.026   4.657   3.559 -0.4823 -0.0132  0.3570
 5486SOL    HW121942   2.958   4.592   3.578 -0.0136 -0.9213 -0.9074
 5486SOL    HW221943   3.103   4.626   3.607 -0.8108  0.7612  1.4138
 5486SOL     MW21944   3.027   4.645   3.568 -0.4644 -0.0303  0.3304
 5487SOL     OW21945   0.860   1.927   3.231  0.4016 -0.4851  0.3116
 5487SOL    HW121946   0.898   1.861   3.174 -0.1157 -1.5080  1.1159
 5487SOL    HW221947   0.913   1.925   3.310  0.3315  0.0056  0.3772
 5487SOL     MW21948   0.871   1.919   3.234  0.3264 -0.5532  0.4229
 5488SOL     OW21949   0.531   2.746   1.836  0.0596 -0.1456 -0.2451
 5488SOL    HW121950   0.487   2.811   1.781 -1.4409 -0.5749  0.3735
 5488SOL    HW221951   0.602   2.713   1.782  0.4540  1.5299 -0.8087
 5488SOL     MW21952   0.534   2.750   1.822 -0.0820  0.0139 -0.2381
 5489SOL     OW21953   1.387   4.250   0.089 -0.1003 -0.4012 -0.5100
 5489SOL    HW121954   1.431   4.201   0.020 -0.8407 -0.1240 -1.1884
 5489SOL    HW221955   1.294   4.243   0.069 -0.3294 -0.3505  0.4838
 5489SOL     MW21956   1.381   4.243   0.078 -0.2244 -0.3592 -0.4696
 5490SOL     OW21957   0.699   4.056   1.302 -0.1601  0.1522  0.2011
 5490SOL    HW121958   0.783   4.009   1.293  0.1850  0.8888 -0.5088
 5490SOL    HW221959   0.689   4.104   1.220 -0.8862  0.7152  0.6084
 5490SOL     MW21960   0.709   4.056   1.290 -0.2089  0.3186  0.1624
 5491SOL     OW21961   2.582   5.089   1.289  0.0675 -0.2496  0.2538
 5491SOL    HW121962   2.586   5.024   1.219  0.1780 -1.5150  1.3788
 5491SOL    HW221963   2.560   5.038   1.367  1.5822  0.8386  1.4563
 5491SOL     MW21964   2.580   5.074   1.290  0.2756 -0.2723  0.5518
 5492SOL     OW21965   3.718   3.152   2.371  0.2532 -0.6936  0.4679
 5492SOL    HW121966   3.700   3.177   2.280  1.7015  0.6204  0.5048
 5492SOL    HW221967   3.761   3.067   2.364 -0.4771 -1.0396  0.0061
 5492SOL     MW21968   3.721   3.144   2.358  0.3451 -0.5697  0.4135
 5493SOL     OW21969   4.805   1.207   2.380 -0.2830  0.1427  0.1836
 5493SOL    HW121970   4.727   1.225   2.433  0.1343 -1.3426  1.3965
 5493SOL    HW221971   4.821   1.113   2.393  0.8509  0.1119 -1.2322
 5493SOL     MW21972   4.797   1.197   2.389 -0.0844 -0.0514  0.1576
 5494SOL     OW21973   0.766   3.633   5.370 -0.2729  0.2451 -0.2511
 5494SOL    HW121974   0.712   3.554   5.370 -1.8716  1.3059 -0.0326
 5494SOL    HW221975   0.843   3.608   5.421 -1.7603 -0.5556  1.7487
 5494SOL     MW21976   0.769   3.620   5.377 -0.6679  0.2784  0.0329
 5495SOL     OW21977   2.750   3.661   1.150 -0.1424 -0.0347 -0.3402
 5495SOL    HW121978   2.844   3.676   1.159 -0.4147  3.4680 -2.0277
 5495SOL    HW221979   2.727   3.696   1.064 -2.7880 -2.3321 -0.7339
 5495SOL     MW21980   2.759   3.667   1.140 -0.5159  0.1196 -0.6066
 5496SOL     OW21981   4.752   2.267   2.577  0.4701 -0.1164 -0.4762
 5496SOL    HW121982   4.713   2.344   2.617  0.7622 -1.0915  1.8294
 5496SOL    HW221983   4.687   2.238   2.513  0.9187  2.7138 -2.3977
 5496SOL     MW21984   4.738   2.273   2.574  0.5649  0.1211 -0.4270
 5497SOL     OW21985   0.853   2.993   0.476  0.1115  0.7044  0.5235
 5497SOL    HW121986   0.805   2.947   0.545 -0.6318  1.6467  0.6542
 5497SOL    HW221987   0.803   2.977   0.397  0.0995  0.9080  0.4889
 5497SOL     MW21988   0.841   2.985   0.475  0.0148  0.8511  0.5358
 5498SOL     OW21989   0.547   1.307   1.972 -0.1397 -0.0756  0.4735
 5498SOL    HW121990   0.567   1.311   1.879  1.6788  0.0772  0.8328
 5498SOL    HW221991   0.452   1.316   1.977 -0.1000  2.1542 -1.2461
 5498SOL     MW21992   0.538   1.309   1.961  0.0981  0.2294  0.2994
 5499SOL     OW21993   3.872   3.701   1.281 -0.6033 -0.0097 -0.0224
 5499SOL    HW121994   3.905   3.646   1.210  1.5527 -0.4545  1.2262
 5499SOL    HW221995   3.876   3.645   1.359  1.0972  1.6511  1.1839
 5499SOL     MW21996   3.877   3.686   1.282 -0.1096  0.1459  0.2919
 5500SOL     OW21997   0.454   0.689   0.252 -0.3330 -0.3667  0.2814
 5500SOL    HW121998   0.449   0.721   0.342 -1.9412  0.9565 -0.2332
 5500SOL    HW221999   0.542   0.713   0.223 -0.6540  1.5025  0.7149
 5500SOL     MW22000   0.465   0.696   0.260 -0.5799  0.0420  0.2710
   5.48000   5.48000   5.48000
